/*--------------------------------*- C++ -*----------------------------------*\
  =========                 |
  \\      /  F ield         | OpenFOAM: The Open Source CFD Toolbox
   \\    /   O peration     | Website:  https://openfoam.org
    \\  /    A nd           | Version:  9
     \\/     M anipulation  |
\*---------------------------------------------------------------------------*/
FoamFile
{
    format      ascii;
    class       volVectorField;
    location    "1300";
    object      U;
}
// * * * * * * * * * * * * * * * * * * * * * * * * * * * * * * * * * * * * * //

dimensions      [0 1 -1 0 0 0 0];

internalField   nonuniform List<vector> 
4000
(
(0.00509502 -0.0116605 0.00509502)
(0.00803314 -9.30167e-05 0.00425779)
(0.00169362 0.00867006 0.00189776)
(-0.0101995 0.00381171 -0.000129566)
(-0.010342 -0.00222725 -0.00054861)
(-0.00923028 -0.00319735 -0.000534791)
(-0.00734997 -0.0017773 -0.000407468)
(-0.00517361 -0.00106611 -0.000405077)
(-0.00349357 -0.00119253 -0.000349717)
(-0.00174026 -0.00127475 -0.000353198)
(0.000144581 -0.0012552 -0.000293024)
(0.00159932 -0.0011518 -0.000220869)
(0.00291416 -0.000886271 -0.000242712)
(0.00453756 -0.00107668 -0.00035375)
(0.00593472 -0.00247789 -0.000420756)
(0.00615212 -0.00151745 -0.00062948)
(0.0066709 0.00184629 -0.000542665)
(0.00225314 0.0104992 -0.000103797)
(-0.00444845 0.00970897 0.00273749)
(-0.00433617 -0.00272762 0.00421319)
(0.00339388 -0.0219344 0.00339388)
(0.00919814 -0.00686344 0.00375798)
(0.0133338 0.00840107 0.00387486)
(0.0120253 0.00791302 0.00312922)
(0.00924212 0.0052678 0.00236204)
(0.00280528 0.00301594 0.00192457)
(-0.00509296 -0.00179978 -7.9849e-05)
(-0.00374923 -0.00207394 -0.000790258)
(-0.00330156 -0.00167627 -0.00131939)
(-0.00151264 -0.0014851 -0.00179329)
(0.000488606 -0.00124952 -0.00187366)
(0.00211588 -0.00116772 -0.0015306)
(0.00285694 -0.00151356 -0.00104282)
(0.00404392 -0.00135062 -0.000544696)
(-0.00149631 0.0026923 0.00176413)
(-0.00954389 0.00464401 0.00290191)
(-0.014735 0.00482313 0.00413036)
(-0.0144859 0.00430066 0.00519212)
(-0.0114243 -0.00429272 0.005644)
(-0.00417461 -0.0175209 0.00441324)
(0.00214753 -0.0334255 0.00214753)
(0.00671918 -0.0198542 0.00314881)
(0.0118704 -0.00614486 0.00385759)
(0.0156338 0.000896563 0.00387092)
(0.0148835 0.0034211 0.00342138)
(0.010825 0.00409435 0.00286553)
(0.00695589 0.00306266 0.00221326)
(0.00193455 0.000710329 0.00127418)
(-0.00195674 -0.000772604 -0.00112267)
(-0.00140647 -0.000841442 -0.00235991)
(-0.00039246 -0.000751732 -0.00244749)
(0.000663769 -0.000527263 -0.00137919)
(-0.00120515 0.000576289 0.000755711)
(-0.00594387 0.00324295 0.00203269)
(-0.00936159 0.00470583 0.00271752)
(-0.013577 0.0035965 0.00342749)
(-0.0147763 -0.00180173 0.00411626)
(-0.0123207 -0.0097757 0.00443513)
(-0.00811931 -0.0197463 0.00401978)
(-0.00276489 -0.0314325 0.0027044)
(0.00116467 -0.039935 0.00116467)
(0.00357352 -0.0276307 0.00253787)
(0.00462163 -0.0147354 0.00333327)
(0.00667881 -0.0062444 0.00411756)
(0.00749731 -0.000365092 0.00445872)
(0.00695964 0.00242104 0.00420933)
(0.00509291 0.00292985 0.00372102)
(0.00218511 0.00306779 0.00300921)
(-0.000857172 0.0032703 0.00165091)
(-0.00159782 0.00302538 0.00073542)
(-0.000850755 0.00281233 0.00077555)
(-0.00126887 0.00296768 0.00183929)
(-0.00383224 0.0029942 0.00303833)
(-0.00619379 0.00309041 0.00368116)
(-0.00730712 0.00286128 0.00405035)
(-0.00704724 -0.000149382 0.00420075)
(-0.00581389 -0.00740656 0.0038745)
(-0.00465365 -0.0168704 0.00337604)
(-0.00419907 -0.0284015 0.00276165)
(-0.00154489 -0.0392766 0.001343)
(0.000361899 -0.0431254 0.000361898)
(0.00104117 -0.0319466 0.00196362)
(-0.00109799 -0.0204874 0.00271714)
(-0.0010976 -0.0126653 0.00348952)
(-0.00185562 -0.00750762 0.00410565)
(-0.00214036 -0.00443852 0.00426804)
(-0.00227342 -0.00237394 0.00403182)
(-0.00209261 -0.000972818 0.00378162)
(-0.0017376 -0.000561255 0.00362018)
(-0.00119668 -0.000546617 0.00357633)
(-0.000213236 -0.00117876 0.00352191)
(0.000652006 -0.00133759 0.0036083)
(0.00114356 -0.00191441 0.00385028)
(0.0014536 -0.00321638 0.00416013)
(0.00166199 -0.00504932 0.00432057)
(0.00198793 -0.00817337 0.00398997)
(0.00157009 -0.0137745 0.00329443)
(0.00121885 -0.0218122 0.00263442)
(-0.00131089 -0.0328145 0.00200162)
(-0.000595446 -0.0430567 0.000401151)
(-0.00037899 -0.0435404 -0.00037899)
(-0.000927246 -0.0337123 0.00129209)
(-0.0047035 -0.0245525 0.00161465)
(-0.00572627 -0.0183752 0.00188266)
(-0.00648169 -0.0142931 0.00195868)
(-0.00626903 -0.0116405 0.00192573)
(-0.00544107 -0.00985737 0.0018612)
(-0.00409869 -0.00864065 0.0018403)
(-0.00240239 -0.00797009 0.00189913)
(-0.000990583 -0.00776771 0.00201449)
(0.000822022 -0.00856109 0.00181076)
(0.00237092 -0.00895429 0.0017078)
(0.00412483 -0.0096619 0.00169555)
(0.00548529 -0.0108226 0.00177174)
(0.00638763 -0.0125075 0.00184733)
(0.00676006 -0.0151334 0.00186533)
(0.00609698 -0.0192873 0.00178413)
(0.00492512 -0.0254651 0.00157536)
(0.00090645 -0.034336 0.00133016)
(0.000248115 -0.0436856 -0.000333091)
(-0.00129437 -0.0414422 -0.00129437)
(-0.00260249 -0.0336551 0.000275854)
(-0.00732358 -0.0268041 1.88517e-06)
(-0.00891666 -0.0225312 -0.000311137)
(-0.0095841 -0.0199049 -0.000737849)
(-0.00896091 -0.0182308 -0.00111939)
(-0.00747105 -0.0170608 -0.00143986)
(-0.0053839 -0.0161982 -0.00162521)
(-0.00288516 -0.0156316 -0.00159716)
(-0.000929109 -0.0153328 -0.00136498)
(0.00146149 -0.016005 -0.00157178)
(0.00339946 -0.016518 -0.00179378)
(0.00586424 -0.0171364 -0.00179456)
(0.00791484 -0.0179667 -0.00158345)
(0.00938084 -0.0190567 -0.00124023)
(0.0100244 -0.0206746 -0.000856305)
(0.00935688 -0.0232571 -0.000385729)
(0.00764652 -0.0274488 3.63088e-06)
(0.00275454 -0.034118 0.000354877)
(0.00126199 -0.0416293 -0.00119605)
(-0.00270417 -0.0361665 -0.00270417)
(-0.00473566 -0.0305365 -0.00145486)
(-0.0100869 -0.0261891 -0.00222431)
(-0.0120625 -0.0238903 -0.00304031)
(-0.0126 -0.022682 -0.00384416)
(-0.0116066 -0.0220188 -0.00453262)
(-0.00953825 -0.0215428 -0.00508353)
(-0.0067332 -0.0211539 -0.00546947)
(-0.00344572 -0.0208244 -0.00556921)
(-0.00105185 -0.0205538 -0.00529385)
(0.00181746 -0.0209411 -0.00543634)
(0.00419445 -0.0213725 -0.00567832)
(0.00740835 -0.021766 -0.00556623)
(0.0101451 -0.0221564 -0.00518627)
(0.0121561 -0.0225835 -0.00463339)
(0.0131452 -0.0232484 -0.00396733)
(0.0125808 -0.0244058 -0.00311233)
(0.0105083 -0.0266367 -0.00221516)
(0.00500893 -0.0308656 -0.00135265)
(0.00274531 -0.0363494 -0.00256203)
(-0.00512431 -0.0269457 -0.00512431)
(-0.00828843 -0.0231165 -0.00466168)
(-0.0138961 -0.0209807 -0.00570546)
(-0.0159111 -0.0202734 -0.00687195)
(-0.0161778 -0.0201774 -0.00796427)
(-0.014817 -0.0204217 -0.0088642)
(-0.0122144 -0.0207103 -0.0095819)
(-0.00867461 -0.0208775 -0.0100633)
(-0.00448281 -0.0208261 -0.0101517)
(-0.00145139 -0.0205398 -0.0095369)
(0.00232502 -0.0207443 -0.00971564)
(0.00532839 -0.0211193 -0.0102805)
(0.00941671 -0.0212001 -0.010199)
(0.012881 -0.0210392 -0.0097287)
(0.0154227 -0.0207375 -0.00901741)
(0.0167492 -0.0204732 -0.00811567)
(0.0164552 -0.0205508 -0.00697666)
(0.0143688 -0.0212493 -0.00572831)
(0.00863219 -0.0233372 -0.00457894)
(0.00521826 -0.0270862 -0.00497179)
(-0.0090363 -0.0166213 -0.0090363)
(-0.0145343 -0.0131311 -0.010273)
(-0.0201154 -0.0114674 -0.0123725)
(-0.0219627 -0.0108523 -0.0143875)
(-0.0218739 -0.0105575 -0.0163242)
(-0.0200635 -0.010352 -0.0181117)
(-0.0168279 -0.0100541 -0.0196365)
(-0.0123771 -0.00958518 -0.0207699)
(-0.00694018 -0.0089213 -0.0212402)
(-0.00259347 -0.00822186 -0.0202885)
(0.00358116 -0.00830637 -0.0204866)
(0.00786986 -0.0090583 -0.0213513)
(0.0131948 -0.00975141 -0.0209015)
(0.0175716 -0.0102427 -0.0197994)
(0.0207495 -0.0105528 -0.0182973)
(0.0225225 -0.0107592 -0.0165091)
(0.0225708 -0.0110474 -0.014533)
(0.0206413 -0.0116525 -0.0124406)
(0.0149138 -0.0132875 -0.0102269)
(0.00917262 -0.0167151 -0.00888885)
(0.00425779 -9.30186e-05 0.00803314)
(0.00477097 0.00709147 0.00477097)
(-0.0016893 0.00965831 -0.00078097)
(-0.00840932 0.00203266 -0.0020899)
(-0.0082796 -0.00257984 -0.0019026)
(-0.00724447 -0.00330342 -0.00136149)
(-0.00545745 -0.0020672 -0.000699514)
(-0.00383642 -0.00108612 -0.000652843)
(-0.00245749 -0.00083381 -0.000483391)
(-0.00125385 -0.000735356 -0.000470963)
(-0.000124767 -0.000639239 -0.000376625)
(0.00079968 -0.000592012 -0.000259259)
(0.00174073 -0.00057134 -0.000339261)
(0.0029101 -0.00119583 -0.000563146)
(0.00406602 -0.00259406 -0.00105985)
(0.00409305 -0.00232392 -0.00180428)
(0.0041286 -0.000671608 -0.00222435)
(0.00347785 0.00450658 -0.00342123)
(-0.000246293 0.011496 -0.00114966)
(-0.00234658 0.0106029 0.00166584)
(0.00375798 -0.00686344 0.00919814)
(0.00936781 0.00400617 0.00936781)
(0.011949 0.0101986 0.00771052)
(0.0120209 0.00732762 0.00590584)
(0.00931891 0.0045665 0.00392956)
(0.00418768 0.00243485 0.00285702)
(-0.000915491 -0.001313 0.00108323)
(-0.0017365 -0.00231386 -0.000729401)
(-0.00166622 -0.00194394 -0.00154851)
(-0.000916879 -0.0016133 -0.00244427)
(0.000135785 -0.00138878 -0.00261955)
(0.000971783 -0.00143044 -0.00198723)
(0.00115554 -0.0017957 -0.00119224)
(0.0007472 -0.00135967 0.000210633)
(-0.00350416 0.00253585 0.00267751)
(-0.00928712 0.00424104 0.00440721)
(-0.0138029 0.00435513 0.00706759)
(-0.0140936 0.00447414 0.00983773)
(-0.0105457 0.00370481 0.011398)
(-0.00501946 -0.00168337 0.0123265)
(0.00314881 -0.0198542 0.00671918)
(0.0087316 -0.0113193 0.0087316)
(0.0140559 -0.00214197 0.00940101)
(0.0169886 0.0020804 0.00830006)
(0.0157428 0.00369163 0.00659836)
(0.011978 0.00392129 0.00509014)
(0.00841895 0.00248314 0.00371427)
(0.00426422 0.00020527 0.00204573)
(0.000757765 -0.00171536 -0.000642359)
(-0.000652864 -0.00212708 -0.00297608)
(-0.000516487 -0.00204946 -0.00319905)
(-0.000925845 -0.00166986 -0.00146453)
(-0.00348042 0.000145599 0.00131667)
(-0.00745787 0.00286468 0.00330419)
(-0.0106038 0.00481719 0.0047419)
(-0.0142463 0.00449097 0.00636976)
(-0.015899 0.000484592 0.00842896)
(-0.0139716 -0.00620637 0.0101598)
(-0.00983113 -0.0122525 0.0105784)
(-0.00393071 -0.0178994 0.00903861)
(0.00253787 -0.0276307 0.00357352)
(0.00678811 -0.0201907 0.00678811)
(0.00921117 -0.010822 0.00835945)
(0.0112706 -0.00315771 0.00851318)
(0.0119683 0.00226287 0.00776636)
(0.0103178 0.00418521 0.00671133)
(0.00773074 0.00374733 0.00555459)
(0.00469635 0.00284464 0.00412306)
(0.00168346 0.00185135 0.00194995)
(-0.000442154 9.61816e-05 -0.000975402)
(-0.00129393 -6.6923e-05 -0.00105054)
(-0.0029314 0.00175152 0.00184004)
(-0.00566222 0.00299565 0.00402284)
(-0.00836445 0.00409541 0.00542303)
(-0.0104171 0.00484522 0.00649323)
(-0.0115289 0.00293859 0.00744822)
(-0.0105415 -0.00365717 0.00825973)
(-0.00915705 -0.01232 0.00841638)
(-0.00731077 -0.0205862 0.00733708)
(-0.00289614 -0.0267969 0.00440823)
(0.00196362 -0.0319466 0.00104116)
(0.00553638 -0.0248355 0.00553638)
(0.0051925 -0.0152502 0.00782044)
(0.00539708 -0.00645829 0.00872883)
(0.00483476 -3.57991e-05 0.00900189)
(0.00420395 0.00304472 0.00838178)
(0.00272632 0.00378389 0.00732662)
(0.00111668 0.003784 0.00615752)
(-0.000240558 0.00336524 0.00505282)
(-0.000821834 0.00295616 0.00432104)
(-0.000782916 0.00284462 0.00439959)
(-0.00128105 0.00329993 0.00527544)
(-0.00254228 0.00364721 0.00642488)
(-0.00396366 0.00371199 0.00756097)
(-0.00505974 0.00304336 0.00844314)
(-0.0051245 -0.000230553 0.00885712)
(-0.0053985 -0.00727388 0.00847066)
(-0.00544853 -0.0163981 0.00764027)
(-0.0059158 -0.0252602 0.00552237)
(-0.00218353 -0.0317413 0.00123885)
(0.00129209 -0.0337123 -0.000927246)
(0.00467211 -0.0264686 0.00467211)
(0.0024079 -0.0171181 0.00732391)
(0.00165085 -0.00829688 0.00848851)
(0.000173138 -0.00187083 0.00896919)
(-9.34287e-05 0.00182353 0.0088739)
(-0.000672559 0.00313012 0.00826609)
(-0.00115659 0.00367335 0.00764072)
(-0.00123933 0.0037905 0.00718574)
(-0.000874712 0.00369531 0.00689598)
(-3.36664e-05 0.00344211 0.00692836)
(0.000350423 0.00351472 0.007317)
(0.00021984 0.00337909 0.00786005)
(-0.000247978 0.0028631 0.00850297)
(-0.000619164 0.00150403 0.00897893)
(-0.000631512 -0.00243982 0.00886332)
(-0.00194182 -0.00905621 0.00827841)
(-0.0027866 -0.0180004 0.00714621)
(-0.00499747 -0.0268776 0.00455048)
(-0.00143512 -0.0337596 -0.000904287)
(0.000275854 -0.0336551 -0.00260249)
(0.00358563 -0.0259495 0.00358563)
(-0.000175205 -0.0172617 0.00621271)
(-0.00116386 -0.00948729 0.00729327)
(-0.00240346 -0.00426625 0.00766116)
(-0.0027825 -0.00119393 0.00772646)
(-0.00252284 0.000575756 0.00774978)
(-0.00206015 0.0013621 0.00775187)
(-0.0013735 0.00152821 0.00773453)
(-0.000655847 0.0014145 0.00766192)
(0.000244641 0.00114949 0.0076431)
(0.000912447 0.00124848 0.00769875)
(0.00160397 0.00105779 0.00768438)
(0.00209992 0.000208907 0.00768146)
(0.0024193 -0.00160523 0.0075892)
(0.00208006 -0.0046955 0.00748608)
(0.000909189 -0.0100151 0.00710094)
(-0.00013105 -0.017973 0.00610077)
(-0.00384225 -0.0263579 0.00353276)
(-0.000352965 -0.0338887 -0.0025373)
(-0.00145486 -0.0305365 -0.00473566)
(0.00119143 -0.0229453 0.00119143)
(-0.00364354 -0.0160411 0.00337225)
(-0.00464691 -0.0105837 0.00394183)
(-0.00539804 -0.00635277 0.00381894)
(-0.00537865 -0.00367297 0.00357082)
(-0.00472635 -0.00202619 0.0032585)
(-0.00348334 -0.000866141 0.00320756)
(-0.00188091 0.000122346 0.00359631)
(-0.000618958 0.00111987 0.00431533)
(0.000718742 0.000576172 0.00392904)
(0.00194537 -0.000640243 0.0030488)
(0.00345754 -0.0015673 0.00275162)
(0.00458009 -0.00265508 0.00288344)
(0.00518943 -0.00424222 0.00321676)
(0.00520909 -0.00675496 0.00355808)
(0.0045241 -0.0109275 0.00373945)
(0.00354845 -0.0164427 0.00332371)
(-0.00135253 -0.0233254 0.00120477)
(0.00142945 -0.0308501 -0.00461225)
(-0.00466168 -0.0231165 -0.00828843)
(-0.00460985 -0.0175055 -0.00460985)
(-0.00938986 -0.0134692 -0.003522)
(-0.0106967 -0.0113544 -0.00376897)
(-0.0108154 -0.0102093 -0.00448762)
(-0.00973356 -0.00980232 -0.00511235)
(-0.00795421 -0.0097632 -0.00558781)
(-0.00565997 -0.00984118 -0.00572539)
(-0.00302592 -0.00987495 -0.00531217)
(-0.00105942 -0.00941147 -0.00406055)
(0.0015192 -0.00951392 -0.00436843)
(0.00330261 -0.00999991 -0.00567078)
(0.00581138 -0.0099667 -0.00609028)
(0.00802039 -0.00987389 -0.00594799)
(0.00974037 -0.00988839 -0.00547124)
(0.0108347 -0.0102677 -0.00484351)
(0.0107702 -0.0114342 -0.00402559)
(0.00948962 -0.0136361 -0.00361994)
(0.0046544 -0.017746 -0.00454974)
(0.00469119 -0.0233991 -0.00816119)
(-0.010273 -0.0131311 -0.0145343)
(-0.0152934 -0.00803246 -0.0152934)
(-0.0208794 -0.00526847 -0.0176837)
(-0.0225501 -0.0038099 -0.0203382)
(-0.0224463 -0.00285131 -0.0230171)
(-0.0208031 -0.00209289 -0.0255925)
(-0.0179021 -0.00125594 -0.0278131)
(-0.01385 -0.000254137 -0.0294599)
(-0.00864557 0.000921404 -0.0301439)
(-0.00387692 0.00226918 -0.0289906)
(0.00457379 0.00227126 -0.029172)
(0.00924988 0.000891158 -0.0302871)
(0.0143798 -0.000326147 -0.0296427)
(0.0183872 -0.0013613 -0.0280528)
(0.0212561 -0.00222529 -0.0258759)
(0.0228877 -0.0029903 -0.0233071)
(0.0229792 -0.0039546 -0.0205795)
(0.0212723 -0.0054286 -0.0178249)
(0.0155723 -0.00820941 -0.0152831)
(0.0103922 -0.0133176 -0.0144188)
(0.00189776 0.00867006 0.00169363)
(-0.000780972 0.00965831 -0.00168929)
(-0.00518835 0.00388171 -0.00518835)
(-0.0067751 -0.00101362 -0.00384597)
(-0.00659378 -0.00292334 -0.00275977)
(-0.00564679 -0.003001 -0.00174975)
(-0.00402416 -0.0020684 -0.000835602)
(-0.0025298 -0.0011608 -0.000505591)
(-0.00148105 -0.000767008 -0.000319901)
(-0.000756235 -0.000557824 -0.000341866)
(-0.000309504 -0.000381166 -0.000280442)
(9.73244e-05 -0.000332501 -0.000101356)
(0.000637583 -0.000356366 -0.000166802)
(0.00158442 -0.00106397 -0.000530772)
(0.00255578 -0.00227578 -0.00121453)
(0.00269144 -0.00283156 -0.00216786)
(0.00256632 -0.00229502 -0.00302804)
(0.00224491 -0.000728218 -0.00437063)
(0.00125935 0.00335946 -0.00576558)
(-0.00022368 0.00679423 -0.00677209)
(0.00387486 0.00840107 0.0133338)
(0.00771052 0.0101986 0.011949)
(0.010219 0.00837809 0.010219)
(0.0102502 0.00554009 0.00775402)
(0.00758107 0.00353357 0.00497558)
(0.0035909 0.00162415 0.00325267)
(8.37988e-05 -0.00167062 0.00140968)
(-0.000491571 -0.00258329 -4.27817e-05)
(-0.000694612 -0.00218393 -0.00104728)
(-0.000384133 -0.00175173 -0.00205438)
(-5.80939e-06 -0.00153092 -0.00233688)
(0.000311069 -0.00159943 -0.00162867)
(0.000266647 -0.00193033 -0.000762668)
(-3.35375e-05 -0.00184318 0.000484491)
(-0.00281313 0.00164776 0.00283375)
(-0.00699488 0.00373627 0.00506671)
(-0.0106577 0.00409122 0.00840484)
(-0.0115358 0.00403947 0.012194)
(-0.00881244 0.00425424 0.0145151)
(-0.00447077 0.00358945 0.0149084)
(0.00385759 -0.00614485 0.0118704)
(0.00940101 -0.00214197 0.0140559)
(0.0140138 0.00101543 0.0140138)
(0.015969 0.00302107 0.011965)
(0.0146381 0.00401116 0.00930403)
(0.0114804 0.00371454 0.00710116)
(0.00842742 0.00197771 0.00527312)
(0.00463805 -0.000488047 0.00304607)
(0.00166427 -0.00216241 0.000292876)
(0.000112941 -0.00260081 -0.00223121)
(-0.000562078 -0.00252765 -0.00271663)
(-0.00133567 -0.00213429 -0.0008064)
(-0.00343912 -0.000646782 0.0019768)
(-0.0071544 0.00217154 0.00447947)
(-0.00992828 0.00454763 0.00648298)
(-0.0128011 0.00537034 0.00870674)
(-0.0142967 0.00328637 0.0115285)
(-0.0129488 -0.00117247 0.0140736)
(-0.00920397 -0.00543889 0.0149528)
(-0.00413073 -0.00828701 0.0134967)
(0.00333327 -0.0147354 0.00462163)
(0.00835945 -0.010822 0.00921117)
(0.0114608 -0.00580602 0.0114608)
(0.0136053 -0.000367337 0.0115145)
(0.0137777 0.00349868 0.0103513)
(0.011952 0.00459716 0.00885549)
(0.00927886 0.00362033 0.00724793)
(0.00627322 0.00198512 0.00529987)
(0.00323804 1.29212e-05 0.00237232)
(0.000564815 -0.00181321 -0.00117122)
(-0.00120232 -0.0019151 -0.00156295)
(-0.00337031 -9.00591e-05 0.00182275)
(-0.00636286 0.00214448 0.00494874)
(-0.00922175 0.00394065 0.00695726)
(-0.0115978 0.00532819 0.00858787)
(-0.0130326 0.00470608 0.0100475)
(-0.0126634 0.000534812 0.0112212)
(-0.0108226 -0.00579226 0.011257)
(-0.00827 -0.0110522 0.00949355)
(-0.00357219 -0.0149884 0.00538122)
(0.00271714 -0.0204874 -0.00109799)
(0.00782044 -0.0152502 0.0051925)
(0.00894597 -0.00937727 0.00894597)
(0.00963326 -0.00292898 0.0104508)
(0.00949262 0.00242624 0.0106922)
(0.00838942 0.00487472 0.00986345)
(0.00633525 0.00477908 0.00847459)
(0.00391273 0.00359316 0.00666106)
(0.00147287 0.00208892 0.00441761)
(-0.000278644 0.000613896 0.00170072)
(-0.00103903 0.000680372 0.00166522)
(-0.00258078 0.00232313 0.00447797)
(-0.00493229 0.00382229 0.00680675)
(-0.00725105 0.00499579 0.00860985)
(-0.00908667 0.00518552 0.00990725)
(-0.00985661 0.00286632 0.0105835)
(-0.00974284 -0.00271812 0.0101811)
(-0.00915162 -0.00936644 0.00862304)
(-0.00805548 -0.0150835 0.00501802)
(-0.0029672 -0.0203979 -0.00104366)
(0.00161465 -0.0245525 -0.0047035)
(0.00732391 -0.0171181 0.0024079)
(0.00695399 -0.0105225 0.00695399)
(0.00669209 -0.00355149 0.00915685)
(0.00563018 0.00228702 0.0100147)
(0.00472082 0.00534865 0.00970027)
(0.00330215 0.00579994 0.00860314)
(0.00166363 0.00513299 0.00713293)
(0.000200967 0.00423787 0.0055274)
(-0.000503366 0.00347512 0.00409524)
(-0.000545358 0.00347211 0.00417967)
(-0.00130681 0.00441296 0.00577082)
(-0.00281556 0.00535971 0.00743374)
(-0.00444124 0.00596505 0.00883758)
(-0.00573174 0.00540057 0.00975965)
(-0.00648445 0.00226052 0.00981659)
(-0.00737278 -0.00355264 0.00875342)
(-0.007623 -0.0104147 0.00654543)
(-0.00773885 -0.0168482 0.00212193)
(-0.00180299 -0.0246133 -0.00479897)
(1.8851e-06 -0.0268041 -0.00732358)
(0.00621271 -0.0172617 -0.000175206)
(0.00466844 -0.0101374 0.00466844)
(0.00424746 -0.00337803 0.0071919)
(0.00290467 0.00144423 0.00817133)
(0.00197584 0.00432346 0.00795918)
(0.00122999 0.00491712 0.0072087)
(0.000497537 0.00434242 0.0062848)
(-9.33039e-05 0.00345928 0.00540918)
(-0.00035525 0.00287276 0.00467234)
(-0.000423316 0.00286726 0.00472433)
(-0.000831112 0.00371795 0.00557819)
(-0.00150443 0.00466548 0.00648224)
(-0.00227707 0.00514107 0.0073011)
(-0.00301225 0.00437594 0.00780413)
(-0.00390039 0.00147059 0.00772956)
(-0.00509253 -0.00338446 0.00661832)
(-0.00544003 -0.0100453 0.00426701)
(-0.00662376 -0.0171192 -0.000362777)
(-7.59081e-05 -0.0270739 -0.00734605)
(-0.00222431 -0.0261891 -0.0100869)
(0.00337225 -0.0160411 -0.00364354)
(0.000775954 -0.00859099 0.000775955)
(0.000590436 -0.00161551 0.00295139)
(4.55133e-05 0.00348261 0.00397853)
(-4.7734e-05 0.00587752 0.00379597)
(-0.000194658 0.00671448 0.00320645)
(-0.000208912 0.00690309 0.00261831)
(-6.28777e-05 0.00687723 0.00224868)
(-0.00012588 0.00676586 0.00219542)
(-0.000474032 0.006779 0.00208004)
(-0.000728254 0.00699649 0.00216577)
(-0.000730221 0.00706797 0.00254071)
(-0.000819019 0.00685995 0.00304872)
(-0.00094881 0.0059293 0.00340875)
(-0.00107863 0.00347705 0.00335287)
(-0.00143557 -0.00151334 0.00234942)
(-0.0014021 -0.0085023 0.000425401)
(-0.00364852 -0.0161362 -0.00372075)
(0.00224192 -0.0265809 -0.0100514)
(-0.00570546 -0.0209807 -0.0138961)
(-0.003522 -0.0134692 -0.00938986)
(-0.00654909 -0.00816017 -0.00654909)
(-0.00630537 -0.00503836 -0.00547301)
(-0.00564751 -0.00303166 -0.00517006)
(-0.00385968 -0.00218202 -0.00442929)
(-0.00233824 -0.00240684 -0.00439001)
(-0.00119717 -0.00298186 -0.00463281)
(-0.000383994 -0.00325433 -0.00461135)
(-0.000233826 -0.00209176 -0.00407809)
(-0.0001229 -0.00215581 -0.00430547)
(-0.000170451 -0.00323536 -0.0049024)
(0.000539418 -0.00283123 -0.0049194)
(0.00163232 -0.00219372 -0.00466213)
(0.00315866 -0.00195014 -0.0047988)
(0.00507018 -0.00277585 -0.00563614)
(0.0058799 -0.0047641 -0.00586349)
(0.00636352 -0.00810077 -0.00677457)
(0.00347971 -0.0136469 -0.00944969)
(0.00578209 -0.0213388 -0.0138686)
(-0.0123725 -0.0114674 -0.0201154)
(-0.0176837 -0.00526847 -0.0208794)
(-0.0232848 -0.00206951 -0.0232848)
(-0.0246092 -0.000328447 -0.026143)
(-0.0241659 0.000880662 -0.029061)
(-0.0223516 0.0019172 -0.0320411)
(-0.0194335 0.0030972 -0.0348477)
(-0.0154086 0.00448673 -0.037065)
(-0.0100617 0.00607964 -0.038091)
(-0.00483448 0.00787878 -0.0367999)
(0.00513389 0.00796956 -0.036947)
(0.010338 0.00613792 -0.0382196)
(0.015666 0.00449425 -0.0372148)
(0.0197053 0.00307184 -0.0350685)
(0.0226353 0.00185253 -0.0323151)
(0.0244763 0.000802873 -0.029365)
(0.0249559 -0.000415012 -0.0264224)
(0.0236907 -0.00218154 -0.0235003)
(0.0180248 -0.00542547 -0.0209509)
(0.012564 -0.0116909 -0.0200969)
(-0.000129567 0.00381172 -0.0101995)
(-0.00208991 0.00203266 -0.00840932)
(-0.00384597 -0.00101362 -0.0067751)
(-0.00482262 -0.00248704 -0.00482262)
(-0.00477697 -0.00290232 -0.00325519)
(-0.00401234 -0.0024197 -0.00181678)
(-0.0026914 -0.00187998 -0.000632814)
(-0.00130712 -0.00120244 1.95731e-05)
(-0.000515903 -0.000869497 0.000429347)
(-0.000254795 -0.000621118 0.000489355)
(-0.000456355 -0.000395312 0.000518462)
(-0.000593498 -0.00034843 0.000578709)
(-0.000396323 -0.000337102 0.000336792)
(0.000284139 -0.000745151 -0.000202148)
(0.00117441 -0.00171781 -0.00111874)
(0.00158347 -0.00291128 -0.00238839)
(0.00156287 -0.00309335 -0.00346575)
(0.001297 -0.00264984 -0.00469707)
(0.0009744 -0.00174354 -0.00625113)
(0.000196524 -0.000704964 -0.00848009)
(0.00312922 0.00791302 0.0120253)
(0.00590584 0.00732762 0.0120209)
(0.00775402 0.00554009 0.0102502)
(0.00732928 0.00387418 0.00732928)
(0.00513454 0.00243283 0.00452124)
(0.00239292 0.000468477 0.00277471)
(0.00036535 -0.00238655 0.00137605)
(0.000209006 -0.00283554 0.0006161)
(8.46693e-05 -0.00243335 2.36708e-05)
(7.36184e-05 -0.00195591 -0.000854997)
(-6.87608e-05 -0.00170852 -0.00120157)
(-0.000216921 -0.00173956 -0.000601522)
(-0.000305093 -0.00203746 4.41615e-05)
(-0.00050384 -0.00223273 0.000661646)
(-0.00155356 -0.000102999 0.00207744)
(-0.00423986 0.00257619 0.00391588)
(-0.00692039 0.00368784 0.00686261)
(-0.00788773 0.00389961 0.0104382)
(-0.00627041 0.00404487 0.013098)
(-0.00349737 0.00437874 0.0136285)
(0.00387093 0.000896566 0.0156338)
(0.00830006 0.0020804 0.0169886)
(0.011965 0.00302107 0.015969)
(0.0132721 0.00388211 0.0132721)
(0.0122389 0.00407894 0.0102727)
(0.00997757 0.00306382 0.00788334)
(0.00749548 0.00103286 0.0059242)
(0.00422783 -0.00140686 0.00367186)
(0.00198556 -0.00273613 0.0014998)
(0.00064209 -0.00305863 -0.000632601)
(-0.000500099 -0.00295919 -0.00127975)
(-0.00137732 -0.00262579 0.000378018)
(-0.00278927 -0.00164936 0.00244333)
(-0.00578925 0.000788615 0.00476963)
(-0.00833683 0.00338456 0.0069757)
(-0.0103505 0.00528497 0.00923652)
(-0.0114204 0.00527121 0.0120969)
(-0.010514 0.00343495 0.014914)
(-0.00753435 0.00130523 0.0163623)
(-0.00376664 -0.000149128 0.0153606)
(0.00411756 -0.0062444 0.00667881)
(0.00851318 -0.00315771 0.0112706)
(0.0115145 -0.000367337 0.0136053)
(0.013382 0.00263372 0.013382)
(0.0134731 0.00449962 0.0118715)
(0.0119687 0.0044466 0.0100916)
(0.00960581 0.00300092 0.00828573)
(0.00688849 0.00105847 0.00623463)
(0.00391229 -0.00113597 0.00333956)
(0.00128777 -0.00267394 0.000169011)
(-0.000971333 -0.00282059 -0.000545993)
(-0.0031511 -0.00135609 0.00243906)
(-0.00611227 0.00100507 0.00558801)
(-0.00882639 0.0030854 0.00778467)
(-0.011103 0.00493172 0.00970319)
(-0.012386 0.00573017 0.0115175)
(-0.0121715 0.00438967 0.013042)
(-0.0104825 0.00138555 0.0133833)
(-0.00792729 -0.00172344 0.0110677)
(-0.00417176 -0.00513908 0.00653173)
(0.00348952 -0.0126653 -0.0010976)
(0.00872883 -0.00645829 0.00539707)
(0.0104508 -0.00292898 0.00963326)
(0.0115225 0.000852639 0.0115225)
(0.0116122 0.00402785 0.0116811)
(0.0105568 0.00520903 0.010795)
(0.00851912 0.00445709 0.00935395)
(0.0059954 0.0026883 0.00742928)
(0.00327881 0.000515461 0.00480748)
(0.000940076 -0.00169024 0.00131603)
(-0.00125284 -0.00174474 0.000927339)
(-0.0034904 0.000677201 0.00452937)
(-0.00619566 0.00289513 0.00733808)
(-0.00873062 0.00466992 0.00935396)
(-0.0107142 0.00564716 0.0108581)
(-0.0116344 0.00495953 0.0117479)
(-0.0114694 0.00219697 0.0115097)
(-0.0105528 -0.00153888 0.00940419)
(-0.00891414 -0.00524981 0.00501627)
(-0.00388679 -0.0120812 -0.0014125)
(0.00188266 -0.0183752 -0.00572627)
(0.00848851 -0.00829688 0.00165085)
(0.00915685 -0.00355149 0.0066921)
(0.00939601 0.000708948 0.00939601)
(0.00898727 0.00439383 0.0105478)
(0.00809659 0.00621903 0.0104012)
(0.00650783 0.00597402 0.00939164)
(0.00444798 0.00458294 0.0077829)
(0.00221184 0.00286049 0.00560909)
(0.000397645 0.00122733 0.0030339)
(-0.0010918 0.00136005 0.00312109)
(-0.00292915 0.0031748 0.00577002)
(-0.00519652 0.0049387 0.00798101)
(-0.00728401 0.00627337 0.00956123)
(-0.00886501 0.00657148 0.0104916)
(-0.00973786 0.00504489 0.0104883)
(-0.0101463 0.00176961 0.00914605)
(-0.00995434 -0.00227395 0.00625728)
(-0.00901424 -0.00731104 0.00122281)
(-0.00214923 -0.0182449 -0.00595067)
(-0.000311137 -0.0225312 -0.00891666)
(0.00729327 -0.00948729 -0.00116386)
(0.0071919 -0.00337803 0.00424746)
(0.00717838 0.000962228 0.00717838)
(0.00647181 0.00429425 0.00863357)
(0.00577177 0.00606615 0.00889545)
(0.00484629 0.00586495 0.0083672)
(0.00358843 0.00446265 0.00737539)
(0.00205354 0.00270397 0.00606845)
(0.000435959 0.00129378 0.00460138)
(-0.00135741 0.00154376 0.00477184)
(-0.00301005 0.00322877 0.00628997)
(-0.00457091 0.00502023 0.00755417)
(-0.00586528 0.00632102 0.00841512)
(-0.00684358 0.00649182 0.00872324)
(-0.00759162 0.00494944 0.00819856)
(-0.00823748 0.00188271 0.00658077)
(-0.00824589 -0.0024601 0.00372497)
(-0.00781573 -0.00895915 -0.00143077)
(0.00024782 -0.0227817 -0.00901013)
(-0.00304031 -0.0238903 -0.0120625)
(0.00394183 -0.0105837 -0.00464691)
(0.00295139 -0.00161551 0.000590436)
(0.00374406 0.00392347 0.00374406)
(0.00344554 0.00655408 0.00529408)
(0.00342586 0.00775982 0.00563647)
(0.00327404 0.00780392 0.00537812)
(0.00284251 0.00738742 0.00484694)
(0.00211099 0.00692325 0.00428188)
(0.000620304 0.00654071 0.00377403)
(-0.00172108 0.00672428 0.00384833)
(-0.0031923 0.00723834 0.00436729)
(-0.00396176 0.00775363 0.00485293)
(-0.00438467 0.00816797 0.00521378)
(-0.00455032 0.00809394 0.00521857)
(-0.00462636 0.0070009 0.00460154)
(-0.0048361 0.00461774 0.00303089)
(-0.00399888 -0.000679851 0.000159565)
(-0.00426461 -0.0104164 -0.00481229)
(0.00310789 -0.0243299 -0.0120929)
(-0.00687195 -0.0202734 -0.0159111)
(-0.00376897 -0.0113544 -0.0106967)
(-0.00547301 -0.00503836 -0.00630537)
(-0.00324224 -0.00115441 -0.00324224)
(-0.0026157 0.000869561 -0.00262629)
(-0.00118638 0.00104805 -0.00252791)
(0.000123657 0.000206221 -0.00286465)
(0.000869701 -0.000832424 -0.00335743)
(0.00102347 -0.00141962 -0.00354672)
(0.000207257 -0.000260207 -0.00311527)
(-0.00100446 -0.000189129 -0.00321746)
(-0.00184414 -0.00120354 -0.00360157)
(-0.00175276 -0.000552185 -0.00339514)
(-0.00103826 0.000524562 -0.0030057)
(0.000246533 0.00141298 -0.00285813)
(0.00175578 0.00135229 -0.00311495)
(0.00240214 -0.000471487 -0.00359849)
(0.00510637 -0.00470462 -0.00651841)
(0.00378203 -0.0114833 -0.0108204)
(0.00700632 -0.0206743 -0.0159502)
(-0.0143875 -0.0108523 -0.0219627)
(-0.0203382 -0.0038099 -0.0225501)
(-0.026143 -0.000328447 -0.0246092)
(-0.0270821 0.00157223 -0.0270821)
(-0.0261653 0.0029017 -0.0297174)
(-0.0243076 0.00409541 -0.0329176)
(-0.021564 0.00552725 -0.036387)
(-0.017656 0.00728499 -0.0395638)
(-0.0120911 0.00935266 -0.0415692)
(-0.00613052 0.0116895 -0.0410002)
(0.00608471 0.0118453 -0.0410492)
(0.0121321 0.00945825 -0.0415955)
(0.0177462 0.00734447 -0.0395978)
(0.0216959 0.00555041 -0.0364549)
(0.0244621 0.00408601 -0.0330274)
(0.0263423 0.00287528 -0.0298548)
(0.0273291 0.00153626 -0.0272055)
(0.0265995 -0.000402811 -0.0247851)
(0.0207915 -0.00396097 -0.0226419)
(0.0146645 -0.0111036 -0.0219996)
(-0.000548611 -0.00222725 -0.010342)
(-0.0019026 -0.00257984 -0.0082796)
(-0.00275977 -0.00292333 -0.00659378)
(-0.00325519 -0.00290232 -0.00477697)
(-0.00309597 -0.00246209 -0.00309597)
(-0.00241419 -0.00183874 -0.00149658)
(-0.00128431 -0.00152174 -5.56563e-05)
(-0.000104538 -0.00123094 0.000967583)
(0.000440837 -0.00103705 0.0017078)
(0.000211623 -0.000848264 0.0020501)
(-0.000674853 -0.000601885 0.00208007)
(-0.00135476 -0.000538791 0.00178612)
(-0.00139758 -0.000455609 0.00120177)
(-0.00103241 -0.000537181 0.000408906)
(-0.000161347 -0.00118595 -0.000646676)