/*--------------------------------*- C++ -*----------------------------------*\
  =========                 |
  \\      /  F ield         | OpenFOAM: The Open Source CFD Toolbox
   \\    /   O peration     | Website:  https://openfoam.org
    \\  /    A nd           | Version:  9
     \\/     M anipulation  |
\*---------------------------------------------------------------------------*/
FoamFile
{
    format      ascii;
    class       volScalarField;
    location    "1400";
    object      epsilon;
}
// * * * * * * * * * * * * * * * * * * * * * * * * * * * * * * * * * * * * * //

dimensions      [0 2 -3 0 0 0 0];

internalField   nonuniform List<scalar> 
4000
(
1.87658e-07
1.02406e-07
4.88139e-08
3.19088e-08
2.54388e-08
2.11226e-08
1.55408e-08
1.27009e-08
1.13391e-08
1.08517e-08
1.0516e-08
1.01432e-08
1.06162e-08
1.23642e-08
1.76772e-08
2.0399e-08
2.67426e-08
4.38626e-08
8.824e-08
1.36143e-07
3.25617e-07
2.26019e-07
1.71324e-07
1.34463e-07
1.06743e-07
5.93198e-08
2.72333e-08
2.42953e-08
2.23725e-08
2.28777e-08
2.28559e-08
2.12725e-08
2.25201e-08
2.403e-08
7.20678e-08
1.25225e-07
1.67246e-07
2.1915e-07
2.65011e-07
3.26871e-07
4.15726e-07
3.76867e-07
3.25998e-07
2.64143e-07
2.01218e-07
1.44744e-07
9.83419e-08
5.3434e-08
2.80439e-08
3.12637e-08
3.15594e-08
2.87237e-08
4.81284e-08
9.06701e-08
1.40171e-07
2.02025e-07
2.7145e-07
3.3626e-07
3.93164e-07
4.28661e-07
4.59326e-07
4.32068e-07
3.73427e-07
2.99776e-07
2.26289e-07
1.60591e-07
1.07955e-07
6.77318e-08
4.082e-08
3.88628e-08
3.95939e-08
4.72653e-08
7.40513e-08
1.12176e-07
1.59423e-07
2.2383e-07
3.02939e-07
3.83452e-07
4.46199e-07
4.70333e-07
4.85919e-07
4.79303e-07
4.36854e-07
3.74311e-07
3.11332e-07
2.57161e-07
2.12593e-07
1.74774e-07
1.49658e-07
1.40147e-07
1.5458e-07
1.76784e-07
2.06248e-07
2.39831e-07
2.7935e-07
3.29879e-07
3.90207e-07
4.4955e-07
4.92937e-07
4.96113e-07
5.06084e-07
5.24793e-07
5.16023e-07
4.94764e-07
4.69116e-07
4.40772e-07
4.12701e-07
3.85366e-07
3.60105e-07
3.39825e-07
3.52299e-07
3.7929e-07
4.08175e-07
4.36752e-07
4.64156e-07
4.91108e-07
5.1492e-07
5.33758e-07
5.39338e-07
5.16502e-07
5.26464e-07
5.74768e-07
6.05069e-07
6.22849e-07
6.31902e-07
6.30414e-07
6.18681e-07
5.98131e-07
5.69311e-07
5.34942e-07
5.45199e-07
5.83757e-07
6.16811e-07
6.40174e-07
6.53106e-07
6.54486e-07
6.44224e-07
6.2426e-07
5.90665e-07
5.37645e-07
5.50905e-07
6.3168e-07
7.01192e-07
7.55585e-07
7.97176e-07
8.2362e-07
8.32461e-07
8.21277e-07
7.88108e-07
7.35475e-07
7.45011e-07
8.00026e-07
8.37622e-07
8.52337e-07
8.45885e-07
8.20232e-07
7.77697e-07
7.21357e-07
6.4869e-07
5.63087e-07
5.85031e-07
7.08135e-07
8.20622e-07
9.14648e-07
9.91803e-07
1.04836e-06
1.08171e-06
1.08527e-06
1.05046e-06
9.74252e-07
9.8466e-07
1.06178e-06
1.10141e-06
1.10231e-06
1.07187e-06
1.01602e-06
9.37771e-07
8.41742e-07
7.26278e-07
5.98586e-07
6.37281e-07
8.09612e-07
9.7324e-07
1.11145e-06
1.23066e-06
1.32953e-06
1.40243e-06
1.44025e-06
1.43002e-06
1.35539e-06
1.36945e-06
1.44648e-06
1.46114e-06
1.42662e-06
1.3557e-06
1.25745e-06
1.13751e-06
9.97435e-07
8.30406e-07
6.52866e-07
1.02406e-07
7.31941e-08
5.35422e-08
4.76383e-08
4.94763e-08
4.54318e-08
3.17378e-08
2.138e-08
1.77239e-08
1.64878e-08
1.63054e-08
1.63846e-08
1.85423e-08
2.7341e-08
3.78476e-08
3.78035e-08
3.92902e-08
4.74569e-08
6.35735e-08
6.98682e-08
2.26019e-07
2.57465e-07
2.11817e-07
1.88661e-07
1.74016e-07
1.28386e-07
5.97237e-08
3.61337e-08
2.55814e-08
2.07731e-08
2.05203e-08
2.31986e-08
3.19975e-08
6.26471e-08
1.32448e-07
1.91287e-07
2.35827e-07
3.01185e-07
3.63858e-07
2.96971e-07
3.76867e-07
4.81114e-07
4.10798e-07
3.12757e-07
2.34686e-07
1.76855e-07
1.3041e-07
8.33244e-08
4.71042e-08
2.83665e-08
2.87575e-08
4.33593e-08
7.44119e-08
1.15086e-07
1.58814e-07
2.13576e-07
2.83311e-07
3.60554e-07
4.12553e-07
3.95372e-07
4.32068e-07
4.11556e-07
3.59783e-07
2.90056e-07
2.18864e-07
1.6483e-07
1.21068e-07
8.34471e-08
5.60237e-08
4.26538e-08
4.50557e-08
5.76887e-08
8.1931e-08
1.15983e-07
1.58145e-07
2.13766e-07
2.92137e-07
3.62318e-07
4.08631e-07
4.46413e-07
4.79303e-07
4.31233e-07
3.95375e-07
3.3802e-07
2.64546e-07
2.00299e-07
1.52298e-07
1.12986e-07
8.79758e-08
8.29195e-08
8.93381e-08
1.01453e-07
1.29926e-07
1.68816e-07
2.15745e-07
2.81978e-07
3.58275e-07
4.12866e-07
4.43442e-07
4.91689e-07
5.24793e-07
4.71197e-07
4.51498e-07
4.2006e-07
3.7092e-07
2.96556e-07
2.45896e-07
2.06967e-07
1.83162e-07
1.73861e-07
1.81499e-07
1.97006e-07
2.25564e-07
2.67893e-07
3.20717e-07
3.94402e-07
4.41949e-07
4.70787e-07
4.87252e-07
5.36721e-07
5.74768e-07
5.19613e-07
5.0701e-07
4.94104e-07
4.79507e-07
4.39621e-07
3.70545e-07
3.13415e-07
2.80547e-07
2.62304e-07
2.69557e-07
2.93487e-07
3.35055e-07
3.99007e-07
4.67044e-07
5.01425e-07
5.12217e-07
5.2332e-07
5.36015e-07
5.87323e-07
6.3168e-07
5.93836e-07
5.91403e-07
5.92911e-07
6.12514e-07
6.23202e-07
6.12686e-07
5.79342e-07
5.23193e-07
4.5654e-07
4.68353e-07
5.38983e-07
5.95665e-07
6.28197e-07
6.40389e-07
6.29474e-07
6.07474e-07
6.05452e-07
6.10385e-07
6.45563e-07
7.08135e-07
7.56074e-07
8.15686e-07
8.65353e-07
9.17675e-07
9.6129e-07
9.87708e-07
9.79774e-07
9.15359e-07
7.86866e-07
7.95721e-07
9.22424e-07
9.91825e-07
1.00481e-06
9.80945e-07
9.35769e-07
8.80416e-07
8.30898e-07
7.74447e-07
7.24493e-07
8.09612e-07
1.02727e-06
1.23964e-06
1.42953e-06
1.60566e-06
1.76453e-06
1.89374e-06
1.97297e-06
1.97565e-06
1.87914e-06
1.90333e-06
2.00331e-06
2.00541e-06
1.92899e-06
1.80012e-06
1.63942e-06
1.46022e-06
1.26724e-06
1.05156e-06
8.30088e-07
4.88139e-08
5.35422e-08
5.40497e-08
6.06467e-08
6.64969e-08
6.03362e-08
4.28205e-08
2.79663e-08
2.22883e-08
2.05854e-08
2.08796e-08
2.1898e-08
2.5956e-08
3.65736e-08
5.17102e-08
5.35925e-08
4.84091e-08
4.7074e-08
4.63584e-08
3.55106e-08
1.71324e-07
2.11817e-07
2.07999e-07
2.07402e-07
1.91621e-07
1.39222e-07
7.64967e-08
4.64091e-08
3.18694e-08
2.52003e-08
2.49705e-08
2.95514e-08
4.24641e-08
7.15983e-08
1.41424e-07
2.07617e-07
2.46088e-07
2.81602e-07
3.12272e-07
2.467e-07
3.25998e-07
4.10798e-07
3.65622e-07
2.95287e-07
2.3591e-07
1.86356e-07
1.41954e-07
9.5008e-08
5.78925e-08
3.58498e-08
3.49747e-08
5.27613e-08
8.53288e-08
1.25169e-07
1.64774e-07
2.11157e-07
2.63815e-07
3.2404e-07
3.59403e-07
3.32872e-07
3.73427e-07
3.59783e-07
3.15841e-07
2.59118e-07
2.0641e-07
1.6434e-07
1.2785e-07
9.42209e-08
6.80744e-08
4.81238e-08
4.93766e-08
6.88219e-08
9.14389e-08
1.20463e-07
1.55759e-07
2.00446e-07
2.60227e-07
3.21724e-07
3.64026e-07
3.79863e-07
4.36854e-07
3.95375e-07
3.40454e-07
2.8063e-07
2.18566e-07
1.69511e-07
1.31634e-07
9.85699e-08
7.31812e-08
5.97846e-08
6.39478e-08
7.98244e-08
1.05716e-07
1.37797e-07
1.75809e-07
2.28852e-07
2.98002e-07
3.59704e-07
4.12947e-07
4.45264e-07
5.16023e-07
4.51498e-07
3.86778e-07
3.2565e-07
2.64647e-07
2.0384e-07
1.6025e-07
1.2586e-07
1.01761e-07
9.10637e-08
9.51116e-08
1.10055e-07
1.37471e-07
1.73764e-07
2.17931e-07
2.79188e-07
3.41955e-07
4.04089e-07
4.6877e-07
5.28763e-07
6.05069e-07
5.0701e-07
4.35224e-07
3.6051e-07
3.03812e-07
2.51976e-07
2.04633e-07
1.67509e-07
1.42884e-07
1.30214e-07
1.34114e-07
1.51095e-07
1.80806e-07
2.21456e-07
2.68184e-07
3.16441e-07
3.70737e-07
4.46073e-07
5.19919e-07
6.19156e-07
7.01192e-07
5.91403e-07
5.34997e-07
4.43424e-07
3.63163e-07
3.37308e-07
3.09943e-07
2.8058e-07
2.47005e-07
2.1324e-07
2.16428e-07
2.53809e-07
2.90656e-07
3.22416e-07
3.49287e-07
3.70749e-07
4.46126e-07
5.41181e-07
6.02957e-07
7.1708e-07
8.20622e-07
8.15686e-07
8.94449e-07
9.73041e-07
1.03356e-06
1.05916e-06
1.09633e-06
1.09285e-06
9.84898e-07
7.78365e-07
7.87878e-07
9.97861e-07
1.1152e-06
1.12495e-06
1.08748e-06
1.0497e-06
9.79447e-07
9.01425e-07
8.31166e-07
8.39546e-07
9.7324e-07
1.23964e-06
1.49672e-06
1.73378e-06
1.96415e-06
2.18405e-06
2.37613e-06
2.50676e-06
2.53029e-06
2.40713e-06
2.44419e-06
2.5718e-06
2.55349e-06
2.42509e-06
2.23086e-06
2.00579e-06
1.76977e-06
1.52892e-06
1.26908e-06
9.99657e-07
3.19088e-08
4.76383e-08
6.06467e-08
7.21951e-08
7.53948e-08
6.5737e-08
4.71672e-08
3.33579e-08
2.64798e-08
2.4906e-08
2.58885e-08
2.73182e-08
3.18067e-08
4.09253e-08
5.69789e-08
6.63809e-08
6.10876e-08
5.05102e-08
4.11684e-08
2.46993e-08
1.34463e-07
1.88661e-07
2.07402e-07
2.08491e-07
1.79877e-07
1.23927e-07
7.54727e-08
5.04979e-08
3.64352e-08
3.0515e-08
3.02682e-08
3.41833e-08
4.57068e-08
6.69786e-08
1.18102e-07
1.89666e-07
2.34631e-07
2.5295e-07
2.49811e-07
1.80224e-07
2.64143e-07
3.12757e-07
2.95287e-07
2.57494e-07
2.18774e-07
1.80459e-07
1.37965e-07
9.27107e-08
5.88146e-08
4.13562e-08
3.97735e-08
5.38878e-08
8.18505e-08
1.20601e-07
1.57755e-07
1.93697e-07
2.2908e-07
2.61236e-07
2.77254e-07
2.60359e-07
2.99776e-07
2.90056e-07
2.59118e-07
2.23124e-07
1.88097e-07
1.56546e-07
1.26238e-07
9.72284e-08
7.23183e-08
5.2344e-08
5.14179e-08
7.2334e-08
9.48158e-08
1.18794e-07
1.46538e-07
1.78877e-07
2.1694e-07
2.56097e-07
2.87005e-07
2.91829e-07
3.74311e-07
3.3802e-07
2.8063e-07
2.30576e-07
1.87044e-07
1.5214e-07
1.23222e-07
9.66911e-08
7.40348e-08
5.55889e-08
5.78736e-08
7.79274e-08
9.98027e-08
1.24509e-07
1.52908e-07
1.90199e-07
2.38885e-07
2.92921e-07
3.52276e-07
3.8118e-07
4.94764e-07
4.2006e-07
3.25651e-07
2.60966e-07
2.09112e-07
1.657e-07
1.32282e-07
1.03779e-07
7.98408e-08
6.34232e-08
6.63393e-08
8.51815e-08
1.10672e-07
1.39512e-07
1.72469e-07
2.15674e-07
2.69074e-07
3.37261e-07
4.36685e-07
5.08201e-07
6.22849e-07
4.94104e-07
3.6051e-07
2.81964e-07
2.29871e-07
1.8918e-07
1.55911e-07
1.28064e-07
1.05546e-07
9.15129e-08
9.42854e-08
1.11749e-07
1.3707e-07
1.65904e-07
1.97415e-07
2.34451e-07
2.83885e-07
3.63963e-07
5.05072e-07
6.3877e-07
7.55586e-07
5.92911e-07
4.43424e-07
3.48859e-07
3.1916e-07
3.07761e-07
2.99501e-07
2.86123e-07
2.56212e-07
2.13512e-07
2.17217e-07
2.64248e-07
2.96591e-07
3.09789e-07
3.14379e-07
3.18355e-07
3.40244e-07
4.3642e-07
6.00648e-07
7.73758e-07
9.14648e-07
8.65353e-07
9.73041e-07
1.08257e-06
1.24669e-06
1.43353e-06
1.60218e-06
1.68107e-06
1.57306e-06
1.28956e-06
1.2954e-06
1.59417e-06
1.71581e-06
1.63976e-06
1.46471e-06
1.25834e-06
1.07297e-06
9.69592e-07
8.78192e-07
9.36211e-07
1.11145e-06
1.42953e-06
1.73378e-06
2.02303e-06
2.32331e-06
2.62625e-06
2.90585e-06
3.11461e-06
3.18824e-06
3.08049e-06
3.13113e-06
3.24477e-06
3.17715e-06
2.96994e-06
2.68615e-06
2.37435e-06
2.06609e-06
1.773e-06
1.46614e-06
1.14425e-06
2.54388e-08
4.94763e-08
6.64969e-08
7.53948e-08
7.42757e-08
6.21333e-08
4.81825e-08
3.78913e-08
3.15393e-08
3.03342e-08
3.18121e-08
3.27003e-08
3.6449e-08
4.35791e-08
5.42586e-08
6.76756e-08
6.9901e-08
5.9326e-08
4.21321e-08
2.06689e-08
1.06743e-07
1.74016e-07
1.91621e-07
1.79877e-07
1.42331e-07
9.91026e-08
6.866e-08
4.97763e-08
3.86225e-08
3.63646e-08
3.65425e-08
3.7067e-08
4.50027e-08
5.99786e-08
8.64137e-08
1.3774e-07
1.90328e-07
2.13616e-07
2.02425e-07
1.26555e-07
2.01218e-07
2.34686e-07
2.3591e-07
2.18774e-07
1.94183e-07
1.62104e-07
1.21743e-07
8.22768e-08
5.57011e-08
4.45519e-08
4.35315e-08
5.14792e-08
7.17767e-08
1.04117e-07
1.39722e-07
1.68552e-07
1.91973e-07
2.07522e-07
2.07049e-07
1.87289e-07
2.26289e-07
2.18864e-07
2.0641e-07
1.88097e-07
1.66343e-07
1.42889e-07
1.18241e-07
9.34963e-08
7.04829e-08
5.47312e-08
5.3825e-08
6.93377e-08
9.07555e-08
1.11669e-07
1.3214e-07
1.54067e-07
1.75702e-07
1.93454e-07
2.03613e-07
2.09349e-07
3.11332e-07
2.64546e-07
2.18566e-07
1.87044e-07
1.60091e-07
1.36232e-07
1.1434e-07
9.36179e-08
7.53391e-08
6.0819e-08
6.18963e-08
7.82847e-08
9.53897e-08
1.13476e-07
1.33426e-07
1.56846e-07
1.84449e-07
2.16631e-07
2.65611e-07
3.18292e-07
4.69116e-07
3.7092e-07
2.64647e-07
2.09112e-07
1.71909e-07
1.42322e-07
1.17708e-07
9.57764e-08
7.64989e-08
6.28151e-08
6.47328e-08
7.99143e-08
9.93823e-08
1.20492e-07
1.4361e-07
1.71627e-07
2.08175e-07
2.65875e-07
3.8159e-07
4.84179e-07
6.31902e-07
4.79507e-07
3.03812e-07
2.29871e-07
1.90062e-07
1.61714e-07
1.38593e-07
1.18887e-07
1.02809e-07
9.64644e-08
9.82077e-08
1.06707e-07
1.23927e-07
1.42982e-07
1.63534e-07
1.88184e-07
2.25621e-07
3.02431e-07
4.90979e-07
6.5024e-07
7.97176e-07
6.12514e-07
3.63163e-07
3.1916e-07
3.207e-07
3.31228e-07
3.42157e-07
3.44089e-07
3.18338e-07
2.70993e-07
2.73451e-07
3.24863e-07
3.52832e-07
3.48714e-07
3.31728e-07
3.12853e-07
3.05094e-07
3.51226e-07
6.21262e-07
8.1831e-07
9.91803e-07
9.17675e-07
1.03356e-06
1.24669e-06
1.61779e-06
1.98486e-06
2.28271e-06
2.43604e-06
2.26914e-06
1.81038e-06
1.81692e-06
2.30406e-06
2.50081e-06
2.34924e-06
2.03256e-06
1.63876e-06
1.24117e-06
1.03159e-06
9.33248e-07
1.01707e-06
1.23066e-06
1.60566e-06
1.96415e-06
2.32331e-06
2.72681e-06
3.13929e-06
3.52698e-06
3.83446e-06
3.98068e-06
3.90861e-06
3.98136e-06
4.05667e-06
3.91682e-06
3.61074e-06
3.21688e-06
2.79307e-06
2.37879e-06
2.01524e-06
1.65218e-06
1.27029e-06
2.11226e-08
4.54318e-08
6.03362e-08
6.5737e-08
6.21333e-08
5.49859e-08
4.79024e-08
4.14166e-08
3.6908e-08
3.70282e-08
3.89782e-08
3.83223e-08
4.02874e-08
4.47205e-08
5.00834e-08
5.59761e-08
6.11268e-08
5.7686e-08
4.24062e-08
1.7883e-08
5.93198e-08
1.28386e-07
1.39222e-07
1.23927e-07
9.91026e-08
7.74968e-08
6.04372e-08
4.74744e-08
4.04013e-08
4.20936e-08
4.33191e-08
3.96953e-08
4.35713e-08
5.32538e-08
6.62684e-08
8.48085e-08
1.12006e-07
1.33178e-07
1.24399e-07
5.21295e-08
1.44744e-07
1.76855e-07
1.86356e-07
1.80459e-07
1.62104e-07
1.32754e-07
9.87956e-08
7.00507e-08
5.22287e-08
4.68668e-08
4.73378e-08
4.93369e-08
6.16812e-08
8.3321e-08
1.11625e-07
1.38685e-07
1.56266e-07
1.61198e-07
1.52922e-07
1.26905e-07
1.60591e-07
1.6483e-07
1.6434e-07
1.56546e-07
1.42889e-07
1.25417e-07
1.05947e-07
8.47196e-08
6.57424e-08
5.62805e-08
5.66391e-08
6.423e-08
8.07974e-08
9.95812e-08
1.15776e-07
1.30023e-07
1.42001e-07
1.48395e-07
1.48205e-07
1.47432e-07
2.57161e-07
2.00299e-07
1.69511e-07
1.5214e-07
1.36232e-07
1.19868e-07
1.03424e-07
8.77912e-08
7.41903e-08
6.6003e-08
6.79408e-08
7.66371e-08
8.89752e-08
1.01858e-07
1.15652e-07
1.30227e-07
1.45324e-07
1.63457e-07
2.00138e-07
2.68933e-07
4.40772e-07
2.96556e-07
2.0384e-07
1.657e-07
1.42322e-07
1.22737e-07
1.04997e-07
8.9082e-08
7.63623e-08
7.26723e-08
7.53684e-08
7.90908e-08
9.0675e-08
1.05052e-07
1.20894e-07
1.38707e-07
1.61261e-07
2.01381e-07
3.0323e-07
4.58962e-07
6.30414e-07
4.39621e-07
2.51976e-07
1.8918e-07
1.61714e-07
1.43447e-07
1.28392e-07
1.16297e-07
1.09201e-07
1.20052e-07
1.22405e-07
1.11719e-07
1.18485e-07
1.28937e-07
1.41268e-07
1.56619e-07
1.82743e-07
2.48714e-07
4.50468e-07
6.51266e-07
8.2362e-07
6.23202e-07
3.37308e-07
3.07761e-07
3.31228e-07
3.65313e-07
3.97414e-07
4.12035e-07
3.81297e-07
3.23738e-07
3.23848e-07
3.85259e-07
4.21058e-07
4.04378e-07
3.6521e-07
3.23226e-07
2.94904e-07
3.25389e-07
6.322e-07
8.47438e-07
1.04836e-06
9.6129e-07
1.05916e-06
1.43353e-06
1.98486e-06
2.53803e-06
2.99028e-06
3.20562e-06
2.89154e-06
2.15155e-06
2.14428e-06
2.90357e-06
3.2962e-06
3.1007e-06
2.62406e-06
2.04274e-06
1.46006e-06
1.08051e-06
9.854e-07
1.07836e-06
1.32953e-06
1.76453e-06
2.18405e-06
2.62625e-06
3.13929e-06
3.67434e-06
4.19185e-06
4.6265e-06
4.88404e-06
4.90228e-06
5.00929e-06
4.98125e-06
4.72764e-06
4.29564e-06
3.77237e-06
3.22639e-06
2.70156e-06
2.25167e-06
1.82256e-06
1.37555e-06
1.55408e-08
3.17378e-08
4.28205e-08
4.71672e-08
4.81825e-08
4.79024e-08
4.63451e-08
4.41501e-08
4.29002e-08
4.64097e-08
4.92073e-08
4.49475e-08
4.3706e-08
4.45941e-08
4.54685e-08
4.51924e-08
4.3054e-08
3.80253e-08
2.7664e-08
1.29819e-08
2.72333e-08
5.97237e-08
7.64967e-08
7.54727e-08
6.866e-08
6.04372e-08
5.20313e-08
4.54022e-08
4.43857e-08
5.71943e-08
6.05151e-08
4.52445e-08
4.29473e-08
4.72444e-08
5.33378e-08
5.92167e-08
6.34981e-08
6.3451e-08
4.90018e-08
2.47084e-08
9.8342e-08
1.3041e-07
1.41954e-07
1.37965e-07
1.21743e-07
9.87956e-08
7.67261e-08
5.98977e-08
5.14912e-08
6.0406e-08
6.47385e-08
5.09843e-08
5.43159e-08
6.58984e-08
8.18489e-08
1.00244e-07
1.15112e-07
1.18736e-07
1.08348e-07
7.99885e-08
1.07955e-07
1.21068e-07
1.2785e-07
1.26238e-07
1.18241e-07
1.05947e-07
9.02966e-08
7.35621e-08
6.25277e-08
7.34697e-08
8.03695e-08
6.28659e-08
6.95243e-08
8.35781e-08
9.74681e-08
1.07778e-07
1.1342e-07
1.13326e-07
1.07246e-07
1.03318e-07
2.12594e-07
1.52298e-07
1.31634e-07
1.23222e-07
1.1434e-07
1.03424e-07
9.15949e-08
8.03922e-08
7.31927e-08
9.21288e-08
1.03519e-07
7.66355e-08
8.07624e-08
9.01465e-08
9.9713e-08
1.08909e-07
1.17206e-07
1.27316e-07
1.5573e-07
2.32674e-07
4.12701e-07
2.45896e-07
1.6025e-07
1.32282e-07
1.17708e-07
1.04997e-07
9.26994e-08
8.20945e-08
7.84955e-08
1.12904e-07
1.26913e-07
8.28082e-08
8.27332e-08
9.14213e-08
1.02046e-07
1.13618e-07
1.28285e-07
1.58787e-07
2.5247e-07
4.3458e-07
6.18681e-07
3.70546e-07
2.04633e-07
1.55911e-07
1.38593e-07
1.28392e-07
1.20328e-07
1.15264e-07
1.20084e-07
1.82942e-07
1.97753e-07
1.24389e-07
1.1626e-07
1.19072e-07
1.24673e-07
1.32999e-07
1.50141e-07
2.02314e-07
3.82849e-07
6.41702e-07
8.32461e-07
6.12686e-07
3.09943e-07
2.99502e-07
3.42157e-07
3.97414e-07
4.48298e-07
4.6697e-07
4.15967e-07
3.80067e-07
3.86622e-07
4.14376e-07
4.72934e-07
4.57213e-07
4.00612e-07
3.39052e-07
2.91545e-07
2.98774e-07
6.22135e-07
8.57861e-07
1.08171e-06
9.87708e-07
1.09633e-06
1.60218e-06
2.28271e-06
2.99028e-06
3.61079e-06
3.85927e-06
3.21009e-06
2.4827e-06
2.50742e-06
3.11632e-06
3.88291e-06
3.73302e-06
3.10035e-06
2.37915e-06
1.66458e-06
1.13762e-06
1.019e-06
1.11501e-06
1.40243e-06
1.89374e-06
2.37613e-06
2.90585e-06
3.52698e-06
4.19185e-06
4.86147e-06
5.46799e-06
5.92799e-06
6.2319e-06
6.40379e-06
6.05392e-06
5.58024e-06
4.9756e-06
4.30256e-06
3.62994e-06
2.99782e-06
2.45874e-06
1.96101e-06
1.45274e-06
1.27009e-08
2.138e-08
2.79663e-08
3.33579e-08
3.78913e-08
4.14166e-08
4.41501e-08
4.67477e-08
5.01598e-08
5.82378e-08
6.23544e-08
5.33317e-08
4.74055e-08
4.39787e-08
4.12137e-08
3.79323e-08
3.36102e-08
2.78367e-08
2.04381e-08
1.10556e-08
2.42953e-08
3.61337e-08
4.64091e-08
5.04979e-08
4.97763e-08
4.74744e-08
4.54022e-08
4.63053e-08
5.57874e-08
9.19852e-08
1.00289e-07
5.89027e-08
4.55529e-08
4.30686e-08
4.4023e-08
4.5181e-08
4.49351e-08
4.12978e-08
3.26437e-08
2.13663e-08
5.3434e-08
8.33244e-08
9.5008e-08
9.27107e-08
8.22768e-08
7.00507e-08
5.98977e-08
5.46538e-08
6.46894e-08
1.80177e-07
1.96799e-07
6.84086e-08
5.20546e-08
5.3912e-08
6.0238e-08
6.77829e-08
7.40439e-08
7.43804e-08
6.35718e-08
3.35738e-08
6.77318e-08
8.34471e-08
9.42209e-08
9.72284e-08
9.34963e-08
8.47196e-08
7.35621e-08
6.53946e-08
8.22649e-08
3.25357e-07
3.6287e-07
8.98059e-08
6.31901e-08
6.80685e-08
7.72747e-08
8.51892e-08
8.85728e-08
8.52907e-08
7.56344e-08
6.89532e-08
1.74774e-07
1.12986e-07
9.85699e-08
9.66911e-08
9.36179e-08
8.77912e-08
8.03922e-08
7.51807e-08
1.06868e-07
5.53178e-07
6.35769e-07
1.2136e-07
7.56438e-08
7.88067e-08
8.54783e-08
9.07375e-08
9.39648e-08
9.81892e-08
1.21325e-07
2.05595e-07
3.85366e-07
2.06967e-07
1.2586e-07
1.03779e-07
9.57765e-08
8.9082e-08
8.20945e-08
7.93929e-08
1.30142e-07
7.86716e-07
9.04581e-07
1.49565e-07
8.08292e-08
8.0554e-08
8.61724e-08
9.22411e-08
1.00838e-07
1.2565e-07
2.1496e-07
4.10179e-07
5.98131e-07
3.13415e-07
1.67509e-07
1.28064e-07
1.18887e-07
1.16297e-07
1.15264e-07
1.20431e-07
1.97583e-07
1.0254e-06
1.155e-06
2.20244e-07
1.22766e-07
1.13911e-07
1.12752e-07
1.13893e-07
1.23144e-07
1.65647e-07
3.24604e-07
6.22246e-07
8.21277e-07
5.79342e-07
2.8058e-07
2.86123e-07
3.44089e-07
4.12035e-07
4.6697e-07
4.67002e-07
4.46698e-07
1.08994e-06
1.19902e-06
4.57676e-07
4.6196e-07
4.69832e-07
4.16938e-07
3.45042e-07
2.82094e-07
2.70976e-07
5.92896e-07
8.46796e-07
1.08527e-06
9.79774e-07
1.09285e-06
1.68107e-06
2.43604e-06
3.20562e-06
3.85927e-06
3.82046e-06
3.11779e-06
4.18618e-06
4.26421e-06
3.12494e-06
3.65922e-06
3.85647e-06
3.30407e-06
2.54088e-06
1.75754e-06
1.14052e-06
1.01151e-06
1.11854e-06
1.44025e-06
1.97297e-06
2.50676e-06
3.11461e-06
3.83446e-06
4.6265e-06
5.46799e-06
6.32277e-06
7.22894e-06
8.34615e-06
8.62644e-06
7.42501e-06
6.44821e-06
5.57654e-06
4.73433e-06
3.93851e-06
3.21009e-06
2.59307e-06
2.04226e-06
1.49083e-06
1.13391e-08
1.77239e-08
2.22883e-08
2.64798e-08
3.15393e-08
3.6908e-08
4.29002e-08
5.01598e-08
5.79004e-08
6.94044e-08
7.34522e-08
6.21655e-08
5.23012e-08
4.44749e-08
3.86622e-08
3.36385e-08
2.86726e-08
2.31865e-08
1.75458e-08
1.03369e-08
2.23725e-08
2.55814e-08
3.18694e-08
3.64352e-08
3.86225e-08
4.04013e-08
4.43857e-08
5.57874e-08
9.24088e-08
6.18915e-07
6.48097e-07
9.87839e-08
5.66486e-08
4.40013e-08
3.9647e-08
3.75162e-08
3.50724e-08
2.99626e-08
2.29233e-08
2.02611e-08
2.80439e-08
4.71042e-08
5.78925e-08
5.88146e-08
5.57011e-08
5.22287e-08
5.14912e-08
6.46894e-08
2.28386e-07
2.62114e-06
2.6421e-06
2.37673e-07
6.57862e-08
4.95485e-08
4.85181e-08
4.98707e-08
5.02561e-08
4.64721e-08
3.46303e-08
2.62456e-08
4.082e-08
5.60237e-08
6.80744e-08
7.23183e-08
7.04829e-08
6.57424e-08
6.25277e-08
8.22649e-08
4.6254e-07
5.13365e-06
5.12937e-06
4.82566e-07
8.56042e-08
6.01334e-08
6.13387e-08
6.47508e-08
6.61453e-08
6.24027e-08
5.11506e-08
4.36957e-08
1.49658e-07
8.79758e-08
7.31812e-08
7.40348e-08
7.53391e-08
7.41903e-08
7.31927e-08
1.06868e-07
8.16764e-07
8.2925e-06
8.27246e-06
8.85013e-07
1.14878e-07
7.25307e-08
7.26601e-08
7.37885e-08
7.26396e-08
7.41317e-08
9.92371e-08
1.87723e-07
3.60105e-07
1.83162e-07
1.01761e-07
7.98408e-08
7.64989e-08
7.63623e-08
7.84955e-08
1.30142e-07
1.1781e-06
1.12808e-05
1.12549e-05
1.28611e-06
1.4264e-07
7.86717e-08
7.46394e-08
7.36114e-08
7.67877e-08
1.01889e-07
1.93134e-07
3.86653e-07
5.69311e-07
2.80547e-07
1.42884e-07
1.05546e-07
1.02809e-07
1.09201e-07
1.20084e-07
1.97583e-07
1.52671e-06
1.2951e-05
1.29357e-05
1.65413e-06
2.14634e-07
1.21821e-07
1.07845e-07
9.92927e-08
1.01265e-07
1.41183e-07
2.85325e-07
5.93294e-07
7.88108e-07
5.23193e-07
2.47005e-07
2.56212e-07
3.18338e-07
3.81297e-07
4.15967e-07
4.46698e-07
1.54744e-06
1.18774e-05
1.20275e-05
1.67573e-06
4.53128e-07
4.10822e-07
3.80302e-07
3.1747e-07
2.5216e-07
2.39176e-07
5.41391e-07
8.12304e-07
1.05046e-06
9.15359e-07
9.84899e-07
1.57306e-06
2.26914e-06
2.89154e-06
3.21009e-06
3.11779e-06
4.44621e-06
1.00087e-05
1.00767e-05
4.58321e-06
3.09892e-06
3.10012e-06
2.88714e-06
2.3205e-06
1.62785e-06
1.0243e-06
9.4147e-07
1.08061e-06
1.43002e-06
1.97565e-06
2.53029e-06
3.18824e-06
3.98068e-06
4.88404e-06
5.92799e-06
7.22894e-06
9.08612e-06
1.15807e-05
1.20049e-05
9.37172e-06
7.40364e-06
6.03787e-06
4.97532e-06
4.06756e-06
3.27115e-06
2.60798e-06
2.03898e-06
1.47656e-06
1.08517e-08
1.64878e-08
2.05854e-08
2.4906e-08
3.03342e-08
3.70282e-08
4.64097e-08
5.82378e-08
6.94044e-08
7.89433e-08
8.2404e-08
7.24441e-08
6.11106e-08
4.88467e-08
3.96301e-08
3.30454e-08
2.72886e-08
2.19446e-08
1.69857e-08
1.01973e-08
2.28777e-08
2.07731e-08
2.52003e-08
3.05149e-08
3.63646e-08
4.20936e-08
5.71943e-08
9.19852e-08
6.18915e-07
8.90528e-07
9.06876e-07
5.95361e-07
9.30347e-08
5.75691e-08
4.24674e-08
3.65024e-08
3.08811e-08
2.47859e-08
1.99506e-08
2.11577e-08
3.12637e-08
2.83665e-08
3.58498e-08
4.13562e-08
4.45519e-08
4.68667e-08
6.0406e-08
1.80177e-07
2.62114e-06
2.02722e-06
2.08695e-06
2.49223e-06
1.81528e-07
6.22507e-08
4.70918e-08
4.35984e-08
3.89856e-08
3.28773e-08
2.63867e-08
2.90527e-08
3.88628e-08
4.26538e-08
4.81238e-08
5.2344e-08
5.47312e-08
5.62805e-08
7.34697e-08
3.25357e-07
5.13365e-06
3.52616e-06
3.66788e-06
4.87233e-06
3.28804e-07
7.69594e-08
5.6416e-08
5.32311e-08
4.86525e-08
4.40841e-08
4.11515e-08
4.0903e-08
1.40147e-07
8.29195e-08
5.97846e-08
5.55889e-08
6.0819e-08
6.6003e-08
9.21288e-08
5.53178e-07
8.2925e-06
5.42703e-06
5.68332e-06
7.90334e-06
5.74987e-07
9.9038e-08
6.75851e-08
6.06013e-08
5.30438e-08
5.95834e-08
9.53513e-08
1.77972e-07
3.39825e-07
1.73861e-07
9.10637e-08
6.34232e-08
6.28151e-08
7.26723e-08
1.12904e-07
7.86716e-07
1.12808e-05
7.61862e-06
7.99587e-06
1.0743e-05
8.29505e-07
1.22569e-07
7.42154e-08
6.09831e-08
6.02222e-08
9.33167e-08
1.8436e-07
3.66046e-07
5.34942e-07
2.62304e-07
1.30214e-07
9.1513e-08
9.64644e-08
1.20052e-07
1.82942e-07
1.0254e-06
1.2951e-05
9.73227e-06
1.02025e-05
1.23098e-05
1.07144e-06
1.96e-07
1.22617e-07
9.46723e-08
8.80846e-08
1.30749e-07
2.67966e-07
5.58885e-07
7.35475e-07
4.5654e-07
2.1324e-07
2.13512e-07
2.70993e-07
3.23738e-07
3.80067e-07
1.08994e-06
1.18774e-05
1.10197e-05
1.1514e-05
1.14592e-05
1.14328e-06
3.8565e-07
3.18714e-07
2.65168e-07
2.07131e-07
2.06727e-07
4.73397e-07
7.59596e-07
9.74252e-07
7.86866e-07
7.78365e-07
1.28956e-06
1.81038e-06
2.15155e-06
2.4827e-06
4.18618e-06
1.00087e-05
1.13196e-05
1.17906e-05
9.76263e-06
4.20496e-06
2.48776e-06
2.09947e-06
1.78884e-06
1.30135e-06
8.04151e-07
8.08266e-07
1.00339e-06
1.35539e-06
1.87914e-06
2.40713e-06
3.08049e-06
3.90861e-06
4.90228e-06
6.2319e-06
8.34615e-06
1.15807e-05
1.28107e-05
1.3483e-05
1.18544e-05
8.54286e-06
6.35374e-06
4.9736e-06
3.96597e-06
3.13889e-06
2.46973e-06
1.93394e-06
1.3981e-06
1.0516e-08
1.63053e-08
2.08795e-08
2.58885e-08
3.1812e-08
3.89782e-08
4.92073e-08
6.23544e-08
7.34522e-08
8.2404e-08
7.87861e-08
6.99393e-08
6.07759e-08
4.85183e-08
3.91249e-08
3.25519e-08
2.68404e-08
2.17293e-08
1.69104e-08
1.01663e-08
2.28559e-08
2.05203e-08
2.49705e-08
3.02682e-08
3.65425e-08
4.33191e-08
6.05151e-08
1.00289e-07
6.48097e-07
9.06876e-07
9.13412e-07
6.18742e-07
1.00015e-07
6.05982e-08
4.30308e-08
3.60119e-08
2.97756e-08
2.41369e-08
1.97569e-08
2.1302e-08
3.15594e-08
2.87575e-08
3.49747e-08
3.97735e-08
4.35315e-08
4.73378e-08
6.47385e-08
1.96799e-07
2.6421e-06
2.08695e-06
2.1105e-06
2.47133e-06
1.88987e-07
6.46097e-08
4.69256e-08
4.24874e-08
3.78395e-08
3.25559e-08
2.67772e-08
2.96627e-08
3.95939e-08
4.50557e-08
4.93766e-08
5.14179e-08
5.3825e-08
5.66391e-08
8.03695e-08
3.6287e-07
5.12937e-06
3.66788e-06
3.70598e-06
4.73917e-06
3.41221e-07
7.99833e-08
5.65718e-08
5.33391e-08
4.99452e-08
4.68866e-08
4.39299e-08
4.18993e-08
1.5458e-07
8.93381e-08
6.39478e-08
5.78735e-08
6.18963e-08
6.79408e-08
1.03519e-07
6.35769e-07
8.27246e-06
5.68332e-06
5.7311e-06
7.59574e-06
5.95818e-07
1.03364e-07
6.84058e-08
6.19386e-08
5.65918e-08
6.42788e-08
9.98629e-08
1.86321e-07
3.52299e-07
1.81498e-07
9.51116e-08
6.63393e-08
6.47328e-08
7.53684e-08
1.26913e-07
9.04581e-07
1.12549e-05
7.99587e-06
8.04892e-06
1.03156e-05
8.47466e-07
1.25576e-07
7.41145e-08
6.26931e-08
6.38928e-08
9.62028e-08
1.8969e-07
3.7528e-07
5.45199e-07
2.69557e-07
1.34114e-07
9.42854e-08
9.82077e-08
1.22405e-07
1.97753e-07
1.155e-06
1.29357e-05
1.02025e-05
1.02595e-05
1.18546e-05
1.0827e-06
1.90881e-07
1.16792e-07
9.31531e-08
9.0131e-08
1.33327e-07
2.73354e-07
5.68032e-07
7.45011e-07
4.68353e-07
2.16428e-07
2.17217e-07
2.73451e-07
3.23848e-07
3.86622e-07
1.19902e-06
1.20275e-05
1.1514e-05
1.15593e-05
1.11598e-05
1.16093e-06
3.82339e-07
3.15657e-07
2.66634e-07
2.12184e-07
2.09555e-07
4.83547e-07
7.68793e-07
9.8466e-07
7.95721e-07
7.87878e-07
1.2954e-06
1.81692e-06
2.14428e-06
2.50742e-06
4.26421e-06
1.00767e-05
1.17906e-05
1.17926e-05
9.53934e-06
4.15533e-06
2.47105e-06
2.08227e-06
1.77912e-06
1.30222e-06
8.09539e-07
8.12281e-07
1.01194e-06
1.36945e-06
1.90333e-06
2.44419e-06
3.13113e-06
3.98136e-06
5.00929e-06
6.40379e-06
8.62643e-06
1.20049e-05
1.3483e-05
1.35192e-05
1.17837e-05
8.5045e-06
6.32754e-06
4.95008e-06
3.94627e-06
3.12532e-06
2.4619e-06
1.93159e-06
1.40202e-06
1.01432e-08
1.63846e-08
2.1898e-08
2.73182e-08
3.27003e-08
3.83223e-08
4.49475e-08
5.33317e-08
6.21655e-08
7.24441e-08
6.99393e-08
5.80438e-08
4.83665e-08
4.05391e-08
3.49942e-08
3.04783e-08
2.61949e-08
2.16497e-08
1.68063e-08
1.01192e-08
2.12725e-08
2.31986e-08
2.95514e-08
3.41833e-08
3.7067e-08
3.96953e-08
4.52445e-08
5.89027e-08
9.87839e-08
5.95361e-07
6.18742e-07
9.79285e-08
5.74839e-08
4.25439e-08
3.69016e-08
3.4274e-08
3.18654e-08
2.73147e-08
2.18624e-08
2.03094e-08
2.87237e-08
4.33593e-08
5.27612e-08
5.38878e-08
5.14792e-08
4.93369e-08
5.09843e-08
6.84086e-08
2.37673e-07
2.49223e-06
2.47133e-06
2.26401e-07
6.44755e-08
4.7355e-08
4.58653e-08
4.78533e-08
4.95956e-08
4.75155e-08
3.77375e-08
2.70822e-08
4.72653e-08
5.76887e-08
6.88219e-08
7.2334e-08
6.93377e-08
6.423e-08
6.28659e-08
8.98059e-08
4.82566e-07
4.87233e-06
4.73917e-06
4.67612e-07
8.47273e-08
5.9403e-08
6.16672e-08
6.70109e-08
6.95643e-08
6.57494e-08
5.52307e-08
4.85065e-08
1.76783e-07
1.01453e-07
7.98243e-08
7.79274e-08
7.82846e-08
7.66371e-08
7.66355e-08
1.2136e-07
8.85013e-07
7.90334e-06
7.59574e-06
8.43677e-07
1.15301e-07
7.27249e-08
7.30058e-08
7.47993e-08
7.52208e-08
8.03295e-08
1.10352e-07
2.02933e-07
3.7929e-07
1.97006e-07
1.10055e-07
8.51815e-08
7.99143e-08
7.90908e-08
8.28082e-08
1.49565e-07
1.28611e-06
1.0743e-05
1.03156e-05
1.23456e-06
1.42309e-07
7.75852e-08
7.43495e-08
7.5592e-08
8.19105e-08
1.09978e-07
2.04698e-07
4.02602e-07
5.83757e-07
2.93487e-07
1.51095e-07
1.11749e-07
1.06707e-07
1.11719e-07
1.24389e-07
2.20244e-07
1.65413e-06
1.23098e-05
1.18546e-05
1.58869e-06
2.07587e-07
1.15625e-07
1.04025e-07
9.95897e-08
1.05802e-07
1.49002e-07
2.9919e-07
6.09253e-07
8.00026e-07
5.38983e-07
2.53809e-07
2.64248e-07
3.24863e-07
3.8526e-07
4.14376e-07
4.57676e-07
1.67573e-06
1.14592e-05
1.11598e-05
1.65002e-06
4.45009e-07
3.99598e-07
3.72619e-07
3.16272e-07
2.57662e-07
2.45893e-07
5.595e-07
8.28184e-07
1.06178e-06
9.22424e-07
9.97861e-07
1.59417e-06
2.30406e-06
2.90357e-06
3.11632e-06
3.12494e-06
4.5832e-06
9.76263e-06
9.53934e-06
4.4922e-06
3.05526e-06
3.01915e-06
2.82208e-06
2.27319e-06
1.60457e-06
1.02507e-06
9.45494e-07
1.09366e-06
1.44648e-06
2.00331e-06
2.5718e-06
3.24477e-06
4.05667e-06
4.98125e-06
6.05392e-06
7.42501e-06
9.37172e-06
1.18544e-05
1.17837e-05
9.27361e-06
7.34173e-06
5.98107e-06
4.92345e-06
4.02427e-06
3.23992e-06
2.58882e-06
2.03183e-06
1.4803e-06
1.06162e-08
1.85423e-08
2.5956e-08
3.18067e-08
3.6449e-08
4.02874e-08
4.3706e-08
4.74055e-08
5.23012e-08
6.11106e-08
6.07759e-08
4.83665e-08
4.09979e-08
3.69656e-08
3.40864e-08
3.11337e-08
2.77222e-08
2.35631e-08
1.79889e-08
1.02581e-08
2.25201e-08
3.19975e-08
4.24641e-08
4.57067e-08
4.50027e-08
4.35713e-08
4.29473e-08
4.55529e-08
5.66486e-08
9.30347e-08
1.00015e-07
5.74839e-08
4.18741e-08
3.78363e-08
3.81257e-08
3.93567e-08
3.99914e-08
3.71876e-08
2.88689e-08
2.03002e-08
4.81284e-08
7.44119e-08
8.53288e-08
8.18504e-08
7.17767e-08
6.16812e-08
5.43159e-08
5.20546e-08
6.57862e-08
1.81528e-07
1.88987e-07
6.44755e-08
4.74045e-08
4.90357e-08
5.65254e-08
6.65805e-08
7.56655e-08
7.83085e-08
6.72541e-08
3.6311e-08
7.40513e-08
8.1931e-08
9.14389e-08
9.48158e-08
9.07555e-08
8.07974e-08