/*--------------------------------*- C++ -*----------------------------------*\
  =========                 |
  \\      /  F ield         | OpenFOAM: The Open Source CFD Toolbox
   \\    /   O peration     | Website:  https://openfoam.org
    \\  /    A nd           | Version:  9
     \\/     M anipulation  |
\*---------------------------------------------------------------------------*/
FoamFile
{
    format      ascii;
    class       surfaceScalarField;
    location    "1400";
    object      phi;
}
// * * * * * * * * * * * * * * * * * * * * * * * * * * * * * * * * * * * * * //

dimensions      [1 0 -1 0 0 0 0];

internalField   nonuniform List<scalar> 
11200
(
-0.000261678
0.00052311
-0.000261678
-0.00169379
0.00219994
-0.000768152
-0.00208798
0.00103445
-0.000640335
-0.00200557
0.000401152
-0.000483565
-0.00172097
3.10074e-05
-0.000315602
-0.00136159
-0.000171495
-0.000187886
-0.0011181
-0.000104399
-0.00013912
-0.000934006
-0.000111664
-7.24492e-05
-0.000781804
-0.000116152
-3.6067e-05
-0.00059084
-0.000149747
-4.1227e-05
-0.000364495
-0.000185764
-4.05868e-05
-0.000120801
-0.000229794
-1.3897e-05
0.000141555
-0.000243615
-1.87345e-05
0.000427722
-0.000255987
-3.01763e-05
0.000718845
-0.000288996
-2.10362e-06
0.000802676
2.66307e-06
-8.64917e-05
0.000718906
0.000211922
-0.000128157
0.000519005
0.000358984
-0.000159128
3.09465e-05
0.00090945
-0.000421568
0.000686403
-0.00065573
0.00277269
-0.00502233
0.00277269
0.00419983
-0.00188669
0.00265941
0.00389682
-0.00073351
0.00207099
0.00264071
0.000257833
0.00139943
0.000895204
0.000798248
0.000978262
-0.000651753
0.000716234
0.000659221
-0.00113489
0.000223534
0.000155213
-0.000994181
-0.000164248
-8.81249e-05
-0.00065408
-0.000204188
-0.000252063
-0.000278142
-0.000143847
-0.000381837
0.000115074
-0.000160566
-0.00041841
0.000449161
-0.000245531
-0.000318342
0.000645443
-0.000261396
-0.000178493
0.000131034
0.000146615
0.000111811
-0.00161284
0.000701702
0.000753177
-0.00349786
0.000711555
0.00117617
-0.00471371
-0.000278363
0.00170625
-0.00478519
-0.00201767
0.00244827
-0.00321658
-0.00382286
0.00316378
-0.0061087
0.00357847
0.00223409
-0.00949054
0.00223409
0.00414537
-0.00636305
0.00256507
0.00487662
-0.00383407
0.00236931
0.00472081
-0.00161744
0.00203112
0.00385948
-1.76513e-05
0.00167725
0.00245727
0.000793831
0.00132462
0.000988296
0.000674775
0.00101773
-0.000136326
0.000312261
0.000648115
-0.000435748
0.000179723
-8.44858e-05
-0.000177157
0.000209838
-0.000612274
9.12783e-05
0.000215131
-0.000644131
-9.51813e-05
0.00014653
-0.000205599
-0.000988265
0.000192359
0.000439333
-0.0022233
0.000535763
0.000845898
-0.00337402
0.000732705
0.00111974
-0.00404136
-2.91637e-05
0.00140807
-0.00411163
-0.00191385
0.00170577
-0.00354255
-0.00459977
0.00201301
-0.00214481
-0.00748241
0.0022618
-0.0104222
0.00216865
0.00116073
-0.011812
0.00116073
0.00192089
-0.00884841
0.00172518
0.00218603
-0.00601816
0.00191894
0.00217774
-0.00359897
0.00198981
0.00202627
-0.00174353
0.00187735
0.0017408
-0.00056608
0.00164538
0.00107731
-5.39563e-05
0.00139221
0.000168695
0.000102552
0.00111832
-0.000371121
0.000176868
0.000542664
-0.000267367
0.000217096
-0.00011102
-0.000174509
0.000157037
-3.47729e-05
-0.000632958
1.43607e-05
0.000590615
-0.00128186
-0.00020189
0.00104316
-0.00165915
-0.000390799
0.00130385
-0.00167419
-0.000761281
0.00150903
-0.00157941
-0.0018042
0.00168026
-0.00149027
-0.00375888
0.00175589
-0.00142756
-0.00633507
0.00167257
-0.00100299
-0.00943707
0.00153008
-0.0124641
0.00103896
0.000442569
-0.0126972
0.000442569
0.000242039
-0.00991436
0.00126647
-0.000196882
-0.00725244
0.00167319
-0.00055079
-0.00519034
0.00194526
-0.000727017
-0.0036931
0.00212578
-0.000693198
-0.00269576
0.00209585
-0.000583159
-0.00207654
0.00191254
-0.000490258
-0.00170062
0.00171027
-0.000331252
-0.00147179
0.00148965
-1.22085e-05
-0.00138614
0.00128419
0.000361938
-0.00153267
0.00131555
0.000588
-0.00173757
0.00152587
0.000679385
-0.00200304
0.00170976
0.000767197
-0.0023684
0.00188979
0.000882419
-0.00291263
0.00203612
0.000873329
-0.00383592
0.0020408
0.000594162
-0.00532655
0.00184683
0.00010256
-0.00742009
0.00157661
-0.000289115
-0.0102378
0.00119243
-0.01313
0.000376728
-7.52228e-05
-0.0125467
-7.5223e-05
-0.000818922
-0.0101751
0.00100441
-0.00152808
-0.00799731
0.00145401
-0.00194412
-0.00648647
0.00171215
-0.00201811
-0.00546143
0.00184232
-0.001813
-0.00475603
0.00185514
-0.00141283
-0.00426237
0.00178565
-0.00092108
-0.00391372
0.00172134
-0.000388036
-0.00368135
0.00167651
0.000164605
-0.00357417
0.00163537
0.000713988
-0.00369412
0.00161206
0.00121423
-0.00387884
0.00164102
0.00165694
-0.00412259
0.00167682
0.00200697
-0.0044565
0.00173806
0.00220201
-0.00490979
0.00180212
0.00216056
-0.00557749
0.001783
0.00176804
-0.006596
0.00166196
0.00104877
-0.00812904
0.00142821
0.000182856
-0.0103736
0.00100171
-0.0128568
-9.03306e-05
-0.000441185
-0.0116644
-0.000441185
-0.00153797
-0.0097981
0.000719775
-0.00239945
-0.008208
0.00107216
-0.00283825
-0.0072443
0.00119663
-0.00283936
-0.00664636
0.00118602
-0.00250326
-0.00623928
0.00114715
-0.00193474
-0.00594978
0.00111888
-0.00123808
-0.00571587
0.00110548
-0.000508607
-0.00552355
0.00111272
0.000179228
-0.00539952
0.00113751
0.000838945
-0.00547151
0.00111767
0.00152114
-0.00564087
0.00107983
0.00217698
-0.00583187
0.00105343
0.00271553
-0.00604975
0.00105469
0.00303889
-0.00631831
0.00108514
0.00303697
-0.00671415
0.00113857
0.00259442
-0.00732186
0.00116841
0.0017034
-0.00830953
0.00107151
0.000526482
-0.00994625
0.000749513
-0.0118976
-0.000432737
-0.000912978
-0.00983844
-0.000912978
-0.00229626
-0.00844721
3.23838e-05
-0.0033012
-0.00746138
0.000258311
-0.00375253
-0.00695419
0.000161207
-0.00367662
-0.00668674
-3.55385e-05
-0.00320777
-0.00653505
-0.000173079
-0.00245508
-0.0064281
-0.000274375
-0.00154265
-0.00631494
-0.00031335
-0.000626356
-0.00617808
-0.000261773
0.000139066
-0.00603125
-0.000133693
0.000897908
-0.00606724
-0.00016311
0.00178606
-0.00622249
-0.000306536
0.00267241
-0.00635415
-0.000364072
0.00340366
-0.00646286
-0.000318143
0.00386071
-0.00656576
-0.000209598
0.00393185
-0.00671853
-6.67686e-05
0.00346809
-0.00700248
0.000144373
0.00242814
-0.00753531
0.000265715
0.000979668
-0.00856055
6.2774e-05
-0.010011
-0.000906949
-0.00172367
-0.00639112
-0.00172367
-0.00341744
-0.00561935
-0.0011341
-0.00448035
-0.00523942
-0.00115906
-0.00488739
-0.00516858
-0.00137857
-0.00472684
-0.00521173
-0.00163556
-0.00412294
-0.00530646
-0.00183249
-0.00318166
-0.00538853
-0.00198086
-0.00202551
-0.00542298
-0.00204811
-0.000836962
-0.00537582
-0.0019908
0.000115997
-0.00525174
-0.00173247
0.00106955
-0.0052764
-0.0017444
0.00223167
-0.0053942
-0.0019904
0.00336632
-0.00543563
-0.00205317
0.00429284
-0.00539913
-0.00199025
0.00488927
-0.00531776
-0.00184442
0.00504466
-0.00522824
-0.00164567
0.00462309
-0.00519656
-0.00138434
0.00352884
-0.00528422
-0.00115685
0.00178205
-0.00568776
-0.00112601
-0.00649505
-0.0017339
-0.00319556
-0.00319556
-0.00530881
-0.00350611
-0.0063657
-0.00418252
-0.0066812
-0.00485307
-0.00639908
-0.00549384
-0.00563237
-0.00607315
-0.00447019
-0.00655071
-0.0029951
-0.00689806
-0.00134204
-0.00702886
0.000113963
-0.00670774
0.00154651
-0.00670894
0.00317192
-0.00701961
0.00462998
-0.00689368
0.00578294
-0.00655209
0.00654535
-0.00608016
0.00682506
-0.00550795
0.00650037
-0.00487187
0.0054197
-0.00420354
0.0032615
-0.00352956
-0.00323355
-0.000768152
0.00219994
-0.00169379
-0.00136231
0.00118817
-0.00136231
-0.00147339
0.000435476
-0.000964766
-0.00134585
5.48489e-05
-0.000665949
-0.00106414
-0.000207815
-0.000389471
-0.000775782
-0.000322669
-0.000153565
-0.000625933
-0.000264298
-2.46811e-05
-0.000605764
-0.000128592
3.59545e-05
-0.000613561
-0.000107747
7.94611e-05
-0.000596058
-0.000137368
7.86323e-05
-0.000534269
-0.000183189
8.08159e-05
-0.000427011
-0.000234004
0.000112858
-0.000270585
-0.000286902
0.000111755
-3.46103e-05
-0.000388921
0.000122785
0.000198399
-0.000342324
0.000107234
0.000260258
-0.00012832
-2.00148e-05
0.000160376
4.67774e-05
-7.50548e-05
6.91887e-05
2.29057e-05
-9.086e-05
-3.48582e-05
-8.39565e-07
-0.000316729
6.08195e-05
-0.000751519
0.00265941
-0.00188669
0.00419983
0.0037734
-0.00103979
0.0037734
0.00362514
-0.000276254
0.00293102
0.0026597
0.000409635
0.00201011
0.0013392
0.000736083
0.00135486
0.000163486
0.000533671
0.000978584
-0.000398031
4.76085e-05
0.000404828
-0.000427679
-0.000229775
4.27088e-05
-0.000315587
-0.000262515
-0.000209388
-0.000266398
-0.000134738
-0.000433659
-0.000203897
-0.000183582
-0.000480519
-0.000109366
-0.000343954
-0.000302918
-0.000154672
-0.00034416
-7.59229e-05
-0.000779973
1.67574e-05
0.000331435
-0.00203277
0.000686738
0.000976914
-0.00352649
0.000928437
0.00161316
-0.00454837
0.000261021
0.00251397
-0.00448626
-0.00120057
0.00360977
-0.00303111
-0.00285495
0.00456287
-0.00439546
0.00500372
0.00256507
-0.00636305
0.00414537
0.00432052
-0.00455071
0.00432052
0.0050944
-0.00263243
0.00395163
0.00496749
-0.000745058
0.00331276
0.00409589
0.000645161
0.00263979
0.00285576
0.00104303
0.00205541
0.00157603
0.000813055
0.00153202
0.000665288
0.00037684
0.000952238
6.77425e-05
0.000114488
0.000136057
-0.000150504
0.000118716
-0.000647485
-0.000338204
8.25225e-05
-0.000722538
-0.000803378
4.36234e-05
-0.000128001
-0.00158951
0.000251694
0.000629621
-0.0026976
0.000738008
0.00123274
-0.00374098
0.00112545
0.00172443
-0.00446829
0.000829787
0.00223405
-0.0045023
-0.000830593
0.00283141
-0.0037569
-0.00330819
0.00337523
-0.00222206
-0.00576761
0.00363962
-0.00780154
0.00335266
0.00172518
-0.00884841
0.00192089
0.00286726
-0.00683489
0.00286726
0.00339808
-0.00441069
0.00316637
0.00351243
-0.00195148
0.00308187
0.00323378
5.04521e-05
0.00275071
0.00257451
0.000982544
0.00236513
0.0017309
0.0010978
0.00195108
0.000860616
0.000911662
0.00145378
0.000110921
0.000759355
0.000647486
-0.000247448
0.000723788
-0.000357729
-0.000572967
0.00070375
-0.000330488
-0.00118965
0.000688965
0.00056195
-0.00193708
0.000750729
0.00129156
-0.00258887
0.000931675
0.00176198
-0.00303041
0.000954609
0.00212141
-0.00311775
0.000173367
0.00242403
-0.00290658
-0.00197528
0.00268939
-0.00247202
-0.00479905
0.00272886
-0.0015386
-0.00755319
0.00238223
-0.00967577
0.00137459
0.00126647
-0.00991436
0.000242039
0.00177178
-0.00784553
0.00177178
0.00171891
-0.00520602
0.00252138
0.0014388
-0.00254116
0.00281503
0.00120467
-0.000460076
0.00287043
0.000909597
0.000730166
0.00264329
0.000529195
0.0011001
0.00229064
0.000125646
0.00116695
0.00185852
-0.000133483
0.00117996
0.00132816
-0.000104006
0.00121351
0.000764975
-6.26155e-05
0.00116725
0.000810654
-0.000275711
0.00107276
0.00135517
-0.000659243
0.000996013
0.00184801
-0.00100252
0.000910353
0.00225438
-0.00118743
0.000623862
0.00255177
-0.0012503
-0.000441388
0.00271842
-0.00143728
-0.00255983
0.00261835
-0.00154987
-0.00541624
0.00230638
-0.00117217
-0.00828014
0.00154166
-0.0104268
-4.44344e-05
0.00100441
-0.0101751
-0.000818922
0.001072
-0.00798072
0.001072
0.000656746
-0.00537704
0.00204026
0.000174481
-0.00281966
0.00247291
-0.000104216
-0.000978212
0.00263914
-0.000193143
0.000109366
0.00256486
-0.000282515
0.00066874
0.00230637
-0.000319277
0.000907762
0.00201728
-0.000230704
0.00103476
0.00173313
5.20334e-05
0.00110666
0.00145948
0.000329696
0.00103034
0.00147129
0.000409236
0.00089222
0.00174201
0.000338667
0.00072877
0.00201463
0.00021828
0.000477899
0.00229089
0.000162765
-3.87293e-05
0.00252022
-4.90725e-05
-0.00101288
0.00256632
-0.000480775
-0.00285321
0.00238704
-0.00093393
-0.00549772
0.00196283
-0.00094744
-0.00826385
0.000998914
-0.0105245
-0.000940029
0.000719775
-0.0097981
-0.00153797
0.000449052
-0.00743929
0.000449052
-0.000175755
-0.00513689
0.00145681
-0.000605811
-0.00309404
0.00190105
-0.000817232
-0.00162356
0.00204278
-0.000788196
-0.000770317
0.00199778
-0.000623473
-0.000268753
0.00189164
-0.000433496
6.41759e-05
0.00175908
-0.000180946
0.000271949
0.00162296
0.000123662
0.000457626
0.00148193
0.000424312
0.000369026
0.00147832
0.000652314
0.000135571
0.00160847
0.000820058
-0.00011197
0.00172642
0.000949104
-0.000434231
0.00183777
0.000951515
-0.00089628
0.00194028
0.000747014
-0.00167033
0.00200051
0.000312205
-0.00312335
0.00187335
-0.000346126
-0.00521789
0.00145
-0.000679724
-0.00763301
0.000452267
-0.0100508
-0.0015862
3.23839e-05
-0.00844721
-0.00229626
-0.000481323
-0.00641188
-0.000481323
-0.00120031
-0.00458824
0.000428642
-0.00158627
-0.00328533
0.000738443
-0.00168414
-0.00235318
0.000791944
-0.00153443
-0.00180607
0.000712959
-0.00119014
-0.00149404
0.000606623
-0.00072582
-0.00127713
0.00056363
-0.000253915
-0.00107564
0.000613901
0.000152155
-0.000823816
0.000741671
0.00055664
-0.000885043
0.000686467
0.0010156
-0.00116322
0.000533286
0.00143635
-0.00136891
0.000472106
0.00173055
-0.00156957
0.000522991
0.00184543
-0.00185961
0.000638853
0.00173389
-0.00237292
0.00074735
0.00132555
-0.00330337
0.000732727
0.000579334
-0.00464994
0.000443985
3.34952e-06
-0.00653689
-0.000457372
-0.00862078
-0.00233363
-0.0011341
-0.00561935
-0.00341744
-0.00226059
-0.0041589
-0.00226059
-0.0030478
-0.00320051
-0.00175959
-0.00333696
-0.00267556
-0.00169918
-0.00315716
-0.00237339
-0.00179515
-0.00272165
-0.00223214
-0.00184194
-0.00208317
-0.00213224
-0.00198113
-0.00132993
-0.0020237
-0.00205479
-0.000559455
-0.00186169
-0.00197522
0.000120832
-0.00155905
-0.00167752
0.000795946
-0.00159275
-0.0017118
0.00153776
-0.0018907
-0.00200473
0.00225711
-0.00204736
-0.00209408
0.00286888
-0.00214884
-0.00202275
0.00328805
-0.00224289
-0.00188031
0.00346132
-0.002382
-0.00180987
0.00316325
-0.00269212
-0.00169752
0.0023438
-0.00323673
-0.0017506
0.00116824
-0.00422478
-0.00226256
-0.0057187
-0.00346773
-0.00350611
-0.00530881
-0.00558556
-0.00558556
-0.00659378
-0.0063748
-0.00687117
-0.00725124
-0.00659173
-0.00814665
-0.00588146
-0.00901555
-0.00481629
-0.0097481
-0.00344057
-0.0102975
-0.00179743
-0.0105337
0.000108721
-0.0101729
0.00199845
-0.0101914
0.00362561
-0.0105375
0.00498847
-0.0103039
0.00604476
-0.00975721
0.0067484
-0.00902668
0.00702304
-0.00816457
0.00673388
-0.00727482
0.00569729
-0.00640369
0.00356926
-0.0056263
-0.005383
-0.000640335
0.00103445
-0.00208798
-0.000964765
0.000435476
-0.00147339
-0.000991319
5.31145e-05
-0.00099132
-0.000833253
-0.000202363
-0.000621622
-0.000572555
-0.000342559
-0.000307585
-0.000285535
-0.000438037
-2.53164e-06
-0.00017802
-0.000331578
0.000199379
-0.000266699
-0.000149803
0.00027442
-0.00042553
-0.000107309
0.000345583
-0.000578353
-0.000128855
0.000360304
-0.000673622
-0.000186032
0.000362122
-0.000683026
-0.000261199
0.000383475
-0.0005916
-0.000344417
0.000364767
-0.000367726
-0.00043901
0.000337936
-9.6647e-05
-0.000425995
0.000262176
3.81493e-05
-0.000230416
7.56258e-05
4.4708e-05
-5.93738e-05
-2.22316e-05
4.33055e-05
-4.45511e-07
-8.90142e-05
3.92472e-05
-1.56506e-05
-0.000297027
7.79279e-05
-0.000790221
0.00207099
-0.00073351
0.00389682
0.00293102
-0.000276254
0.00362514
0.00286605
0.000183093
0.00286605
0.00214083
0.00055626
0.00197671
0.00117176
0.000655782
0.00132558
0.000404395
0.000350105
0.000957804
1.64929e-05
-9.36067e-05
0.000554761
-4.14027e-05
-0.000305875
0.000256678
-8.22506e-05
-0.000286432
1.05816e-05
-0.00023581
-0.00014095
-0.000268009
-0.000379893
-0.000205998
-0.000316471
-0.000423287
-0.000407882
-0.000112835
-0.000484592
-0.000481477
0.000122447
-0.000868643
-0.000148725
0.000425206
-0.00173504
0.00052636
0.000890962
-0.00286974
0.00101784
0.00149962
-0.00368487
0.000824543
0.00244524
-0.00362423
-4.64553e-05
0.00359524
-0.00245318
-0.00114403
0.00452033
-0.0021408
0.00476939
0.00236931
-0.00383407
0.00487662
0.00395163
-0.00263243
0.0050944
0.0046872
-0.00128801
0.0046872
0.00459973
1.33278e-05
0.0039432
0.00380851
0.000986548
0.00310026
0.00270942
0.00112252
0.0023821
0.00160867
0.000797967
0.0017412
0.000824936
0.000309694
0.00112041
0.000285151
2.45569e-05
0.000364851
-0.000115619
1.63252e-06
-0.000389304
-0.000460125
-7.78833e-05
-0.000506151
-0.000908251
-0.000147466
5.97082e-05
-0.00161349
0.000115444
0.000737939
-0.00258865
0.000696282
0.0013629
-0.00355586
0.00122861
0.0019894
-0.00423335
0.00127932
0.00265008
-0.00426457
0.000274188
0.00341299
-0.00351306
-0.00149294
0.00407021
-0.00204388
-0.00328786
0.00431425
-0.00472425
0.00389222
0.00191894
-0.00601816
0.00218603
0.00316637
-0.00441069
0.00339808
0.00385231
-0.00265991
0.00385231
0.00398677
-0.000735429
0.00369617
0.00365235
0.000807489
0.00326419
0.00291548
0.00146405
0.00276047
0.00204436
0.00136295
0.00225721
0.00117938
0.000960803
0.00166764
0.000425637
0.000633522
0.000792261
-0.00016467
0.000485531
-0.000251325
-0.000686934
0.00045495
-0.000341063
-0.00138059
0.000522702
0.000585441
-0.00219452
0.000797174
0.00142376
-0.00296375
0.00121526
0.00201223
-0.00357538
0.00147326
0.00248839
-0.00380422
0.00098762
0.00294457
-0.00356204
-0.000603317
0.00332471
-0.0028806
-0.00283001
0.00338448
-0.00173487
-0.00483521
0.00278383
-0.00650001
0.00141547
0.00167319
-0.00725244
-0.000196882
0.00252138
-0.00520602
0.00171891
0.00280479
-0.00322674
0.00280479
0.00275892
-0.00109102
0.00321649
0.00249866
0.000724734
0.00321344
0.00199935
0.00167271
0.00293393
0.00136287
0.00177169
0.00251838
0.000696894
0.00150776
0.00197753
0.000136791
0.00127331
0.00124846
-0.0001393
0.0011703
0.000356282
-0.000380062
0.00115224
0.000354112
-0.000912751
0.00119381
0.00121675
-0.00156775
0.00137333
0.00192684
-0.00217166
0.0016263
0.00244724
-0.00258926
0.00161691
0.00282572
-0.00273467
0.000790985
0.00306046
-0.00268717
-0.00105877
0.00302629
-0.00240297
-0.00336267
0.00255483
-0.00160388
-0.00549574
0.00140311
-0.00759033
-0.000558009
0.00145401
-0.00799731
-0.00152808
0.00204026
-0.00537704
0.000656746
0.00202917
-0.00320456
0.00202917
0.00172178
-0.00099665
0.00268591
0.00140546
0.000746489
0.00293369
0.00106674
0.00173491
0.00284138
0.000668062
0.00193191
0.00254483
0.000266388
0.00179552
0.00213118
-5.13439e-06
0.00166257
0.00161538
-3.29587e-05
0.00160998
0.00104761
-5.11579e-05
0.00157802
0.0010637
-0.000328434
0.00158589
0.0016272
-0.0007564
0.00168403
0.0021319
-0.00117425
0.00180529
0.00252974
-0.00148677
0.00165261
0.00279704
-0.00173481
0.00074555
0.00285979
-0.00198987
-0.00101072
0.00259404
-0.00199189
-0.00332439
0.00192657
-0.00142216
-0.00560288
0.000536311
-0.00828079
-0.00167175
0.00107216
-0.008208
-0.00239945
0.00145681
-0.00513689
-0.000175755
0.0013139
-0.00291875
0.0013139
0.000941557
-0.000760764
0.00203749
0.000618215
0.000784223
0.00232837
0.00042225
0.00158046
0.00234819
0.000259159
0.00178175
0.00220487
0.000100506
0.00172858
0.00198466
1.11277e-05
0.00165725
0.00171765
5.32595e-05
0.00164001
0.00140976
9.28111e-05
0.0016072
0.00140959
-1.91639e-05
0.00159542
0.0017109
-0.000216706
0.00164426
0.00196372
-0.0004243
0.00168554
0.00216511
-0.000633965
0.00150767
0.00229488
-0.000931611
0.000768048
0.00227565
-0.00128186
-0.000781404
0.00199427
-0.00142427
-0.00302069
0.0012887
-0.00105071
-0.00531334
-0.000210839
-0.0084329
-0.0024848
0.000258311
-0.00746138
-0.0033012
0.000428642
-0.00458824
-0.00120031
0.000144448
-0.00235037
0.000144448
-1.41588e-05
-0.00072494
0.000861217
-8.17744e-05
0.000405915
0.00123786
-8.82506e-05
0.00103608
0.00126381
-5.51619e-05
0.00117501
0.00118027
4.28954e-08
0.00115683
0.00108017
8.03509e-05
0.00117474
0.0010161
0.000104991
0.00138977
0.000967268
0.000107085
0.00134988
0.000941687
0.000143377
0.00111778
0.00097463
0.000142287
0.00109097
0.00102648
0.000128092
0.00110776
0.00111496
9.77309e-05
0.000984827
0.00119205
4.43507e-05
0.000391551
0.00117722
-9.91057e-05
-0.000736685
0.000831457
-0.000399747
-0.00241599
0.000139918
-0.000236498
-0.00471509
-0.00121888
-0.00762329
-0.00337974
-0.00115906
-0.00523942
-0.00448035
-0.00175959
-0.00320051
-0.0030478
-0.00200585
-0.00185786
-0.00200585
-0.00192692
-0.00102411
-0.00147895
-0.0014644
-0.000423774
-0.00142798
-0.000928404
-4.68637e-05
-0.00129499
-0.000494157
8.74557e-05
-0.00132782
-0.000194763
0.00018659
-0.00138395
-7.93885e-06
0.000344527
-0.00133184
9.97162e-05
0.000721792
-0.0011172
0.000198579
0.000685042
-0.00114583
0.000362698
0.000313625
-0.0013647
0.000621727
0.000160365
-0.0014225
0.00101968
5.58876e-05
-0.00136884
0.00153075
-7.17675e-05
-0.00133479
0.0019938
-0.00043858
-0.0014428
0.0020778
-0.00104439
-0.00147382
0.00181684
-0.0018981
-0.00200752
0.00118798
-0.00326954
-0.00307926
-0.00533739
-0.00456565
-0.00418252
-0.0063657
-0.0063748
-0.00659378
-0.00730373
-0.00730373
-0.00745408
-0.00812499
-0.00707524
-0.00894925
-0.00629112
-0.00984653
-0.0052129
-0.0107389
-0.00382306
-0.0115007
-0.00208295
-0.0119292
0.000120986
-0.0116551
0.00230358
-0.011689
0.00403052
-0.0119508
0.00540958
-0.0115226
0.00647203
-0.0107638
0.00724464
-0.00987105
0.00761819
-0.00897669
0.00745772
-0.00815873
0.00649946
-0.00734352
0.00425619
-0.00665256
-0.00646419
-0.000483565
0.000401152
-0.00200557
-0.000665948
5.48487e-05
-0.00134585
-0.000621622
-0.000202363
-0.000833253
-0.000447767
-0.00034768
-0.000447768
-0.000174081
-0.000481984
-9.92602e-05
0.000115228
-0.000540855
0.000249038
0.000218206
-0.000359249
0.000455651
8.37323e-05
-0.000181823
0.000590705
-0.000207618
-0.000101292
0.000738207
-0.00054588
-0.000114811
0.000813368
-0.000802737
-0.000186695
0.000805678
-0.000912291
-0.000279891
0.000772937
-0.000862615
-0.000382317
0.000697433
-0.000649774
-0.000482434
0.000607552
-0.000317528
-0.000547697
0.000477651
-9.46662e-05
-0.000375267
0.000228057
3.04497e-05
-0.000174602
2.72703e-05
0.000107764
-2.02941e-05
-0.000146031
0.000137497
9.54957e-05
-0.000422254
0.000327634
-0.000980357
0.00139943
0.000257832
0.00264071
0.00201011
0.000409635
0.0026597
0.00197671
0.00055626
0.00214083
0.00148656
0.000632611
0.00148656
0.000842667
0.00047156
0.00101592
0.000392361
8.25057e-05
0.00078475
0.000242031
-0.00028049
0.000626337
0.000240932
-0.000425467
0.000501423
0.000116977
-0.000311034
0.000344277
-0.0001945
-0.000173656
0.000102306
-0.000491441
-0.000254417
4.8192e-05
-0.000629766
-0.000468738
0.000214343
-0.00064298
-0.000619343
0.000372694
-0.000770699
-0.000417866
0.000488364
-0.00125408
0.00015032
0.000676329
-0.00200591
0.000812574
0.00106362
-0.00259999
0.00110438
0.00176037
-0.00260143
0.000926319
0.00265013
-0.00179522
0.000486036
0.00332366
-3.34327e-05
0.00333532
0.00203112
-0.00161744
0.00472081
0.00331276
-0.000745058
0.00496749
0.0039432
1.33276e-05
0.00459973
0.00384328
0.000832479
0.00384328
0.00321696
0.00116159
0.00303656
0.00230403
0.00105244
0.00232509
0.0014184
0.000618685
0.00172766
0.000795592
0.000119295
0.00119846
0.0003686
-0.000132198
0.000613005
-7.06867e-05
-0.000136645
1.29673e-05
-0.000470358
-0.000234748
-0.000126152
-0.000844418
-0.000361572
0.000326603
-0.00139788
-0.000155704
0.000827764
-0.00218772
0.000413597
0.00132129
-0.00301566
0.00106512
0.00190255
-0.00356572
0.00142439
0.00258834
-0.00361223
0.00122517
0.00333873
-0.00299651
0.000381029
0.00399979
-0.00178119
-0.000654461
0.00423945
-0.00172015
0.00379776
0.00198981
-0.00359897
0.00217774
0.00308187
-0.00195148
0.00351243
0.00369617
-0.000735429
0.00398677
0.00387515
0.000474527
0.00387515
0.00355345
0.00132618
0.0034213
0.00289319
0.00156995
0.00290321
0.00209112
0.00128292
0.00239505
0.00128187
0.000789892
0.00180629
0.000570792
0.000364697
0.00100645
-5.30529e-05
0.00010627
0.000129601
-0.000635577
2.72473e-05
-2.0538e-05
-0.00133245
0.000182705
0.000738035
-0.00213305
0.000556454
0.00151221
-0.00290919
0.00108614
0.00211584
-0.00350859
0.00152658
0.00262634
-0.00376902
0.00149802
0.00313137
-0.00353675
0.000751899
0.00356572
-0.00288616
-0.000518563
0.00363348
-0.00186941
-0.00189106
0.00300367
-0.00374913
0.00157504
0.00194526
-0.00519034
-0.00055079
0.00281503
-0.00254116
0.0014388
0.00321649
-0.00109102
0.00275892
0.00330927
0.000288965
0.00330927
0.00308522
0.00143016
0.0033335
0.00257454
0.0019411
0.00307346
0.00189332
0.00180674
0.00267577
0.00115991
0.00135509
0.00214573
0.000462632
0.000916574
0.00139386
-8.50781e-05
0.000582434
0.000427822
-0.000598847
0.000557089
0.000338034
-0.00129596
0.000821444
0.00127511
-0.00205262
0.00119562
0.00204434
-0.00273225
0.00164037
0.00257264
-0.00321158
0.0018671
0.00296452
-0.00337835
0.00150708
0.00321816
-0.00322181
0.000433365
0.00318827
-0.00277927
-0.0010128
0.00260653
-0.00192721
-0.00257379
0.00123376
-0.00541633
-0.000818033
0.00171215
-0.00648647
-0.00194412
0.00247291
-0.00281966
0.000174481
0.00268591
-0.00099665
0.00172178
0.00259924
0.0004623
0.00259924
0.00236661
0.00162853
0.00296795
0.00198867
0.0022007
0.00295971
0.00147756
0.00214667
0.00271599
0.00088884
0.001778
0.00229699
0.000337168
0.00139682
0.0016868
-4.46944e-05
0.00110033
0.000911577
-0.000412986
0.00109419
0.00089489
-0.000973208
0.00134358
0.00166528
-0.00159702
0.00167822
0.0022731
-0.00213998
0.0020273
0.00268576
-0.00252155
0.00212655
0.00291915
-0.00272253
0.00164739
0.00292045
-0.00275783
0.000513235
0.00254946
-0.00249583
-0.00100697
0.00165872
-0.00169631
-0.0029223
8.52983e-05
-0.00672191
-0.00206249
0.00119663
-0.0072443
-0.00283825
0.00190105
-0.00309404
-0.000605811
0.00203749
-0.000760764
0.000941557
0.00185144
0.000834393
0.00185144
0.00166329
0.00177728
0.00236777
0.00145556
0.00221929
0.00253732
0.00117488
0.0021582
0.00247402
0.000800882
0.0018763
0.00226034
0.000387773
0.0016073
0.00192027
1.31022e-05
0.00142107
0.00146368
-0.000360659
0.00141287
0.00146466
-0.000797055
0.00157127
0.00191961
-0.00121553
0.00181111
0.0022493
-0.00154529
0.00207457
0.00244759
-0.00177822
0.00215571
0.00249864
-0.00195353
0.0017712
0.00232715
-0.00210588
0.000842251
0.00181759
-0.00192902
-0.000806982
0.000911838
-0.00118044
-0.00321987
-0.000661851
-0.00745019
-0.00293697
0.000161207
-0.00695419
-0.00375253
0.000738443
-0.00328533
-0.00158627
0.000861217
-0.00072494
-1.41587e-05
0.000849979
0.000856861
0.000849979
0.000864305
0.00162734
0.00137346
0.000897198
0.00186409
0.00158611
0.000870251
0.00176215
0.00160327
0.000738031
0.00156906
0.00151963
0.000505235
0.00145411
0.00140209
5.08031e-05
0.00158936
0.00125341
-0.000413962
0.00157191
0.00124741
-0.000680357
0.00141835
0.00139394
-0.000858116
0.00151984
0.0014955
-0.00093336
0.00170405
0.00156071
-0.000931294
0.00181523
0.00153046
-0.000916049
0.00161399
0.00131918
-0.000908117
0.000857993
0.000807775
-0.000749249
-0.000765413
-6.05243e-05
-0.000133709
-0.00340294
-0.00165136
-0.00711004
-0.0038536
-0.00137857
-0.00516858
-0.00488739
-0.00169918
-0.00267556
-0.00333696
-0.00147895
-0.00102411
-0.00192692
-0.00110255
0.000104068
-0.00110255
-0.000660587
0.000524954
-0.000767562
-0.00016504
0.000682798
-0.000609244
0.000186855
0.000723988
-0.000641565
0.00034243
0.000790649
-0.000761114
0.000303464
0.000973038
-0.000811801
6.20009e-05
0.00144209
-0.00072847
-0.000158842
0.00140692
-0.000759996
-0.000205412
0.000942879
-0.000842659
-8.04902e-05
0.000764258
-0.000791845
0.000222683
0.000699364
-0.000667324
0.000678901
0.000657139
-0.000632915
0.00111595
0.000507172
-0.000773022
0.00150738
8.50082e-05
-0.00109227
0.00174638
-0.00107208
-0.00193986
0.00141083
-0.00275197
-0.00339468
-0.00526944
-0.00499542
-0.00485307
-0.0066812
-0.00725124
-0.00687117
-0.00812499
-0.00745408
-0.00807295
-0.00807295
-0.00759694
-0.00890029
-0.00684323
-0.00991742
-0.00581839
-0.0110397
-0.00441848
-0.01211
-0.00250883
-0.0128658
0.000139869
-0.0128617
0.0027586
-0.0129008
0.00465295
-0.0129022
0.00604034
-0.0121457
0.007051
-0.0110751
0.00779151
-0.00995441
0.0082601
-0.0089381
0.0083039
-0.00811751
0.00739487
-0.00750657
0.00493846
-0.00694812
-0.00679517
-0.000315602
3.10071e-05
-0.00172097
-0.000389471
-0.000207816
-0.00106414
-0.000307585
-0.000342559
-0.000572556
-9.92595e-05
-0.000481984
-0.000174082
0.000202556
-0.000603599
0.000202555
0.00048231
-0.00056252
0.000531827
0.000565903
-0.000393139
0.000765204
0.000404228
-0.000237813
0.000990188
2.14711e-05
-0.000125738
0.00124669
-0.000505837
-0.00011776
0.00145842
-0.000924481
-0.00020023
0.00142455
-0.00111845
-0.000310989
0.00127791
-0.00109762
-0.000424814
0.00110145
-0.000903928
-0.000516213
0.000930106
-0.000593427
-0.000585281
0.000752457
-0.000287669
-0.000566744
0.00048907
-7.8431e-05
-0.000377478
0.000195535
4.75344e-05
-0.000186556
-8.54287e-05
0.000100503
-1.90184e-05
-0.000456204
0.000156443
-0.00103629
0.000978262
0.000798248
0.000895204
0.00135486
0.000736083
0.0013392
0.00132558
0.000655782
0.00117176
0.00101592
0.00047156
0.000842667
0.000642408
0.000143435
0.000642408
0.000452728
-0.000231789
0.000643705
0.000451019
-0.000483899
0.000718812
0.000456664
-0.000515465
0.000773433
0.00027038
-0.000348029
0.00075285
-0.000146523
-0.000235026
0.00063647
-0.000556617
-0.00032313
0.000581189
-0.000773599
-0.000528251
0.000648594
-0.000798034
-0.000702408
0.000674734
-0.000769841
-0.00069012
0.000634089
-0.000944732
-0.000315054
0.000581001
-0.00136357
0.000262746
0.00065298
-0.00174982
0.000815536
0.000953623
-0.00180571
0.00110632
0.00141317
-0.00131544
0.00115665
0.00165777
0.00109718
0.00107918
0.00167725
-1.76521e-05
0.00385948
0.00263979
0.00064516
0.00409589
0.00310026
0.000986547
0.00380851
0.00303656
0.00116159
0.00321696
0.00254965
0.00111725
0.00254965
0.00185338
0.000812145
0.00197744
0.00121053
0.000326214
0.00156039
0.00075872
-0.000104314
0.00123912
0.000414939
-0.00028359
0.000892346
-1.47967e-05
-0.000284873
0.000492548
-0.000446393
-0.000387771
0.000370085
-0.000784348
-0.000523506
0.000659815
-0.00116287
-0.000436008
0.00093989
-0.0017432
1.9055e-05
0.00119245
-0.00237933
0.000645634
0.001578
-0.00283513
0.00118012
0.00212677
-0.00288421
0.00142538
0.00277797
-0.0024348
0.00133965
0.00331706
-0.0015189
0.000974449
0.00350575
0.000245994
0.00313007
0.00187735
-0.00174353
0.00202627
0.00275071
5.04517e-05
0.00323378
0.00326419
0.000807489
0.00365235
0.0034213
0.00132618
0.00355345
0.00318766
0.00158452
0.00318766
0.00266295
0.00148172
0.00275835
0.00197537
0.00108127
0.00232757
0.0012695
0.000566061
0.00184178
0.000626002
0.00013009
0.00123626
3.85894e-05
-0.000143467
0.000575606
-0.000537402
-0.000252485
0.000420167
-0.00118888
-0.000111074