/*--------------------------------*- C++ -*----------------------------------*\
  =========                 |
  \\      /  F ield         | OpenFOAM: The Open Source CFD Toolbox
   \\    /   O peration     | Website:  https://openfoam.org
    \\  /    A nd           | Version:  9
     \\/     M anipulation  |
\*---------------------------------------------------------------------------*/
FoamFile
{
    format      ascii;
    class       volScalarField;
    location    "0.17";
    object      k;
}
// * * * * * * * * * * * * * * * * * * * * * * * * * * * * * * * * * * * * * //

dimensions      [0 2 -2 0 0 0 0];

internalField   nonuniform List<scalar> 
12225
(
0.353921
0.335043
0.316966
0.300961
0.288126
0.278907
0.273298
0.271004
0.271567
0.274471
0.279203
0.285293
0.292334
0.299991
0.308009
0.316173
0.324531
0.336635
0.436864
0.448979
0.438085
0.433062
0.438789
0.453589
0.474804
0.499986
0.527146
0.5548
0.581918
0.607836
0.632177
0.654763
0.675705
0.694897
0.714436
0.729763
0.395187
0.410874
0.410631
0.405747
0.402011
0.400924
0.402615
0.406809
0.413084
0.420982
0.430069
0.439967
0.450364
0.461017
0.471787
0.482563
0.493634
0.504366
0.379641
0.38484
0.386546
0.38573
0.383905
0.382026
0.380567
0.379739
0.379606
0.380149
0.381302
0.382987
0.38512
0.387627
0.390454
0.393567
0.396987
0.40061
0.374976
0.3759
0.376239
0.375721
0.37457
0.373084
0.371496
0.369967
0.368593
0.367426
0.366485
0.365769
0.365268
0.364969
0.364858
0.364926
0.365169
0.365556
0.373488
0.372555
0.371759
0.370807
0.369631
0.368275
0.366809
0.3653
0.363803
0.362358
0.36099
0.359714
0.358537
0.357461
0.356489
0.355618
0.354847
0.354172
0.373012
0.371296
0.369813
0.368416
0.367025
0.36561
0.364168
0.362711
0.361257
0.359823
0.358425
0.357072
0.355773
0.354532
0.353353
0.352239
0.351191
0.350216
0.372865
0.370838
0.369004
0.36731
0.365711
0.364174
0.362679
0.361216
0.359782
0.358381
0.357014
0.355687
0.354401
0.35316
0.351966
0.350821
0.349727
0.348695
0.37282
0.37068
0.368691
0.366836
0.365095
0.363448
0.36188
0.360376
0.358928
0.357531
0.356182
0.354879
0.353621
0.352408
0.35124
0.350116
0.34904
0.348021
0.372806
0.370628
0.368578
0.366648
0.364829
0.36311
0.361482
0.359934
0.358457
0.357045
0.355693
0.354396
0.353152
0.351957
0.35081
0.349711
0.348658
0.347662
0.372801
0.370609
0.368537
0.366576
0.36472
0.362964
0.361299
0.359718
0.358215
0.356784
0.35542
0.354117
0.352873
0.351683
0.350546
0.349458
0.348419
0.347438
0.372799
0.370602
0.368522
0.36655
0.36468
0.362907
0.361224
0.359627
0.358108
0.356663
0.355288
0.353978
0.352728
0.351536
0.350399
0.349313
0.348278
0.347302
0.372797
0.370599
0.368514
0.366537
0.36466
0.362879
0.361188
0.359581
0.358053
0.356599
0.355216
0.353898
0.352643
0.351447
0.350307
0.34922
0.348184
0.347209
0.372796
0.370596
0.368509
0.366528
0.364649
0.362864
0.361167
0.359555
0.358022
0.356562
0.355173
0.353851
0.352591
0.351391
0.350247
0.349156
0.348118
0.34714
0.372795
0.370593
0.368505
0.366523
0.364641
0.362853
0.361154
0.359539
0.358002
0.35654
0.355148
0.353822
0.352559
0.351356
0.350209
0.349115
0.348074
0.347093
0.372794
0.370592
0.368502
0.366518
0.364634
0.362845
0.361145
0.359527
0.357989
0.356525
0.355131
0.353803
0.352538
0.351333
0.350183
0.349088
0.348044
0.347061
0.372794
0.37059
0.368499
0.366515
0.36463
0.362839
0.361137
0.359519
0.357979
0.356513
0.355118
0.353789
0.352523
0.351316
0.350165
0.349067
0.348021
0.347037
0.372794
0.370589
0.368498
0.366512
0.364627
0.362835
0.361132
0.359513
0.357972
0.356506
0.355109
0.353779
0.352511
0.351303
0.350151
0.349052
0.348005
0.34702
0.372793
0.370589
0.368497
0.366512
0.364626
0.362834
0.361131
0.359511
0.35797
0.356502
0.355105
0.353775
0.352506
0.351297
0.350145
0.349045
0.347997
0.347011
0.372794
0.37059
0.368498
0.366513
0.364628
0.362836
0.361133
0.359514
0.357973
0.356506
0.35511
0.353779
0.352511
0.351302
0.350149
0.34905
0.348002
0.347016
0.372794
0.370591
0.3685
0.366516
0.364632
0.362841
0.36114
0.359522
0.357982
0.356517
0.355122
0.353793
0.352527
0.351319
0.350168
0.34907
0.348023
0.347038
0.372795
0.370593
0.368504
0.366522
0.364641
0.362855
0.361159
0.359546
0.358012
0.356552
0.355163
0.353839
0.352578
0.351376
0.350229
0.349135
0.348092
0.347109
0.372796
0.370598
0.368518
0.366547
0.364681
0.362913
0.361235
0.359642
0.358127
0.356685
0.355311
0.354001
0.352751
0.351557
0.350416
0.349325
0.348282
0.347299
0.372804
0.370631
0.368592
0.366676
0.364872
0.363166
0.361548
0.360006
0.358532
0.357121
0.355767
0.354467
0.353219
0.35202
0.350868
0.349762
0.348702
0.347698
0.372856
0.370818
0.368973
0.367264
0.365645
0.364085
0.362567
0.361083
0.359631
0.358213
0.356833
0.355493
0.354197
0.352947
0.351744
0.35059
0.349487
0.348446
0.373166
0.37177
0.370579
0.369371
0.368049
0.366605
0.365072
0.363492
0.361906
0.360342
0.358826
0.357372
0.355991
0.354689
0.353468
0.352329
0.351272
0.350303
0.374797
0.375829
0.376175
0.375401
0.373834
0.371876
0.369792
0.36774
0.365814
0.364066
0.362524
0.361194
0.360075
0.359156
0.358424
0.357862
0.357456
0.357188
0.382729
0.39167
0.392375
0.388805
0.384384
0.380403
0.377247
0.374997
0.37362
0.373037
0.373151
0.373864
0.375081
0.376713
0.378681
0.380916
0.383358
0.385938
0.407499
0.414514
0.405423
0.395992
0.390554
0.389291
0.391454
0.396213
0.402832
0.41072
0.419426
0.42861
0.438016
0.447458
0.4568
0.465946
0.474852
0.483431
0.360554
0.347547
0.334933
0.322917
0.311965
0.302353
0.29419
0.28747
0.282115
0.278003
0.275
0.272966
0.271765
0.271272
0.271374
0.27197
0.272971
0.274297
0.00123468
0.006197
0.0100312
0.013605
0.017569
0.0220087
0.0269938
0.0326036
0.0385432
0.0445855
0.0507135
0.0568847
0.0630564
0.0691929
0.075265
0.0812479
0.0871192
0.0928572
0.0984394
0.103842
0.109038
0.114001
0.1187
0.123103
0.127169
0.130845
0.134061
0.136738
0.138828
0.14039
0.141628
0.142762
0.14366
0.143619
0.142104
0.141437
0.14278
0.145121
0.145951
0.145146
0.144743
0.146195
0.146924
0.153198
0.159922
0.16691
0.174117
0.181526
0.189125
0.196905
0.204861
0.21299
0.221288
0.229753
0.238382
0.247173
0.256123
0.265231
0.274492
0.283905
0.293464
0.303167
0.313009
0.322985
0.333091
0.343321
0.35367
0.364132
0.374699
0.385367
0.396126
0.406971
0.417894
0.428886
0.43994
0.451047
0.462199
0.473387
0.484603
0.495837
0.50708
0.518323
0.529557
0.540773
0.55196
0.56311
0.574213
0.585259
0.596238
0.60714
0.617955
0.628673
0.639283
0.649776
0.660142
0.670373
0.680467
0.690427
0.700269
0.710036
0.719649
0.729038
0.738207
0.747151
0.755861
0.764327
0.772536
0.780479
0.788144
0.795521
0.802599
0.80937
0.815823
0.82195
0.827742
0.833191
0.838291
0.843033
0.847412
0.851423
0.855059
0.858317
0.861193
0.863683
0.865785
0.867497
0.868818
0.869746
0.870283
0.870429
0.870185
0.869554
0.868538
0.867141
0.865368
0.863222
0.86071
0.857838
0.854612
0.851041
0.847131
0.842892
0.838332
0.833461
0.828289
0.822828
0.817087
0.811078
0.804812
0.798303
0.791562
0.784601
0.777434
0.770075
0.762534
0.754827
0.746967
0.738964
0.730839
0.722598
0.714261
0.705849
0.697337
0.688844
0.680488
0.674376
0.670751
0.667254
0.663746
0.66022
0.656677
0.653117
0.649531
0.6459
0.642178
0.638264
0.633926
0.628564
0.620683
0.603917
0.00422992
0.0157397
0.0232344
0.0293282
0.0349083
0.040428
0.0461538
0.052168
0.0584333
0.0648746
0.0714261
0.0780332
0.0846534
0.0912544
0.0978123
0.104309
0.110729
0.117059
0.123288
0.129403
0.135393
0.141246
0.146953
0.152501
0.157874
0.163049
0.167999
0.172711
0.177235
0.181725
0.186383
0.191295
0.196359
0.201576
0.207419
0.214067
0.220971
0.228145
0.236175
0.245243
0.254543
0.266282
0.277959
0.289398
0.300714
0.312422
0.324524
0.336994
0.349809
0.362959
0.376435
0.390234
0.404352
0.418789
0.433543
0.448613
0.463997
0.479695
0.495705
0.512024
0.528649
0.545577
0.562804
0.580326
0.598138
0.616233
0.634606
0.653249
0.672154
0.691312
0.710715
0.730353
0.750215
0.770291
0.790568
0.811034
0.831677
0.852484
0.873441
0.894534
0.915748
0.93707
0.958483
0.979974
1.00153
1.02312
1.04475
1.06639
1.08803
1.10965
1.13123
1.15276
1.17422
1.1956
1.21686
1.23801
1.259
1.27983
1.30048
1.32077
1.34067
1.36028
1.3796
1.39861
1.4173
1.43564
1.4536
1.47118
1.48834
1.50506
1.52133
1.53712
1.55241
1.56718
1.58142
1.5951
1.60821
1.62073
1.63265
1.64395
1.65462
1.66464
1.674
1.6827
1.69072
1.69805
1.70469
1.71063
1.71587
1.72039
1.72421
1.72731
1.7297
1.73137
1.73234
1.7326
1.73217
1.73103
1.72922
1.72672
1.72355
1.71973
1.71527
1.71017
1.70446
1.69814
1.69124
1.68378
1.67576
1.66722
1.65817
1.64862
1.63861
1.62816
1.61729
1.60601
1.59436
1.58235
1.57003
1.5574
1.54449
1.53136
1.51789
1.50441
1.49087
1.47766
1.46484
1.45202
1.43914
1.42622
1.41327
1.4003
1.38732
1.37433
1.36132
1.34824
1.33495
1.32132
1.30613
1.28651
0.00814647
0.0251012
0.0348439
0.0421733
0.0486727
0.0549514
0.0612856
0.0677911
0.0744889
0.0813506
0.0883309
0.0953845
0.102474
0.109571
0.116656
0.123718
0.130747
0.137741
0.144699
0.15162
0.158509
0.165371
0.172215
0.179054
0.185901
0.192773
0.199692
0.206702
0.213879
0.221336
0.229185
0.237473
0.246194
0.255394
0.26518
0.275528
0.286445
0.297969
0.310133
0.322959
0.336428
0.350576
0.365129
0.379928
0.394996
0.410453
0.426338
0.442648
0.459379
0.476524
0.494077
0.512034
0.530392
0.549148
0.5683
0.587846
0.607782
0.628106
0.648815
0.669906
0.691372
0.713211
0.735416
0.757981
0.780899
0.804163
0.827763
0.85169
0.875935
0.900486
0.925331
0.950459
0.975855
1.00151
1.0274
1.05351
1.07984
1.10635
1.13305
1.1599
1.18688
1.21399
1.24121
1.2685
1.29586
1.32326
1.35069
1.37812
1.40553
1.43291
1.46023
1.48747
1.51462
1.54164
1.56853
1.59526
1.62181
1.64816
1.67428
1.70002
1.7254
1.75044
1.77512
1.7994
1.82327
1.84669
1.86963
1.89207
1.91397
1.93532
1.95608
1.97622
1.99573
2.01457
2.03272
2.05015
2.06686
2.0828
2.09797
2.11234
2.1259
2.13863
2.15052
2.16154
2.1717
2.18097
2.18935
2.19684
2.20342
2.20908
2.21383
2.21767
2.22059
2.2226
2.2237
2.2239
2.22319
2.22159
2.21912
2.21577
2.21157
2.20652
2.20065
2.19397
2.1865
2.17826
2.16927
2.15955
2.14913
2.13803
2.12628
2.1139
2.10092
2.08737
2.07328
2.05868
2.0436
2.02804
2.0121
1.99574
1.97903
1.96209
1.94486
1.92747
1.90998
1.89257
1.8753
1.85802
1.84067
1.82328
1.80587
1.78846
1.77108
1.75375
1.73649
1.71932
1.70224
1.68532
1.66802
1.64999
0.0124349
0.0336019
0.0450572
0.0534238
0.0606938
0.0675662
0.0743654
0.0812478
0.0882748
0.0954528
0.102761
0.110169
0.117648
0.125175
0.132734
0.140319
0.147926
0.15556
0.163225
0.170934
0.178701
0.186542
0.19448
0.20254
0.210751
0.219146
0.227766
0.23666
0.245895
0.255544
0.265675
0.276323
0.287504
0.29924
0.311569
0.324502
0.338045
0.3522
0.366965
0.382331
0.398278
0.414773
0.431745
0.449127
0.466908
0.485116
0.503772
0.522885
0.542458
0.562491
0.582983
0.603933
0.62534
0.647202
0.669518
0.692286
0.715504
0.73917
0.76328
0.787831
0.812819
0.83824
0.864086
0.890353
0.917032
0.944116
0.971595
0.999458
1.0277
1.05629
1.08524
1.11452
1.14413
1.17403
1.20422
1.23468
1.26539
1.29633
1.32748
1.35882
1.39033
1.42198
1.45376
1.48564
1.5176
1.54961
1.58166
1.61371
1.64574
1.67774
1.70967
1.74152
1.77325
1.80485
1.83629
1.86756
1.89862
1.92946
1.95995
1.99006
2.01978
2.0491
2.07799
2.10642
2.13435
2.16174
2.18858
2.21481
2.24041
2.26534
2.28958
2.31309
2.33583
2.35779
2.37893
2.39922
2.41864
2.43717
2.45477
2.47142
2.48712
2.50183
2.51554
2.52823
2.53989
2.55051
2.56008
2.56858
2.57601
2.58237
2.58765
2.59185
2.59497
2.59701
2.59798
2.59789
2.59674
2.59454
2.59131
2.58705
2.58179
2.57554
2.56832
2.56016
2.55106
2.54107
2.5302
2.51848
2.50593
2.49259
2.47849
2.46366
2.44812
2.43193
2.41509
2.39766
2.37968
2.36112
2.34215
2.32276
2.30298
2.28289
2.26249
2.24187
2.22109
2.20029
2.1795
2.15868
2.1378
2.11689
2.09597
2.07508
2.05426
2.03357
2.01307
1.99283
1.97297
1.9537
1.93486
1.91666
0.0165011
0.0410236
0.0539757
0.0633155
0.0712851
0.0786781
0.0858707
0.0930586
0.100339
0.107749
0.115295
0.122963
0.130737
0.138601
0.146547
0.154569
0.162671
0.170861
0.17915
0.187555
0.196098
0.204802
0.213696
0.222813
0.232187
0.241857
0.251865
0.262258
0.273087
0.284406
0.296258
0.308675
0.321673
0.335264
0.349464
0.364278
0.379706
0.395743
0.412381
0.429607
0.447403
0.465749
0.484614
0.503969
0.523803
0.54412
0.564929
0.586238
0.608051
0.630372
0.653202
0.676544
0.700398
0.724766
0.749647
0.77504
0.800947
0.827364
0.854292
0.881726
0.909663
0.9381
0.967032
0.996451
1.02635
1.05673
1.08756
1.11885
1.15058
1.18274
1.21531
1.24828
1.28163
1.31534
1.3494
1.38378
1.41846
1.45342
1.48864
1.52409
1.55975
1.59559
1.63158
1.66771
1.70393
1.74023
1.77657
1.81294
1.84929
1.88561
1.92186
1.95802
1.99406
2.02995
2.06566
2.10117
2.13645
2.17146
2.20605
2.24022
2.27396
2.30723
2.34001
2.37225
2.40392
2.43497
2.46538
2.49509
2.52407
2.55229
2.5797
2.60627
2.63196
2.65675
2.68059
2.70346
2.72532
2.74615
2.76593
2.78461
2.80219
2.81864
2.83394
2.84808
2.86104
2.8728
2.88335
2.89269
2.9008
2.90769
2.91334
2.91776
2.92095
2.92291
2.92365
2.92318
2.92151
2.91864
2.9146
2.9094
2.90305
2.89559
2.88703
2.87739
2.8667
2.855
2.8423
2.82865
2.81406
2.79858
2.78224
2.76507
2.74711
2.72842
2.709
2.68889
2.66823
2.64697
2.62522
2.603
2.58035
2.55733
2.53397
2.51035
2.48652
2.46259
2.43861
2.41456
2.39046
2.36634
2.34223
2.31818
2.29427
2.27055
2.24714
2.22417
2.20182
2.18039
2.15987
2.14047
0.0200834
0.0473294
0.0616273
0.0718513
0.0804587
0.0883233
0.0958657
0.103315
0.110799
0.118383
0.126096
0.133945
0.141927
0.150038
0.158274
0.166637
0.175133
0.183774
0.192576
0.201559
0.210747
0.22017
0.229859
0.239847
0.250172
0.26087
0.271983
0.283551
0.295613
0.30821
0.321373
0.335127
0.349486
0.364459
0.380053
0.39627
0.413107
0.43056
0.448621
0.46728
0.486526
0.506347
0.526729
0.547659
0.569128
0.591139
0.613694
0.636801
0.660463
0.684687
0.709477
0.734837
0.76077
0.78728
0.814369
0.842038
0.87029
0.899124
0.92854
0.958538
0.989115
1.02027
1.05199
1.08428
1.11714
1.15054
1.18449
1.21896
1.25396
1.28946
1.32545
1.36192
1.39883
1.43619
1.47395
1.5121
1.55062
1.58947
1.62864
1.66808
1.70779
1.74771
1.78783
1.82811
1.86853
1.90904
1.94961
1.99023
2.03084
2.07142
2.11193
2.15235
2.19264
2.23277
2.2727
2.31241
2.35184
2.39092
2.42954
2.46769
2.50535
2.54249
2.57906
2.61502
2.65033
2.68495
2.71882
2.75191
2.78417
2.81556
2.84603
2.87555
2.90408
2.93158
2.95801
2.98334
3.00753
3.03056
3.05238
3.07298
3.09233
3.1104
3.12718
3.14265
3.15678
3.16957
3.18101
3.19108
3.19977
3.20708
3.21301
3.21756
3.22073
3.22253
3.22296
3.22204
3.21978
3.21618
3.21127
3.20507
3.1976
3.18889
3.17895
3.16782
3.15553
3.1421
3.12758
3.11199
3.09537
3.07776
3.05922
3.03975
3.01938
2.99825
2.97636
2.95373
2.93046
2.90656
2.8821
2.85713
2.83168
2.80582
2.77959
2.75305
2.72628
2.69934
2.6723
2.64517
2.61799
2.5908
2.56364
2.53659
2.50972
2.48313
2.45695
2.43137
2.4066
2.38298
2.36051
2.33931
0.0230851
0.0526086
0.0680448
0.0790341
0.0882019
0.0964843
0.104336
0.112011
0.119661
0.127375
0.135204
0.143172
0.151291
0.159568
0.168008
0.176618
0.185409
0.194396
0.203598
0.213037
0.222739
0.232735
0.243057
0.253737
0.264811
0.276315
0.288284
0.300752
0.313753
0.327315
0.341465
0.35622
0.371595
0.387598
0.404232
0.4215
0.439401
0.457932
0.477089
0.496866
0.517259
0.538262
0.559868
0.582073
0.604874
0.628273
0.652275
0.676885
0.70211
0.727957
0.754432
0.781543
0.809295
0.837694
0.866745
0.896451
0.926818
0.957847
0.98954
1.0219
1.05492
1.0886
1.12295
1.15795
1.1936
1.22989
1.26681
1.30436
1.34251
1.38126
1.42058
1.46046
1.50087
1.5418
1.58322
1.6251
1.66742
1.71014
1.75323
1.79667
1.84041
1.88443
1.92868
1.97313
2.01774
2.06248
2.10731
2.15219
2.19708
2.24195
2.28675
2.33145
2.37601
2.4204
2.46456
2.50846
2.55206
2.59519
2.63784
2.67996
2.72154
2.76252
2.80286
2.84251
2.88144
2.91957
2.95687
2.99329
3.02877
3.06328
3.09676
3.12917
3.16047
3.19061
3.21956
3.24727
3.27371
3.29885
3.32265
3.34508
3.36611
3.38572
3.40389
3.42059
3.43582
3.44955
3.46178
3.47249
3.48167
3.48933
3.49546
3.50005
3.50313
3.50469
3.50474
3.50329
3.50037
3.49598
3.49015
3.4829
3.47425
3.46424
3.45289
3.44023
3.42629
3.41111
3.39475
3.37722
3.35855
3.3388
3.31806
3.29634
3.27367
3.25015
3.2258
3.20067
3.17482
3.1483
3.12117
3.09348
3.06528
3.03662
3.00757
2.97817
2.9485
2.91862
2.8886
2.85849
2.82831
2.79814
2.76802
2.73804
2.7083
2.67891
2.65004
2.62188
2.59468
2.56875
2.54408
2.52072
0.0255586
0.0569097
0.0732678
0.0848885
0.0945257
0.103162
0.111275
0.119139
0.126922
0.134732
0.142634
0.150672
0.158871
0.167249
0.175819
0.184594
0.193591
0.202826
0.212322
0.222101
0.232192
0.242622
0.253424
0.264629
0.276269
0.288376
0.300982
0.314116
0.327805
0.342074
0.356943
0.372429
0.388544
0.405298
0.422695
0.44074
0.459434
0.478778
0.498771
0.519415
0.540707
0.562648
0.585237
0.608477
0.632368
0.656916
0.682127
0.70801
0.734571
0.761822
0.789771
0.818428
0.847801
0.877899
0.908729
0.940299
0.972615
1.00568
1.0395
1.07408
1.10942
1.14552
1.18237
1.21998
1.25834
1.29744
1.33727
1.37782
1.41908
1.46103
1.50365
1.54692
1.59081
1.63531
1.68039
1.72601
1.77214
1.81874
1.86579
1.91324
1.96106
2.0092
2.05762
2.10628
2.15513
2.20414
2.25326
2.30245
2.35166
2.40085
2.44997
2.49899
2.54785
2.59651
2.64493
2.69306
2.74079
2.78799
2.83466
2.88074
2.92621
2.97102
3.01511
3.05843
3.10092
3.14254
3.18322
3.22291
3.26156
3.29913
3.33554
3.37077
3.40476
3.43747
3.46885
3.49886
3.52746
3.55462
3.5803
3.60446
3.62708
3.64813
3.66759
3.68544
3.70166
3.71624
3.72916
3.74042
3.75
3.75791
3.76414
3.7687
3.7716
3.77283
3.77243
3.77039
3.76674
3.7615
3.75469
3.74633
3.73644
3.72509
3.71229
3.69807
3.68246
3.66549
3.64727
3.6278
3.60713
3.5853
3.56238
3.53842
3.51346
3.48756
3.46078
3.43317
3.40478
3.37568
3.34591
3.31554
3.28463
3.25322
3.22138
3.18917
3.15666
3.12391
3.09099
3.05795
3.02486
2.99177
2.95877
2.92593
2.89339
2.86126
2.82972
2.799
2.76933
2.741
2.71395
2.68821
0.0275077
0.0602808
0.0773517
0.0894667
0.099475
0.108392
0.116714
0.124725
0.132607
0.140479
0.148421
0.15649
0.164722
0.173146
0.181783
0.190654
0.199776
0.209173
0.218865
0.228878
0.239239
0.249975
0.261115
0.272689
0.284727
0.297257
0.310306
0.323902
0.338066
0.352822
0.368187
0.384178
0.400807
0.418084
0.436017
0.454614
0.473879
0.493818
0.514435
0.535733
0.557718
0.580395
0.603768
0.627843
0.652628
0.67813
0.70436
0.731329
0.759048
0.78753
0.816786
0.846829
0.877672
0.909326
0.941801
0.975108
1.00926
1.04425
1.0801
1.11681
1.15439
1.19282
1.23213
1.27229
1.31331
1.35518
1.39789
1.44143
1.48578
1.53092
1.57684
1.62351
1.6709
1.71899
1.76775
1.81713
1.8671
1.91763
1.96867
2.02018
2.0721
2.1244
2.17703
2.22994
2.28307
2.33638
2.38982
2.44333
2.49688
2.55041
2.60386
2.6572
2.71036
2.76331
2.81598
2.86832
2.92012
2.97136
3.022
3.07201
3.12132
3.16989
3.21766
3.26458
3.31056
3.35557
3.39954
3.44241
3.48413
3.52463
3.56388
3.6018
3.63837
3.67351
3.7072
3.73939
3.77003
3.79908
3.82651
3.85228
3.87635
3.89871
3.91934
3.9382
3.95529
3.9706
3.9841
3.99579
4.00567
4.01372
4.01996
4.02438
4.027
4.02783
4.02688
4.02417
4.01973
4.01357
4.00572
3.9962
3.98503
3.97229
3.95801
3.94222
3.92494
3.90624
3.88617
3.86478
3.84211
3.81822
3.79316
3.76698
3.73975
3.71152
3.68235
3.6523
3.62142
3.58978
3.55743
3.52444
3.49087
3.45678
3.42223
3.38727
3.35199
3.31644
3.2807
3.24483
3.20891
3.173
3.13719
3.10158
3.06629
3.03148
2.99733
2.96405
2.93189
2.90109
2.87155
2.84331
0.0289506
0.0627845
0.0803725
0.0928483
0.103128
0.112251
0.120722
0.128835
0.136777
0.144678
0.152628
0.160693
0.168919
0.177343
0.185995
0.194898
0.204077
0.213556
0.223356
0.233505
0.244027
0.254949
0.266298
0.278101
0.290385
0.303177
0.316501
0.33038
0.344838
0.359894
0.375566
0.391871
0.408822
0.426433
0.444715
0.463678
0.483331
0.503685
0.524747
0.546527
0.569035
0.592279
0.616271
0.641022
0.666543
0.692847
0.719948
0.74786
0.7766
0.806182
0.836623
0.867939
0.900145
0.933257
0.967288
1.00225
1.03816
1.07502
1.11285
1.15165
1.19142
1.23217
1.2739
1.3166
1.36028
1.40492
1.45052
1.49706
1.54452
1.59288
1.64213
1.69223
1.74315
1.79486
1.84733
1.90051
1.95437
2.00885
2.06391
2.1195
2.17557
2.23205
2.2889
2.34606
2.40347
2.46108
2.51882
2.57666
2.63452
2.69235
2.7501
2.80772
2.86514
2.92231
2.97918
3.03557
3.09136
3.14654
3.20106
3.25486
3.3079
3.3601
3.41142
3.46178
3.51111
3.55935
3.60645
3.65233
3.69693
3.74021
3.78209
3.82254
3.86148
3.89889
3.9347
3.96887
4.00136
4.03213
4.06113
4.08832
4.11368
4.13718
4.1588
4.17851
4.19631
4.21219
4.22612
4.23811
4.24814
4.25621
4.26233
4.2665
4.26875
4.26907
4.26749
4.26403
4.25871
4.25157
4.24263
4.23192
4.21947
4.20535
4.18958
4.17221
4.15329
4.13285
4.11097
4.08768
4.06305
4.03712
4.00997
3.98164
3.95219
3.92169
3.8902
3.85778
3.82448
3.79039
3.75555
3.72003
3.6839
3.64722
3.61004
3.57245
3.53449
3.49626
3.45781
3.41922
3.38057
3.34195
3.30343
3.26515
3.22722
3.1898
3.15309
3.1173
3.08265
3.04935
3.01727
2.98649
0.0299201
0.0644975
0.0824247
0.0951364
0.105591
0.114843
0.123403
0.131568
0.13953
0.147426
0.155351
0.163378
0.171562
0.179946
0.188565
0.197447
0.20662
0.216109
0.225938
0.236133
0.246717
0.257717
0.269157
0.281063
0.29346
0.306373
0.319824
0.333836
0.348431
0.36363
0.37945
0.395911
0.413027
0.430817
0.449293
0.468471
0.488365
0.508988
0.530355
0.55248
0.575377
0.599062
0.62355
0.648858
0.675001
0.701999
0.729869
0.758631
0.788304
0.818908
0.850463
0.88299
0.916507
0.951033
0.986585
1.02318
1.06083
1.09956
1.13936
1.18025
1.22224
1.26533
1.30951
1.35479
1.40117
1.44863
1.49715
1.54674
1.59736
1.64899
1.70162
1.75519
1.80969
1.86507
1.92129
1.9783
2.03606
2.09452
2.15361
2.21329
2.27349
2.33414
2.39519
2.45656
2.51821
2.58005
2.64204
2.7041
2.76618
2.82822
2.89016
2.95193
3.01348
3.07474
3.1356
3.19585
3.25545
3.31437
3.37256
3.42995
3.48648
3.5421
3.59673
3.6503
3.70273
3.75395
3.80391
3.85253
3.89976
3.94554
3.9898
4.03249
4.07356
4.11295
4.15061
4.18651
4.2206
4.25284
4.28317
4.31154
4.33795
4.36235
4.38474
4.4051
4.42341
4.43966
4.45384
4.46597
4.47598
4.48391
4.48977
4.49356
4.49531
4.49502
4.49273
4.48844
4.4822
4.47403
4.46397
4.45204
4.4383
4.42278
4.40554
4.38662
4.36606
4.34393
4.32027
4.29515
4.26861
4.24073
4.21155
4.18115
4.14958
4.11691
4.0832
4.04852
4.01293
3.9765
3.93929
3.90137
3.86281
3.82367
3.78401
3.74391
3.70343
3.66265
3.62164
3.58048
3.53925
3.49805
3.45697
3.41614
3.37568
3.33577
3.29659
3.25835
3.22126
3.18549
3.1509
3.1176
0.0304617
0.0655082
0.0836165
0.0964505
0.10699
0.116297
0.124884
0.13305
0.140991
0.148843
0.15671
0.164667
0.172775
0.181081
0.189624
0.198437
0.207547
0.216983
0.226768
0.236927
0.247486
0.258467
0.269895
0.281795
0.294189
0.307102
0.320557
0.334575
0.34918
0.364393
0.380235
0.396725
0.413884
0.43173
0.450284
0.469565
0.48959
0.51038
0.531954
0.554331
0.577533
0.601579
0.626492
0.652291
0.679001
0.706643
0.735242
0.764822
0.795406
0.82702
0.859688
0.893433
0.928278
0.964246
1.00136
1.03963
1.07909
1.11973
1.16159
1.20466
1.24894
1.29445
1.34119
1.38914
1.4383
1.48867
1.54022
1.59294
1.6468
1.70178
1.75784
1.81495
1.87307
1.93216
1.99215
2.05301
2.11468
2.17709
2.24019
2.30392
2.36819
2.43294
2.4981
2.56358
2.62933
2.69526
2.76133
2.82745
2.89356
2.95961
3.02552
3.09122
3.15666
3.22175
3.28622
3.35003
3.41314
3.47548
3.53701
3.59765
3.65734
3.71601
3.7736
3.83002
3.88518
3.93901
3.99145
4.04244
4.09192
4.13982
4.18608
4.23065
4.27347
4.31449
4.35366
4.39093
4.42628
4.45968
4.49101
4.52026
4.54741
4.57244
4.59533
4.61606
4.63463
4.65102
4.66523
4.67725
4.68707
4.6947
4.70015
4.70343
4.70457
4.70357
4.70048
4.6953
4.68807
4.67884
4.66762
4.65447
4.63943
4.62253
4.60384
4.5834
4.56127
4.53749
4.51214
4.48526
4.45691
4.42717
4.39609
4.36373
4.33017
4.29547
4.25969
4.2229
4.18517
4.14657
4.10716
4.06702
4.0262
3.98478
3.94283
3.9004
3.85758
3.81444
3.77106
3.72752
3.6839
3.64031
3.59684
3.55362
3.5108
3.46854
3.42701
3.38644
3.34699
3.30884
3.27181
3.23607
0.030631
0.0659127
0.0840644
0.0969202
0.107463
0.116755
0.125309
0.133426
0.1413
0.149072
0.156846
0.1647
0.172699
0.180892
0.18932
0.198017
0.207015
0.21634
0.226018
0.236073
0.246529
0.257409
0.268739
0.28054
0.292837
0.305654
0.319015
0.332942
0.34746
0.362593
0.378364
0.394797
0.411915
0.429743
0.448303
0.467621
0.487722
0.508629
0.53037
0.55297
0.576455
0.600853
0.62619
0.652494
0.679792
0.708114
0.737489
0.767944
0.799511
0.832217
0.866092
0.901162
0.937454
0.974993
1.0138
1.0539
1.09532
1.13805
1.18213
1.22755
1.27431
1.32241
1.37186
1.42265
1.47476
1.52818
1.58289
1.63887
1.69609
1.7545
1.81409
1.8748
1.93658
1.99938
2.06315
2.12783
2.19335
2.25964
2.32665
2.39429
2.4625
2.53119
2.60025
2.66962
2.73923
2.80899
2.87885
2.94872
3.01854
3.08825
3.15778
3.22706
3.29599
3.36432
3.43198
3.49891
3.56505
3.63034
3.69472
3.75811
3.82044
3.88167
3.94173
4.0005
4.05787
4.11379
4.1682
4.22105
4.27227
4.32179
4.36957
4.41553
4.45963
4.50181
4.54203
4.58024
4.6164
4.65048
4.68241
4.71216
4.7397
4.76502
4.78809
4.80891
4.82746
4.84374
4.85773
4.86944
4.87886
4.886
4.89089
4.89352
4.89392
4.89211
4.88812
4.88198
4.87373
4.86339
4.85101
4.83663
4.8203
4.80206
4.78197
4.76008
4.73644
4.71112
4.68417
4.65565
4.62563
4.59417
4.56134
4.5272
4.49183
4.45527
4.41762
4.37892
4.33926
4.2987
4.25732
4.21517
4.17232
4.12886
4.08483
4.04033
3.9954
3.95014
3.90462
3.85893
3.81316
3.7674
3.72176
3.67638
3.63139
3.58696
3.54327
3.50051
3.45886
3.41846
3.37913
3.34107
0.0304919
0.0658115
0.0838885
0.0966784
0.107151
0.116364
0.12483
0.132847
0.140613
0.148266
0.155912
0.163632
0.171489
0.179535
0.187812
0.196355
0.205196
0.214363
0.22388
0.233773
0.244066
0.254782
0.265946
0.277582
0.289715
0.302369
0.315571
0.329347
0.343722
0.358725
0.374383
0.390723
0.407775
0.425567
0.444128
0.46349
0.483684
0.504741
0.526694
0.549577
0.573423
0.598267
0.624141
0.651078
0.679111
0.708273
0.738601
0.770128
0.802887
0.836912
0.872233
0.908882
0.946887
0.986273
1.02706
1.06928
1.11295
1.15808
1.20468
1.25275
1.30228
1.35326
1.40569
1.45955
1.51484
1.57152
1.62957
1.68896
1.74966
1.81161
1.87478
1.93911
2.00454
2.07102
2.13848
2.20686
2.27607
2.34606
2.41673
2.48804
2.55992
2.63224
2.70485
2.77771
2.85075
2.9239
2.99707
3.0702
3.14322
3.21607
3.28868
3.36093
3.43256
3.50351
3.57372
3.64311
3.71162
3.77918
3.84572
3.91117
3.97546
4.03852
4.10028
4.16065
4.21953
4.27688
4.33261
4.38667
4.439
4.48953
4.53821
4.58498
4.62978
4.67257
4.7133
4.75193
4.78841
4.82271
4.85478
4.88459
4.91212
4.93734
4.96024
4.9808
4.99901
5.01488
5.02838
5.03954
5.04834
5.05481
5.05894
5.06077
5.0603
5.05758
5.05262
5.04546
5.03613
5.02467
5.01113
4.99554
4.97796
4.95844
4.93703
4.91379
4.88877
4.86203
4.83364
4.80365
4.77213
4.73915
4.70477
4.66907
4.6321
4.59393
4.55465
4.5143
4.47297
4.43073
4.38763
4.34376
4.29917
4.25395
4.20815
4.16184
4.11511
4.06802
4.02066
3.9731
3.92545
3.87781
3.83028
3.78299
3.73608
3.68972
3.64409
3.59936
3.5557
3.51323
3.47179
3.4316
0.0301145
0.0653058
0.0832078
0.095856
0.106193
0.11527
0.123596
0.131469
0.139085
0.146583
0.154069
0.161624
0.16931
0.17718
0.185275
0.193633
0.202283
0.211254
0.220573
0.230265
0.240354
0.250868
0.26183
0.273267
0.285207
0.297676
0.310705
0.324323
0.338561
0.353452
0.369027
0.385322
0.40237
0.420207
0.438868
0.458392
0.478819
0.500188
0.52254
0.545918
0.570364
0.595921
0.622631
0.650523
0.679635
0.710007
0.74168
0.77469
0.809076
0.844871
0.882107
0.920815
0.96102
1.00275
1.04602
1.09085
1.13725
1.18525
1.23487
1.28607
1.33879
1.39303
1.4488
1.50606
1.56479
1.62497
1.68655
1.74949
1.81374
1.87926
1.94599
2.01386
2.08282
2.15278
2.22369
2.29546
2.36803
2.44129
2.51519
2.58963
2.66454
2.73981
2.81533
2.89103
2.96683
3.04264
3.11841
3.19405
3.2695
3.34473
3.41951
3.49367
3.56713
3.63983
3.7117
3.78266
3.85263
3.92156
3.98937
4.05598
4.12133
4.18534
4.24795
4.30907
4.36863
4.42656
4.4828
4.53728
4.58994
4.64073
4.68958
4.73645
4.78128
4.82402
4.86463
4.90307
4.93929
4.97327
5.00497
5.03435
5.06139
5.08607
5.10838
5.12831
5.14584
5.16097
5.17371
5.18405
5.192
5.19758
5.20079
5.20166
5.20022
5.19648
5.19048
5.18226
5.17184
5.15927
5.1446
5.12787
5.10913
5.08843
5.06582
5.04137
5.01513
4.98716
4.95752
4.92628
4.8935
4.85924
4.82358
4.78658
4.7483
4.70883
4.66821
4.62654
4.58386
4.54026
4.4958
4.45054
4.40456
4.35792
4.31069
4.26295
4.21475
4.16619
4.11733
4.06826
4.01907
3.96987
3.92077
3.87188
3.82337
3.77537
3.72806
3.68163
3.63621
3.59193
3.54862
3.50653
0.0295486
0.0644658
0.0821014
0.0945376
0.104678
0.113562
0.121697
0.129379
0.136804
0.14411
0.151403
0.15876
0.166247
0.173912
0.1818
0.189944
0.198379
0.207133
0.216233
0.225708
0.235586
0.245894
0.256662
0.267919
0.279698
0.292032
0.304954
0.318501
0.332711
0.347624
0.363283
0.379731
0.397009
0.415156
0.434219
0.454246
0.475287
0.497392
0.520612
0.544999
0.570607
0.597494
0.625733
0.655299
0.686238
0.718603
0.752436
0.787776
0.824657
0.86311
0.90316
0.94483
0.988137
1.03309
1.07971
1.12799
1.17794
1.22954
1.2828
1.33768
1.39414
1.45216
1.5117
1.57273
1.63521
1.69909
1.76433
1.83087
1.89866
1.96763
2.03771
2.10885
2.18096
2.25398
2.32783
2.40243
2.47769
2.55354
2.62988
2.70665
2.78375
2.86108
2.93857
3.01612
3.09366
3.17112
3.24842
3.32553
3.40231
3.47853
3.55412
3.629
3.7031
3.77634
3.84865
3.91997
3.99021
4.05931
4.1272
4.19381
4.25908
4.32292
4.38528
4.44608
4.50526
4.56275
4.61848
4.6724
4.72445
4.77457
4.82272
4.86883
4.91286
4.95476
4.9945
5.03203
5.06732
5.10033
5.13104
5.15941
5.18543
5.20906
5.23032
5.24917
5.26561
5.27965
5.29129
5.30052
5.30736
5.31182
5.31392
5.31368
5.31112
5.30627
5.29916
5.28983
5.27832
5.26467
5.24891
5.23111
5.2113
5.18954
5.16589
5.1404
5.11312
5.08413
5.05348
5.02123
4.98745
4.9522
4.91555
4.87756
4.83831
4.79785
4.75626
4.71361
4.66995
4.62536
4.5799
4.53364
4.48665
4.43899
4.39072
4.34192
4.29265
4.24299
4.19302
4.14282
4.09247
4.04208
3.99176
3.94163
3.89183
3.84251
3.79385
3.74599
3.6991
3.65329
3.60838
3.56467
0.0289714
0.0635046
0.0808052
0.0929734
0.102868
0.111517
0.119423
0.126884
0.134092
0.141187
0.148271
0.155423
0.162704
0.170166
0.177851
0.185797
0.194038
0.202607
0.211535
0.220856
0.230601
0.240805
0.251505
0.262737
0.274543
0.286967
0.300049
0.313832
0.328368
0.343711
0.359922
0.377069
0.395197
0.414328
0.434532
0.455874
0.478415
0.502215
0.527334
0.553829
0.581756
0.611168
0.642114
0.674617
0.708712
0.744431
0.781804
0.820855
0.861602
0.904058
0.948228
0.994113
1.04171
1.09101
1.14199
1.19465
1.24895
1.30486
1.36236
1.4214
1.48193
1.54391
1.60729
1.67202
1.73804
1.8053
1.87375
1.94331
2.01394