/*--------------------------------*- C++ -*----------------------------------*\
  =========                 |
  \\      /  F ield         | OpenFOAM: The Open Source CFD Toolbox
   \\    /   O peration     | Website:  https://openfoam.org
    \\  /    A nd           | Version:  9
     \\/     M anipulation  |
\*---------------------------------------------------------------------------*/
FoamFile
{
    format      ascii;
    class       volScalarField;
    location    "0.17";
    object      p;
}
// * * * * * * * * * * * * * * * * * * * * * * * * * * * * * * * * * * * * * //

dimensions      [0 2 -2 0 0 0 0];

internalField   nonuniform List<scalar> 
12225
(
-1.19882
-3.48181
-4.64426
-4.95242
-5.12067
-5.28036
-5.4049
-5.49327
-5.5628
-5.62373
-5.67782
-5.72489
-5.76523
-5.79812
-5.82238
-5.82754
-5.82327
-5.71272
-4.66632
-5.36842
-5.45864
-5.32357
-5.28348
-5.35074
-5.43147
-5.49728
-5.55424
-5.60756
-5.65703
-5.70147
-5.74058
-5.77343
-5.79958
-5.81188
-5.82329
-5.80614
-4.87107
-4.76811
-4.92487
-5.04699
-5.15435
-5.27664
-5.38492
-5.46756
-5.53473
-5.59452
-5.64861
-5.69674
-5.73906
-5.77528
-5.80579
-5.82744
-5.85465
-5.88617
-4.73378
-4.65564
-4.9317
-5.11042
-5.20487
-5.30199
-5.3971
-5.47464
-5.53922
-5.5974
-5.65065
-5.6986
-5.74138
-5.77911
-5.81283
-5.84256
-5.88017
-5.93201
-4.74076
-4.758
-4.99808
-5.14797
-5.224
-5.30871
-5.39832
-5.47439
-5.53836
-5.59608
-5.64923
-5.6976
-5.74145
-5.78132
-5.81871
-5.85533
-5.89992
-5.95938
-4.80245
-4.8449
-5.02268
-5.15341
-5.2314
-5.31394
-5.40026
-5.47512
-5.53875
-5.59625
-5.64944
-5.69835
-5.74334
-5.7853
-5.82591
-5.86751
-5.91631
-5.97782
-4.8622
-4.90171
-5.0381
-5.16031
-5.2427
-5.32244
-5.40413
-5.47702
-5.54011
-5.59734
-5.65052
-5.6999
-5.74598
-5.78976
-5.83297
-5.87792
-5.9289
-5.98951
-4.91536
-4.95025
-5.06054
-5.17317
-5.25573
-5.33165
-5.40862
-5.47934
-5.54178
-5.59868
-5.65182
-5.70163
-5.74867
-5.79397
-5.83912
-5.88609
-5.93772
-5.99594
-4.96516
-4.99689
-5.08767
-5.18847
-5.26855
-5.34104
-5.41382
-5.48222
-5.54379
-5.60026
-5.65327
-5.70339
-5.75118
-5.79761
-5.84402
-5.89194
-5.94313
-5.99842
-5.01253
-5.04115
-5.11632
-5.20523
-5.28162
-5.35103
-5.41999
-5.48585
-5.54627
-5.60217
-5.65492
-5.70516
-5.75342
-5.80054
-5.84757
-5.89561
-5.94569
-5.99795
-5.05733
-5.0826
-5.14539
-5.22346
-5.29536
-5.36166
-5.42704
-5.49024
-5.54926
-5.60442
-5.65676
-5.7069
-5.75534
-5.80271
-5.84982
-5.89739
-5.94596
-5.99533
-5.09586
-5.11819
-5.17202
-5.24129
-5.30856
-5.37186
-5.43416
-5.49491
-5.55248
-5.6068
-5.6586
-5.70845
-5.75676
-5.80402
-5.8508
-5.89757
-5.9446
-5.99153
-5.13158
-5.15137
-5.19789
-5.25942
-5.322
-5.38224
-5.44166
-5.50001
-5.55602
-5.60937
-5.66052
-5.70991
-5.75786
-5.80475
-5.85095
-5.89672
-5.94216
-5.98689
-5.16914
-5.18644
-5.22622
-5.28021
-5.33757
-5.39427
-5.45057
-5.50627
-5.56041
-5.61252
-5.66275
-5.7114
-5.75872
-5.8049
-5.85017
-5.89463
-5.93827
-5.98075
-5.2073
-5.2222
-5.25604
-5.30306
-5.35497
-5.40776
-5.46076
-5.51364
-5.56563
-5.61617
-5.66518
-5.71279
-5.75911
-5.80424
-5.84824
-5.89112
-5.93282
-5.97306
-5.24412
-5.25687
-5.28573
-5.32666
-5.37332
-5.42207
-5.47172
-5.52172
-5.57136
-5.62005
-5.66755
-5.71379
-5.75879
-5.80253
-5.84498
-5.8861
-5.92581
-5.96391
-5.27673
-5.28773
-5.31272
-5.34874
-5.39085
-5.43585
-5.48235
-5.52959
-5.57687
-5.62358
-5.66935
-5.714
-5.75742
-5.79954
-5.84028
-5.87956
-5.91732
-5.95343
-5.30077
-5.31057
-5.33296
-5.36565
-5.40451
-5.44666
-5.49066
-5.53565
-5.58089
-5.62576
-5.66984
-5.71286
-5.75467
-5.79513
-5.83416
-5.87167
-5.90763
-5.94196
-5.30927
-5.31863
-5.34011
-5.37166
-5.40936
-5.45039
-5.49324
-5.53706
-5.58113
-5.62481
-5.66766
-5.70939
-5.74984
-5.7889
-5.82646
-5.86249
-5.89696
-5.92984
-5.29439
-5.30445
-5.32745
-5.36111
-5.40093
-5.44356
-5.48747
-5.53198
-5.57646
-5.62028
-5.66299
-5.70438
-5.74431
-5.78271
-5.81953
-5.85474
-5.88834
-5.92036
-5.26825
-5.27944
-5.30525
-5.34299
-5.38678
-5.43239
-5.47848
-5.52474
-5.57054
-5.61519
-5.65834
-5.6999
-5.73982
-5.77805
-5.81458
-5.84942
-5.8826
-5.91419
-5.23334
-5.24573
-5.27578
-5.32028
-5.36981
-5.41898
-5.46777
-5.51652
-5.5643
-5.61022
-5.65411
-5.69609
-5.73622
-5.77449
-5.81091
-5.84556
-5.8785
-5.90982
-5.19276
-5.20536
-5.24075
-5.29536
-5.35252
-5.40557
-5.45719
-5.50864
-5.55848
-5.60573
-5.6505
-5.69307
-5.73355
-5.77195
-5.80838
-5.84295
-5.87576
-5.90693
-5.14894
-5.16051
-5.20291
-5.26955
-5.33428
-5.39196
-5.44792
-5.50266
-5.55423
-5.60238
-5.6478
-5.69087
-5.73163
-5.77013
-5.80654
-5.84103
-5.87373
-5.90476
-5.10209
-5.10986
-5.17092
-5.25073
-5.3159
-5.3756
-5.43754
-5.49717
-5.55099
-5.60011
-5.64622
-5.68977
-5.73075
-5.76928
-5.80563
-5.84002
-5.87261
-5.90357
-5.05415
-5.03051
-5.14132
-5.25028
-5.31088
-5.365
-5.42847
-5.49087
-5.5462
-5.59627
-5.64319
-5.68734
-5.72865
-5.76733
-5.80373
-5.83811
-5.87067
-5.90157
-5.04485
-4.90052
-5.05957
-5.22578
-5.3103
-5.37134
-5.43616
-5.49735
-5.55113
-5.60031
-5.64675
-5.69046
-5.73131
-5.76955
-5.80553
-5.83951
-5.87177
-5.90246
-5.19026
-4.90646
-4.9412
-5.07167
-5.19126
-5.29828
-5.39235
-5.46813
-5.53039
-5.58565
-5.63641
-5.68302
-5.72582
-5.76543
-5.80237
-5.83703
-5.86992
-5.90166
-5.12706
-5.62675
-5.63687
-5.47762
-5.39665
-5.42087
-5.47502
-5.52443
-5.56955
-5.61411
-5.65776
-5.6992
-5.73807
-5.77456
-5.80888
-5.84112
-5.87155
-5.90201
-1.78838
-3.65894
-4.73022
-5.02327
-5.15811
-5.29487
-5.40679
-5.48679
-5.54975
-5.60577
-5.65707
-5.70374
-5.74634
-5.78562
-5.82198
-5.85544
-5.88566
-5.91087
-6.80291
-6.8029
-6.8033
-6.80407
-6.80511
-6.80641
-6.80798
-6.80983
-6.81197
-6.81442
-6.81721
-6.82036
-6.82392
-6.82792
-6.8324
-6.8374
-6.84294
-6.84908
-6.85583
-6.86324
-6.87135
-6.88019
-6.8898
-6.90024
-6.91154
-6.92375
-6.93693
-6.95111
-6.96628
-6.98237
-6.99964
-7.01913
-7.04175
-7.06568
-7.08924
-7.10213
-7.10988
-7.1383
-7.1779
-7.20099
-7.22983
-7.25627
-7.27031
-7.29484
-7.32159
-7.34917
-7.37778
-7.40711
-7.43703
-7.4674
-7.49812
-7.52907
-7.56015
-7.59127
-7.62231
-7.65319
-7.68379
-7.71401
-7.74374
-7.77284
-7.8012
-7.8287
-7.85518
-7.88052
-7.90456
-7.92715
-7.94813
-7.96734
-7.98462
-7.99979
-8.01267
-8.02308
-8.03085
-8.03578
-8.03769
-8.0364
-8.03171
-8.02344
-8.01139
-7.99538
-7.97523
-7.95075
-7.92175
-7.88807
-7.84952
-7.80594
-7.75716
-7.70303
-7.64338
-7.57806
-7.50695
-7.42989
-7.34677
-7.25747
-7.16189
-7.05994
-6.95159
-6.83688
-6.71572
-6.58791
-6.45311
-6.31128
-6.16256
-6.00697
-5.84454
-5.6753
-5.49927
-5.31651
-5.12706
-4.931
-4.72843
-4.51945
-4.30419
-4.08278
-3.85538
-3.62215
-3.38329
-3.13898
-2.88945
-2.63491
-2.37561
-2.11179
-1.84371
-1.57165
-1.29589
-1.01671
-0.734412
-0.449299
-0.161679
0.128134
0.419823
0.713068
1.00755
1.30294
1.59893
1.89519
2.19141
2.48728
2.78249
3.07674
3.36974
3.6612
3.95084
4.2384
4.52363
4.80626
5.08608
5.36285
5.63636
5.90642
6.17285
6.43545
6.69409
6.9486
7.19885
7.44472
7.68609
7.92287
8.15497
8.3823
8.60481
8.82244
9.03515
9.24292
9.44572
9.64348
9.836
10.0232
10.2051
10.3818
10.5532
10.7193
10.8801
11.0358
11.1864
11.3322
11.4741
11.6136
11.7599
11.9138
-6.80127
-6.80164
-6.80216
-6.80279
-6.80338
-6.80398
-6.80476
-6.80581
-6.80723
-6.80902
-6.81121
-6.81382
-6.81687
-6.82038
-6.82438
-6.82889
-6.83394
-6.83956
-6.84579
-6.85265
-6.86018
-6.8684
-6.87735
-6.88704
-6.89751
-6.90874
-6.92071
-6.93336
-6.9467
-6.96092
-6.97631
-6.9924
-7.00756
-7.02215
-7.03572
-7.05815
-7.09202
-7.11509
-7.12542
-7.14955
-7.17146
-7.19498
-7.23435
-7.2675
-7.29702
-7.32645
-7.35603
-7.38588
-7.41603
-7.44647
-7.47715
-7.508
-7.53896
-7.56994
-7.60085
-7.6316
-7.66209
-7.69221
-7.72186
-7.75091
-7.77925
-7.80674
-7.83326
-7.85866
-7.8828
-7.90553
-7.92668
-7.9461
-7.96363
-7.97908
-7.99229
-8.00307
-8.01125
-8.01664
-8.01905
-8.0183
-8.0142
-8.00655
-7.99518
-7.97989
-7.9605
-7.93682
-7.90869
-7.8759
-7.83831
-7.79573
-7.748
-7.69497
-7.63647
-7.57237
-7.50252
-7.42679
-7.34505
-7.2572
-7.1631
-7.06267
-6.95578
-6.8423
-6.72208
-6.59492
-6.46106
-6.32061
-6.17342
-6.01944
-5.85866
-5.69107
-5.51671
-5.33562
-5.14785
-4.95347
-4.75258
-4.54526
-4.33166
-4.11189
-3.88611
-3.65448
-3.41719
-3.17444
-2.92642
-2.67336
-2.4155
-2.15308
-1.88636
-1.61562
-1.34112
-1.06315
-0.782009
-0.497998
-0.211422
0.077406
0.368171
0.660554
0.954236
1.2489
1.54421
1.83987
2.13556
2.43095
2.72576
3.01967
3.31239
3.60363
3.89312
4.18059
4.46578
4.74844
5.02834
5.30525
5.57895
5.84925
6.11595
6.37888
6.63788
6.89279
7.14348
7.38982
7.63169
7.869
8.10165
8.32955
8.55266
8.7709
8.98425
9.19266
9.39612
9.59451
9.78768
9.97557
10.1582
10.3355
10.5076
10.6745
10.8362
10.9927
11.1443
11.2914
11.4352
11.5768
11.7265
11.8742
-6.79719
-6.79848
-6.79984
-6.80098
-6.80177
-6.80239
-6.80306
-6.80395
-6.80515
-6.80672
-6.80869
-6.81108
-6.81393
-6.81726
-6.82108
-6.82543
-6.83033
-6.83582
-6.84191
-6.84863
-6.85603
-6.86412
-6.87292
-6.88247
-6.89279
-6.90389
-6.91577
-6.92843
-6.94187
-6.95619
-6.97158
-6.98795
-7.00466
-7.02147
-7.03948
-7.06049
-7.08465
-7.1081
-7.1294
-7.15223
-7.17548
-7.19919
-7.22707
-7.25542
-7.28372
-7.31244
-7.34153
-7.37096
-7.40068
-7.43067
-7.46088
-7.49126
-7.52173
-7.55223
-7.58266
-7.61295
-7.643
-7.6727
-7.70195
-7.73064
-7.75864
-7.78584
-7.8121
-7.83728
-7.86124
-7.88382
-7.90488
-7.92426
-7.94178
-7.95729
-7.9706
-7.98153
-7.98992
-7.99557
-7.99831
-7.99793
-7.99426
-7.98712
-7.9763
-7.96163
-7.94291
-7.91998
-7.89264
-7.86072
-7.82405
-7.78245
-7.73577
-7.68384
-7.6265
-7.56362
-7.49505
-7.42065
-7.34029
-7.25386
-7.16124
-7.06232
-6.95698
-6.84505
-6.72654
-6.6013
-6.46934
-6.33071
-6.18536
-6.03324
-5.87434
-5.70867
-5.53625
-5.3571
-5.17128
-4.97886
-4.77993
-4.57457
-4.36291
-4.14508
-3.92123
-3.69151
-3.4561
-3.2152
-2.969
-2.71774
-2.46163
-2.20092
-1.93586
-1.66672
-1.39378
-1.11732
-0.837627
-0.555
-0.269744
0.0178304
0.307411
0.59868
0.89132
1.18501
1.47944
1.77428
2.06922
2.36396
2.65817
2.95157
3.24386
3.53475
3.82396
4.11122
4.39628
4.67887
4.95878
5.23575
5.50959
5.78008
6.04704
6.31028
6.56964
6.82497
7.07611
7.32295
7.56536
7.80325
8.0365
8.26504
8.4888
8.70771
8.92171
9.13077
9.33483
9.53385
9.72774
9.91645
10.0999
10.2782
10.4511
10.6189
10.7816
10.9392
11.092
11.2406
11.3863
11.5296
11.6818
11.8191
-6.79122
-6.79341
-6.79599
-6.79812
-6.79958
-6.80066
-6.80164
-6.8027
-6.80399
-6.80558
-6.80754
-6.8099
-6.81271
-6.81599
-6.81976
-6.82406
-6.82891
-6.83433
-6.84036
-6.84702
-6.85433
-6.86232
-6.87102
-6.88045
-6.89063
-6.90157
-6.91328
-6.92579
-6.93911
-6.95329
-6.96839
-6.9844
-7.00122
-7.0188
-7.03748
-7.05765
-7.07922
-7.10151
-7.12418
-7.14753
-7.17172
-7.19672
-7.22289
-7.24987
-7.27741
-7.30549
-7.33402
-7.36294
-7.3922
-7.42174
-7.45153
-7.48149
-7.51156
-7.54166
-7.57173
-7.60166
-7.63138
-7.66078
-7.68976
-7.7182
-7.74599
-7.773
-7.7991
-7.82417
-7.84804
-7.87058
-7.89164
-7.91104
-7.92864
-7.94425
-7.95771
-7.96884
-7.97746
-7.98339
-7.98644
-7.98642
-7.98316
-7.97646
-7.96613
-7.952
-7.93387
-7.91156
-7.88489
-7.85368
-7.81776
-7.77697
-7.73113
-7.68009
-7.62368
-7.56177
-7.4942
-7.42084
-7.34156
-7.25623
-7.16473
-7.06695
-6.96277
-6.85212
-6.73483
-6.61094
-6.48042
-6.34322
-6.1993
-6.04864
-5.89122
-5.72704
-5.55611
-5.37848
-5.19417
-5.00328
-4.80586
-4.60202
-4.39187
-4.17554
-3.95318
-3.72494
-3.49099
-3.25153
-3.00675
-2.75687
-2.50213
-2.24274
-1.97898
-1.71111
-1.43939
-1.1641
-0.885536
-0.603994
-0.319775
-0.0331861
0.255461
0.54585
0.837666
1.13059
1.4243
1.71849
2.01284
2.30704
2.60079
2.89377
3.1857
3.47629
3.76527
4.05235
4.33728
4.61981
4.8997
5.17671
5.45064
5.72127
5.98841
6.25189
6.51152
6.76716
7.01866
7.26588
7.50871
7.74704
7.98075
8.20978
8.43406
8.6535
8.86806
9.07767
9.28225
9.48174
9.67613
9.86539
10.0495
10.2283
10.4019
10.5704
10.7337
10.8921
11.0458
11.1952
11.3418
11.4852
11.6363
11.7613
-6.78486
-6.78803
-6.79189
-6.79513
-6.79743
-6.79915
-6.80062
-6.80207
-6.80365
-6.80547
-6.8076
-6.81011
-6.81304
-6.81642
-6.82029
-6.82468
-6.82961
-6.83511
-6.84121
-6.84793
-6.85531
-6.86337
-6.87212
-6.88161
-6.89184
-6.90284
-6.91463
-6.92722
-6.94064
-6.95492
-6.9701
-6.98617
-7.00312
-7.021
-7.03988
-7.05984
-7.08082
-7.10263
-7.12514
-7.14841
-7.17251
-7.19748
-7.22331
-7.24983
-7.27693
-7.30455
-7.33264
-7.36114
-7.39001
-7.4192
-7.44863
-7.47827
-7.50803
-7.53785
-7.56764
-7.59733
-7.62682
-7.65602
-7.68481
-7.7131
-7.74076
-7.76766
-7.79369
-7.8187
-7.84256
-7.8651
-7.88619
-7.90565
-7.92334
-7.93906
-7.95267
-7.96397
-7.97279
-7.97895
-7.98226
-7.98254
-7.97959
-7.97324
-7.96329
-7.94956
-7.93186
-7.91001
-7.88383
-7.85315
-7.81778
-7.77756
-7.73233
-7.68192
-7.62618
-7.56495
-7.4981
-7.42548
-7.34696
-7.26242
-7.17173
-7.07478
-6.97147
-6.8617
-6.74539
-6.6225
-6.49297
-6.35678
-6.21387
-6.06422
-5.90781
-5.74465
-5.57476
-5.39815
-5.21488
-5.02502
-4.82863
-4.62583
-4.41671
-4.2014
-3.98005
-3.75281
-3.51985
-3.28136
-3.03755
-2.78861
-2.53478
-2.27631
-2.01342
-1.7464
-1.47551
-1.20102
-0.923232
-0.64243
-0.358919
-0.0730051
0.215002
0.504786
0.796034
1.08843
1.38165
1.67539
1.96932
2.26315
2.55656
2.84925
3.14093
3.43131
3.72011
4.00705
4.29189
4.57436
4.85423
5.13126
5.40524
5.67596
5.94323
6.20685
6.46667
6.72252
6.97426
7.22174
7.46485
7.70349
7.93754
8.16693
8.39157
8.6114
8.82633
9.0363
9.24122
9.44103
9.63572
9.8253
10.0097
10.1889
10.3629
10.5318
10.6955
10.8543
11.0084
11.1582
11.3048
11.447
11.5952
11.7084
-6.77947
-6.78345
-6.78844
-6.79271
-6.79586
-6.79828
-6.80034
-6.80229
-6.80428
-6.80645
-6.80889
-6.81167
-6.81485
-6.81847
-6.82256
-6.82716
-6.83229
-6.83799
-6.84428
-6.8512
-6.85877
-6.86701
-6.87596
-6.88563
-6.89606
-6.90726
-6.91925
-6.93206
-6.9457
-6.96019
-6.97556
-6.99181
-7.00894
-7.02697
-7.04594
-7.06584
-7.08662
-7.10824
-7.13061
-7.15374
-7.17763
-7.20229
-7.22771
-7.2538
-7.28049
-7.30773
-7.33545
-7.36362
-7.39218
-7.42107
-7.45025
-7.47964
-7.50918
-7.53879
-7.56841
-7.59793
-7.62728
-7.65636
-7.68506
-7.71327
-7.74087
-7.76775
-7.79376
-7.81878
-7.84267
-7.86526
-7.88642
-7.90598
-7.92377
-7.93963
-7.95338
-7.96485
-7.97386
-7.98022
-7.98375
-7.98426
-7.98157
-7.97549
-7.96583
-7.95241
-7.93503
-7.91353
-7.88771
-7.8574
-7.82242
-7.78262
-7.73781
-7.68785
-7.63257
-7.57183
-7.50547
-7.43337
-7.35539
-7.27141
-7.18129
-7.08494
-6.98224
-6.87312
-6.75749
-6.63528
-6.50644
-6.37093
-6.2287
-6.07973
-5.924
-5.76153
-5.59231
-5.41639
-5.23381
-5.04462
-4.84892
-4.64679
-4.43835
-4.22372
-4.00304
-3.77646
-3.54416
-3.30632
-3.06314
-2.81483
-2.56162
-2.30375
-2.04146
-1.77501
-1.50467
-1.23073
-0.953464
-0.673167
-0.390141
-0.10469
0.182874
0.47224
0.76309
1.05511
1.34798
1.6414
1.93504
2.22859
2.52175
2.81423
3.10571
3.39592
3.68458
3.97142
4.25617
4.53858
4.81842
5.09544
5.36944
5.6402
5.90753
6.17124
6.43116
6.68714
6.93902
7.18668
7.42999
7.66883
7.90311
8.13273
8.35761
8.57767
8.79284
9.00304
9.20818
9.4082
9.60311
9.79289
9.97751
10.157
10.3312
10.5003
10.6643
10.8233
10.9775
11.1272
11.2732
11.4137
11.5588
11.6615
-6.77588
-6.78047
-6.78634
-6.79147
-6.79537
-6.79845
-6.8011
-6.80356
-6.80601
-6.80859
-6.8114
-6.81453
-6.81802
-6.82194
-6.82633
-6.83121
-6.83662
-6.84259
-6.84915
-6.85633
-6.86415
-6.87265
-6.88185
-6.89177
-6.90244
-6.91388
-6.9261
-6.93913
-6.95299
-6.96767
-6.98321
-6.9996
-7.01684
-7.03495
-7.05393
-7.07377
-7.09445
-7.11592
-7.13817
-7.16116
-7.18489
-7.20934
-7.23449
-7.26029
-7.28669
-7.31366
-7.34113
-7.36906
-7.3974
-7.4261
-7.4551
-7.48434
-7.51375
-7.54325
-7.57277
-7.60223
-7.63153
-7.66057
-7.68925
-7.71746
-7.74509
-7.772
-7.79806
-7.82315
-7.84712
-7.86981
-7.89107
-7.91075
-7.92867
-7.94467
-7.95858
-7.97021
-7.97938
-7.98592
-7.98964
-7.99035
-7.98786
-7.98199
-7.97255
-7.95935
-7.9422
-7.92094
-7.89536
-7.86531
-7.8306
-7.79107
-7.74654
-7.69687
-7.6419
-7.58147
-7.51544
-7.44368
-7.36605
-7.28243
-7.19269
-7.09673
-6.99445
-6.88575
-6.77056
-6.64879
-6.52038
-6.3853
-6.24349
-6.09495
-5.93965
-5.77759
-5.6088
-5.4333
-5.25114
-5.06238
-4.8671
-4.6654
-4.45738
-4.24317
-4.02291
-3.79675
-3.56486
-3.32744
-3.08467
-2.83677
-2.58396
-2.32647
-2.06457
-1.79851
-1.52855
-1.25497
-0.978058
-0.698107
-0.415416
-0.13029
0.156963
0.446028
0.736591
1.02834
1.32095
1.61412
1.90754
2.20088
2.49384
2.78613
3.07745
3.36752
3.65605
3.94278
4.22743
4.50977
4.78955
5.06653
5.34051
5.61126
5.8786
6.14234
6.40231
6.65835
6.91031
7.15806
7.40148
7.64044
7.87485
8.10461
8.32963
8.54984
8.76516
8.9755
9.18079
9.38096
9.57602
9.76594
9.95072
10.1303
10.3047
10.474
10.6381
10.7971
10.9513
11.1006
11.2457
11.3842
11.5264
11.62
-6.77456
-6.77956
-6.78603
-6.79179
-6.7963
-6.79994
-6.80311
-6.80604
-6.80894
-6.81192
-6.81511
-6.81859
-6.82243
-6.82668
-6.83137
-6.83656
-6.84227
-6.84853
-6.85538
-6.86284
-6.87094
-6.87971
-6.88916
-6.89934
-6.91025
-6.92191
-6.93435
-6.94758
-6.96161
-6.97645
-6.99212
-7.00861
-7.02593
-7.04408
-7.06306
-7.08285
-7.10345
-7.12483
-7.14697
-7.16984
-7.19344
-7.21775
-7.24273
-7.26836
-7.29459
-7.32139
-7.34871
-7.37651
-7.40473
-7.43334
-7.46226
-7.49143
-7.5208
-7.55028
-7.5798
-7.60927
-7.63859
-7.66768
-7.69642
-7.7247
-7.75241
-7.77942
-7.80559
-7.83079
-7.85488
-7.8777
-7.8991
-7.91892
-7.93698
-7.95313
-7.96718
-7.97896
-7.98829
-7.99498
-7.99885
-7.99971
-7.99737
-7.99164
-7.98234
-7.96929
-7.95229
-7.93117
-7.90574
-7.87583
-7.84127
-7.80189
-7.75752
-7.70801
-7.6532
-7.59295
-7.5271
-7.45552
-7.37809
-7.29467
-7.20515
-7.10942
-7.00737
-6.89891
-6.78395
-6.66241
-6.53424
-6.39938
-6.2578
-6.10948
-5.9544
-5.79256
-5.62398
-5.4487
-5.26676
-5.07823
-4.88317
-4.68169
-4.4739
-4.25992
-4.03989
-3.81397
-3.58233
-3.34514
-3.10261
-2.85495
-2.60239
-2.34515
-2.08349
-1.81767
-1.54795
-1.27461
-0.997936
-0.718221
-0.435761
-0.150862
0.136167
0.425014
0.715364
1.0069
1.29932
1.5923
1.88552
2.17869
2.47148
2.76361
3.05478
3.34471
3.63312
3.91972
4.20427
4.48651
4.7662
5.04311
5.31702
5.58773
5.85503
6.11875
6.37872
6.63476
6.88675
7.13453
7.37798
7.617
7.85147
8.0813
8.3064
8.52669
8.74208
8.95251
9.15788
9.35816
9.55332
9.74335
9.92822
10.1079
10.2824
10.4517
10.6158
10.7748
10.9287
11.0774
11.2215
11.3579
11.4974
11.5831
-6.77568
-6.78088
-6.78769
-6.79385
-6.79879
-6.80286
-6.80645
-6.80979
-6.81306
-6.81641
-6.81995
-6.82375
-6.8279
-6.83245
-6.83744
-6.84291
-6.84889
-6.85543
-6.86254
-6.87025
-6.8786
-6.88761
-6.89729
-6.90768
-6.91879
-6.93065
-6.94326
-6.95664
-6.97081
-6.98576
-7.00152
-7.01808
-7.03545
-7.05362
-7.0726
-7.09236
-7.11291
-7.13423
-7.1563
-7.1791
-7.20263
-7.22685
-7.25174
-7.27728
-7.30344
-7.33017
-7.35743
-7.38519
-7.41339
-7.44198
-7.47091
-7.50012
-7.52953
-7.55907
-7.58866
-7.61821
-7.64764
-7.67683
-7.7057
-7.73411
-7.76195
-7.7891
-7.81542
-7.84077
-7.86501
-7.88798
-7.90953
-7.92949
-7.9477
-7.96398
-7.97817
-7.99007
-7.99952
-8.00632
-8.01029
-8.01124
-8.00899
-8.00334
-7.99412
-7.98113
-7.96419
-7.94312
-7.91774
-7.88788
-7.85337
-7.81403
-7.7697
-7.72023
-7.66547
-7.60526
-7.53947
-7.46795
-7.39058
-7.30724
-7.21779
-7.12214
-7.02018
-6.9118
-6.79691
-6.67545
-6.54734
-6.41255
-6.27103
-6.12276
-5.96774
-5.80596
-5.63744
-5.46222
-5.28034
-5.09188
-4.8969
-4.6955
-4.4878
-4.27391
-4.05398
-3.82816
-3.59663
-3.35956
-3.11715
-2.86962
-2.61718
-2.36008
-2.09857
-1.83289
-1.56332
-1.29014
-1.01363
-0.734077
-0.451781
-0.167048
0.119812
0.40849
0.698671
0.990041
1.28229
1.5751
1.86816
2.16116
2.4538
2.74577
3.03679
3.32657
3.61483
3.9013
4.18572
4.46784
4.74742
5.02422
5.29804
5.56866
5.83589
6.09955
6.35945
6.61546
6.8674
7.11516
7.3586
7.59761
7.83209
8.06193
8.28705
8.50737
8.72279
8.93326
9.13868
9.33902
9.53423
9.72432
9.90924
10.089
10.2635
10.4328
10.5968
10.7556
10.9091
11.0572
11.2001
11.3344
11.4716
11.5503
-6.77918
-6.78439
-6.79128
-6.79762
-6.80281
-6.80717
-6.81106
-6.81471
-6.81828
-6.82191
-6.82573
-6.8298
-6.8342
-6.83899
-6.84422
-6.84991
-6.85612
-6.86286
-6.87018
-6.87809
-6.88663
-6.89582
-6.90567
-6.91622
-6.92747
-6.93946
-6.95219
-6.96568
-6.97993
-6.99497
-7.01078
-7.02739
-7.04478
-7.06297
-7.08194
-7.1017
-7.12223
-7.14352
-7.16557
-7.18835
-7.21185
-7.23606
-7.26094
-7.28647
-7.31263
-7.33937
-7.36666
-7.39446
-7.42272
-7.45139
-7.48041
-7.50972
-7.53924
-7.5689
-7.59863
-7.62833
-7.65791
-7.68727
-7.7163
-7.74488
-7.77289
-7.8002
-7.82669
-7.8522
-7.87659
-7.89971
-7.9214
-7.94149
-7.95981
-7.97621
-7.99049
-8.00247
-8.01199
-8.01884
-8.02285
-8.02383
-8.0216
-8.01596
-8.00673
-7.99372
-7.97675
-7.95565
-7.93023
-7.90032
-7.86574
-7.82635
-7.78196
-7.73243
-7.67761
-7.61734
-7.5515
-7.47993
-7.40252
-7.31913
-7.22966
-7.13397
-7.03196
-6.92352
-6.80858
-6.68705
-6.55888
-6.42402
-6.28244
-6.1341
-5.97901
-5.81717
-5.6486
-5.47332
-5.2914
-5.1029
-4.90789
-4.70647
-4.49875
-4.28486
-4.06494
-3.83914
-3.60763
-3.37059
-3.12823
-2.88075
-2.62839
-2.37136
-2.10993
-1.84435
-1.57488
-1.30181
-1.02542
-0.74599
-0.463827
-0.179233
0.107483
0.396011
0.686038
0.977251
1.26933
1.56197
1.85486
2.14769
2.44016
2.73197
3.02282
3.31242
3.60052
3.88683
4.17109
4.45306
4.73249
5.00915
5.28284
5.55333
5.82044
6.08398
6.34379
6.5997
6.85156
7.09925
7.34263
7.58158
7.81602
8.04583
8.27092
8.49122
8.70663
8.91709
9.12253
9.32289
9.51813
9.70824
9.89318
10.0729
10.2474
10.4166
10.5805
10.7391
10.8921
11.0394
11.181
11.3134
11.4483
11.5212
-6.7848
-6.78988
-6.79664
-6.80295
-6.80822
-6.81273
-6.81679
-6.82063
-6.82439
-6.82822
-6.83221
-6.83646
-6.84103
-6.84598
-6.85136
-6.8572
-6.86355
-6.87043
-6.87787
-6.8859
-6.89456
-6.90385
-6.9138
-6.92444
-6.93578
-6.94784
-6.96064
-6.97418
-6.98848
-7.00356
-7.0194
-7.03604
-7.05345
-7.07165
-7.09064
-7.1104
-7.13094
-7.15225
-7.17432
-7.19712
-7.22066
-7.2449
-7.26984
-7.29543
-7.32167
-7.3485
-7.37589
-7.4038
-7.43219
-7.46099
-7.49016
-7.51962
-7.54931
-7.57915
-7.60906
-7.63894
-7.66871
-7.69825
-7.72746
-7.75621
-7.7844
-7.81188
-7.83852
-7.86417
-7.88869
-7.91193
-7.93371
-7.95389
-7.97229
-7.98873
-8.00304
-8.01505
-8.02456
-8.03139
-8.03537
-8.0363
-8.03399
-8.02827
-8.01894
-8.00582
-7.98874
-7.96751
-7.94195
-7.9119
-7.87718
-7.83763
-7.7931
-7.74342
-7.68845
-7.62804
-7.56205
-7.49035
-7.4128
-7.32929
-7.23968
-7.14385
-7.04169
-6.93309
-6.81799
-6.69629
-6.56796
-6.43294
-6.29119
-6.1427
-5.98746
-5.82547
-5.65676
-5.48136
-5.29932
-5.11071
-4.9156
-4.7141
-4.50631
-4.29236
-4.07239
-3.84656
-3.61504
-3.378
-3.13565
-2.8882
-2.63586
-2.37889
-2.11752
-1.85201
-1.58263
-1.30966
-1.03338
-0.754073
-0.472047
-0.1876
0.0989617
0.387327
0.677185
0.968222
1.26012
1.55258
1.84527
2.1379
2.43017
2.72178
3.01242
3.30183
3.58972
3.87582
4.15989
4.44166
4.7209
4.99737
5.27088
5.54119
5.80814
6.07152
6.33118
6.58695
6.83868
7.08625
7.32952
7.56838
7.80272
8.03246
8.25749
8.47773
8.6931
8.90352
9.10894
9.30929
9.50453
9.69464
9.87957
10.0593
10.2337
10.4028
10.5665
10.7247
10.8772
11.0236
11.164
11.2945
11.4273
11.4953
-6.79222
-6.79703
-6.80349
-6.8096
-6.81479
-6.8193
-6.82341
-6.82731
-6.83115
-6.83505
-6.83912
-6.84344
-6.84808
-6.85308
-6.85851
-6.86441
-6.8708
-6.87772
-6.8852
-6.89327
-6.90195
-6.91127
-6.92126
-6.93192
-6.94328
-6.95536
-6.96818
-6.98174
-6.99605
-7.01114
-7.027
-7.04365
-7.06108
-7.07931
-7.09832
-7.11812
-7.1387
-7.16005
-7.18218
-7.20505
-7.22867
-7.25301
-7.27805
-7.30376
-7.33012
-7.35709
-7.38464
-7.41271
-7.44127
-7.47025
-7.4996
-7.52925
-7.55913
-7.58916
-7.61926
-7.64933
-7.67927
-7.70898
-7.73835
-7.76726
-7.79558
-7.82318
-7.84993
-7.87567
-7.90026
-7.92355
-7.94536
-7.96555
-7.98393
-8.00034
-8.0146
-8.02652
-8.03594
-8.04266
-8.0465
-8.04728
-8.04481
-8.0389
-8.02938
-8.01606
-7.99877
-7.97732
-7.95154
-7.92126
-7.88632
-7.84654
-7.80178
-7.75188
-7.69669
-7.63607
-7.56987
-7.49797
-7.42023
-7.33652
-7.24669
-7.15063
-7.04823
-6.93939
-6.82404
-6.70212
-6.57355
-6.4383
-6.29634
-6.14763
-5.99219
-5.83001
-5.66112
-5.48556
-5.30337
-5.11462
-4.91939
-4.71778
-4.5099
-4.29588
-4.07586
-3.84998
-3.61843
-3.38139
-3.13906
-2.89164
-2.63935
-2.38244
-2.12115
-1.85574
-1.58647
-1.31362
-1.03747
-0.758318
-0.476457
-0.192186
0.0941884
0.382357
0.672008
0.962829
1.25451
1.54673
1.83918
2.13157
2.42359
2.71494
3.00533
3.29448
3.58212
3.86797
4.15178
4.4333
4.71229
4.98852
5.26179
5.53188
5.79861
6.06178
6.32124
6.57682
6.82837
7.07577
7.31889
7.55761
7.79183
8.02144
8.24637
8.46652
8.68181
8.89217
9.09754
9.29786
9.49308
9.68316
9.86805
10.0477
10.2221
10.391
10.5545
10.7123
10.8642
11.0097
11.1488
11.2774
11.4084
11.4723
-6.80104
-6.80551
-6.81153
-6.81731
-6.82228
-6.82665
-6.83066
-6.83449
-6.83827
-6.84213
-6.84615
-6.85041
-6.855
-6.85995
-6.86533
-6.87116
-6.8775
-6.88437
-6.8918
-6.89982
-6.90845
-6.91773
-6.92768
-6.9383
-6.94964
-6.96169
-6.97448
-6.98803
-7.00233
-7.01742
-7.03328
-7.04994
-7.06739
-7.08565
-7.1047
-7.12455
-7.1452
-7.16663
-7.18885
-7.21183
-7.23556
-7.26003
-7.28521
-7.31107
-7.33759
-7.36473
-7.39244
-7.42069
-7.44943
-7.47859
-7.50812
-7.53794
-7.56799
-7.59818
-7.62843
-7.65864
-7.68871
-7.71853
-7.748
-7.77698
-7.80535
-7.83299
-7.85974
-7.88547
-7.91003
-7.93325
-7.95499
-7.97507
-7.99332
-8.00958
-8.02366
-8.03539
-8.0446
-8.05109
-8.05468
-8.0552
-8.05246
-8.04627
-8.03647
-8.02286
-8.00527
-7.98352
-7.95744
-7.92687
-7.89163
-7.85157
-7.80653
-7.75636
-7.70091
-7.64003
-7.57359
-7.50145
-7.42347
-7.33948
-7.24936
-7.15301
-7.05031
-6.94119
-6.82556
-6.70336
-6.57453
-6.43903
-6.29682
-6.1479
-5.99225
-5.82987
-5.66081
-5.48508
-5.30275
-5.11388
-4.91854
-4.71685
-4.5089
-4.29483
-4.07478
-3.8489
-3.61736
-3.38035
-3.13806
-2.89071
-2.63852
-2.38172
-2.12055
-1.85528
-1.58617
-1.31349
-1.03754
-0.758591
-0.476952
-0.192917
0.0932085
0.381116
0.670496
0.961034
1.25242
1.54434
1.83649
2.12857
2.42027
2.7113
3.00137
3.2902
3.57751
3.86304
4.14653
4.42773
4.70641
4.98235
5.25532
5.52512
5.79157
6.05448
6.31368
6.56902
6.82035
7.06753
7.31045
7.54898
7.78303
8.01249
8.23728
8.45731
8.6725
8.88278
9.08807
9.28834
9.48351
9.67354
9.85838
10.038
10.2122
10.381
10.5442
10.7015
10.8528
10.9974
11.1353
11.2622
11.3913
11.4519
-6.81092
-6.81499
-6.82049
-6.82583
-6.83046
-6.83455
-6.83832
-6.84193
-6.84551
-6.84916
-6.85299
-6.85708
-6.86148
-6.86626
-6.87146
-6.87714
-6.88332
-6.89004
-6.89733
-6.90522
-6.91374
-6.92292
-6.93276
-6.94331
-6.95456
-6.96655
-6.97929
-6.99279
-7.00707
-7.02214
-7.038
-7.05467
-7.07214
-7.09043
-7.10954
-7.12945
-7.15018
-7.1717
-7.19402
-7.21711
-7.24097
-7.26557
-7.29089
-7.3169
-7.34356
-7.37084
-7.3987
-7.42709
-7.45596
-7.48525
-7.51489
-7.54481
-7.57495
-7.60521
-7.6355
-7.66574
-7.69582
-7.72563
-7.75505
-7.78397
-7.81226
-7.83978
-7.86639
-7.89196
-7.91633
-7.93934
-7.96085
-7.98067
-7.99865
-8.01461
-8.02839
-8.0398
-8.04866
-8.0548
-8.05804
-8.05819
-8.05508
-8.04853
-8.03835
-8.02437
-8.00642
-7.98432
-7.9579
-7.92699
-7.89144
-7.85107
-7.80573
-7.75528
-7.69956
-7.63843
-7.57175
-7.49934
-7.42106
-7.33675
-7.24631
-7.14965
-7.04665
-6.93724
-6.82133
-6.69886
-6.56978
-6.43404
-6.29162
-6.1425
-5.98666
-5.82413
-5.65492
-5.47908
-5.29665
-5.1077
-4.91231
-4.71058
-4.50263
-4.28857
-4.06855
-3.84272
-3.61126
-3.37435
-3.13219
-2.88499
-2.63296
-2.37635
-2.11539
-1.85034
-1.58147
-1.30906
-1.03338
-0.754728
-0.473397
-0.189685
0.096104
0.383663
0.672682
0.96285
1.25386
1.54539
1.83715
2.12883
2.42013
2.71076
3.00042
3.28884
3.57575
3.86088
4.14398
4.42479
4.70309
4.97865
5.25126
5.52071
5.78682
6.0494
6.30829
6.56333
6.81438
7.0613
7.30397
7.54228
7.77612
8.00539
8.23001
8.44989
8.66495
8.87512
9.08033
9.28052
9.47563
9.6656
9.85037
10.0299
10.204
10.3725
10.5354
10.6924
10.843
10.9867
11.1233
11.2486
11.3759
11.434
-6.82158
-6.82525
-6.83019
-6.83499
-6.83916
-6.84282
-6.84618
-6.8494
-6.8526
-6.85589
-6.85937
-6.86312
-6.8672
-6.87168
-6.8766
-6.882
-6.88793
-6.89442
-6.9015
-6.9092
-6.91754
-6.92655
-6.93625
-6.94667
-6.95781
-6.9697
-6.98236
-6.9958
-7.01003
-7.02506
-7.04091
-7.05757
-7.07506
-7.09338
-7.11252
-7.13248
-7.15326
-7.17486
-7.19725
-7.22042
-7.24436
-7.26904
-7.29443
-7.32051
-7.34723
-7.37456
-7.40246
-7.43087
-7.45974
-7.48901
-7.51861
-7.54847
-7.57852
-7.60867
-7.63883
-7.66891
-7.6988
-7.7284
-7.75759
-7.78625
-7.81426
-7.84147
-7.86777
-7.89299
-7.917
-7.93963
-7.96074
-7.98016
-7.99772
-8.01325
-8.02659
-8.03756
-8.04598
-8.05167
-8.05446
-8.05417
-8.05063
-8.04365
-8.03306
-8.01868
-8.00034
-7.97787
-7.9511
-7.91986
-7.88399
-7.84334
-7.79773
-7.74703
-7.69108
-7.62973
-7.56277
-7.49006
-7.41145
-7.32683
-7.2361
-7.13914
-7.03588
-6.92621
-6.81006
-6.68738
-6.5581
-6.42219
-6.27961
-6.13036
-5.97442
-5.8118
-5.64254
-5.46666
-5.28422
-5.09528
-4.89993
-4.69827
-4.4904
-4.27645
-4.05657
-3.83091
-3.59964
-3.36294
-3.12101
-2.87406
-2.62231
-2.36599
-2.10535
-1.84065
-1.57214
-1.3001
-1.02481
-0.746564
-0.465654
-0.182378
0.102962
0.39006
0.678609
0.968297
1.25882
1.54986
1.84112
2.1323
2.4231
2.71322
3.00238
3.29031
3.57672
3.86136
4.14397
4.42432
4.70215
4.97726
5.24943
5.51846
5.78416
6.04635
6.30487
6.55956
6.81027
7.05688
7.29926
7.5373
7.7709
7.99995
8.22437
8.44408
8.65899
8.86903
9.07414
9.27424
9.46928
9.65919
9.84388
10.0233
10.1972
10.3656
10.5282
10.6847
10.8347
10.9774
11.1128
11.2366
11.3621
11.4183
-6.83329
-6.83657
-6.84095
-6.84512
-6.84866
-6.8517
-6.85443
-6.85702
-6.85962
-6.86233
-6.86525
-6.86848
-6.87208
-6.8761
-6.88061
-6.88563
-6.89121
-6.89738
-6.90416
-6.91159
-6.91969
-6.92847
-6.93797
-6.94821
-6.95919
-6.97094
-6.98347
-6.99679
-7.01092
-7.02587
-7.04164
-7.05824
-7.07568
-7.09395
-7.11304
-7.13297
-7.15371
-7.17526
-7.1976
-7.22071
-7.24458
-7.26917
-7.29447
-7.32042
-7.34701
-7.37418
-7.40189
-7.43009
-7.45872
-7.48772
-7.51704
-7.54658
-7.57629
-7.60607
-7.63585
-7.66551
-7.69497
-7.72411
-7.75283
-7.78101
-7.80851
-7.83521
-7.86098
-7.88566
-7.90913
-7.93122
-7.95177
-7.97064
-7.98764
-8.00263
-8.01542
-8.02586
-8.03375
-8.03893
-8.04122
-8.04045
-8.03645
-8.02903
-8.01802
-8.00324
-7.98454
-7.96174
-7.93466
-7.90314
-7.86703
-7.82616
-7.78037
-7.72951
-7.67337
-7.61177
-7.54453
-7.47153
-7.39265
-7.30778
-7.21682
-7.11965
-7.0162
-6.90637
-6.79009
-6.66729
-6.53792
-6.40194
-6.25933
-6.11006
-5.95414
-5.79157
-5.62237
-5.44659
-5.26427
-5.07549
-4.88032
-4.67886
-4.47122
-4.25753
-4.03794
-3.81259
-3.58165
-3.34531
-3.10377
-2.85723
-2.60591
-2.35004
-2.08988
-1.82566
-1.55766
-1.28615
-1.01141
-0.73372
-0.453383