/*--------------------------------*- C++ -*----------------------------------*\
  =========                 |
  \\      /  F ield         | OpenFOAM: The Open Source CFD Toolbox
   \\    /   O peration     | Website:  https://openfoam.org
    \\  /    A nd           | Version:  9
     \\/     M anipulation  |
\*---------------------------------------------------------------------------*/
FoamFile
{
    format      ascii;
    class       volVectorField;
    location    "0.17";
    object      U;
}
// * * * * * * * * * * * * * * * * * * * * * * * * * * * * * * * * * * * * * //

dimensions      [0 1 -1 0 0 0 0];

internalField   nonuniform List<vector> 
12225
(
(9.86107 -0.874317 0)
(9.67247 -0.700191 0)
(9.45895 -0.38759 0)
(9.22462 -0.188475 0)
(9.00343 -0.0843897 0)
(8.8103 -0.0328709 0)
(8.64499 -0.00754428 0)
(8.50395 0.00503296 0)
(8.38372 0.0113469 0)
(8.28077 0.0144857 0)
(8.19173 0.0159846 0)
(8.11371 0.0166592 0)
(8.04431 0.0169529 0)
(7.98172 0.0171595 0)
(7.92298 0.0174721 0)
(7.86909 0.0186214 0)
(7.79916 0.0216123 0)
(7.7727 0.0304421 0)
(10.0547 0.26307 0)
(10.1201 0.360742 0)
(10.118 0.273824 0)
(10.0826 0.187092 0)
(10.0405 0.131168 0)
(9.99388 0.0969354 0)
(9.94006 0.0755682 0)
(9.8803 0.061764 0)
(9.81771 0.0523622 0)
(9.75475 0.0455501 0)
(9.69287 0.0403851 0)
(9.63289 0.0364073 0)
(9.57517 0.0333619 0)
(9.52011 0.0312332 0)
(9.46691 0.029858 0)
(9.41805 0.0310261 0)
(9.36647 0.032195 0)
(9.34133 0.0529111 0)
(9.99919 0.0460875 0)
(10.0244 0.034212 0)
(10.0538 0.0149541 0)
(10.0708 0.0218174 0)
(10.0778 0.0366816 0)
(10.0782 0.0460206 0)
(10.0722 0.0499643 0)
(10.0602 0.0511595 0)
(10.0438 0.0510712 0)
(10.0244 0.0503614 0)
(10.0028 0.0494018 0)
(9.97975 0.0484396 0)
(9.95554 0.0476264 0)
(9.93068 0.0471997 0)
(9.9051 0.0472356 0)
(9.87986 0.0490905 0)
(9.85416 0.0519318 0)
(9.83418 0.0635504 0)
(9.9968 0.00642883 0)
(10.0085 0.0250213 0)
(10.0342 0.038943 0)
(10.0528 0.0503097 0)
(10.0644 0.0571179 0)
(10.073 0.0591774 0)
(10.0789 0.0588696 0)
(10.0815 0.0579547 0)
(10.0815 0.0569547 0)
(10.0793 0.0559456 0)
(10.0756 0.0549809 0)
(10.0705 0.0541486 0)
(10.0641 0.0535408 0)
(10.0569 0.053355 0)
(10.0488 0.0537293 0)
(10.0405 0.0555545 0)
(10.0325 0.0584964 0)
(10.027 0.0651049 0)
(9.99922 0.00673863 0)
(10.0081 0.0335776 0)
(10.0271 0.0460497 0)
(10.0418 0.0508543 0)
(10.0524 0.0539263 0)
(10.0622 0.0555189 0)
(10.0708 0.0558705 0)
(10.0774 0.0556926 0)
(10.0822 0.0553317 0)
(10.0856 0.0548798 0)
(10.0879 0.0544119 0)
(10.0892 0.0540341 0)
(10.0897 0.053858 0)
(10.0894 0.0540611 0)
(10.0887 0.0547982 0)
(10.0879 0.0565694 0)
(10.0877 0.059189 0)
(10.0893 0.0631603 0)
(10.0002 0.00907557 0)
(10.0078 0.0321294 0)
(10.0225 0.0419191 0)
(10.035 0.0456768 0)
(10.0448 0.0491405 0)
(10.0541 0.0516819 0)
(10.0629 0.0528269 0)
(10.0704 0.0531864 0)
(10.0766 0.0532361 0)
(10.0818 0.0531409 0)
(10.0862 0.0529934 0)
(10.0898 0.0529027 0)
(10.0929 0.0529815 0)
(10.0955 0.0533756 0)
(10.0978 0.0542119 0)
(10.1002 0.0557371 0)
(10.1031 0.0577935 0)
(10.1075 0.0602322 0)
(10.0003 0.00880238 0)
(10.0068 0.0275237 0)
(10.0189 0.0370924 0)
(10.0303 0.0417544 0)
(10.0395 0.0456799 0)
(10.0482 0.0485105 0)
(10.0566 0.0499279 0)
(10.064 0.0505301 0)
(10.0705 0.0508037 0)
(10.0762 0.0509216 0)
(10.0813 0.0509714 0)
(10.0859 0.0510542 0)
(10.0901 0.051273 0)
(10.0939 0.0517398 0)
(10.0976 0.0525397 0)
(10.1014 0.0537678 0)
(10.1057 0.0552633 0)
(10.1111 0.0567059 0)
(10.0004 0.00783979 0)
(10.0057 0.0237019 0)
(10.016 0.0333806 0)
(10.0264 0.0386035 0)
(10.0351 0.0425042 0)
(10.0433 0.0453045 0)
(10.0511 0.0468668 0)
(10.0584 0.0476568 0)
(10.0648 0.0480998 0)
(10.0707 0.0483702 0)
(10.0761 0.048556 0)
(10.081 0.04875 0)
(10.0857 0.0490419 0)
(10.0901 0.0495124 0)
(10.0944 0.0502076 0)
(10.0989 0.0511372 0)
(10.1038 0.0521399 0)
(10.1093 0.0529049 0)
(10.0004 0.00695425 0)
(10.0049 0.0207162 0)
(10.0136 0.0300488 0)
(10.023 0.0354203 0)
(10.0312 0.0392112 0)
(10.0389 0.0419791 0)
(10.0464 0.0436785 0)
(10.0533 0.0446352 0)
(10.0597 0.0452142 0)
(10.0655 0.0455976 0)
(10.0709 0.0458781 0)
(10.0761 0.0461393 0)
(10.0809 0.0464562 0)
(10.0856 0.0468838 0)
(10.0902 0.0474387 0)
(10.095 0.0480878 0)
(10.1001 0.0486835 0)
(10.1056 0.0489834 0)
(10.0004 0.00616797 0)
(10.0042 0.0181322 0)
(10.0116 0.0268138 0)
(10.0199 0.0321609 0)
(10.0277 0.035877 0)
(10.0349 0.0386152 0)
(10.042 0.0404089 0)
(10.0487 0.041492 0)
(10.0549 0.042175 0)
(10.0607 0.0426412 0)
(10.0661 0.0429854 0)
(10.0713 0.0432814 0)
(10.0762 0.0435898 0)
(10.081 0.0439467 0)
(10.0858 0.04435 0)
(10.0907 0.0447509 0)
(10.0957 0.0450258 0)
(10.101 0.0450068 0)
(10.0003 0.00543168 0)
(10.0036 0.0158111 0)
(10.0099 0.0237302 0)
(10.0173 0.0289351 0)
(10.0245 0.0325607 0)
(10.0314 0.0352334 0)
(10.0381 0.0370622 0)
(10.0445 0.0382278 0)
(10.0505 0.0389856 0)
(10.0562 0.0395094 0)
(10.0616 0.0398925 0)
(10.0667 0.0401993 0)
(10.0717 0.040478 0)
(10.0765 0.0407516 0)
(10.0813 0.0410091 0)
(10.0862 0.041202 0)
(10.0911 0.0412341 0)
(10.0961 0.0409998 0)
(10.0003 0.00477971 0)
(10.0031 0.0138674 0)
(10.0086 0.0210584 0)
(10.0152 0.0260312 0)
(10.0219 0.0295304 0)
(10.0284 0.0321093 0)
(10.0348 0.0339252 0)
(10.041 0.0351288 0)
(10.0468 0.0359289 0)
(10.0524 0.0364833 0)
(10.0577 0.0368817 0)
(10.0628 0.0371809 0)
(10.0678 0.0374198 0)
(10.0726 0.037614 0)
(10.0774 0.0377505 0)
(10.0821 0.0377881 0)
(10.0869 0.0376553 0)
(10.0917 0.0372912 0)
(10.0003 0.00417371 0)
(10.0028 0.0121017 0)
(10.0075 0.0185464 0)
(10.0134 0.0231967 0)
(10.0196 0.0265267 0)
(10.0258 0.0289881 0)
(10.0319 0.030757 0)
(10.0378 0.0319664 0)
(10.0435 0.0327854 0)
(10.0489 0.0333524 0)
(10.0541 0.0337509 0)
(10.0592 0.0340317 0)
(10.0641 0.0342264 0)
(10.0688 0.0343466 0)
(10.0735 0.0343806 0)
(10.0782 0.034297 0)
(10.0828 0.0340445 0)
(10.0874 0.0335953 0)
(10.0003 0.00354235 0)
(10.0024 0.0102649 0)
(10.0064 0.0158565 0)
(10.0117 0.0200531 0)
(10.0174 0.0231263 0)
(10.0231 0.0254115 0)
(10.0289 0.0270818 0)
(10.0345 0.0282548 0)
(10.04 0.0290625 0)
(10.0453 0.0296191 0)
(10.0504 0.0299989 0)
(10.0554 0.0302462 0)
(10.0602 0.030387 0)
(10.0649 0.0304305 0)
(10.0695 0.030369 0)
(10.074 0.0301823 0)
(10.0784 0.0298382 0)
(10.0827 0.0293335 0)
(10.0002 0.00288399 0)
(10.002 0.00835604 0)
(10.0055 0.0129988 0)
(10.0101 0.0166068 0)
(10.0153 0.0193138 0)
(10.0206 0.0213453 0)
(10.026 0.0228504 0)
(10.0313 0.0239298 0)
(10.0366 0.0246822 0)
(10.0417 0.0251957 0)
(10.0467 0.0255318 0)
(10.0515 0.0257283 0)
(10.0562 0.0258065 0)
(10.0608 0.0257749 0)
(10.0652 0.025631 0)
(10.0695 0.0253654 0)
(10.0737 0.0249614 0)
(10.0778 0.0244325 0)
(10.0002 0.0021989 0)
(10.0017 0.00637568 0)
(10.0047 0.00997791 0)
(10.0088 0.0128588 0)
(10.0134 0.0150713 0)
(10.0183 0.0167509 0)
(10.0233 0.0180081 0)
(10.0284 0.0189213 0)
(10.0334 0.0195603 0)
(10.0383 0.0199874 0)
(10.0431 0.0202494 0)
(10.0477 0.0203758 0)
(10.0523 0.020384 0)
(10.0567 0.0202827 0)
(10.061 0.0200738 0)
(10.0651 0.0197562 0)
(10.0691 0.0193239 0)
(10.073 0.0187992 0)
(10.0002 0.00148388 0)
(10.0015 0.00430703 0)
(10.0041 0.00677138 0)
(10.0077 0.00878483 0)
(10.0119 0.0103622 0)
(10.0164 0.0115731 0)
(10.021 0.0124845 0)
(10.0258 0.0131472 0)
(10.0306 0.0136044 0)
(10.0353 0.0138947 0)
(10.0399 0.0140481 0)
(10.0444 0.0140849 0)
(10.0488 0.0140177 0)
(10.053 0.0138543 0)
(10.0571 0.0135989 0)
(10.0611 0.0132548 0)
(10.0648 0.0128221 0)
(10.0685 0.0123254 0)
(10.0001 0.000721201 0)
(10.0013 0.00209392 0)
(10.0037 0.00329929 0)
(10.0069 0.00429631 0)
(10.0108 0.00508752 0)
(10.015 0.0056977 0)
(10.0194 0.00615192 0)
(10.024 0.00647031 0)
(10.0285 0.00667064 0)
(10.033 0.00676871 0)
(10.0375 0.00677702 0)
(10.0418 0.00670432 0)
(10.046 0.00655661 0)
(10.0501 0.00633824 0)
(10.054 0.00605271 0)
(10.0577 0.00570395 0)
(10.0614 0.00529355 0)
(10.0648 0.00484405 0)
(10.0001 -0.00013594 0)
(10.0013 -0.000396056 0)
(10.0035 -0.00062794 0)
(10.0067 -0.000818769 0)
(10.0104 -0.000965805 0)
(10.0145 -0.00108273 0)
(10.0188 -0.0011887 0)
(10.0232 -0.00129751 0)
(10.0277 -0.00141788 0)
(10.0321 -0.00155705 0)
(10.0364 -0.00172165 0)
(10.0406 -0.00191681 0)
(10.0446 -0.00214593 0)
(10.0485 -0.00241092 0)
(10.0523 -0.00271248 0)
(10.0559 -0.00304964 0)
(10.0594 -0.0034225 0)
(10.0627 -0.00381423 0)
(10.0001 -0.00096028 0)
(10.0014 -0.00279747 0)
(10.0038 -0.00442169 0)
(10.0071 -0.00575069 0)
(10.0111 -0.00677803 0)
(10.0153 -0.00756511 0)
(10.0197 -0.00817885 0)
(10.0242 -0.00866447 0)
(10.0287 -0.00905655 0)
(10.0331 -0.00938715 0)
(10.0374 -0.0096829 0)
(10.0416 -0.0099625 0)
(10.0456 -0.0102386 0)
(10.0495 -0.0105199 0)
(10.0532 -0.0108123 0)
(10.0567 -0.0111191 0)
(10.0601 -0.0114429 0)
(10.0633 -0.0117729 0)
(10.0002 -0.00167459 0)
(10.0015 -0.00490197 0)
(10.0042 -0.00774653 0)
(10.008 -0.0100048 0)
(10.0123 -0.0116921 0)
(10.0169 -0.012965 0)
(10.0215 -0.0139412 0)
(10.0262 -0.0146802 0)
(10.0308 -0.0152362 0)
(10.0353 -0.0156681 0)
(10.0396 -0.016023 0)
(10.0438 -0.0163312 0)
(10.0478 -0.0166125 0)
(10.0517 -0.0168808 0)
(10.0554 -0.017146 0)
(10.0589 -0.0174139 0)
(10.0622 -0.017689 0)
(10.0654 -0.0179637 0)
(10.0002 -0.00235693 0)
(10.0017 -0.00699186 0)
(10.0048 -0.0110845 0)
(10.0092 -0.0141768 0)
(10.0141 -0.0163626 0)
(10.019 -0.0179793 0)
(10.024 -0.0192072 0)
(10.0289 -0.0201107 0)
(10.0337 -0.0207618 0)
(10.0383 -0.0212433 0)
(10.0428 -0.0216165 0)
(10.047 -0.0219198 0)
(10.0511 -0.0221793 0)
(10.0549 -0.0224145 0)
(10.0586 -0.0226384 0)
(10.0621 -0.0228589 0)
(10.0654 -0.0230814 0)
(10.0686 -0.0233008 0)
(10.0002 -0.0029929 0)
(10.0018 -0.00910192 0)
(10.0056 -0.0144682 0)
(10.0108 -0.0183064 0)
(10.0164 -0.0209192 0)
(10.0217 -0.0228067 0)
(10.027 -0.0241635 0)
(10.0322 -0.0250953 0)
(10.0372 -0.0257399 0)
(10.042 -0.0262087 0)
(10.0465 -0.026562 0)
(10.0508 -0.0268347 0)
(10.0549 -0.0270556 0)
(10.0588 -0.0272476 0)
(10.0625 -0.0274254 0)
(10.066 -0.0275975 0)
(10.0693 -0.0277693 0)
(10.0724 -0.0279375 0)
(10.0001 -0.00356932 0)
(10.0019 -0.0115339 0)
(10.0065 -0.0179233 0)
(10.0127 -0.0220454 0)
(10.0189 -0.0250232 0)
(10.0248 -0.0273179 0)
(10.0305 -0.0288539 0)
(10.036 -0.0297607 0)
(10.0412 -0.0303151 0)
(10.0461 -0.0306953 0)
(10.0507 -0.0309673 0)
(10.0551 -0.0311632 0)
(10.0592 -0.0313125 0)
(10.0631 -0.0314387 0)
(10.0668 -0.0315555 0)
(10.0702 -0.0316699 0)
(10.0735 -0.0317854 0)
(10.0766 -0.031898 0)
(9.99997 -0.00368949 0)
(10.0018 -0.0151786 0)
(10.0076 -0.0226476 0)
(10.0148 -0.0259747 0)
(10.0214 -0.028534 0)
(10.0277 -0.0309922 0)
(10.034 -0.0327664 0)
(10.04 -0.0338012 0)
(10.0455 -0.0343977 0)
(10.0506 -0.034765 0)
(10.0553 -0.0349863 0)
(10.0597 -0.0351105 0)
(10.0638 -0.0351798 0)
(10.0677 -0.0352239 0)
(10.0712 -0.0352591 0)
(10.0745 -0.035294 0)
(10.0776 -0.035332 0)
(10.0805 -0.0353707 0)
(9.99898 -0.00130894 0)
(9.99999 -0.0179731 0)
(10.0085 -0.0290674 0)
(10.0174 -0.0326899 0)
(10.0244 -0.0341107 0)
(10.0312 -0.0353336 0)
(10.0382 -0.036277 0)
(10.0449 -0.0369157 0)
(10.0507 -0.0373625 0)
(10.0559 -0.0376576 0)
(10.0606 -0.0378156 0)
(10.0648 -0.0378726 0)
(10.0685 -0.0378698 0)
(10.0718 -0.0378367 0)
(10.0747 -0.0377916 0)
(10.0772 -0.0377458 0)
(10.0795 -0.0377026 0)
(10.0815 -0.0376616 0)
(9.99528 0.00386911 0)
(9.99334 -0.010311 0)
(10.007 -0.0271018 0)
(10.0212 -0.0389231 0)
(10.0311 -0.044859 0)
(10.0392 -0.046463 0)
(10.0466 -0.0459769 0)
(10.053 -0.0450173 0)
(10.0581 -0.0441394 0)
(10.0621 -0.0433641 0)
(10.0652 -0.0426483 0)
(10.0675 -0.0419889 0)
(10.0691 -0.0413924 0)
(10.07 -0.0408586 0)
(10.0704 -0.0403849 0)
(10.0704 -0.0399705 0)
(10.0701 -0.0396058 0)
(10.0694 -0.0392639 0)
(9.99144 -0.0172933 0)
(9.99189 0.00036611 0)
(10.01 0.0176666 0)
(10.0296 0.0115899 0)
(10.0441 -0.00510644 0)
(10.0541 -0.0188217 0)
(10.06 -0.0271673 0)
(10.0623 -0.0320437 0)
(10.0617 -0.0349245 0)
(10.0591 -0.0365293 0)
(10.0549 -0.0373056 0)
(10.0495 -0.0375785 0)
(10.0432 -0.0375609 0)
(10.0361 -0.0373825 0)
(10.0286 -0.0371269 0)
(10.0207 -0.0368552 0)
(10.0126 -0.0366231 0)
(10.0044 -0.0363993 0)
(10.0236 -0.206007 0)
(10.0684 -0.312338 0)
(10.0788 -0.255591 0)
(10.0704 -0.184175 0)
(10.0605 -0.134899 0)
(10.0499 -0.102724 0)
(10.0342 -0.0811629 0)
(10.0129 -0.0666161 0)
(9.9878 -0.0566239 0)
(9.96056 -0.0494678 0)
(9.93235 -0.0441102 0)
(9.90385 -0.0399615 0)
(9.87556 -0.0366634 0)
(9.84781 -0.0339833 0)
(9.82084 -0.0317731 0)
(9.79477 -0.0299694 0)
(9.76984 -0.0285418 0)
(9.74607 -0.0278069 0)
(9.94226 0.671595 0)
(9.87996 0.567455 0)
(9.77444 0.338467 0)
(9.63238 0.18332 0)
(9.48764 0.094907 0)
(9.35652 0.0470843 0)
(9.24096 0.0212998 0)
(9.13946 0.0070786 0)
(9.05052 -0.000980473 0)
(8.97253 -0.00562137 0)
(8.90376 -0.00831021 0)
(8.84269 -0.00987212 0)
(8.78806 -0.0107773 0)
(8.73888 -0.0112946 0)
(8.69433 -0.0115848 0)
(8.6537 -0.0117727 0)
(8.61616 -0.0119519 0)
(8.5813 -0.0124835 0)
(0.0051227 -0.0121803 -3.53788e-20)
(0.0158135 -0.0159835 3.48161e-20)
(0.0234712 -0.0115123 0)
(0.0268994 -0.00436669 0)
(0.0253293 0.00266916 0)
(0.0195744 0.00821913 -3.23267e-20)
(0.010612 0.0120253 0)
(-0.000709012 0.0144256 0)
(-0.0137178 0.0159178 0)
(-0.0279987 0.0168977 0)
(-0.0432927 0.0176135 2.91296e-20)
(-0.0594346 0.0182062 0)
(-0.0763311 0.0187467 0)
(-0.0939277 0.0192653 0)
(-0.11219 0.0197713 0)
(-0.131091 0.0202645 2.60074e-20)
(-0.150609 0.0207411 0)
(-0.170723 0.0211964 0)
(-0.19141 0.0216261 0)
(-0.212646 0.0220263 0)
(-0.234407 0.0223935 0)
(-0.256667 0.0227229 0)
(-0.279398 0.0230062 0)
(-0.302566 0.0232324 2.24759e-20)
(-0.326135 0.0234008 -2.2148e-20)
(-0.350065 0.0235593 2.18448e-20)
(-0.374358 0.0238685 2.15667e-20)
(-0.39913 0.0246097 0)
(-0.424594 0.0258791 0)
(-0.450747 0.0269328 -2.08708e-20)
(-0.477175 0.0265263 -2.06737e-20)
(-0.503574 0.0254368 0)
(-0.530389 0.028485 0)
(-0.558173 0.037588 -2.01772e-20)
(-0.587862 0.0410182 0)
(-0.618939 0.0361471 0)
(-0.649477 0.0303221 2.16298e-20)
(-0.680673 0.0339468 0)
(-0.713501 0.0474372 1.98615e-20)
(-0.749644 0.0496253 4.0812e-20)
(-0.788292 0.0589109 0)
(-0.825815 0.0594225 0)
(-0.864318 0.0330172 0)
(-0.898397 0.0266771 0)
(-0.933143 0.0310326 0)
(-0.970824 0.0320557 4.02935e-20)
(-1.00917 0.032792 3.98505e-20)
(-1.04824 0.0331656 3.94166e-20)
(-1.08773 0.033335 0)
(-1.1275 0.0333715 -3.85804e-20)
(-1.16746 0.0333195 0)
(-1.20753 0.0332055 3.77874e-20)
(-1.24766 0.0330457 3.74063e-20)
(-1.28781 0.0328501 0)
(-1.32793 0.032625 0)
(-1.36801 0.032374 0)
(-1.40801 0.0320994 3.59728e-20)
(-1.44789 0.0318024 0)
(-1.48764 0.0314836 0)
(-1.52721 0.0311431 0)
(-1.56659 0.0307809 0)
(-1.60573 0.0303967 0)
(-1.64461 0.0299903 0)
(-1.68319 0.0295612 0)
(-1.72144 0.0291092 0)
(-1.75932 0.0286342 -3.31167e-20)
(-1.7968 0.0281359 0)
(-1.83385 0.0276143 0)
(-1.87041 0.0270696 3.22219e-20)
(-1.90647 0.0265019 3.1925e-20)
(-1.94196 0.0259114 0)
(-1.97687 0.0252985 -3.13299e-20)
(-2.01115 0.0246637 3.10306e-20)
(-2.04475 0.0240076 0)
(-2.07765 0.0233308 -3.04258e-20)
(-2.1098 0.022634 0)
(-2.14116 0.021918 0)
(-2.1717 0.0211837 2.9495e-20)
(-2.20138 0.0204317 0)
(-2.23015 0.0196631 -2.88527e-20)
(-2.25799 0.0188786 0)
(-2.28486 0.018079 2.81884e-20)
(-2.31072 0.0172649 2.78469e-20)
(-2.33554 0.016437 2.74984e-20)
(-2.35928 0.0155956 5.42854e-20)
(-2.38191 0.0147408 -5.35583e-20)
(-2.40339 0.0138724 0)
(-2.42369 0.0129897 0)
(-2.44279 0.0120913 0)
(-2.46063 0.0111751 -5.04795e-20)
(-2.47719 0.010238 -4.96635e-20)
(-2.49242 0.00927586 4.88277e-20)
(-2.50629 0.0082839 0)
(-2.51874 0.00725635 -4.70946e-20)
(-2.52971 0.00618631 -4.61965e-20)
(-2.53915 0.00506809 -4.5277e-20)
(-2.54698 0.00390453 0)
(-2.5531 0.00271983 0)
(-2.5574 0.00156483 0)
(-2.55976 0.00050024 -4.13773e-20)
(-2.56052 -0.000424418 0)
(-2.55984 -0.00126367 0)
(-2.55769 -0.00207835 3.81803e-20)
(-2.55409 -0.00288229 0)
(-2.54902 -0.00368058 0)
(-2.54247 -0.00447412 3.47477e-20)
(-2.53443 -0.00526269 0)
(-2.5249 -0.00604565 0)
(-2.51387 -0.00682216 -3.10759e-20)
(-2.50132 -0.00759138 -2.9799e-20)
(-2.48725 -0.00835242 0)
(-2.47167 -0.00910443 2.71665e-20)
(-2.45457 -0.00984656 0)
(-2.43595 -0.010578 -2.44311e-20)
(-2.41583 -0.0112978 0)
(-2.39419 -0.0120054 -2.15958e-20)
(-2.37105 -0.0126998 -2.01419e-20)
(-2.34642 -0.0133803 0)
(-2.32032 -0.0140462 0)
(-2.29274 -0.0146968 0)
(-2.26372 -0.0153313 0)
(-2.23326 -0.0159491 0)
(-2.20139 -0.0165495 0)
(-2.16813 -0.0171321 0)
(-2.1335 -0.0176963 -7.72884e-21)
(-2.09752 -0.0182414 6.09196e-21)
(-2.06022 -0.0187671 0)
(-2.02163 -0.0192729 0)
(-1.98178 -0.0197582 0)
(-1.9407 -0.0202227 0)
(-1.89842 -0.020666 -4.6104e-21)
(-1.85498 -0.0210878 0)
(-1.81041 -0.0214879 1.14821e-20)
(-1.76475 -0.0218661 -1.49408e-20)
(-1.71804 -0.0222222 0)
(-1.67032 -0.022556 0)
(-1.62162 -0.0228675 0)
(-1.57199 -0.0231566 2.88644e-20)
(-1.52147 -0.0234233 3.23537e-20)
(-1.4701 -0.0236679 0)
(-1.41793 -0.0238903 3.93224e-20)
(-1.36499 -0.0240908 4.27962e-20)
(-1.31134 -0.0242696 -4.62592e-20)
(-1.25701 -0.0244271 0)
(-1.20205 -0.0245636 0)
(-1.14651 -0.0246795 -5.65555e-20)
(-1.09042 -0.0247754 0)
(-1.03382 -0.0248517 0)
(-0.976768 -0.0249092 0)
(-0.919294 -0.0249484 0)
(-0.86144 -0.0249701 7.32452e-20)
(-0.803244 -0.024975 7.64894e-20)
(-0.744744 -0.024964 0)
(-0.685975 -0.024938 8.28653e-20)
(-0.62697 -0.0248977 0)
(-0.567763 -0.0248442 0)
(-0.508383 -0.0247782 9.21151e-20)
(-0.448861 -0.0247005 0)
(-0.389222 -0.0246117 9.80495e-20)
(-0.329495 -0.0245116 0)
(-0.269706 -0.0243999 0)
(-0.209885 -0.0242724 1.06568e-19)
(-0.150062 -0.024122 0)
(-0.0902653 -0.0239458 1.11975e-19)
(-0.0305151 -0.0237345 0)
(0.0290882 -0.023412 0)
(0.0885198 -0.0230131 0)
(0.147831 -0.0226319 -1.18186e-19)
(0.207026 -0.0222751 0)
(0.266116 -0.0219334 1.19671e-19)
(0.325108 -0.0215972 0)
(0.383982 -0.0212564 0)
(0.442689 -0.0208968 0)
(0.501121 -0.0204948 0)
(0.559094 -0.0200044 0)
(0.616098 -0.0193333 0)
(0.67171 -0.0182324 0)
(0.721798 -0.0160686 -2.46489e-19)
(0.770457 -0.0111704 0)
(0.771885 0.00649104 0)
(0.00373394 -0.0315099 1.05017e-19)
(0.00678198 -0.0259731 -1.00219e-19)
(0.00468172 -0.0121614 0)
(0.000116649 0.00142939 5.99548e-20)
(-0.00659141 0.013549 0)
(-0.0153983 0.0235924 2.79761e-20)
(-0.0261979 0.0314328 -5.44187e-20)
(-0.0388541 0.0373168 -5.30238e-20)
(-0.0531838 0.0416815 0)
(-0.0689726 0.0449742 -5.04169e-20)
(-0.0860138 0.0475515 -2.46088e-20)
(-0.104135 0.0496651 0)
(-0.123206 0.0514786 0)
(-0.143132 0.0530912 0)
(-0.163847 0.0545601 0)
(-0.185307 0.0559167 -2.1942e-20)
(-0.207485 0.057178 0)
(-0.230363 0.0583528 4.20909e-20)
(-0.253933 0.0594467 0)
(-0.278195 0.0604634 0)
(-0.303155 0.0614063 -3.9837e-20)
(-0.328826 0.0622775 0)
(-0.35523 0.0630783 3.85739e-20)
(-0.382398 0.0638108 -1.90315e-20)
(-0.41038 0.0644883 1.87773e-20)
(-0.439238 0.0651546 -1.855e-20)
(-0.469042 0.0658981 -1.83517e-20)
(-0.499817 0.0668206 0)
(-0.531515 0.0679112 0)
(-0.56416 0.0688898 1.7927e-20)
(-0.598102 0.0693466 -1.77488e-20)
(-0.633684 0.0693455 0)
(-0.670343 0.0697543 0)
(-0.707211 0.0712863 1.75878e-20)
(-0.744719 0.0729113 0)
(-0.783276 0.0745036 0)
(-0.823156 0.0764626 -1.75307e-20)
(-0.863421 0.0771904 0)
(-0.902923 0.0777486 1.69023e-20)
(-0.942267 0.0789668 -3.4055e-20)
(-0.979212 0.0795949 0)
(-1.01733 0.0812448 0)
(-1.05666 0.0823495 -6.59699e-20)
(-1.09765 0.0835789 -6.52092e-20)
(-1.13772 0.0849984 -6.44353e-20)
(-1.17626 0.0857192 3.17724e-20)
(-1.21411 0.0859392 -3.15753e-20)
(-1.25155 0.0858384 -9.35356e-20)
(-1.2887 0.085508 6.16365e-20)
(-1.32561 0.085016 3.05681e-20)
(-1.36231 0.0844053 0)
(-1.39879 0.0837043 -2.99435e-20)
(-1.43505 0.0829317 2.94928e-20)
(-1.47108 0.0820994 0)
(-1.50687 0.081215 0)
(-1.54241 0.080283 0)
(-1.57767 0.079306 -2.85141e-20)
(-1.61263 0.0782852 0)
(-1.64728 0.0772212 5.58167e-20)
(-1.6816 0.0761137 0)
(-1.71556 0.0749624 5.47928e-20)
(-1.74913 0.0737666 0)
(-1.7823 0.0725259 -5.37972e-20)
(-1.81504 0.0712397 0)
(-1.84731 0.0699076 5.28225e-20)
(-1.8791 0.0685293 -2.60985e-20)
(-1.91038 0.0671049 0)
(-1.94112 0.0656345 -5.13831e-20)
(-1.97128 0.0641185 -2.55214e-20)
(-2.00084 0.0625575 -2.52813e-20)
(-2.02977 0.0609523 0)
(-2.05804 0.059304 -2.467e-20)
(-2.08563 0.0576137 -2.45551e-20)
(-2.11249 0.0558829 0)
(-2.13861 0.054113 2.40619e-20)
(-2.16394 0.0523059 -4.75086e-20)
(-2.18847 0.0504632 0)
(-2.21216 0.0485868 -2.33003e-20)
(-2.23499 0.0466788 0)
(-2.25693 0.044741 6.82245e-20)
(-2.27794 0.0427755 0)
(-2.298 0.0407842 -6.65984e-20)
(-2.31709 0.0387689 -2.19476e-20)
(-2.33517 0.0367316 2.15861e-20)
(-2.35223 0.0346736 4.25992e-20)
(-2.36822 0.0325965 -4.20139e-20)
(-2.38314 0.0305014 0)
(-2.39695 0.0283891 0)
(-2.40962 0.02626 0)
(-2.42114 0.024114 1.18767e-19)
(-2.43148 0.0219503 3.89455e-20)
(-2.44062 0.0197676 -3.82611e-20)
(-2.44854 0.0175637 0)
(-2.45522 0.0153364 -3.68253e-20)
(-2.46066 0.0130823 3.61098e-20)
(-2.46486 0.0107971 3.53589e-20)
(-2.46784 0.00847949 0)
(-2.46967 0.00614652 0)
(-2.47043 0.00384685 0)
(-2.47025 0.00163221 3.21682e-20)
(-2.46888 -0.00047043 0)
(-2.46614 -0.00249975 -6.09973e-20)
(-2.46202 -0.00449575 -8.88087e-20)
(-2.45647 -0.00647022 5.74508e-20)
(-2.44948 -0.00842753 0)
(-2.44103 -0.0103676 2.69578e-20)
(-2.43112 -0.0122889 0)
(-2.41972 -0.0141893 4.99202e-20)
(-2.40684 -0.0160664 -2.40763e-20)
(-2.39246 -0.017918 -2.30799e-20)
(-2.37658 -0.0197417 0)
(-2.35921 -0.0215354 -6.25981e-20)
(-2.34033 -0.0232968 3.9704e-20)
(-2.31996 -0.0250239 1.86376e-20)
(-2.29809 -0.0267147 0)
(-2.27473 -0.0283673 1.64289e-20)
(-2.24989 -0.0299797 4.62325e-20)
(-2.22358 -0.0315503 0)
(-2.19581 -0.0330772 2.63628e-20)
(-2.16658 -0.0345588 2.40372e-20)
(-2.13593 -0.0359935 2.16856e-20)
(-2.10386 -0.0373799 0)
(-2.07039 -0.0387168 0)
(-2.03555 -0.0400029 0)
(-1.99936 -0.0412371 -6.23827e-21)
(-1.96184 -0.0424184 -4.57103e-21)
(-1.92301 -0.043546 0)
(-1.88291 -0.044619 -4.612e-21)
(-1.84157 -0.0456365 -2.10414e-21)
(-1.79901 -0.046598 0)
(-1.75527 -0.0475029 3.43649e-21)
(-1.71038 -0.0483509 1.09704e-20)
(-1.66438 -0.0491419 -8.53658e-21)
(-1.61731 -0.0498757 -1.00686e-20)
(-1.56919 -0.0505525 0)
(-1.52008 -0.0511722 0)
(-1.47001 -0.0517351 0)
(-1.41902 -0.0522415 -2.13286e-20)
(-1.36715 -0.0526921 2.28011e-20)
(-1.31445 -0.0530876 5.17593e-20)
(-1.26095 -0.0534289 -2.89563e-20)
(-1.20671 -0.0537167 3.03838e-20)
(-1.15176 -0.0539521 3.39903e-20)
(-1.09614 -0.0541364 0)
(-1.03991 -0.0542708 0)
(-0.983097 -0.054357 -4.03233e-20)
(-0.92575 -0.0543964 0)
(-0.867911 -0.0543907 0)
(-0.809621 -0.0543418 9.62754e-20)
(-0.750919 -0.0542517 0)
(-0.691846 -0.0541224 5.23143e-20)
(-0.632439 -0.0539561 -5.57271e-20)
(-0.572734 -0.0537549 0)
(-0.512768 -0.0535213 5.92005e-20)
(-0.452573 -0.0532574 0)
(-0.392182 -0.0529657 0)
(-0.331623 -0.0526483 -6.68622e-20)
(-0.270927 -0.0523071 1.36932e-19)
(-0.210118 -0.0519435 -7.10781e-20)
(-0.149223 -0.0515576 0)
(-0.0882666 -0.0511483 0)
(-0.0272725 -0.0507136 7.60926e-20)
(0.0337351 -0.0502489 0)
(0.0947303 -0.0497544 7.87358e-20)
(0.155699 -0.0492416 0)
(0.216619 -0.0486948 0)
(0.277497 -0.0481183 0)
(0.338341 -0.0475452 8.36982e-20)
(0.399144 -0.0469899 0)
(0.459901 -0.0464462 -8.54361e-20)
(0.5206 -0.0459009 0)
(0.581212 -0.0453345 0)
(0.641681 -0.0447165 1.74519e-19)
(0.701894 -0.0439948 -1.75831e-19)
(0.761659 -0.0430682 0)
(0.820536 -0.041741 0)
(0.87807 -0.0395073 0)
(0.9317 -0.0354035 5.42638e-19)
(0.983982 -0.0261259 0)
(1.01429 -0.00369606 -3.69193e-19)
(-0.000221283 -0.0335883 -5.13377e-23)
(-0.00500009 -0.0165422 1.29425e-19)
(-0.0128098 0.00226293 0)
(-0.0218271 0.0190092 -1.097e-19)
(-0.0321112 0.0337647 0)
(-0.0435168 0.0464641 0)
(-0.0560676 0.0570903 1.10852e-23)
(-0.069841 0.0657732 4.69921e-20)
(-0.0848707 0.0727794 4.57696e-20)
(-0.101125 0.0784409 4.46594e-20)
(-0.118531 0.083083 0)
(-0.136997 0.0869824 0)
(-0.156437 0.0903523 -4.16391e-20)
(-0.176778 0.0933465 -8.14742e-20)
(-0.197963 0.0960708 7.97664e-20)
(-0.219951 0.0985965 0)
(-0.242717 0.100971 7.66305e-20)
(-0.266246 0.103229 -3.7613e-20)
(-0.290535 0.105396 0)
(-0.315587 0.107491 7.2586e-20)
(-0.341414 0.109536 3.57165e-20)
(-0.368032 0.111549 -7.02968e-20)
(-0.395463 0.113549 -3.46492e-20)
(-0.423732 0.11556 0)
(-0.452867 0.117618 6.74269e-20)
(-0.482894 0.119775 6.66161e-20)
(-0.513819 0.122096 0)
(-0.545601 0.12462 6.52045e-20)
(-0.578143 0.127287 0)
(-0.611379 0.129898 6.40019e-20)
(-0.645397 0.132264 3.17295e-20)
(-0.680295 0.134487 0)
(-0.715739 0.136891 0)
(-0.751158 0.139481 0)
(-0.786506 0.141666 0)
(-0.821944 0.143032 0)
(-0.857608 0.143979 0)
(-0.893337 0.144979 5.91111e-20)
(-0.928583 0.145989 -8.76314e-20)
(-0.963108 0.146341 0)
(-0.996886 0.146048 0)
(-1.03025 0.144677 0)
(-1.06413 0.142293 4.41334e-23)
(-1.09863 0.140527 5.5027e-20)
(-1.13288 0.139415 1.08613e-19)
(-1.16658 0.138396 -1.07277e-19)
(-1.19991 0.137357 -5.29484e-20)
(-1.23297 0.136246 5.23958e-20)
(-1.2658 0.135047 -8.32986e-23)
(-1.29844 0.133762 5.10965e-20)
(-1.33091 0.132399 0)
(-1.36323 0.130965 4.99412e-20)
(-1.39537 0.129466 -9.00302e-23)
(-1.42736 0.127905 0)
(-1.45917 0.126287 0)
(-1.49079 0.124611 -4.77929e-20)
(-1.52221 0.122877 0)
(-1.55341 0.121086 0)
(-1.58437 0.119236 4.62011e-20)
(-1.61508 0.117326 9.16339e-20)
(-1.6455 0.115355 -4.5441e-20)
(-1.67563 0.11332 0)
(-1.70543 0.111221 4.4514e-20)
(-1.73489 0.109057 0)
(-1.76396 0.106827 4.34143e-20)
(-1.79264 0.104531 4.31589e-20)
(-1.82089 0.102169 -8.52382e-20)
(-1.84868 0.0997406 -4.20837e-20)
(-1.87599 0.0972468 0)
(-1.90278 0.0946886 8.2594e-20)
(-1.92903 0.092067 0)
(-1.9547 0.0893838 1.21339e-19)
(-1.97977 0.0866407 7.99523e-20)
(-2.00421 0.0838398 7.90661e-20)
(-2.02798 0.0809835 -7.81748e-20)
(-2.05106 0.0780743 1.15993e-19)
(-2.07342 0.0751148 0)
(-2.09502 0.0721079 0)
(-2.11584 0.0690564 -7.45345e-20)
(-2.13585 0.0659634 -1.10464e-19)
(-2.15502 0.0628319 0)
(-2.17331 0.0596647 3.59034e-20)
(-2.19071 0.0564648 0)
(-2.20718 0.0532349 -1.04641e-19)
(-2.2227 0.0499777 -9.02623e-23)
(-2.23724 0.0466957 8.16249e-23)
(-2.25078 0.043391 6.66568e-20)
(-2.26329 0.0400656 0)
(-2.27474 0.0367213 -6.45158e-20)
(-2.28512 0.0333596 -4.44559e-23)
(-2.2944 0.0299823 0)
(-2.30257 0.026591 0)
(-2.30961 0.0231881 0)
(-2.31551 0.0197773 5.87967e-20)
(-2.32025 0.0163647 0)
(-2.32384 0.0129598 0)
(-2.32627 0.00957774 0)
(-2.32755 0.006237 0)
(-2.32765 0.00295106 0)
(-2.32654 -0.000277795 5.11083e-20)
(-2.32414 -0.00348234 0)
(-2.3204 -0.00667487 4.82365e-20)
(-2.3153 -0.00984975 4.67944e-20)
(-2.30882 -0.0130037 -4.53268e-20)
(-2.30094 -0.0161334 0)
(-2.29165 -0.0192352 -4.23152e-20)
(-2.28093 -0.0223052 0)
(-2.26877 -0.0253394 -3.9203e-20)
(-2.25517 -0.0283339 3.76098e-20)
(-2.24012 -0.0312849 1.08338e-19)
(-2.22362 -0.0341885 0)
(-2.20565 -0.0370413 9.84675e-20)
(-2.18623 -0.0398397 3.14293e-20)
(-2.16535 -0.0425803 0)
(-2.14302 -0.0452601 5.55946e-20)
(-2.11924 -0.047876 5.21145e-20)
(-2.09402 -0.050425 -7.26335e-20)
(-2.06737 -0.0529042 0)
(-2.0393 -0.0553109 -2.04422e-20)
(-2.00982 -0.0576425 -1.86177e-20)
(-1.97894 -0.0598967 -5.0928e-20)
(-1.94669 -0.062071 0)
(-1.91308 -0.0641635 0)
(-1.87814 -0.0661723 0)
(-1.84187 -0.0680959 -9.94436e-21)
(-1.80431 -0.0699326 0)
(-1.76549 -0.0716811 0)
(-1.72542 -0.0733402 3.54071e-21)
(-1.68415 -0.0749087 1.61366e-21)
(-1.64169 -0.0763858 0)
(-1.59808 -0.0777706 0)
(-1.55335 -0.0790627 -8.38674e-21)
(-1.50754 -0.0802621 0)
(-1.46068 -0.0813688 1.61457e-20)
(-1.41281 -0.0823829 1.92279e-20)
(-1.36397 -0.0833047 0)
(-1.3142 -0.0841348 0)
(-1.26353 -0.0848737 -3.07881e-20)
(-1.212 -0.0855227 -8.22668e-22)
(-1.15966 -0.086083 -8.27785e-22)
(-1.10655 -0.0865561 0)
(-1.05271 -0.0869437 -9.28487e-20)
(-0.998185 -0.0872474 0)
(-0.94301 -0.0874692 0)
(-0.887232 -0.0876117 0)
(-0.830891 -0.0876773 6.16927e-20)
(-0.774029 -0.0876687 0)
(-0.716687 -0.0875885 -1.36169e-19)
(-0.658905 -0.0874401 -7.24852e-20)
(-0.600722 -0.0872267 0)
(-0.542176 -0.0869515 -7.94831e-20)
(-0.483306 -0.0866182 0)
(-0.424145 -0.0862304 0)
(-0.364728 -0.085792 -2.67295e-19)
(-0.305088 -0.0853067 1.84242e-19)
(-0.245255 -0.0847782 0)
(-0.185258 -0.0842101 1.97122e-19)
(-0.125125 -0.0836053 -1.02499e-19)
(-0.0648798 -0.0829666 0)
(-0.00454693 -0.0822962 0)
(0.0558513 -0.0815951 0)
(0.116295 -0.0808626 -3.37022e-19)
(0.176764 -0.0800974 0)
(0.237245 -0.079302 -1.16693e-19)
(0.297728 -0.0784865 0)
(0.358228 -0.0776628 0)
(0.418756 -0.0768411 0)
(0.479302 -0.0760287 0)
(0.539849 -0.0752296 0)
(0.600381 -0.0744361 0)
(0.660879 -0.0736309 -2.55283e-19)
(0.721309 -0.0727852 0)
(0.781613 -0.0718523 -1.3099e-19)
(0.841681 -0.0707511 3.95505e-19)
(0.901336 -0.069332 0)
(0.960211 -0.0673101 0)
(1.01796 -0.0640639 -2.70363e-19)
(1.07287 -0.0584073 -2.73889e-19)
(1.1276 -0.0473578 2.75894e-19)
(1.17015 -0.0245565 2.80722e-19)
(-0.00426974 -0.0214936 -2.07011e-19)
(-0.0141077 0.00294817 -1.88975e-19)
(-0.0255027 0.0243456 -1.12396e-19)
(-0.0376818 0.0427123 -5.14332e-20)
(-0.050621 0.0588957 0)
(-0.0641473 0.0731055 9.21445e-20)
(-0.0783248 0.0854186 -4.43815e-20)
(-0.0932817 0.0959392 0)
(-0.109119 0.104844 -4.18702e-20)
(-0.12589 0.112369 0)
(-0.143604 0.11877 7.97327e-20)
(-0.162242 0.124292 0)
(-0.181767 0.129143 3.81304e-20)
(-0.202142 0.133492 7.4667e-20)
(-0.22333 0.137467 -7.31599e-20)
(-0.2453 0.141164 0)
(-0.26803 0.144654 -7.03895e-20)
(-0.291506 0.147987 0)
(-0.315717 0.151204 0)
(-0.34066 0.154338 -6.67902e-20)
(-0.366329 0.157414 0)
(-0.392723 0.160453 3.53302e-24)
(-0.419835 0.163473 0)
(-0.447657 0.166492 0)
(-0.476169 0.169525 -4.27422e-24)
(-0.505337 0.172586 -6.12204e-20)
(-0.535104 0.175684 -6.04509e-20)
(-0.565383 0.178797 -5.97244e-20)
(-0.596064 0.181848 0)
(-0.627052 0.184704 -1.16641e-19)
(-0.658305 0.187238 0)
(-0.689784 0.189442 -5.69251e-20)
(-0.721354 0.191408 0)
(-0.752807 0.193103 0)
(-0.784048 0.194349 5.47987e-20)
(-0.815133 0.195077 0)
(-0.84608 0.195375 -5.33791e-20)
(-0.876836 0.195362 -2.02861e-23)
(-0.907334 0.195121 1.03937e-19)
(-0.937516 0.194516 -1.02517e-19)
(-0.96741 0.193506 0)
(-0.997186 0.191992 0)
(-1.02706 0.190008 -4.91855e-20)
(-1.05706 0.188054 0)
(-1.08702 0.186253 -4.79093e-20)
(-1.11685 0.184506 4.72832e-20)
(-1.14656 0.182768 4.66743e-20)
(-1.17614 0.181006 0)
(-1.20562 0.1792 -4.55058e-20)
(-1.235 0.177341 -4.49449e-20)
(-1.26429 0.175423 8.87241e-20)
(-1.29348 0.173443 -4.3866e-20)
(-1.32258 0.1714 -4.33466e-20)
(-1.35158 0.169292 0)
(-1.38046 0.167118 0)