/*--------------------------------*- C++ -*----------------------------------*\
  =========                 |
  \\      /  F ield         | OpenFOAM: The Open Source CFD Toolbox
   \\    /   O peration     | Website:  https://openfoam.org
    \\  /    A nd           | Version:  9
     \\/     M anipulation  |
\*---------------------------------------------------------------------------*/
FoamFile
{
    format      ascii;
    class       volScalarField;
    location    "0.35";
    object      alpha.water;
}
// * * * * * * * * * * * * * * * * * * * * * * * * * * * * * * * * * * * * * //

dimensions      [0 0 0 0 0 0 0];

internalField   nonuniform List<scalar> 
7700
(
1
1
1
1
1
1
1
1
1
1
1
1
1
1
1
1
1
1
1
1
1
1
1
1
1
1
1
1
1
1
1
1
1
1
1
1
1
1
1
1
1
0.983432
0.91018
0.910423
0.988995
0.998427
1
1
1
1
1
1
1
1
1
1
1
1
1
1
1
1
1
1
1
1
1
1
1
1
1
1
1
1
1
1
1
1
1
1
1
1
1
1
1
1
1
1
0.950673
0.913694
0.998347
0.998427
1
1
1
1
1
1
1
1
1
1
1
1
1
1
1
1
1
1
1
1
1
1
1
1
1
1
1
1
1
1
1
1
1
1
1
1
1
1
1
1
1
1
0.999927
0.956382
0.985275
0.998394
1
1
1
1
1
1
1
1
1
1
1
1
1
1
1
1
1
1
1
1
1
1
1
1
1
1
1
1
1
1
1
1
1
1
1
1
1
1
1
1
1
1
0.999998
0.999671
0.996875
0.998087
1
1
1
1
1
1
1
1
1
1
1
1
1
1
1
1
1
1
1
1
1
1
1
1
1
1
1
1
1
1
1
1
1
1
1
1
1
1
1
1
1
1
1
0.999982
0.999965
0.999292
1
1
1
1
1
1
1
1
1
1
1
1
1
1
1
1
1
1
1
1
1
1
1
1
1
1
1
1
1
1
1
1
1
1
1
1
1
1
1
1
1
1
1
0.999998
0.999975
0.999098
1
1
1
1
1
1
1
1
1
1
1
1
1
1
1
1
1
1
1
1
1
1
1
1
1
1
1
1
1
1
1
1
1
1
1
1
1
1
1
1
1
1
1
1
0.999999
0.999154
1
1
1
1
1
1
1
1
1
1
1
1
1
1
1
1
1
1
1
1
1
1
1
1
1
1
1
1
1
1
1
1
1
1
1
1
1
1
1
1
1
1
1
1
1
0.999192
1
1
1
1
1
1
1
1
1
1
1
1
1
1
1
1
1
1
1
1
1
1
1
1
1
1
1
1
1
1
1
1
1
1
1
1
1
1
1
1
1
1
1
1
1
0.999297
1
1
1
1
1
1
1
1
1
1
1
1
1
1
1
1
1
1
1
1
1
1
1
1
1
1
1
1
1
1
1
1
1
1
1
1
1
1
1
1
1
1
1
1
1
0.999935
1.35735e-23
3.12403e-23
3.4896e-23
6.52854e-24
4.15837e-25
2.31963e-26
1.30841e-27
4.08058e-29
4.8899e-31
1.62006e-31
1.00971e-31
5.37556e-32
1.77076e-32
3.27955e-33
3.58032e-34
2.39854e-35
1.17077e-36
1.08373e-37
1.21724e-38
1.06429e-39
8.13636e-41
5.51228e-42
3.33964e-43
1.80833e-44
8.69192e-46
3.69076e-47
1.37605e-48
4.46781e-50
1.27611e-51
3.18749e-53
6.77385e-55
1.19427e-56
1.69455e-58
1.86122e-60
1.5073e-62
8.43104e-65
2.95727e-67
5.55803e-70
4.59071e-73
3.08954e-74
2.04857e-22
4.99137e-22
4.35976e-22
1.48442e-22
2.02208e-23
2.25043e-24
1.90874e-25
1.14783e-26
4.15052e-28
4.03686e-31
1.6372e-31
1.05689e-31
5.62312e-32
1.84385e-32
3.43036e-33
3.85232e-34
3.00411e-35
3.69224e-36
5.48275e-37
4.44256e-38
3.06469e-39
1.89682e-40
1.0501e-41
5.28105e-43
2.3851e-44
9.60805e-46
3.43284e-47
1.07998e-48
2.96517e-50
7.04201e-52
1.42474e-53
2.40371e-55
3.29852e-57
3.57252e-59
2.94e-61
1.75094e-63
7.02917e-66
1.7198e-68
2.45155e-71
7.5318e-74
7.27084e-21
1.29174e-20
1.15864e-20
4.95973e-21
8.10551e-22
1.1847e-22
1.37927e-23
1.24561e-24
8.11703e-26
2.8296e-27
8.33987e-29
1.90179e-29
9.99872e-30
3.36221e-30
6.27769e-31
6.95581e-32
4.7241e-33
2.15052e-34
1.4856e-35
9.60663e-37
5.26729e-38
2.74073e-39
1.30081e-40
5.91285e-42
2.38636e-43
8.58255e-45
2.78878e-46
8.06369e-48
2.05811e-49
4.5965e-51
8.86469e-53
1.44877e-54
1.96433e-56
2.15373e-58
1.84832e-60
1.1884e-62
5.34599e-65
1.48728e-67
1.94591e-70
4.46896e-72
1.2093e-19
2.30587e-19
2.28021e-19
1.14902e-19
2.19623e-20
4.2695e-21
6.6591e-22
8.40972e-23
8.55843e-24
8.10845e-25
9.1105e-26
7.59507e-27
1.07401e-27
3.41015e-28
6.16535e-29
6.79649e-30
4.6457e-31
2.00796e-32
8.25591e-34
3.04652e-35
9.87789e-37
3.48108e-38
1.24335e-39
4.41649e-41
1.72624e-42
5.93955e-44
1.76548e-45
4.65273e-47
1.0973e-48
2.29017e-50
4.1766e-52
6.54905e-54
8.66375e-56
9.45289e-58
8.25818e-60
5.53336e-62
2.63583e-64
7.41094e-67
7.86953e-70
6.8312e-71
1.43314e-18
3.26982e-18
3.5858e-18
2.11865e-18
4.55698e-19
1.10314e-19
2.15476e-20
3.76987e-21
6.28323e-22
9.17925e-23
9.64308e-24
7.86674e-25
7.86334e-26
2.32479e-26
4.0692e-27
4.4546e-28
3.13831e-29
1.57334e-30
6.60293e-32
1.82866e-33
3.93891e-35
7.6605e-37
1.28605e-38
1.50803e-41
3.72068e-43
2.09059e-43
8.87731e-45
2.31126e-46
5.15468e-48
1.01016e-49
1.73944e-51
2.60535e-53
3.33645e-55
3.57536e-57
3.11359e-59
2.10347e-61
1.00176e-63
2.71955e-66
2.05754e-69
4.78918e-70
1.45044e-17
3.79557e-17
4.46091e-17
2.77019e-17
6.12981e-18
1.77328e-18
4.28658e-19
9.91728e-20
1.92464e-20
2.83392e-21
3.02957e-22
3.2611e-23
4.62048e-24
1.19921e-24
2.04498e-25
2.26101e-26
1.93313e-27
1.14713e-28
4.34387e-30
1.15457e-31
2.37179e-33
3.95553e-35
2.38848e-37
9.66095e-40
8.48159e-42
7.27503e-44
1.18082e-45
2.9698e-46
1.92786e-47
4.08963e-49
6.73431e-51
9.60107e-53
1.18237e-54
1.23038e-56
1.04814e-58
6.92051e-61
3.15922e-63
7.61298e-66
4.47193e-69
2.25414e-69
1.1003e-16
2.95323e-16
3.49706e-16
1.95014e-16
4.84684e-17
1.65963e-17
4.54747e-18
1.07716e-18
1.85598e-19
2.09209e-20
4.90735e-21
1.19162e-21
2.64053e-22
5.85906e-23
1.01028e-23
1.27679e-24
1.07969e-25
6.0006e-27
2.24919e-28
6.14113e-30
1.33109e-31
2.37734e-33
6.48404e-36
7.21796e-38
7.01466e-40
6.37691e-42
5.74563e-44
5.31082e-46
6.46219e-48
4.37645e-49
2.68185e-50
3.48857e-52
3.99313e-54
3.96478e-56
3.22284e-58
1.99623e-60
8.27164e-63
1.49419e-65
1.30636e-68
8.48085e-69
6.38246e-16
1.90932e-15
2.3167e-15
1.17248e-15
2.51089e-16
1.0421e-16
2.68249e-17
5.86e-18
6.99872e-19
8.59957e-20
1.12481e-19
4.83902e-20
1.26434e-20
2.85498e-21
4.74356e-22
5.59048e-23
4.53233e-24
2.49826e-25
9.5701e-27
2.74606e-28
6.41679e-30
1.32731e-31
3.6935e-34
4.63351e-36
5.05528e-38
5.07547e-40
4.93137e-42
4.7943e-44
5.31042e-46
6.34155e-48
2.2559e-49
2.45979e-51
2.0239e-53
1.47815e-55
1.07587e-57
6.49471e-60
3.10672e-62
1.05782e-64
2.36114e-67
2.52695e-68
3.12351e-15
8.55226e-15
9.23664e-15
3.44882e-15
1.35139e-15
6.76401e-16
2.55953e-16
7.18148e-17
1.1087e-17
2.38159e-18
3.39107e-18
1.65464e-18
4.4901e-19
9.96207e-20
1.60051e-20
1.84345e-21
1.49141e-22
8.38989e-24
3.35363e-25
1.02643e-26
2.63095e-28
5.16159e-30
1.8215e-32
2.5844e-34
3.18907e-36
3.58373e-38
3.82717e-40
4.00876e-42
4.70359e-44
5.32553e-46
1.39318e-47
1.28827e-49
9.95162e-52
1.0058e-53
8.82695e-56
6.27461e-58
3.52063e-60
1.39251e-62
2.93912e-65
2.38959e-67
1.06285e-14
2.53517e-14
2.50986e-14
1.88152e-14
2.1432e-14
2.39506e-14
1.89827e-14
1.09236e-14
2.70958e-15
2.6724e-16
8.87552e-17
4.24759e-17
1.13492e-17
2.46338e-18
3.90121e-19
4.48872e-20
3.6915e-21
2.14934e-22
9.05186e-24
2.97092e-25
8.60174e-27
6.1704e-29
7.86941e-31
1.26464e-32
1.77166e-34
2.24567e-36
2.66821e-38
3.05707e-40
3.86791e-42
4.70196e-44
1.29056e-45
1.21859e-47
1.0078e-49
1.071e-51
1.03623e-53
7.79156e-56
4.58918e-58
1.89708e-60
4.14548e-63
2.91117e-65
1
1
1
1
1
1
1
1
1
1
1
1
1
1
1
1
1
1
1
1
1
1
1
1
1
1
1
1
1
1
1
1
1
1
1
1
1
1
1
1
1
1
1
1
1
1
1
1
1
1
1
1
1
1
1
1
1
1
1
1
1
1
1
1
1
1
1
1
1
1
1
1
1
1
1
1
1
1
1
1
1
1
1
1
1
1
1
1
1
1
1
1
1
1
1
1
1
1
1
1
1
1
1
1
1
1
1
1
1
1
1
1
1
1
1
1
1
1
1
1
1
1
1
1
1
1
1
1
1
1
1
1
1
1
1
1
1
1
1
1
1
1
1
1
1
1
1
1
1
1
1
1
1
1
1
1
1
1
1
1
1
1
1
1
1
1
1
1
1
1
1
1
1
1
1
1
1
1
1
1
1
1
1
1
1
1
1
1
1
1
1
1
1
1
1
1
1
1
1
1
1
1
1
1
1
1
1
1
1
1
1
1
1
1
1
1
1
1
1
1
1
1
1
1
1
1
1
1
1
1
1
1
1
1
1
1
0.999999
0.999999
0.999999
0.999999
0.999999
0.999999
0.999999
0.999999
0.999999
0.999999
0.999999
0.999999
0.999999
0.999999
0.999999
0.999998
0.999998
0.999998
0.999998
0.999998
0.999999
0.999999
0.999999
0.999999
0.999998
0.999998
0.999999
0.999999
1
1
1
1
1
1
1
1
1
1
1
1
1
0.999998
0.999998
0.999997
0.999997
0.999996
0.999995
0.999995
0.999994
0.999993
0.999993
0.999992
0.999992
0.999992
0.999991
0.999991
0.99999
0.999989
0.999989
0.999988
0.999987
0.999986
0.999985
0.999985
0.999985
0.999985
0.999985
0.999984
0.999985
0.999984
0.999981
0.999981
0.999984
0.999989
0.999995
0.999998
1
1
1
1
1
1
1
1
1
1
0.999994
0.99998
0.999979
0.999976
0.999971
0.999965
0.99996
0.999955
0.99995
0.999945
0.999942
0.999938
0.999934
0.999931
0.999928
0.999924
0.999919
0.999913
0.999906
0.9999
0.999892
0.999884
0.999877
0.999871
0.999869
0.999868
0.99986
0.999843
0.999846
0.999836
0.999801
0.999802
0.999834
0.99989
0.999942
0.999974
0.999993
1
1
1
1
1
1
1
1
1
0.999939
0.999834
0.999825
0.999805
0.999762
0.999714
0.99967
0.999629
0.999593
0.999561
0.999534
0.999507
0.999485
0.999464
0.999439
0.999408
0.99937
0.999325
0.999274
0.999219
0.999158
0.999088
0.999018
0.998961
0.998926
0.998884
0.99876
0.998526
0.99851
0.998484
0.998173
0.99818
0.998577
0.999115
0.999526
0.999753
0.999884
0.999995
1
1
1
1
1
1
1
1
0.99941
0.998676
0.998627
0.998451
0.998094
0.997712
0.99737
0.997074
0.996819
0.996611
0.996439
0.996263
0.996135
0.996008
0.995842
0.995624
0.995352
0.995018
0.994641
0.994215
0.993547
0.990189
0.985439
0.979226
0.972969
0.962567
0.934115
0.881629
0.87102
0.885899
0.928776
0.974799
0.990069
0.994072
0.996385
0.997702
0.998452
0.999425
1
1
1
1
1
1
1
1
0.993813
0.970797
0.9588
0.931732
0.890268
0.853412
0.825848
0.805627
0.790803
0.780857
0.774117
0.766192
0.7628
0.758135
0.748865
0.734318
0.714881
0.689859
0.661322
0.627987
0.589098
0.538139
0.478368
0.433004
0.398624
0.351555
0.26663
0.173697
0.167228
0.192692
0.287528
0.48672
0.697546
0.830626
0.904993
0.953558
0.97887
0.995504
0.999978
0.999983
0.999998
1
1
1
1
1
0.57626
0.405291
0.351641
0.275718
0.201682
0.156347
0.130215
0.114014
0.103447
0.0969937
0.0928669
0.0879389
0.0862883
0.0834256
0.0775789
0.0688586
0.0581142
0.0457951
0.0334945
0.020635
0.00481027
-1.5539e-06
-1.34528e-08
-4.36102e-11
-1.6153e-13
-9.64433e-16
-9.96278e-17
-5.95443e-23
-6.15556e-07
-2.13579e-06
-1.89913e-06
0.00441078
0.0508438
0.12944
0.214116
0.321141
0.483953
0.689933
0.941004
0.999838
1.00017
0.999994
0.999999
1
1
1
0.000714183
-6.10224e-13
-2.9633e-17
-2.38177e-21
0
0
-3.57763e-08
-2.43905e-08
-1.49326e-05
-1.82963e-05
-2.88121e-05
-4.39906e-05
-3.70295e-05
-2.09591e-05
-9.44369e-06
-3.68323e-06
-1.45591e-06
-5.93817e-07
-2.43362e-07
-9.96253e-08
-4.14984e-08
-1.81568e-08
-9.04281e-09
-7.10088e-09
-1.20229e-08
-2.29607e-08
-4.04584e-08
-6.00285e-08
-6.69995e-06
-1.49844e-05
-1.77457e-05
-1.4651e-05
-9.75362e-06
-5.45538e-06
-2.59275e-06
-1.03898e-06
5.74672e-20
0.0238511
0.0819993
0.221803
0.722626
0.999639
1.00014
1
0.999999
1.00002
-3.00136e-10
-1.08645e-10
-1.31232e-11
-1.09334e-12
-1.21959e-13
-3.18057e-14
-2.05547e-07
-9.08716e-08
-4.00588e-08
-1.14504e-07
-1.2968e-06
-7.26932e-06
-1.17888e-05
-1.12399e-05
-7.87143e-06
-4.49627e-06
-2.23225e-06
-1.00768e-06
-4.29239e-07
-1.78982e-07
-7.60524e-08
-3.43102e-08
-1.80106e-08
-1.5608e-08
-2.58038e-08
-4.85612e-08
-8.14041e-08
-1.184e-07
-7.04444e-06
-1.6036e-05
-2.01556e-05
-1.83264e-05
-1.34812e-05
-8.56127e-06
-4.89867e-06
-2.59999e-06
-1.30302e-06
-6.19261e-07
-3.69099e-09
4.39748e-05
0.0354042
0.142379
0.510057
0.993151
1.00006
0.999967
-7.68078e-12
-5.54505e-12
-1.31995e-12
-3.48488e-13
-9.91613e-14
-4.7604e-14
-7.87305e-14
-1.18022e-10
-1.06553e-08
-7.52452e-08
-1.00177e-06
-5.61228e-06
-8.99783e-06
-8.49035e-06
-5.90078e-06
-3.35741e-06
-1.66904e-06
-7.60516e-07
-3.3125e-07
-1.44032e-07
-6.54659e-08
-3.23442e-08
-1.89673e-08
-1.83858e-08
-3.13268e-08
-5.86488e-08
-9.75531e-08
-1.41885e-07
-1.84288e-07
-2.18348e-07
-2.39803e-07
-2.4678e-07
-2.39592e-07
-2.20307e-07
-1.92183e-07
-1.58999e-07
-1.24503e-07
-9.20524e-08
-7.15406e-08
-1.63327e-08
4.68631e-05
0.000217835
0.012258
0.117717
0.428288
0.974374
-5.48363e-12
-4.52899e-12
-9.29883e-13
-2.57627e-13
-8.31565e-14
-5.21313e-14
-1.05175e-13
-3.79008e-13
-3.66339e-11
-2.60933e-09
-6.08607e-08
-4.08471e-07
-7.96863e-07
-9.05516e-07
-7.49801e-07
-5.06522e-07
-3.00955e-07
-1.67275e-07
-9.19958e-08
-5.24424e-08
-3.17532e-08
-2.03622e-08
-1.47417e-08
-1.61555e-08
-2.7958e-08
-5.18076e-08
-8.56271e-08
-1.24346e-07
-1.62002e-07
-1.93477e-07
-2.15304e-07
-2.25732e-07
-2.24665e-07
-2.1343e-07
-1.94313e-07
-1.70003e-07
-1.43081e-07
-1.15736e-07
-8.46385e-08
-1.10158e-09
4.42853e-07
8.58899e-06
0.000103218
0.000439138
0.00653645
0.116504
-2.14784e-12
-1.73874e-12
-3.18658e-13
-9.82298e-14
-4.18527e-14
-4.4825e-14
-1.16936e-13
-4.25042e-13
-1.13945e-12
-2.38521e-12
-1.00505e-10
-2.24783e-09
-8.1676e-09
-1.63043e-08
-2.381e-08
-2.87268e-08
-3.04393e-08
-2.93184e-08
-2.62264e-08
-2.21101e-08
-1.77536e-08
-1.36847e-08
-1.09855e-08
-1.20688e-08
-1.98091e-08
-3.54123e-08
-5.72351e-08
-8.16385e-08
-1.04841e-07
-1.24133e-07
-1.3821e-07
-1.4646e-07
-1.48612e-07
-1.44874e-07
-1.36048e-07
-1.23494e-07
-1.08758e-07
-9.3282e-08
-7.71549e-08
-8.18972e-09
-1.28911e-08
2.91374e-07
4.19171e-06
2.6884e-05
0.000154601
0.000710902
-2.6313e-13
-1.84721e-13
-4.27031e-14
-1.76683e-14
-1.76498e-14
-3.87904e-14
-1.22864e-13
-4.46145e-13
-1.17368e-12
-2.36453e-12
-2.73896e-11
-6.98169e-10
-2.98694e-09
-7.00749e-09
-1.17138e-08
-1.56873e-08
-1.79704e-08
-1.83431e-08
-1.71427e-08
-1.49447e-08
-1.23151e-08
-9.68446e-09
-7.73885e-09
-7.81371e-09
-1.13701e-08
-1.87037e-08
-2.82638e-08
-3.73464e-08
-4.41348e-08
-4.83009e-08
-5.12678e-08
-5.45042e-08
-5.76249e-08
-5.95018e-08
-5.92687e-08
-5.60594e-08
-5.08882e-08
-4.48951e-08
-3.90775e-08
-2.8576e-08
-4.82671e-10
5.63542e-09
1.50129e-07
1.52118e-06
9.65367e-06
5.5832e-05
-9.59487e-14
-5.78973e-14
-1.54717e-14
-6.67773e-15
-1.24863e-14
-3.73469e-14
-1.28659e-13
-4.61556e-13
-1.18311e-12
-2.3063e-12
-1.46504e-11
-3.25013e-10
-1.4196e-09
-3.44216e-09
-5.96879e-09
-8.29759e-09
-9.85478e-09
-1.04011e-08
-1.0013e-08
-8.95176e-09
-7.52883e-09
-6.01409e-09
-4.76201e-09
-4.34672e-09
-5.27042e-09
-7.25949e-09
-8.89347e-09
-7.32695e-09
-1.93213e-09
2.40282e-09
1.30705e-08
1.38808e-08
6.83726e-09
-2.32595e-25
-5.07906e-09
-7.7254e-09
-7.30628e-09
-5.24226e-09
-3.22324e-09
-2.33874e-09
-6.01543e-12
-9.56301e-11
5.49613e-09
5.85699e-08
5.14575e-07
4.17795e-06
-1.85354e-14
-9.3585e-15
-2.99497e-15
-2.17181e-15
-1.03267e-14
-3.73449e-14
-1.35156e-13
-4.75908e-13
-1.1782e-12
-2.2206e-12
-8.16383e-12
-1.35068e-10
-6.02095e-10
-1.52204e-09
-2.76177e-09
-4.01076e-09
-4.95418e-09
-5.40628e-09
-5.34631e-09
-4.87817e-09
-4.16174e-09
-3.35337e-09
-2.61647e-09
-2.14264e-09
-2.01261e-09
-1.89748e-09
-9.50566e-10
2.60162e-09
1.14465e-08
5.10681e-08
5.16003e-08
5.16005e-08
5.16622e-08
3.25793e-08
5.58238e-09
2.15539e-09
3.5531e-09
9.33289e-09
1.2869e-08
1.28885e-08
1.27314e-08
7.37232e-09
8.97938e-10
2.26891e-09
2.29274e-08
1.68647e-07
-9.34811e-16
-4.14898e-16
-3.15204e-16
-1.33146e-15
-9.90487e-15
-3.82961e-14
-1.4159e-13
-4.85959e-13
-1.15306e-12
-2.09018e-12
-5.47635e-12
-6.0523e-11
-2.68357e-10
-6.98322e-10
-1.30884e-09
-1.95585e-09
-2.47088e-09
-2.73973e-09
-2.73579e-09
-2.50644e-09
-2.13637e-09
-1.71198e-09
-1.30589e-09
-9.71875e-10
-7.02399e-10
-4.03399e-10
-5.65435e-11
1.36578e-08
4.79159e-08
4.97495e-08
5.11823e-08
5.1624e-08
5.02635e-08
3.94543e-08
1.14233e-08
3.10829e-09
5.66321e-09
9.70634e-09
1.08815e-08
9.69049e-09
6.54713e-09
2.32328e-09
5.25956e-10
5.4961e-10
1.36742e-09
1.14838e-08
-2.3346e-19
-2.04528e-17
-1.94646e-16
-1.40933e-15
-9.93185e-15
-3.92843e-14
-1.45967e-13
-4.85373e-13
-1.09691e-12
-1.90213e-12
-4.25053e-12
-3.35955e-11
-1.41474e-10
-3.62861e-10
-6.74673e-10
-1.00018e-09
-1.25132e-09
-1.37096e-09
-1.34957e-09
-1.21612e-09
-1.01709e-09
-7.973e-10
-5.89073e-10
-4.09197e-10
-2.57925e-10
-1.22804e-10
6.23256e-11
1.28254e-09
1.07722e-08
3.19327e-08
3.13226e-08
1.8548e-08
9.26748e-10
7.6725e-11
9.70342e-11
1.86626e-10
1.81145e-10
2.00577e-10
2.1224e-10
2.26271e-10
3.38982e-10
4.94448e-10
5.30336e-10
5.43539e-10
6.33223e-10
1.20668e-09
-7.81913e-19
-2.13439e-17
-2.10143e-16
-1.51307e-15
-9.89964e-15
-3.96072e-14
-1.46195e-13
-4.68292e-13
-1.0025e-12
-1.65719e-12
-3.38405e-12
-2.07596e-11
-8.04472e-11
-1.96659e-10
-3.51955e-10
-5.04255e-10
-6.10951e-10
-6.48888e-10
-6.19382e-10
-5.40952e-10
-4.37815e-10
-3.3069e-10
-2.3264e-10
-1.49225e-10
-7.7322e-11
-8.82496e-12
3.87256e-11
3.71518e-11
4.35086e-11
4.95356e-11
5.43523e-11
5.9125e-11
6.41979e-11
7.11574e-11
1.02305e-10
1.46706e-10
1.88957e-10
2.41653e-10
3.1894e-10
4.20396e-10
5.20675e-10
6.2325e-10
7.52307e-10
7.55511e-10
7.53439e-10
7.59858e-10
-1.07735e-18
-2.17138e-17
-2.19206e-16
-1.56962e-15
-9.65748e-15
-3.87688e-14
-1.40726e-13
-4.31723e-13
-8.71015e-13
-1.36999e-12
-2.62562e-12
-1.28085e-11
-4.46917e-11
-1.02237e-10
-1.73448e-10
-2.37035e-10
-2.7495e-10
-2.80159e-10
-2.56732e-10
-2.15105e-10
-1.66423e-10
-1.18687e-10
-7.56919e-11
-3.83174e-11
-1.13572e-28
5.04396e-11
1.02471e-10
1.00848e-10
8.81322e-11
7.53475e-11
7.23479e-11
7.83904e-11
1.06436e-10
1.61336e-10
2.23149e-10
2.80315e-10
3.40358e-10
4.02217e-10
4.62163e-10
5.19944e-10
5.71972e-10
6.30853e-10
8.03188e-10
8.97496e-10
8.8816e-10
7.75536e-10
-1.16846e-18
-2.1417e-17
-2.20013e-16
-1.56355e-15
-9.12496e-15
-3.64788e-14
-1.29032e-13
-3.76855e-13
-7.13035e-13
-1.06702e-12
-1.96533e-12
-7.84552e-12
-2.41647e-11
-5.07373e-11
-8.03006e-11
-1.03302e-10
-1.13458e-10
-1.09791e-10
-9.55759e-11
-7.58644e-11
-5.50199e-11
-3.52811e-11
-1.68428e-11
0
3.85723e-11
1.11882e-10
1.32544e-10
1.32544e-10
1.28347e-10
1.16325e-10
1.16339e-10
1.27024e-10
1.57403e-10
1.97716e-10
2.36106e-10
2.74971e-10
2.86134e-10
2.93346e-10
3.07938e-10
3.35446e-10
3.78566e-10
4.3447e-10
5.02621e-10
6.06734e-10
7.63728e-10
7.59879e-10
-1.15156e-18
-2.03972e-17
-2.11563e-16
-1.48731e-15
-8.28076e-15
-3.27232e-14
-1.11839e-13
-3.09041e-13
-5.45838e-13
-7.78864e-13
-1.40792e-12
-4.74359e-12
-1.27064e-11
-2.40271e-11
-3.49164e-11
-4.17677e-11
-4.30159e-11
-3.91314e-11
-3.19301e-11
-2.35272e-11
-1.53004e-11
-7.42132e-12
0
1.92384e-11
5.72207e-11
1.15878e-10
1.30398e-10
1.31356e-10
1.19527e-10
9.98798e-11
9.91068e-11
1.05391e-10
1.21178e-10
1.27185e-10
1.30754e-10
1.36567e-10
1.47327e-10
1.63538e-10
1.85144e-10
2.11041e-10
2.39641e-10
2.69954e-10
2.95123e-10
3.18553e-10
3.84154e-10
4.14184e-10
-1.06524e-18
-1.86838e-17
-1.94087e-16
-1.34432e-15
-7.16553e-15
-2.77825e-14
-9.10144e-14
-2.36405e-13
-3.88234e-13
-5.31076e-13
-9.58914e-13
-2.81255e-12
-6.51584e-12
-1.09427e-11
-1.44292e-11
-1.59223e-11
-1.52731e-11
-1.28944e-11
-9.6277e-12
-6.29226e-12
-3.17475e-12
0
6.79555e-12
2.28122e-11
4.76476e-11
7.21415e-11
9.36727e-11
8.40337e-11
5.44297e-11
3.9974e-11
4.21221e-11
4.74878e-11
5.33219e-11
6.01605e-11
6.80707e-11
7.62942e-11
8.46652e-11
9.45403e-11
1.08938e-10
1.29853e-10
1.4989e-10
1.76438e-10
2.08806e-10
2.08052e-10
3.84186e-10
1.68962e-09
-9.34734e-19
-1.63964e-17
-1.69172e-16
-1.14915e-15
-5.87327e-15
-2.21739e-14
-6.90916e-14
-1.67557e-13
-2.55172e-13
-3.37804e-13
-6.16926e-13
-1.61542e-12
-3.25165e-12
-4.83347e-12
-5.77562e-12
-5.88631e-12
-5.23507e-12
-3.99494e-12
-2.57963e-12
-1.3119e-12
-1.27862e-13
1.76764e-12
7.02361e-12
1.2893e-11
2.11284e-11
3.03969e-11
2.92029e-11
2.24634e-11
1.55064e-11
1.59916e-11
1.81815e-11
2.19567e-11
2.64976e-11
3.08231e-11
3.44142e-11
3.7489e-11
4.18352e-11
5.09236e-11
6.8295e-11
9.53262e-11
1.17603e-10
1.52001e-10
2.52074e-10
2.15266e-10
2.24079e-10
1.48206e-08
-7.81126e-19
-1.37284e-17
-1.39513e-16
-9.24686e-16
-4.53025e-15
-1.65245e-14
-4.86034e-14
-1.09295e-13
-1.54301e-13
-2.00499e-13
-3.72239e-13
-8.82424e-13
-1.55849e-12
-2.06742e-12
-2.26564e-12
-2.14994e-12
-1.74466e-12
-1.12026e-12
-5.33124e-13
-9.7669e-14
3.21587e-13
1.20957e-12
2.52521e-12
4.50472e-12
7.47206e-12
7.76956e-12
6.76932e-12
5.23103e-12
5.65736e-12
6.70455e-12
8.27109e-12
1.01408e-11
1.19967e-11
1.34842e-11
1.44798e-11
1.5863e-11
1.99152e-11
3.09273e-11
5.19977e-11
8.45688e-11
1.10091e-10
1.6909e-10
2.96709e-10
4.36925e-10
3.768e-10
3.9412e-10
-6.219e-19
-1.09157e-17
-1.08361e-16
-6.96852e-16
-3.26584e-15
-1.14163e-14
-3.14587e-14
-6.5154e-14
-8.55829e-14
-1.11164e-13
-2.08838e-13
-4.49472e-13
-7.04153e-13
-8.47634e-13
-8.6768e-13
-7.63854e-13
-5.31801e-13
-2.29681e-13
-2.44506e-14
7.53296e-14
1.8082e-13
4.29137e-13
8.88007e-13
1.43313e-12
1.87462e-12
1.78155e-12
1.51989e-12
1.71125e-12
2.11935e-12
2.64229e-12
3.27122e-12
3.96011e-12
4.5032e-12
4.85287e-12
5.20425e-12
6.2536e-12
1.03895e-11
2.21297e-11
4.50947e-11
8.18372e-11
1.12467e-10
1.90817e-10
2.5867e-10
4.97489e-10
3.98717e-10
4.19092e-10
-4.70723e-19
-8.19751e-18
-7.88495e-17
-4.88936e-16
-2.18367e-15
-7.2536e-15
-1.85853e-14
-3.52422e-14
-4.34864e-14
-5.75689e-14
-1.07805e-13
-2.09829e-13
-2.95292e-13
-3.29417e-13
-3.17558e-13
-2.47688e-13
-1.22977e-13
2.74443e-15
4.18188e-14
3.28408e-14
6.49718e-14
1.59842e-13
2.76719e-13
3.86531e-13
4.04316e-13
3.85342e-13
4.35376e-13
5.59278e-13
7.0821e-13
8.72629e-13
1.07566e-12
1.27152e-12
1.40198e-12
1.50149e-12
1.6799e-12
2.51799e-12
6.2424e-12
1.76155e-11
4.25331e-11
8.24653e-11
1.18976e-10
2.38003e-10
2.654e-10
4.90001e-10
2.37966e-09
5.82692e-10
-3.37246e-19
-5.77593e-18
-5.34025e-17
-3.17092e-16
-1.34224e-15
-4.19895e-15
-9.93013e-15
-1.7173e-14
-2.02566e-14
-2.77341e-14
-5.05723e-14
-8.85503e-14
-1.13868e-13
-1.19764e-13
-1.06026e-13
-6.4097e-14
-8.18097e-15
2.88081e-14
1.996e-14
9.80865e-15
2.45748e-14
5.16522e-14
7.70457e-14
9.56351e-14
9.36486e-14
1.00252e-13
1.25881e-13
1.60397e-13
1.93939e-13
2.43227e-13
3.00049e-13
3.43726e-13
3.73521e-13
4.07543e-13
5.17236e-13
1.16197e-12
4.36268e-12
1.57068e-11
4.26527e-11
8.79692e-11
1.36676e-10
2.76757e-10
2.93033e-10
3.40097e-10
3.15162e-08
1.76491e-08
-2.27139e-19
-3.78655e-18
-3.33845e-17
-1.88335e-16
-7.50234e-16
-2.18963e-15
-4.74737e-15
-7.48926e-15
-8.66171e-15
-1.22947e-14
-2.12611e-14
-3.3404e-14
-3.99732e-14
-3.94248e-14
-2.93834e-14
-8.89233e-15
7.53296e-15
1.15665e-14
2.18922e-15
2.87772e-15
8.30943e-15
1.58306e-14
2.18005e-14
2.50948e-14
2.35178e-14
2.55195e-14
3.01249e-14
3.62855e-14
4.55401e-14
5.83816e-14
6.97359e-14
7.84599e-14
8.67052e-14
1.02454e-13
1.79854e-13
6.94127e-13
3.63069e-12
1.54534e-11
4.58685e-11
9.80279e-11
1.68957e-10
3.20787e-10
5.53355e-10
8.27297e-10
4.10667e-08
3.08624e-08
-1.42398e-19
-2.28495e-18
-1.90541e-17
-1.01213e-16
-3.76129e-16
-1.01432e-15
-2.00604e-15
-2.90805e-15
-3.39346e-15
-4.92191e-15
-7.89181e-15
-1.11454e-14
-1.2472e-14
-1.09382e-14
-5.51199e-15
1.55061e-15
1.0596e-15
3.80913e-16
3.50711e-16
8.93258e-16
2.65577e-15
4.71923e-15
6.10294e-15
6.47235e-15
5.29284e-15
5.05133e-15
5.61907e-15
7.02485e-15
9.21915e-15
1.16212e-14
1.36977e-14
1.56432e-14
1.85035e-14
2.83138e-14
9.09049e-14
5.45589e-13
3.42854e-12
1.60288e-11
5.00896e-11
1.117e-10
2.03239e-10
3.74193e-10
1.11044e-09
1.84095e-09
4.09769e-08
1.92629e-08
-8.19338e-20
-1.25127e-18
-9.78247e-18
-4.84189e-17
-1.66155e-16
-4.10188e-16
-7.39101e-16
-1.00166e-15
-1.20438e-15
-1.73435e-15
-2.54188e-15
-3.23359e-15
-3.27859e-15
-2.24954e-15
-2.55158e-16
1.01562e-15
1.36749e-16
9.74421e-17
9.67867e-17
2.68481e-16
7.40802e-16
1.2209e-15
1.47888e-15
1.3943e-15
9.05353e-16
8.04954e-16
8.87671e-16
1.16871e-15
1.56721e-15
1.95904e-15
2.35436e-15
2.86824e-15
4.25535e-15
1.19588e-14
6.80379e-14
4.974e-13
3.37927e-12
1.66388e-11
5.41251e-11
1.23524e-10
2.28821e-10
4.07343e-10
1.73893e-09
2.80021e-09
3.12862e-08
7.14421e-08
-4.17143e-20
-5.91459e-19
-4.33244e-18
-1.99428e-17
-6.29925e-17
-1.4194e-16
-2.34355e-16
-3.04333e-16
-3.77522e-16
-5.21795e-16
-6.9156e-16
-7.79741e-16
-6.54364e-16
-2.6313e-16
1.41071e-16
6.88434e-17
2.65054e-17
2.13808e-17
2.14973e-17
6.64707e-17
1.64041e-16
2.47864e-16
2.83056e-16
2.2598e-16
1.26515e-16
1.09014e-16
1.20986e-16
1.66285e-16
2.2613e-16
2.89891e-16
3.7108e-16
5.54427e-16
1.47268e-15
8.08011e-15
5.95723e-14
4.65144e-13
3.28372e-12
1.69067e-11
5.6337e-11
1.29136e-10
2.41234e-10
4.23105e-10
2.01808e-09
9.7742e-09
2.66698e-08
4.11586e-07
-1.70192e-20
-2.26704e-19
-1.55892e-18
-6.68985e-18
-1.95574e-17
-4.06965e-17
-6.29084e-17
-7.97299e-17
-9.89375e-17
-1.28354e-16
-1.52292e-16
-1.45787e-16
-8.91341e-17
-4.65757e-18
1.53273e-17
5.20334e-18
5.78736e-18
3.87618e-18
4.1391e-18
1.24483e-17
2.70306e-17
3.75291e-17
4.08385e-17
2.72216e-17
1.4438e-17
1.24377e-17
1.40265e-17
2.02669e-17
2.88319e-17
3.93957e-17
6.00507e-17
1.52017e-16
8.26414e-16
6.26647e-15
4.99187e-14
4.0086e-13
2.91709e-12
1.54565e-11
5.35833e-11
1.29461e-10
2.4356e-10
4.16377e-10
2.26529e-09
1.07571e-08
7.56844e-08
4.12591e-07
-5.41674e-21
-6.81572e-20
-4.41309e-19
-1.77347e-18
-4.83615e-18
-9.41174e-18
-1.3837e-17
-1.71624e-17
-2.07155e-17
-2.4611e-17
-2.53014e-17
-1.92012e-17
-6.71456e-18
3.50225e-18
9.27951e-19
1.07582e-18
9.13991e-19
5.99337e-19
6.27604e-19
1.68919e-18
3.24935e-18
4.13956e-18
4.24497e-18
2.40199e-18
1.30874e-18
1.15815e-18
1.40308e-18
2.21295e-18
3.37176e-18
5.34513e-18
1.27788e-17
6.75594e-17
5.40379e-16
4.42363e-15
3.55945e-14
2.92111e-13
2.19463e-12
1.22203e-11
4.54534e-11
1.15981e-10
2.20058e-10
3.8232e-10
1.78418e-09
1.06192e-08
5.56968e-08
3.00283e-07
-1.27278e-21
-1.51828e-20
-9.29417e-20
-3.51822e-19
-9.0265e-19
-1.66145e-18
-2.34463e-18
-2.82594e-18
-3.22465e-18
-3.3956e-18
-2.87849e-18
-1.56387e-18
-1.22273e-19
3.30744e-19
1.26771e-19
1.57048e-19
1.23823e-19
7.34754e-20
7.14273e-20
1.59555e-19
2.70959e-19
3.17729e-19
2.9298e-19
1.4484e-19
9.07848e-20
8.80838e-20
1.29306e-19
2.24099e-19
3.83787e-19
8.72572e-19
4.28804e-18
3.58898e-17
3.1271e-16
2.57522e-15
2.11132e-14
1.77429e-13
1.3915e-12
8.39205e-12
3.45323e-11
9.59859e-11
1.9226e-10
3.37014e-10
1.07105e-09
7.10494e-09
3.85047e-08
2.06168e-07
-1.97751e-22
-2.24383e-21
-1.3048e-20
-4.68256e-20
-1.13963e-19
-2.0009e-19
-2.71809e-19
-3.14073e-19
-3.28974e-19
-2.9546e-19
-1.93379e-19
-6.22669e-20
1.63709e-20
9.44728e-21
1.68375e-20
1.83332e-20
1.41207e-20
6.87983e-21
5.74426e-21
9.30773e-21
1.35581e-20
1.4815e-20
1.07412e-20
5.48448e-21
4.55739e-21
5.95181e-21
1.148e-20
2.17941e-20
4.84353e-20
2.12918e-19
1.81279e-18
1.70497e-17
1.50527e-16
1.27113e-15
1.06623e-14
9.18567e-14
7.58753e-13
5.02719e-12
2.32637e-11
7.26631e-11
1.62317e-10
3.02651e-10
6.60909e-10
4.52256e-09
2.4197e-08
1.34129e-07
-1.53325e-23
-1.66097e-22
-9.22219e-22
-3.15732e-21
-7.33895e-21
-1.23498e-20
-1.60893e-20
-1.74777e-20
-1.62551e-20
-1.18648e-20
-5.42148e-21
-5.42454e-22
4.94418e-22
1.01403e-21
1.48937e-21
1.64951e-21
1.22784e-21
4.84018e-22
2.94411e-22
2.86496e-22
3.32468e-22
3.23738e-22
1.91092e-22
1.45882e-22
1.85482e-22
4.38748e-22
9.73176e-22
2.18876e-21
8.46455e-21
7.04865e-20
7.13636e-19
6.87599e-18
6.27532e-17
5.46131e-16
4.67307e-15
4.09685e-14
3.54769e-13
2.6029e-12
1.38622e-11
5.03737e-11
1.29988e-10
2.58636e-10
4.65914e-10
2.87466e-09
1.58814e-08
8.23767e-08
1.49222e-42
-5.98463e-47
-2.62119e-44
-3.28699e-42
-2.87085e-40
-1.94502e-38
-1.17322e-36
-1.18614e-34
-3.24607e-32
-1.40504e-30
3.50325e-25
1.13588e-23
2.48364e-23
6.29437e-23
9.11425e-23
9.99996e-23
7.43788e-23
2.70784e-23
1.04927e-23
5.90352e-24
4.14117e-24
3.26614e-24
3.02315e-24
3.96706e-24
1.17808e-23
3.24438e-23
7.86191e-23
2.77943e-22
2.19355e-21
2.34783e-20
2.44916e-19
2.43729e-18
2.30671e-17
2.07779e-16
1.81741e-15
1.60317e-14
1.42938e-13
1.16016e-12
7.22355e-12
3.09937e-11
9.3e-11
2.01545e-10
3.70576e-10
1.80194e-09
1.02716e-08
5.29457e-08
4.46537e-45
1.36658e-44
2.94402e-42
3.95584e-40
3.59028e-38
2.47817e-36
1.37308e-34
2.74286e-33
1.01465e-31
3.61761e-30
9.3212e-27
2.53928e-25
1.116e-24
2.3188e-24
3.11516e-24
3.2924e-24
2.36323e-24
9.70187e-25
4.20375e-25
2.14548e-25
1.3061e-25
1.09681e-25
1.1079e-25
2.31182e-25
7.68923e-25
2.16946e-24
7.62638e-24
5.78502e-23
6.46243e-22
7.129e-21
7.562e-20
7.71302e-19
7.53863e-18
7.04212e-17
6.33363e-16
5.63663e-15
5.09527e-14
4.44354e-13
3.17568e-12
1.61458e-11
5.76538e-11
1.43672e-10
3.00246e-10
1.15143e-09
6.56047e-09
3.35761e-08
1.37731e-46
2.19562e-45
1.77899e-43
2.45891e-41
2.24587e-39
8.23231e-38
-2.94017e-34
-1.53462e-32
-6.06524e-31
-2.17052e-29
4.40259e-27
2.27166e-26
4.40366e-26
5.63465e-26
5.75821e-26
3.55241e-26
1.96195e-26
1.60178e-26
1.44004e-26
1.07388e-26
7.11461e-27
5.89461e-27
5.77985e-27
1.12142e-26
4.06247e-26
1.713e-25
1.37466e-24
1.60286e-23
1.84299e-22
2.02397e-21
2.14914e-20
2.21248e-19
2.20844e-18
2.12817e-17
1.97509e-16
1.78819e-15
1.62499e-14
1.46845e-13
1.16772e-12
6.99725e-12
3.01795e-11
9.00423e-11
2.23351e-10
8.22642e-10
4.34123e-09
2.21922e-08
6.86026e-49
-5.63511e-45
-8.82085e-43
-9.14993e-41
-7.10928e-39
-4.37305e-37
-3.10449e-36
3.7782e-36
1.03159e-34
3.38517e-31
1.14639e-28
1.17582e-27
2.9383e-27
4.01575e-27
4.22585e-27
2.75546e-27
1.54249e-27
1.20625e-27
9.9331e-28
7.12901e-28
4.48911e-28
3.37407e-28
3.09058e-28
5.0132e-28
2.61511e-27
3.04511e-26
3.83511e-25
4.47701e-24
5.02214e-23
5.46254e-22
5.75606e-21
5.89579e-20
5.89317e-19
5.75495e-18
5.46995e-17
5.0581e-16
4.61549e-15
4.19716e-14
3.57009e-13
2.48904e-12
1.31098e-11
4.586e-11
1.37567e-10
6.23509e-10
3.01848e-09
1.53296e-08
3.28712e-50
2.92149e-49
6.60102e-47
8.35081e-45
7.07899e-43
4.52483e-41
2.32033e-39
7.24367e-38
2.55784e-36
1.77769e-34
4.2504e-32
2.80662e-30
1.57069e-29
3.66433e-29
5.70649e-29
7.17634e-29
7.85939e-29
7.62526e-29
5.47667e-29
3.63432e-29
2.14659e-29
1.43569e-29
1.59539e-29
6.9162e-29
7.45101e-28
8.8704e-27
1.0298e-25
1.16928e-24
1.29126e-23
1.38758e-22
1.44817e-21
1.47075e-20
1.4507e-19
1.40004e-18
1.32886e-17
1.2364e-16
1.13013e-15
1.02507e-14
9.03251e-14
7.07012e-13
4.3893e-12
1.86762e-11
7.152e-11
3.57374e-10
1.55753e-09
8.1829e-09
8.30026e-52
1.42215e-50
1.70276e-48
2.27548e-46
2.03612e-44
1.26453e-42
-3.86117e-40
-1.58576e-38
-4.68049e-37
9.5785e-36
1.48275e-33
1.57479e-31
1.2032e-30
3.08187e-30
4.7936e-30
5.70056e-30
5.91126e-30
4.79518e-30
3.22433e-30
2.08482e-30
1.17528e-30
6.37218e-31
2.13884e-30
1.8504e-29
2.12468e-28
2.43641e-27
2.7186e-26
2.96155e-25
3.17872e-24
3.32408e-23
3.39721e-22
3.40298e-21
3.31108e-20
3.13794e-19
2.89529e-18
2.60867e-17
2.3359e-16
2.08628e-15
1.84838e-14
1.5536e-13
1.09036e-12
5.62666e-12
2.63926e-11
1.41616e-10
5.97213e-10
2.81774e-09
1.7561e-53
-1.25281e-50
-1.58823e-48
-1.30318e-46
-7.88472e-45
-3.80411e-43
-5.72776e-43
1.10243e-40
3.54198e-39
1.50441e-37
3.28509e-35
4.76228e-33
4.50548e-32
1.32469e-31
2.30743e-31
2.97437e-31
3.20822e-31
3.0453e-31
1.97336e-31
1.23011e-31
7.09116e-32
6.19139e-32
3.84354e-31
4.43539e-30
5.26325e-29
6.08699e-28
6.83427e-27
7.45953e-26
7.92018e-25
8.18966e-24
8.2493e-23
8.09126e-22
7.72505e-21
7.16997e-20
6.45816e-19
5.63281e-18
4.70513e-17
3.83067e-16
3.23893e-15
2.79313e-14
2.21757e-13
1.33145e-12
6.44774e-12
3.20824e-11
1.44109e-10
6.16731e-10
1.77174e-55
7.78209e-54
1.987e-51
2.2736e-49
1.46569e-47
7.55976e-46
3.25437e-44
8.76797e-43
2.7436e-41
1.72166e-39
1.58512e-37
5.67277e-35
1.21874e-33
4.94952e-33
1.01956e-32
1.43494e-32
1.59943e-32
1.55956e-32