/*--------------------------------*- C++ -*----------------------------------*\
  =========                 |
  \\      /  F ield         | OpenFOAM: The Open Source CFD Toolbox
   \\    /   O peration     | Website:  https://openfoam.org
    \\  /    A nd           | Version:  9
     \\/     M anipulation  |
\*---------------------------------------------------------------------------*/
FoamFile
{
    format      ascii;
    class       surfaceScalarField;
    location    "0.35";
    object      alphaPhi0.water;
}
// * * * * * * * * * * * * * * * * * * * * * * * * * * * * * * * * * * * * * //

dimensions      [0 3 -1 0 0 0 0];

internalField   nonuniform List<scalar> 
15214
(
-3.30288e-06
3.30288e-06
-4.08415e-06
7.8127e-07
-2.92283e-06
-1.16132e-06
-9.11463e-07
-2.01136e-06
1.39042e-06
-2.30188e-06
3.7281e-06
-2.33769e-06
5.97621e-06
-2.2481e-06
8.09308e-06
-2.11688e-06
1.00786e-05
-1.98552e-06
1.195e-05
-1.87142e-06
1.37307e-05
-1.78063e-06
1.5444e-05
-1.71336e-06
1.71109e-05
-1.66692e-06
1.87484e-05
-1.63748e-06
2.03695e-05
-1.62107e-06
2.19835e-05
-1.61399e-06
2.35964e-05
-1.61291e-06
2.52113e-05
-1.61489e-06
2.68286e-05
-1.61736e-06
2.84466e-05
-1.61795e-06
3.0061e-05
-1.61441e-06
3.16654e-05
-1.60443e-06
3.3251e-05
-1.58556e-06
3.4806e-05
-1.55499e-06
3.63154e-05
-1.50944e-06
3.77603e-05
-1.44489e-06
3.91167e-05
-1.35637e-06
4.03542e-05
-1.23754e-06
4.14342e-05
-1.07994e-06
4.23055e-05
-8.71314e-07
4.28975e-05
-5.92036e-07
4.31016e-05
-2.04115e-07
4.27427e-05
3.58919e-07
4.16393e-05
1.10345e-06
3.96288e-05
2.01047e-06
3.65469e-05
3.08191e-06
3.22495e-05
4.2974e-06
2.66626e-05
5.5869e-06
1.98553e-05
6.80733e-06
1.20987e-05
7.75653e-06
3.86384e-06
8.23488e-06
-4.08288e-06
8.22722e-06
-1.12611e-05
7.11249e-06
-1.54594e-05
4.08349e-06
-1.2465e-05
-4.11844e-06
-1.24648e-05
-1.63397e-06
4.93684e-06
-1.20983e-06
3.57136e-07
9.1881e-08
-2.46304e-06
1.86838e-06
-3.78786e-06
3.8889e-06
-4.3224e-06
5.97016e-06
-4.41896e-06
8.02623e-06
-4.30417e-06
1.00192e-05
-4.10984e-06
1.19396e-05
-3.90589e-06
1.37932e-05
-3.72504e-06
1.55922e-05
-3.57965e-06
1.73501e-05
-3.4713e-06
1.90795e-05
-3.39626e-06
2.07906e-05
-3.34863e-06
2.24915e-05
-3.32198e-06
2.41877e-05
-3.31013e-06
2.58823e-05
-3.30749e-06
2.75764e-05
-3.309e-06
2.92691e-05
-3.31011e-06
3.09577e-05
-3.30656e-06
3.26375e-05
-3.29415e-06
3.43016e-05
-3.26856e-06
3.59411e-05
-3.22504e-06
3.75443e-05
-3.15818e-06
3.90964e-05
-3.06159e-06
4.05791e-05
-2.92753e-06
4.19692e-05
-2.74647e-06
4.32381e-05
-2.50649e-06
4.43506e-05
-2.19237e-06
4.52636e-05
-1.78434e-06
4.5928e-05
-1.25646e-06
4.62992e-05
-5.75332e-07
4.63474e-05
3.10773e-07
4.59957e-05
1.45515e-06
4.51059e-05
2.90024e-06
4.35076e-05
4.68018e-06
4.09971e-05
6.80794e-06
3.73445e-05
9.23951e-06
3.23302e-05
1.18215e-05
2.58406e-05
1.42462e-05
1.80283e-05
1.60472e-05
9.45403e-06
1.68015e-05
1.60059e-06
1.55353e-05
-4.09284e-06
9.616e-06
-6.45514e-06
-1.7533e-06
-1.89198e-05
-1.03864e-07
5.04071e-06
7.30545e-07
-4.77273e-07
2.05411e-06
-3.7866e-06
3.72819e-06
-5.46195e-06
5.56996e-06
-6.16417e-06
7.47405e-06
-6.32304e-06
9.38118e-06
-6.21131e-06
1.12628e-05
-5.99146e-06
1.31089e-05
-5.75199e-06
1.49198e-05
-5.53598e-06
1.67008e-05
-5.36063e-06
1.84587e-05
-5.22919e-06
2.02003e-05
-5.13787e-06
2.19315e-05
-5.07979e-06
2.36567e-05
-5.04717e-06
2.53788e-05
-5.03232e-06
2.70994e-05
-5.02807e-06
2.88183e-05
-5.02783e-06
3.05336e-05
-5.0255e-06
3.22423e-05
-5.0152e-06
3.39392e-05
-4.99107e-06
3.56175e-05
-4.94689e-06
3.72683e-05
-4.87583e-06
3.88802e-05
-4.77002e-06
4.04388e-05
-4.6202e-06
4.19264e-05
-4.41518e-06
4.33213e-05
-4.14134e-06
4.45967e-05
-3.78189e-06
4.57203e-05
-3.31599e-06
4.66537e-05
-2.71778e-06
4.73526e-05
-1.95528e-06
4.77673e-05
-9.90084e-07
4.78513e-05
2.26815e-07
4.75515e-05
1.75491e-06
4.68001e-05
3.65166e-06
4.55143e-05
5.96602e-06
4.3597e-05
8.72521e-06
4.09314e-05
1.19051e-05
3.73738e-05
1.53791e-05
3.27705e-05
1.88495e-05
2.70425e-05
2.17752e-05
2.04534e-05
2.33906e-05
1.35466e-05
2.24533e-05
6.81653e-06
1.66988e-05
1.54592e-06
3.70492e-06
-1.73713e-05
8.59499e-07
4.18121e-06
1.97518e-06
-1.59296e-06
3.43264e-06
-5.24406e-06
5.08982e-06
-7.11913e-06
6.84224e-06
-7.91659e-06
8.63324e-06
-8.11404e-06
1.04333e-05
-8.01136e-06
1.22276e-05
-7.78578e-06
1.401e-05
-7.53434e-06
1.57791e-05
-7.30509e-06
1.75364e-05
-7.11793e-06
1.92844e-05
-6.97724e-06
2.10261e-05
-6.8795e-06
2.27638e-05
-6.81754e-06
2.44996e-05
-6.7829e-06
2.62343e-05
-6.76702e-06
2.79679e-05
-6.76172e-06
2.96994e-05
-6.75928e-06
3.14263e-05
-6.75239e-06
3.31449e-05
-6.73385e-06
3.48502e-05
-6.6963e-06
3.65351e-05
-6.63186e-06
3.8191e-05
-6.53175e-06
3.98069e-05
-6.38584e-06
4.13689e-05
-6.18223e-06
4.28603e-05
-5.90663e-06
4.42607e-05
-5.54171e-06
4.55453e-05
-5.06643e-06
4.66844e-05
-4.45512e-06
4.76433e-05
-3.67674e-06
4.83823e-05
-2.6942e-06
4.88566e-05
-1.4644e-06
4.902e-05
6.33802e-08
4.88261e-05
1.94886e-06
4.82266e-05
4.25115e-06
4.71715e-05
7.02107e-06
4.56097e-05
1.0287e-05
4.34849e-05
1.403e-05
4.07236e-05
1.81403e-05
3.72211e-05
2.2352e-05
3.2846e-05
2.61503e-05
2.7551e-05
2.86856e-05
2.1433e-05
2.85713e-05
1.4497e-05
2.36518e-05
6.81733e-06
1.14338e-05
-1.05466e-05
1.22133e-06
2.95988e-06
2.71274e-06
-3.08436e-06
4.35837e-06
-6.88968e-06
6.06223e-06
-8.82299e-06
7.78259e-06
-9.63695e-06
9.5081e-06
-9.83955e-06
1.12369e-05
-9.74014e-06
1.29684e-05
-9.51726e-06
1.47019e-05
-9.26785e-06
1.64369e-05
-9.04007e-06
1.81731e-05
-8.85413e-06
1.99106e-05
-8.71473e-06
2.16495e-05
-8.61849e-06
2.33902e-05
-8.55819e-06
2.51324e-05
-8.52509e-06
2.68755e-05
-8.51018e-06
2.86184e-05
-8.50463e-06
3.03591e-05
-8.49998e-06
3.20947e-05
-8.48795e-06
3.38211e-05
-8.46028e-06
3.55331e-05
-8.40831e-06
3.7224e-05
-8.3227e-06
3.88851e-05
-8.19291e-06
4.05061e-05
-8.00679e-06
4.20739e-05
-7.75003e-06
4.35728e-05
-7.40555e-06
4.49839e-05
-6.95277e-06
4.62843e-05
-6.3669e-06
4.74473e-05
-5.61811e-06
4.84415e-05
-4.67096e-06
4.92314e-05
-3.4841e-06
4.97776e-05
-2.0106e-06
5.00387e-05
-1.97676e-07
4.99745e-05
2.01302e-06
4.95465e-05
4.67917e-06
4.87189e-05
7.8487e-06
4.74582e-05
1.15476e-05
4.57292e-05
1.57591e-05
4.34817e-05
2.03878e-05
4.06299e-05
2.52038e-05
3.70272e-05
2.9753e-05
3.24799e-05
3.32329e-05
2.67596e-05
3.42916e-05
1.9532e-05
3.08802e-05
1.04996e-05
2.04669e-05
-6.58244e-08
1.37218e-06
1.58769e-06
3.15861e-06
-4.87079e-06
4.97104e-06
-8.70211e-06
6.72984e-06
-1.05818e-05
8.44067e-06
-1.13478e-05
1.01274e-05
-1.15263e-05
1.18095e-05
-1.14222e-05
1.34975e-05
-1.12053e-05
1.5196e-05
-1.09663e-05
1.69057e-05
-1.07498e-05
1.86258e-05
-1.05743e-05
2.03551e-05
-1.0444e-05
2.20921e-05
-1.03555e-05
2.38352e-05
-1.03013e-05
2.5583e-05
-1.02728e-05
2.73335e-05
-1.02607e-05
2.90847e-05
-1.02558e-05
3.08338e-05
-1.02491e-05
3.25776e-05
-1.02317e-05
3.43118e-05
-1.01944e-05
3.6031e-05
-1.01276e-05
3.77288e-05
-1.00205e-05
3.93969e-05
-9.86107e-06
4.10256e-05
-9.63543e-06
4.26026e-05
-9.32711e-06
4.41137e-05
-8.91657e-06
4.55413e-05
-8.3804e-06
4.6865e-05
-7.69057e-06
4.80605e-05
-6.81365e-06
4.91e-05
-5.71043e-06
4.99518e-05
-4.33593e-06
5.05814e-05
-2.64018e-06
5.09527e-05
-5.69004e-07
5.10309e-05
1.93483e-06
5.07837e-05
4.92641e-06
5.01822e-05
8.45022e-06
4.91995e-05
1.25302e-05
4.78055e-05
1.71531e-05
4.5953e-05
2.22403e-05
4.35545e-05
2.76023e-05
4.0447e-05
3.28605e-05
3.63577e-05
3.73222e-05
3.08581e-05
3.97912e-05
2.33115e-05
3.84269e-05
1.29555e-05
3.08231e-05
1.28784e-05
1.49783e-06
8.98671e-08
3.46868e-06
-6.84165e-06
5.38239e-06
-1.06158e-05
7.1693e-06
-1.23687e-05
8.86791e-06
-1.30464e-05
1.05252e-05
-1.31836e-05
1.21736e-05
-1.30706e-05
1.38307e-05
-1.28624e-05
1.5504e-05
-1.26397e-05
1.71956e-05
-1.24413e-05
1.89044e-05
-1.22831e-05
2.06283e-05
-1.21679e-05
2.23646e-05
-1.20918e-05
2.41108e-05
-1.20475e-05
2.58641e-05
-1.20261e-05
2.76218e-05
-1.20184e-05
2.9381e-05
-1.2015e-05
3.11386e-05
-1.20066e-05
3.28907e-05
-1.19838e-05
3.4633e-05
-1.19368e-05
3.63604e-05
-1.18549e-05
3.80664e-05
-1.17265e-05
3.97435e-05
-1.15381e-05
4.13824e-05
-1.12743e-05
4.29721e-05
-1.09168e-05
4.44995e-05
-1.0444e-05
4.59491e-05
-9.82997e-06
4.73025e-05
-9.04401e-06
4.85385e-05
-8.04959e-06
4.96322e-05
-6.80419e-06
5.0556e-05
-5.2597e-06
5.12795e-05
-3.36367e-06
5.17714e-05
-1.06088e-06
5.20014e-05
1.70483e-06
5.19418e-05
4.98597e-06
5.15679e-05
8.82412e-06
5.08557e-05
1.32424e-05
4.97756e-05
1.82332e-05
4.82788e-05
2.37371e-05
4.62721e-05
2.9609e-05
4.35776e-05
3.5555e-05
3.98716e-05
4.10282e-05
3.45941e-05
4.50686e-05
2.68661e-05
4.61549e-05
1.55973e-05
4.20918e-05
2.84712e-05
1.63078e-06
-1.54091e-06
3.70931e-06
-8.92018e-06
5.65946e-06
-1.2566e-05
7.43863e-06
-1.41479e-05
9.11121e-06
-1.4719e-05
1.07378e-05
-1.48102e-05
1.23571e-05
-1.46898e-05
1.39893e-05
-1.44947e-05
1.56433e-05
-1.42937e-05
1.73212e-05
-1.41192e-05
1.90217e-05
-1.39836e-05
2.0742e-05
-1.38882e-05
2.24786e-05
-1.38285e-05
2.42281e-05
-1.3797e-05
2.59869e-05
-1.37849e-05
2.77515e-05
-1.3783e-05
2.95184e-05
-1.3782e-05
3.12841e-05
-1.37723e-05
3.30445e-05
-1.37443e-05
3.47953e-05
-1.36876e-05
3.65313e-05
-1.35909e-05
3.82465e-05
-1.34417e-05
3.99339e-05
-1.32255e-05
4.15849e-05
-1.29254e-05
4.31898e-05
-1.25217e-05
4.47368e-05
-1.1991e-05
4.62124e-05
-1.13056e-05
4.76008e-05
-1.04323e-05
4.88833e-05
-9.33217e-06
5.00388e-05
-7.95962e-06
5.10428e-05
-6.26373e-06
5.1869e-05
-4.18984e-06
5.249e-05
-1.68193e-06
5.28797e-05
1.31515e-06
5.30143e-05
4.85141e-06
5.28724e-05
8.96601e-06
5.24329e-05
1.36819e-05
5.16684e-05
1.89976e-05
5.05316e-05
2.4874e-05
4.89305e-05
3.121e-05
4.66851e-05
3.78004e-05
4.34506e-05
4.42628e-05
3.85889e-05
4.99303e-05
3.09947e-05
5.37491e-05
1.90075e-05
5.4079e-05
4.74761e-05
1.771e-06
-3.3119e-06
3.90283e-06
-1.1052e-05
5.83765e-06
-1.45008e-05
7.57768e-06
-1.58879e-05
9.2093e-06
-1.63506e-05
1.08001e-05
-1.64009e-05
1.23899e-05
-1.62796e-05
1.39989e-05
-1.61038e-05
1.56356e-05
-1.59303e-05
1.73014e-05
-1.5785e-05
1.89946e-05
-1.56768e-05
2.07117e-05
-1.56052e-05
2.24484e-05
-1.55653e-05
2.42007e-05
-1.55492e-05
2.59641e-05
-1.55483e-05
2.77346e-05
-1.55536e-05
2.95083e-05
-1.55557e-05
3.12813e-05
-1.55452e-05
3.30494e-05
-1.55123e-05
3.48081e-05
-1.54463e-05
3.65526e-05
-1.53354e-05
3.82771e-05
-1.51663e-05
3.99752e-05
-1.49236e-05
4.16393e-05
-1.45895e-05
4.32605e-05
-1.41429e-05
4.48289e-05
-1.35593e-05
4.63328e-05
-1.28095e-05
4.7759e-05
-1.18586e-05
4.90923e-05
-1.06654e-05
5.03145e-05
-9.18182e-06
5.14048e-05
-7.35405e-06
5.23403e-05
-5.12529e-06
5.3097e-05
-2.43871e-06
5.36526e-05
7.59634e-07
5.39868e-05
4.51719e-06
5.40823e-05
8.87045e-06
5.39227e-05
1.38415e-05
5.34865e-05
1.94338e-05
5.27356e-05
2.56249e-05
5.15929e-05
3.23527e-05
4.99007e-05
3.94926e-05
4.73419e-05
4.68216e-05
4.32885e-05
5.39837e-05
3.65095e-05
6.05281e-05
2.45964e-05
6.59921e-05
7.20728e-05
1.91072e-06
-5.22263e-06
4.05387e-06
-1.31952e-05
5.93553e-06
-1.63824e-05
7.61411e-06
-1.75665e-05
9.19355e-06
-1.793e-05
1.07433e-05
-1.79507e-05
1.23015e-05
-1.78378e-05
1.38865e-05
-1.76887e-05
1.55052e-05
-1.7549e-05
1.71584e-05
-1.74382e-05
1.88434e-05
-1.73617e-05
2.0556e-05
-1.73178e-05
2.22913e-05
-1.73006e-05
2.40446e-05
-1.73024e-05
2.58108e-05
-1.73146e-05
2.75855e-05
-1.73283e-05
2.93643e-05
-1.73345e-05
3.11429e-05
-1.73239e-05
3.29171e-05
-1.72866e-05
3.46825e-05
-1.72117e-05
3.64344e-05
-1.70873e-05
3.81674e-05
-1.68993e-05
3.98755e-05
-1.66317e-05
4.1552e-05
-1.6266e-05
4.31892e-05
-1.57801e-05
4.47785e-05
-1.51487e-05
4.63108e-05
-1.43417e-05
4.77755e-05
-1.33233e-05
4.91607e-05
-1.20506e-05
5.04519e-05
-1.0473e-05
5.16317e-05
-8.53385e-06
5.26802e-05
-6.17382e-06
5.35767e-05
-3.33517e-06
5.43017e-05
3.46476e-08
5.48389e-05
3.97996e-06
5.51757e-05
8.53361e-06
5.53025e-05
1.37148e-05
5.52081e-05
1.95282e-05
5.4872e-05
2.5961e-05
5.42475e-05
3.29773e-05
5.32305e-05
4.05095e-05
5.1598e-05
4.84542e-05
4.88745e-05
5.67072e-05
4.3983e-05
6.54196e-05
3.34617e-05
7.65135e-05
0.000105534
1.11421e-29
-1.69044e-28
-2.85042e-29
5.11895e-29
-3.87828e-29
8.79554e-29
-4.67174e-30
1.67298e-29
-3.59443e-31
9.13295e-31
-2.4518e-32
3.62318e-32
-8.55059e-34
1.18319e-33
-1.14236e-35
1.48196e-35
-3.22284e-36
-3.67675e-37
-1.77102e-36
-3.55987e-36
-1.11218e-36
-4.61172e-36
-5.49111e-37
-3.53321e-36
-1.6858e-37
-1.55035e-36
-2.84292e-38
-3.86438e-37
-2.67286e-39
-5.51966e-38
-1.43759e-40
-4.53934e-39
-4.78776e-42
-1.95947e-40
-1.19203e-43
-2.26119e-42
-3.05473e-45
-7.2425e-44
-4.95284e-47
-2.78445e-45
4.91127e-48
-1.60107e-46
7.55208e-49
-1.02894e-47
6.27351e-50
-5.89946e-49
3.91252e-51
-2.72015e-50
1.98715e-52
-1.04816e-51
8.41943e-54
-3.20884e-53
2.98822e-55
-6.54742e-55
8.96697e-57
-3.58731e-57
2.30983e-58
1.043e-58
4.99041e-60
5.90066e-60
8.73413e-62
1.96902e-61
1.20224e-63
4.68757e-63
1.2442e-65
8.48512e-65
9.07034e-68
1.13876e-66
4.21604e-70
1.0804e-68
1.04174e-72
6.69233e-71
9.02411e-76
2.2788e-73
-1.12066e-80
3.01051e-76
-3.56581e-81
4.71806e-80
-9.00454e-81
-3.95698e-28
-2.09091e-29
-1.43753e-27
3.6148e-27
-1.33004e-27
4.25975e-27
-2.89756e-28
1.43016e-27
-4.0461e-29
1.5897e-28
-3.94178e-30
1.22619e-29
-2.55972e-31
5.83562e-31
-1.10599e-32
1.18993e-32
-6.32497e-34
-4.38785e-34
-1.9686e-34
-4.2221e-34
-1.24122e-34
-7.92645e-35
-7.63736e-35
-5.43714e-35
-2.85499e-35
-5.21119e-35
-5.32171e-36
-2.47572e-35
-5.39482e-37
-5.079e-36
-3.12988e-38
-5.39525e-37
-1.06088e-39
-3.13659e-38
-2.2635e-41
-7.31203e-40
-3.80903e-43
-1.89215e-41
-6.90301e-45
-3.91104e-43
-3.98938e-47
-1.05466e-44
1.22864e-47
-4.49315e-46
1.31184e-48
-2.18035e-47
8.71109e-50
-9.93892e-49
4.46154e-51
-3.5704e-50
1.88104e-52
-1.02883e-51
6.67621e-54
-2.19561e-53
2.00125e-55
-2.38123e-55
5.05558e-57
5.22674e-57
1.06661e-58
3.94635e-58
1.84278e-60
1.35635e-59
2.53774e-62
3.26292e-61
2.69241e-64
5.91863e-63
2.09974e-66
8.07815e-65
1.1234e-68
8.05374e-67
3.70794e-71
5.52883e-69
6.17409e-74
2.36185e-71
3.33502e-77
5.07151e-74
-3.67944e-83
3.15205e-77
-4.44274e-80
-2.73834e-26
2.8836e-26
-5.83207e-26
1.55287e-25
-5.27897e-26
1.68444e-25
-1.27586e-26
6.7316e-26
-2.21784e-27
8.69657e-27
-2.8918e-28
8.67506e-28
-2.7789e-29
5.57745e-29
-2.1338e-30
1.51668e-30
-1.90057e-31
-1.34258e-31
-3.39463e-32
-4.16048e-32
-1.65218e-32
-1.33616e-32
-8.79749e-33
-8.14488e-33
-3.00673e-33
-6.36069e-33
-5.40447e-34
-2.70811e-33
-5.48948e-35
-5.37208e-34
-3.29097e-36
-5.78571e-35
-1.16698e-37
-3.61882e-36
-2.5162e-39
-1.29513e-37
-3.54852e-41
-2.75839e-39
-3.83489e-43
-4.99308e-41
-3.17428e-45
-7.49349e-43
7.7059e-47
-1.30777e-44
1.04221e-47
-3.71441e-46
7.1673e-49
-3.70318e-47
3.54444e-50
-1.15455e-48
1.40926e-51
-1.54234e-50
4.70045e-53
-2.92703e-52
1.33318e-54
-3.59458e-54
3.21835e-56
2.38059e-56
6.57729e-58
3.02734e-57
1.11864e-59
1.07376e-58
1.54984e-61
2.5886e-60
1.70426e-63
4.71803e-62
1.43501e-65
6.60164e-64
8.79549e-68
6.9644e-66
3.63762e-70
5.30556e-68
8.91199e-73
2.7125e-70
9.95297e-76
7.99114e-73
7.27866e-79
9.22163e-76
-8.79343e-80
-6.92562e-25
1.14292e-24
-1.33499e-24
3.95423e-24
-1.35238e-24
4.28847e-24
-3.68905e-25
1.94523e-24
-8.21566e-26
2.88292e-25
-1.41309e-26
3.76862e-26
-1.87102e-27
3.15727e-27
-2.19638e-28
1.00521e-28
-2.90182e-29
-2.8927e-29
-4.5201e-30
-1.06596e-29
-1.50105e-30
-2.18441e-30
-6.73054e-31
-8.57511e-31
-2.102e-31
-5.23762e-31
-3.6316e-32
-1.98549e-31
-3.67473e-33
-3.77415e-32
-2.25948e-34
-4.06702e-33
-8.42993e-36
-2.63323e-34
-1.93556e-37
-1.03044e-35
-2.86375e-39
-2.62225e-37
-2.87216e-41
-4.99275e-39
-1.72811e-43
-7.20037e-41
6.66397e-46
-8.49518e-43
8.11884e-47
-1.02403e-44
4.45379e-48
-1.33587e-46
2.21838e-49
-2.40684e-48
8.46211e-51
-1.63013e-49
2.63452e-52
-4.10683e-51
6.99979e-54
-4.70928e-53
1.60194e-55
1.22546e-56
3.14037e-57
1.65408e-56
5.2005e-59
6.05648e-58
7.15324e-61
1.44803e-59
8.00086e-63
2.62105e-61
7.0729e-65
3.69686e-63
4.74586e-67
4.02836e-65
2.27135e-69
3.28276e-67
6.97581e-72
1.88295e-69
1.12774e-74
6.71713e-72
2.12471e-77
1.1498e-74
2.98712e-77
-1.12472e-23
2.32005e-23
-2.45471e-23
7.44953e-23
-2.68644e-23
8.27117e-23
-8.18554e-24
4.22106e-23
-2.19993e-24
6.8638e-24
-4.64631e-25
1.09318e-24
-8.30663e-26
1.0981e-25
-1.49069e-26
3.44279e-27
-2.36823e-27
-3.27626e-27
-3.21396e-28
-1.08161e-27
-9.5359e-29
-1.51509e-28
-3.82031e-29
-6.24277e-29
-1.10159e-29
-3.15897e-29
-1.82821e-30
-1.08659e-29
-1.83727e-31
-1.98027e-30
-1.15272e-32
-2.12674e-31
-4.5018e-34
-1.41887e-32
-1.10412e-35
-6.09043e-34
-1.76898e-37
-1.80847e-35
-1.93039e-39
-3.72351e-37
-1.21622e-41
-5.85692e-39
2.11779e-44
-7.27036e-41
1.66857e-44
-7.67921e-43
1.73639e-46
-5.02517e-44
8.71155e-49
-2.2154e-46
1.08717e-49
-6.01838e-49
1.35874e-51
-7.77899e-51
3.37039e-53
-1.473e-52
7.26154e-55
-8.16366e-55
1.361e-56
7.6975e-56
2.18333e-58
2.93164e-57
2.95877e-60
6.93653e-59
3.32341e-62
1.24142e-60
3.01893e-64
1.74994e-62
2.14043e-66
1.9396e-64
1.11979e-68
1.64685e-66
3.94382e-71
1.01461e-68
8.03554e-74
4.12176e-71
2.18173e-76
9.26775e-74
4.97649e-76
-1.5154e-22
3.51808e-22
-3.60458e-22
1.08511e-21
-3.93396e-22
1.19999e-21
-1.19439e-22
6.10855e-22
-3.69048e-23
9.97721e-23
-9.42253e-24
1.84841e-23
-2.21804e-24
2.15022e-24
-4.48758e-25
3.29438e-26
-6.96295e-26
-8.62614e-26
-1.10632e-26
-2.04053e-26
-4.28068e-27
-5.53707e-27
-1.71796e-27
-3.44962e-27
-4.60543e-28
-1.5721e-27
-7.34683e-29
-4.74351e-28
-7.32193e-30
-8.30844e-29
-4.68626e-31
-8.90817e-30
-1.90777e-32
-6.47578e-31
-4.94048e-34
-3.08716e-32
-8.51472e-36
-9.72578e-34
-1.01354e-37
-2.1711e-35
-6.88708e-40
-3.78231e-37
2.34384e-42
-5.29511e-39
1.66986e-42
-7.00493e-41
6.31746e-44
-5.65501e-42
1.0739e-45
-8.96948e-44
1.14977e-47
-8.24625e-46
3.91118e-51
-5.11474e-48
1.53981e-52
-1.12176e-51
3.81875e-54
-3.96439e-54
5.71803e-56
3.18925e-55
8.79489e-58
1.36869e-56
1.16509e-59
3.18514e-58
1.30277e-61
5.60348e-60
1.19789e-63
7.83355e-62
8.75774e-66
8.72972e-64
4.82955e-68
7.58441e-66
1.85065e-70
4.90336e-68
4.34087e-73
2.182e-70
1.29824e-75
5.96763e-73
3.96524e-75
-1.50703e-21
3.74125e-21
-3.4038e-21
1.02162e-20
-3.30529e-21
1.06228e-20
-1.02093e-21
4.62397e-21
-3.6395e-22
8.07553e-22
-1.05355e-22
1.71817e-22
-2.56085e-23
2.02789e-23
-4.82619e-24
-3.88334e-25
-7.48235e-25
-6.45856e-25
-2.8663e-25
-2.71252e-25
-1.59231e-25
-2.1224e-25
-6.41666e-26
-1.58851e-25
-1.59888e-26
-6.7574e-26
-2.45773e-27
-1.82643e-26
-2.43741e-28
-3.0995e-27
-1.58172e-29
-3.46339e-28
-6.63225e-31
-2.58358e-29
-1.80006e-32
-1.27965e-30
-3.29373e-34
-4.27798e-32
-4.16373e-36
-1.03495e-33
-2.75569e-38
-1.99752e-35
4.40199e-40
-3.18583e-37
1.17213e-40
-7.47849e-39
4.4318e-42
-3.88517e-40
8.24546e-44
-6.61921e-42
1.00821e-45
-6.86757e-44
9.19973e-48
-4.96165e-46
6.30397e-50
-2.40728e-48
2.79251e-53
-4.21084e-51
4.44436e-55
7.30924e-54
7.30707e-57
1.4329e-55
7.19053e-59
2.77705e-57
7.48214e-61
4.29918e-59
6.62274e-63
5.52441e-61
4.80574e-65
5.88736e-63
2.71576e-67
5.06517e-65
1.10976e-69
3.37264e-67
4.79384e-72
1.62325e-69
6.94919e-75
5.10857e-72
2.5143e-74
-1.29916e-20
3.00413e-20
-2.78398e-20
7.63874e-20
-2.40039e-20
7.4761e-20
-5.79173e-21
2.73662e-20
-2.42883e-21
4.24397e-21
-6.72092e-22
1.04733e-21
-1.49848e-22
1.01208e-22
-4.44921e-23
-7.42666e-24
-1.69182e-23
-1.4495e-23
-8.93625e-24
-1.10059e-23
-5.36526e-24
-8.57826e-24
-2.02082e-24
-6.14162e-24
-4.7279e-25
-2.42027e-24
-7.01914e-26
-6.20476e-25
-6.87883e-27
-1.02602e-25
-4.50233e-28
-1.14386e-26
-1.93737e-29
-8.70442e-28
-5.46498e-31
-4.49042e-29
-1.043e-32
-1.59509e-30
-1.33686e-34
-4.18319e-32
-6.30084e-37
-8.93463e-34
6.29022e-38
-1.69348e-35
7.79969e-39
-6.14909e-37
2.81711e-40
-2.33652e-38
5.61352e-42
-4.18571e-40
7.61274e-44
-4.84485e-42
7.76587e-46
-3.96863e-44
5.94736e-48
-2.20372e-46
2.0734e-50
-4.83377e-49
3.18867e-53
6.36908e-52
3.91499e-55
1.10769e-53
4.10767e-57
1.98606e-55
3.94585e-59
2.84159e-57
3.98961e-61
3.44576e-59
3.52488e-63
3.55842e-61
2.44325e-65
3.06653e-63
1.25026e-67
2.12563e-65
4.11132e-70
1.10998e-67
2.36862e-73
3.84229e-70
6.98372e-73
-9.45859e-20
1.99734e-19
-1.39493e-19
3.6189e-19
-8.29797e-20
2.91016e-19
-3.18125e-20
8.23371e-20
-1.5814e-20
2.39553e-20
-5.77089e-21
6.7271e-21
-2.72318e-21
7.59256e-22
-1.72596e-21
-8.86843e-22
-7.54863e-22
-1.20123e-21
-2.89905e-22
-5.51347e-22
-1.55613e-22
-2.96416e-22
-5.37889e-23
-1.92767e-22
-1.18903e-23
-7.11959e-23
-1.71044e-24
-1.74798e-23
-1.66021e-25
-2.83606e-24
-1.09583e-26
-3.17344e-25
-4.81919e-28
-2.47576e-26
-1.39724e-29
-1.33541e-27
-2.7045e-31
-5.05353e-29
-3.17997e-33
-1.4382e-30
8.53694e-36
-3.42236e-32
5.84908e-36
-6.93552e-34
4.67173e-37
-3.74632e-35
1.6147e-38
-1.22252e-36
3.41575e-40
-2.29844e-38
5.10583e-42
-2.94782e-40
5.79901e-44
-2.72093e-42
4.93771e-46
-1.70875e-44
1.95725e-48
-4.37618e-47
3.1351e-51
5.92508e-50
3.9831e-53
1.12307e-51
4.67067e-55
2.12419e-53
5.61047e-57
3.20166e-55
5.82419e-59
4.09756e-57
5.04685e-61
4.4664e-59
3.54917e-63
4.07584e-61
1.89087e-65
3.00379e-63
6.69958e-68
1.67663e-65
1.4299e-70
6.25983e-68
1.13129e-70
-4.19673e-19
8.98657e-19
-4.83029e-19
1.14643e-18
-3.58323e-19
8.16267e-19
-3.73334e-19
4.92391e-19
-4.24993e-19
3.8467e-19
-3.65431e-19
2.23764e-19
-2.79267e-19
3.0161e-20
-1.38296e-19
-1.91138e-19
-3.06439e-20
-1.52102e-19
-8.15246e-21
-3.2309e-20
-3.76586e-21
-8.5433e-21
-1.20237e-21
-4.85942e-21
-2.53188e-22
-1.67902e-21
-3.54887e-23
-3.97035e-22
-3.42086e-24
-6.34751e-23
-2.27553e-25
-7.14097e-24
-1.01637e-26
-5.70756e-25
-2.97396e-28
-3.20882e-26
-5.51764e-30
-1.28597e-27
-4.12176e-32
-3.93467e-29
2.39873e-33
-1.05295e-30
4.1853e-34
-3.07198e-32
2.50836e-35
-1.77901e-33
8.3763e-37
-5.45281e-35
1.87142e-38
-1.08595e-36
3.06605e-40
-1.53948e-38
3.86199e-42
-1.59149e-40
3.63447e-44
-1.11575e-42
1.57603e-46
-3.12744e-45
2.96193e-49
5.32779e-48
3.98403e-51
1.09092e-49
5.02996e-53
2.1957e-51
6.40129e-55
3.51663e-53
7.10756e-57
4.77595e-55
6.5448e-59
5.52385e-57
4.89021e-61
5.3486e-59
2.77355e-63
4.18577e-61
1.0515e-65
2.48503e-63
2.38213e-68
9.90463e-66
1.93408e-68
2.079e-06
-7.30163e-06
4.23669e-06
-1.53528e-05
6.07199e-06
-1.82177e-05
7.70481e-06
-1.91993e-05
9.25293e-06
-1.94781e-05
1.0785e-05
-1.94828e-05
1.23363e-05
-1.93891e-05
1.39228e-05
-1.92752e-05
1.55499e-05
-1.91762e-05
1.72173e-05
-1.91056e-05
1.89215e-05
-1.90659e-05
2.06575e-05
-1.90538e-05
2.24197e-05
-1.90629e-05
2.42025e-05
-1.90853e-05
2.60005e-05
-1.91126e-05
2.78085e-05
-1.91363e-05
2.96217e-05
-1.91476e-05
3.14354e-05
-1.91376e-05
3.32454e-05
-1.90965e-05
3.5047e-05
-1.90134e-05
3.68357e-05
-1.88759e-05
3.86064e-05
-1.86699e-05
4.03534e-05
-1.83788e-05
4.20707e-05
-1.79832e-05
4.37514e-05
-1.74608e-05
4.53885e-05
-1.67857e-05
4.69746e-05
-1.59278e-05
4.85025e-05
-1.48512e-05
4.99639e-05
-1.3512e-05
5.1348e-05
-1.18571e-05
5.26407e-05
-9.82658e-06
5.38248e-05
-7.35789e-06
5.48816e-05
-4.39193e-06
5.57939e-05
-8.777e-07
5.65489e-05
3.22498e-06
5.71391e-05
7.94338e-06
5.75631e-05
1.32908e-05
5.78235e-05
1.92678e-05
5.79226e-05
2.5862e-05
5.78546e-05
3.30453e-05
5.75927e-05
4.07714e-05
5.70671e-05
4.89798e-05
5.6128e-05
5.76463e-05
5.4531e-05
6.70166e-05
5.25128e-05
7.85317e-05
9.89766e-05
5.90698e-05
2.21813e-06
-9.51976e-06
4.34114e-06
-1.74759e-05
6.09836e-06
-1.9975e-05
7.66556e-06
-2.07665e-05
9.16636e-06
-2.09789e-05
1.06651e-05
-2.09816e-05
1.21932e-05
-2.09171e-05
1.37641e-05
-2.08462e-05
1.53819e-05
-2.0794e-05
1.70453e-05
-2.0769e-05
1.87502e-05
-2.07707e-05
2.04908e-05
-2.07944e-05
2.22611e-05
-2.08331e-05
2.40547e-05
-2.08789e-05
2.58658e-05
-2.09236e-05
2.76884e-05
-2.09589e-05
2.95174e-05
-2.09767e-05
3.1348e-05
-2.09682e-05
3.31755e-05
-2.0924e-05
3.49955e-05
-2.08333e-05
3.68033e-05
-2.06837e-05
3.8594e-05
-2.04607e-05
4.03627e-05
-2.01474e-05
4.21035e-05
-1.97241e-05
4.38105e-05
-1.91679e-05
4.54778e-05
-1.8453e-05
4.71003e-05
-1.75503e-05
4.86743e-05
-1.64252e-05
5.0196e-05
-1.50337e-05
5.16594e-05
-1.33205e-05
5.30541e-05
-1.12213e-05
5.43654e-05
-8.66923e-06
5.55764e-05
-5.60295e-06
5.66717e-05
-1.97296e-06
5.76411e-05
2.25553e-06
5.84827e-05
7.10177e-06
5.92038e-05
1.25697e-05
5.98211e-05
1.86505e-05
6.03603e-05
2.53227e-05
6.08553e-05
3.25504e-05
6.13491e-05
4.02775e-05
6.19032e-05
4.84256e-05
6.26404e-05
5.69092e-05
6.39497e-05
6.57072e-05
6.7166e-05
7.53154e-05
8.93137e-05
7.6829e-05
2.33526e-06
-1.1855e-05
4.40167e-06
-1.95423e-05
6.07851e-06
-2.16518e-05
7.58383e-06
-2.22718e-05
9.03961e-06
-2.24347e-05
1.05045e-05
-2.24465e-05
1.20065e-05
-2.24191e-05
1.35577e-05
-2.23973e-05
1.51612e-05
-2.23976e-05
1.68154e-05
-2.24232e-05
1.85156e-05
-2.24709e-05
2.02556e-05
-2.25345e-05
2.20289e-05
-2.26064e-05
2.38285e-05
-2.26786e-05
2.56479e-05
-2.2743e-05
2.74808e-05
-2.27918e-05
2.93215e-05
-2.28174e-05
3.11648e-05
-2.28115e-05
3.30059e-05
-2.27651e-05
3.48403e-05
-2.26677e-05
3.66633e-05
-2.25067e-05
3.84703e-05
-2.22677e-05
4.02564e-05
-2.19335e-05
4.20163e-05
-2.1484e-05
4.37445e-05
-2.0896e-05
4.54357e-05
-2.01442e-05
4.70869e-05
-1.92015e-05
4.86982e-05
-1.80365e-05
5.02715e-05
-1.6607e-05
5.18064e-05
-1.48554e-05
5.32972e-05
-1.2712e-05
5.47315e-05
-1.01035e-05
5.60931e-05
-6.96462e-06
5.73672e-05
-3.247e-06
5.85454e-05
1.07733e-06
5.96301e-05
6.01702e-06
6.06364e-05
1.15634e-05
6.15932e-05
1.76937e-05
6.25441e-05
2.43718e-05
6.35499e-05
3.15446e-05
6.46928e-05
3.91346e-05
6.60893e-05
4.70291e-05
6.79232e-05
5.50753e-05
7.0531e-05
6.30994e-05
7.4685e-05
7.11614e-05
8.04596e-05
8.35391e-05
2.42343e-06
-1.42784e-05
4.42499e-06
-2.15438e-05
6.03357e-06
-2.32604e-05
7.48873e-06
-2.3727e-05
8.90489e-06
-2.38509e-05
1.03358e-05
-2.38774e-05
1.18082e-05
-2.38915e-05
1.33342e-05
-2.39233e-05
1.49172e-05
-2.39806e-05
1.65556e-05
-2.40615e-05
1.82445e-05
-2.41598e-05
1.99775e-05
-2.42675e-05
2.17476e-05
-2.43765e-05
2.35474e-05
-2.44784e-05
2.53695e-05
-2.45651e-05
2.72072e-05
-2.46295e-05
2.90543e-05
-2.46644e-05
3.09051e-05
-2.46624e-05
3.27548e-05
-2.46148e-05
3.45985e-05
-2.45114e-05
3.64316e-05
-2.43398e-05
3.82496e-05
-2.40857e-05
4.00478e-05
-2.37317e-05
4.18211e-05
-2.32573e-05
4.35637e-05
-2.26386e-05
4.52704e-05
-2.18509e-05
4.69393e-05
-2.08704e-05
4.85747e-05
-1.9672e-05
5.01856e-05
-1.82179e-05
5.1779e-05
-1.64488e-05
5.33543e-05
-1.42874e-05
5.4902e-05
-1.16512e-05
5.64054e-05
-8.46801e-06
5.78482e-05
-4.68989e-06
5.92226e-05
-2.97035e-07
6.05338e-05
4.70588e-06
6.18024e-05
1.02947e-05
6.30663e-05
1.64298e-05
6.43804e-05
2.30577e-05
6.58185e-05
3.01065e-05
6.74753e-05
3.74778e-05
6.94703e-05
4.50341e-05
7.19564e-05
5.25892e-05
7.51419e-05
5.99139e-05
7.94734e-05
6.68299e-05
7.34647e-05
8.64684e-05
2.47814e-06
-1.67566e-05
4.42756e-06
-2.34933e-05
5.99565e-06
-2.48285e-05
7.41851e-06
-2.51498e-05
8.80101e-06
-2.52334e-05
1.01963e-05
-2.52727e-05
1.16336e-05
-2.53287e-05
1.31272e-05
-2.54169e-05
1.46819e-05
-2.55354e-05
1.62966e-05
-2.56762e-05
1.79665e-05
-2.58297e-05
1.9685e-05
-2.5986e-05
2.14448e-05
-2.61362e-05
2.32378e-05
-2.62714e-05
2.50561e-05
-2.63834e-05
2.68922e-05
-2.64655e-05
2.87392e-05
-2.65115e-05
3.05914e-05
-2.65145e-05
3.24434e-05
-2.64667e-05
3.42902e-05
-2.63582e-05
3.61271e-05
-2.61768e-05
3.79496e-05
-2.59082e-05
3.97533e-05
-2.55354e-05
4.15331e-05
-2.5037e-05
4.32824e-05
-2.43879e-05
4.49945e-05
-2.3563e-05
4.66673e-05
-2.25432e-05
4.83094e-05
-2.13141e-05
4.99385e-05
-1.9847e-05
5.15709e-05
-1.80812e-05
5.32133e-05
-1.59297e-05
5.48587e-05
-1.32965e-05
5.64889e-05
-1.00982e-05
5.80844e-05
-6.28541e-06
5.96353e-05
-1.84791e-06
6.11479e-05
3.19328e-06
6.26468e-05
8.79578e-06
6.41751e-05
1.49016e-05
6.57932e-05
2.14395e-05
6.75785e-05
2.83212e-05
6.96237e-05
3.54325e-05
7.20333e-05
4.26245e-05
7.49207e-05
4.97018e-05
7.84122e-05
5.64224e-05
8.27158e-05
6.25262e-05
6.78699e-05
8.83106e-05
2.49839e-06
-1.9255e-05
4.43905e-06
-2.54339e-05
6.01017e-06
-2.63996e-05
7.42067e-06
-2.65603e-05
8.77221e-06
-2.65849e-05
1.01262e-05
-2.66267e-05
1.15197e-05
-2.67222e-05
1.29717e-05
-2.68688e-05
1.4489e-05
-2.70527e-05
1.60713e-05
-2.72584e-05
1.77137e-05
-2.7472e-05
1.94094e-05
-2.76817e-05
2.11508e-05
-2.78776e-05
2.29294e-05
-2.80499e-05
2.47363e-05
-2.81903e-05
2.65633e-05
-2.82925e-05
2.84029e-05
-2.8351e-05
3.0249e-05
-2.83604e-05
3.20958e-05
-2.83135e-05
3.39382e-05
-2.82005e-05
3.57712e-05
-2.80097e-05
3.75902e-05
-2.77271e-05
3.93912e-05
-2.73363e-05
4.11696e-05
-2.68153e-05
4.29174e-05
-2.61357e-05
4.46246e-05
-2.527e-05
4.62862e-05
-2.42047e-05
4.79142e-05
-2.2942e-05
4.95372e-05
-2.147e-05
5.11834e-05
-1.97272e-05
5.28685e-05
-1.76148e-05
5.45891e-05
-1.5017e-05
5.63244e-05
-1.18334e-05
5.80494e-05
-8.01031e-06
5.975e-05
-3.54847e-06
6.1432e-05
1.51132e-06
6.31221e-05
7.10566e-06
6.48658e-05
1.31579e-05
6.67249e-05
1.95804e-05
6.87747e-05
2.62715e-05
7.10997e-05
3.31075e-05
7.37843e-05
3.994e-05
7.69038e-05
4.65823e-05
8.05186e-05
5.28076e-05
8.46734e-05
5.83715e-05
6.31123e-05
8.94309e-05
2.49053e-06
-2.17455e-05
4.50672e-06
-2.745e-05
6.13593e-06
-2.80287e-05
7.54865e-06
-2.79729e-05
8.86332e-06
-2.78994e-05
1.0164e-05
-2.79272e-05
1.15016e-05
-2.80595e-05
1.29012e-05
-2.82682e-05
1.43716e-05
-2.85228e-05
1.59125e-05
-2.8799e-05
1.75188e-05
-2.90779e-05
1.91831e-05
-2.93456e-05
2.08977e-05
-2.95918e-05
2.26535e-05
-2.98053e-05
2.44406e-05
-2.9977e-05
2.625e-05
-3.01013e-05
2.80735e-05
-3.01741e-05
2.99046e-05
-3.01909e-05
3.17373e-05
-3.01456e-05
3.35662e-05
-3.00288e-05
3.53858e-05
-2.98286e-05
3.71913e-05
-2.95319e-05
3.89797e-05
-2.9124e-05
4.07474e-05
-2.85824e-05
4.24855e-05
-2.78731e-05
4.41783e-05
-2.69621e-05
4.58137e-05
-2.58395e-05
4.74056e-05
-2.45332e-05
4.89958e-05
-2.30595e-05
5.06258e-05
-2.13564e-05
5.23229e-05
-1.93109e-05
5.40893e-05
-1.67824e-05
5.59004e-05
-1.36437e-05
5.7724e-05
-9.83326e-06
5.95404e-05
-5.36454e-06
6.13539e-05
-3.01998e-07
6.3192e-05
5.26757e-06
6.51005e-05
1.12494e-05
6.71393e-05
1.75416e-05
6.93778e-05
2.4033e-05
7.18915e-05
3.05938e-05
7.47442e-05
3.70872e-05
7.79781e-05
4.33484e-05
8.1605e-05
4.91807e-05
8.55908e-05
5.43857e-05
5.88358e-05
8.98673e-05
2.47725e-06
-2.42224e-05
4.69849e-06
-2.96701e-05
6.43891e-06
-2.9768e-05
7.85071e-06
-2.93835e-05
9.10836e-06
-2.91555e-05
1.03366e-05
-2.91536e-05
1.16043e-05
-2.93251e-05
1.29414e-05
-2.96028e-05
1.43565e-05
-2.99353e-05
1.58484e-05
-3.02879e-05
1.74107e-05
-3.06369e-05
1.9035e-05
-3.09665e-05
2.0714e-05
-3.12671e-05
2.24377e-05
-3.15252e-05
2.41953e-05
-3.17306e-05
2.59767e-05
-3.18784e-05
2.77733e-05
-3.19662e-05
2.9578e-05
-3.19909e-05