/*--------------------------------*- C++ -*----------------------------------*\
  =========                 |
  \\      /  F ield         | OpenFOAM: The Open Source CFD Toolbox
   \\    /   O peration     | Website:  https://openfoam.org
    \\  /    A nd           | Version:  9
     \\/     M anipulation  |
\*---------------------------------------------------------------------------*/
FoamFile
{
    format      ascii;
    class       volScalarField;
    location    "0.35";
    object      k;
}
// * * * * * * * * * * * * * * * * * * * * * * * * * * * * * * * * * * * * * //

dimensions      [0 2 -2 0 0 0 0];

internalField   nonuniform List<scalar> 
7700
(
0.00370675
0.00657046
0.0098751
0.0126166
0.0148839
0.0167494
0.0183747
0.0198935
0.0213836
0.0228995
0.0244766
0.0261349
0.0278817
0.0297146
0.031624
0.0335952
0.0356101
0.0376488
0.0396902
0.0417126
0.0436943
0.0456131
0.0474465
0.0491715
0.0507645
0.0522014
0.053457
0.0545058
0.0553212
0.0558748
0.0561318
0.0560393
0.0556812
0.0551211
0.0542698
0.0530825
0.0515428
0.049662
0.0474898
0.0451229
0.0426469
0.0397378
0.0367488
0.0332989
0.0304108
0.0263762
0.00534867
0.0131262
0.019812
0.0254458
0.0299621
0.0337864
0.03719
0.0403765
0.0434948
0.0466454
0.0498885
0.053254
0.0567485
0.0603623
0.0640746
0.0678571
0.0716773
0.0755005
0.0792905
0.0830111
0.0866255
0.0900972
0.0933896
0.0964663
0.0992912
0.10183
0.104049
0.105922
0.107426
0.108549
0.109288
0.109639
0.109533
0.109081
0.108361
0.107485
0.10661
0.105948
0.105743
0.106161
0.106876
0.106059
0.10142
0.0901536
0.0692188
0.0443142
0.00616691
0.0168358
0.0244739
0.030958
0.0365478
0.0414886
0.0460062
0.0502903
0.0544854
0.0586903
0.0629637
0.0673332
0.0718036
0.0763637
0.0809914
0.0856578
0.0903299
0.0949719
0.0995469
0.104017
0.108343
0.112486
0.116408
0.120069
0.123431
0.126461
0.129126
0.131406
0.133288
0.134779
0.1359
0.136692
0.137185
0.137494
0.137716
0.13796
0.138336
0.138961
0.139961
0.141425
0.14308
0.14335
0.139647
0.130266
0.110925
0.0618059
0.00724369
0.0194369
0.0276992
0.0347103
0.0409677
0.0466955
0.0520682
0.0572331
0.0623045
0.0673609
0.0724486
0.0775887
0.0827831
0.0880206
0.0932811
0.0985384
0.103762
0.108921
0.113979
0.1189
0.123648
0.128185
0.132473
0.136474
0.140152
0.143476
0.14642
0.148969
0.151126
0.152912
0.154375
0.155591
0.156651
0.157709
0.158903
0.160347
0.162107
0.16418
0.166481
0.168836
0.170867
0.171519
0.169128
0.162485
0.145576
0.0812328
0.00827848
0.0217094
0.0304227
0.0378021
0.0445542
0.0509103
0.057001
0.0629263
0.0687622
0.0745607
0.0803516
0.0861471
0.0919459
0.0977369
0.103503
0.109221
0.114865
0.120407
0.125817
0.131062
0.136108
0.140921
0.145464
0.149703
0.153606
0.157146
0.160304
0.163075
0.165472
0.167533
0.169328
0.170961
0.172564
0.174308
0.176377
0.178896
0.181909
0.185338
0.188958
0.192401
0.195166
0.196554
0.195776
0.191812
0.176535
0.0990294
0.00914051
0.0236448
0.0327855
0.040538
0.0477503
0.0546684
0.061394
0.0679896
0.0744987
0.0809491
0.0873553
0.0937207
0.100041
0.106304
0.112496
0.118597
0.124586
0.130438
0.136129
0.141628
0.146907
0.151934
0.156677
0.161105
0.165191
0.168914
0.172262
0.175239
0.177869
0.180204
0.182333
0.184379
0.186503
0.188886
0.191747
0.19522
0.199346
0.204018
0.208948
0.213674
0.217635
0.220297
0.221316
0.219536
0.205048
0.118402
0.00984549
0.0252358
0.0348421
0.0430372
0.0507375
0.058197
0.0655029
0.0726953
0.0797962
0.0868164
0.0937586
0.100619
0.107391
0.114063
0.120621
0.12705
0.133332
0.139447
0.145373
0.151086
0.15656
0.161767
0.16668
0.171273
0.175523
0.179416
0.182947
0.186128
0.188995
0.19161
0.194076
0.196533
0.199155
0.202138
0.205718
0.210043
0.215164
0.220976
0.227187
0.233324
0.23882
0.243197
0.246192
0.246227
0.231913
0.135582
0.0104751
0.0265837
0.0366904
0.0453897
0.0536061
0.0615931
0.0694329
0.0771565
0.0847751
0.0922898
0.0996961
0.106986
0.11415
0.121176
0.128053
0.134767
0.141304
0.147647
0.153778
0.159678
0.165323
0.170691
0.175758
0.180504
0.184912
0.188972
0.192687
0.196078
0.199188
0.202092
0.204899
0.20776
0.21086
0.214402
0.218634
0.223718
0.229721
0.236565
0.243993
0.251575
0.258785
0.265169
0.270388
0.272405
0.259178
0.154297
0.0110561
0.0278093
0.0384423
0.0476737
0.0564064
0.0648917
0.0732144
0.0814053
0.0894727
0.0974135
0.105219
0.112879
0.120382
0.127717
0.134872
0.141837
0.148599
0.155145
0.161461
0.167529
0.173332
0.17885
0.184064
0.188959
0.193523
0.197752
0.201658
0.205267
0.20863
0.211829
0.21498
0.218239
0.221794
0.225852
0.230667
0.236414
0.243182
0.250929
0.259453
0.268398
0.277315
0.285796
0.29347
0.298191
0.289003
0.176654
0.0116505
0.0290128
0.0401854
0.0499409
0.0591579
0.0680924
0.0768385
0.0854325
0.093884
0.102189
0.110336
0.118315
0.126112
0.133716
0.141116
0.148303
0.155268
0.161998
0.168483
0.174709
0.180661
0.186324
0.191683
0.196727
0.201449
0.205853
0.209956
0.213792
0.217419
0.22092
0.224416
0.228063
0.232049
0.236581
0.241905
0.248214
0.255615
0.264104
0.273536
0.283633
0.294033
0.304401
0.314464
0.322785
0.322507
0.205449
0.00971613
0.0156222
0.0166534
0.0167644
0.017123
0.016967
0.018064
0.0189282
0.0196203
0.0201401
0.0203962
0.0204289
0.0202718
0.0199546
0.0195065
0.0189568
0.0183368
0.0176887
0.0171083
0.0174802
0.0169934
0.0171043
0.0168163
0.0167371
0.0167272
0.0167814
0.0167541
0.0167942
0.016705
0.0169065
0.0167707
0.0167866
0.0166767
0.0167811
0.0167087
0.0164539
0.0152282
0.0129991
0.00986589
0.00746168
0.0101564
0.0222091
0.0276679
0.0310246
0.0337314
0.0359689
0.0378341
0.0392895
0.0404038
0.0411256
0.0414923
0.0415356
0.0412866
0.040779
0.0400503
0.0391418
0.0380984
0.0369692
0.0358046
0.0345443
0.0334853
0.0323256
0.0313474
0.030403
0.029542
0.0287227
0.0279783
0.0272854
0.0265946
0.0259549
0.025245
0.0244731
0.0236559
0.0227522
0.0217277
0.0204909
0.018625
0.0158966
0.0121196
0.00844602
0.0145337
0.0302027
0.0378091
0.0425409
0.0458123
0.0482234
0.0500211
0.0513533
0.052319
0.0528973
0.0531077
0.0529742
0.0525255
0.0517954
0.0508235
0.0496543
0.048336
0.0469189
0.045451
0.0439577
0.0424979
0.0410807
0.0397409
0.0385003
0.0373548
0.0363007
0.0353004
0.0343424
0.0333936
0.0324452
0.0314486
0.030368
0.0291744
0.027814
0.0262384
0.0243609
0.0219726
0.0187881
0.0143481
0.00867789
0.0190959
0.0384853
0.0474106
0.0528063
0.0562881
0.0585991
0.0601518
0.0612001
0.0618827
0.0621844
0.0621239
0.061724
0.0610124
0.0600228
0.0587953
0.0573744
0.055808
0.0541452
0.052432
0.0507065
0.0490071
0.0473645
0.0457992
0.0443472
0.0430036
0.0417578
0.0405848
0.0394599
0.0383527
0.037236
0.036071
0.0348134
0.033415
0.0318211
0.0299633
0.0277476
0.0250155
0.0214848
0.016536
0.00868812
0.024005
0.0473385
0.0573525
0.0630955
0.0665476
0.068615
0.0698284
0.0705072
0.0708176
0.0707451
0.0703205
0.0695707
0.0685255
0.0672199
0.0656939
0.063992
0.0621605
0.0602461
0.0582929
0.0563403
0.0544239
0.0525726
0.0508083
0.0491667
0.0476442
0.0462295
0.0449018
0.043634
0.0423941
0.0411461
0.0398513
0.0384605
0.0369195
0.0351673
0.0331288
0.0307034
0.0277367
0.0239423
0.0186169
0.00874679
0.0296868
0.0572298
0.0681058
0.073915
0.0771141
0.0788055
0.0795983
0.0798422
0.0797054
0.0791789
0.07831
0.0771337
0.0756845
0.0740004
0.0721231
0.0700971
0.0679672
0.0657776
0.0635697
0.0613807
0.0592433
0.0571831
0.0552241
0.0533977
0.0517008
0.0501227
0.048644
0.0472376
0.04587
0.0445016
0.043091
0.0415859
0.0399285
0.0380532
0.0358797
0.0333017
0.0301566
0.0261397
0.0204544
0.00945854
0.0366747
0.0686926
0.0799233
0.0854216
0.0881284
0.0893215
0.0896345
0.0894136
0.0887681
0.0877302
0.0863562
0.0846899
0.0827734
0.0806507
0.0783672
0.0759689
0.0735003
0.0710033
0.0685161
0.0660723
0.0637003
0.061422
0.0592646
0.0572507
0.0553771
0.0536336
0.0520015
0.050454
0.0489572
0.0474697
0.0459471
0.0443352
0.0425733
0.0405918
0.038306
0.0356029
0.0323087
0.0280938
0.0220774
0.0102634
0.0456458
0.0823991
0.0929223
0.0975627
0.0995293
0.100133
0.099939
0.0992459
0.0980727
0.0964961
0.0945792
0.0923767
0.0899414
0.0873266
0.0845845
0.0817652
0.0789147
0.0760736
0.073277
0.0705543
0.0679292
0.0654196
0.0630554
0.060847
0.0587906
0.0568759
0.0550848
0.0533909
0.05176
0.0501504
0.0485151
0.0467981
0.0449362
0.0428565
0.0404696
0.0376555
0.0342282
0.0298324
0.0235119
0.0109767
0.0576163
0.099185
0.10726
0.110287
0.111275
0.111225
0.110514
0.109345
0.107651
0.105525
0.103042
0.10027
0.0972746
0.0941216
0.090873
0.0875856
0.0843093
0.0810851
0.0779459
0.0749168
0.0720162
0.0692619
0.0666785
0.0642656
0.0620178
0.0599241
0.0579666
0.0561192
0.054348
0.0526112
0.0508596
0.0490358
0.0470745
0.0448993
0.0424165
0.0394987
0.0359481
0.0313849
0.0247859
0.0116113
0.0756475
0.121259
0.123685
0.124101
0.123805
0.122951
0.121618
0.119899
0.11763
0.114906
0.111813
0.108431
0.104835
0.1011
0.0973
0.0934991
0.0897532
0.0861058
0.0825887
0.0792233
0.0760232
0.0730109
0.0701925
0.0675625
0.0651129
0.0628311
0.0606987
0.0586899
0.0567711
0.0549005
0.0530275
0.0510934
0.0490307
0.0467601
0.0441831
0.0411655
0.037498
0.0327782
0.0259246
0.0121811
0.0122973
0.0302629
0.0419765
0.0522219
0.06187
0.0711932
0.0803006
0.0892369
0.0980145
0.10663
0.115071
0.123326
0.13138
0.139223
0.146843
0.154232
0.161382
0.168284
0.17493
0.181308
0.187407
0.193214
0.19872
0.203917
0.208804
0.213391
0.2177
0.221775
0.225675
0.229489
0.233334
0.237363
0.241761
0.246732
0.252489
0.259256
0.267152
0.276198
0.286296
0.297228
0.30869
0.320374
0.332007
0.342701
0.346602
0.251751
0.0130285
0.0315996
0.0438391
0.0545184
0.0645284
0.0741713
0.0835752
0.092794
0.101844
0.110721
0.119414
0.127908
0.136189
0.144244
0.152063
0.159638
0.166962
0.174028
0.18083
0.187358
0.193605
0.19956
0.205218
0.210574
0.215633
0.22041
0.224936
0.229259
0.233444
0.23758
0.241779
0.246186
0.250973
0.256335
0.262461
0.269581
0.277819
0.287215
0.297697
0.309075
0.32105
0.333245
0.345163
0.355631
0.358003
0.301027
0.0138527
0.0330142
0.0457408
0.0567801
0.0670739
0.0769642
0.0866002
0.0960446
0.105316
0.114411
0.123317
0.132018
0.140497
0.148742
0.156743
0.16449
0.171979
0.179203
0.186158
0.192837
0.199233
0.205341
0.211156
0.216679
0.221917
0.226891
0.231639
0.236216
0.240694
0.245159
0.249715
0.254493
0.259649
0.265356
0.271786
0.279154
0.287586
0.297126
0.307712
0.319158
0.331136
0.343154
0.354438
0.363392
0.364564
0.333865
0.0147621
0.0344755
0.0476303
0.0589489
0.0694503
0.0795219
0.0893331
0.0989536
0.108404
0.117679
0.126764
0.135642
0.144297
0.152713
0.160879
0.168789
0.176435
0.183814
0.190921
0.197753
0.204303
0.21057
0.21655
0.222247
0.227671
0.232848
0.237821
0.242657
0.247431
0.252229
0.257144
0.262289
0.267795
0.273813
0.280492
0.288013
0.296505
0.306009
0.316463
0.327674
0.339286
0.350728
0.36108
0.368664
0.369604
0.352199
0.0157251
0.0359284
0.0494378
0.0609585
0.0716024
0.0818024
0.0917445
0.101503
0.111096
0.120519
0.129756
0.138787
0.147596
0.156167
0.164487
0.172549
0.180348
0.18788
0.195142
0.202129
0.20884
0.215271
0.221425
0.227306
0.232924
0.238309
0.243511
0.248605
0.253675
0.258806
0.26408
0.269588
0.275434
0.281739
0.288629
0.296227
0.304679
0.314014
0.324166
0.334938
0.345966
0.356659
0.366085
0.372721
0.373838
0.36347
0.0166841
0.037296
0.0510828
0.0627439
0.0734864
0.0837824
0.0938285
0.103699
0.11341
0.122956
0.13232
0.141483
0.150427
0.159137
0.1676
0.175808
0.183756
0.19144
0.198858
0.206006
0.212883
0.219489
0.225827
0.231902
0.237727
0.243329
0.248763
0.254114
0.259476
0.264934
0.270561
0.276428
0.282608
0.289186
0.296257
0.303907
0.312267
0.321359
0.331113
0.341338
0.351684
0.361584
0.370174
0.376157
0.377581
0.37124
0.0175599
0.0384813
0.052482
0.0642529
0.0750829
0.0854707
0.0956146
0.105585
0.115397
0.125046
0.134515
0.143788
0.15285
0.161685
0.170279
0.178626
0.186719
0.194556
0.202133
0.209448
0.216499
0.223288
0.229821
0.236106
0.242153
0.247987
0.253664
0.259273
0.26492
0.270691
0.276657
0.282875
0.289389
0.296246
0.303505
0.311223
0.319489
0.328328
0.337666
0.34732
0.356971
0.366106
0.373957
0.379458
0.381184
0.377262
0.0182716
0.0393694
0.0535592
0.0654627
0.0764161
0.0869249
0.0971805
0.107249
0.11715
0.12688
0.136432
0.145794
0.154954
0.163896
0.172611
0.181088
0.189324
0.197313
0.205053
0.21254
0.219773
0.226755
0.233495
0.240003
0.246292
0.252382
0.258325
0.264206
0.270132
0.276194
0.282472
0.289025
0.295879
0.303045
0.310542
0.318395
0.326626
0.335272
0.344243
0.353366
0.362362
0.370786
0.37798
0.38308
0.385027
0.382624
0.0187904
0.0398256
0.0542559
0.0664028
0.0775764
0.088266
0.0986558
0.108819
0.118788
0.128575
0.138182
0.147605
0.156838
0.165868
0.174687
0.183286
0.191658
0.199799
0.207702
0.215365
0.222788
0.229973
0.23693
0.243676
0.250227
0.256608
0.26286
0.269046
0.275255
0.28158
0.288132
0.294994
0.302199
0.30973
0.31756
0.325665
0.334006
0.342589
0.351306
0.35998
0.36838
0.376136
0.382703
0.387403
0.389441
0.387989
0.0192563
0.039695
0.0545657
0.0672044
0.0787554
0.0896913
0.100221
0.110455
0.120456
0.130261
0.139887
0.149338
0.158614
0.167709
0.176615
0.185325
0.19383
0.202121
0.210192
0.21804
0.225669
0.233079
0.240275
0.247278
0.254116
0.260832
0.267458
0.27401
0.280516
0.287075
0.293848
0.300976
0.308534
0.316497
0.324786
0.333309
0.341958
0.350656
0.359284
0.367629
0.375489
0.382578
0.388483
0.392707
0.394657
0.393732
0.0201685
0.0389843
0.0547155
0.0682361
0.0803158
0.0915098
0.102135
0.112382
0.122364
0.132143
0.141753
0.151205
0.160502
0.169643
0.178627
0.187446
0.196087
0.204538
0.212789
0.220844
0.228719
0.236397
0.243867
0.251155
0.258301
0.265391
0.272453
0.279432
0.286253
0.29303
0.299983
0.307342
0.315273
0.323759
0.33265
0.341753
0.350858
0.359779
0.368452
0.376613
0.383981
0.390368
0.395527
0.399145
0.400794
0.400043
0.0225214
0.0385462
0.0555915
0.0702531
0.082814
0.0941409
0.104743
0.114913
0.124812
0.134524
0.144091
0.153528
0.162832
0.172012
0.181074
0.190009
0.1988
0.207429
0.215883
0.224183
0.232387
0.240403
0.248162
0.25575
0.263192
0.27065
0.278145
0.285541
0.292685
0.299723
0.306929
0.314574
0.322983
0.33217
0.341858
0.351714
0.361366
0.370503
0.379326
0.387342
0.393952
0.399465
0.403805
0.406711
0.407861
0.406985
0.0271635
0.0410521
0.0589115
0.0741941
0.0868008
0.0979633
0.108335
0.118284
0.128001
0.137576
0.147053
0.156441
0.165728
0.174927
0.184047
0.193075
0.201987
0.210758
0.219362
0.227809
0.236115
0.244221
0.252121
0.259872
0.267507
0.275095
0.28267
0.290236
0.297821
0.30555
0.313665
0.322401
0.331825
0.342094
0.352933
0.363903
0.374436
0.38362
0.392924
0.400737
0.405789
0.410086
0.413332
0.415265
0.415755
0.414545
0.0321486
0.0485412
0.0656949
0.0797848
0.0914428
0.102171
0.112157
0.12172
0.13108
0.140346
0.149566
0.158752
0.167899
0.177001
0.186051
0.195037
0.203935
0.212714
0.221342
0.229785
0.237951
0.245905
0.253748
0.261421
0.269009
0.276517
0.284068
0.291839
0.299986
0.308607
0.317768
0.327696
0.338368
0.349756
0.36173
0.373747
0.385632
0.396684
0.408171
0.417158
0.419928
0.423003
0.424605
0.425102
0.424629
0.422738
0.0359476
0.0583444
0.0741852
0.0854445
0.0959181
0.106075
0.115683
0.124886
0.133868
0.142754
0.151606
0.160453
0.169296
0.178119
0.186905
0.195635
0.204286
0.212829
0.22123
0.229459
0.237519
0.245445
0.253242
0.260883
0.268422
0.275907
0.283528
0.291497
0.299966
0.308982
0.318508
0.328569
0.339333
0.351168
0.364018
0.377175
0.38987
0.402278
0.41428
0.425549
0.432401
0.437135
0.437669
0.436763
0.435056
0.431985
0.0362088
0.0624709
0.0789268
0.0897949
0.100046
0.109945
0.119321
0.128263
0.136941
0.145489
0.153987
0.162479
0.170974
0.179456
0.187904
0.196297
0.204611
0.212818
0.220885
0.228788
0.236532
0.244152
0.251657
0.25905
0.266373
0.273723
0.281288
0.289261
0.29775
0.306755
0.316217
0.326151
0.336806
0.348577
0.361526
0.375124
0.388588
0.401457
0.413984
0.425645
0.435088
0.442077
0.446868
0.448568
0.446942
0.442645
0.0334648
0.0607575
0.0794451
0.0919192
0.102762
0.112786
0.122149
0.131002
0.139519
0.14784
0.156066
0.164251
0.172417
0.180559
0.188658
0.196693
0.204642
0.212481
0.220186
0.227735
0.235131
0.242396
0.24955
0.256618
0.263656
0.270769
0.278126
0.285884
0.294125
0.30284
0.311989
0.321618
0.331954
0.343313
0.355787
0.369064
0.382567
0.395906
0.409295
0.422292
0.433157
0.441472
0.44832
0.452773
0.454616
0.453068
0.0308379
0.0589944
0.078441
0.0924781
0.104196
0.114631
0.12419
0.13312
0.141617
0.149837
0.157889
0.165847
0.173742
0.181583
0.189359
0.197054
0.204651
0.212132
0.219478
0.226677
0.233727
0.240647
0.24746
0.254201
0.260932
0.267753
0.274804
0.28221
0.290043
0.298311
0.307009
0.316196
0.326048
0.3368
0.348556
0.361175
0.374339
0.387823
0.401698
0.415577
0.42802
0.438328
0.446907
0.453073
0.457007
0.458231
0.0294778
0.0580648
0.0775456
0.0924938
0.104946
0.115855
0.125716
0.13483
0.143414
0.151635
0.159613
0.167429
0.175129
0.182733
0.190239
0.197641
0.204927
0.212084
0.219102
0.225972
0.232698
0.239296
0.245792
0.252224
0.258652
0.265164
0.271871
0.278876
0.286249
0.294019
0.302212
0.310893
0.320201
0.330314
0.341351
0.353294
0.36601
0.379376
0.393347
0.407579
0.421071
0.433071
0.443379
0.451513
0.457499
0.460797
0.0293305
0.0578086
0.0772048
0.0926002
0.10553
0.116829
0.126986
0.136316
0.145043
0.153334
0.161313
0.169067
0.176649
0.184087
0.191392
0.198562
0.205594
0.21248
0.219216
0.225801
0.232241
0.238554
0.244766
0.250916
0.257061
0.263274
0.269645
0.27626
0.283191
0.290484
0.29819
0.30638
0.315176
0.324727
0.335164
0.346547
0.358853
0.372018
0.385937
0.400287
0.414378
0.427463
0.439092
0.448824
0.456467
0.461624
0.0299481
0.058152
0.0774752
0.093069
0.106251
0.117796
0.128175
0.137693
0.146568
0.15496
0.162989
0.17074
0.178269
0.185611
0.192781
0.199785
0.206625
0.2133
0.219811
0.226161
0.232363
0.238433
0.244402
0.250306
0.256196
0.262137
0.268204
0.274473
0.281016
0.287895
0.295176
0.302944
0.311314
0.320429
0.330427
0.341413
0.353428
0.366441
0.380332
0.394795
0.409274
0.423086
0.43564
0.446442
0.455184
0.461555
0.0311282
0.0590294
0.0783167
0.0939578
0.107212
0.118858
0.129355
0.138997
0.147989
0.15648
0.164578
0.172363
0.179889
0.187188
0.194281
0.201178
0.207885
0.214405
0.220744
0.226911
0.23292
0.238791
0.244555
0.250247
0.255915
0.261617
0.267419
0.273393
0.279612
0.286151
0.29309
0.300525
0.308577
0.31739
0.327112
0.337873
0.349747
0.362728
0.376697
0.391359
0.406209
0.420604
0.433876
0.44544
0.454869
0.461852
0.0326985
0.0603526
0.0796362
0.0952077
0.108393
0.120007
0.130516
0.140205
0.149264
0.157828
0.165992
0.173824
0.181371
0.188665
0.195723
0.202558
0.209177
0.215588
0.221799
0.227824
0.233678
0.239385
0.244974
0.250482
0.255953
0.261443
0.267014
0.272738
0.27869
0.284955
0.291628
0.298817
0.306653
0.315288
0.324878
0.335568
0.34745
0.360535
0.374708
0.389682
0.404971
0.419928
0.433842
0.446033
0.455958
0.463245
0.0344886
0.0620008
0.081298
0.0967027
0.109706
0.121184
0.131612
0.141271
0.15034
0.158937
0.167143
0.175015
0.182589
0.189891
0.196937
0.203736
0.210296
0.216628
0.222741
0.22865
0.234374
0.239936
0.245368
0.250706
0.255995
0.261288
0.266649
0.27215
0.277874
0.283916
0.290382
0.297396
0.3051
0.313655
0.323227
0.333966
0.345977
0.359277
0.373756
0.38913
0.404919
0.420467
0.435015
0.447791
0.458154
0.465644
0.0363525
0.063852
0.0831558
0.0983162
0.111056
0.122317
0.132591
0.142155
0.151176
0.15976
0.167973
0.17586
0.183449
0.190754
0.197789
0.204558
0.211071
0.217334
0.223359
0.229163
0.234763
0.240186
0.245463
0.25063
0.255735
0.260832
0.265988
0.271278
0.276795
0.282642
0.288941
0.295829
0.303461
0.312006
0.321637
0.332508
0.344724
0.358304
0.373138
0.388942
0.405241
0.421372
0.436542
0.44991
0.460723
0.468442
0.038182
0.0658023
0.0850815
0.0999414
0.112364
0.123357
0.133423
0.142837
0.151759
0.160281
0.16846
0.176328
0.183901
0.191189
0.198196
0.204925
0.21138
0.217568
0.2235
0.22919
0.234658
0.239931
0.245039
0.250023
0.254929
0.259817
0.264757
0.269833
0.275146
0.280812
0.286964
0.293754
0.301349
0.309926
0.31966
0.330703
0.343156
0.357031
0.372209
0.388409
0.405156
0.421794
0.437521
0.451463
0.462787
0.470849
0.039906
0.06777
0.086979
0.101504
0.113583
0.124276
0.134099
0.143324
0.152102
0.160519
0.168619
0.176425
0.183945
0.191181
0.198131
0.204792
0.211166
0.217257
0.223073
0.228628
0.233942
0.23904
0.243955
0.248729
0.253412
0.258068
0.262773
0.267621
0.272722
0.278205
0.284217
0.290922
0.298496
0.307122
0.316974
0.328198
0.340881
0.355021
0.370487
0.386989
0.404063
0.421073
0.437239
0.451697
0.463589
0.472189
0.0414807
0.0696919
0.0887842
0.102962
0.114691
0.125075
0.134635
0.143641
0.152241
0.160511
0.168489
0.176189
0.183614
0.190756
0.197609
0.204167
0.210424
0.216384
0.222051
0.227439
0.232565
0.237456
0.242146
0.246677
0.251106
0.255502
0.259948
0.264548
0.269424
0.274716
0.280585
0.287204
0.294759
0.303434
0.3134
0.32479
0.337674
0.352025
0.367693
0.384378
0.401627
0.418845
0.435313
0.45023
0.462766
0.472155
0.0428811
0.0715188
0.0904582
0.104295
0.115687
0.125765
0.135056
0.143827
0.152221
0.16031
0.168127
0.175679
0.182964
0.189969
0.196682
0.203092
0.209192
0.21498
0.220459
0.22564
0.230541
0.235188
0.239615
0.24387
0.248013
0.252119
0.256282
0.260614
0.265248
0.270338
0.276054
0.282581
0.290109
0.298822
0.308885
0.320414
0.333458
0.347962
0.363746
0.380498
0.397782
0.415062
0.431729
0.447108
0.460459
0.471002
0.0440942
0.073211
0.0919788
0.105499
0.116578
0.126367
0.135391
0.143918
0.152088
0.15997
0.167592
0.174958
0.182061
0.188885
0.195414
0.201633
0.207532
0.213106
0.218355
0.22329
0.227926
0.232291
0.23642
0.240366
0.244193
0.247984
0.25184
0.255886
0.260265
0.26514
0.270693
0.277116
0.284602
0.293335
0.30347
0.31511
0.328276
0.342882
0.358719
0.375457
0.39268
0.40994
0.426784
0.442744
0.457243
0.469507
0.0451156
0.0747369
0.093332
0.10657
0.117372
0.126893
0.135663
0.143947
0.151883
0.159537
0.166937
0.174085
0.18097
0.187573
0.193877
0.199864
0.205521
0.21084
0.215821
0.220471
0.224806
0.228854
0.232655
0.236263
0.23975
0.243205
0.246739
0.250484
0.254595
0.259245
0.264622
0.270925
0.27835
0.287079
0.29726
0.30898
0.322237
0.336916
0.352774
0.369467
0.386607
0.403852
0.420966
0.437773
0.453953
0.468757
0.0459467
0.0760705
0.0945068
0.107507
0.118069
0.127353
0.135885
0.143932
0.151629
0.159044
0.166203
0.173107
0.179744
0.186095
0.192139
0.197858
0.203236
0.208265
0.212942
0.217275
0.221279
0.224984
0.228432
0.231682
0.234811
0.237916
0.241116
0.244552
0.248386
0.2528
0.257987
0.264151
0.271491
0.280188
0.290383
0.302154
0.315482
0.330223
0.346109
0.362781
0.379885
0.397208
0.414783
0.432829
0.451398
0.469813
0.0465934
0.07719
0.0954913
0.1083
0.118663
0.127739
0.136056
0.143876
0.151338
0.158509
0.165414
0.172057
0.178424
0.184497
0.190255
0.195677
0.200748
0.205458
0.209805
0.213796
0.217448
0.220789
0.223868
0.226748
0.229511
0.23226
0.235122
0.238243
0.241794
0.24596
0.250942
0.256945
0.26417
0.2728
0.282975
0.294768
0.308148
0.322957
0.338905
0.355624
0.372798
0.390353
0.408631
0.428351
0.450082
0.4733
0.0470665
0.0780774
0.0962717
0.108933
0.119136
0.128037
0.13616
0.143769
0.151003
0.15793
0.164578
0.170949
0.177033
0.182812
0.188264
0.19337
0.198114
0.202486
0.206485
0.210118
0.213402
0.21637
0.219074
0.221581
0.223977
0.226371
0.228895
0.231701
0.234964
0.238873
0.243631
0.249447
0.256524
0.265047
0.275162
0.286941
0.300357
0.315246
0.331308
0.348173
0.365556
0.383514
0.402716
0.424448
0.449983
0.479121
0.0473828
0.0787192
0.0968331
0.109387
0.119464
0.128217
0.136171
0.143587
0.150605
0.157294
0.163685
0.169783
0.175578
0.181053
0.18619
0.190969
0.195375
0.199399
0.203041
0.206309
0.209223
0.21182
0.214152
0.216291
0.218327
0.220373
0.222565
0.225059
0.22803
0.231672
0.236187
0.241786
0.248676
0.257048
0.267053
0.278779
0.292208
0.307187
0.323421
0.340539
0.358277
0.37679
0.397033
0.420894
0.450487
0.486221
0.0475514
0.0790882
0.0971615
0.10964
0.119621
0.128253
0.136057
0.143297
0.150113
0.156576
0.162717
0.168545
0.174053
0.179225
0.184045
0.188495
0.192562
0.196238
0.199525
0.202432
0.204984
0.207218
0.20919
0.210973
0.212662
0.214373
0.216243
0.218429
0.221108
0.224471
0.228722
0.234072
0.240735
0.248906
0.258748
0.27037
0.283779
0.298849
0.3153
0.332768
0.350988
0.370159
0.391427
0.417194
0.450508
0.492751
0.0475224
0.0792027
0.0972385
0.109661
0.119568
0.128102
0.135779
0.142863
0.149493
0.155743
0.161647
0.167215
0.172443
0.177319
0.181829
0.185957
0.189693
0.19303
0.195973
0.198533
0.200737
0.202625
0.204254
0.205701
0.207062
0.208453
0.210013
0.211899
0.214287
0.217365
0.221338
0.226413
0.232805
0.240719
0.250336
0.26179
0.275137
0.29028
0.306965
0.324845
0.343641
0.363526
0.38569
0.412866
0.448981
0.496785
0.0473044
0.0790576
0.097046
0.109422
0.119271
0.127724
0.135294
0.14224
0.148702
0.154756
0.160438
0.165761
0.170724
0.175318
0.179532
0.183353
0.186773
0.18979
0.192407
0.194641
0.19652
0.198085
0.199396
0.20053
0.201584
0.202675
0.203939
0.205533
0.20763
0.210416
0.214092
0.218867
0.224957
0.232576
0.241925
0.253163
0.266376
0.281524
0.298409
0.316709
0.336135
0.356772
0.379675
0.407637
0.445229
0.496822
0.0469061
0.0786474
0.0965698
0.1089
0.1187
0.127088
0.134565
0.141391
0.147703
0.153579
0.159057
0.164153
0.168869
0.173201
0.177139
0.180674
0.183801
0.18652
0.188839
0.190774
0.192355
0.193626
0.194647
0.195496
0.196268
0.19708
0.198066
0.199378
0.201186
0.203673
0.207037
0.211486
0.217239
0.224518
0.233541
0.2445
0.257521
0.272624
0.289673
0.308385
0.328438
0.349793
0.373283
0.40143
0.438963
0.491754
0.0463363
0.0779706
0.0958009
0.10808
0.117836
0.126165
0.133563
0.140282
0.146461
0.152177
0.15747
0.16236
0.166851
0.170943
0.174629
0.177904
0.180766
0.183216
0.185266
0.186933
0.18825
0.18926
0.190023
0.190618
0.191136
0.191693
0.192419
0.193463
0.194988
0.197175
0.200216
0.204317
0.209698
0.216589
0.225224
0.235823
0.248559
0.263512
0.280619
0.299649
0.320279
0.342348
0.366394
0.394471
0.430867
0.481585
0.0456049
0.0770309
0.0947368
0.106953
0.116662
0.124938
0.132264
0.138889
0.144949
0.150521
0.155649
0.160353
0.164643
0.168519
0.17198
0.175024
0.177651
0.179865
0.181679
0.183114
0.184201
0.184986
0.185527
0.185899
0.186196
0.186525
0.187014
0.187806
0.189059
0.190947
0.193659
0.197396
0.202376
0.208835
0.217017
0.227168
0.239501
0.25416
0.271157
0.290333
0.311384
0.334037
0.358495
0.386176
0.420583
0.467418
0.0447242
0.0758376
0.0933823
0.10552
0.115175
0.123396
0.130656
0.137194
0.143147
0.148592
0.153571
0.158111
0.162222
0.165909
0.169173
0.172016
0.174439
0.176451
0.178065
0.179304
0.180199
0.180795
0.18115
0.181336
0.181442
0.181574
0.181851
0.182411
0.183407
0.185005
0.187386
0.190749
0.195306
0.201293
0.208961
0.21857
0.230372
0.244564
0.261238
0.280317
0.301545
0.32458
0.3493
0.376419
0.408343
0.449802
0.0437088
0.0744056
0.0917494
0.103787
0.113377
0.121539
0.128732
0.13519
0.141045
0.146374
0.151222
0.155617
0.159572
0.163095
0.16619
0.168861
0.171114
0.172957
0.174407
0.175486
0.176226
0.176671
0.176877
0.176913
0.176864
0.176828
0.176922
0.177275
0.178032
0.179352
0.18141
0.184394
0.188513
0.193995
0.201092
0.210073
0.221211
0.234749
0.250851
0.269534
0.29062
0.313759
0.338596
0.365201
0.394786
0.430547
0.0425757
0.0727555
0.089857
0.101771
0.11128
0.119375
0.126498
0.132876
0.138639
0.143863
0.148595
0.152862
0.156681
0.160064
0.163017
0.165546
0.167659
0.169367
0.170688
0.171643
0.172265
0.172596
0.17269
0.172611
0.17244
0.172271
0.172211
0.172383
0.172924
0.173985
0.17573
0.17834
0.182012
0.186968
0.193449
0.201723
0.212073
0.224772
0.240043
0.257993
0.27855
0.301424
0.326164
0.352393
0.3803
0.41139
0.041344
0.0709131
0.0877311
0.099495
0.108907
0.116922
0.123968
0.130265
0.135939
0.141065
0.14569
0.149845
0.153547
0.156811
0.159646
0.16206
0.164063
0.165668
0.166891
0.167757
0.168296
0.168549
0.168565
0.168407
0.168149
0.167879
0.167697
0.167717
0.168069
0.168892
0.170341
0.172587
0.175815
0.180231
0.186065
0.193573
0.203033
0.214729
0.228923
0.245799
0.265394
0.287537
0.311818
0.337673
0.364642
0.392864
0.0400346
0.0689086
0.0854034
0.0969905
0.106284
0.114205
0.121165
0.127376
0.13296
0.137992
0.142519
0.146573
0.150175
0.153339
0.156077
0.1584
0.160319
0.161848
0.163005
0.163813
0.164301
0.164508
0.16448
0.164276
0.163965
0.163626
0.163353
0.163253
0.163443
0.164054
0.16523
0.167129
0.169922
0.173799
0.178972
0.185677
0.194175
0.204743
0.217657
0.23315
0.251355
0.272236
0.295522
0.320692
0.347057
0.373998
0.0386697
0.0667763
0.082911
0.0942942
0.103448
0.111258
0.118119
0.124236
0.129727
0.134666
0.139101
0.143063
0.146576
0.149655
0.152315
0.154568
0.156427
0.157905
0.159021
0.159798
0.160264
0.160455
0.160414
0.160195
0.15986
0.159485
0.159153
0.158961
0.15902
0.159447
0.160376
0.161951
0.164328
0.167679
0.172195
0.178086
0.185586
0.194952
0.206448
0.220325
0.236776
0.255879
0.27753
0.301382
0.326832
0.353088
0.0372722
0.0645531
0.0802948
0.0914479
0.10044
0.10812
0.114868
0.120882
0.126275
0.131119
0.135463
0.139339
0.142771
0.145778
0.148375
0.150575
0.152391
0.15384
0.154938
0.155708
0.156176
0.156376
0.156348
0.156141
0.155812
0.155428
0.155066
0.154814
0.15477
0.155045
0.155756
0.157035
0.159022
0.161871
0.165749
0.17084
0.177346
0.18549
0.195509
0.207639
0.222094
0.239018
0.258439
0.2802
0.303921
0.328977
0.0358652
0.0622779
0.0775986
0.0884973
0.0973052
0.104838
0.111458
0.117355
0.122642
0.127387
0.131639
0.135432
0.13879
0.141733
0.144277
0.146436
0.148226
0.149661
0.150759
0.15154
0.152031
0.152262
0.152269
0.152097
0.151797
0.15143
0.151065
0.15078
0.150665
0.150816
0.151341
0.152356
0.153987
0.156367
0.159642
0.163969
0.169517
0.176471
0.185028
0.195392
0.207759
0.222292
0.239082
0.258109
0.279192
0.301959
0.0344711
0.0599901
0.0748677
0.0854902
0.0940935
0.101459
0.107935
0.113704
0.118874
0.123514
0.127671
0.13138
0.134666
0.13755
0.140048
0.142177
0.14395
0.145384
0.146495
0.147303
0.147832
0.148109
0.148169
0.14805
0.1478
0.147471
0.147126
0.146834
0.146674
0.146732
0.147102
0.147889
0.1492
0.151153
0.153872
0.157488
0.162139
0.167974
0.175148
0.183822
0.194154
0.206285
0.220319
0.23629
0.254134
0.273663
0.033111
0.0577282
0.0721474
0.0824752
0.090855
0.0980356
0.104351
0.109978
0.115022
0.119548
0.123606
0.127228
0.130442
0.133269
0.135725
0.137828
0.139592
0.141031
0.142164
0.143008
0.143586
0.143922
0.144047
0.143996
0.14381
0.143537
0.143231
0.142953
0.142773
0.142765
0.143013
0.143606
0.144639
0.146212
0.148429
0.151399
0.155233
0.160046
0.165957
0.173082
0.181538
0.191426
0.202825
0.215772
0.230242
0.246134
0.0318038
0.0555288
0.0694815