/*--------------------------------*- C++ -*----------------------------------*\
  =========                 |
  \\      /  F ield         | OpenFOAM: The Open Source CFD Toolbox
   \\    /   O peration     | Website:  https://openfoam.org
    \\  /    A nd           | Version:  9
     \\/     M anipulation  |
\*---------------------------------------------------------------------------*/
FoamFile
{
    format      ascii;
    class       volScalarField;
    location    "0.35";
    object      nut;
}
// * * * * * * * * * * * * * * * * * * * * * * * * * * * * * * * * * * * * * //

dimensions      [0 2 -1 0 0 0 0];

internalField   nonuniform List<scalar> 
7700
(
3.72689e-05
4.34543e-05
5.31453e-05
6.01135e-05
6.52855e-05
6.93376e-05
7.26873e-05
7.56984e-05
7.85503e-05
8.13532e-05
8.417e-05
8.70294e-05
8.99362e-05
9.28792e-05
9.5838e-05
9.8788e-05
0.000101703
0.000104559
0.000107331
0.000109999
0.000112543
0.000114946
0.000117189
0.000119256
0.000121129
0.000122791
0.000124223
0.000125404
0.000126313
0.000126923
0.000127199
0.00012708
0.000126688
0.000126055
0.000125082
0.000123712
0.000121914
0.000119686
0.000117064
0.000114144
0.000110993
0.000107093
0.000102972
9.7948e-05
9.36815e-05
8.68486e-05
5.20542e-05
0.000231283
0.000353454
0.000443075
0.000512752
0.000571954
0.00062452
0.000673192
0.000719847
0.000765541
0.00081068
0.000855217
0.000898832
0.000941084
0.000981518
0.00101974
0.00105544
0.00108839
0.00111848
0.00114562
0.00116978
0.00119094
0.0012091
0.00122423
0.00123631
0.00124533
0.00125125
0.00125407
0.00125377
0.00125039
0.00124392
0.00123366
0.00121208
0.00117886
0.001136
0.00108538
0.00102912
0.00097
0.000911597
0.000857486
0.000809323
0.000762951
0.000716109
0.000669869
0.000486602
0.000148885
5.5717e-05
0.000342866
0.000546072
0.000716026
0.00086643
0.00100419
0.00113378
0.00125859
0.00138085
0.00150169
0.00162126
0.00173903
0.00185402
0.00196507
0.00207103
0.0021709
0.0022639
0.00234948
0.00242729
0.00249714
0.00255897
0.00261279
0.00265866
0.00269663
0.00272676
0.00274911
0.00276374
0.00277071
0.00277009
0.00276194
0.00274607
0.00272103
0.00267999
0.0026191
0.00253709
0.00243273
0.00230507
0.00215469
0.00198575
0.00180748
0.00163324
0.0014746
0.00133839
0.00121038
0.00090558
0.000175566
6.01941e-05
0.000388899
0.000651967
0.000886628
0.00110677
0.00131755
0.00152224
0.00172329
0.00192217
0.00211936
0.0023144
0.00250616
0.0026931
0.00287352
0.0030458
0.0032085
0.00336046
0.00350083
0.00362903
0.00374472
0.00384775
0.0039381
0.00401582
0.00408105
0.00413391
0.00417457
0.0042032
0.00421999
0.00422512
0.00421867
0.00420031
0.00416834
0.00411712
0.00404148
0.00393751
0.0038003
0.00362452
0.00340625
0.00314629
0.00285409
0.00254992
0.0022599
0.00199957
0.0017269
0.00121522
0.000201255
6.43282e-05
0.000418817
0.000723332
0.00100952
0.00128964
0.00156619
0.00184006
0.00211184
0.0023816
0.00264881
0.00291229
0.00317043
0.00342132
0.00366303
0.0038937
0.00411172
0.00431577
0.00450484
0.00467822
0.00483546
0.00497634
0.00510081
0.00520895
0.00530092
0.00537695
0.00543731
0.00548232
0.00551229
0.00552754
0.00552819
0.00551386
0.00548277
0.00543017
0.00534906
0.00523489
0.0050799
0.00487546
0.00461412
0.00429322
0.00391933
0.00351167
0.00309831
0.0026931
0.00223296
0.00147846
0.000222076
6.76275e-05
0.000444701
0.000783977
0.00111587
0.00145037
0.00178703
0.00212405
0.00245983
0.00279295
0.00312185
0.00344476
0.00375972
0.00406469
0.00435769
0.00463687
0.00490063
0.00514765
0.00537689
0.00558765
0.00577944
0.00595206
0.00610544
0.00623972
0.00635513
0.006452
0.00653075
0.00659184
0.00663579
0.00666302
0.00667375
0.00666758
0.00664272
0.00659479
0.00651563
0.00640017
0.00623868
0.00602024
0.00573491
0.00537703
0.00494914
0.00446446
0.0039426
0.00338556
0.0027169
0.00170654
0.000242796
7.02171e-05
0.000468463
0.000843537
0.00122129
0.00160835
0.00200132
0.00239594
0.00278884
0.00317737
0.00355926
0.00393235
0.00429456
0.00464389
0.00497844
0.00529651
0.00559661
0.00587753
0.00613834
0.00637838
0.00659724
0.00679476
0.00697096
0.00712604
0.00726036
0.00737438
0.0074687
0.00754397
0.00760089
0.00764009
0.0076619
0.00766594
0.00765041
0.00761095
0.00753927
0.00742916
0.00726961
0.00704803
0.00675244
0.00637433
0.0059115
0.00536887
0.00475279
0.0040489
0.00317237
0.00191506
0.000259859
7.25053e-05
0.000491778
0.000906585
0.00133315
0.00177289
0.00221937
0.00266649
0.00310979
0.00354598
0.00397248
0.00438708
0.00478775
0.00517263
0.00554
0.00588836
0.00621642
0.00652313
0.00680769
0.00706959
0.00730853
0.00752445
0.00771749
0.00788798
0.00803643
0.00816349
0.00826994
0.00835669
0.00842465
0.00847465
0.00850719
0.008522
0.0085173
0.00848874
0.00842806
0.00832798
0.00817651
0.00795969
0.00766356
0.0072766
0.00679147
0.00620413
0.00550685
0.00466886
0.00359816
0.00211105
0.000277195
7.45902e-05
0.000516324
0.000975604
0.00145432
0.00194698
0.00244422
0.00293888
0.00342619
0.00390286
0.00436643
0.00481484
0.0052463
0.00565914
0.0060519
0.00642327
0.00677217
0.00709776
0.00739941
0.00767677
0.00792968
0.00815826
0.00836278
0.00854375
0.00870186
0.00883797
0.00895309
0.00904838
0.00912502
0.00918408
0.00922626
0.00925144
0.00925794
0.00924148
0.00919393
0.009107
0.00896795
0.00876156
0.00847189
0.00808425
0.007586
0.0069645
0.00619915
0.00524436
0.00399988
0.00230639
0.000296565
7.66925e-05
0.000543194
0.00105143
0.0015846
0.00212938
0.00267409
0.00321135
0.00373679
0.00424762
0.00474176
0.00521753
0.00567339
0.00610795
0.00651998
0.0069084
0.00727234
0.00761114
0.0079244
0.00821191
0.00847373
0.00871013
0.00892159
0.0091088
0.00927265
0.00941424
0.00953484
0.00963586
0.00971878
0.00978494
0.00983528
0.00986987
0.00988719
0.00988316
0.00984985
0.00977791
0.00965422
0.0094624
0.00918456
0.0088028
0.00829948
0.00765438
0.0068364
0.00578813
0.00440194
0.00253712
0.000319826
0.000169567
0.000272988
0.000293212
6.88264e-05
0.000305086
7.00901e-05
7.23473e-05
7.40926e-05
7.54658e-05
7.65153e-05
7.7054e-05
7.7167e-05
7.69172e-05
7.63553e-05
7.55272e-05
7.44783e-05
7.32578e-05
7.19318e-05
7.0694e-05
7.19056e-05
6.94802e-05
7.03727e-05
6.85053e-05
6.80665e-05
6.7812e-05
6.84846e-05
6.82458e-05
6.80284e-05
6.77168e-05
0.000299399
0.000296703
0.000296315
0.000293935
0.000294941
0.000293009
0.000287646
0.000265845
0.000226724
0.000171988
0.00017229
7.54131e-05
0.000399653
0.000454487
0.000483732
0.000547323
0.000575332
0.000622388
0.000663117
0.000695992
0.000718445
0.000736137
0.000749702
0.000759177
0.000764538
0.000765777
0.000762907
0.000755889
0.000744483
0.000728865
0.000716606
0.00068853
0.000672293
0.000645711
0.000625479
0.00061309
0.000592851
0.000589145
0.000576057
0.000563938
0.00058378
0.000570804
0.000571182
0.000561828
0.000571878
0.000572609
0.00056144
0.000512603
0.000431125
0.000321113
0.000287945
9.0443e-05
0.000558948
0.000782711
0.000918844
0.00103529
0.00113792
0.00123419
0.00131833
0.00138943
0.00144694
0.00149527
0.001535
0.00156572
0.00158684
0.00159784
0.00159837
0.00158825
0.00156758
0.00153751
0.00150375
0.00146029
0.00141604
0.00136734
0.00132065
0.0012775
0.00123304
0.00119574
0.0011585
0.00112083
0.00108565
0.00104723
0.00101033
0.000970917
0.00093241
0.000887581
0.000829989
0.000736402
0.000598974
0.000403058
0.000297729
0.000103716
0.000699807
0.00105237
0.00127022
0.00143974
0.00158514
0.00171465
0.00182983
0.00193182
0.00202138
0.00210123
0.00217109
0.00222954
0.00227487
0.0023055
0.00232021
0.00231832
0.00229988
0.00226619
0.00222057
0.00216389
0.00209925
0.00202911
0.00195754
0.00188685
0.00181718
0.00175085
0.00168644
0.00162194
0.00155724
0.00149104
0.0014227
0.00135036
0.00127179
0.00118246
0.00107474
0.000931043
0.000735236
0.000459175
0.000298683
0.000116163
0.000817376
0.00126619
0.00154258
0.00174709
0.00191634
0.00206496
0.00219945
0.00232302
0.00243794
0.00254592
0.00264573
0.00273476
0.0028099
0.00286813
0.00290689
0.0029244
0.00291993
0.00289418
0.00284932
0.00278764
0.0027122
0.00262679
0.00253606
0.00244329
0.00235047
0.00225902
0.00216891
0.00207876
0.00198748
0.00189405
0.00179657
0.00169251
0.00157823
0.00144851
0.00129492
0.0011025
0.000851472
0.000511788
0.000302465
0.000128895
0.000916289
0.00143442
0.0017493
0.00197335
0.00215342
0.0023103
0.00245433
0.00259074
0.0027238
0.0028548
0.00298182
0.00310121
0.00320854
0.00329923
0.00336909
0.00341474
0.0034341
0.0034266
0.00339335
0.00333656
0.00325952
0.00316663
0.00306324
0.00295365
0.00284106
0.00272752
0.0026138
0.0024993
0.00238278
0.00226306
0.00213764
0.00200329
0.00185565
0.00168867
0.00149331
0.00125535
0.000953419
0.000551853
7.26581e-05
0.000142786
0.00100151
0.00156563
0.00190248
0.0021343
0.00231614
0.00247353
0.00261963
0.00276188
0.00290664
0.00305513
0.00320517
0.00335251
0.0034917
0.00361675
0.00372175
0.00380155
0.00385221
0.00387153
0.00385915
0.00381649
0.00374659
0.00365406
0.00354466
0.00342363
0.00329528
0.00316271
0.00302759
0.00289016
0.00274952
0.00260433
0.00245185
0.00228838
0.00210901
0.00190707
0.00167305
0.00139276
0.00104425
0.000592482
7.56876e-05
0.000158625
0.00107603
0.00166266
0.00200698
0.00223791
0.00241598
0.00256942
0.00271266
0.00285628
0.00300788
0.00316902
0.00333767
0.00350947
0.00367838
0.00383737
0.00397906
0.00409645
0.00418362
0.00423636
0.0042525
0.00423214
0.00417745
0.00409278
0.00398402
0.00385712
0.00371741
0.00356911
0.00341497
0.00325619
0.00309249
0.00292263
0.00274384
0.00255218
0.00234235
0.00210724
0.00183696
0.00151712
0.00112559
0.000628411
7.83025e-05
0.000177439
0.00114014
0.00172035
0.00205758
0.00228228
0.00245519
0.0026041
0.00274294
0.00288608
0.00304179
0.00321218
0.00339577
0.00358847
0.00378418
0.0039753
0.00415334
0.00430971
0.00443653
0.00452743
0.00457816
0.00458701
0.00455476
0.00448498
0.00438343
0.00425642
0.00411006
0.00394964
0.00377912
0.00360079
0.00341521
0.0032215
0.00301711
0.00279805
0.00255882
0.002292
0.00198739
0.0016304
0.00119888
0.000660178
8.0566e-05
0.000202729
0.00119621
0.00172438
0.00203875
0.00225681
0.00242881
0.00257745
0.00271413
0.00285765
0.0030169
0.00319487
0.0033909
0.00360159
0.00382119
0.00404202
0.00425495
0.00445018
0.0046181
0.00475022
0.00484007
0.00488378
0.00488011
0.00483182
0.00474393
0.00462266
0.00447461
0.00430604
0.00412209
0.00392625
0.00372018
0.00350356
0.00327431
0.00302861
0.00276091
0.0024636
0.0021263
0.00173427
0.00126539
0.000688496
8.25534e-05
7.89359e-05
0.000572773
0.00113356
0.00172203
0.00231709
0.00290572
0.00348114
0.00403985
0.0045798
0.0050995
0.00559765
0.00607305
0.00652456
0.00695118
0.00735205
0.00772651
0.00807412
0.00839467
0.00868816
0.00895485
0.00919522
0.00940994
0.00959992
0.00976629
0.00991038
0.0100337
0.010138
0.010225
0.0102964
0.0103534
0.0103962
0.0104237
0.0104319
0.0104135
0.0103574
0.0102512
0.0100772
0.0098157
0.00944596
0.00894594
0.00828953
0.00743905
0.00633383
0.00488344
0.00301539
0.000729877
8.13985e-05
0.000604631
0.00122
0.00186269
0.00250498
0.0031337
0.00374324
0.00433122
0.00489639
0.00543782
0.00595461
0.00644584
0.00691065
0.00734825
0.007758
0.00813945
0.00849238
0.00881681
0.00911295
0.00938128
0.00962249
0.0098375
0.0100274
0.0101937
0.0103378
0.0104615
0.0105669
0.0106561
0.0107309
0.0107929
0.0108427
0.0108791
0.0108988
0.0108948
0.0108554
0.010768
0.0106143
0.0103732
0.0100215
0.00953396
0.00888064
0.00802153
0.00689972
0.00544597
0.00362082
0.00145576
8.40648e-05
0.00063703
0.00130593
0.00199918
0.00268436
0.00334915
0.00398931
0.00460344
0.00519096
0.00575138
0.00628411
0.00678851
0.00726393
0.00770981
0.00812574
0.00851149
0.00886708
0.00919275
0.00948897
0.00975644
0.0099961
0.0102091
0.0103968
0.0105608
0.0107029
0.0108252
0.01093
0.0110195
0.0110962
0.0111617
0.0112169
0.011261
0.0112911
0.0113003
0.0112776
0.0112097
0.0110782
0.010861
0.0105333
0.0100679
0.00943317
0.00859009
0.00748922
0.00607954
0.00434725
0.00238639
8.68617e-05
0.000667661
0.00138549
0.00212343
0.00284659
0.00354391
0.00421218
0.00485055
0.00545876
0.00603658
0.00658364
0.0070995
0.00758376
0.00803609
0.0084563
0.00884443
0.00920075
0.00952575
0.00982016
0.0100849
0.0103213
0.0105306
0.0107145
0.0108747
0.0110134
0.0111328
0.0112354
0.011324
0.011401
0.0114686
0.0115278
0.0115782
0.0116172
0.0116386
0.0116319
0.0115834
0.0114751
0.0112846
0.0109864
0.0105523
0.00995088
0.00914601
0.00809713
0.00676908
0.00516724
0.00341049
8.9651e-05
0.000693798
0.00145191
0.00222677
0.00298301
0.00371029
0.00440541
0.00506736
0.00569579
0.00629048
0.00685118
0.00737769
0.0078698
0.00832745
0.00875073
0.00913997
0.0094957
0.00981873
0.01011
0.0103709
0.0106027
0.0108072
0.0109861
0.0111416
0.0112759
0.0113914
0.0114909
0.0115773
0.0116535
0.0117217
0.0117835
0.0118387
0.0118851
0.0119171
0.0119253
0.0118955
0.0118108
0.011649
0.0113847
0.0109898
0.010434
0.0096851
0.0087108
0.00748879
0.00603539
0.00446436
9.22421e-05
0.000712352
0.00149788
0.00230066
0.00308574
0.00384171
0.0045638
0.00524991
0.00589913
0.00651106
0.00708555
0.00762255
0.00812217
0.00858462
0.00901033
0.00939993
0.00975431
0.0100746
0.010362
0.0106181
0.0108447
0.0110437
0.0112171
0.0113672
0.0114965
0.0116075
0.0117032
0.0117866
0.011861
0.0119288
0.0119918
0.0120501
0.0121021
0.0121429
0.0121639
0.012152
0.0120906
0.0119586
0.0117313
0.0113815
0.0108806
0.0102002
0.00931475
0.00821092
0.00690888
0.00550213
9.44238e-05
0.000719522
0.00151589
0.00233746
0.00314854
0.00393346
0.00468393
0.00539581
0.00606723
0.00669749
0.00728648
0.0078344
0.00834167
0.00880887
0.0092368
0.00962648
0.00997914
0.0102962
0.0105794
0.0108305
0.0110516
0.0112447
0.0114123
0.0115569
0.011681
0.0117873
0.0118788
0.0119588
0.0120306
0.0120969
0.0121597
0.0122196
0.0122754
0.0123229
0.0123547
0.012359
0.0123198
0.0122175
0.0120287
0.0117275
0.0112874
0.0106831
0.00989398
0.00891176
0.00775559
0.00649562
9.60408e-05
0.000710218
0.00149901
0.00233197
0.00316825
0.00398382
0.00476495
0.00550475
0.00620018
0.00685021
0.00745479
0.00801438
0.0085298
0.00900204
0.00943234
0.00982214
0.0101731
0.010487
0.0107659
0.011012
0.0112275
0.0114149
0.0115769
0.011716
0.011835
0.0119367
0.012024
0.0121004
0.0121691
0.0122331
0.0122943
0.0123541
0.0124117
0.0124638
0.0125042
0.0125224
0.0125037
0.01243
0.0122795
0.012028
0.0116511
0.011126
0.0104352
0.00957247
0.00855334
0.00742768
9.71739e-05
0.000678031
0.00144301
0.00228405
0.00314698
0.00399549
0.00480935
0.00557886
0.00629988
0.00697102
0.00759228
0.00816442
0.00868865
0.00916644
0.00959949
0.00998971
0.0103392
0.0106502
0.0109251
0.0111664
0.0113768
0.0115589
0.0117155
0.0118495
0.0119638
0.0120612
0.0121447
0.0122177
0.0122832
0.012344
0.0124025
0.0124605
0.0125179
0.0125725
0.012619
0.0126486
0.0126482
0.0126009
0.0124868
0.0122838
0.0119691
0.0115222
0.0109272
0.0101784
0.00928646
0.00828566
9.85116e-05
0.000617245
0.00135054
0.0022026
0.0030948
0.00397702
0.00482372
0.00562316
0.00637026
0.00706321
0.00770194
0.00828738
0.00882108
0.009305
0.00974133
0.0101325
0.010481
0.0107896
0.011061
0.0112983
0.0115042
0.0116817
0.0118337
0.0119632
0.0120732
0.0121668
0.0122472
0.0123172
0.0123796
0.0124368
0.0124914
0.0125458
0.0126011
0.012656
0.0127064
0.0127447
0.0127596
0.0127356
0.0126546
0.0124964
0.0122401
0.0118667
0.0113617
0.0107185
0.00994349
0.00905924
0.000101881
0.000530476
0.00123795
0.00211022
0.00303178
0.00394368
0.00481926
0.00564606
0.00641801
0.00713244
0.00778884
0.00838805
0.00893181
0.00942248
0.00986277
0.0102556
0.0106039
0.0109109
0.0111797
0.0114138
0.0116165
0.0117905
0.0119388
0.0120644
0.0121707
0.0122611
0.0123389
0.0124067
0.0124661
0.0125194
0.0125692
0.0126186
0.01267
0.0127234
0.0127755
0.0128196
0.0128459
0.0128405
0.0127876
0.0126689
0.0124644
0.012157
0.0117332
0.0111858
0.0105169
0.00974079
0.000110093
0.000443161
0.00114276
0.00204382
0.00298574
0.00391551
0.00481092
0.00565928
0.00645275
0.00718702
0.00786049
0.00847347
0.00902762
0.00952559
0.00997054
0.0103658
0.0107149
0.0110213
0.0112886
0.0115208
0.011722
0.011894
0.012039
0.0121612
0.0122641
0.0123517
0.0124274
0.0124933
0.0125499
0.0125992
0.0126442
0.0126882
0.012735
0.0127861
0.0128383
0.0128855
0.0129187
0.0129255
0.0128942
0.0128076
0.0126451
0.0123934
0.0120402
0.0115773
0.0110035
0.0103265
0.000123539
0.000406984
0.00112252
0.00204403
0.00298369
0.00391279
0.00481479
0.00567577
0.00648502
0.0072356
0.00792414
0.00854993
0.00911413
0.00961946
0.0100694
0.0104676
0.010818
0.0111242
0.0113902
0.01162
0.0118174
0.0119849
0.012126
0.0122448
0.0123447
0.0124291
0.0125014
0.0125642
0.012619
0.0126677
0.0127131
0.0127581
0.0128044
0.012855
0.0129078
0.0129569
0.012994
0.0130034
0.0129877
0.0129244
0.0127896
0.0125813
0.0122862
0.0118948
0.0114043
0.0108169
0.000131429
0.000502456
0.00123947
0.00211844
0.00302543
0.00393767
0.00483339
0.00569626
0.00651288
0.00727359
0.00797277
0.00860832
0.00918072
0.00969225
0.0101464
0.010547
0.0108982
0.0112042
0.0114688
0.0116956
0.0118875
0.012049
0.0121854
0.0122998
0.0123958
0.0124765
0.0125451
0.012605
0.0126593
0.0127103
0.012759
0.0128081
0.0128587
0.0129112
0.0129656
0.0130152
0.0130548
0.0130731
0.013073
0.0130308
0.0129091
0.0127323
0.0124802
0.0121458
0.0117256
0.0112166
0.000137567
0.000700705
0.00144403
0.00223672
0.00309173
0.00397867
0.00486386
0.00572466
0.0065442
0.00731041
0.00801588
0.00865725
0.00923429
0.0097489
0.0102044
0.0106048
0.0109545
0.0112579
0.011519
0.0117418
0.0119306
0.0120897
0.0122232
0.0123341
0.0124262
0.0125029
0.0125677
0.0126246
0.0126771
0.0127277
0.0127767
0.0128245
0.0128725
0.0129242
0.01298
0.0130331
0.0130744
0.0131014
0.0131081
0.0130848
0.0129979
0.0128524
0.0126322
0.0123411
0.0119777
0.0115342
0.000133918
0.000803222
0.00157281
0.00234323
0.00317396
0.00404437
0.00492119
0.00577893
0.00659857
0.00736651
0.00807419
0.00871744
0.00929546
0.00980983
0.0102638
0.0106614
0.0110072
0.0113056
0.0115611
0.0117779
0.0119607
0.0121139
0.0122415
0.0123469
0.0124339
0.0125059
0.0125668
0.0126203
0.01267
0.0127177
0.0127639
0.0128086
0.0128538
0.0129031
0.0129573
0.0130112
0.0130564
0.0130865
0.013098
0.0130823
0.0130201
0.0129035
0.0127287
0.0124853
0.01217
0.0117791
0.000127488
0.000837135
0.00164496
0.00242927
0.00326157
0.00412907
0.00500344
0.00585946
0.00667767
0.00744417
0.00815013
0.00879114
0.00936621
0.00987681
0.0103261
0.0107182
0.0110577
0.0113494
0.0115976
0.0118071
0.0119823
0.0121278
0.0122477
0.0123458
0.012426
0.0124919
0.0125474
0.0125962
0.0126412
0.0126842
0.012726
0.0127669
0.0128088
0.0128543
0.012904
0.0129541
0.0129978
0.0130289
0.0130448
0.0130385
0.0129924
0.0128975
0.0127545
0.0125535
0.0122901
0.0119564
0.000123224
0.00085282
0.00167944
0.0025018
0.00335713
0.00423592
0.00511493
0.00597143
0.00678727
0.00754944
0.00824981
0.00888434
0.00945229
0.00995526
0.0103965
0.0107802
0.011111
0.0113937
0.0116331
0.0118338
0.0120002
0.0121369
0.0122481
0.0123378
0.0124099
0.0124683
0.0125169
0.0125592
0.0125978
0.0126346
0.0126704
0.0127061
0.012743
0.0127827
0.0128251
0.0128675
0.0129053
0.0129338
0.0129505
0.0129496
0.012917
0.0128435
0.0127267
0.0125586
0.0123359
0.0120528
0.000121843
0.000847122
0.00169789
0.00257023
0.00346434
0.00436681
0.00525755
0.00611722
0.00693034
0.00768594
0.00837734
0.00900156
0.00955848
0.0100501
0.01048
0.0108523
0.0111719
0.0114437
0.0116724
0.0118627
0.0120191
0.0121461
0.0122478
0.0123283
0.0123916
0.0124416
0.012482
0.0125163
0.0125469
0.0125758
0.012604
0.0126324
0.0126616
0.0126926
0.0127249
0.0127566
0.0127848
0.0128064
0.0128192
0.0128185
0.0127938
0.0127365
0.0126418
0.0125033
0.0123171
0.0120771
0.000122434
0.000827458
0.00171166
0.00264239
0.00358589
0.00452101
0.0054291
0.00629439
0.00710485
0.00785233
0.00853227
0.00914318
0.00968595
0.0101632
0.0105789
0.0109374
0.0112437
0.0115027
0.0117192
0.0118979
0.0120432
0.0121597
0.0122513
0.0123221
0.0123761
0.0124171
0.0124486
0.0124737
0.0124952
0.0125146
0.0125332
0.0125516
0.0125701
0.0125891
0.012608
0.0126256
0.01264
0.0126497
0.0126531
0.0126467
0.0126238
0.0125756
0.012497
0.0123823
0.0122269
0.0120255
0.000124243
0.000810332
0.00173198
0.00272505
0.00372314
0.0046957
0.00562439
0.00649683
0.00730474
0.00804317
0.00871006
0.0093057
0.00983223
0.0102931
0.0106927
0.0110357
0.0113273
0.0115722
0.0117755
0.0119418
0.0120755
0.0121809
0.0122621
0.0123231
0.0123676
0.0123992
0.0124213
0.0124368
0.0124481
0.0124568
0.0124639
0.0124698
0.0124746
0.0124781
0.0124798
0.0124788
0.0124745
0.0124662
0.0124535
0.0124347
0.0124058
0.0123599
0.0122906
0.0121929
0.012062
0.011893
0.00012695
0.000803034
0.00176652
0.00282246
0.00387565
0.00488646
0.00583649
0.00671645
0.00752169
0.00825055
0.00890356
0.00948295
0.0099922
0.0104357
0.0108182
0.011145
0.0114211
0.0116516
0.0118414
0.0119951
0.012117
0.0122114
0.0122824
0.0123335
0.0123686
0.0123909
0.0124035
0.012409
0.0124096
0.0124067
0.0124008
0.0123922
0.0123805
0.0123652
0.0123456
0.0123214
0.0122926
0.0122596
0.0122233
0.0121839
0.0121397
0.0120881
0.0120211
0.0119337
0.011821
0.0116782
0.000130199
0.000807587
0.00181827
0.0029355
0.00404092
0.00508781
0.00605788
0.00694463
0.00774677
0.00846576
0.00910464
0.00966755
0.0101593
0.0105852
0.0109507
0.0112612
0.011522
0.0117383
0.0119149
0.0120563
0.0121669
0.0122508
0.0123119
0.0123537
0.0123797
0.012393
0.0123964
0.0123921
0.0123818
0.0123666
0.0123468
0.012322
0.0122915
0.0122544
0.0122099
0.0121578
0.0120989
0.0120347
0.0119676
0.0118994
0.0118311
0.011762
0.0116899
0.0116057
0.0115048
0.011382
0.000133661
0.000823267
0.00188635
0.00306196
0.00421482
0.00529382
0.00628134
0.00717339
0.00797174
0.00868065
0.00930552
0.00985225
0.010327
0.0107358
0.0110848
0.0113797
0.0116259
0.0118287
0.0119928
0.0121227
0.0122228
0.012297
0.0123489
0.0123821
0.0123998
0.0124046
0.0123992
0.0123853
0.0123642
0.0123365
0.0123021
0.0122599
0.0122088
0.0121474
0.0120748
0.011991
0.0118974
0.0117967
0.0116926
0.0115888
0.0114885
0.0113932
0.0113032
0.011215
0.0111188
0.0110097
0.000137087
0.000848265
0.0019676
0.00319773
0.0043924
0.00549879
0.00650053
0.00739605
0.00818979
0.00888849
0.00949966
0.0100308
0.0104893
0.0108821
0.0112156
0.0114959
0.0117286
0.0119189
0.0120716
0.0121911
0.0122816
0.012347
0.0123907
0.0124161
0.0124261
0.0124232
0.0124095
0.0123864
0.0123548
0.0123146
0.012265
0.0122046
0.0121315
0.0120439
0.0119408
0.0118224
0.0116908
0.0115498
0.0114045
0.0112603
0.0111221
0.0109935
0.0108766
0.0107717
0.0106734
0.0105714
0.00014032
0.00088051
0.00205785
0.00333799
0.00456874
0.00569775
0.00671045
0.00760755
0.00839586
0.00908432
0.00968228
0.0101987
0.010642
0.0110198
0.011339
0.011606
0.0118264
0.0120054
0.0121478
0.0122581
0.0123401
0.0123977
0.0124342
0.0124526
0.0124557
0.0124458
0.0124244
0.0123926
0.0123507
0.0122981
0.0122331
0.0121538
0.0120576
0.0119424
0.0118072
0.0116525
0.0114811
0.0112979
0.0111092
0.0109219
0.0107424
0.0105759
0.010426
0.0102947
0.0101828
0.0100818
0.000143268
0.000917984
0.00215295
0.0034782
0.00473962
0.00588685
0.0069075
0.00780446
0.00858666
0.00926496
0.00985032
0.010353
0.0107822
0.0111463
0.0114525
0.0117074
0.0119167
0.0120857
0.0122191
0.0123212
0.0123958
0.0124465
0.0124767
0.012489
0.0124861
0.0124697
0.0124413
0.0124013
0.0123495
0.0122844
0.0122039
0.0121052
0.0119853
0.0118417
0.0116735
0.0114818
0.0112702
0.0110446
0.0108125
0.0105817
0.0103598
0.0101531
0.00996663
0.00980408
0.00966795
0.00955948
0.000145888
0.000958839
0.00224924
0.00361459
0.0049018
0.00606343
0.00708946
0.00798487
0.0087605
0.00942887
0.0100023
0.0104922
0.0109085
0.0112601
0.0115546
0.0117987
0.0119983
0.0121584
0.0122839
0.0123788
0.012447
0.0124919
0.0125166
0.0125237
0.0125154
0.0124933
0.0124585
0.0124107
0.0123492
0.0122718
0.0121758
0.0120575
0.0119135
0.0117413
0.0115403
0.011312
0.0110612
0.0107947
0.0105208
0.0102482
0.00998492
0.00973806
0.00951374
0.00931736
0.00915341
0.00902475
0.000148163
0.00100142
0.00234376
0.00374437
0.00505314
0.00622597
0.00725531
0.0081481
0.00891691
0.00957573
0.0101381
0.0106162
0.0110209
0.0113612
0.0116453
0.0118798
0.0120707
0.0122231
0.0123416
0.0124304
0.0124931
0.012533
0.012553
0.0125556
0.0125428
0.0125158
0.012475
0.01242
0.0123492
0.0122599
0.0121483
0.0120105
0.0118426
0.0116422
0.0114091
0.0111458
0.0108579
0.0105533
0.010241
0.00992984
0.00962816
0.00934328
0.00908219
0.00885193
0.00865939
0.0085103
0.00015009
0.00104422
0.00243418
0.00386559
0.00519236
0.00637386
0.00740491
0.00829437
0.00905635
0.00970612
0.0102583
0.0107257
0.0111199
0.0114502
0.011725
0.011951
0.0121343
0.01228
0.0123926
0.0124762
0.0125342
0.01257
0.0125862
0.0125851
0.0125684
0.0125371
0.0124911
0.0124295
0.0123499
0.012249
0.0121224
0.0119654
0.0117743
0.0115466
0.011283
0.0109869
0.0106652
0.0103264
0.00998009
0.00963514
0.00929955
0.00898062
0.00868594
0.00842412
0.00820456
0.0080356
0.000151677
0.00108591
0.00251875
0.00397699
0.00531891
0.00650712
0.00753876
0.00842447
0.0091798
0.00982116
0.010364
0.0108219
0.0112067
0.0115282
0.0117948
0.0120135
0.0121902
0.0123301
0.0124376
0.0125168
0.012571
0.0126034
0.0126166
0.0126126
0.0125928
0.012558
0.0125076
0.01244
0.0123524
0.0122405
0.0120995
0.0119242
0.0117109
0.0114576
0.0111656
0.0108399
0.0104881
0.0101198
0.00974466
0.0093714
0.0090075
0.00865993
0.00833666
0.00804787
0.0078056
0.00762105
0.00015294
0.00112526
0.0025961
0.00407781
0.00543266
0.00662616
0.00765763
0.00853943
0.00928845
0.00992211
0.0104566
0.010906
0.0112826
0.0115964
0.0118559
0.0120682
0.0122393
0.0123743
0.0124776
0.0125532
0.0126044
0.0126343
0.0126452
0.0126391
0.0126171
0.0125795
0.0125255
0.0124529
0.012358
0.0122361
0.0120817
0.0118894
0.0116555
0.0113786
0.0110611
0.0107091
0.0103314
0.0099384
0.00953985
0.00914413
0.00875803
0.00838804
0.00804243
0.00773294
0.00747439
0.00728074
0.000153895
0.00116108
0.00266511
0.00416755
0.0055337
0.00673147
0.00776232
0.00864026
0.00938342
0.0100101
0.0105372
0.0109793
0.0113487
0.0116558
0.0119093
0.0121162
0.0122826
0.0124135
0.0125135
0.0125863
0.0126352
0.0126633
0.0126728
0.0126653
0.012642
0.0126027
0.012546
0.0124693
0.0123683
0.0122376
0.0120712
0.0118636
0.0116111
0.0113131
0.0109731
0.0105984
0.0101991
0.00978598
0.00936921
0.00895667
0.00855444
0.00816846
0.00780721
0.00748406
0.00721668
0.00702165
0.000154565
0.00119211
0.00272484
0.00424598
0.00562219
0.00682352
0.00785351
0.00872776
0.00946557
0.0100861
0.0106068
0.0110425
0.0114058
0.0117074
0.0119557
0.0121582
0.0123207
0.0124484
0.0125458
0.0126165
0.012664
0.0126911
0.0126999
0.012692
0.0126682
0.0126281
0.0125699
0.0124903
0.0123845
0.0122465
0.0120699
0.011849
0.0115804
0.0112642
0.0109049
0.0105111
0.0100939
0.00966507
0.00923475
0.00881052
0.00839776
0.00800183
0.00763139
0.00730133
0.00703238
0.00684351
0.00015498
0.00121715
0.00277471
0.00431301
0.0056983
0.00690257
0.0079316
0.00880236
0.00953537
0.0101506
0.0106657
0.0110961
0.0114544
0.0117513
0.0119956
0.0121944
0.012354
0.0124793
0.0125747
0.0126442
0.012691
0.0127178
0.0127267
0.0127192
0.0126959
0.0126559
0.0125973
0.0125161
0.0124071
0.0122637
0.0120792
0.0118476
0.0115657
0.0112344
0.010859
0.0104495
0.010018
0.00957708
0.00913722
0.00870573
0.00828735
0.00788681
0.00751271
0.00718136
0.00691641
0.00673939
0.000155165
0.00123466
0.00281585
0.00437014
0.00576325
0.00696952
0.00799686
0.00886418
0.00959291
0.0102035
0.0107141
0.0111401
0.0114945
0.0117878
0.0120288
0.0122249
0.0123822
0.0125059
0.0126002
0.0126691
0.0127158
0.012743
0.0127528
0.0127465
0.0127245
0.0126858
0.0126279
0.0125466
0.0124362
0.0122896
0.0120997
0.0118605
0.0115685
0.0112252
0.0108372
0.0104152
0.00997254
0.00952268
0.0090766
0.00864155
0.00822169
0.00782094
0.00744755
0.00711866
0.00686066
0.0066982
0.000155039
0.00124938
0.00285097
0.00441861
0.00581767
0.00702482
0.00805012
0.00891402
0.00963883
0.0102455
0.0107523
0.0111748
0.011526
0.0118165
0.0120553
0.0122495
0.0124053
0.0125279
0.0126218
0.0126908
0.0127381
0.0127663
0.0127777
0.0127734
0.0127535
0.0127171
0.0126613
0.0125816
0.0124717
0.0123242
0.0121315
0.0118873
0.0115887
0.0112373
0.0108403
0.0104094
0.00995839
0.009502
0.00905241
0.00861689
0.00819894
0.00780146
0.00743183
0.00710731
0.00685633
0.00670729
0.000154615
0.00126156
0.00288028
0.00445838
0.00586131
0.00706812
0.00809092
0.00895143
0.00967272
0.010276
0.0107799
0.0111998
0.0115487
0.0118373
0.0120745
0.0122675
0.0124225
0.0125448
0.0126389
0.0127084
0.0127568
0.0127867
0.0128002
0.0127986
0.0127818
0.0127488
0.0126966
0.0126204
0.0125135
0.0123681
0.012176
0.0119308
0.011629
0.0112725
0.0108689
0.0104308
0.00997406
0.00951419
0.00906388
0.00863074
0.00821744
0.00782554
0.00746164
0.00714202
0.00689584
0.00675515
0.000153905
0.00127104
0.0029034
0.00448888
0.00589351
0.00709873
0.0081185
0.00897568
0.00969386
0.0102945
0.0107961
0.0112142
0.0115617
0.0118492
0.0120855
0.0122781
0.012433
0.0125556
0.0126502
0.0127209
0.0127709
0.0128029
0.0128191
0.0128207
0.0128078
0.0127794
0.0127322
0.0126615
0.0125604
0.0124205
0.0122334
0.0119917
0.0116917
0.0113348
0.0109286
0.0104865
0.0100254
0.00956224
0.00911107
0.00868025
0.00827277
0.00788917
0.00753323
0.00721903
0.00697461
0.00683369
0.000152921
0.00127763
0.00291987
0.00450947
0.00591353
0.00711583
0.00813203
0.00898587
0.00970132
0.0102999
0.0108
0.0112171
0.011564
0.0118511
0.0120875
0.0122802
0.0124356
0.012559
0.0126547
0.0127269
0.0127788
0.0128133
0.0128326
0.012838
0.0128297
0.0128067
0.012766
0.0127029
0.0126102
0.0124796
0.0123018
0.0120691
0.0117766
0.0114251
0.0110218
0.01058
0.0101176
0.00965313
0.0092021
0.00877422
0.00837278
0.00799707
0.00764789
0.00733538
0.00708564
0.00693717
0.000151672
0.00128117
0.00292926
0.00451953
0.00592062
0.00711862
0.00813064
0.00898111
0.00969416
0.0102912
0.0107906
0.0112074
0.0115544
0.011842
0.012079
0.0122726
0.0124291
0.0125537
0.012651
0.0127251
0.0127793
0.0128166
0.0128392
0.0128487
0.0128454
0.0128286
0.0127956
0.0127417
0.01266
0.0125421
0.0123783
0.0121601
0.0118816
0.0115422
0.011148
0.0107121
0.0102526
0.00978928
0.00933967
0.00891533
0.00852056
0.008154
0.00781348
0.00750372
0.00724473
0.00707387
0.000150175
0.00128154
0.00293122
0.00451853
0.00591416
0.0071064
0.00811359
0.00896058
0.00967151
0.0102676
0.0107668
0.0111841
0.011532
0.0118207
0.012059
0.0122541
0.0124122
0.0125386
0.0126379
0.0127142
0.0127709
0.0128112
0.0128373
0.0128511
0.0128531
0.012843
0.0128184
0.012775
0.0127064
0.0126042
0.0124587
0.0122604