/*--------------------------------*- C++ -*----------------------------------*\
  =========                 |
  \\      /  F ield         | OpenFOAM: The Open Source CFD Toolbox
   \\    /   O peration     | Website:  https://openfoam.org
    \\  /    A nd           | Version:  9
     \\/     M anipulation  |
\*---------------------------------------------------------------------------*/
FoamFile
{
    format      ascii;
    class       volScalarField;
    location    "0.35";
    object      p_rgh;
}
// * * * * * * * * * * * * * * * * * * * * * * * * * * * * * * * * * * * * * //

dimensions      [1 -1 -2 0 0 0 0];

internalField   nonuniform List<scalar> 
7700
(
1133.38
1133.18
1136.98
1143.6
1150.94
1157.98
1164.41
1170.17
1175.39
1180.19
1184.71
1189.01
1193.15
1197.19
1201.15
1205.08
1208.98
1212.9
1216.86
1220.92
1225.12
1229.53
1234.24
1239.35
1245.01
1251.38
1258.69
1267.21
1277.29
1289.38
1304.09
1322.27
1344.69
1371.94
1404.58
1443.03
1487.12
1535.56
1585.61
1633.15
1673.6
1703.44
1717.18
1722.08
1744.74
1778.94
1131.89
1130.82
1133.85
1139.76
1146.12
1152.52
1158.55
1164.12
1169.23
1173.97
1178.39
1182.57
1186.56
1190.41
1194.15
1197.83
1201.48
1205.15
1208.87
1212.71
1216.72
1220.99
1225.61
1230.71
1236.43
1242.96
1250.54
1259.47
1270.11
1282.91
1298.41
1317.21
1340.25
1368.42
1402.44
1442.81
1489.53
1541.53
1596.04
1648.29
1692.05
1722.36
1729.19
1717.22
1721.8
1766.46
1129.75
1129.77
1132.49
1136.97
1142.15
1147.54
1152.82
1157.81
1162.46
1166.8
1170.83
1174.61
1178.18
1181.58
1184.86
1188.07
1191.26
1194.48
1197.78
1201.24
1204.94
1208.95
1213.41
1218.44
1224.21
1230.93
1238.86
1248.29
1259.63
1273.31
1289.88
1309.94
1334.28
1363.75
1399.05
1440.6
1488.33
1541.25
1596.88
1650.8
1696.74
1728.62
1740.87
1728.24
1724.44
1775.04
1127.4
1128.62
1131.25
1134.89
1139.15
1143.63
1148.09
1152.38
1156.42
1160.18
1163.67
1166.91
1169.94
1172.8
1175.53
1178.19
1180.84
1183.54
1186.36
1189.38
1192.67
1196.36
1200.57
1205.45
1211.17
1217.97
1226.1
1235.89
1247.72
1262.04
1279.37
1300.27
1325.39
1355.49
1391.18
1432.79
1480.13
1532.19
1586.77
1640.16
1687.17
1722.5
1741.89
1746.56
1753.85
1806.49
1124.59
1126.8
1129.48
1132.64
1136.23
1139.99
1143.74
1147.37
1150.8
1153.99
1156.93
1159.64
1162.13
1164.46
1166.66
1168.8
1170.93
1173.13
1175.47
1178.03
1180.92
1184.25
1188.15
1192.79
1198.36
1205.09
1213.24
1223.14
1235.17
1249.76
1267.39
1288.6
1313.91
1343.96
1379.25
1420.01
1465.99
1516.29
1569.07
1621.43
1669.45
1708.94
1736.69
1755.94
1786.69
1853.47
1121.18
1124.08
1126.88
1129.74
1132.81
1135.99
1139.14
1142.18
1145.04
1147.69
1150.11
1152.31
1154.31
1156.15
1157.86
1159.52
1161.18
1162.91
1164.8
1166.93
1169.41
1172.36
1175.93
1180.28
1185.61
1192.14
1200.16
1209.97
1221.94
1236.48
1254.05
1275.09
1300.09
1329.53
1363.82
1403.1
1447.11
1495.08
1545.57
1596.43
1644.85
1687.76
1723.1
1756.39
1812.81
1903.39
1117.22
1120.57
1123.46
1126.05
1128.7
1131.36
1133.97
1136.48
1138.82
1140.96
1142.9
1144.62
1146.16
1147.55
1148.83
1150.04
1151.27
1152.57
1154.04
1155.76
1157.84
1160.41
1163.62
1167.63
1172.65
1178.89
1186.64
1196.19
1207.9
1222.15
1239.33
1259.86
1284.12
1312.5
1345.3
1382.62
1424.19
1469.34
1516.95
1565.45
1612.84
1657.12
1697.51
1741.58
1819.5
1929.65
1112.71
1116.37
1119.26
1121.58
1123.82
1126.01
1128.12
1130.12
1131.97
1133.64
1135.12
1136.41
1137.52
1138.49
1139.36
1140.18
1141
1141.9
1142.97
1144.3
1145.99
1148.18
1151.01
1154.64
1159.29
1165.17
1172.53
1181.69
1192.97
1206.71
1223.27
1242.99
1266.19
1293.15
1324.1
1359.06
1397.76
1439.61
1483.66
1528.65
1573.1
1615.61
1656.36
1704.27
1796.39
1918.54
1107.68
1111.53
1114.33
1116.36
1118.19
1119.92
1121.55
1123.06
1124.44
1125.65
1126.7
1127.57
1128.29
1128.88
1129.37
1129.8
1130.25
1130.78
1131.47
1132.41
1133.72
1135.51
1137.94
1141.16
1145.38
1150.81
1157.71
1166.36
1177.07
1190.14
1205.89
1224.6
1246.5
1271.78
1300.58
1332.89
1368.38
1406.46
1446.24
1486.49
1525.75
1562.58
1596.84
1636.6
1728.63
1832.23
1102.16
1106.11
1108.75
1110.45
1111.87
1113.13
1114.27
1115.31
1116.22
1117
1117.63
1118.1
1118.44
1118.66
1118.78
1118.86
1118.95
1119.11
1119.43
1119.99
1120.91
1122.29
1124.29
1127.07
1130.82
1135.74
1142.08
1150.13
1160.15
1172.44
1187.26
1204.81
1225.25
1248.67
1275.14
1304.57
1336.6
1370.55
1405.44
1439.82
1471.79
1498.87
1518.75
1534.1
1593.45
1601.36
3.71578
3.7114
3.70727
3.70187
3.69659
3.69236
3.68823
3.6851
3.68304
3.68184
3.68127
3.68097
3.68067
3.68011
3.67912
3.67756
3.67536
3.67249
3.66919
3.66515
3.6604
3.65547
3.65016
3.64467
3.63919
3.63381
3.62862
3.62357
3.61884
3.61448
3.61055
3.60709
3.60412
3.60161
3.59959
3.59803
3.59694
3.59625
3.59598
3.59581
3.71713
3.71377
3.71051
3.70612
3.70032
3.69402
3.68865
3.68468
3.68187
3.68007
3.67894
3.67821
3.6776
3.67688
3.67585
3.67436
3.67232
3.66968
3.66646
3.66271
3.65855
3.65378
3.64882
3.64367
3.63855
3.63338
3.62825
3.62335
3.61873
3.61449
3.61068
3.60732
3.60443
3.602
3.59999
3.5984
3.5972
3.59637
3.59589
3.59568
3.71955
3.71472
3.71159
3.70694
3.70113
3.6946
3.6887
3.684
3.68045
3.67791
3.67615
3.67491
3.67395
3.67302
3.67193
3.67052
3.66868
3.66632
3.66345
3.66015
3.65622
3.65189
3.64718
3.64233
3.63743
3.63252
3.62764
3.62291
3.61843
3.61428
3.61053
3.60722
3.60438
3.60198
3.59998
3.59834
3.59706
3.59614
3.59558
3.59549
3.72224
3.71518
3.71062
3.70582
3.69998
3.6936
3.68764
3.68264
3.67868
3.67569
3.67351
3.67193
3.67072
3.66966
3.66855
3.66721
3.66553
3.6634
3.66081
3.65775
3.65411
3.65005
3.64563
3.64101
3.6363
3.63158
3.6269
3.62233
3.61796
3.61388
3.61017
3.60689
3.60407
3.60168
3.59966
3.59797
3.5966
3.5956
3.59505
3.59507
3.72399
3.71457
3.70804
3.703
3.69736
3.69132
3.68558
3.68061
3.67656
3.67343
3.6711
3.66941
3.66814
3.66706
3.66597
3.6647
3.66313
3.66117
3.65877
3.65589
3.65248
3.64862
3.64437
3.6399
3.6353
3.63069
3.62612
3.62166
3.61736
3.61332
3.60962
3.60634
3.60352
3.60112
3.59908
3.59733
3.59588
3.59481
3.59429
3.5944
3.72329
3.7117
3.70339
3.69853
3.69347
3.68802
3.68271
3.67799
3.67407
3.67101
3.66875
3.66715
3.66598
3.66501
3.66402
3.66284
3.66136
3.65951
3.65725
3.65452
3.65128
3.64756
3.64342
3.63901
3.63444
3.62985
3.62532
3.62091
3.61666
3.61265
3.60895
3.60565
3.60279
3.60034
3.59824
3.59641
3.59489
3.59379
3.59333
3.59355
3.71793
3.70521
3.69591
3.6923
3.68843
3.68388
3.67917
3.67482
3.67116
3.66832
3.6663
3.66495
3.66405
3.66332
3.66252
3.66149
3.66011
3.65835
3.65618
3.65355
3.65042
3.6468
3.64272
3.63831
3.63371
3.62906
3.6245
3.6201
3.61588
3.6119
3.60819
3.60484
3.60189
3.59934
3.59713
3.59521
3.59362
3.59252
3.59215
3.59247
3.70373
3.69329
3.68473
3.68423
3.68241
3.67907
3.67506
3.67114
3.66781
3.66529
3.66363
3.66269
3.6622
3.66186
3.66139
3.66059
3.65936
3.65769
3.65557
3.65297
3.64988
3.64628
3.64221
3.63777
3.63309
3.62835
3.62371
3.61926
3.61504
3.61106
3.60732
3.60388
3.6008
3.59809
3.59573
3.59371
3.59207
3.59099
3.59072
3.59115
3.67012
3.67321
3.66937
3.67466
3.67583
3.67393
3.67057
3.66699
3.66396
3.66182
3.66064
3.66024
3.66032
3.66053
3.66053
3.66009
3.6591
3.65753
3.65542
3.65278
3.64964
3.64599
3.64188
3.63736
3.63259
3.62773
3.62296
3.61841
3.61413
3.61011
3.60631
3.60276
3.59949
3.59658
3.59404
3.5919
3.59022
3.58918
3.58902
3.58955
3.59628
3.63928
3.6514
3.66519
3.66974
3.66903
3.66596
3.66244
3.65956
3.65781
3.65721
3.65752
3.65835
3.65926
3.65988
3.65993
3.65927
3.65786
3.65575
3.65302
3.64973
3.64595
3.64171
3.6371
3.63221
3.6272
3.62226
3.61755
3.61314
3.60902
3.60512
3.60141
3.59794
3.59478
3.59204
3.58976
3.58806
3.58709
3.58706
3.58768
1096.14
1100.13
1102.55
1103.9
1104.88
1105.66
1106.3
1106.84
1107.29
1107.62
1107.83
1107.92
1107.88
1107.73
1107.51
1107.23
1106.97
1106.77
1106.71
1106.89
1107.4
1108.36
1109.9
1112.19
1115.4
1119.75
1125.46
1132.81
1142.07
1153.49
1167.28
1183.57
1202.45
1223.9
1247.9
1274.32
1302.7
1332.29
1361.89
1389.69
1412.98
1427.6
1427.39
1403
1356.52
1073.25
1089.66
1093.63
1095.79
1096.76
1097.27
1097.52
1097.64
1097.68
1097.64
1097.52
1097.31
1096.99
1096.57
1096.05
1095.47
1094.84
1094.21
1093.65
1093.21
1092.99
1093.07
1093.58
1094.63
1096.39
1099.02
1102.72
1107.72
1114.3
1122.72
1133.21
1145.91
1160.91
1178.18
1197.61
1219.1
1242.43
1267.13
1292.31
1316.61
1337.89
1352.8
1356.09
1339.25
1286.47
1180.55
958.778
1082.84
1086.75
1088.63
1089.17
1089.16
1088.86
1088.43
1087.92
1087.38
1086.78
1086.12
1085.38
1084.56
1083.67
1082.71
1081.72
1080.72
1079.77
1078.94
1078.3
1077.94
1077.96
1078.49
1079.67
1081.67
1084.65
1088.87
1094.6
1102.13
1111.66
1123.3
1137.03
1152.71
1170.17
1189.18
1209.5
1230.64
1251.66
1271.11
1286.71
1294.99
1290.78
1266.5
1210.82
1113.37
991.103
1075.8
1079.62
1081.19
1081.27
1080.69
1079.79
1078.75
1077.66
1076.56
1075.44
1074.3
1073.11
1071.88
1070.59
1069.24
1067.86
1066.47
1065.13
1063.88
1062.8
1061.96
1061.47
1061.44
1062.01
1063.31
1065.52
1068.86
1073.66
1080.26
1088.86
1099.5
1112.06
1126.28
1141.86
1158.51
1175.98
1193.81
1211.11
1226.43
1237.56
1241.3
1233.15
1207.4
1157.45
1077.29
984.568
1068.71
1072.43
1073.66
1073.21
1071.99
1070.41
1068.7
1066.96
1065.24
1063.56
1061.89
1060.22
1058.53
1056.82
1055.06
1053.27
1051.47
1049.7
1048.01
1046.46
1045.13
1044.1
1043.48
1043.4
1043.97
1045.32
1047.68
1051.45
1057.1
1064.83
1074.61
1086.18
1099.12
1112.98
1127.45
1142.28
1157.14
1171.26
1183.3
1191.27
1192.33
1182.76
1158.17
1114.25
1047.03
965.527
1061.8
1065.38
1066.24
1065.2
1063.24
1060.88
1058.39
1055.92
1053.52
1051.2
1048.96
1046.76
1044.59
1042.42
1040.22
1038
1035.76
1033.55
1031.41
1029.38
1027.53
1025.94
1024.71
1023.96
1023.77
1024.19
1025.43
1028.03
1032.68
1039.62
1048.76
1059.65
1071.57
1083.92
1096.38
1108.8
1121.03
1132.54
1142.19
1148.23
1148.29
1139.26
1117.73
1080.75
1026.48
960.649
1055.33
1058.78
1059.25
1057.51
1054.65
1051.35
1047.97
1044.66
1041.5
1038.49
1035.61
1032.84
1030.15
1027.5
1024.83
1022.14
1019.44
1016.76
1014.13
1011.6
1009.2
1006.99
1005.11
1003.68
1002.69
1002.06
1001.89
1002.98
1006.57
1012.94
1021.87
1032.63
1044
1055.13
1065.76
1075.97
1085.89
1095.32
1103.39
1108.61
1109.09
1102.22
1085.25
1056.24
1014.63
964.536
1049.75
1052.98
1053.02
1050.39
1046.38
1041.9
1037.4
1033.08
1028.99
1025.15
1021.53
1018.07
1014.78
1011.57
1008.36
1005.11
1001.83
998.559
995.337
992.181
989.096
986.118
983.436
981.257
979.461
977.571
975.42
974.329
976.73
982.905
992.48
1004.28
1016.08
1026.56
1035.64
1043.85
1051.82
1059.75
1067.06
1072.43
1074.51
1071
1059.54
1038.75
1008.48
971.542
1045.3
1048.07
1047.61
1043.71
1037.98
1031.8
1025.79
1020.13
1014.85
1009.95
1005.35
1001.01
996.965
993.062
989.145
985.166
981.145
977.128
973.185
969.303
965.424
961.604
958.174
955.56
953.453
950.659
946.39
942.73
943.906
949.864
960.036
973.482
986.649
997.027
1004.63
1010.84
1017.18
1024.47
1032.21
1038.99
1044.05
1045.02
1039.6
1026.92
1006.8
981.091
1041.51
1044.01
1042.36
1035.95
1027.56
1019.32
1011.88
1005.16
999.032
993.428
988.233
983.345
978.943
974.767
970.569
966.327
962.11
958
954.125
950.423
946.585
940.422
933.585
926.508
920.071
908.826
878.642
826.266
816.7
834.221
881.64
935.499
959.874
969.638
974.12
976.353
979.519
985.964
995.091
1004.62
1015.2
1022.81
1024.41
1019.95
1009.17
993.416
1037.27
1017.04
1000.82
965.562
916.141
873.157
840.863
816.651
798.267
785.103
775.367
764.66
758.827
751.966
740.662
724.339
703.491
677.524
648.563
615.291
576.84
526.467
467.545
423.245
389.941
343.587
258.874
166.549
160.218
185.819
280.414
479.075
688.903
818.749
886.708
926.761
944.065
956.133
961.137
967.59
983.521
1000.28
1010.98
1016.24
1014.94
1008.44
618.86
436.877
377.623
294.488
214.287
165.25
136.921
119.251
107.609
100.361
95.5934
90.0308
87.9584
84.666
78.3032
69.0235
57.7391
44.9386
32.275
19.1478
3.16937
-1.60724
-1.58651
-1.58629
-1.58673
-1.61223
-1.69176
-1.79298
-1.84608
-1.87384
-1.88837
2.6119
50.3891
130.87
216.005
322.039
482.742
682.72
926.612
969.887
968.65
981.223
996.414
1012.12
1021.61
1025.2
-0.506189
-0.702191
-0.911347
-1.1021
-1.07002
-1.04636
-1.03883
-1.04331
-1.07283
-1.09552
-1.13176
-1.17669
-1.19827
-1.21243
-1.23622
-1.26863
-1.30575
-1.34324
-1.37968
-1.41498
-1.39494
-1.35657
-1.34566
-1.35866
-1.38454
-1.42024
-1.46632
-1.51719
-1.56923
-1.61098
-1.62181
-1.63507
-1.75958
-2.05706
-2.27157
-2.46274
-2.68887
20.49
76.4146
215.375
740.079
1021.05
1008.34
1014.58
1027.98
1041.08
-1.14701
-1.03902
-1.02501
-1.03043
-1.00427
-0.978685
-0.961335
-0.950652
-0.946149
-0.947402
-0.955397
-0.973955
-0.995221
-1.01528
-1.0373
-1.06469
-1.09907
-1.14096
-1.19123
-1.25338
-1.32638
-1.37958
-1.40477
-1.43054
-1.46325
-1.50204
-1.54661
-1.59381
-1.64515
-1.68987
-1.71462
-1.73248
-1.78733
-1.88214
-1.95568
-1.99807
-2.00275
-2.2407
-3.0213
-3.44402
32.6191
142.711
541.782
1071.38
1062.77
1064.06
-1.12086
-1.08748
-1.05104
-1.03811
-1.02139
-1.00459
-0.992643
-0.986481
-0.986085
-0.991218
-1.00263
-1.02325
-1.04665
-1.06987
-1.09555
-1.12639
-1.16335
-1.20628
-1.25469
-1.30839
-1.36565
-1.41366
-1.44949
-1.48414
-1.52091
-1.56179
-1.60695
-1.65395
-1.69845
-1.73792
-1.77291
-1.81214
-1.87174
-1.94999
-2.02433
-2.08107
-2.10442
-2.1289
-2.25776
-2.3319
-2.60679
-3.46905
8.80411
124.729
477.995
1110.91
-1.10053
-1.07964
-1.05897
-1.04443
-1.03158
-1.01986
-1.01194
-1.00906
-1.0115
-1.01915
-1.03187
-1.04959
-1.07164
-1.09773
-1.12811
-1.16298
-1.20228
-1.24566
-1.29252
-1.34169
-1.39081
-1.4359
-1.47671
-1.51648
-1.55732
-1.60061
-1.64645
-1.6935
-1.73967
-1.78428
-1.82849
-1.87804
-1.94103
-2.01583
-2.0918
-2.1624
-2.22423
-2.29176
-2.39213
-2.42619
-2.4262
-2.6014
-2.79666
-3.16572
2.84049
132.086
-1.09028
-1.07843
-1.06389
-1.05026
-1.03894
-1.02978
-1.02422
-1.02325
-1.02722
-1.03612
-1.04984
-1.06816
-1.09084
-1.11785
-1.14926
-1.18497
-1.22473
-1.26812
-1.3145
-1.3629
-1.41159
-1.45854
-1.50327
-1.54722
-1.59161
-1.63739
-1.6846
-1.7327
-1.78098
-1.82936
-1.87913
-1.93362
-1.99667
-2.06751
-2.14101
-2.21439
-2.2888
-2.37306
-2.47311
-2.54856
-2.60173
-2.684
-2.73183
-2.84004
-2.96533
-2.87953
-1.09526
-1.08323
-1.07024
-1.05781
-1.04793
-1.04079
-1.03725
-1.03802
-1.04344
-1.05355
-1.06831
-1.08759
-1.11122
-1.13914
-1.1713
-1.20757
-1.24767
-1.2912
-1.33755
-1.38589
-1.43509
-1.48387
-1.5317
-1.57908
-1.62663
-1.67487
-1.72395
-1.77381
-1.82433
-1.8758
-1.92925
-1.98669
-2.05003
-2.11877
-2.19081
-2.26489
-2.34186
-2.42583
-2.51866
-2.60768
-2.69719
-2.80156
-2.88456
-2.96531
-3.03043
-3.0796
-1.10351
-1.09089
-1.07865
-1.06751
-1.05921
-1.05399
-1.05236
-1.05484
-1.06172
-1.07311
-1.08898
-1.10926
-1.13384
-1.16262
-1.19553
-1.23239
-1.27294
-1.31676
-1.36332
-1.41192
-1.4617
-1.51181
-1.56181
-1.61172
-1.66176
-1.71224
-1.76332
-1.81515
-1.86791
-1.92202
-1.9783
-2.038
-2.10217
-2.17064
-2.24248
-2.31709
-2.39492
-2.47763
-2.56585
-2.65569
-2.75043
-2.85685
-2.96274
-3.07147
-3.16845
-3.24666
-1.11348
-1.1004
-1.08902
-1.07936
-1.0727
-1.06929
-1.06942
-1.07348
-1.08174
-1.09431
-1.11122
-1.13243
-1.15786
-1.18741
-1.22099
-1.2584
-1.2994
-1.34359
-1.39048
-1.43947
-1.48988
-1.54107
-1.59263
-1.6444
-1.69642
-1.74884
-1.80183
-1.85559
-1.91043
-1.96679
-2.02539
-2.08697
-2.15217
-2.22104
-2.29319
-2.3683
-2.44664
-2.52898
-2.61559
-2.70522
-2.79949
-2.90178
-3.00871
-3.12166
-3.23582
-3.34753
-1.12426
-1.11154
-1.10136
-1.09329
-1.08824
-1.08647
-1.08818
-1.09367
-1.10316
-1.1168
-1.13463
-1.15665
-1.1828
-1.213
-1.24714
-1.28504
-1.32645
-1.371
-1.41824
-1.46765
-1.51866
-1.57072
-1.62344
-1.67662
-1.73019
-1.78423
-1.83889
-1.89436
-1.951
-2.00932
-2.06978
-2.13291
-2.19913
-2.26855
-2.34109
-2.4166
-2.49527
-2.57756
-2.66373
-2.75355
-2.84791
-2.94827
-3.0536
-3.16418
-3.27829
-3.39535
-1.13566
-1.12416
-1.11553
-1.10908
-1.10553
-1.10522
-1.10831
-1.11506
-1.12565
-1.14023
-1.15885
-1.18155
-1.20829
-1.23901
-1.27361
-1.3119
-1.35365
-1.39852
-1.44609
-1.49589
-1.5474
-1.60014
-1.65372
-1.70792
-1.76266
-1.81797
-1.87398
-1.93092
-1.9891
-2.0489
-2.11081
-2.17518
-2.24229
-2.31226
-2.38514
-2.46097
-2.53993
-2.62234
-2.70852
-2.79869
-2.89347
-2.99354
-3.09845
-3.20784
-3.32057
-3.43604
-1.14775
-1.13814
-1.13118
-1.12628
-1.12409
-1.12505
-1.12934
-1.13717
-1.14872
-1.1641
-1.18341
-1.20667
-1.23388
-1.26501
-1.29996
-1.33855
-1.38056
-1.42567
-1.47348
-1.52357
-1.57546
-1.62868
-1.68287
-1.73779
-1.79335
-1.84959
-1.90662
-1.96466
-2.024
-2.08497
-2.14793
-2.21317
-2.28092
-2.35135
-2.42457
-2.50072
-2.57999
-2.66271
-2.74922
-2.83989
-2.93523
-3.03564
-3.14082
-3.2502
-3.36279
-3.47767
-1.16059
-1.15322
-1.14786
-1.14433
-1.14336
-1.14542
-1.15073
-1.15949
-1.17185
-1.18792
-1.20779
-1.23152
-1.25912
-1.29056
-1.32576
-1.36456
-1.40673
-1.45198
-1.49994
-1.55019
-1.60229
-1.6558
-1.71036
-1.76572
-1.8218
-1.87865
-1.93637
-1.99516
-2.05527
-2.11701
-2.18065
-2.24647
-2.31467
-2.38545
-2.45897
-2.53545
-2.61511
-2.69829
-2.78536
-2.87673
-2.97285
-3.07401
-3.17996
-3.29008
-3.40343
-3.51894
-1.17407
-1.16899
-1.16499
-1.16269
-1.1628
-1.16581
-1.17201
-1.18156
-1.1946
-1.21125
-1.23159
-1.25569
-1.28358
-1.31524
-1.3506
-1.38951
-1.43176
-1.47705
-1.52504
-1.57531
-1.62746
-1.68107
-1.73577
-1.79133
-1.84767
-1.90481
-1.96288
-2.02206
-2.08258
-2.14471
-2.20872
-2.27485
-2.34332
-2.41434
-2.48815
-2.56497
-2.64508
-2.72885
-2.81665
-2.90894
-3.00614
-3.10852
-3.21589
-3.32756
-3.44255
-3.55958
-1.18786
-1.18489
-1.18201
-1.18078
-1.18186
-1.18574
-1.19272
-1.20295
-1.21657
-1.23369
-1.25441
-1.27879
-1.30688
-1.33866
-1.37409
-1.41302
-1.45524
-1.50048
-1.54838
-1.59856
-1.65061
-1.70414
-1.7588
-1.81433
-1.87066
-1.92781
-1.98589
-2.04511
-2.10569
-2.16788
-2.23197
-2.29819
-2.3668
-2.43802
-2.5121
-2.58929
-2.66992
-2.75435
-2.84304
-2.93649
-3.03516
-3.13935
-3.2489
-3.36306
-3.48067
-3.6001
-1.20146
-1.2003
-1.19834
-1.19808
-1.20005
-1.20472
-1.21239
-1.22322
-1.23734
-1.25485
-1.27586
-1.30044
-1.32863
-1.36045
-1.39584
-1.43468
-1.47679
-1.52187
-1.56959
-1.61957
-1.67141
-1.72471
-1.77914
-1.83445
-1.89053
-1.9474
-2.0052
-2.06414
-2.12446
-2.18644
-2.25039
-2.31656
-2.38523
-2.45663
-2.531
-2.6086
-2.68978
-2.77497
-2.86471
-2.95963
-3.06027
-3.16697
-3.27954
-3.39717
-3.51842
-3.64117
-1.2143
-1.21462
-1.21346
-1.2141
-1.21689
-1.22229
-1.23059
-1.24196
-1.2565
-1.27434
-1.29556
-1.32026
-1.34847
-1.38023
-1.4155
-1.45417
-1.49605
-1.54089
-1.58834
-1.63803
-1.68954
-1.74249
-1.79653
-1.85141
-1.90702
-1.96338
-2.02063
-2.07902
-2.13883
-2.20041
-2.26407
-2.33012
-2.39884
-2.47043
-2.54512
-2.62317
-2.70496
-2.79102
-2.88205
-2.97883
-3.08202
-3.192
-3.30852
-3.43064
-3.55659
-3.68366
-1.22582
-1.22734
-1.22691
-1.2284
-1.23197
-1.23805
-1.24693
-1.25877
-1.27368
-1.29177
-1.31315
-1.33789
-1.36606
-1.39769
-1.43275
-1.47115
-1.51274
-1.55725
-1.60435
-1.65365
-1.70473
-1.75721
-1.81073
-1.86502
-1.91996
-1.97558
-2.03206
-2.08968
-2.14881
-2.20984
-2.27315
-2.33908
-2.40788
-2.47972
-2.55478
-2.63332
-2.7158
-2.8029
-2.89552
-2.99463
-3.10102
-3.21508
-3.33648
-3.4641
-3.59586
-3.72841
-1.23554
-1.23804
-1.23834
-1.24065
-1.24496
-1.25169
-1.26111
-1.27337
-1.28858
-1.30686
-1.32832
-1.35304
-1.38109
-1.41251
-1.4473
-1.48537
-1.52658
-1.57068
-1.61735
-1.66619
-1.71678
-1.7687
-1.82157
-1.87512
-1.92922
-1.98392
-2.03943
-2.09611
-2.15442
-2.21483
-2.27781
-2.34367
-2.41263
-2.4848
-2.56029
-2.63938
-2.72264
-2.81096
-2.9055
-3.00744
-3.11769
-3.23661
-3.36378
-3.49787
-3.63649
-3.77568
-1.24309
-1.24636
-1.24744
-1.25055
-1.25561
-1.26296
-1.27288
-1.2855
-1.30096
-1.31936
-1.34082
-1.36544
-1.39329
-1.42443
-1.45887
-1.49654
-1.5373
-1.58094
-1.62713
-1.67547
-1.72552
-1.77682
-1.82896
-1.88166
-1.93478
-1.98838
-2.04275
-2.09834
-2.15572
-2.21551
-2.27819
-2.34409
-2.41335
-2.48595
-2.56193
-2.6416
-2.72568
-2.81537
-2.91212
-3.01737
-3.13211
-3.25663
-3.39029
-3.53157
-3.67791
-3.82506
-1.24824
-1.25209
-1.25401
-1.25792
-1.2637
-1.27166
-1.28204
-1.29498
-1.31061
-1.32906
-1.35045
-1.37488
-1.40245
-1.43323
-1.46723
-1.50443
-1.5447
-1.58782
-1.6335
-1.68131
-1.73078
-1.7814
-1.83276
-1.88452
-1.93655
-1.98894
-2.04205
-2.09646
-2.15288
-2.21204
-2.27449
-2.34054
-2.4102
-2.48332
-2.55983
-2.64008
-2.72502
-2.81616
-2.91537
-3.02433
-3.14408
-3.27475
-3.41545
-3.56444
-3.71922
-3.87466
-1.25093
-1.25512
-1.25792
-1.26263
-1.26912
-1.27767
-1.28848
-1.3017
-1.31746
-1.33589
-1.35713
-1.3813
-1.4085
-1.43881
-1.4723
-1.50895
-1.54865
-1.59119
-1.63629
-1.68348
-1.73221
-1.78202
-1.83247
-1.88323
-1.93416
-1.98539
-2.03732
-2.09066
-2.14622
-2.20482
-2.26706
-2.3332
-2.40317
-2.47671
-2.55373
-2.63464
-2.72059
-2.81342
-2.91529
-3.02807
-3.15291
-3.2899
-3.438
-3.5956
-3.75912
-3.92214
-1.25114
-1.25541
-1.25913
-1.26465
-1.27187
-1.28099
-1.2922
-1.30567
-1.32152
-1.33991
-1.36096
-1.38481
-1.41158
-1.44138
-1.47427
-1.51026
-1.54927
-1.5911
-1.63541
-1.68171
-1.72949
-1.77825
-1.82762
-1.87731
-1.92719
-1.97742
-2.02847
-2.08105
-2.13604
-2.19423
-2.25621
-2.32222
-2.39217
-2.46584
-2.54323
-2.62489
-2.71212
-2.80692
-2.91152
-3.0279
-3.15731
-3.30007
-3.45558
-3.62158
-3.79381
-3.96594
-1.24879
-1.253
-1.25767
-1.26402
-1.27196
-1.28164
-1.29324
-1.30694
-1.32288
-1.34121
-1.36207
-1.3856
-1.41193
-1.44117
-1.4734
-1.50863
-1.54678
-1.58765
-1.6309
-1.67606
-1.72264
-1.77018
-1.81835
-1.86691
-1.91577
-1.96516
-2.01556
-2.06767
-2.1223
-2.1802
-2.24187
-2.30752
-2.37713
-2.45061
-2.52818
-2.61056
-2.69916
-2.79593
-2.90302
-3.02237
-3.15541
-3.30288
-3.46461
-3.63875
-3.82027
-4.00169
-1.24385
-1.2479
-1.25359
-1.2608
-1.26942
-1.27962
-1.29158
-1.30548
-1.32148
-1.33975
-1.36041
-1.38361
-1.40949
-1.43814
-1.46966
-1.50403
-1.54119
-1.58093
-1.62294
-1.6668
-1.71206
-1.75831
-1.80522
-1.8526
-1.90044
-1.949
-1.99877
-2.05044
-2.10474
-2.16232
-2.22361
-2.28879
-2.35791
-2.43104
-2.5086
-2.59149
-2.68115
-2.77943
-2.88835
-3.0098
-3.14541
-3.29636
-3.46298
-3.64373
-3.83399
-4.02477
-1.23616
-1.24053
-1.24704
-1.25503
-1.26426
-1.27491
-1.28716
-1.30122
-1.31724
-1.33539
-1.35582
-1.37866
-1.40403
-1.43206
-1.46279
-1.49625
-1.53234
-1.57089
-1.6116
-1.65412
-1.69804
-1.74297
-1.7886
-1.83478
-1.88155
-1.9292
-1.97824
-2.02932
-2.08313
-2.14023
-2.20099
-2.26559
-2.33413
-2.40681
-2.48417
-2.56721
-2.65738
-2.75641
-2.8662
-2.98865
-3.12559
-3.27859
-3.44836
-3.63377
-3.83044
-4.02964
-1.22606
-1.23085
-1.23807
-1.24674
-1.2565
-1.26752
-1.28
-1.29415
-1.31012
-1.3281
-1.34821
-1.37062
-1.39543
-1.42276
-1.45266
-1.48514
-1.52013
-1.55747
-1.5969
-1.63808
-1.68066
-1.72426
-1.7686
-1.81355
-1.85919
-1.90584
-1.95399
-2.0043
-2.0574
-2.1138
-2.17384
-2.23767
-2.30543
-2.3774
-2.45422
-2.53692
-2.62691
-2.72582
-2.83542
-2.9576
-3.09435
-3.24752
-3.4182
-3.6057
-3.80612
-4.01099
-1.21374
-1.21893
-1.22678
-1.23604
-1.24623
-1.25754
-1.27017
-1.28433
-1.30019
-1.31791
-1.33766
-1.35955
-1.38373
-1.41029
-1.4393
-1.47076
-1.50463
-1.54074
-1.57888
-1.61874
-1.65997
-1.70223
-1.74527
-1.78896
-1.8334
-1.87892
-1.92604
-1.97538
-2.02755
-2.08302
-2.14208
-2.20487
-2.27154
-2.34243
-2.41822
-2.49996
-2.58896
-2.68675
-2.79495
-2.91542
-3.05022
-3.20141
-3.37039
-3.55685
-3.75757
-3.96501
-1.19939
-1.20493
-1.21329
-1.22303
-1.23357
-1.24508
-1.25779
-1.27189
-1.28756
-1.30497
-1.32427
-1.3456
-1.36908
-1.39481
-1.42287
-1.45327
-1.48597
-1.52084
-1.55768
-1.5962
-1.63608
-1.67699
-1.71868
-1.76106
-1.80423
-1.8485
-1.89442
-1.94258
-1.99357
-2.04784
-2.10563
-2.16706
-2.23227
-2.30163
-2.37583
-2.45588
-2.54304
-2.63865
-2.74418
-2.86139
-2.99236
-3.13921
-3.30351
-3.48537
-3.68239
-3.88791
-1.1832
-1.189
-1.19778
-1.20789
-1.21867
-1.2303
-1.243
-1.25697
-1.27239
-1.28942
-1.30822
-1.32892
-1.35164
-1.3765
-1.40356
-1.43285
-1.46435
-1.49795
-1.53346
-1.57062
-1.60911
-1.64864
-1.68896
-1.72996
-1.77174
-1.81465
-1.85918
-1.90595
-1.9555
-2.00827
-2.06446
-2.12415
-2.18748
-2.25481
-2.3268
-2.40444
-2.48884
-2.5812
-2.68281
-2.79527
-2.92056
-3.06078
-3.2176
-3.39157
-3.58104
-3.78045
-1.16534
-1.17133
-1.1804
-1.19077
-1.2017
-1.21336
-1.22598
-1.23975
-1.25485
-1.27145
-1.28969
-1.30971
-1.33163
-1.35556
-1.38157
-1.40971
-1.43997
-1.47225
-1.5064
-1.54216
-1.57924
-1.61734
-1.65621
-1.69576
-1.73607
-1.77746
-1.82043
-1.86556
-1.91341
-1.96435
-2.01858
-2.07615
-2.13715
-2.20192
-2.27109
-2.34556
-2.42633
-2.5144
-2.61089
-2.71718
-2.8351
-2.96663
-3.11349
-3.27672
-3.4556
-3.64612
-1.14596
-1.15206
-1.16133
-1.17184
-1.18282
-1.19443
-1.20689
-1.2204
-1.23514
-1.25125
-1.26888
-1.28817
-1.30924
-1.33219
-1.35711
-1.38406
-1.41303
-1.44395
-1.47668
-1.51099
-1.5466
-1.58321
-1.62058
-1.6586
-1.69733
-1.73706
-1.77829
-1.82156
-1.86741
-1.91621
-1.9681
-2.02313
-2.08136
-2.14306
-2.2088
-2.2794
-2.3557
-2.43854
-2.5288
-2.62767
-2.73673
-2.85777
-2.99253
-3.14245
-3.3078
-3.48645
-1.12521
-1.13135
-1.1407
-1.15125
-1.16219
-1.17367
-1.18591
-1.19909
-1.2134
-1.22897
-1.24595
-1.26447
-1.28464
-1.30658
-1.33037
-1.35607
-1.3837
-1.41321
-1.44446
-1.47726
-1.51134
-1.5464
-1.58219
-1.61859
-1.65564
-1.69359
-1.7329
-1.7741
-1.81768
-1.864
-1.91321
-1.9653
-2.02032
-2.07847
-2.14024
-2.20632
-2.27742
-2.35418
-2.43729
-2.52768
-2.62665
-2.73572
-2.85655
-2.99076
-3.13928
-3.3017
-1.10319
-1.1093
-1.11863
-1.12912
-1.13994
-1.1512
-1.16315
-1.17596
-1.18978
-1.20477
-1.22106
-1.23876
-1.258
-1.27888
-1.30149
-1.32591
-1.35215
-1.38018
-1.4099
-1.44112
-1.47358
-1.50702
-1.54116
-1.57585
-1.61113
-1.64719
-1.68443
-1.72336
-1.76444
-1.80799
-1.85417
-1.90296
-1.95436
-2.00853
-2.06586
-2.12689
-2.19216
-2.26217
-2.33739
-2.4185
-2.50645
-2.60246
-2.70796
-2.82442
-2.953
-3.09423
-1.08001
-1.08601
-1.09523
-1.10557
-1.11617
-1.12716
-1.13875
-1.15112
-1.16442
-1.17879
-1.19434
-1.21119
-1.22946
-1.24925
-1.27064
-1.29372
-1.31852
-1.34502
-1.37314
-1.4027
-1.43348
-1.4652
-1.4976
-1.53052
-1.56394
-1.59801
-1.63307
-1.66957
-1.70794
-1.74849
-1.79135
-1.83651
-1.88395
-1.93378
-1.98626
-2.04181
-2.10082
-2.1636
-2.23043
-2.30173
-2.37811
-2.46042
-2.54973
-2.64715
-2.75361
-2.86988
-1.05572
-1.06158
-1.07059
-1.08068
-1.09099
-1.10164
-1.11283
-1.12472
-1.13745
-1.15114
-1.16593
-1.1819
-1.19916
-1.21782
-1.23797
-1.25967
-1.28298
-1.30789
-1.33433
-1.36217
-1.39118
-1.4211
-1.45169
-1.48275
-1.51423
-1.54623
-1.57902
-1.61299
-1.64851
-1.68586
-1.72517
-1.76645
-1.80966
-1.85485
-1.90219
-1.95197
-2.00441
-2.05968
-2.11788
-2.17917
-2.24384
-2.31234
-2.38531
-2.46338
-2.54699
-2.63648
-1.03042
-1.03608
-1.0448
-1.05456
-1.06452
-1.07477
-1.0855
-1.09686
-1.10899
-1.12199
-1.13597
-1.15103
-1.16727
-1.18477
-1.20364
-1.22393
-1.24571
-1.26898
-1.29369
-1.31972
-1.34689
-1.37493
-1.40362
-1.43275
-1.46221
-1.49208
-1.52254
-1.5539
-1.58648
-1.62052
-1.65615
-1.69337
-1.73215
-1.77249
-1.81451
-1.85833
-1.90407
-1.95174
-2.00129
-2.05269
-2.1059
-2.16102
-2.21824
-2.2777
-2.33927
-2.40269
-1.00418
-1.0096
-1.01796
-1.02733
-1.03687
-1.04667
-1.05691
-1.06771
-1.07919
-1.09146
-1.10462
-1.11875
-1.13394
-1.15028
-1.16784
-1.1867
-1.20692
-1.22851
-1.25144
-1.27561
-1.30085
-1.32694
-1.35364
-1.38075
-1.40814
-1.43582
-1.46391
-1.49263
-1.52224
-1.55293
-1.58481
-1.6179
-1.65215
-1.68755
-1.72415
-1.76196
-1.80099
-1.84115
-1.88225
-1.9241
-1.96645
-2.00906
-2.05175
-2.09423
-2.1359
-2.17597
-0.977067
-0.982218
-0.990173
-0.999092
-1.00817
-1.01748
-1.02718
-1.03739
-1.04821
-1.05974
-1.07205
-1.08524
-1.09937
-1.11452
-1.13077
-1.14819
-1.16683
-1.18672
-1.20783
-1.23009
-1.25334
-1.27741
-1.30205
-1.32708
-1.35233
-1.37778
-1.40347
-1.42955
-1.4562
-1.48357
-1.51173
-1.54069
-1.57042
-1.6009
-1.6321
-1.66399
-1.69646
-1.72934
-1.76236
-1.79521
-1.82749
-1.85875
-1.88852
-1.91618
-1.94083
-1.96132
-0.949168
-0.954035
-0.961544
-0.969972
-0.978555
-0.987347
-0.996486
-1.00608
-1.01622
-1.02698
-1.03844
-1.05067
-1.06374
-1.07772
-1.09266
-1.10864
-1.1257
-1.14387
-1.16314
-1.18346
-1.20469
-1.22667
-1.2492
-1.27207
-1.29514
-1.31831
-1.3416
-1.36506
-1.38881
-1.41294
-1.43747
-1.46241
-1.48773
-1.51339
-1.53935
-1.56551
-1.59171
-1.6177
-1.64316
-1.6677
-1.69087
-1.71208
-1.73069
-1.7459
-1.75664
-1.76154
-0.920559
-0.925133
-0.932177
-0.940088
-0.948147
-0.956396
-0.964956
-0.973917
-0.983359
-0.99335
-1.00396
-1.01524
-1.02725
-1.04005
-1.0537
-1.06825
-1.08374
-1.10021
-1.11765
-1.13602
-1.1552
-1.17507
-1.19543
-1.21611
-1.23695
-1.25782
-1.2787
-1.29959
-1.32052
-1.34152
-1.36258
-1.38369
-1.40479
-1.42586
-1.44682
-1.46756
-1.48788
-1.50748
-1.52602
-1.54307
-1.55815
-1.57065
-1.57986
-1.58492
-1.58472
-1.57784
-0.891313
-0.895595
-0.902165
-0.909546
-0.917068
-0.924761
-0.932729
-0.94105
-0.94979
-0.959008
-0.968759
-0.979095
-0.990062
-1.00171
-1.01409
-1.02723
-1.0412
-1.05599
-1.07162
-1.08805
-1.1052
-1.12294
-1.14113
-1.15958
-1.17815
-1.19672
-1.2152
-1.23356
-1.25177
-1.2698
-1.2876
-1.30511
-1.32227
-1.33904
-1.35534
-1.37106
-1.38597
-1.39977
-1.4121
-1.42253
-1.43057
-1.43566
-1.43711
-1.43409
-1.42556
-1.41024
-0.861492
-0.865492
-0.871591
-0.878442
-0.885422
-0.892555
-0.899928
-0.907606
-0.915643
-0.924091
-0.932995
-0.942398
-0.952339
-0.962859
-0.973995
-0.985782
-0.998252
-1.01142
-1.02529
-1.03983
-1.05497
-1.07062
-1.08663
-1.10286
-1.11917
-1.13542
-1.15153
-1.16742
-1.18301
-1.19823
-1.21299
-1.2272
-1.24076
-1.2536
-1.26566
-1.2768
-1.28683
-1.29546
-1.30233
-1.30703
-1.30909
-1.30801
-1.30316
-1.29383
-1.27912
-1.25796
-0.831153
-0.834884
-0.840527
-0.846855
-0.853299
-0.859873
-0.866653
-0.873692
-0.881033
-0.888719
-0.896788
-0.905277
-0.914218
-0.923641
-0.933576
-0.94405
-0.955085
-0.966692
-0.978866
-0.99158
-1.00478
-1.01837
-1.03225
-1.04629
-1.06036
-1.07433
-1.0881
-1.10158
-1.11467
-1.12725
-1.13921
-1.1504
-1.16072
-1.17007
-1.17835
-1.18546
-1.1912
-1.19532
-1.19748
-1.19731
-1.1944
-1.18829
-1.17846
-1.1643
-1.14511
-1.12001
-0.800343
-0.803824
-0.809031
-0.814852
-0.82077
-0.826795
-0.83299
-0.839398
-0.846053
-0.852991
-0.860245
-0.867842
-0.875811
-0.884174
-0.892954
-0.90217
-0.911834
-0.921951
-0.932511
-0.943488
-0.954829
-0.966461
-0.978287
-0.9902
-1.00208
-1.01382
-1.02532
-1.03647
-1.04716
-1.05726
-1.06662
-1.0751
-1.08254
-1.08882
-1.09384
-1.09748
-1.09955
-1.09983
-1.09804
-1.09385
-1.08689
-1.07679
-1.06311
-1.04537
-1.02304
-0.995432
-0.769106
-0.772354
-0.77715
-0.782486
-0.787895
-0.793384
-0.799007
-0.804797
-0.810782
-0.816991
-0.82345
-0.830183