/*--------------------------------*- C++ -*----------------------------------*\
  =========                 |
  \\      /  F ield         | OpenFOAM: The Open Source CFD Toolbox
   \\    /   O peration     | Website:  https://openfoam.org
    \\  /    A nd           | Version:  9
     \\/     M anipulation  |
\*---------------------------------------------------------------------------*/
FoamFile
{
    format      ascii;
    class       surfaceScalarField;
    location    "135";
    object      phi;
}
// * * * * * * * * * * * * * * * * * * * * * * * * * * * * * * * * * * * * * //

dimensions      [0 3 -1 0 0 0 0];

internalField   nonuniform List<scalar> 
167688
(
-0.0423266
0.0254899
0.0168367
0.0080861
-0.0735494
0.0654633
0.0356309
0.0484298
-0.0840607
0.0388301
-0.0850637
0.0462336
0.0911782
-0.078892
-0.0122863
-0.0730869
0.0131462
0.0599408
0.0420492
-0.0247632
-0.017286
-0.0385906
0.0774207
-0.12506
0.0423868
0.0826733
-0.0261586
-0.00375036
0.029909
-0.0516259
0.059712
-0.0618054
0.0350615
0.0267439
0.117182
-0.0896718
-0.0275101
-0.04658
-0.0152255
-0.0374522
0.0170632
0.020389
0.0420931
0.0328429
-0.074936
0.0188872
-0.00268119
-0.016206
0.0213179
-0.0260211
0.00470318
0.0301445
0.0388272
-0.0689717
0.108103
-0.066195
-0.0419078
-0.0837931
-0.021872
0.105665
0.0468315
0.0503695
-0.0972009
0.062596
-0.0324515
-0.0888513
0.0646432
0.0242082
0.0884677
-0.0288123
-0.0596554
-0.0746471
0.0308883
0.0437588
0.0125124
0.0104151
-0.0229275
0.0718384
-0.0802038
0.00836542
-0.091178
0.0180911
-0.000952496
-0.0828406
0.0117347
0.0692004
-0.0809351
0.060862
-0.0573382
-0.0035238
0.136457
-0.122735
-0.0137217
-0.00963735
0.0122099
-0.00257251
-0.0711676
-0.0538925
-0.11885
0.0793446
0.0395053
0.0524462
0.0556566
0.00446022
-0.014272
0.00981175
0.0265238
0.0384343
-0.064958
-0.0586491
-0.0371305
0.0957796
0.0339948
-0.0924278
0.0584329
-0.0638039
0.0145056
0.0492983
-0.0743858
-0.0108771
0.0852629
0.0650435
-0.0294127
0.0412484
-0.0199305
0.0402431
-0.0670508
0.0268077
-0.00224748
-0.00738987
-0.092152
0.00763246
0.0845195
-0.100917
0.0386694
0.0622479
-0.00240065
-0.0614033
0.0699037
-0.0287294
-0.0411743
-0.0270014
0.0236564
0.00334494
0.089603
-0.0873273
-0.00227577
-0.055327
0.0818508
0.00639613
-0.0700537
0.0636575
0.022869
0.0191803
-0.0701918
0.0523038
0.0178879
0.0827493
-0.0514764
-0.0312729
-0.0348207
0.00469026
0.0301304
0.0724425
-0.0321994
0.00858723
0.0326453
-0.0412325
-0.0416869
-0.0504651
0.119655
-0.0354172
-0.0842376
-0.00043027
0.120085
-0.00719248
-0.0295759
0.0367684
0.125815
-0.0730372
-0.0527782
0.0144716
-0.0100114
0.104042
-0.0853516
-0.0186908
-0.0613327
0.00553783
0.0557949
-0.0856125
-0.0162731
0.101886
0.0436173
0.039132
-0.00405161
0.00268062
0.00137099
-0.0618446
-0.0270067
-0.027036
0.0213387
0.0056973
-0.014869
0.0441171
-0.0292481
-0.00946482
0.0124747
-0.00300986
0.0903253
-0.00565953
-0.0846657
-0.0194577
0.046152
-0.0232592
-0.0228927
-0.0588092
0.00348214
0.0247767
0.0609633
-0.08574
-0.00218391
-0.00728091
0.0476674
0.0222363
-0.0594047
-0.0152424
0.112855
-0.0707622
0.0157533
-0.0699473
0.054194
0.0718473
-0.0509167
-0.0209306
0.0669143
-0.0605182
-0.00647652
0.0211896
-0.0147131
-0.0663158
0.0843961
-0.0180803
0.138109
-0.0597544
-0.0783543
-0.0497637
-0.0690862
0.0355269
0.0363204
0.0312988
0.0598794
0.0336041
-0.0484731
0.118431
-0.0281059
0.0707922
-0.0474482
-0.023344
-0.0282504
-0.00920184
0.0787654
-0.0670307
-0.0639726
-0.0062192
0.059042
0.0581399
0.113639
-0.109035
-0.00460438
-0.0932439
0.067781
0.0254629
0.0631991
-0.102626
0.0394273
-0.00912258
0.0363784
-0.0272558
-0.015606
0.00335106
0.0122549
-0.0484767
0.0412842
-0.0545207
0.0906538
-0.0361331
0.0788988
-0.118197
0.0392987
-0.0639576
0.0797109
-0.000139886
-0.00391172
-0.0403558
0.0437264
-0.00337055
0.0452886
0.0317293
-0.0770179
-0.0725071
0.0469447
0.0255624
-0.0754529
0.0141202
-0.0577993
0.0202614
0.0375379
0.0424212
-0.00480191
-0.0376192
0.00669153
-0.072977
0.0662855
-0.0161916
0.00971506
-0.127399
0.0895752
0.0378237
0.0510665
-0.0822823
0.0312159
-0.00809105
0.0799295
-0.0399775
0.0138189
0.067418
-0.0887661
0.0213481
-0.0555853
0.0895801
-0.0200304
0.0832296
-0.00331016
-0.0182207
0.0215308
0.00382804
0.0660208
-0.0698488
-0.0853388
0.0218823
0.0634566
0.0295452
-0.0386677
-0.023392
0.09081
0.0305263
-0.0180138
0.0260557
0.075473
-0.101529
0.0209988
-0.004351
-0.0166478
-0.0162816
0.0547158
-0.105202
0.0465532
0.128503
-0.0901246
-0.0383786
0.102903
-0.0744494
-0.0284538
-0.0439637
-0.0278881
0.0718518
0.0602677
-0.0303747
-0.029893
0.0398444
0.0630588
-0.0550332
0.0601661
-0.00513292
-0.0633276
-0.00302651
0.0663541
-0.00844155
0.0132815
-0.00483996
0.02138
-0.0759007
-0.0695051
0.0389134
0.0305918
0.0239416
0.00557299
-0.0295146
-0.114982
0.0368223
0.07816
0.076219
-0.0695274
-0.0778388
0.077711
0.000127855
-0.0162408
0.000634823
-0.0334047
0.0802362
-0.0366296
0.051482
-0.0148524
0.00686319
0.0827398
-0.0870075
0.0430438
0.0706894
-0.0351009
-0.0355885
-0.0864231
0.0749788
0.0114442
-0.0255745
-0.0469326
-0.0366988
0.0018781
0.0372836
-0.00208257
-0.035201
0.097893
-0.0526044
-0.100922
0.0626872
0.0382351
0.00764379
0.0455149
-0.0531587
-0.0731298
0.0364126
0.0367172
-0.0868997
0.094306
-0.00740631
0.0843079
-0.00545106
-0.0788568
0.0522535
0.00502264
-0.0572761
0.0226711
0.038191
-0.0883112
0.00732031
0.0809909
-0.0564452
0.0604519
-0.00400676
0.017852
0.0426345
-0.0604865
0.0651597
0.00552967
0.0895204
-0.0818767
-0.0187833
0.0103417
-0.0154168
-0.0479269
0.0633437
-0.0452499
-0.082149
-0.0914031
-0.00951419
0.121704
-0.0304109
-0.0912934
0.0650107
-0.0501672
-0.0148435
0.00115373
-0.0738577
0.0727039
-0.0516813
0.0362645
0.0837212
0.0193931
-0.103114
-0.115856
0.0124426
0.103413
0.0722109
-0.102159
0.0299482
-0.0719341
0.0442933
0.0276407
-0.0455548
0.0330967
0.0124581
-0.0599477
-0.0409746
-0.00404616
-0.0828536
-0.0691343
0.00580667
-0.0692564
0.0192798
0.0499767
0.0104032
0.049523
-0.0599263
0.085401
0.0510557
-0.106932
0.0406158
-0.0199408
0.0710073
0.10069
-0.0476376
-0.0530522
-0.142045
0.0985235
0.0435214
0.0569784
-0.0654711
0.00849265
-0.00164975
-0.0387061
0.104133
-0.0449064
-0.0592267
-0.0293447
-0.0570784
0.0013177
-0.0133711
0.0120534
-0.0179615
0.0423219
-0.0243604
-0.0284183
0.0370056
0.0309732
-0.0846022
0.053629
-0.0892365
-0.0164468
0.105683
-0.0348158
-0.0229835
-0.0195019
0.00440015
0.0151017
0.0200581
-0.0445171
0.0244591
0.0290435
-0.0101563
0.0762073
0.0153492
-0.0915565
-0.0984323
0.074633
0.0237993
0.114755
0.00243908
-0.117194
-0.0154081
0.0393498
-0.0170366
0.0764884
-0.00569622
-0.0202092
0.0402673
0.055466
-0.037614
-0.0567842
-0.00523929
0.0620235
-0.13434
0.0435109
0.0908294
0.0834332
-0.0304265
-0.0530067
-0.106515
0.0218438
0.0846715
0.0193297
-0.0431773
0.0238477
0.0951022
0.0307133
-0.00824097
0.0455245
0.0649839
-0.0144015
-0.0505824
-0.11274
0.0244283
0.0175634
0.0960757
-0.0184856
0.0472169
-0.0287313
-0.042013
0.0701595
-0.0281465
0.0742075
-0.105803
0.0315953
-0.113846
0.0394189
0.0744269
-0.0725273
-0.061813
-0.0420595
-0.0298746
-0.114856
0.0489452
0.065911
0.0295176
-0.000176912
-0.0293407
-0.0777099
0.0128117
0.0648982
-0.0867875
-0.0552574
-0.0345012
-9.01293e-05
0.000343676
-0.000253547
-0.00172472
-0.00467175
0.00639648
-0.0568849
-0.0191836
0.0760686
-0.0380236
0.0487675
-0.0107439
0.112968
-0.0798718
-0.0330964
-0.107705
0.0508196
-0.0162948
-0.0672628
0.0835575
0.0396437
-0.0101261
0.0651022
0.00805712
-0.0731593
0.0300174
-0.0634075
0.0333901
0.121796
-0.054266
-0.0675302
0.0212559
0.0621773
0.0243279
0.0355075
-0.0598355
0.101993
-0.0182723
0.0183242
-0.018368
4.38635e-05
0.0923236
-0.0373453
-0.0549783
0.00255734
0.0544211
-0.00139903
-0.0764398
0.058288
-0.0478847
-0.0910898
0.00575101
0.00657804
-0.00621845
-0.000359596
-0.018082
0.085863
0.0568719
0.00811207
0.0298396
-0.0289698
-0.000869793
0.0223305
0.0619774
-0.0159735
-0.0295812
-0.00295464
-0.0133605
0.0163152
-0.0769272
0.00767072
-0.00320863
-0.0860279
0.0452717
0.0764327
-0.00962201
-0.0326829
0.0423049
0.0374456
0.0665967
0.0632557
-0.0389277
-0.0145133
-0.0235228
0.0380361
0.0702494
0.0338836
-0.0334768
0.00647543
0.0323131
0.0429214
-0.0752345
0.0202127
0.0179265
-0.0381392
0.026542
0.0231445
-0.0496865
-0.000135222
0.000114756
2.04659e-05
-0.000130939
-4.28237e-06
0.00265147
0.0156727
-0.00260762
0.0815064
-0.0813104
0.0661135
0.015197
-0.0227481
-0.0150404
0.0377885
0.0549765
-0.0625271
0.00755055
0.101391
-0.0836752
-0.0177158
0.0323292
0.0326815
0.100962
-0.0264038
-0.0745577
0.124734
-0.0311114
-0.0936226
0.0882306
-0.0844026
-0.0349192
0.0252972
-0.099591
0.0524257
0.0471653
0.0104016
0.061287
-0.0716886
-0.0459485
-0.0301066
0.0760551
0.110884
-0.0561788
-0.0547051
-0.0680912
-0.046765
0.0574267
0.0439644
-0.0533742
0.0687703
-0.0153961
0.0852081
-0.0839088
-0.00129928
0.101958
-0.0598897
-0.0420681
0.105545
0.0325633
0.106395
-0.0412596
-0.0651357
0.0814671
-0.00925615
0.0242674
-0.042753
-0.109999
0.102383
0.00761634
-0.079126
0.0625173
0.0166087
-0.0534647
0.0795204
0.00334279
-0.119198
0.0531108
-0.074435
0.0213242
0.0858145
-0.0535014
-0.000995325
-0.0725682
0.0735636
-0.0206836
-0.095947
0.0505931
0.0453539
-0.12633
0.0390543
0.0872753
-0.111144
0.0180595
0.0930846
0.00101358
0.042469
-0.0434826
0.0471427
-0.027813
-0.024651
-0.0353015
0.0599525
-0.0826303
0.00492047
-0.104844
0.0730812
0.0317633
0.0970256
0.00493228
-0.0837345
0.0674398
0.0218683
-0.000869494
0.0104578
-0.0311512
0.0206934
0.105502
-0.0202941
0.0654884
-0.000386258
0.0530704
-0.0861705
0.0331001
-0.0118815
-0.0431517
-0.0824851
0.0080993
-0.0586807
-0.0226298
0.0807678
0.0477354
-0.0666937
0.0246807
-0.0728908
0.00750481
0.065386
0.0545303
-0.0121091
0.0661976
-0.000345989
-0.0658516
0.0985489
-0.0416985
-0.0568504
-0.0181826
-0.0522954
0.070478
-0.0222435
0.096451
0.0597325
0.0486105
-0.108343
-0.0126088
-0.0833382
-0.0239676
-0.00280719
0.0267748
-0.00992364
0.0112413
-0.0242941
0.020984
0.0916955
-0.00322782
-0.111466
0.0880057
0.0234598
-0.0908522
0.0379727
0.0528795
-0.0295382
0.0595556
-0.122043
0.0070611
0.06486
-0.0540289
-0.0108311
-0.00788688
-0.0485583
-0.0561314
0.080908
0.00611858
0.0182639
-0.0243825
0.0105593
0.0262081
-0.0367674
-0.000253945
-0.0240413
0.0242952
0.00902605
0.00815567
-0.0171817
-0.0639293
-0.00261209
0.0665413
-0.0731695
0.00924022
-0.0187269
-0.0077295
0.0264564
-0.0785832
0.079737
0.125102
-0.124736
-0.000365903
0.0165291
0.0229519
-0.039481
-0.034074
0.0114047
0.0226692
0.0542008
0.0709008
0.0819118
0.016637
-0.00775391
0.00658129
0.00117262
0.0260923
0.095704
0.000276932
-0.000367061
-0.00644025
-0.0175274
-0.0124945
-0.0363059
0.0488004
0.0798568
0.0265385
0.0476234
-0.0806034
0.0329801
-0.0277644
-0.00821864
0.035983
0.00652049
-0.0342849
-0.0307255
-0.0131164
0.0438418
0.0179906
0.00619122
-0.0241818
-0.000439495
0.000309874
0.000129621
0.128885
-0.0432066
-0.0856786
0.0703188
0.0585665
0.0776464
-0.0802341
0.00258767
-0.0318256
-0.00859388
0.0404195
0.107827
-0.0527051
-0.0551222
-0.0587206
-0.0676091
0.0876614
-0.0969375
0.00927604
0.0371129
-0.0205838
-0.0303573
0.0677419
-0.0373847
0.00537139
0.0477394
0.106004
-0.0066694
-0.0993348
0.0224495
0.0835546
0.00163693
-0.0584212
-0.0391784
0.0164303
-0.0294597
0.0310928
-0.0016331
-0.0356662
0.000205109
0.0354611
0.0058847
-0.0752537
0.069369
-0.0119516
0.08407
-0.0721183
0.0265812
0.0257944
-0.0523756
-0.0276507
0.000614787
-0.0860454
-0.0135455
-0.0991264
0.0654695
0.0336568
-0.0455669
-0.0215447
0.0671116
-0.0164697
0.0134226
0.0030471
-0.0767755
0.0648239
0.00453658
0.025303
-0.00774857
-0.0279176
-0.0041899
0.00456011
-0.000370207
0.052097
-0.0213699
-0.0307271
0.0201268
-0.0749241
0.0547972
-0.0248439
0.0235546
0.00128928
0.0702933
-0.0358621
-0.0344312
0.00526667
-0.0908792
0.10212
-0.021914
-0.0802063
0.111276
-0.0932456
-0.0180302
0.0688027
-0.00260505
0.0669582
-0.0916166
0.0246583
-0.0423127
-0.0439763
0.0862889
0.0943949
-0.0274367
-0.0712263
0.0530437
0.047346
-0.0676029
0.0202569
0.0310687
0.0432441
-0.0743128
0.0518043
-0.0507908
-0.100145
0.0909481
0.00919675
0.0559102
-0.0668222
0.0109119
-0.0156977
0.0261555
0.0791098
-0.110275
0.0311652
0.0627682
0.00228296
-0.0650511
0.0831791
-0.0805261
-0.00265303
0.0896181
0.0113434
0.0635269
0.0108883
-0.0744153
0.00954091
-0.0428198
0.0332789
0.0952168
-0.0233837
-0.0718332
0.0319113
-0.0565623
0.0272127
0.0430806
0.0532366
-0.0955492
-0.0583064
0.0275809
-0.071098
0.00804489
0.0630531
0.0149453
0.0037252
-0.0186705
0.00726741
-0.0325107
0.0252433
0.0241399
-0.0180213
0.0658061
0.0247099
-0.090516
-0.00381631
0.0686763
-0.00828335
0.00655862
-0.0240375
-0.00220912
0.0262466
0.0604767
0.00305019
-0.0220356
0.081768
0.073896
-0.0428273
-0.000798685
0.0318709
-0.0310722
-0.0939004
0.00985071
0.0840496
-0.13329
0.120182
0.0131079
-0.025021
0.00629404
0.00826787
-0.0323054
-0.0803595
0.0074687
0.0198829
-0.0654498
0.0406839
0.0195838
-0.0379406
0.0890417
-0.0511011
0.0151016
0.0640082
-0.0138457
0.0688222
-0.0115062
0.0645767
0.00326494
-0.00156059
-0.00170436
0.0708342
-0.087781
0.0169469
-0.0525867
0.0835599
0.0299119
0.0193299
-0.0492418
-0.0757886
0.0747933
0.0307941
0.0713261
-0.0584914
-0.0110138
0.0673344
-0.0569328
0.0641603
-0.0756242
0.0114639
-0.00621374
-0.0318099
0.0626164
0.0279711
-0.0905875
0.072217
0.0091602
-0.0813772
0.0503965
0.00170052
0.0430799
-0.0890285
0.10137
-0.0399707
-0.0613996
0.0145067
0.0731547
0.0541419
0.0606132
-0.0833473
0.0122493
-0.0644528
0.00256525
0.0618875
-0.0115577
0.0442815
-0.0327238
-0.0264594
-0.0368463
0.0633057
0.132704
-0.0803001
-0.0524035
-0.0375269
-0.0689884
-0.0883529
0.092089
-0.00373615
-0.0269282
-0.0842159
0.0209074
-0.0118814
0.000602115
-0.000405782
-0.000196333
-0.064166
0.0338088
0.0511282
-0.00497624
-0.0161296
-0.0507407
0.0668703
0.000464725
0.00611332
-0.0205665
-0.0253125
0.0458791
-0.0771419
-0.0137104
0.0548771
0.0580911
0.0497887
0.0829149
0.0941036
-0.0343222
-0.0597814
0.0541113
-0.0603329
0.00622169
-0.030439
-0.048687
-0.0337398
0.0963563
0.0439188
-0.0343779
-0.0879625
-0.00433311
0.0922956
-0.121407
0.0945275
0.0268798
-0.0904845
0.0145943
0.0758902
0.113717
-0.00283333
0.116893
-0.0577202
-0.0591726
-0.0344461
-0.0346548
0.0691009
0.0929116
0.0239813
0.006047
-0.0940095
-0.00313183
-0.0502424
0.131364
-0.0678695
-0.0634949
-0.0892083
-0.0128145
0.102023
0.14207
-0.0483189
-0.0937513
0.0240428
0.014151
-0.0381938
0.116671
-0.111641
-0.00502941
0.106751
-0.0345345
0.021208
-0.00933759
0.0227423
-0.0134047
0.00683677
0.041627
-0.0484638
0.0441198
0.067156
-0.000776125
0.0104535
-0.00967738
-0.0714734
0.0828603
-0.0113869
0.0473247
-0.118798
0.10862
-0.0145167
0.0273596
-0.0281583
-0.0164277
-0.037095
0.0535227
0.0904699
-0.0266614
-0.0638085
-0.0153887
-0.0448087
0.0601974
0.0642661
0.0604679
-0.0902178
0.0852922
0.00492568
-0.0267033
-0.0217772
0.0484805
-0.000567403
0.026669
-0.0261016
-0.094953
-0.0183278
0.113281
-0.0191012
-0.000400648
-0.0971194
0.00876658
0.114266
-0.0825863
-0.0316801
-0.0944056
0.056465
0.0191898
0.0584566
-0.00221836
0.0165131
-0.0142948
-0.0193156
0.0163609
-0.125182
0.0599969
0.0651847
0.060939
-0.0276575
-0.0332815
-0.0276871
0.0770545
-0.0493674
0.00671226
-0.0124006
0.00568838
-0.0982237
0.086434
0.0117897
0.127384
-0.0167821
-0.110602
0.112788
-0.0469818
0.0857882
0.0415963
-0.00533626
0.0120485
0.0382924
-0.0273506
-0.0109418
-0.0661308
0.0162115
0.0499194
-0.0581137
-0.0623739
-0.00375692
0.037859
-0.0519266
0.0140676
0.0635112
-0.00760094
-0.0183631
-0.0618859
0.080249
0.0290822
0.00921019
-0.0837643
0.00328194
0.0804824
0.0384863
0.034648
-0.0731343
0.0201768
-0.047468
0.0272912
-0.0586802
-0.0627272
-0.0369754
-0.0744901
0.0255218
0.0124113
-0.0379331
0.0583357
0.0988052
0.0358554
-0.028588
0.00638601
-0.00546578
-0.000920222
-0.0980651
0.107269
-0.00920394
0.0741782
-0.0867008
0.0125226
-0.0625552
0.028109
-0.00719495
-0.000558965
0.02074
-0.110958
-0.0800425
0.0767118
0.00333072
-1.75666e-05
0.000132322
-0.083175
0.0670454
-6.76757e-05
-6.32635e-05
0.0625239
-0.0124771
-0.0500468
0.0310942
-0.0426519
-0.0709606
-0.00128451
0.0722451
-0.0062132
-0.0284072
0.0346204
0.101823
-0.024979
-0.0768438
-0.0583397
0.0996567
-0.0413169
0.072926
-0.00953095
-0.063395
-0.0600836
-0.00436913
0.0968836
-0.0446302
-0.0300934
0.00524949
-0.0136333
-0.0865116
-0.0484073
-0.0848823
-0.0658211
0.0290583
0.0367629
-0.0197389
0.0826209
-0.062882
-0.0137089
0.0618418
-0.0481329
-0.0138059
-0.0811471
-0.0430854
0.0484809
-0.00539549
0.000418852
0.0374401
-0.0824879
-0.00711811
0.089606
0.00148082
0.0534864
-0.0549672
0.0849985
-0.0120725
0.0256965
-0.0590994
0.0334029
-0.0155055
0.129772
0.0686978
-0.0430013
0.0899122
0.0179151
0.0118577
0.0713215
0.0753844
-0.0914659
0.0160815
0.0186973
-0.0722851
0.0535879
-0.0482306
0.0882926
-0.040062
0.06027
0.0404198
-0.0342135
-0.0489333
0.0831467
-0.0130656
-0.0385941
0.0516597
0.00196601
0.0621943
-0.00248058
-0.0479453
0.0504259
0.0911796
0.00114404
-0.0502893
0.023586
0.0643483
0.0162941
-0.0806424
0.0924933
-0.0223463
-0.070147
0.0385317
-0.034214
-0.00431772
-0.143791
0.0494656
0.0943259
0.00732317
-0.0588551
0.0515319
-0.052756
-0.0052795
0.0580355
0.0065246
-0.0784998
0.0719752
-0.0891489
0.0373375
0.0518114
0.0138431
0.00701237
-0.0208554
-0.112632
0.0288674
0.0976246
0.0918322
-0.0405079
-0.0513243
0.0427334
-0.0557991
0.0245308
-0.0451056
-0.0084895
0.0535951
-0.0928637
0.071282
0.0215817
-0.0408543
-0.0691448
-0.070833
0.0773576
-0.0162389
-0.0729693
-0.0144509
0.0384937
0.106413
-0.0581361
-0.0482771
-0.0814955
0.0467899
0.0347056
-0.0228873
0.0705106
-0.0553209
0.0428264
-0.00662569
-0.00984402
-0.000271892
0.000407407
-0.000135514
0.0934253
-0.0640881
-0.0293373
-0.00533467
0.00124935
0.00408532
0.0706771
-0.0200285
-0.0506486
-0.100403
-0.0247784
0.11637
-0.0632329
-0.0531375
0.0920025
-0.0213254
0.105915
-0.0982805
-0.0076344
0.0583982
-0.078137
-0.117672
0.0672502
0.050422
0.0387262
0.0671887
-0.0983416
0.0821835
0.016158
-0.0279046
-0.0521379
-0.0284753
0.030227
-0.00175169
-0.0264931
0.0333106
-0.00681747
-0.0156373
0.0146118
0.00102548
-0.00127264
-0.0406975
0.0419701
0.000512814
0.00587319
-0.043526
-0.045623
9.59724e-05
0.000506143
-0.052079
0.0890414
-0.0369624
0.0434438
-0.0802656
0.0368218
-0.0448654
0.0403171
0.00454834
-0.0374288
0.0808726
-0.00899847
0.0831767
-0.0733308
0.0324263
0.0409045
-0.0427879
0.057434
-0.0146461
-0.0701173
0.0382917
0.0659205
-0.0151623
-0.0507582
0.0395474
0.0179007
-0.0574481
-0.0413345
0.0400618
0.107687
-0.0124697
0.0432467
-0.0138813
-0.0293655
0.072424
0.00633561
-0.0787596
-0.0611252
-0.0293604
0.0904857
-0.0581624
0.0130568
0.0317987
-0.0380119
-0.0708376
-0.0729538
0.0231076
-0.0713382
-0.0720273
0.0564292
0.0155981
-0.0226623
0.0428391
0.0909013
-0.0581562
-0.0327451
-9.16304e-05
0.0210347
-0.0209431
0.0964668
-0.0453759
-0.0510909
0.111347
-0.0384948
-0.0728519
0.0393308
0.0285882
-0.067919
-0.0220375
-0.0228279
0.0101207
0.00063487
-0.0107555
0.0944984
0.0211611
0.0707865
-0.0919476
0.00593147
-0.0580105
-0.022545
0.0786307
-0.0560857
-0.0172183
0.0437603
0.103653
-0.0232117
-0.0804409
-0.0583291
0.0403676
-0.0691768
-0.00210336
0.0712801
0.0624615
-0.096675
-0.0399031
0.0385321
0.00137101
-0.0421022
0.0489389
-0.0376911
-0.0410406
0.0787317
-0.0905857
0.0722802
0.0183055
0.044971
0.0295974
-0.0745684
0.0462888
0.00731533
-0.0536041
-0.0344415
0.00794842
0.0341953
0.00905138
0.0107337
-0.0200713
-0.0587536
0.0311962
0.0275573
0.0855385
-0.0103588
-0.0751797
0.0534599
-0.0332472
-0.065228
0.0725511
-0.0797433
0.128777
-0.0490339
0.00148386
-0.0445693
0.0118087
-0.0915521
-0.0992926
0.0381674
0.0450674
-0.004247
-0.0408205
-0.0983416
-0.0876849
0.0693218
-0.000393483
-0.00130378
0.00169726
0.0378301
-0.0755212
0.0492897
-0.0193778
-0.0100367
-0.047874
0.0579107
0.0541965
-0.0767415
-0.0659088
0.0583299
0.00757893
-0.0614778
0.0673625
-0.0610698
0.0816758
-0.020606
-0.0453364
-0.0134172
0.0848258
-0.0646989
-0.0542027
-0.0211345
0.0753372
0.0472022
0.0604197
-0.107622
-0.087505
0.051657
0.035848
0.0293151
0.0456507
-0.0749658
-0.0389208
-0.0591443
0.0528546
0.00348891
-0.0563436
0.0339185
0.0827521
0.0816215
-0.042074
-0.0342991
-0.031522
0.00554944
0.013579
-0.0191285
0.00656019
-0.0875935
0.0810333
-0.0347205
-0.00531739
0.0400379
0.088257
-0.0903978
0.00214082
0.00387362
0.0290506
-0.0329242
0.0142539
-0.0164723
0.0354069
-0.0884995
0.0530926
0.051799
0.0256224
-0.0774214
-0.0278801
-0.0897922
-0.00342449
0.0172676
0.0667352
-0.083924
0.0171887
-0.0902257
-0.0012317
0.0914574
0.0210279
0.0430623
-0.0640901
-0.0511248
0.0497698
0.00135508
-0.0147201
-0.0757644
0.0118525
-0.0177653
0.00591281
0.0563517
-0.0100629
0.0245753
-0.0184313
-0.00614404
0.0826292
-0.019861
0.0202217
-0.0653492
0.0451275
-0.0682495
0.0154934
0.0983643
-0.0348468
-0.0635175
-0.0254308
0.0647616
-0.0581874
0.105962
-0.0477743
0.104811
0.00761221
-0.112424
-0.0677994
-0.00808907
0.0758885
0.00943639
-0.0814637
0.101512
-0.0716431
-0.0298688
-0.0387189
0.0565045
-0.0177857
0.0985521
-0.0467532
-0.0591886
0.0803497
0.0362722
-0.0365261
0.0119428
-0.0824312
0.0704884
-0.0929312
0.0251317
0.0189502
-0.0195176
0.0692906
-0.00337006
0.0655916
-0.034713
-0.0308787
-0.0275243
0.0159007
0.0116236
0.00936451
-0.0101406
-0.0281911
-0.0542968
0.0947753
-0.0700818
-0.0246936
0.0119762
-0.0752268
0.0632506
-0.114711
0.0391481
0.0755628
0.0193717
0.0854396
0.0808264
-0.0140911
0.0217244
0.0484742
-0.0701985
-0.132049
0.0607228
0.0713263
-0.0982533
-0.0337958
-0.0423081
0.0700509
-0.0277428
0.00599123
-0.00603391
4.2679e-05
-0.0754508
-0.0182512
0.093702
-0.00519538
-0.0688431
0.0740385
0.0375841
-0.0270248
0.0048304
-0.0390926
0.0342622
0.0391789
-0.0392705
-0.113004
-0.00170728
0.0911777
-0.0724804
0.0120203
-0.0210036
0.00898331
0.0853989
-0.00298453
-0.0824144
0.0396308
-0.0905136
0.0508828
-0.0349676
0.0832938
-0.0483262
-0.125294
0.053074
0.0722197
0.0370652
-0.0322348
0.0424164
-0.117867
0.0344891
-0.0660995
0.0316104
-0.103242
0.0647996
0.0384424
0.0521873
-0.0387931
-0.0133941
0.104207
-0.0521551
-0.0520518
-0.00435882
-0.0720698
0.0764286
-0.0271465
-0.00692749
0.0905608
0.0130917
0.0304798
-0.0628144
0.0323346
0.0862123
-0.0465815
-0.0303786
-0.0561854
0.0865639
-0.0382941
0.00557865
0.0327154
-0.0708382
-0.0544555
0.0686352
0.0222661
0.00558003
0.00115248
-0.00673251
-0.0784386
0.0904148
-0.055835
0.0181609
0.0376741
-0.0617319
0.0472186
-0.00420038
0.0550498
-0.0508494
-0.0413007
-0.0458295
0.0871302
-0.0356712
0.0388446
-0.00317334
0.00704928
0.0812077
-0.0524825
-0.029013
-0.0598864
0.0393199
-0.0420671
-0.0561566
-0.0637739
0.00478115
0.0589928
0.0152908
0.0781346
0.0357258
0.0567675
0.0286882
-0.0846443
0.0559561
0.0616196
0.0425874
-0.0142313
-0.045976
0.0602073
-0.0800795
0.0312216
0.048858
-0.0927724
0.0162725
0.0764999
-0.094034
0.0190562
0.0749778
-0.0415279
-0.0525662
0.094094
-0.00645281
0.00226291
-0.00693772
-0.0296919
-0.0779481
0.0543734
0.0235747
-0.00283584
0.0556905
0.115974
-0.105824
-0.0101493
-0.0480587
0.0767468
0.034405
-0.0164144
-0.00508859
0.0319027
-0.0268141
-0.0309324
0.0983448
-0.0674124
0.00197812
-0.0023716
0.0610464
-0.0696049
0.00855855
-0.0846301
0.0574992
0.0271309
-0.0732506
-0.0234758
0.0967264
0.0101404
-0.0488592
-0.0687057
-0.00924239
0.0455483
-0.0764808
-6.07355e-05
-0.00037876
-0.00710152
0.0404388
-0.0333373
0.0968633
-0.0675482
-0.0610536
-0.0421885
0.071462
-0.0953812
0.0239191
0.0023676
-0.00152949
-0.000838112
-0.0496589
-0.0378461
-0.0182198
-0.0266056
0.0448254
0.0486703
-0.0963163
0.047646
-0.0315757
0.0660648
-0.0621577
0.0579573
-0.0237504
-0.00377391
-0.0413895
0.0900598
-0.0752819
0.011508
0.0642657
-0.0671793
0.00291368
-0.0468502
0.0313485
0.0155017
-0.0840473
0.0959901
-0.00795055
0.06374
-0.0557894
0.0960869
0.0152598
0.0154711
-0.00535047
-0.0447974
0.0806911
-0.0358937
0.0989262
-0.0342299
-0.0646963
0.0427826
0.00940466
0.0061736
0.0563503
-0.0327271
-0.051903
0.0200894
-0.09334
-0.0505732
0.0323534
0.036893
0.1075
-0.0110335
-0.0285611
0.0747143
-0.0461532
0.0704552
-0.0440732
-0.026382
0.000839497
-0.0436274
0.00481402
0.010554
-0.015368
0.0210824
-0.00380104
-0.0172814
-0.066649
0.0641684
0.0517161
-0.0596667
-0.0478738
-0.0505585
0.00841748
0.0197788
-0.0281963
0.0567256
-0.0262458
-0.0883797
0.0728983
0.0154813
-0.105185
0.0702172
-0.0199579
-0.0576564
0.0776142
-0.0597998
-0.0450447
-0.0938536
0.00447929
0.0893743
0.0906514
0.00827484
-0.0516689
0.0582291
-0.03635
0.00535423
0.0309957
-0.118439
0.0687664
0.0496729
0.113443
-0.0380591
-0.0753843
-0.0569967
0.0222762
0.0760521
-0.0760521
0.0632622
-0.0936407
0.0322554
-0.01731
-0.0460193
0.0345718
0.0114475
-0.074208
0.0756888
0.00513516
-0.0743119
-0.00780333
0.0134588
-0.00565544
-0.0875128
0.0721241
0.00241611
0.000848828
0.0773771
-0.013015
-0.0643621
0.0883879
0.00997636
0.0681506
-0.0148428
-0.0533078
-0.0965523
0.0383649
-0.0826759
0.0339388
0.0487371
-0.0173002
-0.0287191
0.0703623
-0.116939
0.0465763
-0.00851294
-0.0564472
0.0649601
0.0846462
-0.0773528
-0.00729341
0.099423
-0.0943096
-0.00511341
-0.0262099
-0.00251695
0.0287268
0.0617316
-0.0730112
0.0112796
0.0150449
-0.0571871
0.0421422
0.0483116
0.0651319
-4.77052e-06
0.005996
-0.0255633
0.0027148
0.0228485
0.0857967
-0.0385945
-0.0881371
0.0888428
-0.000705721
0.049411
-0.0953149
0.0459039
0.0773358
0.033531
-0.110867
0.0075599
0.0760324
-0.0835923
-0.106841
0.0868832
0.0918429
-0.0335019
-0.058341
0.0932144
-0.0247235
-0.0684909
-0.0678957
-0.0162486
0.0841443
0.032591
0.059196
-0.091787
-0.00952422
-0.0689946
0.0785188
0.0863234
0.00208719
-0.0884105
0.126449
-0.0457552
-0.0806942
-0.0600555
0.100592
-0.0405366
-0.135706
0.0767222
0.058984
-0.102748
0.0265256
0.076222
0.0809469
-0.0783466
-0.00260023
-0.0700164
0.0648211
0.0228383
-0.0768979
0.0540596
-0.0100028
0.0803651
-0.000230363
-0.025176
0.0254064
-0.0351646
0.1125
0.0390386
0.0355591
-0.0745977
-0.0880521
-0.0161225
0.104175
0.0419209
0.0190181
0.0834137
-0.0646924
-0.0187213
0.134206
-0.0273206
-0.106885
-0.0674477
0.0340004
0.0334472
0.0446595
-0.04555
0.000890497
0.106404
-0.034898
-0.0715064
-0.0304977
0.102667
-0.072169
-0.0336615
-0.0499979
0.0836594
0.0772343
-0.032941
0.0170852
0.0101071
-0.0271923
0.00511706
0.00833767
-0.0134547
0.046841
0.000103645
-0.0893442
0.0181674
0.0711767
0.0679138
-0.0943394
0.0264255
0.0447816
-0.000297737
-0.0444838
-0.026143
0.0432762
-0.0171332
0.0948741
0.00663783
0.080215
-0.0448081
0.0952
-0.0505856
-0.0446144
-0.0148996
-0.0246144
0.0395139
0.116054
-0.0585841
-0.05747
0.0141093
0.0673626
-0.0814719
0.0357069
0.029077
-0.0647839
-0.1253
0.0525007
0.0727998
0.0605138
0.0302011
-0.090715
-0.0924801
0.0437313
0.0487488
-0.00368384
0.00368384
-0.0102349
0.116639
0.000707719
-0.000594983
-0.000112736
0.0298016
0.0574937
-0.0872953
0.059993
-0.0322532
-0.0277398
-0.0898422
0.0363052
0.0535369
-0.0531264
-0.0464544
0.0995808
-0.0514979
0.054232
-0.00273404
-0.00673774
-0.0612763
0.068014
0.0131751
0.0660033
-0.0791784
-0.0516941
0.0605679
-0.00887376
0.00472369
0.0227422
-0.0274659
-0.0515823
0.0899076
-0.0383253
0.00917495
-0.0339382
-0.111737
0.0488826
0.0628542
-0.00451531
0.0802915
-0.0757762
0.103417
0.000858779
-0.104276
-0.0110162
-0.00595389
0.0169701
0.0182957
0.0459561
-0.0642518
0.0489837
-0.0574967
-0.0217055
0.0931676
0.0297808
-0.0529143
0.0231336
-0.0508737
-0.016574
-0.0296275
-0.053967
0.0835945
0.0863692
-0.0604577
-0.0259115
0.0265421
-0.0440968
0.0175546
0.0613474
0.0420695
0.0381094
0.0489598
-0.0870692
-0.103935
0.0289079
0.075027
-0.0499027
-0.0528853
0.102788
-0.0206077
0.0632074
-0.0425997
-0.0005766
0.0529544
-0.0523778
0.0966627
-0.0509529
-0.0457099
0.0234249
-0.0734761
0.0500513
0.112293
-0.0531535
-0.0591395
0.0789763
-0.0172447
0.0818552
-0.0340798
-0.0477755
-0.109673
0.0436336
0.0660389
0.0521406
-0.101549
0.0494087
-0.0191551
0.00288613
0.016269
0.081192
-0.00381495
-0.00661741
-0.0342765
0.0408939
0.0767289
-0.0994838
0.0227549
0.0596541
0.0241285
-0.0837826
-0.0115287
0.0294318
-0.0179031
0.01073
-0.0521368
0.0414069
-0.137682
0.0793566
0.0583258
0.072912
-0.0952969
0.0223849
0.0678718
-0.0298383
-0.0380335
0.0482247
-0.0192706
-0.0289541
-0.0567305
0.00384084
0.0528897
-0.091015
0.0772739
0.0137411
-0.107566
0.0403035
-0.0831283
0.0511359
0.0319924
-0.0358807
0.0505404
-0.0146597
0.019596
0.00729499
-0.026891
-0.00014213
0.0463003
-0.0461582
0.131504
-0.073025
-0.0584793
0.0677421
-0.0531818
-0.0145603
-0.0443787
-0.00176116
0.0461399
-0.00738231
0.100303
-0.0929206
-0.069095
0.0312492
0.0378457
-0.0264706
-0.0451274
0.071598
-0.065094
-0.0223575
0.0874514
-0.0344682
0.00500847
0.0769586
-0.0997055
0.0227469
0.0923665
-0.063521
-0.0288455
-0.0814788
0.0882119
-0.00673312
-0.129124
0.0667089
0.0624147
0.013044
-0.0131754
0.000131348
0.0306283
-0.0250122
-0.00561615
0.0741922
-0.0775259
0.00333371
0.0974671
-0.0788246
-0.0186425
-0.00889246
-0.0551699
0.0640623
0.0686169
0.0313831
0.031006
0.00371508
-0.0347211
0.0228281
0.0640907
-0.0869187
0.0370909
-0.0316864
-0.00540451
0.0396235
0.00229974
-0.0419232
0.085632
0.0266609
0.106686
-0.11401
0.00732358
-0.0711567
-0.000487913
0.0716446
0.0898936
-0.0123555
-0.0775381
-0.047652
0.0137701
0.0338819
0.012273
0.094413
0.0554381
0.00522881
-0.0606669
0.104604
0.00700987
-0.111614
0.0815839
0.0141103
-0.0956943
0.0478022
0.024537
-0.0723392
0.0406208
0.0273091
-0.0679299
0.0044005
0.100203
0.0855547
-0.00318937
-0.0823653
0.0780344
0.0118592
-0.0736404
0.0291053
0.044535
0.0419631
-0.0456408
0.00367769
-0.0375468
0.0342238
0.00332296
0.0646681
-0.0358129
-0.0288552
-0.00875088
-0.00151006
0.0102609
0.0434966
0.022095
-0.0598729
0.0403613
0.0195116
-0.0355641
0.0685701
-0.0330061
0.0246041
0.0130471
-0.0376512
-0.107586
0.107791
-0.000205113
-0.0522427
0.0192281
0.0330145
-0.0156904
-0.0626597
0.0783501
0.0380737
-0.0634842
0.0254105
0.039302
-0.0347381
-0.00456381
0.101234
-0.108554
0.00732087
0.0217566
-0.0228176
0.00106106
-0.0166963
-0.0639356
0.0806319
0.0401365
-0.0832764
0.0431399
0.0402571
-0.0182202
-0.0220369
0.0317196
-0.0459509
0.0568289
-0.0886005
0.0317716
0.117809
-0.0175227
-0.100287
-0.115878
0.0131759
0.0390976
0.076876