/*--------------------------------*- C++ -*----------------------------------*\
  =========                 |
  \\      /  F ield         | OpenFOAM: The Open Source CFD Toolbox
   \\    /   O peration     | Website:  https://openfoam.org
    \\  /    A nd           | Version:  9
     \\/     M anipulation  |
\*---------------------------------------------------------------------------*/
FoamFile
{
    format      ascii;
    class       volScalarField;
    location    "200";
    object      nuTilda;
}
// * * * * * * * * * * * * * * * * * * * * * * * * * * * * * * * * * * * * * //

dimensions      [0 2 -1 0 0 0 0];

internalField   nonuniform List<scalar> 
10720
(
0.0656608
0.0673484
0.0682051
0.0679711
0.066681
0.0634401
0.0574471
0.0478979
0.0340413
0.0173693
0.0107649
0.0145006
0.0166868
0.0178555
0.0179908
0.0174798
0.015743
0.0139336
0.0152804
0.0156705
0.0150644
0.0135799
0.011995
0.0112214
0.0140125
0.0215757
0.0270556
0.0312599
0.0349158
0.0385811
0.0425111
0.0464718
0.0499943
0.0526232
0.0537233
0.0521933
0.0454365
0.0289725
0.0249241
0.06369
0.0613699
0.0589107
0.0560532
0.0529318
0.0494837
0.0456793
0.0415363
0.0371299
0.0325176
0.0276574
0.022507
0.0171822
0.0129942
0.0117073
0.0108601
0.0126154
0.0152044
0.0173827
0.019227
0.0209548
0.0226962
0.0245073
0.0263906
0.0282951
0.030161
0.0319584
0.0336744
0.035299
0.036836
0.0382991
0.039699
0.0410704
0.0424383
0.0439578
0.0455725
0.0483827
0.0496467
0.062934
0.0629904
0.062113
0.0618269
0.0622266
0.0649701
0.0688743
0.0728606
0.0755739
0.0752785
0.0705014
0.0645957
0.0679371
0.0692652
0.0615547
0.0553889
0.0547956
0.0542928
0.0571732
0.0645688
0.0703804
0.0710897
0.0680299
0.0637755
0.0617485
0.0610972
0.0618926
0.0611784
0.0592248
0.0567726
0.0548379
0.0539345
0.0536615
0.0541943
0.0563113
0.0617253
0.0728271
0.0929358
0.125777
0.124365
0.0638016
0.0644598
0.0652194
0.0654736
0.0654042
0.0649514
0.0639597
0.0623773
0.060304
0.0579292
0.0552741
0.0524933
0.0497459
0.0470279
0.0441428
0.0413189
0.038674
0.0362751
0.0341596
0.0322646
0.0305589
0.0290268
0.0276562
0.0263911
0.0252023
0.024163
0.0232916
0.0225837
0.0220347
0.021633
0.0213755
0.0212623
0.0212896
0.0214376
0.0218605
0.022784
0.0242348
0.0256452
0.0227895
0.0911087
0.0897399
0.0875442
0.085363
0.0830569
0.0809788
0.0779331
0.0778326
0.0804225
0.0841947
0.0873017
0.0940706
0.105194
0.115674
0.122039
0.117079
0.107679
0.103538
0.113945
0.115807
0.110123
0.101602
0.0943617
0.0906369
0.0893259
0.0880963
0.0855241
0.0805899
0.0743506
0.0693135
0.0679399
0.0711653
0.0801306
0.0939824
0.109851
0.130489
0.166549
0.226909
0.265398
0.0922481
0.0929579
0.0937565
0.0940907
0.0941
0.093745
0.0929016
0.0914904
0.0895664
0.0872441
0.08453
0.0815374
0.0783894
0.0751482
0.0718507
0.0685306
0.0653031
0.0622811
0.0594793
0.0568431
0.0543565
0.0520091
0.0497835
0.0475897
0.0453759
0.0431865
0.0410424
0.038961
0.0369594
0.0350321
0.0331963
0.0315198
0.0300164
0.0286998
0.0275641
0.0268177
0.0258779
0.028631
0.0209385
0.107169
0.106059
0.104396
0.102205
0.0993566
0.0969256
0.0936696
0.0899338
0.0865163
0.0860258
0.0895025
0.0978976
0.114183
0.13856
0.163218
0.177227
0.174326
0.151325
0.144896
0.142511
0.134257
0.124325
0.11851
0.117509
0.119136
0.118467
0.118868
0.114966
0.10813
0.102268
0.101085
0.106138
0.117601
0.134045
0.15572
0.18871
0.244595
0.340499
0.431903
0.108038
0.108625
0.109216
0.109515
0.109557
0.109329
0.108746
0.107762
0.106397
0.10469
0.102638
0.100296
0.0977315
0.0949879
0.0921084
0.0891033
0.0860489
0.083049
0.08015
0.0773387
0.0746191
0.0719891
0.0694348
0.0668712
0.0642409
0.0615924
0.0589517
0.0563432
0.0537902
0.0512937
0.048883
0.046584
0.0444185
0.0424294
0.0406228
0.0392416
0.0377931
0.0395124
0.0369497
0.1169
0.116129
0.114971
0.113403
0.111369
0.108701
0.105942
0.102823
0.0986773
0.0942603
0.0913311
0.0942457
0.107035
0.134587
0.175028
0.211821
0.226974
0.210022
0.17305
0.163768
0.154613
0.148061
0.147764
0.152641
0.164263
0.173758
0.177077
0.172943
0.164082
0.155184
0.151287
0.154626
0.165544
0.183569
0.210473
0.252742
0.326456
0.458108
0.600002
0.117489
0.117892
0.118283
0.118492
0.118525
0.118371
0.117973
0.1173
0.116361
0.115171
0.113725
0.112048
0.110174
0.108122
0.105918
0.103543
0.101043
0.0984869
0.0959233
0.0933593
0.0908101
0.0882793
0.0857603
0.0831791
0.0804833
0.0777162
0.0749061
0.0720811
0.0692681
0.0664772
0.0637431
0.0610988
0.0585726
0.0562212
0.0540638
0.0523743
0.0507331
0.0520695
0.051595
0.122836
0.122279
0.121441
0.120318
0.118937
0.11707
0.114674
0.111962
0.108905
0.104953
0.100059
0.0951616
0.0986127
0.117944
0.160473
0.217608
0.259589
0.260328
0.221557
0.187526
0.178724
0.178576
0.188054
0.209144
0.231302
0.245679
0.24957
0.244563
0.233372
0.221424
0.213658
0.213495
0.222149
0.239739
0.268757
0.317682
0.408045
0.575457
0.746247
0.12325
0.123536
0.123807
0.123957
0.123982
0.123875
0.123601
0.123137
0.122488
0.12166
0.120641
0.119445
0.118106
0.116638
0.115044
0.113291
0.111399
0.109406
0.107345
0.105226
0.103063
0.10086
0.0986131
0.096262
0.0937588
0.0911374
0.0884233
0.0856432
0.0828234
0.0799795
0.0771474
0.0743664
0.0716714
0.0691299
0.0667712
0.0648908
0.0631261
0.0642069
0.0650244
0.126753
0.12636
0.125765
0.124964
0.123971
0.122664
0.120956
0.118744
0.116063
0.11317
0.109455
0.103792
0.0982972
0.104162
0.134288
0.195775
0.265298
0.297327
0.272117
0.222501
0.209503
0.221607
0.249663
0.281237
0.307735
0.324809
0.331069
0.326444
0.313041
0.298733
0.287741
0.283614
0.287877
0.301813
0.329196
0.381406
0.486133
0.686969
0.866443
0.127038
0.127234
0.127418
0.12752
0.127531
0.127448
0.127246
0.126912
0.126448
0.125858
0.125131
0.124273
0.123299
0.122239
0.121096
0.119826
0.118439
0.116951
0.115379
0.113727
0.112003
0.110208
0.108336
0.106338
0.104172
0.101859
0.0994196
0.0968722
0.0942397
0.0915383
0.0888014
0.0860689
0.08338
0.0808078
0.0783901
0.0764283
0.0746224
0.0754713
0.0770793
0.129449
0.129163
0.128724
0.128134
0.127414
0.126553
0.125531
0.124177
0.122075
0.119445
0.116562
0.112614
0.106274
0.101514
0.113063
0.160127
0.241633
0.311127
0.317491
0.278868
0.260835
0.279107
0.312972
0.348166
0.3776
0.398074
0.408587
0.409142
0.400847
0.386764
0.373287
0.365429
0.364431
0.371122
0.392045
0.442645
0.556168
0.780633
0.962329
0.129647
0.129783
0.129908
0.129976
0.129975
0.129905
0.129748
0.129496
0.12915
0.128714
0.12818
0.127552
0.126836
0.126051
0.125215
0.124288
0.123272
0.122173
0.120996
0.119741
0.118411
0.117002
0.115507
0.113884
0.112098
0.110159
0.108077
0.105866
0.10354
0.101112
0.0986087
0.0960678
0.0935278
0.0910608
0.0887107
0.0867692
0.0850041
0.0856328
0.0876565
0.131401
0.131199
0.130881
0.130464
0.129993
0.129427
0.128744
0.127895
0.126643
0.124702
0.122162
0.119187
0.114819
0.107943
0.105157
0.128458
0.199004
0.294186
0.346186
0.328773
0.311598
0.331485
0.369225
0.408238
0.441421
0.466009
0.481361
0.487945
0.48707
0.480564
0.470519
0.459683
0.452732
0.449878
0.458886
0.500977
0.614381
0.848116
1.03839
0.131536
0.131626
0.131709
0.13175
0.131739
0.131677
0.13155
0.131352
0.131084
0.130751
0.130346
0.129873
0.129339
0.128753
0.128125
0.127434
0.126678
0.125857
0.124973
0.124022
0.123005
0.121916
0.120745
0.119459
0.118026
0.116452
0.114738
0.112891
0.110917
0.108825
0.106634
0.104374
0.10208
0.0998181
0.0976342
0.0957977
0.0941424
0.0945704
0.0967379
0.132864
0.132742
0.132538
0.132267
0.131963
0.131601
0.131144
0.130558
0.129768
0.128587
0.126735
0.124241
0.121153
0.116162
0.108715
0.111606
0.155447
0.251491
0.345638
0.369343
0.357422
0.377124
0.418593
0.462282
0.500148
0.529557
0.550196
0.563054
0.569898
0.572445
0.571648
0.566596
0.554758
0.540327
0.53243
0.557256
0.659518
0.889817
1.09679
0.132952
0.133008
0.133059
0.133079
0.13306
0.133003
0.132897
0.132737
0.132524
0.132261
0.131945
0.131581
0.131177
0.130738
0.130259
0.129732
0.129157
0.128531
0.127856
0.127128
0.126345
0.125501
0.124587
0.123575
0.12244
0.121182
0.119799
0.118292
0.116662
0.114913
0.113056
0.111114
0.109115
0.107118
0.105165
0.103496
0.101998
0.102253
0.104378
0.134
0.133968
0.13388
0.133733
0.133554
0.133317
0.132995
0.13257
0.132002
0.131241
0.130088
0.128268
0.125811
0.12251
0.116487
0.109437
0.125378
0.198728
0.313512
0.389174
0.398146
0.417118
0.461716
0.51075
0.554199
0.58917
0.615612
0.635031
0.649727
0.661614
0.671159
0.675793
0.669182
0.64612
0.615969
0.614339
0.692325
0.9092
1.13865
0.134051
0.134076
0.134102
0.134106
0.134081
0.134028
0.133938
0.133806
0.133632
0.13342
0.133168
0.132881
0.13257
0.132235
0.131867
0.131462
0.131016
0.13053
0.130004
0.129437
0.128825
0.128164
0.127444
0.126645
0.125745
0.124743
0.123636
0.12242
0.121095
0.119659
0.11812
0.116492
0.114798
0.113086
0.111395
0.109934
0.108613
0.108725
0.110689
0.134915
0.134949
0.134945
0.134882
0.134787
0.134634
0.134411
0.134106
0.133686
0.133134
0.132388
0.131233
0.129419
0.126975
0.12319
0.115615
0.113108
0.153213
0.259808
0.377319
0.42959
0.452428
0.499168
0.55382
0.603657
0.644962
0.677807
0.704199
0.727026
0.748514
0.768759
0.783699
0.78408
0.760354
0.71502
0.677234
0.716725
0.910227
1.16468
0.134933
0.134921
0.134928
0.134919
0.134889
0.134841
0.134764
0.134653
0.13451
0.134335
0.134129
0.1339
0.133655
0.133392
0.133103
0.132786
0.132439
0.13206
0.131647
0.131198
0.130713
0.130188
0.129614
0.128975
0.128257
0.127455
0.126567
0.125588
0.124515
0.123348
0.122088
0.120745
0.119337
0.1179
0.116469
0.115219
0.114088
0.11409
0.11583
0.135672
0.13574
0.135789
0.135785
0.135747
0.135655
0.135506
0.135291
0.134985
0.134571
0.13403
0.133283
0.132101
0.130278
0.127774
0.122841
0.114347
0.125503
0.20171
0.334617
0.438746
0.483503
0.531568
0.591588
0.648428
0.696838
0.736751
0.770632
0.802013
0.83352
0.864919
0.890674
0.898702
0.875528
0.819081
0.751761
0.738636
0.897067
1.17542
0.135656
0.135603
0.135595
0.135574
0.135542
0.135498
0.135432
0.135341
0.135221
0.135075
0.134903
0.134718
0.134521
0.134308
0.134076
0.133823
0.133547
0.133247
0.132921
0.132565
0.132179
0.131758
0.131296
0.130781
0.130202
0.129555
0.128837
0.128045
0.127176
0.126227
0.125199
0.124099
0.122938
0.121747
0.120554
0.119501
0.118555
0.118481
0.119975
0.136295
0.13638
0.136458
0.136493
0.136493
0.136447
0.136355
0.136211
0.135995
0.135692
0.135284
0.134746
0.133983
0.132747
0.13092
0.128076
0.121069
0.115821
0.155002
0.273008
0.416116
0.503957
0.5597
0.624191
0.688341
0.744571
0.792255
0.834214
0.874669
0.916741
0.959951
0.997413
1.01443
0.993535
0.927113
0.831869
0.765892
0.874188
1.17122
0.136252
0.136165
0.136147
0.136112
0.136077
0.136038
0.135984
0.135909
0.135808
0.135684
0.135541
0.135388
0.135225
0.135049
0.134859
0.134654
0.134431
0.134189
0.133927
0.133642
0.133331
0.132992
0.132618
0.1322
0.131728
0.131202
0.130618
0.129973
0.129265
0.12849
0.12765
0.126748
0.125794
0.124812
0.123824
0.122945
0.122163
0.122044
0.123296
0.136807
0.136901
0.136993
0.137053
0.137079
0.137066
0.137015
0.136923
0.136777
0.136563
0.136265
0.13586
0.135321
0.134519
0.133218
0.131388
0.127369
0.118352
0.127892
0.209979
0.363423
0.501171
0.58257
0.65198
0.723251
0.787858
0.844012
0.894672
0.944771
0.998029
1.05386
1.10427
1.13229
1.11647
1.04264
0.920288
0.805529
0.847699
1.15243
0.136742
0.136642
0.136618
0.136564
0.136524
0.13649
0.136446
0.136384
0.1363
0.136194
0.136073
0.135945
0.135808
0.13566
0.135502
0.135332
0.135149
0.134952
0.134738
0.134506
0.134253
0.133976
0.133671
0.133329
0.132942
0.132511
0.132032
0.131503
0.130922
0.130286
0.129595
0.128854
0.128069
0.127259
0.126443
0.125712
0.125067
0.124927
0.125951
0.137229
0.137326
0.137426
0.1375
0.137543
0.137555
0.137532
0.137476
0.13738
0.137234
0.137024
0.136728
0.136327
0.135779
0.134909
0.133592
0.131481
0.124913
0.118935
0.160601
0.293269
0.466316
0.592334
0.675386
0.753129
0.826377
0.891632
0.951616
1.01193
1.07701
1.14636
1.21115
1.25253
1.2453
1.16819
1.02121
0.854506
0.823795
1.11966
0.13715
0.137051
0.137026
0.136956
0.136906
0.136875
0.136839
0.136788
0.136717
0.136626
0.136523
0.136415
0.136298
0.136173
0.136039
0.135897
0.135744
0.13558
0.135403
0.135212
0.135003
0.134775
0.134523
0.13424
0.133921
0.133565
0.133169
0.132732
0.132252
0.131726
0.131156
0.130543
0.129894
0.129224
0.128549
0.127941
0.127408
0.127264
0.128079
0.137578
0.137677
0.137779
0.13786
0.137914
0.137943
0.13794
0.137912
0.137852
0.137755
0.137611
0.137403
0.137109
0.136708
0.136127
0.13519
0.133895
0.130478
0.121522
0.132008
0.223428
0.401525
0.576648
0.691548
0.778263
0.859849
0.93467
1.00455
1.07561
1.15311
1.23684
1.31749
1.37468
1.37971
1.30429
1.13795
0.921199
0.811827
1.07413
0.137495
0.137404
0.13738
0.137305
0.137242
0.137212
0.137181
0.13714
0.137074
0.136995
0.136908
0.136814
0.136714
0.136607
0.136493
0.136373
0.136244
0.136107
0.135959
0.135799
0.135625
0.135434
0.135224
0.134988
0.134722
0.134425
0.134096
0.133732
0.133333
0.132896
0.132421
0.131912
0.131372
0.130815
0.130254
0.129747
0.129303
0.129171
0.129788
0.13787
0.137968
0.138069
0.138153
0.138214
0.138254
0.138266
0.138258
0.138226
0.138166
0.13807
0.137927
0.137719
0.137424
0.137015
0.136376
0.135436
0.133847
0.127621
0.122129
0.169033
0.32003
0.527224
0.69108
0.798198
0.888208
0.972683
1.05292
1.13518
1.22558
1.32446
1.42231
1.49755
1.51836
1.44995
1.27163
1.01185
0.824696
1.0182
0.137789
0.13771
0.137689
0.137614
0.137547
0.137518
0.137491
0.137461
0.137392
0.137316
0.137241
0.13716
0.137073
0.13698
0.136883
0.13678
0.13667
0.136554
0.136429
0.136294
0.136147
0.135987
0.13581
0.135611
0.135387
0.135138
0.134862
0.134557
0.134222
0.133857
0.13346
0.133033
0.132582
0.132116
0.131648
0.131223
0.130849
0.130753
0.131169
0.138118
0.138212
0.13831
0.138395
0.138459
0.138505
0.138528
0.138534
0.138521
0.138487
0.138427
0.138333
0.138192
0.137984
0.137686
0.137251
0.136558
0.135661
0.132642
0.123974
0.13707
0.240468
0.447
0.661237
0.808021
0.911611
1.00532
1.09613
1.18988
1.29353
1.40813
1.52426
1.61948
1.65924
1.60313
1.42113
1.12743
0.85785
0.95582
0.138042
0.137976
0.137958
0.137889
0.137825
0.137802
0.137783
0.137773
0.1377
0.137617
0.137551
0.137483
0.137407
0.137325
0.137236
0.137143
0.137045
0.136943
0.136834
0.136718
0.136593
0.136457
0.136306
0.136138
0.135948
0.135737
0.135503
0.135246
0.134964
0.134656
0.134322
0.133963
0.133583
0.133191
0.132798
0.13244
0.13212
0.132104
0.132296
0.138329
0.138418
0.138512
0.138595
0.13866
0.138709
0.13874
0.138754
0.138754
0.138737
0.138702
0.138644
0.138552
0.138413
0.138203
0.137899
0.137415
0.136748
0.135531
0.129538
0.125141
0.178766
0.350565
0.59421
0.796431
0.928268
1.03261
1.13361
1.23894
1.35595
1.48657
1.62173
1.73844
1.79994
1.76115
1.58378
1.26717
0.918565
0.893778
0.138262
0.138207
0.138194
0.13813
0.138075
0.138063
0.138061
0.138072
0.13801
0.137927
0.137874
0.137821
0.137758
0.137685
0.137599
0.137505
0.137405
0.137304
0.137201
0.137095
0.136984
0.136865
0.136734
0.136589
0.136427
0.136247
0.136048
0.13583
0.135591
0.13533
0.135047
0.134743
0.134422
0.13409
0.133757
0.133454
0.133173
0.13327
0.133233
0.13851
0.138593
0.138681
0.13876
0.138824
0.138874
0.13891
0.13893
0.138939
0.138936
0.138919
0.138884
0.138827
0.138738
0.138598
0.138386
0.138059
0.137541
0.136945
0.134177
0.125938
0.142204
0.25836
0.494384
0.749662
0.930921
1.05423
1.16504
1.28157
1.41177
1.55838
1.7129
1.85212
1.93777
1.92102
1.75609
1.42782
1.01131
0.842597
0.138451
0.138407
0.138397
0.138341
0.138295
0.138298
0.138321
0.138346
0.1383
0.138243
0.138205
0.138168
0.138122
0.138064
0.137988
0.137895
0.137787
0.137675
0.137563
0.137453
0.137343
0.137231
0.137113
0.136985
0.136843
0.136688
0.136517
0.13633
0.136126
0.135904
0.135663
0.135405
0.135132
0.13485
0.134567
0.134309
0.134056
0.134251
0.134057
0.138664
0.138739
0.138821
0.138896
0.138957
0.139007
0.139044
0.139069
0.139085
0.139092
0.139089
0.139072
0.139039
0.138985
0.138895
0.138753
0.138533
0.138164
0.13771
0.136755
0.130979
0.127945
0.187808
0.379068
0.660433
0.905699
1.06669
1.19047
1.31712
1.45991
1.62209
1.79583
1.95811
2.06984
2.07949
1.93416
1.60452
1.13595
0.816639
0.138612
0.138577
0.138571
0.138522
0.138486
0.138505
0.138556
0.138594
0.138556
0.138527
0.138502
0.138477
0.138445
0.138406
0.138352
0.13828
0.138184
0.138069
0.137943
0.137818
0.137697
0.13758
0.137464
0.137343
0.137214
0.137076
0.136927
0.136765
0.13659
0.136399
0.136193
0.135972
0.135739
0.135498
0.135257
0.135037
0.134804
0.135057
0.134841
0.138793
0.138861
0.138936
0.139005
0.139062
0.139111
0.139149
0.139177
0.139198
0.139212
0.139219
0.139216
0.139201
0.13917
0.139118
0.139028
0.138882
0.138639
0.138258
0.137892
0.135316
0.127671
0.146415
0.271985
0.535967
0.837355
1.05974
1.20879
1.34537
1.4994
1.67625
1.86859
2.05391
2.19309
2.23298
2.11394
1.79187
1.288
0.827432
0.138748
0.13872
0.138717
0.138677
0.138649
0.138682
0.138755
0.138807
0.13878
0.138764
0.138746
0.138727
0.138704
0.138678
0.138643
0.138597
0.138532
0.138444
0.138331
0.138201
0.138067
0.137937
0.13781
0.137685
0.137559
0.137429
0.137294
0.13715
0.136996
0.136831
0.136653
0.136464
0.136264
0.136057
0.13585
0.135665
0.135454
0.135728
0.135539
0.138899
0.13896
0.139027
0.13909
0.139143
0.139189
0.139226
0.139257
0.139281
0.139299
0.139312
0.139319
0.139318
0.139306
0.139279
0.139229
0.139138
0.138984
0.138705
0.138419
0.137658
0.132224
0.130244
0.192605
0.398337
0.719886
1.01599
1.21412
1.36626
1.52956
1.71951
1.92933
2.13707
2.30434
2.37753
2.29085
1.98468
1.46076
0.886726
0.138861
0.138839
0.13884
0.138807
0.138789
0.138831
0.138916
0.138979
0.138967
0.138956
0.138941
0.138927
0.13891
0.138892
0.138868
0.138838
0.138798
0.138743
0.138666
0.138564
0.138441
0.138308
0.138173
0.138039
0.137906
0.137774
0.137642
0.137507
0.137367
0.137219
0.137063
0.136898
0.136726
0.13655
0.136376
0.136238
0.136072
0.136331
0.136156
0.138986
0.139039
0.139099
0.139155
0.139203
0.139246
0.139282
0.139313
0.139338
0.139359
0.139378
0.139392
0.1394
0.139401
0.139393
0.13937
0.13932
0.139227
0.13905
0.138782
0.138585
0.136247
0.129348
0.147926
0.276056
0.565474
0.918589
1.19178
1.3773
1.55036
1.7507
1.9763
2.20527
2.40043
2.50893
2.46017
2.17836
1.6467
0.996124
0.138954
0.138937
0.138942
0.138918
0.138909
0.138958
0.139047
0.139112
0.139116
0.139111
0.139101
0.139091
0.139078
0.139064
0.139047
0.139026
0.139
0.138966
0.138919
0.138854
0.138766
0.13866
0.138539
0.138409
0.138275
0.138139
0.138005
0.137872
0.137738
0.137602
0.137461
0.137317
0.13717
0.137025
0.136894
0.136817
0.136709
0.136912
0.136724
0.139057
0.139103
0.139155
0.139205
0.139248
0.139287
0.13932
0.13935
0.139376
0.1394
0.139422
0.139441
0.139457
0.139467
0.139471
0.139465
0.139444
0.139394
0.139293
0.139089
0.138933
0.138337
0.133519
0.131585
0.190449
0.403757
0.764742
1.11975
1.3685
1.56128
1.7693
2.0078
2.25634
2.47828
2.62279
2.6168
2.36854
1.83951
1.14364
0.13903
0.139019
0.139027
0.139012
0.139014
0.13907
0.139159
0.13922
0.139236
0.139239
0.139235
0.139228
0.139219
0.139208
0.139195
0.139179
0.139161
0.139138
0.139108
0.139069
0.139014
0.138943
0.138854
0.138752
0.138636
0.138513
0.138388
0.138263
0.138138
0.138014
0.137889
0.137765
0.137644
0.137531
0.137433
0.137381
0.137311
0.137461
0.13725
0.139117
0.139158
0.139204
0.139248
0.139286
0.139321
0.139351
0.139377
0.139402
0.139426
0.139449
0.139471
0.139492
0.139509
0.139522
0.139529
0.139526
0.139506
0.139453
0.139329
0.139152
0.139071
0.13713
0.131016
0.145984
0.268974
0.575455
0.980732
1.31839
1.55672
1.77555
2.02258
2.28792
2.53501
2.71474
2.75497
2.55019
2.03414
1.31256
0.139096
0.139089
0.139101
0.139094
0.139107
0.139172
0.139261
0.139317
0.139339
0.139349
0.139349
0.139346
0.13934
0.139332
0.139321
0.139309
0.139294
0.139277
0.139257
0.139232
0.139198
0.139153
0.139096
0.139024
0.138938
0.13884
0.138735
0.138629
0.138522
0.138415
0.138309
0.138204
0.138104
0.138012
0.137931
0.137887
0.137835
0.137948
0.137726
0.139172
0.139209
0.139252
0.139292
0.139326
0.139357
0.139383
0.139406
0.139427
0.139448
0.139469
0.139489
0.139511
0.139532
0.139551
0.139567
0.139577
0.139577
0.139555
0.139493
0.13935
0.139281
0.138869
0.134982
0.131947
0.182208
0.391009
0.779914
1.2
1.51899
1.76685
2.02085
2.29793
2.56737
2.7805
2.86827
2.71685
2.22493
1.49057
0.139156
0.139153
0.139168
0.139167
0.13919
0.139264
0.139355
0.139407
0.139434
0.139448
0.139452
0.139451
0.139447
0.139441
0.139432
0.139422
0.13941
0.139396
0.13938
0.139362
0.13934
0.139312
0.139275
0.139228
0.139169
0.139097
0.139016
0.138931
0.138843
0.138755
0.138667
0.138581
0.138498
0.138422
0.138354
0.138314
0.138271
0.138361
0.138146
0.139228
0.139262
0.139305
0.139343
0.139375
0.139404
0.139426
0.139445
0.139462
0.139478
0.139492
0.139507
0.139523
0.139542
0.139562
0.139583
0.139602
0.139615
0.139616
0.139592
0.139509
0.139399
0.139387
0.138041
0.132628
0.142171
0.250441
0.553597
1.00079
1.4173
1.72981
2.00156
2.28603
2.57233
2.8153
2.94951
2.86
2.40417
1.66892
0.139215
0.139216
0.139232
0.139234
0.139263
0.139346
0.139439
0.139493
0.139525
0.139543
0.139551
0.139551
0.139548
0.139542
0.139534
0.139525
0.139514
0.139501
0.139488
0.139473
0.139456
0.139437
0.139413
0.139383
0.139344
0.139293
0.139233
0.139167
0.139098
0.139026
0.138955
0.138885
0.138817
0.138754
0.138699
0.138663
0.138627
0.138704
0.138504
0.139287
0.139321
0.139364
0.139403
0.139436
0.139464
0.139484
0.1395
0.139513
0.139523
0.13953
0.139536
0.139543
0.139554
0.139569
0.139587
0.139609
0.13963
0.139645
0.139645
0.13961
0.139516
0.139486
0.139306
0.136433
0.132243
0.169845
0.354633
0.744355
1.22418
1.63375
1.95438
2.25145
2.54871
2.81504
2.99039
2.9682
2.56128
1.83813
0.139278
0.139281
0.139296
0.139297
0.139329
0.139416
0.139512
0.139575
0.139615
0.139639
0.13965
0.139652
0.139648
0.139641
0.139632
0.139622
0.13961
0.139597
0.139584
0.13957
0.139556
0.139541
0.139524
0.139504
0.139478
0.139444
0.1394
0.139351
0.139296
0.13924
0.139183
0.139126
0.139071
0.13902
0.138976
0.138947
0.138917
0.138984
0.138806
0.139352
0.139385
0.13943
0.139471
0.139505
0.139534
0.139555
0.139569
0.139579
0.139585
0.139587
0.139585
0.139582
0.139581
0.139584
0.139593
0.139609
0.13963
0.139651
0.139665
0.13966
0.139609
0.139538
0.139577
0.138822
0.134293
0.138285
0.221043
0.48945
0.94644
1.44111
1.84982
2.18503
2.49491
2.77741
2.98505
3.02505
2.68223
1.9873
0.139346
0.139348
0.139359
0.139357
0.139389
0.139476
0.139573
0.13965
0.139702
0.139735
0.13975
0.139753
0.139749
0.139739
0.139728
0.139715
0.139701
0.139687
0.139673
0.139658
0.139644
0.139631
0.139617
0.139603
0.139586
0.139562
0.139531
0.139494
0.139453
0.139409
0.139363
0.139318
0.139274
0.139233
0.139198
0.139176
0.139153
0.139216
0.139066
0.139421
0.139455
0.1395
0.139543
0.139579
0.139609
0.139631
0.139647
0.139656
0.13966
0.13966
0.139653
0.139641
0.139628
0.139616
0.139611
0.139615
0.139628
0.139647
0.139666
0.139676
0.139659
0.139599
0.139582
0.139588
0.137668
0.133157
0.155737
0.296025
0.641287
1.14295
1.64422
2.05724
2.40063
2.69893
2.9296
3.019
2.74823
2.10044
0.139415
0.139415
0.139422
0.139415
0.139444
0.13953
0.139629
0.139717
0.139782
0.139823
0.139844
0.139848
0.139843
0.139832
0.139818
0.139803
0.139786
0.13977
0.139754
0.139738
0.139723
0.13971
0.139698
0.139686
0.139673
0.139657
0.139635
0.139608
0.139577
0.139543
0.139508
0.139472
0.139437
0.139405
0.139379
0.139364
0.139348
0.139407
0.13931
0.139493
0.139526
0.139573
0.139617
0.139654
0.139685
0.139709
0.139725
0.139735
0.139739
0.13974
0.139731
0.139715
0.139693
0.139669
0.139648
0.139635
0.139633
0.139642
0.139658
0.139672
0.139673
0.139641
0.139588
0.139649
0.139318
0.136012
0.135656
0.186887
0.38714
0.79147
1.31744
1.82053
2.23406
2.56591
2.8175
2.94376
2.74478
2.15547
0.139485
0.139482
0.139483
0.139471
0.139496
0.139581
0.139685
0.139777
0.139848
0.139896
0.139921
0.139928
0.139924
0.139912
0.139897
0.139879
0.139861
0.139843
0.139825
0.139808
0.139793
0.139778
0.139766
0.139756
0.139746
0.139735
0.13972
0.139701
0.139678
0.139652
0.139625
0.139597
0.13957
0.139547
0.139528
0.13952
0.139511
0.139566
0.139519
0.139564
0.139599
0.139646
0.139691
0.139728
0.13976
0.139785
0.139802
0.139813
0.139818
0.139819
0.139811
0.139795
0.139771
0.139739
0.139706
0.139675
0.139655
0.139647
0.13965
0.139659
0.139665
0.139653
0.139608
0.139593
0.139675
0.138599
0.134753
0.143978
0.229116
0.479923
0.91915
1.45029
1.94526
2.34227
2.63009
2.78874
2.65967
2.14043
0.139555
0.139548
0.139542
0.139526
0.139546
0.139631
0.139747
0.139832
0.139902
0.139949
0.139976
0.139985
0.139982
0.139972
0.139957
0.139939
0.139921
0.139902
0.139884
0.139866
0.13985
0.139836
0.139824
0.139815
0.139808
0.1398
0.13979
0.139777
0.139761
0.139742
0.139722
0.139701
0.139681
0.139665
0.139653
0.139652
0.139651
0.139703
0.139689
0.139636
0.139673
0.139721
0.139766
0.139803
0.139836
0.13986
0.139878
0.139889
0.139895
0.139896
0.13989
0.139876
0.139853
0.13982
0.139781
0.139738
0.139699
0.13967
0.139654
0.139649
0.139648
0.139641
0.139613
0.139569
0.139615
0.139536
0.137552
0.135108
0.158195
0.274373
0.556179
1.00187
1.51469
1.97932
2.32759
2.53024
2.47532
2.03938
0.139624
0.139613
0.139602
0.139578
0.139592
0.139676
0.139808
0.139884
0.139944
0.139986
0.14001
0.140019
0.140018
0.140009
0.139996
0.13998
0.139963
0.139945
0.139927
0.139911
0.139895
0.139882
0.139871
0.139864
0.139859
0.139855
0.139849
0.139841
0.139831
0.139818
0.139804
0.139789
0.139776
0.139766
0.139762
0.139767
0.139774
0.139825
0.13983
0.13971
0.139749
0.139799
0.139844
0.139882
0.139914
0.139938
0.139955
0.139966
0.139971
0.139972
0.139967
0.139955
0.139934
0.139904
0.139864
0.139816
0.139766
0.139719
0.139681
0.139654
0.139636
0.139621
0.139598
0.139557
0.139535
0.139613
0.139159
0.136616
0.137801
0.175153
0.31117
0.597355
1.01626
1.47732
1.87321
2.13101
2.16268
1.83217
0.139696
0.139681
0.139662
0.139628
0.139634
0.139714
0.139859
0.139929
0.139977
0.14001
0.140029
0.140037
0.140036
0.140029
0.140018
0.140004
0.139989
0.139973
0.139958
0.139943
0.139929
0.139918
0.139909
0.139905
0.139902
0.139902
0.1399
0.139897
0.139892
0.139884
0.139875
0.139867
0.13986
0.139856
0.139859
0.139871
0.139886
0.139937
0.139954
0.139789
0.13983
0.139882
0.139928
0.139965
0.139997
0.14002
0.140036
0.140046
0.14005
0.14005
0.140045
0.140033
0.140013
0.139985
0.139947
0.139901
0.139846
0.139788
0.139732
0.139683
0.139642
0.139608
0.139575
0.139536
0.139492
0.139505
0.13953
0.138618
0.136296
0.142215
0.189512
0.328181
0.58855
0.943255
1.30897
1.58928
1.69409
1.49858
0.139773
0.139753
0.139722
0.139677
0.139672
0.139744
0.139892
0.139961
0.140001
0.140026
0.14004
0.140045
0.140044
0.140038
0.140028
0.140017
0.140004
0.13999
0.139977
0.139965
0.139954
0.139945
0.13994
0.139939
0.13994
0.139943
0.139946
0.139947
0.139946
0.139943
0.13994
0.139937
0.139936
0.13994
0.139949
0.139968
0.139989
0.140042
0.140065
0.139874
0.139918
0.13997
0.140015
0.14005
0.14008
0.140101
0.140116
0.140125
0.140128
0.140128
0.140124
0.140112
0.140092
0.140064
0.140028
0.139983
0.13993
0.139869
0.139803
0.139735
0.139671
0.139614
0.13956
0.139508
0.139457
0.139422
0.139462
0.139345
0.13812
0.136751
0.146627
0.195987
0.318439
0.52492
0.780815
1.01228
1.13278
1.06623
0.139855
0.139826
0.139783
0.139725
0.139709
0.139767
0.139908
0.139979
0.140017
0.140037
0.140047
0.14005
0.140048
0.140042
0.140033
0.140023
0.140012
0.140001
0.13999
0.139981
0.139973
0.139968
0.139967
0.139969
0.139975
0.139982
0.139989
0.139994
0.139997
0.139999
0.140001
0.140003
0.140009
0.140019
0.140035
0.14006
0.140086
0.140141
0.140167
0.139963
0.140006
0.140055
0.140096
0.140127
0.140153
0.140172
0.140185
0.140194
0.140198
0.140199
0.140197
0.140187
0.140169
0.140142
0.140106
0.140063
0.140013
0.139953
0.139884
0.139805
0.139723
0.139641
0.13956
0.139485
0.139421
0.139369
0.139355
0.139389
0.139109
0.137854
0.137662
0.149099
0.191987
0.283481
0.419057
0.561368
0.650009
0.650915
0.139938
0.139899
0.139843
0.139775
0.139743
0.139787
0.139917
0.139989
0.140026
0.140046
0.140053
0.140054
0.140051
0.140044
0.140036
0.140027
0.140017
0.140008
0.14
0.139993
0.139989
0.139988
0.139991
0.139998
0.140009
0.14002
0.140031
0.14004
0.140047
0.140053
0.14006
0.140069
0.140081
0.140098
0.14012
0.140149
0.14018
0.140236
0.140262
0.140042
0.140082
0.140124
0.140159
0.140185
0.140207
0.140223
0.140236
0.140245
0.140251
0.140255
0.140255
0.14025
0.140238
0.140216
0.140184
0.140142
0.140094
0.140037
0.139969
0.139885
0.13979
0.139685
0.139577
0.139475
0.139395
0.139334
0.139292
0.139294
0.139298
0.138913
0.137864
0.138512
0.148691
0.179314
0.23489
0.302668
0.352825
0.366474
0.140011
0.139965
0.139901
0.139823
0.139775
0.139805
0.139925
0.139996
0.140034
0.140052
0.140058
0.140058
0.140053
0.140045
0.140037
0.140028
0.14002
0.140013
0.140007
0.140004
0.140004
0.140007
0.140015
0.140027
0.140042
0.140058
0.140073
0.140086
0.140097
0.140109
0.140121
0.140136
0.140154
0.140177
0.140205
0.140237
0.140271
0.140327
0.140353
0.140101
0.140136
0.14017
0.140198
0.14022
0.140238
0.140253
0.140266
0.140276
0.140284
0.140291
0.140295
0.140296
0.14029
0.140277
0.140252
0.140217
0.140174
0.14012
0.140054
0.139969
0.139864
0.139738
0.139607
0.139489
0.1394
0.139329
0.139275
0.139244
0.139256
0.139227
0.138825
0.138076
0.138952
0.146069
0.163647
0.189589
0.213201
0.225848
0.140068
0.140021
0.139955
0.13987
0.139805
0.139822
0.139935
0.140003
0.14004
0.140057
0.140062
0.140059
0.140053
0.140045
0.140036
0.140028
0.140022
0.140017
0.140015
0.140016
0.14002
0.140028
0.140041
0.140059
0.140078
0.140098
0.140117
0.140134
0.14015
0.140167
0.140185
0.140206
0.14023
0.140257
0.140289
0.140324
0.140359
0.140415
0.140438
0.140139
0.140168
0.140196
0.140219
0.140238
0.140255
0.14027
0.140284
0.140295
0.140305
0.140313
0.140319
0.140324
0.140325
0.140319
0.140305
0.14028
0.140246
0.140199
0.140136
0.140048
0.139934
0.139795
0.139667
0.139563
0.139469
0.139383
0.139317
0.139268
0.139249
0.139266
0.139218
0.138876
0.138395
0.13908
0.143031
0.150944
0.160275
0.167918
0.140108
0.140065
0.140001
0.13991
0.139833
0.139838
0.139947
0.140012
0.140046
0.140061
0.140063
0.140059
0.140051
0.140043
0.140035
0.140028
0.140024
0.140023
0.140024
0.14003
0.14004
0.140053
0.140072
0.140094
0.140119
0.140143
0.140166
0.140187
0.140208
0.14023
0.140254
0.140279
0.140308
0.140339
0.140372
0.140408
0.140445
0.140501
0.140519
0.140161
0.140186
0.14021
0.140232
0.140251
0.140269
0.140285
0.1403
0.140312
0.140322