/*--------------------------------*- C++ -*----------------------------------*\
  =========                 |
  \\      /  F ield         | OpenFOAM: The Open Source CFD Toolbox
   \\    /   O peration     | Website:  https://openfoam.org
    \\  /    A nd           | Version:  9
     \\/     M anipulation  |
\*---------------------------------------------------------------------------*/
FoamFile
{
    format      ascii;
    class       surfaceScalarField;
    location    "0.15";
    object      alphaPhi0.water;
}
// * * * * * * * * * * * * * * * * * * * * * * * * * * * * * * * * * * * * * //

dimensions      [0 3 -1 0 0 0 0];

internalField   nonuniform List<scalar> 
3731
(
3.87138e-06
1.99379e-06
1.74849e-06
6.35295e-07
7.91225e-07
7.71069e-07
1.09242e-06
0
3.86732e-07
2.25462e-07
4.54086e-08
2.42693e-07
4.70009e-08
1.75495e-08
1.11314e-07
3.14869e-09
5.57993e-09
5.09148e-08
-5.21521e-09
4.73695e-09
2.29533e-08
-2.74076e-09
4.01127e-09
1.07472e-08
-5.19497e-10
2.071e-09
5.95318e-09
4.98656e-10
1.3963e-09
4.80662e-09
-1.10707e-31
5.96702e-32
3.27552e-31
-5.39254e-30
1.12845e-28
-2.55606e-28
2.83023e-28
-1.73362e-27
4.09097e-29
-1.21148e-28
4.37381e-30
-1.56245e-29
3.56547e-31
-1.1883e-30
2.50533e-32
-6.83108e-32
1.70974e-33
-3.40383e-33
1.21744e-34
-1.59166e-34
9.12646e-36
-7.01926e-36
6.83197e-37
-2.58777e-37
4.99879e-38
-3.52852e-39
3.61547e-39
2.12246e-40
2.50354e-40
3.04888e-41
1.67583e-41
2.91973e-42
1.08271e-42
2.39809e-43
6.71128e-44
1.79523e-44
3.97232e-45
1.25068e-45
2.23588e-46
8.17653e-47
1.19185e-47
5.03013e-48
5.99066e-49
2.91134e-49
2.82615e-50
1.58255e-50
1.24509e-51
8.05852e-52
5.09403e-53
3.83208e-53
1.92315e-54
1.69552e-54
6.64972e-56
6.94941e-56
2.08691e-57
2.62432e-57
5.87805e-59
9.06834e-59
1.46478e-60
2.84198e-60
3.16941e-62
7.98298e-62
5.80601e-64
1.97781e-63
8.6938e-66
4.22653e-65
1.01137e-67
7.54292e-67
8.4429e-70
1.07716e-68
4.4321e-72
1.13647e-70
1.15479e-74
7.68031e-73
8.83624e-78
2.58899e-75
9.19673e-80
2.35446e-78
1.87756e-82
4.51252e-33
4.79539e-32
1.27672e-27
-2.91632e-27
1.83263e-26
-5.46473e-26
2.392e-26
-5.80792e-26
4.52693e-27
-1.73208e-26
3.8754e-28
-2.0503e-27
2.93983e-29
-1.49379e-28
2.07233e-30
-8.52953e-30
1.41535e-31
-4.24796e-31
9.79652e-33
-1.95155e-32
6.89101e-34
-8.21231e-34
4.79665e-35
-2.82614e-35
3.2706e-36
-3.89093e-37
2.20433e-37
4.63811e-38
1.43646e-38
6.69663e-39
9.08198e-40
6.22829e-40
5.55189e-41
4.90838e-41
3.26184e-42
3.50372e-42
1.8333e-43
2.32067e-43
9.81732e-45
1.44062e-44
4.98895e-46
8.41438e-46
2.39606e-47
4.62755e-47
1.08285e-48
2.39388e-48
4.58321e-50
1.16252e-49
1.80722e-51
5.28521e-51
6.59903e-53
2.24186e-52
2.21572e-54
8.83559e-54
6.78351e-56
3.21891e-55
1.87422e-57
1.07704e-56
4.61344e-59
3.28273e-58
9.95254e-61
9.01706e-60
1.84187e-62
2.20077e-61
2.84177e-64
4.6827e-63
3.51342e-66
8.46372e-65
3.29072e-68
1.25352e-66
2.14878e-70
1.43631e-68
8.54793e-73
1.16307e-70
1.61198e-75
5.72628e-73
8.01685e-79
1.24408e-75
4.13299e-79
7.91497e-30
8.93365e-30
2.05805e-25
-5.18138e-25
1.41947e-24
-5.10788e-24
1.24285e-24
-4.28716e-24
1.87402e-25
-1.05979e-24
1.53178e-26
-1.11637e-25
1.159e-27
-7.79947e-27
8.14382e-29
-4.40354e-28
5.45858e-30
-2.17085e-29
3.61515e-31
-9.69971e-31
2.37502e-32
-3.85945e-32
1.52712e-33
-1.20667e-33
9.59855e-35
-1.13416e-35
5.96098e-36
2.22121e-36
3.57412e-37
2.77656e-37
2.07943e-38
2.35084e-38
1.16905e-39
1.6988e-39
6.31768e-41
1.1133e-40
3.26833e-42
6.77099e-42
1.61252e-43
3.86017e-43
7.55933e-45
2.07147e-44
3.35424e-46
1.04751e-45
1.40306e-47
4.98874e-47
5.50813e-49
2.23389e-48
2.01942e-50
9.38231e-50
6.87514e-52
3.68443e-51
2.15924e-53
1.34755e-52
6.20699e-55
4.56808e-54
1.61774e-56
1.42663e-55
3.77861e-58
4.07348e-57
7.79577e-60
1.0531e-58
1.39476e-61
2.43409e-60
2.11313e-63
4.94748e-62
2.62738e-65
8.65083e-64
2.5714e-67
1.26282e-65
1.86857e-69
1.47398e-67
9.20567e-72
1.29066e-69
2.61211e-74
7.64451e-72
2.95848e-77
2.51006e-74
2.95867e-77
4.38357e-28
-1.11386e-28
1.29795e-23
-4.79744e-23
6.45817e-23
-2.918e-22
3.99757e-23
-1.94301e-22
5.09019e-24
-3.94195e-23
4.02735e-25
-3.70622e-24
3.03675e-26
-2.47537e-25
2.11944e-27
-1.37271e-26
1.39201e-28
-6.65957e-28
8.85128e-30
-2.88318e-29
5.48178e-31
-1.08106e-30
3.29007e-32
-3.012e-32
1.92503e-33
-7.34409e-35
1.11302e-34
6.82398e-35
6.20214e-36
7.27529e-36
3.35033e-37
5.59685e-37
1.74626e-38
3.71932e-38
8.74454e-40
2.24912e-39
4.1919e-41
1.2637e-40
1.9171e-42
6.65933e-42
8.33588e-44
3.30482e-43
3.43387e-45
1.54653e-44
1.33506e-46
6.82201e-46
4.87869e-48
2.83271e-47
1.66792e-49
1.10478e-48
5.30664e-51
4.03523e-50
1.56158e-52
1.3753e-51
4.2196e-54
4.35404e-53
1.03797e-55
1.27327e-54
2.30017e-57
3.41537e-56
4.53345e-59
8.32914e-58
7.82089e-61
1.82603e-59
1.15739e-62
3.54688e-61
1.43165e-64
5.98905e-63
1.43056e-66
8.57089e-65
1.10093e-68
1.00362e-66
6.05561e-71
9.13704e-69
2.11533e-73
5.96798e-71
3.39016e-76
2.42372e-73
5.36843e-76
-1.95148e-23
2.00949e-25
4.39062e-22
-2.80698e-21
2.00984e-21
-1.13891e-20
9.2735e-22
-6.12241e-21
1.01967e-22
-1.02709e-21
7.83341e-24
-8.6198e-23
5.85382e-25
-5.45345e-24
4.042e-26
-2.94118e-25
2.60089e-27
-1.3938e-26
1.59538e-28
-5.81789e-28
9.40061e-30
-2.04252e-29
5.3333e-31
-4.89275e-31
2.94653e-32
3.95581e-33
1.59845e-33
1.51142e-33
8.36698e-35
1.38901e-34
4.23475e-36
9.76511e-36
2.06437e-37
6.0074e-37
9.65928e-39
3.37663e-38
4.32458e-40
1.766e-39
1.84694e-41
8.6678e-41
7.50081e-43
4.0079e-42
2.88731e-44
1.74823e-43
1.04976e-45
7.1925e-45
3.59105e-47
2.78766e-46
1.15086e-48
1.01584e-47
3.4384e-50
3.47118e-49
9.52276e-52
1.10849e-50
2.42862e-53
3.29443e-52
5.65889e-55
9.06515e-54
1.1934e-56
2.29475e-55
2.25192e-58
5.30131e-57
3.74902e-60
1.10643e-58
5.41013e-62
2.05941e-60
6.6158e-64
3.36176e-62
6.65167e-66
4.70716e-64
5.26567e-68
5.48368e-66
3.06788e-70
5.08667e-68
1.4371e-72
3.52335e-70
2.26903e-75
1.60905e-72
5.04539e-75
-3.21762e-21
2.13834e-22
1.0581e-20
-1.15799e-19
4.80606e-20
-3.20809e-19
1.68234e-20
-1.45106e-19
1.5886e-21
-2.00812e-20
1.17256e-22
-1.47787e-21
8.60432e-24
-8.74115e-23
5.8499e-25
-4.5402e-24
3.68654e-26
-2.08457e-25
2.19173e-27
-8.33009e-27
1.23981e-28
-2.70332e-28
6.72539e-30
-5.12242e-30
3.55246e-31
1.48391e-31
1.82788e-32
2.51428e-32
9.0763e-34
2.029e-33
4.34474e-35
1.31532e-34
1.9992e-36
7.55389e-36
8.81841e-38
3.9799e-37
3.71876e-39
1.95393e-38
1.49518e-40
9.00667e-40
5.71549e-42
3.91192e-41
2.07102e-43
1.60312e-42
7.09073e-45
6.19818e-44
2.28577e-46
2.25864e-45
6.91011e-48
7.7438e-47
1.95021e-49
2.49193e-48
5.11161e-51
7.50331e-50
1.23673e-52
2.10594e-51
2.74237e-54
5.48355e-53
5.52578e-56
1.31694e-54
1.00136e-57
2.89604e-56
1.61135e-59
5.77828e-58
2.2659e-61
1.03392e-59
2.7272e-63
1.63423e-61
2.73088e-65
2.23648e-63
2.18423e-67
2.57763e-65
1.35039e-69
2.41049e-67
7.20897e-72
1.72373e-69
1.1037e-74
8.39155e-72
3.20112e-74
-1.19269e-19
1.10774e-20
3.11111e-19
-3.55566e-18
9.74052e-19
-6.76824e-18
2.43651e-19
-2.53585e-18
1.91238e-20
-2.80646e-19
1.34547e-21
-1.80672e-20
9.6634e-23
-1.00371e-21
6.45536e-24
-5.02431e-23
3.98661e-25
-2.22789e-24
2.30929e-26
-8.465e-26
1.26581e-27
-2.47909e-27
6.63965e-29
-2.84817e-29
3.39123e-30
2.77758e-30
1.67477e-31
3.175e-31
7.96346e-33
2.29679e-32
3.6397e-34
1.38745e-33
1.59568e-35
7.50747e-35
6.6956e-37
3.74091e-36
2.68291e-38
1.73922e-37
1.02415e-39
7.59437e-39
3.71509e-41
3.12465e-40
1.27721e-42
1.21294e-41
4.1492e-44
4.44246e-43
1.26961e-45
1.53385e-44
3.64582e-47
4.98473e-46
9.78431e-49
1.52146e-47
2.44229e-50
4.34932e-49
5.63866e-52
1.16041e-50
1.19622e-53
2.8771e-52
2.31363e-55
6.59384e-54
4.04106e-57
1.38764e-55
6.29932e-59
2.65907e-57
8.63327e-61
4.59039e-59
1.01982e-62
7.0401e-61
1.01009e-64
9.41462e-63
8.06822e-67
1.07029e-64
5.89564e-69
1.00119e-66
2.99592e-71
7.2614e-69
1.07141e-73
3.64288e-71
1.56181e-73
4.84747e-21
7.21376e-20
1.01353e-17
-7.80545e-17
1.49577e-17
-9.83322e-17
2.43134e-18
-2.60358e-17
1.65854e-19
-2.34117e-18
1.14583e-20
-1.41764e-19
8.11301e-22
-7.70811e-21
5.34075e-23
-3.78557e-22
3.24655e-24
-1.63123e-23
1.84642e-25
-5.85953e-25
9.91582e-27
-1.46838e-26
5.0944e-28
3.36603e-29
2.54045e-29
3.35857e-29
1.21656e-30
3.02121e-30
5.58928e-32
1.99839e-31
2.46126e-33
1.13722e-32
1.03728e-34
5.8515e-34
4.17666e-36
2.78191e-35
1.60378e-37
1.23532e-36
5.8609e-39
5.15294e-38
2.0339e-40
2.02507e-39
6.68655e-42
7.50703e-41
2.07697e-43
2.62533e-42
6.07759e-45
8.65533e-44
1.66975e-46
2.68643e-45
4.29072e-48
7.83459e-47
1.02672e-49
2.14143e-48
2.27606e-51
5.4684e-50
4.64596e-53
1.29948e-51
8.66867e-55
2.85958e-53
1.46531e-56
5.79151e-55
2.21895e-58
1.07117e-56
2.96698e-60
1.79121e-58
3.43534e-62
2.67256e-60
3.35467e-64
3.49511e-62
2.66169e-66
3.92001e-64
2.07883e-68
3.63946e-66
1.04774e-70
2.64374e-68
8.02136e-73
1.33881e-70
6.22714e-73
2.75876e-17
-3.8188e-17
2.341e-16
-1.09214e-15
1.24843e-16
-7.59641e-16
1.39982e-17
-1.285e-16
9.71848e-19
-1.06464e-17
6.96332e-20
-6.74449e-19
4.92639e-21
-3.7638e-20
3.22015e-22
-1.85103e-21
1.94425e-23
-7.79542e-23
1.09713e-24
-2.5965e-24
5.85001e-26
-4.65883e-26
2.98765e-27
1.86052e-27
1.46308e-28
2.76545e-28
6.85088e-30
2.12217e-29
3.06727e-31
1.3068e-30
1.31247e-32
7.08058e-32
5.36224e-34
3.49588e-33
2.08924e-35
1.59929e-34
7.75125e-37
6.8397e-36
2.7338e-38
2.74801e-37
9.14846e-40
1.03993e-38
2.89867e-41
3.7111e-40
8.67528e-43
1.24907e-41
2.44589e-44
3.96282e-43
6.47632e-46
1.18371e-44
1.60482e-47
3.32317e-46
3.70646e-49
8.74852e-48
7.94029e-51
2.15341e-49
1.56882e-52
4.938e-51
2.83897e-54
1.0501e-52
4.66522e-56
2.05905e-54
6.88622e-58
3.69545e-56
9.00091e-60
6.01273e-58
1.02176e-61
8.75694e-60
9.81153e-64
1.12212e-61
8.04155e-66
1.2385e-63
6.07124e-68
1.13652e-65
3.01442e-70
8.18788e-68
3.56297e-72
4.13051e-70
2.06832e-72
2.08188e-15
-6.44521e-16
2.25688e-15
-6.62481e-15
5.02992e-16
-2.53662e-15
4.96694e-17
-3.56802e-16
3.94931e-18
-3.10539e-17
3.01154e-19
-2.11656e-18
2.146e-20
-1.22253e-19
1.40371e-21
-6.01598e-21
8.49137e-23
-2.43295e-22
4.79824e-24
-6.9271e-24
2.56114e-25
-9.02989e-27
1.30561e-26
1.6164e-26
6.32482e-28
1.56812e-27
2.91759e-29
1.07824e-28
1.28268e-30
6.27712e-30
5.37438e-32
3.26996e-31
2.14516e-33
1.56206e-32
8.1501e-35
6.93076e-34
2.94414e-36
2.87694e-35
1.00985e-37
1.12193e-36
3.28365e-39
4.11995e-38
1.01032e-40
1.42623e-39
2.93522e-42
4.65534e-41
8.03232e-44
1.43212e-42
2.06463e-45
4.1479e-44
4.96852e-47
1.12934e-45
1.11516e-48
2.8845e-47
2.32385e-50
6.89293e-49
4.47168e-52
1.53589e-50
7.89271e-54
3.1775e-52
1.26718e-55
6.07028e-54
1.83077e-57
1.06332e-55
2.34635e-59
1.69207e-57
2.61523e-61
2.41565e-59
2.46597e-63
3.04097e-61
1.91142e-65
3.2997e-63
1.428e-67
2.98058e-65
6.97447e-70
2.11812e-67
1.13422e-71
1.05566e-69
5.78437e-72
7.21827e-10
7.13693e-10
2.5188e-09
2.31782e-09
5.24494e-10
2.28348e-10
8.87203e-10
1.97312e-09
1.87823e-10
5.90707e-11
2.33701e-10
7.71583e-10
5.02889e-11
1.37059e-11
5.1678e-11
2.09684e-10
1.19663e-11
2.93386e-12
1.11203e-11
4.5985e-11
2.57127e-12
5.81552e-13
2.21506e-12
9.26186e-12
5.0296e-13
1.07661e-13
3.91021e-13
1.67304e-12
9.18322e-14
1.99787e-14
6.38631e-14
2.83823e-13
1.75377e-14
9.17206e-15
1.0218e-14
4.72515e-14
4.88163e-15
4.00727e-15
8.64503e-15
1.36985e-15
2.19311e-15
3.26784e-16
4.8824e-16
8.26794e-17
1.02575e-16
2.15844e-17
2.22045e-17
5.70285e-18
4.8631e-18
1.52287e-18
1.07413e-18
4.11071e-19
2.3943e-19
1.11903e-19
5.38952e-20
3.05727e-20
1.22339e-20
8.32512e-21
2.78855e-21
2.24029e-21
6.33636e-22
5.90147e-22
1.42106e-22
1.50716e-22
3.10801e-23
3.69694e-23
6.54144e-24
8.63302e-24
1.30631e-24
1.90309e-24
2.43759e-25
3.92893e-25
4.17553e-26
7.54056e-26
6.41454e-27
1.33657e-26
8.51406e-28
2.17523e-27
9.01487e-29
3.25754e-28
5.64279e-30
4.57841e-29
-4.41236e-31
-2.44149e-31
-2.52882e-13
1.34785e-09
-1.71498e-12
1.25917e-13
-2.07441e-13
-2.07984e-12
-3.66209e-13
7.47991e-15
3.51691e-10
6.53685e-10
2.43858e-12
9.56205e-11
5.9899e-14
-2.07926e-12
-2.90063e-12
2.27248e-13
5.07796e-10
0
3.30549e-11
1.00653e-10
6.02401e-12
6.15446e-12
-1.38906e-12
9.56957e-13
1.38366e-10
3.01997e-13
6.54325e-11
0
5.27395e-12
4.67664e-12
1.28374e-13
1.07295e-12
3.0059e-11
1.09993e-12
1.3697e-11
0
3.41862e-12
0
1.28918e-13
3.18476e-13
6.44831e-12
3.8694e-13
2.81378e-12
0
6.65283e-13
0
0
1.59453e-13
1.24905e-12
9.51479e-14
5.40882e-13
0
1.43801e-13
4.07873e-15
8.52276e-15
4.75506e-14
2.28219e-13
2.60324e-14
1.07285e-13
8.54201e-15
3.93642e-14
1.11512e-14
5.74489e-15
1.5316e-14
4.21962e-14
9.13682e-15
2.42368e-14
8.0755e-15
1.19436e-14
5.01318e-15
1.94951e-15
4.12846e-15
9.2129e-15
3.67574e-15
6.25053e-15
2.76707e-15
2.71615e-15
1.33025e-15
4.92442e-16
9.43256e-16
2.08341e-15
1.00966e-15
1.24677e-15
6.09467e-16
5.58142e-16
2.93203e-16
1.11906e-16
1.99125e-16
3.96594e-16
2.12429e-16
2.37845e-16
1.26697e-16
1.09223e-16
6.15434e-17
2.38381e-17
3.95318e-17
7.53634e-17
4.66534e-17
4.44736e-17
2.62424e-17
2.04832e-17
1.24865e-17
4.8403e-18
7.47764e-18
1.44828e-17
1.04637e-17
8.16003e-18
5.3975e-18
3.7145e-18
2.46941e-18
9.46529e-19
1.36e-18
2.79609e-18
2.3659e-18
1.47689e-18
1.10401e-18
6.55763e-19
4.7878e-19
1.79434e-19
2.39187e-19
5.4171e-19
5.40881e-19
2.64431e-19
2.25485e-19
1.13163e-19
9.14323e-20
3.31383e-20
4.08278e-20
1.05459e-19
1.25402e-19
4.69644e-20
4.62049e-20
1.91442e-20
1.72792e-20
5.98834e-21
6.78151e-21
2.06786e-20
2.95272e-20
8.30021e-21
9.54345e-21
3.18359e-21
3.24743e-21
1.06329e-21
1.09843e-21
4.09218e-21
7.05228e-21
1.46481e-21
1.99391e-21
5.21892e-22
6.09893e-22
1.86288e-22
1.73844e-22
8.1744e-22
1.70093e-21
2.58944e-22
4.21874e-22
8.45987e-23
1.14939e-22
3.23364e-23
2.69406e-23
1.64344e-22
4.11106e-22
4.59303e-23
9.01769e-23
1.36001e-23
2.17883e-23
5.58159e-24
4.09725e-24
3.30304e-23
9.85665e-23
8.16554e-24
1.93489e-23
2.17267e-24
4.15213e-24
9.60371e-25
6.12858e-25
6.56739e-24
2.31776e-23
1.44771e-24
4.12638e-24
3.44884e-25
7.91974e-25
1.64758e-25
9.02905e-26
1.27473e-24
5.28438e-24
2.536e-25
8.64217e-25
5.42105e-26
1.49964e-25
2.81046e-26
1.30991e-26
2.37934e-25
1.15564e-24
4.33235e-26
1.75541e-25
8.37425e-27
2.78819e-26
4.73777e-27
1.8657e-27
4.20212e-26
2.40048e-25
7.10494e-27
3.41747e-26
1.25658e-27
5.02821e-27
7.82255e-28
2.59128e-28
6.89859e-27
4.6946e-26
1.09885e-27
6.31019e-27
1.80374e-28
8.6913e-28
1.25171e-28
3.47184e-29
1.03074e-27
8.57719e-27
1.57049e-28
1.09519e-27
2.43127e-29
1.42472e-28
1.9202e-29
4.4207e-30
1.36044e-28
1.45415e-27
2.02127e-29
1.77336e-28
3.00712e-30
2.1953e-29
2.79639e-30
5.24581e-31
1.50229e-29
2.27468e-28
2.24938e-30
2.66269e-29
3.30313e-31
3.15719e-30
3.83416e-31
5.64718e-32
1.19655e-30
3.27727e-29
1.98016e-31
3.68905e-30
3.03366e-32
4.21459e-31
4.91756e-32
5.27631e-33
1.80359e-32
4.39418e-30
9.55113e-33
4.73553e-31
1.95832e-33
5.22145e-32
5.87059e-33
3.86569e-34
-1.7192e-32
-9.19168e-34
1.93591e-36
1.37936e-35
1.42399e-14
-1.31979e-13
5.80401e-15
-3.17833e-14
1.19938e-15
-6.1641e-15
1.42827e-16
-8.7927e-16
1.26469e-17
-7.34392e-17
9.95143e-19
-5.07208e-18
7.13428e-20
-2.90864e-19
4.68488e-21
-1.37502e-20
2.84632e-22
-4.93636e-22
1.61743e-23
-8.15396e-24
8.68702e-25
5.97894e-25
4.40992e-26
8.16966e-26
2.1203e-27
6.41293e-27
9.67784e-29
4.06609e-28
4.19817e-30
2.26065e-29
1.73152e-31
1.1395e-30
6.78976e-33
5.29622e-32
2.53015e-34
2.29172e-33
8.95272e-36
9.28567e-35
3.00477e-37
3.53541e-36
9.55275e-39
1.26742e-37
2.87213e-40
4.28241e-39
8.15105e-42
1.36411e-40
2.17868e-43
4.09484e-42
5.47043e-45
1.15735e-43
1.2864e-46
3.07562e-45
2.82292e-48
7.67036e-47
5.75588e-50
1.79079e-48
1.08477e-51
3.90165e-50
1.87736e-53
7.90077e-52
2.95903e-55
1.47923e-53
4.20208e-57
2.54315e-55
5.29911e-59
3.97844e-57
5.81534e-61
5.59334e-59
5.39253e-63
6.94581e-61
4.04073e-65
7.42926e-63
2.73943e-67
6.59923e-65
1.31329e-69
4.6038e-67
2.74961e-71
2.25469e-69
1.38466e-71
5.05055e-15
-7.26723e-13
5.63503e-15
-1.12376e-13
2.29003e-15
-1.35588e-14
3.497e-16
-1.525e-15
3.205e-17
-1.43157e-16
2.51674e-18
-9.76705e-18
1.80485e-19
-5.3543e-19
1.18861e-20
-2.27805e-20
7.2507e-22
-5.5696e-22
4.1461e-23
1.51051e-23
2.22983e-24
3.06051e-24
1.12812e-25
2.7349e-25
5.3924e-27
1.89337e-26
2.44113e-28
1.12966e-27
1.04799e-29
6.04927e-29
4.26972e-31
2.96672e-30
1.65129e-32
1.34799e-31
6.06108e-34
5.71524e-33
2.11028e-35
2.27137e-34
6.96349e-37
8.48594e-36
2.17528e-38
2.98551e-37
6.42378e-40
9.89987e-39
1.79025e-41
3.09479e-40
4.699e-43
9.11773e-42
1.15884e-44
2.5296e-43
2.67749e-46
6.60061e-45
5.77611e-48
1.61706e-46
1.15863e-49
3.71094e-48
2.15e-51
7.95358e-50
3.66712e-53
1.58593e-51
5.70202e-55
2.92721e-53
7.99541e-57
4.96775e-55
9.96274e-59
7.68213e-57
1.08064e-60
1.06917e-58
9.89888e-63
1.31616e-60
7.30711e-65
1.39717e-62
4.01913e-67
1.23041e-64
1.98278e-69
8.42334e-67
6.20192e-71
4.03101e-69
2.80578e-71
1.21612e-13
-5.19738e-13
1.48597e-14
-8.56559e-14
2.69216e-15
-1.01157e-14
5.82443e-16
-1.10645e-15
6.25588e-17
-1.00865e-16
4.65543e-18
-6.42497e-18
3.36085e-19
-3.09733e-19
2.2472e-20
-8.44021e-21
1.39123e-21
3.4464e-22
8.00832e-23
7.55018e-23
4.30806e-24
7.35216e-24
2.17945e-25
5.51254e-25
1.04e-26
3.53869e-26
4.69101e-28
2.02661e-27
2.00305e-29
1.05742e-28
8.10465e-31
5.08903e-30
3.10874e-32
2.27695e-31
1.13043e-33
9.52131e-33
3.8955e-35
3.73435e-34
1.2713e-36
1.37702e-35
3.92538e-38
4.78096e-37
1.14532e-39
1.5642e-38
3.15293e-41
4.82366e-40
8.17403e-43
1.40175e-41
1.99124e-44
3.83602e-43
4.54577e-46
9.87499e-45
9.69328e-48
2.38763e-46
1.92297e-49
5.41082e-48
3.53138e-51
1.14613e-49
5.96543e-53
2.26097e-51
9.19392e-55
4.13364e-53
1.27872e-56
6.95838e-55
1.58116e-58
1.069e-56
1.70214e-60
1.48046e-58
1.54695e-62
1.81628e-60
1.13157e-64
1.92422e-62
6.14907e-67
1.69297e-64
2.12615e-69
1.15977e-66
1.23745e-70
5.44246e-69
4.11172e-71
1.49752e-13
-1.0977e-13
1.91602e-14
-2.42917e-14
3.20822e-15
-3.40132e-15
6.05248e-16
-4.13137e-16
6.43054e-17
-3.42669e-17
4.95568e-18
-1.79029e-18
3.64099e-19
-2.72756e-20
2.45568e-20
9.30397e-21
1.52908e-21
1.422e-21
8.85437e-23
1.36858e-22
4.7923e-24
1.06563e-23
2.43404e-25
7.20486e-25
1.16382e-26
4.36538e-26
5.25127e-28
2.41199e-27
2.2399e-29
1.2288e-28
9.04129e-31
5.81511e-30
3.45561e-32
2.56955e-31
1.25082e-33
1.06413e-32
4.28717e-35
4.14104e-34
1.39069e-36
1.51698e-35
4.26613e-38
5.23714e-37
1.23626e-39
1.70491e-38
3.37959e-41
5.23419e-40
8.70072e-43
1.51498e-41
2.10512e-44
4.13109e-43
4.77445e-46
1.0601e-44
1.01189e-47
2.5561e-46
1.9963e-49
5.77915e-48
3.64812e-51
1.22187e-49
6.13651e-53
2.40704e-51
9.42345e-55
4.39685e-53
1.30675e-56
7.3992e-55
1.61217e-58
1.13858e-56
1.73242e-60
1.58058e-58
1.57179e-62
1.94538e-60
1.1475e-64
2.06985e-62
6.21917e-67
1.83128e-64
2.14163e-69
1.26354e-66
1.89177e-70
6.00014e-69
3.65511e-71
5.57169e-14
7.24073e-15
8.37993e-15
-1.1644e-15
2.27726e-15
-3.38381e-16
3.67898e-16
-3.43083e-17
3.32933e-17
-2.03949e-19
2.77116e-18
4.76799e-19
2.11188e-19
8.75899e-20
1.48271e-20
1.06058e-20
9.59549e-22
1.03525e-21
5.75137e-23
8.68402e-23
3.21043e-24
6.45305e-24
1.67609e-25
4.32296e-25
8.2111e-27
2.64067e-26
3.78409e-28
1.48282e-27
1.64356e-29
7.7005e-29
6.73716e-31
3.71627e-30
2.6087e-32
1.6731e-31
9.54605e-34
7.04787e-33
3.30151e-35
2.78426e-34
1.07891e-36
1.03329e-35
3.32973e-38
3.60669e-37
9.69632e-40
1.18493e-38
2.66119e-41
3.66537e-40
6.87328e-43
1.06748e-41
1.66742e-44
2.9257e-43
3.79041e-46
7.54009e-45
8.04997e-48
1.82496e-46
1.59123e-49
4.14083e-48
2.91348e-51
8.78617e-50
4.91062e-53
1.73761e-51
7.55699e-55
3.18841e-53
1.05019e-56
5.39469e-55
1.29813e-58
8.32481e-57
1.3972e-60
1.15934e-58
1.26914e-62
1.43212e-60
9.26987e-65
1.52968e-62
5.02181e-67
1.35854e-64
1.72776e-69
9.40479e-67
1.05341e-70
4.48339e-69
1.98611e-71
2.81619e-14
1.11651e-14
6.53429e-15
1.87418e-15
1.10497e-15
2.78105e-16
1.30498e-16
3.38741e-17
1.28211e-17
4.6143e-18
1.12713e-18
5.80562e-19
8.97193e-20
6.43217e-20
6.50909e-21
6.26901e-21
4.33731e-22
5.44962e-22
2.67144e-23
4.27753e-23
1.52894e-24
3.0582e-24
8.16624e-26
2.00452e-25
4.08447e-27
1.21087e-26
1.91818e-28
6.77078e-28
8.47535e-30
3.51777e-29
3.52842e-31
1.70364e-30
1.38544e-32
7.7115e-32
5.13372e-34
3.26976e-33
1.79556e-35
1.30098e-34
5.92715e-37
4.86399e-36
1.8458e-38
1.71037e-37
5.41878e-40
5.66004e-39
1.49814e-41
1.76315e-40
3.89525e-43
5.16963e-42
9.50796e-45
1.4261e-43
2.17384e-46
3.69849e-45
4.64209e-48
9.00669e-47
9.22479e-50
2.05606e-48
1.69788e-51
4.38942e-50
2.87673e-53
8.73514e-52
4.45033e-55
1.61317e-53
6.21748e-57
2.74761e-55
7.72633e-59
4.27918e-57
8.35884e-61
6.02011e-59
7.62938e-63
7.51888e-61
5.59661e-65
8.12711e-63
3.04278e-67
7.31056e-65
1.04995e-69
5.13015e-67
4.47624e-71
2.48451e-69
9.39001e-72
1.40342e-14
4.58035e-15
2.65079e-15
1.07396e-15
3.65016e-16
1.62681e-16
4.23147e-17
2.16845e-17
4.33724e-18
2.69959e-18
3.96564e-19
3.06446e-19
3.26283e-20
3.13207e-20
2.43761e-21
2.88756e-21
1.66673e-22
2.41686e-22
1.04996e-23
1.84828e-23
6.12748e-25
1.29806e-24
3.328e-26
8.40613e-26
1.68849e-27
5.03696e-27
8.02647e-29
2.80125e-28
3.58317e-30
1.45002e-29
1.50482e-31
7.00393e-31
5.95269e-33
3.16402e-32
2.21972e-34
1.33938e-33
7.80572e-36
5.32149e-35
2.5887e-37
1.98685e-36
8.09439e-39
6.97748e-38
2.38485e-40
2.30612e-39
6.61475e-42
7.17516e-41
1.72498e-43
2.10146e-42
4.22224e-45
5.79139e-44
9.67924e-47
1.50072e-45
2.07233e-48
3.65235e-47
4.12885e-50
8.33449e-49
7.61925e-52
1.77915e-50
1.29432e-53
3.54135e-52
2.00759e-55
6.54363e-54
2.81212e-57
1.11554e-55
3.50373e-59
1.73958e-57
3.80061e-61
2.45169e-59
3.47815e-63
3.06939e-61
2.55828e-65
3.32789e-63
1.39475e-67
3.00513e-65
4.82808e-70
2.11888e-67
1.5177e-71
1.03219e-69
3.65374e-72
3.86487e-15
1.85263e-15
7.04956e-16
3.69811e-16
1.01601e-16
6.07074e-17
1.23072e-17
8.57737e-18
1.31118e-18
1.07525e-18
1.24283e-19
1.20683e-19
1.05688e-20
1.21766e-20
8.1341e-22
1.11108e-21
5.71074e-23
9.23136e-23
3.682e-24
7.02576e-24
2.19248e-25
4.92105e-25
1.21146e-26
3.18371e-26
6.23602e-28
1.90814e-27
3e-29
1.06223e-28
1.35227e-30
5.50541e-30
5.72262e-32
2.66241e-31
2.27701e-33
1.20375e-32
8.5275e-35
5.09728e-34
3.00775e-36
2.02455e-35
9.99396e-38
7.55156e-37
3.12806e-39
2.64766e-38
9.21871e-41
8.73131e-40
2.55616e-42
2.70913e-41
6.66088e-44
7.90911e-43
1.6286e-45
2.17192e-44
3.72843e-47
5.60656e-46
7.97033e-49
1.35901e-47
1.5853e-50
3.08842e-49
2.92014e-52
6.56522e-51
4.95092e-54
1.30132e-52
7.66308e-56
2.39455e-54
1.07093e-57
4.06532e-56
1.33093e-59
6.31359e-58
1.43966e-61
8.86183e-60
1.31346e-63
1.10492e-61
9.62891e-66
1.19306e-63
5.23152e-68
1.07292e-65
1.80496e-70
7.53414e-68
4.5876e-72
3.65563e-70
1.24851e-72
9.43142e-16
5.77797e-16
1.72504e-16
1.15094e-16
2.58995e-17
1.93305e-17
3.27845e-18
2.79839e-18
3.62365e-19
3.55864e-19
3.5492e-20
4.02214e-20
3.11118e-21
4.07584e-21
2.46245e-22
3.73306e-22
1.77351e-23
3.11319e-23
1.17008e-24
2.37852e-24
7.11161e-26
1.67281e-25
4.00099e-27
1.08699e-26
2.09195e-28
6.54508e-28
1.0199e-29
3.6609e-29
4.64893e-31
1.90631e-30
1.98549e-32
9.25964e-32
7.95822e-34
4.20311e-33
2.99725e-35
1.78575e-34
1.06154e-36
7.11125e-36
3.53708e-38
2.65734e-37
1.10887e-39
9.32638e-39
3.26984e-41
3.07624e-40
9.06369e-43
9.53955e-42
2.35924e-44
2.78142e-43
5.75821e-46
7.62322e-45
1.31516e-47
1.96286e-46
2.80335e-49
4.74333e-48
5.55719e-51
1.07414e-49
1.01975e-52
2.27435e-51
1.72155e-54
4.48861e-53
2.65204e-56
8.22089e-55
3.68692e-58
1.38872e-56
4.5557e-60
2.14526e-58
4.89685e-62
2.99409e-60
4.43703e-64
3.71077e-62
3.22889e-66
3.98144e-64
1.74073e-68
3.55668e-66
5.95824e-71
2.48019e-68
1.28184e-72
1.19485e-70
3.92882e-73
2.17255e-16
1.51634e-16
4.02582e-17
3.13582e-17
6.20572e-18
5.40893e-18
8.12204e-19
7.99679e-19
9.26433e-20
1.03371e-19
9.34068e-21
1.18339e-20
8.4135e-22
1.21215e-21
6.83107e-23
1.12088e-22
5.03782e-24
9.42907e-24
3.39691e-25
7.26131e-25
2.10593e-26
5.14461e-26
1.20613e-27
3.3663e-27
6.40731e-29
2.04052e-28
3.16772e-30
1.1487e-29
1.46153e-31
6.01853e-31
6.30699e-33
2.94048e-32
2.55008e-34
1.34193e-33
9.67326e-36
5.7291e-35
3.4457e-37
2.29114e-36
1.1532e-38
8.59217e-38
3.62693e-40
3.02422e-39
1.07178e-41
9.99657e-41
2.9742e-43
3.10439e-42
7.74333e-45
9.05797e-44
1.88873e-46
2.4827e-45
4.30772e-48
6.38879e-47
9.16259e-50
1.54204e-48
1.81118e-51
3.48581e-50
3.31178e-53
7.36368e-52
5.56737e-55
1.44917e-53
8.53422e-57
2.64527e-55
1.17973e-58
4.45133e-57
1.4484e-60
6.84628e-59
1.54573e-62
9.5086e-61
1.38957e-64
1.17211e-62
1.00259e-66
1.2502e-64
5.35619e-69
1.10973e-66
1.81621e-71
7.68634e-69
3.34182e-73
3.67726e-71
1.15754e-73
4.68052e-17
3.5677e-17
8.85568e-18
7.64595e-18
1.39898e-18
1.3575e-18
1.88201e-19
2.05304e-19
2.20527e-20
2.70289e-20
2.28113e-21
3.14261e-21
2.10541e-22
3.26333e-22
1.7494e-23
3.05499e-23
1.31852e-24
2.59863e-24
9.07247e-26
2.02136e-25
5.73067e-27
1.44521e-26
3.33867e-28
9.53558e-28
1.80124e-29
5.8249e-29
9.0294e-31
3.30287e-30
4.21749e-32
1.74227e-31
1.83971e-33
8.56629e-33
7.50824e-35
3.93237e-34
2.87093e-36
1.68787e-35
1.02953e-37
6.78267e-37
3.46468e-39
2.55444e-38
1.09448e-40
9.02384e-40
3.24517e-42
2.99192e-41
9.02711e-44
9.31387e-43
2.35375e-45
2.72255e-44
5.74494e-47
7.47145e-46
1.31007e-48
1.92391e-47
2.78392e-50
4.64416e-49
5.49358e-52
1.04937e-50
1.00203e-53
2.21466e-52
1.67903e-55
4.35205e-54
2.56342e-57
7.92847e-56
3.52649e-59
1.33086e-57
4.30525e-61
2.04079e-59
4.56514e-63
2.82449e-61
4.07455e-65
3.46779e-63
2.91686e-67
3.68227e-65
1.54529e-69
3.2525e-67
5.19458e-72
2.24093e-69
8.05846e-74
1.06628e-71
3.20546e-74
9.47746e-18
7.77511e-18
1.83597e-18
1.71411e-18
2.97073e-19
3.12312e-19
4.09486e-20
4.82808e-20
4.91316e-21
6.47555e-21
5.19948e-22
7.65254e-22
4.9053e-23
8.06358e-23
4.16211e-24
7.64966e-24
3.19987e-25
6.58572e-25
2.24326e-26
5.17878e-26
1.44183e-27
3.73923e-27
8.53608e-29
2.4893e-28
4.67348e-30
1.53308e-29
2.37422e-31
8.75869e-31
1.12234e-32
4.65255e-32
4.94831e-34
2.30236e-33
2.03861e-35
1.06322e-34
7.85937e-37
4.58857e-36
2.83844e-38
1.85303e-37
9.60975e-40
7.00964e-39
3.05091e-41
2.48584e-40
9.08281e-43
8.26951e-42
2.53457e-44
2.58151e-43
6.62402e-46
7.56313e-45
1.61921e-47
2.07916e-46
3.69514e-49
5.36051e-48
7.85203e-51
1.29496e-49
1.54827e-52
2.92684e-51
2.81979e-54
6.17591e-53
4.71433e-56
1.21288e-54
7.17604e-58
2.20726e-56
9.83538e-60
3.69958e-58
1.19541e-61
5.66233e-60
1.26107e-63
7.8188e-62
1.11908e-65
9.57406e-64
7.96096e-68
1.01359e-65
4.18952e-70
8.92399e-68
1.39872e-72
6.12763e-70
1.77573e-74
2.90582e-72
8.34758e-75
1.82213e-18
1.59976e-18
3.60751e-19
3.59996e-19
5.96664e-20
6.6984e-20
8.40437e-21
1.05575e-20
1.02973e-21
1.44072e-21
1.11206e-22
1.72937e-22
1.06989e-23
1.84844e-23
9.25044e-25
1.77662e-24
7.24077e-26
1.54789e-25
5.16322e-27
1.23047e-26
3.37205e-28
8.97207e-28
2.02628e-29
6.02643e-29
1.12473e-30
3.74179e-30
5.78615e-32
2.15371e-31
2.76663e-33
1.1519e-32
1.23239e-34
5.7364e-34
5.12396e-36
2.66446e-35
1.99148e-37
1.15603e-36
7.2434e-39
4.69104e-38
2.46733e-40
1.78221e-39
7.87407e-42
6.34454e-41
2.35432e-43
2.11765e-42
6.59276e-45
6.62951e-44
1.72767e-46
1.94686e-45
4.23146e-48
5.36222e-47
9.6683e-50
1.38449e-48
2.05555e-51
3.34793e-50
4.05246e-53
7.57143e-52
7.37432e-55
1.59796e-53
1.23104e-56
3.13764e-55
1.86983e-58
5.70699e-57
2.55568e-60
9.5572e-59
3.09584e-62
1.46107e-60
3.25332e-64
2.01466e-62
2.87469e-66
2.46299e-64
2.03568e-68
2.60307e-66
1.06628e-70
2.28789e-68
3.54348e-73
1.56845e-70
3.57602e-75
7.42809e-73
2.03338e-75
3.35205e-19
3.14211e-19
6.75777e-20
7.16629e-20
1.139e-20
1.35498e-20
1.63476e-21
2.17023e-21
2.03985e-22
3.0067e-22
2.24245e-23
3.66025e-23
2.19501e-24
3.96373e-24
1.9298e-25
3.85614e-25
1.53497e-26
3.3973e-26
1.11141e-27
2.72828e-27
7.36414e-29
2.00787e-28
4.48554e-30
1.36008e-29
2.52137e-31
8.50987e-31
1.31229e-32
4.93268e-32
6.34179e-34
2.65528e-33
2.85234e-35
1.33017e-34
1.19628e-36
6.21206e-36
4.68558e-38
2.70865e-37
1.71591e-39
1.1041e-38
5.87982e-41
4.21172e-40
1.88606e-42
1.50475e-41
5.66364e-44
5.03831e-43
1.59162e-45
1.58157e-44
4.18269e-47
4.65509e-46
1.02661e-48
1.28452e-47
2.34904e-50
3.32133e-49
4.99817e-52
8.04e-51
9.85538e-54
1.81952e-52
1.79261e-55
3.84145e-54
2.98949e-57
7.54312e-56
4.53377e-59
1.37168e-57
6.18422e-61
2.29601e-59
7.47312e-63
3.50779e-61
7.83174e-65
4.83327e-63
6.90001e-67
5.90435e-65
4.87176e-69
6.23607e-67
2.54468e-71
5.47876e-69
8.43602e-74
3.75591e-71
5.78896e-76
1.77979e-73
4.64757e-76
5.93061e-20
5.93336e-20
1.21243e-20
1.36269e-20
2.07538e-21
2.60585e-21
3.02599e-22
4.22671e-22
3.83491e-23
5.92971e-23
4.28065e-24
7.306e-24
4.25322e-25
8.00239e-25
3.79413e-26
7.86868e-26
3.0606e-27
7.00137e-27
2.24614e-28
5.67407e-28
1.50751e-29
4.21076e-29
9.29423e-31
2.87402e-30
5.28399e-32
1.81074e-31
2.77926e-33
1.05625e-32
1.3562e-34
5.71892e-34
6.15405e-36
2.88017e-35
2.6018e-37
1.35165e-36
1.02643e-38
5.91985e-38
3.78299e-40
2.4228e-39
1.30358e-41
9.27559e-41
4.20178e-43
3.32463e-42
1.26695e-44
1.11632e-43
3.57261e-46
3.51274e-45
9.41439e-48
1.03602e-46
2.31553e-49
2.86354e-48
5.30611e-51
7.41382e-50
1.13e-52
1.79642e-51
2.22887e-54
4.06811e-53
4.05333e-56
8.59204e-55
6.75508e-58
1.68738e-56
1.02334e-59
3.06825e-58
1.39388e-61
5.13491e-60
1.68159e-63
7.84312e-62
1.75915e-65
1.08047e-63
1.54718e-67
1.31986e-65
1.09076e-69
1.39441e-67
5.69145e-72
1.22601e-69
1.88606e-74
8.41689e-72
6.66587e-77
3.99763e-74
1.00575e-76
1.01258e-20
1.08284e-20
2.09034e-21
2.48896e-21
3.62142e-22
4.79187e-22
5.34779e-23
7.84373e-23
6.86471e-24
1.11122e-23
7.76106e-25
1.38254e-24
7.80934e-26
1.52866e-25
7.05331e-27
1.51663e-26
5.75873e-28
1.36082e-27
4.27579e-29
1.11143e-28
2.90192e-30
8.30702e-30
1.80818e-31
5.70698e-31
1.0383e-32
3.61708e-32
5.51238e-34
2.12144e-33
2.71321e-35
1.15434e-34
1.24098e-36
5.84e-36
5.28458e-38
2.75207e-37
2.09841e-39
1.2099e-38
7.77875e-41
4.96866e-40
2.69419e-42
1.90807e-41
8.72259e-44
6.85762e-43
2.64003e-45
2.30806e-44
7.46784e-47
7.27746e-46
1.97287e-48
2.15e-47
4.86179e-50
5.95065e-49
1.11564e-51
1.54229e-50
2.37793e-53
3.73999e-52
4.69206e-55
8.47401e-54
8.53227e-57
1.79033e-55
1.42133e-58
3.51658e-57
2.15162e-60
6.39478e-59
2.92799e-62
1.07025e-60
3.52882e-64
1.63489e-62
3.68822e-66
2.2529e-64
3.24174e-68
2.75384e-66
2.28507e-70
2.91275e-68
1.193e-72
2.56581e-70
3.9593e-75
1.76643e-72
5.76674e-78
8.42247e-75
2.09424e-77
1.67232e-21
1.91794e-21
3.47144e-22
4.38511e-22
6.06623e-23
8.46134e-23
9.04593e-24
1.39284e-23
1.17301e-24
1.98693e-24
1.33991e-25
2.49024e-25
1.36227e-26
2.77361e-26
1.24307e-27
2.7713e-27
1.0252e-28
2.50328e-28
7.68696e-30
2.05732e-29
5.26656e-31
1.54655e-30
3.31135e-32
1.06811e-31
1.9178e-33
6.80234e-33
1.02638e-34
4.00716e-34
5.08981e-36
2.18917e-35