/*--------------------------------*- C++ -*----------------------------------*\
  =========                 |
  \\      /  F ield         | OpenFOAM: The Open Source CFD Toolbox
   \\    /   O peration     | Website:  https://openfoam.org
    \\  /    A nd           | Version:  9
     \\/     M anipulation  |
\*---------------------------------------------------------------------------*/
FoamFile
{
    format      ascii;
    class       volScalarField;
    location    "0.15";
    object      k;
}
// * * * * * * * * * * * * * * * * * * * * * * * * * * * * * * * * * * * * * //

dimensions      [0 2 -2 0 0 0 0];

internalField   nonuniform List<scalar> 
1915
(
0.0362381
0.0290551
0.0761754
0.0505554
0.108949
0.0637267
0.158229
0.073686
0.193084
0.0781387
0.197747
0.0762252
0.178865
0.0714352
0.157935
0.0666921
0.149722
0.0628741
0.161269
0.0635759
0.0120107
0.0166146
0.017075
0.0180529
0.0197813
0.0208802
0.0215063
0.0218105
0.0219019
0.0218564
0.0217256
0.0215433
0.0213399
0.0211838
0.0210461
0.0209113
0.0207792
0.020651
0.020527
0.0204068
0.02029
0.020176
0.0200643
0.0199541
0.0198438
0.0197311
0.0196122
0.0194818
0.0193319
0.0191515
0.0189253
0.0186323
0.018244
0.0177213
0.0170174
0.0169931
0.0169679
0.0166146
0.0163645
0.00973546
0.0110237
0.0233499
0.0309369
0.0361524
0.0393964
0.0412895
0.0423101
0.0427973
0.0429693
0.042959
0.0428457
0.0426764
0.0424799
0.0422721
0.0420739
0.0418931
0.0417317
0.0415888
0.0414622
0.0413496
0.0412484
0.0411564
0.0410712
0.0409899
0.0409085
0.040821
0.0407189
0.0405903
0.0404188
0.0401814
0.0398473
0.0393739
0.0387035
0.0377558
0.0364125
0.0344888
0.0317502
0.0279212
0.0224164
0.0108649
0.0132182
0.0298404
0.0394065
0.0455196
0.0492779
0.051449
0.0526196
0.0531977
0.0534388
0.0534928
0.0534443
0.0533409
0.0532098
0.0530642
0.0529129
0.0527673
0.0526323
0.0525092
0.0523975
0.0522959
0.0522024
0.0521151
0.0520314
0.051948
0.0518598
0.0517597
0.0516376
0.051479
0.0512643
0.0509664
0.0505486
0.0499608
0.0491345
0.0479743
0.0463417
0.0440236
0.0407232
0.0359477
0.0285695
0.0135855
0.0152909
0.035305
0.0460232
0.052538
0.0563983
0.0585558
0.0596831
0.0602223
0.0604412
0.0604918
0.0604567
0.0603793
0.0602825
0.0601731
0.0600558
0.0599399
0.0598299
0.059727
0.0596313
0.0595418
0.059457
0.059375
0.0592932
0.0592076
0.0591127
0.0590006
0.0588599
0.0586749
0.0584242
0.0580785
0.0575986
0.0569309
0.0560023
0.0547107
0.052909
0.050377
0.0467769
0.0415209
0.0332296
0.0158403
0.0171244
0.0401542
0.0518976
0.0586443
0.0624171
0.064393
0.0653435
0.0657398
0.0658531
0.0658318
0.0657526
0.0656532
0.065551
0.0654438
0.0653356
0.0652316
0.0651337
0.0650422
0.0649561
0.0648742
0.0647948
0.0647157
0.0646339
0.0645449
0.0644427
0.0643185
0.0641601
0.0639508
0.063668
0.0632815
0.0627505
0.0620197
0.0610138
0.0596274
0.0577087
0.0550304
0.0512312
0.045659
0.0367394
0.0175861
0.0190312
0.0442427
0.0571693
0.0642613
0.0679346
0.0696426
0.0703117
0.0704678
0.0703926
0.0702301
0.0700492
0.0698794
0.069731
0.0695932
0.0694682
0.0693561
0.0692554
0.0691638
0.0690789
0.0689985
0.0689199
0.0688402
0.0687557
0.0686616
0.0685509
0.0684142
0.0682385
0.0680065
0.0676948
0.0672722
0.0666974
0.0659141
0.0648459
0.0633855
0.0613779
0.058589
0.0546398
0.0488285
0.0394264
0.0189388
0.0203838
0.0475614
0.0617415
0.0695435
0.0732544
0.0746611
0.0749535
0.0747691
0.0744188
0.0740447
0.0737055
0.0734193
0.0731856
0.0729876
0.0728217
0.0726824
0.0725639
0.0724609
0.0723686
0.072283
0.0722001
0.072116
0.0720263
0.071925
0.0718046
0.071655
0.0714624
0.071209
0.0708707
0.070416
0.0698028
0.0689747
0.0678544
0.0663331
0.0642533
0.061375
0.057304
0.051299
0.0415102
0.0199948
0.0212597
0.0508414
0.0660818
0.0748368
0.0786628
0.0796933
0.0794859
0.0788461
0.0781294
0.0774742
0.0769235
0.0764798
0.0761269
0.0758421
0.0756141
0.0754308
0.0752814
0.0751566
0.0750487
0.0749516
0.0748597
0.0747676
0.0746698
0.0745595
0.0744283
0.0742652
0.0740561
0.0737824
0.0734196
0.0729358
0.0722888
0.0714215
0.0702562
0.0686831
0.066542
0.0635877
0.0594132
0.0532454
0.0431401
0.0208244
0.0294952
0.0568482
0.0722248
0.0811252
0.0845946
0.0849511
0.0840398
0.0828055
0.0816282
0.0806274
0.0798193
0.0791848
0.0786842
0.0782916
0.0779847
0.0777439
0.0775525
0.0773972
0.0772669
0.0771529
0.0770476
0.0769443
0.0768359
0.0767148
0.0765717
0.0763949
0.0761695
0.0758764
0.0754909
0.0749808
0.0743033
0.0734013
0.0721963
0.0705776
0.0683829
0.0653617
0.0610967
0.0547891
0.0444216
0.021479
0.0532099
0.0717963
0.083313
0.0897814
0.0915362
0.0905849
0.0886642
0.0866777
0.0849529
0.0835544
0.0824549
0.0816021
0.0809374
0.080423
0.0800256
0.0797176
0.0794763
0.0792838
0.0791256
0.0789902
0.0788681
0.0787507
0.0786298
0.0784966
0.0783407
0.0781497
0.0779084
0.0775969
0.0771902
0.0766558
0.0759507
0.0750174
0.0737769
0.0721174
0.0698743
0.0667932
0.0624474
0.0560183
0.045432
0.021997
0.18398
0.0752753
0.196794
0.113285
0.19722
0.157734
0.188126
0.181748
0.174185
0.183593
0.160151
0.17413
0.148281
0.161785
0.138973
0.150429
0.131909
0.141143
0.126588
0.133822
0.128058
0.123481
0.119809
0.116822
0.114369
0.112333
0.110628
0.109186
0.107954
0.10689
0.105964
0.105148
0.104423
0.103774
0.103187
0.102655
0.102169
0.101724
0.101316
0.100942
0.1006
0.100287
0.0999952
0.0600921
0.0432343
0.0533843
0.0647594
0.086439
0.103433
0.104642
0.113141
0.125503
0.115731
0.119825
0.129998
0.163793
0.153312
0.154411
0.158766
0.181727
0.179176
0.179184
0.178808
0.181245
0.184401
0.184946
0.182328
0.171741
0.177472
0.179023
0.176498
0.160113
0.166376
0.168578
0.166789
0.149414
0.155118
0.15743
0.156288
0.140436
0.145148
0.147202
0.146468
0.133139
0.136793
0.138428
0.137901
0.12726
0.12996
0.131149
0.130702
0.12252
0.124425
0.125207
0.124769
0.118684
0.119949
0.120385
0.119922
0.115563
0.116322
0.116475
0.115968
0.113004
0.113367
0.11329
0.112735
0.110889
0.110942
0.11068
0.110076
0.109126
0.108936
0.108525
0.107874
0.107643
0.10726
0.106729
0.106035
0.106382
0.105847
0.105218
0.104485
0.1053
0.104644
0.103936
0.103169
0.104361
0.103609
0.102837
0.10204
0.103539
0.102711
0.101886
0.101063
0.102812
0.101923
0.101056
0.100212
0.102164
0.101225
0.100325
0.0994636
0.101582
0.100604
0.0996758
0.0988006
0.101055
0.100045
0.0990952
0.0982091
0.100577
0.0995397
0.0985724
0.097678
0.10014
0.0990806
0.0980991
0.0971984
0.0997396
0.0986615
0.0976682
0.096763
0.0993728
0.0982776
0.0972744
0.0963658
0.0990365
0.0979249
0.0969131
0.096002
0.0987244
0.0975999
0.0965808
0.0956675
0.0916655
0.0952893
0.0994727
0.101034
0.099582
0.0965847
0.0933301
0.0904516
0.0881159
0.0862882
0.0848797
0.0837918
0.0829536
0.0823096
0.0818149
0.0814336
0.081137
0.0809025
0.0807123
0.0805522
0.0804105
0.0802768
0.0801416
0.0799949
0.0798255
0.0796202
0.079363
0.0790338
0.0786071
0.07805
0.0773194
0.0763574
0.0750842
0.0733872
0.0710997
0.0679634
0.0635444
0.057008
0.0462365
0.0224116
0.116848
0.117904
0.117062
0.113399
0.108077
0.10262
0.0978563
0.0940295
0.0910705
0.0888138
0.0870922
0.0857726
0.0847619
0.0839879
0.0833942
0.0829372
0.0825825
0.0823034
0.0820787
0.0818915
0.0817281
0.0815766
0.0814258
0.0812647
0.0810811
0.0808613
0.0805884
0.0802421
0.0797963
0.0792179
0.0784634
0.0774746
0.0761711
0.0744391
0.0721101
0.0689227
0.0644366
0.0578045
0.0468754
0.0227429
0.13784
0.138299
0.133009
0.124613
0.11577
0.108054
0.101915
0.0972352
0.0937194
0.091074
0.0890659
0.0875357
0.0863661
0.0854699
0.0847817
0.084251
0.0838389
0.0835149
0.0832549
0.0830398
0.0828538
0.0826834
0.0825163
0.0823403
0.0821424
0.081908
0.0816199
0.081257
0.0807931
0.0801947
0.0794179
0.0784041
0.0770723
0.0753077
0.0729401
0.0697052
0.0651579
0.0584411
0.0473787
0.023007
0.160109
0.15499
0.144904
0.132887
0.12159
0.112316
0.105209
0.0999129
0.0959733
0.0930174
0.0907812
0.0890771
0.0877718
0.0867686
0.0859952
0.0853967
0.0849306
0.0845635
0.0842692
0.0840263
0.0838176
0.0836283
0.0834446
0.0832536
0.0830413
0.0827926
0.0824897
0.082111
0.0816299
0.0810126
0.080215
0.0791778
0.0778196
0.0760244
0.0736209
0.0703421
0.065739
0.0589473
0.0477722
0.0232171
0.17377
0.163912
0.150937
0.13725
0.12497
0.115078
0.107554
0.101944
0.0977603
0.0946142
0.092224
0.0903932
0.088983
0.0878929
0.0870478
0.0863904
0.085876
0.0854696
0.0851431
0.0848739
0.0846434
0.0844354
0.0842356
0.0840298
0.0838035
0.0835409
0.0832236
0.0828299
0.0823325
0.0816975
0.0808803
0.0798212
0.0784383
0.0766147
0.0741777
0.0708584
0.0662048
0.059347
0.0480772
0.0233843
0.175394
0.164477
0.151287
0.137877
0.125963
0.116315
0.108894
0.103294
0.0990694
0.0958566
0.093391
0.091485
0.0900045
0.088851
0.0879503
0.087245
0.0866899
0.0862492
0.085894
0.0856008
0.0853499
0.0851244
0.0849091
0.0846892
0.0844494
0.0841735
0.0838426
0.0834345
0.0829219
0.0822702
0.0814346
0.0803551
0.0789491
0.077099
0.0746311
0.0712747
0.0665756
0.0596598
0.0483107
0.0235172
0.169832
0.159722
0.147818
0.13583
0.125115
0.116295
0.10937
0.104034
0.0999313
0.0967597
0.0942913
0.09236
0.0908439
0.0896515
0.0887125
0.0879716
0.0873845
0.0869156
0.086536
0.0862217
0.0859526
0.0857111
0.0854815
0.0852482
0.0849958
0.0847073
0.0843636
0.083942
0.083415
0.0827477
0.0818949
0.0807964
0.079369
0.0774945
0.074998
0.071608
0.0668681
0.0599018
0.0484869
0.0236232
0.161239
0.152665
0.142576
0.132386
0.123166
0.115422
0.109191
0.104271
0.100403
0.0973553
0.0949443
0.0930315
0.091512
0.0903043
0.0893442
0.0885802
0.0879703
0.08748
0.0870808
0.086749
0.0864642
0.0862086
0.085966
0.0857206
0.0854565
0.0851563
0.0848006
0.0843664
0.0838259
0.0831441
0.0822754
0.0811593
0.0797121
0.077815
0.0752926
0.0718722
0.0670962
0.0600863
0.0486171
0.023708
0.15194
0.145003
0.136768
0.128375
0.120657
0.114028
0.108555
0.104122
0.100554
0.0976857
0.0953769
0.0935182
0.0920227
0.0908207
0.0898557
0.0890809
0.0884573
0.0879524
0.0875387
0.0871931
0.0868954
0.0866278
0.0863739
0.0861177
0.0858429
0.085532
0.0851652
0.0847194
0.0841665
0.0834713
0.0825879
0.0814555
0.0799901
0.0780726
0.0755267
0.0720791
0.0672713
0.0602242
0.048711
0.0237763
0.143134
0.137659
0.131086
0.124301
0.117946
0.112359
0.107625
0.103692
0.100454
0.0977961
0.0956199
0.0938415
0.092392
0.0912137
0.0902579
0.0894833
0.0888547
0.0883418
0.0879187
0.0875632
0.0872556
0.0869783
0.0867148
0.0864492
0.0861649
0.0858443
0.0854675
0.085011
0.0844467
0.0837391
0.0828422
0.0816949
0.0802131
0.078277
0.0757102
0.0722385
0.0674032
0.0603245
0.0487759
0.0238318
0.135342
0.131065
0.125875
0.120441
0.115253
0.110582
0.106525
0.103072
0.100164
0.0977309
0.0957046
0.0940244
0.0926373
0.0914967
0.090562
0.0897974
0.0891715
0.0886568
0.0882291
0.0878674
0.0875528
0.087268
0.0869969
0.0867233
0.0864308
0.0861016
0.0857157
0.0852496
0.0846749
0.083956
0.0830469
0.0818861
0.0803894
0.0784368
0.0758514
0.0723587
0.0674998
0.0603947
0.0488181
0.0238774
0.128703
0.125358
0.121267
0.116924
0.112698
0.108806
0.105344
0.10233
0.0997386
0.0975301
0.0956612
0.0940897
0.092776
0.0916837
0.0907795
0.090033
0.0894165
0.0889054
0.0884776
0.0881132
0.0877944
0.0875044
0.0872273
0.0869473
0.0866478
0.0863112
0.0859172
0.0854424
0.0848583
0.0841293
0.0832091
0.0820363
0.0805264
0.0785591
0.0759574
0.0724467
0.0675676
0.0604408
0.0488426
0.0239152
0.123163
0.120519
0.117277
0.113793
0.11034
0.107094
0.104144
0.10152
0.0992213
0.0972288
0.0955172
0.0940587
0.0928251
0.0917884
0.0909217
0.0901995
0.089598
0.0890952
0.0886712
0.0883074
0.087987
0.0876939
0.0874126
0.0871275
0.0868223
0.0864793
0.0860783
0.0855958
0.0850034
0.0842653
0.0833352
0.0821517
0.0806301
0.0786501
0.0760343
0.0725081
0.0676123
0.0604677
0.0488531
0.023947
0.118586
0.116459
0.113859
0.111039
0.108201
0.105483
0.102963
0.100681
0.0986467
0.096856
0.0952965
0.0939512
0.0928006
0.0918238
0.0909994
0.0903063
0.0897242
0.0892336
0.0888166
0.0884562
0.0881365
0.0878422
0.0875583
0.0872696
0.0869598
0.0866115
0.0862044
0.0857153
0.0851155
0.0843693
0.0834306
0.0822377
0.0807059
0.0787149
0.0760871
0.072548
0.0676382
0.0604793
0.0488528
0.023974
0.114814
0.113063
0.110943
0.108633
0.106278
0.103987
0.101829
0.0998407
0.0980414
0.0964356
0.0950197
0.0937844
0.092717
0.091802
0.0910228
0.0903621
0.0898026
0.0893273
0.08892
0.0885653
0.0882484
0.0879547
0.0876697
0.0873785
0.0870654
0.0867127
0.0863006
0.0858056
0.0851995
0.0844463
0.0835
0.082299
0.0807584
0.078758
0.0761201
0.0725702
0.0676491
0.0604788
0.048844
0.0239971
0.111702
0.110221
0.108458
0.106536
0.10456
0.102614
0.100754
0.0990178
0.0974253
0.0959867
0.0947039
0.0935733
0.092587
0.091734
0.0910014
0.090375
0.0898403
0.0893825
0.0889872
0.0886402
0.0883277
0.0880361
0.0877513
0.0874589
0.0871433
0.0867872
0.0863709
0.0858711
0.0852595
0.0845003
0.0835475
0.0823395
0.0807915
0.0787831
0.0761369
0.0725781
0.0676478
0.0604688
0.0488284
0.024017
0.10912
0.107833
0.106335
0.104708
0.10303
0.101361
0.0997483
0.0982254
0.0968132
0.095524
0.0943631
0.0933305
0.0924218
0.0916295
0.0909435
0.0903525
0.089844
0.0894053
0.0890234
0.0886856
0.088379
0.0880907
0.0878072
0.0875146
0.0871975
0.086839
0.0864193
0.0859155
0.0852992
0.0845349
0.0835766
0.0823627
0.0808085
0.0787935
0.0761405
0.0725745
0.0676369
0.060451
0.0488074
0.024034
0.106966
0.105816
0.104514
0.103114
0.101667
0.100221
0.0988135
0.0974715
0.0962157
0.095059
0.0940085
0.0930665
0.0922311
0.091497
0.0908568
0.0903011
0.0898195
0.0894008
0.0890335
0.088706
0.0884064
0.0881224
0.0878413
0.0875493
0.0872316
0.0868713
0.0864491
0.085942
0.0853219
0.0845533
0.0835904
0.0823716
0.0808122
0.0787919
0.0761332
0.0725615
0.0676181
0.0604271
0.0487821
0.0240484
0.105155
0.104103
0.102947
0.101719
0.100455
0.0991891
0.0979498
0.0967608
0.09564
0.0946002
0.093649
0.0927899
0.0920227
0.0913439
0.0907478
0.0902268
0.089772
0.0893738
0.0890218
0.0887054
0.0884136
0.0881348
0.0878567
0.0875662
0.0872485
0.0868873
0.0864632
0.0859535
0.0853303
0.0845583
0.0835915
0.0823686
0.080805
0.0787804
0.0761173
0.0725409
0.067593
0.0603982
0.0487531
0.0240605
0.103621
0.102638
0.10159
0.100495
0.0993758
0.0982551
0.0971552
0.0960954
0.0950911
0.0941538
0.0932913
0.0925076
0.0918033
0.0911764
0.0906223
0.0901348
0.0897064
0.0893286
0.0889922
0.0886874
0.088404
0.088131
0.0878566
0.0875681
0.0872512
0.0868895
0.0864642
0.0859526
0.0853269
0.084552
0.0835822
0.082356
0.0807891
0.078761
0.0760943
0.0725143
0.0675629
0.0603652
0.0487211
0.0240703
0.102312
0.101378
0.100412
0.0994191
0.0984137
0.0974108
0.0964266
0.0954759
0.0945718
0.0937244
0.0929407
0.092225
0.0915783
0.0909995
0.0904849
0.0900295
0.0896267
0.089269
0.0889482
0.0886552
0.0883805
0.0881137
0.0878436
0.0875576
0.0872419
0.0868804
0.0864543
0.0859414
0.0853138
0.0845367
0.0835644
0.0823356
0.080766
0.0787351
0.0760656
0.0724828
0.0675286
0.0603288
0.0486863
0.0240778
0.101185
0.100287
0.0993817
0.0984692
0.0975549
0.096648
0.0957598
0.0949016
0.0940836
0.0933146
0.0926009
0.0919462
0.091352
0.0908174
0.0903398
0.0899146
0.0895363
0.0891982
0.0888926
0.0886115
0.0883458
0.0880855
0.0878199
0.0875369
0.0872228
0.0868619
0.0864356
0.0859217
0.0852928
0.084514
0.0835398
0.082309
0.0807372
0.0787041
0.0760324
0.0724473
0.0674908
0.0602895
0.0486492
0.0240831
0.100209
0.0993358
0.0984775
0.0976279
0.0967869
0.0959588
0.0951507
0.0943707
0.093627
0.0929264
0.0922744
0.0916744
0.0911276
0.0906337
0.0901902
0.0897934
0.0894383
0.0891189
0.0888283
0.0885588
0.088302
0.0880484
0.0877877
0.0875079
0.0871958
0.0868358
0.0864097
0.0858954
0.0852655
0.0844854
0.0835097
0.0822773
0.0807038
0.0786691
0.0759955
0.0724086
0.0674503
0.0602478
0.04861
0.0240862
0.0993557
0.0985017
0.09768
0.0968803
0.0960987
0.0953356
0.0945946
0.0938813
0.0932014
0.0925606
0.0919631
0.0914118
0.0909079
0.0904509
0.0900389
0.0896685
0.0893352
0.0890336
0.0887573
0.0884993
0.0882513
0.0880044
0.0877486
0.0874723
0.0871624
0.0868037
0.0863781
0.0858636
0.0852332
0.0844522
0.0834754
0.0822418
0.080667
0.0786308
0.0759558
0.0723673
0.0674075
0.0602039
0.0485688
0.024087
0.0986054
0.0977659
0.096973
0.0962137
0.0954808
0.0947717
0.0940873
0.0934308
0.0928061
0.0922173
0.0916678
0.0911599
0.0906945
0.0902711
0.0898879
0.0895419
0.089229
0.0889442
0.0886817
0.0884346
0.0881952
0.0879551
0.0877042
0.0874316
0.0871241
0.0867669
0.0863421
0.0858278
0.0851971
0.0844155
0.0834379
0.0822033
0.0806275
0.0785902
0.0759139
0.072324
0.0673628
0.0601583
0.0485258
0.0240856
0.0979409
0.0971129
0.0963434
0.0956172
0.0949247
0.0942608
0.0936244
0.0930165
0.0924394
0.0918961
0.091389
0.0909197
0.0904888
0.0900957
0.0897389
0.0894154
0.0891215
0.0888525
0.0886029
0.0883663
0.0881354
0.0879017
0.0876559
0.0873869
0.0870821
0.0867266
0.0863027
0.0857888
0.0851581
0.0843762
0.083398
0.0821627
0.080586
0.0785478
0.0758704
0.0722792
0.0673165
0.0601111
0.0484813
0.024082
0.0973485
0.0965303
0.0957802
0.0950815
0.0944228
0.0937973
0.0932017
0.0926356
0.0921
0.0915964
0.0911266
0.0906916
0.0902916
0.089926
0.0895931
0.0892902
0.0890139
0.0887597
0.0885223
0.0882957
0.0880728
0.0878456
0.0876047
0.0873395
0.0870373
0.0866837
0.0862609
0.0857476
0.085117
0.084335
0.0833564
0.0821206
0.0805432
0.0785041
0.0758256
0.0722331
0.0672691
0.0600626
0.0484354
0.0240761
0.0968174
0.0960077
0.0952741
0.0945987
0.0939687
0.0933759
0.0928154
0.0922855
0.0917858
0.0913171
0.0908803
0.0904757
0.0901034
0.0897626
0.0894515
0.0891675
0.0889074
0.0886669
0.088441
0.0882239
0.0880088
0.0877877
0.0875517
0.0872901
0.0869907
0.086639
0.0862175
0.0857049
0.0850747
0.0842927
0.0833139
0.0820776
0.0804996
0.0784596
0.0757801
0.0721863
0.0672207
0.060013
0.0483882
0.0240681
0.0963386
0.0955366
0.0948173
0.094162
0.0935567
0.0929919
0.0924618
0.0919633
0.0914951
0.0910571
0.0906493
0.0902719
0.0899245
0.0896059
0.0893146
0.0890479
0.0888027
0.088575
0.0883599
0.0881517
0.0879439
0.0877288
0.0874975
0.0872397
0.086943
0.0865933
0.0861732
0.0856615
0.0850317
0.0842498
0.0832708
0.0820341
0.0804555
0.0784147
0.0757341
0.0721389
0.0671716
0.0599626
0.04834
0.024058
0.0959046
0.0951099
0.0944033
0.0937654
0.0931816
0.0926413
0.0921376
0.0916665
0.091226
0.090815
0.0904331
0.0900799
0.0897547
0.0894563
0.0891829
0.0889321
0.0887006
0.0884847
0.0882796
0.0880799
0.0878791
0.0876697
0.087443
0.0871887
0.0868949
0.0865472
0.0861285
0.0856178
0.0849885
0.0842068
0.0832278
0.0819908
0.0804116
0.0783699
0.075688
0.0720912
0.0671221
0.0599116
0.0482908
0.0240458
0.0955094
0.0947215
0.0940263
0.093404
0.092839
0.0923201
0.0918396
0.0913927
0.0909766
0.0905895
0.0902306
0.089899
0.0895938
0.0893136
0.0890566
0.0888202
0.0886015
0.0883965
0.0882008
0.088009
0.0878149
0.087611
0.0873887
0.087138
0.0868469
0.0865012
0.0860841
0.0855743
0.0849457
0.0841642
0.0831852
0.0819478
0.0803679
0.0783253
0.0756421
0.0720435
0.0670723
0.0598601
0.0482409
0.0240316
0.0951479
0.0943665
0.0936818
0.0930733
0.0925251
0.0920251
0.0915652
0.0911396
0.0907451
0.0903793
0.090041
0.0897288
0.0894417
0.089178
0.0889358
0.0887127
0.0885056
0.0883108
0.0881239
0.0879396
0.0877517
0.087553
0.087335
0.0870878
0.0867994
0.0864559
0.0860402
0.0855316
0.0849036
0.0841224
0.0831433
0.0819056
0.080325
0.0782812
0.0755965
0.071996
0.0670226
0.0598082
0.0481905
0.0240156
0.0948159
0.0940408
0.0933656
0.0927696
0.0922364
0.0917533
0.0913116
0.0909051
0.0905299
0.0901832
0.0898633
0.0895687
0.0892978
0.0890492
0.0888206
0.0886097
0.0884133
0.088228
0.0880492
0.0878719
0.08769
0.0874964
0.0872825
0.0870386
0.0867529
0.0864114
0.0859974
0.0854898
0.0848625
0.0840817
0.0831025
0.0818644
0.080283
0.0782381
0.0755517
0.071949
0.066973
0.0597563
0.0481395
0.0239977
)
;

boundaryField
{
    leftWall
    {
        type            kqRWallFunction;
        value           nonuniform List<scalar> 0();
    }
    rightWall
    {
        type            kqRWallFunction;
        value           nonuniform List<scalar> 
43
(
0.00973546
0.0108649
0.0135855
0.0158403
0.0175861
0.0189388
0.0199948
0.0208244
0.021479
0.021997
0.0224116
0.0227429
0.023007
0.0232171
0.0233843
0.0235172
0.0236232
0.023708
0.0237763
0.0238318
0.0238774
0.0239152
0.023947
0.023974
0.0239971
0.024017
0.024034
0.0240484
0.0240605
0.0240703
0.0240778
0.0240831
0.0240862
0.024087
0.0240856
0.024082
0.0240761
0.0240681
0.024058
0.0240458
0.0240316
0.0240156
0.0239977
)
;
    }
    lowerWall
    {
        type            kqRWallFunction;
        value           nonuniform List<scalar> 
66
(
0.0362381
0.0290551
0.0290551
0.0505554
0.0637267
0.073686
0.0781387
0.0762252
0.0714352
0.0666921
0.0628741
0.0635759
0.0600921
0.0432343
0.0533843
0.0647594
0.0120107
0.0110237
0.0132182
0.0152909
0.0171244
0.0190312
0.0203838
0.0212597
0.0294952
0.0532099
0.0120107
0.0166146
0.017075
0.0180529
0.0197813
0.0208802
0.0215063
0.0218105
0.0219019
0.0218564
0.0217256
0.0215433
0.0213399
0.0211838
0.0210461
0.0209113
0.0207792
0.020651
0.020527
0.0204068
0.02029
0.020176
0.0200643
0.0199541
0.0198438
0.0197311
0.0196122
0.0194818
0.0193319
0.0191515
0.0189253
0.0186323
0.018244
0.0177213
0.0170174
0.0169931
0.0169679
0.0166146
0.0163645
0.00973546
)
;
    }
    atmosphere
    {
        type            inletOutlet;
        inletValue      nonuniform List<scalar> 0();
        value           nonuniform List<scalar> 0();
    }
    defaultFaces
    {
        type            empty;
    }
    procBoundary1to0
    {
        type            processor;
        value           nonuniform List<scalar> 
44
(
0.0386544
0.0720418
0.112831
0.17945
0.223768
0.229218
0.214585
0.195517
0.181645
0.177913
0.181849
0.184293
0.179112
0.168315
0.156057
0.144937
0.135916
0.129065
0.124068
0.120478
0.122528
0.122528
0.119364
0.116839
0.114779
0.113064
0.111614
0.11037
0.10929
0.108342
0.107502
0.106749
0.10607
0.105452
0.104886
0.104366
0.103886
0.103443
0.103034
0.102658
0.102313
0.102001
0.101714
0.101449
)
;
    }
    procBoundary1to3
    {
        type            processor;
        value           nonuniform List<scalar> 
45
(
0.0997222
0.0984321
0.0972958
0.0962714
0.0953582
0.0945101
0.0937407
0.0930743
0.0924897
0.0919699
0.0915021
0.0910767
0.0906873
0.0903294
0.0899999
0.0896967
0.0894179
0.0891619
0.0889269
0.0887108
0.0885111
0.0883248
0.0881482
0.0879771
0.0878064
0.0876301
0.0874412
0.0872314
0.0869907
0.0867077
0.0863683
0.0859558
0.0854494
0.0848228
0.0840423
0.083063
0.0818245
0.0802422
0.0781959
0.0755076
0.0719025
0.0669236
0.0597042
0.048088
0.0239774
)
;
    }
}


// ************************************************************************* //
