/*--------------------------------*- C++ -*----------------------------------*\
  =========                 |
  \\      /  F ield         | OpenFOAM: The Open Source CFD Toolbox
   \\    /   O peration     | Website:  https://openfoam.org
    \\  /    A nd           | Version:  9
     \\/     M anipulation  |
\*---------------------------------------------------------------------------*/
FoamFile
{
    format      ascii;
    class       volScalarField;
    location    "0.15";
    object      nut;
}
// * * * * * * * * * * * * * * * * * * * * * * * * * * * * * * * * * * * * * //

dimensions      [0 2 -1 0 0 0 0];

internalField   nonuniform List<scalar> 
1915
(
0.000106229
9.81157e-05
0.000472895
0.000165973
0.000824988
0.000190935
0.00113061
0.000214467
0.00129568
0.00023199
0.00129252
0.00023758
0.00115302
0.000230052
0.00101525
0.000221342
0.000982689
0.000211546
0.00109069
0.000203091
0.000209216
0.000290864
0.000303475
7.18609e-05
7.52665e-05
7.73798e-05
7.85572e-05
7.91219e-05
7.92898e-05
7.92042e-05
7.89595e-05
7.86165e-05
7.82213e-05
7.79004e-05
7.76311e-05
7.73688e-05
7.71109e-05
7.68596e-05
7.66158e-05
7.6379e-05
7.61484e-05
7.59228e-05
7.5701e-05
7.54812e-05
7.52602e-05
7.50333e-05
7.47927e-05
7.45274e-05
7.42212e-05
7.38516e-05
7.33871e-05
7.27843e-05
7.19828e-05
7.0898e-05
6.94384e-05
0.000302687
0.000300492
6.74961e-05
0.000285737
0.000102159
7.7807e-05
0.000342069
0.000456367
0.000531293
0.000587755
0.000623256
0.000644225
0.00065569
0.000661093
0.000662709
0.000662014
0.000659907
0.000656623
0.000651278
0.000645821
0.000641124
0.000637307
0.000634294
0.000631966
0.000630205
0.000628902
0.000627966
0.000627308
0.000626826
0.000626398
0.000625862
0.000625004
0.000623549
0.000621135
0.0006173
0.00061145
0.000602833
0.000590495
0.000573225
0.000549856
0.00053466
0.000492988
0.000425009
0.000352408
7.70947e-05
8.50104e-05
0.000453867
0.000709939
0.000896747
0.00103747
0.00114137
0.00121587
0.00126721
0.00130066
0.00132062
0.00133072
0.00133383
0.00133188
0.00132566
0.00131735
0.00130894
0.00130129
0.00129469
0.00128919
0.00128468
0.00128102
0.00127802
0.00127549
0.00127318
0.00127078
0.00126787
0.00126391
0.00125819
0.00124977
0.00123747
0.00121978
0.00119483
0.00116033
0.00111342
0.00105078
0.000970298
0.00086086
0.000707402
0.000474985
8.6259e-05
9.16171e-05
0.000541481
0.000868855
0.00112795
0.00134375
0.00152199
0.00166482
0.00177447
0.00185422
0.00190844
0.00194212
0.00196013
0.00196674
0.00196477
0.00195751
0.00194816
0.00193852
0.00192952
0.00192157
0.00191473
0.0019089
0.00190387
0.00189933
0.00189487
0.00188996
0.0018839
0.00187575
0.00186429
0.00184794
0.0018247
0.00179209
0.00174707
0.00168597
0.00160441
0.00149711
0.00135769
0.00117523
0.000930201
0.000581846
9.32773e-05
9.74171e-05
0.000594207
0.000951798
0.00125669
0.00153512
0.00178642
0.00200465
0.0021846
0.00232439
0.00242608
0.0024947
0.00253681
0.00255908
0.0025662
0.00256367
0.00255607
0.00254637
0.00253632
0.00252682
0.00251826
0.00251064
0.00250375
0.0024972
0.00249042
0.00248263
0.0024728
0.00245956
0.00244112
0.00241522
0.00237903
0.00232906
0.00226116
0.00217042
0.00205114
0.00189659
0.00169842
0.00144454
0.00111427
0.000667501
9.84103e-05
0.000103054
0.000599246
0.000965934
0.00130325
0.00163523
0.00195613
0.0022525
0.00251032
0.00272031
0.00288008
0.00299337
0.00306769
0.00311194
0.00313283
0.00313851
0.00313524
0.00312734
0.00311755
0.00310744
0.00309775
0.00308871
0.00308013
0.00307157
0.00306227
0.00305121
0.00303698
0.00301774
0.00299113
0.00295416
0.00290316
0.0028337
0.00274059
0.00261787
0.00245879
0.00225564
0.00199914
0.00167669
0.00126791
0.000735493
0.000102236
0.000106532
0.000562358
0.000927201
0.00129249
0.00167085
0.00205507
0.00242743
0.00276567
0.00305173
0.00327698
0.00344237
0.00355548
0.00362684
0.00366575
0.00368279
0.00368622
0.00368187
0.0036736
0.00366374
0.00365353
0.00364341
0.0036333
0.00362268
0.00361065
0.00359589
0.00357662
0.0035505
0.00351457
0.00346513
0.00339767
0.0033069
0.00318673
0.00303034
0.00283022
0.00257812
0.00226453
0.00187708
0.00139659
0.000789705
0.000105145
0.000108113
0.000505015
0.000869162
0.00125988
0.00167582
0.00211272
0.00255296
0.00296803
0.0033307
0.00362459
0.00384638
0.00400273
0.00410491
0.00416503
0.00419603
0.00420817
0.00420891
0.0042033
0.00419451
0.00418429
0.00417342
0.0041619
0.00414918
0.00413418
0.0041153
0.00409037
0.00405654
0.00401025
0.00394709
0.0038618
0.0037483
0.00359973
0.00340863
0.00316706
0.0028666
0.002498
0.00204975
0.00150443
0.000833171
0.000107391
0.000127059
0.000470815
0.000844572
0.00125072
0.00168888
0.00216205
0.00265598
0.00313801
0.00357199
0.00393275
0.00421141
0.00441276
0.0045474
0.00463067
0.00467742
0.00469978
0.00470682
0.00470481
0.00469777
0.00468803
0.00467666
0.00466383
0.00464893
0.00463073
0.00460734
0.00457619
0.00453393
0.00447639
0.0043985
0.00429433
0.00415709
0.00397934
0.00375319
0.00347052
0.0031231
0.00270233
0.00219794
0.00159464
0.000868141
0.000109142
0.000176696
0.000542163
0.000916304
0.00131134
0.00174621
0.00223376
0.0027628
0.00329708
0.00379189
0.00421293
0.00454486
0.00478911
0.0049562
0.00506313
0.0051264
0.00515984
0.00517398
0.00517623
0.00517146
0.00516255
0.00515091
0.00513683
0.00511969
0.00509808
0.00506983
0.00503196
0.00498066
0.00491117
0.00481783
0.00469408
0.00453256
0.00432541
0.00406451
0.0037418
0.00334953
0.00288001
0.00232446
0.00166988
0.000896304
0.000110518
0.00130706
0.000302111
0.00153463
0.000581649
0.00174526
0.000978746
0.00194108
0.00135871
0.00214742
0.00168505
0.00240162
0.00199787
0.00272829
0.00234404
0.00313499
0.00275232
0.00361634
0.00323102
0.00415749
0.00377275
0.00436105
0.00497566
0.00559531
0.00619972
0.00677154
0.0072973
0.00776794
0.00817875
0.00852885
0.00882041
0.00905776
0.00924656
0.00939312
0.00950386
0.00958492
0.00964193
0.0096799
0.00970312
0.00971521
0.00971915
0.0097173
0.0097115
0.0097029
0.000135874
0.000120972
0.000135591
0.000146809
0.000335929
0.000390051
0.00046844
0.000632391
0.000670217
0.000623153
0.000722475
0.000900061
0.00108553
0.00102516
0.00111447
0.00126565
0.00147557
0.00143901
0.0015179
0.00165886
0.00182797
0.00180827
0.00188186
0.00200922
0.00218198
0.00216331
0.00223187
0.00235282
0.00257775
0.00254601
0.00260438
0.00271938
0.00303603
0.00298202
0.00302358
0.00312932
0.00355835
0.00347938
0.00350003
0.00359285
0.00413398
0.00403318
0.00403264
0.00411013
0.00474515
0.0046293
0.00461044
0.00467183
0.00537054
0.00524764
0.00521504
0.00526089
0.00598832
0.00586559
0.00582406
0.00585576
0.00657846
0.00646122
0.00641485
0.00643407
0.00712472
0.00701605
0.00696769
0.00697611
0.00761565
0.00751664
0.00746791
0.00746697
0.00804486
0.00795509
0.00790661
0.00789751
0.00841053
0.00832865
0.00828038
0.00826408
0.00871447
0.00863873
0.00859025
0.00856758
0.00896109
0.00888969
0.00884051
0.00881216
0.00915644
0.00908778
0.00903743
0.00900407
0.00930731
0.0092401
0.00918826
0.0091505
0.00942064
0.00935392
0.00930042
0.00925887
0.00950304
0.00943617
0.00938097
0.00933622
0.00956054
0.00949314
0.00943632
0.00938893
0.00959845
0.00953031
0.00947205
0.0094225
0.0096213
0.00955236
0.00949283
0.00944159
0.00963284
0.00956312
0.00950254
0.00944997
0.00963615
0.0095657
0.00950426
0.00945069
0.00963365
0.00956255
0.0095004
0.00944608
0.00962723
0.00955552
0.00949281
0.00943793
0.00961814
0.00954599
0.00948284
0.00942755
0.000560533
0.000822745
0.00112118
0.00146339
0.00186775
0.00234883
0.00289496
0.00346554
0.00400795
0.00447934
0.00485791
0.00514029
0.00533762
0.00546727
0.00554689
0.00559162
0.00561321
0.00562012
0.00561795
0.00561012
0.00559835
0.00558304
0.00556355
0.00553831
0.00550486
0.00545984
0.00539895
0.00531693
0.00520753
0.00506367
0.00487757
0.00464106
0.00434597
0.00398454
0.00354967
0.00303481
0.00243281
0.00173292
0.000919157
0.000111615
0.00085938
0.00110171
0.00136709
0.00167079
0.00204542
0.0025138
0.00306606
0.00365906
0.00423475
0.00474384
0.00515835
0.00547207
0.00569531
0.00584516
0.0059398
0.00599523
0.00602411
0.0060357
0.00603624
0.00602958
0.00601771
0.00600115
0.00597919
0.00595011
0.00591117
0.00585863
0.00578775
0.00569277
0.00556696
0.00540279
0.00519214
0.00492672
0.00459846
0.00420006
0.00372524
0.0031687
0.00252495
0.0017854
0.000937607
0.000112491
0.00113645
0.00137807
0.00162617
0.00190878
0.00226702
0.00272773
0.00328229
0.00388701
0.00448179
0.00501384
0.00545155
0.00578761
0.00603053
0.00619657
0.00630379
0.00636854
0.00640398
0.00641989
0.00642297
0.00641742
0.00640541
0.00638752
0.00636299
0.00632993
0.0062853
0.00622504
0.00614397
0.00603589
0.00589367
0.00570941
0.00547479
0.00518149
0.00482169
0.00438867
0.00387708
0.0032829
0.00260226
0.00182855
0.000952319
0.000113189
0.00146595
0.00167977
0.00190823
0.00217971
0.00253324
0.00299285
0.00354805
0.0041555
0.00475497
0.00529403
0.00574222
0.00609059
0.00634586
0.00652307
0.00663961
0.00671163
0.00675241
0.00677194
0.00677718
0.0067725
0.00676021
0.00674088
0.00671368
0.00667652
0.00662611
0.00655804
0.00646676
0.0063457
0.00618736
0.00598358
0.00572593
0.00540617
0.00501687
0.00455192
0.00400697
0.00337926
0.00266644
0.00186364
0.000963911
0.000113746
0.00182534
0.0020099
0.00222447
0.00249373
0.00285052
0.00331292
0.00386563
0.00446404
0.00505349
0.00558625
0.00603277
0.00638337
0.00664331
0.00682615
0.00694822
0.00702502
0.00706955
0.00709172
0.00709852
0.00709436
0.00708156
0.00706065
0.00703068
0.00698936
0.00693315
0.00685733
0.00675601
0.00662228
0.00644837
0.00622594
0.00594653
0.00560207
0.00518556
0.0046916
0.0041168
0.00345963
0.00271908
0.00189183
0.000972902
0.00011419
0.00217716
0.00236441
0.00258171
0.00285863
0.00322281
0.00368339
0.00422411
0.0048043
0.00537379
0.00588916
0.00632332
0.0066669
0.00692412
0.00710706
0.00723069
0.00730956
0.00735602
0.00737966
0.00738727
0.00738317
0.00736958
0.00734692
0.0073141
0.00726861
0.00720668
0.00712328
0.00701224
0.00686636
0.00667767
0.0064377
0.00613803
0.00577086
0.00532963
0.00480968
0.00420856
0.00352583
0.00276171
0.00191413
0.000979735
0.000114544
0.00252041
0.00271832
0.00295333
0.00324761
0.0036227
0.00408346
0.00461126
0.00516821
0.00571006
0.00619921
0.00661223
0.00694088
0.00718879
0.00736668
0.00748806
0.00756627
0.0076128
0.00763666
0.00764427
0.0076397
0.007625
0.00760043
0.00756469
0.00751508
0.00744757
0.00735688
0.00723658
0.00707924
0.00687672
0.00662051
0.00630229
0.00591453
0.00545118
0.00490826
0.00428422
0.00357962
0.00279571
0.00193147
0.000984787
0.000114827
0.00288732
0.00309538
0.00334824
0.00366169
0.0040489
0.00450828
0.00501935
0.00554771
0.00605557
0.00651164
0.00689667
0.00720405
0.00743718
0.00760559
0.00772131
0.00779634
0.00784115
0.00786399
0.00787077
0.00786522
0.00784909
0.00782244
0.00778376
0.00773012
0.00765726
0.00755967
0.00743068
0.00726269
0.00704744
0.00677642
0.00644144
0.00603529
0.0055524
0.00498948
0.00434576
0.00362267
0.00282238
0.00194467
0.00098838
0.000115053
0.00329554
0.00351185
0.00377944
0.00410754
0.00450111
0.00495269
0.00544077
0.00593481
0.00640335
0.00682118
0.00717319
0.00745458
0.00766874
0.00782411
0.00793134
0.00800104
0.00804254
0.00806324
0.00806843
0.00806139
0.00804355
0.0080147
0.00797308
0.00791556
0.00783764
0.00773359
0.00759658
0.00741883
0.00719203
0.00690769
0.0065578
0.00613546
0.00563557
0.00505544
0.00439504
0.00365656
0.00284288
0.00195443
0.000990789
0.000115236
0.00375366
0.00397378
0.00424978
0.00458413
0.00497468
0.00540956
0.00586737
0.00632155
0.00674651
0.0071225
0.00743817
0.00769041
0.00788266
0.00802244
0.00811902
0.00818169
0.00821859
0.00823621
0.00823916
0.00823021
0.00821042
0.00817928
0.00813478
0.00807356
0.00799092
0.00788094
0.00773661
0.00755006
0.00731293
0.00701679
0.00665381
0.00621739
0.00570289
0.00510818
0.00443384
0.00368271
0.00285824
0.00196139
0.000992243
0.000115384
0.00426127
0.00447884
0.00475447
0.00508449
0.00546116
0.00586992
0.00629042
0.00670009
0.0070785
0.0074106
0.00768816
0.00790954
0.00807818
0.00820074
0.00828524
0.00833967
0.00837103
0.00838486
0.00838507
0.00837389
0.00835198
0.00831851
0.00827123
0.00820654
0.00811956
0.00800419
0.00785329
0.00765891
0.00741266
0.0071062
0.00673188
0.00628341
0.00575653
0.00514961
0.00446377
0.00370238
0.00286938
0.00196607
0.000992936
0.000115505
0.00480929
0.00501707
0.00528257
0.00559722
0.00594949
0.00632366
0.00670111
0.00706305
0.00739343
0.00768103
0.00792014
0.00811022
0.00825465
0.00835927
0.00843095
0.00847644
0.00850166
0.00851124
0.00850838
0.00849476
0.00847064
0.00843486
0.00838494
0.00831705
0.00822613
0.00810594
0.00794921
0.00774795
0.00749376
0.00717841
0.0067944
0.00633572
0.00579849
0.00518149
0.00448631
0.00371673
0.00287707
0.00196892
0.000993029
0.000115605
0.00538154
0.00557262
0.00581881
0.00610826
0.00642738
0.00676051
0.00709114
0.00740387
0.00768629
0.00793016
0.00813172
0.00829116
0.00841173
0.00849847
0.00855719
0.00859352
0.00861235
0.00861746
0.00861135
0.00859521
0.00856887
0.00853088
0.00847848
0.00840768
0.00831323
0.00818877
0.00802695
0.00781972
0.00755872
0.00723578
0.00684359
0.00637638
0.00583061
0.0052054
0.00450273
0.00372673
0.00288199
0.00197031
0.00099265
0.000115688
0.00595759
0.0061265
0.00634609
0.00660292
0.00688281
0.00717101
0.00745328
0.00771717
0.00795316
0.00815531
0.00832122
0.00845161
0.00854942
0.00861899
0.00866513
0.00869246
0.00870496
0.0087056
0.00869626
0.00867761
0.00864912
0.00860904
0.00855439
0.00848097
0.00838341
0.00825523
0.008089
0.00787666
0.00760986
0.00728053
0.00688152
0.00640729
0.00585455
0.00522275
0.00451416
0.0037332
0.00288469
0.00197056
0.000991905
0.000115758
0.00651631
0.0066596
0.00684794
0.00706773
0.0073053
0.00754738
0.00778194
0.00799901
0.00819138
0.00835478
0.0084878
0.00859136
0.00866813
0.00872172
0.00875607
0.00877492
0.00878138
0.00877775
0.0087653
0.00874427
0.00871376
0.00867176
0.00861507
0.00853935
0.00843908
0.00830768
0.0081377
0.00792102
0.00764935
0.00731471
0.00691008
0.00643011
0.00587176
0.00523474
0.00452156
0.00373687
0.00288563
0.0019699
0.000990876
0.000115817
0.00703904
0.00715537
0.00731056
0.00749187
0.00768685
0.00788401
0.00807336
0.00824704
0.00839957
0.00852793
0.00863134
0.00871081
0.00876863
0.00880778
0.00883144
0.00884253
0.00884347
0.00883589
0.00882058
0.00879735
0.00876501
0.00872129
0.00866282
0.00858509
0.00848248
0.00834835
0.00817518
0.00795488
0.00767916
0.00734013
0.00693091
0.00644631
0.00588351
0.0052424
0.00452573
0.0037383
0.00288519
0.00196854
0.000989629
0.000115868
0.0075117
0.00760156
0.00772408
0.00786796
0.0080224
0.00817771
0.00832579
0.00846045
0.00857758
0.00867505
0.00875247
0.00881083
0.00885204
0.00887851
0.00889274
0.00889698
0.008893
0.00888192
0.00886406
0.0088389
0.00880494
0.00875972
0.0086997
0.00862025
0.00851566
0.00837922
0.00820339
0.00798006
0.00770099
0.00735838
0.00694545
0.00645717
0.00589086
0.00524662
0.00452733
0.00373796
0.00288367
0.00196663
0.000988213
0.00011591
0.00792566
0.00799087
0.00808295
0.0081923
0.00830985
0.00842766
0.00853926
0.00863985
0.00872635
0.00879725
0.00885241
0.00889272
0.00891974
0.00893537
0.00894153
0.00893989
0.0089317
0.00891761
0.00889757
0.00887074
0.00883542
0.00878892
0.00872759
0.00864669
0.00854043
0.00840206
0.008224
0.00799817
0.00771637
0.00737085
0.00695494
0.00646374
0.0058947
0.00524809
0.00452692
0.00373624
0.00288129
0.00196429
0.000986666
0.000115946
0.00827753
0.00832073
0.00838569
0.00846449
0.00854974
0.00863508
0.00871541
0.00878705
0.00884771
0.00889632
0.00893287
0.00895812
0.00897332
0.00897993
0.00897938
0.00897286
0.00896117
0.00894459
0.00892275
0.00889456
0.00885809
0.00881055
0.00874813
0.00866602
0.00855837
0.00841839
0.0082385
0.00801061
0.00772657
0.00737869
0.0069604
0.0064669
0.00589578
0.00524741
0.00452491
0.00373343
0.00287824
0.00196161
0.000985017
0.000115975
0.00856828
0.00859246
0.00863411
0.00868683
0.00874473
0.00880279
0.00885706
0.00890474
0.00894412
0.00897448
0.00899585
0.00900886
0.00901448
0.00901379
0.00900782
0.00899738
0.0089829
0.00896434
0.00894107
0.00891179
0.00887443
0.00882604
0.00876274
0.00867963
0.00857083
0.00842952
0.0082481
0.00801852
0.00773265
0.00738287
0.00696269
0.00646739
0.00589469
0.00524504
0.00452166
0.00372976
0.00287467
0.00195866
0.000983288
0.000115998
0.00880202
0.00881022
0.00883243
0.00886355
0.00889895
0.00893471
0.00896783
0.00899617
0.00901849
0.00903426
0.00904356
0.00904687
0.00904493
0.00903851
0.00902832
0.00901484
0.00899822
0.00897815
0.00895381
0.00892372
0.00888568
0.00883663
0.00877262
0.0086887
0.00857895
0.00843653
0.00825385
0.00802287
0.0077355
0.00738418
0.00696249
0.00646579
0.00589189
0.00524134
0.00451743
0.00372542
0.00287068
0.00195551
0.000981496
0.000116015
0.00898485
0.00897991
0.00898632
0.00900002
0.00901739
0.00903541
0.00905178
0.0090649
0.00907386
0.00907827
0.00907822
0.00907408
0.00906635
0.00905559
0.00904223
0.00902651
0.00900832
0.00898718
0.00896209
0.00893143
0.00889289
0.00884335
0.00877878
0.00869421
0.00858368
0.00844034
0.0082566
0.00802446
0.00773585
0.00738327
0.00696035
0.00646257
0.00588777
0.00523661
0.00451243
0.00372055
0.00286636
0.00195218
0.000979654
0.000116027
0.0091238
0.00910829
0.00910214
0.00910212
0.00910539
0.00910963
0.00911307
0.00911452
0.00911329
0.00910911
0.00910204
0.00909233
0.00908034
0.00906642
0.0090508
0.00903351
0.00901426
0.00899242
0.00896684
0.00893582
0.00889695
0.00884705
0.00878206
0.00869696
0.00858577
0.00844166
0.00825704
0.0080239
0.00773426
0.00738063
0.00695673
0.00645808
0.00588263
0.00523107
0.00450683
0.00371525
0.00286176
0.0019487
0.000977771
0.000116032
0.0092261
0.00920223
0.00918631
0.00917572
0.00916823
0.00916202
0.00915574
0.00914847
0.0091397
0.00912921
0.00911703
0.00910334
0.00908835
0.00907225
0.00905512
0.00903682
0.00901693
0.00899469
0.00896886
0.00893764
0.00889858
0.00884844
0.00878312
0.00869759
0.00858586
0.00844108
0.00825569
0.00802171
0.00773118
0.00737667
0.00695195
0.00645262
0.00587667
0.00522489
0.00450074
0.00370961
0.00285694
0.00194512
0.000975856
0.000116032
0.0092986
0.00926824
0.00924486
0.00922632
0.0092108
0.00919688
0.00918348
0.00916989
0.00915571
0.00914076
0.00912503
0.00910863
0.00909165
0.00907417
0.00905613
0.00903727
0.00901708
0.00899469
0.00896879
0.00893752
0.00889837
0.00884808
0.00878252
0.00869663
0.00858443
0.00843907
0.00825301
0.00801829
0.00772697
0.0073717
0.00694629
0.0064464
0.0058701
0.00521822
0.00449427
0.00370369
0.00285195
0.00194143
0.000973917
0.000116027
0.00934749
0.00931218
0.00928323
0.00925883
0.00923748
0.00921801
0.00919956
0.00918156
0.00916366
0.00914571
0.00912765
0.00910953
0.00909136
0.00907311
0.00905463
0.00903558
0.00901535
0.008993
0.00896717
0.00893595
0.0088968
0.00884642
0.00878066
0.00869448
0.00858187
0.00843599
0.00824932
0.00801392
0.00772191
0.00736597
0.00693995
0.0064396
0.00586304
0.00521115
0.00448749
0.00369755
0.0028468
0.00193767
0.000971959
0.000116015
0.00937812
0.00933911
0.00930609
0.00927748
0.00925201
0.00922869
0.0092068
0.00918585
0.00916554
0.00914569
0.00912624
0.00910716
0.0090884
0.00906986
0.0090513
0.00903231
0.00901223
0.00899007
0.00896441
0.00893332
0.00889422
0.0088438
0.0087779
0.00869145
0.00857847
0.00843212
0.00824488
0.00800887
0.00771622
0.00735965
0.0069331
0.00643235
0.00585559
0.00520376
0.00448047
0.00369122
0.00284154
0.00193385
0.00096999
0.000115998
0.00939499
0.00935327
0.00931734
0.00928579
0.00925751
0.00923163
0.00920752
0.00918473
0.00916297
0.00914207
0.00912192
0.00910244
0.00908354
0.00906504
0.00904666
0.00902793
0.00900815
0.00898627
0.00896085
0.00892993
0.00889093
0.0088405
0.00877448
0.00868779
0.00857447
0.00842767
0.0082399
0.0080033
0.00771004
0.0073529
0.00692586
0.00642477
0.00584786
0.00519613
0.00447325
0.00368475
0.00283617
0.00192997
0.000968014
0.000115976
0.00940173
0.00935808
0.00932013
0.00928662
0.00925651
0.00922903
0.00920359
0.00917977
0.00915728
0.00913593
0.00911558
0.00909611
0.00907738
0.00905917
0.00904115
0.00902281
0.00900341
0.00898188
0.00895675
0.00892604
0.00888715
0.00883672
0.0087706
0.00868369
0.00857003
0.0084228
0.00823452
0.00799736
0.00770352
0.00734583
0.00691833
0.00641692
0.00583989
0.00518832
0.00446588
0.00367817
0.00283074
0.00192607
0.00096604
0.000115948
0.00940126
0.00935626
0.00931698
0.0092822
0.009251
0.00922262
0.0091965
0.00917223
0.00914951
0.00912814
0.00910794
0.00908876
0.00907041
0.00905265
0.0090351
0.00901723
0.00899826
0.00897712
0.0089523
0.00892182
0.00888305
0.00883264
0.00876641
0.0086793
0.00856531
0.00841766
0.00822887
0.00799115
0.00769675
0.00733853
0.00691059
0.00640888
0.00583176
0.00518036
0.0044584
0.0036715
0.00282524
0.00192214
0.000964071
0.000115914
0.00939581
0.00934992
0.00930979
0.00927428
0.00924249
0.0092137
0.00918736
0.00916304
0.00914045
0.00911934
0.00909953
0.00908081
0.00906299
0.00904577
0.00902876
0.0090114
0.0089929
0.00897216
0.00894766
0.0089174
0.00887876
0.00882837
0.00876204
0.00867471
0.0085604
0.00841232
0.00822304
0.00798477
0.00768981
0.00733107
0.00690269
0.0064007
0.00582351
0.0051723
0.00445083
0.00366477
0.00281972
0.0019182
0.000962114
0.000115876
0.00938709
0.00934062
0.0093
0.00926414
0.00923213
0.00920327
0.00917701
0.00915293
0.00913069
0.00911003
0.00909074
0.0090726
0.00905537
0.00903875
0.00902231
0.00900549
0.00898746
0.00896712
0.00894294
0.00891291
0.00887438
0.00882399
0.00875756
0.00867001
0.00855538
0.00840688
0.0082171
0.00797829
0.00768277
0.00732351
0.00689471
0.00639244
0.00581519
0.00516417
0.00444322
0.003658
0.00281417
0.00191426
0.000960173
0.000115833
0.00937633
0.00932953
0.00928868
0.00925271
0.00922073
0.00919204
0.00916607
0.00914239
0.00912064
0.00910054
0.00908186
0.00906435
0.00904776
0.00903175
0.0090159
0.0089996
0.00898204
0.00896209
0.00893822
0.0089084
0.00886998
0.00881959
0.00875305
0.00866528
0.00855031
0.00840139
0.00821111
0.00797175
0.00767567
0.0073159
0.00688667
0.00638413
0.00580683
0.00515601
0.00443558
0.00365123
0.00280862
0.00191034
0.000958251
0.000115785
)
;

boundaryField
{
    leftWall
    {
        type            nutkWallFunction;
        Cmu             0.09;
        kappa           0.41;
        E               9.8;
        value           nonuniform List<scalar> 0();
    }
    rightWall
    {
        type            nutkWallFunction;
        Cmu             0.09;
        kappa           0.41;
        E               9.8;
        value           nonuniform List<scalar> 
43
(
7.07816e-07
1.39698e-06
2.90313e-06
4.02408e-06
4.83026e-06
5.42379e-06
5.87044e-06
6.21192e-06
6.47587e-06
6.6815e-06
6.84409e-06
6.9728e-06
7.0746e-06
7.15514e-06
7.2189e-06
7.26943e-06
7.30959e-06
7.34166e-06
7.36744e-06
7.38835e-06
7.4055e-06
7.41973e-06
7.43167e-06
7.44181e-06
7.45048e-06
7.45793e-06
7.4643e-06
7.46972e-06
7.47424e-06
7.4779e-06
7.48071e-06
7.4827e-06
7.48385e-06
7.48416e-06
7.48364e-06
7.48228e-06
7.48009e-06
7.47709e-06
7.47329e-06
7.46872e-06
7.46342e-06
7.45742e-06
7.45068e-06
)
;
    }
    lowerWall
    {
        type            nutkWallFunction;
        Cmu             0.09;
        kappa           0.41;
        E               9.8;
        value           nonuniform List<scalar> 
66
(
1.22424e-05
1.11108e-05
1.11108e-05
1.912e-05
2.14074e-05
2.34115e-05
2.39186e-05
2.2725e-05
2.06459e-05
1.87037e-05
1.73349e-05
1.71419e-05
1.02857e-05
7.06887e-06
9.01916e-06
1.09667e-05
0
1.49053e-06
2.71062e-06
3.75985e-06
4.62172e-06
5.46345e-06
6.03157e-06
6.38798e-06
9.39166e-06
1.59919e-05
0
0
7.67366e-08
4.07364e-07
9.67311e-07
1.30878e-06
1.4987e-06
1.58983e-06
1.61706e-06
1.60351e-06
1.56446e-06
1.50983e-06
1.44855e-06
1.40127e-06
1.35942e-06
1.31829e-06
1.27785e-06
1.23843e-06
1.20017e-06
1.16298e-06
1.1267e-06
1.0912e-06
1.05629e-06
1.02172e-06
9.87021e-07
9.51447e-07
9.13812e-07
8.72354e-07
8.24515e-07
7.6666e-07
6.93674e-07
5.98394e-07
4.70751e-07
2.96412e-07
5.69311e-08
4.85614e-08
3.9863e-08
0
0
0
)
;
    }
    atmosphere
    {
        type            calculated;
        value           nonuniform List<scalar> 0();
    }
    defaultFaces
    {
        type            empty;
    }
    procBoundary1to0
    {
        type            processor;
        value           nonuniform List<scalar> 
44
(
0.000108424
0.000664461
0.00126495
0.00172863
0.00198577
0.00203242
0.00194598
0.00182347
0.00175235
0.00178883
0.00192093
0.00209271
0.0022589
0.00242788
0.00263174
0.00289722
0.00323777
0.00365425
0.00413696
0.00466847
0.00473808
0.00473808
0.00533629
0.00593151
0.00650569
0.0070443
0.00753666
0.00797603
0.00835924
0.00868621
0.00895929
0.00918252
0.009361
0.00950039
0.00960642
0.00968462
0.0097401
0.00977743
0.0098006
0.00981301
0.00981748
0.00981631
0.00981108
0.00980302
)
;
    }
    procBoundary1to3
    {
        type            processor;
        value           nonuniform List<scalar> 
45
(
0.0096925
0.00960731
0.00953481
0.00947136
0.00941584
0.00936441
0.00931746
0.00927657
0.00924067
0.00920889
0.00918051
0.00915496
0.00913178
0.0091106
0.00909112
0.00907309
0.00905623
0.00904028
0.00902489
0.00900961
0.00899383
0.00897673
0.00895715
0.00893357
0.00890394
0.00886562
0.00881522
0.00874856
0.00866055
0.00854525
0.0083959
0.00820511
0.0079652
0.00766857
0.00730827
0.00687863
0.00637582
0.00579846
0.00514786
0.00442794
0.00364446
0.00280309
0.00190643
0.000956351
0.000115732
)
;
    }
}


// ************************************************************************* //
