/*--------------------------------*- C++ -*----------------------------------*\
  =========                 |
  \\      /  F ield         | OpenFOAM: The Open Source CFD Toolbox
   \\    /   O peration     | Website:  https://openfoam.org
    \\  /    A nd           | Version:  9
     \\/     M anipulation  |
\*---------------------------------------------------------------------------*/
FoamFile
{
    format      ascii;
    class       volScalarField;
    location    "0.15";
    object      p;
}
// * * * * * * * * * * * * * * * * * * * * * * * * * * * * * * * * * * * * * //

dimensions      [1 -1 -2 0 0 0 0];

internalField   nonuniform List<scalar> 
1915
(
53.2004
58.5729
24.3306
38.332
9.85296
18.5087
4.83517
7.9674
3.10342
4.17862
2.33915
3.03367
2.04384
2.50973
1.89628
2.01728
1.70833
1.50005
1.46144
0.937441
0.535477
0.541103
0.54918
0.557275
0.564424
0.569338
0.571871
0.572403
0.571397
0.569247
0.566279
0.562744
0.558838
0.554671
0.550296
0.545796
0.541248
0.536699
0.532183
0.527738
0.523395
0.519187
0.515139
0.511276
0.50762
0.50419
0.501008
0.498098
0.495489
0.493209
0.491283
0.489728
0.488558
0.487777
0.487377
0.487339
0.487505
0.487968
0.488805
0.489851
0.485805
0.49142
0.498136
0.505822
0.512858
0.518061
0.521183
0.52244
0.522162
0.520679
0.518284
0.515218
0.511666
0.507769
0.503628
0.499328
0.494935
0.490501
0.486075
0.481698
0.47741
0.473245
0.469232
0.465398
0.461763
0.458347
0.455174
0.45227
0.449666
0.447391
0.445469
0.443914
0.442735
0.441935
0.441516
0.441441
0.441601
0.441863
0.442251
0.442997
0.434495
0.440773
0.447455
0.455101
0.462105
0.467525
0.471119
0.472985
0.473343
0.472454
0.470578
0.467945
0.464741
0.461117
0.457187
0.453047
0.448772
0.444427
0.440065
0.435736
0.431482
0.427342
0.423347
0.419524
0.415894
0.412479
0.409301
0.406389
0.403775
0.401488
0.399548
0.397965
0.396742
0.395871
0.395338
0.395091
0.395033
0.39506
0.395395
0.396239
0.380818
0.388218
0.396444
0.405346
0.412987
0.418771
0.422685
0.424889
0.425595
0.425036
0.423452
0.421065
0.418059
0.414586
0.410773
0.406721
0.40251
0.398209
0.393875
0.389563
0.385317
0.381178
0.377178
0.373345
0.369701
0.366265
0.363064
0.360127
0.357486
0.355166
0.353186
0.351551
0.350259
0.349296
0.34864
0.348245
0.348051
0.348045
0.348481
0.34952
0.325281
0.33318
0.344738
0.356246
0.365244
0.371639
0.375817
0.378146
0.378936
0.37845
0.376931
0.374596
0.371628
0.368179
0.36438
0.360333
0.356121
0.351814
0.34747
0.343144
0.338881
0.33472
0.330695
0.326832
0.323155
0.319686
0.316449
0.313475
0.310794
0.308429
0.306397
0.3047
0.303334
0.302285
0.301534
0.301052
0.30081
0.300859
0.301483
0.302721
0.265444
0.275255
0.292561
0.307967
0.318878
0.326038
0.330393
0.332641
0.333274
0.332629
0.330969
0.32851
0.325433
0.321891
0.31801
0.313895
0.309624
0.305265
0.300877
0.29651
0.292207
0.288005
0.283936
0.280029
0.276308
0.272796
0.269516
0.266498
0.26377
0.261354
0.259265
0.257506
0.256072
0.254953
0.254138
0.253612
0.253376
0.25352
0.254346
0.255762
0.201716
0.214716
0.240626
0.261167
0.274285
0.282166
0.28649
0.288387
0.288591
0.287543
0.285533
0.282779
0.279454
0.275706
0.271656
0.267401
0.263017
0.258566
0.254102
0.249669
0.245303
0.24104
0.236913
0.232951
0.22918
0.225619
0.222293
0.219227
0.216448
0.21398
0.211835
0.210018
0.208527
0.207357
0.206503
0.205967
0.20577
0.206028
0.207037
0.208595
0.135934
0.155083
0.190863
0.216855
0.231983
0.240279
0.244225
0.245423
0.244886
0.243169
0.240594
0.237372
0.233664
0.229602
0.225298
0.220838
0.21629
0.211709
0.207138
0.202611
0.19816
0.193819
0.189623
0.185601
0.181776
0.178166
0.17479
0.171674
0.168845
0.166325
0.164128
0.162263
0.160729
0.159525
0.158656
0.158134
0.157996
0.158371
0.159534
0.161194
0.0709662
0.100747
0.144783
0.175433
0.192195
0.200499
0.203634
0.203737
0.202122
0.199463
0.196105
0.192246
0.188023
0.183548
0.178912
0.174188
0.16943
0.164681
0.159971
0.155323
0.150767
0.146336
0.142065
0.13798
0.1341
0.13044
0.127015
0.123851
0.120972
0.118404
0.116164
0.11426
0.112696
0.111477
0.110611
0.110121
0.110051
0.110537
0.111822
0.113548
-0.01594
0.0419406
0.099336
0.136262
0.154878
0.162789
0.164639
0.163234
0.160206
0.15634
0.151993
0.14734
0.142483
0.137504
0.132468
0.127427
0.122419
0.117466
0.112585
0.107792
0.103115
0.0985852
0.0942355
0.0900881
0.0861551
0.0824456
0.0789738
0.0757624
0.0728392
0.0702304
0.0679554
0.066025
0.0644456
0.0632243
0.062376
0.061928
0.0619303
0.0625148
0.0638913
0.0656554
1.15237
0.284084
0.904228
0.318688
0.785333
0.513009
0.702455
0.554863
0.610697
0.50115
0.514958
0.430174
0.419763
0.355475
0.323843
0.274194
0.226903
0.18786
0.129364
0.0985187
0.00686364
-0.0866206
-0.181472
-0.277497
-0.374484
-0.472198
-0.570439
-0.669009
-0.767715
-0.866378
-0.96484
-1.06296
-1.16061
-1.25774
-1.35429
-1.45025
-1.54557
-1.64022
-1.73408
-1.82704
-1.91899
-2.00988
-2.09971
-1.62669
-1.11967
-0.825806
-0.423617
-0.978526
-1.05743
-0.797256
-0.454516
-0.284364
-0.593508
-0.495844
-0.302872
0.112406
-0.155627
-0.186305
-0.125914
0.25594
0.0709547
0.000538363
-0.00751473
0.283983
0.15691
0.0839668
0.0489291
0.260314
0.169392
0.103407
0.0593441
0.207203
0.139746
0.0831451
0.0385906
0.137859
0.0860285
0.0384338
-0.00294711
0.0598037
0.018694
-0.0213156
-0.0583795
-0.0237007
-0.0569272
-0.0906595
-0.123283
-0.110907
-0.138041
-0.166471
-0.194856
-0.200833
-0.223002
-0.246846
-0.271304
-0.292802
-0.310757
-0.330588
-0.35143
-0.386304
-0.400616
-0.416877
-0.434382
-0.480966
-0.492064
-0.505107
-0.519518
-0.576468
-0.584688
-0.594802
-0.60634
-0.672538
-0.678146
-0.685578
-0.694448
-0.768937
-0.772157
-0.777123
-0.783515
-0.865461
-0.86648
-0.869173
-0.873265
-0.961929
-0.960912
-0.961505
-0.963466
-1.05819
-1.05529
-1.05394
-1.05393
-1.15412
-1.14948
-1.14634
-1.14451
-1.24964
-1.24339
-1.23862
-1.23512
-1.34471
-1.33699
-1.33071
-1.32569
-1.4393
-1.43023
-1.42257
-1.41615
-1.53337
-1.52306
-1.51414
-1.50645
-1.62687
-1.61543
-1.60536
-1.5965
-1.71971
-1.70725
-1.69614
-1.68622
-1.81178
-1.79842
-1.7864
-1.77554
-1.90298
-1.88888
-1.87607
-1.86439
-1.99327
-1.97856
-1.96511
-1.95273
-2.08258
-2.06736
-2.05337
-2.04039
-0.158322
-0.0226527
0.0566716
0.100726
0.120275
0.126826
0.126726
0.123363
0.118596
0.113279
0.107758
0.102167
0.0965701
0.0910077
0.0855124
0.0801085
0.0748092
0.069618
0.0645374
0.0595789
0.0547673
0.0501341
0.0457061
0.0414977
0.0375133
0.0337564
0.0302391
0.0269847
0.0240227
0.0213814
0.0190818
0.0171364
0.0155532
0.0143422
0.0135215
0.0131216
0.0131936
0.0138638
0.0153072
0.0170864
-0.191496
-0.0444086
0.033513
0.0732104
0.0890778
0.092373
0.0894391
0.0836558
0.0768639
0.0698946
0.0630489
0.0564092
0.0499873
0.0437777
0.0377737
0.0319664
0.0263412
0.020881
0.0155769
0.0104367
0.00548382
0.000745768
-0.00375882
-0.00802582
-0.0120597
-0.0158619
-0.0194212
-0.0227133
-0.0257063
-0.0283704
-0.0306837
-0.0326328
-0.0342089
-0.0354001
-0.0361862
-0.0365359
-0.0363991
-0.0356574
-0.0341686
-0.0323903
-0.130274
-0.0270617
0.0267292
0.0524924
0.0605695
0.0588824
0.0523705
0.0438371
0.0348505
0.026119
0.0178673
0.0101163
0.00282055
-0.00407517
-0.0106196
-0.0168579
-0.0228338
-0.0285839
-0.0341262
-0.0394553
-0.0445502
-0.0493901
-0.0539674
-0.0582899
-0.0623704
-0.0662143
-0.0698103
-0.0731322
-0.0761463
-0.078822
-0.0811373
-0.0830792
-0.0846383
-0.0858019
-0.0865492
-0.0868488
-0.0866537
-0.0858546
-0.0843378
-0.0825722
-0.0518898
-0.0014167
0.0241975
0.0337169
0.0325314
0.0251387
0.0147439
0.00335883
-0.0078465
-0.0183453
-0.0280065
-0.0368763
-0.0450569
-0.0526505
-0.0597475
-0.0664294
-0.0727686
-0.0788185
-0.0846035
-0.0901203
-0.0953521
-0.100288
-0.104933
-0.109307
-0.113431
-0.117311
-0.120937
-0.124278
-0.127302
-0.129977
-0.132283
-0.134207
-0.135741
-0.136871
-0.137577
-0.137828
-0.137581
-0.136737
-0.135207
-0.133462
0.00405352
0.0145195
0.0170304
0.0124462
0.00266806
-0.0101679
-0.0242765
-0.0383688
-0.0516599
-0.0638169
-0.0748098
-0.0847496
-0.0937849
-0.102058
-0.109696
-0.116817
-0.123518
-0.129864
-0.135885
-0.14158
-0.146939
-0.151962
-0.156669
-0.16109
-0.165252
-0.169162
-0.172807
-0.176157
-0.179178
-0.181841
-0.184125
-0.186022
-0.187523
-0.188614
-0.189277
-0.189482
-0.189191
-0.188313
-0.18678
-0.185062
0.0290416
0.0147382
0.00108101
-0.014089
-0.030756
-0.0481785
-0.0654748
-0.0819032
-0.0969967
-0.110601
-0.122777
-0.133686
-0.143505
-0.152408
-0.160554
-0.168091
-0.175135
-0.181761
-0.188001
-0.193857
-0.199328
-0.204429
-0.20919
-0.213652
-0.217844
-0.221775
-0.225428
-0.228774
-0.231779
-0.234416
-0.236669
-0.238529
-0.23999
-0.24104
-0.241659
-0.241821
-0.241492
-0.240589
-0.239061
-0.237374
0.0256458
-0.00164762
-0.0251288
-0.0473441
-0.0689154
-0.0897406
-0.109455
-0.127678
-0.144186
-0.158959
-0.17212
-0.183852
-0.194349
-0.203804
-0.212403
-0.220314
-0.227669
-0.234547
-0.240978
-0.246972
-0.252538
-0.257702
-0.262509
-0.267003
-0.271217
-0.275157
-0.278805
-0.282133
-0.285107
-0.287707
-0.289917
-0.291734
-0.29315
-0.294154
-0.29473
-0.294852
-0.294491
-0.29357
-0.292055
-0.290401
0.000238648
-0.0328167
-0.0614123
-0.0876661
-0.112237
-0.135228
-0.156523
-0.175958
-0.193462
-0.209096
-0.22301
-0.235389
-0.24643
-0.256337
-0.265316
-0.273547
-0.281167
-0.288255
-0.294844
-0.300947
-0.306585
-0.311799
-0.316639
-0.321155
-0.325379
-0.329314
-0.332943
-0.336237
-0.339168
-0.341718
-0.343877
-0.345642
-0.347008
-0.347966
-0.348497
-0.348583
-0.348193
-0.347262
-0.345764
-0.344145
-0.0412276
-0.0758327
-0.106442
-0.13453
-0.160563
-0.184652
-0.206772
-0.226872
-0.244966
-0.26115
-0.275571
-0.288402
-0.299836
-0.310082
-0.319355
-0.327839
-0.335668
-0.342918
-0.349622
-0.355802
-0.361489
-0.366733
-0.371592
-0.376117
-0.380336
-0.384251
-0.387844
-0.39109
-0.393964
-0.396454
-0.398553
-0.40026
-0.401572
-0.40248
-0.402969
-0.403019
-0.402606
-0.401669
-0.400192
-0.398609
-0.0943607
-0.128158
-0.15881
-0.187196
-0.213532
-0.237859
-0.260167
-0.280452
-0.298763
-0.315195
-0.329877
-0.34296
-0.354629
-0.365095
-0.374569
-0.383231
-0.391206
-0.398562
-0.405336
-0.411556
-0.417264
-0.422519
-0.427379
-0.431896
-0.436093
-0.439971
-0.443512
-0.446694
-0.4495
-0.451919
-0.45395
-0.455593
-0.456848
-0.457705
-0.45815
-0.458167
-0.457734
-0.456796
-0.455343
-0.453796
-0.156048
-0.187803
-0.217289
-0.244926
-0.270715
-0.294612
-0.316591
-0.336657
-0.354853
-0.371253
-0.385956
-0.399097
-0.410848
-0.421414
-0.430994
-0.439755
-0.447806
-0.45521
-0.462004
-0.468226
-0.473926
-0.479167
-0.484009
-0.488498
-0.492654
-0.496477
-0.499949
-0.503054
-0.505778
-0.508117
-0.510073
-0.511648
-0.512841
-0.513645
-0.514047
-0.514032
-0.513582
-0.512645
-0.511218
-0.509708
-0.224121
-0.253229
-0.28083
-0.307025
-0.331663
-0.354633
-0.37588
-0.395391
-0.413181
-0.429293
-0.443801
-0.45682
-0.468512
-0.479063
-0.488655
-0.497432
-0.505487
-0.512876
-0.519641
-0.525825
-0.531486
-0.536687
-0.541488
-0.545927
-0.550023
-0.55377
-0.557157
-0.560171
-0.562803
-0.565054
-0.566928
-0.56843
-0.569558
-0.570307
-0.570665
-0.57062
-0.570155
-0.569223
-0.567823
-0.56635
-0.297065
-0.323258
-0.348557
-0.372867
-0.395945
-0.417632
-0.437839
-0.456518
-0.473652
-0.489255
-0.503377
-0.516118
-0.527622
-0.538053
-0.547565
-0.556275
-0.564261
-0.571573
-0.578257
-0.584363
-0.589951
-0.595086
-0.59982
-0.604187
-0.608199
-0.611853
-0.615139
-0.618048
-0.620578
-0.622732
-0.624519
-0.625943
-0.627004
-0.627696
-0.62801
-0.627934
-0.627456
-0.62653
-0.62516
-0.623724
-0.373793
-0.396979
-0.419753
-0.441914
-0.463168
-0.483321
-0.502251
-0.519876
-0.536147
-0.551055
-0.564633
-0.576964
-0.58817
-0.598383
-0.607724
-0.616286
-0.62413
-0.631305
-0.637858
-0.643845
-0.649329
-0.654367
-0.659008
-0.663278
-0.667185
-0.670726
-0.673895
-0.676688
-0.679106
-0.681158
-0.682851
-0.684193
-0.685182
-0.685816
-0.686085
-0.68598
-0.68549
-0.684572
-0.683232
-0.681833
-0.453496
-0.47368
-0.493836
-0.513704
-0.532971
-0.551418
-0.568894
-0.585289
-0.600534
-0.614601
-0.627511
-0.639325
-0.650135
-0.660039
-0.669124
-0.677457
-0.68509
-0.692069
-0.698445
-0.704275
-0.70962
-0.714533
-0.719052
-0.7232
-0.72698
-0.730391
-0.733429
-0.736094
-0.738392
-0.740334
-0.741928
-0.743183
-0.744099
-0.744672
-0.744895
-0.744761
-0.74426
-0.743352
-0.742041
-0.74068
-0.535549
-0.552802
-0.570326
-0.58784
-0.605026
-0.621651
-0.637545
-0.652583
-0.666681
-0.679803
-0.69195
-0.703159
-0.713487
-0.722997
-0.731743
-0.739773
-0.747131
-0.75386
-0.760015
-0.765651
-0.770824
-0.775581
-0.779952
-0.783953
-0.787585
-0.790849
-0.793742
-0.796269
-0.798439
-0.800263
-0.801754
-0.802918
-0.803756
-0.804267
-0.804443
-0.80428
-0.803769
-0.802871
-0.801592
-0.800268
-0.619461
-0.63389
-0.648821
-0.663973
-0.679032
-0.693765
-0.707996
-0.721593
-0.734468
-0.746572
-0.757885
-0.768416
-0.778185
-0.787221
-0.795553
-0.803212
-0.810236
-0.816668
-0.822561
-0.827968
-0.832939
-0.83751
-0.841705
-0.845535
-0.848999
-0.852099
-0.854835
-0.857214
-0.859247
-0.860949
-0.862331
-0.863399
-0.864158
-0.864603
-0.864732
-0.864541
-0.86402
-0.863132
-0.861886
-0.8606
-0.704837
-0.716567
-0.728976
-0.741791
-0.754716
-0.76753
-0.780059
-0.792176
-0.803785
-0.814823
-0.825249
-0.835037
-0.844177
-0.852667
-0.860516
-0.867745
-0.874385
-0.880479
-0.886075
-0.891221
-0.895958
-0.900315
-0.904308
-0.907944
-0.911221
-0.914142
-0.916708
-0.91893
-0.920821
-0.922394
-0.923661
-0.92463
-0.925305
-0.925685
-0.925765
-0.925544
-0.925014
-0.924139
-0.922925
-0.921678
-0.791345
-0.800511
-0.810487
-0.821019
-0.831839
-0.842745
-0.853575
-0.864203
-0.87453
-0.884473
-0.893966
-0.902956
-0.911403
-0.919284
-0.926593
-0.933341
-0.939556
-0.945276
-0.950543
-0.955399
-0.959874
-0.96399
-0.967757
-0.971177
-0.97425
-0.976977
-0.979363
-0.98142
-0.98316
-0.984598
-0.985746
-0.986612
-0.987201
-0.987512
-0.987543
-0.987293
-0.986754
-0.985892
-0.984712
-0.983505
-0.878703
-0.885445
-0.893094
-0.901424
-0.910201
-0.919244
-0.928406
-0.937563
-0.946604
-0.955431
-0.963954
-0.972096
-0.979797
-0.987017
-0.993739
-0.999968
-1.00572
-1.01104
-1.01595
-1.02049
-1.02468
-1.02853
-1.03205
-1.03523
-1.03808
-1.0406
-1.0428
-1.04468
-1.04626
-1.04756
-1.04859
-1.04935
-1.04985
-1.05009
-1.05007
-1.04979
-1.04924
-1.04839
-1.04725
-1.04608
-0.966673
-0.971138
-0.976585
-0.982819
-0.989639
-0.996889
-1.00443
-1.01214
-1.01991
-1.0276
-1.03512
-1.04238
-1.04929
-1.05581
-1.06191
-1.06759
-1.07286
-1.07775
-1.08228
-1.08648
-1.09036
-1.09392
-1.09717
-1.1001
-1.10272
-1.10502
-1.10702
-1.10872
-1.11013
-1.11129
-1.11218
-1.11283
-1.11324
-1.11341
-1.11334
-1.11303
-1.11248
-1.11164
-1.11053
-1.10941
-1.05507
-1.05741
-1.06079
-1.06505
-1.07002
-1.07556
-1.08154
-1.08784
-1.09433
-1.10088
-1.10738
-1.11372
-1.11981
-1.1256
-1.13106
-1.13617
-1.14094
-1.14539
-1.14952
-1.15336
-1.1569
-1.16015
-1.16312
-1.16578
-1.16815
-1.17022
-1.17201
-1.17352
-1.17477
-1.17577
-1.17653
-1.17707
-1.17738
-1.17748
-1.17736
-1.17702
-1.17646
-1.17564
-1.17457
-1.17349
-1.14374
-1.14412
-1.14559
-1.14801
-1.15123
-1.15514
-1.15962
-1.16453
-1.16976
-1.17517
-1.18063
-1.18604
-1.1913
-1.19635
-1.20115
-1.20568
-1.20994
-1.21392
-1.21764
-1.2211
-1.22429
-1.22722
-1.22988
-1.23227
-1.23438
-1.23621
-1.23778
-1.23909
-1.24016
-1.241
-1.24163
-1.24205
-1.24227
-1.2423
-1.24213
-1.24176
-1.2412
-1.2404
-1.23936
-1.23832
-1.2326
-1.23118
-1.23087
-1.23157
-1.23315
-1.23551
-1.23854
-1.24211
-1.2461
-1.25037
-1.25479
-1.25927
-1.2637
-1.268
-1.27214
-1.27609
-1.27982
-1.28333
-1.28662
-1.28968
-1.29251
-1.29511
-1.29746
-1.29955
-1.30139
-1.30298
-1.30432
-1.30543
-1.30631
-1.30699
-1.30748
-1.30778
-1.30791
-1.30786
-1.30764
-1.30725
-1.30668
-1.3059
-1.3049
-1.3039
-1.32157
-1.31848
-1.31654
-1.31563
-1.31567
-1.31656
-1.31819
-1.32045
-1.32322
-1.32637
-1.32978
-1.33334
-1.33694
-1.34051
-1.34399
-1.34735
-1.35055
-1.35358
-1.35643
-1.35909
-1.36155
-1.3638
-1.36583
-1.36762
-1.36919
-1.37052
-1.37163
-1.37252
-1.37322
-1.37373
-1.37407
-1.37425
-1.37428
-1.37417
-1.3739
-1.37348
-1.37291
-1.37214
-1.37119
-1.37023
-1.41056
-1.40595
-1.40249
-1.40009
-1.39867
-1.39815
-1.39845
-1.39945
-1.40104
-1.40311
-1.40553
-1.40819
-1.41098
-1.41383
-1.41666
-1.41943
-1.4221
-1.42465
-1.42706
-1.42931
-1.43139
-1.43329
-1.43499
-1.43648
-1.43776
-1.43883
-1.43969
-1.44037
-1.44087
-1.44121
-1.44141
-1.44147
-1.4414
-1.44121
-1.4409
-1.44046
-1.43989
-1.43914
-1.43822
-1.43732
-1.49952
-1.4935
-1.48863
-1.48483
-1.48204
-1.48019
-1.47921
-1.47901
-1.47948
-1.48051
-1.48198
-1.48377
-1.48578
-1.48791
-1.4901
-1.49229
-1.49443
-1.4965
-1.49846
-1.50031
-1.50201
-1.50355
-1.50492
-1.5061
-1.50709
-1.50789
-1.50851
-1.50896
-1.50926
-1.50943
-1.50948
-1.50942
-1.50926
-1.509
-1.50864
-1.50818
-1.5076
-1.50688
-1.506
-1.50514
-1.58833
-1.58102
-1.57485
-1.56974
-1.56566
-1.56256
-1.56038
-1.55905
-1.55846
-1.55851
-1.55907
-1.56003
-1.56128
-1.56272
-1.56428
-1.56589
-1.56751
-1.5691
-1.57062
-1.57206
-1.57338
-1.57457
-1.57561
-1.57647
-1.57717
-1.5777
-1.57807
-1.57829
-1.57839
-1.57838
-1.57828
-1.5781
-1.57784
-1.57752
-1.57712
-1.57664
-1.57606
-1.57536
-1.57453
-1.57371
-1.67693
-1.66843
-1.66105
-1.65473
-1.64946
-1.64519
-1.6419
-1.6395
-1.63792
-1.63705
-1.63675
-1.63692
-1.63744
-1.63821
-1.63915
-1.6402
-1.64131
-1.64243
-1.64352
-1.64455
-1.6455
-1.64634
-1.64704
-1.64759
-1.64799
-1.64824
-1.64836
-1.64835
-1.64824
-1.64806
-1.64781
-1.64751
-1.64716
-1.64677
-1.64633
-1.64583
-1.64526
-1.64458
-1.64379
-1.64302
-1.76523
-1.75564
-1.74716
-1.73973
-1.73335
-1.72801
-1.72368
-1.72032
-1.71782
-1.71608
-1.71498
-1.7144
-1.71422
-1.71434
-1.71469
-1.71519
-1.71579
-1.71645
-1.71712
-1.71776
-1.71834
-1.71883
-1.7192
-1.71944
-1.71954
-1.71951
-1.71937
-1.71913
-1.71882
-1.71845
-1.71805
-1.71763
-1.7172
-1.71674
-1.71626
-1.71575
-1.71518
-1.71453
-1.71379
-1.71307
-1.85319
-1.84262
-1.83312
-1.82467
-1.81728
-1.81096
-1.8057
-1.80144
-1.7981
-1.79556
-1.79371
-1.79242
-1.79157
-1.79107
-1.79083
-1.79081
-1.79092
-1.79114
-1.7914
-1.79166
-1.79188
-1.79203
-1.79207
-1.79199
-1.7918
-1.79149
-1.79109
-1.79062
-1.7901
-1.78956
-1.78902
-1.78848
-1.78795
-1.78744
-1.78692
-1.7864
-1.78584
-1.78522
-1.78452
-1.78385
-1.94074
-1.9293
-1.9189
-1.90953
-1.90123
-1.89403
-1.88792
-1.88285
-1.87874
-1.87547
-1.87291
-1.87094
-1.86945
-1.86835
-1.86757
-1.86703
-1.86668
-1.86646
-1.86633
-1.86622
-1.8661
-1.86591
-1.86563
-1.86524
-1.86475
-1.86417
-1.86351
-1.86281
-1.86209
-1.86138
-1.86069
-1.86004
-1.85943
-1.85886
-1.85831
-1.85777
-1.85722
-1.85663
-1.85598
-1.85536
-2.02774
-2.01558
-2.00442
-1.99427
-1.98519
-1.97723
-1.97037
-1.96458
-1.95976
-1.9558
-1.95257
-1.94996
-1.94786
-1.94618
-1.94486
-1.94382
-1.94302
-1.94239
-1.94187
-1.9414
-1.94093
-1.94041
-1.93982
-1.93914
-1.93837
-1.93752
-1.93663
-1.93571
-1.9348
-1.93392
-1.9331
-1.93234
-1.93165
-1.93102
-1.93043
-1.92988
-1.92934
-1.92877
-1.92817
-1.9276
)
;

boundaryField
{
    leftWall
    {
        type            calculated;
        value           nonuniform List<scalar> 0();
    }
    rightWall
    {
        type            calculated;
        value           nonuniform List<scalar> 
43
(
0.489851
0.442997
0.396239
0.34952
0.302721
0.255762
0.208595
0.161194
0.113548
0.0656554
0.0170864
-0.0323903
-0.0825722
-0.133462
-0.185062
-0.237374
-0.290401
-0.344145
-0.398609
-0.453796
-0.509708
-0.56635
-0.623724
-0.681833
-0.74068
-0.800268
-0.8606
-0.921678
-0.983505
-1.04608
-1.10941
-1.17349
-1.23832
-1.3039
-1.37023
-1.43732
-1.50514
-1.57371
-1.64302
-1.71307
-1.78385
-1.85536
-1.9276
)
;
    }
    lowerWall
    {
        type            calculated;
        value           nonuniform List<scalar> 
66
(
55.0228
59.1488
58.5729
38.332
18.5087
7.9674
4.17862
3.03367
2.50973
2.01728
1.50005
0.937441
-1.60249
-1.0957
-0.80184
-0.399651
0.535477
0.485805
0.434495
0.380818
0.325281
0.265444
0.201716
0.135934
0.0709662
-0.01594
0.559021
0.564646
0.572723
0.580819
0.587967
0.592881
0.595415
0.595947
0.594941
0.592791
0.589823
0.586287
0.582381
0.578215
0.57384
0.569339
0.564792
0.560242
0.555727
0.551281
0.546939
0.54273
0.538682
0.53482
0.531163
0.527734
0.524551
0.521641
0.519032
0.516752
0.514826
0.513272
0.512101
0.51132
0.51092
0.510883
0.511049
0.511511
0.512348
0.513395
)
;
    }
    atmosphere
    {
        type            calculated;
        value           nonuniform List<scalar> 0();
    }
    defaultFaces
    {
        type            empty;
    }
    procBoundary1to0
    {
        type            processor;
        value           nonuniform List<scalar> 
44
(
57.336
11.6115
6.02743
4.07896
3.05754
2.48268
2.15432
1.92501
1.70798
1.48744
1.26381
1.06621
0.924166
0.808166
0.692655
0.577784
0.467252
0.360254
0.255305
0.151664
0.031344
0.031344
-0.0673632
-0.166512
-0.266036
-0.366063
-0.46651
-0.567243
-0.66812
-0.768984
-0.869679
-0.970056
-1.06998
-1.16934
-1.26807
-1.36613
-1.46348
-1.56009
-1.65588
-1.75076
-1.84461
-1.93732
-2.02885
-2.1192
)
;
    }
    procBoundary1to3
    {
        type            processor;
        value           nonuniform List<scalar> 
45
(
-2.18846
-2.17088
-2.15519
-2.1407
-2.12722
-2.11404
-2.10132
-2.0896
-2.07887
-2.0692
-2.06061
-2.05312
-2.04668
-2.0412
-2.03658
-2.0327
-2.02947
-2.02677
-2.02454
-2.02269
-2.02118
-2.01993
-2.01888
-2.01796
-2.01713
-2.01631
-2.01547
-2.01458
-2.01362
-2.01259
-2.01151
-2.01041
-2.0093
-2.00823
-2.00721
-2.00627
-2.00541
-2.00464
-2.00394
-2.00332
-2.00274
-2.0022
-2.00166
-2.00109
-2.00058
)
;
    }
}


// ************************************************************************* //
