/*--------------------------------*- C++ -*----------------------------------*\
  =========                 |
  \\      /  F ield         | OpenFOAM: The Open Source CFD Toolbox
   \\    /   O peration     | Website:  https://openfoam.org
    \\  /    A nd           | Version:  9
     \\/     M anipulation  |
\*---------------------------------------------------------------------------*/
FoamFile
{
    format      ascii;
    class       volScalarField;
    location    "0.15";
    object      p_rgh;
}
// * * * * * * * * * * * * * * * * * * * * * * * * * * * * * * * * * * * * * //

dimensions      [1 -1 -2 0 0 0 0];

internalField   nonuniform List<scalar> 
1915
(
55.0228
59.1488
28.7528
39.5122
12.9832
20.2401
5.85906
8.92355
3.53743
4.80271
2.71251
3.5205
2.39902
2.93449
2.27035
2.42928
2.11935
1.93
1.91198
1.39824
0.559021
0.564646
0.572723
0.580819
0.587967
0.592881
0.595415
0.595947
0.594941
0.592791
0.589823
0.586287
0.582381
0.578215
0.57384
0.569339
0.564792
0.560242
0.555727
0.551281
0.546939
0.54273
0.538682
0.53482
0.531163
0.527734
0.524551
0.521641
0.519032
0.516752
0.514826
0.513272
0.512101
0.51132
0.51092
0.510883
0.511049
0.511511
0.512348
0.513395
0.556436
0.562051
0.568766
0.576453
0.583489
0.588691
0.591814
0.59307
0.592793
0.59131
0.588914
0.585849
0.582296
0.578399
0.574259
0.569959
0.565565
0.561132
0.556705
0.552329
0.548041
0.543875
0.539863
0.536028
0.532393
0.528978
0.525805
0.522901
0.520297
0.518022
0.516099
0.514545
0.513366
0.512566
0.512146
0.512071
0.512231
0.512493
0.512881
0.513627
0.552213
0.55849
0.565173
0.572819
0.579822
0.585242
0.588836
0.590703
0.591061
0.590172
0.588295
0.585662
0.582459
0.578834
0.574904
0.570764
0.56649
0.562145
0.557783
0.553453
0.549199
0.545059
0.541064
0.537241
0.533612
0.530196
0.527018
0.524106
0.521493
0.519205
0.517265
0.515683
0.514459
0.513588
0.513055
0.512809
0.512751
0.512777
0.513112
0.513957
0.545623
0.553023
0.561248
0.57015
0.577791
0.583575
0.58749
0.589694
0.590399
0.58984
0.588257
0.585869
0.582863
0.579391
0.575578
0.571525
0.567314
0.563013
0.55868
0.554367
0.550121
0.545982
0.541983
0.53815
0.534505
0.53107
0.527869
0.524932
0.52229
0.519971
0.51799
0.516356
0.515063
0.514101
0.513444
0.51305
0.512855
0.512849
0.513286
0.514325
0.537173
0.545071
0.556629
0.568138
0.577135
0.58353
0.587709
0.590037
0.590827
0.590342
0.588823
0.586487
0.583519
0.580071
0.576271
0.572224
0.568013
0.563705
0.559362
0.555035
0.550772
0.546612
0.542587
0.538724
0.535047
0.531577
0.528341
0.525367
0.522685
0.520321
0.518288
0.516592
0.515225
0.514177
0.513426
0.512943
0.512701
0.51275
0.513374
0.514612
0.524423
0.534233
0.55154
0.566946
0.577856
0.585017
0.589372
0.59162
0.592252
0.591607
0.589947
0.587488
0.584411
0.580869
0.576989
0.572873
0.568602
0.564244
0.559856
0.555489
0.551186
0.546983
0.542914
0.539007
0.535286
0.531774
0.528495
0.525476
0.522748
0.520333
0.518244
0.516484
0.51505
0.513932
0.513116
0.51259
0.512354
0.512499
0.513324
0.51474
0.507781
0.520782
0.546691
0.567232
0.580351
0.588231
0.592555
0.594452
0.594656
0.593608
0.591598
0.588844
0.58552
0.581771
0.577722
0.573467
0.569082
0.564632
0.560168
0.555734
0.551368
0.547105
0.542978
0.539016
0.535245
0.531685
0.528358
0.525292
0.522513
0.520045
0.5179
0.516083
0.514593
0.513422
0.512569
0.512032
0.511835
0.512094
0.513102
0.51466
0.489087
0.508235
0.544015
0.570008
0.585135
0.593432
0.597377
0.598575
0.598038
0.596321
0.593746
0.590524
0.586816
0.582755
0.57845
0.57399
0.569443
0.564862
0.56029
0.555763
0.551312
0.546972
0.542776
0.538754
0.534928
0.531318
0.527942
0.524827
0.521997
0.519477
0.517281
0.515415
0.513881
0.512678
0.511808
0.511287
0.511149
0.511524
0.512686
0.514346
0.471205
0.500986
0.545022
0.575672
0.592434
0.600738
0.603874
0.603977
0.602362
0.599703
0.596344
0.592485
0.588263
0.583787
0.579151
0.574427
0.56967
0.564921
0.56021
0.555562
0.551007
0.546576
0.542304
0.538219
0.53434
0.530679
0.527255
0.52409
0.521211
0.518644
0.516403
0.514499
0.512936
0.511716
0.51085
0.51036
0.510291
0.510776
0.512061
0.513788
0.431386
0.489267
0.546662
0.583588
0.602204
0.610116
0.611965
0.61056
0.607532
0.603667
0.599319
0.594666
0.589809
0.58483
0.579794
0.574753
0.569745
0.564792
0.559911
0.555119
0.550441
0.545911
0.541562
0.537414
0.533481
0.529772
0.5263
0.523089
0.520165
0.517557
0.515282
0.513351
0.511772
0.510551
0.509702
0.509254
0.509257
0.509841
0.511218
0.512982
1.64818
0.783592
1.44759
0.863563
1.37705
1.10529
1.34314
1.19573
1.30086
1.19136
1.25508
1.17031
1.21031
1.14603
1.16529
1.11564
1.11972
1.08068
1.07403
1.04318
1.00386
0.963192
0.921647
0.879423
0.836737
0.793828
0.7509
0.708158
0.665798
0.624003
0.582939
0.542753
0.503565
0.465451
0.428454
0.39261
0.357953
0.324542
0.29248
0.261895
0.2329
0.205549
0.179853
-1.12698
-0.624828
-0.330967
0.0712195
-0.424391
-0.513187
-0.254254
0.0884839
0.312107
0.000475017
0.0958439
0.288736
0.753462
0.485953
0.454693
0.514742
0.946181
0.761196
0.690776
0.682657
1.02412
0.897047
0.824095
0.78905
1.05086
0.959943
0.893956
0.849891
1.04865
0.981193
0.924591
0.880036
1.03068
0.978846
0.931251
0.88987
1.00447
0.96336
0.92335
0.886287
0.973296
0.940069
0.906337
0.873713
0.938905
0.911771
0.883341
0.854956
0.902285
0.880117
0.856272
0.831814
0.864118
0.846163
0.826332
0.80549
0.824916
0.810604
0.794344
0.776839
0.785059
0.773961
0.760919
0.746507
0.744871
0.736652
0.726538
0.715
0.704629
0.699021
0.691589
0.682719
0.664576
0.661356
0.65639
0.649998
0.624921
0.623902
0.621209
0.617116
0.58585
0.586867
0.586274
0.584313
0.547522
0.550422
0.55177
0.551781
0.510061
0.514701
0.517836
0.519665
0.473551
0.479794
0.484571
0.488067
0.438038
0.445756
0.452038
0.45706
0.403558
0.412628
0.420289
0.426707
0.370152
0.380462
0.389383
0.397079
0.337885
0.349328
0.359398
0.36826
0.306851
0.319315
0.330422
0.34034
0.277161
0.290518
0.30254
0.3134
0.24891
0.263015
0.275819
0.287501
0.222163
0.236872
0.250322
0.262704
0.196978
0.212195
0.226191
0.239165
0.336514
0.472183
0.551507
0.595561
0.61511
0.621661
0.621562
0.618199
0.613432
0.608114
0.602593
0.597003
0.591405
0.585843
0.580348
0.574944
0.569644
0.564453
0.559373
0.554414
0.549603
0.544969
0.540541
0.536333
0.532349
0.528592
0.525074
0.52182
0.518858
0.516217
0.513917
0.511972
0.510388
0.509177
0.508357
0.507957
0.508029
0.508699
0.510143
0.511922
0.351496
0.498581
0.576502
0.616199
0.632067
0.635362
0.632428
0.626645
0.619853
0.612883
0.606038
0.599398
0.592976
0.586766
0.580762
0.574955
0.56933
0.56387
0.558566
0.553426
0.548473
0.543735
0.53923
0.534963
0.530929
0.527127
0.523568
0.520276
0.517283
0.514618
0.512305
0.510356
0.50878
0.507589
0.506803
0.506453
0.50659
0.507331
0.50882
0.510599
0.461319
0.564528
0.618319
0.644082
0.652159
0.650472
0.64396
0.635427
0.62644
0.617708
0.609457
0.601706
0.59441
0.587514
0.58097
0.574732
0.568756
0.563006
0.557463
0.552134
0.547039
0.542199
0.537622
0.5333
0.529219
0.525375
0.521779
0.518457
0.515443
0.512767
0.510452
0.50851
0.506951
0.505787
0.50504
0.504741
0.504936
0.505735
0.507252
0.509017
0.588754
0.639225
0.664839
0.674358
0.673173
0.66578
0.655385
0.644
0.632795
0.622296
0.612635
0.603765
0.595584
0.587991
0.580894
0.574212
0.567873
0.561823
0.556038
0.550521
0.545289
0.540353
0.535708
0.531334
0.527211
0.52333
0.519705
0.516363
0.513339
0.510664
0.508358
0.506434
0.5049
0.50377
0.503065
0.502813
0.50306
0.503904
0.505435
0.507179
0.694203
0.704668
0.707179
0.702595
0.692817
0.679981
0.665872
0.65178
0.638489
0.626332
0.615339
0.605399
0.596364
0.588091
0.580452
0.573331
0.566631
0.560284
0.554263
0.548568
0.54321
0.538186
0.533479
0.529058
0.524897
0.520987
0.517341
0.513991
0.51097
0.508308
0.506023
0.504126
0.502626
0.501534
0.500872
0.500666
0.500957
0.501836
0.503369
0.505087
0.769158
0.754854
0.741197
0.726027
0.70936
0.691937
0.674641
0.658212
0.643119
0.629515
0.617338
0.60643
0.596611
0.587708
0.579561
0.572025
0.564981
0.558354
0.552115
0.546259
0.540787
0.535687
0.530926
0.526464
0.522271
0.518341
0.514687
0.511341
0.508337
0.5057
0.503447
0.501587
0.500126
0.499076
0.498457
0.498294
0.498624
0.499527
0.501054
0.502741
0.816193
0.788899
0.765418
0.743202
0.721631
0.700806
0.681092
0.662868
0.64636
0.631587
0.618426
0.606694
0.596197
0.586743
0.578144
0.570232
0.562877
0.556
0.549568
0.543575
0.538009
0.532844
0.528038
0.523543
0.519329
0.51539
0.511741
0.508414
0.505439
0.50284
0.500629
0.498813
0.497397
0.496392
0.495817
0.495694
0.496056
0.496976
0.498491
0.500145
0.841684
0.808629
0.780033
0.753779
0.729208
0.706217
0.684922
0.665487
0.647984
0.632349
0.618435
0.606056
0.595016
0.585108
0.57613
0.567898
0.560278
0.55319
0.546602
0.540499
0.53486
0.529647
0.524807
0.52029
0.516067
0.512132
0.508503
0.505209
0.502278
0.499728
0.497568
0.495804
0.494437
0.49348
0.492948
0.492863
0.493252
0.494183
0.495681
0.4973
0.85159
0.816985
0.786375
0.758288
0.732255
0.708166
0.686045
0.665945
0.647851
0.631668
0.617246
0.604415
0.592981
0.582735
0.573463
0.564978
0.557149
0.549899
0.543195
0.537016
0.531328
0.526084
0.521225
0.5167
0.512482
0.508567
0.504973
0.501728
0.498853
0.496364
0.494265
0.492557
0.491245
0.490337
0.489849
0.489799
0.490211
0.491148
0.492625
0.494208
0.850305
0.816508
0.785856
0.75747
0.731134
0.706807
0.684499
0.664214
0.645903
0.629471
0.614789
0.601706
0.590037
0.579571
0.570097
0.561435
0.55346
0.546104
0.53933
0.53311
0.527402
0.522147
0.517287
0.51277
0.508573
0.504695
0.501154
0.497972
0.495166
0.492747
0.490716
0.489073
0.487818
0.486961
0.486516
0.486499
0.486932
0.48787
0.489323
0.49087
0.840948
0.809193
0.779707
0.75207
0.726281
0.702385
0.680405
0.660339
0.642143
0.625744
0.61104
0.597899
0.586148
0.575583
0.566002
0.557242
0.549191
0.541787
0.534992
0.52877
0.52307
0.517829
0.512987
0.508498
0.504342
0.50052
0.497047
0.493942
0.491218
0.488879
0.486923
0.485348
0.484155
0.483351
0.482949
0.482964
0.483414
0.484351
0.485778
0.487288
0.825691
0.796583
0.768983
0.742787
0.718149
0.695179
0.673932
0.654422
0.636632
0.620519
0.606011
0.592992
0.581301
0.570749
0.561157
0.55238
0.544325
0.536936
0.530171
0.523987
0.518327
0.513125
0.508324
0.503885
0.49979
0.496042
0.492655
0.489642
0.48701
0.484759
0.482884
0.481383
0.480254
0.479505
0.479147
0.479192
0.479657
0.48059
0.481989
0.483462
0.806054
0.77986
0.754562
0.730251
0.707173
0.685486
0.66528
0.646601
0.629466
0.613863
0.599741
0.587001
0.575497
0.565065
0.555554
0.546844
0.538858
0.531545
0.524861
0.518756
0.513167
0.508032
0.503298
0.498932
0.494919
0.491266
0.48798
0.485071
0.482541
0.480386
0.478599
0.477176
0.476115
0.475423
0.475109
0.475184
0.475662
0.476588
0.477959
0.479395
0.783126
0.759941
0.737166
0.715006
0.693752
0.673599
0.654669
0.637044
0.620772
0.605865
0.592287
0.579955
0.56875
0.558537
0.549195
0.540634
0.53279
0.525615
0.519062
0.513075
0.507591
0.502552
0.497912
0.493642
0.489735
0.486193
0.483024
0.480232
0.477813
0.475762
0.474069
0.472727
0.471737
0.471104
0.470835
0.470939
0.471429
0.472347
0.473688
0.475087
0.757725
0.73754
0.717385
0.697517
0.67825
0.659803
0.642327
0.625931
0.610687
0.596619
0.58371
0.571895
0.561085
0.551182
0.542097
0.533764
0.526131
0.519152
0.512776
0.506946
0.501601
0.496688
0.492168
0.488021
0.48424
0.480829
0.477791
0.475126
0.472828
0.470887
0.469292
0.468038
0.467122
0.466549
0.466326
0.466459
0.46696
0.467869
0.469179
0.470541
0.730477
0.713224
0.6957
0.678185
0.661
0.644374
0.62848
0.613443
0.599344
0.586223
0.574076
0.562867
0.552538
0.543029
0.534283
0.526252
0.518895
0.512165
0.506011
0.500375
0.495201
0.490444
0.486073
0.482073
0.47844
0.475177
0.472284
0.469757
0.467587
0.465762
0.464272
0.463108
0.46227
0.461759
0.461583
0.461745
0.462256
0.463155
0.464434
0.465757
0.701878
0.68745
0.672518
0.657366
0.642307
0.627574
0.613343
0.599746
0.586871
0.574768
0.563455
0.552924
0.543155
0.534119
0.525787
0.518127
0.511104
0.504671
0.498778
0.493371
0.488401
0.483829
0.479634
0.475805
0.47234
0.469241
0.466505
0.464126
0.462092
0.46039
0.459009
0.45794
0.457182
0.456736
0.456607
0.456799
0.45732
0.458207
0.459454
0.460739
0.67233
0.6606
0.648191
0.635376
0.622451
0.609637
0.597108
0.584991
0.573382
0.562344
0.551918
0.54213
0.53299
0.5245
0.516651
0.509422
0.502782
0.496688
0.491092
0.485946
0.481209
0.476852
0.472859
0.469223
0.465945
0.463025
0.460459
0.458237
0.456346
0.454773
0.453506
0.452537
0.451862
0.451482
0.451402
0.451623
0.452153
0.453028
0.454242
0.455489
0.642168
0.633002
0.623026
0.612494
0.601673
0.590768
0.579938
0.569309
0.558983
0.54904
0.539547
0.530557
0.52211
0.514229
0.50692
0.500171
0.493956
0.488237
0.482969
0.478114
0.473639
0.469523
0.465756
0.462336
0.459263
0.456536
0.454149
0.452093
0.450353
0.448915
0.447767
0.4469
0.446312
0.446001
0.445969
0.44622
0.446758
0.447621
0.448801
0.450008
0.611679
0.604937
0.597288
0.588957
0.580181
0.571138
0.561976
0.552819
0.543778
0.53495
0.526428
0.518286
0.510585
0.503365
0.496643
0.490414
0.484657
0.479341
0.474429
0.469892
0.465704
0.461854
0.458336
0.455151
0.452299
0.449778
0.447582
0.4457
0.444117
0.44282
0.441796
0.441036
0.440536
0.440295
0.440313
0.440593
0.44114
0.441989
0.443134
0.444301
0.581106
0.576641
0.571193
0.56496
0.558139
0.55089
0.543346
0.535634
0.527872
0.520177
0.512655
0.505401
0.498489
0.49197
0.485869
0.480189
0.474916
0.470026
0.465494
0.461298
0.457422
0.45386
0.450611
0.447678
0.445061
0.442758
0.440763
0.439063
0.437644
0.436494
0.435598
0.434948
0.43454
0.434369
0.434438
0.434746
0.4353
0.436135
0.437245
0.43837
0.550642
0.548299
0.544915
0.540656
0.535688
0.53015
0.524168
0.517868
0.511379
0.504826
0.498328
0.49199
0.485896
0.480104
0.474647
0.469535
0.464764
0.46032
0.456187
0.452353
0.448809
0.445555
0.442593
0.439927
0.437558
0.435484
0.433698
0.432188
0.430941
0.429942
0.429179
0.428643
0.428327
0.428229
0.428348
0.428684
0.429245
0.430064
0.431138
0.432221
0.520433
0.520054
0.518586
0.516171
0.512948
0.509038
0.504561
0.499642
0.494413
0.489005
0.483542
0.478136
0.472875
0.467824
0.463022
0.458491
0.454236
0.450253
0.446536
0.44308
0.439886
0.436955
0.434295
0.431909
0.429799
0.427964
0.426396
0.425084
0.424014
0.423173
0.422548
0.422127
0.421906
0.42188
0.422048
0.422412
0.422978
0.423781
0.424817
0.425857
0.490584
0.492012
0.492317
0.491619
0.490037
0.487676
0.484649
0.481077
0.477091
0.472821
0.468392
0.463918
0.459492
0.455184
0.451043
0.447099
0.443368
0.439856
0.436568
0.433505
0.430672
0.428079
0.425731
0.423636
0.421795
0.420207
0.418866
0.417759
0.416873
0.416195
0.41571
0.415408
0.415282
0.415328
0.415545
0.415935
0.416506
0.417291
0.418289
0.419285
0.461178
0.464265
0.466208
0.467112
0.467074
0.466189
0.464558
0.462295
0.459524
0.456371
0.452961
0.449407
0.445806
0.442236
0.438753
0.435398
0.432196
0.429164
0.426312
0.423651
0.421191
0.418944
0.416918
0.415121
0.413558
0.412226
0.411118
0.410223
0.409528
0.409016
0.408675
0.408493
0.408463
0.40858
0.408846
0.409261
0.409835
0.410601
0.411559
0.412511
0.432293
0.436906
0.440365
0.442764
0.444184
0.444703
0.44441
0.443409
0.441813
0.439744
0.437324
0.434667
0.431874
0.429029
0.426199
0.423431
0.42076
0.41821
0.415801
0.413548
0.411466
0.409569
0.407871
0.406381
0.405101
0.404032
0.403164
0.402488
0.401988
0.401647
0.401452
0.401391
0.401456
0.401645
0.401957
0.402395
0.402971
0.403717
0.404635
0.405541
0.404011
0.410031
0.414898
0.418695
0.421487
0.423337
0.424317
0.424519
0.424047
0.423016
0.421547
0.419756
0.417748
0.415614
0.413426
0.41124
0.409097
0.407031
0.405065
0.403221
0.401519
0.399977
0.39861
0.39743
0.39644
0.395639
0.395018
0.394565
0.394264
0.394098
0.39405
0.394111
0.394271
0.39453
0.394886
0.395347
0.395923
0.396647
0.397524
0.398383
0.376426
0.383741
0.389914
0.395017
0.399096
0.402196
0.404375
0.405711
0.4063
0.406253
0.40569
0.404729
0.40348
0.402038
0.40048
0.398867
0.397249
0.395661
0.394135
0.392698
0.391375
0.390187
0.389154
0.388287
0.38759
0.387062
0.386693
0.386468
0.38637
0.386379
0.386481
0.386662
0.386917
0.387243
0.387643
0.388124
0.388698
0.3894
0.390234
0.391046
0.349629
0.358135
0.365514
0.371828
0.377104
0.381369
0.384665
0.387058
0.388638
0.389515
0.389808
0.389639
0.38912
0.388349
0.387406
0.386357
0.385252
0.384136
0.383043
0.382007
0.381059
0.380223
0.379523
0.37897
0.37857
0.378319
0.378205
0.378211
0.378317
0.378504
0.378754
0.379056
0.379403
0.379795
0.380236
0.380734
0.381305
0.381982
0.382773
0.383537
0.323702
0.333292
0.341779
0.34921
0.35559
0.360928
0.365253
0.36862
0.371118
0.372855
0.373955
0.374538
0.374719
0.374596
0.374251
0.373749
0.373147
0.372489
0.371819
0.371176
0.370595
0.370108
0.369738
0.3695
0.369397
0.369425
0.369568
0.369807
0.370119
0.370483
0.370881
0.371302
0.371739
0.372194
0.372674
0.373188
0.373753
0.374404
0.37515
0.375865
0.298702
0.309272
0.318769
0.327221
0.334612
0.34093
0.346192
0.350451
0.353791
0.356326
0.358179
0.359475
0.360325
0.360826
0.361057
0.361086
0.360967
0.360754
0.360493
0.360231
0.360009
0.359863
0.359821
0.359896
0.360091
0.360399
0.3608
0.361272
0.36179
0.362331
0.362875
0.363412
0.363937
0.364453
0.364968
0.365495
0.366052
0.366675
0.367374
0.368038
0.274692
0.286131
0.296533
0.305904
0.314203
0.321403
0.327512
0.332579
0.336691
0.339963
0.342522
0.344491
0.345978
0.347078
0.347865
0.348403
0.348752
0.348966
0.3491
0.349206
0.349334
0.349523
0.349802
0.350186
0.350676
0.35126
0.351916
0.352618
0.353339
0.354052
0.354739
0.355389
0.355999
0.356573
0.357123
0.357661
0.358209
0.358802
0.359453
0.360066
0.251815
0.26398
0.275142
0.285289
0.294364
0.302329
0.309184
0.314979
0.3198
0.323763
0.326991
0.329602
0.331702
0.333377
0.3347
0.335734
0.336538
0.337171
0.337693
0.338162
0.338633
0.33915
0.339741
0.340423
0.341192
0.342037
0.342933
0.343851
0.34476
0.345636
0.346458
0.347217
0.34791
0.348543
0.349127
0.34968
0.350222
0.350787
0.351391
0.351954
)
;

boundaryField
{
    leftWall
    {
        type            fixedFluxPressure;
        gradient        nonuniform List<scalar> 0();
        value           nonuniform List<scalar> 0();
    }
    rightWall
    {
        type            fixedFluxPressure;
        gradient        uniform 0;
        value           nonuniform List<scalar> 
43
(
0.513395
0.513627
0.513957
0.514325
0.514612
0.51474
0.51466
0.514346
0.513788
0.512982
0.511922
0.510599
0.509017
0.507179
0.505087
0.502741
0.500145
0.4973
0.494208
0.49087
0.487288
0.483462
0.479395
0.475087
0.470541
0.465757
0.460739
0.455489
0.450008
0.444301
0.43837
0.432221
0.425857
0.419285
0.412511
0.405541
0.398383
0.391046
0.383537
0.375865
0.368038
0.360066
0.351954
)
;
    }
    lowerWall
    {
        type            fixedFluxPressure;
        gradient        uniform 0;
        value           nonuniform List<scalar> 
66
(
55.0228
59.1488
59.1488
39.5122
20.2401
8.92355
4.80271
3.5205
2.93449
2.42928
1.93
1.39824
-1.12698
-0.624828
-0.330967
0.0712195
0.559021
0.556436
0.552213
0.545623
0.537173
0.524423
0.507781
0.489087
0.471205
0.431386
0.559021
0.564646
0.572723
0.580819
0.587967
0.592881
0.595415
0.595947
0.594941
0.592791
0.589823
0.586287
0.582381
0.578215
0.57384
0.569339
0.564792
0.560242
0.555727
0.551281
0.546939
0.54273
0.538682
0.53482
0.531163
0.527734
0.524551
0.521641
0.519032
0.516752
0.514826
0.513272
0.512101
0.51132
0.51092
0.510883
0.511049
0.511511
0.512348
0.513395
)
;
    }
    atmosphere
    {
        type            totalPressure;
        rho             rho;
        psi             none;
        gamma           1;
        p0              nonuniform List<scalar> 0();
        value           nonuniform List<scalar> 0();
    }
    defaultFaces
    {
        type            empty;
    }
    procBoundary1to0
    {
        type            processor;
        value           nonuniform List<scalar> 
44
(
73.2701
21.1609
7.78973
4.63754
3.35666
2.78096
2.47878
2.28543
2.11132
1.93599
1.75898
1.60931
1.51579
1.44882
1.38281
1.3179
1.2578
1.2017
1.14812
1.09633
1.02834
1.02834
0.982449
0.936606
0.890884
0.845158
0.799515
0.754096
0.709047
0.664529
0.620702
0.577722
0.535728
0.494832
0.455114
0.41662
0.37938
0.343438
0.308877
0.275801
0.244329
0.21457
0.186578
0.160355
)
;
    }
    procBoundary1to3
    {
        type            processor;
        value           nonuniform List<scalar> 
45
(
0.155824
0.173403
0.189092
0.203584
0.217063
0.230242
0.242963
0.254688
0.265414
0.275087
0.283669
0.29116
0.297605
0.303084
0.307704
0.311579
0.314817
0.317513
0.319747
0.32159
0.323106
0.324357
0.325408
0.32632
0.327157
0.327972
0.328811
0.329704
0.330664
0.331691
0.332769
0.333875
0.334979
0.336052
0.33707
0.338014
0.338874
0.339648
0.340342
0.340967
0.34154
0.342082
0.342627
0.343191
0.343707
)
;
    }
}


// ************************************************************************* //
