/*--------------------------------*- C++ -*----------------------------------*\
  =========                 |
  \\      /  F ield         | OpenFOAM: The Open Source CFD Toolbox
   \\    /   O peration     | Website:  https://openfoam.org
    \\  /    A nd           | Version:  9
     \\/     M anipulation  |
\*---------------------------------------------------------------------------*/
FoamFile
{
    format      ascii;
    class       volScalarField;
    location    "145";
    object      p;
}
// * * * * * * * * * * * * * * * * * * * * * * * * * * * * * * * * * * * * * //

dimensions      [0 2 -2 0 0 0 0];

internalField   nonuniform List<scalar> 
112055
(
0.0197019
0.00558374
-0.00293573
-0.00407843
-0.00707958
0.00901758
0.0191133
-0.00396611
-0.000840459
0.0190477
0.00561543
0.0182749
-0.000687256
0.0182678
0.0286875
0.000848629
-0.0734009
0.0220925
0.00557218
-0.000867305
0.000652833
7.78814e-05
0.00558692
0.000808178
-0.0116181
-0.00179008
0.0411209
0.00735499
0.00897927
0.000670397
0.00994189
-0.0134457
0.00054023
-0.0688219
-0.000858396
0.000482939
-0.000928666
0.0640039
-0.00841934
0.000307363
0.000373664
-0.0076253
0.00158341
-0.00286332
0.0226149
-3.89745e-05
-0.0694865
-0.00808323
0.00314925
-0.00745983
-0.00391787
-0.0177462
0.000778907
-0.00817238
-0.00135205
0.0192393
-0.00402023
-0.00649272
-0.0103612
-5.86004e-05
0.0156975
-0.00728747
0.000222162
0.000220769
0.0125544
-0.00114027
0.0665137
-0.00237101
0.00426537
0.000338183
-0.00653472
-0.069717
0.000914593
0.0376879
-0.0334013
-0.0448548
0.00576201
0.019558
-0.0126937
-0.00793397
-0.00047401
-0.0483503
-0.00379317
-0.00162678
0.000877313
0.00328768
-0.00465504
-0.00132246
-0.0309612
-0.00127046
0.000772563
0.000481723
-0.0049744
-0.00712164
-0.0329929
0.00572679
-0.00702841
0.0283493
0.00993548
-0.00391204
-0.000668735
0.000447306
0.000556675
0.00642936
-0.0344311
-0.0715511
0.0125382
0.000470587
0.000388931
0.00327086
-0.0697206
-0.0392078
-0.0012512
0.00797379
0.00427746
0.0220626
0.0127544
0.000670447
-0.0287529
-0.000907231
0.0073642
0.00736604
0.0190022
0.00251423
0.000380594
0.00634933
-0.0582418
0.000998728
-0.0014127
-0.0340724
0.00248553
0.0408442
0.00192229
0.0528974
-0.00865069
0.000314131
0.000511822
0.00361786
-0.00251433
-0.00946176
0.00354054
-0.00335641
-0.00667717
0.00817125
0.000528168
-0.00123983
0.0203743
3.86347e-05
0.000661156
-0.00447763
-0.0721771
0.000142223
0.0168401
0.000711171
-0.00249345
0.00768094
0.0106903
0.00805291
-0.00966462
-0.0023566
-0.00123663
-0.00215664
-0.000453918
-0.000953329
0.000215565
0.00142166
0.0108623
-0.0137543
0.000233712
0.0126596
0.00932446
0.00765155
-0.000471245
0.00801423
-0.012634
-0.000925109
0.00302511
-0.00139002
-0.00277737
0.00156128
-0.0124088
0.000544897
0.00151814
0.00996911
-0.0102261
0.0157153
-0.00211672
0.000208331
-0.00651119
0.000638478
0.00324534
0.000542604
-0.00122644
0.00738667
-0.00233296
0.000398006
-0.00706847
-0.0386451
0.00166544
0.010656
0.0627201
0.0139788
0.0157974
0.000860864
0.00104962
0.0218133
0.0653999
0.01153
-0.07329
0.000546206
0.00217127
0.00036296
0.0199749
0.00054722
-0.00702353
0.0116507
0.00942294
-0.00484752
-0.000372158
-0.00454178
0.00060382
-0.0187979
-0.0011313
-0.00255903
-0.0300783
0.000217311
0.000446109
0.0106656
0.00490007
0.000495132
0.00048122
-0.000394161
-0.0101576
0.00651267
-0.027634
-0.0124784
0.000401713
0.000480324
-0.0750832
0.0990581
-0.00287855
-0.00852486
-0.000270674
-0.00299462
6.70513e-05
-0.0275049
-0.00667141
-0.00697911
0.00257736
-0.00435707
0.000325184
0.000537297
-0.0469174
-0.000268811
-0.0069624
-0.00415115
0.00321704
-0.00145155
-0.0587346
0.000559103
-0.0300936
0.0219213
0.00136896
0.0161135
0.0532617
0.000716247
0.00126952
-0.00135264
0.0138138
-0.00257773
0.00032501
-0.0178779
0.00175038
-0.0167072
-6.42701e-05
-0.00620147
-0.0275373
-0.0716757
-0.0705219
-0.0454089
0.000387987
0.00615894
0.0127067
0.00930416
0.00718656
-0.00293806
0.00666913
0.000447837
0.0010268
0.0140941
0.00110026
0.000235352
0.00668717
-0.000128647
0.00654525
0.00716695
0.0117229
-0.000919016
0.000231409
0.000770688
0.00638645
0.00997836
0.0105219
0.00649056
-0.00552326
0.00192119
0.00157181
-0.00108971
-3.7946e-05
0.000105296
-0.000897784
0.00451056
0.000585535
0.00129545
-0.00785695
-0.0193087
-0.00299113
-0.0126536
-7.27529e-05
0.000236998
5.90436e-05
0.0539581
0.0298843
-0.000898095
-0.00658095
-0.004264
-0.0034618
0.00164034
0.00620496
0.000515598
0.00488868
-0.00806729
0.0125934
-0.00356011
-0.00510795
0.000524707
0.000506348
0.000342826
0.00460437
-0.042996
0.062685
-0.0575022
-0.0109801
0.000631707
-0.00183135
-0.00710047
0.000115334
-0.00811999
0.0125843
-0.000359049
0.0261542
0.0153515
0.0175027
-0.0393043
-0.00159405
-0.00160323
0.0372514
0.00144035
0.000575067
0.0179201
-0.044301
0.000566777
-0.00503221
0.107657
0.00258088
-0.0749413
-0.044879
-0.00435959
0.00629624
-0.00123343
0.0226033
0.0230491
0.0112156
0.0157193
0.140582
0.000109513
0.000100383
-0.00292762
-0.00268583
0.00175985
0.000610977
0.00879823
0.017929
-0.00668094
-0.00120464
9.72142e-05
9.19587e-05
-0.00458008
0.0125366
0.0228299
0.00419894
0.00207551
0.00236274
-0.0136172
0.0373195
0.000894226
0.00323723
-0.00704899
-0.0110998
0.00200641
0.021227
0.00491092
-0.0231856
0.0174598
0.000857489
-0.0331457
-0.00553642
0.000285117
-0.000762793
0.00501218
-0.00351215
5.50498e-05
-0.000140555
4.58187e-05
0.000548878
-0.00705641
0.00801106
-0.00775601
-0.000418156
0.0077523
0.0303492
-0.0012
0.00298798
0.00799779
0.00666022
-0.00574636
0.0108058
0.00180654
-0.00323366
-0.00571853
-0.000133531
0.0110811
-0.0018377
-0.016032
-0.00918398
0.0258219
0.000395538
-0.00821713
0.0983974
0.0252113
-0.00562538
0.000405576
0.00804056
-0.00763202
0.00563937
1.86507e-05
0.0367867
0.0248506
-0.0081301
-0.00678466
-0.00830975
0.0073075
-0.00119462
0.00925641
-0.00416865
-0.0781981
0.000388581
0.000915382
0.00968225
8.52972e-05
-0.000800208
-0.00106332
0.000233452
-0.00869467
-0.00819634
0.000364848
0.000502341
0.017463
0.00667256
0.00160543
0.00882825
0.000365475
-0.00179913
-0.00808688
0.00906643
-0.00365441
-0.000117615
0.000609346
-0.00068493
0.00103698
-0.0404902
-0.0784756
-0.00677797
-0.013001
0.000272429
-0.0588409
0.0141929
-0.00186705
-0.000235679
-9.72226e-05
8.07441e-05
-0.0270471
-0.00559398
0.000387065
0.0105854
-0.00138986
0.00875203
0.00154833
-0.000108141
0.00185294
0.00186274
0.00168492
-0.00137551
0.0116502
0.000353569
0.00669637
3.30006e-05
-0.0437232
0.000254069
0.000500069
-0.00369431
0.021725
-0.0111231
0.0049638
0.0671586
-2.11255e-05
1.88505e-05
7.35831e-05
-0.00630276
-0.00431526
0.00917261
0.00382562
0.000452142
-0.00110585
0.00507702
-0.00278173
0.000255371
0.0661413
-0.000698228
0.000710193
0.00735717
-0.0029216
-0.0692071
0.0528549
0.00035506
0.0148931
-0.00473398
-0.0815063
-0.00158136
-6.42241e-05
0.000392235
1.71225e-07
-0.079202
0.0260752
-0.00721838
-0.00470661
-0.00718399
0.0051102
0.00768836
0.00051456
0.0261222
0.00700731
0.0105666
-0.0216729
0.00875845
0.000641608
-0.0155881
4.71574e-05
0.000428936
-0.0089773
-0.0426698
0.000384611
0.000745085
0.00191332
0.105507
-0.00110878
-0.00273256
-0.0718283
0.000268642
-0.0703593
0.00724203
0.00924851
0.000451954
-0.0382743
-0.00347548
0.0061423
0.00732787
-0.0078524
0.0109387
-0.0309718
-0.000435043
2.6994e-05
0.013808
0.0066541
0.0100452
0.000291227
0.00822854
0.00489207
0.00752616
-0.000133052
0.00727204
0.0024275
0.000704102
0.00241275
0.00189644
0.00796328
0.00529225
0.000128142
0.00727145
-0.00231311
0.000627343
-0.00742997
-0.00980001
0.00676539
-0.000245478
0.00506381
-0.00108036
0.00953524
0.0127063
0.000355906
-0.00142177
0.0125002
-1.93048e-05
-0.00278432
0.051454
0.00703292
0.000390613
0.000459888
-0.00729431
0.00566123
-0.0240916
0.0104042
0.0065101
-9.07352e-05
0.00673722
-0.0428769
-0.000712735
-0.00396981
-0.00119467
-0.00422187
-0.00559023
-0.0669867
0.00221049
-0.0699351
0.00260779
0.000358905
0.000681099
0.00159684
0.000185567
0.00667213
0.000519293
0.00043318
-0.0011475
-0.00272654
0.00276994
0.0246857
0.07508
0.00921479
-0.0434924
-0.0028321
-0.0781201
-0.000790794
-0.00058208
0.0202733
-0.000521031
0.000376802
0.0112334
0.0157846
-0.00276604
-0.00691034
0.0111208
0.00930398
0.00179427
0.01912
4.89629e-05
-0.000780752
-0.0246077
-0.0372866
0.000370098
0.00731078
-0.00667814
-0.0211898
-0.00898569
0.0184563
-0.000520874
0.00134161
0.00708688
0.02004
0.0791263
0.000647342
0.000425237
-0.000812486
0.000102945
-0.0267733
-0.00111646
0.0140021
-0.0031887
0.000642499
-0.0566959
-0.0115513
-0.00107591
0.00870726
0.00575797
0.00909717
0.0245623
0.0192589
0.0213231
0.0142088
0.00245977
-0.00514605
-0.00144683
0.000616574
0.00825759
0.000601784
-0.000786447
0.00578815
-0.00115467
0.000534614
0.130932
-0.000733937
0.00942288
-0.000713549
0.000103325
-0.00437823
0.00207747
-0.0115572
0.0141076
0.000857115
0.00630639
0.000242927
-0.00142922
-0.00116927
0.000380683
-0.00924791
0.000247365
0.0111614
0.0136962
0.015672
0.00241171
-0.00320879
7.1349e-05
0.0155888
-0.0695892
-0.00114126
0.00777739
0.000519567
0.0499328
-0.0033365
0.000176785
-0.00468106
-0.0110924
0.00147174
-0.0181262
0.00892588
-0.0735603
0.00291692
-0.00904277
0.0123802
0.00531903
0.00701728
0.00042482
0.000338445
0.0002518
-0.00690635
0.000291415
0.0120459
0.00772611
0.000433559
0.0174793
0.00174396
0.000254272
-0.00248225
-0.00688009
-0.0293302
0.0395482
0.0660525
0.00759119
-0.000628415
0.000298964
0.0016521
0.000341754
-0.00326173
-3.90272e-05
0.000491963
0.000493023
0.00666349
-0.0741968
-0.000365748
0.000128478
0.0151639
-0.0121627
0.0183977
0.0017886
0.000100686
-0.0764943
0.00180209
0.000335962
0.000532016
-0.000881229
-0.0118169
-0.000372492
-0.00145859
0.000795275
-0.0368826
-0.00170183
0.00336225
-0.0426871
-0.00112169
0.00644346
0.000336316
-0.00120429
0.0158699
-0.000831202
-0.00919102
-0.110023
0.000296715
-0.0113694
-0.0166119
-0.00859942
0.000618821
-0.0220833
6.35403e-05
-0.00421297
0.0142147
-0.00159789
-0.0084367
0.00226257
0.00956017
0.000436444
-0.00166971
-0.00125923
0.00784876
0.000719927
0.00980945
-0.000118
-0.0166436
0.0166798
-0.00609683
-0.00903375
0.000330676
0.000438932
0.0150729
0.0189248
-0.000129506
0.129904
0.00641247
-0.00549459
0.00715897
0.0120473
-0.00610197
-0.000139412
0.139476
0.015042
-0.00117019
0.000785706
0.000535659
-0.0509955
-0.00130938
0.0092751
0.0005372
-0.0014544
-0.00948223
0.0394181
0.000531265
-0.00853937
-0.00191005
0.019163
0.00164994
0.00926999
0.00121288
0.079258
0.00147846
-0.000379536
-0.0366318
0.00758077
-0.00524661
0.00715011
0.00941326
-0.0264931
-0.000470437
-0.00691003
0.00865871
0.0156366
-0.0742201
-0.0353062
0.00671435
0.00922353
0.00227972
-0.0176852
0.00633927
0.000233971
0.000528135
0.000228205
-8.95973e-05
3.74511e-05
-0.000430352
0.0024027
0.0130407
0.000641674
0.00543893
-0.00319931
0.0069929
-0.00119643
-0.01621
-0.0454218
-0.000382599
-0.00326169
0.0860784
0.00393349
-0.0782266
-0.000933645
0.00527496
-0.00682308
0.0004333
-0.00801236
-0.0445329
5.81801e-05
0.00607889
-0.00477828
0.00591211
0.018693
-0.00155471
0.00409534
0.00538603
-0.0745057
0.0129258
0.000239031
-0.00174312
2.95459e-05
0.000325553
0.00164124
0.000234088
0.000818747
-0.00205623
-0.00717252
0.00649173
-0.000626153
0.010013
-0.00214985
0.00145055
0.000973186
0.00269879
-0.000623459
0.000126717
-0.00398298
-4.16956e-05
-0.00770493
0.000325467
0.0098515
0.000418783
0.0149411
0.0113631
0.000388433
0.00382819
-0.028103
0.000423828
0.000508481
0.00286371
-0.0105832
0.0185024
-0.0662819
0.00769048
0.000446308
0.00348727
-0.00356287
0.0222362
0.000375622
-0.0011451
-0.000353371
-0.0299686
0.00048088
-0.000713745
-0.00184373
-0.000288771
-0.00228361
-0.00880134
-0.0441264
0.000424593
-0.0856202
0.000489121
0.0083255
-0.00340296
0.00664974
-0.00959705
-0.00596984
-0.00129775
-0.0356681
0.0344958
-0.00124927
0.0188089
0.00509564
0.000659967
0.000440323
-0.0344821
0.0100402
0.00613096
0.000534658
-0.0128624
0.00393203
0.000419275
-0.00276375
0.0180408
0.000442563
-0.00397705
0.010384
0.00743888
-0.000688917
0.0124843
-0.000614244
0.00985561
-0.00119019
-0.00150973
-0.0071574
-0.0021837
-0.00319196
0.0409486
-0.000696434
-0.00156128
0.00447499
-0.000514031
-0.0603444
0.00269891
7.90613e-05
0.000142953
0.00272799
0.0049743
0.00847401
0.00995235
6.31122e-05
0.00744949
-0.0224678
-0.0454257
0.00244584
5.78085e-05
-0.00294228
-0.0159035
0.000399373
0.00541577
0.000323903
0.00107229
0.0228332
-0.00219656
-0.0032936
-0.00120525
0.000374724
0.0653714
0.00618616
0.00408446
-0.000968414
0.00420873
0.00726788
0.0165239
0.000333452
-0.0419193
0.00790444
-0.00120164
-0.000207879
0.00709309
-0.00591837
-0.0515761
-0.00036127
-0.0175147
0.000673466
0.000927309
0.00693494
-0.0142113
0.000689992
-0.000751559
-0.00622549
0.000230957
0.00485376
0.0231441
-0.00271281
0.0775345
-0.0291403
-0.00529168
-0.00583727
-0.044323
0.00047536
0.0165314
0.00990026
0.0117426
-0.0181155
0.000259296
-0.0795763
-0.000249789
-0.00305386
-0.0725534
-0.00117404
0.0103969
-0.000279352
2.85654e-06
0.000337196
0.00610968
-0.00420791
-0.00116494
-0.000516005
0.00107723
-0.00123101
0.00172033
-0.0123335
-0.00423703
-0.000654523
-0.00382289
-0.00204569
0.000441328
-0.000898445
0.0501748
0.000128887
0.0101895
-0.0354466
0.00345544
0.0066453
6.08339e-05
0.000750185
0.00342324
-0.00841119
-0.000458204
0.000491392
0.000438024
-0.0151306
-0.00658653
0.00025705
0.00047954
0.000850425
0.00306655
0.019956
0.00588185
0.000575457
0.000258453
0.00660777
-0.000789224
0.0709013
-0.00144998
-0.00081988
0.110833
0.00614919
-0.0778579
0.0116153
-0.00425707
0.00764818
-0.00168369
-0.00416888
0.0146742
0.0285359
-0.025217
0.000407798
0.0781318
0.000740306
-0.00944682
-0.0536277
-0.0039596
-0.00121509
-0.00937081
0.000167982
0.0030332
-0.000167228
0.000467821
-0.00224011
0.0166505
0.0001336
0.0103942
0.00136647
-0.00248829
-0.0212017
-0.00270168
0.00310306
0.0002727
0.0158799
-0.00658432
-0.00120604
0.01656
0.00823083
0.000661542
0.000400461
0.000267284
-0.00071343
-0.0017932
0.00942853
0.00776944
0.024888
0.000465253
0.00522988
-0.00141254
-0.00105592
-0.00721725
0.000799014
0.029322
0.00593319
-0.000879998
0.0353915
0.000485268
-0.0813951
0.0189779
0.000641147
0.00629059
-0.00409703
0.111139
0.000545698
-0.070621
0.000420589
-0.00109038
0.000279257
0.00123709
-0.00253956
0.0020859
-0.00633557
-0.0448694
-0.0158
-0.00446148
0.000348095
-0.0348535
-0.030204
-0.0656695
0.000420719
0.089416
-0.0704023
-0.00123798
0.00577111
-0.00895142
0.000888065
-0.000177796
-0.000458682
0.000551314
0.000394277
0.000495349
0.0104122
-0.0343056
-0.00225804
0.00179525
-0.0521008
-0.0438127
0.00922066
0.00223949
-0.000128832
-0.00157083
0.00741618
-0.00125406
0.00651051
0.0130213
-0.0101852
0.0557885
0.00327908
0.0307661
0.00543655
0.000305539
0.00788264
0.000939922
0.000310227
0.0144608
-0.00821772
-0.0010463
0.0137228
0.000548985
0.000300977
-0.00239693
-0.0024293
-0.0687623
-0.00848088
0.0105642
0.000499284
-0.00727722
0.00324069
0.0736831
-0.0505936
0.00994717
0.000312783
0.00324912
0.041328
1.80221e-05
-0.00153402
0.000298766
0.00563472
-0.00274816
-0.000945348
0.00817387
-0.0102836
0.000949013
-0.0010642
0.00043265
0.000348902
0.00904754
-0.000467702
0.00294384
0.00768998
0.00516456
-0.0119215
-0.00349707
0.00685161
0.0655235
0.0168401
0.000502076
-0.000971537
0.00378941
0.0105369
-0.000512608
-0.00482863
0.0131172
0.000765522
0.0563196
-0.0806931
0.000251399
-0.00323036
0.00880555
-0.00606135
-0.0448339
-0.00415686
1.23715e-05
-0.0114788
-0.0792639
0.0099446
-0.000827895
0.0918033
0.000613603
-0.000813001
0.00814657
0.00629425
0.00737447
0.000455494
-0.000918939
0.011226
0.00050864
-0.0103428
-0.0483656
-0.00607469
-0.000500115
-0.00463244
-0.0005858
-1.25962e-06
-0.000624269
-0.00224
-0.000599708
-0.00182021
0.0105563
0.0166806
-0.00500404
-0.00994047
-0.000852221
-0.00303435
-0.00867261
0.000466316
0.000310225
-0.00275813
-0.00472323
-0.0440269
0.00826988
-0.0391839
0.00388074
-0.00303761
0.0115937
0.000353429
-0.0150715
0.00131994
0.00847766
0.00045047
-0.015856
-0.00421677
0.000925819
0.0551374
0.0010457
-0.00760537
0.000490158
-0.00269012
-0.00310937
-0.00523274
0.0083083
0.00512955
0.0472436
-0.012239
0.0107636
-0.00137046
-0.0105831
-0.00419057
-0.00122146
0.00024442
-0.00447804
-0.00672843
0.000114444
-0.000244594
0.0103446
-0.0153261
-0.0687721
-0.00263175
0.00198064
0.00386992
0.00863088
0.00409024
0.023393
-0.000785443
6.60661e-05
-0.00501318
0.00672233
0.00499027
0.00866943
-0.024924
-0.0179054
-0.00115677
-0.0678933
-0.000655254
0.0114294
-0.000367676
0.000152562
0.000132002
0.00848719
0.0245843
-0.00290182
-0.0516487
0.0597536
0.00261768
-0.0159683
-0.00463333
0.0100585
-0.0277144
-0.0296283
-0.00372143
-0.00556847
-0.00953331
0.00779808
0.00449241
-0.0673882
-0.00316889
0.0260096
0.0109692
0.000254302
0.0130266
-0.012258
-0.000671266
0.00629491
-0.0164235
0.00391591
-0.00102875
0.000498177
-0.000936223
-0.0367463
0.00033862
-0.0697587
-0.0810257
0.00165958
0.00086089
-0.0211303
0.0128039
4.5167e-05
-0.000874224
-0.0354809
0.0147716
0.000923931
0.00498103
0.0826653
0.00624819
-0.0154653
-0.00824919
0.0101119
0.000124386
-0.0709667
-0.00325076
0.00376619
-0.0860056
0.108665
0.00403725
0.0088241
-0.0183928
-0.000825162
0.00992473
0.000779858
-0.00158444
-0.00109087
-0.000266509
0.0162016
0.0987106
0.00868263
-0.000542508
0.000228215
-0.000196621
-0.00071628
-0.000393476
0.045946
-6.66527e-05
0.0495946
0.000422924
-0.000634534
-0.0443884
-0.00202699
-0.00530246
9.30365e-05
-0.0016508
0.000430509
0.010374
0.000427479
0.000213279
0.00116576
0.00122601
0.0453933
0.0053345
0.014579
-0.0529199
0.000209366
0.00855107
-0.0759518
0.00372213
0.0097218
0.00104332
0.0228508
0.032064
-0.0503932
-0.00526795
-0.00110365
-0.0011195
-0.0073135
0.000486514
-0.00284096
0.0114838
-0.00241421
-0.00459475
0.0367119
-0.00290106
-0.00108679
0.0144261
-0.11027
0.00577754
2.10034e-06
0.00908583
0.0004654
0.00822696
0.000539981
0.000528998
0.00848472
0.000113911
-0.00127243
0.0121464
0.0025654
-0.00103099
-0.00077317
-0.000667962
0.00613186
0.00746618
0.000774458
-0.00440272
-0.00199285
-0.0149189
0.000634163
-0.00358231
0.00131124
0.000464491
0.125112
-0.00179147
0.0070985
-0.00356932
-0.0525253
0.00615507
0.000497683
-0.000699979
0.0097595
0.000777095
0.0150698
-0.0665312
-0.0113909
0.010992
0.0487374
3.93491e-05
0.0118276
0.000786328
0.00717773
0.000502731
-0.0146729
-0.0150073
0.000326919
-0.013025
0.00905907
0.00736431
0.0137921
0.000521768
-0.000390096
0.000845938
0.000681558
0.00983102
0.000361133
0.000486329
-0.0117671
0.00057156
0.000742964
0.000490528
-0.050671
0.000614251
0.00724513
0.00917679
-0.00983537
0.0096581
0.00601862
0.00618203
-0.0097764
-0.00129
5.27281e-05
0.00779501
-0.000344005
-0.00394603
0.000497888
-0.0706226
0.0044665
0.0100015
0.0186802
-0.00705041
-0.00374887
-0.00392642
-0.000903455
0.00465892
0.00864098
0.00977355
0.00118535
0.0286416
0.00808258
0.00220759
0.00021331
0.0235998
0.000122328
0.00916615
0.000544121
0.00169218
-0.015897
-0.0353751
-0.00114089
0.00722891
0.0281339
0.0647536
0.0117011
0.00560318
-0.0105412
-0.00126508
7.71359e-05
-0.00159811
-0.00621663
0.000235741
0.000279573
0.00964176
0.000398363
0.0032631
-0.010503
0.000502462
0.000314825
-0.066765
-0.0755365
0.00103537
0.00034638
-0.0304254
0.00054097
0.0151051
-0.00229939
0.0145988
0.00727938
0.00024406
-0.0071517
0.0043707
0.000555423
0.000563933
-0.000479745
0.000512111
-0.00338034
0.00893542
0.0131693
-0.0673465
-0.00398476
0.00140958
-0.000533721
0.000562456
0.000487705
0.000226444
0.00037426
-0.0413976
-0.026109
0.000580677
-0.00419765
-0.0378683
-3.03423e-05
0.00615425
-0.00196023
-0.00302927
-0.000745341
0.0118402
0.0084023
-0.00537964
0.00801909
2.58418e-05
-0.00109988
0.000499358
0.000468188
0.0212941
-0.0675104
-0.0710045
0.0360262
0.00412234
0.00732489
0.00116661
0.0231405
-0.0165553
0.00801095
-0.0524068
0.00803563
-0.0780509
-0.000465265
-0.0132975
0.00250768
-0.00224553
-0.00667352
0.0468173
-0.0487714
0.000597371
-0.00293601
-0.000560396
-0.00296966
-0.000455691
0.00946457
0.000674998
0.00626931
0.00931628
-9.31069e-05
0.00254854
-0.0270184
-0.015691
0.00768169
-0.000186019
0.000416796
-0.0750318
0.00630756
0.000217248
7.06967e-05
-0.00050139
-0.000869895
0.00952625
0.000210195
0.0181804
0.00883069
0.000262913
0.000473618
-0.0114988
-0.0679938
0.00643916
0.0104095
0.000112377
0.00257464
0.00775469
0.000651296
-0.00731339
0.0420582
0.000695564
0.00139132
0.0111902
-0.00528317
-0.0270693
-0.0704493
0.00864189
-0.0490495
0.000551486
-0.00974753
-0.00185851
-0.000803217
0.000937497
0.0111918
2.38663e-05
-0.00925854
-0.00713519
-0.00103208
-0.0719369
0.00994775
0.00700779
-0.0202154
0.00572188
0.00281733
-0.00596578
0.00725492
-0.00121583
0.000616031
0.0126196
0.0051119
0.000548187
-0.00113762
0.0104724
-0.00120849
-0.00602567
-0.0155003
0.000116314
-0.00852758
0.00628077
0.00108454
-0.0108672
-0.000664793
0.00718865
0.000257707
0.0119881
0.00126734
0.0119368
-0.000718923
-0.00418185
0.00671323
0.0111069
-0.000969405
-0.00681207
-0.000333272
-0.00117612
0.0113946
-0.0387198
0.000499688
-0.0464449
-0.000692501
-0.00326161
-0.00126276
-0.00843755
-0.00362636
0.00391259
-0.00494193
0.00656694
-0.0204097
0.000370346
0.000434853
-0.0252621
-0.0112263
-0.00139006
-0.00233826
0.00729317
-0.00717917
-0.0125209
0.0102693
-0.00127276
0.00995268
-0.00159228
0.026841
-0.00186843
0.00179208
-0.00167221
0.000494667
-0.0034272
-0.000807274
0.00236927
0.00162659
0.0081323
0.00699422
0.00902061
0.0123289
-0.000511663
0.0154114
0.00580735
-0.0743391
-0.00303678
0.000105806
-0.0625867
0.00748201
-0.048237
0.00535332
-0.00443997
0.00229506
0.00822855
-0.0158769
-0.000326371
-0.00100363
0.000734398
0.000425618
-0.00213074
0.00537484
-0.00492046
-0.000610153
0.00352211
0.00712576
-0.0010561
0.00989299
3.81481e-05
0.00898719
-0.0771726
0.0563302
0.0095324
-0.0209474
0.000525647
0.00561748
0.0031698
0.000453423
0.00119265
0.000499039
-0.0128261
0.0290084
0.000252774
-0.000669759
-0.00386375
-0.000791811
0.00246148
0.000250359
0.000942201
0.000335416
0.00926394
0.000248628
-0.00387321
1.61712e-05
-0.00155317
0.0120785
0.0118322
0.000991054
0.0374638
-0.0023998
0.00120746
0.00769364
0.000935088
-2.42724e-05
0.0101952
0.00049893
0.00102153
-0.00485348
-0.00414785
-0.00663011
0.00351579
0.00991188
-0.00052512
0.027975
0.00781443
0.000442435
0.0027696
-0.0630295
-0.0048667
0.00500863
0.000448243
-0.000299175
-0.0130737
-0.00318358
-0.00125591
0.0194754
0.000398896
-0.013394
0.000471299
0.0100229
-0.00594874
-0.0120954
0.0036325
-0.000231834
0.00994472
-0.000816356
0.00368285
-0.00275219
0.00887158
0.00358166
0.000487308
4.31981e-05
-0.0308046
-0.0562596
-0.0562139
0.000289269
0.00790854
0.0392522
-0.00645832
0.000531331
0.0112138
0.000469387
-0.00471828
-0.0236409
-0.00665005
-0.000716737
-0.0507354
0.00090944
-0.00117571
-0.000126477
0.0119356
-0.0573072
-0.00140533
-0.00141183
0.00383126
0.000829827
0.000799065
-0.000545619
0.000453077
-0.0121627
0.000235231
-0.0331417
-0.00763445
0.0106116
0.0126668
0.00542139
0.00388211
-0.00133769
0.000867577
0.0056686
0.000291252
0.0199912
0.0106411
0.00108509
0.000507748
-0.00145669
0.0878406
0.0190632
-0.00151183
0.0268529
0.00663295
0.000627029
0.00933755
0.000246956
0.00463115
-0.00880845
0.00303946
0.00621295
9.77756e-06
0.0247057
4.56045e-05
0.000626173
0.015905
0.000186573
-0.00540216
0.00632126
0.0178594
0.00048499
0.0174008
-0.00661467
-0.00597777
0.0011752
0.0356428
-0.056582
0.00764607
0.000519258
-0.000895183
-0.00172085
0.00306843
0.00676457
0.0077519
-0.0360312
0.00647616
-0.0276629
-0.000531576
-0.0404864
0.00373584
-0.0012083
-0.00171664
0.000177469
0.0221845
-0.000590114
0.0581375
-0.0073271
0.000132689
0.00166555
0.00039784
0.00807283
0.00646746
0.00596754
-0.000672557
-0.00161012
-0.0525002
-0.00685254
-0.0221418
6.1826e-05
0.00091428
0.00219561
0.00560421
-0.00142845
0.0100148
-0.00274305
0.00341361
0.00788657
-0.000414909
0.0325911
0.00819048
0.0303609
-0.000512604
0.000995337
-0.0185951
0.0091403
-0.0812284
-0.00422279
4.95944e-05
-0.011317
-0.00211479
0.00911776
0.00168593
0.012372
0.000423692
-0.000327773
0.000240089
-0.000263376
-0.0189673
0.0211741
-0.0145901
-0.00765332
-0.0303779
-0.000561103
0.000611913
0.0230824
0.0186156
0.000205738
0.000122924
0.00897475
0.00475801
0.000455977
-0.000771233
-0.0135454
-0.0759047
1.20761e-05
0.00975993
-0.000538252
-0.00283644
0.00173739
0.0301127
0.0139283
-0.00108722
-0.00145159
0.00437879
-0.000595355
-0.0812448
0.000842276
-0.0725604
0.0061223
0.0138164
0.000163618
-0.00433127
-0.0695783
0.0771306
0.000399044
-0.00316172
-0.00124239
0.000323165
0.00108866
0.000394799
0.0091451
0.0225269
-0.000750242
0.00845275
-0.0444223
0.00740179
-0.00488597
-0.027133
-0.0043212
0.0319287
0.000486638
-0.0748536
0.00750241
0.00045478
0.000229235
-0.0277332
0.000421845
-0.0129872
0.00479039
-0.0282589
0.00783802
0.0142861
-0.00532331
0.00944653
-1.46623e-05
0.00990902
-0.0509015
0.0125173
0.00696356
0.00038036
0.0166767
0.00593086
0.00040726
0.00763382
0.00532776
0.00618372
-0.076003
-0.00039655
-0.0570081
-0.000595888
0.0293274
8.2278e-05
0.000408379
0.0148982
-0.0406113
-0.00620106
0.00199749
0.000898088
0.0346778
0.00605723
0.0175084
0.000309703
-0.000200456
-0.0749667
0.00587432
0.00514298
0.000156664
0.00798615
0.00017146
-0.00123672
0.000412189
-0.00333576
0.00065833
0.000381966
-0.00119698
0.00973559
-0.00641678
0.00349599
-0.024219
0.000928225
-0.00218094
0.00142329
-0.00551805
-0.00407581
-0.00065201
0.00403406
-0.00537755
0.0121596
-0.00887726
0.0223313
-0.000446238
-0.00176517
0.00731018
0.000909802
-0.00204226
0.00305066
0.022
0.00833915
0.0801967
-2.83791e-05
0.0043978
0.00794391
0.0165344
0.0207272
0.00240705
0.000516427
0.0010943
0.000642058
-0.000920758
-0.00199489
0.0674526
0.0954534
-0.00703135
-0.00652092
0.00984412
0.0152831
-0.0035168
-3.61443e-05
-0.0888944
0.01024
0.0010979
0.00768921
-0.000104241
0.000894818
-0.00760131
-0.0107724
0.00160086
0.0197016
0.000437167
-0.0726696
-0.000332562
0.00768278
-0.00528207
0.000444664
-0.00229117
0.00321564
-0.00635377
0.00017377
0.000606797
0.00109437
-0.0478758
-0.0147025
0.00932201
0.000710809
0.0176792
0.00653557
-0.0421478
-0.0445294
0.0137159
-0.00330131
0.00959321
0.00755028
-0.000439067
0.00825981
-0.0013593
0.00978837
-0.00166265
-0.000375711
0.00203063
0.000390245
-0.00107608
-0.0745342
-0.00359083
0.000229903
-0.00217495
0.0011731
0.00412603
-0.0656443
-0.072463
0.00670818
0.0283925
-0.0731695
-0.00160712
-0.0766084
0.00332238
-0.0030151
0.0100079
0.0112758
0.0076791
-0.0144115
0.00274052
-0.0716456
-0.0792644
0.00372629
-0.00412716
0.00993544
-0.0514196
-0.00369103
0.000121373
-0.0773159
-0.0705248
-0.0441378
0.00506976
0.000427622
0.00848081
0.000681959
-0.000300601
-0.00104695
-0.0019327
0.00995251
-0.006931
0.000963064
-0.00032493
0.00564398
0.00884284
0.0109768
-0.0622095
-0.00134465
0.000490948
-0.000115958
0.00634308
-0.00855197
0.0178491
-0.00447518
0.00792873
-0.00821613
0.000245446
0.00675786
0.000447382
0.00909445
0.00782681
-0.0018293
-0.00338701
-0.0100287
0.0283561
-0.00052163
0.00735912
-0.00106316
-0.00534185
-0.0706893
-0.000362076
-0.00504913
-0.0404319
-0.0554606
-0.000631701
-0.0748962
-0.0270869
0.00464444
0.00585213
0.000639174
0.00307587
0.00730119
0.0166892
-0.00057189
-0.00728232
7.39313e-05
0.000124231
-0.00909202
-0.00770309
0.000117509
0.0101054
5.77258e-05
0.000564442
-0.00119552
0.0291116
0.00147776
0.00605901
-0.0108268
0.00011058
-0.0113511
0.000109564
0.00111376
0.000823758
-0.00780066
-0.0645841
0.0025473
0.0225411
-0.00975688
-0.0463018
-0.0012189
-0.00103628
-0.000153094
-0.0523134
-0.0237273
0.00178444
0.00030915
-0.0761032
0.0104547
0.001827
0.00849981
0.0392222
0.00416431
0.0068085
0.000246962
0.0460523
0.00343131
0.00673828
0.0078245
0.000397912
0.000400031
0.00101557
-0.0117606
-0.033652
-0.0348358
-0.0115426
0.0103322
-0.000291684
0.00747706
0.000191511
0.000452615
0.000473035
0.00046019
-0.000520885
0.000332734
-0.00186319
-0.0726776
0.000922628
-0.0442172
0.0116847
0.000894127
0.000424963
-0.00367725
0.00361016
0.000487741
0.00188524
-0.0121556
0.00828629
0.000523316
0.000239613
0.000458992
0.00551838
-0.000719795
-0.0838545
-0.00809047
-0.000254166
-0.000136483
0.00665019
0.0159656
-0.000684346
0.000713667
-0.0678717
0.000468437
0.0102956
0.00726243
0.00673436
0.00286946
0.00909965
0.00640774
0.0318493
0.00995062
-0.000159627
-0.00243082
0.00261807
0.00511522
0.00415472
-0.025928
-0.0076672
0.00681247
-0.000241295
-0.00945904
0.00764651
0.0015379
-0.00401817
-8.3162e-05
-0.00225487
-0.0255542
-4.94005e-05
0.0446251
0.000808584
-0.00127352
-0.000712882
0.0069261
-0.0534245
0.00159942
0.0326867
0.00564761
-0.00820479
0.000567684
9.23212e-05
-0.00131832
0.00913131
0.000108048
-0.000623739
0.00946029
0.0274707
0.00569115
0.00815791
-0.00828665
-0.0305831
0.00905632
-0.00717185
0.000345804
-0.0242698
-0.00974624
0.0030446
0.00505805
0.00334754
0.0100439
0.00698718
0.00510635
0.00218003
0.00053684
0.0417522
0.00859174
0.000332758
0.00777652
-0.00882325
0.00604431
0.00625045
-0.00501732
0.000104939
7.80141e-05
0.000549057
0.00807268
0.000958682
-0.00504994
0.0123235
-0.00315158
0.000460549
-0.000453702
0.011652
-0.00491397
-0.00702603
0.000165093
-0.0265387
0.00114762
-0.0041331
-0.000150624
0.00162302
0.00100525
0.000654408
-0.00895866
-0.00295035
0.00028573
0.00715714
-0.0112974
-0.0644227
0.000492051
0.000826987
0.00586942
-0.00271749
-0.0148339
0.0071502
0.00373193
-0.00140218
0.00134612
-0.00355161
0.0165938
-0.00214473
0.00588337
0.000688986
-0.00241888
0.0155917
-0.0256441
0.00796867
-0.0224924
-0.00350638
-0.00200193
0.000517552
-0.0309305
0.00117285
0.00669883
-0.00120033
0.00764566
0.000473614
0.00056015
-0.000235875
-0.0556495
0.0155142
-0.0327268
0.00596028
0.00594043
-0.00102233
0.00207745
-0.00860403
-0.000187202
0.000501212
-0.000632283
-0.000330918
-0.00320056
0.0071088
0.00208766
0.0077904
0.00788554
-0.0150923
0.00051956
-0.00910531
0.00479063
-0.0165887
0.00607349
0.0113063
-0.0110486
0.00105284
-0.000375274
0.0150493
-0.000626405
-0.0052638
0.042315
-0.0242227
-0.0364404
-0.0267355
0.000457383
0.0127448
0.000461813
0.000494269
-0.00653412
-0.00369666
0.00552252
0.0085535
0.00603813
-0.0116135