/*--------------------------------*- C++ -*----------------------------------*\
  =========                 |
  \\      /  F ield         | OpenFOAM: The Open Source CFD Toolbox
   \\    /   O peration     | Website:  https://openfoam.org
    \\  /    A nd           | Version:  9
     \\/     M anipulation  |
\*---------------------------------------------------------------------------*/
FoamFile
{
    format      ascii;
    class       surfaceScalarField;
    location    "145";
    object      phi;
}
// * * * * * * * * * * * * * * * * * * * * * * * * * * * * * * * * * * * * * //

dimensions      [0 3 -1 0 0 0 0];

internalField   nonuniform List<scalar> 
167688
(
-0.0423047
0.0254336
0.0168711
0.00811995
-0.0735625
0.0654425
0.0355508
0.0482328
-0.0837836
0.0388141
-0.0839145
0.0451004
0.113838
-0.0967262
-0.0171122
-0.0730976
0.0131706
0.059927
0.0420299
-0.0247969
-0.017233
-0.0376145
0.0764286
-0.124861
0.0423199
0.0825414
-0.0262312
-0.00370087
0.0299321
-0.0516025
0.0597224
-0.0617351
0.0350729
0.0266622
0.116995
-0.0895312
-0.0274642
-0.0465779
-0.0151572
-0.0374828
0.0170159
0.0204669
0.0409821
0.0332828
-0.0742649
0.0211289
-0.00261584
-0.0185131
0.0214028
-0.0261487
0.00474589
0.0301907
0.0387863
-0.068977
0.107975
-0.0661518
-0.0418227
-0.0863905
-0.0214793
0.10787
0.052283
0.0520811
-0.104364
0.062609
-0.0324183
-0.0887668
0.0646254
0.0241414
0.0877556
-0.00657388
-0.0811817
-0.0820809
0.0333633
0.0487176
0.0123469
0.0105452
-0.022892
0.071848
-0.0801961
0.00834803
-0.0911634
0.0180658
-0.00226334
-0.0841271
0.0117447
0.0691913
-0.080936
0.0613208
-0.0577231
-0.00359771
0.136435
-0.122922
-0.0135133
-0.0201196
0.0130903
0.00702931
-0.0710547
-0.0538066
-0.118896
0.0793504
0.0395453
0.0523334
0.0556411
0.00462778
-0.0141671
0.00953928
0.0263233
0.0382808
-0.0646041
-0.0591257
-0.0370054
0.0961311
0.0338676
-0.092325
0.0584574
-0.0635579
0.0145052
0.0490526
-0.0743033
-0.0109009
0.0852043
0.0648444
-0.0292935
0.0414524
-0.0200497
0.0401374
-0.066976
0.0268387
-0.0153559
-0.00476371
-0.0856467
-0.018644
0.104291
-0.0944874
0.0326055
0.0618819
-0.00245468
-0.0611032
0.0692885
-0.0288072
-0.0404813
-0.0267224
0.0234779
0.00324447
0.0941345
-0.0894125
-0.00472199
-0.0551136
0.0814368
0.00636134
-0.0699284
0.0635671
0.0229067
0.0191232
-0.0836228
0.0408774
0.0427454
0.0745658
-0.00387368
-0.0706922
-0.0345975
0.00453591
0.0300616
0.0723458
-0.0322084
0.0085779
0.0326854
-0.0412633
-0.0175855
-0.0680612
0.118823
-0.034662
-0.084161
-0.00107305
0.119896
-0.00718135
-0.0295931
0.0367744
0.125613
-0.0729197
-0.0526938
0.0144336
-0.00980581
0.112908
-0.09336
-0.0195482
-0.0613521
0.00557521
0.0557769
-0.0847914
-0.0163333
0.101125
0.0721088
0.00245708
-0.00305571
0.00363252
-0.00057681
-0.0617384
-0.0270284
-0.0269812
0.0213995
0.00558163
-0.0171781
0.0417179
-0.0245398
-0.00973611
0.012831
-0.0030949
0.0903073
-0.00566099
-0.0846463
-0.019398
0.0462308
-0.0234548
-0.022776
-0.0585279
0.00341429
0.00347947
0.0686182
-0.0720977
-0.00224665
-0.00748946
0.046982
0.0223065
-0.0646944
-0.0173864
0.111692
-0.0707103
0.0157359
-0.0699104
0.0541745
0.0717484
-0.0510496
-0.0206988
0.0667965
-0.0604352
0.0295234
-0.0105244
-0.018999
-0.0662322
0.0842532
-0.0180211
0.13694
-0.0596634
-0.0772762
-0.0497915
-0.0691042
0.0356922
0.0360562
0.0387256
0.0751128
0.0276613
-0.0448394
0.118403
-0.028096
0.0760116
-0.0489339
-0.0270776
-0.0283341
-0.00914874
0.0787734
-0.0670287
-0.0565818
-0.027041
0.0589445
0.0580509
0.113649
-0.109014
-0.00463484
-0.0931277
0.0673491
0.0257787
0.0631641
-0.102627
0.0394633
-0.0062019
0.0363215
-0.0301195
-0.0182019
0.00381748
0.0143845
-0.0484831
0.0413018
-0.0653535
0.0975159
-0.0321624
0.0789315
-0.118272
0.0393406
-0.0639347
0.0796706
0.00137934
-0.00443506
-0.0511438
0.0495852
0.00155862
0.0451944
0.0316737
-0.0768681
-0.0724769
0.0468954
0.0255815
-0.0754378
0.0140857
-0.0578077
0.0202116
0.0375961
0.042359
-0.00475378
-0.0376053
0.00686391
-0.0727323
0.0658684
0.0103048
0.0192186
-0.127195
0.0894307
0.037764
0.0510698
-0.0822889
0.0312191
-0.0080723
0.0799203
-0.0400315
0.0138003
0.0559777
-0.0789321
0.0229544
-0.0556345
0.0895021
-0.0200741
0.0832382
-0.00303418
-0.0171815
0.0202157
0.00134521
0.0648558
-0.066201
-0.0849693
0.0217872
0.0631821
0.0338785
-0.0400804
-0.0265971
0.0825747
0.0304336
-0.0180868
0.0210258
0.0709506
-0.0919764
0.0210922
-0.00450344
-0.0165887
-0.0161311
0.0544119
-0.105616
0.0464904
0.128841
-0.0907198
-0.0381213
0.102846
-0.0744274
-0.0284183
-0.0440532
-0.0276438
0.071697
0.0611507
0.00544331
-0.066594
0.0397993
0.0630464
-0.0805332
0.0650572
0.015476
-0.0712089
0.000432215
0.0707767
-0.00858832
0.0135307
-0.0049424
0.0138687
-0.0792221
-0.0695217
0.0389421
0.0305796
0.0240514
0.00557536
-0.0296267
-0.117023
0.0342662
0.0827571
0.0760721
-0.0692082
-0.0928202
0.0858502
0.00696997
-0.0188738
0.000671891
-0.0330327
0.0853157
-0.0366757
0.0515057
-0.01483
0.0100348
0.0840997
-0.0868601
0.0428069
0.0707408
-0.0351653
-0.0355755
-0.0864524
0.0749756
0.0114768
-0.0255889
-0.046888
-0.0365837
0.00198621
0.0373086
-0.00213149
-0.0351772
0.097702
-0.0525076
-0.0993931
0.0669839
0.0324091
0.00795943
0.0451975
-0.0531569
-0.0730502
0.0364152
0.036635
-0.0868265
0.0942085
-0.00738196
0.0842251
-0.0054147
-0.0788104
0.0522733
0.00499571
-0.0572691
0.022901
0.0384198
-0.0881849
0.00738385
0.080801
-0.0564691
0.0604592
-0.00399005
0.0178962
0.0426241
-0.0605204
0.0651727
0.00556809
0.0895073
-0.0815479
-0.0191215
0.0105332
-0.0173376
-0.0457515
0.0630891
-0.0451766
-0.0820181
-0.0899586
-0.00452883
0.121546
-0.0303832
-0.0911627
0.0650378
-0.0501322
-0.0149056
-0.0120487
-0.0710226
0.0830713
-0.0523046
0.0349671
0.0847765
0.019734
-0.104511
-0.116271
0.0149232
0.101348
0.0721913
-0.102155
0.029964
-0.0714605
0.0440989
0.0273616
-0.0457705
0.0332774
0.0124931
-0.0552781
-0.0441149
-0.00406298
-0.0827636
-0.0734567
0.00224778
-0.0691995
0.0192226
0.0499769
0.0103142
0.0495548
-0.0598691
0.085225
0.0512104
-0.106762
0.0405299
-0.0199444
0.0710141
0.100511
-0.0476069
-0.0529039
-0.140472
0.0977248
0.0427473
0.0591439
-0.0669705
0.00782659
-0.0079299
-0.0432139
0.0997819
-0.0435517
-0.0562302
-0.0293823
-0.0570701
0.00152087
-0.0135168
0.011996
-0.0179385
0.0423237
-0.0243852
-0.0284612
0.0370391
0.0227999
-0.0756383
0.0528384
-0.0742266
-0.0299926
0.104219
-0.0347629
-0.0230448
-0.0197316
0.00432258
0.015409
0.0200982
-0.04452
0.0244218
0.0330096
-0.0118807
0.0758048
0.0157074
-0.0915122
-0.0983989
0.0745669
0.023832
0.114716
0.00242376
-0.11714
-0.0154561
0.0395075
-0.017323
0.079948
-0.00393644
-0.0201514
0.0402496
0.0555097
-0.0376135
-0.056907
-0.0050181
0.0619251
-0.134128
0.0434374
0.0906902
0.082329
-0.0301634
-0.0521656
-0.105858
0.0208323
0.0850257
0.0191303
-0.0435073
0.024377
0.0949496
0.0306639
-0.00819732
0.045506
0.0636004
-0.015477
-0.0481234
-0.112517
0.024332
0.017601
0.0960476
-0.0185266
0.0472086
-0.028682
-0.0420839
0.0701677
-0.0280838
0.0742025
-0.105696
0.0314932
-0.113875
0.0394524
0.0744229
-0.0724168
-0.0617107
-0.0416858
-0.0297747
-0.114841
0.0489331
0.0659075
0.0294889
0.000265369
-0.0297543
-0.0857719
0.0241707
0.0616012
-0.0857071
-0.054765
-0.0345248
-4.4131e-05
0.00044395
-0.000399819
-0.0020417
-0.00440841
0.00645012
-0.0655877
-0.0160446
0.0816323
-0.0380947
0.0488876
-0.0107929
0.112513
-0.0796733
-0.03284
-0.113398
0.0478099
-0.0162267
-0.0672476
0.0834743
0.0400503
-0.0105614
0.0678136
0.0079834
-0.075797
0.0297242
-0.0631733
0.0334491
0.112513
-0.0578838
-0.0546287
0.0213458
0.0609832
0.0242518
0.035546
-0.0597979
0.103327
-0.0185504
0.0243282
-0.0149617
-0.00936647
0.0921219
-0.0376054
-0.0545166
0.00358862
0.0555553
-0.0112338
-0.0815864
0.0582154
-0.0479011
-0.0906894
0.00572008
0.0336095
-0.0146415
-0.0189681
-0.0183208
0.0856698
0.0539777
0.00962264
0.0296574
-0.028863
-0.000794484
0.0222775
0.0619476
-0.0160348
-0.0297357
-0.00313299
-0.0132441
0.016377
-0.0769121
0.00771261
0.0122743
-0.0865009
0.0452194
0.0763265
-0.00961467
-0.0327855
0.0424002
0.0410198
0.0718883
0.0632117
-0.0389598
-0.0341508
-0.0181296
0.0522803
0.0663008
0.0334812
-0.0332135
0.00649117
0.0322775
0.0425829
-0.0748604
0.000705354
0.0374574
-0.0381628
0.0206203
0.0220238
-0.0426441
-0.000396726
0.000359285
3.74415e-05
-0.000360335
-3.63912e-05
0.014128
0.0102002
-0.00263406
0.0815656
-0.0812981
0.0660827
0.0152154
-0.0228764
-0.0150435
0.0379199
0.0549419
-0.0625124
0.00757044
0.101379
-0.0836757
-0.017703
0.0323803
0.0326575
0.100962
-0.0264029
-0.0745591
0.124667
-0.0310611
-0.0936061
0.0836145
-0.0822693
-0.0349925
0.0253778
-0.0921892
0.0486894
0.0434998
0.0104128
0.0613207
-0.0717335
-0.0459512
-0.0301076
0.0760588
0.110718
-0.0560868
-0.0546311
-0.0680761
-0.0467646
0.0574295
0.0439492
-0.0533959
0.0687722
-0.0153763
0.0850682
-0.0837355
-0.00133272
0.101856
-0.0597922
-0.0420637
0.104039
0.0329009
0.106351
-0.0412254
-0.0651257
0.0814706
-0.00927927
0.02422
-0.0427465
-0.110001
0.102384
0.00761657
-0.079013
0.0623919
0.0166211
-0.0507057
0.0717315
0.000665011
-0.116936
0.0531448
-0.0744023
0.0212575
0.0853217
-0.0530442
6.87173e-05
-0.0742738
0.074205
-0.0207167
-0.0958993
0.0505942
0.0453051
-0.127659
0.0396688
0.0879906
-0.0951629
0.0117255
0.0834374
0.00189826
0.0421439
-0.0440422
0.0474152
-0.0282849
-0.0219698
-0.0333946
0.0553644
-0.0882048
0.00243289
-0.104732
0.0729732
0.0317591
0.0968893
0.00496661
-0.0836214
0.0673947
0.02181
-0.000717857
0.0104097
-0.0312214
0.0208117
0.105299
-0.0202308
0.0681552
-0.000341554
0.052904
-0.0859668
0.0330628
-0.0366042
-0.043929
-0.082431
0.00812765
-0.0586508
-0.0226472
0.0806489
0.0481922
-0.0667104
0.0246265
-0.0475161
-0.0243845
0.0719006
0.054501
-0.0121419
0.0655532
-5.5642e-05
-0.0654975
0.0993818
-0.0422266
-0.0571552
-0.0171305
-0.0553837
0.0725142
-0.0221171
0.0963197
0.0409708
0.0486964
-0.0896673
-0.0125785
-0.0833208
-0.05758
0.0266039
0.0309762
-0.00980715
0.011328
-0.0230066
0.0199724
0.113519
-0.0257635
-0.10968
0.085568
0.0241117
-0.0834695
0.0210886
0.0623809
-0.0296402
0.0593644
-0.127425
0.0104014
0.0644819
-0.053771
-0.0107109
-0.00791069
-0.0485584
-0.066886
0.0703654
0.00619853
0.0182777
-0.0244762
0.0105811
0.0262458
-0.0368269
-0.000213953
-0.0240705
0.0242844
0.0178105
-0.000549707
-0.0172608
-0.0638207
-0.00264744
0.0664681
-0.07308
0.00925931
-0.0186592
-0.00786593
0.0265252
-0.0912407
0.079192
0.125336
-0.124645
-0.000690723
0.0165881
0.0229394
-0.0395275
-0.0336807
0.0112176
0.0224631
0.0545087
0.0708273
0.0823138
0.017068
-0.00774405
0.00676625
0.000977799
0.0325828
0.0799297
0.000465406
-0.000509537
-0.0374986
-0.0200815
-0.0126368
-0.0362207
0.0488574
0.0798449
0.0265063
0.0480607
-0.081413
0.0333523
-0.027916
-0.00823091
0.036147
0.0065178
-0.0344338
-0.0307933
-0.0131047
0.043898
0.0180621
0.00625468
-0.0243168
-0.000534172
0.000412526
0.000121646
0.129248
-0.0433098
-0.085938
0.0704984
0.0587493
0.0774521
-0.0800922
0.00264015
-0.0317294
-0.00865917
0.0403885
0.10215
-0.0484572
-0.0536931
-0.0597366
-0.0679228
0.0876482
-0.096942
0.00929382
0.0371572
-0.0205691
-0.00149677
0.0591014
-0.0576046
0.0054546
0.0476902
0.106189
-0.00654069
-0.0996484
0.022355
0.0838341
0.00137729
-0.0582843
-0.0393195
0.0164431
-0.0295598
0.0311432
-0.00158347
-0.0354924
0.000198874
0.0352935
0.00590705
-0.0752217
0.0693147
-0.013458
0.0713905
-0.0579325
0.0275731
0.0228558
-0.0504289
-0.0277026
0.0007214
-0.0801609
-0.0120283
-0.0990876
0.0654182
0.0336694
-0.04556
-0.0213212
0.0668813
-0.0168898
0.0137662
0.00312368
-0.0650136
0.0515556
0.00444773
0.0252097
-0.00770323
-0.0277891
-0.00431286
0.00469375
-0.000380885
0.0520447
-0.0212983
-0.0307464
0.0158904
-0.0759859
0.0600955
-0.0245491
0.0233226
0.00122655
0.0703928
-0.0359489
-0.0344439
0.00543949
-0.0902309
0.106286
-0.0213344
-0.0849512
0.111251
-0.0932104
-0.0180408
0.068394
-0.00284082
0.0679592
-0.0922457
0.0242865
-0.0414135
-0.0442069
0.0856203
0.0950494
-0.0270902
-0.0723821
0.0552516
0.0474701
-0.0674114
0.0199413
0.0310907
0.0432238
-0.0743145
0.0527129
-0.0508146
-0.0999878
0.0908043
0.00918343
0.0558895
-0.0668301
0.0109406
-0.0158137
0.0262233
0.0789427
-0.110044
0.0311011
0.0626957
0.00232903
-0.0650248
0.0831953
-0.0805344
-0.00266086
0.0896197
0.0113423
0.0643937
0.0114665
-0.0758603
0.00950193
-0.0428597
0.0333578
0.0879177
-0.0232585
-0.0646592
0.0306309
-0.0526007
0.0272938
0.043099
0.0532632
-0.0946767
-0.0583832
0.02759
-0.0709881
0.00805915
0.0629289
0.0150154
0.00391633
-0.0189317
0.00747912
-0.0325637
0.0250845
0.0242447
-0.0180461
0.0656924
0.0250646
-0.090757
-0.0038514
0.0683333
-0.00844738
0.00640568
-0.0241059
-0.00227364
0.0263795
0.0616374
0.00275633
-0.0282368
0.0692076
0.073902
-0.0428113
-0.00990715
0.029118
-0.0192109
-0.0938813
0.00985176
0.0840296
-0.133655
0.120525
0.0131299
-0.0250611
0.00640183
0.00833401
-0.0324399
-0.0834276
0.0359116
0.0196753
-0.0652354
0.0722999
-0.0111493
-0.0379475
0.0890491
-0.0511016
0.0150682
0.0638745
-0.0138707
0.0688127
-0.0115248
0.0644288
0.00700342
-0.00345003
-0.00355339
0.0653451
-0.0842979
0.0189527
-0.0541161
0.076916
0.0298972
0.0194249
-0.0493221
-0.076211
0.0762798
0.030265
0.0760206
-0.0584838
-0.0110379
0.067356
-0.0569432
0.0853996
-0.0703899
-0.0150097
-0.00619753
-0.0318972
0.0575858
0.0305402
-0.088126
0.0720925
0.00924471
-0.0813372
0.050393
0.00165166
0.0430811
-0.0890323
0.0957394
-0.0374001
-0.0583393
0.0144851
0.0731631
0.0541345
0.0605817
-0.083192
0.012204
-0.0710739
0.00240645
0.0686675
-0.0115069
0.044231
-0.0327241
-0.025656
-0.0369766
0.0626326
0.132458
-0.0802023
-0.0522561
-0.0364545
-0.0694036
-0.0882115
0.0919274
-0.00371587
-0.0171697
-0.0779933
0.024598
-0.00678748
0.000640077
-0.000497297
-0.00014278
-0.0644406
0.0629439
0.0510216
-0.00479077
-0.0160897
-0.0507257
0.0668154
0.0260214
0.00758819
-0.0205409
-0.0253424
0.0458833
-0.0863117
0.00284214
0.0545882
0.0579251
0.0497571
0.0827013
0.0943735
-0.0344065
-0.059967
0.0494656
-0.0538548
0.00438918
-0.0304484
-0.0485646
-0.0352228
0.0928086
0.0439652
-0.0344632
-0.0878243
-0.0043073
0.0921316
-0.121393
0.0945411
0.0268524
-0.0868237
0.0129443
0.0738794
0.113559
-0.00284137
0.105493
-0.0607664
-0.0447262
-0.0344894
-0.0345721
0.0690615
0.0948004
0.0106921
0.00601751
-0.0938418
-0.00316005
-0.0502359
0.129005
-0.0692379
-0.0597669
-0.0892106
-0.0128183
0.102029
0.141925
-0.0482399
-0.0936848
0.0246637
0.0129238
-0.0375875
0.117161
-0.111976
-0.00518485
0.106664
-0.0345711
0.021326
-0.00942184
0.0229763
-0.0135544
0.0163855
0.0421298
-0.0585152
0.0441262
0.067125
-0.000877901
0.0103286
-0.00945067
-0.0742513
0.0849189
-0.0106676
0.0473192
-0.121571
0.108941
-0.0145672
0.0144735
-0.0243807
-0.0149618
-0.03499
0.0499518
0.0904907
-0.0266793
-0.0638114
-0.0233128
-0.0360827
0.0593955
0.064192
0.0604752
-0.0900733
0.08516
0.0049133
-0.0267213
-0.0217386
0.0484599
-0.000557821
0.0264482
-0.0258904
-0.0984713
-0.0177304
0.116202
-0.0191947
-0.000536929
-0.0969466
0.00873516
0.113319
-0.081683
-0.0316358
-0.0944145
0.056467
0.0190825
0.0583696
-0.00260868
0.0182591
-0.0156504
-0.0194213
0.0162883
-0.12532
0.0601138
0.0652059
0.0609024
-0.027685
-0.0332173
-0.0269756
0.0756869
-0.0487114
0.00661142
-0.0122098
0.00559839
-0.0980105
0.0862234
0.0117871
0.127227
-0.0129195
-0.114307
0.113043
-0.047351
0.0882214
0.0390054
-0.00525393
0.0118653
0.038447
-0.0274182
-0.0110288
-0.0700954
0.0154942
0.0546012
-0.057139
-0.0674935
-0.00260193
0.037816
-0.0518792
0.0140633
0.0635255
-0.00763598
-0.0187578
-0.0618736
0.0806314
0.0292438
0.00920322
-0.0837685
0.00328526
0.0804833
0.0385284
0.0346146
-0.073143
0.0207741
-0.0477717
0.0269976
-0.058649
-0.0627445
-0.0373671
-0.0723126
0.0262407
0.0122166
-0.0384574
0.0583033
0.0958853
0.0359564
-0.0284772
-0.00222968
0.00664061
-0.00441094
-0.0980317
0.107217
-0.00918523
0.0480412
-0.0785639
0.0305228
-0.0625311
0.0280417
-0.00738806
-0.000355987
0.0207131
-0.110786
-0.0798732
0.0765936
0.00327967
6.37255e-05
0.000295559
-0.0831048
0.0670151
-6.95426e-05
-0.000290792
0.0542532
-0.0168085
-0.0374447
0.0311094
-0.0426163
-0.0709306
-0.00130334
0.072234
-0.0123436
-0.0221055
0.0344491
0.110516
-0.0279591
-0.0825566
-0.058336
0.0996382
-0.0413022
0.0729198
-0.0095108
-0.063409
-0.0666653
-0.00440862
0.0968787
-0.0446053
-0.0297869
0.00523783
-0.0136153
-0.0863725
-0.0485289
-0.0851262
-0.065852
0.0290813
0.0367707
-0.019727
0.0826056
-0.0628786
-0.0137492
0.0618694
-0.0481202
-0.0158432
-0.082628
-0.043285
0.0485903
-0.00530528
0.00040704
0.0374089
-0.0824814
-0.00714944
0.0896309
-0.009479
0.0599811
-0.0505021
0.0850087
-0.0120889
0.0257358
-0.0590895
0.0333537
-0.0151111
0.12843
0.0686874
-0.0429515
0.0872443
0.014906
0.0118667
0.0713287
0.0753485
-0.091439
0.0160905
0.0187086
-0.0722177
0.0535091
-0.0481988
0.0882686
-0.0400698
0.0601083
0.0404025
-0.0358922
-0.0461172
0.0820094
-0.0134942
-0.0427619
0.056256
0.0306299
0.0547697
-0.00251774
-0.0479273
0.0504451
0.0905714
0.00155048
-0.0502727
0.0235514
0.0642416
0.0162845
-0.0805261
0.092484
-0.0223274
-0.0701566
0.0384429
-0.0341751
-0.00426778
-0.145131
0.0501553
0.0949759
0.00735345
-0.0587877
0.0514342
-0.052779
-0.00524207
0.058021
0.0168452
-0.0788671
0.0620219
-0.088871
0.0371706
0.0517004
0.0136023
0.00706089
-0.0206632
-0.112633
0.0288645
0.0937819
0.0918529
-0.0405426
-0.0513103
0.046562
-0.0600561
0.024522
-0.0465468
-0.00909547
0.0556423
-0.0928912
0.0712714
0.0216198
-0.0408552
-0.0691457
-0.0605259
0.0773711
-0.0162366
-0.072974
-0.0134791
0.0381428
0.106283
-0.0580942
-0.0481891
-0.0791739
0.0459883
0.0331856
-0.0232394
0.0713001
-0.0553829
0.0427461
-0.00678635
-0.0101035
0.000389405
-0.000234696
-0.000154709
0.0890585
-0.0639742
-0.0250843
-0.00318724
-1.14566e-05
0.0031987
0.0507627
0.00190297
-0.0526657
-0.100568
-0.0247521
0.117495
-0.064574
-0.0529211
0.090826
-0.0400633
0.0924776
-0.0965143
0.00403672
0.0583986
-0.0781256
-0.117737
0.0672
0.0505371
0.0249515
0.0675261
-0.0981591
0.0820306
0.0161285
-0.0278064
-0.0520669
-0.0283197
0.0300718
-0.0017521
-0.0264193
0.0333202
-0.00690093
-0.0155716
0.0147387
0.000832859
-0.00123275
-0.0407418
0.0419746
0.00658614
-0.00881581
-0.0433442
-0.0455268
7.16103e-06
0.000632916
-0.0521456
0.0918284
-0.0396829
0.0363351
-0.0790999
0.0427648
-0.044928
0.0403329
0.00459518
-0.0432238
0.0795588
-0.0265296
0.0745707
-0.0733741
0.0324346
0.0409394
-0.0428327
0.057443
-0.0146103
-0.0700504
0.038321
0.0698075
-0.0170442
-0.0527633
0.0395254
0.0179283
-0.0574537
-0.0413349
0.0401021
0.0972139
-0.00929625
0.0432145
-0.0139342
-0.0292803
0.072084
0.00698056
-0.0790645
-0.061006
-0.0293159
0.0903218
-0.0603105
0.0137637
0.0261398
-0.0384834
-0.0718654
-0.0732658
0.0231266
-0.0713253
-0.0696583
0.0549238
0.0147345
-0.0223026
0.0430767
0.10093
-0.0622744
-0.0386559
-3.12343e-05
0.0210181
-0.0209868
0.0966481
-0.046036
-0.0506121
0.113976
-0.0449664
-0.0690099
0.0392996
0.0285988
-0.0678984
-0.0221189
-0.0228091
0.00985712
0.000904433
-0.0107616
0.0960158
0.0224771
0.0709851
-0.0934622
0.00763765
-0.0597832
-0.0225477
0.0785433
-0.0559956
-0.0174143
0.0380345
0.103482
-0.0231611
-0.0803207
-0.0583269
0.0403884
-0.0689215
-0.00212919
0.0710507
0.0601819
-0.0960741
-0.0417244
0.0376416
0.00408275
-0.0427111
0.0590966
-0.0141581
-0.0515363
0.0656944
-0.0905888
0.0722942
0.0182946
0.0449603
0.0296042
-0.0745645
0.0462282
0.00735738
-0.0535856
-0.034458
0.00803867
0.0341223
0.00909228
0.0108488
-0.0202707
-0.0587518
0.0311585
0.0275933
0.0729142
-0.00246123
-0.0704529
0.0420314
-0.0413261
-0.065092
0.0724455
-0.0814612
0.12628
-0.0448187
0.00139498
-0.04468
0.0084158
-0.089877
-0.0991113
0.0381053
0.0450105
-0.00424726
-0.0407632
-0.0981591
-0.0881674
0.0694095
-0.000668682
-0.00104536
0.00171404
0.0478889
-0.062047
0.0493721
-0.019475
-0.0101653
-0.0477265
0.0578918
0.0540997
-0.0766474
-0.0659825
0.0583266
0.00765598
-0.0614195
0.0673265
-0.0151689
0.0640097
-0.0488408
-0.0452941
-0.0134577
0.0855085
-0.0696181
-0.0541961
-0.0211286
0.0753247
0.047204
0.0602896
-0.107494
-0.0873963
0.0515245
0.0358719
0.0292625
0.0455807
-0.0748432
-0.0389262
-0.0591055
0.0531785
0.00279689
-0.0559754
0.0341647
0.0829963
0.0816252
-0.0420998
-0.0343261
-0.0315259
0.0054256
0.0134872
-0.0189128
0.00651483
-0.0875295
0.0810147
-0.0438588
0.0200472
0.0238116
0.0887243
-0.0902785
0.0015542
0.00388543
0.0290997
-0.0329851
0.0153216
-0.0179303
0.035348
-0.0883565
0.0530085
0.0518036
0.0256282
-0.0774318
-0.0278011
-0.0899359
-0.0035506
0.0171529
0.066515
-0.0835947
0.0170797
-0.0895524
-0.00122328
0.0907757
0.0625313
0.0113017
-0.073833
-0.050602
0.0495499
0.00105217
-0.0132343
-0.0735893
0.0377784
-0.0146702
-0.0231082
0.0563179
-0.0100897
0.0256678
-0.0191408
-0.00652695
0.0825794
-0.0198837
0.0195914
-0.0649284
0.045337
-0.0682429
0.0154639
0.0983533
-0.0348398
-0.0635136
-0.0254432
0.0647428
-0.0586141
0.106186
-0.0475723
0.104761
0.00759195
-0.112353
-0.067739
-0.00817881
0.0759178
0.00965507
-0.0793134
0.100045
-0.069356
-0.0306886
-0.0387403
0.0565272
-0.0177868
0.0985649
-0.0467613
-0.0589553
0.0814324
0.0363304
-0.0365444
0.0190162
-0.0839173
0.0649011
-0.0929817
0.0252428
0.0188074
-0.0193652
0.0726478
-0.00284026
0.0642525
-0.0329904
-0.031262
-0.0274513
0.0157653
0.011686
0.00910084
-0.00997874
-0.028163
-0.0543184
0.0945903
-0.0699067
-0.0246836
0.012063
-0.0753989
0.0633359
-0.0897962
0.0201918
0.0696044
0.019378
0.0853827
0.0805135
-0.0139985
0.02569
0.0520205
-0.0777106
-0.132234
0.0607967
0.0714375
-0.0984115
-0.0338227
-0.0423693
0.0700819
-0.0277125
0.00792795
-0.00850199
0.000574045
-0.0753265
-0.0182379
0.0935644
-0.00518415
-0.0690349
0.074219
0.0376483
-0.0270672
0.00414199
-0.0388632
0.0347212
0.0392588
-0.0392901
-0.0993035
0.0095073
0.0910968
-0.0723882
0.0118792
-0.0207196
0.00884042
0.0771245
-0.00151899
-0.0756055
0.0394377
-0.0907184
0.0512807
-0.0347964
0.0833107
-0.0485143
-0.125116
0.0529771
0.0721392
0.036675
-0.032533
0.0423638
-0.11769
0.0344256
-0.0660102
0.0315846
-0.102649
0.0639302
0.0387184
0.0586259
-0.0440053
-0.0146206
0.104035
-0.0520958
-0.0519397
-0.000246855
-0.0636987
0.0639456
-0.026895
-0.00678567
0.0904227
0.0130591
0.0304327
-0.0627831
0.0323504
0.0863227
-0.046885
-0.0303354
-0.0560865
0.0864219
-0.0383092
0.00562812
0.0326811
-0.0707121
-0.0544042
0.0798175
0.0211129
0.00578588
0.00118462
-0.00697049
-0.0785443
0.0906074
-0.066096
0.0185645
0.0475314
-0.0846439
0.0504931
0.00659885
0.0600556
-0.0666544
-0.0413435
-0.0452397
0.0865833
-0.0364711
0.0392354
-0.00276432
0.00757167
0.0811527
-0.0505342
-0.0286396
-0.0598835
0.0393426
-0.042003
-0.0560075
-0.0628521
0.00312228
0.0597298
0.0112743
0.0777842
0.0356942
0.0567897
0.0285329
-0.0846007
0.0560678
0.0615414
0.042494
-0.014394
-0.0458124
0.0602063
-0.080085
0.0312134
0.0488716
-0.101222
0.025757
0.0754649
-0.0940471
0.0190907
0.0749564
-0.0414546
-0.0524997
0.0939543
-0.00664128
0.00232842
-0.00698763
-0.0296881
-0.0776218
0.0542691
0.0233527
-0.00227729
0.0554558
0.115325
-0.105019
-0.0103061
-0.048199
0.0767319
0.0345884
-0.0165262
-0.00517592
0.0319313
-0.0267554
-0.0308429
0.0981929
-0.06735
0.00175221
-0.0024209
0.0610191
-0.0696099
0.0085908
-0.094748
0.0547322
0.0400158
-0.0732535
-0.0234731
0.0967267
0.0101357
-0.0488761
-0.068549
-0.00907273
0.0455302
-0.0763731
-0.000190898
-0.000343274
-0.00709864
0.0404737
-0.033375
0.0967027
-0.0674402
-0.0611119
-0.0415367
0.0711059
-0.095179
0.0240731
-0.00271386
-0.00711851
0.00983236
-0.0495408
-0.0378555
-0.0181841
-0.0266685
0.0448526
0.0489934
-0.0962223
0.0472289
-0.0315609
0.0659865
-0.0753541
0.0819529
-0.0237811
-0.00367023
-0.0411078
0.0901012
-0.0757467
0.0128947
0.0822471
-0.0614442
-0.0208029
-0.0468183
0.0312815
0.0155368
-0.0783037
0.0973199
-0.00799407
0.0637532
-0.0557591
0.092292
0.0216843
0.0153241
-0.00546694
-0.041879
0.0783363
-0.0364573
0.0987915
-0.034134
-0.0646575
0.0490718
0.0095541
0.0126049
0.0416483
-0.0456106
-0.0491374
0.0200865
-0.09334
-0.0506003
0.0324163
0.0320514
0.107074
-0.0104257
5.3147e-05
0.0542674
-0.0543206
0.0704254
-0.0440722
-0.0263532
0.000797407
-0.0436301
0.00467877
0.0103369
-0.0150157
-0.00975702
0.014838
-0.00508095
-0.066676
0.0641582
0.0516846
-0.0596787
-0.0479099
-0.050489
0.00812355
0.0202804
-0.0284039
0.0566978
-0.0262651
-0.0883098
0.0728572
0.0154526
-0.105167
0.0703707
-0.0209882
-0.0569477
0.0779359
-0.0597751
-0.0449573
-0.0939377
0.00423832
0.0896994
0.0905642
0.00822733
-0.0516613
0.0581761
-0.0365398
0.00542677
0.031113
-0.117501
0.0682468
0.049254
0.113415
-0.0380504
-0.0753645
-0.0380952
-0.00576359
0.076052
-0.076052
0.0631528
-0.0934883
0.0326404
-0.017625
-0.0470113
0.0347422
0.0122691
-0.0851855
0.0757065
0.00516109
-0.0740826
-0.00757144
0.0134101
-0.0058387
-0.0851285
0.0618157
0.00546224
0.00154118
0.0738889
-0.00946946
-0.0644194
0.0883806
0.00997271
0.0679767
-0.01467
-0.0533067
-0.0967337
0.0381196
-0.083266
0.0347453
0.0485207
-0.0181769
-0.0288343
0.0762936
-0.115997
0.0397035
-0.00848725
-0.0564429
0.0649301
0.0873067
-0.0773751
-0.00993159
0.0994068
-0.0942876
-0.00511919
-0.0260959
-0.00259085
0.0286867
0.0617099
-0.0733942
0.0116843
0.0149922
-0.0571518
0.0421596
0.0483006
0.0651142
-0.000872929
0.00880088
-0.0253236
0.00265346
0.0226701
0.0856928
-0.0384889
-0.0879744
0.0886731
-0.000698614
0.0675349
-0.0964356
0.0289007
0.0773133
0.0334932
-0.110806
0.00754211
0.0759811
-0.0835232
-0.107319
0.0863311
0.0917368
-0.0334191
-0.0583178
0.0922025
-0.0240842
-0.0681183
-0.0620098
-0.0342806
0.0962905
0.0325799
0.0591934
-0.0917733
-0.0040141
-0.0744746
0.0784887
0.0862877
0.00213132
-0.088419
0.139158
-0.0558986
-0.0832599
-0.0627774
0.100985
-0.0382074
-0.131781
0.0742759
0.0575048
-0.102692
0.0265134
0.0761783
0.0806902
-0.0778704
-0.00281981
-0.0701874
0.0650032
0.0227917
-0.0767943
0.0540026
-0.00242217
0.0787157
-0.000202613
-0.0249807
0.0251834
-0.0351249
0.112438
0.038997
0.0356031
-0.0746001
-0.0881605
-0.0161097
0.10427
0.0418574
0.019045
0.0834113
-0.0646705
-0.0187407
0.134393
-0.0271614
-0.107231
-0.0674119
0.0339347
0.0334773
0.0471521
-0.0469302
-0.000221867
0.106877
-0.034439
-0.0724377
-0.0306374
0.102841
-0.0722034
-0.0336264
-0.0499827
0.083609
0.076638
-0.0325391
0.0171846
0.0101869
-0.0273715
0.0209971
-0.00122964
-0.0197675
0.0468293
6.61599e-05
-0.0894403
0.0182039
0.0712364
0.0678554
-0.0943025
0.0264471
0.0447753
-0.000256844
-0.0445185
-0.0260556
0.0432527
-0.0171971
0.0920591
0.00798555
0.0800857
-0.0447377
0.0849276
-0.0312823
-0.0536453
-0.0152718
-0.0240093
0.0392812
0.116429
-0.0593846
-0.0570444
0.014026
0.0673187
-0.0813447
0.0356413
0.0291171
-0.0647584
-0.125103
0.0524614
0.0726419
0.0604925
0.0299025
-0.090395
-0.0973316
0.0339572
0.0633743
-0.00379391
0.00379391
-0.010862
0.117739
0.000728928
-0.000626185
-0.000102744
0.0297658
0.0576258
-0.0873916
0.0600453
-0.0322334
-0.0278119
-0.0894801
0.0362391
0.053241
-0.0531334
-0.0464535
0.0995869
-0.0518625
0.0539343
-0.00207181
-0.00676887
-0.0610327
0.0678016
0.0131123
0.0666037
-0.079716
-0.0487124
0.0594262
-0.0107138
0.00467697
0.0229658
-0.0276428
-0.0516173
0.0897853
-0.0381679
0.00910776
-0.0339047
-0.111706
0.0488834
0.0628228
-0.0043921
0.0795314
-0.0751393
0.103371
0.000822731
-0.104193
-0.0190833
0.0297218
-0.0106385
0.0182888
0.0459751
-0.0642638
0.0489856
-0.0574728
-0.0219147
0.0930206
0.0296006
-0.0529281
0.0233274
-0.0508986
-0.0165134
-0.0296479
-0.0539442
0.0835922
0.0789715
-0.0796909
0.000719374
0.0265946
-0.0441186
0.017524
0.061282
0.0420887
0.0373125
0.0487968
-0.0861093
-0.103935
0.0288665
0.0750687
-0.0499143
-0.0528733
0.102788
-0.0207119
0.0631846
-0.0424727
-0.000619596
0.0529714
-0.0523518
0.0964955
-0.0508684
-0.045627
0.023404
-0.0734955
0.0500915
0.112113
-0.0530756
-0.0590374
0.0793755
-0.0176656
0.0853363
-0.0331944
-0.0521419
-0.109494
0.0436158
0.065878
0.0520172
-0.101395
0.0493781
-0.0190481
0.00298058
0.0160675
0.0809911
-0.00710225
0.00254672
-0.0337733
0.0312266
0.0766961
-0.0994506
0.0227545
0.0595399
0.0240779
-0.0836178
-0.0111066
0.0284236
-0.017317
0.0107482
-0.0521205
0.0413723
-0.138259
0.0798601
0.0583992
0.072844
-0.0952201
0.0223761
0.0548156
-0.0166362
-0.0381795
0.0483504
-0.0192189
-0.0291315
-0.056723
0.00387713
0.0528459
-0.0910073
0.0772445
0.0137628
-0.107471
0.0402235
-0.0831035
0.0511035
0.032
-0.0551477
0.0692857
-0.0141379
0.0192608
0.00737819
-0.026639
-0.000126906
0.0462462
-0.0461193
0.131405
-0.077429
-0.0539763
0.0675788
-0.053183
-0.0143958
-0.0027426
-0.0422247
0.0449673
-0.00737332
0.100277
-0.0929036
-0.0691451
0.0313356
0.0378094
-0.0264473
-0.0452475
0.0716948
-0.0605101
-0.0169902
0.0775003
-0.0345351
0.00497531
0.0768234
-0.0994951
0.0226717
0.0922731
-0.06373
-0.0285431
-0.0814035
0.0881173
-0.00671381
-0.129354
0.0669323
0.0624215
0.0129103
-0.0129384
2.80745e-05
0.0303719
-0.0248298
-0.00554213
0.0466408
-0.0585495
0.0119087
0.0972839
-0.0786681
-0.0186157
-0.00895184
-0.0551171
0.064069
0.0686165
0.0313835
0.0309798
0.00376147
-0.0347413
0.0229045
0.0641572
-0.0870617
0.0369249
-0.0311702
-0.00575466
0.0397707
0.00223099
-0.0420017
0.0855018
0.0266112
0.111279
-0.121243
0.00996362
-0.071152
-0.000465515
0.0716175
0.100828
-0.0164619
-0.0843658
-0.0460025
0.00968641
0.0363161
0.0101716
0.101107
0.0580614
0.00241132
-0.0604727
0.103551
0.00689247
-0.110444
0.0816288
0.0127775
-0.0944062
0.0477685
0.0245806
-0.0723491
0.0400733
0.0269137
-0.066987
0.0043176
0.0992338
0.0958574
-0.0104528
-0.0854045
0.0865366
0.0142911
-0.0735751
0.0291111
0.044464
0.0419237
-0.0457318
0.00380809
-0.0376588
0.034271
0.00338786
0.0646958
-0.0360035
-0.0286923
-0.00849532
-0.00163309
0.0101284
0.0434035
0.0208489
-0.059661
0.0405081
0.0191528
-0.0359562
0.0692673
-0.0333111
0.0296634
0.0154582
-0.0451215
-0.107674
0.1079
-0.000226546
-0.0522753
0.0192076
0.0330677
-0.0157031
-0.0626746
0.0783777
0.0380241
-0.0634581
0.0254341
0.0390645
-0.0344454
-0.00461909
0.102871
-0.109812
0.00694137
0.0222404
-0.0234164
0.001176
-0.0166812
-0.0638314
0.0805126
0.0399811
-0.0830088
0.0430277
0.0460731
-0.0193388
-0.0267343
0.0315757
-0.0459697
0.0568766
-0.0886238
0.0317473
0.117426
-0.0175212
-0.0999046
-0.116324
0.0132414
0.0390953
0.0762296