/*--------------------------------*- C++ -*----------------------------------*\
  =========                 |
  \\      /  F ield         | OpenFOAM: The Open Source CFD Toolbox
   \\    /   O peration     | Website:  https://openfoam.org
    \\  /    A nd           | Version:  9
     \\/     M anipulation  |
\*---------------------------------------------------------------------------*/
FoamFile
{
    format      ascii;
    class       surfaceScalarField;
    location    "0.375";
    object      phi;
}
// * * * * * * * * * * * * * * * * * * * * * * * * * * * * * * * * * * * * * //

dimensions      [0 3 -1 0 0 0 0];

internalField   nonuniform List<scalar> 
1740
(
1.79071e-08
-1.7983e-08
1.40966e-08
3.81041e-09
-2.58227e-08
3.99195e-08
-9.98935e-08
7.40699e-08
-2.01276e-07
1.01382e-07
-3.2184e-07
1.20564e-07
-4.53539e-07
1.31697e-07
-5.88974e-07
1.35435e-07
-7.21554e-07
1.32579e-07
-8.45467e-07
1.23913e-07
-9.55627e-07
1.1016e-07
-1.04762e-06
9.19937e-08
-1.1177e-06
7.00757e-08
-1.1628e-06
4.51067e-08
-1.18068e-06
1.7875e-08
-1.16998e-06
-1.07028e-08
-1.13042e-06
-3.95586e-08
-1.06295e-06
-6.747e-08
-9.69864e-07
-9.30832e-08
-8.54902e-07
-1.14962e-07
-7.23239e-07
-1.31662e-07
-5.81417e-07
-1.41822e-07
-4.3714e-07
-1.44276e-07
-2.98975e-07
-1.38165e-07
-1.759e-07
-1.23074e-07
-7.66861e-08
-9.92145e-08
-8.91213e-09
-6.7774e-08
2.26673e-08
-3.15791e-08
1.96157e-08
3.05247e-09
1.96166e-08
-3.01936e-09
-1.4964e-08
-6.56556e-08
6.64461e-08
-2.04606e-07
1.78871e-07
-4.16496e-07
2.8596e-07
-6.88738e-07
3.73625e-07
-1.0046e-06
4.36428e-07
-1.34615e-06
4.73249e-07
-1.69588e-06
4.85162e-07
-2.03748e-06
4.74178e-07
-2.35618e-06
4.42611e-07
-2.63885e-06
3.92838e-07
-2.8741e-06
3.27244e-07
-3.05232e-06
2.4829e-07
-3.16584e-06
1.58624e-07
-3.20917e-06
6.12084e-08
-3.17929e-06
-4.05784e-08
-3.07597e-06
-1.42887e-07
-2.90203e-06
-2.41407e-07
-2.66366e-06
-3.31454e-07
-2.37047e-06
-4.08147e-07
-2.03548e-06
-4.6666e-07
-1.67475e-06
-5.02546e-07
-1.30691e-06
-5.1212e-07
-9.52186e-07
-4.92889e-07
-6.31223e-07
-4.44037e-07
-3.63354e-07
-3.67083e-07
-1.6425e-07
-2.66878e-07
-4.26715e-08
-1.53159e-07
4.2323e-09
-4.38527e-08
2.38495e-08
-3.90996e-08
2.41359e-08
-1.80256e-07
2.07601e-07
-4.29003e-07
4.27619e-07
-7.76475e-07
6.33431e-07
-1.2048e-06
8.01944e-07
-1.69121e-06
9.22838e-07
-2.21106e-06
9.93099e-07
-2.73978e-06
1.01388e-06
-3.25403e-06
9.88431e-07
-3.73237e-06
9.20946e-07
-4.15556e-06
8.16031e-07
-4.50685e-06
6.78533e-07
-4.77215e-06
5.13593e-07
-4.94033e-06
3.26806e-07
-5.00355e-06
1.2442e-07
-4.95762e-06
-8.65069e-08
-4.80248e-06
-2.98027e-07
-4.54254e-06
-5.01345e-07
-4.18698e-06
-6.87012e-07
-3.74986e-06
-8.45271e-07
-3.24994e-06
-9.66571e-07
-2.71027e-06
-1.04222e-06
-2.15725e-06
-1.06514e-06
-1.61937e-06
-1.03077e-06
-1.12541e-06
-9.38001e-07
-7.02088e-07
-7.90401e-07
-3.71175e-07
-5.97791e-07
-1.45988e-07
-3.78344e-07
-2.75401e-08
-1.62302e-07
-3.69046e-09
-7.62398e-08
1.00377e-07
-3.00275e-07
4.31634e-07
-6.6201e-07
7.89355e-07
-1.14332e-06
1.11474e-06
-1.71964e-06
1.37826e-06
-2.36249e-06
1.56568e-06
-3.04175e-06
1.67237e-06
-3.72752e-06
1.69964e-06
-4.39121e-06
1.65213e-06
-5.00642e-06
1.53615e-06
-5.54935e-06
1.35896e-06
-5.99922e-06
1.12839e-06
-6.33854e-06
8.52915e-07
-6.55354e-06
5.41809e-07
-6.63455e-06
2.05428e-07
-6.57647e-06
-1.44588e-07
-6.37927e-06
-4.95228e-07
-6.04842e-06
-8.32192e-07
-5.59522e-06
-1.14021e-06
-5.03691e-06
-1.40358e-06
-4.39645e-06
-1.60703e-06
-3.70198e-06
-1.73669e-06
-2.98577e-06
-1.78135e-06
-2.28264e-06
-1.7339e-06
-1.62791e-06
-1.59273e-06
-1.05476e-06
-1.36355e-06
-5.91226e-07
-1.06132e-06
-2.57096e-07
-7.12474e-07
-6.11622e-08
-3.58236e-07
-6.48528e-08
-1.11035e-07
2.11412e-07
-4.16411e-07
7.37008e-07
-8.89766e-07
1.26271e-06
-1.50189e-06
1.72687e-06
-2.22031e-06
2.09668e-06
-3.01044e-06
2.35581e-06
-3.83713e-06
2.49906e-06
-4.66596e-06
2.52847e-06
-5.46425e-06
2.45042e-06
-6.20181e-06
2.27371e-06
-6.85142e-06
2.00857e-06
-7.38925e-06
1.66622e-06
-7.79525e-06
1.25892e-06
-8.05356e-06
8.0012e-07
-8.15298e-06
3.04851e-07
-8.0875e-06
-2.10068e-07
-7.85683e-06
-7.25895e-07
-7.46693e-06
-1.2221e-06
-6.93033e-06
-1.6768e-06
-6.26639e-06
-2.06753e-06
-5.50104e-06
-2.37238e-06
-4.66629e-06
-2.57144e-06
-3.79908e-06
-2.64856e-06
-2.9397e-06
-2.59328e-06
-2.12953e-06
-2.40291e-06
-1.40835e-06
-2.08473e-06
-8.11445e-07
-1.65823e-06
-3.66773e-07
-1.15715e-06
-9.30519e-08
-6.31957e-07
-1.57905e-07
-1.43008e-07
3.54421e-07
-5.2602e-07
1.12002e-06
-1.10743e-06
1.84412e-06
-1.84643e-06
2.46588e-06
-2.70192e-06
2.95216e-06
-3.63283e-06
3.28672e-06
-4.59899e-06
3.46522e-06
-5.5619e-06
3.49139e-06
-6.48545e-06
3.37397e-06
-7.33646e-06
3.12473e-06
-8.08511e-06
2.75721e-06
-8.70525e-06
2.28636e-06
-9.17483e-06
1.7285e-06
-9.47627e-06
1.10156e-06
-9.59696e-06
4.25542e-07
-9.52982e-06
-2.77201e-07
-9.27392e-06
-9.81794e-07
-8.83503e-06
-1.66099e-06
-8.22613e-06
-2.2857e-06
-7.4677e-06
-2.82596e-06
-6.58769e-06
-3.25239e-06
-5.62109e-06
-3.53804e-06
-4.60891e-06
-3.66074e-06
-3.59658e-06
-3.6056e-06
-2.63174e-06
-3.36775e-06
-1.76152e-06
-2.95496e-06
-1.02959e-06
-2.39016e-06
-4.73505e-07
-1.71323e-06
-1.22941e-07
-9.8252e-07
-2.80846e-07
-1.72535e-07
5.26957e-07
-6.29147e-07
1.57663e-06
-1.31435e-06
2.52933e-06
-2.17593e-06
3.32745e-06
-3.16387e-06
3.9401e-06
-4.23042e-06
4.35327e-06
-5.33032e-06
4.56512e-06
-6.42122e-06
4.58229e-06
-7.46403e-06
4.41678e-06
-8.42315e-06
4.08384e-06
-9.26671e-06
3.60078e-06
-9.96684e-06
2.98649e-06
-1.04999e-05
2.26152e-06
-1.08467e-05
1.4484e-06
-1.09934e-05
5.72192e-07
-1.09314e-05
-3.39124e-07
-1.06589e-05
-1.25437e-06
-1.01805e-05
-2.13931e-06
-9.50903e-06
-2.9572e-06
-8.66508e-06
-3.66992e-06
-7.67778e-06
-4.23969e-06
-6.5844e-06
-4.63141e-06
-5.42964e-06
-4.8155e-06
-4.2641e-06
-4.77114e-06
-3.14219e-06
-4.48966e-06
-2.11934e-06
-3.97781e-06
-1.2489e-06
-3.26059e-06
-5.79275e-07
-2.38286e-06
-1.51758e-07
-1.41004e-06
-4.32604e-07
-2.00212e-07
7.27169e-07
-7.26839e-07
2.10325e-06
-1.51169e-06
3.31418e-06
-2.49152e-06
4.30728e-06
-3.60749e-06
5.05607e-06
-4.80503e-06
5.55081e-06
-6.03387e-06
5.79396e-06
-7.24802e-06
5.79644e-06
-8.40571e-06
5.57447e-06
-9.4694e-06
5.14753e-06
-1.04057e-05
4.53707e-06
-1.11854e-05
3.76617e-06
-1.17835e-05
2.85964e-06
-1.21797e-05
1.84457e-06
-1.23584e-05
7.50926e-07
-1.23097e-05
-3.87802e-07
-1.20299e-05
-1.53421e-06
-1.15222e-05
-2.64699e-06
-1.07979e-05
-3.68145e-06
-9.87715e-06
-4.59072e-06
-8.78916e-06
-5.32767e-06
-7.57288e-06
-5.8477e-06
-6.27629e-06
-6.1121e-06
-4.95529e-06
-6.09214e-06
-3.67166e-06
-5.77328e-06
-2.49021e-06
-5.15926e-06
-1.47535e-06
-4.27545e-06
-6.87639e-07
-3.17057e-06
-1.80853e-07
-1.91682e-06
-6.13458e-07
-2.26573e-07
9.53743e-07
-8.20284e-07
2.69696e-06
-1.70101e-06
4.19491e-06
-2.79489e-06
5.40116e-06
-4.03438e-06
6.29556e-06
-5.3582e-06
6.87464e-06
-6.71118e-06
7.14694e-06
-8.0439e-06
7.12916e-06
-9.31233e-06
6.8429e-06
-1.04774e-05
6.3126e-06
-1.15047e-05
5.56434e-06
-1.2364e-05
4.62554e-06
-1.30296e-05
3.52524e-06
-1.34799e-05
2.29482e-06
-1.36978e-05
9.68841e-07
-1.36715e-05
-4.14078e-07
-1.33951e-05
-1.81063e-06
-1.28695e-05
-3.1726e-06
-1.21037e-05
-4.44723e-06
-1.1116e-05
-5.57841e-06
-9.93499e-06
-6.5087e-06
-8.60028e-06
-7.18241e-06
-7.16266e-06
-7.54972e-06
-5.6833e-06
-7.57149e-06
-4.23192e-06
-7.22467e-06
-2.8838e-06
-6.50738e-06
-1.71593e-06
-5.44332e-06
-8.02679e-07
-4.08382e-06
-2.11656e-07
-2.50785e-06
-8.25114e-07
-2.52025e-07
1.20577e-06
-9.10481e-07
3.35542e-06
-1.8837e-06
5.16813e-06
-3.08747e-06
6.60493e-06
-4.44566e-06
7.65374e-06
-5.89041e-06
8.31939e-06
-7.36187e-06
8.6184e-06
-8.80752e-06
8.57481e-06
-1.01815e-05
8.21689e-06
-1.14438e-05
7.57488e-06
-1.25594e-05
6.67998e-06
-1.3498e-05
5.56407e-06
-1.4233e-05
4.26027e-06
-1.4742e-05
2.80385e-06
-1.50066e-05
1.23343e-06
-1.50128e-05
-4.07899e-07
-1.47519e-05
-2.07152e-06
-1.42217e-05
-3.70276e-06
-1.3428e-05
-5.24096e-06
-1.2386e-05
-6.62043e-06
-1.11222e-05
-7.77248e-06
-9.67588e-06
-8.62875e-06
-8.09972e-06
-9.12588e-06
-6.45984e-06
-9.21137e-06
-4.83424e-06
-8.85026e-06
-3.3098e-06
-8.03182e-06
-1.97781e-06
-6.77531e-06
-9.28535e-07
-5.1331e-06
-2.45554e-07
-3.19083e-06
-1.07067e-06
-2.76859e-07
1.48263e-06
-9.98201e-07
4.07676e-06
-2.06085e-06
6.23078e-06
-3.3702e-06
7.91428e-06
-4.84159e-06
9.12514e-06
-6.40073e-06
9.87853e-06
-7.98333e-06
1.0201e-05
-9.53427e-06
1.01257e-05
-1.10064e-05
9.68904e-06
-1.23594e-05
8.92791e-06
-1.35586e-05
7.87914e-06
-1.45737e-05
6.57921e-06
-1.53785e-05
5.06506e-06
-1.595e-05
3.3753e-06
-1.62683e-05
1.5518e-06
-1.63175e-05
-3.58751e-07
-1.60856e-05
-2.30338e-06
-1.55666e-05
-4.22177e-06
-1.47617e-05
-6.04585e-06
-1.36818e-05
-7.70034e-06
-1.23497e-05
-9.10456e-06
-1.08027e-05
-1.01758e-05
-9.09389e-06
-1.08346e-05
-7.29366e-06
-1.10116e-05
-5.48827e-06
-1.06557e-05
-3.77715e-06
-9.74293e-06
-2.26785e-06
-8.28461e-06
-1.06922e-06
-6.33173e-06
-2.83885e-07
-3.97617e-06
-1.35455e-06
-3.01305e-07
1.78394e-06
-1.08409e-06
4.85954e-06
-2.23329e-06
7.37998e-06
-3.6436e-06
9.32459e-06
-5.22167e-06
1.07032e-05
-6.88684e-06
1.15437e-05
-8.57075e-06
1.18849e-05
-1.02162e-05
1.17712e-05
-1.17756e-05
1.12485e-05
-1.32092e-05
1.03615e-05
-1.44834e-05
9.1533e-06
-1.55692e-05
7.66498e-06
-1.64411e-05
5.93695e-06
-1.70763e-05
4.01049e-06
-1.74542e-05
1.92969e-06
-1.75565e-05
-2.56377e-07
-1.73682e-05
-2.49168e-06
-1.68785e-05
-4.71151e-06
-1.6083e-05
-6.84135e-06
-1.49865e-05
-8.79679e-06
-1.36063e-05
-1.04848e-05
-1.19753e-05
-1.18069e-05
-1.01453e-05
-1.26646e-05
-8.18919e-06
-1.29677e-05
-6.20099e-06
-1.26439e-05
-4.29341e-06
-1.16505e-05
-2.59234e-06
-9.98568e-06
-1.22859e-06
-7.69547e-06
-3.27952e-07
-4.87681e-06
-1.6825e-06
-3.25609e-07
2.10955e-06
-1.16885e-06
5.70278e-06
-2.40195e-06
8.61307e-06
-3.90813e-06
1.08308e-05
-5.58492e-06
1.238e-05
-7.34529e-06
1.33041e-05
-9.11723e-06
1.36569e-05
-1.08422e-05
1.34962e-05
-1.24732e-05
1.28794e-05
-1.39721e-05
1.18604e-05
-1.53075e-05
1.04887e-05
-1.64529e-05
8.81037e-06
-1.73847e-05
6.86878e-06
-1.80812e-05
4.707e-06
-1.85217e-05
2.37017e-06
-1.86862e-05
-9.1809e-08
-1.85564e-05
-2.62155e-06
-1.81162e-05
-5.1517e-06
-1.73547e-05
-7.60287e-06
-1.62688e-05
-9.88262e-06
-1.48678e-05
-1.18858e-05
-1.31776e-05
-1.34971e-05
-1.12456e-05
-1.45966e-05
-9.14488e-06
-1.50684e-05
-6.97568e-06
-1.48131e-05
-4.86419e-06
-1.3762e-05
-2.9568e-06
-1.18931e-05
-1.41031e-06
-9.24197e-06
-3.79055e-07
-5.90806e-06
-2.06156e-06
-3.5014e-07
2.45969e-06
-1.25357e-06
6.60622e-06
-2.56828e-06
9.92779e-06
-4.1647e-06
1.24272e-05
-5.93042e-06
1.41457e-05
-7.77195e-06
1.51456e-05
-9.61413e-06
1.5499e-05
-1.13981e-05
1.52802e-05
-1.30786e-05
1.45599e-05
-1.46206e-05
1.34023e-05
-1.59966e-05
1.18647e-05
-1.71839e-05
9.99764e-06
-1.81622e-05
7.84712e-06
-1.89122e-05
5.45703e-06
-1.94141e-05
2.87209e-06
-1.96472e-05
1.41267e-07
-1.95899e-05
-2.67884e-06
-1.92211e-05
-5.52053e-06
-1.85221e-05
-8.30187e-06
-1.74804e-05
-1.09243e-05
-1.60945e-05
-1.32717e-05
-1.43798e-05
-1.52118e-05
-1.23756e-05
-1.66008e-05
-1.01512e-05
-1.72928e-05
-7.81059e-06
-1.71537e-05
-5.49252e-06
-1.60801e-05
-3.36579e-06
-1.40198e-05
-1.61787e-06
-1.09899e-05
-4.38537e-07
-7.08739e-06
-2.5001e-06
-3.75528e-07
2.83521e-06
-1.34008e-06
7.57077e-06
-2.7349e-06
1.13226e-05
-4.41538e-06
1.41077e-05
-6.25797e-06
1.59883e-05
-8.16251e-06
1.70501e-05
-1.00514e-05
1.73879e-05
-1.18668e-05
1.70956e-05
-1.35667e-05
1.62598e-05
-1.51212e-05
1.49569e-05
-1.65085e-05
1.32519e-05
-1.77114e-05
1.12005e-05
-1.87148e-05
8.85053e-06
-1.95033e-05
6.24555e-06
-2.00595e-05
3.42834e-06
-2.03631e-05
4.44835e-07
-2.03903e-05
-2.65162e-06
-2.0115e-05
-5.79585e-06
-1.95104e-05
-8.90645e-06
-1.85529e-05
-1.18818e-05
-1.72276e-05
-1.45971e-05
-1.55353e-05
-1.69041e-05
-1.35021e-05
-1.8634e-05
-1.11884e-05
-1.96064e-05
-8.69731e-06
-1.96448e-05
-6.17793e-06
-1.85995e-05
-3.82262e-06
-1.63751e-05
-1.85464e-06
-1.29579e-05
-5.07845e-07
-8.43418e-06
-3.00794e-06
-4.0287e-07
3.23808e-06
-1.43152e-06
8.59942e-06
-2.90632e-06
1.27974e-05
-4.66424e-06
1.58656e-05
-6.56877e-06
1.78928e-05
-8.51293e-06
1.89943e-05
-1.04177e-05
1.92927e-05
-1.2228e-05
1.89059e-05
-1.39076e-05
1.79394e-05
-1.54337e-05
1.6483e-05
-1.67924e-05
1.46106e-05
-1.79743e-05
1.23825e-05
-1.89716e-05
9.84778e-06
-1.97746e-05
7.04856e-06
-2.03702e-05
4.02395e-06
-2.074e-05
8.1465e-07
-2.08596e-05
-2.53202e-06
-2.06987e-05
-5.9568e-06
-2.02225e-05
-9.38265e-06
-1.93953e-05
-1.2709e-05
-1.8186e-05
-1.58064e-05
-1.65767e-05
-1.85133e-05
-1.45743e-05
-2.06364e-05
-1.22232e-05
-2.19576e-05
-9.61854e-06
-2.22495e-05
-6.91532e-06
-2.13027e-05
-4.329e-06
-1.89614e-05
-2.12392e-06
-1.51629e-05
-5.88618e-07
-9.96949e-06
-3.59656e-06
-4.34012e-07
3.67209e-06
-1.53304e-06
9.69844e-06
-3.08996e-06
1.43543e-05
-4.91821e-06
1.76938e-05
-6.86597e-06
1.98406e-05
-8.81947e-06
2.09478e-05
-1.07e-05
2.11733e-05
-1.2458e-05
2.06639e-05
-1.40655e-05
1.9547e-05
-1.55101e-05
1.79275e-05
-1.67883e-05
1.58888e-05
-1.7901e-05
1.34952e-05
-1.88496e-05
1.07964e-05
-1.96325e-05
7.83153e-06
-2.0243e-05
4.63443e-06
-2.06667e-05
1.23834e-06
-2.08804e-05
-2.31837e-06
-2.08512e-05
-5.98598e-06
-2.05374e-05
-9.6964e-06
-1.9891e-05
-1.33554e-05
-1.8863e-05
-1.68344e-05
-1.74124e-05
-1.99639e-05
-1.55199e-05
-2.25289e-05
-1.3205e-05
-2.42725e-05
-1.05453e-05
-2.49093e-05
-7.69333e-06
-2.41546e-05
-4.88459e-06
-2.17702e-05
-2.42909e-06
-1.76184e-05
-6.82853e-07
-1.17157e-05
-4.27941e-06
-4.71987e-07
4.14408e-06
-1.65281e-06
1.08793e-05
-3.29727e-06
1.59988e-05
-5.18789e-06
1.95845e-05
-7.15472e-06
2.18074e-05
-9.07797e-06
2.2871e-05
-1.08822e-05
2.29775e-05
-1.25269e-05
2.23086e-05
-1.39967e-05
2.10168e-05
-1.52927e-05
1.92235e-05
-1.6425e-05
1.70211e-05
-1.74073e-05
1.44775e-05
-1.82526e-05
1.16416e-05
-1.89695e-05
8.54843e-06
-1.95596e-05
5.22458e-06
-2.00151e-05
1.69378e-06
-2.03162e-05
-2.01726e-06
-2.04301e-05
-5.87204e-06
-2.03102e-05
-9.81629e-06
-1.98973e-05
-1.37683e-05
-1.91236e-05
-1.76081e-05
-1.7922e-05
-2.11655e-05
-1.624e-05
-2.42109e-05
-1.40614e-05
-2.64511e-05
-1.1433e-05
-2.75377e-05
-8.49204e-06
-2.70956e-05
-5.48627e-06
-2.47759e-05
-2.7738e-06
-2.03309e-05
-7.9319e-07
-1.36963e-05
-5.0726e-06
-5.21693e-07
4.66577e-06
-1.80337e-06
1.2161e-05
-3.54494e-06
1.77404e-05
-5.48779e-06
2.15273e-05
-7.44101e-06
2.37606e-05
-9.28123e-06
2.47113e-05
-1.09411e-05
2.46374e-05
-1.2395e-05
2.37625e-05
-1.36451e-05
2.22669e-05
-1.471e-05
2.02885e-05
-1.5617e-05
1.7928e-05
-1.63948e-05
1.52554e-05
-1.70702e-05
1.23169e-05
-1.76637e-05
9.14193e-06
-1.81873e-05
5.74824e-06
-1.86418e-05
2.14828e-06
-1.90139e-05
-1.6452e-06
-1.92737e-05
-5.6122e-06
-1.93731e-05
-9.71696e-06
-1.92443e-05
-1.38971e-05
-1.88027e-05
-1.80497e-05
-1.79529e-05
-2.20153e-05
-1.66037e-05
-2.55601e-05
-1.46917e-05
-2.8363e-05
-1.2216e-05
-3.00134e-05
-9.27946e-06
-3.00321e-05
-6.12701e-06
-2.79284e-05
-3.16244e-06
-2.32955e-05
-9.23456e-07
-1.59353e-05
-5.99606e-06
-5.91014e-07
5.25679e-06
-2.00349e-06
1.35734e-05
-3.85601e-06
1.95929e-05
-5.83531e-06
2.35066e-05
-7.72821e-06
2.56535e-05
-9.41333e-06
2.63964e-05
-1.08397e-05
2.60638e-05
-1.20046e-05
2.49273e-05
-1.2934e-05
2.31963e-05
-1.36696e-05
2.10241e-05
-1.42582e-05
1.85166e-05
-1.47461e-05
1.57433e-05
-1.51748e-05
1.27457e-05
-1.55781e-05
9.54522e-06
-1.59796e-05
6.14978e-06
-1.63905e-05
2.55914e-06
-1.68064e-05
-1.22936e-06
-1.72041e-05
-5.21448e-06
-1.75381e-05
-9.38289e-06
-1.77375e-05
-1.36977e-05
-1.77043e-05
-1.80829e-05
-1.73172e-05
-2.24024e-05
-1.64427e-05
-2.64346e-05
-1.49597e-05
-2.9846e-05
-1.28001e-05
-3.2173e-05
-1.0006e-05
-3.28262e-05
-6.79369e-06
-3.11407e-05
-3.6007e-06
-2.64885e-05
-1.07964e-06
-1.84564e-05
-7.0757e-06
-6.92708e-07
5.94949e-06
-2.28061e-06
1.51613e-05
-4.25991e-06
2.15722e-05
-6.24675e-06
2.54934e-05
-8.00863e-06
2.74154e-05
-9.43789e-06
2.78256e-05
-1.05132e-05
2.71391e-05
-1.12657e-05
2.56798e-05
-1.17537e-05
2.36843e-05
-1.20461e-05
2.13165e-05
-1.22125e-05
1.8683e-05
-1.23174e-05
1.58481e-05
-1.24171e-05
1.28454e-05
-1.25583e-05
9.6864e-06
-1.27763e-05
6.36783e-06
-1.30935e-05
2.87635e-06
-1.35164e-05
-8.0644e-07
-1.40321e-05
-4.69883e-06
-1.4603e-05
-8.81197e-06
-1.51614e-05
-1.31393e-05
-1.5604e-05
-1.76403e-05
-1.57896e-05
-2.22168e-05
-1.55447e-05
-2.66795e-05
-1.46836e-05
-3.07072e-05
-1.30511e-05
-3.38054e-05
-1.05952e-05
-3.52821e-05
-7.46274e-06
-3.42731e-05
-4.09606e-06
-2.98552e-05
-1.2717e-06
-2.12807e-05
-8.3474e-06
-8.47647e-07
6.79714e-06
-2.67361e-06
1.69873e-05
-4.7896e-06
2.36882e-05
-6.72654e-06
2.74304e-05
-8.24606e-06
2.89349e-05
-9.2762e-06
2.88558e-05
-9.84547e-06
2.77084e-05
-1.00336e-05
2.58679e-05
-9.93972e-06
2.35904e-05
-9.66423e-06
2.1041e-05
-9.29991e-06
1.83187e-05
-8.92826e-06
1.54765e-05
-8.61863e-06
1.25357e-05
-8.4283e-06
9.49608e-06
-8.4026e-06
6.34213e-06
-8.57425e-06
3.04799e-06
-8.96139e-06
-4.19305e-07
-9.56392e-06
-4.09629e-06
-1.03578e-05
-8.01814e-06
-1.12867e-05
-1.22103e-05
-1.2253e-05
-1.6674e-05
-1.3108e-05
-2.13619e-05
-1.36478e-05
-2.61397e-05
-1.36235e-05
-3.07314e-05
-1.27785e-05
-3.46505e-05
-1.09277e-05
-3.71328e-05
-8.09072e-06
-3.71102e-05
-4.65713e-06
-3.32887e-05
-1.51648e-06
-2.44214e-05
-9.86388e-06
-1.09026e-06
7.8874e-06
-3.23445e-06
1.91315e-05
-5.47047e-06
2.59242e-05
-7.24237e-06
2.92023e-05
-8.34083e-06
3.00334e-05
-8.76782e-06
2.92828e-05
-8.63017e-06
2.75707e-05
-8.07294e-06
2.53107e-05
-7.24313e-06
2.27606e-05
-6.27344e-06
2.00713e-05
-5.27703e-06
1.73223e-05
-4.34788e-06
1.45473e-05
-3.56321e-06
1.1751e-05
-2.98618e-06
8.91905e-06
-2.66805e-06
6.02401e-06
-2.64909e-06
3.02903e-06
-2.95786e-06
-1.10539e-07
-3.60833e-06
-3.44582e-06
-4.59418e-06
-7.03229e-06
-5.87959e-06
-1.09249e-05
-7.38593e-06
-1.51677e-05
-8.97531e-06
-1.97725e-05
-1.04341e-05
-2.46808e-05
-1.14658e-05
-2.96998e-05
-1.17094e-05
-3.44069e-05
-1.08135e-05
-3.80287e-05
-8.59407e-06
-3.93296e-05
-5.28859e-06
-3.65942e-05
-1.84232e-06
-2.78677e-05
-1.17062e-05
-1.47695e-06
9.36435e-06
-4.02301e-06
2.16776e-05
-6.28849e-06
2.81897e-05
-7.6703e-06
3.05841e-05
-8.06334e-06
3.04265e-05
-7.60318e-06
2.88226e-05
-6.50956e-06
2.64771e-05
-5.0067e-06
2.38078e-05
-3.29017e-06
2.10441e-05
-1.51865e-06
1.82998e-05
1.83319e-07
1.56203e-05
1.71876e-06
1.30119e-05
3.01143e-06
1.04584e-05
3.99997e-06
7.93051e-06
4.63363e-06
5.39034e-06
4.86964e-06
2.79303e-06
4.67236e-06
8.67377e-08
4.01485e-06
-2.78831e-06
2.88332e-06
-5.90075e-06
1.28601e-06
-9.32761e-06
-7.32056e-07
-1.31496e-05
-3.067e-06
-1.74376e-05
-5.52707e-06
-2.22208e-05
-7.80258e-06
-2.74243e-05
-9.45209e-06
-3.27573e-05
-9.94277e-06
-3.75381e-05
-8.80594e-06
-4.04664e-05
-5.97267e-06
-3.94275e-05
-2.29354e-06
-3.15468e-05
-1.39997e-05
-2.09421e-06
1.14586e-05
-5.0759e-06
2.46592e-05
-7.1063e-06
3.02201e-05
-7.67912e-06
3.11569e-05
-6.93276e-06
2.96801e-05
-5.21484e-06
2.71047e-05
-2.88681e-06
2.41491e-05
-2.51216e-07
2.11722e-05
2.46247e-06
1.83304e-05
5.0883e-06
1.5674e-05
7.5083e-06
1.32003e-05
9.63797e-06
1.08822e-05
1.14147e-05
8.68167e-06
1.27891e-05
6.55606e-06
1.37193e-05
4.46014e-06
1.41667e-05
2.34569e-06
1.40938e-05
1.5965e-07
1.34643e-05
-2.1588e-06
1.22452e-05
-4.68167e-06
1.04134e-05
-7.49587e-06
7.96888e-06
-1.07051e-05
4.95749e-06
-1.44262e-05
1.50884e-06
-1.87721e-05
-2.11121e-06
-2.38043e-05
-5.44224e-06
-2.94263e-05
-7.80319e-06
-3.51771e-05
-8.38595e-06
-3.98837e-05
-6.61191e-06
-4.12015e-05
-2.92523e-06
-3.52335e-05
-1.6925e-05
-3.04166e-06
1.45002e-05
-6.2853e-06
2.79029e-05
-7.45419e-06
3.1389e-05
-6.49808e-06
3.02008e-05
-4.01112e-06
2.71931e-05
-6.19877e-07
2.37134e-05
3.181e-06
2.03482e-05
7.04797e-06
1.73052e-05
1.07593e-05
1.46191e-05
1.41778e-05
1.22555e-05
1.72199e-05
1.01582e-05
1.9834e-05
8.26811e-06
2.19859e-05
6.52977e-06
2.36492e-05
4.89278e-06
2.47989e-05
3.31038e-06
2.54076e-05
1.73698e-06
2.54423e-05
1.24999e-07
2.48628e-05
-1.5793e-06
2.36216e-05
-3.44049e-06
2.16663e-05
-5.54054e-06
1.89471e-05
-7.98585e-06
1.54349e-05
-1.0914e-05
1.11571e-05
-1.44944e-05
6.26285e-06
-1.891e-05
1.12347e-06
-2.42869e-05
-3.54717e-06
-3.05065e-05
-6.63922e-06
-3.67916e-05
-6.87031e-06
-4.09704e-05
-3.74856e-06
-3.83552e-05
-2.06735e-05
-4.30562e-06
1.88058e-05
-7.01561e-06
3.06129e-05
-6.04352e-06
3.04169e-05
-2.48557e-06
2.66429e-05
2.40587e-06
2.23017e-05
7.76554e-06
1.83538e-05
1.30706e-05
1.50432e-05
1.80366e-05
1.23392e-05
2.25253e-05
1.01304e-05
2.64793e-05
8.30148e-06
2.9882e-05
6.75557e-06
3.27344e-05
5.41566e-06
3.50427e-05
4.22143e-06
3.68109e-05
3.12465e-06
3.80363e-05
2.08498e-06
3.87072e-05
1.0661e-06
3.88e-05
3.21661e-08
3.82774e-05
-1.05671e-06
3.70852e-05
-2.24827e-06
3.51504e-05
-3.60575e-06
3.2381e-05
-5.21649e-06
2.86719e-05
-7.20484e-06
2.39258e-05
-9.74824e-06
1.81071e-05
-1.30913e-05
1.13575e-05
-1.75373e-05
4.19997e-06
-2.3349e-05
-2.18709e-06
-3.04046e-05
-5.80522e-06
-3.73523e-05
-4.53572e-06
-3.96247e-05
-2.52093e-05
-5.28686e-06
2.40927e-05
-5.04074e-06
3.03667e-05
2.674e-07
2.51087e-05
7.57418e-06
1.93361e-05
1.51522e-05
1.47237e-05
2.22426e-05
1.12634e-05
2.85596e-05
8.72621e-06
3.40421e-05
6.85674e-06
3.87255e-05
5.44695e-06
4.26769e-05
4.35012e-06
4.59655e-05
3.46696e-06
4.86512e-05
2.72998e-06
5.07803e-05
2.09225e-06
5.23851e-05
1.51985e-06
5.34834e-05
9.86721e-07
5.40785e-05
4.70983e-07
5.41586e-05
-4.79052e-08
5.3694e-05
-5.92133e-07
5.26341e-05
-1.18836e-06
5.09011e-05
-1.87274e-06
4.83825e-05
-2.69787e-06
4.49223e-05
-3.74463e-06
4.03162e-05
-5.14216e-06
3.43255e-05
-7.1006e-06
2.67455e-05
-9.95729e-06
1.76045e-05
-1.4208e-05
7.60779e-06
-2.04079e-05
-1.08548e-06
-2.8659e-05
-4.31634e-06
-3.63938e-05
-2.95256e-05
-2.32205e-06
2.64148e-05
6.59987e-06
2.14448e-05
1.84443e-05
1.32643e-05
2.92537e-05
8.52664e-06
3.82566e-05
5.7208e-06
4.55539e-05
3.9661e-06
5.14305e-05
2.84962e-06
5.61691e-05
2.11816e-06
6.00006e-05
1.61543e-06
6.31e-05
1.25069e-06
6.55953e-05
9.71673e-07
6.7578e-05
7.47289e-07
6.9112e-05
5.5819e-07
7.02402e-05
3.9163e-07
7.09884e-05
2.38551e-07
7.13676e-05
9.18283e-08
7.13747e-05
-5.49976e-08
7.09911e-05
-2.08568e-07
7.01798e-05
-3.77058e-07
6.88787e-05
-5.71638e-07
6.69901e-05
-8.09289e-07
6.43634e-05
-1.11794e-06
6.07681e-05
-1.54686e-06
5.58561e-05
-2.18856e-06
4.91228e-05
-3.22403e-06
3.99261e-05
-5.01126e-06
2.77571e-05
-8.23893e-06
1.32153e-05
-1.41172e-05
6.43163e-07
-2.38218e-05
-2.88824e-05
2.64148e-05
4.78596e-05
6.11239e-05
6.96505e-05
7.53713e-05
7.93374e-05
8.2187e-05
8.43052e-05
8.59206e-05
8.71713e-05
8.8143e-05
8.88903e-05
8.94485e-05
8.98401e-05
9.00787e-05
9.01705e-05
9.01155e-05
8.99069e-05
8.95299e-05
8.89582e-05
8.81489e-05
8.7031e-05
8.54841e-05
8.32956e-05
8.00715e-05
7.50603e-05
6.68213e-05
5.27042e-05
2.88824e-05
)
;

boundaryField
{
    movingWall
    {
        type            calculated;
        value           uniform 0;
    }
    fixedWalls
    {
        type            calculated;
        value           uniform 0;
    }
    frontAndBack
    {
        type            empty;
        value           nonuniform List<scalar> 0();
    }
}


// ************************************************************************* //
