/*--------------------------------*- C++ -*----------------------------------*\
  =========                 |
  \\      /  F ield         | OpenFOAM: The Open Source CFD Toolbox
   \\    /   O peration     | Website:  https://openfoam.org
    \\  /    A nd           | Version:  9
     \\/     M anipulation  |
\*---------------------------------------------------------------------------*/
FoamFile
{
    format      ascii;
    class       volVectorField;
    location    "0.375";
    object      U;
}
// * * * * * * * * * * * * * * * * * * * * * * * * * * * * * * * * * * * * * //

dimensions      [0 1 -1 0 0 0 0];

internalField   nonuniform List<vector> 
900
(
(0.000361063 -0.000360345 0)
(0.000679894 -0.000170325 0)
(3.63223e-05 0.000249251 0)
(-0.00169413 0.000645318 0)
(-0.00436868 0.000954647 0)
(-0.00774833 0.00116692 0)
(-0.0115824 0.00128857 0)
(-0.015636 0.00133113 0)
(-0.0196984 0.00130606 0)
(-0.0235832 0.00122312 0)
(-0.027127 0.00109027 0)
(-0.0301874 0.000914239 0)
(-0.0326416 0.00070114 0)
(-0.0343872 0.000457262 0)
(-0.0353437 0.000189751 0)
(-0.0354561 -9.28282e-05 0)
(-0.0346992 -0.000380134 0)
(-0.0330821 -0.000659942 0)
(-0.0306528 -0.000918332 0)
(-0.0275017 -0.00114017 0)
(-0.0237629 -0.00130986 0)
(-0.0196132 -0.0014123 0)
(-0.0152681 -0.00143397 0)
(-0.0109743 -0.001364 0)
(-0.00699893 -0.00119541 0)
(-0.00361374 -0.000927084 0)
(-0.00107391 -0.000568348 0)
(0.000420015 -0.000149183 0)
(0.000818522 0.000248079 0)
(0.000375814 0.000372333 0)
(0.000188161 -0.000694207 0)
(-0.000516194 0.000539209 0)
(-0.00351364 0.00250549 0)
(-0.00884282 0.00439388 0)
(-0.01621 0.00592798 0)
(-0.0251552 0.00701875 0)
(-0.0351435 0.00765828 0)
(-0.0456345 0.0078752 0)
(-0.0561166 0.00771062 0)
(-0.0661219 0.00720738 0)
(-0.0752314 0.00640657 0)
(-0.0830763 0.00534754 0)
(-0.0893406 0.00406966 0)
(-0.0937638 0.00261479 0)
(-0.0961469 0.00102991 0)
(-0.09636 -0.000630816 0)
(-0.094352 -0.00230481 0)
(-0.0901601 -0.00392105 0)
(-0.0839182 -0.00540142 0)
(-0.0758633 -0.0066636 0)
(-0.066336 -0.00762528 0)
(-0.0557757 -0.0082096 0)
(-0.044708 -0.00835144 0)
(-0.0337232 -0.00800446 0)
(-0.0234448 -0.00714909 0)
(-0.0144871 -0.00580405 0)
(-0.00739448 -0.00404601 0)
(-0.00255637 -0.0020445 0)
(-9.64087e-05 -0.000148168 0)
(0.000271974 0.000826316 0)
(-0.000220191 -8.86363e-05 0)
(-0.00250084 0.00352893 0)
(-0.00834918 0.00825529 0)
(-0.0174201 0.0127525 0)
(-0.0292112 0.0164497 0)
(-0.0431066 0.019109 0)
(-0.0583824 0.0206694 0)
(-0.0742879 0.0211644 0)
(-0.0900976 0.020672 0)
(-0.105136 0.019287 0)
(-0.118792 0.0171101 0)
(-0.130522 0.0142446 0)
(-0.139864 0.0107984 0)
(-0.146435 0.00688825 0)
(-0.14995 0.00264457 0)
(-0.150225 -0.00178461 0)
(-0.147192 -0.00623149 0)
(-0.140916 -0.0105092 0)
(-0.131598 -0.0144159 0)
(-0.119587 -0.017742 0)
(-0.105378 -0.0202814 0)
(-0.0896032 -0.0218452 0)
(-0.0730113 -0.0222787 0)
(-0.0564372 -0.0214795 0)
(-0.0407547 -0.0194193 0)
(-0.0268164 -0.0161713 0)
(-0.0153692 -0.0119499 0)
(-0.00695153 -0.00716841 0)
(-0.00185358 -0.00255341 0)
(-7.81053e-05 0.000506056 0)
(-0.000634795 0.0016372 0)
(-0.00458185 0.00900512 0)
(-0.0134269 0.0174338 0)
(-0.0262787 0.0252462 0)
(-0.042347 0.0316288 0)
(-0.0608512 0.0362016 0)
(-0.0809071 0.0388442 0)
(-0.101601 0.0395907 0)
(-0.122048 0.0385569 0)
(-0.141418 0.0358983 0)
(-0.158955 0.0317898 0)
(-0.173989 0.0264182 0)
(-0.185942 0.0199835 0)
(-0.194344 0.0127042 0)
(-0.198838 0.00482416 0)
(-0.1992 -0.00338192 0)
(-0.195351 -0.0116057 0)
(-0.187368 -0.0195074 0)
(-0.175501 -0.0267231 0)
(-0.16018 -0.0328781 0)
(-0.142009 -0.0376068 0)
(-0.121762 -0.0405775 0)
(-0.100353 -0.041522 0)
(-0.0788022 -0.0402692 0)
(-0.0581791 -0.036782 0)
(-0.0395335 -0.0312013 0)
(-0.0237989 -0.0239011 0)
(-0.0116877 -0.0155559 0)
(-0.00374894 -0.00725152 0)
(-0.000443945 -0.000814049 0)
(-0.00100898 0.00445649 0)
(-0.00656555 0.0169642 0)
(-0.0183772 0.0299823 0)
(-0.0349551 0.0416796 0)
(-0.0551714 0.0510974 0)
(-0.0780575 0.0577616 0)
(-0.102571 0.0615151 0)
(-0.127656 0.0624023 0)
(-0.152298 0.0605837 0)
(-0.17555 0.0562834 0)
(-0.196548 0.0497608 0)
(-0.214523 0.0412992 0)
(-0.228813 0.0312065 0)
(-0.238878 0.019821 0)
(-0.244307 0.00751988 0)
(-0.244839 -0.00527336 0)
(-0.240375 -0.0180865 0)
(-0.230998 -0.0304015 0)
(-0.216982 -0.0416664 0)
(-0.198805 -0.0513145 0)
(-0.177151 -0.0587943 0)
(-0.152893 -0.063606 0)
(-0.127076 -0.0653464 0)
(-0.100873 -0.0637583 0)
(-0.0755257 -0.0587842 0)
(-0.0522769 -0.0506248 0)
(-0.0322619 -0.0398035 0)
(-0.0164072 -0.0272315 0)
(-0.00558408 -0.0142964 0)
(-0.000774153 -0.00313173 0)
(-0.00134089 0.00828106 0)
(-0.00841009 0.0273159 0)
(-0.0230817 0.0458318 0)
(-0.0432771 0.0619759 0)
(-0.0675108 0.0747392 0)
(-0.0946068 0.0836171 0)
(-0.123359 0.0884544 0)
(-0.152576 0.0893295 0)
(-0.181133 0.0864633 0)
(-0.207987 0.0801602 0)
(-0.232191 0.070774 0)
(-0.252903 0.0586951 0)
(-0.269396 0.0443501 0)
(-0.281073 0.0282086 0)
(-0.287477 0.0107941 0)
(-0.28831 -0.00730731 0)
(-0.283445 -0.0254437 0)
(-0.272953 -0.0429014 0)
(-0.257111 -0.0589198 0)
(-0.236421 -0.0727177 0)
(-0.21161 -0.0835322 0)
(-0.183628 -0.0906687 0)
(-0.153624 -0.093561 0)
(-0.122909 -0.0918388 0)
(-0.0928966 -0.0853985 0)
(-0.0650342 -0.0744756 0)
(-0.0406892 -0.0597154 0)
(-0.0210441 -0.0422308 0)
(-0.0073327 -0.0236612 0)
(-0.0010677 -0.00637702 0)
(-0.00163941 0.0130267 0)
(-0.010126 0.0399365 0)
(-0.0275308 0.064862 0)
(-0.0512148 0.0860171 0)
(-0.079334 0.102425 0)
(-0.110495 0.113616 0)
(-0.143321 0.119485 0)
(-0.17649 0.120177 0)
(-0.208776 0.115997 0)
(-0.239058 0.107345 0)
(-0.266322 0.0946804 0)
(-0.28967 0.0785094 0)
(-0.308326 0.0593837 0)
(-0.321647 0.0379104 0)
(-0.329131 0.0147652 0)
(-0.33044 -0.00929685 0)
(-0.325411 -0.0334355 0)
(-0.314082 -0.0567299 0)
(-0.29671 -0.0781955 0)
(-0.273792 -0.0968158 0)
(-0.246077 -0.111591 0)
(-0.214561 -0.121598 0)
(-0.180484 -0.126074 0)
(-0.145287 -0.124496 0)
(-0.110564 -0.116673 0)
(-0.0779902 -0.102837 0)
(-0.0491998 -0.0837166 0)
(-0.0256726 -0.060592 0)
(-0.00903755 -0.035322 0)
(-0.00133893 -0.0104971 0)
(-0.00191479 0.0186278 0)
(-0.0117403 0.0547079 0)
(-0.0317583 0.0869422 0)
(-0.0588017 0.11367 0)
(-0.0906754 0.134018 0)
(-0.125765 0.147613 0)
(-0.162522 0.154453 0)
(-0.199498 0.154789 0)
(-0.235374 0.149037 0)
(-0.268961 0.137712 0)
(-0.299195 0.121393 0)
(-0.325137 0.100708 0)
(-0.345972 0.0763364 0)
(-0.361019 0.049024 0)
(-0.369736 0.0195978 0)
(-0.371737 -0.0110183 0)
(-0.36681 -0.0417946 0)
(-0.354942 -0.0715975 0)
(-0.336346 -0.0992074 0)
(-0.311486 -0.123354 0)
(-0.281101 -0.14277 0)
(-0.246213 -0.156272 0)
(-0.208133 -0.162849 0)
(-0.168429 -0.161774 0)
(-0.128887 -0.152716 0)
(-0.091433 -0.13585 0)
(-0.0580086 -0.111943 0)
(-0.0304337 -0.0824084 0)
(-0.0107689 -0.0493095 0)
(-0.0016063 -0.015478 0)
(-0.00217533 0.025037 0)
(-0.0132799 0.0715318 0)
(-0.0358074 0.111952 0)
(-0.066088 0.144808 0)
(-0.101585 0.169385 0)
(-0.140464 0.185472 0)
(-0.181009 0.193219 0)
(-0.221648 0.19303 0)
(-0.260977 0.185463 0)
(-0.297756 0.17117 0)
(-0.330882 0.150862 0)
(-0.359391 0.125294 0)
(-0.382441 0.0952758 0)
(-0.399321 0.0616852 0)
(-0.40945 0.0254937 0)
(-0.412389 -0.0122131 0)
(-0.407865 -0.0502216 0)
(-0.395797 -0.0871868 0)
(-0.376324 -0.121647 0)
(-0.349847 -0.152062 0)
(-0.317063 -0.176869 0)
(-0.278991 -0.194576 0)
(-0.23699 -0.203872 0)
(-0.192746 -0.203758 0)
(-0.148244 -0.193694 0)
(-0.105689 -0.173728 0)
(-0.0673687 -0.144612 0)
(-0.0354928 -0.107858 0)
(-0.0126045 -0.0657311 0)
(-0.001888 -0.021349 0)
(-0.00242688 0.0322215 0)
(-0.014766 0.0903297 0)
(-0.0397158 0.139786 0)
(-0.0731187 0.179304 0)
(-0.112103 0.208389 0)
(-0.154618 0.227045 0)
(-0.198784 0.235634 0)
(-0.242912 0.234754 0)
(-0.28553 0.225145 0)
(-0.325355 0.207619 0)
(-0.361268 0.183032 0)
(-0.392292 0.152273 0)
(-0.417577 0.116275 0)
(-0.436389 0.0760424 0)
(-0.448112 0.0326763 0)
(-0.452255 -0.0125911 0)
(-0.448473 -0.0583757 0)
(-0.436593 -0.10313 0)
(-0.416656 -0.145151 0)
(-0.388965 -0.182612 0)
(-0.354134 -0.213629 0)
(-0.313142 -0.236353 0)
(-0.267363 -0.249106 0)
(-0.218585 -0.250537 0)
(-0.168988 -0.239803 0)
(-0.12108 -0.216742 0)
(-0.0775382 -0.182021 0)
(-0.0410194 -0.13721 0)
(-0.0146217 -0.0847772 0)
(-0.00220107 -0.0281823 0)
(-0.00267338 0.0401588 0)
(-0.0162148 0.111039 0)
(-0.0435133 0.170346 0)
(-0.0799275 0.217034 0)
(-0.122252 0.250877 0)
(-0.168221 0.272158 0)
(-0.215797 0.281507 0)
(-0.263186 0.27977 0)
(-0.308861 0.267903 0)
(-0.351519 0.246908 0)
(-0.390044 0.217801 0)
(-0.423469 0.181607 0)
(-0.45095 0.139378 0)
(-0.471751 0.0922285 0)
(-0.485229 0.0413707 0)
(-0.490843 -0.01184 0)
(-0.488167 -0.065872 0)
(-0.47692 -0.118993 0)
(-0.457016 -0.169268 0)
(-0.428619 -0.214579 0)
(-0.392218 -0.252693 0)
(-0.348696 -0.281354 0)
(-0.299401 -0.298441 0)
(-0.246184 -0.302153 0)
(-0.191408 -0.291234 0)
(-0.137897 -0.2652 0)
(-0.0887622 -0.22454 0)
(-0.0471784 -0.170824 0)
(-0.0168959 -0.10672 0)
(-0.00256172 -0.036091 0)
(-0.00291781 0.0488339 0)
(-0.0176396 0.133612 0)
(-0.047225 0.203546 0)
(-0.0865399 0.257866 0)
(-0.132038 0.296673 0)
(-0.181236 0.320593 0)
(-0.231945 0.33059 0)
(-0.282281 0.327809 0)
(-0.330683 0.313472 0)
(-0.375853 0.288799 0)
(-0.416702 0.25498 0)
(-0.452303 0.21318 0)
(-0.481846 0.164561 0)
(-0.504611 0.110327 0)
(-0.519949 0.0517775 0)
(-0.527273 -0.00964268 0)
(-0.526078 -0.0722871 0)
(-0.515961 -0.134269 0)
(-0.49668 -0.193442 0)
(-0.46822 -0.247404 0)
(-0.430886 -0.293552 0)
(-0.385405 -0.329177 0)
(-0.33303 -0.351633 0)
(-0.27562 -0.358553 0)
(-0.215687 -0.348132 0)
(-0.156372 -0.319417 0)
(-0.10126 -0.272591 0)
(-0.0541263 -0.209141 0)
(-0.0195007 -0.131913 0)
(-0.00298604 -0.045228 0)
(-0.00316323 0.0582384 0)
(-0.019055 0.158009 0)
(-0.0508789 0.239301 0)
(-0.0929828 0.301655 0)
(-0.14146 0.345562 0)
(-0.193604 0.372068 0)
(-0.24708 0.38254 0)
(-0.299933 0.378495 0)
(-0.350592 0.361464 0)
(-0.397799 0.332919 0)
(-0.440528 0.294245 0)
(-0.477925 0.246747 0)
(-0.509249 0.191686 0)
(-0.533829 0.130334 0)
(-0.551031 0.0640385 0)
(-0.560246 -0.00570249 0)
(-0.56089 -0.0771741 0)
(-0.552436 -0.14838 0)
(-0.534461 -0.216999 0)
(-0.506729 -0.280366 0)
(-0.469299 -0.335505 0)
(-0.422663 -0.379216 0)
(-0.367888 -0.408241 0)
(-0.306757 -0.419522 0)
(-0.24187 -0.410533 0)
(-0.176658 -0.379666 0)
(-0.115216 -0.326619 0)
(-0.0620091 -0.252667 0)
(-0.022509 -0.160779 0)
(-0.00349079 -0.0557851 0)
(-0.0034142 0.0683725 0)
(-0.0204827 0.18421 0)
(-0.0545176 0.277535 0)
(-0.0993003 0.34824 0)
(-0.150528 0.397281 0)
(-0.20526 0.426214 0)
(-0.261019 0.436902 0)
(-0.315805 0.431304 0)
(-0.368073 0.411323 0)
(-0.416643 0.37872 0)
(-0.460599 0.335094 0)
(-0.499206 0.281891 0)
(-0.531834 0.220458 0)
(-0.557901 0.152106 0)
(-0.576826 0.0781944 0)
(-0.588003 0.000220357 0)
(-0.590794 -0.0800891 0)
(-0.584546 -0.160689 0)
(-0.568642 -0.239139 0)
(-0.542584 -0.312559 0)
(-0.506122 -0.377615 0)
(-0.459417 -0.430594 0)
(-0.403239 -0.467554 0)
(-0.339174 -0.484602 0)
(-0.269804 -0.478292 0)
(-0.198797 -0.44612 0)
(-0.130764 -0.387053 0)
(-0.0709611 -0.301955 0)
(-0.0259957 -0.193815 0)
(-0.00409447 -0.0679936 0)
(-0.00367862 0.0792502 0)
(-0.0219596 0.212221 0)
(-0.058214 0.31819 0)
(-0.105574 0.397444 0)
(-0.159285 0.451506 0)
(-0.216148 0.482556 0)
(-0.273558 0.493064 0)
(-0.329499 0.485525 0)
(-0.382498 0.462279 0)
(-0.431508 0.425423 0)
(-0.475778 0.376788 0)
(-0.514747 0.317965 0)
(-0.547951 0.250367 0)
(-0.574947 0.175315 0)
(-0.595253 0.0941343 0)
(-0.608307 0.00826311 0)
(-0.613448 -0.0806292 0)
(-0.609917 -0.170526 0)
(-0.596902 -0.258952 0)
(-0.573614 -0.342878 0)
(-0.539427 -0.418669 0)
(-0.49407 -0.482103 0)
(-0.43788 -0.528499 0)
(-0.372083 -0.552992 0)
(-0.299088 -0.550983 0)
(-0.222685 -0.518767 0)
(-0.147979 -0.454246 0)
(-0.0811041 -0.357573 0)
(-0.0300399 -0.231574 0)
(-0.00481859 -0.0821264 0)
(-0.00397047 0.0909102 0)
(-0.0235487 0.242094 0)
(-0.0620921 0.361235 0)
(-0.111949 0.449075 0)
(-0.167827 0.507837 0)
(-0.226242 0.540481 0)
(-0.28448 0.550225 0)
(-0.340551 0.540212 0)
(-0.393121 0.5133 0)
(-0.441342 0.471969 0)
(-0.484698 0.418304 0)
(-0.522869 0.354038 0)
(-0.555618 0.280635 0)
(-0.5827 0.199389 0)
(-0.60379 0.11154 0)
(-0.618422 0.0184061 0)
(-0.625958 -0.0784829 0)
(-0.625571 -0.177233 0)
(-0.616269 -0.275437 0)
(-0.596963 -0.370026 0)
(-0.5666 -0.457154 0)
(-0.524373 -0.532144 0)
(-0.470025 -0.589557 0)
(-0.404223 -0.623432 0)
(-0.328979 -0.627775 0)
(-0.24802 -0.597304 0)
(-0.166851 -0.528402 0)
(-0.0925456 -0.420073 0)
(-0.0347295 -0.274668 0)
(-0.00568966 -0.0985023 0)
(-0.00431399 0.103434 0)
(-0.025355 0.273959 0)
(-0.0663544 0.406694 0)
(-0.118663 0.502928 0)
(-0.176329 0.565779 0)
(-0.235555 0.599198 0)
(-0.293547 0.607336 0)
(-0.348416 0.594124 0)
(-0.39905 0.563029 0)
(-0.444891 0.51696 0)
(-0.485739 0.458277 0)
(-0.521591 0.388849 0)
(-0.552506 0.310166 0)
(-0.578503 0.223459 0)
(-0.599476 0.129833 0)
(-0.615118 0.0304142 0)
(-0.624875 -0.0734907 0)
(-0.627908 -0.180219 0)
(-0.623087 -0.287557 0)
(-0.609039 -0.39254 0)
(-0.584257 -0.491252 0)
(-0.547311 -0.578677 0)
(-0.497184 -0.648661 0)
(-0.433741 -0.694076 0)
(-0.358302 -0.707283 0)
(-0.274237 -0.680988 0)
(-0.187257 -0.609464 0)
(-0.105378 -0.489929 0)
(-0.0401692 -0.323754 0)
(-0.00674269 -0.117494 0)
(-0.00475035 0.116971 0)
(-0.027548 0.308067 0)
(-0.0713167 0.454676 0)
(-0.126081 0.558784 0)
(-0.185059 0.624703 0)
(-0.244123 0.65768 0)
(-0.300469 0.663038 0)
(-0.352413 0.64566 0)
(-0.399185 0.609721 0)
(-0.44063 0.558607 0)
(-0.476964 0.494955 0)
(-0.508581 0.420759 0)
(-0.535909 0.337507 0)
(-0.559296 0.246323 0)
(-0.578917 0.148124 0)
(-0.594692 0.0437814 0)
(-0.606221 -0.06571 0)
(-0.612728 -0.17903 0)
(-0.613017 -0.294305 0)
(-0.605483 -0.408849 0)
(-0.58818 -0.518871 0)
(-0.559002 -0.619208 0)
(-0.516023 -0.70313 0)
(-0.458036 -0.762349 0)
(-0.3853 -0.787385 0)
(-0.300407 -0.768456 0)
(-0.208921 -0.696975 0)
(-0.119679 -0.56747 0)
(-0.0464935 -0.379525 0)
(-0.00802723 -0.139542 0)
(-0.00534908 0.13179 0)
(-0.0303966 0.344861 0)
(-0.0774529 0.505402 0)
(-0.134718 0.616385 0)
(-0.194365 0.683788 0)
(-0.251957 0.714576 0)
(-0.304804 0.715561 0)
(-0.351601 0.69277 0)
(-0.392082 0.651178 0)
(-0.426636 0.594676 0)
(-0.456006 0.526168 0)
(-0.481069 0.44774 0)
(-0.502687 0.360834 0)
(-0.521592 0.266425 0)
(-0.538293 0.165193 0)
(-0.553 0.0576905 0)
(-0.565542 -0.0554745 0)
(-0.575292 -0.173433 0)
(-0.581089 -0.2948 0)
(-0.581194 -0.417365 0)
(-0.573293 -0.537714 0)
(-0.554614 -0.650813 0)
(-0.522223 -0.749614 0)
(-0.473586 -0.824819 0)
(-0.407464 -0.865018 0)
(-0.325102 -0.857484 0)
(-0.231341 -0.789871 0)
(-0.135506 -0.652766 0)
(-0.0538904 -0.442703 0)
(-0.00961901 -0.165181 0)
(-0.00622839 0.148342 0)
(-0.0343221 0.385056 0)
(-0.0854487 0.559231 0)
(-0.145248 0.67538 0)
(-0.204609 0.741893 0)
(-0.258892 0.768067 0)
(-0.305761 0.762593 0)
(-0.344544 0.732847 0)
(-0.375708 0.684673 0)
(-0.400355 0.622456 0)
(-0.419871 0.549321 0)
(-0.435691 0.467383 0)
(-0.449158 0.37798 0)
(-0.46142 0.281886 0)
(-0.473354 0.179497 0)
(-0.485502 0.0710042 0)
(-0.497987 -0.0434347 0)
(-0.510423 -0.163488 0)
(-0.521806 -0.288394 0)
(-0.530406 -0.416622 0)
(-0.533687 -0.545415 0)
(-0.528315 -0.670234 0)
(-0.510346 -0.784115 0)
(-0.475728 -0.877098 0)
(-0.421278 -0.935959 0)
(-0.346175 -0.944691 0)
(-0.253671 -0.886194 0)
(-0.152887 -0.74546 0)
(-0.0626422 -0.514023 0)
(-0.0116419 -0.195091 0)
(-0.00759252 0.167378 0)
(-0.0399814 0.429755 0)
(-0.0962549 0.616643 0)
(-0.15845 0.735173 0)
(-0.215973 0.797347 0)
(-0.264279 0.815642 0)
(-0.301804 0.801091 0)
(-0.328891 0.7626 0)
(-0.347029 0.706889 0)
(-0.358225 0.638754 0)
(-0.364613 0.561435 0)
(-0.368233 0.476971 0)
(-0.370917 0.386517 0)
(-0.374221 0.290586 0)
(-0.379388 0.18925 0)
(-0.387297 0.0823082 0)
(-0.398404 -0.0305576 0)
(-0.412645 -0.149604 0)
(-0.429302 -0.274791 0)
(-0.446839 -0.405439 0)
(-0.462722 -0.53974 0)
(-0.473281 -0.674071 0)
(-0.473716 -0.802107 0)
(-0.458421 -0.913819 0)
(-0.421892 -0.994618 0)
(-0.360434 -1.02517 0)
(-0.274502 -0.982691 0)
(-0.171772 -0.844496 0)
(-0.0731895 -0.594197 0)
(-0.0143097 -0.230181 0)
(-0.00980106 0.190143 0)
(-0.0483943 0.480569 0)
(-0.11111 0.678115 0)
(-0.175009 0.794616 0)
(-0.228027 0.847569 0)
(-0.266377 0.853755 0)
(-0.289959 0.827035 0)
(-0.300663 0.777921 0)
(-0.301344 0.713888 0)
(-0.295094 0.63995 0)
(-0.284856 0.559263 0)
(-0.27326 0.473641 0)
(-0.262571 0.383937 0)
(-0.254688 0.29034 0)
(-0.251152 0.192568 0)
(-0.253141 0.0900278 0)
(-0.261438 -0.0180659 0)
(-0.276347 -0.132553 0)
(-0.297554 -0.254144 0)
(-0.323921 -0.38312 0)
(-0.353209 -0.518862 0)
(-0.381778 -0.659097 0)
(-0.404337 -0.798805 0)
(-0.413948 -0.928759 0)
(-0.402648 -1.0339 0)
(-0.363101 -1.09207 0)
(-0.291441 -1.07422 0)
(-0.191888 -0.94765 0)
(-0.0862196 -0.683825 0)
(-0.0180023 -0.271762 0)
(-0.0134959 0.218703 0)
(-0.0611198 0.539705 0)
(-0.131428 0.743759 0)
(-0.194956 0.851386 0)
(-0.238789 0.888434 0)
(-0.261197 0.877338 0)
(-0.264601 0.835137 0)
(-0.253112 0.773795 0)
(-0.231286 0.701185 0)
(-0.203395 0.622177 0)
(-0.173146 0.539547 0)
(-0.143634 0.454661 0)
(-0.117408 0.367941 0)
(-0.0965574 0.27918 0)
(-0.0827863 0.187731 0)
(-0.0774658 0.0926371 0)
(-0.0816401 -0.00729343 0)
(-0.0959764 -0.113411 0)
(-0.120641 -0.227116 0)
(-0.155083 -0.349651 0)
(-0.197691 -0.481707 0)
(-0.245345 -0.622716 0)
(-0.292874 -0.769651 0)
(-0.332612 -0.915194 0)
(-0.354439 -1.04524 0)
(-0.346949 -1.13616 0)
(-0.300305 -1.15295 0)
(-0.212332 -1.05072 0)
(-0.102742 -0.783146 0)
(-0.0233941 -0.321836 0)
(-0.0198163 0.256497 0)
(-0.0804316 0.609846 0)
(-0.158265 0.812414 0)
(-0.216306 0.90082 0)
(-0.242826 0.913282 0)
(-0.240428 0.879176 0)
(-0.215495 0.81861 0)
(-0.175031 0.744367 0)
(-0.125458 0.664024 0)
(-0.07211 0.58173 0)
(-0.0192008 0.499472 0)
(0.0299943 0.417909 0)
(0.0729222 0.336894 0)
(0.107555 0.255771 0)
(0.132237 0.173547 0)
(0.145579 0.0889686 0)
(0.146402 0.000549482 0)
(0.13375 -0.0934253 0)
(0.106965 -0.194881 0)
(0.0658857 -0.305873 0)
(0.0111806 -0.428345 0)
(-0.0551004 -0.563581 0)
(-0.128745 -0.711098 0)
(-0.202418 -0.866658 0)
(-0.264856 -1.01905 0)
(-0.300932 -1.1456 0)
(-0.293594 -1.20726 0)
(-0.230552 -1.14613 0)
(-0.123983 -0.891334 0)
(-0.0316269 -0.38353 0)
(-0.0306582 0.309128 0)
(-0.109157 0.693359 0)
(-0.190545 0.879688 0)
(-0.231888 0.93398 0)
(-0.227534 0.911649 0)
(-0.1879 0.849414 0)
(-0.124821 0.769295 0)
(-0.0484694 0.683487 0)
(0.0331866 0.59813 0)
(0.114302 0.515877 0)
(0.190724 0.437461 0)
(0.259507 0.362596 0)
(0.318515 0.290465 0)
(0.36612 0.219968 0)
(0.40099 0.149827 0)
(0.421937 0.0786065 0)
(0.427831 0.00468654 0)
(0.41756 -0.0738022 0)
(0.390058 -0.159049 0)
(0.34442 -0.253617 0)
(0.280175 -0.360403 0)
(0.197803 -0.482366 0)
(0.0996198 -0.621748 0)
(-0.00885217 -0.778306 0)
(-0.117124 -0.945847 0)
(-0.208087 -1.10625 0)
(-0.257653 -1.22075 0)
(-0.239846 -1.22064 0)
(-0.150456 -1.00473 0)
(-0.0443361 -0.461494 0)
(-0.0484999 0.385574 0)
(-0.148755 0.789766 0)
(-0.219803 0.93396 0)
(-0.222297 0.934715 0)
(-0.166328 0.868067 0)
(-0.0740696 0.775793 0)
(0.0367626 0.67877 0)
(0.153761 0.586195 0)
(0.268708 0.501252 0)
(0.376447 0.424283 0)
(0.473848 0.354405 0)
(0.559008 0.29028 0)
(0.630725 0.230452 0)
(0.688146 0.173471 0)
(0.730537 0.117907 0)
(0.757137 0.0623062 0)
(0.767056 0.00510887 0)
(0.759205 -0.0554598 0)
(0.732265 -0.121528 0)
(0.684708 -0.19574 0)
(0.61492 -0.281411 0)
(0.521546 -0.382591 0)
(0.404228 -0.503806 0)
(0.265045 -0.648991 0)
(0.110956 -0.818612 0)
(-0.0426136 -1.00326 0)
(-0.167705 -1.17158 0)
(-0.223709 -1.25204 0)
(-0.178372 -1.11327 0)
(-0.0626542 -0.562409 0)
(-0.073778 0.500877 0)
(-0.191344 0.88879 0)
(-0.216111 0.947764 0)
(-0.141311 0.874856 0)
(-0.00734023 0.761252 0)
(0.151244 0.645247 0)
(0.313966 0.540919 0)
(0.469487 0.451386 0)
(0.612003 0.375502 0)
(0.738922 0.310892 0)
(0.849345 0.255094 0)
(0.943162 0.205923 0)
(1.02055 0.161531 0)
(1.0817 0.120356 0)
(1.12666 0.0810305 0)
(1.15523 0.042279 0)
(1.16691 0.00280981 0)
(1.16078 -0.0388139 0)
(1.13551 -0.0843369 0)
(1.08919 -0.136018 0)
(1.01934 -0.196909 0)
(0.922923 -0.271184 0)
(0.796686 -0.364457 0)
(0.638096 -0.483739 0)
(0.447667 -0.636157 0)
(0.233695 -0.824131 0)
(0.0200844 -1.03273 0)
(-0.144526 -1.20425 0)
(-0.189761 -1.19325 0)
(-0.0825368 -0.696239 0)
(-0.0911729 0.671511 0)
(-0.193246 0.950096 0)
(-0.0946226 0.864391 0)
(0.110662 0.712122 0)
(0.342014 0.568681 0)
(0.565257 0.450574 0)
(0.767493 0.358207 0)
(0.944631 0.286788 0)
(1.09682 0.230964 0)
(1.22592 0.186374 0)
(1.3341 0.149775 0)
(1.42336 0.118807 0)
(1.49533 0.0917392 0)
(1.55117 0.0672684 0)
(1.59164 0.0443576 0)
(1.61707 0.0221136 0)
(1.62734 -0.000319669 0)
(1.62184 -0.0238663 0)
(1.59941 -0.0496523 0)
(1.55815 -0.0791793 0)
(1.49528 -0.114594 0)
(1.40682 -0.159105 0)
(1.28735 -0.217615 0)
(1.13001 -0.297585 0)
(0.927404 -0.409812 0)
(0.675254 -0.567452 0)
(0.380184 -0.778636 0)
(0.0770718 -1.02352 0)
(-0.128781 -1.18747 0)
(-0.0775236 -0.861615 0)
(0.0101974 0.815317 0)
(0.0266309 0.852602 0)
(0.359464 0.615926 0)
(0.722706 0.430591 0)
(1.02418 0.304794 0)
(1.26709 0.219825 0)
(1.46295 0.162426 0)
(1.62073 0.122989 0)
(1.74807 0.0949437 0)
(1.85108 0.0741367 0)
(1.9343 0.0579994 0)
(2.00096 0.0449187 0)
(2.05336 0.0338484 0)
(2.09306 0.0240775 0)
(2.12108 0.0150892 0)
(2.13796 0.00647045 0)
(2.14382 -0.00215299 0)
(2.13835 -0.0111751 0)
(2.12074 -0.0210717 0)
(2.08956 -0.0324948 0)
(2.04249 -0.0464232 0)
(1.97594 -0.0644356 0)
(1.88437 -0.089225 0)
(1.75929 -0.125588 0)
(1.58814 -0.182233 0)
(1.35371 -0.274528 0)
(1.03298 -0.426829 0)
(0.607399 -0.667132 0)
(0.174444 -0.967871 0)
(0.077073 -0.930328 0)
(0.886962 0.431535 0)
(1.15962 0.378517 0)
(1.62532 0.230007 0)
(1.97395 0.136114 0)
(2.18834 0.0829058 0)
(2.32886 0.0522619 0)
(2.42821 0.0343899 0)
(2.50116 0.0237087 0)
(2.55617 0.0170099 0)
(2.5985 0.012534 0)
(2.6314 0.00933375 0)
(2.6569 0.00688944 0)
(2.67629 0.0049045 0)
(2.69042 0.00319999 0)
(2.6998 0.00165896 0)
(2.70473 0.000196022 0)
(2.7053 -0.0012612 0)
(2.70141 -0.00278769 0)
(2.69275 -0.00447243 0)
(2.67872 -0.00644175 0)
(2.65833 -0.008896 0)
(2.62995 -0.0121845 0)
(2.59083 -0.0169694 0)
(2.53623 -0.0245982 0)
(2.45759 -0.037943 0)
(2.339 -0.0632077 0)
(2.1451 -0.113457 0)
(1.79812 -0.213469 0)
(1.28212 -0.383519 0)
(0.943183 -0.45238 0)
)
;

boundaryField
{
    movingWall
    {
        type            fixedValue;
        value           uniform (3 0 0);
    }
    fixedWalls
    {
        type            noSlip;
    }
    frontAndBack
    {
        type            empty;
    }
}


// ************************************************************************* //
