/*--------------------------------*- C++ -*----------------------------------*\
  =========                 |
  \\      /  F ield         | OpenFOAM: The Open Source CFD Toolbox
   \\    /   O peration     | Website:  https://openfoam.org
    \\  /    A nd           | Version:  9
     \\/     M anipulation  |
\*---------------------------------------------------------------------------*/
FoamFile
{
    format      ascii;
    class       volVectorField;
    location    "60";
    object      U;
}
// * * * * * * * * * * * * * * * * * * * * * * * * * * * * * * * * * * * * * //

dimensions      [0 1 -1 0 0 0 0];

internalField   nonuniform List<vector> 
10720
(
(-2.1344 17.0996 1.97315e-17)
(-1.23892 17.28 -1.97665e-17)
(-0.315162 17.0881 0)
(0.560026 16.3119 -1.98262e-16)
(1.30427 14.9795 2.31391e-16)
(1.82952 12.976 1.25741e-16)
(2.00783 10.2553 1.58476e-16)
(1.77229 6.97117 0)
(1.14752 3.45592 0)
(0.211208 0.336157 0)
(-0.745985 -0.939301 1.57126e-17)
(-1.46684 -1.14962 0)
(-2.00124 -1.16267 1.94234e-15)
(-2.40261 -1.20078 0)
(-2.63926 -1.22541 0)
(-2.26458 -1.12222 0)
(-1.37003 -0.960401 -3.29112e-15)
(-0.264935 -0.748645 -6.12493e-15)
(0.737179 -0.402741 6.20425e-15)
(1.3836 -0.124898 0)
(1.66308 0.115539 5.68882e-15)
(1.91308 0.341543 -1.4673e-14)
(1.11814 0.280021 5.83937e-15)
(-1.34813 0.0799963 -9.82821e-17)
(-3.59618 -0.00918641 0)
(-5.50797 0.0201342 1.22465e-15)
(-7.0839 0.149328 1.77652e-17)
(-8.37506 0.344391 -6.14779e-16)
(-9.4436 0.581771 -2.48345e-15)
(-10.3349 0.844111 -9.96794e-15)
(-11.0787 1.11699 4.96838e-15)
(-11.7017 1.38852 1.01488e-14)
(-12.2012 1.6441 9.90441e-15)
(-12.4746 1.86006 3.9262e-14)
(-12.3634 1.99951 -1.88044e-14)
(-11.6357 2.00984 -1.43756e-16)
(-9.3886 1.64783 9.47872e-17)
(-4.94952 0.52685 3.71451e-14)
(-1.87508 -0.328097 -7.4202e-14)
(-3.03142 16.7126 9.12593e-18)
(-3.95772 16.0697 1.73027e-17)
(-4.86834 15.1824 -2.96506e-17)
(-5.66988 13.8735 2.82418e-17)
(-6.26797 12.3553 8.22419e-17)
(-6.57906 10.6339 -2.33104e-17)
(-6.54355 8.79843 1.14136e-16)
(-6.15049 6.99177 1.34742e-16)
(-5.46696 5.35297 0)
(-4.58627 3.94511 0)
(-3.58549 2.78826 6.80189e-16)
(-2.54729 1.88194 5.08545e-16)
(-1.52678 1.19269 -1.51379e-15)
(-0.562098 0.680482 2.63316e-15)
(0.302883 0.296437 6.99894e-15)
(1.11069 -0.0440412 3.67456e-15)
(1.89559 -0.31938 3.79785e-15)
(2.62908 -0.517532 2.23298e-15)
(3.30361 -0.655181 0)
(3.93628 -0.751051 0)
(4.54372 -0.81482 -2.81285e-15)
(5.13324 -0.847445 -1.43665e-16)
(5.70823 -0.847072 2.13944e-15)
(6.26437 -0.805714 -1.70286e-15)
(6.78469 -0.720897 5.47868e-18)
(7.26173 -0.602992 0)
(7.70013 -0.460385 5.19266e-16)
(8.10399 -0.299138 0)
(8.4753 -0.123571 0)
(8.81708 0.0617675 2.97998e-16)
(9.13509 0.253611 0)
(9.43383 0.448702 -7.25961e-16)
(9.72293 0.645305 -1.01037e-15)
(10.011 0.842511 -3.00121e-15)
(10.3269 1.04415 3.86232e-16)
(10.6719 1.25279 2.32673e-19)
(11.2109 1.5004 0)
(11.696 1.804 -5.44956e-15)
(14.1367 2.15448 -8.57712e-15)
(2.14488 15.7653 5.49156e-18)
(3.0982 16.0847 -8.20588e-18)
(4.03521 16.4137 0)
(4.85685 16.6768 0)
(5.47509 16.8258 -4.80331e-17)
(5.85092 16.803 -8.27463e-17)
(5.94368 16.3923 0)
(5.71976 15.2959 0)
(5.13322 13.1695 1.24493e-16)
(4.11501 9.87379 0)
(2.62405 5.87818 7.07164e-16)
(0.821897 1.87227 0)
(-0.822851 -0.347901 7.13304e-16)
(-1.91459 -0.858354 -6.34593e-16)
(-2.51431 -1.1105 1.20917e-15)
(-2.501 -1.32368 -2.16457e-15)
(-1.91116 -1.502 1.82508e-15)
(-1.05299 -1.43919 1.89347e-15)
(-0.278147 -0.979815 2.54266e-15)
(0.262308 -0.432165 2.57083e-16)
(0.613836 0.0917466 -3.50154e-15)
(-0.345884 0.403391 2.2421e-15)
(-2.5974 0.348513 -8.97752e-17)
(-4.94619 0.190704 0)
(-6.79432 0.0944987 0)
(-8.23484 0.102462 0)
(-9.38538 0.2084 9.50371e-17)
(-10.3287 0.38233 -2.67822e-17)
(-11.1193 0.603194 1.75585e-15)
(-11.7875 0.854862 1.15927e-17)
(-12.3392 1.12183 -1.09157e-17)
(-12.7642 1.38817 -7.91177e-17)
(-13.0452 1.62891 7.51815e-15)
(-13.1442 1.82682 -1.48485e-14)
(-13.0216 1.96186 -1.05699e-16)
(-12.3583 1.99169 -2.38938e-14)
(-10.2679 1.7077 0)
(-6.04923 0.592741 -7.92534e-15)
(-2.23937 -0.116163 -2.61175e-14)
(1.19555 15.3502 -7.40914e-18)
(0.252221 14.825 1.04411e-17)
(-0.78384 14.125 5.53201e-17)
(-1.78506 13.1995 -8.47699e-17)
(-2.67732 12.0361 0)
(-3.38745 10.6626 -7.91297e-17)
(-3.84038 9.13381 -7.96597e-17)
(-3.97776 7.55789 -5.7689e-16)
(-3.8043 6.04594 2.4508e-16)
(-3.37302 4.6717 -4.02151e-16)
(-2.74921 3.48585 7.4572e-16)
(-2.00442 2.50859 -3.2633e-16)
(-1.20177 1.72949 0)
(-0.388606 1.12268 -6.23488e-16)
(0.401033 0.651445 -1.93164e-17)
(1.16529 0.265116 -1.97592e-15)
(1.90854 -0.0287276 0)
(2.61477 -0.235646 0)
(3.27788 -0.384174 -1.81874e-16)
(3.90981 -0.492642 1.62212e-16)
(4.52236 -0.566157 -2.04743e-15)
(5.12112 -0.602695 -2.34559e-16)
(5.70804 -0.599905 1.04405e-16)
(6.27958 -0.549352 1.38608e-15)
(6.82177 -0.453031 -1.21914e-15)
(7.32599 -0.328023 -9.85474e-16)
(7.79465 -0.183295 0)
(8.23091 -0.0236717 0)
(8.63595 0.147771 0)
(9.0128 0.326735 2.68838e-18)
(9.36613 0.51087 0)
(9.70018 0.697208 0)
(10.0239 0.884804 1.70384e-15)
(10.3454 1.07409 1.00212e-15)
(10.6927 1.26997 -3.20384e-16)
(11.064 1.47843 -3.83257e-16)
(11.6313 1.73664 2.29471e-15)
(12.1014 2.04364 4.23631e-15)
(14.5467 2.77204 6.10376e-15)
(0.821116 14.4792 1.80006e-18)
(1.47592 14.7513 3.90611e-17)
(2.17838 14.9214 -3.14457e-17)
(2.93372 15.0413 -2.72987e-17)
(3.67679 15.1524 -6.535e-17)
(4.40457 15.3588 1.81887e-16)
(5.06934 15.7123 -1.12476e-16)
(5.62339 16.0995 -9.18129e-17)
(6.01054 16.1308 -7.73658e-19)
(6.06058 15.1641 -9.69757e-17)
(5.48106 12.6909 9.11924e-17)
(4.07948 8.70851 -2.86576e-16)
(1.95836 4.21561 -2.24454e-16)
(-0.269169 0.912183 0)
(-1.66076 -0.311143 -9.59302e-16)
(-2.143 -1.11257 1.72824e-15)
(-2.0276 -1.81086 0)
(-1.6001 -2.02109 -2.46314e-15)
(-1.19728 -1.51258 -1.45764e-15)
(-1.07548 -0.686914 2.53823e-16)
(-1.65248 0.0792004 -1.7886e-16)
(-3.17508 0.476374 -6.88682e-17)
(-4.93999 0.527749 -8.73977e-16)
(-6.40329 0.427718 4.70873e-16)
(-7.57428 0.328393 0)
(-8.60481 0.312712 5.6991e-16)
(-9.54571 0.390255 -7.81096e-17)
(-10.4026 0.537173 0)
(-11.1739 0.734221 1.43889e-15)
(-11.856 0.965865 3.09255e-15)
(-12.4387 1.21737 -6.36757e-15)
(-12.9147 1.47335 -6.3431e-15)
(-13.2762 1.7062 -1.09536e-16)
(-13.4702 1.89148 -1.24793e-14)
(-13.4055 1.98747 -1.12882e-14)
(-12.809 1.95801 1.84418e-14)
(-10.8536 1.61429 0)
(-6.81922 0.418553 -5.24904e-15)
(-2.86423 -0.396294 3.00376e-14)
(0.220474 14.1177 3.86021e-18)
(-0.37525 13.6394 4.32741e-18)
(-0.981285 12.9832 -3.66252e-17)
(-1.59133 12.164 0)
(-2.13248 11.1858 2.24131e-17)
(-2.56614 10.0549 0)
(-2.84816 8.80497 2.46648e-16)
(-2.93829 7.50571 1.60709e-16)
(-2.8217 6.22744 2.25015e-16)
(-2.51243 5.02418 0)
(-2.04587 3.93991 -8.28101e-16)
(-1.4632 3.00232 -2.67479e-16)
(-0.80682 2.21616 1.64235e-15)
(-0.113838 1.57216 0)
(0.585745 1.05407 -1.4486e-15)
(1.28335 0.632488 -4.43064e-16)
(1.97422 0.303565 1.89745e-15)
(2.64197 0.0562582 9.8699e-16)
(3.27931 -0.131718 2.84379e-16)
(3.89298 -0.274716 -1.35599e-16)
(4.49125 -0.377502 1.66869e-15)
(5.0783 -0.440086 0)
(5.65533 -0.461715 0)
(6.21917 -0.437644 2.51087e-18)
(6.75825 -0.370285 0)
(7.26449 -0.272037 1.80363e-15)
(7.7391 -0.149776 -2.52709e-17)
(8.18493 -0.00764621 -1.63397e-16)
(8.6032 0.150973 0)
(8.99699 0.32122 -2.25891e-16)
(9.37084 0.500935 3.66445e-16)
(9.72889 0.6868 0)
(10.0798 0.877678 -7.97483e-16)
(10.4311 1.07388 0)
(10.8103 1.28005 0)
(11.2128 1.50352 1.81834e-17)
(11.8112 1.77803 -5.22895e-17)
(12.2882 2.13885 -3.96489e-15)
(14.59 2.92903 -1.20083e-14)
(2.10985 13.4872 2.29263e-18)
(2.72083 13.7706 5.82462e-18)
(3.36292 13.99 -1.50372e-17)
(3.9867 14.147 -8.85073e-18)
(4.53329 14.2352 0)
(4.99816 14.2902 0)
(5.39602 14.404 -1.66086e-16)
(5.76367 14.6982 1.7321e-16)
(6.15461 15.2273 0)
(6.55636 15.7191 -1.44928e-16)
(6.75711 15.5156 -1.63606e-16)
(6.37818 13.8048 -1.68229e-16)
(5.02041 10.1931 2.26204e-16)
(2.64813 5.49916 3.26561e-16)
(0.126665 1.75354 0)
(-1.24513 -0.151241 1.1623e-15)
(-1.71626 -1.53592 3.11604e-16)
(-1.87515 -2.20651 2.00989e-15)
(-1.99335 -1.76603 1.42223e-16)
(-2.44175 -0.780153 -1.66527e-16)
(-3.40765 0.125599 1.077e-15)
(-4.6206 0.625691 -1.48137e-16)
(-5.69148 0.748699 7.86584e-16)
(-6.59649 0.668361 3.91669e-16)
(-7.48297 0.559026 -2.86102e-17)
(-8.40332 0.518287 -4.38423e-16)
(-9.3194 0.563672 4.19747e-18)
(-10.1895 0.67814 -3.99076e-18)
(-10.9921 0.84582 -1.15737e-15)
(-11.7177 1.05315 -3.93371e-17)
(-12.3546 1.28675 2.65449e-15)
(-12.8928 1.53001 -5.32283e-15)
(-13.3194 1.75141 -5.0151e-15)
(-13.5754 1.92215 -6.88148e-17)
(-13.5728 1.99227 8.93574e-15)
(-13.0615 1.91886 0)
(-11.2562 1.5054 9.46406e-15)
(-7.44551 0.21932 3.93404e-15)
(-3.53461 -0.727344 -1.0672e-14)
(1.52054 13.154 -1.7182e-18)
(0.921017 12.7413 -5.72201e-18)
(0.295884 12.199 2.70562e-18)
(-0.328822 11.513 0)
(-0.891009 10.6818 -2.1169e-17)
(-1.35902 9.71288 0)
(-1.69441 8.63259 -2.60542e-16)
(-1.86372 7.4996 -2.21922e-18)
(-1.85439 6.36997 2.1308e-16)
(-1.6743 5.28617 3.02426e-16)
(-1.34763 4.28604 6.69123e-18)
(-0.903424 3.39653 8.59135e-16)
(-0.373746 2.62655 -8.31743e-16)
(0.210502 1.97411 3.29097e-16)
(0.821227 1.43204 1.44165e-15)
(1.44723 0.981098 1.6681e-15)
(2.08071 0.617797 -1.50835e-15)
(2.70562 0.334327 -7.54281e-18)
(3.31321 0.114167 0)
(3.90539 -0.0557813 1.6883e-15)
(4.48685 -0.181282 9.12328e-17)
(5.06008 -0.263895 -1.40455e-15)
(5.62538 -0.303835 0)
(6.17939 -0.29826 1.3172e-18)
(6.71193 -0.248868 0)
(7.21494 -0.165747 -7.69657e-16)
(7.68839 -0.0562166 0)
(8.13453 0.0749202 1.44079e-16)
(8.55445 0.223828 -5.52306e-18)
(8.9511 0.385482 3.38277e-18)
(9.32889 0.55794 -3.11083e-16)
(9.69205 0.737875 -8.78508e-18)
(10.0491 0.924226 0)
(10.4076 1.11756 4.35825e-16)
(10.7945 1.32253 4.566e-18)
(11.2053 1.54826 2.99284e-16)
(11.8056 1.82655 -3.77985e-15)
(12.2899 2.22205 -9.54523e-18)
(14.3967 3.00913 0)
(2.18459 12.7658 1.35276e-18)
(2.65117 13.0551 4.57802e-18)
(3.15118 13.3049 -2.27791e-17)
(3.66033 13.5156 1.20654e-16)
(4.16755 13.6655 -3.15058e-17)
(4.67287 13.763 -6.2106e-17)
(5.14915 13.8291 7.83253e-17)
(5.58192 13.9165 0)
(5.99118 14.1505 2.03712e-16)
(6.42512 14.6528 7.77981e-17)
(6.89381 15.3076 0)
(7.23638 15.4829 1.43459e-16)
(7.00313 14.1553 -7.9307e-17)
(5.62352 10.6994 2.67904e-16)
(3.06266 5.96903 0)
(0.525319 2.00264 -9.1651e-16)
(-0.868826 -0.487501 1.22638e-15)
(-1.69682 -1.8555 -2.33163e-17)
(-2.31877 -1.70051 0)
(-3.09427 -0.679119 1.11976e-15)
(-4.05543 0.279195 -8.69958e-16)
(-4.91748 0.81699 -4.2852e-17)
(-5.63689 0.961166 -6.33426e-16)
(-6.36466 0.891151 -6.12752e-16)
(-7.19473 0.779914 0)
(-8.10119 0.721459 0)
(-9.01808 0.738259 -1.03292e-16)
(-9.89754 0.821345 -1.45052e-17)
(-10.7184 0.959207 9.49621e-16)
(-11.4734 1.1408 -3.17784e-17)
(-12.1518 1.35366 3.0839e-17)
(-12.7435 1.58004 4.18063e-15)
(-13.2323 1.78587 0)
(-13.5574 1.93777 1.65816e-14)
(-13.6322 1.97899 -5.78157e-17)
(-13.2198 1.86006 0)
(-11.5753 1.37598 4.77956e-17)
(-8.00997 0.00880001 0)
(-4.23089 -1.07361 8.66235e-15)
(1.74141 12.4373 3.59638e-19)
(1.29366 12.0448 -7.35892e-18)
(0.820837 11.5386 1.76873e-17)
(0.331541 10.9187 4.05264e-17)
(-0.12049 10.1876 -1.38066e-16)
(-0.512746 9.34326 -2.18958e-16)
(-0.81295 8.40272 2.47376e-16)
(-0.988796 7.41309 -3.3746e-16)
(-1.0241 6.41778 -2.27584e-16)
(-0.919592 5.44831 -2.77138e-16)
(-0.688916 4.53599 6.43168e-16)
(-0.350304 3.70545 -7.87683e-16)
(0.0745382 2.96704 -4.7356e-16)
(0.56227 2.32351 5.57931e-16)
(1.08928 1.77337 -1.49561e-15)
(1.64506 1.30526 2.59949e-16)
(2.22053 0.918453 0)
(2.80012 0.607756 -1.13157e-15)
(3.37423 0.360813 4.07476e-16)
(3.94126 0.166362 -1.65352e-15)
(4.50281 0.0186971 0)
(5.05971 -0.0842285 1.1589e-15)
(5.61128 -0.143092 9.5804e-16)
(6.15388 -0.156627 -8.39029e-16)
(6.67824 -0.126398 0)
(7.17639 -0.0605276 -6.88189e-16)
(7.64718 0.033608 0)
(8.09213 0.151278 0)
(8.51206 0.288501 0)
(8.90954 0.440441 1.79598e-16)
(9.28873 0.60502 0)
(9.65373 0.778958 0)
(10.0128 0.961018 -6.47683e-16)
(10.3733 1.15195 -3.90638e-16)
(10.7615 1.35623 0)
(11.1734 1.58499 2.36964e-16)
(11.7661 1.86779 3.70369e-17)
(12.2512 2.29329 0)
(14.1809 3.0866 4.10759e-15)
(2.71219 12.1201 -1.04537e-18)
(3.13849 12.4031 6.85303e-19)
(3.59388 12.6573 0)
(4.06203 12.8831 -3.2972e-18)
(4.5079 13.0675 -6.03696e-17)
(4.92433 13.2257 6.09249e-17)
(5.30559 13.3639 7.79511e-18)
(5.65698 13.4844 -1.65439e-16)
(5.9931 13.6129 -1.52891e-17)
(6.3392 13.8406 1.8159e-16)
(6.74551 14.3166 -5.90924e-17)
(7.24726 15.0073 1.17015e-16)
(7.67797 15.3045 5.45595e-17)
(7.4913 14.0609 4.5179e-17)
(5.98468 10.5636 0)
(3.30237 5.78224 -1.25294e-16)
(0.722876 1.61706 -4.29983e-16)
(-0.984043 -0.876629 -2.07685e-15)
(-2.12307 -1.33071 5.53953e-16)
(-3.04073 -0.408758 -6.36178e-16)
(-3.94445 0.529468 -7.66666e-17)
(-4.66333 1.04358 0)
(-5.30642 1.18493 5.07992e-16)
(-6.02678 1.12332 3.29726e-17)
(-6.86317 1.01087 -2.03077e-17)
(-7.76834 0.93419 -2.95556e-16)
(-8.68111 0.921819 7.67446e-17)
(-9.56044 0.972708 1.85051e-16)
(-10.3893 1.07987 -7.81431e-16)
(-11.1627 1.23445 -5.27939e-17)
(-11.8713 1.42478 1.79521e-15)
(-12.5064 1.6317 3.39601e-15)
(-13.053 1.81979 0)
(-13.4509 1.95074 5.07269e-17)
(-13.6125 1.96133 -6.32187e-15)
(-13.3103 1.79419 0)
(-11.8389 1.23788 -1.33534e-14)
(-8.53991 -0.206081 0)
(-4.95619 -1.43267 -7.51567e-15)
(2.30534 11.8102 -1.22641e-19)
(1.89581 11.4498 7.74942e-18)
(1.46399 10.9919 0)
(1.02062 10.434 0)
(0.610892 9.78024 6.77317e-17)
(0.250138 9.0285 4.05561e-16)
(-0.0356674 8.19169 0)
(-0.219221 7.31091 -3.32015e-16)
(-0.28603 6.42212 -4.05921e-16)
(-0.235025 5.54893 4.92666e-16)
(-0.0747576 4.71671 -8.1519e-18)
(0.182633 3.94659 3.424e-16)
(0.522331 3.24776 -1.1093e-17)
(0.926552 2.62507 1.43672e-15)
(1.3778 2.07857 1.47538e-15)
(1.86796 1.60396 -1.39609e-15)
(2.38642 1.203 2.122e-16)
(2.91945 0.872216 -3.93156e-16)
(3.45738 0.6031 1.81996e-16)
(3.99627 0.387099 1.13249e-15)
(4.53522 0.219124 1.4894e-16)
(5.07358 0.0969865 -1.25993e-16)
(5.60971 0.0198085 -8.00818e-16)
(6.13957 -0.0120432 0)
(6.65449 -0.000214077 4.2801e-17)
(7.14655 0.0487616 1.20862e-15)
(7.61363 0.127882 -8.03791e-18)
(8.05648 0.232446 7.73209e-18)
(8.47559 0.358343 0)
(8.87313 0.500771 -1.63102e-16)
(9.25294 0.657464 0)
(9.61892 0.825222 0)
(9.97903 1.00267 5.78915e-16)
(10.3404 1.19082 3.76391e-16)
(10.7284 1.39399 0)
(11.1396 1.62546 -2.13184e-16)
(11.7228 1.91236 2.87689e-15)
(12.2051 2.36464 -1.4404e-17)
(13.9725 3.16226 -3.6017e-15)
(3.02899 11.6084 -7.63232e-19)
(3.39134 11.89 -9.05699e-19)
(3.78128 12.1546 -7.74742e-18)
(4.1828 12.4022 7.96146e-18)
(4.5733 12.6124 3.95329e-17)
(4.96463 12.7976 0)
(5.34248 12.9648 -8.10211e-17)
(5.69773 13.1197 9.20208e-18)
(6.03394 13.2671 -6.22761e-17)
(6.3572 13.4158 -1.1496e-16)
(6.68989 13.6404 0)
(7.09652 14.1031 -2.24471e-16)
(7.63206 14.797 -1.74492e-16)
(8.11049 15.0672 -4.06075e-16)
(7.84233 13.6439 0)
(6.095 9.90362 -3.15102e-16)
(3.19691 4.98222 -4.5355e-16)
(0.358863 0.953221 7.53657e-16)
(-1.52512 -0.610635 -8.89524e-16)
(-2.5863 -0.0274462 6.60256e-16)
(-3.47784 0.846384 7.16826e-17)
(-4.20188 1.31151 -5.47595e-16)
(-4.88521 1.43824 0)
(-5.64805 1.37609 -5.38433e-16)
(-6.50374 1.25522 3.09171e-17)
(-7.40917 1.15619 2.83805e-16)
(-8.31615 1.11261 0)
(-9.19224 1.13029 -1.02476e-17)
(-10.0245 1.2063 3.19804e-17)
(-10.8104 1.3335 1.38512e-15)
(-11.5417 1.50059 -1.44703e-15)
(-12.2117 1.68675 -2.88754e-15)
(-12.8075 1.85543 2.89126e-15)
(-13.273 1.964 -4.97487e-19)
(-13.5235 1.94265 5.41483e-15)
(-13.3398 1.72553 8.91146e-15)
(-12.0553 1.09636 5.97851e-15)
(-9.04412 -0.423773 -5.45885e-17)
(-5.70542 -1.79491 2.16723e-17)
(2.68384 11.3067 1.13456e-18)
(2.33608 10.9644 2.37142e-17)
(1.96574 10.5359 3.56895e-17)
(1.58016 10.0211 -5.71096e-17)
(1.21971 9.42629 -2.57925e-16)
(0.896091 8.74671 1.03371e-16)
(0.631646 7.99211 2.56853e-16)
(0.451075 7.19918 7.92276e-16)
(0.367628 6.3984 3.9972e-16)
(0.383463 5.60749 -4.55267e-16)
(0.493246 4.8472 -2.39397e-17)
(0.689031 4.13539 -3.39614e-16)
(0.960599 3.47914 0)
(1.29458 2.88355 -1.6676e-17)
(1.67919 2.34982 -8.53013e-16)
(2.10884 1.87768 3.98456e-16)
(2.5727 1.47034 -3.77788e-16)
(3.05924 1.12614 0)
(3.5594 0.839943 6.36437e-16)
(4.06791 0.605752 -1.17085e-15)
(4.58204 0.419739 0)
(5.09985 0.279845 9.40648e-16)
(5.61891 0.18522 0)
(6.13473 0.135632 -4.47629e-17)
(6.63897 0.129615 4.2844e-17)
(7.1237 0.161762 -5.58743e-16)
(7.58602 0.225857 -9.09489e-18)
(8.02596 0.317086 -7.15826e-18)
(8.4436 0.431411 2.66961e-18)
(8.84069 0.564023 -1.552e-16)
(9.22069 0.712557 -2.47226e-16)
(9.58732 0.873848 3.73511e-16)
(9.94813 1.04649 1.01092e-17)
(10.3099 1.23171 7.62599e-18)
(10.6974 1.43378 0)
(11.1073 1.66796 -6.52899e-18)
(11.6798 1.95916 -1.26496e-15)
(12.1576 2.43513 1.07301e-17)
(13.7729 3.2348 -3.09889e-15)
(3.38688 11.1652 5.24565e-19)
(3.71375 11.4411 3.8407e-18)
(4.06628 11.7064 0)
(4.43174 11.9593 -8.89758e-18)
(4.78939 12.1805 1.52866e-17)
(5.14433 12.3843 0)
(5.48589 12.5749 -2.42089e-17)
(5.81015 12.7549 2.14112e-16)
(6.12356 12.9321 -2.60445e-16)
(6.42949 13.1037 7.89612e-17)
(6.73132 13.2716 9.3942e-17)
(7.05226 13.5096 3.04097e-16)
(7.46678 13.9813 2.00403e-16)
(8.04043 14.6516 2.15188e-16)
(8.4958 14.7331 5.56561e-17)
(7.97596 12.9011 1.93899e-16)
(5.8027 8.75224 3.10564e-16)
(2.48502 3.81693 4.21123e-16)
(-0.477737 0.677512 -4.52757e-16)
(-1.94054 0.478474 -1.30511e-15)
(-2.86179 1.21759 0)
(-3.65606 1.62741 4.36472e-18)
(-4.41827 1.72788 4.41664e-16)
(-5.23672 1.65271 4.8598e-16)
(-6.11601 1.51438 -2.80105e-17)
(-7.02433 1.38829 -2.57594e-16)
(-7.92692 1.31137 2.25124e-18)
(-8.79942 1.29496 -1.64327e-16)
(-9.63295 1.33938 1.78631e-17)
(-10.4273 1.43888 -2.45488e-15)
(-11.1765 1.58209 2.3549e-18)
(-11.8753 1.74629 -3.90873e-17)
(-12.5126 1.89432 -2.55409e-15)
(-13.0369 1.97912 1.58831e-18)
(-13.3706 1.92451 -4.75221e-15)
(-13.3077 1.65592 -1.58439e-14)
(-12.2236 0.953982 5.48043e-15)
(-9.52437 -0.640738 2.61256e-15)
(-6.4668 -2.1331 -6.45365e-15)
(3.07591 10.8745 -9.24559e-18)
(2.76405 10.5501 -3.59149e-17)
(2.43172 10.1481 -3.23727e-17)
(2.08554 9.6692 -7.51951e-17)
(1.76077 9.12111 1.57374e-16)
(1.46597 8.49856 5.63975e-18)
(1.22004 7.80947 -7.44776e-16)
(1.04497 7.08745 -3.28195e-16)
(0.952306 6.35908 -1.47587e-17)
(0.944487 5.63787 0)
(1.01775 4.94108 -5.14352e-16)
(1.16662 4.28354 5.98887e-16)
(1.3838 3.67033 -6.99414e-16)
(1.65966 3.10492 -3.83955e-16)
(1.98704 2.58992 3.61201e-16)
(2.36187 2.12711 3.46331e-16)
(2.7745 1.71999 1.32474e-15)
(3.21574 1.36847 -3.14526e-16)
(3.67753 1.07014 -5.80645e-16)
(4.15414 0.821382 0)
(4.64171 0.619716 -9.56907e-16)
(5.13729 0.463605 -7.63053e-16)
(5.63776 0.352536 -6.05089e-18)
(6.13828 0.285946 -8.9101e-17)
(6.63063 0.262658 -3.65917e-17)
(7.10684 0.278374 5.72141e-16)
(7.56337 0.327524 -1.39001e-17)
(7.99955 0.405358 1.14474e-16)
(8.41504 0.507945 2.39875e-17)
(8.81115 0.630544 1.39996e-16)
(9.19096 0.770688 -1.94901e-18)
(9.55793 0.925287 -7.29987e-16)
(9.91919 1.09296 -5.08782e-16)
(10.2813 1.27512 -3.25381e-16)
(10.6679 1.47606 -4.01492e-18)
(11.076 1.71283 4.67272e-19)
(11.6372 2.00834 1.11845e-15)
(12.1089 2.50445 2.0263e-15)
(13.5813 3.30433 2.84159e-15)
(3.70172 10.7884 -2.89582e-18)
(3.99441 11.0597 -7.93464e-19)
(4.31104 11.326 -3.22812e-18)
(4.64014 11.5846 -7.81523e-18)
(4.96279 11.8161 1.56004e-17)
(5.28818 12.0319 -3.71954e-17)
(5.60859 12.2351 1.15852e-16)
(5.91677 12.4263 0)
(6.21662 12.6149 8.14236e-17)
(6.51072 12.8046 8.78761e-19)
(6.80161 12.9898 -8.30474e-17)
(7.09336 13.1723 -2.90574e-16)
(7.41192 13.4265 -1.07237e-16)
(7.84726 13.9129 0)
(8.44042 14.5067 0)
(8.74343 14.2505 0)
(7.75036 11.8193 0)
(4.91436 7.22778 -2.82445e-16)
(1.21012 2.79533 4.07597e-16)
(-1.13752 1.24297 4.94141e-16)
(-2.17534 1.65136 -3.71602e-16)
(-3.06179 1.99545 3.06372e-16)
(-3.91531 2.05806 -3.31715e-16)
(-4.79356 1.95622 -2.44801e-17)
(-5.70043 1.79066 -1.49755e-17)
(-6.61587 1.63198 2.49094e-16)
(-7.51693 1.51904 6.27335e-17)
(-8.3865 1.46713 0)
(-9.21967 1.47932 0)
(-10.0191 1.55073 -2.00096e-18)
(-10.7811 1.66964 0)
(-11.503 1.81127 2.31219e-15)
(-12.1753 1.93749 -2.35354e-15)
(-12.7507 1.99708 -4.38913e-15)
(-13.1589 1.90804 8.42575e-15)
(-13.2121 1.58689 7.18061e-15)
(-12.3373 0.813189 -5.03551e-15)
(-9.97881 -0.854464 -5.11271e-15)
(-7.25953 -2.44212 6.11944e-15)
(3.42339 10.506 0)
(3.14467 10.1958 1.08943e-17)
(2.84655 9.81459 5.68716e-17)
(2.53478 9.36439 -2.76057e-16)
(2.24099 8.8542 2.41296e-16)
(1.97162 8.27795 -1.91336e-16)
(1.74327 7.64234 -1.4312e-17)
(1.57556 6.97869 2.64222e-16)
(1.47889 6.31084 3.3681e-16)
(1.45541 5.64913 0)
(1.50231 5.00802 2.43012e-16)
(1.6155 4.40001 -8.47662e-16)
(1.78902 3.82862 1.59359e-15)
(2.01723 3.29482 3.24301e-16)
(2.2964 2.80209 -6.51234e-16)
(2.62234 2.35351 -6.28926e-16)
(2.98778 1.95183 -6.00262e-16)
(3.38575 1.59826 0)
(3.80947 1.29239 0)
(4.2534 1.0327 0)
(4.71313 0.817996 8.86603e-16)
(5.18508 0.647586 0)
(5.66562 0.521257 -6.26716e-16)
(6.14963 0.438647 -8.27741e-17)
(6.62892 0.398825 -5.68599e-16)
(7.09545 0.398543 -5.03163e-16)
(7.54513 0.432844 0)
(7.97665 0.497292 -9.49765e-17)
(8.38929 0.587984 -2.49397e-17)
(8.78386 0.700392 4.57131e-18)
(9.16304 0.831878 4.39494e-16)
(9.53002 0.979598 -3.58309e-18)
(9.89146 1.1421 4.87249e-16)
(10.2536 1.32107 -3.10724e-16)
(10.6391 1.52077 0)
(11.0451 1.75991 5.15173e-18)
(11.5942 2.05963 -4.20558e-17)
(12.0586 2.5725 -1.91231e-15)
(13.3959 3.37131 1.55756e-17)
(4.00467 10.4589 4.39712e-18)
(4.27177 10.7248 0)
(4.56129 10.9895 2.36933e-17)
(4.86314 11.2495 -9.87806e-18)
(5.16015 11.4854 -8.381e-18)
(5.46077 11.7082 3.65304e-17)
(5.75834 11.9209 -5.08091e-17)
(6.04586 12.1221 -5.26263e-17)
(6.32733 12.3189 0)
(6.6051 12.5155 -7.86853e-17)
(6.88224 12.7139 -7.86207e-17)
(7.16169 12.9079 7.37108e-17)
(7.44474 13.098 2.52702e-16)
(7.76344 13.3717 9.28323e-17)
(8.21922 13.8741 -2.58302e-16)
(8.76999 14.3384 -1.69993e-16)
(8.74051 13.5875 1.28694e-16)
(7.00586 10.3864 9.92776e-17)
(3.39379 5.63113 -6.66446e-17)
(-0.0018896 2.5072 9.75957e-17)
(-1.44893 2.19682 2.54633e-16)
(-2.42867 2.41893 4.3705e-17)
(-3.37758 2.4322 -5.15972e-17)
(-4.31873 2.28964 -3.53901e-16)
(-5.25799 2.08631 0)
(-6.18569 1.88885 -2.22828e-16)
(-7.08876 1.7366 -1.16857e-16)
(-7.95646 1.64744 -1.22932e-16)
(-8.78781 1.62647 -5.10621e-16)
(-9.5886 1.66921 2.12982e-15)
(-10.3583 1.76325 9.97186e-16)
(-11.0969 1.88162 3.42879e-17)
(-11.7972 1.98505 -1.50187e-18)
(-12.4162 2.01818 0)
(-12.891 1.89366 -3.87989e-15)
(-13.052 1.51987 0)
(-12.3881 0.676209 0)
(-10.3948 -1.0602 2.52532e-15)
(-8.06442 -2.71464 -3.78013e-17)
(3.75107 10.1848 -1.46819e-17)
(3.49782 9.88717 4.97529e-17)
(3.22657 9.52392 -2.7976e-18)
(2.94263 9.09785 5.8844e-17)
(2.67444 8.61895 -2.41919e-16)
(2.42672 8.08103 1.95174e-16)
(2.21406 7.48978 2.45134e-17)
(2.05439 6.8749 -2.48167e-16)
(1.95681 6.25809 -2.96956e-16)
(1.92309 5.64737 -3.5917e-16)
(1.95085 5.05503 -8.80447e-16)
(2.03679 4.49189 0)
(2.17606 3.95927 -5.82445e-16)
(2.36579 3.45727 -1.3876e-17)
(2.60378 2.9895 0)
(2.88657 2.55831 -5.48595e-16)
(3.20914 2.16621 -2.63098e-16)
(3.56643 1.81504 -2.55322e-16)
(3.95312 1.50584 9.43977e-16)
(4.36425 1.23868 8.77237e-16)
(4.79536 1.01368 -9.93427e-17)
(5.24261 0.830933 7.38918e-16)
(5.70207 0.690803 1.71456e-16)
(6.16846 0.593267 -7.71138e-17)
(6.63358 0.537752 5.02064e-16)
(7.08928 0.521966 3.09232e-17)
(7.53106 0.541675 0)
(7.95701 0.592777 0)
(8.36601 0.6715 -4.50113e-18)
(8.75843 0.773552 1.17969e-17)
(9.13649 0.896195 -4.26508e-16)
(9.50308 1.03681 -3.31868e-18)
(9.86441 1.19395 4.87236e-16)
(10.2263 1.36955 2.93913e-16)
(10.6103 1.56787 1.33994e-18)
(11.0139 1.80905 -5.83731e-18)
(11.5502 2.11282 -1.85464e-15)
(12.0059 2.6391 1.69158e-15)
(13.2159 3.4353 -1.41557e-17)
(4.28888 10.1688 2.12762e-18)
(4.53405 10.4294 0)
(4.80024 10.692 -1.43289e-17)
(5.07843 10.9524 0)
(5.35231 11.1908 -9.58185e-18)
(5.631 11.4189 9.99071e-18)
(5.9093 11.6374 3.18532e-17)
(6.18023 11.8446 5.14383e-17)
(6.44638 12.0464 0)
(6.70932 12.2461 -5.38363e-17)
(6.97158 12.447 8.23934e-17)
(7.23711 12.6508 -1.57594e-16)
(7.50574 12.8475 -8.12472e-17)
(7.77692 13.0449 -7.84205e-17)
(8.09407 13.3518 1.70786e-16)
(8.55238 13.8799 1.6664e-16)
(8.96656 14.1394 -1.6122e-16)
(8.36425 12.6525 -1.58456e-16)
(5.62605 8.67884 0)
(1.69206 4.49945 7.03529e-17)
(-0.656548 2.94707 -1.74026e-16)
(-1.76421 2.90804 3.34785e-17)
(-2.80275 2.85258 -7.52955e-18)
(-3.81119 2.65625 8.23683e-16)
(-4.78873 2.40422 -4.97501e-17)
(-5.73465 2.16085 2.16429e-17)
(-6.6438 1.96496 1.10701e-16)
(-7.511 1.8361 1.30423e-16)
(-8.33916 1.78046 4.32808e-16)
(-9.13748 1.79376 -9.82865e-16)
(-9.90906 1.86233 -8.97241e-16)
(-10.6574 1.95696 -4.00216e-15)
(-11.378 2.03664 3.91758e-15)
(-12.0326 2.04219 -5.77561e-17)
(-12.566 1.88128 3.68839e-15)
(-12.8266 1.45554 -1.37159e-16)
(-12.3683 0.545545 7.52335e-17)
(-10.7538 -1.25435 -4.66377e-17)
(-8.84583 -2.95411 5.56159e-15)
(4.05621 9.9022 8.37551e-18)
(3.82451 9.61552 -2.48168e-17)
(3.5759 9.26773 5.29432e-17)
(3.31538 8.86216 0)
(3.06894 8.40977 1.49415e-16)
(2.84 7.90409 0)
(2.64156 7.3503 0)
(2.49005 6.77675 0)
(2.39351 6.2035 5.88247e-16)
(2.3533 5.63677 -3.55526e-16)
(2.36729 5.08725 4.25285e-16)
(2.43198 4.56479 0)
(2.54434 4.06804 0)
(2.7034 3.59682 -5.16269e-16)
(2.90648 3.15496 0)
(3.15163 2.74324 5.02621e-16)
(3.43572 2.36366 1.06976e-17)
(3.75535 2.01854 0)
(4.10655 1.70973 -6.61456e-16)
(4.48531 1.43841 -1.02188e-15)
(4.88752 1.20578 -7.4272e-16)
(5.30932 1.01279 -6.87401e-16)
(5.74679 0.860482 1.23668e-15)
(6.1946 0.749197 0)
(6.64449 0.678984 4.68631e-16)
(7.08826 0.648363 4.73829e-16)
(7.52109 0.653882 1.96181e-16)
(7.94054 0.691763 0)
(8.3451 0.758528 -1.83155e-17)
(8.73469 0.850065 -1.23179e-16)
(9.11108 0.963708 4.01439e-16)
(9.47684 1.09699 -3.05923e-18)
(9.83766 1.2486 -4.45289e-16)
(10.199 1.42061 2.79836e-16)
(10.5812 1.61736 5.00549e-18)
(10.9819 1.86017 1.40056e-18)
(11.5045 2.16786 1.67558e-15)
(11.9504 2.70414 -1.58081e-15)
(13.0406 3.49593 -4.02413e-15)
(4.55875 9.9101 1.21782e-18)
(4.7858 10.1653 -7.40198e-18)
(5.03266 10.4251 0)
(5.29126 10.6843 -2.35801e-17)
(5.54597 10.9232 0)
(5.80662 11.1544 0)
(6.06744 11.3765 4.13711e-18)
(6.32259 11.5879 4.20413e-17)
(6.57388 11.7937 9.4323e-17)
(6.82235 11.9961 2.31356e-16)
(7.06998 12.1978 1.23942e-16)
(7.31995 12.4032 1.34639e-16)
(7.57377 12.6106 0)
(7.82778 12.8099 2.28363e-16)
(8.0818 13.0251 -7.4151e-17)
(8.39225 13.3963 0)
(8.83209 13.9633 1.44669e-16)
(8.96669 13.8164 1.43252e-16)
(7.45219 11.3329 0)
(3.81572 7.0573 2.04615e-16)
(0.453365 4.14298 -2.86202e-16)
(-1.07708 3.49539 0)
(-2.18702 3.32211 -4.70491e-17)
(-3.26722 3.05978 2.4141e-17)
(-4.29056 2.74793 2.21678e-17)
(-5.26169 2.45025 4.0357e-16)
(-6.18178 2.20536 6.89222e-19)
(-7.05038 2.03348 -1.44523e-17)
(-7.87411 1.94119 -1.59953e-17)
(-8.666 1.92391 2.80124e-17)
(-9.43356 1.96624 9.38656e-16)
(-10.1844 2.03645 3.64931e-15)
(-10.9171 2.09154 5.90553e-17)
(-11.5985 2.06856 -3.4991e-15)
(-12.1819 1.87074 -3.30744e-15)
(-12.534 1.39435 -5.8481e-15)
(-12.2725 0.422382 -4.34896e-15)
(-11.0374 -1.43456 9.18486e-17)
(-9.56801 -3.16746 -5.3551e-15)
(4.34338 9.65054 -1.96726e-17)
(4.12955 9.37378 -7.54405e-17)
(3.89982 9.0396 1.52662e-16)
(3.6591 8.65188 0)
(3.43114 8.22227 2.83303e-16)
(3.21852 7.74423 0)
(3.03291 7.22253 -1.96968e-16)
(2.88935 6.68442 8.99269e-16)
(2.7951 6.14874 -7.98646e-16)
(2.75104 5.62032 0)
(2.75502 5.10858 7.88982e-16)
(2.80364 4.62205 8.62291e-16)
(2.89517 4.15841 0)
(3.02903 3.71722 -8.94466e-16)
(3.20258 3.30113 2.27071e-16)
(3.41522 2.90988 -2.22559e-16)
(3.66512 2.54501 2.23366e-16)
(3.95024 2.20881 4.16634e-16)
(4.26798 1.9035 -4.04891e-18)
(4.61531 1.63104 5.48298e-16)
(4.9887 1.39346 1.79936e-16)
(5.38466 1.19247 -1.61721e-16)
(5.79947 1.02964 -5.78362e-16)
(6.22785 0.905976 5.17741e-16)
(6.66158 0.822139 -4.14007e-16)
(7.09241 0.777449 -4.7521e-16)
(7.51526 0.769224 -1.8584e-16)
(7.92727 0.794116 -2.39783e-18)
(8.32655 0.848946 1.97317e-17)
(8.71259 0.929913 1.17236e-16)
(9.08672 1.0344 1.21953e-18)
(9.45114 1.16016 -2.79779e-18)
(9.81101 1.30604 4.48608e-16)
(10.1714 1.47422 -2.84654e-16)
(10.5514 1.6692 1.67196e-18)
(10.9487 1.91324 5.0418e-17)
(11.4569 2.22444 -7.84213e-16)
(11.8918 2.76747 0)
(12.8695 3.55348 3.89478e-15)
(4.81489 9.67725 4.03424e-18)
(5.02657 9.92713 0)
(5.25697 10.1836 0)
(5.49882 10.4409 3.96114e-17)
(5.73703 10.6792 -5.75641e-18)
(5.98181 10.9121 0)
(6.22696 11.1359 0)
(6.46825 11.3499 -1.36125e-16)
(6.70649 11.5585 -8.58563e-18)
(6.94195 11.7631 -7.96242e-18)
(7.17631 11.9662 -2.96195e-16)
(7.41206 12.1717 -7.19123e-17)
(7.65021 12.3822 1.32521e-16)
(7.89039 12.5953 -5.8688e-18)
(8.12483 12.8042 0)
(8.35562 13.0632 0)
(8.66793 13.5613 -4.20599e-16)
(9.06267 14.0879 -6.73534e-17)
(8.6251 13.1577 6.62559e-17)
(5.98547 9.75023 -1.62053e-16)
(2.12809 5.96336 4.52986e-16)
(-0.286453 4.27473 3.03972e-16)
(-1.52904 3.85498 -3.39655e-16)
(-2.67905 3.50388 -3.94519e-16)
(-3.75794 3.12152 6.77399e-17)
(-4.76304 2.76021 -4.13342e-16)
(-5.70043 2.45952 -5.08445e-17)
(-6.57337 2.23994 1.39199e-17)
(-7.39211 2.10822 -1.31208e-17)
(-8.17393 2.05863 5.74237e-17)
(-8.93144 2.07381 7.28531e-18)
(-9.67715 2.11903 -1.81187e-15)
(-10.4136 2.1489 -4.93743e-17)
(-11.1132 2.0966 4.09637e-17)
(-11.7372 1.86174 0)
(-12.1725 1.33647 5.47412e-15)
(-12.0959 0.307142 4.07813e-15)
(-11.2309 -1.59982 0)
(-10.2049 -3.36045 0)
(4.61426 9.42437 0)
(4.41548 9.15661 7.21603e-17)
(4.20189 8.83462 -2.43311e-16)
(3.97808 8.46262 -1.16117e-16)
(3.76604 8.05297 -2.65885e-16)
(3.56764 7.59898 0)
(3.39357 7.10511 0)
(3.25769 6.59783 -4.22758e-16)
(3.16647 6.09489 5.09241e-16)
(3.12042 5.60001 0)
(3.11699 5.122 -3.60744e-16)
(3.1534 4.66759 -4.03161e-16)
(3.22899 4.23418 4.00508e-16)
(3.3421 3.82137 4.19631e-16)
(3.49093 3.43029 -8.01911e-16)
(3.67559 3.05991 0)
(3.89531 2.71117 -1.95724e-16)
(4.14915 2.3861 2.15672e-18)
(4.43568 2.08692 8.98125e-16)
(4.7529 1.81599 -1.81483e-16)
(5.09803 1.57595 1.72541e-16)
(5.46811 1.3691 -1.4336e-16)
(5.85981 1.19756 2.02251e-16)
(6.26809 1.06296 -1.03357e-15)
(6.68482 0.966666 -3.84952e-16)
(7.10177 0.908817 3.66187e-16)
(7.51366 0.887425 -2.30123e-17)
(7.9173 0.899675 0)
(8.31044 0.942715 -1.66104e-17)
(8.6922 1.0131 1.05983e-16)
(9.06341 1.10832 -1.77951e-16)