/*--------------------------------*- C++ -*----------------------------------*\
  =========                 |
  \\      /  F ield         | OpenFOAM: The Open Source CFD Toolbox
   \\    /   O peration     | Website:  https://openfoam.org
    \\  /    A nd           | Version:  9
     \\/     M anipulation  |
\*---------------------------------------------------------------------------*/
FoamFile
{
    format      ascii;
    class       volScalarField;
    location    "165";
    object      p;
}
// * * * * * * * * * * * * * * * * * * * * * * * * * * * * * * * * * * * * * //

dimensions      [0 2 -2 0 0 0 0];

internalField   nonuniform List<scalar> 
112055
(
0.0190703
0.00654882
-0.00231573
-0.00383348
0.00611679
0.00883148
0.0185093
-0.00370045
-0.000288231
0.019211
0.00657996
0.0174939
-0.000124328
0.0175095
0.0288409
0.00108498
-0.053113
0.0236223
0.00656974
-0.000746587
0.00149704
0.00234159
0.00658643
0.00206303
8.02758e-05
0.00357782
0.0402984
0.0071602
0.00879349
0.00151393
0.0101928
-0.013073
0.0010342
-0.0562742
-0.000307768
0.000924801
-0.000796738
0.0615125
-0.00718439
0.000664897
0.000882415
-0.0063504
0.00273306
-0.00224612
0.0241502
0.00118831
-0.0550493
0.000634298
0.00059981
-0.00616548
-0.00355423
-0.0235013
0.00180858
-0.00694612
-0.000979707
0.0186178
-0.00850409
-0.00485587
-0.0143571
0.00116578
0.0161961
0.000936704
2.74084e-05
1.66052e-05
0.0127931
-0.000634991
0.0640263
0.00209715
0.00374082
0.000704125
-0.00506808
-0.0690024
0.00216698
0.0373752
-0.0443146
-0.037478
0.00555069
0.0189417
-0.0155208
-0.00668898
-0.00507815
-0.0408682
-0.0034389
0.0035074
0.00108679
0.00435238
-0.00242982
-0.000951613
-0.0205238
-0.000914621
0.000768847
0.000929002
-0.00274944
0.00613773
-0.0428761
0.00551536
-0.00546753
0.0285111
0.010196
-0.00871499
-0.000105045
0.000796483
0.00111644
0.00735237
-0.0306207
-0.0530467
0.0127858
0.00264245
0.000652384
0.0043359
-0.0684859
-0.00339275
-0.000252213
0.00701202
0.0037628
0.0217055
0.0119127
0.00105461
-0.0203283
-0.000348396
0.0081627
0.00717084
0.0191524
-0.000800279
0.000888086
0.00727789
-0.0769197
0.000360604
-0.000478551
-0.0302129
-0.000823695
0.0399609
-0.00060349
0.052326
-0.00744037
0.000681159
0.00122186
0.00337301
-0.00129692
-0.0140954
0.00329971
-0.0225591
-0.0032693
0.0126278
0.0026584
-0.00191898
0.0216652
0.00175272
0.00105248
0.00323506
-0.0540221
0.00227121
0.0168098
0.00180171
-0.0012857
0.00870894
0.0109045
0.00711185
-0.0135704
-0.00424949
-0.000240353
-0.000741679
0.000291572
-0.000807307
0.000779362
0.00132609
0.0108069
-0.0132678
0.000880158
0.0126646
0.0101292
0.00868803
0.000285153
0.0124384
-0.00870924
-0.000368068
0.000545681
-0.000744432
-0.00308736
0.00270143
-0.00864523
0.00154072
0.00113699
0.0102178
-0.00896888
0.0175621
-0.000809688
0.000775814
-0.00365172
0.000333219
0.00440603
0.0010376
-0.000877782
0.00818355
-0.00118027
-5.2341e-05
-0.00513507
-0.00415181
0.000409781
0.010867
0.0626682
0.0139698
0.0162833
-0.00275443
0.00245721
0.0214684
0.0667901
0.0107959
-0.0523657
0.00112957
0.00334915
0.000833658
0.0212938
0.00112033
-0.00518209
0.0109116
0.0102222
-0.00309543
0.000392262
-0.00413912
0.00107068
-0.0197563
-0.000621975
-0.00442058
-0.0316848
0.000866767
0.000792476
0.00982286
0.00604357
0.00101599
0.00091136
0.000376219
-0.00885683
0.00630452
-0.0226973
-0.00463025
-4.83943e-05
0.000915055
-0.0706829
0.0983315
0.00302029
-0.00937129
0.000360293
0.00309918
0.000611798
-0.0225565
-0.00280602
-0.00600168
1.08786e-05
-0.0040007
-9.63355e-05
0.00151057
-0.0670358
0.000326163
-0.00490475
0.00326471
0.00437474
-0.000504536
-0.0123363
0.00110798
-0.0321694
0.0194933
0.00128057
0.0179227
0.0524496
0.000397208
0.00239891
-0.000707971
0.0151135
0.00202823
-7.979e-05
0.00884851
0.000449461
-0.0223391
0.000510491
-0.0209246
-0.0462258
-0.0678195
-0.0675892
-0.0673907
0.00064926
0.00574896
0.0143628
0.00909764
0.00699309
-0.0032278
0.0075158
0.000933238
0.000431634
0.0153817
-0.00146147
0.000236513
0.00753822
0.000568674
0.00633768
0.00697261
0.0116947
-2.56337e-05
0.000802966
0.000778039
0.00599116
0.0102206
0.00968665
0.0073528
-0.00437234
-0.000712747
0.00110908
-0.00122779
0.000529556
0.00061971
-0.00076086
0.00418579
0.0013868
-0.00912273
-0.00709676
-0.0202759
-0.00708532
-0.00442966
0.000477956
0.000805673
0.000603497
0.0534018
0.0306332
-8.77718e-06
-0.00255207
-0.00298847
-0.0227122
0.00279018
0.00580112
0.00121419
0.00602634
-0.00369817
0.0117356
-0.00297319
-0.00309891
0.0018443
0.00102388
-0.00487364
0.00427672
-0.00631325
0.0626886
-0.0758902
1.31947e-05
-0.000173351
-0.00174763
-0.00614855
0.00171118
-0.00710669
0.012587
-0.00465823
0.0270053
0.0162021
0.0175642
-0.0263853
-0.000913802
-0.000927511
0.0375817
0.00276088
0.00106433
0.0181606
-0.0524783
0.00105953
-0.00296279
0.108866
0.000286694
-0.0706138
-0.00480732
-0.00427117
0.00589824
6.15496e-05
0.0239352
0.0243514
0.0122294
0.0177136
0.141368
0.000243743
0.000226623
-0.00163918
-0.00262899
-0.000325848
0.00137295
0.00940825
0.018185
-0.00162821
-0.00133845
0.000103993
9.60421e-05
-0.00283819
0.014179
0.0234034
0.000709395
0.0031961
-0.00911944
-0.0203166
0.0370361
-0.00155057
0.00434806
-0.00552683
-0.00476732
-0.00942904
0.0187633
0.0014992
-0.0161229
0.0166957
0.00204094
-0.04053
-0.00591434
0.00068101
0.00158214
0.00474663
-0.00294177
0.000410136
0.000576272
0.000398371
0.00180621
-0.00597153
0.00785233
-0.00695925
0.000357848
0.00860168
0.0310705
-0.000235534
0.00262878
0.00873382
0.00750774
-0.00279974
0.0119906
-0.00328814
-0.00690095
-0.00606014
0.000591367
0.0120959
-0.00141047
-0.0117086
-0.0118928
0.0267008
0.000644095
-0.00722817
0.0975697
0.0264755
-0.00271376
-0.00428176
0.00788321
-0.0287998
0.00542787
4.12033e-05
0.03714
0.0261138
-0.00376695
-0.00526664
-0.0153367
0.00810721
-0.00023273
0.00904388
-0.00289874
-0.0547301
-0.000859001
-0.00263764
0.0111098
0.000624846
0.00183055
-0.00174806
0.000233548
-0.0110994
-0.00907222
-0.000660903
0.000919067
0.0166743
0.00752457
9.15251e-05
0.00943525
0.000833419
-0.00137846
0.0012683
0.00819446
-0.00339558
0.000437521
0.00105521
0.000160545
-0.00941366
-0.0252275
-0.0747647
-0.00174884
-0.0157712
0.000801529
-0.0115123
0.0141416
-0.00173256
0.000380643
0.000455365
0.00019419
-0.0436495
-0.0044473
-0.000603629
0.0117779
-0.000321099
0.00863822
0.000763081
0.000582791
0.0015441
0.00307253
0.00172177
-0.000305039
0.0116206
-0.000528897
0.00755074
0.000578085
-0.057818
0.000566817
0.000914723
-0.00341646
0.0243275
0.00559541
0.00469626
0.0627146
0.000712572
0.000685489
0.000178275
-0.0288475
-0.00680064
0.00977663
-0.000427976
0.000936049
-0.000704733
0.00408016
-0.00778261
0.00147112
0.0674554
0.000150455
0.000889433
0.00815196
-0.00164019
-0.0559669
0.0519812
0.000565466
0.0140043
-0.00437917
-0.0936392
-0.000550397
0.00118942
0.000647749
0.00112852
-0.0911662
0.0271629
-0.00112509
-0.00433886
-0.00165773
0.00372709
0.00854389
0.00114925
0.0272384
0.0078233
0.0108728
-0.0251386
0.0086476
-0.000195111
-0.0131626
0.000591805
-0.000797502
-0.011607
-0.0269126
0.000883715
0.000679741
0.003118
0.106684
-0.000710428
-0.00147125
-0.0677374
0.000797827
-0.0674129
-0.0116777
0.00837063
0.000818124
-0.0554658
0.00248981
0.00592676
0.0081659
0.000709644
0.0108859
-0.0381771
0.000345449
5.91382e-05
0.0140621
0.00644823
0.0103784
0.00153835
0.00998109
0.00352012
0.0084003
0.00314793
0.00811588
0.00215418
0.000906056
0.00213266
-0.000244398
0.0087045
0.00504545
0.000246018
0.00706442
-0.00116317
0.000540701
-0.000201952
-0.010331
0.00767657
0.000363444
0.00408779
-0.000434131
0.0100235
0.0110953
0.000742165
-0.000295997
0.0122086
0.000290774
-0.00216014
0.0488655
0.00784637
-0.000566732
0.000933777
-0.000515627
0.00545011
-0.0175297
0.0105566
0.00737061
5.60273e-06
0.00758769
-0.0563408
0.000466061
-0.00458764
0.000149076
-0.00413516
0.000596809
-0.0722707
0.000840672
-0.0640752
0.00266914
0.000572959
0.00147545
0.00283997
-0.00427419
0.00646642
0.000994854
-0.00420974
-0.000162916
-0.00146024
-0.000917618
0.0244463
0.0757433
0.0101016
-0.0281672
-0.0022094
-0.074573
0.000965828
0.000616102
0.0203061
0.000589015
0.000620036
0.0119274
0.0155691
-0.00271196
-0.00293811
0.0113929
0.010186
-0.00291746
0.0177729
1.43252e-05
8.96999e-05
-0.0180049
-0.0542992
0.000757969
0.00710468
-0.00610763
-0.024452
0.00333847
0.0186249
0.000515757
0.00134474
0.00676376
0.0200719
0.0782084
0.00149561
0.000856308
0.000785092
0.000720208
-0.0452966
-0.000751989
0.0140047
-0.00258978
0.000537681
-0.0440746
0.00591669
-0.00116029
0.00935572
0.00668124
0.00837293
0.0243473
0.0178817
0.023907
0.0135371
0.000349862
-0.0219146
-0.000320354
0.000708374
0.00998489
0.000796415
8.58865e-05
0.00409316
-0.000167337
0.00116113
0.130772
-0.00106482
0.010861
0.000693328
0.00072127
-0.00451649
0.00319945
-0.00636384
0.0134509
0.00206695
0.00609759
0.000817687
-9.47448e-05
-8.38131e-05
0.00088173
-0.00901813
0.000552007
0.0114243
0.0139502
0.0111152
0.00226297
0.00103471
0.000748696
0.0164759
-0.0564045
-0.000576869
0.00854855
0.000993871
0.0472777
-0.00268401
0.00062769
-0.000911855
-0.00911695
0.000785869
-0.0120987
0.00819537
-0.0674951
0.00256615
-0.0073687
0.0120907
0.00627119
0.00669358
0.000811893
0.000854283
0.000248836
-0.00630319
0.00080075
0.01241
0.00850314
0.000842437
0.0175567
0.00115795
0.000254657
-0.00740828
-0.0026333
-0.0261468
0.0383608
0.0617408
0.00845794
3.0631e-05
0.000599126
0.000235322
0.000856547
-0.00261708
0.0033986
0.000966994
0.000969669
0.00767732
-0.0545988
0.00019477
0.0002744
0.0160306
-0.0091917
0.0185767
0.000161302
0.000219181
-0.0874612
-0.00289883
0.000698886
0.001011
-0.000628107
-0.00890033
0.000187895
-0.000791151
0.00108942
-0.0115612
-0.00107494
-0.00327883
-0.0507294
-0.000752245
0.00595887
0.000704448
-0.00012486
0.0150876
-0.000587789
0.00368623
-0.102118
0.000594514
0.00515468
0.00855445
0.00296408
0.000815803
-0.0236985
0.000761557
-0.00476013
0.0141758
-0.000561841
-0.00861912
0.000894297
0.0100466
0.000692423
-0.00103848
0.000278838
0.00863907
0.00237454
0.00976692
0.000579061
-0.00972704
0.0166448
-0.0045635
-0.00873338
2.75695e-05
0.000693929
0.0170903
0.018145
0.000423724
0.12961
0.00735813
0.000209347
0.00696748
0.0124029
-0.00454699
0.000414147
0.14
0.0156168
-8.58488e-05
0.00108172
0.000903341
-0.0193148
2.59459e-05
0.0103542
0.000768016
-0.000781182
0.00286145
0.03827
0.000764386
-0.00866177
-0.00178809
0.018201
0.00118639
0.00914178
0.00140653
0.0782214
0.000942939
-0.000260476
-0.0109068
-0.0107538
0.000301959
0.00695838
0.0104859
-0.0445041
0.000544718
-0.00551525
0.00821885
0.0154179
-0.0846191
-0.025979
0.00762758
0.00909149
0.00345303
-0.0133921
0.00585893
0.000765286
0.001006
0.000208764
0.000462028
0.000171297
-0.000300693
0.00225864
0.0148811
0.000885286
0.0052305
0.000576059
0.00679666
-0.000116269
-0.0119
-0.0379996
0.00319011
-0.00265965
0.0860902
-0.000490154
-0.0536102
-0.00263131
0.00622997
-0.00581416
0.000823679
-0.00735553
-0.0373317
-0.00043368
0.00577659
-0.000256976
0.00569261
0.0172692
-0.000583337
0.00369326
0.005178
-0.0544476
0.00873014
0.000813898
-0.00121272
-0.00534891
0.000847976
0.00160961
0.00021791
0.00199827
-0.000903142
0.00321031
0.00628386
0.00126129
0.0099673
0.00021208
0.00136771
0.00051061
0.00378566
9.15171e-05
0.0002707
-0.00277037
-0.00048079
-0.0129746
0.0008471
0.0102764
0.000813386
0.0140307
0.0111741
0.000611677
0.00502676
-0.0255455
0.00125919
0.00101377
0.00273504
-0.00934599
0.0205494
-0.0572672
0.00672618
0.000874074
0.00458159
-0.00412136
0.0216415
0.000774719
-0.000577911
-0.0106901
-0.0367715
0.00103284
0.000484721
-0.0035781
0.000277643
-0.00110471
0.00304583
-0.0367163
0.00123568
-0.0956801
0.000956069
0.0094157
-0.00275401
0.0075073
-0.00775323
-0.00470442
-9.44453e-05
-0.0355106
0.0360769
0.000159921
0.018208
0.00483256
0.000884968
0.000933469
-0.0202263
0.0105748
0.00582576
0.000895926
-0.0154018
0.00512488
0.000816209
-0.00783878
0.0182442
0.00093446
-0.00350684
0.0106896
0.00725599
0.000735751
0.0120754
-2.95499e-05
0.0106312
-0.000777481
-0.000510931
0.00147085
-0.0010437
-0.00198388
0.0373142
-0.00244438
-0.021769
0.00427274
8.50819e-05
-0.0744057
0.00379653
0.000304778
0.000676892
-0.0226414
0.00710321
0.00769883
0.00969402
0.000608539
0.00709097
-0.00293345
-0.0540088
0.000794637
0.00144933
-0.00152822
-0.0092625
0.000820578
0.00666909
0.000504317
-0.00162747
0.0233849
-0.00174172
-0.00186352
-0.000503905
0.000592735
0.0618183
0.00162315
-0.0069089
-5.19986e-05
0.00531687
0.00805654
0.0164427
0.00052755
-0.0523479
0.0094501
-0.000781296
0.00161973
0.00678104
-0.000745787
-0.0412989
0.00167105
-0.0101684
0.000876627
0.00108187
0.00791698
-0.0138275
0.000870805
0.00275646
-0.000663896
0.00139658
0.00670432
0.0235487
-0.00075079
0.0747708
-0.0262169
-0.00322959
-0.00387994
-0.00597938
0.000919707
0.0167952
0.01052
0.0111644
-0.0237362
0.00104592
-0.0730562
0.000481511
-0.00246583
-0.0468694
0.000350288
0.0107214
0.000333046
5.55934e-06
3.82995e-06
0.00586768
-0.00118246
9.046e-05
0.000431086
0.000927084
-0.000534793
0.000110799
-0.0114177
-0.00351235
-0.00221549
0.002044
0.00226612
0.000853346
0.00262679
0.0480818
0.000652677
0.0103646
-0.00547608
-0.00217359
0.00750232
8.16736e-05
0.00193052
0.00451891
-0.00722268
0.000107255
0.000985472
0.0008475
-0.014463
-0.005542
0.000198124
0.00116729
0.000271095
-0.0041418
0.021679
0.0056614
0.00109607
0.00079872
0.00746785
8.03206e-05
0.0744041
-0.000809016
-0.000922069
0.114084
0.00593432
-0.0507756
0.0110272
0.00337481
0.00688363
-0.000611839
-0.0117239
0.0148606
0.0271948
-0.0196459
0.000675699
0.0821544
0.00147644
-0.0587856
-0.00831393
-0.00327768
-9.47764e-05
-0.00931007
0.00128525
-0.000667714
0.000974852
0.000940763
-0.00123892
0.0160392
-6.97417e-05
0.0107267
0.00185417
-0.00130342
-0.0177351
-0.00151254
0.00297004
0.000393345
0.0160094
-0.00619546
-0.000218244
0.0170123
0.00890956
0.00192629
0.000637163
0.00038292
-0.00298351
-0.00492892
0.00940304
0.00733154
0.0248526
0.00101606
0.00498512
-0.000822696
6.18736e-05
-0.0077704
0.000221384
0.0312542
0.00689981
-9.23546e-05
0.0354731
0.000916422
-0.0922543
0.0175747
0.000898211
0.00724338
-0.00787998
0.109221
0.00169517
-0.0680703
0.00133301
0.00218559
0.00210629
0.00268263
-0.00136404
0.00182955
-0.00568471
-0.0379848
-0.0137709
-0.00263782
0.00122349
-0.00708164
-0.0698397
-0.0838814
0.00081861
0.0922945
-0.0812944
-0.000194692
0.00734017
-8.71019e-05
-0.0015794
0.00200714
0.000104257
0.00110671
0.000932227
0.000778914
0.0107643
-0.0222669
-0.00108811
0.00182709
-0.0424768
-0.0378758
0.00973293
-0.00128737
0.000571068
-0.00108199
0.00723255
-0.000642324
0.00757266
0.0120582
-0.00902742
0.0581763
-0.00369725
0.0294231
-0.0216373
0.00147075
0.00866778
0.000964086
0.00120911
0.0147123
-0.0076535
0.0001513
0.0164706
0.000958065
0.000520295
-0.00174987
-0.001244
-0.0763297
-0.00734105
0.0108787
0.00118282
0.00200399
0.00293946
0.0743536
-0.0394162
0.0101792
0.00145122
0.002631
0.0433577
0.000716705
-0.000575917
0.000511759
0.00541222
-0.00128059
-3.46631e-05
0.00802165
-0.0112312
0.000901041
-0.000150258
0.00123022
0.000714386
0.00898429
0.000299882
0.00130478
0.00884567
0.00490243
-0.0112403
-0.0028981
0.00783908
0.0618477
0.0168579
0.00116661
-0.000362058
0.00542261
0.0109324
4.1212e-05
-0.00638491
0.0139995
0.000598785
0.0558538
-0.0500277
0.000995629
-0.00272221
0.00865328
0.00172406
0.00019394
-0.00351421
0.000543747
-0.00205094
-0.0482049
0.0101244
-4.2847e-05
0.0884346
0.0011098
0.000307737
0.00949768
0.0072436
0.00718873
0.000942916
-0.00163723
0.0113177
0.00086572
-0.0601879
-0.0710912
-0.00805444
9.57144e-05
0.000230777
-4.85897e-06
0.000699601
0.00122971
-0.00177569
0.000119606
-0.000459817
0.0109431
0.0160877
-0.00126479
-0.00883993
3.61169e-05
-0.00588527
-0.00624371
0.000779499
0.00294611
0.00239893
-0.000116808
-0.00572129
0.00894943
-0.0573523
-0.00386499
0.00231561
0.0127972
0.000702319
-0.0185985
0.001316
0.0105164
0.000819307
8.28811e-05
-0.00437807
2.70884e-05
0.0584953
-6.44844e-06
-0.00664546
0.000924976
-0.00606741
-0.00190736
-0.00478666
0.00809394
0.00483802
0.0460421
-0.00256806
0.0114336
-0.000340079
-0.00940012
-0.00451662
-0.000253425
0.000539665
0.00103453
-0.00362167
0.00136907
0.00035656
0.0109986
-0.0117166
-0.0778416
0.00298383
0.00185099
0.00499649
0.00924845
0.00516273
0.0254015
0.00033637
0.000240201
-0.00506549
0.0061344
0.00453546
0.00930016
-0.020172
-0.0169805
-0.000683286
-0.06107
-0.000449535
0.0126576
-0.00401994
0.000683431
8.54648e-05
0.00921691
0.0245315
0.00288128
-0.0024911
0.0595277
0.00233409
-0.0132596
0.000759698
0.010383
-0.0615003
-0.02522
-0.00193888
-0.00442656
-0.00774125
0.00602092
0.0066526
-0.0717797
-0.00266206
0.0252845
0.00638568
0.000556573
0.0148431
-0.0114988
7.13759e-06
0.00717711
-0.0273747
0.00363363
-0.000114328
0.000939692
-0.00247431
-0.00402347
0.000852704
-0.0684921
-0.0492961
0.0028642
-0.00227008
-0.00977845
0.0122917
-0.000228669
2.01103e-05
-0.0429468
0.0149479
-0.00200453
0.00470916
0.0865466
0.00600712
-0.0116065
-0.00778183
0.0107794
0.000664055
-0.0640369
1.36592e-05
0.00489628
-0.0970717
0.112201
0.00364333
0.00866967
-0.0101044
4.58331e-05
0.011305
0.0024591
-0.000523614
-0.000580651
-0.00264969
0.0122353
0.0982005
0.00929523
0.000589394
0.00100528
0.000519719
0.00013708
0.000171834
0.046743
0.000251491
0.0477367
0.00075264
-0.000433604
-0.037648
-0.00150122
-0.00398996
-0.00145803
-0.000292854
0.0007029
0.0105252
0.000695896
0.000259607
0.00377
0.000969859
0.0450893
0.00628938
0.0172691
-0.0416879
0.000255779
0.00843707
-0.0849299
0.00476744
0.00951617
0.000924623
0.0227068
0.0364644
-0.0532581
-0.0044691
-0.000139334
-0.000789775
-0.00598611
0.00110428
-0.00225008
0.0116462
-0.000793539
-0.000903006
0.0348813
-0.00230809
-0.00068245
0.0102961
-0.102411
0.00532746
0.000548524
0.00967019
0.000920019
0.00897417
0.00178125
0.000895812
0.00772802
0.000654507
-4.51834e-05
0.0124486
0.00233463
0.000218329
9.64823e-05
-0.0100063
0.00704094
0.00823537
-0.00117862
-0.00665933
-0.000899843
-0.0141657
0.00187492
0.00292229
0.000127523
0.000918879
0.125613
0.00293829
0.00690473
-0.00124994
-0.0826966
0.00263298
0.000959979
-0.0102676
0.0105422
-0.00106581
0.0182818
-0.0602788
-0.00480613
0.0109313
0.046892
8.45396e-05
0.0114453
0.00124334
0.00698683
0.0012334
-0.0200814
-0.0128587
0.000697204
-0.00993842
0.00861892
0.00826851
0.0132977
0.000927024
0.00017982
0.00171808
0.0026582
0.00984607
0.000892194
0.000950902
-0.0159641
0.00108905
0.00196814
0.00077635
-0.0661449
0.000814385
0.00705651
0.00884367
-0.0116124
0.0105116
0.00693506
0.00756792
-0.0153215
0.00252954
0.000263726
0.00616374
0.000412784
-0.00355593
0.000989757
-0.0677428
0.00425686
0.0101004
0.0180625
0.00151177
-0.00253438
-0.00267391
0.000650185
0.00442869
0.00927723
0.0097311
0.00118772
0.0343097
0.00883192
0.00331857
0.000745617
0.0220396
0.000601869
0.00977507
0.000801178
0.00301043
-0.013368
-0.0398222
0.000164046
0.00703852
0.0281575
0.0660293
0.0119687
0.00537965
-0.0189863
-0.000140072
9.9368e-05
-0.00110495
0.00133646
0.000348479
0.000417841
0.0096189
0.000634535
0.0043438
-0.000502648
0.000875806
6.1798e-05
-0.0802262
-0.0580868
9.24471e-05
0.000693621
-0.0250519
0.00100019
0.0185815
-0.00182768
0.01457
0.00808293
0.00100801
-0.00602677
-0.0126764
0.000896924
0.00100713
0.000206522
-0.000691962
-0.00852581
0.00885971
0.0148059
-0.073871
-0.00273808
0.00157399
0.00139288
0.000880422
0.000978995
0.000497183
0.000920565
-0.0518562
-0.0220593
-0.000773262
0.00120784
-0.0248781
0.00254369
0.00592949
-0.000853912
-0.00106101
-0.0104598
0.0114898
0.00908726
-0.00409698
0.0087371
0.000567823
0.000298881
0.000996292
0.00084842
0.021315
-0.0720751
-0.0669935
0.0341216
0.00515605
0.00713211
0.00107583
0.0220772
0.00840543
0.0100824
-0.0547136
0.00784948
-0.0895383
0.000447164
-0.0194724
0.00360588
0.0043358
-0.00560749
0.0455603
-0.0796667
0.00114619
-0.00272847
1.70988e-05
-0.0118727
0.000692333
0.0094441
0.00110864
0.00715342
0.00861099
0.000592189
0.000118406
-0.0384316
-0.0288518
0.00854314
0.000476922
0.000831958
-0.0840158
0.0071871
0.000764489
1.22025e-05
0.000689478
-0.000305563
0.00954242
-9.25265e-05
0.017467
0.00959567
0.00019669
0.000926834
-0.0112979
-0.0781332
0.00623197
0.0103202
0.000151425
-0.000927064
0.00750689
0.0017877
-0.00521821
0.0412665
0.00109552
0.000694509
0.01129
-0.00982477
-0.0240445
-0.0677341
0.00926041
-0.0396531
0.00102791
-0.0155973
-0.00106133
-2.96651e-05
0.000885672
0.0118796
5.84223e-05
-0.0074238
-0.00848216
-0.000710867
-0.0605321
0.0101462
0.0068119
-0.017829
0.00668732
-0.00100459
-0.00403033
0.00804518
-0.000780978
0.00175421
0.0123864
0.00465519
0.00102384
-0.00317097
0.0105977
-0.000690669
-0.00531735
-0.00908779
0.000934126
-0.00824332
0.00719092
4.38459e-05
-0.00564128
-0.000100227
0.00699814
0.000396343
0.011918
0.00104213
0.0118762
0.000134778
0.00313555
0.00755601
0.00959079
-0.000795553
-0.00580405
-0.000340566
-0.000222847
0.0119428
-0.0379119
0.000877373
-0.0563612
0.00015513
-0.00202432
-0.00107513
-0.00726392
-0.00414918
0.00373627
-0.00420375
0.00762069
-0.0170475
0.000600555
0.000842214
-0.0204136
-0.00526216
-0.000405419
-0.00167937
0.00709907
-0.00560139
-0.00979703
0.0109259
-0.00100213
0.00994134
-0.000470517
0.0262454
-0.00139495
0.00357813
0.00202538
0.00134953
0.00206647
-0.00141791
-0.000767071
0.00159724
0.00795472
0.00679799
0.00895485
0.0119139
0.000121059
0.0163105
0.00550471
-0.05999
-0.00381802
0.000941041
-0.0582327
0.00712993
-0.0522638
0.00631468
-0.000894755
-0.000628839
0.00890686
-0.0231026
0.000425631
-0.00751671
0.00186998
0.000790107
1.79988e-05
0.00632652
-0.00827807
0.000856759
-0.00248924
0.00809697
-0.000413541
0.00977354
8.27482e-05
0.00784981
-0.051544
0.0531481
0.00946523
-0.0219332
0.00167398
0.00657838
0.00298608
0.000941466
0.00133567
0.00132016
-0.0104488
0.0277003
0.000779974
0.00128318
-0.00265
0.000387437
0.00392764
0.00164734
0.000438645
0.000761105
0.00976717
0.000536659
0.00191155
0.000660523
-0.00135915
0.0108132
0.0125189
0.00078405
0.0400511
-0.0107364
0.00109875
0.0069452
0.00100531
0.000167331
0.0103161
0.000975453
0.000799107
-0.00410313
-0.00275387
-0.0013879
-9.50151e-05
0.0096602
0.000178537
0.0259163
0.00858416
0.00146099
0.00385379
-0.0852843
-0.00412726
0.00599648
0.000879084
0.000151559
-0.00889277
9.87262e-05
-0.000735973
0.0199533
0.00148282
-0.0160126
0.000926673
0.0106965
0.00166342
-0.0111415
0.00468193
0.000377445
0.0101304
-0.000296284
0.00480474
-0.00443571
0.00947219
0.00470879
0.000770199
7.38381e-06
-0.0378135
-0.0574504
-0.0479553
0.000439519
0.00865442
0.0380324
-0.0019638
0.0010118
0.0118622
-0.000250879
0.0029985
-0.0334724
-0.00559999
0.000837936
-0.000322215
0.00209846
-0.00680558
0.00244802
0.011855
-0.0489032
-0.000339555
-0.000349046
-0.00243032
0.00303204
0.00198996
5.20376e-05
0.000895252
-0.00967454
0.000270667
-0.0349773
-0.00317805
0.0107483
0.0121527
0.00505873
0.00157527
-0.00106072
0.00248088
0.00543322
0.0013024
0.0205867
0.0109554
-0.00283778
0.000949833
0.00288105
0.0874021
0.0178882
-7.65002e-05
0.0280076
0.00764371
0.00188915
0.00930203
0.000247075
0.00342409
-0.00719654
0.00133326
0.00597367
0.00116056
0.0237522
0.000109784
0.00088573
0.0119619
0.000731831
-0.00458754
0.00611266
0.0175686
0.000954426
0.0182712
-0.0145873
-0.00724219
0.000949975
0.0372035
-0.0565474
0.00742441
0.00155348
-9.15103e-05
-0.000300093
0.00452793
0.00760241
0.00758451
-0.00410606
0.00734054
-0.0350494
-0.00352238
-0.0486288
0.00306772
-0.000203028
-0.00157183
0.000882341
0.0175815
-5.96073e-06
0.0585093
-0.00752906
8.98299e-05
-0.00227543
0.000636017
0.00882049
0.00626073
0.00574044
-0.000460384
-0.000752102
-0.053053
-0.00328285
-0.0170939
0.000664344
0.00109855
0.00211942
0.00536938
-0.000423254
0.0101889
-0.00215632
0.00601312
0.00759638
0.000857699
0.0312051
0.00640077
0.031163
0.000484123
0.00213288
-0.0161442
0.00992624
-0.0468138
0.00273431
0.00187587
-0.00639308
-0.00099633
0.00969509
-0.00173318
0.0124258
0.000872383
0.000438417
0.000348297
6.35399e-05
-0.0112546
0.0211505
-0.0120868
-0.00555754
-0.0273186
3.54163e-05
0.000979623
0.0234653
0.0172849
0.000887962
0.000165965
0.00879429
0.00451336
0.000940966
0.000407146
-0.0163556
-0.056788
0.000658429
0.00976289
0.000592949
-0.00160373
0.00134476
0.0319966
0.0149235
-0.000680873
-0.00097409
0.0039068
0.000431584
-0.0509768
-0.00320689
-0.0683602
0.00591244
0.0133392
0.000763513
-0.00285405
-0.0677565
0.0778938
0.000775948
-0.000954095
-0.000196464
0.00066386
-0.00339579
0.000767549
0.00871188
0.0220096
-0.000517108
0.00913121
-0.0469386
0.00720751
-0.0012697
-0.0301185
-0.00036392
0.0313727
0.000957336
-0.0832905
0.00722336
-0.000242316
0.000336809
-0.0247345
0.000787154
-0.00980156
0.0101199
-0.0226466
0.00898162
0.0132787
-0.0140074
0.00875213
0.000135431
0.00989167
-0.0416486
0.0128879
0.00804528
0.000601141
0.0148303
0.0068942
0.000893744
0.00868207
0.00630676
0.00596047
-0.0867584
-0.00751801
-0.0437944
5.896e-05
0.0300715
1.34304e-05
0.000938285
0.0150793
-0.0502457
-0.00413367
0.0015132
0.00113997
0.0276479
0.00748649
0.0170428
0.000483208
-0.000122676
-0.0856667
0.0073184
0.00493568
0.000329974
0.00870733
0.000767384
-0.000713269
0.000898661
-0.00272378
0.00110429
0.000634703
0.003346
0.00973177
-0.00629734
0.00520441
-0.00921827
0.000977703
-0.0293219
0.00150569
-0.00479656
-0.00338389
-0.00124703
0.00510688
-0.00467019
0.0112524
-0.0076311
0.0243824
0.000316924
-0.00124739
0.0071195
0.00120933
-0.00971171
0.00245498
0.0216141
0.00812297
0.0775576
0.000515757
0.0041891
0.00865776
0.017005
0.0204182
-0.00150968
0.000755823
0.000153608
0.00179878
0.00032842
-0.000834444
0.070992
0.0948986
-0.0115342
-0.00547632
0.0102113
0.0151688
-0.00218645
-0.00504954
-0.100254
0.00990066
-0.000528582
0.00747052
0.000533842
0.00119687
-0.00668134
0.00436303
0.00119896
0.022228
0.000847609
-0.0666218
-0.00124459
0.00749322
-0.00752008
0.000866809
-0.00985671
0.00428245
-0.00218587
0.000629122
0.00178781
-0.000401674
-0.0696141
-0.0179602
0.00930028
0.00176629
0.0190662
0.00628466
-0.0533844
-0.0043558
0.0133276
-0.00985554
0.00962439
0.00834487
0.000146878
0.00936332
-0.00716711
0.00738556
-0.000623239
0.000765584
0.00366493
0.000888121
3.91123e-05
-0.0834345
-0.0053842
0.000823418
-0.00104354
0.000973174
0.00370133
-0.0573978
-0.0609703
0.00650157
0.028989
-0.0817985
-0.000175696
-0.0873833
0.00442947
-0.0136471
0.00995495
0.00973559
0.00842429
-0.012148
0.00245445
-0.0682179
-0.0494915
0.00356186
-0.00272012
0.0101109
-0.0223269
-0.00149107
0.000663252
-0.0731837
-0.068105
-0.0612917
0.00604427
0.000914348
0.00836063
0.00155045
0.00153743
-0.000138465
-0.00157076
0.0100297
-0.00568586
0.000830794
0.000843858
0.00686538
0.00809188
0.0109437
-0.0740095
-0.000320324
0.000874755
0.000135827
0.00729418
-0.0120551
0.0176588
-0.00325783
0.00866486
-0.0188532
0.00032892
0.00655599
0.00087987
0.00983114
0.00765516
-0.000704635
-0.0507866
0.00374856
0.0298131
0.000241868
0.00825886
-0.000424809
0.00124852
-0.0609942
0.000255876
-0.0037919
-0.000714901
-0.00627686
-0.000398153
-0.0690719
-0.0332718
0.00441675
0.00547638
0.000346696
0.000329391
0.00810388
0.0167165
0.00256211
-0.0124875
0.0007758
0.000169213
-0.00087691
-0.0109138
0.000160284
0.0102492
0.000685454
-0.0224932
-0.000685752
0.0299792
0.00327084
0.00695728
-0.00852518
9.93607e-05
-0.0100861
0.000101363
0.00255598
0.00110888
-0.0193982
-0.0843641
0.00374795
0.0220465
-0.00876697
-0.0394075
-0.000767813
-0.000402195
0.000482941
-0.0412575
-0.0190155
0.00017857
0.000470171
-0.0716724
0.0106548
-0.00163697
0.00838147
0.04171
0.000933948
0.00765443
0.000501022
0.0478174
0.00302475
0.00653261
0.0075333
0.000658807
0.000664485
0.000989968
-0.0172939
-0.00957537
-0.0472547
-0.0155949
0.0106412
0.000821195
0.00824478
0.00162837
0.0010642
0.000904951
0.000910904
0.00028241
0.000764325
-0.000798158
-0.0831904
0.00170163
-0.0610072
0.011944
0.00112407
0.000961403
-0.00133906
-0.00386664
0.00092514
-0.0026673
-0.0191916
0.00896251
0.00176422
0.000346637
0.00107116
0.00530411
-0.000820976
-0.0487101
-0.00324721
0.000598116
0.00041462
0.00614366
0.0149491
-0.000443055
0.00290263
-0.0470961
0.000898668
0.0109421
0.00707438
0.00653202
0.00257002
0.00969624
0.00728321
0.0301864
0.00983315
-0.000403986
-0.00789563
0.00236661
-0.00766237
0.00518557
-0.0324107
-0.00171776
0.00766182
0.000786843
-0.00895906
0.00852243
-9.70744e-05
-0.00370312
0.000895655
-0.0010765
-0.0232187
0.000498595
0.0443149
0.0011134
-0.010244
0.000949539
0.00782922
-0.0837599
0.00120947
0.0314193
-0.00531019
-0.00617221
0.000806507
0.00157379
-0.00114466
0.00905563
0.000144044
0.000873548
0.00992243
0.029811
0.00524851
0.00800377
-0.00144522
-0.0252803
0.00960916
-0.00921974
-2.27561e-07
-0.00884831
-0.00797554
-0.000934978
0.00476997
0.00547577
0.00990213
0.00679069
0.00610708
0.00210572
0.000797502
0.0410146
0.00814341
0.00052716
0.00761045
-0.00708679
0.0055112
0.0071372
-0.00510323
0.000715439
9.91925e-05
0.00251643
0.00941466
-0.00144372
0.000198858
0.0106912
-0.00345357
0.000933667
-0.00417925
0.0115182
-0.00368738
-0.00735559
0.000346761
-0.0256341
1.95003e-05
0.000195114
0.000400911
0.00293847
-0.00149791
0.000758693
-0.00721162
-0.000505744
0.000584083
0.00696424
-0.00819992
-0.0588324
0.0010645
0.000921477
0.00560621
-0.000722069
-0.012372
0.00795101
0.00356778
-0.000719323
0.00134103
-0.00133079
0.0164964
0.000899017
0.00563928
0.000733213
-0.00123514
0.0166715
-0.0247571
0.00952719
-0.0243098
0.000385468
-0.00129404
0.000987334
-0.0245196
-0.000490203
0.00754319
-0.00278631
0.00738736
0.000926425
0.00153562
-0.000149732
-0.0649197
0.0163111
-0.0453307
0.00573431
0.00567704
7.46741e-05
0.000706707
-0.00850754
0.00064816
-0.000123528
0.000764989
0.000433412
-9.38816e-05
0.00680286
0.000804793
0.0076175
-0.00999741
-0.0113096
-0.000134693
-0.011591
0.00459247
-0.0261569
0.00697281
0.0118618
-0.0187316
0.00218883
0.000189132
0.0151664
-0.00210566
-0.00478723
0.0408664
-0.0494195
-0.0458583
-0.0571134
0.000955769
0.0129014
0.000842694
0.00101616
0.00115087
-0.00395282
0.0064647
0.00385522
0.00723889
-0.0121016
0.000503703
0.000474852
0.000490575
0.000507073
-0.0106237
-0.0168699
0.000634497
0.0202028
-0.0776919
0.00113123
0.0102089