/*--------------------------------*- C++ -*----------------------------------*\
  =========                 |
  \\      /  F ield         | OpenFOAM: The Open Source CFD Toolbox
   \\    /   O peration     | Website:  https://openfoam.org
    \\  /    A nd           | Version:  9
     \\/     M anipulation  |
\*---------------------------------------------------------------------------*/
FoamFile
{
    format      ascii;
    class       volScalarField;
    location    "0.18";
    object      epsilon;
}
// * * * * * * * * * * * * * * * * * * * * * * * * * * * * * * * * * * * * * //

dimensions      [0 2 -3 0 0 0 0];

internalField   nonuniform List<scalar> 
12225
(
278.515
263.66
249.434
236.839
226.738
219.484
215.07
213.264
213.707
215.992
219.715
224.507
230.047
236.072
242.38
248.803
255.377
264.897
61.116
86.6954
97.9916
107.208
118.466
132.558
149.413
168.615
189.583
211.691
234.348
257.044
279.374
301.041
321.954
341.95
362.558
381.136
25.2776
36.1831
43.3818
48.6215
53.3866
58.3367
63.7713
69.8267
76.5279
83.8267
91.6329
99.8374
108.329
117.008
125.807
134.707
143.859
153.258
17.5217
21.2986
24.7145
27.6101
30.1621
32.5403
34.867
37.2284
39.6778
42.2416
44.9274
47.7307
50.6406
53.6448
56.7347
59.9184
63.2148
66.6512
15.4878
16.7519
18.1859
19.5889
20.9096
22.1491
23.3265
24.4654
25.5867
26.7056
27.8319
28.9712
30.1266
31.2994
32.4915
33.7077
34.9533
36.225
14.9084
15.2396
15.7463
16.3341
16.9476
17.559
18.1559
18.7357
19.3003
19.8528
20.3965
20.9339
21.4673
21.9985
22.5291
23.0617
23.5978
24.1318
14.7451
14.7391
14.8342
15.0036
15.2216
15.4679
15.7286
15.9949
16.262
16.5275
16.7904
17.0501
17.3068
17.5608
17.8126
18.063
18.3124
18.5566
14.7012
14.5825
14.5116
14.4858
14.4981
14.5403
14.6043
14.6837
14.7737
14.8708
14.9726
15.0773
15.1838
15.2915
15.3999
15.5088
15.6179
15.7247
14.6901
14.5373
14.407
14.3009
14.2182
14.1571
14.1145
14.0875
14.0733
14.0693
14.0736
14.0845
14.1007
14.1213
14.1454
14.1724
14.2019
14.2322
14.6874
14.5252
14.3761
14.2411
14.1204
14.0137
13.9203
13.8391
13.7688
13.7083
13.6564
13.612
13.5741
13.5419
13.5147
13.492
13.4732
13.4575
14.6868
14.5221
14.3677
14.2236
14.0896
13.9655
13.8512
13.746
13.6495
13.561
13.4801
13.406
13.3383
13.2763
13.2197
13.1678
13.1204
13.0772
14.6866
14.5213
14.3656
14.219
14.0812
13.9518
13.8305
13.7168
13.6105
13.5111
13.4182
13.3314
13.2503
13.1747
13.104
13.038
12.9764
12.9194
14.6865
14.521
14.3648
14.2175
14.0785
13.9473
13.8234
13.7065
13.5963
13.4922
13.3941
13.3015
13.2142
13.1319
13.0542
12.981
12.912
12.8475
14.6864
14.5208
14.3645
14.2169
14.0774
13.9456
13.8209
13.7029
13.5912
13.4855
13.3853
13.2904
13.2005
13.1152
13.0344
12.9578
12.8852
12.8171
14.6864
14.5207
14.3643
14.2165
14.0769
13.9449
13.8199
13.7016
13.5895
13.4832
13.3824
13.2868
13.196
13.1098
13.0279
12.9501
12.8762
12.8067
14.6863
14.5206
14.3641
14.2163
14.0766
13.9444
13.8193
13.7009
13.5886
13.4822
13.3812
13.2854
13.1943
13.1079
13.0257
12.9475
12.8732
12.8033
14.6863
14.5205
14.364
14.2161
14.0763
13.9441
13.8189
13.7004
13.5881
13.4815
13.3805
13.2845
13.1934
13.1068
13.0245
12.9462
12.8718
12.8018
14.6863
14.5204
14.3639
14.216
14.0761
13.9439
13.8187
13.7001
13.5877
13.4811
13.3799
13.2839
13.1927
13.1061
13.0237
12.9454
12.8709
12.8008
14.6863
14.5204
14.3639
14.2159
14.0761
13.9438
13.8186
13.6999
13.5875
13.4809
13.3797
13.2837
13.1925
13.1058
13.0233
12.945
12.8704
12.8003
14.6863
14.5205
14.3639
14.216
14.0762
13.9439
13.8187
13.7001
13.5877
13.4811
13.38
13.284
13.1928
13.1061
13.0237
12.9454
12.8709
12.8008
14.6863
14.5205
14.364
14.2162
14.0764
13.9443
13.8192
13.7007
13.5885
13.4821
13.3812
13.2854
13.1945
13.1082
13.0262
12.9483
12.8742
12.8046
14.6863
14.5206
14.3643
14.2167
14.0773
13.9457
13.8214
13.7039
13.5928
13.4879
13.3886
13.2947
13.2059
13.1219
13.0423
12.967
12.8956
12.8288
14.6865
14.5212
14.3659
14.2202
14.0837
13.956
13.8368
13.7256
13.6218
13.525
13.4348
13.3506
13.272
13.1986
13.1301
13.0659
13.006
12.9505
14.6876
14.5264
14.3793
14.2467
14.1282
14.0231
13.9302
13.8484
13.7762
13.7126
13.6564
13.6068
13.5628
13.5237
13.489
13.4581
13.4306
13.4066
14.6976
14.5664
14.4707
14.4075
14.3714
14.3568
14.3584
14.372
14.3941
14.4224
14.455
14.4907
14.5286
14.568
14.6084
14.6495
14.6912
14.7331
14.7737
14.8187
14.9602
15.1591
15.3863
15.6233
15.8597
16.0904
16.3134
16.5283
16.7357
16.9364
17.1311
17.3208
17.5063
17.688
17.8665
18.0413
15.2587
16.1151
17.0712
17.9727
18.7878
19.5238
20.1944
20.8148
21.3987
21.9571
22.4984
23.0287
23.5523
24.072
24.5896
25.106
25.6213
26.1331
18.0414
22.0078
24.9885
27.1532
28.8882
30.4048
31.8123
33.1782
34.5435
35.9306
37.3507
38.8075
40.3003
41.8249
43.3759
44.9468
46.5312
48.116
34.024
45.6878
51.3768
54.9423
58.0808
61.2978
64.7505
68.4828
72.4786
76.695
81.0818
85.5892
90.1708
94.7847
99.3953
103.974
108.504
112.96
163.308
157.417
151.704
146.261
141.3
136.947
133.25
130.206
127.78
125.918
124.558
123.637
123.093
122.87
122.916
123.186
123.64
124.24
0.320039
0.359343
0.584407
0.793594
1.02539
1.28642
1.58067
1.91337
2.27112
2.63758
3.01261
3.39396
3.77913
4.16584
4.55209
4.93607
5.31611
5.69058
6.05788
6.41636
6.7643
7.09985
7.42099
7.72548
8.01089
8.27468
8.51437
8.72764
8.91199
9.06368
9.17378
9.21117
9.03737
9.06584
9.11159
9.16593
9.22765
9.29661
9.3399
9.40526
39.9875
9.48436
40.3043
42.4605
45.3231
48.3906
51.6354
55.0498
58.6317
62.3807
66.2976
70.3841
74.6424
79.0748
83.6837
88.4714
93.4401
98.592
103.929
109.452
115.163
121.063
127.152
133.431
139.899
146.556
153.401
160.433
167.649
175.046
182.623
190.376
198.301
206.393
214.649
223.062
231.627
240.338
249.189
258.172
267.28
276.505
285.84
295.275
304.802
314.411
324.093
333.838
343.636
353.475
363.344
373.232
383.127
393.016
402.888
412.734
422.545
432.321
442.075
451.841
461.558
471.142
480.594
489.903
499.057
508.04
516.838
525.433
533.811
541.955
549.851
557.483
564.838
571.901
578.658
585.097
591.206
596.972
602.384
607.433
612.109
616.404
620.309
623.818
626.924
629.623
631.91
633.783
635.239
636.276
636.896
637.097
636.884
636.257
635.222
633.783
631.945
629.716
627.103
624.114
620.759
617.049
612.994
608.605
603.896
598.879
593.567
587.975
582.118
576.01
569.667
563.103
556.335
549.38
542.253
534.97
527.548
520
512.349
504.605
496.783
488.918
480.976
473.075
465.306
459.399
456.469
453.753
451.036
448.306
445.566
442.814
440.043
437.232
434.335
431.25
427.743
423.21
416.163
400.252
1.11943
0.687428
0.707557
0.816835
0.972755
1.1649
1.39009
1.64444
1.92191
2.21632
2.52355
2.8406
3.16525
3.4959
3.83137
4.17076
4.51346
4.85902
5.20722
5.55812
5.91202
6.26962
6.63205
7.00103
7.3791
7.76999
8.1792
8.61508
9.09116
9.63268
10.2962
11.2134
12.5835
13.5007
14.3941
15.3398
16.3489
17.4356
18.6523
20.0678
22.0721
23.1874
25.4683
27.0386
28.5997
30.2018
31.857
33.5707
35.3448
37.181
39.0806
41.0449
43.0752
45.1723
47.3372
49.5706
51.8731
54.2453
56.6874
59.1997
61.7823
64.4353
67.1585
69.9516
72.8143
75.7459
78.7458
81.8131
84.9468
88.1459
91.409
94.7348
98.1216
101.568
105.072
108.631
112.243
115.907
119.619
123.378
127.18
131.022
134.902
138.817
142.763
146.737
150.736
154.755
158.791
162.84
166.898
170.96
175.023
179.083
183.136
187.18
191.215
195.244
199.275
203.336
207.411
211.446
215.432
219.364
223.237
227.044
230.779
234.437
238.011
241.496
244.885
248.172
251.353
254.421
257.371
260.198
262.897
265.464
267.894
270.182
272.325
274.319
276.161
277.848
279.377
280.745
281.951
282.993
283.87
284.581
285.124
285.5
285.71
285.753
285.631
285.345
284.896
284.287
283.52
282.598
281.524
280.301
278.933
277.424
275.779
274.001
272.097
270.071
267.928
265.673
263.313
260.853
258.299
255.658
252.935
250.136
247.268
244.335
241.348
238.309
235.224
232.112
228.929
225.788
222.713
220.027
217.913
215.923
213.959
212.004
210.055
208.113
206.177
204.247
202.32
200.389
198.43
196.433
194.275
193.047
2.16935
1.12847
1.03919
1.09937
1.2206
1.3842
1.58278
1.81105
2.06383
2.33616
2.6239
2.92389
3.23394
3.55263
3.87917
4.21327
4.55497
4.90468
5.26308
5.63121
6.01042
6.40252
6.80976
7.23491
7.68141
8.15342
8.65599
9.19511
9.77784
10.4127
11.1112
11.8898
12.7488
13.6168
14.5184
15.4624
16.4532
17.4969
18.5998
19.7645
21.0112
22.2649
23.5817
24.8791
26.1977
27.5548
28.9584
30.4114
31.9151
33.4699
35.0764
36.735
38.4463
40.2106
42.0283
43.8998
45.8252
47.8049
49.8389
51.9272
54.07
56.267
58.5181
60.823
63.1814
65.5929
68.0568
70.5727
73.1396
75.7569
78.4235
81.1384
83.9005
86.7085
89.5611
92.4568
95.3939
98.3709
101.386
104.437
107.523
110.64
113.787
116.962
120.162
123.385
126.628
129.889
133.164
136.452
139.749
143.054
146.364
149.676
152.99
156.305
159.621
162.94
166.264
169.591
172.9
176.177
179.417
182.613
185.762
188.857
191.894
194.868
197.774
200.608
203.363
206.037
208.624
211.119
213.518
215.818
218.014
220.101
222.078
223.939
225.683
227.306
228.805
230.177
231.422
232.536
233.518
234.367
235.082
235.661
236.105
236.413
236.585
236.623
236.526
236.295
235.933
235.44
234.819
234.072
233.202
232.21
231.101
229.877
228.542
227.1
225.554
223.909
222.169
220.338
218.421
216.422
214.346
212.199
209.984
207.706
205.373
202.985
200.552
198.074
195.554
193.024
190.465
187.917
185.41
183.053
180.904
178.838
176.804
174.788
172.786
170.798
168.828
166.879
164.957
163.074
161.247
159.539
158.042
157.556
3.32573
1.61685
1.39603
1.405
1.4989
1.64345
1.82607
2.03993
2.27982
2.54125
2.82041
3.11428
3.42074
3.73842
4.06666
4.40536
4.75485
5.11586
5.4894
5.87681
6.27971
6.70001
7.13991
7.60188
8.08871
8.60343
9.14928
9.72958
10.3476
11.0062
11.708
12.4552
13.2476
14.0784
14.9481
15.8581
16.8099
17.8053
18.8454
19.9298
21.0586
22.225
23.4282
24.6624
25.9317
27.2411
28.5943
29.9937
31.4404
32.9352
34.4789
36.072
37.715
39.4082
41.1523
42.9475
44.7942
46.6927
48.6433
50.6462
52.7016
54.8095
56.9699
59.1829
61.4482
63.7656
66.135
68.5557
71.0274
73.5495
76.1212
78.7418
81.4102
84.1255
86.8865
89.6919
92.5403
95.4302
98.36
101.328
104.332
107.371
110.442
113.542
116.671
119.825
123.003
126.201
129.417
132.649
135.894
139.151
142.416
145.688
148.966
152.247
155.531
158.816
162.098
165.366
168.611
171.824
174.999
178.132
181.217
184.248
187.222
190.132
192.974
195.743
198.435
201.043
203.564
205.994
208.327
210.56
212.688
214.708
216.616
218.41
220.084
221.638
223.068
224.371
225.546
226.591
227.504
228.285
228.932
229.444
229.821
230.064
230.172
230.146
229.987
229.697
229.276
228.727
228.052
227.253
226.332
225.294
224.14
222.874
221.5
220.022
218.443
216.768
215.001
213.146
211.209
209.193
207.103
204.945
202.723
200.44
198.107
195.716
193.289
190.83
188.34
185.832
183.306
180.783
178.285
175.861
173.537
171.271
169.039
166.828
164.639
162.471
160.33
158.222
156.158
154.157
152.251
150.52
149.076
148.388
4.42584
2.08291
1.73525
1.69795
1.7682
1.89723
2.06759
2.27073
2.50111
2.75446
3.02727
3.3168
3.62101
3.93862
4.26898
4.612
4.96805
5.33787
5.7225
6.12325
6.54162
6.97933
7.43825
7.92038
8.42787
8.9629
9.5277
10.1244
10.755
11.4211
12.1241
12.8652
13.6449
14.4631
15.3203
16.2172
17.1544
18.1327
19.1525
20.2138
21.3164
22.4597
23.6435
24.8676
26.1329
27.4415
28.7952
30.1954
31.6435
33.1405
34.6871
36.2843
37.9327
39.6331
41.3861
43.1923
45.0525
46.9671
48.9367
50.9618
53.0429
55.1802
57.3741
59.6249
61.9326
64.2974
66.7191
69.1976
71.7326
74.3238
76.9706
79.6724
82.4283
85.2374
88.0988
91.011
93.9728
96.9826
100.039
103.14
106.283
109.467
112.689
115.948
119.24
122.563
125.915
129.293
132.693
136.115
139.554
143.008
146.475
149.951
153.435
156.923
160.413
163.902
167.379
170.835
174.262
177.656
181.008
184.314
187.568
190.765
193.899
196.964
199.954
202.866
205.692
208.428
211.07
213.611
216.048
218.375
220.589
222.685
224.66
226.509
228.231
229.821
231.277
232.596
233.777
234.818
235.716
236.472
237.084
237.552
237.875
238.054
238.089
237.982
237.733
237.344
236.817
236.154
235.358
234.431
233.376
232.197
230.898
229.481
227.951
226.313
224.571
222.729
220.791
218.764
216.652
214.46
212.19
209.855
207.454
204.987
202.479
199.924
197.33
194.704
192.05
189.377
186.689
184.001
181.328
178.698
176.124
173.594
171.097
168.626
166.182
163.768
161.39
159.056
156.78
154.585
152.51
150.63
149.041
148.001
5.39989
2.4982
2.04059
1.96279
2.01229
2.1278
2.28749
2.48118
2.70288
2.94839
3.21446
3.49858
3.79888
4.11415
4.44375
4.78756
5.1459
5.51941
5.90906
6.31602
6.74164
7.18743
7.65501
8.14608
8.66241
9.2058
9.77805
10.3809
11.0159
11.6846
12.3882
13.128
13.9049
14.7199
15.5738
16.4673
17.4013
18.3765
19.3933
20.4524
21.5541
22.6991
23.8878
25.121
26.3995
27.7247
29.0977
30.52
31.9929
33.5174
35.0949
36.7262
38.4127
40.1552
41.9548
43.8126
45.7294
47.7063
49.7441
51.8437
54.0058
56.2312
58.5206
60.8745
63.2933
65.7774
68.3271
70.9424
73.6233
76.3696
79.1809
82.0567
84.9963
87.9989
91.0634
94.1884
97.3727
100.615
103.912
107.263
110.666
114.119
117.618
121.161
124.746
128.369
132.028
135.719
139.44
143.186
146.955
150.744
154.548
158.365
162.19
166.021
169.853
173.678
177.484
181.263
185.01
188.718
192.379
195.989
199.539
203.025
206.44
209.776
213.03
216.193
219.26
222.226
225.084
227.83
230.457
232.962
235.339
237.584
239.692
241.659
243.483
245.16
246.686
248.061
249.28
250.344
251.25
251.996
252.584
253.011
253.279
253.388
253.338
253.132
252.77
252.254
251.588
250.774
249.814
248.711
247.47
246.095
244.59
242.959
241.206
239.336
237.356
235.271
233.083
230.798
228.429
225.974
223.431
220.829
218.163
215.436
212.661
209.839
206.98
204.088
201.169
198.232
195.281
192.328
189.386
186.47
183.593
180.751
177.942
175.164
172.419
169.711
167.049
164.441
161.905
159.466
157.162
155.06
153.226
151.806
6.21879
2.85775
2.3055
2.19191
2.22271
2.32576
2.47538
2.6599
2.8728
3.10986
3.368
3.64493
3.93896
4.24897
4.57437
4.91501
5.27115
5.64339
6.03257
6.43978
6.86625
7.31335
7.78255
8.27541
8.79352
9.33851
9.91202
10.5156
11.1509
11.8193
12.5221
13.2608
14.0364
14.8503
15.7033
16.5967
17.5313
18.5081
19.528
20.592
21.7009
22.8558
24.0575
25.3073
26.6062
27.9555
29.3566
30.8109
32.3199
33.8851
35.508
37.19
38.9326
40.7372
42.6055
44.5386
46.5382
48.6055
50.7419
52.9487
55.227
57.5781
60.003
62.5026
65.0778
67.7292
70.4573
73.2626
76.1452
79.1052
82.1423
85.2562
88.4462
91.7115
95.0509
98.4631
101.947
105.499
109.12
112.805
116.553
120.361
124.226
128.145
132.114
136.131
140.191
144.292
148.428
152.597
156.793
161.014
165.253
169.508
173.773
178.044
182.315
186.569
190.799
194.997
199.157
203.271
207.332
211.332
215.264
219.122
222.897
226.583
230.172
233.657
237.033
240.292
243.427
246.434
249.306
252.037
254.622
257.056
259.334
261.453
263.408
265.196
266.815
268.261
269.532
270.627
271.544
272.283
272.842
273.222
273.424
273.448
273.296
272.968
272.468
271.798
270.961
269.961
268.8
267.482
266.012
264.396
262.638
260.743
258.715
256.559
254.287
251.901
249.403
246.801
244.112
241.336
238.476
235.546
232.551
229.494
226.386
223.233
220.04
216.815
213.564
210.295
207.014
203.731
200.456
197.201
193.976
190.783
187.624
184.5
181.416
178.378
175.394
172.476
169.642
166.917
164.338
161.96
159.826
158.018
6.89652
3.16104
2.52733
2.38175
2.39518
2.48623
2.62587
2.801
3.00462
3.23238
3.48134
3.74937
4.03496
4.33712
4.65531
4.98942
5.33969
5.70667
6.09115
6.49415
6.91683
7.36049
7.82652
8.31639
8.83162
9.37377
9.94441
10.5451
11.1774
11.8427
12.5426
13.2785
14.0517
14.8636
15.7155
16.6086
17.5443
18.5238
19.5482
20.619
21.7374
22.9047
24.1223
25.3918
26.7144
28.0919
29.5259
31.0182
32.5705
34.1847
35.8627
37.6065
39.418
41.2992
43.252
45.2784
47.3802
49.5594
51.8179
54.1574
56.5796
59.0861
61.6785
64.3581
67.1262
69.9837
72.9316
75.9706
79.1011
82.3232
85.637
89.0421
92.5379
96.1236
99.7979
103.559
107.406
111.336
115.347
119.437
123.601
127.837
132.142
136.512
140.943
145.43
149.97
154.559
159.19
163.861
168.564
173.296
178.052
182.824
187.608
192.398
197.182
201.942
206.67
211.36
216.003
220.593
225.12
229.575
233.951
238.239
242.431
246.519
250.495
254.35
258.078
261.671
265.122
268.424
271.57
274.555
277.373
280.018
282.485
284.769
286.866
288.774
290.488
292.006
293.327
294.449
295.369
296.089
296.607
296.923
297.039
296.957
296.677
296.202
295.535
294.679
293.638
292.416
291.018
289.447
287.706
285.807
283.753
281.551
279.201
276.711
274.099
271.367
268.518
265.56
262.506
259.36
256.128
252.821
249.445
246.007
242.516
238.978
235.4
231.791
228.157
224.506
220.845
217.182
213.528
209.891
206.281
202.703
199.162
195.661
192.207
188.807
185.471
182.211
179.047
176.003
173.111
170.417
167.945
165.746
7.43355
3.40725
2.70523
2.53126
2.52838
2.60761
2.73705
2.90239
3.09612
3.31378
3.55249
3.81026
4.08574
4.37806
4.68679
5.01185
5.35351
5.7123
6.08901
6.48459
6.90017
7.337
7.79643
8.27989
8.78885
9.32484
9.88942
10.4841
11.1106
11.7703
12.4649
13.1958
13.9647
14.773
15.6224
16.5143
17.4504
18.4321
19.4611
20.5391
21.6677
22.8487
24.0839
25.3751
26.7242
28.1334
29.6046
31.1401
32.7421
34.413
36.1552
37.9712
39.8636
41.8347
43.8872
46.0236
48.2465
50.5582
52.9613
55.4581
58.0507
60.7415
63.5323
66.425
69.4213
72.5227
75.7302
79.045
82.4677
85.9986
89.6378
93.3851
97.2398
101.201
105.267
109.437
113.708
118.077
122.542
127.1
131.747
136.479
141.292
146.182
151.143
156.171
161.261
166.407
171.605
176.847
182.128
187.442
192.782
198.142
203.514
208.891
214.246
219.569
224.854
230.093
235.275
240.391
245.433
250.39
255.253
260.013
264.659
269.183
273.576
277.829
281.934
285.882
289.667
293.279
296.713
299.962
303.019
305.878
308.533
310.981
313.215
315.234
317.034
318.612
319.967
321.097
322.001
322.68
323.132
323.358
323.361
323.142
322.704
322.049
321.18
320.102
318.82
317.34
315.666
313.802
311.749
309.525
307.135
304.583
301.876
299.021
296.03
292.91
289.667
286.31
282.848
279.29
275.642
271.915
268.117
264.255
260.338
256.373
252.37
248.336
244.279
240.205
236.125
232.044
227.973
223.921
219.896
215.905
211.955
208.052
204.202
200.415
196.701
193.074
189.553
186.161
182.927
179.887
177.051
174.458
7.83426
3.59744
2.84022
2.64146
2.62329
2.69079
2.80974
2.96483
3.14811
3.35501
3.58267
3.82922
4.09342
4.37456
4.67227
4.98657
5.31774
5.66634
6.03312
6.41904
6.82518
7.25278
7.70314
8.17768
8.67785
9.20517
9.76122
10.3476
10.9659
11.6179
12.3051
13.0294
13.7924
14.5959
15.4418
16.3318
17.2679
18.252
19.2861
20.3723
21.5126
22.7094
23.9648
25.2812
26.6611
28.1071
29.6217
31.2077
32.868
34.6055
36.4234
38.3246
40.3123
42.3898
44.5602
46.8268
49.1928
51.6612
54.2352
56.9177
59.7115
62.6193
65.6436
68.7869
72.0512
75.4382
78.9496
82.5865
86.3499
90.2402
94.2575
98.4014
102.671
107.066
111.583
116.222
120.979
125.851
130.835
135.926
141.121
146.415
151.802
157.278
162.835
168.47
174.175
179.944
185.771
191.649
197.57
203.528
209.514
215.521
221.541
227.55
233.524
239.458
245.343
251.17
256.927
262.606
268.194
273.681
279.055
284.306
289.424
294.398
299.22
303.878
308.365
312.67
316.787
320.706
324.42
327.922
331.205
334.264
337.092
339.682
342.032
344.138
345.997
347.607
348.967
350.074
350.93
351.533
351.884
351.984
351.836
351.443
350.807
349.933
348.821
347.48
345.917
344.137
342.146
339.95
337.553
334.969
332.204
329.265
326.161
322.9
319.492
315.946
312.271
308.475
304.569
300.561
296.461
292.279
288.022
283.701
279.324
274.9
270.438
265.946
261.433
256.907
252.376
247.848
243.333
238.839
234.375
229.949
225.569
221.242
216.976
212.782
208.67
204.656
200.757
196.995
193.395
189.986
186.77
183.778
8.1071
3.73459
2.9349
2.715
2.68262
2.73852
2.84675
2.99122
3.16363
3.3593
3.5754
3.81013
4.06239
4.33155
4.61735
4.91986
5.23941
5.57656
5.93208
6.3069
6.70211
7.1189
7.55859
8.02257
8.51233
9.0294
9.5754
10.152
10.761
11.404
12.0831
12.8001
13.557
14.3558
15.1987
16.0878
17.0254
18.014
19.0558
20.1536
21.3099
22.5274
23.8091
25.1578
26.5766
28.0687
29.6374
31.2862
33.0186
34.8383
36.749
38.7547
40.8591
43.0663
45.3803
47.805
50.3443
53.002
55.782
58.6877
61.7226
64.89
68.1927
71.6338
75.2155
78.9401
82.8093
86.8245
90.9866
95.296
99.7528
104.356
109.106
113.999
119.034
124.208
129.519
134.961
140.532
146.225
152.036
157.958
163.986
170.112
176.33
182.633
189.014
195.466
201.981
208.551
215.167
221.822
228.506
235.211
241.917
248.587
255.212
261.784
268.294
274.729
281.079
287.332
293.476
299.498
305.385
311.126
316.71
322.125
327.362
332.41
337.259
341.9
346.323
350.521
354.486
358.209
361.686
364.909
367.871
370.565
372.989
375.14
377.015
378.613
379.931
380.971
381.731
382.213
382.415
382.341
381.995
381.38
380.5
379.36
377.964
376.319
374.433
372.312
369.962
367.393
364.61
361.625
358.447
355.083
351.544
347.839
343.978
339.972
335.83
331.562
327.179
322.691
318.108
313.439
308.696
303.887
299.024
294.114
289.167
284.193
279.201
274.199
269.195
264.199
259.22
254.265
249.346
244.469
239.644
234.879
230.183
225.567
221.043
216.626
212.334
208.186
204.205
200.412
196.804
193.413
8.26403
3.8232
2.99307
2.75567
2.7103
2.75489
2.85233
2.98596
3.14727
3.33151
3.53585
3.75859
3.99869
4.25563
4.52921
4.81956
5.12706
5.45227
5.79599
6.15914
6.54281
6.9482
7.37664
7.82956
8.30847
8.815
9.35086
9.91785
10.5179
11.1529
11.825
12.5363
13.2893
14.0861
14.9295
15.8219
16.7662
17.7651
18.8218
19.9392
21.1208
22.3698
23.6898
25.0845
26.5576
28.1131
29.7551
31.4879
33.3158
35.2433
37.2752
39.4159
41.6705
44.0435
46.5399
49.1645
51.9218
54.8166
57.8532
61.0358
64.3681
67.854
71.4967
75.2995
79.265
83.3955
87.6929
92.1584
96.7928
101.596
106.568
111.708
117.013
122.482
128.112
133.899
139.838
145.925
152.155
158.522
165.019
171.638
178.371
185.211
192.15
199.179
206.291
213.477
220.728
228.037
235.393
242.786
250.206
257.641
265.034
272.377
279.661
286.875
294.007
301.045
307.976
314.789
321.47
328.005
334.377
340.576
346.59
352.407
358.018
363.41
368.574
373.499
378.178
382.6
386.758
390.646
394.256
397.586
400.621
403.357
405.792
407.925
409.753
411.275
412.491
413.4
414.003
414.302
414.298
413.994
413.395
412.504
411.328
409.871
408.14
406.142
403.884
401.376
398.624
395.638
392.427
389.001
385.37
381.545
377.535
373.352
369.006
364.508
359.869
355.101
350.215
345.22
340.129
334.953
329.701
324.385
319.015
313.601
308.153
302.681
297.193
291.7
286.211
280.734
275.278
269.853
264.467
259.131
253.853
248.642
243.509
238.464
233.521
228.694
223.999
219.456
215.084
210.9
206.895
203.107
8.31991
3.86889
3.01933
2.76801
2.71101
2.74482
2.83164
2.95452
3.10482
3.27777
3.47057
3.68159
3.90987
4.15494
4.41669
4.69528
4.99113
5.30485
5.63723
5.98925
6.36201
6.75676
7.1749
7.61792
8.08745
8.58525
9.11319
9.67327
10.2676
10.8985
11.5683
12.2796
13.0351
13.8376
14.6901
15.5958
16.5581
17.5804
18.6664
19.8201
21.0454
22.3465
23.7279
25.194
26.7495
28.3993
30.1484
32.002
33.9655
36.0443
38.2441
40.5705
43.0291
45.6257
48.366
51.2556
54.2999
57.5043
60.8738
64.4128
68.1252
72.0148
76.0853
80.3398
84.781
89.4109
94.2312
99.2426
104.445
109.839
115.421
121.192
127.147
133.283
139.596
146.082
152.734
159.547
166.514
173.627
180.881
188.264
195.764
203.374
211.084
218.885
226.77
234.728
242.75
250.826
258.947
267.1
275.274
283.399
291.465
299.463
307.379
315.202
322.919
330.516
337.979
345.298
352.461
359.45
366.241
372.827
379.198
385.341
391.246
396.901
402.297
407.423
412.27
416.83
421.094
425.056
428.71
432.05
435.069
437.761
440.124
442.156
443.856
445.224
446.258
446.961
447.333
447.377
447.096
446.494
445.575
444.346
442.811
440.979
438.855
436.449
433.769
430.823
427.623
424.176
420.494
416.588
412.468
408.146
403.633
398.94
394.081
389.066
383.907
378.616
373.206
367.687
362.073
356.373
350.6
344.764
338.877
332.949
326.991
321.014
315.025
309.037
303.057
297.095
291.16
285.262
279.41
273.614
267.882
262.226
256.656
251.182
245.819
240.58
235.482
230.543
225.777
221.201
216.803
212.622
8.29197
3.87802
3.01869
2.75696
2.68993
2.71381
2.79059
2.90324
3.04311
3.20546
3.38757
3.58783
3.80539
4.03983
4.2911
4.55942
4.84527
5.1493
5.47238
5.81555
6.18
6.5671
6.97837
7.41548
7.88026
8.37468
8.9009
9.46125
10.0582
10.6945
11.3729
12.0966
12.8688
13.6929
14.5726
15.5119
16.5149
17.586
18.7298
19.9511
21.255
22.6468
24.132
25.7161
27.4047
29.2039
31.1198
33.1586
35.327
37.6314
40.0785
42.6748
45.4269
48.3414
51.4247
54.683
58.1227
61.7495
65.569
69.5858
73.8017
78.2206
82.8459
87.6804
92.7262
97.9844
103.456
109.14
115.036
121.141
127.454
133.97
140.685
147.594
154.692
161.97
169.423
177.042
184.819
192.747
200.819
209.023
217.337
225.753
234.266
242.863
251.538
260.278
269.075
277.92
286.801
295.694
304.527
313.289
321.967
330.549
339.021
347.37
355.582
363.643
371.539
379.256
386.781
394.098
401.192
408.048
414.657
421.006
427.083
432.88
438.384
443.588
448.481
453.056
457.306
461.223
464.803
468.039
470.927
473.463
475.644
477.469
478.937
480.049
480.805
481.206
481.256
480.958
480.316
479.335
478.02
476.378
474.416
472.142
469.565
466.692
463.534
460.101
456.404
452.453
448.26
443.835
439.193
434.343
429.299
424.074
418.679
413.127
407.432
401.605
395.66
389.607
383.461
377.233
370.934
364.577
358.173
351.733
345.267
338.787
332.303
325.823
319.359
312.919
306.513
300.15
293.84
287.592
281.417
275.325
269.326
263.433
257.658
252.015
246.52
241.189
236.037
231.076
226.293
221.731
8.19931
3.85727
2.99637
2.72769
2.6526
2.66795
2.73593
2.83963
2.9705
3.12389
3.29716
3.48881
3.69804
3.92454
4.16834
4.42975
4.70934
5.0079
5.32644
5.66614
6.02841
6.41484
6.82722
7.26753
7.73796
8.24092
8.77901
9.35508
9.97222
10.6338
11.3434
12.1049
12.9224
13.8003
14.7433
15.7561
16.8443
18.0134
19.2693
20.6182
22.0667
23.6216
25.29
27.0785
28.9936
31.0425
33.2327
35.5719
38.0676
40.7275
43.5589
46.5693
49.7657
53.1551
56.7441
60.5392
64.5465
68.7721
73.2229
77.9048
82.8086
87.9403
93.3027
98.8975
104.725
110.785
117.075
123.594
130.338
137.304
144.485
151.876
159.472
167.263
175.242
183.401
191.73
200.219
208.858
217.637
226.545
235.571
244.698
253.917
263.217
272.589
282.022
291.507
301.032
310.598
320.142
329.608
338.985
348.259
357.416
366.442
375.323
384.046
392.596
400.959
409.12
417.068
424.787
432.263
439.483
446.435
453.105
459.484
465.561
471.324
476.766
481.878
486.65
491.077
495.15
498.865
502.217
505.201
507.813
510.051
511.913
513.398
514.507
515.24
515.6
515.589
515.211
514.469
513.37
511.919
510.123
507.988
505.524
502.739
499.642
496.244
492.554
488.584
484.345
479.849
475.108
470.134
464.941
459.54
453.946
448.171
442.228
436.13
429.892
423.525
417.044
410.46
403.786
397.036
390.22
383.352
376.442
369.502
362.544
355.577
348.612
341.659
334.728
327.829
320.97
314.162
307.413
300.735
294.135
287.626
281.218
274.923
268.753
262.723
256.846
251.14
245.615
240.285
235.133
230.208
8.05638
3.81165
2.95639
2.68445
2.60386
2.6129
2.67433
2.77155
2.89621
3.04383
3.21192
3.39913
3.60478
3.82872
4.07115
4.33258
4.61381
4.91591
5.24017
5.58817
5.96171
6.36288
6.794
7.25768
7.75681
8.29459
8.87449
9.50027
10.1761
10.9064
11.6963
12.5511
13.4764
14.4778
15.5615
16.7339
18.0024
19.3744
20.8578
22.4608
24.1919
26.0604
28.0764
30.2487
32.58
35.0805
37.7595
40.6256
43.6871
46.9519
50.4275
54.1209
58.0387
62.1868
66.5707
71.195
76.0639
81.181
86.5489
92.1687
98.0381
104.156
110.522
117.134
123.989
131.083
138.412
145.969
153.749
161.744
169.947
178.348
186.939
195.71
204.65
213.748
222.994
232.376
241.882
251.501
261.221
271.029
280.914
290.865
300.871
310.925
321.013
331.138
341.263
351.306
361.247
371.073
380.769
390.322
399.717
408.941
417.981
426.822
435.452
443.857
452.023
459.939
467.591
474.967
482.054
488.842
495.32
501.476
507.302
512.79
517.929
522.713
527.135
531.189
534.869
538.17
541.089
543.622
545.767
547.523
548.888
549.863
550.449
550.649
550.465
549.901
548.96
547.65
545.975
543.943
541.561
538.838
535.782
532.403
528.711
524.717
520.431
515.867
511.035
505.949
500.621
495.063
489.29
483.314
477.149
470.809
464.307
457.657
450.873
443.966
436.952
429.843
422.651
415.39
408.072
400.708
393.311
385.892
378.461
371.03
363.609
356.207
348.835
341.502
334.217
326.989
319.829
312.745
305.748
298.848
292.055
285.382
278.842
272.446
266.211
260.149
254.273
248.593
243.095
237.829
7.90896
3.75626
2.91064
2.63974
2.55804
2.56552
2.62567
2.72233
2.84747
2.99687
3.16828
3.36061
3.57349
3.80709
4.06201
4.33922
4.64006
4.9662
5.31966
5.70282
6.11842
6.56957
7.05979
7.59292
8.17335
8.80599
9.49619
10.2492
11.0712
11.9689
12.95
14.0229
15.1974
16.4799
17.8774
19.4003
21.0588
22.8631
24.8236
26.9509
29.2555
31.7479
34.4384
37.3362
40.4489
43.7849
47.3523
51.1585
55.2099
59.5122
64.07
68.8873
73.9667
79.3101
84.9184
90.7916
96.9288
103.328
109.987
116.901
124.065
131.473
139.119
146.996
155.097
163.413
171.937
180.659
189.57
198.659
207.917
217.332
226.894
236.591
246.412
256.345
266.379
276.504
286.706
296.975
307.302
317.675
328.083
338.523
348.978
359.46
369.925
380.293
390.535
400.643
410.605
420.407
430.036
439.48
448.725
457.761
466.574
475.153
483.486
491.56
499.365
506.888
514.121
521.05
527.667
533.961
539.923
545.545
550.818
555.734
560.287
564.47
568.278
571.706
574.749
577.404
579.668
581.54
583.018
584.101
584.79
585.086
584.992
584.51
583.644
582.399
580.779
578.792
576.443
573.741
570.693
567.309
563.598
559.57
555.236
550.607
545.695
540.512
535.07
529.383
523.462
517.321
510.974
504.435
497.716
490.833
483.797
476.623
469.325
461.915
454.407
446.814
439.149
431.423
423.65
415.84
408.007
400.159
392.31
384.467
376.643
368.846
361.087
353.373
345.715
338.121
330.6
323.162
315.817
308.574
301.445
294.44
287.572
280.854
274.3
267.922
261.732
255.741
249.932
244.361
7.78334
3.70097
2.86883
2.60509
2.52934
2.5433
2.61132
2.71779
2.85518
3.01971
3.20964
3.42442
3.66435
3.93039
4.22405
4.54737
4.90292
5.29381
5.72366
6.19671
6.71773
7.29223
7.92646
8.62671
9.4004
10.2565
11.2059
12.2549
13.4128
14.6916
16.1033
17.6603
19.3755
21.2607
23.3279
25.59
28.0596
30.7489
33.6697
36.8329
40.2484
43.9252
47.8708
52.0912
56.5907
61.3723
66.438
71.7882
77.4221
83.3376
89.5314
95.999
102.735
109.733
116.986
124.485
132.224
140.192
148.381
156.781
165.382
174.173
183.144
192.286
201.587
211.037
220.626
230.343
240.179
250.122
260.164
270.293
280.499
290.774
301.107
311.489
321.91
332.363
342.838
353.327
363.829
374.328
384.815
395.324
405.777
416.098
426.27
436.29
446.146
455.828
465.324
474.625
483.719
492.596
501.245
509.657
517.82
525.724
533.361
540.718
547.788
554.56
561.026
567.176
573.002
578.496
583.65
588.456
592.908
596.999
600.725
604.079
607.058
609.658
611.875
613.706
615.151