/*--------------------------------*- C++ -*----------------------------------*\
  =========                 |
  \\      /  F ield         | OpenFOAM: The Open Source CFD Toolbox
   \\    /   O peration     | Website:  https://openfoam.org
    \\  /    A nd           | Version:  9
     \\/     M anipulation  |
\*---------------------------------------------------------------------------*/
FoamFile
{
    format      ascii;
    class       volScalarField;
    location    "0.18";
    object      k;
}
// * * * * * * * * * * * * * * * * * * * * * * * * * * * * * * * * * * * * * //

dimensions      [0 2 -2 0 0 0 0];

internalField   nonuniform List<scalar> 
12225
(
0.353921
0.335043
0.316966
0.300961
0.288125
0.278907
0.273298
0.271003
0.271566
0.27447
0.279201
0.28529
0.292331
0.299986
0.308002
0.316164
0.324518
0.336615
0.436864
0.448979
0.438085
0.433061
0.438788
0.453587
0.474802
0.499983
0.527141
0.554793
0.581909
0.607824
0.632162
0.654744
0.675678
0.694862
0.714381
0.729699
0.395187
0.410874
0.410631
0.405747
0.402011
0.400924
0.402615
0.406808
0.413083
0.42098
0.430067
0.439963
0.450358
0.461009
0.471776
0.482547
0.49361
0.504332
0.379641
0.38484
0.386546
0.38573
0.383905
0.382026
0.380567
0.379739
0.379606
0.380148
0.381302
0.382986
0.385118
0.387624
0.39045
0.393561
0.396977
0.400595
0.374976
0.3759
0.376239
0.375721
0.37457
0.373084
0.371496
0.369967
0.368593
0.367426
0.366484
0.365768
0.365268
0.364968
0.364857
0.364924
0.365165
0.36555
0.373488
0.372555
0.371759
0.370807
0.369631
0.368275
0.366809
0.3653
0.363803
0.362358
0.36099
0.359714
0.358537
0.357461
0.356488
0.355617
0.354846
0.354171
0.373012
0.371296
0.369813
0.368416
0.367025
0.36561
0.364168
0.362711
0.361257
0.359824
0.358425
0.357072
0.355773
0.354532
0.353354
0.352239
0.351191
0.350216
0.372865
0.370838
0.369004
0.36731
0.365711
0.364174
0.362679
0.361216
0.359782
0.358381
0.357015
0.355687
0.354401
0.35316
0.351966
0.350821
0.349727
0.348695
0.37282
0.37068
0.368691
0.366836
0.365095
0.363448
0.36188
0.360376
0.358928
0.357531
0.356182
0.354879
0.353621
0.352408
0.35124
0.350117
0.34904
0.348021
0.372806
0.370628
0.368578
0.366648
0.364829
0.36311
0.361482
0.359934
0.358457
0.357045
0.355693
0.354396
0.353152
0.351957
0.350811
0.349711
0.348658
0.347662
0.372801
0.370609
0.368537
0.366576
0.36472
0.362964
0.361299
0.359718
0.358215
0.356784
0.35542
0.354118
0.352873
0.351684
0.350546
0.349458
0.348419
0.347438
0.372799
0.370602
0.368522
0.36655
0.36468
0.362907
0.361224
0.359627
0.358108
0.356664
0.355288
0.353978
0.352728
0.351536
0.350399
0.349313
0.348278
0.347303
0.372797
0.370599
0.368514
0.366537
0.36466
0.362879
0.361188
0.359581
0.358053
0.356599
0.355216
0.353899
0.352643
0.351447
0.350307
0.34922
0.348184
0.347209
0.372796
0.370596
0.368509
0.366528
0.364649
0.362864
0.361167
0.359555
0.358022
0.356562
0.355174
0.353851
0.352591
0.351391
0.350247
0.349157
0.348118
0.347141
0.372795
0.370593
0.368505
0.366523
0.364641
0.362853
0.361154
0.359539
0.358002
0.35654
0.355148
0.353822
0.35256
0.351356
0.350209
0.349116
0.348074
0.347094
0.372794
0.370592
0.368502
0.366518
0.364634
0.362845
0.361145
0.359527
0.357989
0.356525
0.355131
0.353803
0.352538
0.351333
0.350184
0.349088
0.348044
0.347061
0.372794
0.37059
0.368499
0.366515
0.36463
0.362839
0.361137
0.359519
0.357979
0.356513
0.355118
0.353789
0.352523
0.351316
0.350165
0.349067
0.348021
0.347037
0.372794
0.370589
0.368498
0.366512
0.364627
0.362835
0.361132
0.359513
0.357972
0.356506
0.355109
0.353779
0.352511
0.351303
0.350151
0.349052
0.348005
0.347019
0.372793
0.370589
0.368497
0.366512
0.364626
0.362834
0.361131
0.359511
0.357969
0.356502
0.355105
0.353775
0.352506
0.351297
0.350145
0.349045
0.347997
0.34701
0.372794
0.37059
0.368498
0.366513
0.364628
0.362836
0.361133
0.359514
0.357973
0.356506
0.355109
0.353779
0.352511
0.351302
0.350149
0.34905
0.348002
0.347015
0.372794
0.370591
0.3685
0.366516
0.364632
0.362841
0.36114
0.359522
0.357982
0.356517
0.355122
0.353793
0.352526
0.351319
0.350168
0.34907
0.348023
0.347038
0.372795
0.370593
0.368504
0.366522
0.364641
0.362855
0.361159
0.359546
0.358012
0.356552
0.355163
0.353839
0.352578
0.351376
0.350229
0.349135
0.348091
0.347109
0.372796
0.370598
0.368518
0.366547
0.364681
0.362913
0.361235
0.359642
0.358127
0.356685
0.355311
0.354001
0.352751
0.351557
0.350415
0.349324
0.348282
0.347299
0.372804
0.370631
0.368592
0.366676
0.364872
0.363166
0.361548
0.360006
0.358532
0.357121
0.355767
0.354467
0.353219
0.35202
0.350868
0.349762
0.348702
0.347697
0.372856
0.370818
0.368973
0.367264
0.365645
0.364085
0.362567
0.361083
0.359631
0.358213
0.356833
0.355493
0.354197
0.352946
0.351744
0.35059
0.349487
0.348445
0.373166
0.37177
0.370579
0.369371
0.368049
0.366605
0.365072
0.363492
0.361906
0.360342
0.358826
0.357372
0.355991
0.354689
0.353468
0.352329
0.351272
0.350303
0.374797
0.375829
0.376175
0.375401
0.373834
0.371876
0.369792
0.36774
0.365814
0.364067
0.362524
0.361194
0.360075
0.359156
0.358424
0.357863
0.357456
0.357189
0.382729
0.39167
0.392375
0.388805
0.384384
0.380403
0.377247
0.374997
0.373621
0.373037
0.373152
0.373865
0.375082
0.376714
0.378682
0.380918
0.38336
0.38594
0.407499
0.414514
0.405423
0.395992
0.390555
0.389291
0.391454
0.396214
0.402833
0.410722
0.419429
0.428613
0.43802
0.447463
0.456805
0.465952
0.474859
0.483439
0.360554
0.347547
0.334933
0.322917
0.311965
0.302353
0.29419
0.28747
0.282115
0.278004
0.275001
0.272966
0.271766
0.271273
0.271375
0.271971
0.272973
0.274299
0.00111396
0.00570547
0.00927174
0.0125795
0.016239
0.020355
0.024989
0.0302225
0.0358441
0.0415933
0.0474678
0.0534319
0.0594455
0.0654725
0.0714811
0.0774431
0.0833319
0.0891222
0.0947888
0.100306
0.105648
0.110785
0.115686
0.120318
0.124643
0.128624
0.132224
0.135406
0.138123
0.140287
0.141682
0.141761
0.139268
0.139591
0.140304
0.141161
0.142128
0.143131
0.143825
0.144351
0.142846
0.145967
0.145188
0.150597
0.157241
0.164194
0.171385
0.178787
0.186385
0.194167
0.202128
0.210263
0.218567
0.227039
0.235675
0.244474
0.253431
0.262546
0.271814
0.281233
0.290799
0.300509
0.310357
0.320341
0.330454
0.340692
0.351048
0.361518
0.372094
0.38277
0.393539
0.404394
0.415327
0.426331
0.437396
0.448516
0.459681
0.470882
0.482112
0.493361
0.504619
0.515878
0.527129
0.538361
0.549567
0.560735
0.571856
0.582922
0.593921
0.604844
0.61568
0.62642
0.637053
0.647569
0.657959
0.668214
0.678332
0.688315
0.698179
0.707963
0.717605
0.727024
0.736223
0.745197
0.753939
0.762436
0.770679
0.778656
0.786357
0.793771
0.800887
0.807697
0.814191
0.820359
0.826195
0.831689
0.836834
0.841624
0.846051
0.850112
0.853799
0.85711
0.860039
0.862584
0.864743
0.866512
0.867891
0.86888
0.869477
0.869684
0.869502
0.868934
0.867981
0.866648
0.864938
0.862857
0.860409
0.8576
0.854438
0.850929
0.847081
0.842903
0.838404
0.833593
0.828479
0.823075
0.81739
0.811435
0.805223
0.798765
0.792074
0.785161
0.778041
0.770726
0.76323
0.755564
0.747745
0.739782
0.731695
0.723492
0.715186
0.70681
0.698329
0.689857
0.681481
0.674889
0.671209
0.667735
0.664255
0.660757
0.657243
0.653712
0.650156
0.646555
0.642863
0.638979
0.634673
0.629342
0.6215
0.604733
0.00389834
0.0148095
0.0219317
0.0277066
0.0330024
0.0382319
0.0436612
0.0493796
0.055364
0.0615476
0.0678727
0.0742901
0.0807598
0.0872501
0.0937356
0.100195
0.106612
0.112968
0.11925
0.125443
0.131533
0.137507
0.143349
0.149046
0.154586
0.15996
0.165166
0.170207
0.17509
0.179808
0.184352
0.188798
0.19373
0.199023
0.204722
0.210896
0.217564
0.224746
0.232599
0.241196
0.250532
0.261283
0.272918
0.284565
0.296029
0.307674
0.319718
0.332145
0.344929
0.358055
0.371512
0.385295
0.3994
0.413824
0.428567
0.443627
0.459002
0.474691
0.490692
0.507002
0.52362
0.540541
0.557763
0.575279
0.593086
0.611178
0.629548
0.648189
0.667093
0.686253
0.705658
0.725299
0.745166
0.765248
0.785533
0.806009
0.826663
0.847483
0.868454
0.889562
0.910794
0.932134
0.953568
0.975081
0.996656
1.01828
1.03993
1.0616
1.08327
1.10492
1.12653
1.1481
1.16959
1.191
1.21231
1.23349
1.25452
1.2754
1.29609
1.31645
1.3364
1.35606
1.37543
1.3945
1.41324
1.43163
1.44966
1.46729
1.48451
1.5013
1.51764
1.5335
1.54886
1.56371
1.57802
1.59178
1.60498
1.61758
1.62959
1.64098
1.65174
1.66185
1.67132
1.68011
1.68823
1.69567
1.70242
1.70846
1.71381
1.71845
1.72238
1.72559
1.7281
1.7299
1.73098
1.73137
1.73105
1.73004
1.72834
1.72597
1.72292
1.71922
1.71487
1.70989
1.7043
1.6981
1.69131
1.68395
1.67605
1.66761
1.65866
1.64922
1.6393
1.62895
1.61816
1.60698
1.59542
1.5835
1.57126
1.55871
1.54587
1.53283
1.51943
1.506
1.49251
1.47927
1.46649
1.45373
1.44091
1.42805
1.41516
1.40225
1.38934
1.37641
1.36346
1.35044
1.3372
1.32363
1.30849
1.28893
0.00755578
0.023744
0.0330557
0.0400614
0.0462694
0.0522687
0.0583293
0.0645683
0.0710125
0.07764
0.0844114
0.091286
0.0982285
0.105211
0.112214
0.119222
0.126225
0.133216
0.140191
0.147148
0.154085
0.161006
0.167913
0.174815
0.181723
0.188659
0.195652
0.202739
0.209969
0.217393
0.225075
0.233113
0.241642
0.250665
0.26022
0.270335
0.281039
0.29236
0.304348
0.317006
0.330319
0.344303
0.358804
0.373623
0.388708
0.40414
0.419988
0.436267
0.452973
0.470097
0.487634
0.505578
0.523925
0.542672
0.561817
0.581355
0.601285
0.621604
0.642308
0.663394
0.684857
0.706692
0.728894
0.751457
0.774375
0.797638
0.821239
0.845169
0.869417
0.893973
0.918825
0.943961
0.969367
0.99503
1.02093
1.04707
1.07341
1.09994
1.12666
1.15353
1.18054
1.20768
1.23492
1.26224
1.28964
1.31707
1.34454
1.372
1.39946
1.42688
1.45424
1.48153
1.50872
1.53579
1.56273
1.58951
1.61612
1.64252
1.66871
1.69451
1.71996
1.74507
1.76981
1.79416
1.8181
1.84159
1.86462
1.88713
1.90912
1.93055
1.9514
1.97164
1.99124
2.01017
2.02842
2.04596
2.06277
2.07883
2.09411
2.1086
2.12227
2.13513
2.14713
2.15829
2.16857
2.17798
2.1865
2.19412
2.20084
2.20665
2.21155
2.21553
2.21861
2.22077
2.22202
2.22236
2.22181
2.22037
2.21805
2.21486
2.21081
2.20591
2.20019
2.19366
2.18634
2.17824
2.1694
2.15982
2.14954
2.13857
2.12695
2.1147
2.10185
2.08842
2.07445
2.05996
2.04499
2.02955
2.0137
1.99746
1.98083
1.96399
1.94685
1.92954
1.91211
1.89473
1.87753
1.86031
1.84305
1.82573
1.8084
1.79106
1.77376
1.7565
1.73931
1.72222
1.7052
1.68835
1.6711
1.65311
0.0115849
0.0318743
0.0428668
0.0508887
0.0578623
0.0644623
0.0710032
0.077639
0.0844329
0.091395
0.0985081
0.105745
0.113079
0.120487
0.127952
0.135466
0.143024
0.150625
0.158272
0.165974
0.173741
0.181584
0.189521
0.197574
0.205768
0.214137
0.222722
0.231567
0.240725
0.250247
0.26019
0.270614
0.281579
0.293121
0.305254
0.317994
0.331351
0.345337
0.359957
0.375198
0.391036
0.407442
0.42436
0.441721
0.459491
0.477682
0.496316
0.515409
0.534963
0.554979
0.575458
0.596396
0.617793
0.639646
0.661954
0.684715
0.707926
0.731586
0.75569
0.780237
0.80522
0.830636
0.85648
0.882744
0.909422
0.936505
0.963985
0.991851
1.02009
1.0487
1.07765
1.10694
1.13656
1.16647
1.19668
1.22716
1.25789
1.28885
1.32002
1.35139
1.38293
1.41462
1.44643
1.47835
1.51034
1.5424
1.57449
1.60658
1.63867
1.67071
1.7027
1.7346
1.76639
1.79804
1.82955
1.86087
1.892
1.9229
1.95347
1.98366
2.01347
2.04287
2.07184
2.10035
2.12836
2.15585
2.18278
2.20911
2.23481
2.25984
2.28419
2.3078
2.33066
2.35273
2.37399
2.39441
2.41395
2.4326
2.45034
2.46713
2.48296
2.49782
2.51167
2.52451
2.53633
2.5471
2.55683
2.56549
2.57309
2.57961
2.58506
2.58943
2.59273
2.59495
2.5961
2.59618
2.59521
2.59319
2.59014
2.58606
2.58098
2.57491
2.56786
2.55987
2.55095
2.54112
2.53042
2.51886
2.50648
2.49329
2.47935
2.46466
2.44927
2.43322
2.41653
2.39922
2.38137
2.36295
2.34408
2.32481
2.30514
2.28515
2.26486
2.24433
2.22363
2.20289
2.18218
2.16144
2.14065
2.11982
2.09898
2.07818
2.05745
2.03684
2.01641
1.99626
1.97647
1.95727
1.9385
1.92034
0.0154184
0.0389975
0.0514471
0.0604229
0.0680903
0.0752148
0.0821599
0.0891162
0.0961795
0.103389
0.110751
0.118255
0.125885
0.133626
0.141467
0.149403
0.157434
0.165564
0.173803
0.182164
0.190664
0.199323
0.208166
0.217222
0.226522
0.236105
0.246012
0.256289
0.266981
0.278134
0.289791
0.301994
0.314779
0.32817
0.342182
0.356819
0.372085
0.387978
0.40449
0.421609
0.439314
0.457585
0.476394
0.495712
0.515518
0.535811
0.556598
0.577886
0.599679
0.621982
0.644796
0.668123
0.691964
0.716319
0.741187
0.76657
0.792466
0.818873
0.845791
0.873216
0.901145
0.929575
0.958499
0.987913
1.01781
1.04818
1.07901
1.1103
1.14203
1.1742
1.20677
1.23975
1.27311
1.30684
1.34091
1.37531
1.41002
1.445
1.48025
1.51573
1.55142
1.5873
1.62333
1.65949
1.69576
1.73211
1.7685
1.80492
1.84133
1.8777
1.91402
1.95024
1.98634
2.0223
2.05809
2.09367
2.12902
2.16411
2.19879
2.23305
2.26688
2.30025
2.33312
2.36546
2.39723
2.42839
2.4589
2.48873
2.51783
2.54616
2.57369
2.60039
2.62621
2.65113
2.67511
2.69812
2.72012
2.7411
2.76103
2.77987
2.7976
2.81422
2.82968
2.84399
2.85712
2.86905
2.87979
2.88931
2.89761
2.90468
2.91052
2.91514
2.91852
2.92068
2.92162
2.92135
2.91988
2.91721
2.91337
2.90837
2.90223
2.89497
2.8866
2.87716
2.86667
2.85515
2.84264
2.82917
2.81477
2.79946
2.7833
2.7663
2.74849
2.72996
2.71071
2.69073
2.67021
2.6491
2.62747
2.60538
2.58285
2.55994
2.5367
2.51318
2.48945
2.46561
2.44171
2.41775
2.39375
2.36971
2.34569
2.32174
2.29791
2.27429
2.25096
2.22807
2.20581
2.18445
2.164
2.14464
0.0188131
0.0450607
0.0588244
0.0686673
0.0769659
0.0845633
0.0918655
0.0990944
0.106374
0.113769
0.121308
0.128999
0.136839
0.144823
0.152947
0.161209
0.169615
0.178174
0.186897
0.195804
0.204915
0.214254
0.223851
0.233737
0.243946
0.254516
0.265486
0.276898
0.288791
0.301202
0.314166
0.327713
0.341866
0.356642
0.372052
0.3881
0.404784
0.4221
0.440042
0.458598
0.477755
0.497501
0.517821
0.5387
0.560129
0.582105
0.60463
0.627707
0.651343
0.675543
0.70031
0.725648
0.75156
0.77805
0.80512
0.832771
0.861005
0.889822
0.919223
0.949205
0.979767
1.01091
1.04262
1.0749
1.10774
1.14114
1.17508
1.20955
1.24454
1.28005
1.31604
1.35251
1.38944
1.4268
1.46458
1.50275
1.54129
1.58017
1.61936
1.65884
1.69858
1.73855
1.77871
1.81904
1.8595
1.90006
1.9407
1.98137
2.02204
2.06269
2.10328
2.14377
2.18413
2.22434
2.26435
2.30413
2.34365
2.38283
2.42155
2.4598
2.49757
2.53481
2.57149
2.60757
2.643
2.67773
2.71173
2.74494
2.77733
2.80886
2.83947
2.86913
2.89781
2.92546
2.95204
2.97752
3.00188
3.02507
3.04706
3.06783
3.08736
3.10561
3.12258
3.13823
3.15256
3.16554
3.17718
3.18745
3.19635
3.20387
3.21001
3.21477
3.21816
3.22018
3.22083
3.22013
3.21809
3.21471
3.21003
3.20405
3.1968
3.18831
3.17859
3.16768
3.1556
3.14238
3.12806
3.11268
3.09626
3.07884
3.06049
3.04122
3.02101
3.00006
2.97833
2.95586
2.93275
2.909
2.88468
2.85984
2.83453
2.80879
2.78268
2.75626
2.72959
2.70275
2.67581
2.64878
2.6217
2.59461
2.56755
2.54059
2.51381
2.48731
2.46122
2.43573
2.41105
2.3875
2.36509
2.34394
0.0216674
0.0501525
0.0650296
0.0756236
0.0844763
0.0924911
0.100107
0.107569
0.115024
0.122558
0.130221
0.138035
0.146014
0.154161
0.162481
0.17098
0.179665
0.188549
0.197649
0.206985
0.216581
0.226463
0.236661
0.247207
0.258136
0.269482
0.281281
0.29357
0.306382
0.319748
0.333695
0.348246
0.36342
0.379229
0.395682
0.412783
0.430531
0.448925
0.46796
0.48763
0.507927
0.528847
0.55038
0.572523
0.59527
0.618621
0.642579
0.667149
0.692337
0.718148
0.744591
0.771669
0.799391
0.82776
0.856782
0.88646
0.9168
0.947802
0.97947
1.0118
1.0448
1.07846
1.11279
1.14777
1.1834
1.21968
1.25659
1.29412
1.33227
1.37101
1.41033
1.45021
1.49063
1.53157
1.573
1.6149
1.65724
1.69999
1.74311
1.78658
1.83036
1.87442
1.91872
1.96322
2.00789
2.05269
2.09758
2.14253
2.18749
2.23243
2.27731
2.32209
2.36673
2.4112
2.45545
2.49945
2.54316
2.5864
2.62915
2.67139
2.71308
2.75418
2.79465
2.83443
2.87348
2.91175
2.94919
2.98575
3.02139
3.05604
3.08968
3.12225
3.15371
3.18402
3.21313
3.24102
3.26764
3.29296
3.31695
3.33957
3.36079
3.3806
3.39897
3.41589
3.43132
3.44527
3.45772
3.46865
3.47806
3.48594
3.4923
3.49713
3.50044
3.50224
3.50253
3.50133
3.49865
3.49451
3.48892
3.48191
3.4735
3.46373
3.45262
3.4402
3.42649
3.41154
3.3954
3.3781
3.35965
3.3401
3.31957
3.29805
3.27557
3.25223
3.22806
3.2031
3.17742
3.15107
3.12409
3.09654
3.06848
3.03996
3.01104
2.98176
2.95221
2.92244
2.89253
2.86252
2.83245
2.80237
2.77235
2.74248
2.71283
2.68354
2.65475
2.62668
2.59957
2.57372
2.54912
2.52581
0.0240298
0.0543173
0.0700987
0.0813133
0.0906299
0.0989971
0.106877
0.114532
0.122126
0.129762
0.137503
0.145391
0.15345
0.161695
0.170138
0.178792
0.187669
0.196785
0.20616
0.215815
0.225775
0.236068
0.246722
0.25777
0.269242
0.281172
0.293592
0.306531
0.320021
0.334086
0.34875
0.364032
0.379947
0.396509
0.413724
0.431599
0.450137
0.469337
0.489201
0.509727
0.530913
0.552758
0.575262
0.598425
0.622247
0.646731
0.671884
0.697712
0.724222
0.751424
0.779326
0.807937
0.837266
0.867322
0.898111
0.929641
0.961918
0.994946
1.02873
1.06328
1.09858
1.13465
1.17147
1.20905
1.24738
1.28646
1.32627
1.3668
1.40804
1.44998
1.49259
1.53586
1.57976
1.62426
1.66935
1.71498
1.76113
1.80777
1.85484
1.90233
1.95019
1.99837
2.04684
2.09556
2.14447
2.19355
2.24274
2.292
2.34128
2.39055
2.43976
2.48886
2.53782
2.58658
2.6351
2.68333
2.73118
2.77851
2.82529
2.87151
2.91711
2.96205
3.00627
3.04974
3.09238
3.13414
3.17498
3.21483
3.25365
3.29137
3.32796
3.36337
3.39754
3.43043
3.462
3.4922
3.521
3.54836
3.57424
3.59862
3.62145
3.64272
3.6624
3.68047
3.69692
3.71174
3.7249
3.7364
3.74623
3.75438
3.76087
3.76568
3.76883
3.77033
3.77018
3.7684
3.76502
3.76004
3.75349
3.7454
3.73578
3.72468
3.71213
3.69817
3.68282
3.66609
3.64811
3.62888
3.60844
3.58684
3.56414
3.54039
3.51564
3.48994
3.46335
3.43592
3.40771
3.37878
3.34918
3.31897
3.2882
3.25694
3.22524
3.19316
3.16077
3.12814
3.09533
3.06241
3.02942
2.99644
2.96354
2.9308
2.89835
2.86632
2.83488
2.80424
2.77466
2.74641
2.71943
2.69375
0.0259022
0.0575989
0.0740818
0.0857833
0.0954668
0.104114
0.112202
0.120007
0.127703
0.135403
0.143187
0.151107
0.159198
0.167485
0.17599
0.18473
0.193722
0.202986
0.212542
0.222414
0.232626
0.243206
0.254182
0.265583
0.277438
0.289778
0.30263
0.316022
0.32998
0.344528
0.359685
0.375469
0.391897
0.40898
0.426728
0.44515
0.464251
0.484038
0.504513
0.525682
0.547547
0.570114
0.593385
0.617367
0.642065
0.667487
0.693641
0.720539
0.748189
0.776606
0.805799
0.835781
0.866565
0.898161
0.93058
0.963832
0.997926
1.03287
1.06867
1.10533
1.14286
1.18125
1.22051
1.26064
1.30162
1.34346
1.38614
1.42965
1.47398
1.5191
1.56501
1.61167
1.65906
1.70715
1.75591
1.80531
1.8553
1.90585
1.95692
2.00846
2.06043
2.11278
2.16546
2.21843
2.27162
2.325
2.37852
2.43211
2.48574
2.53936
2.59291
2.64634
2.69961
2.75266
2.80544
2.8579
2.90984
2.96121
3.01199
3.06213
3.11159
3.16031
3.20823
3.2553
3.30145
3.34662
3.39076
3.43381
3.47571
3.5164
3.55583
3.59395
3.63071
3.66606
3.69995
3.73235
3.7632
3.79248
3.82013
3.84613
3.87044
3.89304
3.9139
3.93301
3.95035
3.96591
3.97967
3.99162
4.00176
4.01008
4.01659
4.02128
4.02418
4.02529
4.02462
4.0222
4.01803
4.01215
4.00459
3.99535
3.98447
3.972
3.95799
3.94247
3.92547
3.90703
3.88722
3.86609
3.84366
3.82001
3.79518
3.76924
3.74223
3.71421
3.68524
3.65538
3.6247
3.59324
3.56107
3.52825
3.49483
3.46089
3.42648
3.39167
3.35652
3.32109
3.28547
3.24972
3.2139
3.1781
3.14239
3.10689
3.0717
3.03698
3.00292
2.96974
2.93766
2.90694
2.87746
2.84929
0.0272995
0.0600545
0.077049
0.0891069
0.0990591
0.10791
0.116147
0.124054
0.13181
0.139541
0.147332
0.155246
0.163329
0.171613
0.180126
0.188892
0.197931
0.207266
0.216919
0.226914
0.237275
0.248029
0.259202
0.270821
0.282913
0.295506
0.308626
0.322297
0.336544
0.351387
0.366848
0.382944
0.399691
0.417104
0.435195
0.453975
0.473455
0.493645
0.514554
0.536189
0.558562
0.581679
0.605553
0.630191
0.655607
0.681811
0.708817
0.736639
0.765292
0.79479
0.82515
0.856387
0.888517
0.921553
0.955511
0.990404
1.02624
1.06304
1.1008
1.13953
1.17925
1.21994
1.26161
1.30427
1.3479
1.39249
1.43805
1.48455
1.53198
1.58032
1.62954
1.67963
1.73054
1.78225
1.83473
1.88792
1.94179
1.9963
2.05139
2.10701
2.16312
2.21966
2.27656
2.33379
2.39127
2.44895
2.50678
2.56469
2.62265
2.68058
2.73843
2.79615
2.85368
2.91097
2.96796
3.02449
3.08043
3.13575
3.19041
3.24437
3.29756
3.34993
3.40141
3.45194
3.50145
3.54988
3.59716
3.64323
3.68803
3.73151
3.7736
3.81426
3.85342
3.89104
3.92708
3.96148
3.99421
4.02521
4.05446
4.0819
4.10751
4.13126
4.15314
4.17312
4.19119
4.20734
4.22155
4.23382
4.24413
4.25249
4.2589
4.26336
4.2659
4.26653
4.26525
4.26208
4.25706
4.25022
4.24158
4.23117
4.21902
4.20519
4.18972
4.17264
4.154
4.13385
4.11224
4.08922
4.06485
4.03918
4.01228
3.98419
3.95497
3.9247
3.89342
3.86121
3.82812
3.79422
3.75956
3.72422
3.68826
3.65173
3.61471
3.57726
3.53944
3.50133
3.46301
3.42454
3.38601
3.34749
3.30908
3.27089
3.23306
3.19574
3.15912
3.12342
3.08885
3.05563
3.02362
2.9929
0.0282512
0.0617553
0.0790878
0.0913799
0.101506
0.110484
0.118808
0.126765
0.134541
0.142264
0.150028
0.157903
0.16594
0.174179
0.182654
0.191393
0.200419
0.209757
0.21943
0.229462
0.239878
0.250701
0.261958
0.273674
0.285874
0.298583
0.311826
0.325627
0.340008
0.354991
0.370598
0.386846
0.403754
0.421339
0.439617
0.458604
0.478313
0.498761
0.519959
0.541924
0.564669
0.588209
0.612559
0.637735
0.663754
0.690631
0.718386
0.747037
0.776602
0.807102
0.838556
0.870984
0.904404
0.938836
0.974297
1.0108
1.04837
1.08701
1.12673
1.16754
1.20945
1.25247
1.29659
1.3418
1.38812
1.43552
1.484
1.53354
1.58412
1.63572
1.68831
1.74187
1.79635
1.85172
1.90794
1.96497
2.02274
2.08122
2.14035
2.20006
2.2603
2.32101
2.38212
2.44357
2.50528
2.56721
2.62928
2.69144
2.75362
2.81576
2.8778
2.93969
3.00135
3.06274
3.12374
3.18414
3.2439
3.30297
3.36132
3.41888
3.47558
3.53137
3.58619
3.63994
3.69256
3.74398
3.79414
3.84298
3.89042
3.93641
3.9809
4.02382
4.06512
4.10475
4.14266
4.1788
4.21314
4.24564
4.27623
4.30488
4.33155
4.35623
4.37891
4.39955
4.41814
4.43468
4.44916
4.46158
4.47191
4.48014
4.4863
4.49041
4.49247
4.4925
4.49052
4.48655
4.48063
4.47278
4.46303
4.45142
4.43799
4.42279
4.40586
4.38724
4.36699
4.34515
4.32178
4.29694
4.27068
4.24307
4.21416
4.18401
4.15268
4.12025
4.08677
4.05231
4.01693
3.9807
3.94368
3.90595
3.86756
3.82859
3.78909
3.74914
3.7088
3.66815
3.62727
3.58623
3.54512
3.50403
3.46306
3.42233
3.38197
3.34215
3.30306
3.2649
3.22789
3.1922
3.15767
3.12444
0.0287991
0.0627836
0.0802995
0.0927144
0.102924
0.111956
0.120305
0.128261
0.136012
0.143689
0.151392
0.159193
0.167149
0.175307
0.183701
0.192364
0.201323
0.210602
0.220226
0.230219
0.240604
0.251405
0.262646
0.274352
0.286547
0.299255
0.3125
0.326306
0.340695
0.355691
0.371315
0.387589
0.404534
0.422171
0.440518
0.459597
0.479427
0.500027
0.521417
0.543618
0.566649
0.590532
0.615286
0.640934
0.667497
0.694997
0.723459
0.752905
0.78336
0.814848
0.847392
0.881017
0.915745
0.951599
0.988598
1.02676
1.06611
1.10666
1.14841
1.19139
1.23558
1.28101
1.32766
1.37553
1.42462
1.47492
1.52642
1.57908
1.6329
1.68784
1.74387
1.80095
1.85905
1.91813
1.97812
2.03899
2.10067
2.16311
2.22624
2.29
2.35432
2.41913
2.48435
2.54991
2.61573
2.68176
2.74791
2.81413
2.88035
2.94651
3.01253
3.07835
3.14392
3.20915
3.27378
3.33775
3.40102
3.46353
3.52523
3.58604
3.64591
3.70478
3.76256
3.81918
3.87455
3.92859
3.98126
4.03247
4.08218
4.13031
4.17682
4.22163
4.2647
4.30598
4.34541
4.38295
4.41856
4.45224
4.48386
4.51339
4.54083
4.56615
4.58934
4.61038
4.62925
4.64595
4.66047
4.67281
4.68295
4.69091
4.69668
4.7003
4.70176
4.7011
4.69834
4.69349
4.6866
4.6777
4.66682
4.654
4.63929
4.62272
4.60435
4.58423
4.56241
4.53895
4.51389
4.48731
4.45926
4.4298
4.39899
4.36691
4.3336
4.29915
4.26361
4.22705
4.18954
4.15115
4.11194
4.07199
4.03135
3.9901
3.94831
3.90604
3.86337
3.82037
3.77712
3.7337
3.6902
3.64672
3.60335
3.56024
3.51751
3.47534
3.4339
3.39341
3.35405
3.31596
3.279
3.24332
0.0289948
0.0632302
0.0807943
0.0932328
0.103446
0.112461
0.120776
0.128679
0.13636
0.143953
0.151558
0.159252
0.167095
0.175135
0.18341
0.191955
0.200797
0.209962
0.219476
0.229362
0.239643
0.250343
0.261484
0.273092
0.28519
0.297802
0.310953
0.324667
0.338969
0.353883
0.369434
0.385647
0.402546
0.420156
0.438502
0.457608
0.4775
0.498204
0.519746
0.542151
0.565447
0.58966
0.614818
0.640949
0.668079
0.696236
0.725451
0.75575
0.787165
0.819722
0.853451
0.888379
0.924532
0.961935
1.00061
1.04059
1.08187
1.12449
1.16845
1.21376
1.26042
1.30842
1.35778
1.40848
1.46051
1.51385
1.5685
1.62442
1.68158
1.73995
1.7995
1.86018
1.92194
1.98473
2.0485
2.11318
2.17872
2.24504
2.31208
2.37976
2.44802
2.51677
2.58591
2.65536
2.72504
2.7949
2.86485
2.93483
3.00476
3.07458
3.14423
3.21363
3.28272
3.3512
3.41902
3.48612
3.55243
3.6179
3.68246
3.74603
3.80856
3.86998
3.93025
3.98924
4.04683
4.10298
4.15763
4.21072
4.26218
4.31196
4.35999
4.40621
4.45058
4.49303
4.53353
4.57202
4.60847
4.64285
4.67507
4.70513
4.73298
4.75861
4.78201
4.80315
4.82202
4.83862
4.85294
4.86499
4.87475
4.88223
4.88746
4.89043
4.89118
4.88972
4.88608
4.88029
4.87239
4.8624
4.85037
4.83633
4.82034
4.80244
4.78269
4.76113
4.73782
4.71282
4.68619
4.65798
4.62827
4.5971
4.56456
4.5307
4.49558
4.45929
4.42188
4.38343
4.344
4.30365
4.26247
4.22052
4.17787
4.13458
4.09073
4.04638
4.0016
3.95648
3.9111
3.86553
3.81988
3.77423
3.7287
3.68341
3.63852
3.59418
3.55057
3.5079
3.46632
3.42599
3.38672
3.34872
0.0288983
0.0631905
0.0806865
0.0930619
0.103205
0.11214
0.120364
0.128165
0.135733
0.143203
0.150676
0.158231
0.165928
0.173817
0.181938
0.190326
0.199009
0.208015
0.217367
0.227091
0.237209
0.247745
0.258723
0.270167
0.282102
0.294554
0.307547
0.32111
0.335269
0.350052
0.365487
0.381604
0.398431
0.415998
0.434336
0.453475
0.473448
0.494286
0.516024
0.538694
0.562331
0.586969
0.612642
0.639384
0.667226
0.696203
0.726348
0.757695
0.79028
0.824133
0.859287
0.895773
0.933618
0.972848
1.01349
1.05556
1.09908
1.14408
1.19055
1.2385
1.28791
1.33879
1.39111
1.44488
1.50008
1.55668
1.61466
1.67399
1.73463
1.79654
1.85967
1.92397
1.98939
2.05586
2.12332
2.1917
2.26093
2.33094
2.40166
2.473
2.54493
2.61732
2.69001
2.76296
2.83609
2.90933
2.9826
3.05584
3.12897
3.20194
3.27468
3.34707
3.41886
3.48997
3.56034
3.6299
3.69859
3.76634
3.83307
3.89872
3.96321
4.02647
4.08845
4.14904
4.20817
4.26575
4.32173
4.37604
4.42863
4.47943
4.52837
4.57542
4.62051
4.66359
4.70461
4.74354
4.78033
4.81494
4.84733
4.87746
4.90531
4.93086
4.95409
4.97499
4.99355
5.00976
5.02361
5.03512
5.04427
5.05109
5.05559
5.05777
5.05767
5.05531
5.05071
5.04391
5.03494
5.02385
5.01067
4.99544
4.97822
4.95905
4.93799
4.91509
4.8904
4.864
4.83593
4.80626
4.77506
4.74238
4.7083
4.67288
4.63619
4.59829
4.55926
4.51916
4.47807
4.43605
4.39316
4.34949
4.3051
4.26006
4.21443
4.16829
4.12171
4.07477
4.02754
3.98011
3.93258
3.88505
3.83762
3.79043
3.74361
3.69734
3.65179
3.60713
3.56354
3.52115
3.47976
3.43963
0.0285763
0.0627614
0.0800901
0.0923272
0.102336
0.111134
0.119215
0.126868
0.134282
0.141593
0.148902
0.156287
0.163809
0.171519
0.179456
0.187656
0.196147
0.204958
0.214112
0.223636
0.233554
0.243889
0.254667
0.265915
0.27766
0.289929
0.302751
0.316157
0.330178
0.344847
0.360197
0.376264
0.393082
0.410687
0.429116
0.448408
0.4686
0.489736
0.511855
0.535001
0.559216
0.584545
0.611029
0.638708
0.66761
0.697776
0.729245
0.762057
0.796247
0.83185
0.8689
0.907426
0.947455
0.989011
1.03211
1.07678
1.12303
1.17088
1.22034
1.27143
1.32404
1.37817
1.43383
1.491
1.54964
1.60974
1.67125
1.73413
1.79833
1.86381
1.9305
1.99835
2.06729
2.13725
2.20816
2.27994
2.35253
2.42583
2.49976
2.57425
2.64921
2.72455
2.80015
2.87593
2.95182
3.02773
3.1036
3.17935
3.25492
3.33027
3.40519
3.4795
3.55312
3.62598
3.69802
3.76915
3.83931
3.90843
3.97643
4.04324
4.1088
4.17303
4.23586
4.29722
4.35702
4.4152
4.4717
4.52644
4.57937
4.63044
4.67957
4.72673
4.77185
4.8149
4.85582
4.89457
4.93112
4.96542
4.99745
5.02717
5.05455
5.07958
5.10224
5.12252
5.1404
5.1559
5.169
5.1797
5.18802
5.19397
5.19755
5.1988
5.19773
5.19437
5.18874
5.18089
5.17085
5.15866
5.14435
5.12799
5.10961
5.08927
5.06703
5.04293
5.01703
4.9894
4.9601
4.92918
4.89672
4.86277
4.82741
4.79071
4.75272
4.71351
4.67317
4.63174
4.58931
4.54593
4.50169
4.45664
4.41086
4.36441
4.31736
4.26978
4.22174
4.17332
4.12459
4.07565
4.02659
3.9775
3.9285
3.87971
3.83128
3.78336
3.73614
3.68977
3.64442
3.6002
3.55695
3.51491
0.028078
0.0620124
0.0790833
0.0911123
0.100925
0.109529
0.117417
0.124875
0.132094
0.139208
0.146319
0.153503
0.160822
0.168325
0.176052
0.184038
0.192313
0.200906
0.209844
0.219153
0.22886
0.238993
0.249579
0.26065
0.272236
0.284371
0.297089
0.310425
0.324417
0.339107
0.354535
0.370747
0.387788
0.4057
0.424523
0.444308
0.465103
0.48696
0.509931
0.534067
0.559423
0.586055
0.614027
0.643382
0.674102
0.706245
0.73986
0.774985
0.811657
0.849905
0.889758
0.931236
0.974358
1.01914
1.06558
1.1137
1.16349
1.21495
1.26807
1.32282
1.37917
1.43708
1.49652
1.55746
1.61986
1.68367
1.74885
1.81533
1.88307
1.952
2.02206
2.09318
2.16528
2.2383
2.31215
2.38676
2.46205
2.53793
2.61432
2.69113
2.76828
2.84569
2.92324
3.00088
3.0785
3.15606
3.23346
3.31067
3.38757
3.46393
3.53966
3.61468
3.68893
3.76234
3.83482
3.90631
3.97673
4.04602
4.11411
4.18093
4.2464
4.31047
4.37305
4.4341
4.49352
4.55126
4.60726
4.66145
4.71377
4.76418
4.81262
4.85903
4.90336
4.94558
4.98564
5.0235
5.05913
5.09248
5.12353
5.15225
5.17862
5.20262
5.22423
5.24345
5.26027
5.27468
5.28669
5.2963
5.30352
5.30837
5.31085
5.31099
5.30882
5.30435
5.29763
5.28869
5.27756
5.26428
5.24891
5.23148
5.21204
5.19065
5.16736
5.14223
5.11531
5.08666
5.05635
5.02443
4.99097
4.95604
4.9197
4.88201
4.84304
4.80287
4.76154
4.71914
4.67573
4.63138
4.58614
4.54009
4.4933
4.44583
4.39774
4.34911
4.3
4.25049
4.20065
4.15058
4.10035
4.05007
3.99985
3.94981
3.9001
3.85086
3.80227
3.75448
3.70765
3.66189
3.61704
3.57338
0.0275674
0.0611424
0.077888
0.0896535
0.0992212
0.107589
0.115247
0.12248
0.129479
0.136378
0.143277
0.150251
0.157362
0.164659
0.172182
0.179967
0.188049
0.196457
0.205223
0.214378
0.223953
0.233983
0.244503
0.255549
0.267162
0.279385
0.292263
0.305838
0.320156
0.335272
0.351243
0.368133
0.386016
0.404923
0.424887
0.445981
0.468269
0.491813
0.516674
0.54291
0.570578
0.599733
0.630425
0.662691
0.696556
0.73205
0.769203
0.80804
0.84858
0.890836
0.934815
0.980517
1.02794
1.07707
1.1279
1.1804
1.23456
1.29034
1.34772
1.40664
1.46707
1.52896
1.59225
1.6569
1.72285
1.79005
1.85844
1.92796
1.99854
2.07012