/*--------------------------------*- C++ -*----------------------------------*\
  =========                 |
  \\      /  F ield         | OpenFOAM: The Open Source CFD Toolbox
   \\    /   O peration     | Website:  https://openfoam.org
    \\  /    A nd           | Version:  9
     \\/     M anipulation  |
\*---------------------------------------------------------------------------*/
FoamFile
{
    format      ascii;
    class       surfaceScalarField;
    location    "0.18";
    object      phi;
}
// * * * * * * * * * * * * * * * * * * * * * * * * * * * * * * * * * * * * * //

dimensions      [0 3 -1 0 0 0 0];

internalField   nonuniform List<scalar> 
24170
(
3.1336e-06
5.48072e-08
3.04827e-06
8.53288e-08
2.97314e-06
7.51275e-08
2.9043e-06
6.88412e-08
2.83947e-06
6.4836e-08
2.78224e-06
5.72299e-08
2.73333e-06
4.89099e-08
2.69179e-06
4.15366e-08
2.65633e-06
3.54541e-08
2.62579e-06
3.05398e-08
2.5992e-06
2.65947e-08
2.57575e-06
2.34551e-08
2.55474e-06
2.10029e-08
2.53552e-06
1.92262e-08
2.51742e-06
1.80954e-08
2.49866e-06
1.87558e-08
2.47798e-06
2.06866e-08
3.80921e-08
2.43989e-06
3.45361e-06
1.84453e-08
3.45616e-06
8.27762e-08
3.44962e-06
8.16736e-08
3.43799e-06
8.04648e-08
3.4235e-06
7.93277e-08
3.40596e-06
7.47752e-08
3.38632e-06
6.85452e-08
3.36541e-06
6.24476e-08
3.34399e-06
5.687e-08
3.32268e-06
5.1855e-08
3.30186e-06
4.74107e-08
3.28177e-06
4.35474e-08
3.26252e-06
4.02588e-08
3.24408e-06
3.7657e-08
3.22652e-06
3.56562e-08
3.20967e-06
3.56075e-08
3.19443e-06
3.5928e-08
4.62785e-08
3.18624e-06
3.66535e-06
1.5609e-08
3.67825e-06
6.98781e-08
3.68531e-06
7.46144e-08
3.68959e-06
7.61855e-08
3.69126e-06
7.76576e-08
3.69012e-06
7.59118e-08
3.68667e-06
7.20027e-08
3.68146e-06
6.76505e-08
3.67494e-06
6.33921e-08
3.66745e-06
5.93469e-08
3.65927e-06
5.55917e-08
3.65061e-06
5.22057e-08
3.64162e-06
4.92448e-08
3.63242e-06
4.68607e-08
3.623e-06
4.50797e-08
3.61379e-06
4.48169e-08
3.60445e-06
4.5265e-08
4.99948e-08
3.60073e-06
3.92465e-06
1.63488e-08
3.9358e-06
5.87276e-08
3.94254e-06
6.78725e-08
3.94801e-06
7.07123e-08
3.95242e-06
7.32496e-08
3.95534e-06
7.29965e-08
3.95688e-06
7.04559e-08
3.95736e-06
6.71754e-08
3.95695e-06
6.38006e-08
3.95581e-06
6.04911e-08
3.95406e-06
5.73412e-08
3.95181e-06
5.44525e-08
3.94915e-06
5.1909e-08
3.94615e-06
4.98563e-08
3.94286e-06
4.83743e-08
3.9397e-06
4.79726e-08
3.93669e-06
4.8278e-08
5.02574e-08
3.93642e-06
4.20777e-06
1.5709e-08
4.216e-06
5.0497e-08
4.22166e-06
6.22106e-08
4.22659e-06
6.5783e-08
4.23128e-06
6.85543e-08
4.23524e-06
6.90444e-08
4.23833e-06
6.73662e-08
4.24069e-06
6.48128e-08
4.24243e-06
6.20551e-08
4.24365e-06
5.92775e-08
4.24441e-06
5.65817e-08
4.24478e-06
5.40777e-08
4.24483e-06
5.18608e-08
4.24463e-06
5.0055e-08
4.24426e-06
4.87407e-08
4.24407e-06
4.8167e-08
4.24424e-06
4.81123e-08
4.86208e-08
4.24587e-06
4.51044e-06
1.43567e-08
4.51686e-06
4.40757e-08
4.52217e-06
5.69013e-08
4.52683e-06
6.11264e-08
4.53144e-06
6.39449e-08
4.53562e-06
6.48582e-08
4.5392e-06
6.37881e-08
4.54224e-06
6.17759e-08
4.54481e-06
5.94787e-08
4.54699e-06
5.71044e-08
4.54881e-06
5.47603e-08
4.55033e-06
5.2557e-08
4.5516e-06
5.05892e-08
4.5527e-06
4.89542e-08
4.55373e-06
4.771e-08
4.55495e-06
4.69518e-08
4.55656e-06
4.65006e-08
4.61203e-08
4.55906e-06
4.83412e-06
1.29563e-08
4.83958e-06
3.86178e-08
4.84483e-06
5.16516e-08
4.84942e-06
5.65391e-08
4.85392e-06
5.9439e-08
4.85814e-06
6.06343e-08
4.8619e-06
6.0029e-08
4.86523e-06
5.84486e-08
4.86819e-06
5.65174e-08
4.87083e-06
5.44651e-08
4.87319e-06
5.24045e-08
4.8753e-06
5.04415e-08
4.87723e-06
4.86635e-08
4.87904e-06
4.71425e-08
4.88084e-06
4.59095e-08
4.88282e-06
4.49744e-08
4.88514e-06
4.41761e-08
4.32484e-08
4.88801e-06
5.1809e-06
1.1637e-08
5.1857e-06
3.38144e-08
5.19084e-06
4.65195e-08
5.19541e-06
5.19632e-08
5.19987e-06
5.49795e-08
5.20413e-06
5.63793e-08
5.208e-06
5.61516e-08
5.21151e-06
5.49411e-08
5.21471e-06
5.33223e-08
5.21763e-06
5.15426e-08
5.22031e-06
4.97202e-08
5.2228e-06
4.79543e-08
5.22514e-06
4.63228e-08
5.22741e-06
4.48767e-08
5.22969e-06
4.3625e-08
5.23213e-06
4.25363e-08
5.23483e-06
4.14705e-08
4.0212e-08
5.23787e-06
5.5526e-06
1.03742e-08
5.55685e-06
2.95659e-08
5.56176e-06
4.16042e-08
5.56633e-06
4.73992e-08
5.57078e-06
5.05269e-08
5.57508e-06
5.20767e-08
5.57907e-06
5.21614e-08
5.58274e-06
5.12792e-08
5.58612e-06
4.99406e-08
5.58926e-06
4.84023e-08
5.59219e-06
4.6788e-08
5.59495e-06
4.51899e-08
5.5976e-06
4.36759e-08
5.6002e-06
4.22821e-08
5.60282e-06
4.10041e-08
5.60556e-06
3.97964e-08
5.60848e-06
3.8545e-08
3.70999e-08
5.61159e-06
5.95099e-06
9.16485e-09
5.95476e-06
2.57953e-08
5.95941e-06
3.6951e-08
5.96394e-06
4.28681e-08
5.96839e-06
4.60739e-08
5.97274e-06
4.77277e-08
5.97684e-06
4.80629e-08
5.98065e-06
4.74693e-08
5.98421e-06
4.63849e-08
5.98754e-06
4.50653e-08
5.99069e-06
4.36378e-08
5.9937e-06
4.2188e-08
5.9966e-06
4.07749e-08
5.99945e-06
3.94252e-08
6.00233e-06
3.81294e-08
6.00528e-06
3.68432e-08
6.00835e-06
3.54808e-08
3.39499e-08
6.0115e-06
6.37795e-06
8.02232e-09
6.38132e-06
2.24251e-08
6.38571e-06
3.25685e-08
6.39018e-06
3.83945e-08
6.39463e-06
4.1626e-08
6.39901e-06
4.33423e-08
6.40321e-06
4.38661e-08
6.40716e-06
4.35167e-08
6.41089e-06
4.26601e-08
6.41441e-06
4.15389e-08
6.41777e-06
4.02814e-08
6.42099e-06
3.8967e-08
6.42412e-06
3.76473e-08
6.4272e-06
3.63444e-08
6.43028e-06
3.50494e-08
6.4334e-06
3.37273e-08
6.43656e-06
3.23186e-08
3.07745e-08
6.43973e-06
5.74175e-06
7.10819e-09
5.74433e-06
1.98418e-08
5.74783e-06
2.90711e-08
5.75155e-06
3.4672e-08
5.7553e-06
3.78745e-08
5.75903e-06
3.9615e-08
5.76264e-06
4.02523e-08
5.76609e-06
4.00717e-08
5.76936e-06
3.93854e-08
5.77249e-06
3.84171e-08
5.77548e-06
3.72919e-08
5.77836e-06
3.6085e-08
5.78116e-06
3.48434e-08
5.78392e-06
3.35874e-08
5.78666e-06
3.23115e-08
5.78939e-06
3.09908e-08
5.79213e-06
2.95843e-08
2.80717e-08
5.79483e-06
6.99913e-06
6.13131e-09
7.00186e-06
1.71097e-08
7.00565e-06
2.52868e-08
7.00981e-06
3.05098e-08
7.01409e-06
3.36002e-08
7.01838e-06
3.53227e-08
7.02259e-06
3.60433e-08
7.02664e-06
3.60152e-08
7.03053e-06
3.54963e-08
7.03426e-06
3.46848e-08
7.03786e-06
3.36994e-08
7.04133e-06
3.26101e-08
7.04472e-06
3.14601e-08
7.04803e-06
3.02693e-08
7.05131e-06
2.90378e-08
7.05455e-06
2.7752e-08
7.05774e-06
2.63884e-08
2.49482e-08
7.06087e-06
8.53188e-06
5.10086e-09
8.53473e-06
1.4255e-08
8.53878e-06
2.12423e-08
8.54337e-06
2.59137e-08
8.54819e-06
2.878e-08
8.55309e-06
3.04215e-08
8.55796e-06
3.11778e-08
8.5627e-06
3.12705e-08
8.5673e-06
3.09052e-08
8.57173e-06
3.02487e-08
8.57602e-06
2.94082e-08
8.58018e-06
2.84484e-08
8.58424e-06
2.74083e-08
8.5882e-06
2.63091e-08
8.59208e-06
2.51567e-08
8.59588e-06
2.39484e-08
8.59959e-06
2.26749e-08
2.1352e-08
8.60319e-06
1.04003e-05
4.02736e-09
1.04033e-05
1.12952e-08
1.04075e-05
1.69559e-08
1.04126e-05
2.08896e-08
1.0418e-05
2.33917e-08
1.04235e-05
2.48652e-08
1.04291e-05
2.55919e-08
1.04346e-05
2.57574e-08
1.044e-05
2.55195e-08
1.04452e-05
2.50092e-08
1.04503e-05
2.43173e-08
1.04553e-05
2.35008e-08
1.04601e-05
2.2595e-08
1.04648e-05
2.16214e-08
1.04693e-05
2.05912e-08
1.04738e-05
1.95099e-08
1.04781e-05
1.8378e-08
1.72193e-08
1.04822e-05
1.26779e-05
2.91632e-09
1.2681e-05
8.22172e-09
1.26855e-05
1.24189e-08
1.2691e-05
1.54256e-08
1.2697e-05
1.74e-08
1.27032e-05
1.85931e-08
1.27096e-05
1.92078e-08
1.2716e-05
1.9385e-08
1.27223e-05
1.92373e-08
1.27284e-05
1.88586e-08
1.27344e-05
1.83182e-08
1.27403e-05
1.76622e-08
1.27459e-05
1.69206e-08
1.27514e-05
1.61136e-08
1.27568e-05
1.52545e-08
1.27619e-05
1.43536e-08
1.27669e-05
1.34164e-08
1.2469e-08
1.27717e-05
1.54543e-05
1.75654e-09
1.54576e-05
4.98335e-09
1.54624e-05
7.56349e-09
1.54684e-05
9.45084e-09
1.54751e-05
1.07201e-08
1.54822e-05
1.15012e-08
1.54895e-05
1.19097e-08
1.54968e-05
1.20307e-08
1.55041e-05
1.19315e-08
1.55113e-05
1.16685e-08
1.55184e-05
1.1285e-08
1.55252e-05
1.08116e-08
1.55319e-05
1.027e-08
1.55383e-05
9.67567e-09
1.55445e-05
9.04068e-09
1.55505e-05
8.37532e-09
1.55562e-05
7.68625e-09
6.99752e-09
1.55617e-05
1.88389e-05
5.06384e-10
1.88424e-05
1.44853e-09
1.88478e-05
2.20281e-09
1.88545e-05
2.75907e-09
1.88621e-05
3.1393e-09
1.88702e-05
3.37308e-09
1.88786e-05
3.48301e-09
1.88872e-05
3.48783e-09
1.88957e-05
3.40575e-09
1.89041e-05
3.25303e-09
1.89123e-05
3.04266e-09
1.89204e-05
2.78486e-09
1.89281e-05
2.48808e-09
1.89357e-05
2.1597e-09
1.89429e-05
1.80632e-09
1.89498e-05
1.43465e-09
1.89565e-05
1.04914e-09
6.6881e-10
1.89628e-05
2.29648e-05
-9.41354e-10
2.29689e-05
-2.68478e-09
2.29752e-05
-4.10101e-09
2.29831e-05
-5.14697e-09
2.29921e-05
-5.83921e-09
2.30017e-05
-6.26429e-09
2.30117e-05
-6.51546e-09
2.30219e-05
-6.6514e-09
2.3032e-05
-6.70886e-09
2.3042e-05
-6.71909e-09
2.30517e-05
-6.70733e-09
2.30612e-05
-6.68969e-09
2.30704e-05
-6.67496e-09
2.30792e-05
-6.66771e-09
2.30877e-05
-6.66998e-09
2.30958e-05
-6.68145e-09
2.31035e-05
-6.70199e-09
-6.7194e-09
2.31109e-05
1.68119e-05
-2.08721e-09
1.68151e-05
-5.92069e-09
1.682e-05
-9.031e-09
1.68261e-05
-1.12737e-08
1.6833e-05
-1.26974e-08
1.68403e-05
-1.35361e-08
1.68478e-05
-1.39938e-08
1.68553e-05
-1.41786e-08
1.68627e-05
-1.41655e-08
1.687e-05
-1.40251e-08
1.68771e-05
-1.38122e-08
1.6884e-05
-1.35612e-08
1.68906e-05
-1.32926e-08
1.6897e-05
-1.30197e-08
1.69031e-05
-1.27506e-08
1.69089e-05
-1.24892e-08
1.69144e-05
-1.22382e-08
-1.19893e-08
1.69197e-05
1.46357e-05
-3.19654e-09
1.46388e-05
-9.08129e-09
1.46437e-05
-1.38571e-08
1.46495e-05
-1.71582e-08
1.4656e-05
-1.91308e-08
1.46627e-05
-2.02495e-08
1.46695e-05
-2.08163e-08
1.46763e-05
-2.09657e-08
1.4683e-05
-2.08173e-08
1.46894e-05
-2.04875e-08
1.46957e-05
-2.00554e-08
1.47017e-05
-1.95665e-08
1.47074e-05
-1.90495e-08
1.47129e-05
-1.85246e-08
1.47182e-05
-1.80045e-08
1.47232e-05
-1.7496e-08
1.4728e-05
-1.70029e-08
-1.652e-08
1.47325e-05
1.27412e-05
-4.24526e-09
1.27444e-05
-1.2293e-08
1.27494e-05
-1.88165e-08
1.27551e-05
-2.29547e-08
1.27613e-05
-2.52473e-08
1.27676e-05
-2.65393e-08
1.27739e-05
-2.71347e-08
1.27801e-05
-2.71605e-08
1.27861e-05
-2.68082e-08
1.27918e-05
-2.62491e-08
1.27973e-05
-2.55782e-08
1.28026e-05
-2.48452e-08
1.28077e-05
-2.40842e-08
1.28125e-05
-2.332e-08
1.2817e-05
-2.25676e-08
1.28214e-05
-2.18345e-08
1.28255e-05
-2.11246e-08
-2.0434e-08
1.28294e-05
1.10918e-05
-5.12287e-09
1.10951e-05
-1.56159e-08
1.11004e-05
-2.41132e-08
1.11062e-05
-2.87377e-08
1.11121e-05
-3.109e-08
1.1118e-05
-3.24598e-08
1.11238e-05
-3.29949e-08
1.11295e-05
-3.28147e-08
1.11349e-05
-3.22107e-08
1.114e-05
-3.13994e-08
1.11449e-05
-3.0478e-08
1.11496e-05
-2.94976e-08
1.1154e-05
-2.8498e-08
1.11582e-05
-2.75067e-08
1.11622e-05
-2.65387e-08
1.11659e-05
-2.56007e-08
1.11695e-05
-2.46959e-08
-2.38208e-08
1.11729e-05
9.65583e-06
-5.73717e-09
9.65935e-06
-1.91406e-08
9.66496e-06
-2.9715e-08
9.67064e-06
-3.44216e-08
9.67628e-06
-3.67295e-08
9.68191e-06
-3.80957e-08
9.68735e-06
-3.84293e-08
9.69248e-06
-3.79496e-08
9.69734e-06
-3.7064e-08
9.70193e-06
-3.59951e-08
9.70628e-06
-3.48227e-08
9.71038e-06
-3.35981e-08
9.71425e-06
-3.23663e-08
9.7179e-06
-3.11565e-08
9.72134e-06
-2.99829e-08
9.72459e-06
-2.88515e-08
9.72766e-06
-2.77635e-08
-2.6714e-08
9.73055e-06
8.40543e-06
-5.81735e-09
8.40981e-06
-2.35155e-08
8.41531e-06
-3.52181e-08
8.4205e-06
-3.96116e-08
8.42593e-06
-4.21592e-08
8.4314e-06
-4.35663e-08
8.43655e-06
-4.35785e-08
8.44131e-06
-4.27077e-08
8.44573e-06
-4.14898e-08
8.44986e-06
-4.01248e-08
8.45371e-06
-3.86701e-08
8.45729e-06
-3.71777e-08
8.46062e-06
-3.56954e-08
8.46372e-06
-3.42522e-08
8.46659e-06
-3.28618e-08
8.46927e-06
-3.153e-08
8.47177e-06
-3.02577e-08
-2.90408e-08
8.47409e-06
7.31506e-06
-3.59029e-09
7.32194e-06
-3.04002e-08
7.32739e-06
-4.06676e-08
7.33216e-06
-4.43787e-08
7.33747e-06
-4.74697e-08
7.34284e-06
-4.89386e-08
7.3478e-06
-4.85381e-08
7.35228e-06
-4.71861e-08
7.35632e-06
-4.553e-08
7.35994e-06
-4.37481e-08
7.36317e-06
-4.18995e-08
7.36604e-06
-4.00474e-08
7.36859e-06
-3.82414e-08
7.37084e-06
-3.65076e-08
7.37284e-06
-3.48575e-08
7.37461e-06
-3.32958e-08
7.37617e-06
-3.18196e-08
-3.04226e-08
7.37755e-06
6.36222e-06
4.25519e-09
6.37294e-06
-4.11244e-08
6.38007e-06
-4.77931e-08
6.38625e-06
-5.05571e-08
6.39222e-06
-5.34364e-08
6.3975e-06
-5.42229e-08
6.40185e-06
-5.28929e-08
6.40543e-06
-5.07583e-08
6.40833e-06
-4.84329e-08
6.41061e-06
-4.60293e-08
6.41233e-06
-4.36148e-08
6.41355e-06
-4.12673e-08
6.41434e-06
-3.90353e-08
6.41477e-06
-3.69383e-08
6.4149e-06
-3.49831e-08
6.41477e-06
-3.31707e-08
6.41444e-06
-3.14928e-08
-2.99291e-08
6.41395e-06
5.53608e-06
1.364e-08
5.54775e-06
-5.27976e-08
5.55744e-06
-5.74783e-08
5.56601e-06
-5.91243e-08
5.57277e-06
-6.02007e-08
5.57719e-06
-5.86404e-08
5.57933e-06
-5.50354e-08
5.57976e-06
-5.11879e-08
5.5789e-06
-4.75724e-08
5.57703e-06
-4.41604e-08
5.57437e-06
-4.09595e-08
5.57111e-06
-3.80074e-08
5.5674e-06
-3.53175e-08
5.56334e-06
-3.28815e-08
5.55904e-06
-3.06851e-08
5.5546e-06
-2.87251e-08
5.5501e-06
-2.69926e-08
-2.54266e-08
5.54559e-06
4.85751e-06
-1.62605e-08
4.86091e-06
-5.61987e-08
4.8615e-06
-5.80703e-08
4.85883e-06
-5.64552e-08
4.85482e-06
-5.61922e-08
4.84813e-06
-5.1943e-08
4.83887e-06
-4.57795e-08
4.82762e-06
-3.99337e-08
4.815e-06
-3.49596e-08
4.80162e-06
-3.07798e-08
4.78792e-06
-2.72584e-08
4.77421e-06
-2.42924e-08
4.76068e-06
-2.17908e-08
4.74747e-06
-1.96747e-08
4.73467e-06
-1.78809e-08
4.72234e-06
-1.63996e-08
4.71061e-06
-1.52573e-08
-1.4947e-08
4.70013e-06
4.18642e-06
4.13022e-06
4.07215e-06
4.01569e-06
3.9595e-06
3.90756e-06
3.86178e-06
3.82184e-06
3.78688e-06
3.7561e-06
3.72885e-06
3.70455e-06
3.68276e-06
3.66309e-06
3.64521e-06
3.62881e-06
3.61355e-06
3.5986e-06
1.09452e-08
-1.09452e-08
2.1818e-08
-1.08729e-08
2.82428e-08
-6.42483e-09
2.93694e-08
-1.12657e-09
2.55623e-08
3.80716e-09
1.77128e-08
7.84942e-09
6.80116e-09
1.09117e-08
-6.3403e-09
1.31415e-08
-2.11196e-08
1.47793e-08
-3.7155e-08
1.60353e-08
-5.42113e-08
1.70563e-08
-7.21504e-08
1.79391e-08
-9.08917e-08
1.87413e-08
-1.10386e-07
1.94944e-08
-1.30601e-07
2.02149e-08
-1.51512e-07
2.09105e-08
-1.73096e-07
2.15843e-08
-1.95333e-07
2.22372e-08
-2.18202e-07
2.28686e-08
-2.41679e-07
2.34768e-08
-2.65738e-07
2.40592e-08
-2.90351e-07
2.46129e-08
-3.15486e-07
2.51355e-08
-3.41113e-07
2.56263e-08
-3.67198e-07
2.60856e-08
-3.9371e-07
2.65116e-08
-4.20604e-07
2.68942e-08
-4.47816e-07
2.72116e-08
-4.75266e-07
2.74508e-08
-5.02938e-07
2.76713e-08
-5.31156e-07
2.82184e-08
-5.62483e-07
3.13272e-08
-5.94501e-07
3.20181e-08
-6.24688e-07
3.01863e-08
-6.56003e-07
3.13156e-08
-6.88399e-07
3.23963e-08
-7.22045e-07
3.36452e-08
-7.57882e-07
3.58373e-08
-7.9559e-07
3.77083e-08
-8.34536e-07
3.89453e-08
-8.7649e-07
4.19542e-08
-9.20108e-07
4.36184e-08
-9.60249e-07
4.01408e-08
-9.97721e-07
3.74723e-08
-1.03695e-06
3.92317e-08
-1.0781e-06
4.11499e-08
-1.12025e-06
4.21444e-08
-1.16303e-06
4.27868e-08
-1.20622e-06
4.3182e-08
-1.24963e-06
4.34136e-08
-1.29316e-06
4.35328e-08
-1.33673e-06
4.35713e-08
-1.38028e-06
4.35488e-08
-1.42376e-06
4.34775e-08
-1.46712e-06
4.33649e-08
-1.51034e-06
4.32154e-08
-1.55337e-06
4.30317e-08
-1.59619e-06
4.28149e-08
-1.63875e-06
4.25655e-08
-1.68104e-06
4.22832e-08
-1.723e-06
4.19675e-08
-1.76462e-06
4.16175e-08
-1.80585e-06
4.12324e-08
-1.84666e-06
4.0811e-08
-1.88702e-06
4.03525e-08
-1.92687e-06
3.9856e-08
-1.96619e-06
3.93205e-08
-2.00494e-06
3.87453e-08
-2.04307e-06
3.813e-08
-2.08054e-06
3.74739e-08
-2.11732e-06
3.67768e-08
-2.15336e-06
3.60385e-08
-2.18862e-06
3.52588e-08
-2.22305e-06
3.44381e-08
-2.25663e-06
3.35764e-08
-2.28931e-06
3.26742e-08
-2.32104e-06
3.1732e-08
-2.35179e-06
3.07503e-08
-2.38152e-06
2.97298e-08
-2.41019e-06
2.86713e-08
-2.43776e-06
2.75756e-08
-2.46421e-06
2.64434e-08
-2.48948e-06
2.52756e-08
-2.51356e-06
2.40729e-08
-2.53639e-06
2.28359e-08
-2.55796e-06
2.15651e-08
-2.57822e-06
2.02609e-08
-2.59714e-06
1.8923e-08
-2.61469e-06
1.7551e-08
-2.63084e-06
1.6144e-08
-2.64554e-06
1.47001e-08
-2.65875e-06
1.32164e-08
-2.67044e-06
1.1689e-08
-2.68055e-06
1.01107e-08
-2.68902e-06
8.47272e-09
-2.69579e-06
6.76229e-09
-2.70075e-06
4.96295e-09
-2.70382e-06
3.06557e-09
-2.70487e-06
1.0578e-09
-2.70403e-06
-8.44852e-10
-2.70153e-06
-2.49463e-09
-2.69746e-06
-4.07295e-09
-2.69183e-06
-5.62742e-09
-2.68466e-06
-7.17853e-09
-2.67592e-06
-8.73503e-09
-2.66562e-06
-1.02983e-08
-2.65375e-06
-1.18674e-08
-2.64031e-06
-1.34408e-08
-2.6253e-06
-1.50164e-08
-2.6087e-06
-1.65922e-08
-2.59054e-06
-1.8166e-08
-2.5708e-06
-1.97357e-08
-2.5495e-06
-2.12992e-08
-2.52665e-06
-2.28545e-08
-2.50225e-06
-2.43993e-08
-2.47632e-06
-2.59317e-08
-2.44887e-06
-2.74495e-08
-2.41992e-06
-2.89507e-08
-2.38949e-06
-3.04332e-08
-2.35759e-06
-3.1895e-08
-2.32426e-06
-3.33341e-08
-2.28951e-06
-3.47486e-08
-2.25337e-06
-3.61365e-08
-2.21587e-06
-3.74962e-08
-2.17705e-06
-3.88257e-08
-2.13693e-06
-4.01234e-08
-2.09554e-06
-4.13877e-08
-2.05292e-06
-4.26168e-08
-2.00911e-06
-4.38092e-08
-1.96415e-06
-4.49633e-08
-1.91807e-06
-4.60776e-08
-1.87092e-06
-4.71508e-08
-1.82274e-06
-4.81819e-08
-1.77357e-06
-4.91697e-08
-1.72346e-06
-5.01131e-08
-1.67244e-06
-5.10112e-08
-1.62058e-06
-5.18631e-08
-1.56791e-06
-5.26681e-08
-1.51449e-06
-5.34256e-08
-1.46035e-06
-5.41353e-08
-1.40556e-06
-5.47969e-08
-1.35015e-06
-5.54102e-08
-1.29417e-06
-5.5975e-08
-1.23768e-06
-5.64916e-08
-1.18072e-06
-5.69603e-08
-1.12334e-06
-5.73816e-08
-1.06558e-06
-5.77561e-08
-1.0075e-06
-5.80844e-08
-9.49128e-07
-5.83678e-08
-8.90521e-07
-5.86072e-08
-8.31717e-07
-5.88039e-08
-7.72758e-07
-5.89593e-08
-7.13683e-07
-5.90752e-08
-6.54529e-07
-5.91533e-08
-5.95334e-07
-5.91952e-08
-5.36131e-07
-5.9203e-08
-4.76953e-07
-5.91785e-08
-4.1783e-07
-5.91233e-08
-3.58791e-07
-5.90388e-08
-2.99865e-07
-5.89255e-08
-2.41082e-07
-5.87835e-08
-1.82475e-07
-5.86072e-08
-1.24074e-07
-5.84009e-08
-6.5912e-08
-5.81617e-08
-8.03521e-09
-5.78768e-08
4.95201e-08
-5.75553e-08
1.06725e-07
-5.72051e-08
1.63586e-07
-5.68605e-08
2.20126e-07
-5.65402e-08
2.76359e-07
-5.62328e-08
3.32277e-07
-5.59186e-08
3.87849e-07
-5.55718e-08
4.43003e-07
-5.51535e-08
4.97599e-07
-5.45962e-08
5.51368e-07
-5.37688e-08
6.03771e-07
-5.24037e-08
6.53586e-07
-4.98145e-08
6.97937e-07
-4.43511e-08
7.29152e-07
-3.12149e-08
9.17851e-09
7.19973e-07
6.13453e-09
-1.70797e-08
6.61247e-09
-1.13508e-08
3.09934e-09
-2.9117e-09
-3.08983e-09
5.0626e-09
-1.15324e-08
1.22497e-08
-2.21381e-08
1.84551e-08
-3.48356e-08
2.36092e-08
-4.9476e-08
2.77819e-08
-6.58364e-08
3.11397e-08
-8.36798e-08
3.38787e-08
-1.02798e-07
3.61748e-08
-1.23026e-07
3.81667e-08
-1.44239e-07
3.99549e-08
-1.66353e-07
4.16077e-08
-1.89307e-07
4.31693e-08
-2.13064e-07
4.46678e-08
-2.37601e-07
4.61209e-08
-2.62904e-07
4.75399e-08
-2.88967e-07
4.89323e-08
-3.15794e-07
5.03033e-08
-3.43392e-07
5.16575e-08
-3.71779e-07
5.29999e-08
-4.00981e-07
5.43375e-08
-4.31034e-07
5.56796e-08
-4.61986e-07
5.70376e-08
-4.93898e-07
5.84229e-08
-5.26848e-07
5.98444e-08
-5.60947e-07
6.13108e-08
-5.96342e-07
6.28454e-08
-6.33189e-07
6.4519e-08
-6.71497e-07
6.65262e-08
-7.0925e-07
6.90795e-08
-7.48434e-07
7.12026e-08
-7.90666e-07
7.24186e-08
-8.33357e-07
7.40061e-08
-8.76672e-07
7.57114e-08
-9.20493e-07
7.74666e-08
-9.63982e-07
7.93264e-08
-1.00721e-06
8.0937e-08
-1.0505e-06
8.22342e-08
-1.09218e-06
8.36312e-08
-1.13288e-06
8.43202e-08
-1.17631e-06
8.35685e-08
-1.2215e-06
8.26656e-08
-1.26501e-06
8.27373e-08
-1.30697e-06
8.31156e-08
-1.34818e-06
8.33577e-08
-1.38886e-06
8.3466e-08
-1.42914e-06
8.3455e-08
-1.46906e-06
8.33401e-08
-1.50867e-06
8.31369e-08
-1.54795e-06
8.28582e-08
-1.58692e-06
8.25131e-08
-1.62555e-06
8.21081e-08
-1.66383e-06
8.16472e-08
-1.70175e-06
8.11323e-08
-1.73928e-06
8.05643e-08
-1.77641e-06
7.99426e-08
-1.81311e-06
7.92664e-08
-1.84936e-06
7.8534e-08
-1.88514e-06
7.77438e-08
-1.92041e-06
7.68936e-08
-1.95516e-06
7.59817e-08
-1.98936e-06
7.50061e-08
-2.02297e-06
7.39649e-08
-2.05597e-06
7.28567e-08
-2.08833e-06
7.16798e-08
-2.12002e-06
7.04332e-08
-2.151e-06
6.91158e-08
-2.18126e-06
6.77269e-08
-2.21075e-06
6.6266e-08
-2.23944e-06
6.4733e-08
-2.26731e-06
6.31278e-08
-2.29432e-06
6.14505e-08
-2.32045e-06
5.97019e-08
-2.34565e-06
5.78825e-08
-2.36992e-06
5.59931e-08
-2.3932e-06
5.40347e-08
-2.41548e-06
5.20086e-08
-2.43672e-06
4.99159e-08
-2.45691e-06
4.77581e-08
-2.476e-06
4.55363e-08
-2.49398e-06
4.32521e-08
-2.51081e-06
4.09066e-08
-2.52647e-06
3.85011e-08
-2.54095e-06
3.60365e-08
-2.5542e-06
3.35138e-08
-2.56621e-06
3.09333e-08
-2.57695e-06
2.82955e-08
-2.58641e-06
2.56e-08
-2.59456e-06
2.28465e-08
-2.60137e-06
2.00343e-08
-2.60685e-06
1.71627e-08
-2.61097e-06
1.42314e-08
-2.61374e-06
1.12414e-08
-2.61517e-06
8.1964e-09
-2.61532e-06
5.10689e-09
-2.61425e-06
2.00223e-09
-2.61211e-06
-1.08635e-09
-2.60881e-06
-4.13919e-09
-2.60416e-06
-7.14587e-09
-2.59806e-06
-1.01735e-08
-2.59047e-06
-1.32221e-08
-2.58136e-06
-1.629e-08
-2.57071e-06
-1.93764e-08
-2.55853e-06
-2.24787e-08
-2.54481e-06
-2.55935e-08
-2.52953e-06
-2.87169e-08
-2.5127e-06
-3.18446e-08
-2.49432e-06
-3.49725e-08
-2.47439e-06
-3.80963e-08
-2.45292e-06
-4.12118e-08
-2.4299e-06
-4.43148e-08
-2.40535e-06
-4.74012e-08
-2.37929e-06
-5.04667e-08
-2.35171e-06
-5.35074e-08
-2.32264e-06
-5.6519e-08
-2.29209e-06
-5.94974e-08
-2.26009e-06
-6.24386e-08
-2.22665e-06
-6.53385e-08
-2.19179e-06
-6.81931e-08
-2.15554e-06
-7.09986e-08
-2.11792e-06
-7.37513e-08
-2.07897e-06
-7.64474e-08
-2.03871e-06
-7.90835e-08
-1.99718e-06
-8.16563e-08
-1.95441e-06
-8.41623e-08
-1.91042e-06
-8.65984e-08
-1.86527e-06
-8.89612e-08
-1.81899e-06
-9.12477e-08
-1.77161e-06
-9.3455e-08
-1.72318e-06
-9.55805e-08
-1.67374e-06
-9.76219e-08
-1.62333e-06
-9.9577e-08
-1.572e-06
-1.01444e-07
-1.51979e-06
-1.0322e-07
-1.46675e-06
-1.04905e-07
-1.41292e-06
-1.06495e-07
-1.35836e-06
-1.07992e-07
-1.3031e-06
-1.09393e-07
-1.2472e-06
-1.10698e-07
-1.1907e-06
-1.11907e-07
-1.13366e-06
-1.1302e-07
-1.07611e-06
-1.14036e-07
-1.01812e-06
-1.14957e-07
-9.59716e-07
-1.15783e-07
-9.00955e-07
-1.16517e-07
-8.41882e-07
-1.17158e-07
-7.82539e-07
-1.1771e-07
-7.22972e-07
-1.18174e-07
-6.63222e-07
-1.18554e-07
-6.0333e-07
-1.18851e-07
-5.43336e-07
-1.1907e-07
-4.83276e-07
-1.19213e-07
-4.23186e-07
-1.19285e-07
-3.63101e-07
-1.19288e-07
-3.03051e-07
-1.19228e-07
-2.43067e-07
-1.19107e-07
-1.83177e-07
-1.18929e-07
-1.23408e-07
-1.18694e-07
-6.37866e-08
-1.18405e-07
-4.33687e-09
-1.18057e-07
5.49126e-08
-1.1765e-07
1.13935e-07
-1.17184e-07
1.72717e-07
-1.16659e-07
2.31249e-07
-1.16088e-07
2.89532e-07
-1.15488e-07
3.47563e-07
-1.14892e-07
4.05335e-07
-1.14312e-07
4.62838e-07
-1.13736e-07
5.20052e-07
-1.13132e-07
5.76935e-07
-1.12455e-07
6.33406e-07
-1.11625e-07
6.8932e-07
-1.1051e-07
7.44404e-07
-1.08854e-07
7.98162e-07
-1.06161e-07
8.49618e-07
-1.0127e-07
8.97148e-07
-9.18813e-08
9.3745e-07
-7.15169e-08
-2.40026e-08
9.70631e-07
-2.21039e-09
-1.48693e-08
-9.40377e-09
-4.15741e-09
-1.87075e-08
6.39202e-09
-2.93819e-08
1.5737e-08
-4.12313e-08
2.40991e-08
-5.42796e-08
3.15034e-08
-6.8618e-08
3.79476e-08
-8.43104e-08
4.34742e-08
-1.01355e-07
4.81842e-08
-1.19691e-07
5.22153e-08
-1.3923e-07
5.57137e-08
-1.59876e-07
5.88124e-08
-1.81542e-07
6.16213e-08
-2.0416e-07
6.42253e-08
-2.27677e-07
6.66865e-08
-2.52059e-07
6.90497e-08
-2.77285e-07
7.13464e-08
-3.03344e-07
7.35993e-08
-3.30237e-07
7.58253e-08
-3.57971e-07
7.80377e-08
-3.86562e-07
8.02479e-08
-4.16029e-07
8.24671e-08
-4.46398e-07
8.47067e-08
-4.77697e-07
8.69784e-08
-5.09953e-07
8.92932e-08
-5.43189e-07
9.16593e-08
-5.77425e-07
9.40803e-08
-6.12671e-07
9.65569e-08
-6.48918e-07
9.90921e-08
-6.86098e-07
1.01699e-07
-7.23966e-07
1.04394e-07
-7.61984e-07
1.07097e-07
-8.00372e-07
1.09591e-07
-8.39658e-07
1.11704e-07
-8.7927e-07
1.13619e-07
-9.1893e-07
1.15371e-07
-9.58412e-07
1.16949e-07
-9.97411e-07
1.18325e-07
-1.03591e-06
1.19432e-07
-1.07394e-06
1.20264e-07
-1.11113e-06
1.20829e-07
-1.14778e-06
1.20969e-07
-1.18488e-06
1.20665e-07
-1.22245e-06
1.20234e-07
-1.25964e-06
1.19934e-07
-1.29624e-06
1.19716e-07
-1.33237e-06
1.19489e-07
-1.36813e-06
1.19221e-07
-1.40357e-06
1.18895e-07
-1.43873e-06
1.18504e-07
-1.47364e-06
1.18045e-07
-1.5083e-06
1.1752e-07
-1.54272e-06
1.16929e-07
-1.57689e-06
1.16273e-07
-1.61079e-06
1.1555e-07
-1.64441e-06
1.14759e-07
-1.67775e-06
1.13899e-07
-1.71077e-06
1.12967e-07
-1.74347e-06
1.11959e-07
-1.77581e-06
1.10874e-07
-1.80777e-06
1.09707e-07
-1.83933e-06
1.08456e-07
-1.87047e-06
1.07116e-07
-1.90115e-06
1.05687e-07
-1.93134e-06
1.04163e-07
-1.96103e-06
1.02544e-07
-1.99018e-06
1.00827e-07
-2.01876e-06
9.90104e-08
-2.04673e-06
9.70922e-08
-2.07408e-06
9.50715e-08
-2.10076e-06
9.29476e-08
-2.12675e-06
9.072e-08
-2.15201e-06
8.83887e-08
-2.17651e-06
8.59539e-08
-2.20023e-06
8.34161e-08
-2.22312e-06
8.07763e-08
-2.24516e-06
7.80355e-08
-2.26632e-06
7.51951e-08
-2.28657e-06
7.22567e-08
-2.30588e-06
6.9222e-08
-2.32421e-06
6.60928e-08
-2.34155e-06
6.28712e-08
-2.35785e-06
5.95592e-08
-2.37311e-06
5.61588e-08
-2.38728e-06
5.2672e-08
-2.40034e-06
4.91006e-08
-2.41227e-06
4.54466e-08
-2.42305e-06
4.17115e-08
-2.43265e-06
3.78969e-08
-2.44106e-06
3.40044e-08
-2.44825e-06
3.00354e-08
-2.4542e-06
2.5992e-08
-2.45892e-06
2.18767e-08
-2.46238e-06
1.76934e-08
-2.46459e-06
1.34482e-08
-2.46554e-06
9.14979e-09
-2.46524e-06
4.81196e-09
-2.46369e-06
4.49154e-10
-2.46086e-06
-3.91721e-09
-2.4567e-06
-8.30169e-09
-2.45113e-06
-1.27149e-08
-2.44413e-06
-1.71724e-08
-2.43568e-06
-2.16716e-08
-2.42576e-06
-2.62078e-08
-2.41436e-06
-3.07753e-08
-2.40147e-06
-3.53682e-08
-2.38709e-06
-3.99804e-08
-2.3712e-06
-4.46057e-08
-2.35381e-06
-4.92377e-08
-2.33491e-06
-5.38701e-08
-2.31451e-06
-5.84965e-08
-2.29261e-06
-6.31108e-08
-2.26922e-06
-6.77065e-08
-2.24434e-06
-7.22777e-08
-2.21799e-06
-7.68181e-08
-2.19018e-06
-8.13216e-08
-2.16091e-06
-8.57821e-08
-2.13022e-06
-9.01935e-08
-2.09811e-06
-9.45499e-08
-2.0646e-06
-9.8845e-08
-2.02972e-06
-1.03073e-07
-1.99349e-06
-1.07228e-07
-1.95593e-06
-1.11305e-07
-1.91708e-06
-1.15298e-07
-1.87697e-06
-1.19202e-07
-1.83561e-06
-1.23012e-07
-1.79305e-06
-1.26723e-07
-1.74932e-06
-1.3033e-07
-1.70445e-06
-1.33829e-07
-1.65848e-06
-1.37214e-07
-1.61146e-06
-1.40482e-07
-1.56341e-06
-1.43628e-07
-1.51438e-06
-1.46649e-07
-1.46442e-06
-1.49542e-07
-1.41356e-06
-1.52304e-07
-1.36184e-06
-1.54932e-07
-1.30932e-06
-1.57423e-07
-1.25604e-06
-1.59776e-07
-1.20205e-06
-1.61987e-07
-1.14738e-06
-1.64057e-07
-1.0921e-06
-1.65985e-07
-1.03623e-06
-1.6777e-07
-9.79841e-07
-1.69412e-07
-9.22966e-07
-1.70911e-07
-8.65655e-07
-1.72268e-07
-8.07953e-07
-1.73485e-07
-7.49906e-07
-1.74564e-07
-6.91558e-07
-1.75506e-07
-6.32953e-07
-1.76315e-07
-5.74133e-07
-1.76994e-07
-5.15139e-07
-1.77547e-07
-4.56012e-07
-1.77979e-07
-3.96788e-07
-1.78293e-07
-3.37505e-07
-1.78496e-07
-2.78197e-07
-1.78593e-07
-2.18897e-07
-1.78589e-07
-1.59635e-07
-1.7849e-07
-1.0044e-07
-1.78303e-07
-4.13379e-08
-1.78031e-07
1.76455e-08
-1.77678e-07
7.64856e-08
-1.77245e-07
1.35162e-07
-1.76733e-07
1.93654e-07
-1.76142e-07
2.51947e-07
-1.75478e-07
3.10042e-07
-1.74753e-07
3.67944e-07
-1.7399e-07
4.25659e-07
-1.73202e-07
4.8317e-07
-1.72403e-07
5.40458e-07
-1.716e-07
5.97504e-07
-1.70781e-07
6.54279e-07
-1.69908e-07
7.10739e-07
-1.68914e-07
7.66803e-07
-1.67689e-07
8.22333e-07
-1.66039e-07
8.77089e-07
-1.6361e-07
9.30667e-07
-1.59739e-07
9.82432e-07
-1.53035e-07
1.03148e-06
-1.40925e-07
1.0773e-06
-1.17342e-07
-7.0787e-08
1.12409e-06
-8.87912e-09
-5.99019e-09
-2.11731e-08
8.13656e-09
-3.44944e-08
1.97133e-08
-4.84193e-08
2.96619e-08
-6.29109e-08
3.85908e-08
-7.80562e-08
4.66488e-08
-9.39843e-08
5.38757e-08
-1.10815e-07
6.03051e-08
-1.2863e-07
6.59986e-08
-1.47461e-07
7.10471e-08
-1.67306e-07
7.5558e-08
-1.88134e-07
7.96406e-08
-2.09907e-07
8.33945e-08
-2.32586e-07
8.6904e-08
-2.56136e-07
9.02364e-08
-2.8053e-07
9.34441e-08
-3.0575e-07
9.65665e-08
-3.31784e-07
9.96331e-08
-3.58625e-07
1.02666e-07
-3.8627e-07
1.05683e-07
-4.14718e-07
1.08696e-07
-4.43966e-07
1.11716e-07
-4.74011e-07
1.14751e-07
-5.04839e-07
1.17806e-07
-5.36427e-07
1.20882e-07
-5.68741e-07
1.23973e-07
-6.01729e-07
1.27068e-07
-6.35321e-07
1.30148e-07
-6.69421e-07
1.33192e-07
-7.03896e-07
1.36174e-07
-7.38558e-07
1.39057e-07
-7.73235e-07
1.41774e-07
-8.07874e-07
1.4423e-07
-8.42533e-07
1.46363e-07
-8.77112e-07
1.48198e-07
-9.11494e-07
1.49753e-07
-9.45586e-07
1.51041e-07
-9.79325e-07
1.52064e-07
-1.01271e-06
1.52817e-07
-1.04576e-06
1.53314e-07
-1.07849e-06
1.53558e-07
-1.11104e-06
1.53517e-07
-1.1436e-06
1.53231e-07
-1.1762e-06
1.52834e-07
-1.2087e-06
1.52426e-07
-1.241e-06
1.52022e-07
-1.27311e-06
1.516e-07
-1.30504e-06
1.51144e-07
-1.33678e-06
1.50643e-07
-1.36837e-06
1.50086e-07
-1.39979e-06
1.49467e-07
-1.43105e-06
1.48782e-07
-1.46215e-06
1.48026e-07
-1.49307e-06
1.47195e-07
-1.52381e-06
1.46286e-07
-1.55434e-06
1.45294e-07
-1.58466e-06
1.44215e-07
-1.61473e-06
1.43044e-07
-1.64455e-06
1.41777e-07
-1.67409e-06
1.40408e-07
-1.70331e-06
1.38934e-07
-1.73221e-06
1.37349e-07
-1.76074e-06
1.3565e-07
-1.78889e-06
1.33832e-07
-1.81661e-06
1.31893e-07
-1.8439e-06
1.29827e-07
-1.8707e-06
1.27634e-07
-1.897e-06
1.2531e-07
-1.92277e-06
1.22853e-07
-1.94796e-06
1.20262e-07
-1.97254e-06
1.17536e-07
-1.9965e-06
1.14674e-07
-2.01979e-06
1.11677e-07
-2.04238e-06
1.08543e-07
-2.06424e-06
1.05275e-07
-2.08533e-06
1.01873e-07
-2.10564e-06
9.83385e-08
-2.12511e-06
9.46733e-08
-2.14374e-06
9.08794e-08
-2.16147e-06
8.69592e-08
-2.1783e-06
8.29151e-08
-2.19417e-06
7.87498e-08
-2.20908e-06
7.44661e-08
-2.22299e-06
7.00669e-08
-2.23587e-06
6.5555e-08
-2.24771e-06
6.09334e-08
-2.25846e-06
5.62049e-08
-2.26812e-06
5.13724e-08
-2.27667e-06
4.64387e-08
-2.28407e-06
4.14067e-08
-2.29031e-06
3.62795e-08
-2.29538e-06
3.10608e-08
-2.29926e-06
2.57549e-08
-2.30193e-06
2.03672e-08
-2.30339e-06
1.49044e-08
-2.30361e-06
9.37487e-09
-2.30259e-06
3.78815e-09
-2.30029e-06
-1.84712e-09
-2.29669e-06
-7.52464e-09
-2.29174e-06
-1.32512e-08
-2.28542e-06
-1.90362e-08
-2.27771e-06
-2.48832e-08
-2.26859e-06
-3.07877e-08
-2.25805e-06
-3.67426e-08
-2.24609e-06
-4.27401e-08
-2.23269e-06
-4.87718e-08
-2.21784e-06
-5.48293e-08
-2.20154e-06
-6.09043e-08
-2.18379e-06
-6.69884e-08
-2.16459e-06
-7.30731e-08
-2.14393e-06
-7.91502e-08
-2.12183e-06
-8.52113e-08
-2.09829e-06
-9.12484e-08
-2.07331e-06
-9.72531e-08
-2.04691e-06
-1.03217e-07
-2.0191e-06
-1.09133e-07
-1.98989e-06
-1.14993e-07
-1.9593e-06
-1.20788e-07