/*--------------------------------*- C++ -*----------------------------------*\
  =========                 |
  \\      /  F ield         | OpenFOAM: The Open Source CFD Toolbox
   \\    /   O peration     | Website:  https://openfoam.org
    \\  /    A nd           | Version:  9
     \\/     M anipulation  |
\*---------------------------------------------------------------------------*/
FoamFile
{
    format      ascii;
    class       surfaceScalarField;
    location    "0.15";
    object      alphaPhi0.water;
}
// * * * * * * * * * * * * * * * * * * * * * * * * * * * * * * * * * * * * * //

dimensions      [0 3 -1 0 0 0 0];

internalField   nonuniform List<scalar> 
4432
(
7.60138e-07
-7.60138e-07
5.26302e-06
-4.50288e-06
1.14375e-05
-6.17446e-06
1.81622e-05
-6.72468e-06
2.51587e-05
-6.99658e-06
3.23719e-05
-7.21317e-06
3.98094e-05
-7.43748e-06
4.75122e-05
-7.70276e-06
5.55511e-05
-8.03895e-06
6.40205e-05
-8.46938e-06
7.30248e-05
-9.00433e-06
8.26595e-05
-9.63474e-06
9.29782e-05
-1.03187e-05
0.000103943
-1.0965e-05
0.000115359
-1.14159e-05
0.000126764
-1.14053e-05
0.000137242
-1.04779e-05
0.000145078
-7.83569e-06
0.000146114
-1.03623e-06
0.000133404
1.26739e-05
0.000102235
3.1128e-05
4.97477e-05
5.24718e-05
4.00531e-05
2.80039e-06
-3.56052e-06
8.05804e-06
-9.76053e-06
1.41252e-05
-1.22416e-05
2.05802e-05
-1.31797e-05
2.73084e-05
-1.37247e-05
3.42931e-05
-1.41979e-05
4.15546e-05
-1.4699e-05
4.9136e-05
-1.52842e-05
5.70989e-05
-1.60018e-05
6.55164e-05
-1.68869e-05
7.44601e-05
-1.7948e-05
8.3978e-05
-1.91526e-05
9.40636e-05
-2.04043e-05
0.000104615
-2.15166e-05
0.000115377
-2.21779e-05
0.000125861
-2.1889e-05
0.000135224
-1.98415e-05
0.000142108
-1.47188e-05
0.000145619
-4.54801e-06
0.000144377
1.39166e-05
0.000131753
4.35664e-05
8.95558e-05
9.44741e-05
0.000131202
4.23537e-06
-7.79589e-06
9.94994e-06
-1.54751e-05
1.59886e-05
-1.82803e-05
2.22605e-05
-1.94516e-05
2.87707e-05
-2.02349e-05
3.55441e-05
-2.09714e-05
4.26158e-05
-2.17707e-05
5.00312e-05
-2.26995e-05
5.78442e-05
-2.38149e-05
6.6111e-05
-2.51537e-05
7.48761e-05
-2.67131e-05
8.41518e-05
-2.84282e-05
9.38902e-05
-3.01427e-05
0.000103947
-3.15739e-05
0.000114037
-3.22676e-05
0.000123674
-3.15257e-05
0.000132114
-2.82816e-05
0.000138327
-2.09315e-05
0.00014127
-7.49167e-06
0.000140562
1.46255e-05
0.000133184
5.0622e-05
9.93662e-05
0.000128078
0.00023199
5.10545e-06
-1.29013e-05
1.12635e-05
-2.16332e-05
1.73908e-05
-2.44075e-05
2.35796e-05
-2.56405e-05
2.99411e-05
-2.65964e-05
3.65472e-05
-2.75775e-05
4.34523e-05
-2.86757e-05
5.07074e-05
-2.99546e-05
5.83628e-05
-3.14703e-05
6.6462e-05
-3.32529e-05
7.50288e-05
-3.52799e-05
8.40481e-05
-3.74475e-05
9.34409e-05
-3.95355e-05
0.000103034
-4.11672e-05
0.000112525
-4.17581e-05
0.000121445
-4.04457e-05
0.000129158
-3.59945e-05
0.000134947
-2.67209e-05
0.000138263
-1.08072e-05
0.000139035
1.38528e-05
0.000131494
5.20531e-05
9.29091e-05
0.000112387
0.000318916
5.59453e-06
-1.84959e-05
1.21342e-05
-2.81728e-05
1.84103e-05
-3.06836e-05
2.45901e-05
-3.18203e-05
3.08619e-05
-3.28682e-05
3.73413e-05
-3.40569e-05
4.4104e-05
-3.54384e-05
5.12095e-05
-3.70601e-05
5.87073e-05
-3.89681e-05
6.66321e-05
-4.11778e-05
7.49918e-05
-4.36397e-05
8.37495e-05
-4.62053e-05
9.28021e-05
-4.85881e-05
0.000101954
-5.03195e-05
0.000110893
-5.06962e-05
0.00011917
-4.87232e-05
0.000126252
-4.30766e-05
0.000131686
-3.21548e-05
0.00013533
-1.44514e-05
0.000132332
1.15296e-05
0.000100575
3.67228e-05
5.60533e-05
2.58671e-05
0.000351354
5.87491e-06
-2.43708e-05
1.26896e-05
-3.49875e-05
1.9111e-05
-3.7105e-05
2.53173e-05
-3.80266e-05
3.15394e-05
-3.90903e-05
3.79247e-05
-4.04422e-05
4.45672e-05
-4.20809e-05
5.15352e-05
-4.40281e-05
5.88794e-05
-4.63124e-05
6.66285e-05
-4.89268e-05
7.47777e-05
-5.17889e-05
8.32732e-05
-5.47008e-05
9.19924e-05
-5.73073e-05
0.000100722
-5.90496e-05
0.00010914
-5.91136e-05
0.000116811
-5.63948e-05
0.000123278
-4.95432e-05
0.000128282
-3.71584e-05
0.000131385
-1.75561e-05
9.98964e-05
7.45292e-06
3.56676e-05
1.02549e-05
1.99814e-05
6.63571e-06
0.000271052
6.04705e-06
-3.04178e-05
1.30184e-05
-4.19589e-05
1.95452e-05
-4.36318e-05
2.57836e-05
-4.4265e-05
3.19772e-05
-4.5284e-05
3.8291e-05
-4.67559e-05
4.48312e-05
-4.86211e-05
5.16735e-05
-5.08704e-05
5.887e-05
-5.35088e-05
6.64449e-05
-5.65017e-05
7.43841e-05
-5.97282e-05
8.26202e-05
-6.29369e-05
9.10153e-05
-6.57023e-05
9.93416e-05
-6.73759e-05
0.000107263
-6.7035e-05
0.000114344
-6.34757e-05
0.000120163
-5.53621e-05
0.000124494
-4.1491e-05
0.000111764
-2.11625e-05
4.28199e-05
2.8264e-06
7.42876e-06
3.0491e-07
8.74794e-06
2.43414e-06
5.28317e-05
6.14108e-06
-3.65589e-05
1.31695e-05
-4.89873e-05
1.97468e-05
-5.02091e-05
2.60029e-05
-5.05211e-05
3.21742e-05
-5.14553e-05
3.84286e-05
-5.30103e-05
4.48785e-05
-5.50711e-05
5.16039e-05
-5.75958e-05
5.86576e-05
-6.05625e-05
6.6061e-05
-6.3905e-05
7.37925e-05
-6.74597e-05
8.17745e-05
-7.09189e-05
8.98573e-05
-7.3785e-05
9.77999e-05
-7.53186e-05
0.000105249
-7.44841e-05
0.000111744
-6.99703e-05
0.000116833
-6.04512e-05
0.000118134
-4.28161e-05
6.84332e-05
-1.99599e-05
4.5633e-06
4.82251e-07
1.26708e-06
3.69157e-07
2.06108e-06
8.43594e-07
6.88801e-06
-3.02701e-23
3.013e-23
-3.66061e-23
5.06813e-24
-1.39004e-23
-7.68853e-23
-3.3717e-25
-1.34581e-23
5.2711e-30
-5.45853e-25
6.54649e-29
-6.18947e-27
3.18361e-30
-8.21192e-29
1.82731e-31
-1.51894e-30
8.26294e-33
-2.65631e-32
2.57375e-34
-8.82842e-35
6.60919e-36
5.48053e-36
1.40511e-37
2.82185e-37
2.32188e-39
8.85832e-39
2.78067e-41
2.0016e-40
2.17626e-43
3.24108e-42
9.13514e-46
3.46984e-44
1.24628e-48
2.03667e-46
2.41494e-50
3.29242e-49
4.81259e-51
-1.22282e-21
9.86845e-22
-5.55913e-21
1.20243e-21
-1.98672e-21
-7.6965e-21
-3.67792e-23
-3.38764e-21
5.93118e-26
-1.05585e-22
7.61698e-27
-1.15322e-24
3.16995e-28
-1.51007e-26
1.23821e-29
-2.19628e-28
4.15837e-31
-2.79465e-30
1.1196e-32
-9.27574e-33
2.54584e-34
9.09144e-34
4.76428e-36
4.08697e-35
6.93805e-38
1.1121e-36
7.3447e-40
2.16735e-38
5.10503e-42
2.99683e-40
1.94865e-44
2.69235e-42
2.87734e-47
1.29633e-44
6.12282e-50
2.10008e-47
4.67039e-50
-8.72413e-20
1.12458e-19
-5.88134e-19
1.47311e-19
-1.47055e-19
-2.08696e-18
-1.84312e-21
-5.62444e-19
5.92531e-24
-1.14775e-20
4.00531e-25
-1.03636e-22
1.43192e-26
-1.16763e-24
4.18078e-28
-1.36854e-26
1.07053e-29
-1.34715e-28
2.39591e-31
-3.17888e-31
4.64972e-33
3.00879e-32
7.43477e-35
1.12103e-33
9.3256e-37
2.57144e-35
8.57042e-39
4.24664e-37
5.17367e-41
4.95651e-39
1.72269e-43
3.69056e-41
2.44385e-46
1.47045e-43
7.29111e-49
2.20303e-46
2.04513e-48
-8.2834e-18
9.59537e-18
-4.23131e-17
1.53269e-17
-6.83467e-18
-2.41487e-16
-5.50255e-20
-3.8599e-17
3.11031e-22
-5.55226e-19
1.29753e-23
-4.3189e-21
4.04733e-25
-4.45023e-23
1.00607e-26
-4.74292e-25
2.17456e-28
-4.0775e-27
4.15084e-30
-5.79212e-30
6.87825e-32
7.08007e-31
9.37448e-34
2.18883e-32
1.00089e-35
4.23024e-34
7.76707e-38
5.85423e-36
3.94093e-40
5.62983e-38
1.14392e-42
3.45066e-40
1.56792e-45
1.12032e-42
1.47088e-47
1.83531e-45
6.09366e-47
-8.74286e-16
6.60107e-16
-8.91705e-16
4.24039e-16
-9.92758e-17
-3.49704e-15
-5.96948e-19
-4.08068e-16
6.83819e-21
-6.01466e-18
2.31658e-22
-5.69235e-20
7.0129e-24
-6.87527e-22
1.66915e-25
-8.02756e-24
3.33e-27
-6.84085e-26
5.72783e-29
-2.48408e-29
8.4219e-31
1.21596e-29
1.00789e-32
3.24009e-31
9.35152e-35
5.44698e-33
6.24158e-37
6.4982e-35
2.68937e-39
5.30429e-37
6.63333e-42
2.69899e-39
1.37343e-44
7.8354e-42
2.05405e-46
1.70025e-44
1.10191e-45
-9.41312e-15
9.11764e-15
-6.04913e-15
4.75567e-16
-3.66573e-16
-9.04002e-15
-1.81193e-18
-9.01858e-16
5.74886e-20
-1.91126e-17
2.12304e-21
-2.87795e-19
6.92283e-23
-4.63422e-21
1.70291e-24
-6.31723e-23
3.34458e-26
-5.62871e-25
5.52934e-28
6.2181e-28
7.69131e-30
1.37396e-28
8.63082e-32
3.36654e-30
7.45364e-34
5.2862e-32
4.61073e-36
5.8493e-34
1.83019e-38
4.46394e-36
5.61083e-41
2.03309e-38
1.34519e-43
6.79954e-41
2.33236e-45
1.68347e-43
1.54572e-44
-2.82136e-14
6.40718e-14
-1.17503e-14
-2.02706e-15
-5.31622e-16
-9.98239e-15
-1.35921e-18
-1.01772e-15
2.50054e-19
-3.23903e-17
1.16783e-20
-7.4192e-19
4.10628e-22
-1.56979e-20
1.05098e-23
-2.57344e-22
2.11135e-25
-2.36043e-24
3.54831e-27
1.04042e-26
4.99049e-29
9.97557e-28
5.68938e-31
2.39742e-29
5.02323e-33
3.79696e-31
3.24311e-35
4.29946e-33
1.39881e-37
3.44544e-35
4.9691e-40
1.7343e-37
1.29237e-42
5.93256e-40
2.36713e-44
1.63935e-42
1.86984e-43
-6.86661e-14
1.59813e-13
-1.43842e-14
0
-4.98186e-16
0
2.84393e-18
-3.60207e-16
8.74097e-19
-1.9809e-17
4.89271e-20
-5.11327e-19
1.77022e-21
-4.83625e-21
4.69535e-23
-1.1156e-22
9.60185e-25
-1.31565e-24
1.62803e-26
8.43725e-26
2.33021e-28
5.39527e-27
2.71876e-30
1.28045e-28
2.4767e-32
2.0668e-30
1.64613e-34
2.40416e-32
7.29465e-37
1.96275e-34
2.99008e-39
1.02314e-36
8.60141e-42
3.72383e-39
2.15397e-43
1.18679e-41
1.9459e-42
1.29522e-05
-4.95111e-05
2.79451e-05
-6.39802e-05
4.18735e-05
-6.41376e-05
5.51254e-05
-6.3773e-05
6.81513e-05
-6.44811e-05
8.12625e-05
-6.61215e-05
9.46936e-05
-6.85022e-05
0.000108619
-7.15207e-05
0.000123149
-7.50933e-05
0.000138322
-7.90779e-05
0.000154075
-8.32123e-05
0.000170219
-8.70627e-05
0.000186404
-8.99699e-05
0.000202067
-9.09823e-05
0.000216392
-8.88092e-05
0.00022839
-8.19681e-05
0.000235393
-6.74558e-05
0.000178321
-4.33776e-05
2.05858e-05
-5.77688e-06
7.46807e-07
4.5988e-08
4.90454e-07
1.05975e-07
8.55633e-07
2.22296e-07
2.05885e-06
4.55698e-06
1.27118e-05
-6.22229e-05
2.69906e-05
-7.8259e-05
4.03765e-05
-7.75235e-05
5.32147e-05
-7.66112e-05
6.58597e-05
-7.71261e-05
7.85538e-05
-7.88156e-05
9.14904e-05
-8.14388e-05
0.000104822
-8.48525e-05
0.000118647
-8.89182e-05
0.000132986
-9.3417e-05
0.000147759
-9.79847e-05
0.000162753
-0.000102057
0.000177581
-0.000104799
0.000191606
-0.000105007
0.000203886
-0.000101089
0.00021299
-9.10747e-05
0.000176969
-7.05088e-05
2.09591e-05
-1.34942e-05
4.27986e-07
-5.3354e-07
1.18095e-07
1.04062e-08
1.44889e-07
1.74328e-08
2.82186e-07
5.46066e-08
9.58419e-07
1.19258e-06
1.22792e-05
-7.45021e-05
2.55207e-05
-9.15004e-05
3.80109e-05
-9.00136e-05
5.01389e-05
-8.87392e-05
6.21616e-05
-8.91488e-05
7.42478e-05
-9.09018e-05
8.65431e-05
-9.37341e-05
9.91691e-05
-9.74785e-05
0.000112201
-0.00010195
0.000125639
-0.000106855
0.000139386
-0.000111731
0.000153208
-0.000115879
0.000166674
-0.000118265
0.000179043
-0.000117376
0.000189195
-0.000111242
0.000183879
-8.58126e-05
4.26658e-05
-3.36589e-05
8.50242e-07
-1.93415e-06
5.65013e-08
-2.89069e-08
1.48221e-08
1.79516e-09
2.29744e-08
2.16724e-09
6.61104e-08
8.33393e-09
1.83925e-07
8.11119e-07
1.1698e-05
-8.62001e-05
2.37255e-05
-0.000103528
3.51308e-05
-0.000101419
4.63479e-05
-9.99563e-05
5.75535e-05
-0.000100354
6.88558e-05
-0.000102204
8.03586e-05
-0.000105237
9.21521e-05
-0.000109272
0.000104286
-0.000114084
0.000116742
-0.000119312
0.000129405
-0.000124394
0.000142019
-0.000128492
0.000154086
-0.000130332
0.000164749
-0.000128039
0.000171108
-0.000117595
8.37472e-05
-7.3278e-05
1.9795e-06
-5.75415e-06
8.31246e-08
-2.30583e-07
5.81707e-09
2.57699e-10
1.53725e-09
0
2.85726e-09
2.0998e-10
9.77376e-09
9.43428e-10
2.07972e-08
1.69832e-07
1.09892e-05
-9.71893e-05
2.17169e-05
-0.000114256
3.19539e-05
-0.000111656
4.21442e-05
-0.000110147
5.23974e-05
-0.000110608
6.27764e-05
-0.000112583
7.33526e-05
-0.000115813
8.41903e-05
-0.00012011
9.53184e-05
-0.000125212
0.000106704
-0.000130697
0.000118219
-0.000135909
0.000129578
-0.000139851
0.000140203
-0.000140958
0.000149049
-0.000136885
0.000132576
-0.000106198
5.85803e-06
-2.53341e-05
2.49139e-07
-8.51804e-07
4.30264e-09
-2.642e-08
0
1.78071e-11
1.20103e-10
0
2.97896e-10
3.14244e-11
1.13431e-09
7.8593e-11
1.79621e-09
1.96326e-08
1.01725e-05
-0.000107362
1.95663e-05
-0.000123649
2.86097e-05
-0.000120699
3.77142e-05
-0.000119251
4.69291e-05
-0.000119822
5.6283e-05
-0.000121937
6.58233e-05
-0.000125353
7.55947e-05
-0.000129881
8.56134e-05
-0.000135231
9.58417e-05
-0.000140925
0.000106148
-0.000146216
0.000116207
-0.00014991
0.000125328
-0.000150079
0.000130726
-0.00014229
4.38379e-05
-8.32643e-05
8.69107e-07
-3.78957e-06
3.22441e-08
-1.42135e-07
0
-1.17394e-09
0
1.30732e-10
9.3913e-13
9.88576e-13
5.44272e-11
2.12789e-11
1.24223e-10
7.2038e-12
1.59018e-10
1.71426e-09
9.27422e-06
-0.000116636
1.73219e-05
-0.000131697
2.51756e-05
-0.000128553
3.31722e-05
-0.000127248
4.13009e-05
-0.000127951
4.95618e-05
-0.000130198
5.79824e-05
-0.000133774
6.65941e-05
-0.000138493
7.54108e-05
-0.000144047
8.44045e-05
-0.000149919
9.34529e-05
-0.000155264
0.000102206
-0.000158664
0.000109848
-0.000157721
9.87692e-05
-0.000131224
3.25627e-06
-3.16151e-05
1.3099e-07
-7.72307e-07
0
-2.14198e-08
0
1.11039e-10
7.75265e-13
7.39809e-11
0
1.75339e-12
4.90325e-12
2.33286e-13
1.20979e-11
1.00108e-12
1.3547e-11
1.49399e-10
8.31257e-06
-0.000124949
1.50102e-05
-0.000138395
2.17027e-05
-0.000135246
2.86015e-05
-0.000134146
3.56315e-05
-0.000134981
4.27648e-05
-0.000137331
5.00107e-05
-0.00014102
5.73921e-05
-0.000145874
6.49296e-05
-0.000151585
7.2618e-05
-0.000157607
8.03553e-05
-0.000163001
8.77818e-05
-0.00016609
9.36148e-05
-0.000163553
3.95316e-05
-0.00011171
6.65475e-07
-4.55918e-06
2.08308e-08
-1.20249e-07
0
-1.98987e-09
0
8.72283e-11
0
5.25746e-11
2.48208e-14
9.5339e-12
1.84054e-13
2.66825e-14
8.92366e-13
2.09052e-13
1.26787e-12
1.22564e-11
7.24364e-06
-0.000132192
1.26291e-05
-0.00014378
1.82365e-05
-0.000140853
2.40912e-05
-0.000140001
3.00537e-05
-0.000140944
3.60688e-05
-0.000143346
4.21278e-05
-0.000147079
4.82455e-05
-0.000151992
5.44534e-05
-0.000157792
6.07807e-05
-0.000163934
6.71712e-05
-0.000169391
7.32524e-05
-0.000172171
7.30682e-05
-0.000163364
4.15434e-06
-5.91812e-05
9.79296e-08
-9.49276e-07
1.22842e-09
-2.49861e-08
0
-2.18535e-10
1.38773e-11
3.4282e-11
0
2.15954e-11
0
1.04826e-11
1.76996e-15
3.75761e-13
6.52186e-14
1.28565e-13
2.46361e-13
9.37508e-13
5.84408e-06
-0.000138034
1.01339e-05
-0.000148067
1.48355e-05
-0.000145553
1.97701e-05
-0.000144934
2.47617e-05
-0.000145934
2.97353e-05
-0.000148318
3.4664e-05
-0.000152005
3.9549e-05
-0.000156873
4.4425e-05
-0.000162663
4.93569e-05
-0.000168859
5.43693e-05
-0.000174398
5.89278e-05
-0.000176724
4.42077e-05
-0.000156521
7.40794e-07
-1.9401e-05
2.1745e-08
-2.36525e-07
0
-3.27165e-09
0
3.07391e-11
0
3.88358e-11
0
9.03446e-12
-8.22059e-14
5.99618e-12
0
4.85899e-13
7.9616e-15
1.13529e-13
5.29328e-14
6.92948e-14
3.77638e-06
-0.000141785
7.57041e-06
-0.000151834
1.16544e-05
-0.000149614
1.58596e-05
-0.000149119
2.00521e-05
-0.000150107
2.41516e-05
-0.000152396
2.81099e-05
-0.000155936
3.19001e-05
-0.000160626
3.55347e-05
-0.000166245
3.90896e-05
-0.000172339
4.25783e-05
-0.000177827
4.40366e-05
-0.00017813
1.51679e-05
-0.000124141
1.95846e-07
-3.32472e-06
2.93782e-09
-4.33684e-08
0
-3.22068e-10
3.17471e-12
1.02168e-11
-3.87502e-12
1.59296e-11
-1.45614e-12
3.25015e-12
-2.17316e-13
8.16751e-13
-1.29092e-14
3.45562e-13
2.4792e-16
9.4532e-14
5.32497e-14
6.71953e-15
1.75742e-06
-0.000143216
5.52117e-06
-0.000155266
9.05713e-06
-0.00015287
1.2682e-05
-0.000152502
1.62947e-05
-0.000153487
1.9781e-05
-0.000155626
2.30513e-05
-0.00015889
2.60243e-05
-0.000163177
2.86482e-05
-0.000168287
3.09532e-05
-0.000173846
3.24512e-05
-0.000178461
3.03498e-05
-0.000175473
1.83517e-06
-7.35158e-05
3.62058e-08
-5.73791e-07
0
-6.47911e-09
0
-9.98865e-11
-1.06973e-11
6.14071e-12
-2.97322e-12
4.66243e-12
-4.69241e-13
1.06756e-13
-8.59623e-14
4.73276e-14
-1.41735e-14
1.65628e-13
-3.52478e-15
6.38432e-14
3.15779e-14
6.30747e-16
3.71268e-06
-7.88732e-05
4.66011e-06
-9.48704e-05
6.88528e-06
-0.000101125
9.88039e-06
-0.000107837
1.29937e-05
-0.000111172
1.58188e-05
-0.000109714
1.80248e-05
-0.000103853
1.92279e-05
-9.34425e-05
1.91962e-05
-7.95118e-05
1.85401e-05
-6.33553e-05
1.74354e-05
-5.12939e-05
1.74974e-05
-6.36839e-05
5.05582e-07
-1.86274e-05
5.34933e-09
-7.4596e-08
0
-1.18897e-10
-3.82177e-11
-1.2763e-11
-4.41664e-12
4.88135e-12
-3.97702e-13
6.4848e-13
-5.02771e-14
1.23701e-14
-3.01801e-14
6.33887e-14
-1.13937e-14
5.5247e-14
-3.37243e-15
2.84227e-14
9.26795e-15
-4.24803e-16
3.73751e-06
6.71082e-14
1.57402e-06
2.71224e-14
1.87267e-06
1.7033e-12
2.80982e-06
1.57491e-11
3.73487e-06
1.08136e-12
4.19826e-06
1.95398e-13
4.02755e-06
8.49649e-14
3.29771e-06
3.48906e-14
2.24366e-06
9.60513e-15
1.20681e-06
-9.36038e-15
8.42245e-07
-4.96211e-14
1.54721e-06
-5.25009e-12
1.04603e-07
-1.51555e-09
7.48089e-11
-4.8219e-08
-5.87014e-11
-6.64478e-13
-2.42053e-11
1.21054e-13
-6.55678e-13
7.81417e-13
-5.90624e-14
4.8304e-14
-2.67947e-14
4.27131e-14
-1.49301e-14
4.22913e-14
-5.81943e-15
1.66425e-14
-1.43806e-15
7.37155e-15
1.48507e-15
-1.79239e-16
-1.5931e-14
1.71219e-13
-2.66575e-15
7.79779e-14
-9.80384e-14
2.03096e-13
-1.16491e-12
6.669e-13
-1.07983e-13
8.87183e-13
-2.48656e-14
5.84047e-13
-1.29674e-14
2.77607e-13
-6.03384e-15
1.10333e-13
-1.76849e-15
2.69787e-14
1.61394e-16
-1.12903e-14
8.52419e-16
-5.13746e-14
3.56915e-14
-5.29417e-12
-1.01206e-09
-5.03522e-10
-4.20937e-11
-1.23166e-08
-4.24169e-11
-1.10654e-13
-6.08542e-12
0
-6.46109e-14
7.69378e-14
-2.75694e-14
7.01542e-15
-1.8441e-14
3.20725e-14
-6.13267e-15
1.69829e-14
-1.81749e-15
4.24153e-15
-3.22014e-16
1.11816e-15
1.49742e-16
-3.14306e-17
4.55125e-15
1.69491e-13
-3.53259e-15
1.2657e-13
-1.12448e-14
2.63461e-13
-4.35118e-14
8.07801e-13
-6.88681e-14
1.08883e-12
-5.13769e-14
6.93174e-13
-2.57623e-14
3.14349e-13
-9.83621e-15
1.17219e-13
-1.99099e-15
1.58006e-14
1.35423e-15
-3.3537e-14
0
-1.82231e-13
-2.76926e-12
-2.62765e-12
-3.48595e-10
-9.8891e-15
-5.37719e-12
-2.1472e-14
-5.47876e-12
-8.81213e-15
-3.42738e-13
2.55832e-14
-1.47785e-14
8.46186e-15
-1.58868e-14
3.9437e-15
-8.32925e-15
1.40119e-14
-1.82208e-15
3.98382e-15
-3.50567e-16
7.29844e-16
-4.5661e-17
1.12965e-16
1.18203e-17
-3.7438e-18
2.21615e-14
9.65152e-14
1.17222e-15
1.13109e-13
-6.54991e-15
1.83745e-13
-1.83167e-14
5.01263e-13
-1.79071e-14
6.43828e-13
-5.19631e-15
4.05379e-13
7.30859e-16
1.82702e-13
4.40947e-16
6.49624e-14
-5.94281e-15
-1.2508e-14
-7.75596e-15
-1.91735e-13
-3.48712e-13
-3.79695e-13
-1.15636e-15
-3.79859e-13
-1.83606e-15
-6.36622e-15
-1.91085e-14
-2.7846e-15
-3.29187e-14
-8.01474e-16
-4.81373e-15
1.00171e-16
-3.32223e-15
6.7499e-16
-6.93734e-15
3.38139e-15
-2.18339e-15
3.94542e-15
-3.43392e-16
5.25802e-16
-4.54977e-17
7.67236e-17
-4.82023e-18
8.81634e-18
7.99956e-19
-3.52238e-19
9.71899e-15
2.82389e-14
3.71122e-15
4.13345e-14
7.89759e-15
5.51609e-14
2.04028e-14
1.00537e-13
2.17401e-14
1.213e-13
1.44921e-14
8.86814e-14
7.16621e-15
4.49991e-14
-1.88099e-15
1.41613e-14
-2.40449e-14
-2.56524e-14
-1.34046e-13
-3.05334e-13
-9.59634e-14
-5.37949e-13
-6.61158e-15
-3.61367e-13
-1.46595e-15
-2.14525e-14
-2.40733e-15
-5.22701e-16
-8.25563e-16
-2.0414e-16
-9.53741e-16
5.76368e-17
-2.21694e-15
3.53207e-16
-2.02919e-15
9.48116e-16
-3.25831e-16
6.07823e-16
-4.089e-17
4.10955e-17
-4.43031e-18
5.33805e-18
-4.08245e-19
5.71803e-19
4.63619e-20
-2.68002e-20
1.99474e-15
2.09711e-25
2.60469e-15
4.15566e-24
6.60202e-15
3.47659e-23
1.12099e-14
-5.52621e-22
1.11546e-14
-7.62657e-20
7.41311e-15
-4.64135e-18
2.98904e-15
-1.77945e-16
-7.62069e-15
-8.16804e-16
-5.327e-14
-2.38208e-14
-2.48774e-13
-2.81875e-13
-2.42612e-13
-4.59594e-13
-1.23347e-13
-3.69185e-13
-2.43707e-15
-1.18902e-13
-1.1002e-15
-5.74898e-16
-2.85163e-16
-1.57491e-18
-4.47518e-16
3.42729e-17
-6.30227e-16
1.13161e-16
-3.85579e-16
1.26954e-16
-2.9635e-17
3.3452e-17
-3.39593e-18
2.17932e-18
-3.4374e-19
2.86488e-19
-2.8292e-20
3.10668e-20
2.26284e-21
-1.65959e-21
1.95296e-25
2.48166e-25
2.62456e-24
6.33694e-24
-5.11079e-24
7.38811e-23
-9.39247e-22
3.81516e-22
-7.49664e-20
-2.23856e-21
-4.60076e-18
-1.15557e-19
-1.78067e-16
-4.47915e-18
-9.01915e-16
-1.40871e-16
-4.29048e-14
-3.13252e-15
-2.68569e-13
-6.7121e-14
-3.41252e-13
-2.65376e-13
-2.7765e-13
-2.89318e-13
-1.29583e-14
-9.05236e-14
-3.98359e-17
-4.514e-15
-7.75131e-17
-6.2311e-19
-1.39632e-16
5.88879e-18
-9.99654e-17
1.45048e-17
-2.5472e-17
5.47193e-18
-1.86575e-18
9.24139e-19
-2.17335e-19
8.90329e-20
-2.16463e-20
1.27216e-20
-1.60975e-21
1.396e-21
9.22888e-23
-8.47828e-23
3.41252e-25
1.72664e-25
7.33942e-24
5.48708e-24
5.57536e-23
8.52502e-23
-1.55157e-22
8.20416e-22
-7.67159e-21
5.27787e-21
-1.46441e-19
2.32124e-20
-4.69446e-18
6.89852e-20
-1.45658e-16
1.30994e-19
-4.17837e-15
1.33567e-19
-6.41464e-14
2.05768e-20
-1.95105e-13
-7.2662e-19
-1.5897e-13
-1.97392e-18
-2.90294e-14
-5.96828e-18
-7.43509e-18
-7.91612e-18
-1.09719e-17
-2.19357e-18
-1.36511e-17
1.59989e-19
-5.62771e-18
4.42815e-19
-9.37768e-19
1.10205e-19
-8.85572e-20
2.01843e-20
-1.10993e-20
2.90291e-21
-1.10714e-21
4.5988e-22
-7.52687e-23
5.12848e-23
3.13659e-24
-3.6238e-24
3.33694e-25
2.03013e-28
1.00054e-23
3.34017e-27
1.42859e-22
2.19282e-26
1.23248e-21
5.85133e-26
6.91955e-21
-2.03818e-26
2.5601e-20
-8.53747e-25
5.99221e-20
-2.92668e-23
7.54856e-20
-8.22211e-22
1.45745e-20
-1.35404e-20
-3.74217e-20
-1.13795e-19
-1.32328e-19
-6.31714e-19
-4.73963e-19
-1.65039e-18
-4.7596e-18
-1.73235e-18
-2.47488e-17
-1.22387e-18
-5.96501e-19
-1.49571e-19
-4.44792e-19
2.82441e-21
-1.47037e-19
3.107e-21
-2.52282e-20
1.54587e-21
-3.13216e-21
5.49272e-22
-4.48545e-22
7.18974e-23
-4.57619e-23
1.31062e-23
-2.89128e-24
1.52487e-24
8.86717e-26
-1.31185e-25
2.19758e-28
-6.57401e-36
2.84902e-27
-1.35989e-33
1.1378e-26
-1.40478e-31
-5.33472e-27
-9.7681e-30
-2.47505e-26
-9.66023e-28
-8.38258e-25
-4.02396e-26
-2.95819e-23
-1.05865e-24
-1.01459e-21
-2.75664e-23
-1.82511e-20
-6.33897e-22
-2.40932e-19
-3.74754e-21
-1.60559e-18
-7.97243e-21
-3.39881e-18
-8.78182e-21
-3.40927e-18
-3.44222e-21
-2.2581e-18
-1.34922e-21
-2.01797e-20
-1.65059e-22
-6.82673e-21
1.83435e-23
-2.55505e-21
2.71732e-23
-6.2286e-22
2.09486e-23
-8.61161e-23
1.04083e-23
-1.39835e-23
1.67629e-24
-1.51376e-24
3.04554e-25
-9.07383e-26
3.62363e-26
2.64904e-27
-4.28277e-27
-6.55582e-36
-1.81949e-38
-1.36261e-33
-3.83714e-36
-1.4143e-31
-4.10792e-34
-9.88005e-30
-2.94367e-32
-9.74799e-28
-1.53773e-30
-4.11169e-26
-6.7615e-29
-1.09694e-24
-1.88601e-27
-4.05356e-23
-4.08135e-26
-7.56457e-22
-1.49617e-24
-3.42126e-21
-2.46746e-23
-6.20212e-21
-1.13597e-22
-7.13863e-21
-1.96966e-22
-3.61998e-21
-1.8414e-22
-9.71472e-22
-9.12742e-23
-4.53894e-22
-9.31009e-24
-1.2783e-22
-8.18678e-26
-3.75115e-23
3.93202e-25
-1.21699e-23
1.80869e-25
-1.96745e-24
1.49544e-25
-3.36217e-25
3.04433e-26
-3.94342e-26
6.4594e-27
-2.5501e-27
8.75741e-28
6.37402e-29
-1.22442e-28
-1.87768e-38
5.81888e-40
-3.84982e-36
-7.25091e-39
-4.13798e-34
-8.59327e-37
-2.97768e-32
-6.76879e-35
-1.50905e-30
-2.73552e-33
-6.69333e-29
-1.22679e-31
-1.93171e-27
-4.08788e-30
-4.48483e-26
-1.09515e-28
-2.47899e-24
-3.42137e-27
-3.42856e-23
-1.02158e-25
-1.24304e-22
-1.00344e-24
-1.94838e-22
-2.91209e-24
-1.87926e-22
-3.46971e-24
-5.3725e-23
-2.4186e-24
-8.52984e-24
-4.24181e-25
-2.72411e-24
-1.38245e-26
-4.97452e-25
5.89729e-27
-1.84863e-25
1.74814e-27
-3.68846e-26
1.66705e-27
-7.09671e-27
4.30748e-28
-8.89724e-28
1.09136e-28
-6.17394e-29
1.66268e-29
1.306e-30
-3.03178e-30
-2.8286e-40
-3.17707e-44
-7.23061e-39
-9.96694e-42
-8.30345e-37
-1.18943e-39
-6.56309e-35
-9.61425e-38
-2.79883e-33
-5.80053e-36
-1.2537e-31
-2.78384e-34
-4.21002e-30
-1.00006e-32
-1.14593e-28
-2.90536e-31
-5.35407e-27
-9.12093e-30
-1.90711e-25
-3.23356e-28
-1.50101e-24
-4.63856e-27
-3.49885e-24
-1.861e-26
-3.68659e-24
-2.78137e-26
-1.90901e-24
-2.2683e-26
-2.37465e-25
-7.09837e-27
-6.74763e-26
-5.72028e-28
-7.48472e-27
5.11997e-29
-2.20578e-27
2.90472e-29
-5.46766e-28
1.48046e-29
-1.2254e-28
4.61376e-30
-1.70653e-29
1.47603e-30
-1.27884e-30
2.61844e-31
2.28667e-32
-6.50097e-32
-3.17635e-44
-7.28493e-48
-9.99824e-42
-1.31646e-45
-1.19934e-39
-1.71404e-43
-9.73375e-38
-1.50663e-41
-5.89756e-36
-9.82012e-40
-2.83937e-34
-5.12431e-38
-1.02689e-32
-2.04195e-36
-3.01173e-31
-6.59433e-35
-1.25849e-29
-2.11365e-33
-6.47891e-28
-6.46747e-32
-7.78969e-27
-2.12853e-30
-2.40311e-26
-3.44256e-29
-3.14022e-26
-1.60102e-28
-2.32828e-26
-2.52005e-28
-5.18382e-27
-1.93393e-28
-1.47105e-27
-4.73874e-29
-1.89212e-28
-6.66939e-31
-2.13261e-29
6.38605e-31
-6.27622e-30
5.93979e-32
-1.7081e-30
3.88115e-32
-2.72851e-31
1.56939e-32
-2.25923e-32
3.38934e-33
3.41004e-34
-1.20063e-33
-7.28324e-48
-4.03887e-51
-1.3211e-45
-8.39469e-49
-1.72655e-43
-1.22853e-46
-1.52278e-41
-1.19763e-44
-9.88938e-40
-7.67462e-43
-5.13662e-38
-4.39321e-41
-2.07662e-36
-2.01363e-39
-6.80936e-35
-7.69487e-38
-2.19063e-33
-2.73714e-36
-9.24462e-32
-8.80458e-35
-4.97112e-30
-3.20628e-33
-7.60336e-29
-8.15873e-32
-2.75085e-28
-6.37494e-31
-3.70925e-28
-1.43442e-30
-2.64787e-28
-1.35386e-30
-2.79267e-29
-6.17397e-31
-7.52272e-30
-4.40557e-32
-3.22159e-31
1.04032e-32
-5.87631e-32
3.11499e-33
-1.91149e-32
3.24274e-34
-3.62498e-33
1.05359e-34
-3.39803e-34
2.4096e-35
4.34907e-36
-1.90466e-35
-3.81128e-51
-1.57955e-55
-8.15005e-49
-4.55116e-53
-1.19619e-46
-7.31687e-51
-1.17188e-44
-7.84861e-49
-7.79184e-43
-6.34453e-47
-4.47116e-41
-4.03144e-45
-2.05653e-39
-2.05421e-43
-7.90079e-38
-8.77605e-42
-2.81725e-36
-3.49046e-40
-1.02577e-34
-1.23736e-38
-7.05671e-33
-4.15182e-37
-2.07437e-31
-1.43714e-35
-1.24128e-30
-3.96601e-34
-2.18795e-30
-3.71236e-33
-2.03741e-30
-9.24483e-33
-5.3281e-31
-8.47314e-33
-1.35871e-31
-2.96258e-33
-1.36859e-32
-1.9076e-35
-1.67656e-33
5.96912e-35
-2.81702e-34
4.26921e-35
-4.67312e-35
3.32382e-36
-4.36759e-36
3.82809e-37
4.77674e-38
-2.56309e-37
-1.57949e-55
-4.66816e-59
-4.567e-53
-1.5054e-56
-7.36248e-51
-2.70392e-54
-7.92246e-49
-3.23866e-52
-6.42391e-47
-2.92388e-50
-4.03267e-45
-2.04284e-48
-2.09475e-43
-1.18253e-46
-8.99149e-42
-5.73623e-45
-3.58425e-40
-2.57439e-43
-1.27598e-38
-1.0323e-41
-5.10873e-37
-3.78791e-40
-3.37034e-35
-1.44019e-38
-1.25513e-33
-5.32528e-37
-9.46027e-33
-9.16465e-36
-1.80359e-32
-3.9382e-35
-1.61743e-32
-5.01027e-35
-1.78422e-33
-2.89132e-35
-4.32456e-34
-2.09714e-36
-7.20781e-35
6.03002e-37
-9.23535e-36
3.75432e-37
-1.03809e-36
8.73408e-38
-4.90628e-38
1.27204e-38
3.25766e-40
-3.03985e-39
-4.66816e-59
-1.47089e-63
-1.50785e-56
-5.37735e-61
-2.71854e-54
-1.09537e-58
-3.26447e-52
-1.47815e-56
-2.66842e-50
-1.35815e-54
-2.07949e-48
-1.14483e-52
-1.19915e-46
-7.55962e-51
-5.85634e-45
-4.25272e-49
-2.63331e-43
-2.16319e-47
-1.05887e-41
-9.86198e-46
-4.05703e-40
-4.09321e-44
-2.6031e-38
-1.63361e-42
-1.71591e-36
-6.20033e-41
-2.75119e-35
-2.40331e-39
-8.63631e-35
-4.71328e-38
-8.49922e-35
-2.15458e-37
-3.02466e-35
-2.56619e-37
-5.63435e-36
-1.09571e-37
-1.06517e-36
2.21264e-40
-2.08267e-37
2.43573e-39
-2.49441e-38
1.06414e-39
-9.05772e-40
2.01816e-40
1.98205e-41
-3.76075e-41
-1.43926e-63
-2.39054e-67
-5.35925e-61
-1.07821e-64
-1.09391e-58
-2.48091e-62
-1.48006e-56
-3.78339e-60
-1.49428e-54
-4.30992e-58
-1.15988e-52
-3.93152e-56
-7.67668e-51
-2.94868e-54
-4.33232e-49
-1.89259e-52
-2.20844e-47
-1.09878e-50
-1.0094e-45
-5.73207e-49
-4.20006e-44
-2.72845e-47
-1.85854e-42
-1.20849e-45
-1.17885e-40
-5.31127e-44
-9.1483e-39
-2.425e-42
-1.76758e-37
-8.02345e-41
-5.68511e-37
-6.78126e-40
-5.50231e-37
-1.28773e-39
-6.006e-38
-8.2483e-40
-1.89883e-38
-5.10401e-41
-3.5061e-39
2.69859e-41
-5.02786e-40
1.21248e-41
-3.24763e-41
3.19504e-42
3.88484e-43
-7.95925e-43
-2.39054e-67
-4.38384e-72
-1.08061e-64
-2.28197e-69
-2.4917e-62
-6.01625e-67
-3.80832e-60
-1.0485e-64
-4.348e-58
-1.36464e-62
-3.97498e-56
-1.42284e-60
-2.98676e-54
-1.22079e-58
-1.92253e-52
-9.02422e-57
-1.11811e-50
-6.02268e-55
-5.84455e-49
-3.61925e-53
-2.78721e-47
-1.98866e-51
-1.24067e-45
-1.0126e-49
-7.68869e-44
-5.01602e-48
-7.92671e-42
-2.31561e-46
-3.23794e-40
-1.12888e-44
-1.9831e-39
-3.89268e-43
-2.52984e-39
-3.21863e-42
-9.15693e-40
-5.45695e-42
-2.51338e-40
-2.48201e-42
-5.24193e-41
1.00824e-43
-8.58337e-42
1.43727e-43
-6.20698e-43
4.53249e-44
4.4314e-45
-2.08252e-44
-4.38387e-72
-3.65634e-76
-2.2852e-69
-2.25146e-73
-6.03837e-67
-6.91825e-71
-1.05429e-64
-1.39395e-68
-1.37469e-62
-2.0956e-66
-1.4313e-60
-2.47793e-64
-1.23393e-58
-2.48826e-62
-9.15112e-57
-2.15628e-60
-6.11722e-55
-1.67156e-58
-3.68283e-53
-1.16873e-56
-2.02722e-51
-7.48423e-55
-1.03361e-49
-4.44667e-53
-5.40579e-48
-2.47875e-51
-3.62406e-46
-1.36254e-49
-4.17956e-44
-7.53812e-48
-1.82512e-42
-4.25541e-46
-1.1275e-41
-7.85404e-45
-1.31352e-41
-2.51974e-44
-2.38167e-42
-1.86497e-44
-7.41505e-43
-5.2889e-46
-1.39893e-43
1.64448e-45
-1.06503e-44
6.39854e-46
7.3294e-47
-4.66476e-46
-3.6226e-76
-4.9767e-81
-2.24624e-73
-3.90739e-78
-6.91387e-71
-1.41864e-75
-1.39569e-68
-3.34722e-73
-2.10354e-66
-5.89249e-71
-2.49899e-64
-8.32751e-69
-2.51328e-62
-9.82039e-67
-2.18155e-60
-1.00139e-64
-1.69352e-58
-9.14407e-63
-1.1858e-56
-7.5402e-61
-7.60399e-55
-5.70103e-59
-4.52366e-53
-4.00371e-57
-2.52491e-51
-2.64026e-55
-1.63273e-49
-1.66096e-53
-1.97541e-47
-1.04239e-51
-2.1101e-45
-6.79297e-50
-3.11606e-44
-3.67679e-48
-6.17684e-44
-4.67652e-47
-2.54632e-44
-9.89309e-47
-1.01706e-44
-3.59714e-47
-2.04377e-45
1.27965e-47
-1.90742e-46
7.81052e-48
1.33375e-48
-9.07379e-48
-4.97671e-81
-9.92396e-86
-3.91239e-78
-1.03957e-82
-1.42255e-75
-4.54811e-80
-3.36147e-73
-1.27624e-77
-5.92617e-71
-2.67714e-75
-8.38688e-69
-4.52335e-73
-9.90209e-67
-6.39055e-71
-1.01141e-64
-7.84309e-69
-9.24666e-63
-8.61088e-67
-7.63431e-61
-8.54318e-65
-5.7791e-59
-7.77605e-63
-4.06318e-57
-6.57758e-61
-2.68217e-55
-5.22727e-59
-1.64708e-53
-3.9375e-57
-1.40612e-51
-2.85176e-55
-2.36003e-49
-2.10044e-53
-1.91011e-47
-1.76512e-51
-1.86591e-46
-7.29733e-50
-2.8049e-46
-4.25908e-49
-8.38337e-47
-3.39444e-49
-2.45017e-47
4.28739e-50
-3.24262e-48
8.67313e-50
2.13814e-50
-1.61593e-49
-9.92398e-86
-2.43123e-90
-1.04037e-82
-3.38071e-87
-4.5584e-80
-1.76915e-84
-1.28071e-77
-5.97599e-82
-2.68953e-75
-1.53017e-79
-4.54375e-73
-3.15852e-77
-6.43444e-71
-5.54712e-75
-7.90862e-69
-8.47336e-73
-8.69174e-67
-1.15367e-70
-8.6326e-65
-1.41952e-68
-7.86565e-63
-1.60224e-66
-6.66027e-61
-1.68051e-64
-5.29851e-59
-1.65599e-62
-3.99538e-57
-1.54686e-60
-2.88425e-55
-1.37858e-58
-3.78189e-53
-1.19873e-56
-9.38313e-51
-1.24853e-54
-3.89593e-49
-9.6427e-53
-1.39685e-48
-1.13336e-51
-6.04981e-49
-1.59013e-51
-2.76243e-49
8.43323e-53
-4.60139e-50
8.9636e-52
2.75978e-52
-2.67635e-51
-2.42182e-90
-5.7192e-96
-3.37757e-87
-6.78198e-93
-1.76991e-84
-3.89783e-90
-5.98542e-82
-1.58869e-87
-1.53419e-79
-5.13926e-85
-3.17386e-77
-1.37956e-82
-5.57886e-75
-3.14837e-80