/*--------------------------------*- C++ -*----------------------------------*\
  =========                 |
  \\      /  F ield         | OpenFOAM: The Open Source CFD Toolbox
   \\    /   O peration     | Website:  https://openfoam.org
    \\  /    A nd           | Version:  9
     \\/     M anipulation  |
\*---------------------------------------------------------------------------*/
FoamFile
{
    format      ascii;
    class       volScalarField;
    location    "0.15";
    object      epsilon;
}
// * * * * * * * * * * * * * * * * * * * * * * * * * * * * * * * * * * * * * //

dimensions      [0 2 -3 0 0 0 0];

internalField   nonuniform List<scalar> 
2268
(
0.128813
0.293439
0.453624
0.593081
0.718662
0.837465
0.956101
1.0815
1.22085
1.38066
1.56535
1.77496
2.00247
2.2315
2.43595
2.58271
2.63852
2.57839
2.38645
2.13924
1.86915
1.59107
1.06799
0.158753
0.202072
0.244995
0.280234
0.311371
0.341069
0.371523
0.404886
0.44328
0.488554
0.541814
0.60268
0.668451
0.733523
0.789579
0.827074
0.838353
0.821934
0.789048
0.806886
0.913308
1.22508
1.15016
0.200016
0.207411
0.224034
0.237497
0.250309
0.264056
0.279882
0.298888
0.322111
0.350338
0.383748
0.421424
0.460882
0.497883
0.526872
0.542394
0.54156
0.527097
0.510555
0.523907
0.632315
1.01132
1.71791
0.227573
0.218442
0.222382
0.225689
0.230469
0.237728
0.24804
0.261959
0.279969
0.302285
0.328534
0.357384
0.386266
0.411435
0.428629
0.434555
0.429044
0.417284
0.411906
0.444303
0.618224
1.19036
2.48032
0.247283
0.227975
0.224278
0.221371
0.221291
0.224739
0.231934
0.243069
0.258249
0.277289
0.299422
0.323019
0.345465
0.363412
0.373616
0.374465
0.367876
0.36107
0.369566
0.437603
0.755724
1.80674
3.57375
0.262178
0.235082
0.22633
0.219261
0.215851
0.216656
0.221676
0.230852
0.244015
0.260682
0.279803
0.299563
0.317387
0.330352
0.336132
0.33453
0.329158
0.329165
0.355113
0.479099
1.07384
3.04341
5.0816
0.27395
0.239809
0.227429
0.217519
0.21177
0.210639
0.214
0.221628
0.233155
0.247884
0.264576
0.281328
0.295695
0.305204
0.308381
0.306232
0.303772
0.312129
0.359451
0.565035
1.6283
4.94438
7.06506
0.283645
0.242343
0.227118
0.215303
0.207961
0.20543
0.207511
0.213878
0.224028
0.237122
0.251813
0.266201
0.27804
0.285329
0.287382
0.286255
0.288134
0.306164
0.378304
0.689957
2.42049
7.75837
9.55544
0.0354475
0.300435
0.42383
0.471841
0.476614
0.466758
0.451392
0.43564
0.422917
0.413628
0.406465
0.399661
0.392326
0.38304
0.369174
0.345838
0.304278
0.231239
0.130137
0.155803
0.20244
0.23287
0.23941
0.235235
0.228979
0.22396
0.220788
0.219163
0.218357
0.217797
0.2171
0.216119
0.214602
0.211927
0.206677
0.195932
0.174929
0.150108
0.214147
0.207226
0.217052
0.209318
0.19649
0.185958
0.179724
0.176882
0.176078
0.176152
0.176436
0.176649
0.176753
0.176781
0.176721
0.176349
0.174998
0.172224
0.192954
0.26056
0.231948
0.229564
0.20921
0.186891
0.170445
0.160995
0.156572
0.155097
0.154989
0.15535
0.155806
0.156324
0.157076
0.158381
0.160692
0.1647
0.172963
0.224414
0.307046
0.275075
0.260643
0.223778
0.189017
0.164937
0.15111
0.144288
0.141564
0.140865
0.141003
0.141461
0.142172
0.143381
0.145619
0.149784
0.157481
0.173503
0.248413
0.366898
0.352234
0.317532
0.253131
0.199965
0.165595
0.146145
0.136303
0.13197
0.13044
0.130188
0.130519
0.131311
0.132844
0.135793
0.141355
0.151789
0.173599
0.267095
0.473706
0.497386
0.417705
0.302485
0.220284
0.171432
0.144717
0.131212
0.124987
0.122467
0.121716
0.121843
0.122648
0.124425
0.127939
0.134602
0.147145
0.173406
0.28181
0.781171
0.777142
0.579909
0.379155
0.251923
0.182384
0.146203
0.128299
0.119925
0.116304
0.114985
0.114858
0.115632
0.117596
0.121573
0.129124
0.14333
0.173078
0.293511
0.292488
0.242943
0.224811
0.211313
0.20253
0.198614
0.199314
0.20423
0.212754
0.223933
0.236375
0.248288
0.257773
0.263491
0.265759
0.267917
0.277562
0.310795
0.422294
0.912305
3.17941
11.4792
8.97429
0.303654
0.240085
0.217386
0.202268
0.192611
0.187886
0.18764
0.191395
0.198505
0.208042
0.218776
0.229295
0.238375
0.245673
0.252887
0.264925
0.290407
0.346556
0.495618
0.986804
2.67965
9.86836
10.1548
0.313295
0.235046
0.207604
0.190981
0.180807
0.175766
0.175136
0.178354
0.184797
0.193689
0.204134
0.215291
0.226761
0.239357
0.256366
0.28394
0.330044
0.41081
0.578248
0.946123
2.0536
6.76713
10.7597
0.322222
0.229352
0.197321
0.179148
0.168452
0.163215
0.162455
0.165547
0.171952
0.181158
0.192749
0.206617
0.223367
0.245288
0.277523
0.326316
0.397593
0.506767
0.669552
0.885752
1.51983
4.19643
8.7798
0.33077
0.223713
0.187566
0.167913
0.156656
0.151223
0.150447
0.153696
0.160601
0.171031
0.185204
0.203921
0.229072
0.264946
0.318164
0.393872
0.496303
0.626645
0.738787
0.819062
1.11601
2.46189
5.64888
0.339017
0.218439
0.17881
0.157879
0.1461
0.140494
0.139794
0.143446
0.151352
0.163899
0.182116
0.207955
0.245036
0.300102
0.380298
0.488691
0.625169
0.746357
0.772025
0.744083
0.838005
1.4597
3.19337
0.346952
0.213679
0.171225
0.149292
0.137103
0.131402
0.130903
0.135212
0.144617
0.160177
0.183951
0.219392
0.272491
0.352283
0.465866
0.614507
0.76823
0.838244
0.769424
0.664382
0.648517
0.917556
1.75426
0.354583
0.209576
0.164905
0.142239
0.129787
0.124111
0.123967
0.129201
0.140595
0.160045
0.19092
0.238645
0.312263
0.422746
0.577027
0.773864
0.912937
0.885268
0.737851
0.584731
0.515257
0.621461
1.00675
0.362007
0.206424
0.160004
0.1368
0.124216
0.118701
0.119093
0.125522
0.139355
0.163501
0.202947
0.265661
0.364151
0.511495
0.714527
0.943633
1.0347
0.901776
0.689658
0.509442
0.418858
0.452704
0.628684
0.369513
0.20489
0.156849
0.133107
0.120482
0.115285
0.116419
0.124314
0.140972
0.170454
0.219669
0.299668
0.426812
0.616835
0.872279
1.08274
1.08806
0.873571
0.624697
0.439046
0.347865
0.351256
0.431893
0.377869
0.206513
0.155986
0.131339
0.118716
0.114046
0.1162
0.12587
0.145684
0.180923
0.240617
0.339204
0.497442
0.736578
1.05693
1.22997
1.089
0.807132
0.549175
0.377834
0.29637
0.287398
0.323349
0.389107
0.215183
0.158376
0.131759
0.119123
0.115294
0.118907
0.130828
0.154239
0.19558
0.265979
0.382871
0.571118
0.861433
1.22564
1.31749
1.04622
0.727397
0.479218
0.327944
0.258854
0.245541
0.259208
0.409281
0.239379
0.165717
0.134882
0.122134
0.119637
0.125441
0.140455
0.16828
0.216282
0.297352
0.430924
0.642823
0.970533
1.29613
1.26338
0.950272
0.639202
0.416167
0.288201
0.231297
0.216765
0.218917
0.454386
0.292399
0.179852
0.141165
0.12825
0.127832
0.136915
0.156298
0.189815
0.245462
0.337644
0.486817
0.714898
1.05178
1.26129
1.10343
0.810916
0.543933
0.359523
0.25668
0.21089
0.196317
0.19218
0.542036
0.373574
0.200658
0.150246
0.137522
0.140221
0.15392
0.179193
0.219971
0.284872
0.390506
0.558666
0.801915
1.06204
1.08547
0.902981
0.662392
0.453474
0.311424
0.232346
0.195892
0.181559
0.173726
0.620591
0.32758
0.217286
0.158803
0.146442
0.152866
0.172209
0.204832
0.254568
0.32978
0.444992
0.616952
0.817897
0.928795
0.886693
0.722119
0.534991
0.379268
0.274166
0.214539
0.185102
0.170819
0.1606
0.675913
0.308431
0.202588
0.160646
0.154047
0.165381
0.190378
0.229565
0.285822
0.364273
0.471156
0.604822
0.730231
0.775989
0.710564
0.577587
0.438233
0.324818
0.247739
0.202217
0.177418
0.162834
0.150937
0.657023
0.265137
0.183094
0.159275
0.159906
0.175366
0.203405
0.244472
0.300145
0.372206
0.460045
0.553485
0.623427
0.631566
0.569851
0.470647
0.369892
0.287583
0.230042
0.19385
0.17171
0.156536
0.143435
0.622927
0.236708
0.173728
0.158933
0.163494
0.180877
0.209514
0.249311
0.300264
0.361251
0.427817
0.488639
0.524319
0.516794
0.467004
0.395742
0.323419
0.262723
0.218116
0.1877
0.166858
0.151021
0.137154
0.60811
0.228996
0.171321
0.159293
0.164957
0.182309
0.209605
0.246014
0.290242
0.339484
0.388189
0.427092
0.44465
0.433071
0.395444
0.344389
0.29158
0.2453
0.20903
0.182107
0.161879
0.145583
0.131436
0.602714
0.227848
0.171478
0.15945
0.164371
0.180186
0.204781
0.236702
0.27389
0.312955
0.348735
0.374501
0.383625
0.372866
0.345056
0.307743
0.267889
0.231132
0.200351
0.17575
0.156058
0.139762
0.125879
0.595687
0.227325
0.171557
0.158583
0.161801
0.17514
0.196235
0.223274
0.253924
0.284874
0.311826
0.330042
0.335599
0.327072
0.306505
0.278485
0.247371
0.217198
0.190438
0.167841
0.149053
0.133378
0.120305
0.582739
0.225474
0.170427
0.156255
0.157353
0.167748
0.184978
0.20713
0.231923
0.256423
0.277204
0.290873
0.294923
0.288598
0.273246
0.251757
0.226963
0.201861
0.178602
0.158226
0.140933
0.126517
0.114728
0.564468
0.222004
0.167869
0.152475
0.15134
0.158657
0.171974
0.189439
0.208991
0.228171
0.244283
0.254829
0.258065
0.253475
0.241916
0.225283
0.205545
0.184858
0.165077
0.147335
0.13211
0.119466
0.10929
0.543142
0.217364
0.164193
0.147616
0.144314
0.148657
0.158257
0.17139
0.186278
0.200921
0.213222
0.221305
0.223882
0.220541
0.211807
0.198947
0.183581
0.166998
0.150769
0.135976
0.123193
0.11261
0.104188
0.520626
0.212196
0.159933
0.142244
0.136954
0.138604
0.144873
0.15418
0.16502
0.175797
0.184899
0.19091
0.192862
0.190412
0.183888
0.174167
0.162456
0.14962
0.136847
0.125056
0.114801
0.106316
0.0996057
0.49848
0.207037
0.155604
0.136908
0.129887
0.129235
0.132691
0.138797
0.146278
0.153868
0.160338
0.164632
0.16602
0.164224
0.159441
0.152267
0.143546
0.13399
0.124334
0.115311
0.107403
0.100844
0.0956625
0.477645
0.202235
0.15157
0.132008
0.123551
0.121036
0.122249
0.125826
0.130668
0.135764
0.140177
0.14312
0.144053
0.142751
0.139321
0.134153
0.127809
0.12091
0.113846
0.10716
0.101243
0.0963059
0.092396
0.458618
0.197966
0.148027
0.127757
0.118158
0.114204
0.11372
0.115407
0.118291
0.121544
0.124441
0.126393
0.126997
0.126073
0.123671
0.120034
0.115536
0.110608
0.105545
0.10069
0.0963425
0.0926849
0.0897714
0.441594
0.194288
0.145045
0.124217
0.113739
0.108715
0.106999
0.107339
0.108843
0.110807
0.11265
0.113919
0.114309
0.113673
0.112023
0.109503
0.106349
0.102839
0.0992456
0.0957463
0.0925715
0.0898736
0.0877071
0.426563
0.191193
0.142618
0.121361
0.110216
0.104413
0.101831
0.101244
0.101815
0.102917
0.104062
0.104887
0.10515
0.104728
0.10361
0.101876
0.0996717
0.09718
0.0945975
0.0920597
0.0897285
0.0877266
0.0861034
0.413417
0.188653
0.140708
0.11912
0.107469
0.101102
0.0979186
0.096709
0.0966668
0.0972102
0.0979096
0.0984569
0.0986504
0.0983835
0.097631
0.0964341
0.0948815
0.0930929
0.0912024
0.0893396
0.0876044
0.086098
0.0848633
0.402085
0.186654
0.139268
0.117412
0.105371
0.098595
0.0949983
0.0933756
0.0929358
0.0931239
0.0935437
0.0939205
0.0940777
0.0939187
0.0934114
0.0925736
0.09146
0.0901508
0.0887426
0.0873391
0.08602
0.0848636
0.0839041
0.392748
0.185248
0.138268
0.11616
0.10381
0.0967401
0.0928642
0.0909725
0.0902785
0.0902415
0.0904854
0.0907558
0.0908917
0.0908034
0.0904551
0.0898516
0.0890274
0.0880393
0.0869593
0.0858689
0.084839
0.0839277
0.0831609
0.386185
0.184644
0.137716
0.115302
0.102696
0.0954261
0.091377
0.0893215
0.0884709
0.0882923
0.0884232
0.088623
0.0887413
0.0886931
0.0884412
0.0879828
0.0873407
0.0865574
0.0856903
0.0848059
0.0839693
0.0832233
0.0825862
0.384424
0.185377
0.137696
0.114796
0.101962
0.0945822
0.090458
0.0883268
0.0873925
0.0871291
0.0871858
0.0873342
0.0874324
0.0873994
0.0871971
0.0868178
0.0862767
0.0856074
0.0848591
0.0840912
0.0833627
0.082711
0.0821471
0.392337
0.188546
0.13838
0.114602
0.101551
0.0941687
0.0900792
0.0879601
0.0870064
0.0867019
0.0867113
0.0868194
0.0868934
0.0868566
0.0866699
0.0863211
0.0858182
0.0851873
0.0844718
0.083729
0.0830187
0.082381
0.0818256
0.420955
0.196042
0.139945
0.114629
0.10139
0.0941634
0.0902502
0.0882443
0.0873367
0.0870316
0.0870162
0.0870935
0.0871422
0.0870906
0.0868993
0.0865507
0.0860434
0.0853921
0.0846302
0.083812
0.0830045
0.0822628
0.0816208
0.491696
0.210183
0.142207
0.114593
0.10135
0.0945464
0.0910059
0.0892364
0.0884472
0.0881822
0.0881643
0.0882219
0.0882499
0.088184
0.0879858
0.087632
0.0871089
0.0864117
0.0855494
0.0845553
0.0834921
0.0824417
0.0815521
0.641514
0.231109
0.143577
0.113758
0.101202
0.0952978
0.0924013
0.0910125
0.0904165
0.09023
0.0902298
0.0902806
0.0902988
0.0902319
0.0900458
0.0897143
0.0892121
0.0885089
0.0875671
0.0863479
0.0848311
0.0830673
0.0816498
0.946935
0.248128
0.139217
0.110758
0.100674
0.0964463
0.0945259
0.0936588
0.0933147
0.0932305
0.0932588
0.0933113
0.0933328
0.0932879
0.0931521
0.0929038
0.0925165
0.091945
0.0911008
0.0898033
0.0877075
0.0842984
0.0819056
1.66334
0.21432
0.120581
0.104399
0.0998629
0.0982197
0.0975434
0.0972686
0.097184
0.0971909
0.097235
0.097283
0.0973139
0.0973141
0.0972745
0.0971878
0.0970444
0.0968227
0.0964538
0.0956869
0.0935757
0.0859468
0.0821796
10.283
2.75642
2.54522
2.91816
9.97086
15.6284
16.789
6.8436
10.0827
11.1312
12.0241
10.0638
9.87481
10.1166
10.0874
9.27115
7.41086
8.38604
8.55516
8.11053
4.47472
5.36326
5.77164
5.64478
2.45339
2.94988
3.22377
3.20014
1.34182
1.56397
1.68489
1.66854
0.778033
0.86512
0.905765
0.888178
0.49459
0.524699
0.532984
0.516975
0.346954
0.354514
0.351357
0.337732
0.265142
0.263899
0.257103
0.245585
0.216558
0.211863
0.204165
0.194308
0.185818
0.179802
0.172181
0.163609
0.16534
0.158833
0.151542
0.143967
0.151131
0.144488
0.137579
0.130771
0.140879
0.134267
0.127741
0.121555
0.133113
0.126642
0.120499
0.11485
0.126849
0.12062
0.114885
0.109735
0.121434
0.115558
0.110277
0.10562
0.116466
0.111058
0.106287
0.102138
0.111743
0.106908
0.102699
0.0990732
0.107218
0.103029
0.0994152
0.0963176
0.102942
0.0994281
0.0964122
0.0938288
0.0990103
0.0961549
0.0937055
0.0916001
0.0955159
0.0932601
0.0913182
0.0896361
0.0925155
0.0907732
0.089262
0.0879372
0.090018
0.0886921
0.087529
0.0864933
0.0879898
0.0869864
0.0860933
0.085283
0.0863706
0.0856081
0.0849178
0.0842781
0.08509
0.084503
0.0839613
0.0834483
0.0840805
0.0836192
0.0831848
0.0827646
0.0832841
0.0829118
0.0825542
0.0822011
0.0826544
0.0823442
0.0820405
0.0817356
0.0821552
0.0818866
0.0816195
0.0813478
0.081759
0.0815141
0.0812686
0.0810179
0.0814446
0.0812048
0.0809659
0.0807243
0.0811984
0.0809393
0.0806889
0.0804432
0.0810146
0.0807018
0.080416
0.0801508
0.0808912
0.0804796
0.0801307
0.0798307
0.0808103
0.0802621
0.0798332
0.079492
0.0807396
0.0800695
0.079578
0.0792096
1.55449
1.33264
0.866428
0.519595
0.313063
0.205347
0.152091
0.126473
0.114391
0.108887
0.106606
0.10603
0.10671
0.108897
0.113469
0.122151
0.13843
0.172498
0.308422
2.62955
2.12255
1.40968
0.815897
0.441365
0.252938
0.167256
0.128857
0.111371
0.103364
0.0998505
0.0987046
0.0992375
0.101625
0.106757
0.116456
0.134483
0.171962
0.320077
6.15387
3.64008
2.2099
1.18701
0.583533
0.30083
0.182039
0.132159
0.110242
0.100247
0.0957398
0.0941139
0.094504
0.0970204
0.102544
0.112935
0.132092
0.171674
0.327483
6.84297
4.63747
2.76439
1.3972
0.646805
0.318275
0.18664
0.132721
0.109124
0.0982122
0.0931552
0.0912334
0.0915358
0.0941508
0.0999521
0.110813
0.130698
0.171559
0.332042
6.29275
4.18464
2.39632
1.1886
0.562161
0.290038
0.177565
0.129279
0.107158
0.096504
0.0913878
0.0893824
0.0896734
0.0923792
0.0983818
0.109561
0.129913
0.171543
0.334795
4.45636
2.87874
1.61175
0.826765
0.426901
0.243906
0.161628
0.123238
0.10439
0.0948067
0.0900196
0.088115
0.0884689
0.0912702
0.0974252
0.108824
0.129479
0.171573
0.336411
2.59538
1.69473
0.982232
0.545496
0.315127
0.201255
0.145017
0.116352
0.101209
0.0930585
0.0888298
0.087154
0.0876292
0.0905352
0.0968146
0.108373
0.129234
0.171618
0.337283
1.39576
0.951094
0.592916
0.365463
0.23726
0.168036
0.130532
0.10975
0.0979832
0.0913006
0.0877185
0.0863405
0.0869748
0.0899953
0.0963861
0.108072
0.129087
0.171661
0.33763
0.764755
0.553218
0.376833
0.258332
0.186251
0.143846
0.118863
0.103945
0.0949529
0.0895945
0.0866518
0.0855942
0.086407
0.0895499
0.0960485
0.107848
0.128993
0.171697
0.337574
0.454939
0.349714
0.259315
0.195096
0.153195
0.126626
0.109796
0.0990691
0.0922346
0.0879903
0.0856281
0.0848833
0.0858802
0.0891507
0.0957583
0.107668
0.128932
0.171726
0.337185
0.301321
0.243677
0.193812
0.15695
0.131536
0.114401
0.102859
0.0950714
0.0898643
0.0865197
0.084659
0.0842031
0.0853805
0.088781
0.0955001
0.107521
0.128898
0.171752
0.336512
0.220961
0.185628
0.155703
0.133191
0.117075
0.105668
0.0975726
0.0918328
0.0878332
0.0851985
0.0837588
0.0835614
0.0849105
0.0884404
0.0952731
0.107406
0.128894
0.17178
0.335592
0.175886
0.15193
0.132485
0.117898
0.107219
0.0993648
0.0935347
0.0892211
0.0861115
0.0840306
0.0829393
0.0829693
0.0844785
0.0881352
0.0950822
0.107329
0.128922
0.171815
0.334461
0.148867
0.13127
0.117737
0.107755
0.100363
0.0947548
0.0904304
0.0871148
0.0846619
0.0830124
0.0822081
0.0824365
0.0840936
0.0878727
0.0949328
0.107291
0.128986
0.171859
0.333154
0.131826
0.118049
0.108044
0.100848
0.0954957
0.0913336
0.0880221
0.0854117
0.083447
0.0821353
0.0815679
0.0819694
0.0837622
0.0876582
0.0948286
0.107296
0.129084
0.171915
0.331705
0.120449
0.10934
0.101525
0.0960396
0.091973
0.0887546
0.0861344
0.0840294
0.0824324
0.0813879
0.0810175
0.0815703
0.0834874
0.0874942
0.0947709
0.107343
0.129217
0.171981
0.330147
0.112581
0.103328
0.0970029
0.0926301
0.0893767
0.0867806
0.0846398
0.0829035
0.0815879
0.0807577
0.0805529
0.0812386
0.0832691
0.0873801
0.0947581
0.107429
0.129379
0.172057
0.328512
0.106939
0.0990402
0.0937452
0.090118
0.0874211
0.085251
0.083447
0.0819846
0.0808883
0.0802323
0.0801678
0.0809706
0.0831048
0.087313
0.0947865
0.10755
0.129567
0.17214
0.326828
0.102718
0.0958666
0.0913188
0.0882106
0.0858976
0.084034
0.082487
0.0812359
0.0803127
0.0797999
0.0798552
0.0807616
0.0829901
0.0872887
0.0948514
0.107701
0.129774
0.172226
0.325118
0.0994061
0.0934173
0.0894448
0.0867178
0.0846839
0.0830492
0.0817002
0.0806198
0.0798416
0.0794497
0.0796079
0.0806063
0.0829209
0.087303
0.0949484
0.107876
0.129998
0.17232
0.323405
0.0966807
0.0914436
0.0879428
0.0855147
0.0836963
0.0822407
0.0810507
0.080111
0.0794552
0.0791691
0.0794198
0.0805013
0.0828939
0.0873525
0.0950743
0.108075
0.130245
0.172469
0.321915
0.0943462
0.0897903
0.0866974
0.0845187
0.082877
0.0815686
0.0805105
0.0796894
0.0791386
0.0789451
0.079279
0.0804378
0.0829048
0.0874372
0.095233
0.108305
0.130526
0.172707
0.320895
0.0922926
0.0883637
0.0856358
0.0836754
0.082186
0.0810036
0.0800583
0.079339
0.0788791
0.0787669
0.0791751
0.0804043
0.0829403
0.0875419
0.0954077
0.108547
0.130818
0.172957
0.320014
0.0904642
0.0871099
0.0847127
0.082949
0.0815955
0.080524
0.0796771
0.0790463
0.0786656
0.0786247
0.0790989
0.0803914
0.08299
0.087655
0.0955849
0.108786
0.1311
0.173187
0.319172
0.0888365
0.0859991
0.0839005
0.0823158
0.0810856
0.0801135
0.0793537
0.0788005
0.0784889
0.0785104
0.0790426
0.080391
0.0830453
0.0877668
0.0957538
0.109008
0.131358
0.173381
0.318341
0.0873988
0.0850147
0.0831819
0.0817596
0.0806421
0.0797599
0.0790774
0.0785924
0.0783412
0.078417
0.0789995
0.0803966
0.0830993
0.0878699
0.095906
0.109206
0.131581
0.173531
0.317526
0.0861432
0.0841456
0.0825456
0.0812693
0.0802544
0.0794533
0.0788398
0.0784146
0.0782159
0.0783385
0.0789643
0.0804028
0.0831466
0.0879585
0.0960354
0.109372
0.131763
0.173633
0.316737
0.085059
0.0833829
0.081983
0.0808365
0.0799142
0.0791863
0.078634
0.0782613
0.0781078
0.0782704
0.0789326
0.0804056
0.0831833
0.0880286
0.0961379
0.109502
0.131901
0.173688
0.315984
0.084132
0.0827171
0.081487
0.0804546
0.0796153
0.0789528
0.0784546
0.0781275
0.0780129
0.0782091
0.0789013
0.0804023
0.0832067
0.0880779
0.0962113
0.109594
0.131993
0.173698
0.315278
0.0833447
0.082139
0.081051
0.0801179
0.0793523
0.0787479
0.0782973
0.0780095
0.0779278
0.0781519
0.0788683
0.080391
0.0832155
0.0881052
0.096255
0.109649
0.132041
0.173666
0.314627
0.0826791
0.081639
0.0806692
0.0798218
0.079121
0.0785676
0.0781584
0.0779044
0.0778504
0.078097
0.0788323
0.080371
0.0832093
0.0881107
0.0962695
0.109667
0.132047
0.173596
0.314038
0.0821178
0.0812078
0.0803357
0.0795618
0.0789174
0.0784087
0.0780353
0.07781
0.0777788
0.0780434
0.0787927
0.0803422
0.0831885
0.0880953
0.0962563
0.109651
0.132015
0.173493
0.313515
0.0816449
0.0808365
0.0800448
0.0793335
0.0787381
0.0782681
0.0779255
0.0777245
0.077712
0.0779904
0.0787494
0.0803049
0.0831541
0.0880607
0.0962179
0.109603
0.131947
0.173362
0.313063
0.0812454
0.0805161
0.0797904
0.0791323
0.0785793
0.078143
0.0778269
0.0776464
0.0776489
0.0779377
0.0787027
0.0802602
0.0831077
0.088009
0.0961571
0.109528
0.131848
0.173208
0.312685
0.0809046
0.0802362
0.0795648
0.0789525
0.0784366
0.0780299
0.0777369
0.0775739
0.0775887
0.077885
0.0786529
0.0802091
0.083051
0.0879428
0.0960773
0.10943
0.131724
0.173035
0.31238
0.0806057
0.0799839
0.0793582
0.0787862
0.078304
0.0779243
0.0776524
0.0775049
0.0775302
0.077832
0.0786005
0.0801527
0.0829861
0.0878649
0.0959819
0.109313
0.13158
0.172851
0.312149
0.0803285
0.0797425
0.0791571
0.0786232
0.0781737
0.0778204
0.077569
0.0774364
0.0774714
0.0777777
0.0785456
0.0800921
0.0829148
0.0877781
0.0958751
0.109182
0.131421
0.17266
0.311986
0.0800493
0.0794916
0.0789453
0.0784508
0.0780359
0.0777108
0.0774812
0.0773646
0.0774098
0.0777208
0.078488
0.0800281
0.0828392
0.0876858
0.0957612
0.109042
0.131254
0.172469
0.311886
0.079744
0.0792114
0.0787075
0.0782573
0.0778816
0.0775886
0.0773839
0.0772856
0.0773429
0.0776601
0.0784275
0.0799621
0.0827619
0.0875918
0.0956456
0.108901
0.131088
0.172287
0.311834
0.079399
0.0788932
0.0784381
0.0780388
0.0777081
0.0774518
0.0772756
0.0771983
0.0772702
0.0775958
0.0783655
0.0798964
0.0826868
0.0875018
0.0955359
0.108769
0.130933
0.172126
0.311807
0.0790341
0.0785599
0.078158
0.0778127
0.0775288
0.0773104
0.0771639
0.077109
0.0771968
0.0775324
0.0783066
0.0798364
0.0826204
0.087424
0.0954423
0.108657
0.130806
0.172006
0.311776
0.0787412
0.0782985
0.0779397
0.0776359
0.0773875
0.0771981
0.0770743
0.077037
0.0771378
0.0774823
0.0782613
0.0797923
0.0825735
0.0873707
0.0953789
0.10858
0.130717
0.171918
0.311663
)
;

boundaryField
{
    leftWall
    {
        type            epsilonWallFunction;
        value           nonuniform List<scalar> 
50
(
0.128813
0.158753
0.200016
0.227573
0.247283
0.262178
0.27395
0.283645
0.292488
0.303654
0.313295
0.322222
0.33077
0.339017
0.346952
0.354583
0.362007
0.369513
0.377869
0.389107
0.409281
0.454386
0.542036
0.620591
0.675913
0.657023
0.622927
0.60811
0.602714
0.595687
0.582739
0.564468
0.543142
0.520626
0.49848
0.477645
0.458618
0.441594
0.426563
0.413417
0.402085
0.392748
0.386185
0.384424
0.392337
0.420955
0.491696
0.641514
0.946935
1.66334
)
;
    }
    rightWall
    {
        type            epsilonWallFunction;
        value           nonuniform List<scalar> 
50
(
0.130137
0.150108
0.192954
0.224414
0.248413
0.267095
0.28181
0.293511
0.308422
0.320077
0.327483
0.332042
0.334795
0.336411
0.337283
0.33763
0.337574
0.337185
0.336512
0.335592
0.334461
0.333154
0.331705
0.330147
0.328512
0.326828
0.325118
0.323405
0.321915
0.320895
0.320014
0.319172
0.318341
0.317526
0.316737
0.315984
0.315278
0.314627
0.314038
0.313515
0.313063
0.312685
0.31238
0.312149
0.311986
0.311886
0.311834
0.311807
0.311776
0.311663
)
;
    }
    lowerWall
    {
        type            epsilonWallFunction;
        value           nonuniform List<scalar> 
62
(
0.128813
0.293439
0.453624
0.593081
0.718662
0.837465
0.956101
1.0815
1.22085
1.38066
1.56535
1.77496
2.00247
2.2315
2.43595
2.58271
2.63852
2.57839
2.38645
2.13924
1.86915
1.59107
1.06799
1.06799
1.15016
1.71791
2.48032
3.57375
5.0816
7.06506
9.55544
10.283
2.75642
2.54522
2.91816
0.0354475
0.155803
0.214147
0.26056
0.307046
0.366898
0.473706
0.781171
0.0354475
0.300435
0.42383
0.471841
0.476614
0.466758
0.451392
0.43564
0.422917
0.413628
0.406465
0.399661
0.392326
0.38304
0.369174
0.345838
0.304278
0.231239
0.130137
)
;
    }
    atmosphere
    {
        type            inletOutlet;
        inletValue      uniform 0.1;
        value           nonuniform List<scalar> 
46
(
0.1
0.1
0.1
0.1
0.1
0.1
0.1
0.1
0.1
0.1
0.1
0.1
0.1
0.1
0.1
0.1
0.1
0.1
0.1
0.1
0.1
0.0859468
0.0821796
0.0807396
0.0800695
0.079578
0.0792096
0.0787412
0.0782985
0.0779397
0.0776359
0.0773875
0.0771981
0.0770743
0.077037
0.0771378
0.0774823
0.0782613
0.0797923
0.0825735
0.0873707
0.0953789
0.10858
0.130717
0.171918
0.311663
)
;
    }
    defaultFaces
    {
        type            empty;
    }
}


// ************************************************************************* //
