/*--------------------------------*- C++ -*----------------------------------*\
  =========                 |
  \\      /  F ield         | OpenFOAM: The Open Source CFD Toolbox
   \\    /   O peration     | Website:  https://openfoam.org
    \\  /    A nd           | Version:  9
     \\/     M anipulation  |
\*---------------------------------------------------------------------------*/
FoamFile
{
    format      ascii;
    class       volScalarField;
    location    "0.15";
    object      k;
}
// * * * * * * * * * * * * * * * * * * * * * * * * * * * * * * * * * * * * * //

dimensions      [0 2 -2 0 0 0 0];

internalField   nonuniform List<scalar> 
2268
(
0.013064
0.0197363
0.0337775
0.0588957
0.0921256
0.117056
0.12899
0.133501
0.136536
0.136873
0.133438
0.125621
0.114764
0.102796
0.0915927
0.0824317
0.0758435
0.0716395
0.0687566
0.0645671
0.0527062
0.0310145
0.0150017
0.0240962
0.0465288
0.068442
0.0982214
0.134895
0.188227
0.210844
0.202283
0.201258
0.202706
0.20166
0.196007
0.184206
0.16878
0.153139
0.140152
0.13163
0.127939
0.12701
0.1225
0.103349
0.0613023
0.0254415
0.0309673
0.0619606
0.0867984
0.123844
0.183352
0.260933
0.295894
0.275692
0.256335
0.243721
0.237139
0.229539
0.216254
0.198696
0.18022
0.163959
0.152211
0.14588
0.143144
0.137513
0.118973
0.0768522
0.029702
0.035405
0.0709097
0.095991
0.135392
0.202641
0.293263
0.347221
0.334511
0.303404
0.275583
0.259279
0.246918
0.231256
0.211959
0.191517
0.172553
0.157326
0.14718
0.141262
0.134597
0.119451
0.0869353
0.0304953
0.0382601
0.0757556
0.100059
0.138447
0.205358
0.297588
0.372162
0.381116
0.349122
0.307592
0.278403
0.258114
0.238294
0.216782
0.194695
0.173597
0.155251
0.141198
0.131718
0.123981
0.113001
0.0923695
0.0312495
0.0401392
0.0782546
0.101299
0.136927
0.19969
0.287413
0.373836
0.411254
0.392261
0.343466
0.299969
0.268654
0.242445
0.217761
0.194074
0.171556
0.151207
0.134501
0.122577
0.114339
0.106552
0.0955763
0.0366314
0.0414229
0.07948
0.101039
0.132832
0.189018
0.270276
0.358771
0.421485
0.428417
0.383136
0.327197
0.282298
0.247244
0.218041
0.192435
0.169048
0.147983
0.130471
0.118073
0.110642
0.105051
0.0985252
0.060019
0.0423526
0.0800912
0.100129
0.12759
0.176059
0.249054
0.333962
0.41197
0.451853
0.424192
0.361462
0.30142
0.255003
0.219585
0.191316
0.167208
0.146328
0.129491
0.118306
0.113055
0.11028
0.104822
0.0927736
0.0110235
0.0160479
0.0194267
0.0214406
0.02265
0.0234048
0.0239519
0.0242647
0.0243749
0.0243546
0.024239
0.0240355
0.0237212
0.0232315
0.0224411
0.0211312
0.0189284
0.015255
0.0123701
0.0204953
0.0346535
0.0403635
0.0434075
0.045233
0.0464855
0.0473346
0.0478473
0.0481569
0.0483161
0.0483434
0.0482229
0.0478903
0.04721
0.0459361
0.0436422
0.0395768
0.0323229
0.0190204
0.0268505
0.0469453
0.0532783
0.056068
0.0574806
0.0584264
0.059092
0.0595251
0.0597967
0.0599286
0.0599186
0.0597323
0.0592845
0.0584125
0.0568312
0.0540489
0.0491743
0.0403645
0.0221638
0.0324607
0.0575468
0.0634789
0.0654466
0.0660923
0.0665145
0.0668579
0.0671097
0.0672727
0.0673287
0.0672499
0.066983
0.0664272
0.0654047
0.0636134
0.0605308
0.0551829
0.0454202
0.0241811
0.0383946
0.0684845
0.0728575
0.0734473
0.0730552
0.0727942
0.0727009
0.0726918
0.0726921
0.0726363
0.0724663
0.0721084
0.0714473
0.0702942
0.068336
0.0650299
0.0593383
0.0488776
0.0255756
0.0454635
0.0811511
0.0823526
0.0808338
0.0791269
0.0780352
0.0774125
0.0770782
0.0768715
0.0766744
0.0763949
0.0759374
0.075172
0.0739
0.071799
0.0683087
0.0623386
0.051328
0.0265777
0.0546534
0.0962105
0.0923165
0.0878579
0.0846018
0.0825716
0.0813645
0.0806633
0.0802196
0.0798605
0.0794588
0.078896
0.0780277
0.0766452
0.0744174
0.0707669
0.0645587
0.053101
0.027317
0.0705213
0.113396
0.10229
0.0944097
0.0895207
0.0865328
0.0847328
0.0836532
0.082961
0.0824306
0.0819008
0.0812311
0.0802629
0.0787781
0.076436
0.0726435
0.066228
0.0544056
0.0278863
0.0436281
0.0808652
0.098738
0.119202
0.153898
0.210151
0.285467
0.370522
0.452195
0.48109
0.422228
0.337785
0.27172
0.225071
0.19167
0.166221
0.146038
0.13095
0.122081
0.11978
0.121286
0.119922
0.11275
0.0444101
0.0809259
0.0973567
0.112932
0.137451
0.178927
0.240345
0.317908
0.40561
0.492314
0.506617
0.408722
0.313041
0.245221
0.199713
0.169626
0.149461
0.136707
0.130963
0.132301
0.139915
0.150761
0.160223
0.0449037
0.0806325
0.0961683
0.108739
0.126742
0.157911
0.208056
0.277902
0.364502
0.465091
0.542687
0.480901
0.367011
0.277927
0.216114
0.177375
0.154461
0.141926
0.136977
0.138255
0.144612
0.153752
0.161218
0.0451663
0.0800863
0.0950603
0.105889
0.119918
0.144271
0.18595
0.248776
0.33242
0.436074
0.543845
0.534039
0.423784
0.319436
0.240117
0.189311
0.160645
0.146219
0.140589
0.140648
0.14437
0.149567
0.153375
0.0451955
0.07927
0.0938868
0.103771
0.1155
0.135465
0.170858
0.227194
0.306195
0.407571
0.527145
0.569395
0.477374
0.364704
0.269419
0.20481
0.167953
0.149831
0.142521
0.141075
0.142506
0.144558
0.145224
0.0449888
0.0781679
0.0925504
0.101962
0.112423
0.129609
0.160308
0.21074
0.284252
0.381904
0.503378
0.586068
0.524708
0.409446
0.301473
0.223052
0.176398
0.153104
0.143288
0.14017
0.139757
0.139575
0.138049
0.0445685
0.0768052
0.0910172
0.100212
0.10999
0.125392
0.152555
0.197772
0.265543
0.358403
0.478162
0.59061
0.564
0.450817
0.334476
0.243353
0.186037
0.156441
0.143439
0.138512
0.136633
0.134964
0.132051
0.043981
0.0752443
0.0893079
0.0984043
0.107798
0.121992
0.146438
0.187176
0.249378
0.33663
0.45149
0.58164
0.593549
0.48857
0.36789
0.265265
0.196913
0.160223
0.143493
0.136624
0.133532
0.130901
0.127175
0.0432858
0.0735702
0.0874815
0.0965171
0.105654
0.118957
0.141262
0.178235
0.235389
0.317056
0.425899
0.560233
0.613273
0.524515
0.401776
0.288291
0.208942
0.164732
0.143873
0.134925
0.13076
0.127499
0.12333
0.0425427
0.0718721
0.0856162
0.0945836
0.103504
0.116085
0.136656
0.1705
0.223287
0.300026
0.404161
0.536902
0.623083
0.559771
0.435109
0.31151
0.221856
0.170116
0.144875
0.133715
0.128526
0.124818
0.12042
0.0418029
0.0702284
0.08379
0.092663
0.101364
0.113317
0.132448
0.163693
0.212758
0.285184
0.385332
0.51624
0.629096
0.592076
0.465405
0.33372
0.235292
0.176405
0.146665
0.133174
0.126956
0.122879
0.118357
0.041104
0.0686981
0.082068
0.0908184
0.0992844
0.110668
0.12858
0.157655
0.203549
0.272128
0.36837
0.49637
0.629169
0.617486
0.49068
0.354245
0.249003
0.183539
0.149293
0.133391
0.126116
0.121686
0.117069
0.0404699
0.0673181
0.0804964
0.0891024
0.0973191
0.108177
0.125044
0.152304
0.19551
0.260672
0.35295
0.476023
0.620436
0.638608
0.512395
0.373619
0.262952
0.191401
0.152729
0.1344
0.126042
0.121238
0.116503
0.0399126
0.0661058
0.0791015
0.0875515
0.0955133
0.105885
0.121852
0.147591
0.188549
0.250825
0.339703
0.458451
0.605426
0.652618
0.531787
0.392415
0.276984
0.199778
0.15689
0.136204
0.126761
0.121536
0.116622
0.0394348
0.0650637
0.0778926
0.0861858
0.0938972
0.103825
0.119012
0.143475
0.18257
0.242488
0.328782
0.445042
0.592326
0.66092
0.549545
0.410135
0.290522
0.208325
0.161652
0.138793
0.12829
0.122583
0.117399
0.039034
0.0641839
0.0768669
0.0850119
0.0924876
0.102014
0.116528
0.139914
0.177446
0.235411
0.31967
0.434341
0.581952
0.665966
0.563625
0.425147
0.302698
0.216634
0.166862
0.142136
0.13063
0.12437
0.118802
0.0387044
0.0634535
0.0760142
0.0840272
0.0912914
0.100466
0.114401
0.136868
0.173063
0.229328
0.311772
0.424898
0.571818
0.665202
0.571798
0.436264
0.312868
0.224338
0.172351
0.146171
0.133755
0.126863
0.120776
0.0384398
0.0628571
0.0753208
0.0832254
0.090312
0.0991898
0.112635
0.134319
0.169339
0.224044
0.30469
0.415988
0.56115
0.659132
0.57454
0.443498
0.320758
0.231153
0.177944
0.150815
0.137607
0.129991
0.123239
0.0382352
0.0623781
0.0747721
0.0825999
0.0895544
0.0982017
0.111252
0.132274
0.16625
0.219461
0.298221
0.407341
0.550001
0.649811
0.573217
0.447196
0.326206
0.236833
0.183482
0.155971
0.142091
0.133641
0.126065
0.0380775
0.0619964
0.0743537
0.0821483
0.0890313
0.0975299
0.110291
0.130777
0.163818
0.215559
0.292266
0.398807
0.538375
0.638173
0.568329
0.44738
0.32897
0.24116
0.188842
0.161546
0.147085
0.137656
0.129086
0.0379347
0.0616909
0.0740582
0.0818781
0.0887678
0.0972196
0.109817
0.129904
0.162117
0.21237
0.286769
0.390193
0.525956
0.624187
0.559559
0.44364
0.328681
0.243971
0.193979
0.167464
0.152434
0.141827
0.132088
0.0377814
0.0614545
0.0738947
0.0818127
0.0888055
0.0973356
0.10992
0.129763
0.161256
0.209971
0.281711
0.381282
0.512232
0.60732
0.546067
0.435117
0.324885
0.245259
0.198976
0.173666
0.157939
0.145899
0.134824
0.0376651
0.0613153
0.0738941
0.0819901
0.0892013
0.0979644
0.11072
0.130506
0.161403
0.208513
0.277163
0.371938
0.496603
0.584998
0.52605
0.420489
0.317274
0.245359
0.204082
0.180073
0.163331
0.149565
0.137035
0.0377373
0.0613424
0.0741008
0.0824585
0.0900296
0.0992228
0.112386
0.132359
0.162834
0.20831
0.273445
0.362417
0.479133
0.553533
0.497757
0.399537
0.307105
0.245348
0.209442
0.186317
0.168129
0.152406
0.138393
0.0381629
0.0616161
0.0745457
0.0832658
0.0913814
0.101262
0.115148
0.13565
0.166015
0.209997
0.271335
0.353592
0.461909
0.518815
0.464182
0.375334
0.296188
0.245699
0.214774
0.191815
0.171767
0.154007
0.138623
0.0390053
0.0620979
0.0751943
0.0844489
0.0933553
0.104248
0.119265
0.140785
0.171599
0.214643
0.272318
0.346358
0.441689
0.484368
0.42877
0.349402
0.286337
0.246987
0.219616
0.195808
0.173617
0.15398
0.137533
0.0399634
0.0625887
0.0759621
0.0860912
0.0960845
0.108364
0.125004
0.148194
0.180361
0.223779
0.279448
0.344879
0.414305
0.438458
0.388599
0.324818
0.279696
0.249102
0.222921
0.197296
0.173041
0.152035
0.135061
0.0403765
0.0625745
0.0765888
0.0883656
0.0997697
0.113824
0.132566
0.158051
0.192464
0.237795
0.294568
0.352593
0.387803
0.390622
0.350354
0.307622
0.276994
0.250369
0.222946
0.195198
0.169574
0.148094
0.131319
0.0398917
0.0613529
0.076578
0.0910175
0.104321
0.120491
0.141496
0.169203
0.20532
0.251066
0.305511
0.350835
0.364532
0.352582
0.324314
0.298759
0.274545
0.247299
0.217749
0.188808
0.16318
0.142398
0.126616
0.0391045
0.0589287
0.0757571
0.09272
0.108571
0.126778
0.149297
0.177546
0.212216
0.252642
0.294432
0.323736
0.330752
0.321232
0.307243
0.289447
0.265456
0.236604
0.206491
0.178401
0.15446
0.135526
0.121413
0.0382555
0.0570112
0.0743681
0.0923303
0.110058
0.129344
0.151649
0.177734
0.207301
0.238322
0.266376
0.285557
0.294307
0.294361
0.287256
0.270729
0.24645
0.218429
0.190523
0.165429
0.144558
0.128264
0.116216
0.0373961
0.0565619
0.0740937
0.0912286
0.108768
0.127538
0.14814
0.170728
0.194657
0.218187
0.238745
0.254218
0.263665
0.265678
0.258865
0.242906
0.220782
0.196348
0.172727
0.151896
0.13474
0.121359
0.111451
0.0366086
0.0572674
0.0754767
0.09144
0.107543
0.124596
0.142744
0.161817
0.181201
0.19968
0.215615
0.227524
0.234193
0.234075
0.226384
0.212411
0.194156
0.17455
0.15587
0.139489
0.12597
0.115329
0.107383
0.035913
0.0581532
0.0770841
0.0922623
0.106741
0.121576
0.136898
0.152495
0.167838
0.182005
0.193771
0.201945
0.205537
0.203699
0.196357
0.184841
0.170686
0.155765
0.141606
0.129135
0.118729
0.110406
0.104115
0.0353205
0.0586655
0.0776871
0.0921611
0.105112
0.117722
0.130259
0.14261
0.154374
0.164866
0.173201
0.178523
0.18018
0.177804
0.171597
0.162524
0.151999
0.140961
0.130432
0.121048
0.113086
0.106597
0.101632
0.0348132
0.0587073
0.0771922
0.0908068
0.102339
0.11298
0.123122
0.132776
0.141692
0.149401
0.155303
0.158827
0.159575
0.157415
0.152603
0.145826
0.138043
0.129928
0.122098
0.115003
0.108876
0.103793
0.0998697
0.0343784
0.058449
0.0760692
0.088699
0.0989466
0.107969
0.11623
0.123846
0.130691
0.13647
0.140792
0.143292
0.143732
0.142081
0.138562
0.133638
0.127904
0.121928
0.116043
0.110614
0.105858
0.101861
0.0987599
0.0340171
0.0581061
0.0747828
0.0864215
0.0955512
0.103294
0.110149
0.116295
0.121698
0.126185
0.129508
0.131438
0.131838
0.130715
0.128245
0.12474
0.120581
0.116142
0.11168
0.107507
0.103822
0.100694
0.0982565
0.0337345
0.057819
0.0736063
0.0843383
0.0925276
0.0992709
0.105079
0.110163
0.114551
0.118149
0.120808
0.122387
0.122813
0.122116
0.120436
0.118001
0.11506
0.111831
0.108525
0.105403
0.102625
0.100225
0.0983248
0.0335288
0.057636
0.0726439
0.0825966
0.0900087
0.0959575
0.100954
0.105228
0.108847
0.111775
0.113929
0.115233
0.115657
0.115248
0.114136
0.112515
0.110579
0.108447
0.106258
0.104163
0.10219
0.100386
0.0988962
0.0333942
0.057563
0.0719287
0.0812296
0.087992
0.093281
0.0976073
0.101217
0.104206
0.106582
0.108313
0.109366
0.109742
0.109502
0.108775
0.107751
0.106644
0.105593
0.104774
0.10371
0.102361
0.100977
0.0997816
0.0332789
0.0574867
0.0713363
0.0801428
0.0864208
0.0912265
0.095071
0.0982104
0.100761
0.10276
0.104205
0.10509
0.105435
0.105301
0.104807
0.104135
0.103542
0.10328
0.103888
0.103056
0.102077
0.101127
0.100368
0.10921
0.110192
0.113763
0.120733
0.166003
0.169234
0.172705
0.172824
0.163302
0.163291
0.162497
0.16057
0.153905
0.153349
0.15199
0.149692
0.143744
0.142273
0.140454
0.138321
0.135221
0.133151
0.131037
0.128978
0.128376
0.125917
0.123603
0.121565
0.12301
0.120312
0.117862
0.115817
0.118897
0.116054
0.113507
0.111437
0.115846
0.112908
0.110281
0.108169
0.1137
0.110684
0.107976
0.105798
0.112338
0.109239
0.106431
0.10416
0.11167
0.108466
0.105529
0.10313
0.111635
0.108288
0.105184
0.102614
0.112185
0.108648
0.105327
0.102542
0.113274
0.109492
0.105903
0.102855
0.114842
0.110758
0.106848
0.103491
0.116808
0.112368
0.108089
0.104384
0.119055
0.114216
0.109533
0.105454
0.121432
0.116166
0.111063
0.106606
0.123754
0.118056
0.112543
0.107727
0.125809
0.119702
0.113821
0.108696
0.127387
0.120918
0.114741
0.10939
0.128224
0.121479
0.115124
0.109659
0.128107
0.121233
0.11486
0.109432
0.126925
0.120111
0.113914
0.108693
0.124686
0.118153
0.112331
0.107489
0.12154
0.115507
0.110246
0.105927
0.11777
0.112421
0.107857
0.104159
0.113738
0.10919
0.105391
0.10235
0.109812
0.106092
0.103053
0.100647
0.106276
0.103338
0.100994
0.0991549
0.103301
0.101045
0.0992953
0.0979346
0.100946
0.0992549
0.0979879
0.0970108
0.0991982
0.0979577
0.0970707
0.0963912
0.0980176
0.0971304
0.0965364
0.0960832
0.0973683
0.0967565
0.0963864
0.0961028
0.0972305
0.0968321
0.0966306
0.0964718
0.0975849
0.0973484
0.0972704
0.0971997
0.0983667
0.0982474
0.0982569
0.0982478
0.0993929
0.0993466
0.0994048
0.0994301
0.10014
0.100134
0.100191
0.100219
0.130701
0.134831
0.115695
0.103399
0.0962185
0.0918124
0.0891213
0.0874656
0.08639
0.0855932
0.0848649
0.0840325
0.0829164
0.0812831
0.0787762
0.0747773
0.0680653
0.0557621
0.0284487
0.165875
0.142318
0.123353
0.110596
0.102195
0.0967464
0.0932676
0.0910343
0.0895391
0.0884334
0.0874691
0.0864453
0.0851608
0.0833647
0.0806821
0.076469
0.0694663
0.0567459
0.0289406
0.155849
0.140467
0.125271
0.113741
0.105495
0.0998155
0.0959951
0.0934283
0.0916481
0.0903112
0.0891604
0.0879819
0.0865616
0.0846357
0.081816
0.0774426
0.0702399
0.0572727
0.0292808
0.145171
0.134523
0.123395
0.113985
0.106695
0.10135
0.0975592
0.0948918
0.0929708
0.0914931
0.0902156
0.0889254
0.0874043
0.0853818
0.0824623
0.0779795
0.0706557
0.0575654
0.0295504
0.134853
0.127703
0.119759
0.11247
0.106421
0.10172
0.0982092
0.0956244
0.0936892
0.0921572
0.0908127
0.0894546
0.0878677
0.0857813
0.0827982
0.0782525
0.0708715
0.057742
0.0297874
0.126118
0.121193
0.115567
0.110085
0.10526
0.101303
0.0982015
0.0958145
0.093957
0.0924392
0.0910786
0.0896914
0.0880709
0.0859508
0.0829371
0.0783684
0.070979
0.0578641
0.0300088
0.119042
0.115505
0.111506
0.10744
0.103676
0.100432
0.0977698
0.0956331
0.0939061
0.0924485
0.0911093
0.0897238
0.0880966
0.085969
0.0829528
0.0783928
0.07103
0.0579633
0.0302218
0.113467
0.110787
0.107902
0.104892
0.101979
0.0993516
0.0971004
0.0952206
0.0936453
0.0922727
0.0909789
0.089617
0.088004
0.0858896
0.0828931
0.0783657
0.0710535
0.0580552
0.0304294
0.109158
0.107
0.104864
0.102614
0.100351
0.0982226
0.0963251
0.0946818
0.0932578
0.0919794
0.0907437
0.0894196
0.0878355
0.0857498
0.0827892
0.078311
0.0710654
0.0581475
0.0306322
0.105886
0.104025
0.102378
0.100659
0.0988773
0.0971364
0.0955278
0.0940885
0.0928035
0.0916181
0.0904456
0.0891674
0.0876217
0.0855753
0.0826618
0.0782439
0.0710748
0.0582441
0.03083
0.103451
0.101725
0.100381
0.0990232
0.097586
0.0961372
0.0947566
0.0934864
0.092323
0.0912242
0.0901148
0.088886
0.0873844
0.085384
0.0825244
0.0781736
0.0710869
0.0583468
0.0310223
0.101687
0.0999746
0.0987953
0.0976708
0.0964745
0.0952406
0.094036
0.0929024
0.0918424
0.0908216
0.0897726
0.088594
0.0871392
0.0851884
0.0823868
0.0781066
0.071105
0.0584562
0.0312081
0.100469
0.0986671
0.0975481
0.0965609
0.0955264
0.0944472
0.0933761
0.0923514
0.091378
0.090426
0.0894335
0.0883043
0.0868973
0.0849977
0.0822555
0.0780472
0.0711311
0.0585726
0.0313866
0.0996995
0.0977191
0.0965772
0.0956542
0.0947211
0.0937501
0.0927789
0.0918404
0.0909392
0.0900478
0.0891076
0.0880261
0.0866664
0.0848181
0.0821354
0.0779982
0.0711663
0.0586955
0.0315569
0.0993035
0.0970645
0.095832
0.0949162
0.0940383
0.0931399
0.0922424
0.0913718
0.0905311
0.0896932
0.0888012
0.0877655
0.0864521
0.0846543
0.0820297
0.0779617
0.0712112
0.0588241
0.0317182
0.0992193
0.0966495
0.0952707
0.0943177
0.0934594
0.0926062
0.0917623
0.0909457
0.090156
0.0893656
0.0885184
0.0875264
0.0862579
0.0845089
0.0819405
0.0779387
0.0712656
0.0589575
0.0318696
0.0993899
0.0964275
0.0948582
0.0938337
0.0929682
0.0921395
0.0913339
0.0905604
0.0898144
0.0890668
0.0882614
0.087311
0.0860857
0.0843837
0.0818687
0.0779294
0.071329
0.0590943
0.0320106
0.0997581
0.0963556
0.0945636
0.0934429
0.0925504
0.0917308
0.0909521
0.0902136
0.0895058
0.0887973
0.0880312
0.0871206
0.0859367
0.0842793
0.0818146
0.0779335
0.0714003
0.0592329
0.0321404
0.100262
0.0963922
0.094359
0.0931262
0.0921932
0.0913719
0.0906121
0.0899028
0.089229
0.0885567
0.0878277
0.0869551
0.0858106
0.0841955
0.0817775
0.0779499
0.0714781
0.0593717
0.0322585
0.100834
0.0964958
0.0942185
0.092867
0.0918856
0.0910557
0.0903092
0.089625
0.0889823
0.088344
0.0876503
0.086814
0.0857069
0.0841313
0.0817564
0.0779773
0.0715607
0.0595086
0.0323647
0.101401
0.0966261
0.0941184
0.0926503
0.091618
0.0907758
0.0900393
0.0893776
0.0887639
0.0881577
0.0874977
0.0866959
0.0856241
0.0840852
0.0817496
0.078014
0.0716462
0.0596418
0.0324587
0.101889
0.0967453
0.0940377
0.0924632
0.0913818
0.0905265
0.0897986
0.0891578
0.0885716
0.0879961
0.0873683
0.0865992
0.0855605
0.0840554
0.081755
0.0780577
0.0717325
0.0597693
0.0325406
0.102228
0.0968212
0.0939588
0.0922948
0.0911701
0.090303
0.0895837
0.0889631
0.0884034
0.0878573
0.08726
0.0865218
0.0855139
0.0840396
0.0817706
0.0781064
0.0718173
0.0598892
0.0326112
0.102357
0.0968335
0.0938691
0.0921363
0.0909769
0.0901015
0.0893916
0.0887912
0.0882571
0.0877391
0.0871709
0.0864616
0.0854821
0.0840355
0.0817939
0.0781578
0.0718989
0.06
0.0326714
0.102206
0.0967358
0.0937485
0.0919803
0.0907983
0.0899187
0.0892199
0.0886398
0.0881307
0.0876396
0.0870987
0.0864164
0.0854628
0.0840408
0.0818228
0.07821
0.0719754
0.0601002
0.0327227
0.101776
0.0965203
0.0935858
0.0918159
0.0906272
0.0897516
0.0890668
0.0885074
0.0880224
0.0875569
0.0870416
0.086384
0.0854539
0.0840536
0.0818554
0.0782613
0.0720455
0.0601889
0.0327667
0.101101
0.0962004
0.0933851
0.0916442
0.090463
0.0895973
0.0889294
0.0883918
0.0879307
0.0874896
0.0869979
0.086363
0.0854539
0.0840723
0.0818904
0.0783107
0.0721085
0.0602654
0.0328048
0.100243
0.0958029
0.0931565
0.0914688
0.090307
0.0894571
0.0888082
0.0882926
0.0878547
0.0874364
0.0869669
0.0863526
0.0854621
0.0840963
0.0819275
0.0783581
0.0721648
0.06033
0.0328384
0.0992881
0.0953631
0.092914
0.0912954
0.0901623
0.0893327
0.0887049
0.0882114
0.0877958
0.0873989
0.0869495
0.0863536
0.0854792
0.0841267
0.0819677
0.0784049
0.0722159
0.0603838
0.032869
0.0983211
0.0949179
0.0926738
0.0911323
0.0900339
0.0892284
0.0886231
0.0881518
0.0877574
0.0873804
0.0869494
0.0863701
0.0855098
0.0841681
0.082016
0.0784561
0.0722664
0.0604306
0.0328937
0.0974174
0.0945011
0.0924527
0.0909898
0.08993
0.0891514
0.0885696
0.0881203
0.0877463
0.087388
0.0869739
0.0864097
0.085562
0.0842296
0.0820823
0.0785221
0.0723268
0.0604797
0.0329099
0.0966321
0.0941409
0.0922686
0.0908819
0.0898628
0.0891132
0.0885561
0.0881287
0.0877743
0.0874337
0.0870357
0.086486
0.0856505
0.084327
0.0821837
0.078621
0.0724151
0.0605462
0.0329245
0.0960003
0.0938618
0.092142
0.0908274
0.0898507
0.0891323
0.0886009
0.0881956
0.0878605
0.0875372
0.0871554
0.0866207
0.085799
0.0844866
0.0823497
0.0787856
0.0725657
0.0606613
0.0329524
0.0955451
0.0936887
0.0920988
0.0908526
0.0899201
0.089235
0.0887309
0.0883485
0.0880332
0.0877279
0.0873636
0.086847
0.0860438
0.0847495
0.0826278
0.0790713
0.0728415
0.0608878
0.0330283
0.095287
0.0936516
0.0921728
0.0909931
0.0901072
0.0894584
0.0889837
0.0886257
0.0883316
0.0880465
0.0877033
0.0872107
0.086436
0.0851749
0.0830894
0.0795664
0.0733509
0.0613461
0.0332337
0.0952523
0.0937891
0.0924081
0.0912948
0.0904593
0.0898504
0.0894081
0.0890771
0.088807
0.0885456
0.0882295
0.0877712
0.0870419
0.0858407
0.0838319
0.0803988
0.0742654
0.0622518
0.0337515
0.0954757
0.0941479
0.0928566
0.0918125
0.0910325
0.0904685
0.0900626
0.0897621
0.0895197
0.0892874
0.0890068
0.0885972
0.0879378
0.0868377
0.084972
0.081732
0.0758273
0.0639559
0.0349737
0.0959933
0.0947744
0.0935707
0.0926022
0.0918855
0.0913731
0.0910091
0.0907437
0.0905338
0.0903366
0.0901013
0.0897572
0.089198
0.0882525
0.0866229
0.0837354
0.0783214
0.0669552
0.0376581
0.0968256
0.0956991
0.0945894
0.0937097
0.0930689
0.0926181
0.0923032
0.0920786
0.0919062
0.0917501
0.0915689
0.0913061
0.0908766
0.0901412
0.0888532
0.0865194
0.0819811
0.0718089
0.0429802
0.0979461
0.0969135
0.0959234
0.0951601
0.0946169
0.0942424
0.0939863
0.0938086
0.0936777
0.0935659
0.0934429
0.0932694
0.0929868
0.0924995
0.0916362
0.0900425
0.0868173
0.0788956
0.0523372
0.099185
0.0983108
0.0975174
0.0969295
0.0965224
0.0962477
0.0960636
0.0959392
0.0958517
0.0957824
0.0957135
0.0956229
0.0954799
0.095236
0.0948064
0.0940168
0.0923885
0.0879207
0.0672258
0.100065
0.0995683
0.0991533
0.0988611
0.0986651
0.0985356
0.0984503
0.0983938
0.0983558
0.0983285
0.0983054
0.0982799
0.0982438
0.0981863
0.0980931
0.0979463
0.0977143
0.0971095
0.0905179
)
;

boundaryField
{
    leftWall
    {
        type            kqRWallFunction;
        value           nonuniform List<scalar> 
50
(
0.013064
0.0240962
0.0309673
0.035405
0.0382601
0.0401392
0.0414229
0.0423526
0.0436281
0.0444101
0.0449037
0.0451663
0.0451955
0.0449888
0.0445685
0.043981
0.0432858
0.0425427
0.0418029
0.041104
0.0404699
0.0399126
0.0394348
0.039034
0.0387044
0.0384398
0.0382352
0.0380775
0.0379347
0.0377814
0.0376651
0.0377373
0.0381629
0.0390053
0.0399634
0.0403765
0.0398917
0.0391045
0.0382555
0.0373961
0.0366086
0.035913
0.0353205
0.0348132
0.0343784
0.0340171
0.0337345
0.0335288
0.0333942
0.0332789
)
;
    }
    rightWall
    {
        type            kqRWallFunction;
        value           nonuniform List<scalar> 
50
(
0.0123701
0.0190204
0.0221638
0.0241811
0.0255756
0.0265777
0.027317
0.0278863
0.0284487
0.0289406
0.0292808
0.0295504
0.0297874
0.0300088
0.0302218
0.0304294
0.0306322
0.03083
0.0310223
0.0312081
0.0313866
0.0315569
0.0317182
0.0318696
0.0320106
0.0321404
0.0322585
0.0323647
0.0324587
0.0325406
0.0326112
0.0326714
0.0327227
0.0327667
0.0328048
0.0328384
0.032869
0.0328937
0.0329099
0.0329245
0.0329524
0.0330283
0.0332337
0.0337515
0.0349737
0.0376581
0.0429802
0.0523372
0.0672258
0.0905179
)
;
    }
    lowerWall
    {
        type            kqRWallFunction;
        value           nonuniform List<scalar> 
62
(
0.013064
0.0197363
0.0337775
0.0588957
0.0921256
0.117056
0.12899
0.133501
0.136536
0.136873
0.133438
0.125621
0.114764
0.102796
0.0915927
0.0824317
0.0758435
0.0716395
0.0687566
0.0645671
0.0527062
0.0310145
0.0150017
0.0150017
0.0254415
0.029702
0.0304953
0.0312495
0.0366314
0.060019
0.0927736
0.10921
0.110192
0.113763
0.120733
0.0110235
0.0204953
0.0268505
0.0324607
0.0383946
0.0454635
0.0546534
0.0705213
0.0110235
0.0160479
0.0194267
0.0214406
0.02265
0.0234048
0.0239519
0.0242647
0.0243749
0.0243546
0.024239
0.0240355
0.0237212
0.0232315
0.0224411
0.0211312
0.0189284
0.015255
0.0123701
)
;
    }
    atmosphere
    {
        type            inletOutlet;
        inletValue      uniform 0.1;
        value           nonuniform List<scalar> 
46
(
0.0332789
0.0574867
0.0713363
0.0801428
0.0864208
0.0912265
0.095071
0.0982104
0.100761
0.10276
0.104205
0.10509
0.105435
0.105301
0.104807
0.104135
0.103542
0.10328
0.1
0.1
0.1
0.1
0.1
0.1
0.1
0.1
0.1
0.1
0.1
0.1
0.1
0.1
0.1
0.1
0.1
0.1
0.1
0.1
0.1
0.1
0.1
0.1
0.1
0.1
0.1
0.1
)
;
    }
    defaultFaces
    {
        type            empty;
    }
}


// ************************************************************************* //
