/*--------------------------------*- C++ -*----------------------------------*\
  =========                 |
  \\      /  F ield         | OpenFOAM: The Open Source CFD Toolbox
   \\    /   O peration     | Website:  https://openfoam.org
    \\  /    A nd           | Version:  9
     \\/     M anipulation  |
\*---------------------------------------------------------------------------*/
FoamFile
{
    format      ascii;
    class       volScalarField;
    location    "0.15";
    object      nut;
}
// * * * * * * * * * * * * * * * * * * * * * * * * * * * * * * * * * * * * * //

dimensions      [0 2 -1 0 0 0 0];

internalField   nonuniform List<scalar> 
2268
(
9.79443e-05
8.6566e-05
0.00010058
0.000110316
0.000117919
0.00012439
0.00013029
0.000136003
0.000141806
0.000147866
0.000154225
0.000160781
0.000167278
0.000173326
0.000178433
0.000182069
0.000183704
0.000182834
0.000178722
0.000172669
0.000164726
0.000155028
0.000133108
0.000190359
0.000520619
0.000752545
0.000922293
0.00105482
0.00116443
0.00125994
0.00134707
0.00142906
0.00150667
0.00157828
0.00164022
0.00168745
0.00171439
0.00171574
0.00168717
0.00162575
0.0015304
0.00140118
0.00114853
0.000912754
0.000755738
0.000382617
0.000206049
0.000767813
0.00124609
0.0016473
0.00198959
0.00228751
0.00255296
0.00279505
0.00301912
0.00322582
0.00341095
0.00356633
0.00368137
0.00374507
0.00374801
0.00368414
0.00355171
0.00335271
0.0030881
0.00267846
0.00218534
0.00162305
0.000435745
0.000215421
0.000912215
0.00157213
0.00216917
0.00270614
0.00318863
0.00362461
0.00402222
0.00438664
0.00471801
0.0050106
0.00525361
0.00543312
0.00553485
0.00554736
0.00546513
0.00528963
0.0050252
0.00466498
0.00413287
0.00343002
0.0024973
0.000485659
0.000221701
0.00100754
0.00180037
0.00255316
0.00325509
0.00390041
0.00448976
0.00502746
0.00551697
0.00595762
0.00634292
0.00666088
0.00689599
0.00703247
0.00705861
0.00697076
0.00677289
0.00646359
0.00599974
0.00523662
0.00419371
0.00309362
0.00053848
0.000226245
0.0010742
0.00196684
0.00284264
0.00368074
0.00446493
0.00518757
0.00584773
0.00644616
0.00698098
0.0074452
0.00782635
0.00810831
0.00827507
0.00831586
0.00822934
0.00801899
0.00766401
0.00704667
0.00591233
0.00456705
0.0035759
0.000597163
0.000229719
0.00112175
0.0020914
0.00306487
0.00401404
0.0049143
0.0057503
0.00651553
0.00720748
0.00782271
0.0083536
0.00878737
0.00910778
0.00929933
0.00935303
0.00926969
0.00904842
0.00863567
0.00781291
0.0062579
0.00483839
0.00407088
0.000663211
0.000232502
0.00115616
0.00218639
0.0032381
0.00427726
0.00527297
0.00620348
0.00705713
0.00782801
0.00851085
0.00909708
0.00957344
0.00992368
0.0101332
0.0101954
0.0101131
0.00987862
0.00940007
0.00836264
0.00648542
0.00515724
0.00460002
0.000750991
0.000299784
8.78614e-05
9.86753e-05
0.00010255
0.000102674
0.000101624
0.000100425
9.91629e-05
9.80772e-05
9.72306e-05
9.66189e-05
9.60705e-05
9.5467e-05
9.4682e-05
9.34768e-05
9.1383e-05
8.74427e-05
7.96126e-05
0.00010268
0.000220193
0.000548053
0.000745692
0.000844935
0.000877007
0.000874068
0.000857699
0.000836892
0.000816688
0.000800282
0.000788282
0.00077958
0.000771589
0.000760669
0.000741366
0.000704897
0.000635805
0.000501255
0.000214781
0.000246151
0.000879465
0.00128502
0.00153953
0.00166527
0.0017025
0.0016917
0.00165894
0.00162123
0.00158827
0.00156253
0.00154177
0.00152031
0.00148917
0.00143449
0.00133464
0.00115511
0.000833091
0.000233976
0.000264757
0.00109106
0.00165549
0.00206273
0.00231277
0.00242909
0.00245517
0.00243055
0.00238621
0.00234154
0.00230339
0.00226974
0.00223199
0.00217524
0.00207631
0.00190056
0.00159719
0.00108599
0.000246445
0.000282215
0.00124099
0.00191706
0.00245196
0.00283363
0.00305534
0.0031472
0.00315185
0.00311301
0.00306229
0.00301351
0.00296636
0.0029097
0.00282247
0.00267203
0.00241173
0.00197867
0.00128622
0.000255256
0.00030334
0.0013883
0.00212249
0.00274177
0.0032435
0.00358455
0.00376653
0.00382097
0.00380037
0.00375007
0.00369293
0.003632
0.00355407
0.003432
0.00322407
0.00287332
0.00230917
0.00144737
0.000261775
0.000335606
0.00158925
0.00231356
0.00296107
0.0035562
0.00401976
0.00431084
0.00443385
0.00444392
0.00440073
0.00433806
0.00426347
0.00416237
0.0040019
0.00373205
0.00328767
0.00259476
0.00157792
0.000266734
0.000400383
0.00185859
0.00250478
0.00313174
0.00378464
0.0043659
0.00478001
0.0049878
0.00503942
0.00500929
0.0049441
0.00485639
0.00473081
0.0045294
0.00419498
0.00365646
0.00284022
0.00168397
0.000270584
0.000234977
0.00118625
0.00227919
0.00341818
0.00456073
0.00566841
0.00671175
0.00767214
0.00853852
0.00930226
0.00995279
0.0104758
0.0108551
0.0110786
0.0111448
0.0110623
0.0108176
0.0102729
0.00902389
0.00702634
0.00554232
0.00532117
0.00168793
0.000238041
0.00121106
0.00236506
0.00358452
0.00481721
0.00601903
0.00715572
0.00820406
0.00914858
0.00997642
0.0106729
0.0112206
0.011603
0.011813
0.0118629
0.0117826
0.0115765
0.0111115
0.0100418
0.00816211
0.0058948
0.00537235
0.00272039
0.000240627
0.00122842
0.00242791
0.00370386
0.00499511
0.00625412
0.00744512
0.00854338
0.00953079
0.0103901
0.0111009
0.0116409
0.0119941
0.0121651
0.012195
0.0121543
0.0120764
0.0118583
0.0111809
0.00936674
0.00644699
0.00511561
0.00346383
0.000242981
0.00124488
0.00248138
0.00379781
0.00512634
0.00641808
0.0076378
0.00876092
0.0097671
0.0106335
0.0113321
0.0118362
0.0121366
0.0122652
0.0123119
0.0123849
0.0125225
0.0126376
0.012284
0.0104913
0.00716568
0.00489187
0.00370978
0.000245204
0.00126392
0.00253415
0.00388125
0.00523343
0.00654254
0.00777533
0.00890787
0.00991679
0.0107717
0.0114363
0.0118842
0.012127
0.0122447
0.0123782
0.0126401
0.013044
0.0134175
0.0131422
0.0113836
0.00794058
0.00486676
0.00359116
0.000247321
0.00128706
0.00259107
0.00396396
0.00533233
0.00665041
0.00788769
0.00902058
0.010021
0.0108494
0.0114635
0.0118481
0.0120541
0.0122211
0.0125116
0.0130029
0.0136626
0.0140925
0.0136838
0.0119583
0.00867422
0.00517233
0.0035106
0.000249338
0.00131466
0.0026544
0.00405195
0.00543396
0.00675782
0.00799575
0.00912339
0.0101063
0.0108961
0.0114517
0.0117833
0.0119954
0.0122733
0.0127634
0.0134913
0.0142886
0.0145859
0.0139567
0.0122685
0.0093089
0.00581933
0.00379757
0.000251269
0.00134658
0.00272479
0.00414864
0.00554553
0.00687566
0.00811295
0.0092309
0.0101882
0.0109316
0.0114318
0.0117372
0.0120052
0.0124346
0.0131339
0.0140785
0.0148182
0.0148352
0.0140136
0.0123982
0.00984853
0.00673159
0.00459673
0.000253152
0.00138242
0.00280162
0.00425564
0.00567176
0.00701106
0.00824723
0.00935073
0.0102755
0.0109711
0.0114309
0.0117456
0.0121068
0.0126982
0.0135894
0.0146561
0.0152176
0.0149117
0.0139294
0.0124262
0.0103282
0.00779422
0.00585472
0.000255093
0.00142017
0.00288163
0.00437265
0.00581583
0.00716901
0.00840342
0.00948705
0.0103747
0.0110286
0.0114716
0.0118294
0.0123016
0.013037
0.0140539
0.0150436
0.0153515
0.0147924
0.0137299
0.0123974
0.0107711
0.00887639
0.00733598
0.000257338
0.00144951
0.00295515
0.00449664
0.00597995
0.00735386
0.00858574
0.00964448
0.0104942
0.0111191
0.0115718
0.0119969
0.0125799
0.0134353
0.0145355
0.0153068
0.015244
0.0144954
0.0134449
0.0123448
0.0111715
0.00986741
0.0087511
0.000260544
0.00143948
0.00300385
0.00462329
0.00616742
0.00757173
0.00880162
0.00983352
0.0106505
0.011264
0.0117492
0.0122501
0.012925
0.013871
0.0149432
0.0153708
0.0149561
0.0140831
0.0131252
0.0122941
0.0115131
0.0106623
0.00990076
0.000266589
0.00135084
0.00301426
0.00475587
0.00638836
0.00783551
0.00906751
0.0100771
0.0108733
0.0114933
0.0120234
0.0125908
0.0133151
0.0142807
0.0151152
0.0151476
0.0144951
0.0136024
0.01281
0.0122534
0.0117785
0.0112333
0.0107051
0.000279212
0.0012213
0.00301088
0.0049151
0.00666202
0.00816474
0.00940721
0.0104056
0.0111958
0.0118343
0.0124092
0.0130225
0.0137446
0.0146101
0.0150154
0.0146875
0.0139309
0.0131261
0.0125488
0.012234
0.0119643
0.011595
0.0111904
0.000297932
0.00122884
0.00308261
0.0051433
0.00701272
0.0085783
0.00984059
0.01084
0.0116346
0.0122947
0.0129125
0.0135635
0.014248
0.0147299
0.0146529
0.0141304
0.0133966
0.012756
0.0123955
0.0122489
0.0120812
0.0117871
0.0114285
0.000310697
0.0015219
0.00347252
0.00550314
0.00743011
0.00903219
0.0103087
0.0113169
0.0121249
0.0128029
0.0134171
0.0140049
0.0144797
0.0145763
0.0142764
0.0136935
0.0130448
0.0125771
0.0123738
0.0122965
0.012142
0.0118545
0.0114967
0.000315855
0.00183356
0.00385055
0.00595115
0.00790435
0.00951013
0.0107782
0.0117755
0.0125696
0.0132157
0.0137558
0.0141976
0.0144614
0.0144119
0.0140316
0.0134693
0.0129333
0.0125961
0.0124555
0.0123563
0.0121553
0.0118368
0.0114593
0.000309771
0.00198257
0.00417762
0.00639604
0.00834599
0.00991738
0.0111416
0.0120966
0.0128543
0.0134632
0.013946
0.014289
0.0144299
0.014305
0.0139376
0.0134521
0.013019
0.0127417
0.0125771
0.0123995
0.0121257
0.0117628
0.0113618
0.000304933
0.00212263
0.00450152
0.00676285
0.0086856
0.0102127
0.0113908
0.0123032
0.0130233
0.0135954
0.0140322
0.0143151
0.0144037
0.0142748
0.0139648
0.0135623
0.0131916
0.0129097
0.0126726
0.0124007
0.0120544
0.0116508
0.011232
0.00030347
0.0022515
0.00474089
0.00701698
0.00890822
0.010392
0.0115276
0.0124021
0.013089
0.0136302
0.0140352
0.0142892
0.0143688
0.0142685
0.014019
0.0136779
0.0133305
0.0130118
0.0126962
0.0123434
0.0119412
0.01151
0.0110839
0.000302922
0.00233942
0.00488144
0.00715339
0.00901379
0.0104594
0.0115579
0.0123986
0.0130551
0.0135689
0.0139506
0.0141908
0.014276
0.0142057
0.0140009
0.0136988
0.0133563
0.0130013
0.0126272
0.0122212
0.0117866
0.0113448
0.0109235
0.000301686
0.00238272
0.00493215
0.007182
0.00901027
0.0104222
0.0114878
0.0122969
0.0129231
0.0134092
0.0137684
0.0139965
0.0140853
0.0140347
0.0138586
0.0135823
0.0132443
0.0128699
0.0124659
0.0120363
0.0115933
0.011158
0.0107535
0.000299285
0.00238757
0.00490794
0.00711824
0.00890981
0.0102893
0.0113245
0.0121029
0.0126979
0.0131541
0.0134884
0.013701
0.0137871
0.0137467
0.0135894
0.0133341
0.0130075
0.0126333
0.012226
0.0117985
0.0113676
0.0109537
0.0105762
0.000295889
0.00236268
0.00482589
0.00698096
0.00872893
0.0100745
0.0110797
0.0118276
0.0123907
0.0128155
0.0131228
0.0133169
0.013396
0.0133607
0.0132181
0.0129831
0.0126761
0.0123183
0.0119278
0.0115217
0.0111186
0.0107376
0.0103947
0.000291857
0.00231726
0.00470399
0.00679158
0.00848853
0.00979644
0.0107704
0.0114878
0.012019
0.0124124
0.0126923
0.0128671
0.0129378
0.0129059
0.0127774
0.0125642
0.0122831
0.0119533
0.0115934
0.0112219
0.0108574
0.0105168
0.0102136
0.000287508
0.00226014
0.00455976
0.00657242
0.00821235
0.00947818
0.0104185
0.0111048
0.0116048
0.0119677
0.0122213
0.0123776
0.0124403
0.012412
0.0122983
0.012109
0.0118587
0.011564
0.0112433
0.0109146
0.0105949
0.0102993
0.0100385
0.000283125
0.00219857
0.00440833
0.00634398
0.00792406
0.00914456
0.0100488
0.0107029
0.011172
0.0115059
0.0117349
0.011874
0.0119297
0.0119058
0.0118076
0.0116439
0.0114271
0.0111723
0.0108957
0.0106139
0.0103422
0.0100931
0.00987495
0.000278895
0.00213777
0.00426098
0.00612258
0.00764397
0.00881862
0.00968553
0.0103068
0.0107456
0.0110517
0.0112575
0.011381
0.0114307
0.0114118
0.0113298
0.0111923
0.0110103
0.0107971
0.0105665
0.0103328
0.0101091
0.00990533
0.00972773
0.000274936
0.00208093
0.00412484
0.00591905
0.00738664
0.00851828
0.00934935
0.00993885
0.0103483
0.0106281
0.0108126
0.0109217
0.0109664
0.0109529
0.0108868
0.0107753
0.0106275
0.010455
0.0102693
0.0100819
0.00990331
0.00974126
0.00960013
0.00027131
0.00202969
0.00400347
0.00573904
0.00716023
0.0082546
0.00905405
0.00961504
0.00999812
0.0102543
0.0104195
0.0105161
0.0105566
0.0105485
0.0104976
0.0104103
0.0102943
0.010159
0.0100142
0.00986836
0.00972952
0.0096035
0.00949335
0.00026804
0.0019847
0.00389815
0.0055845
0.00696772
0.00803202
0.00880594
0.00934361
0.00970483
0.00994119
0.0100904
0.0101766
0.010214
0.0102111
0.0101738
0.0101078
0.0100195
0.0099162
0.00980574
0.00969454
0.00958849
0.00949182
0.0094066
0.000265127
0.00194616
0.00380917
0.00545561
0.00680911
0.00785055
0.00860531
0.00912546
0.00947007
0.00969132
0.00982824
0.00990662
0.00994205
0.00994376
0.00991782
0.00986931
0.00980342
0.00972579
0.0096423
0.00955832
0.0094778
0.0094038
0.00933776
0.000262583
0.00191443
0.00373716
0.00535275
0.00668394
0.00770858
0.00844944
0.00895693
0.00928959
0.00949998
0.00962815
0.0097011
0.00973547
0.00974109
0.00972411
0.00968909
0.00964027
0.00958202
0.00951882
0.00945488
0.0093932
0.00933596
0.00928407
0.000260482
0.0018906
0.0036843
0.00527831
0.00659354
0.00760547
0.00833539
0.00883296
0.00915656
0.00935902
0.00948103
0.00955035
0.00958429
0.00959305
0.00958277
0.00955765
0.00952119
0.00947686
0.00942816
0.00937838
0.00933004
0.00928465
0.00924279
0.000259048
0.00187712
0.00365576
0.00523845
0.00654283
0.00754337
0.00826199
0.00874928
0.00906412
0.00925964
0.00937672
0.00944337
0.00947714
0.00948832
0.00948296
0.00946489
0.00943712
0.00940246
0.00936371
0.00932358
0.00928419
0.00924671
0.00921153
0.000258814
0.00187831
0.00366123
0.00524502
0.00654189
0.00752826
0.00823063
0.00870317
0.00900639
0.00919364
0.00930549
0.00936955
0.00940306
0.00941609
0.00941439
0.00940147
0.00937987
0.00935191
0.00931991
0.00928612
0.00925238
0.00921969
0.0091884
0.000260958
0.00190073
0.00371676
0.00531755
0.006607
0.00757004
0.00824479
0.00869302
0.00897811
0.00915333
0.00925808
0.00931874
0.00935158
0.009366
0.00936726
0.00935844
0.00934163
0.00931873
0.00929163
0.00926217
0.00923188
0.00920164
0.00917193
0.0002678
0.00195368
0.00384763
0.00548542
0.00676058
0.00768107
0.00830832
0.00871681
0.00897354
0.00913068
0.00922507
0.00928069
0.00931206
0.00932744
0.00933131
0.00932622
0.00931382
0.00929556
0.0092729
0.00924721
0.0092196
0.0091906
0.00916078
0.000282741
0.00205301
0.0040954
0.00579093
0.00702935
0.00787242
0.00842216
0.00877003
0.00898538
0.00911684
0.00919661
0.00924486
0.00927348
0.00928909
0.00929521
0.00929374
0.00928589
0.00927269
0.00925515
0.00923418
0.00921037
0.00918346
0.00915323
0.000309257
0.00223898
0.00454009
0.00629491
0.00743849
0.00814677
0.00857974
0.00884357
0.00900421
0.00910242
0.00916311
0.00920119
0.00922519
0.00923973
0.0092472
0.00924886
0.00924547
0.00923768
0.00922616
0.00921159
0.00919469
0.00917464
0.00914648
0.000351815
0.00264293
0.00536821
0.00708338
0.00799709
0.00848714
0.0087621
0.00892265
0.00901921
0.00907885
0.00911684
0.00914186
0.00915873
0.00916999
0.00917693
0.00918019
0.00918014
0.00917713
0.00917148
0.00916399
0.00915744
0.0091566
0.00913722
0.000424146
0.00391517
0.00708311
0.00824025
0.00866035
0.00884291
0.00893587
0.00898836
0.00902001
0.00904007
0.00905342
0.00906271
0.00906938
0.00907418
0.00907748
0.00907945
0.00908022
0.00907987
0.00907851
0.00907667
0.00907933
0.00912793
0.00912613
0.000838267
0.000549822
0.000546187
0.000557653
0.00172685
0.00189722
0.00202446
0.00166843
0.00257095
0.00224767
0.00226328
0.00226233
0.00324796
0.00290441
0.00277384
0.0027668
0.00343051
0.00332574
0.0032731
0.00330146
0.00337615
0.00338568
0.00346189
0.00358241
0.00353285
0.00351573
0.00361315
0.00378045
0.00416781
0.00406903
0.00411853
0.0042751
0.00532361
0.0051527
0.0051382
0.00525377
0.0068156
0.00661938
0.0065581
0.00662033
0.00831721
0.00813544
0.00805076
0.00805981
0.00955546
0.00939599
0.0092976
0.00925946
0.0104201
0.010271
0.0101571
0.0100786
0.01093
0.0107794
0.0106478
0.0105363
0.0111674
0.011008
0.0108596
0.0107239
0.0112233
0.0110534
0.0108917
0.0107402
0.0111719
0.0109937
0.0108237
0.0106637
0.0110644
0.0108817
0.0107084
0.0105459
0.0109308
0.0107478
0.0105757
0.0104152
0.010786
0.0106068
0.0104395
0.0102845
0.0106357
0.010464
0.0103047
0.010158
0.010482
0.0103209
0.0101723
0.0100361
0.010326
0.0101783
0.0100426
0.00991881
0.0101698
0.0100374
0.00991628
0.00980628
0.0100165
0.00990073
0.0097952
0.00969966
0.00987014
0.00977141
0.00968168
0.00960058
0.00973476
0.00965266
0.00957811
0.00951074
0.00961381
0.00954706
0.00948638
0.00943139
0.0095094
0.00945607
0.00940741
0.00936309
0.00942202
0.00937986
0.00934114
0.00930561
0.00935076
0.0093175
0.00928666
0.00925808
0.00929379
0.00926733
0.00924254
0.00921929
0.00924888
0.00922746
0.00920715
0.00918788
0.00921383
0.00919601
0.00917891
0.00916251
0.00918674
0.00917132
0.00915639
0.00914195
0.00916602
0.009152
0.00913836
0.00912512
0.00915042
0.00913691
0.00912377
0.00911104
0.00913885
0.00912507
0.00911172
0.00909889
0.00913011
0.00911552
0.00910143
0.00908803
0.00912258
0.00910719
0.00909225
0.00907813
0.00911463
0.00909929
0.00908401
0.00906944
0.00910723
0.00909296
0.00907804
0.0090635
0.00134395
0.00225924
0.00276516
0.00334621
0.00402602
0.00475896
0.00537734
0.00575281
0.00590215
0.00591239
0.00585095
0.00574453
0.00557837
0.00530767
0.004866
0.00417702
0.00317365
0.00181991
0.000275383
0.00175087
0.0024252
0.00298871
0.00351067
0.00417654
0.00505173
0.00592063
0.00651963
0.00679899
0.00685823
0.00679909
0.00666547
0.00644472
0.00608603
0.00551622
0.00465946
0.00346399
0.00192775
0.000279076
0.00228761
0.00263592
0.00318065
0.00366698
0.00430692
0.00527556
0.00633768
0.00711319
0.00749232
0.00758777
0.00752883
0.00736992
0.00709936
0.00666245
0.00598351
0.00499191
0.00365293
0.00199231
0.000281407
0.0029289
0.00326155
0.0036454
0.00401365
0.00463034
0.00566334
0.00681207
0.0076418
0.00804049
0.00813834
0.00806773
0.00788266
0.0075683
0.00706637
0.00630097
0.00520822
0.00376854
0.00202797
0.000282846
0.00355071
0.0038973
0.00420998
0.00457777
0.00526911
0.00633176
0.00741165
0.00814734
0.00848308
0.00854548
0.00844992
0.00823779
0.00788642
0.00733353
0.00650368
0.00533948
0.00383326
0.00204473
0.000283719
0.0039409
0.00432014
0.0047099
0.00524323
0.00607925
0.00712126
0.00803894
0.00860422
0.00883055
0.00883571
0.00870821
0.00847038
0.00808937
0.00749859
0.00662328
0.00541139
0.00386391
0.00204942
0.000284234
0.00424051
0.00474383
0.0053076
0.0060433
0.00697198
0.00790692
0.00860517
0.00897635
0.00908438
0.00902955
0.00887112
0.00861177
0.00820854
0.00759109
0.00668532
0.00544338
0.00387242
0.00204651
0.000284513
0.00476761
0.00540043
0.00613178
0.00698181
0.00786306
0.00859483
0.00905305
0.0092445
0.00925016
0.0091455
0.00896281
0.00868782
0.00826928
0.00763406
0.00670893
0.00544933
0.0038668
0.00203886
0.000284625
0.00569715
0.00637462
0.00714798
0.00794467
0.00864084
0.0091221
0.00936118
0.00940983
0.00934035
0.00920149
0.00900339
0.00871887
0.00829078
0.00764442
0.00670764
0.00543869
0.00385229
0.00202825
0.00028461
0.00694626
0.00753315
0.00818386
0.00878168
0.00922512
0.00946925
0.00953774
0.0094881
0.00937193
0.00921438
0.00900917
0.00872031
0.00828703
0.00763409
0.00669075
0.00541771
0.00383227
0.00201582
0.00028449
0.00823911
0.00862886
0.00904951
0.00939127
0.00959365
0.00965403
0.00960879
0.00950176
0.00936271
0.00919884
0.00899286
0.00870339
0.00826782
0.0076112
0.00666443
0.00539052
0.00380893
0.00200228
0.000284281
0.00930159
0.00946569
0.00964188
0.00975358
0.00977381
0.00971513
0.00960649
0.0094735
0.00932848
0.0091666
0.0089639
0.00867606
0.00823986
0.00758121
0.00663278
0.00535982
0.00378374
0.00198816
0.000283995
0.0100105
0.00998202
0.00996249
0.00991037
0.00981758
0.00969574
0.00956054
0.00942228
0.00928154
0.00912628
0.00892887
0.00864368
0.00820761
0.00754771
0.00659852
0.00532744
0.00375772
0.00197385
0.000283643
0.010388
0.0102231
0.0100752
0.00992757
0.00977857
0.00963272
0.00949383
0.00936186
0.00923045
0.00908367
0.00889213
0.00860975
0.00817396
0.00751306
0.00656346
0.00529465
0.00373162
0.00195964
0.000283236
0.0105225
0.0102756
0.0100584
0.00986694
0.00969935
0.00955239
0.00942162
0.00930099
0.00918051
0.00904234
0.00885635
0.00857645
0.00814074
0.00747879
0.00652882
0.00526234
0.00370599
0.00194578
0.000282785
0.0105079
0.0102215
0.00997651
0.00977359
0.00960801
0.00947081
0.00935269
0.00924451
0.00913457
0.00900421
0.008823
0.00854504
0.00810906
0.00744587
0.00649541
0.00523114
0.00368128
0.00193247
0.000282299
0.0104174
0.0101188
0.00987155
0.00967474
0.00952015
0.00939622
0.00929117
0.00919454
0.00909387
0.00897014
0.00879282
0.00851618
0.00807957
0.0074149
0.00646379
0.00520153
0.00365781
0.00191987
0.000281789
0.0102972
0.0100028
0.0097659
0.0095827
0.00944244
0.00933174
0.00923833
0.00915156
0.00905864
0.00894032
0.00876602
0.00849015
0.00805255
0.00738621
0.00643428
0.00517379
0.00363582
0.00190811
0.000281262
0.010172
0.00989065
0.0096696
0.00950217
0.00937595
0.00927717
0.0091938
0.0091152
0.00902854
0.00891454
0.00874251
0.00846692
0.00802806
0.00735989
0.00640701
0.00514806
0.0036154
0.00189723
0.000280727
0.0100519
0.00978845
0.00958527
0.00943347
0.00931996
0.00923138
0.00915631
0.00908435
0.00900283
0.0088923
0.00872196
0.00844621
0.00800585
0.00733575
0.00638183
0.00512423
0.00359646
0.00188715
0.000280189
0.00993975
0.00969692
0.00951213
0.0093751
0.00927289
0.00919299
0.00912478
0.00905824
0.00898075
0.00887276
0.00870339
0.00842724
0.00798535
0.00731335
0.00635839
0.00510188
0.00357845
0.00187701
0.000279701
0.00983524
0.00961474
0.00944833
0.00932516
0.00923303
0.00916062
0.00909818
0.00903613
0.00896188
0.00885578
0.00868683
0.00840971
0.00796585
0.00729167
0.00633547
0.00507995
0.00356054
0.00186639
0.000279375
0.00973746
0.00954034
0.00939205
0.00928192
0.00919893
0.00913309
0.00907564
0.00901738
0.00894582
0.00884116
0.0086723
0.00839398
0.007948
0.00727153
0.00631397
0.00505923
0.00354355
0.00185649
0.000279096
0.00964593
0.00947258
0.00934192
0.00924405
0.00916943
0.0091095
0.00905642
0.00900146
0.00893216
0.00882866
0.00865973
0.00838017
0.0079321
0.00725341
0.0062945
0.00504039
0.00352814
0.00184768
0.00027883
0.00956086
0.00941092
0.00929706
0.00921064
0.0091437
0.00908911
0.00903995
0.0089879
0.00892059
0.00881808
0.00864904
0.00836831
0.00791833
0.00723759
0.00627744
0.00502387
0.00351468
0.00184016
0.00027857
0.0094829
0.00935519
0.00925697
0.00918105
0.00912113
0.0090714
0.00902578
0.00897634
0.00891082
0.00880919
0.00864009
0.00835838
0.00790675
0.00722424
0.00626301
0.00500991
0.0035034
0.00183401
0.000278314
0.0094128
0.00930541
0.00922131
0.00915487
0.00910128
0.00905595
0.00901354
0.00896647
0.00890258
0.00880182
0.00863277
0.00835032
0.00789736
0.00721342
0.00625131
0.00499863
0.00349436
0.00182924
0.000278067
0.00935108
0.00926157
0.00918986
0.00913176
0.00908382
0.00904245
0.00900294
0.00895804
0.00889567
0.0087958
0.00862694
0.00834402
0.00789011
0.00720511
0.00624235
0.00499002
0.00348756
0.0018258
0.000277832
0.00929782
0.0092235
0.00916234
0.00911145
0.00906847
0.00903063
0.00899374
0.00895083
0.00888991
0.00879095
0.00862246
0.00833938
0.00788492
0.00719922
0.00623604
0.00498402
0.00348293
0.00182363
0.000277612
0.00925267
0.00919084
0.00913847
0.00909369
0.009055
0.00902028
0.00898575
0.00894466
0.00888513
0.00878714
0.00861921
0.00833628
0.00788164
0.00719563
0.00623227
0.00498051
0.00348034
0.00182265
0.000277409
0.00921492
0.00916308
0.00911788
0.00907821
0.0090432
0.00901122
0.0089788
0.00893939
0.0088812
0.00878425
0.00861705
0.00833458
0.00788015
0.00719418
0.00623087
0.00497931
0.00347966
0.00182275
0.000277226
0.00918367
0.00913964
0.00910018
0.00906473
0.00903286
0.00900327
0.00897275
0.00893489
0.00887799
0.00878214
0.00861587
0.00833414
0.00788028
0.00719471
0.00623165
0.00498025
0.00348073
0.00182385
0.000277064
0.00915791
0.00911988
0.00908497
0.00905298
0.00902377
0.00899626
0.00896745
0.00893103
0.0088754
0.00878072
0.00861554
0.00833484
0.00788188
0.00719703
0.00623442
0.00498314
0.00348338
0.00182583
0.000276925
0.00913665
0.00910314
0.0090718
0.00904265
0.0090157
0.00899004
0.00896276
0.00892769
0.00887332
0.00877988
0.00861596
0.00833652
0.00788478
0.00720094
0.00623896
0.00498775
0.00348744
0.0018286
0.000276808
0.00911895
0.00908875
0.0090602
0.00903339
0.0090084
0.00898439
0.00895852
0.00892474
0.00887163
0.00877949
0.00861699
0.00833905
0.0078888
0.00720623
0.00624503
0.00499387
0.00349272
0.00183203
0.000276715
0.00910392
0.00907604
0.00904966
0.00902483
0.00900158
0.00897908
0.00895457
0.00892205
0.00887021
0.00877945
0.00861849
0.00834226
0.00789373
0.00721266
0.00625238
0.00500124
0.003499
0.001836
0.000276646
0.0090907
0.00906433
0.00903966
0.00901656
0.00899493
0.00897389
0.0089507
0.00891944
0.00886891
0.00877959
0.0086203
0.00834594
0.00789933
0.00721995
0.00626071
0.00500956
0.00350605
0.00184037
0.000276598
0.00907858
0.00905306
0.00902976
0.00900824
0.0089882
0.00896861
0.00894676
0.00891679
0.00886759
0.00877979
0.00862224
0.00834986
0.00790532
0.00722774
0.00626962
0.00501846
0.00351354
0.00184494
0.000276569
0.00906709
0.00904192
0.00901978
0.00899978
0.0089813
0.00896319
0.00894269
0.00891402
0.00886618
0.00877989
0.00862412
0.00835375
0.0079113
0.00723559
0.00627863
0.00502746
0.00352106
0.00184945
0.000276555
0.00905627
0.00903118
0.00901006
0.00899148
0.00897451
0.00895783
0.00893865
0.00891124
0.00886469
0.00877984
0.00862573
0.00835727
0.00791682
0.0072429
0.00628706
0.00503588
0.00352805
0.00185353
0.000276549
0.0090469
0.0090219
0.00900165
0.00898431
0.00896863
0.00895317
0.00893511
0.00890876
0.00886329
0.00877964
0.00862692
0.00836005
0.00792128
0.00724888
0.00629402
0.00504286
0.00353375
0.00185661
0.000276541
0.00904084
0.00901605
0.00899637
0.0089798
0.00896493
0.00895022
0.00893285
0.00890714
0.00886234
0.00877942
0.00862755
0.00836165
0.00792394
0.00725252
0.00629835
0.0050473
0.00353748
0.00185865
0.000276506
)
;

boundaryField
{
    leftWall
    {
        type            nutkWallFunction;
        Cmu             0.09;
        kappa           0.41;
        E               9.8;
        value           nonuniform List<scalar> 
50
(
1.78743e-05
2.18729e-05
2.34924e-05
2.44488e-05
2.50849e-05
2.55428e-05
2.58921e-05
2.61718e-05
2.6421e-05
2.67283e-05
2.69874e-05
2.72226e-05
2.74438e-05
2.76536e-05
2.78524e-05
2.80412e-05
2.82229e-05
2.84056e-05
2.86089e-05
2.88834e-05
2.93794e-05
3.06094e-05
3.28216e-05
3.46243e-05
3.56918e-05
3.51879e-05
3.44694e-05
3.41719e-05
3.4062e-05
3.39003e-05
3.35953e-05
3.31586e-05
3.26369e-05
3.20707e-05
3.14973e-05
3.09414e-05
3.0419e-05
2.99387e-05
2.95039e-05
2.91149e-05
2.87731e-05
2.84874e-05
2.82858e-05
2.82366e-05
2.84944e-05
2.93733e-05
3.13517e-05
3.49207e-05
4.06433e-05
5.01613e-05
)
;
    }
    rightWall
    {
        type            nutkWallFunction;
        Cmu             0.09;
        kappa           0.41;
        E               9.8;
        value           nonuniform List<scalar> 
50
(
1.61803e-05
2.23613e-05
2.50526e-05
2.67722e-05
2.79741e-05
2.88552e-05
2.95201e-05
3.00323e-05
3.06658e-05
3.11476e-05
3.14484e-05
3.16318e-05
3.17421e-05
3.18067e-05
3.18416e-05
3.18554e-05
3.18533e-05
3.18379e-05
3.18113e-05
3.17748e-05
3.17298e-05
3.16777e-05
3.16199e-05
3.15575e-05
3.14918e-05
3.1424e-05
3.13549e-05
3.12855e-05
3.12242e-05
3.11824e-05
3.11464e-05
3.11119e-05
3.1078e-05
3.10446e-05
3.10122e-05
3.09813e-05
3.09523e-05
3.09256e-05
3.09014e-05
3.08799e-05
3.08613e-05
3.08457e-05
3.08332e-05
3.08237e-05
3.08171e-05
3.08131e-05
3.0811e-05
3.081e-05
3.08088e-05
3.08041e-05
)
;
    }
    lowerWall
    {
        type            nutkWallFunction;
        Cmu             0.09;
        kappa           0.41;
        E               9.8;
        value           nonuniform List<scalar> 
62
(
8.81503e-06
1.0424e-05
1.19766e-05
1.30379e-05
1.3854e-05
1.45396e-05
1.51598e-05
1.57586e-05
1.6368e-05
1.70074e-05
1.76823e-05
1.83815e-05
1.90761e-05
1.97211e-05
2.026e-05
2.06314e-05
2.07763e-05
2.06434e-05
2.01717e-05
1.95124e-05
1.87076e-05
1.77707e-05
1.56375e-05
1.56375e-05
4.04064e-05
4.55979e-05
5.0816e-05
5.65388e-05
6.27173e-05
6.92901e-05
7.7411e-05
8.80916e-05
6.19478e-05
6.05507e-05
6.31194e-05
4.34696e-08
2.28432e-05
2.63585e-05
2.87329e-05
3.08566e-05
3.33119e-05
3.70492e-05
4.4991e-05
4.34696e-08
2.97992e-06
4.69537e-06
5.27498e-06
5.32054e-06
5.19481e-06
5.01341e-06
4.82265e-06
4.66318e-06
4.54295e-06
4.4509e-06
4.36394e-06
4.2688e-06
4.14609e-06
3.95848e-06
3.63116e-06
3.0081e-06
1.7488e-06
7.30402e-07
)
;
    }
    atmosphere
    {
        type            calculated;
        value           nonuniform List<scalar> 
46
(
0.009
0.009
0.009
0.009
0.009
0.009
0.009
0.009
0.009
0.009
0.009
0.009
0.009
0.009
0.009
0.009
0.009
0.009
0.009
0.009
0.009
0.00912793
0.00912613
0.00910723
0.00909296
0.00907804
0.0090635
0.00904084
0.00901605
0.00899637
0.0089798
0.00896493
0.00895022
0.00893285
0.00890714
0.00886234
0.00877942
0.00862755
0.00836165
0.00792394
0.00725252
0.00629835
0.0050473
0.00353748
0.00185865
0.000276506
)
;
    }
    defaultFaces
    {
        type            empty;
    }
}


// ************************************************************************* //
