/*--------------------------------*- C++ -*----------------------------------*\
  =========                 |
  \\      /  F ield         | OpenFOAM: The Open Source CFD Toolbox
   \\    /   O peration     | Website:  https://openfoam.org
    \\  /    A nd           | Version:  9
     \\/     M anipulation  |
\*---------------------------------------------------------------------------*/
FoamFile
{
    format      ascii;
    class       volScalarField;
    location    "0.15";
    object      p;
}
// * * * * * * * * * * * * * * * * * * * * * * * * * * * * * * * * * * * * * //

dimensions      [1 -1 -2 0 0 0 0];

internalField   nonuniform List<scalar> 
2268
(
-6.62355
-19.4753
-33.6644
-12.8443
-4.90962
-4.0508
-4.31801
-4.6553
-4.83985
-4.87191
-4.73832
-4.51305
-4.27314
-4.05178
-3.85985
-3.69815
-3.56413
-3.45675
-3.3925
-3.4137
-3.53653
-3.68552
-3.74329
55.8995
41.9177
20.1527
1.80109
-2.59637
-3.7281
-4.23321
-4.62422
-4.85271
-4.89011
-4.75117
-4.5251
-4.27947
-4.05118
-3.85344
-3.68808
-3.55356
-3.44891
-3.38638
-3.40191
-3.51563
-3.65851
-3.70338
101.779
80.9551
39.5888
-1.69477
-2.71363
-3.62999
-4.12961
-4.58631
-4.85399
-4.91171
-4.78634
-4.56062
-4.30787
-4.06928
-3.86151
-3.68835
-3.54977
-3.4448
-3.38035
-3.38608
-3.49184
-3.63531
-3.68008
129.565
99.485
41.9849
-3.83665
-3.2613
-3.6614
-4.10526
-4.56533
-4.86007
-4.93672
-4.82196
-4.59486
-4.33484
-4.08588
-3.86724
-3.6847
-3.53991
-3.43193
-3.36282
-3.35717
-3.46053
-3.61584
-3.66328
144.201
107.545
45.7226
-4.06956
-3.7365
-3.72666
-4.13659
-4.56835
-4.87436
-4.96311
-4.85221
-4.62043
-4.35372
-4.09639
-3.86851
-3.6771
-3.52576
-3.41418
-3.34088
-3.32458
-3.42243
-3.59331
-3.64263
150.4
110.654
50.6425
-4.44922
-4.21936
-3.77163
-4.17546
-4.58626
-4.89725
-4.98813
-4.87565
-4.63744
-4.36527
-4.10219
-3.8676
-3.66857
-3.51065
-3.39488
-3.31831
-3.29243
-3.37392
-3.55025
-3.61214
151.236
110.736
54.8747
-4.26432
-4.98021
-3.87776
-4.2267
-4.61861
-4.92881
-5.00541
-4.88785
-4.64653
-4.37034
-4.10347
-3.86477
-3.65989
-3.49566
-3.37484
-3.29436
-3.25725
-3.3083
-3.47633
-3.596
148.961
109.26
58.5406
-0.736924
-7.61225
-4.4656
-4.29729
-4.65406
-4.95075
-5.0047
-4.88365
-4.64853
-4.37226
-4.10204
-3.85997
-3.65063
-3.48075
-3.35385
-3.26621
-3.2134
-3.22714
-3.37724
-3.61285
-2.12603
-2.13504
-2.13958
-2.13614
-2.12444
-2.10568
-2.08233
-2.05657
-2.03017
-2.00442
-1.98023
-1.9583
-1.93917
-1.92332
-1.9111
-1.90272
-1.89812
-1.89677
-1.89797
-2.06491
-2.07343
-2.07931
-2.07681
-2.06598
-2.04774
-2.02477
-1.9993
-1.97315
-1.94758
-1.9235
-1.90165
-1.88254
-1.86667
-1.85435
-1.84572
-1.8407
-1.83878
-1.83949
-2.00692
-2.01475
-2.0216
-2.01889
-2.00835
-1.99036
-1.96766
-1.94243
-1.91646
-1.89101
-1.86702
-1.84519
-1.82606
-1.81008
-1.79753
-1.78852
-1.78291
-1.78038
-1.78076
-1.95282
-1.96003
-1.96797
-1.96361
-1.95236
-1.93388
-1.91093
-1.88557
-1.85952
-1.83404
-1.81
-1.78811
-1.76887
-1.75269
-1.73984
-1.73042
-1.72431
-1.72141
-1.7218
-1.90569
-1.9097
-1.91885
-1.9112
-1.89811
-1.87831
-1.85453
-1.82863
-1.80224
-1.77653
-1.75233
-1.73028
-1.71086
-1.69444
-1.68129
-1.67151
-1.66506
-1.66205
-1.66259
-1.87086
-1.86462
-1.87471
-1.86175
-1.84554
-1.82362
-1.79845
-1.77164
-1.74465
-1.71853
-1.69405
-1.67177
-1.65212
-1.63546
-1.62203
-1.61197
-1.60532
-1.60234
-1.60309
-1.85856
-1.82825
-1.83632
-1.81557
-1.79466
-1.76976
-1.74266
-1.71458
-1.68675
-1.66008
-1.6352
-1.61262
-1.59271
-1.5758
-1.56213
-1.55188
-1.54515
-1.54229
-1.54324
-1.88784
-1.81534
-1.80446
-1.77313
-1.74557
-1.71676
-1.68719
-1.65752
-1.62864
-1.60126
-1.5759
-1.55295
-1.53275
-1.51558
-1.50171
-1.49131
-1.48459
-1.4819
-1.48301
142.59
106.431
64.5886
17.9252
-1.89479
-3.00629
-4.37549
-4.66204
-4.86488
-4.95491
-4.83884
-4.6229
-4.35509
-4.08339
-3.8389
-3.62613
-3.44984
-3.31254
-3.20895
-3.1318
-3.10025
-3.14708
-3.16004
134.424
102.537
70.2861
35.7822
5.66084
-2.69578
-1.90447
-3.7547
-4.54804
-4.81885
-4.66401
-4.47385
-4.25372
-4.00279
-3.76749
-3.55776
-3.37734
-3.22721
-3.1029
-3.00078
-2.92814
-2.86598
-2.71302
127.593
99.1866
72.3119
46.6106
20.0147
-2.3323
-6.17825
-2.78175
-4.39815
-4.52915
-4.42223
-4.22224
-4.08262
-3.87479
-3.65793
-3.45567
-3.27438
-3.11467
-2.97362
-2.84872
-2.74116
-2.6354
-2.48839
120.609
95.0692
71.4158
50.8347
30.5026
9.63551
-7.493
-12.3918
-8.31937
-4.46554
-4.24317
-3.97536
-3.87833
-3.71159
-3.51546
-3.32289
-3.14338
-2.9784
-2.82678
-2.6865
-2.5553
-2.42481
-2.27777
112.948
89.9841
68.8613
51.4202
35.5459
19.1898
1.61236
-14.3164
-16.3021
-5.3859
-4.0767
-3.68134
-3.64197
-3.5219
-3.34978
-3.16859
-2.99255
-2.82545
-2.6679
-2.51904
-2.37694
-2.23859
-2.09683
104.688
84.1427
65.2589
49.8626
36.5081
23.3167
8.14381
-9.95847
-19.3933
-7.00515
-3.55549
-3.40062
-3.41493
-3.32557
-3.17329
-3.0023
-2.82959
-2.66201
-2.50158
-2.34855
-2.20223
-2.06264
-1.92637
95.7192
77.4893
60.6498
46.8208
35.0055
23.6085
10.7194
-5.8876
-18.3861
-9.14649
-3.0833
-3.27615
-3.24608
-3.14226
-2.99578
-2.82972
-2.65901
-2.49187
-2.33077
-2.17656
-2.0296
-1.89152
-1.76046
86.0249
70.0466
55.1406
42.6394
32.0269
21.8701
10.706
-3.41116
-16.2599
-11.6901
-3.16089
-3.36006
-3.09603
-2.95465
-2.81129
-2.64875
-2.48128
-2.31639
-2.15665
-2.00334
-1.85765
-1.72209
-1.59558
75.8857
62.0552
48.9963
37.6995
28.0865
18.991
9.2484
-2.5608
-14.5749
-14.4265
-4.09808
-3.31486
-2.81172
-2.71888
-2.60467
-2.4555
-2.29612
-2.13626
-1.97967
-1.82864
-1.6852
-1.55247
-1.42985
65.6908
53.835
42.5016
32.3525
23.6363
15.4823
7.0021
-2.84255
-13.6055
-16.2062
-5.1791
-2.61461
-2.47027
-2.46714
-2.38622
-2.25568
-2.10723
-1.95324
-1.80033
-1.65211
-1.51128
-1.38133
-1.26205
55.7487
45.6561
35.8954
26.8637
19.0252
11.7681
4.43443
-3.72143
-12.9675
-16.8058
-6.7431
-2.10133
-2.25373
-2.26167
-2.18496
-2.06289
-1.91983
-1.76907
-1.61885
-1.47324
-1.33501
-1.20768
-1.09132
46.2658
37.7164
29.3679
21.4253
14.4722
8.10283
1.83424
-4.86772
-12.5343
-16.7407
-8.31317
-1.96247
-2.24241
-2.13167
-2.01301
-1.88018
-1.73362
-1.58271
-1.43426
-1.29114
-1.15556
-1.03081
-0.917095
37.3782
30.1607
23.0679
16.1741
10.1043
4.60429
-0.678337
-6.13668
-12.3272
-16.4307
-9.65477
-2.16716
-2.3394
-1.98935
-1.83112
-1.68998
-1.53978
-1.38998
-1.24453
-1.10473
-0.972254
-0.850216
-0.739064
29.1617
23.0846
17.0981
11.1926
5.98015
1.3102
-3.07217
-7.4671
-12.3787
-16.174
-11.0607
-2.69976
-2.20982
-1.71341
-1.59445
-1.47132
-1.3299
-1.1876
-1.04844
-0.913486
-0.784801
-0.66574
-0.557161
21.6348
16.5276
11.5043
6.50751
2.10374
-1.78938
-5.35134
-8.81874
-12.6268
-15.972
-12.2341
-3.09161
-1.61693
-1.36028
-1.31841
-1.22746
-1.10578
-0.977132
-0.846907
-0.717903
-0.593423
-0.477468
-0.371463
14.7589
10.4703
6.27667
2.09995
-1.55267
-4.721
-7.52287
-10.1479
-12.969
-15.7093
-12.8776
-3.45343
-1.12799
-1.04411
-1.04329
-0.978454
-0.877929
-0.763589
-0.642436
-0.519222
-0.398697
-0.28564
-0.182068
8.45643
4.85266
1.36895
-2.07132
-5.02203
-7.50057
-9.57743
-11.4041
-13.309
-15.3468
-13.0689
-3.84453
-0.837311
-0.783396
-0.790339
-0.741117
-0.6556
-0.551969
-0.437711
-0.31883
-0.201286
-0.0905194
0.0109664
2.62796
-0.402919
-3.28584
-6.05915
-8.34102
-10.1453
-11.512
-12.5649
-13.6061
-14.9216
-13.0229
-4.25331
-0.609238
-0.556907
-0.563696
-0.521898
-0.443879
-0.345647
-0.234677
-0.117731
-0.00164869
0.107736
0.207649
-2.86036
-5.41904
-7.79277
-9.94548
-11.5853
-12.7291
-13.3975
-13.6959
-13.9111
-14.4843
-12.8176
-4.53234
-0.408806
-0.356304
-0.36241
-0.322663
-0.244885
-0.146099
-0.0340415
0.0838839
0.200283
0.309291
0.408159
-8.12656
-10.3561
-12.2688
-13.8472
-14.9003
-15.4257
-15.4228
-14.9802
-14.3508
-13.9921
-12.0978
-4.38064
-0.233447
-0.181768
-0.185603
-0.142967
-0.0584209
0.0470838
0.164909
0.286839
0.405281
0.51478
0.612966
-13.1799
-15.2542
-16.7415
-17.8804
-18.4733
-18.4698
-17.8468
-16.6693
-15.1065
-13.4021
-10.4058
-3.67023
-0.0795749
-0.0356642
-0.0325612
0.0200124
0.11802
0.236232
0.364323
0.492987
0.614839
0.725317
0.822825
-17.9315
-19.9159
-21.1321
-22.1016
-22.4222
-22.0087
-20.8375
-18.9501
-16.3848
-12.9463
-7.8225
-2.29983
0.0557834
0.0822166
0.0929467
0.168789
0.289011
0.425824
0.567994
0.705343
0.83122
0.942492
1.03875
-22.4387
-24.0956
-25.3635
-26.4422
-26.6719
-25.9676
-24.3548
-21.8713
-18.41
-13.1783
-5.00771
0.411805
0.257894
0.170135
0.176671
0.306493
0.462108
0.623232
0.781937
0.928332
1.05749
1.16834
1.26217
-27.7136
-28.8845
-30.8891
-32.4338
-32.7882
-31.9156
-30.0044
-27.1806
-23.2368
-16.6588
-4.72079
3.46512
0.455023
0.195048
0.241999
0.454308
0.653198
0.840793
1.01478
1.16754
1.2971
1.40503
1.4944
-35.1209
-40.4798
-43.0075
-44.3698
-43.9964
-42.3168
-40.05
-37.5323
-34.4288
-28.3426
-13.1451
4.07939
0.611545
0.189599
0.396717
0.661664
0.888504
1.0944
1.27587
1.42812
1.55277
1.65393
1.73616
-41.9951
-50.8665
-48.4109
-45.0925
-41.0028
-37.3488
-35.0392
-34.1213
-34.0099
-32.4049
-21.7123
2.67154
1.82118
0.457797
0.67717
0.947871
1.1877
1.39655
1.57156
1.71295
1.82559
1.91524
1.98721
-27.4565
-27.4471
-18.2206
-12.2884
-7.99534
-5.39487
-4.32161
-4.44443
-5.47031
-6.91848
-6.665
1.53828
2.02735
0.958363
1.06305
1.32113
1.56182
1.7523
1.90282
2.02123
2.11417
2.18746
2.24614
-0.492566
-1.23794
2.42157
3.18054
3.69217
3.94767
3.96935
3.79118
3.37783
2.48742
0.800867
1.68045
2.11219
1.72893
1.6694
1.83783
2.01913
2.15677
2.26318
2.3474
2.41411
2.46721
2.51037
6.38806
2.53415
4.55427
4.71381
4.90554
4.95851
4.90845
4.7691
4.51427
4.05636
3.38218
3.13513
2.97406
2.66714
2.45391
2.46076
2.52511
2.5847
2.63618
2.68075
2.71825
2.7496
2.77639
6.15705
4.41416
5.2329
5.31621
5.36534
5.36847
5.31669
5.20741
5.02375
4.74527
4.38969
4.05708
3.7968
3.45531
3.17166
3.04808
3.00907
2.99859
3.00051
3.00843
3.01853
3.02927
3.04046
6.05997
5.41358
5.55404
5.57275
5.57128
5.55082
5.49821
5.40681
5.26644
5.06923
4.82342
4.54622
4.26827
3.94691
3.68062
3.5193
3.42872
3.37438
3.34099
3.32064
3.30843
3.30175
3.29938
5.94151
5.74712
5.72802
5.69949
5.67216
5.63616
5.57961
5.49522
5.37542
5.21259
5.0059
4.77029
4.52271
4.26646
4.04865
3.89204
3.78346
3.70678
3.65194
3.6125
3.58407
3.56403
3.55083
5.87062
5.83237
5.79677
5.75638
5.7193
5.67567
5.61621
5.53467
5.42536
5.28356
5.1098
4.91532
4.71324
4.51318
4.3362
4.19414
4.08414
3.99915
3.93351
3.88284
3.8439
3.8146
3.79346
5.83776
5.83959
5.81124
5.77517
5.73761
5.69259
5.63422
5.55804
5.46053
5.33968
5.19707
5.03992
4.87714
4.71702
4.57064
4.44561
4.3422
4.25743
4.18841
4.13262
4.08797
4.05308
4.02673
5.81079
5.82057
5.80197
5.77406
5.74034
5.69832
5.64486
5.57717
5.49327
5.39251
5.27652
5.14993
5.01882
4.88934
4.76827
4.6605
4.56735
4.48773
4.42029
4.36383
4.31725
4.27982
4.25065
5.78757
5.79722
5.78584
5.76499
5.73639
5.6995
5.65295
5.59514
5.52498
5.44245
5.34901
5.2478
5.14294
5.03874
4.93951
4.84849
4.76718
4.6955
4.63286
4.57886
4.53318
4.49562
4.46564
5.7682
5.77668
5.76996
5.75433
5.73082
5.69981
5.66089
5.61319
5.55615
5.49003
5.41604
5.33636
5.25374
5.17109
5.09119
5.01622
4.94749
4.88534
4.82954
4.78013
4.73737
4.70154
4.67236
5.75309
5.76076
5.75674
5.74487
5.72607
5.70105
5.6698
5.63188
5.58707
5.5357
5.47873
5.41763
5.35424
5.29045
5.22804
5.16847
5.11269
5.06106
5.01336
4.96985
4.93143
4.89873
4.87163
5.74239
5.74904
5.7463
5.73728
5.72283
5.70363
5.67979
5.65115
5.61766
5.57965
5.53781
5.49311
5.4467
5.39979
5.3535
5.30877
5.2662
5.22586
5.18695
5.14995
5.11673
5.08825
5.0643
5.7351
5.74019
5.73795
5.7313
5.72086
5.70717
5.6904
5.67053
5.6476
5.62185
5.59372
5.56379
5.53273
5.50128
5.47014
5.43993
5.41117
5.38371
5.35354
5.32215
5.29425
5.2706
5.2507
5.73063
5.73357
5.73122
5.7263
5.71931
5.71068
5.7006
5.68908
5.67616
5.66194
5.64661
5.63042
5.6137
5.59686
5.58035
5.56476
5.55148
5.54137
5.51881
5.48928
5.46559
5.44692
5.43134
5.72621
5.7265
5.72463
5.72216
5.71932
5.71632
5.71322
5.71002
5.70667
5.70315
5.69946
5.69562
5.6917
5.68783
5.68424
5.6815
5.68153
5.68858
5.68491
5.6584
5.64026
5.62809
5.61862
-2.91471
-2.84051
-2.83733
-2.72361
-2.51232
-2.39528
-2.2732
-2.14102
-2.35438
-2.2607
-2.1544
-2.03696
-2.15055
-2.06352
-1.97404
-1.88633
-1.98147
-1.90136
-1.81938
-1.74191
-1.8184
-1.74304
-1.66626
-1.59492
-1.65824
-1.58655
-1.51349
-1.44607
-1.49784
-1.42908
-1.35896
-1.29443
-1.33574
-1.26944
-1.2018
-1.13958
-1.17099
-1.10683
-1.04137
-0.981155
-1.00291
-0.940669
-0.877215
-0.818832
-0.831049
-0.770576
-0.709012
-0.652381
-0.655197
-0.596371
-0.536615
-0.4817
-0.475372
-0.418106
-0.360076
-0.306826
-0.291708
-0.235946
-0.179559
-0.127894
-0.104292
-0.049999
0.00481262
0.0549778
0.0868901
0.139757
0.193041
0.241764
0.281917
0.333427
0.385225
0.432535
0.480962
0.531188
0.581531
0.627428
0.684376
0.733328
0.782196
0.826636
0.892694
0.940249
0.987519
1.03039
1.10658
1.15243
1.19783
1.23892
1.32708
1.3707
1.41378
1.45272
1.55517
1.5958
1.63587
1.67205
1.79127
1.82799
1.86421
1.89695
2.03497
2.06677
2.09824
2.12683
2.28505
2.31103
2.33695
2.36074
2.53939
2.55893
2.57876
2.59733
2.7952
2.80817
2.82176
2.83496
3.04957
3.05627
3.06389
3.07193
3.29992
3.30105
3.3033
3.30664
3.54431
3.5408
3.53851
3.5378
3.78153
3.7744
3.76849
3.76447
4.011
4.00125
3.99265
3.98611
4.23261
4.22117
4.21077
4.20246
4.44658
4.43431
4.42293
4.41356
4.65339
4.64103
4.6294
4.61963
4.85366
4.84185
4.83063
4.82104
5.0482
5.03752
5.02728
5.01836
5.23743
5.2285
5.21969
5.21162
5.42056
5.41344
5.40637
5.39976
5.61212
5.60781
5.60336
5.59882
-2.11389
-1.84309
-1.76186
-1.71069
-1.67077
-1.63483
-1.60085
-1.56837
-1.53764
-1.50899
-1.48272
-1.45909
-1.43835
-1.42076
-1.40656
-1.39599
-1.38934
-1.38693
-1.38817
-1.94027
-1.79586
-1.69264
-1.62139
-1.56776
-1.52277
-1.48273
-1.44618
-1.41266
-1.38205
-1.35436
-1.32968
-1.30814
-1.28995
-1.27535
-1.26462
-1.25803
-1.25586
-1.25727
-1.85897
-1.71323
-1.60542
-1.52415
-1.46064
-1.40798
-1.36236
-1.32184
-1.28549
-1.25287
-1.22373
-1.198
-1.17571
-1.15703
-1.14218
-1.13139
-1.12492
-1.1229
-1.12441
-1.75201
-1.6137
-1.50393
-1.41719
-1.34726
-1.2889
-1.23871
-1.19473
-1.15583
-1.12133
-1.09083
-1.06413
-1.04119
-1.02212
-1.0071
-0.996316
-0.989945
-0.988016
-0.989525
-1.62638
-1.49764
-1.38968
-1.30077
-1.22712
-1.16488
-1.1113
-1.06456
-1.02351
-0.987389
-0.955707
-0.928172
-0.904684
-0.885298
-0.87015
-0.85937
-0.853053
-0.85114
-0.852592
-1.49035
-1.36997
-1.26524
-1.17612
-1.1006
-1.03594
-0.97998
-0.931177
-0.888444
-0.851017
-0.818358
-0.790132
-0.766192
-0.74655
-0.731292
-0.720491
-0.714177
-0.712225
-0.713577
-1.3483
-1.23435
-1.13286
-1.04451
-0.968291
-0.902279
-0.844798
-0.794557
-0.750588
-0.712162
-0.678742
-0.64997
-0.625671
-0.605819
-0.590458
-0.579615
-0.573263
-0.571231
-0.572449
-1.20148
-1.09253
-0.994024
-0.906905
-0.830752
-0.764162
-0.70583
-0.654687
-0.609888
-0.570762
-0.536791
-0.507617
-0.483049
-0.463033
-0.44758
-0.436677
-0.430258
-0.428117
-0.429176
-1.05032
-0.945427
-0.849638
-0.763993
-0.688401
-0.621801
-0.563149
-0.511557
-0.46629
-0.426741
-0.392423
-0.36299
-0.338243
-0.318113
-0.302585
-0.291616
-0.285113
-0.282844
-0.283721
-0.894947
-0.793509
-0.700249
-0.616228
-0.541544
-0.475358
-0.416812
-0.365154
-0.319739
-0.280021
-0.245551
-0.215998
-0.191168
-0.17098
-0.155403
-0.144374
-0.137779
-0.135371
-0.13605
-0.735343
-0.63702
-0.546188
-0.46391
-0.390396
-0.324956
-0.266862
-0.215461
-0.170182
-0.130529
-0.0960905
-0.0665566
-0.041741
-0.0215598
-0.00597009
0.00510448
0.0117888
0.0143403
0.0138705
-0.571467
-0.476087
-0.38766
-0.307242
-0.235115
-0.170691
-0.113336
-0.0624696
-0.0175754
0.0217972
0.0560291
0.0854072
0.110107
0.130212
0.145771
0.156866
0.16363
0.166323
0.16607
-0.403302
-0.310797
-0.224806
-0.146369
-0.0758184
-0.012642
0.043729
0.093821
0.138107
0.177003
0.210862
0.239951
0.264433
0.284387
0.299863
0.310946
0.317774
0.320604
0.320569
-0.230894
-0.141238
-0.0577341
0.0185975
0.0873966
0.149122
0.204294
0.253398
0.296875
0.335114
0.368444
0.397114
0.421274
0.440999
0.456336
0.467372
0.474241
0.477198
0.477379
-0.0543375
0.0324958
0.113454
0.18756
0.254446
0.314535
0.368312
0.416235
0.45872
0.496135
0.528789
0.556915
0.580652
0.600067
0.615206
0.626152
0.633039
0.636109
0.636501
0.126269
0.210311
0.288666
0.360431
0.425251
0.483529
0.53573
0.582293
0.623616
0.660051
0.691892
0.719354
0.742567
0.761593
0.776473
0.787286
0.794161
0.797331
0.797924
0.310877
0.392142
0.467828
0.537132
0.599733
0.656033
0.706486
0.75152
0.791523
0.826832
0.857728
0.884412
0.907005
0.925562
0.940121
0.950756
0.95759
0.96084
0.961623
0.499506
0.57797
0.650889
0.717595
0.777818
0.831971
0.880508
0.923851
0.962382
0.996428
1.02625
1.05205
1.07393
1.09194
1.10612
1.11653
1.12329
1.1266
1.12756
0.692241
0.767814
0.837823
0.901762
0.95943
1.01126
1.05771
1.0992
1.13612
1.16877
1.19741
1.22222
1.2433
1.26069
1.27442
1.28456
1.29121
1.29456
1.29568
0.889206
0.961718
1.02861
1.08958
1.14448
1.1938
1.23799
1.27748
1.31264
1.34377
1.37111
1.39484
1.41503
1.43173
1.44496
1.45478
1.46129
1.46466
1.46591
1.09054
1.15973
1.22324
1.28096
1.33288
1.37948
1.42123
1.45856
1.49183
1.52132
1.54727
1.56981
1.58904
1.60498
1.61765
1.6271
1.63344
1.6368
1.63817
1.29642
1.36185
1.42164
1.47582
1.52449
1.56815
1.60728
1.6423
1.67354
1.70129
1.72574
1.74703
1.76522
1.78034
1.7924
1.80144
1.80757
1.8109
1.81235
1.50708
1.56805
1.62371
1.67401
1.71914
1.75964
1.79597
1.82852
1.85763
1.88353
1.9064
1.92635
1.94344
1.95768
1.96909
1.97768
1.98356
1.98684
1.98836
1.72241
1.77854
1.82937
1.87532
1.91661
1.95372
1.98707
2.01704
2.04389
2.06786
2.08908
2.10764
2.12357
2.13688
2.14758
2.1557
2.1613
2.16449
2.16605
1.94249
1.99284
2.03831
2.07951
2.11664
2.15013
2.18035
2.20761
2.23213
2.25409
2.2736
2.29071
2.30544
2.31779
2.32775
2.33535
2.34064
2.34374
2.34531
2.16669
2.2105
2.25011
2.2862
2.31892
2.34861
2.37556
2.40001
2.42212
2.44202
2.45977
2.4754
2.48889
2.50024
2.50944
2.5165
2.52146
2.52443
2.52599
2.39416
2.43083
2.46419
2.4949
2.52303
2.54881
2.57241
2.59399
2.61365
2.63145
2.64741
2.66153
2.67376
2.68409
2.6925
2.69899
2.70361
2.70644
2.70795
2.62378
2.65293
2.67985
2.70504
2.72852
2.75034
2.77058
2.78929
2.80649
2.82218
2.83635
2.84893
2.85989
2.86919
2.87679
2.8827
2.88695
2.88963
2.89107
2.85426
2.87583
2.89631
2.91602
2.93489
2.95281
2.96973
2.98561
3.00039
3.014
3.02638
3.03745
3.04713
3.05538
3.06216
3.06747
3.07135
3.07385
3.0752
3.08428
3.09852
3.1128
3.12723
3.14165
3.15581
3.16953
3.18267
3.19509
3.20668
3.21731
3.22688
3.2353
3.2425
3.24846
3.25317
3.25665
3.25896
3.26023
3.31259
3.32006
3.32858
3.33809
3.34834
3.35895
3.36964
3.38018
3.39035
3.39999
3.40893
3.41704
3.42421
3.43039
3.43553
3.43963
3.44271
3.4448
3.446
3.53815
3.53964
3.54302
3.54809
3.55453
3.56189
3.56977
3.57787
3.58592
3.59371
3.60103
3.60773
3.6137
3.61887
3.6232
3.62669
3.62936
3.63124
3.63237
3.76018
3.75663
3.7556
3.7568
3.75988
3.76431
3.76964
3.77551
3.7816
3.78764
3.79343
3.79879
3.8036
3.80779
3.81133
3.81422
3.81649
3.81814
3.81922
3.97818
3.97059
3.96594
3.9639
3.9641
3.96599
3.96905
3.97291
3.9772
3.98164
3.98599
3.99008
3.99379
3.99703
3.99978
4.00208
4.00395
4.00539
4.00648
4.19191
4.1813
4.17383
4.16919
4.16702
4.16674
4.16785
4.16992
4.1726
4.17558
4.17861
4.18151
4.18416
4.18648
4.18847
4.19016
4.19163
4.19284
4.19396
4.40134
4.38867
4.37917
4.37255
4.3685
4.36645
4.36591
4.36644
4.3677
4.36936
4.37119
4.373
4.37465
4.37608
4.37729
4.37835
4.37943
4.38036
4.3816
4.60662
4.59278
4.58197
4.57396
4.5685
4.56506
4.56317
4.56241
4.56244
4.56296
4.56371
4.56452
4.56524
4.56581
4.56624
4.56666
4.56735
4.568
4.56996
4.80806
4.79385
4.78238
4.77354
4.76711
4.76264
4.75969
4.75789
4.7569
4.75644
4.75626
4.75617
4.75605
4.7558
4.75545
4.75521
4.75552
4.75576
4.75949
5.00595
4.99195
4.98035
4.97112
4.96411
4.95893
4.9552
4.95258
4.95077
4.94949
4.94852
4.94766
4.94678
4.94576
4.94461
4.94357
4.94319
4.94218
4.94804
5.19971
5.18608
5.17462
5.16529
5.15796
5.15231
5.14801
5.14476
5.14227
5.14032
5.13868
5.13715
5.13559
5.13383
5.13182
5.12967
5.12736
5.12248
5.13366
5.38978
5.37708
5.36608
5.35701
5.34972
5.34391
5.33932
5.33566
5.33272
5.33027
5.32813
5.32609
5.32398
5.32162
5.31882
5.31529
5.30879
5.29442
5.32654
5.59121
5.58087
5.57182
5.56425
5.558
5.55284
5.54857
5.54502
5.54203
5.53944
5.53711
5.53488
5.53257
5.52993
5.52666
5.52203
5.51147
5.4792
5.54855
)
;

boundaryField
{
    leftWall
    {
        type            calculated;
        value           nonuniform List<scalar> 
50
(
-6.62355
55.8995
101.779
129.565
144.201
150.4
151.236
148.961
142.59
134.424
127.593
120.609
112.948
104.688
95.7192
86.0249
75.8857
65.6908
55.7487
46.2658
37.3782
29.1617
21.6348
14.7589
8.45643
2.62796
-2.86036
-8.12656
-13.1799
-17.9315
-22.4387
-27.7136
-35.1209
-41.9951
-27.4565
-0.492566
6.38806
6.15705
6.05997
5.94151
5.87062
5.83776
5.81079
5.78757
5.7682
5.75309
5.74239
5.7351
5.73063
5.72621
)
;
    }
    rightWall
    {
        type            calculated;
        value           nonuniform List<scalar> 
50
(
-1.89797
-1.83949
-1.78076
-1.7218
-1.66259
-1.60309
-1.54324
-1.48301
-1.38817
-1.25727
-1.12441
-0.989525
-0.852592
-0.713577
-0.572449
-0.429176
-0.283721
-0.13605
0.0138705
0.16607
0.320569
0.477379
0.636501
0.797924
0.961623
1.12756
1.29568
1.46591
1.63817
1.81235
1.98836
2.16605
2.34531
2.52599
2.70795
2.89107
3.0752
3.26023
3.446
3.63237
3.81922
4.00648
4.19396
4.3816
4.56996
4.75949
4.94804
5.13366
5.32654
5.54855
)
;
    }
    lowerWall
    {
        type            calculated;
        value           nonuniform List<scalar> 
62
(
-36.0333
-48.8859
-62.7917
-28.1217
-4.93901
-4.08023
-4.34744
-4.68473
-4.86928
-4.90134
-4.76775
-4.54248
-4.30257
-4.08121
-3.88928
-3.72758
-3.59356
-3.48618
-3.42193
-3.44313
-3.56596
-3.71495
-3.77272
-3.74329
-3.70338
-3.68008
-3.66328
-3.64263
-3.61214
-3.596
-3.61285
-2.97731
-2.9031
-2.89993
-2.78621
-2.12603
-2.06491
-2.00692
-1.95282
-1.90569
-1.87086
-1.85856
-1.88784
-2.15546
-2.16447
-2.16901
-2.16557
-2.15387
-2.13511
-2.11176
-2.086
-2.0596
-2.03385
-2.00966
-1.98773
-1.9686
-1.95275
-1.94053
-1.93214
-1.92755
-1.9262
-1.9274
)
;
    }
    atmosphere
    {
        type            calculated;
        value           nonuniform List<scalar> 
46
(
5.72908
5.72906
5.72905
5.72904
5.72904
5.72904
5.72904
5.72904
5.72904
5.72904
5.72904
5.72904
5.72904
5.72904
5.72904
5.72904
5.72904
5.72904
5.72901
5.72795
5.72548
5.72212
5.7186
5.71634
5.71455
5.71211
5.70888
5.70229
5.69417
5.68726
5.68139
5.67637
5.67207
5.66837
5.66519
5.66242
5.65998
5.65778
5.65569
5.65359
5.6513
5.64858
5.64511
5.64027
5.63135
5.66058
)
;
    }
    defaultFaces
    {
        type            empty;
    }
}


// ************************************************************************* //
