/*--------------------------------*- C++ -*----------------------------------*\
  =========                 |
  \\      /  F ield         | OpenFOAM: The Open Source CFD Toolbox
   \\    /   O peration     | Website:  https://openfoam.org
    \\  /    A nd           | Version:  9
     \\/     M anipulation  |
\*---------------------------------------------------------------------------*/
FoamFile
{
    format      ascii;
    class       volScalarField;
    location    "0.15";
    object      p_rgh;
}
// * * * * * * * * * * * * * * * * * * * * * * * * * * * * * * * * * * * * * //

dimensions      [1 -1 -2 0 0 0 0];

internalField   nonuniform List<scalar> 
2268
(
-36.0333
-48.8859
-62.7917
-28.1217
-4.93901
-4.08023
-4.34744
-4.68473
-4.86928
-4.90134
-4.76775
-4.54248
-4.30257
-4.08121
-3.88928
-3.72758
-3.59356
-3.48618
-3.42193
-3.44313
-3.56596
-3.71495
-3.77272
-32.3298
-46.2611
-60.5969
-22.8994
-2.68466
-3.81638
-4.32149
-4.71251
-4.941
-4.9784
-4.83946
-4.61339
-4.36776
-4.13947
-3.94172
-3.77637
-3.64185
-3.5372
-3.47467
-3.4902
-3.60392
-3.7468
-3.79167
-45.178
-65.8461
-78.7369
-17.6917
-2.86077
-3.77714
-4.27676
-4.73346
-5.00114
-5.05886
-4.93349
-4.70777
-4.45502
-4.21643
-4.00865
-3.8355
-3.69692
-3.59194
-3.5275
-3.53322
-3.63899
-3.78246
-3.82722
-76.0651
-106.006
-126.142
-26.4837
-3.46732
-3.8674
-4.3113
-4.77135
-5.06608
-5.14273
-5.02797
-4.80086
-4.54085
-4.29189
-4.07325
-3.89071
-3.74592
-3.63794
-3.56882
-3.56318
-3.66653
-3.82184
-3.86929
-120.355
-156.836
-182.129
-50.3201
-4.01159
-3.99724
-4.40261
-4.83342
-5.13926
-5.22798
-5.11707
-4.88529
-4.61859
-4.36126
-4.13338
-3.94196
-3.79062
-3.67904
-3.60575
-3.58945
-3.68729
-3.85817
-3.9075
-173.1
-212.544
-249.246
-103.171
-6.08906
-4.21523
-4.51294
-4.91158
-5.22125
-5.3119
-5.19938
-4.96117
-4.689
-4.42592
-4.19132
-3.9923
-3.83438
-3.7186
-3.64203
-3.61615
-3.69764
-3.87397
-3.93586
-231.214
-271.26
-316.622
-203.467
-17.5874
-5.22221
-4.69882
-5.01283
-5.31324
-5.38826
-5.27045
-5.02911
-4.75292
-4.48605
-4.24735
-4.04247
-3.87824
-3.75743
-3.67694
-3.63983
-3.69088
-3.85891
-3.97859
-292.418
-331.614
-377.497
-330.807
-48.4994
-6.86161
-4.98444
-5.1307
-5.39973
-5.44784
-5.32513
-5.08997
-4.8137
-4.54348
-4.30141
-4.09207
-3.92219
-3.79529
-3.70765
-3.65484
-3.66858
-3.81868
-4.05429
-2.15546
-2.16447
-2.16901
-2.16557
-2.15387
-2.13511
-2.11176
-2.086
-2.0596
-2.03385
-2.00966
-1.98773
-1.9686
-1.95275
-1.94053
-1.93214
-1.92755
-1.9262
-1.9274
-2.1532
-2.16172
-2.1676
-2.1651
-2.15427
-2.13602
-2.11306
-2.08759
-2.06144
-2.03586
-2.01179
-1.98994
-1.97083
-1.95496
-1.94263
-1.93401
-1.92899
-1.92707
-1.92777
-2.15406
-2.16189
-2.16875
-2.16603
-2.1555
-2.13751
-2.11481
-2.08958
-2.0636
-2.03816
-2.01416
-1.99234
-1.97321
-1.95723
-1.94468
-1.93566
-1.93006
-1.92752
-1.9279
-2.15882
-2.16603
-2.17398
-2.16962
-2.15836
-2.13989
-2.11694
-2.09157
-2.06553
-2.04004
-2.01601
-1.99412
-1.97488
-1.9587
-1.94585
-1.93642
-1.93032
-1.92742
-1.9278
-2.17055
-2.17457
-2.18372
-2.17607
-2.16297
-2.14318
-2.11939
-2.0935
-2.06711
-2.0414
-2.01719
-1.99515
-1.97572
-1.95931
-1.94616
-1.93637
-1.92993
-1.92691
-1.92746
-2.19458
-2.18834
-2.19844
-2.18547
-2.16926
-2.14734
-2.12217
-2.09536
-2.06837
-2.04226
-2.01777
-1.99549
-1.97584
-1.95918
-1.94575
-1.93569
-1.92904
-1.92607
-1.92681
-2.24115
-2.21084
-2.21891
-2.19815
-2.17725
-2.15234
-2.12524
-2.09716
-2.06933
-2.04266
-2.01778
-1.9952
-1.97529
-1.95838
-1.94471
-1.93446
-1.92773
-1.92487
-1.92582
-2.32928
-2.25678
-2.2459
-2.21457
-2.18701
-2.1582
-2.12863
-2.09896
-2.07008
-2.0427
-2.01734
-1.99439
-1.97419
-1.95702
-1.94315
-1.93275
-1.92603
-1.92334
-1.92445
-390.85
-426.595
-465.281
-488.509
-265.395
-39.2923
-7.16382
-5.56567
-5.60204
-5.49393
-5.37231
-5.15636
-4.88856
-4.61685
-4.37236
-4.15959
-3.9833
-3.846
-3.74242
-3.66527
-3.63372
-3.68054
-3.6935
-524.225
-555.976
-587.581
-619.926
-625.823
-346.531
-89.6111
-18.9369
-10.569
-5.7221
-5.32267
-5.13252
-4.91238
-4.66145
-4.42615
-4.21642
-4.036
-3.88587
-3.76156
-3.65945
-3.5868
-3.52464
-3.37168
-656.258
-684.633
-711.364
-736.167
-757.897
-752.995
-530.701
-213.607
-46.0634
-8.20804
-5.20609
-5.0061
-4.86648
-4.65864
-4.44179
-4.23953
-4.05823
-3.89852
-3.75748
-3.63258
-3.52502
-3.41926
-3.27224
-788.439
-813.964
-837.542
-857.71
-876.203
-890.056
-892.04
-745.428
-265.153
-10.0764
-5.15222
-4.88441
-4.78738
-4.62064
-4.42451
-4.23194
-4.05243
-3.88745
-3.73583
-3.59555
-3.46435
-3.33386
-3.18682
-921.296
-944.253
-965.343
-982.626
-997.737
-1011.52
-1022.46
-1020.62
-680.669
-38.5523
-5.11094
-4.71558
-4.67622
-4.55615
-4.38402
-4.20283
-4.02679
-3.8597
-3.70214
-3.55328
-3.41118
-3.27283
-3.13108
-1054.75
-1075.29
-1094.16
-1109.5
-1122.56
-1134.74
-1146.87
-1155.96
-978.286
-130.189
-4.71493
-4.56006
-4.57437
-4.48501
-4.33273
-4.16174
-3.98903
-3.82145
-3.66102
-3.50799
-3.36167
-3.22208
-3.08581
-1188.91
-1207.14
-1223.98
-1237.78
-1249.49
-1260.5
-1272.24
-1284.19
-1191.8
-339.148
-4.36793
-4.56079
-4.53071
-4.42689
-4.28041
-4.11436
-3.94364
-3.77651
-3.6154
-3.46119
-3.31423
-3.17615
-3.04509
-1323.8
-1339.78
-1354.69
-1367.18
-1377.75
-1387.76
-1398.46
-1409.11
-1376.63
-680.517
-7.05112
-4.76989
-4.50586
-4.36448
-4.22112
-4.05858
-3.89111
-3.72621
-3.56648
-3.41317
-3.26748
-3.13192
-3.00541
-1459.14
-1472.97
-1486.03
-1497.32
-1506.92
-1515.96
-1525.46
-1534.5
-1525.24
-1061.78
-53.6181
-4.84988
-4.34675
-4.2539
-4.13969
-3.99052
-3.83115
-3.67128
-3.5147
-3.36367
-3.22023
-3.08749
-2.96487
-1594.53
-1606.38
-1617.72
-1627.86
-1636.57
-1644.71
-1653
-1660.99
-1657.57
-1391.88
-192.279
-4.27482
-4.13049
-4.12736
-4.04644
-3.9159
-3.76745
-3.61346
-3.46055
-3.31233
-3.1715
-3.04154
-2.92227
-1729.66
-1739.76
-1749.52
-1758.55
-1766.38
-1773.63
-1780.83
-1787.89
-1788.01
-1653.85
-460.661
-3.88674
-4.03914
-4.04709
-3.97037
-3.8483
-3.70525
-3.55448
-3.40427
-3.25865
-3.12042
-2.9931
-2.87673
-1864.34
-1872.89
-1881.24
-1889.18
-1896.13
-1902.5
-1908.69
-1914.79
-1917.26
-1859.2
-820.352
-3.87308
-4.15301
-4.04227
-3.92362
-3.79079
-3.64423
-3.49331
-3.34487
-3.20175
-3.06617
-2.94141
-2.8277
-1998.42
-2005.64
-2012.73
-2019.63
-2025.7
-2031.19
-2036.44
-2041.57
-2044.84
-2020.31
-1202.48
-12.0067
-4.3752
-4.02515
-3.86692
-3.72578
-3.57558
-3.42578
-3.28033
-3.14053
-3.00806
-2.88602
-2.77487
-2131.83
-2137.91
-2143.9
-2149.8
-2155.02
-2159.68
-2164.05
-2168.26
-2171.4
-2156.51
-1536.9
-64.4754
-4.37082
-3.87441
-3.75545
-3.63232
-3.4909
-3.34859
-3.20943
-3.07448
-2.9458
-2.82674
-2.71816
-2264.56
-2269.66
-2274.69
-2279.68
-2284.09
-2287.98
-2291.53
-2294.9
-2297.57
-2287.06
-1828.59
-183.892
-3.90312
-3.64647
-3.6046
-3.51365
-3.39197
-3.26332
-3.1331
-3.00409
-2.87961
-2.76366
-2.65765
-2396.63
-2400.91
-2405.11
-2409.29
-2412.94
-2416.11
-2418.9
-2421.47
-2423.56
-2416.31
-2089.47
-347.467
-3.53938
-3.45549
-3.45468
-3.38984
-3.28931
-3.17497
-3.05382
-2.93061
-2.81008
-2.69702
-2.59345
-2528.12
-2531.73
-2535.21
-2538.65
-2541.6
-2544.08
-2546.15
-2547.95
-2549.39
-2544.55
-2322.66
-549.194
-3.37389
-3.31998
-3.32693
-3.27771
-3.1922
-3.08855
-2.97429
-2.85541
-2.73787
-2.6271
-2.52561
-2659.15
-2662.18
-2665.06
-2667.83
-2670.12
-2671.92
-2673.28
-2674.32
-2675.08
-2671.82
-2530.7
-805.731
-3.27101
-3.21868
-3.22556
-3.18381
-3.10581
-3.00742
-2.89645
-2.77951
-2.66342
-2.55404
-2.45412
-2789.83
-2792.39
-2794.76
-2796.91
-2798.55
-2799.7
-2800.37
-2800.65
-2800.7
-2798.32
-2714.34
-1090.83
-3.19578
-3.14329
-3.15182
-3.11487
-3.03201
-2.93309
-2.82102
-2.70309
-2.58669
-2.47768
-2.37881
-2920.29
-2922.52
-2924.43
-2926.01
-2927.06
-2927.59
-2927.59
-2927.14
-2926.41
-2924.26
-2877.12
-1328.61
-3.14561
-3.09707
-3.13386
-3.06425
-2.9713
-2.86526
-2.74728
-2.62533
-2.50688
-2.39738
-2.2992
-3050.54
-3052.61
-3054.1
-3055.24
-3055.83
-3055.83
-3055.2
-3054.02
-3052.41
-3049.78
-3023.71
-1568.19
-3.11697
-3.07885
-3.18844
-3.03165
-2.92213
-2.80164
-2.6731
-2.54438
-2.42252
-2.31204
-2.21453
-3180.48
-3182.47
-3183.68
-3184.65
-3184.97
-3184.56
-3183.39
-3181.5
-3178.92
-3175.1
-3160.42
-1951.85
-3.10689
-3.08053
-3.29265
-3.02197
-2.87953
-2.73777
-2.59471
-2.45723
-2.33133
-2.22006
-2.1238
-3310.19
-3311.84
-3313.11
-3314.19
-3314.42
-3313.71
-3312.1
-3309.62
-3306.15
-3300.89
-3289.89
-2433.04
-3.03005
-3.11811
-3.48466
-3.0287
-2.83514
-2.66608
-2.50603
-2.35944
-2.23026
-2.1194
-2.02558
-3440.41
-3441.74
-3443.83
-3445.38
-3445.73
-3444.86
-3442.95
-3440.12
-3436.18
-3429.59
-3417.39
-2578.86
-2.95843
-4.1757
-3.69962
-3.01982
-2.77185
-2.57417
-2.39845
-2.24543
-2.11585
-2.00791
-1.91854
-3567.73
-3567.86
-3572.31
-3575.62
-3572.4
-3567.53
-3564.6
-3564.27
-3564.94
-3562.33
-3508.83
-2251.76
-2.92861
-6.86371
-3.67862
-2.95084
-2.6645
-2.44621
-2.26262
-2.11006
-1.98537
-1.8842
-1.80197
-3645.01
-3434.92
-3304.18
-3129.34
-2960.6
-2849.8
-2798.19
-2792.08
-2809.01
-2819.61
-2689.63
-1041.78
-10.1487
-7.16766
-3.33488
-2.79927
-2.49166
-2.26941
-2.09215
-1.95043
-1.83775
-1.74809
-1.67612
-3004.15
-1753.75
-1326.47
-1014.49
-778.057
-649.323
-594.611
-585.838
-598.468
-606.576
-529.562
-129.869
-26.1239
-6.11366
-3.06641
-2.54308
-2.24095
-2.03851
-1.88602
-1.76733
-1.67436
-1.60107
-1.54238
-854.566
-151.069
-108.603
-92.137
-79.8573
-72.4631
-68.3813
-66.2457
-64.7301
-62.4003
-56.177
-31.0194
-24.2872
-5.12761
-2.56125
-2.13891
-1.90606
-1.75881
-1.6508
-1.56635
-1.49962
-1.44651
-1.40335
-104.935
-56.759
-37.586
-31.007
-26.4241
-23.6335
-21.9154
-20.7611
-19.7223
-18.3022
-15.6696
-11.4012
-9.6022
-2.83032
-1.75679
-1.613
-1.5203
-1.45527
-1.40288
-1.35818
-1.32066
-1.28932
-1.26253
-38.8499
-21.8477
-12.6056
-9.58889
-7.87045
-6.80603
-6.10675
-5.5925
-5.12846
-4.54906
-3.65292
-3.08991
-2.09761
-1.04549
-1.04761
-1.1285
-1.15739
-1.1659
-1.16365
-1.15569
-1.14558
-1.13484
-1.12365
-12.6974
-7.26329
-3.59383
-2.28432
-1.63744
-1.24614
-0.994589
-0.82148
-0.689832
-0.558339
-0.385736
-0.432113
-0.421942
-0.412737
-0.619238
-0.772316
-0.861039
-0.915004
-0.948326
-0.968668
-0.980876
-0.987555
-0.989922
-3.22431
-1.6112
-0.358322
0.133365
0.353982
0.472298
0.531229
0.547876
0.528626
0.475655
0.388986
0.219152
0.0352947
-0.163473
-0.367657
-0.522815
-0.631107
-0.707723
-0.762554
-0.801996
-0.830431
-0.850466
-0.863666
-0.129179
0.306279
0.70942
0.859015
0.912361
0.923367
0.904498
0.857763
0.781296
0.671824
0.528501
0.35117
0.162162
-0.0290726
-0.203798
-0.345601
-0.455564
-0.540539
-0.606187
-0.656851
-0.695791
-0.725088
-0.746228
0.747429
0.862576
0.97716
1.00431
0.99743
0.970481
0.925264
0.859934
0.772018
0.659692
0.524118
0.370987
0.210627
0.0517894
-0.0942917
-0.219287
-0.322685
-0.407456
-0.476478
-0.532271
-0.576915
-0.611809
-0.63816
0.902005
0.937085
0.962173
0.954077
0.930055
0.8936
0.844074
0.779483
0.698131
0.599431
0.484955
0.359232
0.22853
0.0992136
-0.0218167
-0.129578
-0.222731
-0.302352
-0.369792
-0.426253
-0.472828
-0.510266
-0.539434
0.840413
0.855354
0.856671
0.841665
0.815936
0.780657
0.735201
0.678203
0.608669
0.526608
0.433474
0.332427
0.227633
0.12346
0.0242351
-0.0667828
-0.148097
-0.219779
-0.28242
-0.336413
-0.382092
-0.419652
-0.449638
0.719458
0.728973
0.725779
0.711786
0.689073
0.658508
0.619871
0.572368
0.515478
0.449459
0.37553
0.295873
0.213262
0.130615
0.0507163
-0.0242462
-0.092983
-0.155132
-0.210931
-0.260342
-0.303097
-0.338927
-0.368115
0.585376
0.593221
0.590131
0.578698
0.560107
0.535199
0.504014
0.466141
0.421362
0.370016
0.313054
0.251967
0.188575
0.12478
0.0623759
0.00280986
-0.0529714
-0.104605
-0.152303
-0.195812
-0.234238
-0.266935
-0.294039
0.45105
0.45772
0.45521
0.446298
0.431904
0.412727
0.388907
0.360275
0.326795
0.288788
0.246945
0.202246
0.15584
0.108927
0.0626404
0.0179092
-0.0246635
-0.0650011
-0.103911
-0.140906
-0.17413
-0.202614
-0.226554
0.318913
0.324011
0.321843
0.315212
0.304789
0.291106
0.27434
0.254469
0.23154
0.205793
0.177663
0.147733
0.11668
0.0852278
0.0540886
0.023873
-0.00488294
-0.0323413
-0.0625112
-0.0939074
-0.1218
-0.145457
-0.165357
0.189334
0.192286
0.18995
0.185041
0.178056
0.169431
0.159348
0.147833
0.134915
0.120694
0.105358
0.0891682
0.0724514
0.0556085
0.0391063
0.0235117
0.0102337
0.000123791
-0.0224334
-0.0519634
-0.0756556
-0.0943299
-0.109907
0.0597272
0.0600394
0.0581732
0.0557093
0.0528705
0.0498714
0.0467792
0.0435763
0.0402278
0.0367097
0.0330193
0.0291799
0.0252556
0.0213849
0.0177985
0.0150551
0.0150837
0.0221344
0.0184645
-0.00804265
-0.0261805
-0.0383559
-0.0478234
-3.44818
-3.37397
-3.3708
-3.25708
-3.17098
-3.05394
-2.93186
-2.79968
-3.13824
-3.04455
-2.93826
-2.82081
-3.0596
-2.97257
-2.88309
-2.79538
-3.01572
-2.9356
-2.85363
-2.77616
-2.97784
-2.90248
-2.82569
-2.75436
-2.94288
-2.87118
-2.79813
-2.73071
-2.90767
-2.8389
-2.76879
-2.70426
-2.87076
-2.80446
-2.73682
-2.67461
-2.83121
-2.76704
-2.70159
-2.64137
-2.78832
-2.72608
-2.66263
-2.60424
-2.74166
-2.68118
-2.61962
-2.56299
-2.691
-2.63217
-2.57242
-2.5175
-2.63637
-2.5791
-2.52107
-2.46782
-2.5779
-2.52214
-2.46575
-2.41408
-2.51568
-2.46138
-2.40657
-2.35641
-2.44969
-2.39682
-2.34354
-2.29482
-2.37986
-2.32835
-2.27655
-2.22924
-2.30601
-2.25578
-2.20544
-2.15954
-2.22779
-2.17884
-2.12997
-2.08553
-2.14466
-2.09711
-2.04984
-2.00697
-2.05597
-2.01012
-1.96472
-1.92363
-1.96067
-1.91705
-1.87397
-1.83503
-1.85777
-1.81714
-1.77707
-1.74089
-1.74687
-1.71015
-1.67392
-1.64119
-1.62836
-1.59656
-1.56509
-1.5365
-1.50347
-1.4775
-1.45158
-1.42779
-1.37433
-1.35479
-1.33496
-1.31639
-1.24371
-1.23075
-1.21716
-1.20395
-1.11454
-1.10784
-1.10022
-1.09218
-0.989387
-0.988255
-0.986005
-0.982667
-0.870189
-0.873699
-0.87599
-0.876702
-0.758158
-0.765293
-0.771203
-0.775218
-0.653883
-0.66364
-0.672238
-0.67878
-0.557474
-0.568914
-0.579312
-0.587623
-0.468695
-0.48097
-0.492348
-0.501718
-0.387082
-0.399444
-0.411067
-0.420844
-0.312004
-0.323813
-0.33503
-0.344622
-0.242664
-0.25334
-0.263579
-0.272501
-0.178624
-0.187555
-0.196368
-0.204435
-0.120686
-0.127808
-0.134875
-0.141489
-0.0543275
-0.0586325
-0.0630867
-0.0676273
-2.64736
-2.37656
-2.29532
-2.24416
-2.20424
-2.1683
-2.13432
-2.10184
-2.07111
-2.04245
-2.01619
-1.99256
-1.97182
-1.95422
-1.94003
-1.92946
-1.92281
-1.9204
-1.92164
-2.59894
-2.45453
-2.3513
-2.28006
-2.22642
-2.18144
-2.14139
-2.10484
-2.07132
-2.04071
-2.01303
-1.98834
-1.9668
-1.94861
-1.93402
-1.92328
-1.9167
-1.91452
-1.91593
-2.64283
-2.49709
-2.38927
-2.30801
-2.2445
-2.19184
-2.14621
-2.10569
-2.06935
-2.03673
-2.00759
-1.98186
-1.95957
-1.94088
-1.92603
-1.91525
-1.90878
-1.90676
-1.90826
-2.66106
-2.52275
-2.41298
-2.32624
-2.25631
-2.19795
-2.14776
-2.10379
-2.06488
-2.03038
-1.99988
-1.97318
-1.95024
-1.93117
-1.91615
-1.90537
-1.899
-1.89707
-1.89858
-2.66062
-2.53188
-2.42393
-2.33502
-2.26137
-2.19913
-2.14554
-2.0988
-2.05775
-2.02163
-1.98995
-1.96242
-1.93893
-1.91954
-1.9044
-1.89362
-1.8873
-1.88538
-1.88684
-2.64978
-2.52941
-2.42468
-2.33556
-2.26004
-2.19538
-2.13942
-2.09062
-2.04788
-2.01046
-1.9778
-1.94957
-1.92563
-1.90599
-1.89073
-1.87993
-1.87362
-1.87166
-1.87302
-2.63294
-2.51898
-2.41749
-2.32914
-2.25292
-2.18691
-2.12943
-2.07919
-2.03522
-1.9968
-1.96338
-1.9346
-1.9103
-1.89045
-1.87509
-1.86425
-1.8579
-1.85587
-1.85708
-2.61131
-2.50236
-2.40385
-2.31673
-2.24058
-2.17399
-2.11566
-2.06452
-2.01972
-1.98059
-1.94662
-1.91745
-1.89288
-1.87286
-1.85741
-1.84651
-1.84009
-1.83795
-1.839
-2.58535
-2.48045
-2.38466
-2.29902
-2.22342
-2.15682
-2.09817
-2.04658
-2.00131
-1.96176
-1.92745
-1.89801
-1.87327
-1.85314
-1.83761
-1.82664
-1.82014
-1.81787
-1.81874
-2.55516
-2.45373
-2.36047
-2.27645
-2.20176
-2.13558
-2.07703
-2.02537
-1.97996
-1.94024
-1.90577
-1.87622
-1.85139
-1.8312
-1.81562
-1.80459
-1.798
-1.79559
-1.79627
-2.52076
-2.42243
-2.3316
-2.24932
-2.17581
-2.11037
-2.05227
-2.00087
-1.95559
-1.91594
-1.8815
-1.85197
-1.82715
-1.80697
-1.79138
-1.78031
-1.77362
-1.77107
-1.77154
-2.48207
-2.38669
-2.29827
-2.21785
-2.14572
-2.0813
-2.02394
-1.97308
-1.92818
-1.88881
-1.85458
-1.8252
-1.8005
-1.78039
-1.76484
-1.75374
-1.74698
-1.74428
-1.74454
-2.4391
-2.3466
-2.26061
-2.18217
-2.11162
-2.04844
-1.99207
-1.94198
-1.89769
-1.8588
-1.82494
-1.79585
-1.77137
-1.75141
-1.73594
-1.72485
-1.71803
-1.7152
-1.71523
-2.39189
-2.30223
-2.21873
-2.1424
-2.0736
-2.01187
-1.9567
-1.9076
-1.86412
-1.82588
-1.79255
-1.76388
-1.73972
-1.72
-1.70466
-1.69362
-1.68676
-1.6838
-1.68362
-2.34053
-2.25369
-2.17274
-2.09863
-2.03174
-1.97166
-1.91788
-1.86996
-1.82747
-1.79006
-1.7574
-1.72928
-1.70554
-1.68612
-1.67098
-1.66004
-1.65315
-1.65008
-1.64969
-2.28512
-2.20107
-2.12272
-2.05095
-1.98613
-1.92786
-1.87565
-1.82909
-1.78777
-1.75133
-1.71949
-1.69203
-1.66882
-1.64979
-1.63491
-1.6241
-1.61722
-1.61405
-1.61346
-2.2257
-2.14444
-2.06875
-1.99945
-1.93685
-1.88055
-1.83009
-1.78506
-1.74506
-1.70975
-1.67885
-1.65217
-1.62957
-1.61102
-1.59646
-1.58582
-1.57899
-1.57574
-1.57496
-2.16227
-2.0838
-2.01089
-1.94418
-1.88396
-1.8298
-1.78127
-1.73792
-1.69939
-1.66535
-1.63552
-1.60972
-1.58784
-1.56983
-1.55565
-1.54525
-1.53849
-1.53517
-1.53422
-2.09473
-2.01915
-1.94915
-1.88521
-1.82754
-1.77571
-1.72926
-1.68776
-1.65085
-1.6182
-1.58956
-1.56475
-1.54367
-1.52628
-1.51255
-1.50241
-1.49576
-1.49241
-1.49129
-2.02296
-1.95045
-1.88355
-1.82259
-1.76768
-1.71836
-1.67417
-1.63468
-1.59952
-1.56839
-1.54105
-1.51733
-1.49714
-1.48044
-1.46721
-1.45739
-1.45088
-1.4475
-1.44626
-1.94681
-1.87763
-1.81412
-1.75639
-1.70448
-1.65788
-1.61613
-1.5788
-1.54553
-1.51604
-1.49009
-1.46755
-1.44832
-1.43238
-1.41971
-1.41025
-1.40392
-1.40055
-1.39919
-1.86614
-1.8007
-1.74092
-1.68673
-1.63806
-1.5944
-1.55527
-1.52025
-1.48901
-1.46126
-1.43681
-1.41552
-1.39733
-1.38222
-1.37016
-1.36111
-1.35499
-1.35165
-1.3502
-1.78067
-1.7197
-1.66403
-1.61374
-1.56861
-1.52811
-1.49178
-1.45922
-1.43012
-1.40422
-1.38135
-1.36139
-1.3443
-1.33006
-1.31866
-1.31006
-1.30419
-1.30091
-1.29939
-1.69053
-1.6344
-1.58357
-1.53762
-1.49633
-1.45923
-1.42587
-1.39591
-1.36905
-1.34508
-1.32386
-1.30531
-1.28937
-1.27606
-1.26536
-1.25724
-1.25164
-1.24845
-1.24689
-1.59565
-1.5453
-1.49983
-1.45863
-1.42149
-1.388
-1.35778
-1.33053
-1.30601
-1.28405
-1.26454
-1.24743
-1.2327
-1.22035
-1.21039
-1.20279
-1.19749
-1.1944
-1.19283
-1.49664
-1.45283
-1.41322
-1.37713
-1.34441
-1.31472
-1.28777
-1.26332
-1.24121
-1.22131
-1.20356
-1.18794
-1.17444
-1.16309
-1.15389
-1.14683
-1.14187
-1.1389
-1.13734
-1.39437
-1.3577
-1.32433
-1.29363
-1.26549
-1.23972
-1.21612
-1.19454
-1.17488
-1.15708
-1.14111
-1.127
-1.11476
-1.10443
-1.09602
-1.08953
-1.08491
-1.08209
-1.08057
-1.28994
-1.26079
-1.23387
-1.20868
-1.1852
-1.16338
-1.14314
-1.12443
-1.10723
-1.09154
-1.07737
-1.06479
-1.05383
-1.04453
-1.03693
-1.03102
-1.02676
-1.02409
-1.02265
-1.18465
-1.16308
-1.14261
-1.12289
-1.10402
-1.0861
-1.06918
-1.0533
-1.03853
-1.02491
-1.01253
-1.00147
-0.991786
-0.983538
-0.976754
-0.971439
-0.967565
-0.965063
-0.96371
-1.07983
-1.06558
-1.05131
-1.03688
-1.02246
-1.0083
-0.994578
-0.98144
-0.969015
-0.957428
-0.946797
-0.93723
-0.928813
-0.921607
-0.915647
-0.910939
-0.907458
-0.905148
-0.90388
-0.976713
-0.969238
-0.960723
-0.951209
-0.940963
-0.93035
-0.91966
-0.909126
-0.898951
-0.889314
-0.880374
-0.872266
-0.86509
-0.858913
-0.853772
-0.849674
-0.846597
-0.844499
-0.843304
-0.876346
-0.874854
-0.871479
-0.866408
-0.859964
-0.85261
-0.844729
-0.836629
-0.828573
-0.820789
-0.813468
-0.806766
-0.800794
-0.795625
-0.791293
-0.787803
-0.785133
-0.783258
-0.782129
-0.779509
-0.783062
-0.784097
-0.782896
-0.779813
-0.775381
-0.77005
-0.764185
-0.758097
-0.752049
-0.74626
-0.7409
-0.736089
-0.731899
-0.728361
-0.725472
-0.723205
-0.72155
-0.720467
-0.686704
-0.694292
-0.698945
-0.700989
-0.700784
-0.698901
-0.695832
-0.691981
-0.687691
-0.683249
-0.678893
-0.674802
-0.671101
-0.66786
-0.665102
-0.662809
-0.660937
-0.659496
-0.658408
-0.598171
-0.608782
-0.616247
-0.620892
-0.623064
-0.623341
-0.622231
-0.620159
-0.617483
-0.614505
-0.611472
-0.608569
-0.605923
-0.603601
-0.601615
-0.599925
-0.598448
-0.597241
-0.596117
-0.513936
-0.526606
-0.536106
-0.542724
-0.546779
-0.548826
-0.549369
-0.548833
-0.547579
-0.545913
-0.544083
-0.54228
-0.54063
-0.539199
-0.53799
-0.536923
-0.535845
-0.534913
-0.533673
-0.433852
-0.447692
-0.458504
-0.466506
-0.471971
-0.475411
-0.477304
-0.478059
-0.478029
-0.477513
-0.476758
-0.475955
-0.475234
-0.474662
-0.474233
-0.473813
-0.473115
-0.47247
-0.470506
-0.357601
-0.371812
-0.38328
-0.392122
-0.398554
-0.403027
-0.405973
-0.407775
-0.408764
-0.409229
-0.409409
-0.409493
-0.409617
-0.40986
-0.41021
-0.410458
-0.410142
-0.4099
-0.406176
-0.284908
-0.298912
-0.310512
-0.319739
-0.326752
-0.331932
-0.335659
-0.338278
-0.340092
-0.341371
-0.342343
-0.343197
-0.344081
-0.345096
-0.346249
-0.347285
-0.347666
-0.348681
-0.342816
-0.21634
-0.229971
-0.241438
-0.250767
-0.258096
-0.263744
-0.268043
-0.271297
-0.273779
-0.275734
-0.277378
-0.2789
-0.280468
-0.282225
-0.284238
-0.286379
-0.288696
-0.293575
-0.282394
-0.151469
-0.164169
-0.175166
-0.184237
-0.191531
-0.197334
-0.201932
-0.205584
-0.208527
-0.210975
-0.213123
-0.215157
-0.217264
-0.219633
-0.222425
-0.225956
-0.232462
-0.246827
-0.214712
-0.075229
-0.0855768
-0.0946229
-0.102191
-0.108447
-0.113607
-0.117873
-0.121423
-0.124415
-0.127002
-0.129332
-0.131562
-0.133877
-0.136513
-0.13978
-0.144415
-0.154971
-0.187244
-0.117893
)
;

boundaryField
{
    leftWall
    {
        type            fixedFluxPressure;
        gradient        uniform 0;
        value           nonuniform List<scalar> 
50
(
-36.0333
-32.3298
-45.178
-76.0651
-120.355
-173.1
-231.214
-292.418
-390.85
-524.225
-656.258
-788.439
-921.296
-1054.75
-1188.91
-1323.8
-1459.14
-1594.53
-1729.66
-1864.34
-1998.42
-2131.83
-2264.56
-2396.63
-2528.12
-2659.15
-2789.83
-2920.29
-3050.54
-3180.48
-3310.19
-3440.41
-3567.73
-3645.01
-3004.15
-854.566
-104.935
-38.8499
-12.6974
-3.22431
-0.129179
0.747429
0.902005
0.840413
0.719458
0.585376
0.45105
0.318913
0.189334
0.0597272
)
;
    }
    rightWall
    {
        type            fixedFluxPressure;
        gradient        uniform 0;
        value           nonuniform List<scalar> 
50
(
-1.9274
-1.92777
-1.9279
-1.9278
-1.92746
-1.92681
-1.92582
-1.92445
-1.92164
-1.91593
-1.90826
-1.89858
-1.88684
-1.87302
-1.85708
-1.839
-1.81874
-1.79627
-1.77154
-1.74454
-1.71523
-1.68362
-1.64969
-1.61346
-1.57496
-1.53422
-1.49129
-1.44626
-1.39919
-1.3502
-1.29939
-1.24689
-1.19283
-1.13734
-1.08057
-1.02265
-0.96371
-0.90388
-0.843304
-0.782129
-0.720467
-0.658408
-0.596117
-0.533673
-0.470506
-0.406176
-0.342816
-0.282394
-0.214712
-0.117893
)
;
    }
    lowerWall
    {
        type            fixedFluxPressure;
        gradient        uniform 0;
        value           nonuniform List<scalar> 
62
(
-36.0333
-48.8859
-62.7917
-28.1217
-4.93901
-4.08023
-4.34744
-4.68473
-4.86928
-4.90134
-4.76775
-4.54248
-4.30257
-4.08121
-3.88928
-3.72758
-3.59356
-3.48618
-3.42193
-3.44313
-3.56596
-3.71495
-3.77272
-3.77272
-3.79167
-3.82722
-3.86929
-3.9075
-3.93586
-3.97859
-4.05429
-3.44818
-3.37397
-3.3708
-3.25708
-2.15546
-2.1532
-2.15406
-2.15882
-2.17055
-2.19458
-2.24115
-2.32928
-2.15546
-2.16447
-2.16901
-2.16557
-2.15387
-2.13511
-2.11176
-2.086
-2.0596
-2.03385
-2.00966
-1.98773
-1.9686
-1.95275
-1.94053
-1.93214
-1.92755
-1.9262
-1.9274
)
;
    }
    atmosphere
    {
        type            totalPressure;
        rho             rho;
        psi             none;
        gamma           1;
        p0              uniform 0;
        value           nonuniform List<scalar> 
46
(
0
0
0
0
0
0
0
0
0
0
0
0
0
0
0
0
0
0
-2.80086e-05
-0.00108891
-0.00355591
-0.00692009
-0.0104434
-0.0126992
-0.0144903
-0.0169302
-0.0201636
-0.0267524
-0.0348735
-0.0417761
-0.0476535
-0.052673
-0.0569725
-0.0606664
-0.0638523
-0.0666198
-0.0690581
-0.0712636
-0.073348
-0.0754483
-0.0777398
-0.0804559
-0.0839326
-0.0887654
-0.0976856
-0.0684592
)
;
    }
    defaultFaces
    {
        type            empty;
    }
}


// ************************************************************************* //
