/*--------------------------------*- C++ -*----------------------------------*\
  =========                 |
  \\      /  F ield         | OpenFOAM: The Open Source CFD Toolbox
   \\    /   O peration     | Website:  https://openfoam.org
    \\  /    A nd           | Version:  9
     \\/     M anipulation  |
\*---------------------------------------------------------------------------*/
FoamFile
{
    format      ascii;
    class       surfaceScalarField;
    location    "0.15";
    object      phi;
}
// * * * * * * * * * * * * * * * * * * * * * * * * * * * * * * * * * * * * * //

dimensions      [0 3 -1 0 0 0 0];

internalField   nonuniform List<scalar> 
4432
(
-8.80057e-06
8.80057e-06
-2.42422e-05
1.54416e-05
-4.49563e-05
2.07142e-05
-7.86874e-05
3.37311e-05
-0.000130008
5.13206e-05
-0.000146441
1.64331e-05
-0.000159823
1.33816e-05
-0.000178356
1.85336e-05
-0.000187387
9.03037e-06
-0.0001824
-4.98729e-06
-0.000169351
-1.30488e-05
-0.000153253
-1.60978e-05
-0.000136338
-1.69154e-05
-0.000119782
-1.65559e-05
-0.000103802
-1.598e-05
-8.79309e-05
-1.58715e-05
-7.12219e-05
-1.67088e-05
-5.23048e-05
-1.89168e-05
-2.98344e-05
-2.24706e-05
-4.84298e-06
-2.49915e-05
1.503e-05
-1.9873e-05
1.70748e-05
-2.04519e-06
1.70752e-05
-1.68738e-05
2.56744e-05
-3.98648e-05
3.84326e-05
-6.78948e-05
4.87443e-05
-9.69917e-05
6.28279e-05
-0.000119951
7.42796e-05
-0.000153416
4.9898e-05
-0.000178394
3.83601e-05
-0.000188651
2.87907e-05
-0.000189486
9.8648e-06
-0.000184
-1.04733e-05
-0.00017283
-2.42187e-05
-0.000157907
-3.10205e-05
-0.000141812
-3.30106e-05
-0.000125691
-3.26776e-05
-0.000109909
-3.17617e-05
-9.42055e-05
-3.15747e-05
-7.78101e-05
-3.31043e-05
-5.95042e-05
-3.72225e-05
-3.81341e-05
-4.3841e-05
-1.44615e-05
-4.86642e-05
5.71128e-06
-4.00457e-05
1.24821e-05
-8.81671e-06
2.95575e-05
-1.86671e-05
4.43415e-05
-3.99663e-05
5.97317e-05
-6.16188e-05
7.03969e-05
-7.79594e-05
7.91685e-05
-9.17843e-05
8.81044e-05
-0.000127343
8.54565e-05
-0.000157346
6.83629e-05
-0.000173211
4.46558e-05
-0.0001798
1.6454e-05
-0.000178539
-1.17341e-05
-0.000170051
-3.2707e-05
-0.000157211
-4.38599e-05
-0.000142635
-4.75864e-05
-0.000127606
-4.77072e-05
-0.000112649
-4.67187e-05
-9.77228e-05
-4.65005e-05
-8.23172e-05
-4.85101e-05
-6.54526e-05
-5.4087e-05
-4.59134e-05
-6.33806e-05
-2.34688e-05
-7.11089e-05
-2.00309e-06
-6.15111e-05
7.89773e-06
-1.87178e-05
3.74552e-05
-1.76817e-05
6.20232e-05
-3.55605e-05
7.76105e-05
-5.15185e-05
8.63549e-05
-6.40548e-05
9.17048e-05
-7.40899e-05
9.81396e-05
-0.000105774
0.000117141
-0.000135483
9.80716e-05
-0.000156034
6.5207e-05
-0.000167784
2.82039e-05
-0.000170359
-9.15931e-06
-0.000164856
-3.82102e-05
-0.000154371
-5.43451e-05
-0.000141601
-6.03561e-05
-0.000127948
-6.13603e-05
-0.000114099
-6.05682e-05
-0.000100247
-6.0352e-05
-8.62081e-05
-6.25493e-05
-7.13761e-05
-6.89189e-05
-5.45758e-05
-8.01809e-05
-3.43358e-05
-9.13491e-05
-1.17973e-05
-8.40496e-05
2.73657e-06
-3.32517e-05
4.01917e-05
-1.58005e-05
7.78237e-05
-3.05942e-05
9.24041e-05
-4.38378e-05
9.95986e-05
-5.50824e-05
0.000102949
-6.82113e-05
0.000111268
-8.72408e-05
0.000136171
-0.000113803
0.000124633
-0.000137265
8.86693e-05
-0.00015357
4.45094e-05
-0.000160119
-2.61076e-06
-0.000157838
-4.04912e-05
-0.000149903
-6.22802e-05
-0.000139157
-7.11017e-05
-0.00012709
-7.34278e-05
-0.000114532
-7.31262e-05
-0.000101914
-7.29698e-05
-8.94157e-05
-7.50475e-05
-7.6974e-05
-8.13605e-05
-6.38871e-05
-9.32677e-05
-4.78758e-05
-0.000107361
-2.61922e-05
-0.000105733
-4.68958e-06
-5.47542e-05
3.55019e-05
-1.3836e-05
9.16598e-05
-2.61614e-05
0.000104729
-3.75492e-05
0.000110986
-4.80438e-05
0.000113444
-5.94918e-05
0.000122716
-7.03618e-05
0.000147041
-9.23899e-05
0.000146661
-0.000117197
0.000113477
-0.000137569
6.4881e-05
-0.000148198
8.01773e-06
-0.000149381
-3.93076e-05
-0.000144193
-6.74687e-05
-0.000135632
-7.96618e-05
-0.000125281
-8.37795e-05
-0.00011411
-8.42965e-05
-0.000102771
-8.43093e-05
-9.1774e-05
-8.60444e-05
-8.16363e-05
-9.14984e-05
-7.25623e-05
-0.000102342
-6.26393e-05
-0.000117284
-4.55195e-05
-0.000122853
-1.71282e-05
-8.31452e-05
1.83734e-05
-1.20652e-05
0.000103725
-2.24252e-05
0.000115089
-3.22681e-05
0.000120829
-4.19281e-05
0.000123104
-5.14074e-05
0.000132196
-5.87069e-05
0.00015434
-7.38801e-05
0.000161835
-9.71277e-05
0.000136724
-0.000120581
8.8334e-05
-0.000135191
2.26282e-05
-0.000139956
-3.45427e-05
-0.000137645
-6.978e-05
-0.000131369
-8.59371e-05
-0.000122791
-9.23578e-05
-0.000113027
-9.40606e-05
-0.000102936
-9.43999e-05
-9.32775e-05
-9.57033e-05
-8.4957e-05
-9.98189e-05
-7.9045e-05
-0.000108254
-7.52944e-05
-0.000121034
-6.72489e-05
-0.000130899
-3.98149e-05
-0.000110579
-2.14416e-05
-1.05615e-05
0.000114286
-1.94264e-05
0.000123954
-2.79795e-05
0.000129382
-3.66476e-05
0.000131772
-4.5048e-05
0.000140596
-5.03135e-05
0.000159606
-5.89321e-05
0.000170453
-7.82558e-05
0.000156048
-0.000103107
0.000113185
-0.000121561
4.10826e-05
-0.000130081
-2.60229e-05
-0.000130644
-6.92176e-05
-0.000126553
-9.00282e-05
-0.000119678
-9.92328e-05
-0.000111292
-0.000102447
-0.00010242
-0.000103272
-9.39591e-05
-0.000104164
-8.69397e-05
-0.000106838
-8.2763e-05
-0.00011243
-8.28696e-05
-0.000120928
-8.50602e-05
-0.000128708
-7.14531e-05
-0.000124186
-9.28947e-05
-3.92844e-06
3.92844e-06
-1.02848e-05
6.35607e-06
-1.62129e-05
5.92804e-06
-2.00358e-05
3.82287e-06
-2.20072e-05
1.97127e-06
-2.25192e-05
5.11941e-07
-2.20294e-05
-4.89538e-07
-2.09249e-05
-1.10471e-06
-1.94329e-05
-1.49184e-06
-1.76833e-05
-1.74964e-06
-1.57515e-05
-1.93173e-06
-1.36815e-05
-2.07031e-06
-1.14988e-05
-2.18265e-06
-9.22638e-06
-2.27261e-06
-6.89837e-06
-2.32824e-06
-4.57831e-06
-2.32004e-06
-2.40112e-06
-2.17725e-06
-6.94891e-07
-1.70607e-06
-6.94838e-07
-6.61944e-06
1.05479e-05
-1.33362e-05
1.30725e-05
-1.85325e-05
1.11242e-05
-2.14918e-05
6.78212e-06
-2.27565e-05
3.23613e-06
-2.28773e-05
6.32524e-07
-2.22441e-05
-1.12248e-06
-2.10844e-05
-2.26453e-06
-1.95655e-05
-3.01076e-06
-1.78051e-05
-3.51034e-06
-1.58766e-05
-3.86021e-06
-1.38266e-05
-4.1206e-06
-1.16868e-05
-4.32273e-06
-9.48631e-06
-4.4731e-06
-7.26272e-06
-4.55205e-06
-5.07161e-06
-4.51098e-06
-3.00103e-06
-4.24775e-06
-1.19165e-06
-3.51501e-06
-1.88649e-06
-8.58399e-06
1.91319e-05
-1.49542e-05
1.94425e-05
-1.93884e-05
1.55581e-05
-2.18304e-05
9.22413e-06
-2.28045e-05
4.21033e-06
-2.27672e-05
5.94943e-07
-2.20364e-05
-1.85312e-06
-2.08304e-05
-3.47075e-06
-1.93041e-05
-4.537e-06
-1.7563e-05
-5.25165e-06
-1.56748e-05
-5.74831e-06
-1.36852e-05
-6.11034e-06
-1.16273e-05
-6.3808e-06
-9.53119e-06
-6.56919e-06
-7.43115e-06
-6.65221e-06
-5.36987e-06
-6.57214e-06
-3.4005e-06
-6.21712e-06
-1.56305e-06
-5.35213e-06
-3.44956e-06
-1.07354e-05
2.98672e-05
-1.68735e-05
2.55805e-05
-2.05901e-05
1.92746e-05
-2.24616e-05
1.10955e-05
-2.30512e-05
4.79999e-06
-2.27745e-05
3.18053e-07
-2.19024e-05
-2.7251e-06
-2.06252e-05
-4.7481e-06
-1.90751e-05
-6.08704e-06
-1.73426e-05
-6.98423e-06
-1.54878e-05
-7.60304e-06
-1.35525e-05
-8.04569e-06
-1.15681e-05
-8.36532e-06
-9.56216e-06
-8.57511e-06
-7.56252e-06
-8.65189e-06
-5.59732e-06
-8.53723e-06
-3.68816e-06
-8.1263e-06
-1.80869e-06
-7.23136e-06
-5.2583e-06
-1.35161e-05
4.33832e-05
-1.93752e-05
3.14396e-05
-2.22503e-05
2.21496e-05
-2.34448e-05
1.229e-05
-2.35635e-05
4.91876e-06
-2.29858e-05
-2.59745e-07
-2.19322e-05
-3.77872e-06
-2.05546e-05
-6.12569e-06
-1.89584e-05
-7.68315e-06
-1.72168e-05
-8.72593e-06
-1.53798e-05
-9.44004e-06
-1.34833e-05
-9.94227e-06
-1.15544e-05
-1.02943e-05
-9.61584e-06
-1.05136e-05
-7.6872e-06
-1.05806e-05
-5.78196e-06
-1.04424e-05
-3.89577e-06
-1.00125e-05
-1.96283e-06
-9.16412e-06
-7.22119e-06
-1.73432e-05
6.07262e-05
-2.26557e-05
3.67521e-05
-2.44175e-05
2.39113e-05
-2.47948e-05
1.26673e-05
-2.43619e-05
4.4859e-06
-2.3431e-05
-1.19062e-06
-2.21598e-05
-5.0499e-06
-2.06543e-05
-7.63127e-06
-1.89892e-05
-9.3482e-06
-1.72185e-05
-1.04967e-05
-1.53804e-05
-1.12781e-05
-1.35031e-05
-1.18195e-05
-1.1608e-05
-1.21894e-05
-9.71128e-06
-1.24103e-05
-7.82356e-06
-1.24683e-05
-5.94515e-06
-1.23207e-05
-4.05299e-06
-1.19047e-05
-2.06255e-06
-1.11544e-05
-9.28381e-06
-2.24942e-05
8.32203e-05
-2.69001e-05
4.11581e-05
-2.71191e-05
2.41302e-05
-2.65101e-05
1.20582e-05
-2.54482e-05
3.42396e-06
-2.41201e-05
-2.5187e-06
-2.26006e-05
-6.56943e-06
-2.09423e-05
-9.28966e-06
-1.91865e-05
-1.1104e-05
-1.73663e-05
-1.23169e-05
-1.5507e-05
-1.31374e-05
-1.36279e-05
-1.36986e-05
-1.17433e-05
-1.40741e-05
-9.86221e-06
-1.42914e-05
-7.9865e-06
-1.4344e-05
-6.10544e-06
-1.42017e-05
-4.18458e-06
-1.38256e-05
-2.13609e-06
-1.32029e-05
-1.14199e-05
-2.96863e-05
0.000112906
-3.20404e-05
4.35123e-05
-3.03103e-05
2.24001e-05
-2.85359e-05
1.02837e-05
-2.67847e-05
1.67277e-06
-2.50277e-05
-4.27582e-06
-2.32368e-05
-8.36039e-06
-2.14056e-05
-1.11209e-05
-1.95403e-05
-1.29692e-05
-1.76523e-05
-1.4205e-05
-1.57529e-05
-1.50368e-05
-1.38521e-05
-1.55995e-05
-1.19564e-05
-1.59698e-05
-1.00674e-05
-1.61803e-05
-8.17882e-06
-1.62325e-05
-6.27147e-06
-1.6109e-05
-4.30446e-06
-1.57926e-05
-2.19351e-06
-1.53138e-05
-1.36135e-05
-1.8315e-05
0.000132601
-3.43254e-05
0.000139965
-4.97185e-05
0.000144775
-6.59093e-05
0.000147963
-7.90877e-05
0.000153774
-8.43489e-05
0.000164867
-9.09922e-05
0.000177097
-0.000112883
0.000177939
-0.000158734
0.000159036
-0.000211532
9.38807e-05
-0.000242773
5.21778e-06
-0.000252963
-5.90274e-05
-0.000251202
-9.17896e-05
-0.000242074
-0.000108361
-0.000228711
-0.00011581
-0.000213669
-0.000118313
-0.000199106
-0.000118727
-0.000187226
-0.000118719
-0.000180757
-0.000118899
-0.000182708
-0.000118977
-0.000193595
-0.000117821
-0.0002073
-0.00011048
-8.08531e-05
-0.000219342
-1.50697e-05
0.000147671
-2.834e-05
0.000153235
-4.09925e-05
0.000157428
-5.4043e-05
0.000161013
-6.60408e-05
0.000165772
-7.39467e-05
0.000172773
-7.71988e-05
0.000180349
-8.30001e-05
0.00018374
-9.98992e-05
0.000175935
-0.000144922
0.000138903
-0.000191611
5.19073e-05
-0.00021356
-3.70786e-05
-0.000221725
-8.36244e-05
-0.000220546
-0.000109539
-0.000213385
-0.00012297
-0.000203366
-0.000128333
-0.000193034
-0.000129058
-0.000184461
-0.000127293
-0.000179417
-0.000123943
-0.000179252
-0.000119141
-0.000184751
-0.000112322
-0.000194924
-0.000100307
-7.73187e-05
-0.000198459
-1.30547e-05
0.000160726
-2.45784e-05
0.000164759
-3.51944e-05
0.000168044
-4.57373e-05
0.000171556
-5.57091e-05
0.000175744
-6.37765e-05
0.00018084
-6.87775e-05
0.00018535
-7.14469e-05
0.00018641
-7.63796e-05
0.000180868
-9.85885e-05
0.000161112
-0.000144897
9.82161e-05
-0.000175203
-6.77326e-06
-0.000191786
-6.70411e-05
-0.000197949
-0.000103377
-0.000196656
-0.000124263
-0.00019122
-0.000133769
-0.000184454
-0.000135824
-0.000178347
-0.000133399
-0.000174176
-0.000128113
-0.000172678
-0.000120639
-0.000174168
-0.000110832
-0.000177252
-9.72238e-05
-7.86489e-05
-0.000175922
-1.17432e-05
0.000172469
-2.20569e-05
0.000175073
-3.12371e-05
0.000177224
-3.98214e-05
0.000180141
-4.78609e-05
0.000183784
-5.471e-05
0.000187689
-5.97579e-05
0.000190398
-6.31595e-05
0.000189811
-6.67482e-05
0.000184457
-7.82936e-05
0.000172657
-0.00011565
0.000135573
-0.000144764
2.23408e-05
-0.000165408
-4.63979e-05
-0.000176691
-9.20938e-05
-0.000180143
-0.000120811
-0.000178523
-0.000135388
-0.000174608
-0.00013974
-0.000170367
-0.00013764
-0.000166935
-0.000131545
-0.000164866
-0.000122708
-0.000164154
-0.000111543
-0.000163551
-9.78263e-05
-8.17758e-05
-0.000160424
-1.07491e-05
0.000183218
-2.01335e-05
0.000184457
-2.82697e-05
0.00018536
-3.54602e-05
0.000187331
-4.18313e-05
0.000190155
-4.72332e-05
0.000193091
-5.14806e-05
0.000194645
-5.48773e-05
0.000193208
-5.86568e-05
0.000188236
-6.53267e-05
0.000179327
-9.04309e-05
0.000160677
-0.000120124
5.2034e-05
-0.000143268
-2.32536e-05
-0.000157707
-7.76551e-05
-0.000164517
-0.000114
-0.000165821
-0.000134084
-0.000164089
-0.000141472
-0.000161237
-0.000140492
-0.000158351
-0.000134432
-0.000155908
-0.000125151
-0.000153859
-0.000113592
-0.000151439
-0.000100247
-8.58497e-05
-0.000147365
-9.82592e-06
0.000193044
-1.83878e-05
0.000193019
-2.56889e-05
0.000192662
-3.18797e-05
0.000193522
-3.70463e-05
0.000195321
-4.12187e-05
0.000197264
-4.45529e-05
0.000197979
-4.75128e-05
0.000196168
-5.09386e-05
0.000191662
-5.61877e-05
0.000184576
-7.02058e-05
0.000174695
-0.000101608
8.34364e-05
-0.000125472
6.10483e-07
-0.000141179
-6.19481e-05
-0.000149986
-0.000105194
-0.000153343
-0.000130727
-0.000153231
-0.000141583
-0.000151428
-0.000142296
-0.000148986
-0.000136873
-0.000146374
-0.000127763
-0.000143623
-0.000116343
-0.000140351
-0.000103519
-9.02384e-05
-0.000135962
-8.86197e-06
0.000201906
-1.66216e-05
0.000200778
-2.31906e-05
0.000199231
-2.86245e-05
0.000198956
-3.29733e-05
0.00019967
-3.633e-05
0.00020062
-3.89872e-05
0.000200636
-4.1486e-05
0.000198667
-4.44508e-05
0.000194627
-4.86865e-05
0.000188812
-5.55261e-05
0.000181535
-8.96797e-05
0.00011759
-0.000111553
2.24839e-05
-0.000126698
-4.68034e-05
-0.000136415
-9.54767e-05
-0.000141137
-0.000126005
-0.000142234
-0.000140486
-0.000141252
-0.000143278
-0.000139212
-0.000138913
-0.000136599
-0.000130376
-0.000133548
-0.000119394
-0.000129939
-0.000107128
-9.46261e-05
-0.000125552
-7.84689e-06
0.000209753
-1.47988e-05
0.00020773
-2.069e-05
0.000205122
-2.55143e-05
0.00020378
-2.93003e-05
0.000203456
-3.21656e-05
0.000203486
-3.44291e-05
0.0002029
-3.65982e-05
0.000200836
-3.91493e-05
0.000197178
-4.25293e-05
0.000192192
-4.66156e-05
0.000185621
-7.96324e-05
0.000150607
-9.83654e-05
4.12168e-05
-0.000113058
-3.21104e-05
-0.000123414
-8.51204e-05
-0.000129182
-0.000120237
-0.000131246
-0.000138422
-0.000130953
-0.000143571
-0.000129301
-0.000140565
-0.000126812
-0.000132865
-0.000123711
-0.000122495
-0.000120056
-0.000110783
-9.88436e-05
-0.000115838
-6.82196e-06
0.000216575
-1.29691e-05
0.000213877
-1.8218e-05
0.000210371
-2.25223e-05
0.000208084
-2.58975e-05
0.000206831
-2.84615e-05
0.00020605
-3.05093e-05
0.000204948
-3.24719e-05
0.000202798
-3.47055e-05
0.000199411
-3.74818e-05
0.000194968
-4.07925e-05
0.000188932
-6.35402e-05
0.000173355
-8.32308e-05
6.09074e-05
-9.9541e-05
-1.58002e-05
-0.000110954
-7.37068e-05
-0.000117603
-0.000113589
-0.000120449
-0.000135577
-0.000120739
-0.000143281
-0.000119461
-0.000141842
-0.000117174
-0.000135152
-0.000114172
-0.000125496
-0.000110628
-0.000114328
-0.000102809
-0.000106663
-5.83986e-06
0.000222415
-1.12086e-05
0.000219246
-1.58489e-05
0.000215011
-1.96901e-05
0.000211926
-2.27376e-05
0.000209879
-2.50972e-05
0.000208409
-2.7018e-05
0.000206869
-2.885e-05
0.00020463
-3.08723e-05
0.000201434
-3.32913e-05
0.000197387
-3.63313e-05
0.000191972
-4.74772e-05
0.000184501
-6.97745e-05
8.32049e-05
-8.7689e-05
2.11418e-06
-9.96815e-05
-6.17144e-05
-0.000106727
-0.000106543
-0.00011004
-0.000132263
-0.000110772
-0.000142549
-0.000109832
-0.000142782
-0.000107783
-0.000137201
-0.000104963
-0.000128317
-0.000101611
-0.000117679
-0.000106489
-9.79309e-05
-4.94352e-06
0.000227358
-9.58493e-06
0.000223888
-1.36566e-05
0.000219083
-1.7076e-05
0.000215345
-1.98395e-05
0.000212642
-2.20351e-05
0.000210605
-2.38642e-05
0.000208698
-2.5605e-05
0.000206371
-2.74892e-05
0.000203318
-2.96831e-05
0.000199581
-3.24539e-05
0.000194743
-3.75345e-05
0.000189581
-6.18301e-05
0.000107501
-7.91659e-05
1.94498e-05
-9.00981e-05
-5.07821e-05
-9.66759e-05
-9.99655e-05
-0.000100081
-0.000128859
-0.000101113
-0.000141516
-0.000100476
-0.000143418
-9.86831e-05
-0.000138994
-9.60851e-05
-0.000130915
-9.29646e-05
-0.0001208
-0.000109878
-8.95756e-05
-4.15855e-06
0.000231517
-8.14254e-06
0.000227872
-1.16933e-05
0.000222633
-1.47254e-05
0.000218377
-1.72284e-05
0.000215145
-1.9271e-05
0.000212647
-2.10113e-05
0.000210438
-2.26695e-05
0.000208029
-2.44385e-05
0.000205087
-2.64514e-05
0.000201594
-2.89505e-05
0.000197242
-3.17294e-05
0.00019236
-5.94221e-05
0.000135193
-7.30865e-05
3.31142e-05
-8.13986e-05
-4.247e-05
-8.70362e-05
-9.43279e-05
-9.04044e-05
-0.000125491
-9.17173e-05
-0.000140203
-9.13917e-05
-0.000143744
-8.98719e-05
-0.000140514
-8.75186e-05
-0.000133268
-8.46433e-05
-0.000123675
-0.000112983
-8.15379e-05
-3.49335e-06
0.00023501
-6.90008e-06
0.000231278
-9.98294e-06
0.000225716
-1.26603e-05
0.000221054
-1.49173e-05
0.000217402
-1.68049e-05
0.000214535
-1.84447e-05
0.000212078
-2.00096e-05
0.000209594
-2.16601e-05
0.000206737
-2.34987e-05
0.000203433
-2.57086e-05
0.000199452
-2.76851e-05
0.000194337
-5.46792e-05
0.000162188
-6.49687e-05
4.34036e-05
-7.17798e-05
-3.56589e-05
-7.71224e-05
-8.89853e-05
-8.07918e-05
-0.000121821
-8.25264e-05
-0.000138469
-8.25643e-05
-0.000143706
-8.13345e-05
-0.000141744
-7.92313e-05
-0.000135371
-7.65994e-05
-0.000126307
-0.00011582
-7.37623e-05
-2.94317e-06
0.000237953
-5.8547e-06
0.00023419
-8.52465e-06
0.000228386
-1.08796e-05
0.000223409
-1.29025e-05
0.000219425
-1.46299e-05
0.000216263
-1.61542e-05
0.000213602
-1.76107e-05
0.000211051
-1.91315e-05
0.000208258
-2.07986e-05
0.0002051
-2.27445e-05
0.000201397
-2.48173e-05
0.00019641
-4.34673e-05
0.000180838
-5.32427e-05
5.31791e-05
-6.07923e-05
-2.81094e-05
-6.69589e-05
-8.28187e-05
-7.1339e-05
-0.000117441
-7.36122e-05
-0.000136196
-7.40218e-05
-0.000143296
-7.30621e-05
-0.000142704
-7.11879e-05
-0.000137245
-6.87819e-05
-0.000128713
-0.000118409
-6.61932e-05
-2.49574e-06
0.000240449
-4.98994e-06
0.000236684
-7.30068e-06
0.000230697
-9.36496e-06
0.000225474
-1.1166e-05
0.000221226
-1.27298e-05
0.000217826
-1.41264e-05
0.000214999
-1.54623e-05
0.000212387
-1.68482e-05
0.000209644
-1.83554e-05
0.000206607
-2.0102e-05
0.000203144
-2.21395e-05
0.000198447
-3.15215e-05
0.00019022
-4.15414e-05
6.3199e-05
-5.02639e-05
-1.9387e-05
-5.74406e-05
-7.56419e-05
-6.24782e-05
-0.000112404
-6.51533e-05
-0.000133521
-6.58158e-05
-0.000142634
-6.50408e-05
-0.000143479
-6.33426e-05
-0.000138943
-6.11321e-05
-0.000130923
-0.00012077
-5.8771e-05
-2.13816e-06
0.000242587
-4.28365e-06
0.00023883
-6.28457e-06
0.000232698
-8.08891e-06
0.000227278
-9.68168e-06
0.000222819
-1.10818e-05
0.000219226
-1.23432e-05
0.00021626
-1.35512e-05
0.000213595
-1.48005e-05
0.000210893
-1.61603e-05
0.000207967
-1.77413e-05
0.000204725
-1.96512e-05
0.000200357
-2.41219e-05
0.00019469
-3.30181e-05
7.20953e-05
-4.19176e-05
-1.04876e-05
-4.93715e-05
-6.81879e-05
-5.45382e-05
-0.000107237
-5.72574e-05
-0.000130801
-5.79427e-05
-0.000141949
-5.7216e-05
-0.000144205
-5.56216e-05
-0.000140538
-5.35745e-05
-0.00013297
-0.000122916
-5.14286e-05
-1.85353e-06
0.000244441
-3.71026e-06
0.000240686
-5.44688e-06
0.000234435
-7.02111e-06
0.000228852
-8.42142e-06
0.000224219
-9.6627e-06
0.000220468
-1.07876e-05
0.000217385
-1.1865e-05
0.000214672
-1.29773e-05
0.000212006
-1.41934e-05
0.000209183
-1.5615e-05
0.000206147
-1.7384e-05
0.000202126
-2.02218e-05
0.000197528
-2.76316e-05
7.95051e-05
-3.58147e-05
-2.30438e-06
-4.27674e-05
-6.12352e-05
-4.74863e-05
-0.000102518
-4.98409e-05
-0.000128447
-5.02874e-05
-0.000141502
-4.94654e-05
-0.000145027
-4.79119e-05
-0.000142091
-4.60132e-05
-0.000134869
-0.000124839
-4.40903e-05
-1.62311e-06
0.000246064
-3.24711e-06
0.00024231
-4.76115e-06
0.000235949
-6.1339e-06
0.000230225
-7.36058e-06
0.000225446
-8.45461e-06
0.000221562
-9.44992e-06
0.00021838
-1.04019e-05
0.000215624
-1.138e-05
0.000212984
-1.24504e-05
0.000210253
-1.37088e-05
0.000207405
-1.53324e-05
0.000203749
-1.76211e-05
0.000199817
-2.3961e-05
8.58449e-05
-3.11511e-05
4.88584e-06
-3.71746e-05
-5.52118e-05
-4.10037e-05
-9.86889e-05
-4.26363e-05
-0.000126814
-4.26189e-05
-0.000141519
-4.15969e-05
-0.000146049
-4.0062e-05
-0.000143626
-3.83339e-05
-0.000136597
-0.000126499
-3.66742e-05
-1.45578e-06
0.00024752
-2.88912e-06
0.000243744
-4.20863e-06
0.000237268
-5.4049e-06
0.000231421
-6.4807e-06
0.000226522
-7.44797e-06
0.000222529
-8.33307e-06
0.000219265
-9.17824e-06
0.000216469
-1.00367e-05
0.000213842
-1.0964e-05
0.00021118
-1.20562e-05
0.000208497
-1.35054e-05
0.000205199
-1.55552e-05
0.000201867
-2.10757e-05
9.13655e-05
-2.72188e-05
1.10289e-05
-3.20373e-05
-5.03933e-05
-3.46167e-05
-9.61095e-05
-3.52435e-05
-0.000126187
-3.46158e-05
-0.000142147
-3.33672e-05
-0.000147298
-3.1897e-05
-0.000145096
-3.04167e-05
-0.000138078
-0.000127814
-2.91018e-05
-1.3681e-06
0.000248888
-2.62258e-06
0.000244998
-3.76291e-06
0.000238408
-4.80987e-06
0.000232468
-5.76578e-06
0.000227478
-6.63834e-06
0.000223402
-7.44769e-06
0.000220075
-8.22439e-06
0.000217246
-9.0023e-06
0.00021462
-9.81243e-06
0.00021199
-1.07336e-05
0.000209418
-1.19729e-05
0.000206438
-1.3825e-05
0.000203719
-1.84988e-05
9.60394e-05
-2.344e-05
1.597e-05
-2.67455e-05
-4.70879e-05
-2.7747e-05
-9.5108e-05
-2.71733e-05
-0.000126761
-2.59048e-05
-0.000143416
-2.45143e-05
-0.000148688
-2.3245e-05
-0.000146365
-2.2156e-05
-0.000139167
-0.000128656
-2.13135e-05
-1.26553e-06
0.000250153
-2.35182e-06
0.000246084
-3.35915e-06
0.000239416
-4.30886e-06
0.000233418
-5.1916e-06
0.00022836
-6.01211e-06
0.000224222
-6.79089e-06
0.000220853
-7.55398e-06
0.000218009
-8.3176e-06
0.000215384
-9.07179e-06
0.000212745
-9.81739e-06
0.000210164
-1.07804e-05
0.000207401
-1.22286e-05
0.000205167
-1.57458e-05
9.95565e-05
-1.92103e-05
1.94345e-05
-2.06169e-05
-4.56813e-05
-1.97337e-05
-9.59911e-05
-1.78878e-05
-0.000128607
-1.61064e-05
-0.000145197
-1.4799e-05
-0.000149995
-1.39697e-05
-0.000147195
-1.34839e-05
-0.000139653
-0.000128855
-1.32854e-05
-9.29291e-07
0.000251083
-1.92648e-06
0.000247082
-2.91376e-06
0.000240403
-3.85029e-06
0.000234354
-4.7155e-06
0.000229225
-5.52278e-06
0.000225029
-6.30764e-06
0.000221638
-7.10635e-06
0.000218808
-7.92789e-06
0.000216205
-8.71171e-06
0.000213528
-9.31862e-06
0.000210771
-9.908e-06
0.00020799
-1.05681e-05
0.000205827
-1.22563e-05
0.000101245
-1.40002e-05
2.11784e-05
-1.29012e-05
-4.67803e-05
-9.84556e-06
-9.90467e-05
-6.84749e-06
-0.000131605
-4.89382e-06
-0.000147151
-4.05696e-06
-0.000150832
-4.01126e-06
-0.000147241
-4.40135e-06
-0.000139263
-0.00012821
-5.04606e-06
-3.17048e-07
0.0002514
-1.34682e-06
0.000248111
-2.42195e-06
0.000241478
-3.40434e-06
0.000235337
-4.27479e-06
0.000230096
-5.07013e-06
0.000225825
-5.8559e-06
0.000222424
-6.69494e-06
0.000219647
-7.60881e-06
0.000217119
-8.50418e-06
0.000214424
-9.091e-06
0.000211358
-9.19801e-06
0.000208097
-8.49777e-06
0.000205127
-8.18816e-06
0.000100935
-7.08005e-06
2.00703e-05
-2.52611e-06
-5.13343e-05
2.766e-06
-0.000104339
6.43434e-06
-0.000135273
7.92629e-06
-0.000148643
7.73173e-06
-0.000150638
6.56747e-06
-0.000146076
4.99979e-06
-0.000137695
-0.000126515
3.3049e-06
1.68837e-07
0.000251231
-9.23662e-07
0.000249204
-2.02597e-06
0.000242581
-2.98327e-06
0.000236294
-3.78556e-06
0.000230898
-4.49304e-06
0.000226532
-5.19916e-06
0.00022313
-5.99557e-06
0.000220443
-6.93636e-06
0.00021806
-7.95601e-06
0.000215443
-8.69843e-06
0.0002121
-8.32935e-06
0.000207728
-5.06661e-06
0.000201864
-1.56621e-06
9.74347e-05
3.68839e-06
1.48157e-05
1.22302e-05
-5.9876e-05
1.90058e-05
-0.000111114
2.22094e-05
-0.000138477
2.22639e-05
-0.000148697
2.03436e-05
-0.000148717
1.7514e-05
-0.000143247
1.44776e-05
-0.000134659
-0.000123594
1.15567e-05
-2.8419e-07
0.000251515
-1.19203e-06
0.000250112
-1.94642e-06
0.000243335
-2.59682e-06
0.000236944
-3.10638e-06
0.000231408
-3.55487e-06
0.000226981
-4.02447e-06
0.0002236
-4.59315e-06
0.000221012
-5.33053e-06
0.000218797
-6.24753e-06
0.00021636
-7.23224e-06
0.000213085
-6.35096e-06
0.000206847
4.77931e-06
0.000190734
1.23699e-05
8.98441e-05
2.22796e-05
4.90606e-06
3.30008e-05
-7.05972e-05
3.91357e-05
-0.000117249
4.01473e-05
-0.000139488
3.76147e-05
-0.000146164
3.32927e-05
-0.000144395
2.84197e-05
-0.000138374
2.37068e-05
-0.000129946
-0.000119338
1.94503e-05
-2.89562e-06
0.000254411
-2.64894e-06
0.000249865
-2.23413e-06
0.00024292
-2.14153e-06
0.000236852
-2.05301e-06
0.000231319
-2.04967e-06
0.000226977
-2.12024e-06
0.00022367
-2.23379e-06
0.000221125
-2.37494e-06
0.000218939
-2.5907e-06
0.000216576
-2.92399e-06
0.000213418
-1.35666e-06
0.00020528
2.13364e-05
0.000168041
3.29715e-05
7.82091e-05
4.86396e-05
-1.07619e-05
5.91019e-05
-8.10594e-05
6.19724e-05
-0.000120119
5.90437e-05
-0.000136559
5.29862e-05
-0.000140107
4.58243e-05
-0.000137234
3.87307e-05
-0.00013128
3.22865e-05
-0.000123501
-0.000113747
2.66959e-05
-7.76411e-06
0.000262175
-4.87834e-06
0.000246979
-2.4999e-06
0.000240542
-1.28735e-06
0.000235639
-3.85524e-07
0.000230417
1.58805e-07
0.000226433
5.63764e-07
0.000223265
1.11377e-06
0.000220575
2.09092e-06
0.000217961
3.83577e-06
0.000214831
7.02645e-06
0.000210228
1.82798e-05
0.000194026
4.43153e-05
0.000142005
6.34152e-05
5.91092e-05
8.1414e-05
-2.87606e-05
8.80198e-05
-8.76652e-05
8.51283e-05
-0.000117228
7.70398e-05
-0.000128471
6.70533e-05
-0.00013012
5.70238e-05
-0.000127204
4.78201e-05
-0.000122076
3.97878e-05
-0.000115469
-0.000106958
3.29986e-05
-1.06529e-05
0.000272828
-6.2927e-06
0.000242619
-1.83166e-06
0.000236081
1.09932e-06
0.000232708
3.03431e-06
0.000228482
4.50252e-06
0.000224965
6.02591e-06
0.000221742
8.16642e-06
0.000218435
1.17589e-05
0.000214369
1.86632e-05
0.000207927
3.32199e-05
0.000195671
5.95399e-05
0.000167706
8.58512e-05
0.000115694
0.000107609
3.73511e-05
0.000118314
-3.94653e-05
0.000115811
-8.51625e-05
0.00010536
-0.000106777
9.1938e-05
-0.000115049
7.84007e-05
-0.000116583
6.5981e-05
-0.000114784
5.50971e-05
-0.000111192
4.58241e-05
-0.000106196
-9.92367e-05
3.81027e-05
-3.29542e-06
0.000276123
-7.94023e-06
0.000247264
-2.67495e-06
0.000230815
3.80715e-06
0.000226226
9.09547e-06
0.000223194
1.39572e-05
0.000220103
1.93376e-05
0.000216362
2.63203e-05
0.000211452
3.64098e-05
0.000204279
5.20136e-05
0.000192323
7.60388e-05
0.000171646
0.000107405
0.00013634
0.00013516
8.79386e-05
0.000151337
2.1175e-05
0.000149154
-3.72832e-05
0.000136075
-7.20831e-05
0.000118976
-8.96777e-05
0.000101688
-9.77603e-05
8.58689e-05
-0.000100764
7.20114e-05
-0.000100927
6.01407e-05
-9.93217e-05
5.0128e-05
-9.61834e-05
-9.09439e-05
4.18354e-05
8.85678e-06
0.000267266
-2.24571e-07
0.000256345
4.55632e-06
0.000226034
1.27677e-05
0.000218015
2.15239e-05
0.000214438
3.06412e-05
0.000210986
4.10262e-05
0.000205977
5.38714e-05
0.000198607
7.05977e-05
0.000187553
9.25915e-05
0.00017033
0.000120018
0.000144219
0.000147917
0.000108441
0.000169419
6.6437e-05
0.000173767
1.68267e-05
0.000162024
-2.55408e-05
0.000143443
-5.35024e-05
0.000123738
-6.99726e-05
0.000105334
-7.93565e-05
8.90091e-05
-8.44391e-05
7.48797e-05
-8.67976e-05
6.28093e-05
-8.72513e-05
5.26069e-05
-8.5981e-05
-8.24709e-05
4.41338e-05
1.88662e-05
0.0002484
1.80197e-05
0.000257192
2.15579e-05
0.000222496
3.00404e-05
0.000209532
4.06599e-05
0.000203818
5.29154e-05
0.00019873
6.7105e-05
0.000191787
8.37784e-05
0.000181934
0.000103308
0.000168023
0.000125112
0.000148526
0.000146975
0.000122356
0.000164431
9.0985e-05
0.000174273
5.65948e-05
0.000170997
2.01026e-05
0.000157304
-1.18477e-05
0.000139265
-3.54637e-05
0.000120822
-5.1529e-05
0.000103637
-6.21715e-05
8.82801e-05
-6.90825e-05
7.48508e-05
-7.33684e-05
6.32516e-05
-7.56522e-05
5.33428e-05
-7.60723e-05
-7.41716e-05
4.50435e-05
2.33774e-05
0.000225023
3.43735e-05
0.000246196
3.97042e-05
0.000217165
4.74511e-05
0.000201786
5.78416e-05
0.000193428
7.05072e-05
0.000186065
8.50877e-05
0.000177207
0.00010128
0.000165741
0.000118462
0.000150841
0.000135226
0.000131761
0.000149249
0.000108334
0.000158362
8.18715e-05
0.000161066
5.3891e-05
0.000155578
2.55903e-05
0.000143664
6.635e-08
0.000128681
-2.04812e-05
0.000113105
-3.59526e-05
9.82289e-05
-4.72956e-05
8.46238e-05
-5.54774e-05
7.24786e-05
-6.12233e-05
6.17999e-05
-6.49736e-05
5.25381e-05
-6.68105e-05
-6.63228e-05
4.46892e-05
2.05919e-05
0.000204431
3.74602e-05
0.000229328
4.63046e-05
0.000208321
5.45759e-05
0.000193514
6.45245e-05
0.00018348
7.62236e-05
0.000174366
8.9197e-05
0.000164233
0.000102807
0.000152131
0.000116183
0.000137465
0.000128068
0.000119877
0.000136932
9.94695e-05
0.000141699
7.71044e-05
0.000141748
5.38412e-05
0.00013662
3.07184e-05
0.000127268
9.41869e-06
0.000115511
-8.724e-06
0.000102948
-2.33904e-05
9.05886e-05
-3.4936e-05
7.89763e-05
-4.38652e-05
6.83649e-05
-5.06119e-05
5.88454e-05
-5.54542e-05
5.04486e-05
-5.84138e-05
-5.91129e-05
4.32387e-05
1.53373e-05
0.000189094
3.22042e-05
0.000212461
4.31757e-05
0.00019735
5.24709e-05
0.000184219
6.22289e-05
0.000173721
7.28048e-05
0.00016379
8.38846e-05
0.000153154
9.49137e-05
0.000141103
0.000105173
0.000127205
0.000113779
0.000111271
0.000119817
9.34313e-05
0.00012268
7.42413e-05
0.000122069
5.44522e-05
0.000117909
3.48779e-05
0.00011077
1.65583e-05
0.000101712
3.3349e-07
9.17866e-05
-1.3465e-05
8.17497e-05
-2.48991e-05
7.20765e-05
-3.41921e-05
6.30339e-05
-4.15693e-05
5.47583e-05
-4.71787e-05
4.73336e-05
-5.09891e-05
-5.26518e-05
4.08725e-05
1.08489e-05
0.000178245
2.55854e-05
0.000197724
3.68826e-05
0.000186053
4.65264e-05
0.000174575
5.589e-05
0.000164358
6.53341e-05
0.000154346
7.47081e-05
0.00014378
8.36392e-05
0.000132171
9.1628e-05
0.000119217
9.80992e-05
0.0001048
0.000102496
8.90341e-05
0.000104443
7.22945e-05
0.000103778
5.51177e-05
0.000100538
3.81179e-05
9.51141e-05
2.19818e-05
8.81692e-05
7.27825e-06
8.04006e-05
-5.69648e-06
7.23652e-05
-1.68636e-05
6.44501e-05
-2.6277e-05
5.68972e-05
-3.40165e-05
4.98529e-05
-4.01344e-05
4.34278e-05
-4.45641e-05
-4.69875e-05
3.77635e-05
8.20202e-06
0.000170043
2.04753e-05
0.000185451
3.09146e-05
0.000175613
4.00474e-05
0.000165442
4.86065e-05
0.000155799
5.68401e-05
0.000146112
6.46819e-05
0.000135938
7.18996e-05
0.000124954
7.81675e-05
0.000112949
8.31179e-05
9.98498e-05
8.64056e-05
8.57464e-05
8.77962e-05
7.09038e-05
8.72034e-05
5.57106e-05
8.46998e-05
4.06215e-05
8.05639e-05
2.61176e-05
7.52345e-05
1.26075e-05
6.9184e-05
3.54052e-07
6.2824e-05
-1.05036e-05
5.64517e-05
-1.99046e-05
5.02601e-05
-2.78249e-05
4.43795e-05
-3.42539e-05
3.89293e-05
-3.9114e-05
-4.21235e-05
3.40653e-05
6.73159e-06
0.000163311
1.68703e-05
0.000175312
2.59621e-05
0.000166522
3.40542e-05
0.00015735
4.15119e-05
0.000148341
4.84768e-05
0.000139148
5.49142e-05
0.000129501
6.06806e-05
0.000119187
6.55682e-05
0.000108061
6.93443e-05
9.60737e-05
7.17954e-05
8.32952e-05
7.27794e-05
6.99198e-05
7.2256e-05
5.6234e-05
7.03006e-05
4.25768e-05
6.71185e-05
2.92995e-05
6.30145e-05
1.67114e-05
5.83239e-05
5.04463e-06