/*--------------------------------*- C++ -*----------------------------------*\
  =========                 |
  \\      /  F ield         | OpenFOAM: The Open Source CFD Toolbox
   \\    /   O peration     | Website:  https://openfoam.org
    \\  /    A nd           | Version:  9
     \\/     M anipulation  |
\*---------------------------------------------------------------------------*/
FoamFile
{
    format      ascii;
    class       surfaceScalarField;
    location    "0.15";
    object      phi;
}
// * * * * * * * * * * * * * * * * * * * * * * * * * * * * * * * * * * * * * //

dimensions      [0 3 -1 0 0 0 0];

internalField   nonuniform List<scalar> 
4432
(
7.12612e-07
-7.12612e-07
5.20299e-06
-4.49037e-06
1.13814e-05
-6.17837e-06
1.81106e-05
-6.72923e-06
2.51096e-05
-6.99898e-06
3.23241e-05
-7.21449e-06
3.97627e-05
-7.43865e-06
4.74658e-05
-7.70309e-06
5.55016e-05
-8.03579e-06
6.39599e-05
-8.45831e-06
7.2939e-05
-8.97908e-06
8.25263e-05
-9.58729e-06
9.27664e-05
-1.02401e-05
0.000103613
-1.08468e-05
0.000114865
-1.12517e-05
0.00012606
-1.11948e-05
0.000136281
-1.02215e-05
0.000143831
-7.54938e-06
0.00014454
-7.09451e-07
0.000131069
1.34711e-05
9.85844e-05
3.24845e-05
4.55265e-05
5.30578e-05
4.55265e-05
2.7702e-06
-3.48281e-06
8.02673e-06
-9.7469e-06
1.41044e-05
-1.2256e-05
2.05708e-05
-1.31956e-05
2.73084e-05
-1.37366e-05
3.4301e-05
-1.42071e-05
4.1569e-05
-1.47066e-05
4.91547e-05
-1.52888e-05
5.71173e-05
-1.59985e-05
6.55264e-05
-1.68673e-05
7.44481e-05
-1.79008e-05
8.39244e-05
-1.90636e-05
9.39429e-05
-2.02587e-05
0.000104397
-2.13008e-05
0.000115029
-2.18835e-05
0.000125351
-2.15174e-05
0.000134536
-1.94059e-05
0.000141225
-1.42386e-05
0.000144466
-3.95012e-06
0.000142739
1.51976e-05
0.00012897
4.62531e-05
8.50912e-05
9.69371e-05
0.000130618
4.21663e-06
-7.69943e-06
9.9374e-06
-1.54677e-05
1.59918e-05
-1.83105e-05
2.22797e-05
-1.94835e-05
2.88038e-05
-2.02606e-05
3.55891e-05
-2.09924e-05
4.26707e-05
-2.17882e-05
5.00931e-05
-2.27111e-05
5.79082e-05
-2.38136e-05
6.61691e-05
-2.51282e-05
7.49163e-05
-2.66479e-05
8.41577e-05
-2.83051e-05
9.38419e-05
-2.99429e-05
0.000103823
-3.12819e-05
0.000113816
-3.18763e-05
0.00012334
-3.10417e-05
0.000131662
-2.77275e-05
0.000137741
-2.03178e-05
0.000140441
-6.65019e-06
0.00013919
1.64487e-05
0.00013073
5.47126e-05
9.53865e-05
0.000132281
0.000226004
5.0935e-06
-1.27929e-05
1.12646e-05
-2.16388e-05
1.74123e-05
-2.44582e-05
2.36206e-05
-2.56918e-05
2.99991e-05
-2.66391e-05
3.662e-05
-2.76133e-05
4.35376e-05
-2.87059e-05
5.08022e-05
-2.99757e-05
5.84623e-05
-3.14738e-05
6.6559e-05
-3.32249e-05
7.51132e-05
-3.52021e-05
8.41069e-05
-3.72988e-05
9.34597e-05
-3.92956e-05
0.000102999
-4.08211e-05
0.000112425
-4.13028e-05
0.00012128
-3.9896e-05
0.000128933
-3.5381e-05
0.000134656
-2.60407e-05
0.000137805
-9.79924e-06
0.000138103
1.61504e-05
0.000131799
6.10165e-05
9.70635e-05
0.000167017
0.000323068
5.58704e-06
-1.838e-05
1.2145e-05
-2.81968e-05
1.84451e-05
-3.07583e-05
2.4647e-05
-3.18937e-05
3.09382e-05
-3.29303e-05
3.74347e-05
-3.41099e-05
4.42123e-05
-3.54834e-05
5.13297e-05
-3.70931e-05
5.88352e-05
-3.89792e-05
6.67616e-05
-4.11513e-05
7.51148e-05
-4.35553e-05
8.38567e-05
-4.60407e-05
9.28841e-05
-4.8323e-05
0.000102005
-4.99417e-05
0.000110911
-5.02094e-05
0.000119169
-4.81534e-05
0.000126252
-4.24641e-05
0.000131697
-3.14856e-05
0.000135302
-1.34049e-05
0.000136854
1.45991e-05
0.000131191
6.6679e-05
9.2622e-05
0.000205586
0.00041569
5.87072e-06
-2.42507e-05
1.27071e-05
-3.50332e-05
1.91546e-05
-3.72058e-05
2.53846e-05
-3.81237e-05
3.16277e-05
-3.91734e-05
3.8032e-05
-4.05141e-05
4.46914e-05
-4.21429e-05
5.16739e-05
-4.40756e-05
5.9029e-05
-4.63343e-05
6.67842e-05
-4.89064e-05
7.49336e-05
-5.17048e-05
8.34233e-05
-5.45304e-05
9.21321e-05
-5.70318e-05
0.000100852
-5.86618e-05
0.000109269
-5.86266e-05
0.000116965
-5.58491e-05
0.000123493
-4.89919e-05
0.000128588
-3.65808e-05
0.000132276
-1.70924e-05
0.000133871
1.30038e-05
0.00012548
7.50696e-05
8.21368e-05
0.00024893
0.000497826
6.04522e-06
-3.02959e-05
1.30397e-05
-4.20277e-05
1.95935e-05
-4.37596e-05
2.58562e-05
-4.43864e-05
3.20719e-05
-4.53891e-05
3.8406e-05
-4.68483e-05
4.49651e-05
-4.8702e-05
5.18243e-05
-5.09348e-05
5.90348e-05
-5.35449e-05
6.66205e-05
-5.6492e-05
7.45667e-05
-5.96511e-05
8.28068e-05
-6.27705e-05
9.12058e-05
-6.54308e-05
9.95424e-05
-6.69983e-05
0.000107493
-6.65768e-05
0.000114639
-6.29954e-05
0.000120576
-5.49294e-05
0.000125192
-4.11965e-05
0.000128609
-2.05091e-05
0.000129416
1.21971e-05
0.000114352
9.01335e-05
7.4803e-05
0.000288478
0.000572629
6.14088e-06
-3.64368e-05
1.31928e-05
-4.90796e-05
1.97967e-05
-5.03635e-05
2.60771e-05
-5.06667e-05
3.22707e-05
-5.15828e-05
3.85465e-05
-5.3124e-05
4.50168e-05
-5.51723e-05
5.17613e-05
-5.76792e-05
5.88324e-05
-6.0616e-05
6.6251e-05
-6.39107e-05
7.39961e-05
-6.73962e-05
8.19915e-05
-7.07659e-05
9.00912e-05
-7.35305e-05
9.80622e-05
-7.49693e-05
0.000105566
-7.40802e-05
0.000112164
-6.95934e-05
0.000117468
-6.02333e-05
0.000121536
-4.52653e-05
0.00012467
-2.36425e-05
0.000124493
1.23744e-05
0.000101781
0.000112845
7.64373e-05
0.000313822
0.000649067
-1.14941e-05
1.14941e-05
-1.38184e-05
2.32428e-06
-1.08626e-05
-2.95569e-06
-5.94067e-06
-4.92187e-06
-1.25715e-06
-4.68356e-06
2.47766e-06
-3.73467e-06
5.07141e-06
-2.59384e-06
6.65733e-06
-1.58583e-06
7.44325e-06
-7.85998e-07
7.61922e-06
-1.75906e-07
7.35141e-06
2.67765e-07
6.73897e-06
6.1245e-07
5.8556e-06
8.83492e-07
4.75521e-06
1.10039e-06
3.49104e-06
1.26427e-06
2.14236e-06
1.34875e-06
8.6251e-07
1.28005e-06
1.10738e-08
8.51344e-07
1.13666e-08
-1.15724e-05
2.30666e-05
-1.34405e-05
4.19247e-06
-1.03787e-05
-6.01751e-06
-5.56903e-06
-9.73134e-06
-9.67958e-07
-9.28473e-06
2.65507e-06
-7.35751e-06
5.21279e-06
-5.15169e-06
6.81354e-06
-3.18646e-06
7.63469e-06
-1.60725e-06
7.85087e-06
-3.91978e-07
7.59451e-06
5.24241e-07
6.9812e-06
1.22575e-06
6.09717e-06
1.76773e-06
5.01184e-06
2.18581e-06
3.79321e-06
2.4831e-06
2.52493e-06
2.61701e-06
1.32775e-06
2.47764e-06
3.81792e-07
1.79702e-06
3.93398e-07
-1.2279e-05
3.53456e-05
-1.37376e-05
5.65116e-06
-1.02045e-05
-9.55051e-06
-5.21009e-06
-1.47257e-05
-6.31187e-07
-1.38637e-05
2.89828e-06
-1.08868e-05
5.34575e-06
-7.59925e-06
6.85332e-06
-4.69389e-06
7.60184e-06
-2.35578e-06
7.76319e-06
-5.53258e-07
7.47768e-06
8.09876e-07
6.86075e-06
1.84263e-06
6.00103e-06
2.62757e-06
4.97165e-06
3.21527e-06
3.84283e-06
3.61212e-06
2.69081e-06
3.76896e-06
1.60504e-06
3.56378e-06
6.69413e-07
2.73246e-06
1.06301e-06
-1.40986e-05
4.94442e-05
-1.47653e-05
6.3179e-06
-1.02814e-05
-1.40343e-05
-4.77946e-06
-2.02275e-05
-7.79981e-08
-1.85652e-05
3.38445e-06
-1.43492e-05
5.69961e-06
-9.91449e-06
7.07534e-06
-6.06954e-06
7.71607e-06
-2.99653e-06
7.7993e-06
-6.3648e-07
7.46719e-06
1.14208e-06
6.83244e-06
2.47736e-06
5.98288e-06
3.47728e-06
4.99105e-06
4.20715e-06
3.92402e-06
4.67932e-06
2.84701e-06
4.84587e-06
1.82258e-06
4.58857e-06
8.76521e-07
3.6784e-06
1.93969e-06
-1.70009e-05
6.64452e-05
-1.64685e-05
5.78548e-06
-1.05015e-05
-2.00012e-05
-4.21554e-06
-2.65133e-05
7.24109e-07
-2.3505e-05
4.13353e-06
-1.77585e-05
6.29126e-06
-1.20723e-05
7.50067e-06
-7.27886e-06
8.00232e-06
-3.49823e-06
7.98242e-06
-6.16601e-07
7.58258e-06
1.542e-06
6.91166e-06
3.14829e-06
6.05409e-06
4.33495e-06
5.07862e-06
5.18263e-06
4.04564e-06
5.71247e-06
3.00746e-06
5.88398e-06
2.00353e-06
5.5928e-06
1.02288e-06
4.65897e-06
2.9627e-06
-2.10982e-05
8.75435e-05
-1.88931e-05
3.58038e-06
-1.08236e-05
-2.80707e-05
-3.45725e-06
-3.38796e-05
1.80067e-06
-2.87629e-05
5.14443e-06
-2.11022e-05
7.10735e-06
-1.40353e-05
8.11273e-06
-8.28416e-06
8.4439e-06
-3.82942e-06
8.29626e-06
-4.68992e-07
7.80859e-06
2.02975e-06
7.08418e-06
3.87272e-06
6.20173e-06
5.21745e-06
5.22368e-06
6.16066e-06
4.20151e-06
6.73482e-06
3.17419e-06
6.91125e-06
2.16203e-06
6.60521e-06
1.13155e-06
5.6894e-06
4.09433e-06
-2.68007e-05
0.000114344
-2.20342e-05
-1.18611e-06
-1.11255e-05
-3.89794e-05
-2.42109e-06
-4.25839e-05
3.18299e-06
-3.43669e-05
6.41269e-06
-2.43318e-05
8.12594e-06
-1.57485e-05
8.88391e-06
-9.0421e-06
9.01299e-06
-3.95849e-06
8.71471e-06
-1.70733e-07
8.12186e-06
2.62266e-06
7.3295e-06
4.6651e-06
6.40837e-06
6.13861e-06
5.41254e-06
7.15647e-06
4.38327e-06
7.76424e-06
3.34663e-06
7.94785e-06
2.30758e-06
7.64444e-06
1.21976e-06
6.77721e-06
5.31416e-06
-3.34863e-05
0.000147831
-2.52865e-05
-9.38579e-06
-1.11281e-05
-5.31378e-05
-9.14033e-07
-5.27979e-05
4.95503e-06
-4.02361e-05
7.95549e-06
-2.73323e-05
9.33474e-06
-1.71278e-05
9.79183e-06
-9.49919e-06
9.68482e-06
-3.85147e-06
9.21414e-06
2.99929e-07
8.50086e-06
3.33597e-06
7.62869e-06
5.53727e-06
6.65798e-06
7.10935e-06
5.6327e-06
8.18174e-06
4.58312e-06
8.81392e-06
3.52333e-06
9.00763e-06
2.4457e-06
8.72217e-06
1.29509e-06
7.92784e-06
6.60928e-06
1.29567e-05
-4.93935e-05
2.79993e-05
-6.41222e-05
4.19792e-05
-6.43434e-05
5.52796e-05
-6.39671e-05
6.83528e-05
-6.4656e-05
8.15116e-05
-6.62828e-05
9.49907e-05
-6.86515e-05
0.000108964
-7.16523e-05
0.000123543
-7.51949e-05
0.000138764
-7.91317e-05
0.000154566
-8.31989e-05
0.000170767
-8.69667e-05
0.000187026
-8.97897e-05
0.000202802
-9.07448e-05
0.000217309
-8.85869e-05
0.000229617
-8.19021e-05
0.000239148
-6.97641e-05
0.000246397
-5.25147e-05
0.000252009
-2.9254e-05
0.000242894
2.14894e-05
0.000215993
0.000139746
0.000236986
0.00029283
0.000641499
0.000244553
1.27236e-05
-6.21171e-05
2.70486e-05
-7.84472e-05
4.04785e-05
-7.77732e-05
5.33593e-05
-7.68479e-05
6.60498e-05
-7.73465e-05
7.87935e-05
-7.90265e-05
9.17839e-05
-8.16419e-05
0.000105174
-8.50423e-05
0.000119061
-8.90825e-05
0.000133469
-9.3539e-05
0.000148318
-9.80478e-05
0.000163402
-0.000102051
0.000178346
-0.000104734
0.000192531
-0.00010493
0.000205045
-0.000101101
0.000214996
-9.18525e-05
0.00022251
-7.72783e-05
0.00022858
-5.85849e-05
0.000225294
-2.59681e-05
0.000208736
3.80474e-05
0.000204842
0.000143639
0.000232732
0.00026494
0.000584705
0.000289526
1.22991e-05
-7.44162e-05
2.55819e-05
-9.173e-05
3.81076e-05
-9.02989e-05
5.02722e-05
-8.90126e-05
6.23376e-05
-8.94118e-05
7.44738e-05
-9.11627e-05
8.68268e-05
-9.39949e-05
9.95184e-05
-9.77339e-05
0.000112624
-0.000102188
0.000126147
-0.000107062
0.000139991
-0.000111892
0.000153928
-0.000115989
0.000167538
-0.000118343
0.000180095
-0.000117487
0.000190603
-0.000111609
0.000198611
-9.98605e-05
0.00020528
-8.3947e-05
0.000207802
-6.11073e-05
0.000194118
-1.22837e-05
0.000171562
6.06035e-05
0.00016579
0.00014941
0.000183117
0.000247613
0.000476885
0.000290938
1.17246e-05
-8.61408e-05
2.37865e-05
-0.000103792
3.52186e-05
-0.000101731
4.64661e-05
-0.00010026
5.77106e-05
-0.000100656
6.90613e-05
-0.000102513
8.06225e-05
-0.000105556
9.24848e-05
-0.000109596
0.000104699
-0.000114403
0.00011725
-0.000119612
0.000130024
-0.000124666
0.000142769
-0.000128734
0.000154996
-0.00013057
0.000165856
-0.000128347
0.000174558
-0.000120311
0.000181401
-0.000106704
0.000185802
-8.83476e-05
0.000176254
-5.15593e-05
0.000154795
9.17543e-06
0.000134574
8.08249e-05
0.000128827
0.000155157
0.00014471
0.000231731
0.000369451
0.000252143
1.10201e-05
-9.71609e-05
2.17732e-05
-0.000114545
3.20278e-05
-0.000111986
4.22418e-05
-0.000110474
5.25288e-05
-0.000110943
6.2952e-05
-0.000112937
7.35834e-05
-0.000116187
8.44882e-05
-0.000120501
9.5697e-05
-0.000125612
0.00010718
-0.000131095
0.000118812
-0.000136298
0.000130313
-0.000140235
0.000141102
-0.000141359
0.000150264
-0.000137509
0.000157422
-0.000127469
0.000163333
-0.000112616
0.000163578
-8.85922e-05
0.000144317
-3.22981e-05
0.000120377
3.31156e-05
0.000102533
9.86692e-05
9.67452e-05
0.000160944
0.000109031
0.000219444
0.000299013
0.000179469
1.02056e-05
-0.000107367
1.96131e-05
-0.000123952
2.86644e-05
-0.000121037
3.77852e-05
-0.000119595
4.70271e-05
-0.000120185
5.64183e-05
-0.000122328
6.60065e-05
-0.000125776
7.58377e-05
-0.000130332
8.59309e-05
-0.000135705
9.62528e-05
-0.000141416
0.000106676
-0.000146722
0.000116877
-0.000150436
0.000126161
-0.000150643
0.000133829
-0.000145176
0.00014007
-0.000133709
0.000143942
-0.000116488
0.000131936
-7.65866e-05
0.000110124
-1.04863e-05
8.86312e-05
5.46086e-05
7.34381e-05
0.000113862
6.77248e-05
0.000166657
7.49133e-05
0.000212256
0.00025833
0.000115597
9.30767e-06
-0.000116674
1.73543e-05
-0.000131999
2.5206e-05
-0.000128889
3.32114e-05
-0.0001276
4.13594e-05
-0.000128333
4.96484e-05
-0.000130617
5.81058e-05
-0.000134233
6.6765e-05
-0.000138991
7.56436e-05
-0.000144583
8.472e-05
-0.000150493
9.38776e-05
-0.00015588
0.000102765
-0.000159323
0.000110597
-0.000158475
0.000116837
-0.000151416
0.00012181
-0.000138682
0.000122376
-0.000117054
0.000101454
-5.56642e-05
7.94142e-05
1.15532e-05
6.07804e-05
7.32423e-05
4.83094e-05
0.000126333
4.3991e-05
0.000170976
4.99864e-05
0.000206261
0.000232578
7.57383e-05
8.34238e-06
-0.000125017
1.50221e-05
-0.000138679
2.17048e-05
-0.000135571
2.86067e-05
-0.000134502
3.56487e-05
-0.000135375
4.28002e-05
-0.000137768
5.007e-05
-0.000141503
5.74828e-05
-0.000146404
6.50641e-05
-0.000152165
7.28166e-05
-0.000158246
8.0646e-05
-0.000163709
8.81942e-05
-0.000166871
9.4803e-05
-0.000165084
0.000100106
-0.000156719
0.000103417
-0.000141994
9.17327e-05
-0.00010537
7.14149e-05
-3.53463e-05
5.18474e-05
3.11208e-05
3.66792e-05
8.84105e-05
2.73837e-05
0.000135629
2.54836e-05
0.000172876
3.25129e-05
0.000199231
0.00021325
5.18413e-05
7.25278e-06
-0.000132269
1.26109e-05
-0.000144037
1.82087e-05
-0.000141169
2.40659e-05
-0.000140359
3.00368e-05
-0.000141346
3.6063e-05
-0.000143794
4.21344e-05
-0.000147574
4.82675e-05
-0.000152537
5.44984e-05
-0.000158396
6.08644e-05
-0.000164612
6.73195e-05
-0.000170164
7.35202e-05
-0.000173072
7.90226e-05
-0.000170587
8.37084e-05
-0.000161404
8.70291e-05
-0.000145314
6.81413e-05
-8.64827e-05
4.71742e-05
-1.43792e-05
2.94951e-05
4.87999e-05
1.69264e-05
0.00010098
1.04517e-05
0.000142104
1.10499e-05
0.000172278
1.9377e-05
0.000190904
0.000196918
3.57083e-05
5.78874e-06
-0.000138058
1.00751e-05
-0.000148323
1.47843e-05
-0.000145878
1.97302e-05
-0.000145305
2.47343e-05
-0.00014635
2.97194e-05
-0.00014878
3.46566e-05
-0.000152512
3.95477e-05
-0.000157428
4.44302e-05
-0.000163278
4.9377e-05
-0.000169558
5.44404e-05
-0.000175227
5.93939e-05
-0.000178026
6.39487e-05
-0.000175141
6.75836e-05
-0.000165039
6.76364e-05
-0.000145367
4.6671e-05
-6.55168e-05
2.64896e-05
5.80216e-06
1.05812e-05
6.47084e-05
4.09582e-07
0.000111151
-3.41739e-06
0.000145931
-6.09221e-07
0.00016947
8.63613e-06
0.000181659
0.000182457
2.30976e-05
3.63533e-06
-0.000141693
7.49899e-06
-0.000152187
1.16157e-05
-0.000149995
1.58468e-05
-0.000149536
2.00654e-05
-0.000150569
2.41909e-05
-0.000152905
2.81727e-05
-0.000156493
3.19831e-05
-0.000161239
3.56341e-05
-0.000166929
3.9207e-05
-0.000173131
4.28779e-05
-0.000178898
4.67003e-05
-0.000181848
5.05955e-05
-0.000179037
5.45978e-05
-0.000169042
4.16099e-05
-0.000132379
2.23728e-05
-4.62794e-05
5.08697e-06
2.3088e-05
-7.51579e-06
7.73111e-05
-1.45616e-05
0.000118197
-1.56266e-05
0.000146996
-1.07821e-05
0.000164625
-9.25809e-07
0.000171803
0.000169383
1.2148e-05
1.73683e-06
-0.00014343
5.57709e-06
-0.000156027
9.13201e-06
-0.00015355
1.27994e-05
-0.000153204
1.64734e-05
-0.000154243
2.00411e-05
-0.000156473
2.34155e-05
-0.000159868
2.65241e-05
-0.000164347
2.93155e-05
-0.000169721
3.1785e-05
-0.000175601
3.41782e-05
-0.000181291
3.70201e-05
-0.00018469
4.0228e-05
-0.000182244
4.41172e-05
-0.000172931
2.00294e-05
-0.000108291
2.97964e-07
-2.65484e-05
-1.47105e-05
3.80964e-05
-2.42836e-05
8.68842e-05
-2.8223e-05
0.000122136
-2.66317e-05
0.000145404
-2.01194e-05
0.000158113
-9.93965e-06
0.000161623
0.000157346
2.09786e-06
5.22455e-06
-0.000148655
5.49874e-06
-0.000156301
7.72269e-06
-0.000155774
1.09463e-05
-0.000156427
1.44308e-05
-0.000157727
1.79039e-05
-0.000159946
2.12154e-05
-0.000163179
2.42311e-05
-0.000167363
2.68004e-05
-0.00017229
2.86534e-05
-0.000177454
2.96968e-05
-0.000182335
3.16808e-05
-0.000186674
3.40918e-05
-0.000184655
2.59086e-05
-0.000164748
2.54263e-07
-8.26374e-05
-1.97543e-05
-6.53985e-06
-3.27426e-05
5.10846e-05
-3.95183e-05
9.366e-05
-4.0622e-05
0.00012324
-3.67376e-05
0.00014152
-2.89214e-05
0.000150297
-1.85736e-05
0.000151275
0.000146082
-7.30938e-06
2.54331e-05
-0.000174088
7.25751e-06
-0.000138126
7.53769e-06
-0.000156054
1.05488e-05
-0.000159439
1.43705e-05
-0.000161549
1.84006e-05
-0.000163976
2.2427e-05
-0.000167206
2.62315e-05
-0.000171167
2.95005e-05
-0.000175559
3.13568e-05
-0.00017931
2.97512e-05
-0.000180729
2.76282e-05
-0.000184551
2.51266e-05
-0.000182154
-3.14137e-07
-0.000139307
-2.59231e-05
-5.70282e-05
-4.16658e-05
9.20301e-06
-5.06541e-05
6.00729e-05
-5.39065e-05
9.69125e-05
-5.20888e-05
0.000121422
-4.61443e-05
0.000135576
-3.72855e-05
0.000141438
-2.68293e-05
0.000140819
0.000135358
-1.61054e-05
3.80065e-05
-0.000212094
1.44008e-05
-0.00011452
9.5503e-06
-0.000151203
1.22917e-05
-0.00016218
1.66684e-05
-0.000165926
2.15032e-05
-0.000168811
2.62413e-05
-0.000171944
3.02994e-05
-0.000175225
3.27005e-05
-0.00017796
3.23251e-05
-0.000178935
2.92044e-05
-0.000177608
1.79277e-05
-0.000173274
-7.45857e-06
-0.000156768
-3.9056e-05
-0.00010771
-5.52339e-05
-4.08502e-05
-6.44866e-05
1.84558e-05
-6.83468e-05
6.3933e-05
-6.75204e-05
9.6086e-05
-6.27086e-05
0.00011661
-5.48858e-05
0.000127753
-4.51496e-05
0.000131702
-3.45829e-05
0.000130252
0.000124985
-2.42099e-05
-9.73892e-06
-0.000202355
4.13903e-06
-0.000128398
8.1265e-06
-0.000155191
1.04086e-05
-0.000164462
1.25498e-05
-0.000168067
1.42622e-05
-0.000170523
1.50837e-05
-0.000172765
1.44651e-05
-0.000174607
1.17399e-05
-0.000175235
6.19298e-06
-0.000173388
-3.68088e-06
-0.000167735
-2.1058e-05
-0.000155897
-4.6655e-05
-0.00013117
-6.85629e-05
-8.58016e-05
-8.02538e-05
-2.91595e-05
-8.46291e-05
2.2831e-05
-8.40214e-05
6.33252e-05
-7.95428e-05
9.16074e-05
-7.2133e-05
0.0001092
-6.27561e-05
0.000118376
-5.23164e-05
0.000121262
-4.16435e-05
0.00011958
0.000114835
-3.14943e-05
-2.15115e-05
-0.000180844
-6.63426e-07
-0.000149246
3.78519e-06
-0.000159639
3.51827e-06
-0.000164195
2.35206e-06
-0.000166901
6.27034e-07
-0.000168798
-2.00776e-06
-0.00017013
-6.09598e-06
-0.000170519
-1.22614e-05
-0.000169069
-2.12218e-05
-0.000164427
-3.40426e-05
-0.000154914
-5.18525e-05
-0.000138087
-7.29771e-05
-0.000110046
-9.00737e-05
-6.8705e-05
-9.8724e-05
-2.05091e-05
-0.000100069
2.41757e-05
-9.63468e-05
5.96032e-05
-8.92191e-05
8.44798e-05
-7.99346e-05
9.9916e-05
-6.94558e-05
0.000107897
-5.85339e-05
0.00011034
-4.78059e-05
0.000108852
0.000104856
-3.78263e-05
-1.1787e-05
-0.000169057
-3.30303e-06
-0.00015773
-2.91113e-06
-0.000160031
-5.66758e-06
-0.000161439
-9.51902e-06
-0.000163049
-1.40931e-05
-0.000164224
-1.95843e-05
-0.000164639
-2.64156e-05
-0.000163687
-3.5101e-05
-0.000160384
-4.61456e-05
-0.000153383
-5.99789e-05
-0.00014108
-7.64477e-05
-0.000121618
-9.33427e-05
-9.31511e-05
-0.000106098
-5.59495e-05
-0.000111736
-1.48713e-05
-0.000110763
2.32023e-05
-0.000105011
5.38522e-05
-9.62532e-05
7.57216e-05
-8.58472e-05
8.951e-05
-7.47359e-05
9.67856e-05
-6.35807e-05
9.9185e-05
-5.2897e-05
9.81678e-05
9.50584e-05
-4.30996e-05
-7.32413e-06
-0.000161733
-7.6964e-06
-0.000157358
-1.08897e-05
-0.000156838
-1.54359e-05
-0.000156892
-2.10872e-05
-0.000157398
-2.76374e-05
-0.000157674
-3.51825e-05
-0.000157094
-4.39779e-05
-0.000154892
-5.43149e-05
-0.000150047
-6.63747e-05
-0.000141323
-8.00474e-05
-0.000127408
-9.45443e-05
-0.000107121
-0.000107807
-7.98882e-05
-0.000116871
-4.68858e-05
-0.000119888
-1.18544e-05
-0.000117186
2.05011e-05
-0.000110239
4.69052e-05
-0.000100666
6.61477e-05
-8.97664e-05
7.86108e-05
-7.84426e-05
8.54618e-05
-6.73066e-05
8.80491e-05
-5.68017e-05
8.76629e-05
8.55064e-05
-4.72497e-05
-7.35801e-06
-0.000154375
-1.19657e-05
-0.00015275
-1.74447e-05
-0.000151359
-2.36695e-05
-0.000150668
-3.07479e-05
-0.00015032
-3.87141e-05
-0.000149707
-4.76513e-05
-0.000148157
-5.76786e-05
-0.000144864
-6.88631e-05
-0.000138862
-8.10903e-05
-0.000129096
-9.39017e-05
-0.000114596
-0.000106284
-9.47387e-05
-0.000116536
-6.96367e-05
-0.00012271
-4.07114e-05
-0.000123723
-1.08414e-05
-0.000119887
1.66646e-05
-0.000112384
3.94024e-05
-0.000102596
5.63601e-05
-9.16925e-05
6.7707e-05
-8.05152e-05
7.42846e-05
-6.96421e-05
7.7176e-05
-5.94702e-05
7.7491e-05
7.62949e-05
-5.02587e-05
-8.23323e-06
-0.000146142
-1.51209e-05
-0.000145863
-2.21584e-05
-0.000144322
-2.96404e-05
-0.000143186
-3.77814e-05
-0.000142179
-4.66991e-05
-0.00014079
-5.64626e-05
-0.000138393
-6.70848e-05
-0.000134242
-7.84578e-05
-0.000127489
-9.02614e-05
-0.000117292
-0.000101867
-0.000102991
-0.000112268
-8.43382e-05
-0.000120133
-6.1771e-05
-0.00012419
-3.66549e-05
-0.000123833
-1.11985e-05
-0.000119387
1.22183e-05
-0.000111809
3.18244e-05
-0.000102245
4.67966e-05
-9.17137e-05
5.71753e-05
-8.09848e-05
6.35556e-05
-7.05989e-05
6.67901e-05
-6.09171e-05
6.78092e-05
6.75327e-05
-5.21549e-05
-8.8797e-06
-0.000137262
-1.69878e-05
-0.000137755
-2.50186e-05
-0.000136291
-3.33208e-05
-0.000134883
-4.21223e-05
-0.000133377
-5.15491e-05
-0.000131363
-6.16399e-05
-0.000128303
-7.23271e-05
-0.000123555
-8.33903e-05
-0.000116426
-9.44027e-05
-0.00010628
-0.000104695
-9.26986e-05
-0.000113369
-7.56642e-05
-0.000119418
-5.5722e-05
-0.000122008
-3.40645e-05
-0.000120826
-1.23806e-05
-0.000116197
7.58902e-06
-0.000108901
2.45288e-05
-9.98822e-05
3.77773e-05
-9.00095e-05
4.73027e-05
-7.99723e-05
5.35184e-05
-7.02657e-05
5.70835e-05
-6.12168e-05
5.87602e-05
5.93246e-05
-5.30088e-05
-9.07085e-06
-0.000128191
-1.77367e-05
-0.000129089
-2.62796e-05
-0.000127748
-3.49872e-05
-0.000126176
-4.40557e-05
-0.000124309
-5.3587e-05
-0.000121832
-6.35837e-05
-0.000118306
-7.39252e-05
-0.000113214
-8.43353e-05
-0.000106016
-9.43577e-05
-9.62574e-05
-0.00010336
-8.36963e-05
-0.000110588
-6.8436e-05
-0.000115292
-5.10186e-05
-0.000116924
-3.24321e-05
-0.000115342
-1.39631e-05
-0.000110853
3.1003e-06
-0.000104098
1.77742e-05
-9.585e-05
2.95291e-05
-8.68423e-05
3.8295e-05
-7.76769e-05
4.43529e-05
-6.87965e-05
4.82031e-05
-6.04937e-05
5.04574e-05
5.17574e-05
-5.29265e-05
-8.91837e-06
-0.000119273
-1.76561e-05
-0.000120351
-2.62986e-05
-0.000119105
-3.50437e-05
-0.000117431
-4.40338e-05
-0.000115319
-5.33329e-05
-0.000112532
-6.29103e-05
-0.000108729
-7.26171e-05
-0.000103507
-8.21638e-05
-9.64693e-05
-9.11153e-05
-8.7306e-05
-9.89156e-05
-7.58959e-05
-0.000104954
-6.23971e-05
-0.000108677
-4.72961e-05
-0.000109724
-3.13852e-05
-0.000108047
-1.56401e-05
-0.000103924
-1.0222e-06
-9.7882e-05
1.17321e-05
-9.05478e-05
2.21948e-05
-8.25328e-05
3.028e-05
-7.43513e-05
3.61714e-05
-6.63902e-05
4.0242e-05
-5.8907e-05
4.29742e-05
4.48894e-05
-5.20391e-05
-8.53832e-06
-0.000110734
-1.70098e-05
-0.000111879
-2.5432e-05
-0.000110683
-3.39209e-05
-0.000108942
-4.25611e-05
-0.000106678
-5.13769e-05
-0.000103717
-6.03116e-05
-9.97939e-05
-6.92065e-05
-9.46119e-05
-7.77869e-05
-8.78889e-05
-8.56665e-05
-7.94264e-05
-9.23799e-05
-6.91825e-05
-9.7446e-05
-5.73309e-05
-0.000100457
-4.42846e-05
-0.000101177
-3.06658e-05
-9.96053e-05
-1.72117e-05
-9.59892e-05
-4.63829e-06
-9.07484e-05
6.49124e-06
-8.43929e-05
1.58393e-05
-7.74234e-05
2.33105e-05
-7.0271e-05
2.9019e-05
-6.32663e-05
3.32374e-05
-5.66327e-05
3.63406e-05
3.87468e-05
-5.049e-05
-7.99219e-06
-0.000102742
-1.59997e-05
-0.000103872
-2.39869e-05
-0.000102696
-3.2013e-05
-0.000100916
-4.01152e-05
-9.85763e-05
-4.82845e-05
-9.55473e-05
-5.64471e-05
-9.16313e-05
-6.44477e-05
-8.66114e-05
-7.20411e-05
-8.02954e-05
-7.89012e-05
-7.25662e-05
-8.46524e-05
-6.34312e-05
-8.89241e-05
-5.30592e-05
-9.14188e-05
-4.179e-05
-9.19792e-05
-3.01054e-05
-9.06304e-05
-1.85606e-05
-8.75774e-05
-7.69136e-06
-8.31579e-05
2.07177e-06
-7.77773e-05
1.04587e-05
-7.18404e-05
1.73735e-05
-6.5702e-05
2.28807e-05
-5.964e-05
2.71754e-05
-5.38452e-05
3.05458e-05
3.3324e-05
-4.84225e-05
-7.36015e-06
-9.53819e-05
-1.47859e-05
-9.64462e-05
-2.22087e-05
-9.52727e-05
-2.96464e-05
-9.34779e-05
-3.71004e-05
-9.11224e-05
-4.4538e-05
-8.81097e-05
-5.1877e-05
-8.42923e-05
-5.89735e-05
-7.95149e-05
-6.56178e-05
-7.36511e-05
-7.15444e-05
-6.66396e-05
-7.6459e-05
-5.85166e-05
-8.00812e-05
-4.9437e-05
-8.21956e-05
-3.96757e-05
-8.26979e-05
-2.96032e-05
-8.1621e-05
-1.96375e-05
-7.91313e-05
-1.01811e-05
-7.54954e-05
-1.56417e-06
-7.10318e-05
5.99517e-06
-6.60629e-05
1.24046e-05
-6.08765e-05
1.76944e-05
-5.57028e-05
2.20016e-05
-5.0703e-05
2.5546e-05
2.85898e-05
-4.59689e-05
-6.69149e-06
-8.86905e-05
-1.34828e-05
-8.96549e-05
-2.02793e-05
-8.84762e-05
-2.70688e-05
-8.66886e-05
-3.38284e-05
-8.43628e-05
-4.05108e-05
-8.14272e-05
-4.70324e-05
-7.77708e-05
-5.32651e-05
-7.32823e-05
-5.90349e-05
-6.78814e-05
-6.41314e-05
-6.15432e-05
-6.83289e-05
-5.43192e-05
-7.14189e-05
-4.6347e-05
-7.32469e-05
-3.78477e-05
-7.37436e-05
-2.91065e-05
-7.29421e-05
-2.0439e-05
-7.09738e-05
-1.21494e-05
-6.80456e-05
-4.49236e-06
-6.44049e-05
2.35445e-06
-6.03055e-05
8.30519e-06
-5.59781e-05
1.33669e-05
-5.16109e-05
1.76344e-05
-4.73395e-05
2.12746e-05
2.44939e-05
-4.32437e-05
-6.02426e-06
-8.26662e-05
-1.21712e-05
-8.35079e-05
-1.83258e-05
-8.23217e-05
-2.44545e-05
-8.05599e-05
-3.05194e-05
-7.82979e-05
-3.64658e-05
-7.54809e-05
-4.22136e-05
-7.2023e-05
-4.76521e-05
-6.78439e-05
-5.26401e-05
-6.28934e-05
-5.70138e-05
-5.71696e-05
-6.06031e-05
-5.07299e-05
-6.32553e-05
-4.36949e-05
-6.48603e-05
-3.62427e-05
-6.53723e-05
-2.85945e-05
-6.48209e-05
-2.09904e-05
-6.33076e-05
-1.36626e-05
-6.09907e-05
-6.8093e-06
-5.80606e-05
-5.7574e-07
-5.47152e-05
4.95974e-06
-5.11378e-05
9.78947e-06
-4.74815e-05
1.39781e-05
-4.38591e-05
1.76522e-05
2.0975e-05
-4.03401e-05
-5.38708e-06
-7.72791e-05
-1.09054e-05
-7.79896e-05
-1.64303e-05
-7.67969e-05
-2.19151e-05
-7.5075e-05
-2.73134e-05
-7.28996e-05
-3.25682e-05
-7.02262e-05
-3.76057e-05
-6.69855e-05
-4.23322e-05
-6.31174e-05
-4.66349e-05
-5.85908e-05
-5.03878e-05
-5.34167e-05
-5.34644e-05
-4.76533e-05
-5.57537e-05
-4.14055e-05
-5.71779e-05
-3.48185e-05
-5.7707e-05
-2.80655e-05
-5.73656e-05
-2.13319e-05
-5.62312e-05
-1.4797e-05
-5.44235e-05
-8.61706e-06
-5.20882e-05
-2.9111e-06
-4.93783e-05
2.2498e-06
-4.64391e-05
6.85026e-06
-4.33944e-05
1.09334e-05
-4.03382e-05
1.45961e-05
1.79675e-05
-3.73305e-05
-4.79338e-06
-7.24858e-05
-9.71332e-06
-7.30698e-05
-1.46368e-05
-7.18733e-05
-1.95114e-05
-7.02004e-05
-2.42862e-05
-6.81249e-05
-2.89051e-05
-6.56073e-05
-3.33023e-05
-6.25883e-05
-3.73997e-05
-5.90199e-05
-4.1108e-05
-5.48826e-05
-4.43311e-05
-5.01936e-05
-4.69754e-05
-4.5009e-05
-4.89607e-05
-3.94203e-05
-5.02322e-05
-3.3547e-05
-5.07701e-05
-2.75276e-05
-5.05946e-05
-2.15075e-05
-4.9764e-05
-1.56276e-05
-4.83684e-05
-1.00127e-05
-4.65185e-05
-4.76104e-06
-4.43328e-05
6.41314e-08
-4.19261e-05
4.44362e-06
-3.93986e-05
8.40603e-06
-3.68285e-05
1.20261e-05
1.5407e-05
-3.42679e-05
-4.24061e-06
-6.82452e-05
-8.59957e-06
-6.87109e-05
-1.296e-05
-6.75129e-05
-1.72665e-05
-6.58939e-05
-2.14667e-05
-6.39246e-05
-2.55077e-05
-6.15662e-05
-2.93324e-05
-5.87636e-05
-3.28767e-05
-5.54756e-05
-3.60705e-05
-5.16888e-05
-3.88409e-05
-4.74232e-05
-4.11186e-05
-4.27313e-05
-4.28456e-05
-3.76933e-05
-4.39831e-05
-3.24096e-05
-4.45182e-05
-2.69925e-05
-4.44666e-05
-2.1559e-05
-4.38724e-05
-1.62218e-05
-4.2803e-05
-1.1082e-05
-4.13425e-05
-6.22152e-06
-3.95828e-05
-1.69547e-06
-3.76147e-05
2.47554e-06
-3.55195e-05
6.31104e-06
-3.33628e-05
9.8695e-06
1.3234e-05
-3.11897e-05
-3.71599e-06
-6.45293e-05
-7.55496e-06
-6.48718e-05
-1.13961e-05
-6.36717e-05
-1.51801e-05
-6.211e-05
-1.88547e-05
-6.025e-05
-2.23721e-05
-5.80487e-05
-2.56846e-05
-5.54512e-05
-2.87412e-05
-5.24191e-05
-3.14874e-05
-4.89426e-05
-3.38679e-05
-4.50426e-05
-3.58312e-05
-4.0768e-05
-3.7335e-05
-3.61897e-05
-3.83514e-05
-3.13931e-05
-3.88717e-05
-2.64722e-05
-3.89082e-05
-2.15224e-05
-3.84938e-05
-1.66361e-05
-3.76791e-05
-1.18966e-05
-3.6528e-05
-7.37257e-06
-3.51117e-05
-3.11171e-06
-3.35023e-05
8.66234e-07
-3.17665e-05
4.57534e-06
-2.99596e-05
8.06262e-06
1.13954e-05
-2.8121e-05
-3.20697e-06
-6.13222e-05
-6.5687e-06
-6.151e-05
-9.93599e-06
-6.03044e-05
-1.32413e-05
-5.88046e-05
-1.64344e-05
-5.7057e-05
-1.94752e-05
-5.5008e-05
-2.23264e-05
-5.26e-05
-2.4949e-05
-4.97965e-05
-2.73015e-05
-4.659e-05
-2.9342e-05
-4.30021e-05
-3.10316e-05
-3.90785e-05
-3.23387e-05
-3.48826e-05
-3.32431e-05
-3.04888e-05
-3.37385e-05
-2.59767e-05
-3.38343e-05
-2.14266e-05
-3.35549e-05
-1.69155e-05
-3.29382e-05
-1.25132e-05
-3.20326e-05
-8.27813e-06
-3.08931e-05
-4.25121e-06
-2.9577e-05
-4.49844e-07
-2.81394e-05
3.13777e-06
-2.66281e-05
6.55134e-06
9.84575e-06
-2.50784e-05
-2.70253e-06
-5.86197e-05
-5.63444e-06
-5.85782e-05
-8.5719e-06
-5.7367e-05
-1.14361e-05
-5.59404e-05
-1.41831e-05
-5.431e-05
-1.67846e-05
-5.24066e-05
-1.92152e-05
-5.01694e-05
-2.14471e-05
-4.75645e-05
-2.3449e-05
-4.45881e-05
-2.51887e-05
-4.12625e-05
-2.66359e-05
-3.76312e-05
-2.77667e-05
-3.37517e-05
-2.85658e-05
-2.96897e-05
-2.90285e-05
-2.5514e-05
-2.91616e-05
-2.12934e-05
-2.89834e-05
-1.70937e-05
-2.85218e-05
-1.29749e-05
-2.78129e-05
-8.98708e-06
-2.68984e-05
-5.1657e-06
-2.58233e-05
-1.52484e-06
-2.46337e-05
1.94815e-06
-2.33726e-05
5.29031e-06
8.54647e-06
-2.20733e-05
-2.17652e-06
-5.64431e-05
-4.74833e-06
-5.60064e-05
-7.30004e-06
-5.48153e-05
-9.74978e-06
-5.34907e-05
-1.20744e-05
-5.19854e-05
-1.42637e-05
-5.02172e-05
-1.63057e-05
-4.81274e-05
-1.81814e-05
-4.56887e-05
-1.98671e-05
-4.29024e-05
-2.13366e-05
-3.9793e-05
-2.2566e-05
-3.64019e-05
-2.35361e-05
-3.27816e-05
-2.4235e-05
-2.89908e-05
-2.46593e-05
-2.50898e-05
-2.4814e-05
-2.11388e-05
-2.47124e-05
-1.71954e-05
-2.4375e-05
-1.33124e-05
-2.38276e-05
-9.53451e-06
-2.31003e-05
-5.89297e-06
-2.22267e-05
-2.39842e-06
-2.12447e-05
9.66268e-07
-2.01966e-05
4.24226e-06
7.46637e-06
-1.91164e-05
-1.61689e-06
-5.48263e-05
-3.93122e-06
-5.36921e-05
-6.12922e-06
-5.26174e-05
-8.17022e-06
-5.14498e-05
-1.00804e-05
-5.00753e-05
-1.18749e-05
-4.84227e-05
-1.35528e-05
-4.64495e-05
-1.51005e-05
-4.4141e-05
-1.64976e-05
-4.15054e-05
-1.77216e-05
-3.85691e-05
-1.87519e-05
-3.53715e-05
-1.95731e-05
-3.19605e-05
-2.01757e-05
-2.83882e-05
-2.05574e-05
-2.47082e-05
-2.07223e-05
-2.0974e-05
-2.06805e-05
-1.72372e-05
-2.04468e-05
-1.35462e-05
-2.00386e-05
-9.94275e-06