/*--------------------------------*- C++ -*----------------------------------*\
  =========                 |
  \\      /  F ield         | OpenFOAM: The Open Source CFD Toolbox
   \\    /   O peration     | Website:  https://openfoam.org
    \\  /    A nd           | Version:  9
     \\/     M anipulation  |
\*---------------------------------------------------------------------------*/
FoamFile
{
    format      ascii;
    class       volVectorField;
    location    "0.15";
    object      U;
}
// * * * * * * * * * * * * * * * * * * * * * * * * * * * * * * * * * * * * * //

dimensions      [0 1 -1 0 0 0 0];

internalField   nonuniform List<vector> 
2268
(
(-0.0337601 0.0257555 0)
(-0.175658 0.0432784 0)
(-0.390677 0.0553925 0)
(-0.631521 0.117279 0)
(-1.11276 0.33735 0)
(-1.72143 0.172393 0)
(-1.80702 0.00661189 0)
(-1.94335 0.0620472 0)
(-2.13729 0.0246227 0)
(-2.14211 -0.0266539 0)
(-2.00874 -0.051246 0)
(-1.8402 -0.0583916 0)
(-1.64997 -0.0601565 0)
(-1.45941 -0.0586398 0)
(-1.27516 -0.0572819 0)
(-1.0959 -0.0582666 0)
(-0.912669 -0.0631644 0)
(-0.709173 -0.0735559 0)
(-0.468982 -0.0892389 0)
(-0.197189 -0.101044 0)
(0.0628578 -0.0836474 0)
(0.225978 -0.0157438 0)
(0.157189 0.049551 0)
(-0.0816516 0.0905445 0)
(-0.306505 0.146838 0)
(-0.606574 0.191901 0)
(-0.949647 0.262554 0)
(-1.3312 0.343585 0)
(-1.43918 0.12489 0)
(-1.94798 0.14847 0)
(-2.12787 0.12589 0)
(-2.1827 0.0466509 0)
(-2.14174 -0.0470485 0)
(-2.04669 -0.108377 0)
(-1.88983 -0.134725 0)
(-1.71013 -0.141544 0)
(-1.52549 -0.138847 0)
(-1.34378 -0.134142 0)
(-1.16579 -0.133069 0)
(-0.985242 -0.139827 0)
(-0.789097 -0.158003 0)
(-0.561739 -0.1867 0)
(-0.301612 -0.206215 0)
(-0.0414176 -0.165486 0)
(0.142864 -0.0249709 0)
(0.147385 0.127495 0)
(-0.103233 0.186145 0)
(-0.324267 0.264931 0)
(-0.589791 0.324618 0)
(-0.853025 0.39213 0)
(-0.946726 0.394424 0)
(-1.15474 0.332669 0)
(-1.68638 0.283267 0)
(-1.92094 0.192175 0)
(-2.03683 0.0639341 0)
(-2.06511 -0.0654371 0)
(-2.00271 -0.158355 0)
(-1.87286 -0.206195 0)
(-1.71267 -0.220801 0)
(-1.54221 -0.219452 0)
(-1.3707 -0.213702 0)
(-1.20107 -0.212276 0)
(-1.03002 -0.221811 0)
(-0.848335 -0.248173 0)
(-0.641395 -0.290826 0)
(-0.40024 -0.322708 0)
(-0.144054 -0.27058 0)
(0.067911 -0.0699659 0)
(0.11642 0.180113 0)
(-0.107588 0.286605 0)
(-0.299416 0.372541 0)
(-0.516156 0.426573 0)
(-0.697393 0.469431 0)
(-0.709449 0.503229 0)
(-0.998348 0.559273 0)
(-1.41862 0.445409 0)
(-1.69326 0.289946 0)
(-1.87418 0.114062 0)
(-1.95408 -0.0616438 0)
(-1.92875 -0.195493 0)
(-1.82923 -0.268106 0)
(-1.69214 -0.293589 0)
(-1.53934 -0.29598 0)
(-1.38134 -0.29071 0)
(-1.22335 -0.28938 0)
(-1.06524 -0.301053 0)
(-0.902507 -0.334206 0)
(-0.72378 -0.390698 0)
(-0.514467 -0.440996 0)
(-0.275171 -0.39181 0)
(-0.0324358 -0.137487 0)
(0.10203 0.211596 0)
(-0.10327 0.378381 0)
(-0.263435 0.461481 0)
(-0.438519 0.504683 0)
(-0.588465 0.527057 0)
(-0.651101 0.569741 0)
(-0.866312 0.703159 0)
(-1.16096 0.604949 0)
(-1.45273 0.411492 0)
(-1.68762 0.190221 0)
(-1.81725 -0.0376943 0)
(-1.83247 -0.216997 0)
(-1.76561 -0.318157 0)
(-1.65419 -0.357401 0)
(-1.52166 -0.36577 0)
(-1.37943 -0.36238 0)
(-1.23504 -0.361231 0)
(-1.09151 -0.373126 0)
(-0.949747 -0.408578 0)
(-0.805286 -0.473396 0)
(-0.644807 -0.543333 0)
(-0.450498 -0.516138 0)
(-0.190437 -0.233054 0)
(0.087632 0.213918 0)
(-0.0954503 0.458701 0)
(-0.228071 0.534321 0)
(-0.371109 0.570081 0)
(-0.504424 0.583853 0)
(-0.583431 0.637053 0)
(-0.728349 0.782927 0)
(-0.918073 0.743852 0)
(-1.2031 0.545775 0)
(-1.48004 0.290123 0)
(-1.65976 0.00866076 0)
(-1.71838 -0.220473 0)
(-1.68674 -0.353778 0)
(-1.60303 -0.409628 0)
(-1.49251 -0.426419 0)
(-1.36735 -0.426568 0)
(-1.23743 -0.425986 0)
(-1.10858 -0.436443 0)
(-0.986574 -0.469101 0)
(-0.875776 -0.533099 0)
(-0.773153 -0.616052 0)
(-0.655096 -0.626776 0)
(-0.423812 -0.361603 0)
(0.0217239 0.202443 0)
(-0.086582 0.528468 0)
(-0.19729 0.59491 0)
(-0.315179 0.626839 0)
(-0.434685 0.638252 0)
(-0.518601 0.689371 0)
(-0.627373 0.809188 0)
(-0.731334 0.840416 0)
(-0.96525 0.676893 0)
(-1.26133 0.407009 0)
(-1.48932 0.0764776 0)
(-1.59283 -0.204271 0)
(-1.59753 -0.37411 0)
(-1.5429 -0.449601 0)
(-1.4554 -0.477373 0)
(-1.34773 -0.482981 0)
(-1.2323 -0.483742 0)
(-1.1174 -0.491958 0)
(-1.01206 -0.518165 0)
(-0.926987 -0.571726 0)
(-0.871988 -0.650848 0)
(-0.840331 -0.697962 0)
(-0.719706 -0.531473 0)
(-0.238384 -0.00253573 0)
(-0.0777817 0.589677 0)
(-0.172167 0.646328 0)
(-0.270918 0.676393 0)
(-0.37733 0.687876 0)
(-0.460555 0.734909 0)
(-0.537254 0.854983 0)
(-0.612837 0.912491 0)
(-0.758325 0.798448 0)
(-1.04103 0.540336 0)
(-1.3098 0.16579 0)
(-1.46172 -0.169456 0)
(-1.50358 -0.380173 0)
(-1.4767 -0.478811 0)
(-1.41136 -0.520102 0)
(-1.32075 -0.532779 0)
(-1.21968 -0.535626 0)
(-1.11821 -0.541439 0)
(-1.02691 -0.559698 0)
(-0.958179 -0.597278 0)
(-0.927338 -0.655021 0)
(-0.953281 -0.709915 0)
(-0.993488 -0.670133 0)
(-0.722374 -0.369417 0)
(-0.0181604 0.011791 0)
(-0.0819462 0.0202505 0)
(-0.156542 0.0190562 0)
(-0.211998 0.0122397 0)
(-0.243342 0.0062108 0)
(-0.256537 0.00144791 0)
(-0.255496 -0.00171561 0)
(-0.245831 -0.0036718 0)
(-0.230764 -0.00489656 0)
(-0.212121 -0.00572248 0)
(-0.191026 -0.00631875 0)
(-0.168135 -0.00678966 0)
(-0.143825 -0.00719298 0)
(-0.118351 -0.00754487 0)
(-0.0920281 -0.00780442 0)
(-0.0654387 -0.00785721 0)
(-0.0396178 -0.00740135 0)
(-0.0162421 -0.0056509 0)
(-0.00237437 -0.00213963 0)
(-0.0391897 0.0338696 0)
(-0.11899 0.0486798 0)
(-0.188471 0.0433804 0)
(-0.234153 0.0271229 0)
(-0.255861 0.0134056 0)
(-0.262461 0.00306736 0)
(-0.25886 -0.00391248 0)
(-0.248235 -0.00839987 0)
(-0.232625 -0.0112934 0)
(-0.213709 -0.013231 0)
(-0.19253 -0.0145986 0)
(-0.169739 -0.0156333 0)
(-0.145759 -0.0164592 0)
(-0.120916 -0.0171004 0)
(-0.0955745 -0.017468 0)
(-0.0702595 -0.0173426 0)
(-0.0457209 -0.0162408 0)
(-0.0230661 -0.012939 0)
(-0.00642884 -0.00574206 0)
(-0.0577103 0.0711133 0)
(-0.142674 0.0791926 0)
(-0.201501 0.0655862 0)
(-0.240431 0.0394841 0)
(-0.257772 0.0184737 0)
(-0.262145 0.00320629 0)
(-0.257081 -0.00711287 0)
(-0.245591 -0.0138987 0)
(-0.229683 -0.0183567 0)
(-0.210834 -0.0213434 0)
(-0.189989 -0.0234267 0)
(-0.167763 -0.0249603 0)
(-0.144586 -0.0261257 0)
(-0.1208 -0.0269585 0)
(-0.0967616 -0.0273463 0)
(-0.0729073 -0.0270161 0)
(-0.0497327 -0.0254227 0)
(-0.0278615 -0.0213662 0)
(-0.00969616 -0.012574 0)
(-0.0776117 0.118642 0)
(-0.169958 0.109571 0)
(-0.218375 0.0854058 0)
(-0.250445 0.0499957 0)
(-0.262384 0.0223334 0)
(-0.263381 0.0025158 0)
(-0.256207 -0.0109304 0)
(-0.243549 -0.019845 0)
(-0.227136 -0.0257344 0)
(-0.20822 -0.0296817 0)
(-0.187622 -0.0324148 0)
(-0.1659 -0.0343877 0)
(-0.143453 -0.0358346 0)
(-0.120607 -0.0368085 0)
(-0.0976734 -0.0371918 0)
(-0.074976 -0.0366948 0)
(-0.0527696 -0.0347809 0)
(-0.0312727 -0.030423 0)
(-0.0118212 -0.0209827 0)
(-0.102441 0.177743 0)
(-0.205526 0.13906 0)
(-0.241016 0.101744 0)
(-0.265011 0.0576487 0)
(-0.270414 0.0241784 0)
(-0.267174 0.000515674 0)
(-0.257354 -0.0155594 0)
(-0.243164 -0.0262629 0)
(-0.225967 -0.0333567 0)
(-0.206766 -0.0381086 0)
(-0.186234 -0.0413748 0)
(-0.164845 -0.043691 0)
(-0.142945 -0.0453371 0)
(-0.120814 -0.0463868 0)
(-0.0986938 -0.0467325 0)
(-0.0767843 -0.0460997 0)
(-0.0551246 -0.0440191 0)
(-0.0336254 -0.0397328 0)
(-0.0130219 -0.0302225 0)
(-0.136298 0.25339 0)
(-0.253236 0.167675 0)
(-0.270382 0.113451 0)
(-0.284316 0.0617 0)
(-0.282065 0.0235347 0)
(-0.273853 -0.00307865 0)
(-0.260921 -0.0211576 0)
(-0.244853 -0.0332288 0)
(-0.226593 -0.041247 0)
(-0.20687 -0.0466127 0)
(-0.186189 -0.050275 0)
(-0.164918 -0.0528309 0)
(-0.143335 -0.0545978 0)
(-0.121653 -0.0556728 0)
(-0.100032 -0.0559717 0)
(-0.0785456 -0.0552606 0)
(-0.05706 -0.0531756 0)
(-0.0352845 -0.0492593 0)
(-0.0136825 -0.0400184 0)
(-0.181634 0.351293 0)
(-0.316192 0.194703 0)
(-0.307416 0.118838 0)
(-0.308334 0.0613579 0)
(-0.297327 0.0200079 0)
(-0.283507 -0.00850517 0)
(-0.267069 -0.0278901 0)
(-0.248818 -0.0408724 0)
(-0.229236 -0.0495157 0)
(-0.208753 -0.0552947 0)
(-0.187695 -0.0592149 0)
(-0.166312 -0.0619135 0)
(-0.144796 -0.0637367 0)
(-0.123284 -0.0648064 0)
(-0.101845 -0.0650712 0)
(-0.0804416 -0.0643535 0)
(-0.0588092 -0.0624071 0)
(-0.0365613 -0.059055 0)
(-0.014115 -0.050222 0)
(-0.260056 0.50199 0)
(-0.390521 0.207587 0)
(-0.352741 0.114962 0)
(-0.336371 0.0554285 0)
(-0.315694 0.0131124 0)
(-0.295794 -0.016023 0)
(-0.275558 -0.0359359 0)
(-0.254884 -0.0493471 0)
(-0.233763 -0.0583085 0)
(-0.212314 -0.0643002 0)
(-0.19067 -0.0683434 0)
(-0.168956 -0.0710932 0)
(-0.147271 -0.072916 0)
(-0.12567 -0.0739585 0)
(-0.104135 -0.074208 0)
(-0.0825263 -0.0735498 0)
(-0.0604955 -0.0718551 0)
(-0.0376535 -0.0691858 0)
(-0.0145216 -0.060776 0)
(-0.0663825 0.670436 0)
(-0.14403 0.716097 0)
(-0.224186 0.744082 0)
(-0.314829 0.758507 0)
(-0.396149 0.789316 0)
(-0.447428 0.857754 0)
(-0.464831 0.947475 0)
(-0.508886 0.953294 0)
(-0.703155 0.793907 0)
(-1.01445 0.350035 0)
(-1.24869 -0.0802501 0)
(-1.34951 -0.364111 0)
(-1.362 -0.503679 0)
(-1.331 -0.569862 0)
(-1.26685 -0.596546 0)
(-1.18753 -0.604389 0)
(-1.10547 -0.607219 0)
(-1.03206 -0.613305 0)
(-0.978526 -0.626192 0)
(-0.957903 -0.645299 0)
(-0.994875 -0.661825 0)
(-1.10691 -0.626342 0)
(-1.19631 -0.414101 0)
(-0.0549353 0.759491 0)
(-0.119435 0.793976 0)
(-0.184748 0.818463 0)
(-0.255746 0.836846 0)
(-0.327839 0.862118 0)
(-0.38106 0.900409 0)
(-0.408932 0.947524 0)
(-0.422132 0.978799 0)
(-0.471343 0.931895 0)
(-0.614208 0.669905 0)
(-0.929953 0.139393 0)
(-1.1179 -0.271081 0)
(-1.17916 -0.485495 0)
(-1.19613 -0.598358 0)
(-1.16991 -0.652422 0)
(-1.12007 -0.671929 0)
(-1.06264 -0.673685 0)
(-1.00976 -0.667205 0)
(-0.970571 -0.655721 0)
(-0.95388 -0.638403 0)
(-0.972729 -0.612048 0)
(-1.02822 -0.562726 0)
(-1.07034 -0.455205 0)
(-0.04725 0.833952 0)
(-0.103929 0.859706 0)
(-0.16026 0.880054 0)
(-0.216862 0.899703 0)
(-0.274697 0.923664 0)
(-0.32554 0.953393 0)
(-0.358632 0.978797 0)
(-0.376703 0.986975 0)
(-0.392463 0.960436 0)
(-0.427692 0.830269 0)
(-0.634999 0.427218 0)
(-0.903261 -0.119149 0)
(-0.997125 -0.41305 0)
(-1.056 -0.582171 0)
(-1.06603 -0.673687 0)
(-1.04411 -0.712246 0)
(-1.00833 -0.718353 0)
(-0.971848 -0.705619 0)
(-0.942731 -0.680651 0)
(-0.926581 -0.645388 0)
(-0.928868 -0.597208 0)
(-0.946848 -0.524603 0)
(-0.955006 -0.414238 0)
(-0.0420867 0.900029 0)
(-0.0935655 0.91795 0)
(-0.14378 0.932827 0)
(-0.190919 0.950687 0)
(-0.236251 0.97216 0)
(-0.277897 0.99618 0)
(-0.3105 1.01382 0)
(-0.331411 1.01058 0)
(-0.345579 0.979755 0)
(-0.359028 0.910054 0)
(-0.49086 0.630831 0)
(-0.737692 0.0426901 0)
(-0.843961 -0.308825 0)
(-0.927398 -0.531949 0)
(-0.965516 -0.665979 0)
(-0.966992 -0.730107 0)
(-0.94906 -0.746247 0)
(-0.925272 -0.732876 0)
(-0.903614 -0.700936 0)
(-0.888452 -0.65562 0)
(-0.882152 -0.597874 0)
(-0.882019 -0.524179 0)
(-0.874671 -0.432799 0)
(-0.0381396 0.960607 0)
(-0.0855621 0.970945 0)
(-0.131165 0.979274 0)
(-0.171863 0.99273 0)
(-0.208377 1.01046 0)
(-0.240382 1.02891 0)
(-0.266785 1.04003 0)
(-0.287603 1.03337 0)
(-0.302733 1.00348 0)
(-0.31476 0.951812 0)
(-0.369914 0.824049 0)
(-0.604862 0.204716 0)
(-0.718708 -0.188189 0)
(-0.815998 -0.459985 0)
(-0.872641 -0.636469 0)
(-0.891739 -0.729878 0)
(-0.887731 -0.760802 0)
(-0.873548 -0.751611 0)
(-0.857244 -0.717905 0)
(-0.84266 -0.668111 0)
(-0.831152 -0.606108 0)
(-0.821176 -0.53311 0)
(-0.805656 -0.45188 0)
(-0.0345052 1.01618 0)
(-0.0781368 1.01931 0)
(-0.119779 1.02074 0)
(-0.155685 1.02846 0)
(-0.186175 1.04103 0)
(-0.211114 1.05416 0)
(-0.231045 1.06008 0)
(-0.248599 1.05106 0)
(-0.263858 1.02487 0)
(-0.276193 0.982703 0)
(-0.2969 0.91852 0)
(-0.483341 0.365848 0)
(-0.620909 -0.0604967 0)
(-0.723103 -0.377081 0)
(-0.78877 -0.593074 0)
(-0.819484 -0.716506 0)
(-0.825784 -0.765299 0)
(-0.818837 -0.763931 0)
(-0.806571 -0.732302 0)
(-0.792698 -0.682093 0)
(-0.778455 -0.619706 0)
(-0.763547 -0.549169 0)
(-0.74444 -0.475094 0)
(-0.0307801 1.06664 0)
(-0.070474 1.06331 0)
(-0.108389 1.05804 0)
(-0.140362 1.05957 0)
(-0.166614 1.06632 0)
(-0.187026 1.07403 0)
(-0.202588 1.07584 0)
(-0.216746 1.06558 0)
(-0.230973 1.04245 0)
(-0.243347 1.00766 0)
(-0.252003 0.968706 0)
(-0.389296 0.530519 0)
(-0.553143 0.0615918 0)
(-0.64622 -0.293391 0)
(-0.712564 -0.542641 0)
(-0.750181 -0.694212 0)
(-0.763963 -0.762302 0)
(-0.762569 -0.771285 0)
(-0.753556 -0.744422 0)
(-0.740686 -0.696428 0)
(-0.725372 -0.635767 0)
(-0.708297 -0.568136 0)
(-0.688026 -0.498943 0)
(-0.0269426 1.11175 0)
(-0.0624763 1.10299 0)
(-0.0967224 1.0916 0)
(-0.12528 1.08709 0)
(-0.148358 1.08802 0)
(-0.165932 1.09053 0)
(-0.179061 1.08886 0)
(-0.190915 1.07796 0)
(-0.203835 1.05722 0)
(-0.215714 1.02765 0)
(-0.223405 0.992216 0)
(-0.317677 0.715609 0)
(-0.498094 0.173395 0)
(-0.575014 -0.213571 0)
(-0.639894 -0.488222 0)
(-0.683107 -0.665446 0)
(-0.702676 -0.753429 0)
(-0.705843 -0.774565 0)
(-0.699674 -0.754384 0)
(-0.688098 -0.71034 0)
(-0.672811 -0.65261 0)
(-0.655189 -0.587972 0)
(-0.635091 -0.522265 0)
(-0.0231564 1.15132 0)
(-0.0544297 1.13832 0)
(-0.0850356 1.12161 0)
(-0.110506 1.11164 0)
(-0.131068 1.1072 0)
(-0.146751 1.10501 0)
(-0.158564 1.10034 0)
(-0.169079 1.08898 0)
(-0.180839 1.07006 0)
(-0.192183 1.04414 0)
(-0.200501 1.01111 0)
(-0.237435 0.906337 0)
(-0.426629 0.279821 0)
(-0.498791 -0.129416 0)
(-0.569957 -0.428876 0)
(-0.618504 -0.631205 0)
(-0.642751 -0.739764 0)
(-0.64969 -0.774395 0)
(-0.646085 -0.762263 0)
(-0.635991 -0.723307 0)
(-0.6214 -0.66921 0)
(-0.604153 -0.607521 0)
(-0.584935 -0.544384 0)
(-0.0196089 1.18541 0)
(-0.0467171 1.16934 0)
(-0.0737707 1.14824 0)
(-0.0963942 1.13355 0)
(-0.114829 1.12446 0)
(-0.129118 1.11822 0)
(-0.140141 1.11099 0)
(-0.149884 1.09915 0)
(-0.160753 1.08147 0)
(-0.171633 1.05828 0)
(-0.180572 1.02717 0)
(-0.192465 0.978627 0)
(-0.330863 0.389951 0)
(-0.430313 -0.0364499 0)
(-0.508337 -0.364338 0)
(-0.558928 -0.593471 0)
(-0.585398 -0.722782 0)
(-0.595057 -0.77152 0)
(-0.593625 -0.768234 0)
(-0.58505 -0.735053 0)
(-0.571518 -0.68499 0)
(-0.555144 -0.626184 0)
(-0.537146 -0.565014 0)
(-0.0164371 1.21438 0)
(-0.0396582 1.19627 0)
(-0.0633393 1.17169 0)
(-0.0833289 1.1531 0)
(-0.0998734 1.1401 0)
(-0.112999 1.13049 0)
(-0.123432 1.1211 0)
(-0.132673 1.10877 0)
(-0.142835 1.09197 0)
(-0.153344 1.07081 0)
(-0.162515 1.04268 0)
(-0.167635 1.01206 0)
(-0.265962 0.511671 0)
(-0.387593 0.0597459 0)
(-0.46012 -0.301585 0)
(-0.505321 -0.556371 0)
(-0.531135 -0.704608 0)
(-0.542332 -0.76678 0)
(-0.542672 -0.772519 0)
(-0.53559 -0.745454 0)
(-0.5233 -0.699643 0)
(-0.508047 -0.643662 0)
(-0.491405 -0.584067 0)
(-0.01371 1.23879 0)
(-0.0334502 1.21945 0)
(-0.0540208 1.19219 0)
(-0.0715929 1.17046 0)
(-0.0864084 1.15429 0)
(-0.0984611 1.14193 0)
(-0.108329 1.13074 0)
(-0.117134 1.11796 0)
(-0.126639 1.10182 0)
(-0.136748 1.08226 0)
(-0.14563 1.05705 0)
(-0.148989 1.03348 0)
(-0.234245 0.636374 0)
(-0.369067 0.141306 0)
(-0.419724 -0.250176 0)
(-0.454622 -0.524005 0)
(-0.478667 -0.686635 0)
(-0.491111 -0.760581 0)
(-0.493167 -0.77516 0)
(-0.487636 -0.754404 0)
(-0.476697 -0.713002 0)
(-0.462677 -0.659827 0)
(-0.447415 -0.601556 0)
(-0.011436 1.25928 0)
(-0.028164 1.23928 0)
(-0.0459408 1.21001 0)
(-0.0613207 1.18582 0)
(-0.0745355 1.16712 0)
(-0.0855443 1.15254 0)
(-0.0947942 1.13988 0)
(-0.10312 1.12668 0)
(-0.111931 1.11106 0)
(-0.121525 1.09273 0)
(-0.129865 1.0699 0)
(-0.134397 1.04352 0)
(-0.198321 0.80356 0)
(-0.344988 0.209661 0)
(-0.371977 -0.210578 0)
(-0.400627 -0.495112 0)
(-0.42602 -0.667942 0)
(-0.440773 -0.752409 0)
(-0.444959 -0.775909 0)
(-0.441117 -0.761778 0)
(-0.431579 -0.724985 0)
(-0.418808 -0.674651 0)
(-0.404884 -0.617549 0)
(-0.00958054 1.2765 0)
(-0.0237703 1.25622 0)
(-0.0390944 1.22546 0)
(-0.0525122 1.19936 0)
(-0.0642436 1.17865 0)
(-0.0742209 1.1623 0)
(-0.0827836 1.14844 0)
(-0.090553 1.13485 0)
(-0.0986255 1.11963 0)
(-0.107551 1.10222 0)
(-0.115389 1.08124 0)
(-0.121064 1.05417 0)
(-0.150883 0.950004 0)
(-0.29176 0.265008 0)
(-0.309693 -0.172124 0)
(-0.343336 -0.464259 0)
(-0.373531 -0.646075 0)
(-0.391745 -0.741405 0)
(-0.398258 -0.774539 0)
(-0.396056 -0.767567 0)
(-0.387807 -0.735637 0)
(-0.376193 -0.688192 0)
(-0.363517 -0.63215 0)
(-0.00808648 1.29105 0)
(-0.0201814 1.27071 0)
(-0.0333897 1.23883 0)
(-0.0450716 1.21124 0)
(-0.0554352 1.18895 0)
(-0.0643983 1.17118 0)
(-0.0722174 1.15633 0)
(-0.079361 1.14239 0)
(-0.0866742 1.12747 0)
(-0.0948574 1.11078 0)
(-0.102236 1.09129 0)
(-0.108392 1.06485 0)
(-0.120216 1.01163 0)
(-0.218055 0.316306 0)
(-0.247877 -0.128028 0)
(-0.28975 -0.427568 0)
(-0.324612 -0.62012 0)
(-0.345423 -0.727638 0)
(-0.353595 -0.771364 0)
(-0.352501 -0.77207 0)
(-0.345192 -0.745174 0)
(-0.334534 -0.700593 0)
(-0.322984 -0.645476 0)
(-0.0069094 1.30344 0)
(-0.0172911 1.28314 0)
(-0.0286925 1.2504 0)
(-0.0388514 1.22163 0)
(-0.0479635 1.19809 0)
(-0.0559434 1.17917 0)
(-0.0629876 1.16351 0)
(-0.0694584 1.14926 0)
(-0.0760117 1.13458 0)
(-0.0834181 1.1185 0)
(-0.0903298 1.10031 0)
(-0.0964393 1.07566 0)
(-0.102826 1.04093 0)
(-0.16517 0.366211 0)
(-0.201393 -0.0796814 0)
(-0.24621 -0.387338 0)
(-0.281802 -0.591943 0)
(-0.3029 -0.712597 0)
(-0.311187 -0.767402 0)
(-0.310258 -0.775931 0)
(-0.303367 -0.753961 0)
(-0.29342 -0.712044 0)
(-0.282896 -0.657629 0)
(-0.00598339 1.31413 0)
(-0.0149746 1.29386 0)
(-0.024853 1.26043 0)
(-0.0336877 1.23071 0)
(-0.0416676 1.20614 0)
(-0.0487157 1.18629 0)
(-0.0549866 1.16994 0)
(-0.0607668 1.15543 0)
(-0.0665718 1.14096 0)
(-0.0731791 1.12546 0)
(-0.0795667 1.10845 0)
(-0.0853718 1.08571 0)
(-0.0898942 1.05891 0)
(-0.136174 0.41017 0)
(-0.170463 -0.0332567 0)
(-0.212359 -0.347953 0)
(-0.245111 -0.564744 0)
(-0.263885 -0.698469 0)
(-0.270485 -0.76406 0)
(-0.268675 -0.779963 0)
(-0.261696 -0.762407 0)
(-0.252289 -0.7227 0)
(-0.242794 -0.66864 0)
(-0.00520271 1.32343 0)
(-0.0131277 1.30318 0)
(-0.0217361 1.26915 0)
(-0.0294297 1.23862 0)
(-0.0364019 1.2132 0)
(-0.0425966 1.19257 0)
(-0.0481401 1.17565 0)
(-0.0532592 1.16089 0)
(-0.0583532 1.14659 0)
(-0.0641524 1.13162 0)
(-0.0699563 1.11569 0)
(-0.0752125 1.0947 0)
(-0.0787264 1.07226 0)
(-0.118135 0.447146 0)
(-0.14834 0.00831205 0)
(-0.18501 -0.312636 0)
(-0.212605 -0.541282 0)
(-0.226819 -0.687374 0)
(-0.230147 -0.762712 0)
(-0.226617 -0.784888 0)
(-0.219263 -0.770782 0)
(-0.21044 -0.73257 0)
(-0.202164 -0.678398 0)
(-0.00465775 1.33158 0)
(-0.0117697 1.31138 0)
(-0.0192582 1.27676 0)
(-0.0259563 1.24552 0)
(-0.0320496 1.21938 0)
(-0.0375059 1.1981 0)
(-0.0424271 1.18069 0)
(-0.0469872 1.16571 0)
(-0.0514771 1.15152 0)
(-0.0565158 1.137 0)
(-0.0616813 1.12204 0)
(-0.0661839 1.10294 0)
(-0.0689667 1.08374 0)
(-0.104503 0.479163 0)
(-0.130695 0.044396 0)
(-0.160827 -0.283172 0)
(-0.181521 -0.523646 0)
(-0.189323 -0.681045 0)
(-0.188226 -0.764395 0)
(-0.182581 -0.791097 0)
(-0.174967 -0.779045 0)
(-0.167103 -0.741399 0)
(-0.160493 -0.68658 0)
(-0.00461863 1.33903 0)
(-0.0108441 1.3186 0)
(-0.0172887 1.28336 0)
(-0.0231236 1.25153 0)
(-0.0284986 1.22481 0)
(-0.0333849 1.20301 0)
(-0.0378594 1.18521 0)
(-0.042057 1.17002 0)
(-0.0461706 1.15586 0)
(-0.0506345 1.14164 0)
(-0.0551491 1.12752 0)
(-0.0588372 1.11066 0)
(-0.0611321 1.09439 0)
(-0.0925381 0.506862 0)
(-0.114658 0.0746895 0)
(-0.136594 -0.260867 0)
(-0.148578 -0.513663 0)
(-0.148449 -0.680801 0)
(-0.142398 -0.769634 0)
(-0.134886 -0.798471 0)
(-0.127681 -0.786724 0)
(-0.121566 -0.748596 0)
(-0.117362 -0.692617 0)
(-0.00466134 1.34614 0)
(-0.00971995 1.32485 0)
(-0.0154251 1.28906 0)
(-0.0206637 1.25682 0)
(-0.0255854 1.22969 0)
(-0.0301355 1.20751 0)
(-0.0343891 1.18942 0)
(-0.038488 1.17409 0)
(-0.0425698 1.15992 0)
(-0.0468178 1.14578 0)
(-0.0507819 1.13208 0)
(-0.0537518 1.11706 0)
(-0.0555531 1.10373 0)
(-0.0797762 0.529383 0)
(-0.0967543 0.0981064 0)
(-0.109049 -0.247436 0)
(-0.109993 -0.513018 0)
(-0.100878 -0.687433 0)
(-0.0902042 -0.778245 0)
(-0.0819267 -0.806219 0)
(-0.0764501 -0.792822 0)
(-0.0733246 -0.753202 0)
(-0.0725459 -0.695698 0)
(-0.00323181 1.35223 0)
(-0.00743864 1.33024 0)
(-0.0131041 1.29428 0)
(-0.0182468 1.26181 0)
(-0.0230776 1.23437 0)
(-0.0275282 1.21189 0)
(-0.0317449 1.19363 0)
(-0.0359597 1.17828 0)
(-0.0403438 1.16414 0)
(-0.0448337 1.14984 0)
(-0.0485095 1.13568 0)
(-0.0510307 1.12091 0)
(-0.051888 1.1099 0)
(-0.0644711 0.545281 0)
(-0.0734707 0.112724 0)
(-0.0745959 -0.245862 0)
(-0.0615561 -0.523525 0)
(-0.0431316 -0.701012 0)
(-0.0293906 -0.789071 0)
(-0.0224843 -0.812709 0)
(-0.0207518 -0.795745 0)
(-0.0222605 -0.753878 0)
(-0.02614 -0.694796 0)
(0.000376802 1.35503 0)
(-0.00410623 1.33521 0)
(-0.0103122 1.2996 0)
(-0.0157913 1.26695 0)
(-0.0207324 1.2391 0)
(-0.025129 1.21632 0)
(-0.0292824 1.19801 0)
(-0.0335883 1.18285 0)
(-0.0383666 1.16895 0)
(-0.0434433 1.15443 0)
(-0.0472676 1.13884 0)
(-0.0497673 1.12235 0)
(-0.0493425 1.11108 0)
(-0.0487479 0.550839 0)
(-0.040592 0.112618 0)
(-0.0278124 -0.261159 0)
(0.00203076 -0.546821 0)
(0.0283039 -0.720241 0)
(0.0416806 -0.799534 0)
(0.0438778 -0.815315 0)
(0.039222 -0.793317 0)
(0.0311459 -0.748977 0)
(0.0212969 -0.688716 0)
(0.00309226 1.3532 0)
(-0.00152869 1.33889 0)
(-0.00820714 1.30385 0)
(-0.0136583 1.27074 0)
(-0.0183149 1.24229 0)
(-0.0222628 1.21921 0)
(-0.0259429 1.20104 0)
(-0.0298915 1.18645 0)
(-0.0346386 1.1733 0)
(-0.0401507 1.15899 0)
(-0.0444768 1.14165 0)
(-0.0473823 1.12085 0)
(-0.046148 1.10228 0)
(-0.0203931 0.535759 0)
(0.0100943 0.0959594 0)
(0.0427206 -0.296995 0)
(0.0881753 -0.581353 0)
(0.116007 -0.740778 0)
(0.123057 -0.805145 0)
(0.116106 -0.810514 0)
(0.102116 -0.783078 0)
(0.0855811 -0.736863 0)
(0.0685845 -0.676429 0)
(-0.00326844 1.34842 0)
(-0.00261759 1.33967 0)
(-0.00869929 1.30402 0)
(-0.0123559 1.27032 0)
(-0.0153652 1.2414 0)
(-0.0178721 1.21819 0)
(-0.0202661 1.20034 0)
(-0.0229902 1.18649 0)
(-0.0265971 1.17436 0)
(-0.0313597 1.16086 0)
(-0.0353818 1.14268 0)
(-0.0378602 1.1154 0)
(-0.0363824 1.0746 0)
(0.0663827 0.501044 0)
(0.0943839 0.0617872 0)
(0.151722 -0.350363 0)
(0.201209 -0.619121 0)
(0.219175 -0.754348 0)
(0.212148 -0.799758 0)
(0.191465 -0.794333 0)
(0.165531 -0.762598 0)
(0.139098 -0.716076 0)
(0.114185 -0.657097 0)
(-0.0292168 1.35049 0)
(-0.0100515 1.34369 0)
(-0.0129907 1.3067 0)
(-0.0116958 1.27334 0)
(-0.0110427 1.24406 0)
(-0.0109039 1.22061 0)
(-0.0111736 1.20268 0)
(-0.0117364 1.18896 0)
(-0.0125875 1.17726 0)
(-0.0140119 1.16419 0)
(-0.0151259 1.1456 0)
(-0.00894044 1.10668 0)
(-0.00899803 0.988322 0)
(0.181839 0.467667 0)
(0.228595 -0.00920842 0)
(0.300223 -0.412783 0)
(0.334591 -0.646811 0)
(0.330693 -0.750954 0)
(0.303007 -0.777271 0)
(0.26534 -0.763502 0)
(0.226047 -0.730239 0)
(0.189208 -0.68583 0)
(0.156301 -0.630381 0)
(-0.0760777 1.37936 0)
(-0.0205286 1.35446 0)
(-0.0200094 1.3152 0)
(-0.00967079 1.28263 0)
(-0.0038883 1.25196 0)
(-0.000394468 1.22794 0)
(0.00180671 1.2097 0)
(0.00402882 1.19571 0)
(0.00776832 1.18365 0)
(0.0139202 1.1703 0)
(0.0225733 1.14923 0)
(0.0683728 1.09307 0)
(0.130783 0.822041 0)
(0.293601 0.377681 0)
(0.413268 -0.112473 0)
(0.473992 -0.464739 0)
(0.473949 -0.649129 0)
(0.439017 -0.721659 0)
(0.387304 -0.733671 0)
(0.331951 -0.716597 0)
(0.279681 -0.685761 0)
(0.233185 -0.646349 0)
(0.193061 -0.596652 0)
(-0.132111 1.44061 0)
(-0.00795612 1.33274 0)
(-0.0309635 1.29779 0)
(0.000299964 1.27263 0)
(0.0121212 1.2442 0)
(0.020342 1.22283 0)
(0.0278344 1.20572 0)
(0.0370195 1.19075 0)
(0.0515486 1.17567 0)
(0.0754397 1.15652 0)
(0.113127 1.12942 0)
(0.256236 1.00621 0)
(0.388542 0.695458 0)
(0.512692 0.263317 0)
(0.637009 -0.192805 0)
(0.647967 -0.476702 0)
(0.599851 -0.612303 0)
(0.530362 -0.662129 0)
(0.455902 -0.668728 0)
(0.385366 -0.654856 0)
(0.322599 -0.630689 0)
(0.26852 -0.599018 0)
(0.222805 -0.55704 0)
(-0.154836 1.50808 0)
(0.0455314 1.3085 0)
(-0.0564171 1.2565 0)
(0.00729057 1.24193 0)
(0.0357924 1.22371 0)
(0.0616001 1.20729 0)
(0.0881101 1.18985 0)
(0.1199 1.16909 0)
(0.163758 1.14034 0)
(0.226953 1.09298 0)
(0.322769 1.00256 0)
(0.497201 0.829062 0)
(0.661586 0.562744 0)
(0.780514 0.153465 0)
(0.833137 -0.216006 0)
(0.778651 -0.431559 0)
(0.686909 -0.53432 0)
(0.590698 -0.576189 0)
(0.500865 -0.587345 0)
(0.420956 -0.582468 0)
(0.351998 -0.568268 0)
(0.293447 -0.546263 0)
(0.244387 -0.513322 0)
(-0.103173 1.48613 0)
(0.0964965 1.37603 0)
(-0.0206282 1.23159 0)
(0.0445081 1.20196 0)
(0.0927093 1.18704 0)
(0.138967 1.17103 0)
(0.190139 1.14869 0)
(0.250819 1.1166 0)
(0.328023 1.06779 0)
(0.429137 0.986231 0)
(0.561695 0.851233 0)
(0.724505 0.652295 0)
(0.86995 0.403974 0)
(0.940003 0.0855212 0)
(0.91759 -0.177883 0)
(0.826896 -0.341139 0)
(0.717068 -0.430371 0)
(0.612479 -0.476803 0)
(0.518765 -0.498629 0)
(0.437034 -0.505638 0)
(0.366906 -0.502766 0)
(0.307342 -0.491074 0)
(0.257379 -0.467616 0)
(-0.0366778 1.40926 0)
(0.15944 1.39697 0)
(0.0901889 1.21496 0)
(0.134274 1.15418 0)
(0.188497 1.13054 0)
(0.249106 1.10876 0)
(0.319409 1.07672 0)
(0.401496 1.0292 0)
(0.498205 0.958876 0)
(0.610287 0.853664 0)
(0.731649 0.7026 0)
(0.844207 0.51771 0)
(0.923158 0.31198 0)
(0.940413 0.0890338 0)
(0.891221 -0.102569 0)
(0.799799 -0.237523 0)
(0.697674 -0.324609 0)
(0.600444 -0.379022 0)
(0.512665 -0.411967 0)
(0.435384 -0.430443 0)
(0.368326 -0.438278 0)
(0.310758 -0.436332 0)
(0.262079 -0.421992 0)
(0.0288995 1.2809 0)
(0.190169 1.36359 0)
(0.194028 1.19075 0)
(0.230618 1.10947 0)
(0.280076 1.07084 0)
(0.342083 1.03699 0)
(0.415416 0.99344 0)
(0.498484 0.933989 0)
(0.589131 0.85329 0)
(0.682372 0.74593 0)
(0.767914 0.610311 0)
(0.83279 0.45509 0)
(0.866634 0.290464 0)
(0.858589 0.121395 0)
(0.809468 -0.029463 0)
(0.733563 -0.147144 0)
(0.648943 -0.232192 0)
(0.565934 -0.292047 0)
(0.489004 -0.333412 0)
(0.419751 -0.361066 0)
(0.358489 -0.377835 0)
(0.305041 -0.384312 0)
(0.259307 -0.378168 0)
(0.0466735 1.15987 0)
(0.173968 1.28236 0)
(0.226299 1.1507 0)
(0.269425 1.06752 0)
(0.317683 1.01625 0)
(0.375961 0.97053 0)
(0.442813 0.91809 0)
(0.515054 0.85322 0)
(0.588732 0.77228 0)
(0.658178 0.672796 0)
(0.715465 0.555201 0)
(0.753237 0.425085 0)
(0.766883 0.28897 0)
(0.752863 0.152675 0)
(0.7125 0.0281158 0)
(0.653733 -0.0753853 0)
(0.586711 -0.156638 0)
(0.518802 -0.218752 0)
(0.453955 -0.265412 0)
(0.394082 -0.299606 0)
(0.339949 -0.323221 0)
(0.291858 -0.336523 0)
(0.250151 -0.33739 0)
(0.0389428 1.05639 0)
(0.13509 1.18806 0)
(0.205416 1.09473 0)
(0.256944 1.01943 0)
(0.306974 0.962907 0)
(0.36161 0.910454 0)
(0.420268 0.853569 0)
(0.480381 0.787798 0)
(0.538478 0.710439 0)
(0.590187 0.620168 0)
(0.630404 0.517688 0)
(0.654891 0.406621 0)
(0.66118 0.291718 0)
(0.648078 0.17787 0)
(0.616797 0.0721637 0)
(0.572078 -0.0199102 0)
(0.51993 -0.0965672 0)
(0.465547 -0.158744 0)
(0.412177 -0.208226 0)
(0.361691 -0.246688 0)
(0.31505 -0.275229 0)
(0.272856 -0.293801 0)
(0.235761 -0.300441 0)
(0.0266126 0.987146 0)
(0.0999805 1.10263 0)
(0.170412 1.03306 0)
(0.224749 0.967199 0)
(0.274872 0.910845 0)
(0.325323 0.856418 0)
(0.376172 0.798729 0)
(0.42584 0.734616 0)
(0.471904 0.662138 0)
(0.511392 0.580513 0)
(0.54112 0.490407 0)
(0.558482 0.394253 0)
(0.562004 0.295428 0)
(0.551266 0.197726 0)
(0.527377 0.105583 0)
(0.493371 0.0226393 0)
(0.453092 -0.0494155 0)
(0.410041 -0.110436 0)
(0.366833 -0.161077 0)
(0.325079 -0.202097 0)
(0.285724 -0.233992 0)
(0.249491 -0.25647 0)
(0.21721 -0.267723 0)
(0.0194398 0.937341 0)
(0.0771077 1.03031 0)
(0.139931 0.97367 0)
(0.191444 0.915752 0)
(0.238375 0.862064 0)
(0.283416 0.808657 0)
(0.326773 0.752489 0)
(0.367539 0.691456 0)
(0.404155 0.624208 0)
(0.434693 0.550257 0)
(0.457149 0.470148 0)
(0.469901 0.385557 0)
(0.472053 0.298915 0)
(0.463527 0.213034 0)
(0.445266 0.130961 0)
(0.419297 0.0552415 0)
(0.388228 -0.0126228 0)
(0.354438 -0.0719974 0)
(0.319948 -0.122823 0)
(0.286032 -0.165216 0)
(0.253466 -0.199254 0)
(0.222962 -0.224511 0)
(0.195433 -0.239356 0)
(0.0161788 0.897662 0)
(0.0630029 0.970582 0)
(0.116404 0.920883 0)
(0.161963 0.869007 0)
(0.203405 0.818712 0)
(0.242117 0.767707 0)
(0.278225 0.714184 0)
(0.311199 0.656759 0)
(0.340061 0.594501 0)
(0.363584 0.527093 0)
(0.38051 0.45496 0)
(0.38984 0.379311 0)
(0.391053 0.30192 0)
(0.384225 0.224881 0)
(0.370116 0.150377 0)
(0.350156 0.0802983 0)
(0.326163 0.0159706 0)
(0.299894 -0.0417549 0)
(0.272798 -0.0922971 0)
(0.245805 -0.135287 0)
(0.219401 -0.170551 0)
(0.194209 -0.197683 0)
(0.171191 -0.215263 0)
(0.0142056 0.864461 0)
(0.0530002 0.92115 0)
(0.0974484 0.875878 0)
(0.136008 0.828713 0)
(0.170979 0.781807 0)
(0.203045 0.733654 0)
(0.232272 0.683127 0)
(0.258352 0.629294 0)
(0.280683 0.571502 0)
(0.298495 0.509535 0)
(0.311009 0.44373 0)
(0.317616 0.374985 0)
(0.318033 0.304627 0)
(0.312396 0.234225 0)
(0.301312 0.165408 0)
(0.285831 0.0996351 0)
(0.267288 0.0380736 0)
(0.247077 -0.0183125 0)
(0.226244 -0.0684606 0)
(0.205304 -0.111535 0)
(0.184348 -0.14729 0)
(0.163904 -0.175574 0)
(0.145025 -0.195217 0)
(0.0123964 0.836308 0)
(0.0446012 0.880083 0)
(0.0810586 0.838505 0)
(0.112596 0.795305 0)
(0.140939 0.751575 0)
(0.166505 0.706275 0)
(0.189368 0.658671 0)
(0.209372 0.608116 0)
(0.226161 0.554139 0)
(0.239261 0.496591 0)
(0.248191 0.435743 0)
(0.252586 0.372284 0)
(0.252301 0.307231 0)
(0.247482 0.24179 0)
(0.238598 0.177206 0)
(0.226429 0.114625 0)
(0.212015 0.0550167 0)
(0.196605 -0.000600997 0)
(0.181059 -0.0505152 0)
(0.165238 -0.0932021 0)
(0.148837 -0.12877 0)
(0.132388 -0.157637 0)
(0.117164 -0.17887 0)
(0.0105444 0.812102 0)
(0.0370544 0.846065 0)
(0.0664118 0.808273 0)
(0.0913014 0.768655 0)
(0.11331 0.727827 0)
(0.132828 0.685138 0)
(0.149993 0.640129 0)
(0.164757 0.592355 0)
(0.176921 0.541479 0)
(0.186194 0.4874 0)
(0.192278 0.430347 0)
(0.194949 0.370869 0)
(0.194132 0.309777 0)
(0.189936 0.248027 0)
(0.182682 0.186604 0)
(0.172876 0.126389 0)
(0.161338 0.0680565 0)
(0.149566 0.0124207 0)
(0.138104 -0.0375266 0)
(0.126109 -0.079386 0)
(0.112908 -0.11418 0)
(0.0995192 -0.143437 0)
(0.0874543 -0.166089 0)
(0.00926623 0.793626 0)
(0.031112 0.819678 0)
(0.0538441 0.784827 0)
(0.0724943 0.748006 0)
(0.0887538 0.709484 0)
(0.10303 0.668894 0)
(0.115475 0.625977 0)
(0.126075 0.580431 0)
(0.134698 0.532008 0)
(0.141151 0.480646 0)
(0.145238 0.426536 0)
(0.146809 0.370141 0)
(0.145804 0.312143 0)
(0.142259 0.253357 0)