/*--------------------------------*- C++ -*----------------------------------*\
  =========                 |
  \\      /  F ield         | OpenFOAM: The Open Source CFD Toolbox
   \\    /   O peration     | Website:  https://openfoam.org
    \\  /    A nd           | Version:  9
     \\/     M anipulation  |
\*---------------------------------------------------------------------------*/
FoamFile
{
    format      ascii;
    class       volVectorField;
    location    "0.15";
    object      U;
}
// * * * * * * * * * * * * * * * * * * * * * * * * * * * * * * * * * * * * * //

dimensions      [0 1 -1 0 0 0 0];

internalField   nonuniform List<vector> 
2268
(
(-0.00608662 -0.00126078 0)
(0.0261861 -0.0156795 0)
(0.0939096 -0.0226056 0)
(0.168179 -0.0246011 0)
(0.246314 -0.0252642 0)
(0.327422 -0.0256467 0)
(0.411065 -0.0260327 0)
(0.4974 -0.0265546 0)
(0.587066 -0.0273328 0)
(0.68099 -0.0284654 0)
(0.780246 -0.0300108 0)
(0.885923 -0.0319762 0)
(0.998835 -0.0342671 0)
(1.11905 -0.0366228 0)
(1.24526 -0.0385596 0)
(1.37392 -0.0392226 0)
(1.49773 -0.0371545 0)
(1.60163 -0.0301052 0)
(1.66913 -0.00523295 0)
(1.61298 0.0419955 0)
(1.36732 0.106983 0)
(0.890241 0.174375 0)
(0.376762 0.13913 0)
(0.0118505 -0.00786349 0)
(0.057416 -0.0374542 0)
(0.125368 -0.050436 0)
(0.197482 -0.0551316 0)
(0.272706 -0.0576113 0)
(0.351028 -0.0596111 0)
(0.432364 -0.0616533 0)
(0.517017 -0.0640147 0)
(0.60559 -0.0669243 0)
(0.698844 -0.0705475 0)
(0.797583 -0.0749344 0)
(0.902478 -0.0799617 0)
(1.01377 -0.0852356 0)
(1.13087 -0.0899755 0)
(1.25181 -0.0928751 0)
(1.3725 -0.0918167 0)
(1.48573 -0.0832333 0)
(1.58011 -0.0610661 0)
(1.63314 -0.010402 0)
(1.65222 0.081412 0)
(1.59533 0.220373 0)
(1.3266 0.415962 0)
(0.846341 0.471956 0)
(0.0245525 -0.0285622 0)
(0.0783366 -0.0668087 0)
(0.147369 -0.0819969 0)
(0.218046 -0.0881697 0)
(0.290953 -0.0919939 0)
(0.366828 -0.0953971 0)
(0.445885 -0.0989951 0)
(0.528538 -0.103133 0)
(0.615358 -0.108094 0)
(0.70697 -0.114066 0)
(0.803948 -0.121055 0)
(0.906626 -0.128791 0)
(1.01483 -0.13659 0)
(1.12751 -0.143192 0)
(1.24232 -0.14655 0)
(1.35501 -0.143457 0)
(1.45878 -0.128832 0)
(1.54379 -0.0944754 0)
(1.59555 -0.0290884 0)
(1.6027 0.0854372 0)
(1.56888 0.272835 0)
(1.35747 0.608404 0)
(1.03611 0.922551 0)
(0.0312307 -0.0545467 0)
(0.0921396 -0.0993157 0)
(0.163584 -0.114907 0)
(0.234008 -0.121647 0)
(0.30549 -0.126448 0)
(0.379528 -0.131133 0)
(0.456677 -0.136272 0)
(0.537489 -0.142214 0)
(0.622542 -0.149249 0)
(0.712375 -0.157544 0)
(0.80738 -0.167018 0)
(0.907631 -0.177212 0)
(1.01263 -0.187115 0)
(1.12101 -0.194975 0)
(1.23016 -0.198038 0)
(1.33581 -0.192149 0)
(1.43174 -0.171104 0)
(1.51001 -0.125733 0)
(1.562 -0.0445189 0)
(1.58013 0.0877949 0)
(1.57539 0.305788 0)
(1.33193 0.752251 0)
(1.09877 1.41387 0)
(0.0341673 -0.0837146 0)
(0.100713 -0.133977 0)
(0.175025 -0.148651 0)
(0.246027 -0.155202 0)
(0.316834 -0.160661 0)
(0.389589 -0.166534 0)
(0.46519 -0.173222 0)
(0.544351 -0.181011 0)
(0.627694 -0.190157 0)
(0.715706 -0.200763 0)
(0.808646 -0.212621 0)
(0.906381 -0.225043 0)
(1.00816 -0.236677 0)
(1.11237 -0.245279 0)
(1.21621 -0.247444 0)
(1.31544 -0.238246 0)
(1.40445 -0.210781 0)
(1.4771 -0.155781 0)
(1.52899 -0.0628838 0)
(1.55871 0.0812038 0)
(1.56987 0.32775 0)
(1.24548 0.89699 0)
(1.1177 1.93244 0)
(0.0355336 -0.114748 0)
(0.105894 -0.170254 0)
(0.182663 -0.183128 0)
(0.254533 -0.188778 0)
(0.325126 -0.194495 0)
(0.397016 -0.201355 0)
(0.47138 -0.209495 0)
(0.549083 -0.21908 0)
(0.630804 -0.230287 0)
(0.717006 -0.243116 0)
(0.807847 -0.257194 0)
(0.903034 -0.271584 0)
(1.00162 -0.284574 0)
(1.10177 -0.293446 0)
(1.20057 -0.294201 0)
(1.29377 -0.281291 0)
(1.3762 -0.247494 0)
(1.443 -0.184262 0)
(1.4922 -0.0831759 0)
(1.5254 0.0708709 0)
(1.52329 0.355096 0)
(1.05806 1.10778 0)
(1.14633 2.44292 0)
(0.0364674 -0.14702 0)
(0.108897 -0.207643 0)
(0.187276 -0.218256 0)
(0.259914 -0.222498 0)
(0.330491 -0.228103 0)
(0.40178 -0.235716 0)
(0.475142 -0.245157 0)
(0.551556 -0.256432 0)
(0.631752 -0.269602 0)
(0.71618 -0.28453 0)
(0.804928 -0.300651 0)
(0.897572 -0.316752 0)
(0.993008 -0.330758 0)
(1.08925 -0.339484 0)
(1.18323 -0.33837 0)
(1.27067 -0.321327 0)
(1.3465 -0.281103 0)
(1.40623 -0.21064 0)
(1.44974 -0.102806 0)
(1.4789 0.0624143 0)
(1.44735 0.390978 0)
(0.886968 1.41778 0)
(1.19497 2.8664 0)
(0.037276 -0.180086 0)
(0.110336 -0.24579 0)
(0.189348 -0.253855 0)
(0.262448 -0.256367 0)
(0.333004 -0.261574 0)
(0.403812 -0.269713 0)
(0.476319 -0.280286 0)
(0.551564 -0.293117 0)
(0.630312 -0.308125 0)
(0.713006 -0.325011 0)
(0.799675 -0.342993 0)
(0.889803 -0.360568 0)
(0.982162 -0.37529 0)
(1.07464 -0.383511 0)
(1.16405 -0.380107 0)
(1.24595 -0.358465 0)
(1.31484 -0.311597 0)
(1.36589 -0.234529 0)
(1.40264 -0.12111 0)
(1.424 0.0564052 0)
(1.36818 0.4836 0)
(0.784984 1.71942 0)
(1.28119 3.26731 0)
(-0.0869825 0.0310287 0)
(-0.162071 0.00444894 0)
(-0.14185 -0.0109997 0)
(-0.0953322 -0.0159038 0)
(-0.0383813 -0.0143364 0)
(0.0096514 -0.0109569 0)
(0.0452401 -0.00724074 0)
(0.0685877 -0.00407913 0)
(0.0816284 -0.00172213 0)
(0.086752 -7.29514e-05 0)
(0.085977 0.00124661 0)
(0.0808063 0.00223659 0)
(0.0721764 0.00302521 0)
(0.0607864 0.00368256 0)
(0.0472137 0.00421579 0)
(0.0321754 0.00453618 0)
(0.0169369 0.00437074 0)
(0.00282093 0.00286653 0)
(-0.00213003 -2.95941e-06 0)
(-0.0917056 0.0846264 0)
(-0.160352 0.0172112 0)
(-0.137561 -0.0217977 0)
(-0.0905776 -0.0364539 0)
(-0.0344252 -0.0349047 0)
(0.0124859 -0.0277036 0)
(0.0473447 -0.019309 0)
(0.0705526 -0.0118561 0)
(0.0839206 -0.0059361 0)
(0.0894738 -0.00148333 0)
(0.0889634 0.00195493 0)
(0.0837846 0.00457448 0)
(0.0750814 0.00661634 0)
(0.0637104 0.00822404 0)
(0.0504165 0.00940384 0)
(0.0360286 0.0099648 0)
(0.0216769 0.00940606 0)
(0.00842718 0.00643093 0)
(0.00132868 0.000313103 0)
(-0.096081 0.141865 0)
(-0.168939 0.0248181 0)
(-0.138185 -0.037037 0)
(-0.0873122 -0.0591441 0)
(-0.0301461 -0.0562977 0)
(0.0160059 -0.0444998 0)
(0.0496297 -0.0311515 0)
(0.0716496 -0.0192788 0)
(0.0840558 -0.00971701 0)
(0.088854 -0.00234192 0)
(0.0878323 0.00323798 0)
(0.0824473 0.00748296 0)
(0.0738402 0.0107349 0)
(0.0629014 0.0132043 0)
(0.0504196 0.0149095 0)
(0.0372137 0.0156142 0)
(0.0242131 0.0147293 0)
(0.0121849 0.0109338 0)
(0.00419901 0.00326199 0)
(-0.112557 0.205911 0)
(-0.188423 0.0302748 0)
(-0.143402 -0.0560833 0)
(-0.0844632 -0.0842326 0)
(-0.0239518 -0.0785791 0)
(0.0222068 -0.0613572 0)
(0.0545214 -0.0426838 0)
(0.0749563 -0.0262874 0)
(0.0859618 -0.0131147 0)
(0.0896868 -0.00296992 0)
(0.0879493 0.00469231 0)
(0.0821929 0.010471 0)
(0.0735353 0.0148303 0)
(0.0628631 0.0180509 0)
(0.0509527 0.0201744 0)
(0.0385563 0.0209572 0)
(0.0263957 0.0198034 0)
(0.0149915 0.0155118 0)
(0.006195 0.00717817 0)
(-0.139287 0.281071 0)
(-0.219405 0.0304394 0)
(-0.152465 -0.080963 0)
(-0.0811646 -0.112593 0)
(-0.0152506 -0.10192 0)
(0.0314435 -0.0780654 0)
(0.0622728 -0.0535963 0)
(0.0807391 -0.0326162 0)
(0.0899596 -0.0159333 0)
(0.092298 -0.00316047 0)
(0.089592 0.00644165 0)
(0.0832476 0.013619 0)
(0.0743416 0.0189572 0)
(0.0637242 0.0228099 0)
(0.0521193 0.0252555 0)
(0.0401762 0.0260739 0)
(0.0284141 0.0247185 0)
(0.0171522 0.0201997 0)
(0.00745746 0.0118431 0)
(-0.173305 0.375707 0)
(-0.265649 0.0232509 0)
(-0.164764 -0.113622 0)
(-0.0764638 -0.145157 0)
(-0.00354182 -0.12654 0)
(0.0438335 -0.0944725 0)
(0.0727917 -0.0636466 0)
(0.0888335 -0.0380383 0)
(0.095874 -0.0179927 0)
(0.0965129 -0.00278243 0)
(0.0925907 0.00857498 0)
(0.0854526 0.0169895 0)
(0.0761113 0.0231669 0)
(0.065353 0.0275374 0)
(0.0538202 0.0302288 0)
(0.0420395 0.0310698 0)
(0.0303448 0.0295981 0)
(0.0188949 0.0250758 0)
(0.00826436 0.0170913 0)
(-0.213039 0.480895 0)
(-0.332818 0.0139332 0)
(-0.179161 -0.157403 0)
(-0.0691231 -0.183628 0)
(0.0117654 -0.152891 0)
(0.0594727 -0.110518 0)
(0.0858916 -0.0726518 0)
(0.0989438 -0.0423779 0)
(0.103388 -0.0191513 0)
(0.102027 -0.00172984 0)
(0.0966672 0.0111756 0)
(0.0885613 0.0206535 0)
(0.0786306 0.0275293 0)
(0.0675719 0.032313 0)
(0.0559259 0.0351925 0)
(0.0440875 0.0360621 0)
(0.0322296 0.0345616 0)
(0.0203854 0.0302088 0)
(0.00884211 0.0228075 0)
(-0.266153 0.711154 0)
(-0.402864 -0.00560114 0)
(-0.19319 -0.222185 0)
(-0.0563531 -0.232061 0)
(0.0318624 -0.181938 0)
(0.0786677 -0.126226 0)
(0.101459 -0.0804482 0)
(0.1108 -0.045471 0)
(0.112192 -0.0192778 0)
(0.108539 0.000100517 0)
(0.101547 0.0143251 0)
(0.092332 0.0246795 0)
(0.0816913 0.0321093 0)
(0.0702099 0.0372059 0)
(0.0583112 0.0402248 0)
(0.0462555 0.041136 0)
(0.0340812 0.0396915 0)
(0.0217295 0.0356441 0)
(0.00934568 0.028917 0)
(0.0378329 -0.231947 0)
(0.110197 -0.306014 0)
(0.188597 -0.309879 0)
(0.261642 -0.309516 0)
(0.331889 -0.313821 0)
(0.401918 -0.322443 0)
(0.473154 -0.334482 0)
(0.546641 -0.349482 0)
(0.623158 -0.367115 0)
(0.703126 -0.386794 0)
(0.78651 -0.407364 0)
(0.872682 -0.42685 0)
(0.960283 -0.442209 0)
(1.04706 -0.449037 0)
(1.12961 -0.441277 0)
(1.20284 -0.411662 0)
(1.25975 -0.354383 0)
(1.29691 -0.267386 0)
(1.32395 -0.146467 0)
(1.32756 0.060441 0)
(1.32967 0.895677 0)
(1.0821 1.9966 0)
(1.52551 3.90384 0)
(0.0375002 -0.301594 0)
(0.107098 -0.386123 0)
(0.181885 -0.384661 0)
(0.252354 -0.380811 0)
(0.320572 -0.383843 0)
(0.38853 -0.392719 0)
(0.457372 -0.406196 0)
(0.528004 -0.423546 0)
(0.60112 -0.444118 0)
(0.677071 -0.466908 0)
(0.755734 -0.490221 0)
(0.836375 -0.511401 0)
(0.91752 -0.526527 0)
(0.996762 -0.529994 0)
(1.07001 -0.514289 0)
(1.1296 -0.471998 0)
(1.16823 -0.399582 0)
(1.19683 -0.300907 0)
(1.21589 -0.166959 0)
(1.19263 0.169801 0)
(1.14583 0.892662 0)
(1.06766 1.62123 0)
(1.5034 3.56674 0)
(0.0367029 -0.369289 0)
(0.102142 -0.460874 0)
(0.171417 -0.454974 0)
(0.237535 -0.448699 0)
(0.302266 -0.450941 0)
(0.366997 -0.460119 0)
(0.432545 -0.474808 0)
(0.499625 -0.494111 0)
(0.568796 -0.517109 0)
(0.640298 -0.542396 0)
(0.713905 -0.567737 0)
(0.788795 -0.589774 0)
(0.863438 -0.603611 0)
(0.935179 -0.602164 0)
(0.997899 -0.576475 0)
(1.04111 -0.519863 0)
(1.07051 -0.435237 0)
(1.09642 -0.327713 0)
(1.11756 -0.13257 0)
(1.01038 0.29426 0)
(0.896585 0.806432 0)
(0.808234 1.37553 0)
(1.2944 2.83623 0)
(0.0354971 -0.434226 0)
(0.0959208 -0.529357 0)
(0.158682 -0.519723 0)
(0.219395 -0.512029 0)
(0.279558 -0.514026 0)
(0.340047 -0.523688 0)
(0.401407 -0.539518 0)
(0.464173 -0.56053 0)
(0.528757 -0.585575 0)
(0.595277 -0.612866 0)
(0.66341 -0.639646 0)
(0.732285 -0.66183 0)
(0.800354 -0.673362 0)
(0.864078 -0.665386 0)
(0.913134 -0.628274 0)
(0.94478 -0.557925 0)
(0.971814 -0.466054 0)
(0.992048 -0.337463 0)
(0.930912 0.00453106 0)
(0.775956 0.392451 0)
(0.692052 0.821005 0)
(0.637209 1.28863 0)
(1.00941 2.2227 0)
(0.0338574 -0.49569 0)
(0.0887514 -0.590925 0)
(0.144568 -0.578241 0)
(0.199354 -0.569999 0)
(0.254253 -0.572231 0)
(0.309735 -0.582572 0)
(0.366149 -0.599542 0)
(0.423882 -0.622105 0)
(0.483219 -0.648911 0)
(0.54418 -0.677825 0)
(0.606388 -0.705582 0)
(0.669005 -0.727301 0)
(0.730372 -0.735502 0)
(0.784361 -0.719537 0)
(0.818853 -0.669941 0)
(0.846524 -0.591053 0)
(0.869526 -0.484459 0)
(0.887319 -0.219963 0)
(0.726856 0.124207 0)
(0.585386 0.488285 0)
(0.521037 0.854185 0)
(0.489994 1.21444 0)
(0.711272 1.765 0)
(0.0318223 -0.553004 0)
(0.0808568 -0.645272 0)
(0.129607 -0.630282 0)
(0.178266 -0.622172 0)
(0.227493 -0.624973 0)
(0.27744 -0.636116 0)
(0.328314 -0.654203 0)
(0.38039 -0.678171 0)
(0.433861 -0.706504 0)
(0.4887 -0.736755 0)
(0.544565 -0.765158 0)
(0.600743 -0.785886 0)
(0.654933 -0.789681 0)
(0.696231 -0.764751 0)
(0.723185 -0.704551 0)
(0.74794 -0.619095 0)
(0.774507 -0.482604 0)
(0.682719 -0.11922 0)
(0.529694 0.239494 0)
(0.422494 0.576832 0)
(0.367841 0.886367 0)
(0.348797 1.16189 0)
(0.468858 1.47624 0)
(0.0295107 -0.605663 0)
(0.0724195 -0.692325 0)
(0.114125 -0.67583 0)
(0.156645 -0.668357 0)
(0.200002 -0.671905 0)
(0.244086 -0.683865 0)
(0.288992 -0.702967 0)
(0.334901 -0.728155 0)
(0.381957 -0.757793 0)
(0.430165 -0.78918 0)
(0.479345 -0.818042 0)
(0.528978 -0.837397 0)
(0.574843 -0.835889 0)
(0.603971 -0.801174 0)
(0.627672 -0.734492 0)
(0.646021 -0.636888 0)
(0.663704 -0.341409 0)
(0.497914 0.0108724 0)
(0.366192 0.349084 0)
(0.28259 0.652264 0)
(0.23814 0.914126 0)
(0.232062 1.12893 0)
(0.313278 1.31048 0)
(0.0269974 -0.653425 0)
(0.0635254 -0.732076 0)
(0.0983128 -0.714989 0)
(0.134858 -0.708535 0)
(0.17234 -0.712872 0)
(0.210432 -0.725538 0)
(0.249118 -0.745441 0)
(0.288499 -0.771583 0)
(0.328703 -0.802276 0)
(0.369839 -0.834647 0)
(0.412012 -0.863894 0)
(0.454831 -0.88169 0)
(0.490711 -0.874531 0)
(0.513345 -0.831157 0)
(0.534307 -0.757656 0)
(0.554793 -0.636524 0)
(0.464004 -0.249673 0)
(0.326866 0.117682 0)
(0.228663 0.440161 0)
(0.163721 0.71107 0)
(0.132833 0.9312 0)
(0.141724 1.09535 0)
(0.212712 1.19706 0)
(0.0237179 -0.695582 0)
(0.0540378 -0.764232 0)
(0.0822887 -0.747824 0)
(0.113293 -0.742761 0)
(0.145144 -0.747836 0)
(0.177365 -0.760978 0)
(0.209834 -0.781349 0)
(0.242567 -0.808066 0)
(0.275684 -0.8395 0)
(0.309435 -0.872713 0)
(0.344296 -0.9024 0)
(0.379707 -0.918732 0)
(0.405492 -0.906642 0)
(0.425418 -0.85731 0)
(0.441136 -0.774454 0)
(0.483225 -0.501949 0)
(0.318301 -0.128036 0)
(0.196189 0.218584 0)
(0.116275 0.514502 0)
(0.0657421 0.75302 0)
(0.0490751 0.934298 0)
(0.0714403 1.05372 0)
(0.139975 1.10332 0)
(0.0172999 -0.730803 0)
(0.0434414 -0.789389 0)
(0.0662179 -0.775049 0)
(0.0925112 -0.771499 0)
(0.119352 -0.777095 0)
(0.146203 -0.790363 0)
(0.172856 -0.810759 0)
(0.199224 -0.837572 0)
(0.225373 -0.86934 0)
(0.251656 -0.903225 0)
(0.278989 -0.933574 0)
(0.306414 -0.948877 0)
(0.324662 -0.932558 0)
(0.342649 -0.879816 0)
(0.359316 -0.794373 0)
(0.36236 -0.408091 0)
(0.198035 -0.0211573 0)
(0.08998 0.308945 0)
(0.0215096 0.575669 0)
(-0.015981 0.780475 0)
(-0.0189281 0.924573 0)
(0.0140338 1.00574 0)
(0.0807662 1.02106 0)
(0.0049037 -0.758081 0)
(0.0316649 -0.811592 0)
(0.0510165 -0.799186 0)
(0.0736379 -0.796397 0)
(0.0964611 -0.802012 0)
(0.118919 -0.814946 0)
(0.14073 -0.834851 0)
(0.161665 -0.861156 0)
(0.181625 -0.892599 0)
(0.200902 -0.926574 0)
(0.220794 -0.957509 0)
(0.240014 -0.972596 0)
(0.25369 -0.955169 0)
(0.268665 -0.899626 0)
(0.2925 -0.782642 0)
(0.190546 -0.306693 0)
(0.0679019 0.0801605 0)
(-0.0143378 0.386848 0)
(-0.0664702 0.622633 0)
(-0.0882492 0.793698 0)
(-0.077559 0.903548 0)
(-0.0366889 0.953875 0)
(0.0278144 0.9474 0)
(-0.00443379 -0.772658 0)
(0.0220304 -0.833523 0)
(0.039357 -0.821055 0)
(0.0587016 -0.818545 0)
(0.0785968 -0.824027 0)
(0.0981481 -0.836313 0)
(0.116872 -0.855138 0)
(0.134349 -0.879969 0)
(0.150197 -0.909679 0)
(0.164338 -0.941963 0)
(0.177878 -0.972203 0)
(0.189792 -0.988586 0)
(0.199775 -0.974136 0)
(0.209773 -0.925405 0)
(0.232154 -0.6521 0)
(0.0493904 -0.195966 0)
(-0.0483947 0.167533 0)
(-0.11204 0.446648 0)
(-0.147684 0.652189 0)
(-0.153639 0.79198 0)
(-0.130741 0.872496 0)
(-0.084132 0.899669 0)
(-0.0220028 0.880185 0)
(0.0390765 -0.775167 0)
(0.0222029 -0.846139 0)
(0.0339071 -0.8346 0)
(0.0495204 -0.834532 0)
(0.06794 -0.840618 0)
(0.0868184 -0.852278 0)
(0.105186 -0.869574 0)
(0.122365 -0.892121 0)
(0.137585 -0.919006 0)
(0.149927 -0.948448 0)
(0.158455 -0.97766 0)
(0.162643 -0.996169 0)
(0.167578 -0.987809 0)
(0.177974 -0.943257 0)
(0.0936657 -0.500843 0)
(-0.069174 -0.0848252 0)
(-0.150475 0.243947 0)
(-0.201088 0.490825 0)
(-0.221535 0.665565 0)
(-0.213105 0.776792 0)
(-0.180162 0.833438 0)
(-0.129597 0.844221 0)
(-0.0696118 0.817721 0)
(0.246066 -0.821904 0)
(0.0373431 -0.833605 0)
(0.0351987 -0.838682 0)
(0.0468442 -0.844826 0)
(0.0663367 -0.852256 0)
(0.0877809 -0.864114 0)
(0.109618 -0.881276 0)
(0.130964 -0.90359 0)
(0.15045 -0.929949 0)
(0.165877 -0.957342 0)
(0.168971 -0.983249 0)
(0.155074 -1.00676 0)
(0.13468 -0.995123 0)
(0.110803 -0.850385 0)
(-0.0934155 -0.378569 0)
(-0.194295 0.0114815 0)
(-0.255064 0.305007 0)
(-0.287001 0.518848 0)
(-0.290173 0.663833 0)
(-0.267992 0.750064 0)
(-0.226652 0.788234 0)
(-0.173207 0.788119 0)
(-0.114867 0.758699 0)
(0.512209 -1.02134 0)
(0.0413489 -0.747976 0)
(0.0526127 -0.83718 0)
(0.0558443 -0.854016 0)
(0.0767327 -0.863561 0)
(0.102263 -0.876609 0)
(0.128489 -0.894971 0)
(0.152983 -0.918384 0)
(0.171885 -0.945291 0)
(0.180253 -0.969544 0)
(0.167844 -0.977679 0)
(0.145698 -0.99768 0)
(0.043804 -0.965703 0)
(-0.133861 -0.638925 0)
(-0.264561 -0.255258 0)
(-0.331668 0.0823056 0)
(-0.362497 0.341371 0)
(-0.369843 0.526157 0)
(-0.353895 0.646069 0)
(-0.318656 0.712762 0)
(-0.270137 0.737951 0)
(-0.214356 0.731466 0)
(-0.157085 0.70201 0)
(-0.0724975 -1.2382 0)
(-0.0183951 -0.490146 0)
(0.0493029 -0.814166 0)
(0.0478358 -0.91016 0)
(0.0615375 -0.941273 0)
(0.0728926 -0.95901 0)
(0.0802945 -0.974351 0)
(0.0815028 -0.986065 0)
(0.0733718 -0.988361 0)
(0.0527975 -0.97256 0)
(0.0139429 -0.937784 0)
(-0.0559378 -0.879993 0)
(-0.177687 -0.757833 0)
(-0.320085 -0.512671 0)
(-0.409675 -0.180749 0)
(-0.450504 0.118368 0)
(-0.457805 0.349526 0)
(-0.443011 0.511287 0)
(-0.41006 0.612568 0)
(-0.363852 0.665972 0)
(-0.309582 0.683341 0)
(-0.251947 0.674177 0)
(-0.195341 0.64678 0)
(-0.154656 -1.02924 0)
(-0.0417527 -0.730852 0)
(0.0278362 -0.85183 0)
(0.0192973 -0.893381 0)
(0.0162809 -0.911876 0)
(0.00891922 -0.923169 0)
(-0.00222267 -0.931601 0)
(-0.0194979 -0.936373 0)
(-0.0461463 -0.933208 0)
(-0.0855536 -0.914711 0)
(-0.142413 -0.872148 0)
(-0.225049 -0.791333 0)
(-0.335829 -0.644032 0)
(-0.446955 -0.409863 0)
(-0.516942 -0.128198 0)
(-0.541067 0.13181 0)
(-0.531971 0.335997 0)
(-0.501175 0.478481 0)
(-0.455882 0.566491 0)
(-0.401838 0.611793 0)
(-0.343559 0.625419 0)
(-0.284734 0.616358 0)
(-0.228704 0.592511 0)
(-0.0709769 -0.938297 0)
(-0.0380769 -0.845828 0)
(-0.00546012 -0.869062 0)
(-0.0225578 -0.881085 0)
(-0.0399477 -0.891914 0)
(-0.0623358 -0.900199 0)
(-0.0889211 -0.905004 0)
(-0.121381 -0.90349 0)
(-0.16235 -0.890527 0)
(-0.214612 -0.858674 0)
(-0.281046 -0.798601 0)
(-0.364051 -0.6983 0)
(-0.458671 -0.543282 0)
(-0.543559 -0.330811 0)
(-0.593799 -0.0911181 0)
(-0.604175 0.131123 0)
(-0.583587 0.308655 0)
(-0.542718 0.4341 0)
(-0.489944 0.5123 0)
(-0.431271 0.552893 0)
(-0.370809 0.565503 0)
(-0.311646 0.55843 0)
(-0.256415 0.539103 0)
(-0.030133 -0.895828 0)
(-0.0420615 -0.856459 0)
(-0.0458629 -0.858703 0)
(-0.0694891 -0.861154 0)
(-0.0969382 -0.866378 0)
(-0.129564 -0.870276 0)
(-0.167115 -0.869865 0)
(-0.210597 -0.861224 0)
(-0.261627 -0.838793 0)
(-0.321643 -0.795476 0)
(-0.391234 -0.723264 0)
(-0.468866 -0.614079 0)
(-0.547107 -0.462313 0)
(-0.610345 -0.272902 0)
(-0.643312 -0.0687555 0)
(-0.642517 0.120053 0)
(-0.61442 0.273145 0)
(-0.568202 0.383525 0)
(-0.511923 0.453975 0)
(-0.451393 0.49179 0)
(-0.390481 0.505002 0)
(-0.331954 0.501055 0)
(-0.277987 0.486785 0)
(-0.0244212 -0.855027 0)
(-0.0534584 -0.839745 0)
(-0.0776494 -0.833837 0)
(-0.109369 -0.831475 0)
(-0.144934 -0.831652 0)
(-0.185187 -0.830637 0)
(-0.230394 -0.824769 0)
(-0.281157 -0.80966 0)
(-0.338114 -0.779832 0)
(-0.401314 -0.729026 0)
(-0.469491 -0.651124 0)
(-0.53904 -0.541531 0)
(-0.602443 -0.399608 0)
(-0.648573 -0.232858 0)
(-0.66809 -0.0588511 0)
(-0.659218 0.101524 0)
(-0.626951 0.233313 0)
(-0.578863 0.330529 0)
(-0.522074 0.394525 0)
(-0.461954 0.430604 0)
(-0.402178 0.445282 0)
(-0.345315 0.445042 0)
(-0.293234 0.436012 0)
(-0.0271351 -0.81186 0)
(-0.0640041 -0.807107 0)
(-0.0996917 -0.799069 0)
(-0.138263 -0.793885 0)
(-0.179951 -0.790049 0)
(-0.225598 -0.784482 0)
(-0.275674 -0.773614 0)
(-0.330446 -0.753176 0)
(-0.389765 -0.718217 0)
(-0.452609 -0.663606 0)
(-0.516557 -0.585044 0)
(-0.577275 -0.480424 0)
(-0.628156 -0.351593 0)
(-0.661397 -0.206279 0)
(-0.671333 -0.0579666 0)
(-0.657391 0.0784626 0)
(-0.623616 0.192017 0)
(-0.57616 0.277779 0)
(-0.521083 0.336217 0)
(-0.463209 0.371107 0)
(-0.405976 0.387622 0)
(-0.35178 0.391254 0)
(-0.302264 0.38736 0)
(-0.0288663 -0.764818 0)
(-0.0706566 -0.765742 0)
(-0.112724 -0.757697 0)
(-0.155999 -0.750722 0)
(-0.20165 -0.743788 0)
(-0.250453 -0.734413 0)
(-0.302855 -0.719437 0)
(-0.358815 -0.695081 0)
(-0.417633 -0.657172 0)
(-0.477634 -0.601752 0)
(-0.535899 -0.526015 0)
(-0.588143 -0.429424 0)
(-0.62895 -0.314828 0)
(-0.652885 -0.189188 0)
(-0.656543 -0.0628316 0)
(-0.640077 0.0534237 0)
(-0.606843 0.151439 0)
(-0.561828 0.227246 0)
(-0.51011 0.280809 0)
(-0.455922 0.31477 0)
(-0.402409 0.333162 0)
(-0.351769 0.340527 0)
(-0.30546 0.34143 0)
(-0.0287202 -0.715837 0)
(-0.0731504 -0.719893 0)
(-0.11827 -0.712441 0)
(-0.164009 -0.704345 0)
(-0.211501 -0.695111 0)
(-0.261337 -0.682802 0)
(-0.313825 -0.664786 0)
(-0.368683 -0.637933 0)
(-0.424883 -0.598936 0)
(-0.480475 -0.544895 0)
(-0.5325 -0.474121 0)
(-0.577116 -0.386958 0)
(-0.61004 -0.286435 0)
(-0.627488 -0.178428 0)
(-0.627437 -0.0708196 0)
(-0.610421 0.0284192 0)
(-0.579242 0.113213 0)
(-0.537951 0.180384 0)
(-0.490757 0.229623 0)
(-0.441307 0.262745 0)
(-0.392397 0.282835 0)
(-0.346009 0.293572 0)
(-0.303429 0.298759 0)
(-0.0277626 -0.667038 0)
(-0.0724188 -0.672561 0)
(-0.118162 -0.665674 0)
(-0.164337 -0.656878 0)
(-0.211778 -0.646026 0)
(-0.260821 -0.631649 0)
(-0.311599 -0.611655 0)
(-0.363656 -0.583584 0)
(-0.415833 -0.544941 0)
(-0.466169 -0.493712 0)
(-0.511944 -0.428985 0)
(-0.549901 -0.351532 0)
(-0.576731 -0.264165 0)
(-0.58979 -0.171649 0)
(-0.587894 -0.0799774 0)
(-0.571733 0.00492767 0)
(-0.543638 0.0784917 0)
(-0.506889 0.138186 0)
(-0.464944 0.18356 0)
(-0.420884 0.215827 0)
(-0.377135 0.2373 0)
(-0.335444 0.250903 0)
(-0.296938 0.259749 0)
(-0.0264226 -0.619775 0)
(-0.0695143 -0.625887 0)
(-0.114108 -0.619347 0)
(-0.159098 -0.610098 0)
(-0.204972 -0.598192 0)
(-0.25182 -0.582533 0)
(-0.299595 -0.56151 0)
(-0.347745 -0.533262 0)
(-0.395106 -0.495995 0)
(-0.439878 -0.448381 0)
(-0.479706 -0.390029 0)
(-0.511943 -0.321868 0)
(-0.534067 -0.246329 0)
(-0.544228 -0.167183 0)
(-0.541745 -0.0889649 0)
(-0.527334 -0.0160922 0)
(-0.502908 0.0479699 0)
(-0.471093 0.101205 0)
(-0.434704 0.143102 0)
(-0.396297 0.174434 0)
(-0.357933 0.196905 0)
(-0.321119 0.212801 0)
(-0.286832 0.224631 0)
(-0.024632 -0.575095 0)
(-0.0652155 -0.581284 0)
(-0.107514 -0.574897 0)
(-0.150179 -0.565359 0)
(-0.193418 -0.552855 0)
(-0.237121 -0.536572 0)
(-0.281096 -0.515291 0)
(-0.32475 -0.48765 0)
(-0.367 -0.452404 0)
(-0.406283 -0.408739 0)
(-0.440654 -0.356594 0)
(-0.468023 -0.296909 0)
(-0.486497 -0.231703 0)
(-0.494779 -0.163911 0)
(-0.492488 -0.096952 0)
(-0.480282 -0.0341298 0)
(-0.459707 0.0219243 0)
(-0.432848 0.0695892 0)
(-0.40196 0.10834 0)
(-0.369128 0.138634 0)
(-0.336068 0.161703 0)
(-0.304063 0.179309 0)
(-0.273951 0.193454 0)
(-0.0226481 -0.533716 0)
(-0.0601508 -0.5396 0)
(-0.0994781 -0.53324 0)
(-0.139121 -0.523552 0)
(-0.179079 -0.510814 0)
(-0.219101 -0.494424 0)
(-0.258901 -0.473468 0)
(-0.297884 -0.446968 0)
(-0.335094 -0.414093 0)
(-0.369226 -0.374389 0)
(-0.398727 -0.327996 0)
(-0.421986 -0.275791 0)
(-0.437605 -0.219418 0)
(-0.444672 -0.161136 0)
(-0.442982 -0.103517 0)
(-0.433101 -0.0490394 0)
(-0.416252 0.00028385 0)
(-0.394073 0.0431469 0)
(-0.368344 0.0790387 0)
(-0.340739 0.108195 0)
(-0.312668 0.131489 0)
(-0.285208 0.150266 0)
(-0.25907 0.166111 0)
(-0.020565 -0.495847 0)
(-0.0547646 -0.501244 0)
(-0.090798 -0.494861 0)
(-0.127077 -0.485153 0)
(-0.163458 -0.472465 0)
(-0.199602 -0.456353 0)
(-0.235173 -0.436131 0)
(-0.269609 -0.411102 0)
(-0.30209 -0.380729 0)
(-0.33156 -0.3448 0)
(-0.35681 -0.303567 0)
(-0.376624 -0.257818 0)
(-0.38998 -0.208873 0)
(-0.396241 -0.158471 0)
(-0.395305 -0.108549 0)
(-0.387632 -0.0609722 0)
(-0.374174 -0.0172905 0)
(-0.356199 0.0214382 0)
(-0.335096 0.0547314 0)
(-0.312195 0.0826751 0)
(-0.288639 0.105876 0)
(-0.265322 0.125358 0)
(-0.242846 0.142368 0)
(-0.0184887 -0.461581 0)
(-0.0493735 -0.466355 0)
(-0.0820301 -0.459935 0)
(-0.114859 -0.450322 0)
(-0.147618 -0.437902 0)
(-0.179928 -0.42234 0)
(-0.211433 -0.403115 0)
(-0.241626 -0.379726 0)
(-0.269822 -0.351837 0)
(-0.295182 -0.31939 0)
(-0.316781 -0.282689 0)
(-0.333718 -0.242426 0)
(-0.345254 -0.199665 0)
(-0.350946 -0.155745 0)
(-0.350747 -0.112133 0)
(-0.345023 -0.0702487 0)
(-0.334502 -0.0312904 0)
(-0.320153 0.00388083 0)
(-0.30305 0.0348164 0)
(-0.284242 0.0615076 0)
(-0.264645 0.084369 0)
(-0.244997 0.104177 0)
(-0.225809 0.121914 0)
(-0.0165203 -0.430819 0)
(-0.0441992 -0.434907 0)
(-0.0735385 -0.428453 0)
(-0.102986 -0.419027 0)
(-0.132238 -0.407029 0)
(-0.160901 -0.392193 0)
(-0.188628 -0.37411 0)
(-0.214973 -0.352413 0)
(-0.239372 -0.326894 0)
(-0.26117 -0.297588 0)
(-0.279667 -0.264811 0)
(-0.294202 -0.229169 0)
(-0.304245 -0.191522 0)
(-0.309491 -0.152913 0)
(-0.309923 -0.114467 0)
(-0.305826 -0.0772728 0)
(-0.297747 -0.0422691 0)
(-0.286423 -0.0101606 0)
(-0.272678 0.018645 0)
(-0.257333 0.0440813 0)
(-0.241123 0.0664274 0)
(-0.224654 0.0862741 0)
(-0.208357 0.104398 0)
(-0.0147064 -0.403379 0)
(-0.039349 -0.406779 0)
(-0.0655159 -0.400304 0)
(-0.0917411 -0.391126 0)
(-0.117686 -0.379643 0)
(-0.142964 -0.36563 0)
(-0.167251 -0.348746 0)
(-0.190161 -0.328709 0)
(-0.21124 -0.30539 0)
(-0.229976 -0.278871 0)
(-0.245847 -0.249464 0)
(-0.258367 -0.217694 0)
(-0.267161 -0.184267 0)
(-0.272018 -0.150007 0)
(-0.272937 -0.115791 0)
(-0.270134 -0.0824654 0)
(-0.264022 -0.0507771 0)
(-0.255155 -0.0213059 0)
(-0.244165 0.0055862 0)
(-0.231692 0.0297994 0)
(-0.218326 0.0515205 0)
(-0.204565 0.0712025 0)
(-0.190774 0.0894636 0)
(-0.0130236 -0.379043 0)
(-0.0348219 -0.381793 0)
(-0.0580155 -0.375308 0)
(-0.0812277 -0.366414 0)
(-0.104106 -0.355494 0)
(-0.126283 -0.342339 0)
(-0.147468 -0.326648 0)
(-0.167335 -0.308183 0)
(-0.185518 -0.286862 0)
(-0.201626 -0.262789 0)
(-0.215265 -0.236256 0)
(-0.226082 -0.207724 0)
(-0.233807 -0.177779 0)
(-0.238295 -0.147087 0)
(-0.239553 -0.116342 0)
(-0.237743 -0.0862173 0)
(-0.233175 -0.0573136 0)
(-0.226265 -0.030112 0)
(-0.217499 -0.00493034 0)
(-0.207375 0.0181185 0)
(-0.196367 0.03916 0)
(-0.18489 0.0585458 0)
(-0.17325 0.0767717 0)
(-0.0114058 -0.357605 0)
(-0.0305505 -0.359731 0)
(-0.0510067 -0.353242 0)
(-0.0714396 -0.344648 0)
(-0.0915014 -0.334312 0)
(-0.110853 -0.322016 0)
(-0.129244 -0.307467 0)
(-0.146408 -0.290454 0)
(-0.162058 -0.270915 0)
(-0.175893 -0.248964 0)
(-0.187618 -0.224872 0)
(-0.196974 -0.199044 0)
(-0.203764 -0.171977 0)
(-0.207887 -0.144218 0)
(-0.209352 -0.116333 0)
(-0.208281 -0.0888644 0)
(-0.204905 -0.0623047 0)
(-0.199537 -0.0370559 0)
(-0.192549 -0.0133944 0)
(-0.184333 0.00856841 0)
(-0.17527 0.0289184 0)
(-0.165705 0.0479346 0)
(-0.155907 0.0660176 0)
(-0.00979191 -0.338929 0)
(-0.0264657 -0.340362 0)
(-0.0444411 -0.333857 0)
(-0.0623261 -0.325581 0)
(-0.0798034 -0.315842 0)
(-0.0965721 -0.304382 0)
(-0.112431 -0.290901 0)
(-0.127176 -0.275197 0)
(-0.140587 -0.257223 0)
(-0.152436 -0.237094 0)
(-0.162497 -0.215062 0)
(-0.170577 -0.191489 0)
(-0.176532 -0.166802 0)
(-0.180288 -0.141461 0)
(-0.181853 -0.115937 0)
(-0.181318 -0.090679 0)
(-0.178855 -0.0660951 0)
(-0.174699 -0.0425247 0)
(-0.169135 -0.0202065 0)
(-0.162466 0.000758178 0)
(-0.155003 0.0204346 0)
(-0.14704 0.0390515 0)
(-0.138813 0.0569351 0)
(-0.00809429 -0.323054 0)
(-0.0225261 -0.32347 0)
(-0.0382929 -0.316914 0)
(-0.0538319 -0.308985 0)
(-0.068914 -0.29986 0)
(-0.0832927 -0.289206 0)
(-0.0968303 -0.276701 0)
(-0.109385 -0.262152 0)
(-0.120794 -0.245526 0)
(-0.13088 -0.22694 0)
(-0.139472 -0.206635 0)
(-0.14642 -0.184933 0)
(-0.151614 -0.162211 0)
(-0.155 -0.138864 0)
(-0.156583 -0.11529 0)
(-0.156432 -0.091871 0)
(-0.154671 -0.0689512 0)
(-0.151477 -0.0468208 0)
(-0.147062 -0.0256845 0)
(-0.141659 -0.00562826 0)
(-0.135518 0.0134093 0)
(-0.128896 0.0316291 0)
(-0.122015 0.0492974 0)
(-0.00609244 -0.310041 0)
(-0.0186736 -0.308749 0)
(-0.0325707 -0.302164 0)
(-0.0459098 -0.294677 0)
(-0.0587202 -0.286201 0)
(-0.0708438 -0.276311 0)
(-0.082221 -0.264671 0)
(-0.0927671 -0.25111 0)
(-0.102362 -0.235617 0)
(-0.110867 -0.218317 0)
(-0.118141 -0.19944 0)
(-0.124067 -0.179281 0)
(-0.128557 -0.158172 0)
(-0.131572 -0.136462 0)
(-0.133114 -0.114493 0)
(-0.133234 -0.0925956 0)
(-0.132025 -0.07107 0)
(-0.129613 -0.0501688 0)
(-0.126149 -0.0300692 0)
(-0.121803 -0.0108382 0)
(-0.116766 0.00759962 0)
(-0.111272 0.0254452 0)
(-0.105552 0.0429162 0)
(-0.00374997 -0.299552 0)
(-0.0149337 -0.295619 0)
(-0.0273828 -0.289346 0)
(-0.0385417 -0.282543 0)
(-0.0491054 -0.274772 0)
(-0.0590454 -0.265577 0)
(-0.0683802 -0.254661 0)
(-0.0770644 -0.241904 0)
(-0.0849999 -0.22733 0)
(-0.0920653 -0.211077 0)
(-0.0981411 -0.193363 0)
(-0.103128 -0.174459 0)
(-0.106958 -0.154662 0)
(-0.109599 -0.13428 0)
(-0.111057 -0.113615 0)
(-0.111371 -0.0929614 0)
(-0.11061 -0.0725872 0)
(-0.108864 -0.0527224 0)
(-0.106228 -0.0335274 0)
(-0.102804 -0.0150512 0)
(-0.0987151 0.00281536 0)
(-0.0941841 0.0203207 0)
(-0.0894809 0.0376439 0)
(-0.00252544 -0.291384 0)
(-0.011972 -0.283445 0)
(-0.0230767 -0.278378 0)
(-0.031766 -0.272639 0)
(-0.0399599 -0.265578 0)
(-0.047726 -0.256933 0)
(-0.0551058 -0.246552 0)
(-0.0620489 -0.234396 0)
(-0.0684497 -0.22053 0)
(-0.0741877 -0.2051 0)
(-0.079153 -0.188312 0)
(-0.0832604 -0.170411 0)
(-0.0864558 -0.151662 0)
(-0.0887177 -0.132337 0)
(-0.0900557 -0.112707 0)
(-0.0905069 -0.0930399 0)
(-0.0901278 -0.0735857 0)
(-0.088983 -0.0545672 0)
(-0.0871257 -0.0361475 0)
(-0.0845761 -0.0183731 0)
(-0.0813563 -0.00108103 0)
(-0.0776821 0.0161177 0)
(-0.0739127 0.0333802 0)
(-0.00626436 -0.28627 0)
(-0.0112384 -0.272406 0)
(-0.0200678 -0.269799 0)
(-0.02558 -0.265321 0)
(-0.0311571 -0.258736 0)
(-0.0367387 -0.250351 0)
(-0.0422445 -0.240248 0)
(-0.0475485 -0.228472 0)
(-0.0525089 -0.215111 0)
(-0.056995 -0.200302 0)
(-0.0609031 -0.184228 0)
(-0.0641608 -0.167106 0)
(-0.0667271 -0.149167 0)
(-0.0685912 -0.130653 0)
(-0.0697701 -0.11181 0)
(-0.0703051 -0.0928818 0)
(-0.0702548 -0.0741112 0)
(-0.0696819 -0.0557298 0)
(-0.0686202 -0.0379366 0)
(-0.0670084 -0.0208255 0)
(-0.0646906 -0.00418261 0)
(-0.0618697 0.0127285 0)
(-0.0590447 0.0300809 0)
(-0.0193977 -0.281479 0)
(-0.0129157 -0.265061 0)
(-0.0180421 -0.26517 0)
(-0.0196896 -0.261174 0)
(-0.0225045 -0.254381 0)
(-0.025976 -0.245805 0)
(-0.0297172 -0.235684 0)
(-0.0334669 -0.224073 0)
(-0.0370407 -0.21103 0)
(-0.0403043 -0.196659 0)
(-0.0431657 -0.181107 0)
(-0.0455678 -0.164556 0)
(-0.047483 -0.147209 0)