/*--------------------------------*- C++ -*----------------------------------*\
  =========                 |
  \\      /  F ield         | OpenFOAM: The Open Source CFD Toolbox
   \\    /   O peration     | Website:  https://openfoam.org
    \\  /    A nd           | Version:  9
     \\/     M anipulation  |
\*---------------------------------------------------------------------------*/
FoamFile
{
    format      ascii;
    class       volScalarField;
    location    "400";
    object      p;
}
// * * * * * * * * * * * * * * * * * * * * * * * * * * * * * * * * * * * * * //

dimensions      [0 2 -2 0 0 0 0];

internalField   nonuniform List<scalar> 
10720
(
-127.302
-138.856
-151.271
-159.673
-163.008
-164.835
-163.452
-158.243
-150.201
-139.256
-126.363
-112.605
-99.1185
-87.3716
-78.8813
-74.224
-71.9455
-70.3905
-69.2218
-68.5297
-68.2806
-68.4713
-69.0341
-69.8499
-70.7334
-71.4775
-71.9027
-71.9115
-71.415
-70.272
-68.3349
-65.4776
-61.3433
-55.3922
-47.9354
-40.5734
-38.246
-26.9877
-37.2474
-112.475
-98.2844
-78.7678
-57.277
-34.8362
-12.3208
8.96811
27.2706
41.6325
52.2653
59.5529
64.0226
66.2292
66.9308
66.6961
65.6932
64.1312
62.177
59.9184
57.3881
54.6128
51.5842
48.3086
44.8138
41.2807
37.8604
34.5022
31.2008
27.9727
24.8311
21.7481
18.7102
15.661
12.5089
9.14081
5.25562
0.626153
-6.22542
-17.3941
-69.6695
-80.369
-90.7537
-99.7931
-107.386
-113.288
-116.447
-117.029
-115.534
-112.033
-106.75
-99.9868
-92.2448
-84.4868
-78.0392
-73.8045
-71.2147
-69.6297
-68.6912
-68.1001
-67.8961
-68.1136
-68.714
-69.5726
-70.4807
-71.235
-71.671
-71.6938
-71.2212
-70.1096
-68.2042
-65.3771
-61.282
-55.3773
-47.9723
-40.5658
-38.2504
-27.1013
-38.2393
-59.1142
-48.3581
-36.4573
-22.9879
-8.61032
6.21096
20.6859
33.7568
44.6793
53.2207
59.4134
63.4501
65.6357
66.4461
66.2868
65.3882
63.9432
62.0889
59.9097
57.4472
54.7299
51.7603
48.5498
45.1319
41.6534
38.2469
34.8878
31.5757
28.3303
25.1652
22.0555
18.9889
15.9115
12.7334
9.34377
5.4454
0.816756
-6.02695
-16.6635
-60.3108
-69.9256
-79.242
-88.1687
-95.623
-101.263
-105.038
-106.82
-106.599
-104.437
-100.466
-95.0319
-88.692
-82.2548
-76.7034
-72.7182
-70.1489
-68.8748
-68.2162
-67.7686
-67.6022
-67.8374
-68.4817
-69.3851
-70.3195
-71.0869
-71.5333
-71.5621
-71.1024
-70.0154
-68.1368
-65.3269
-61.253
-55.3824
-48.0521
-40.5868
-38.2829
-27.1758
-39.2306
-50.5813
-39.7723
-27.6388
-14.5497
-1.14303
12.2369
24.9564
36.2891
45.795
53.3288
58.9056
62.648
64.79
65.6928
65.6672
64.914
63.6003
61.852
59.7564
57.3632
54.7043
51.7912
48.6383
45.28
41.8383
38.4385
35.082
31.7697
28.5206
25.3476
22.2283
19.1504
16.0619
12.8741
9.4782
5.58013
0.964683
-5.83273
-15.939
-41.2717
-49.6474
-58.1272
-66.1911
-73.4303
-79.674
-84.7101
-88.2964
-90.2619
-90.5443
-89.1775
-86.3885
-82.5861
-78.3378
-74.32
-71.126
-69.0134
-68.117
-67.8398
-67.5403
-67.3667
-67.6196
-68.3163
-69.26
-70.2091
-70.9825
-71.4359
-71.4661
-71.0101
-69.9437
-68.097
-65.308
-61.2504
-55.4004
-48.1452
-40.619
-38.3439
-27.2521
-40.1414
-33.0897
-24.4465
-14.858
-4.24713
6.73449
17.8444
28.5532
38.2143
46.4431
53.1032
58.1606
61.6608
63.7682
64.7604
64.8754
64.2757
63.1082
61.4885
59.5014
57.2003
54.6208
51.7812
48.6992
45.4105
42.0199
38.6446
35.3024
31.9966
28.7466
25.566
22.436
19.3439
16.241
13.0397
9.63415
5.73398
1.13354
-5.60603
-15.2212
-32.1475
-39.8605
-47.7182
-55.4063
-62.4607
-68.8038
-74.1435
-78.189
-80.8055
-81.9531
-81.6895
-80.1996
-77.7914
-74.8852
-71.9794
-69.5422
-67.8762
-67.1407
-67.0584
-67.1129
-67.1807
-67.4706
-68.1862
-69.1688
-70.133
-70.9057
-71.3614
-71.3913
-70.9349
-69.8847
-68.0716
-65.3082
-61.2655
-55.4253
-48.2387
-40.6469
-38.4109
-27.3492
-40.942
-24.55
-16.5548
-7.74436
1.82931
11.5828
21.3813
30.812
39.3314
46.6307
52.6153
57.2438
60.5279
62.6012
63.6773
63.9302
63.4906
62.4824
61.0081
59.1473
56.9552
54.4699
51.7152
48.7127
45.4992
42.1669
38.8238
35.5006
32.2053
28.9581
25.7735
22.636
19.5329
16.4181
13.206
9.79367
5.89482
1.31548
-5.35252
-14.4908
-23.7096
-30.6764
-37.8984
-44.9947
-51.6295
-57.7802
-63.1493
-67.5535
-70.8881
-73.0567
-74.0445
-73.9348
-72.9198
-71.2971
-69.4557
-67.7954
-66.6107
-66.0406
-66.0033
-66.3085
-66.828
-67.3909
-68.1159
-69.094
-70.0797
-70.8551
-71.3093
-71.337
-70.8784
-69.8406
-68.0595
-65.3241
-61.2958
-55.456
-48.3268
-40.6667
-38.4676
-27.4626
-41.6203
-16.8977
-9.81592
-2.00499
6.51803
15.1778
23.8901
32.2991
39.9166
46.478
51.9163
56.1839
59.2759
61.3153
62.4652
62.848
62.5676
61.7251
60.408
58.6887
56.6213
54.2456
51.5891
48.6767
45.5464
42.2807
38.9795
35.6828
32.4045
29.1653
25.9807
22.8386
19.7266
16.6015
13.38
9.96209
6.06676
1.51322
-5.07058
-13.7442
-17.7739
-24.2115
-30.9349
-37.6021
-43.8888
-49.8426
-55.1931
-59.7475
-63.4214
-66.1072
-67.7828
-68.5143
-68.4399
-67.7755
-66.8103
-65.857
-65.1676
-64.8671
-64.9425
-65.3611
-66.1813
-67.1769
-68.1069
-69.0589
-70.0345
-70.8236
-71.2791
-71.3024
-70.8398
-69.8116
-68.0612
-65.3561
-61.342
-55.4915
-48.4069
-40.6761
-38.5036
-27.577
-42.1451
-11.4921
-5.01488
2.11516
9.86806
17.7041
25.5809
33.1939
40.0984
46.0685
51.0573
55.0134
57.9339
59.9386
61.1485
61.6491
61.5209
60.8443
59.6911
58.1247
56.1953
53.9428
51.3973
48.5855
45.5464
42.3557
39.106
35.8441
32.5893
29.3635
26.1831
23.0399
19.9217
16.7885
13.5596
10.1382
6.24947
1.72654
-4.75829
-12.9827
-13.0278
-18.9781
-25.2434
-31.4812
-37.4052
-43.1034
-48.3197
-52.8853
-56.7529
-59.8256
-62.0563
-63.4812
-64.1881
-64.3267
-64.1107
-63.7866
-63.5729
-63.5986
-63.8845
-64.4237
-65.3526
-66.6611
-67.9857
-69.0711
-70.0058
-70.7932
-71.2609
-71.2833
-70.8158
-69.7955
-68.0743
-65.4015
-61.4033
-55.5329
-48.4722
-40.6688
-38.5103
-27.6915
-42.5232
-7.23184
-1.29545
5.24288
12.3483
19.5075
26.7028
33.6661
39.9883
45.4717
50.0791
53.7604
56.5295
58.4976
59.7515
60.3543
60.3668
59.8507
58.8631
57.4565
55.6756
53.5582
51.1351
48.4345
45.4952
42.3882
39.1998
35.9813
32.7571
29.5504
26.3792
23.2386
20.1173
16.9786
13.7445
10.3219
6.44316
1.95631
-4.41605
-12.2054
-9.33801
-14.8822
-20.7533
-26.6238
-32.2231
-37.6707
-42.7301
-47.2513
-51.2006
-54.4948
-57.082
-58.9859
-60.2658
-61.0266
-61.423
-61.641
-61.8621
-62.2164
-62.7532
-63.4713
-64.4707
-65.8966
-67.5777
-69.0051
-70.0076
-70.7643
-71.2398
-71.272
-70.8032
-69.7898
-68.0971
-65.4596
-61.48
-55.5804
-48.5225
-40.639
-38.4756
-27.7993
-42.722
-3.94558
1.54851
7.59905
14.1696
20.7688
27.4004
33.8246
39.6636
44.7365
49.0134
52.4527
55.0868
57.0141
58.2968
58.9844
59.1228
58.7577
57.9322
56.688
55.0625
53.0897
50.7995
48.2198
45.3891
42.3744
39.257
36.0907
32.9045
29.7235
26.5668
23.4333
20.3125
17.1712
13.9346
10.5134
6.64852
2.20278
-4.04242
-11.4137
-6.39749
-11.585
-17.1047
-22.6405
-27.9396
-33.1386
-38.0188
-42.4476
-46.4057
-49.8258
-52.6592
-54.9156
-56.6319
-57.8828
-58.7789
-59.4594
-60.0712
-60.7345
-61.5186
-62.4434
-63.5618
-65.02
-66.8704
-68.6852
-69.9543
-70.7467
-71.2067
-71.2527
-70.7936
-69.7901
-68.1251
-65.5257
-61.5693
-55.6349
-48.5527
-40.5796
-38.3895
-27.9017
-42.74
-1.35622
3.75452
9.38819
15.5024
21.6277
27.7822
33.7506
39.1793
43.8996
47.8846
51.1127
53.625
55.5054
56.8032
57.5587
57.8062
57.5794
56.909
55.8256
54.3588
52.5373
50.3882
47.9383
45.2247
42.3108
39.2739
36.1689
33.0287
29.88
26.7437
23.6218
20.5057
17.365
14.1289
10.7122
6.86533
2.46647
-3.63851
-10.6065
-4.04705
-8.9232
-14.1325
-19.37
-24.3942
-29.359
-34.0572
-38.3725
-42.2943
-45.7673
-48.7526
-51.2522
-53.2877
-54.9127
-56.2074
-57.2749
-58.2302
-59.1777
-60.1923
-61.3165
-62.5901
-64.1012
-65.9781
-68.0405
-69.6945
-70.6899
-71.17
-71.2134
-70.7736
-69.7898
-68.1555
-65.5974
-61.6682
-55.6943
-48.5652
-40.4865
-38.2389
-27.9819
-42.5298
0.687301
5.46899
10.7412
16.4624
22.1805
27.9246
33.5014
38.5765
42.9875
46.7145
49.7567
52.1573
53.9859
55.2867
56.0934
56.4335
56.3305
55.8049
54.8774
53.5691
51.9026
49.9011
47.5884
44.9993
42.1944
39.2471
36.2124
33.1262
30.0171
26.9075
23.8026
20.6955
17.5593
14.3272
10.9184
7.09421
2.74738
-3.20358
-9.78579
-2.15637
-6.75601
-11.6873
-16.6552
-21.429
-26.1718
-30.6896
-34.8768
-38.7344
-42.2111
-45.2818
-47.945
-50.2118
-52.1207
-53.7292
-55.1138
-56.364
-57.5675
-58.795
-60.0993
-61.526
-63.1283
-64.9993
-67.1326
-69.1136
-70.4682
-71.0998
-71.1544
-70.7278
-69.7753
-68.1797
-65.6668
-61.7706
-55.7559
-48.5529
-40.3529
-38.0155
-28.0335
-42.0983
2.30809
6.79986
11.7577
17.1341
22.4976
27.8848
33.1197
37.8851
42.0204
45.5194
48.3982
50.6937
52.4668
53.7598
54.6035
55.0197
55.0251
54.6321
53.8525
52.6995
51.189
49.339
47.1692
44.7113
42.023
39.1738
36.2184
33.1943
30.1322
27.0558
23.9735
20.8804
17.7528
14.5285
11.1313
7.33459
3.04603
-2.73937
-8.95069
-0.629994
-4.98363
-9.66439
-14.3885
-18.9326
-23.4685
-27.811
-31.8647
-35.6402
-39.0875
-42.1938
-44.9593
-47.3871
-49.5054
-51.3562
-52.9957
-54.4932
-55.9204
-57.3406
-58.8072
-60.3693
-62.0721
-63.9638
-66.077
-68.2191
-69.9538
-70.9035
-71.0614
-70.6513
-69.7313
-68.186
-65.7263
-61.8679
-55.8119
-48.5169
-40.1755
-37.706
-28.0339
-41.433
3.59222
7.82955
12.5076
17.5805
22.6311
27.7041
32.6381
37.1271
41.0153
44.3132
47.0456
49.2407
50.9559
52.2332
53.1008
53.5781
53.6766
53.4025
52.7609
51.7573
50.401
48.7038
46.681
44.36
41.7948
39.0517
36.1837
33.23
30.2225
27.1862
24.1325
21.0587
17.9444
14.7322
11.3509
7.58698
3.36191
-2.24586
-8.10374
0.603564
-3.52894
-7.98215
-12.4836
-16.8175
-21.1595
-25.3347
-29.2531
-32.935
-36.3306
-39.437
-42.2583
-44.7928
-47.0612
-49.0948
-50.9351
-52.6349
-54.2524
-55.8421
-57.4534
-59.1329
-60.924
-62.8559
-64.9421
-67.1065
-69.0977
-70.4533
-70.8699
-70.5339
-69.6467
-68.1568
-65.76
-61.9481
-55.8548
-48.4449
-39.9455
-37.3044
-27.9747
-40.5781
4.60885
8.61769
13.0479
17.8484
22.6209
27.4147
32.0793
36.3196
39.9859
43.1058
45.705
47.8045
49.4604
50.7148
51.5954
52.1197
52.2966
52.1278
51.6127
50.7505
49.544
47.999
46.1252
43.9451
41.5086
38.8787
36.1063
33.2308
30.2854
27.2964
24.2776
21.2288
18.1327
14.9373
11.5761
7.85057
3.69547
-1.72524
-7.24385
1.60011
-2.33167
-6.57749
-10.8753
-15.0154
-19.1772
-23.1918
-26.9774
-30.5583
-33.8879
-36.9686
-39.8104
-42.4089
-44.7803
-46.9472
-48.9409
-50.802
-52.5768
-54.3109
-56.0484
-57.8297
-59.6938
-61.665
-63.7419
-65.8758
-67.9607
-69.6617
-70.4713
-70.3327
-69.5106
-68.0764
-65.7473
-61.9914
-55.8691
-48.3336
-39.658
-36.7994
-27.8318
-39.5354
5.40917
9.21305
13.4187
17.9751
22.4975
27.0398
31.4624
35.4757
38.9428
41.9031
44.3798
46.3879
47.9843
49.211
50.0951
50.6545
50.896
50.8187
50.4179
49.6876
48.6246
47.2289
45.5043
43.4676
41.1643
38.6535
35.9839
33.1943
30.3186
27.384
24.4067
21.3888
18.3165
15.1429
11.807
8.12566
4.04579
-1.17848
-6.37411
2.40323
-1.34506
-5.40086
-9.51124
-13.4729
-17.4652
-21.3275
-24.983
-28.4599
-31.7148
-34.7516
-37.587
-40.2163
-42.6524
-44.9125
-47.0193
-49.0048
-50.9057
-52.7588
-54.602
-56.4698
-58.394
-60.3951
-62.4689
-64.5713
-66.6483
-68.5376
-69.7579
-69.964
-69.2914
-67.928
-65.6649
-61.9724
-55.8398
-48.1638
-39.2996
-36.1911
-27.5961
-38.3456
6.03379
9.65153
13.6545
17.9882
22.2842
26.5996
30.8013
34.607
37.8944
40.7104
43.0731
44.9945
46.5313
47.726
48.6065
49.1903
49.4841
49.4851
49.1862
48.5771
47.6498
46.3986
44.8214
42.9291
40.762
38.3754
35.8151
33.1184
30.3197
27.4467
24.5177
21.5372
18.4944
15.3479
12.0424
8.41112
4.41327
-0.607975
-5.49362
3.04781
-0.53253
-4.41335
-8.3503
-12.1464
-15.9798
-19.6976
-23.2269
-26.5986
-29.7736
-32.7534
-35.5619
-38.1961
-40.6667
-42.9868
-45.1731
-47.2505
-49.2484
-51.1959
-53.1242
-55.0621
-57.0345
-59.0562
-61.1232
-63.1994
-65.2378
-67.1714
-68.6878
-69.3194
-68.9251
-67.6802
-65.4874
-61.8525
-55.7339
-47.9228
-38.8624
-35.4737
-27.2436
-37.0116
6.51447
9.96288
13.7795
17.9102
21.9999
26.1073
30.107
33.7232
36.8474
39.5312
41.7869
43.6254
45.1035
46.2637
47.1342
47.7336
48.0686
48.1359
47.9266
47.4277
46.6269
45.5138
44.0807
42.3322
40.3031
38.0445
35.5988
33.0017
30.2869
27.4826
24.6086
21.6719
18.6647
15.5512
12.2819
8.70703
4.79631
-0.0157318
-4.60598
3.56112
0.135552
-3.58257
-7.35901
-11.0004
-14.6853
-18.2657
-21.6729
-24.94
-28.0307
-30.9446
-33.7118
-36.3309
-38.8124
-41.1656
-43.4027
-45.544
-47.6124
-49.6311
-51.6245
-53.616
-55.6241
-57.6581
-59.7122
-61.7596
-63.7581
-65.6629
-67.3127
-68.3212
-68.3173
-67.2823
-65.183
-61.6018
-55.5167
-47.5809
-38.3291
-34.6528
-26.7669
-35.5683
6.87687
10.1692
13.8152
17.7582
21.6587
25.576
29.3883
32.8306
35.8068
38.3681
40.5231
42.2826
43.7031
44.8268
45.6825
46.2899
46.6564
46.7787
46.6472
46.2471
45.5633
44.5806
43.2865
41.6796
39.7889
37.6609
35.3343
32.8426
30.2182
27.4897
24.6777
21.7915
18.8263
15.7518
12.5244
9.01209
5.19522
0.595734
-3.7109
3.96569
0.683721
-2.88348
-6.50975
-10.0071
-13.5516
-17.0015
-20.2911
-23.4551
-26.4588
-29.3018
-32.0169
-34.6056
-37.0783
-39.4427
-41.707
-43.8876
-46.0033
-48.0718
-50.1116
-52.1402
-54.1714
-56.209
-58.2446
-60.2569
-62.2136
-64.0698
-65.7329
-66.9699
-67.3713
-66.653
-64.7011
-61.1793
-55.1335
-47.1076
-37.6893
-33.7239
-26.1508
-34.011
7.14143
10.2898
13.777
17.5475
21.2727
25.0139
28.6528
31.9352
34.776
37.2232
39.2829
40.9669
42.3308
43.4169
44.2542
44.8635
45.2531
45.4203
45.3556
45.0433
44.466
43.6054
42.4441
40.9754
39.2221
37.226
35.0218
32.6403
30.1124
27.4661
24.7229
21.8938
18.9772
15.9481
12.7692
9.32583
5.60777
1.22343
-2.81285
4.2795
1.13122
-2.29483
-5.78064
-9.1425
-12.5549
-15.8804
-19.0566
-22.1196
-25.0353
-27.8046
-30.46
-33.0058
-35.4541
-37.8118
-40.0838
-42.2832
-44.4256
-46.5243
-48.5928
-50.6435
-52.685
-54.7171
-56.7283
-58.7
-60.6086
-62.4118
-64.0344
-65.3456
-66.0467
-65.7013
-63.9775
-60.5427
-54.5434
-46.4631
-36.9273
-32.6941
-25.4085
-32.3646
7.3248
10.3392
13.6795
17.2888
20.8521
24.4302
27.9069
31.0415
33.7573
36.0977
38.0676
39.6792
40.9879
42.0357
42.8519
43.4581
43.8636
44.0667
44.0586
43.8234
43.3423
42.5944
41.5588
40.2234
38.6052
36.7409
34.6615
32.3942
29.9681
27.4102
24.7424
21.9774
19.1162
16.1391
13.0148
9.64667
6.03397
1.86489
-1.91173
4.51744
1.49445
-1.79912
-5.15283
-8.38751
-11.6744
-14.8816
-17.9491
-20.913
-23.7409
-26.435
-29.0251
-31.5191
-33.9309
-36.2672
-38.5306
-40.7312
-42.8821
-44.9935
-47.0746
-49.133
-51.1726
-53.1896
-55.1702
-57.0966
-58.9502
-60.6946
-62.2591
-63.5478
-64.3837
-64.3598
-62.931
-59.6363
-53.7017
-45.6097
-36.0329
-31.5603
-24.5487
-30.6354
7.44077
10.3303
13.5328
16.9926
20.4049
23.8305
27.1563
30.1535
32.7527
34.9928
36.8776
38.4202
39.6752
40.6845
41.4773
42.0761
42.4915
42.7228
42.7621
42.594
42.1989
41.5545
40.6366
39.4286
37.942
36.2085
34.2547
32.1046
29.7848
27.3209
24.7348
22.0404
19.2412
16.3228
13.2601
9.97349
6.47068
2.51603
-1.01301
4.69191
1.78659
-1.38208
-4.61115
-7.7253
-10.8935
-13.9877
-16.9501
-19.8175
-22.5583
-25.176
-27.6975
-30.1331
-32.499
-34.8025
-37.0438
-39.231
-41.375
-43.4837
-45.5627
-47.6156
-49.642
-51.6346
-53.5776
-55.454
-57.2476
-58.926
-60.4238
-61.6495
-62.4843
-62.6393
-61.5038
-58.4166
-52.5939
-44.5298
-34.9964
-30.3322
-23.5976
-28.873
7.5007
10.2729
13.347
16.666
19.9376
23.2212
26.4047
29.273
31.7628
33.9087
35.7132
37.1898
38.3928
39.3635
40.1316
40.72
41.1402
41.3929
41.4715
41.361
41.0422
40.4916
39.683
38.5957
37.2361
35.6309
33.8027
31.7718
29.5619
27.1971
24.6986
22.0814
19.3511
16.4982
13.5037
10.3046
6.91775
3.17447
-0.11713
4.8134
2.01901
-1.03164
-4.14257
-7.14313
-10.1977
-13.1839
-16.0454
-18.8186
-21.4731
-24.0136
-26.4637
-28.8362
-31.1494
-33.4108
-35.6195
-37.7813
-39.9055
-41.998
-44.062
-46.0971
-48.0995
-50.059
-51.9577
-53.7788
-55.508
-57.1145
-58.5371
-59.6848
-60.4467
-60.6235
-59.6871
-56.8445
-51.1999
-43.226
-33.8145
-29.0086
-22.5654
-27.1237
7.5139
10.1764
13.129
16.3167
19.456
22.6047
25.6552
28.4029
30.7894
32.8463
34.5746
35.9883
37.141
38.0739
38.816
39.3914
39.8123
40.0806
40.191
40.1298
39.878
39.4119
38.7039
37.7301
36.4922
35.012
33.3081
31.3972
29.3
27.0384
24.633
22.0988
19.4441
16.6633
13.7439
10.6382
7.37115
3.83567
0.769823
4.89044
2.20089
-0.737669
-3.73645
-6.62853
-9.57531
-12.4579
-15.2218
-17.9034
-20.4733
-22.936
-25.3137
-27.6201
-29.8746
-32.0864
-34.2537
-36.3804
-38.4737
-40.5386
-42.5761
-44.5828
-46.5516
-48.4698
-50.3175
-52.0782
-53.739
-55.2696
-56.6108
-57.6725
-58.3372
-58.4342
-57.5567
-54.933
-49.5375
-41.7279
-32.5037
-27.6082
-21.4732
-25.453
7.4887
10.0474
12.8863
15.9492
18.9639
21.9857
24.91
27.5446
29.8339
31.8061
33.4621
34.8156
35.9198
36.8152
37.531
38.0915
38.5097
38.7888
38.9247
38.905
38.7117
38.3211
37.705
36.8369
35.7144
34.3549
32.7731
30.9821
28.9993
26.8444
24.5369
22.0918
19.5189
16.817
13.9793
10.9727
7.83037
4.49742
1.64711
4.93038
2.34059
-0.491601
-3.38343
-6.17242
-9.0156
-11.7987
-14.4686
-17.0611
-19.5477
-21.9328
-24.2381
-26.4765
-28.6682
-30.8242
-32.943
-35.0263
-37.0797
-39.1074
-41.1085
-43.0774
-45.0038
-46.8731
-48.6637
-50.3592
-51.9479
-53.3996
-54.6553
-55.6256
-56.1877
-56.1672
-55.2349
-52.7443
-47.6357
-40.0762
-31.0982
-26.1399
-20.3341
-23.8897
7.43163
9.89252
12.6229
15.5686
18.465
21.3651
24.1718
26.7006
28.8974
30.7888
32.3757
33.6719
34.7294
35.5881
36.2772
36.8215
37.2343
37.52
37.6758
37.6908
37.548
37.2245
36.6916
35.9215
34.9077
33.664
32.2011
30.5288
28.6613
26.6159
24.4101
22.0593
19.5742
16.9575
14.2077
11.3056
8.29079
5.15481
2.50816
4.93941
2.44442
-0.28614
-3.07601
-5.76599
-8.51039
-11.1976
-13.7764
-16.2824
-18.6873
-20.9957
-23.229
-25.3978
-27.5236
-29.6194
-31.6839
-33.7171
-35.7233
-37.7055
-39.6619
-41.5847
-43.4616
-45.2753
-47.0036
-48.6298
-50.1431
-51.5137
-52.6822
-53.5593
-54.0199
-53.8832
-52.8482
-50.4016
-45.5708
-38.34
-29.6616
-24.646
-19.1969
-22.4442
7.34859
9.71632
12.3444
15.1776
17.962
20.7478
23.4422
25.8712
27.9802
29.7945
31.3155
32.5569
33.5694
34.3925
35.0551
35.5818
35.9871
36.276
36.447
36.4907
36.3914
36.1268
35.6689
34.9886
34.0768
32.943
31.5952
30.0395
28.2872
26.3529
24.2524
22.0005
19.6089
17.0836
14.428
11.6351
8.75172
5.80565
3.35201
4.92297
2.51844
-0.115062
-2.80723
-5.40273
-8.05164
-10.6467
-13.1376
-15.5591
-17.884
-20.1166
-22.2784
-24.3771
-26.435
-28.4673
-30.473
-32.451
-34.4039
-36.334
-38.2387
-40.1085
-41.9291
-43.6819
-45.3433
-46.8967
-48.3324
-49.6206
-50.7019
-51.4869
-51.8504
-51.6108
-50.4778
-48.0294
-43.4345
-36.5888
-28.2725
-23.1873
-18.1143
-21.1292
7.2442
9.52359
12.0534
14.7807
17.4581
20.1342
22.7234
25.0578
27.0831
28.8238
30.2818
31.4705
32.4397
33.2283
33.8644
34.3732
34.7693
35.0587
35.2409
35.3079
35.2454
35.0325
34.6418
34.0437
33.2264
32.1967
30.9593
29.5174
27.8794
26.057
24.0643
21.9151
19.622
17.1934
14.6378
11.9584
9.20794
6.44507
4.17206
4.88543
2.56734
0.0269157
-2.57144
-5.07594
-7.63346
-10.1393
-12.545
-14.8844
-17.1311
-19.2889
-21.3796
-23.4079
-25.3969
-27.3633
-29.307
-31.2259
-33.1209
-34.9936
-36.8408
-38.6519
-40.4111
-42.0983
-43.6891
-45.1675
-46.5241
-47.7296
-48.7252
-49.422
-49.6964
-49.371
-48.1676
-45.7254
-41.3396
-34.8977
-27.015
-21.8632
-17.1487
-19.9977
7.12266
9.31752
11.7544
14.3793
16.9552
19.5282
22.0161
24.2605
26.206
27.8764
29.2742
30.4126
31.3405
32.0952
32.7056
33.196
33.5816
33.8692
34.0592
34.145
34.1136
33.9458
33.6147
33.0911
32.3613
31.4292
30.297
28.9653
27.4397
25.7293
23.8462
21.803
19.6127
17.2863
14.8357
12.2738
9.65855
7.07084
4.96742
4.83073
2.59564
0.144351
-2.36371
-4.78108
-7.25
-9.66978
-11.993
-14.2524
-16.4224
-18.5067
-20.5267
-22.4849
-24.4045
-26.3036
-28.1829
-30.0397
-31.8734
-33.6847
-35.4698
-37.2177
-38.9113
-40.5294
-42.0473
-43.449
-44.7259
-45.8497
-46.7621
-47.3765
-47.5719
-47.1788
-45.9357
-43.5323
-39.3656
-33.3255
-25.9417
-20.7606
-16.3596
-19.1049
6.98743
9.10169
11.4486
13.9768
16.4556
18.9291
21.322
23.4804
25.3496
26.9527
28.2928
29.3831
30.271
30.9936
31.5782
32.0501
32.4244
32.7082
32.9033
33.0039
32.9988
32.8698
32.5916
32.1353
31.4859
30.6449
29.6125
28.387
26.9711
25.3719
23.5991
21.6645
19.5806
17.3604
15.0194
12.5779
10.098
7.67819
5.73177
4.76205
2.60644
0.241247
-2.18002
-4.51297
-6.89676
-9.23311
-11.476
-13.6576
-15.7526
-17.7646
-19.7145
-21.6033
-23.454
-25.2848
-27.0979
-28.8904
-30.6602
-32.4072
-34.1271
-35.8085
-37.4334
-38.98
-40.4232
-41.7476
-42.9458
-43.9896
-44.8228
-45.3618
-45.49
-45.0485
-43.7952
-41.4667
-37.5569
-31.9231
-25.0796
-19.9543
-15.8115
-18.4847
6.84155
8.87819
11.1399
13.5745
15.9608
18.3405
20.6411
22.7172
24.5137
26.0524
27.3374
28.3815
29.2312
29.9223
30.4823
30.9358
31.298
31.5768
31.7743
31.8867
31.9033
31.8078
31.5762
31.1805
30.6045
29.8481
28.9096
27.7855
26.4763
24.9867
23.3244
21.4999
19.5254
17.4153
15.1877
12.8693
10.5253
8.26526
6.4647
4.68229
2.60339
0.320772
-2.01655
-4.26839
-6.56936
-8.82493
-10.99
-13.0957
-15.1175
-17.0585
-18.9391
-20.7598
-22.5421
-24.3041
-26.05
-27.7767
-29.4809
-31.1614
-32.8139
-34.4266
-35.9807
-37.4543
-38.8222
-40.0696
-41.1903
-42.1574
-42.9165
-43.3881
-43.4614
-42.9903
-41.754
-39.5282
-35.9131
-30.7117
-24.4238
-19.4704
-15.5552
-18.162
6.68743
8.64995
10.829
13.1751
15.4724
17.7612
19.9747
21.9721
23.6988
25.176
26.4079
27.4078
28.2207
28.8818
29.4176
29.8528
30.2027
30.4752
30.6736
30.7946
30.8293
30.7624
30.5718
30.2302
29.7211
29.0429
28.1925
27.1649
25.9586
24.5762
23.0236
21.3099
19.4469
17.4495
15.3382
13.1445
10.9352
8.82726
7.1604
4.5938
2.58858
0.38599
-1.87036
-4.04348
-6.26471
-8.4418
-10.5312
-12.563
-14.5132
-16.3848
-18.1971
-19.9511
-21.6656
-23.359
-25.0371
-26.6971
-28.3345
-29.9474
-31.5311
-33.0737
-34.5562
-35.9562
-37.249
-38.4208
-39.4665
-40.3608
-41.0516
-41.4644
-41.4959
-41.0132
-39.8195
-37.7193
-34.42
-29.6924
-23.9589
-19.2996
-15.6177
-18.1437
6.52741
8.41844
10.519
12.7789
14.9915
17.1942
19.3228
21.2445
22.9045
24.3228
25.5041
26.4617
27.2394
27.8713
28.384
28.8013
29.1385
29.404
29.6017
29.7291
29.7784
29.7361
29.5813
29.2881
28.8395
28.2333
27.4651
26.5286
25.421
24.1429
22.6986
21.0957
19.3452
17.4627
15.4701
13.4021
11.3264
9.36266
7.81899
4.49879
2.56483
0.439256
-1.73865
-3.8359
-5.97931
-8.08032
-10.0961
-12.0559
-13.9361
-15.7398
-17.4853
-19.1737
-20.8216
-22.4469
-24.0572
-25.6502
-27.2206
-28.7653
-30.2796
-31.7516
-33.1623
-34.4891
-35.7081
-36.8063
-37.7801
-38.6062
-39.2353
-39.5985
-39.6005
-39.1225
-37.9933
-36.0389
-33.058
-28.84
-23.6589
-19.3931
-15.9941
-18.4316
6.3633
8.18585
10.21
12.3884
14.519
16.6379
18.6865
20.5353
22.1313
23.4932
24.6259
25.5429
26.2867
26.891
27.381
27.7809
28.1054
28.3633
28.559
28.6908
28.7522
28.7306
28.6072
28.3569
27.9632
27.4227
26.7309
25.8804
24.8669
23.6896
22.3513
20.8583
19.2207
17.4541
15.5812
13.6388
11.6944
9.86718
8.43542
4.39887
2.53358
0.482833
-1.6192
-3.64256
-5.71099
-7.73786
-9.68196
-11.5715
-13.3834
-15.1206
-16.8006
-18.4247
-20.0071
-21.5655
-23.1087
-24.635
-26.1385
-27.6151
-29.0601
-30.4618
-31.8012
-33.056
-34.203
-35.2306
-36.1365
-36.8996
-37.4741
-37.7966
-37.7812
-37.3224
-36.2755
-34.4856
-31.8159
-28.1214
-23.5009
-19.6879
-16.6427
-18.9915
6.19688
7.95315
9.9046
12.0033
14.0553
16.095
18.0655
19.8444
21.3787
22.6865
23.7727
24.6509
25.3624
25.9399
26.4085
26.7913
27.1032
27.3532
27.5459
27.6806
27.7514
27.7477
27.6514
27.4393
27.0951
26.6149
25.9937
25.2236
24.2994
23.2191
21.984
20.5992
19.0739
17.4234
15.6707
13.8535
12.0377
10.3396
9.0105
4.29583
2.49708
0.518433
-1.50995
-3.46199
-5.45711
-7.41209
-9.28651
-11.1075
-12.8528
-14.525
-16.1409
-17.7019
-19.22
-20.7127
-22.1897
-23.6501
-25.0875
-26.4969
-27.8733
-29.2055
-30.4748
-31.6596
-32.7372
-33.6976
-34.54
-35.2457
-35.7727
-36.0635
-36.0415
-35.6143
-34.6627
-33.0523
-30.6838
-27.5005
-23.4552
-20.1152
-17.4968
-19.7842
6.0294
7.72204
9.60254
11.6256
13.6013
15.5637
17.4608
19.1724
20.6473
21.903
22.9447
23.7856
24.4663
25.0182
25.4661
25.8323
26.132
26.3737
26.5627
26.6988
26.7774
26.7885
26.7159
26.5376
26.2379
25.8127
25.2566
24.5616
23.7217
22.7341
21.5989
20.3199
18.9055
17.3703
15.7369
14.0432
12.3526
10.7761
9.54
4.19076
2.45626
0.547776
-1.40924
-3.29175
-5.21608
-7.10092
-8.90733
-10.6617
-12.3419
-13.9505
-15.5037
-17.0029
-18.4582
-19.8868
-21.299
-22.6945
-24.0667
-25.4101
-26.7194
-27.9836
-29.1848
-30.3019
-31.3133
-32.2104
-32.9941
-33.6482
-34.1346
-34.4019
-34.3833
-33.9983
-33.1505
-31.7295
-29.6538
-26.9483
-23.489
-20.6143
-18.467
-20.7303
5.86223
7.49316
9.30601
11.2547
13.1573
15.0465
16.8719
18.5187
19.9364
21.1423
22.1413
22.9467
23.5977
24.1254
24.5532
24.9038
25.1912
25.4247
25.6094
25.7461
25.8305
25.8541
25.8021
25.6538
25.3941
25.0189
24.5227
23.8975
23.137
22.2374
21.1982
20.022
18.7164
17.2949
15.7795
14.2071
12.6379
11.1762
10.0253
4.08506
2.41294
0.572127
-1.31555
-3.13082
-4.98591
-6.80265
-8.54298
-10.2322
-11.8489
-13.3955
-14.8874
-16.326
-17.7202
-19.0865
-20.4353
-21.7672
-23.0757
-24.3547
-25.5986
-26.7969
-27.9322
-28.9845
-29.9335
-30.7715
-31.5014
-32.1096
-32.562
-32.8135
-32.8065
-32.472
-31.7329
-30.5043
-28.7143
-26.4417
-23.5651
-21.1395
-19.4647
-21.7523
5.69625
7.26782
9.01435
10.8925
12.7239
14.5417
16.2996
17.8839
19.2465
20.4042
21.3623
22.1336
22.7565
23.2607
23.6697
24.0049
24.2806
24.5058
24.686
24.8222
24.9112
24.9454
24.9112
24.7894
24.5657
24.2359
23.7947
23.2342
22.5479
21.7317
20.7842
19.7073
18.5074
17.197
15.7972
14.3429
12.8905
11.5367
10.4629
3.97945
2.36762
0.592816
-1.22758
-2.97728
-4.76545
-6.5158
-8.1916
-9.81736
-11.3722
-12.8583
-14.2905
-15.6698
-17.0047
-18.3107
-19.5976
-20.8674
-22.1139
-23.3303
-24.5109
-25.6457
-26.718
-27.7088
-28.599
-29.3823
-30.0634
-30.6313
-31.0559
-31.2982
-31.3094
-31.0317
-30.403
-29.3637
-27.851
-25.9651
-23.6444
-21.6571
-20.4079
-22.7422
5.53238
7.04627
8.72948
10.5381
12.3014
14.0515
15.7431
17.2673
18.5768
19.6885
20.6073
21.3461
21.9418
22.4239
22.8147
23.1354
23.3998
23.6168
23.7922
23.9274
24.0198
24.0627
24.044
23.9458
23.7543
23.4657
23.075
22.5743
21.9572
21.2195
20.3592
19.3774
18.2796
17.0772
15.7898
14.45
13.1098
11.8574
10.8548
3.87494
2.32175
0.610712
-1.14421
-2.83047
-4.55306
-6.23893
-7.85204
-9.41595
-10.9104
-12.3376
-13.7116
-15.0332
-16.3109
-17.5582
-18.7851
-19.9945
-21.1807
-22.3366
-23.4563
-24.5301
-25.5425
-26.4752
-27.3106
-28.0437
-28.6809
-29.2137
-29.6161
-29.8547
-29.8891
-29.6717
-29.1531
-28.2942
-27.0467
-25.5065
-23.6865
-22.1343
-21.2381
-23.612
5.37121
6.82953
8.45062
10.1933
11.8903
13.5741
15.203
16.6692
17.9276
18.9949
19.876
20.5836
21.1537
21.6144
21.988
22.2948
22.5482
22.7573
22.9278
23.0615
23.1564
23.2067
23.2014
23.1239
22.9614
22.7102
22.3655
21.92
21.3673
20.7031
19.9252
19.034
18.0341
16.9357
15.7567
14.527
13.2937
12.1363
11.1983
3.77196
2.27553
0.626753
-1.06455
-2.68882
-4.34806
-5.97097
-7.52293
-9.0267
-10.4625
-11.8321
-13.1495
-14.4151
-15.6371
-16.8277
-17.9965
-19.1476
-20.2754
-21.373
-22.4342
-23.45
-24.4055
-25.2839
-26.0685
-26.7558
-27.3535
-27.8559
-28.241
-28.4805
-28.5412
-28.3854
-27.974
-27.2833
-26.2831
-25.0534
-23.6611
-22.5324
-21.918
-24.2695
5.21349
6.61771
8.17955
9.85707
11.4906
13.1115
14.6787
16.089
17.2982
18.3229
19.1679
19.8458
20.3912
20.8319
21.189
21.4825
21.7256
21.9269
22.0925
22.2243
22.3209
22.3773
22.3836
22.3245
22.188
21.9707
21.6681
21.2732
20.7802
20.1846
19.4841
18.6787
17.772
16.7731
15.698
14.5736
13.442
12.3736
11.4957
3.67132
2.23014
0.641539
-0.987799
-2.55206
-4.1492
-5.71094
-7.20351
-8.64856
-10.0272
-11.341
-12.6033
-13.8145
-14.9826
-16.1183
-17.231
-18.3256
-19.3974
-20.4389
-21.4443
-22.4049
-23.3069
-24.1345
-24.8721
-25.5176
-26.0801
-26.5565
-26.9283
-27.172
-27.2606
-27.1652
-26.8559
-26.3192
-25.5427
-24.5921
-23.5519
-22.809
-22.4314
-24.6691
5.05953
6.41163
7.91518
9.53097
11.1027
12.6618
14.1707
15.5271
16.6888
17.6725
18.4829
19.1321
19.6542
20.0756
20.4172
20.698
20.9311
21.125
21.2857
21.4154
21.5132
21.5747
21.591
21.5482
21.435
21.2483
20.984
20.6356
20.1976
19.6659
19.0378
18.313
17.4945
16.59
15.6137
14.5892
13.5534
12.5682
11.7453
3.57319
2.18551
0.655778
-0.913353
-2.41892
-3.95602
-5.45804
-6.89263
-8.28071
-9.60367
-10.8632
-12.072
-13.2304
-14.3462
-15.4289
-16.4875
-17.5278
-18.5456
-19.5335
-20.4856
-21.394
-22.2457
-23.0259
-23.7204
-24.3279
-24.859
-25.313
-25.6745
-25.9243
-26.0412
-26.0031
-25.7886
-25.3907
-24.8104
-24.1066
-23.3536
-22.9267
-22.7682
-24.7885
4.90989
6.21119
7.65912
9.21388
10.7264
12.2269
13.6782
14.9826
16.0987
17.043
17.8201
18.4422
18.9418
19.345
19.6718
19.9407
20.1643
20.3511
20.507
20.6344
20.7328
20.7985
20.8235
20.7951
20.7028
20.5437
20.3143
20.0086
19.6212
19.1484
18.5876
17.9383
17.2026
16.3872
15.504
14.5739
13.6283
12.7208
11.9496
3.47823
2.14266
0.669819
-0.84065
-2.28929
-3.76754
-5.21159
-6.58984
-7.92227
-9.19111
-10.3978
-11.5547
-12.6619
-13.7272
-14.7586
-15.7651
-16.7533
-17.7193
-18.6559
-19.5574
-20.4163
-21.2207
-21.9571
-22.6118
-23.1844
-23.6876
-24.1222
-24.4756
-24.7326
-24.8764
-24.891
-24.7621
-24.487
-24.0745
-23.5821
-23.0655
-22.8681
-22.9139
-24.6528
4.76471
6.01709
7.41024
8.90722
10.362
11.8048
13.2017
14.4558
15.5279
16.4343
17.1796
17.7754
18.2539
18.6396
18.9523
19.2098
19.4244
19.6043
19.7556
19.8806
19.9793
20.0484
20.081
20.0653
19.9918
19.8576
19.6599
19.393
19.0521
18.6336
18.1352
17.5559
16.8975
16.1654
15.3696
14.5278
13.6665
12.8312
12.1076
3.38648
2.10136
0.684183
-0.769242
-2.16228
-3.58361
-4.97097
-6.29423
-7.57264
-8.78884
-9.94427
-11.0508
-12.1083
-13.1247
-14.1067
-15.0631
-16.0011
-16.9174
-17.8051
-18.6584
-19.4706
-20.2308
-20.9261
-21.544
-22.085
-22.563
-22.9804
-23.3271
-23.591
-23.7595
-23.8211
-23.767
-23.5981
-23.3262
-23.0072
-22.6848
-22.64
-22.8522
-24.2923
4.62444
5.82908
7.17009
8.60966
10.0092
11.3972
12.7402
13.946
14.9757
15.8456
16.5603
17.1314
17.5893
17.9586
18.2579
18.5047
18.7108
18.8842
19.0308
19.1534
19.252
19.324
19.3632
19.3588
19.3018
19.1902
19.0212
18.7897
18.4912
18.1226
17.6815
17.167
16.5802
15.9254
15.2111
14.4515
13.6687
12.9006
12.2222
3.29846
2.06251
0.699069
-0.698758
-2.03794
-3.40339
-4.73577
-6.00557
-7.23126
-8.39625
-9.50184
-10.5594
-11.5689
-12.5379
-13.4723
-14.3806
-15.2704
-16.1391
-16.98
-17.7876
-18.5556
-19.2741
-19.9312
-20.5144
-21.0271
-21.4817
-21.8837
-22.2241
-22.4938
-22.6837
-22.7857
-22.7948
-22.7148
-22.5584
-22.376
-22.2081
-22.2622
-22.5813
-23.7521
4.48909
5.64775
6.93728
8.32263
9.6682
11.0022
12.2944
13.4533
14.4421
15.2769
15.9623
16.5093
16.948
17.3014
17.5881
17.8246
18.0226
18.1897
18.332
18.4521
18.5504
18.6248