/*--------------------------------*- C++ -*----------------------------------*\
  =========                 |
  \\      /  F ield         | OpenFOAM: The Open Source CFD Toolbox
   \\    /   O peration     | Website:  https://openfoam.org
    \\  /    A nd           | Version:  9
     \\/     M anipulation  |
\*---------------------------------------------------------------------------*/
FoamFile
{
    format      ascii;
    class       surfaceScalarField;
    location    "400";
    object      phi;
}
// * * * * * * * * * * * * * * * * * * * * * * * * * * * * * * * * * * * * * //

dimensions      [0 3 -1 0 0 0 0];

internalField   nonuniform List<scalar> 
21254
(
-0.156311
0.159573
-0.00326356
0.163576
-0.00400191
0.164658
-0.00108282
0.163844
0.000815318
0.161379
0.00246528
0.155829
0.00555007
0.147611
0.00821717
0.137143
0.0104674
0.123979
0.0131641
0.108631
0.0153485
0.0911224
0.0175087
0.0714262
0.0196959
0.0499711
0.0214532
0.0276376
0.0223301
0.00658939
0.0210453
-0.0101449
0.0167339
-0.0209426
0.0107962
-0.0264525
0.00550267
-0.0299227
0.00346116
-0.0320522
0.00212052
-0.0339739
0.00191483
-0.0364936
0.0025124
-0.0398771
0.0033915
-0.043826
0.00395642
-0.0478808
0.00406058
-0.0517003
0.00382257
-0.0549977
0.00329974
-0.0576095
0.0026193
-0.0594466
0.00184585
-0.060361
0.000934979
-0.0600382
-0.000296341
-0.0581299
-0.00189711
-0.0544082
-0.00371949
-0.0485634
-0.00587059
-0.0402821
-0.00823846
-0.023394
-0.0168493
-0.0189921
-0.00444104
-0.000798726
-0.018552
0.0502681
-0.0546898
-0.150468
-0.00584246
-0.144681
-0.00578708
-0.135843
-0.00883851
-0.125009
-0.0108342
-0.112734
-0.012275
-0.0988987
-0.0138358
-0.0838607
-0.0150385
-0.0685711
-0.01529
-0.0538651
-0.0147063
-0.0400157
-0.0138498
-0.0273998
-0.0126167
-0.0161366
-0.0112641
-0.00608703
-0.0100511
0.00295217
-0.00904122
0.0110678
-0.00811757
0.0183593
-0.0072932
0.0249788
-0.00662127
0.0310481
-0.0060711
0.0366971
-0.00565112
0.0420213
-0.0053265
0.0471178
-0.00509912
0.0520324
-0.0049174
0.0567817
-0.00475095
0.0611981
-0.00441674
0.065206
-0.00400752
0.0688822
-0.00367576
0.072225
-0.00334433
0.0752738
-0.00305285
0.0780439
-0.00278087
0.0805925
-0.00253917
0.0829302
-0.00233799
0.0851208
-0.00219212
0.0872298
-0.00211008
0.0893581
-0.00213249
0.0916529
-0.00229348
0.0943241
-0.00265816
0.0978591
-0.0035577
0.103808
-0.0061949
0.119916
-0.0158356
-0.148502
0.154854
-0.00961601
0.160958
-0.0101059
0.166729
-0.00685353
0.171743
-0.00419863
0.176527
-0.00231821
0.180465
0.00161092
0.183145
0.00553571
0.184131
0.00948122
0.182734
0.0145609
0.178425
0.0196576
0.170502
0.0254316
0.158181
0.0320166
0.140677
0.038956
0.117225
0.0457808
0.0875515
0.0507184
0.0531617
0.0511239
0.0188501
0.0451078
-0.00754601
0.0318967
-0.0226172
0.0185291
-0.0306594
0.0101585
-0.0358767
0.00712828
-0.0401036
0.00673545
-0.0441857
0.00748143
-0.0480485
0.00783246
-0.0515042
0.00752977
-0.0544662
0.00679442
-0.0568779
0.00571769
-0.0587003
0.0044488
-0.0598844
0.00303611
-0.0603847
0.00144669
-0.0600158
-0.000647544
-0.0582793
-0.00360651
-0.0546977
-0.00727072
-0.0489403
-0.0116212
-0.040698
-0.0164639
-0.0270167
-0.0305295
-0.0145263
-0.0169595
0.00078456
-0.034127
0.0501322
-0.105924
-0.141577
-0.0127676
-0.134064
-0.0133002
-0.124932
-0.0179708
-0.114708
-0.0210584
-0.103187
-0.0237969
-0.0904623
-0.0265606
-0.0770599
-0.0284413
-0.0634813
-0.0288689
-0.0502515
-0.0279365
-0.0375806
-0.0265211
-0.0257502
-0.0244477
-0.0148762
-0.0221389
-0.0049243
-0.0200041
0.00410792
-0.0180748
0.012304
-0.0163151
0.0197833
-0.0147738
0.0266638
-0.0135032
0.0330582
-0.012467
0.0390746
-0.0116693
0.044787
-0.0110408
0.0502738
-0.0105883
0.0555888
-0.0102349
0.0607415
-0.00990529
0.0656127
-0.00928858
0.070105
-0.00849915
0.0742705
-0.00784159
0.0781114
-0.0071872
0.0816482
-0.00659686
0.0849011
-0.00604838
0.0879075
-0.00554294
0.0906836
-0.0051208
0.0932939
-0.00480897
0.0957891
-0.00461391
0.0982745
-0.00462656
0.100897
-0.00492738
0.103944
-0.00570441
0.107766
-0.00740917
0.114737
-0.0133977
0.128303
-0.0292182
-0.144665
0.150487
-0.015437
0.155839
-0.0154588
0.161062
-0.012075
0.16514
-0.0082775
0.168135
-0.00531369
0.170397
-0.000652478
0.171964
0.00396744
0.173219
0.0082246
0.174091
0.0136898
0.174701
0.0190474
0.174635
0.0254983
0.173243
0.0334078
0.169189
0.0430091
0.160716
0.0542522
0.145013
0.066421
0.119736
0.0763998
0.0844507
0.0803925
0.043549
0.0727957
0.00749725
0.0545765
-0.0155382
0.0331888
-0.0274624
0.0190463
-0.0344631
0.0137328
-0.039552
0.0125705
-0.0438046
0.0120878
-0.047487
0.011212
-0.0506898
0.00999666
-0.0534291
0.00845578
-0.0556585
0.00668108
-0.0573182
0.00470177
-0.0582609
0.00240203
-0.0582011
-0.000696247
-0.0566867
-0.00511854
-0.0533703
-0.0106015
-0.0479916
-0.0170241
-0.0404037
-0.024029
-0.0286206
-0.0422892
-0.0135302
-0.0320635
0.0020613
-0.0497704
0.0484634
-0.153279
-0.138411
-0.0190232
-0.130882
-0.0208295
-0.121333
-0.0275199
-0.110793
-0.0315994
-0.0991792
-0.0354108
-0.0864414
-0.0392992
-0.0731146
-0.0417684
-0.0600487
-0.0419351
-0.047335
-0.0406503
-0.0351302
-0.0387263
-0.0237513
-0.035827
-0.0131957
-0.0326952
-0.00343228
-0.0297683
0.00553533
-0.0270432
0.0137925
-0.0245731
0.0214268
-0.0224091
0.0285203
-0.0205977
0.0351596
-0.0191075
0.0414317
-0.0179427
0.0474076
-0.0170185
0.053166
-0.0163487
0.0587448
-0.0158158
0.0641504
-0.0153126
0.0693009
-0.0144399
0.0741007
-0.0132989
0.0785664
-0.0123074
0.0827218
-0.0113427
0.086583
-0.0104604
0.090183
-0.00965226
0.0935478
-0.00889976
0.0967103
-0.00828147
0.0997159
-0.00781298
0.102641
-0.00753618
0.105572
-0.00755875
0.108653
-0.00800082
0.112176
-0.00921063
0.116416
-0.0116654
0.123827
-0.0209588
0.136404
-0.041592
-0.141546
0.148236
-0.0221286
0.154466
-0.0216876
0.160749
-0.0183581
0.165972
-0.0135012
0.170346
-0.00968842
0.17377
-0.00407876
0.176152
0.00158337
0.177267
0.00710933
0.177348
0.0136092
0.176628
0.0197681
0.175445
0.0266812
0.174168
0.0346844
0.172956
0.04422
0.171253
0.0559534
0.167317
0.0703558
0.157321
0.0863958
0.136795
0.100917
0.102515
0.107075
0.0585212
0.0985693
0.0169172
0.0747918
-0.0107588
0.0467208
-0.0250775
0.0280516
-0.0331721
0.0206699
-0.0387943
0.0177201
-0.0432863
0.015715
-0.0470816
0.0138024
-0.0503112
0.0116925
-0.0529847
0.00936126
-0.0550463
0.00676862
-0.0563258
0.00368987
-0.0565117
-0.000498977
-0.0551591
-0.00645038
-0.0519485
-0.0137878
-0.0467582
-0.0222026
-0.039724
-0.0310542
-0.0293615
-0.0526567
-0.0132932
-0.0481505
0.00282818
-0.0660451
0.0457319
-0.197099
-0.13473
-0.0258398
-0.127001
-0.0285594
-0.117232
-0.0372886
-0.106639
-0.0421932
-0.0950126
-0.0470383
-0.0822752
-0.0520368
-0.0691381
-0.0549059
-0.0563536
-0.0547197
-0.0440165
-0.0529877
-0.0322252
-0.050518
-0.0212348
-0.0468179
-0.0110157
-0.0429149
-0.0014675
-0.0393172
0.00739426
-0.0359059
0.0156346
-0.0328143
0.0233545
-0.03013
0.03059
-0.0278342
0.0374142
-0.025933
0.043902
-0.0244319
0.05012
-0.0232383
0.0561175
-0.0223484
0.06194
-0.0216406
0.067597
-0.0209717
0.0730053
-0.0198494
0.0780715
-0.0183654
0.082804
-0.01704
0.0872174
-0.0157572
0.0913333
-0.0145813
0.0951724
-0.0135016
0.0987824
-0.01251
0.102188
-0.0116937
0.105446
-0.0110776
0.108624
-0.0107222
0.11183
-0.0107739
0.115203
-0.011384
0.119051
-0.0130594
0.123629
-0.0162736
0.131279
-0.0287719
0.143243
-0.0534415
-0.140717
0.14767
-0.0290819
0.154192
-0.0282102
0.161016
-0.0251822
0.16652
-0.0190061
0.17135
-0.0145206
0.17524
-0.00797026
0.178087
-0.00126483
0.179817
0.00537929
0.180641
0.012786
0.180368
0.0200416
0.179232
0.0278168
0.177468
0.0364484
0.17565
0.0460367
0.174082
0.0575201
0.172943
0.071494
0.170886
0.0884514
0.16405
0.107753
0.146023
0.125099
0.111848
0.132742
0.0654004
0.121237
0.0208198
0.0912981
-0.0086143
0.0574831
-0.0238621
0.0359166
-0.0325615
0.0264193
-0.0385813
0.0217338
-0.0432992
0.0185182
-0.047178
0.0155684
-0.0503582
0.0125414
-0.0528395
0.00925279
-0.0544758
0.00533473
-0.0549294
-4.46822e-05
-0.0537319
-0.00764676
-0.0505513
-0.0169853
-0.0454074
-0.0273724
-0.0387661
-0.0376779
-0.0295804
-0.0618256
-0.0133422
-0.0643973
0.00311786
-0.0825121
0.0417024
-0.236166
-0.133423
-0.0331348
-0.125319
-0.0366639
-0.114918
-0.0476902
-0.103904
-0.053208
-0.0919045
-0.0590383
-0.0788775
-0.0650645
-0.0655367
-0.0682469
-0.0527158
-0.0675407
-0.0405252
-0.0651785
-0.0289796
-0.0620639
-0.0182541
-0.057544
-0.00832017
-0.0528494
0.00099383
-0.048632
0.00970139
-0.0446142
0.0178729
-0.0409867
0.0255935
-0.0378513
0.0329124
-0.035154
0.0398792
-0.0329007
0.0465484
-0.0311023
0.0529732
-0.0296646
0.0592019
-0.0285788
0.0652605
-0.0277011
0.0711611
-0.0268738
0.0768267
-0.0255163
0.0821613
-0.0237005
0.0871583
-0.022037
0.0918285
-0.0204272
0.0961953
-0.0189491
0.100279
-0.0175842
0.104116
-0.0163424
0.107739
-0.0153124
0.111214
-0.0145494
0.114607
-0.0141102
0.11802
-0.0141856
0.121618
-0.0149711
0.125711
-0.0171305
0.130559
-0.0211343
0.13832
-0.0366055
0.149932
-0.0649251
-0.140344
0.147753
-0.0364914
0.154961
-0.0354182
0.162384
-0.032607
0.168518
-0.0251412
0.173865
-0.0198689
0.178498
-0.0126053
0.181933
-0.004701
0.184425
0.0028883
0.185825
0.0113867
0.186223
0.0196442
0.18567
0.0283694
0.184171
0.0379477
0.182052
0.0481541
0.179666
0.0599049
0.177552
0.0736064
0.176332
0.0896706
0.174885
0.109198
0.169011
0.130971
0.151158
0.150593
0.115295
0.157099
0.0662054
0.140387
0.0206219
0.103067
-0.0085118
0.0650548
-0.0236816
0.0415971
-0.032611
0.0306741
-0.0388558
0.0247732
-0.0436789
0.0204003
-0.0475241
0.0163935
-0.0505288
0.0122637
-0.0525917
0.00740473
-0.0533763
0.000749504
-0.052369
-0.00863641
-0.0492009
-0.020131
-0.0440032
-0.0325549
-0.0375994
-0.0440738
-0.0294347
-0.0699958
-0.0135539
-0.0802937
0.00287587
-0.099065
0.0364398
-0.27033
-0.132621
-0.040859
-0.124155
-0.0451297
-0.113201
-0.0586445
-0.101652
-0.0647585
-0.0891816
-0.0715094
-0.0757342
-0.0785122
-0.0620711
-0.0819102
-0.0491048
-0.0805072
-0.0369106
-0.0773729
-0.0254546
-0.0735203
-0.014911
-0.0680881
-0.00518637
-0.0625746
0.00392172
-0.0577408
0.0124511
-0.0531442
0.0205131
-0.0490495
0.0281968
-0.0455359
0.0355501
-0.0425083
0.0426075
-0.0399593
0.0494203
-0.0379165
0.0560241
-0.0362702
0.0624551
-0.0350119
0.0687383
-0.0339868
0.0748749
-0.0330127
0.0808053
-0.0314485
0.0864112
-0.0293073
0.0916688
-0.0272947
0.0966055
-0.0253642
0.101226
-0.0235719
0.105556
-0.0219214
0.109633
-0.0204202
0.113488
-0.0191725
0.117179
-0.0182462
0.120777
-0.0177163
0.124411
-0.0178282
0.12821
-0.0187797
0.132532
-0.0214541
0.137621
-0.0262505
0.145478
-0.0445679
0.156797
-0.0761832
-0.140992
0.148981
-0.0444803
0.156566
-0.0430041
0.164617
-0.0406586
0.171299
-0.0318252
0.177197
-0.025768
0.182272
-0.0176815
0.186263
-0.00869204
0.189154
-2.60057e-06
0.191129
0.0094124
0.192108
0.0186657
0.192139
0.0283387
0.191361
0.0387256
0.189783
0.049731
0.187524
0.0621626
0.184953
0.0761759
0.182553
0.0920691
0.181033
0.110717
0.179552
0.132451
0.173403
0.156741
0.153616
0.176884
0.114184
0.179817
0.0627041
0.154545
0.0177953
0.109962
-0.0096732
0.0690645
-0.0242117
0.0452108
-0.0331329
0.0336923
-0.0394371
0.0267006
-0.0442303
0.0211852
-0.0479351
0.015969
-0.0505619
0.0100362
-0.0517809
0.0019629
-0.0510355
-0.00938097
-0.0478981
-0.0232884
-0.0425842
-0.0378957
-0.0362682
-0.050379
-0.0290096
-0.0772394
-0.0139034
-0.0954083
0.00210032
-0.11506
0.0303911
-0.298896
-0.132739
-0.0491126
-0.123763
-0.0541058
-0.112196
-0.0702123
-0.100057
-0.0768981
-0.0870457
-0.0845212
-0.0730069
-0.0925519
-0.0588873
-0.09603
-0.0455983
-0.0937963
-0.0332341
-0.0897373
-0.0216953
-0.0850594
-0.0112395
-0.0785444
-0.00165662
-0.0721582
0.00728285
-0.066681
0.0156465
-0.0615086
0.0235748
-0.0569785
0.0311959
-0.0531578
0.0385315
-0.0498448
0.0456391
-0.0470678
0.052555
-0.0448335
0.059311
-0.0430275
0.0659251
-0.0416276
0.0724165
-0.0404798
0.0787872
-0.0393852
0.0849657
-0.0376283
0.0908407
-0.0351836
0.0963767
-0.0328304
0.101576
-0.0305644
0.106462
-0.0284564
0.111044
-0.0265016
0.115369
-0.024739
0.119457
-0.0232571
0.123378
-0.0221625
0.127207
-0.0215389
0.131048
-0.0216659
0.135078
-0.022795
0.139619
-0.0259716
0.144949
-0.0315899
0.152881
-0.052524
0.163934
-0.087151
-0.142212
0.150754
-0.0530233
0.158956
-0.051207
0.167678
-0.0493824
0.174832
-0.0389803
0.181265
-0.0322019
0.186863
-0.023281
0.191301
-0.01313
0.194797
-0.00349816
0.197155
0.00705518
0.198627
0.0171952
0.199229
0.0277364
0.198935
0.0390191
0.197871
0.050794
0.196134
0.0638987
0.193799
0.0785097
0.191081
0.0947854
0.188553
0.113244
0.186852
0.134151
0.184998
0.158592
0.177252
0.184628
0.153576
0.203492
0.109469
0.198653
0.0564076
0.163025
0.0136849
0.111793
-0.0114269
0.0703314
-0.0251855
0.0474614
-0.0339437
0.0354683
-0.0401654
0.0274149
-0.0448375
0.020648
-0.0482216
0.0134275
-0.0500382
0.00378835
-0.0496785
-0.00972571
-0.0466238
-0.0263226
-0.0411687
-0.0433324
-0.0348154
-0.0567229
-0.0283557
-0.0837035
-0.0143852
-0.109394
0.000775598
-0.130329
0.0239332
-0.322495
-0.133456
-0.057868
-0.123993
-0.0635699
-0.111671
-0.0825343
-0.0988433
-0.0897273
-0.0851793
-0.0981863
-0.0705166
-0.107215
-0.0558124
-0.110734
-0.0420745
-0.107534
-0.0294411
-0.102371
-0.0177703
-0.0967306
-0.00726075
-0.0890545
0.00224595
-0.0816656
0.0110521
-0.0754879
0.0192677
-0.069725
0.0270807
-0.0647922
0.0346042
-0.0606821
0.0419002
-0.0571418
0.0490216
-0.0541903
0.0560056
-0.0518189
0.062876
-0.0498997
0.0696458
-0.0483994
0.0763288
-0.0471652
0.0829232
-0.0459822
0.0893504
-0.0440578
0.0954912
-0.0413259
0.101298
-0.0386374
0.106772
-0.0360384
0.111927
-0.0336127
0.116773
-0.0313505
0.121347
-0.0293134
0.125688
-0.0276006
0.129846
-0.0263254
0.133908
-0.0256073
0.137983
-0.02575
0.142232
-0.0270521
0.147001
-0.0307428
0.152578
-0.0371919
0.160552
-0.0605662
0.171344
-0.0979069
-0.144132
0.153208
-0.0620992
0.161992
-0.059992
0.171356
-0.0587475
0.179058
-0.0466848
0.186093
-0.0392374
0.192225
-0.0294148
0.197173
-0.0180775
0.201013
-0.0073376
0.203895
0.00417436
0.205771
0.0153204
0.206734
0.0267736
0.206878
0.0388743
0.206304
0.0513672
0.205025
0.0651761
0.203135
0.0803984
0.200737
0.0971821
0.19794
0.11604
0.195283
0.136806
0.19341
0.160464
0.190849
0.187187
0.180236
0.214104
0.15094
0.227947
0.101912
0.212052
0.0487699
0.164933
0.0092783
0.109822
-0.0134386
0.0701758
-0.0264004
0.0484273
-0.0348719
0.035884
-0.0409455
0.0267213
-0.0453591
0.0178422
-0.0480014
0.00642082
-0.0482104
-0.00951649
-0.0453535
-0.0292027
-0.0397597
-0.048956
-0.033266
-0.0632121
-0.0275015
-0.0894558
-0.0149704
-0.121933
-0.0010252
-0.144263
0.0171823
-0.340848
-0.134728
-0.0672734
-0.124677
-0.0736215
-0.111602
-0.0956109
-0.0981174
-0.103212
-0.0836857
-0.112619
-0.0682823
-0.122619
-0.0528391
-0.126178
-0.0385985
-0.121775
-0.0255782
-0.115392
-0.0136392
-0.10867
-0.00302521
-0.0996691
0.00649135
-0.0911828
0.0152306
-0.0842278
0.0233382
-0.0778333
0.0310214
-0.0724763
0.03845
-0.0681115
0.04567
-0.0643626
0.0527825
-0.0613036
0.0598022
-0.0588397
0.0667607
-0.0568594
0.0736655
-0.0553056
0.0805211
-0.0540224
0.0873174
-0.05278
0.0939893
-0.0507314
0.100399
-0.0477367
0.106471
-0.0447105
0.112221
-0.0417882
0.117643
-0.0390344
0.122762
-0.0364672
0.127603
-0.0341489
0.132197
-0.0321886
0.136609
-0.0307328
0.140909
-0.0298991
0.145224
-0.0300604
0.149721
-0.0315318
0.154727
-0.0357223
0.160538
-0.0430108
0.168541
-0.0685666
0.179089
-0.108403
-0.146472
0.156223
-0.071852
0.165624
-0.0693949
0.175725
-0.0688503
0.183968
-0.0549292
0.191452
-0.0467224
0.19815
-0.0361138
0.203551
-0.0234782
0.207859
-0.0116445
0.211153
0.000880637
0.213427
0.0130477
0.214796
0.0254045
0.215389
0.038281
0.215159
0.0515957
0.214227
0.0661072
0.212785
0.0818395
0.210729
0.0992363
0.208186
0.118582
0.205237
0.139753
0.202543
0.163156
0.200634
0.189094
0.196742
0.217995
0.181731
0.242958
0.145711
0.248073
0.0926849
0.217963
0.0408964
0.161616
0.00497538
0.106105
-0.0155156
0.0689274
-0.027671
0.048048
-0.0358407
0.0348985
-0.0416865
0.0236952
-0.0454576
0.0101996
-0.0464929
-0.00846891
-0.0440128
-0.0316657
-0.0383441
-0.0546041
-0.0316339
-0.0699093
-0.0264613
-0.0946307
-0.0156189
-0.13279
-0.00326308
-0.156717
0.0101639
-0.354634
-0.136543
-0.0772023
-0.125865
-0.0843008
-0.111941
-0.109536
-0.0976107
-0.117544
-0.0824459
-0.127785
-0.0661573
-0.138908
-0.0499886
-0.142347
-0.0351093
-0.136655
-0.0216247
-0.128877
-0.00931304
-0.120982
0.00149177
-0.110474
0.0110523
-0.100744
0.0197777
-0.0929539
0.0278272
-0.0858835
0.035408
-0.0800578
0.0427247
-0.075429
0.0498893
-0.0715281
0.0569504
-0.0683658
0.0639847
-0.0658753
0.0710037
-0.06388
0.078013
-0.0623169
0.0850206
-0.0610324
0.0920166
-0.0597788
0.098921
-0.0576383
0.10558
-0.0543985
0.111927
-0.0510577
0.117945
-0.0478067
0.123648
-0.0447376
0.129039
-0.0418604
0.134149
-0.0392575
0.139014
-0.0370535
0.143679
-0.0353984
0.148238
-0.0344629
0.152805
-0.0346358
0.157549
-0.0362817
0.162788
-0.0409649
0.168856
-0.0491006
0.17688
-0.0766339
0.187118
-0.118614
-0.149377
0.159736
-0.0822129
0.169739
-0.0793985
0.180564
-0.079677
0.189479
-0.0638459
0.197576
-0.0548208
0.204805
-0.0433434
0.210585
-0.0292576
0.215372
-0.0164314
0.21908
-0.00282609
0.221749
0.0103788
0.223456
0.023698
0.224323
0.0374133
0.224479
0.0514389
0.223966
0.066619
0.222772
0.0830322
0.221075
0.100932
0.218852
0.120804
0.216173
0.14243
0.213128
0.1662
0.210459
0.191761
0.208348
0.220105
0.202222
0.249082
0.181177
0.269117
0.138285
0.260854
0.082612
0.217288
0.033244
0.155472
0.000983253
0.101186
-0.0174822
0.0665124
-0.0289232
0.0463385
-0.0368031
0.0315749
-0.042111
0.0154954
-0.0443212
-0.00626233
-0.0424912
-0.0335195
-0.0368837
-0.0602464
-0.029916
-0.0768795
-0.0252354
-0.0993031
-0.0162731
-0.141761
-0.00583639
-0.167141
0.00290441
-0.363479
-0.138733
-0.0878477
-0.127436
-0.0955968
-0.112619
-0.124355
-0.0974396
-0.132724
-0.0813589
-0.143866
-0.0642143
-0.156054
-0.0471826
-0.159379
-0.0316011
-0.152237
-0.017531
-0.142947
-0.00484023
-0.133673
0.00624258
-0.121558
0.0159445
-0.110446
0.0247219
-0.101732
0.0327183
-0.0938805
0.0402209
-0.0875611
0.0474663
-0.0826751
0.0545417
-0.0786043
0.0615674
-0.0753925
0.0685814
-0.0728902
0.0756332
-0.070933
0.0827276
-0.0694125
0.0898657
-0.0681719
0.0970444
-0.0669591
0.10417
-0.0647653
0.111081
-0.0613114
0.117689
-0.0576665
0.123986
-0.0541049
0.129965
-0.0507167
0.13564
-0.0475335
0.141027
-0.0446389
0.146159
-0.0421802
0.151101
-0.0403335
0.15592
-0.0392749
0.160749
-0.0394575
0.165748
-0.0412624
0.171239
-0.0464253
0.177547
-0.0554173
0.185558
-0.0846245
0.195489
-0.128511
-0.152633
0.163739
-0.0933204
0.174436
-0.0900978
0.186029
-0.0912715
0.195508
-0.0733262
0.204192
-0.063506
0.211989
-0.0511415
0.218349
-0.0356169
0.223523
-0.0216045
0.22762
-0.00692235
0.230632
0.00736662
0.232721
0.0216088
0.233972
0.0361621
0.234383
0.0510267
0.234127
0.0668735
0.233279
0.0838786
0.231858
0.102351
0.229903
0.122758
0.22747
0.144861
0.224569
0.169099
0.221495
0.194833
0.219013
0.222585
0.216418
0.251676
0.206687
0.278849
0.178518
0.289025
0.129153
0.266657
0.0721665
0.212464
0.0261589
0.1472
-0.00250953
0.0951885
-0.0192728
0.0631092
-0.0301526
0.0424616
-0.0375669
0.0229156
-0.0414049
-0.00241523
-0.0406074
-0.0343045
-0.0352958
-0.0655395
-0.028096
-0.0840629
-0.023812
-0.103586
-0.0168695
-0.148719
-0.0087032
-0.175397
-0.00452045
-0.36797
-0.141337
-0.0991444
-0.12929
-0.107645
-0.113579
-0.140065
-0.0974635
-0.148842
-0.0804599
-0.160871
-0.0623632
-0.174151
-0.0443773
-0.177366
-0.0280424
-0.168572
-0.0133572
-0.157633
-0.000151844
-0.146879
0.0112818
-0.132992
0.0211787
-0.120344
0.0300123
-0.110566
0.0380421
-0.101911
0.0455038
-0.0950235
0.0526677
-0.0898397
0.0596735
-0.085611
0.0666311
-0.082351
0.0736263
-0.0798866
0.0806879
-0.077996
0.0878383
-0.0765648
0.095089
-0.0754249
0.102436
-0.0743088
0.109776
-0.0721084
0.116927
-0.0684655
0.123796
-0.0645371
0.130362
-0.0606724
0.136624
-0.0569805
0.142574
-0.053485
0.148247
-0.0503104
0.153662
-0.0475919
0.158876
-0.0455451
0.163976
-0.0443749
0.169065
-0.0445527
0.174335
-0.0465378
0.180069
-0.0521618
0.186612
-0.0619799
0.194635
-0.0926709
0.204236
-0.138086
-0.15639
0.168136
-0.105067
0.179568
-0.101531
0.191976
-0.103681
0.202164
-0.0835168
0.211486
-0.0728287
0.219847
-0.0595031
0.226702
-0.042471
0.232355
-0.0272577
0.236801
-0.0113676
0.240176
0.00399164
0.242565
0.0192201
0.244092
0.034634
0.244866
0.0502521
0.244909
0.0668288
0.244298
0.0844885
0.243091
0.103557
0.241384
0.124464
0.239215
0.147029
0.23659
0.171723
0.233517
0.197905
0.230502
0.225599
0.228249
0.253929
0.224344
0.282753
0.209537
0.303832
0.173498
0.302696
0.118434
0.267526
0.061873
0.203761
0.0199827
0.137078
-0.00545136
0.0885438
-0.0209258
0.0579356
-0.031276
0.0332545
-0.037346
0.00365124
-0.0380984
-0.0335804
-0.033445
-0.0702263
-0.0261255
-0.0913937
-0.0221607
-0.107545
-0.0173313
-0.153558
-0.0117551
-0.180967
-0.0119611
-0.367827
-0.144261
-0.111275
-0.13156
-0.120347
-0.114818
-0.15681
-0.0977525
-0.165907
-0.0796983
-0.178927
-0.0605222
-0.193329
-0.0416086
-0.19628
-0.0243978
-0.185783
-0.00901841
-0.173012
0.00474858
-0.160646
0.0165583
-0.144802
0.0267005
-0.130486
0.0357135
-0.119579
0.0437812
-0.109979
0.0512453
-0.102488
0.0583687
-0.0969639
0.0653012
-0.0925442
0.0721849
-0.0892356
0.0791324
-0.0868352
0.0861977
-0.0850624
0.0933917
-0.08376
0.100741
-0.0827756
0.108227
-0.081796
0.115768
-0.0796507
0.123153
-0.075853
0.130274
-0.0716593
0.137109
-0.067508
0.143643
-0.0635159
0.149883
-0.0597244
0.155843
-0.0562667
0.161548
-0.0532911
0.167052
-0.0510437
0.17243
-0.0497428
0.177801
-0.0499172
0.18334
-0.0520555
0.189332
-0.0581236
0.196111
-0.0687665
0.204084
-0.100616
0.213347
-0.147333
-0.160461
0.172988
-0.117596
0.185195
-0.113741
0.198475
-0.116963
0.209365
-0.0944083
0.219313
-0.0827784
0.228283
-0.0684738
0.235679
-0.0498668
0.241753
-0.0333302
0.246628
-0.0162427
0.250339
0.000280502
0.253091
0.0164685
0.254901
0.0328224
0.25594
0.0492128
0.256238
0.0665293
0.255806
0.0849186
0.254867
0.104496
0.253363
0.125965
0.251376
0.149015
0.249
0.174097
0.246191
0.200712
0.243076
0.228712
0.240367
0.256637
0.238192
0.284928
0.231909
0.310116
0.210409
0.324199
0.165868
0.312071
0.106687
0.262947
0.0523838
0.191387
0.01486
0.126074
-0.00792647
0.0807278
-0.0224794
0.0478113
-0.0315968
0.0127738
-0.0346009
-0.0305704
-0.0311265
-0.0736883
-0.0239229
-0.0985828
-0.0202385
-0.111224
-0.0175656
-0.156247
-0.0148798
-0.183734
-0.0192942
-0.363668
-0.147647
-0.12409
-0.134025
-0.13397
-0.11629
-0.174544
-0.0981547
-0.184046
-0.079073
-0.19801
-0.0588073
-0.213595
-0.0387677
-0.216321
-0.0206653
-0.203887
-0.00448769
-0.18919
0.00988428
-0.175019
0.0221613
-0.157079
0.0326071
-0.140933
0.0418004
-0.128773
0.0499708
-0.11815
0.0574347
-0.109953
0.0645295
-0.104059
0.0714151
-0.0994306
0.0782439
-0.0960652
0.0851471
-0.0937395
0.0921917
-0.0921085
0.0994144
-0.0909843
0.106831
-0.090194
0.114457
-0.0894253
0.122185
-0.0873813
0.129789
-0.0834608
0.137154
-0.0790277
0.144251
-0.0746087
0.151067
-0.0703345
0.157594
-0.0662538
0.163844
-0.0625165
0.169841
-0.0592841
0.175634
-0.0568309
0.181305
-0.0554103
0.18696
-0.0555732
0.192779
-0.0578763
0.199022
-0.0643678
0.206025
-0.0757859
0.213987
-0.108587
0.222857
-0.156173
-0.164908
0.178303
-0.130992
0.191287
-0.126726
0.205486
-0.131165
0.21708
-0.106004
0.227714
-0.0934134
0.237393
-0.0781535
0.245275
-0.0577475
0.251841
-0.0398965
0.257188
-0.0215888
0.26127
-0.0038014
0.2643
0.0134385
0.26641
0.0307112
0.267627
0.0479943
0.268175
0.0659803
0.268043
0.0850496
0.267279
0.105259
0.265977
0.127267
0.264162
0.150829
0.26187
0.176388
0.259267
0.203315
0.256352
0.231626
0.253332
0.259657
0.25106
0.2872
0.248467
0.312709
0.238185
0.334481
0.208311
0.341946
0.155806
0.315452
0.094793
0.252401
0.0441451
0.176723
0.0107429
0.114131
-0.0101184
0.0686649
-0.0234258
0.0260761
-0.029611
-0.0244103
-0.0280398
-0.0752956
-0.0213528
-0.105281
-0.0179754
-0.1146
-0.017456
-0.156774
-0.0179397
-0.183246
-0.0264683
-0.355165
-0.151274
-0.137725
-0.136911
-0.148333
-0.118005
-0.193453
-0.0987806
-0.203271
-0.0785517
-0.218241
-0.0570663
-0.235083
-0.0359253
-0.237463
-0.01679
-0.223022
0.000172517
-0.206153
0.0152508
-0.190097
0.0280155
-0.169844
0.0388377
-0.151755
0.0482869
-0.138223
0.0565814
-0.126445
0.0641233
-0.117495
0.0712039
-0.111141
0.0780512
-0.106279
0.0848393
-0.102854
0.0916933
-0.100594
0.0987104
-0.0991267
0.105936
-0.0982116
0.113416
-0.0976752
0.121157
-0.0971679
0.129063
-0.0952887
0.13688
-0.0912796
0.14448
-0.0866296
0.151834
-0.0819644
0.158919
-0.0774217
0.165732
-0.0730676
0.172272
-0.0690544
0.178569
-0.0655767
0.184667
-0.0629223
0.190629
-0.0613632
0.196581
-0.0615164
0.202687
-0.0639621
0.209181
-0.070829
0.216399
-0.0830137
0.224307
-0.116462
0.232774
-0.164634
-0.169788
0.18405
-0.145256
0.197854
-0.140533
0.212991
-0.146303
0.225336
-0.118351
0.236753
-0.104832
0.247097
-0.0884975
0.255558
-0.0662081
0.262634
-0.0469722
0.268381
-0.0273348
0.272805
-0.00822496
0.276148
0.0100949
0.278539
0.0283195
0.280092
0.0464402
0.280818
0.0652531
0.280874
0.0849924
0.28029
0.105841
0.279146
0.12841
0.277478
0.152496
0.275401
0.178463
0.272922
0.205792
0.270167
0.234379
0.267237
0.262587
0.264579
0.289857
0.262766
0.314523
0.258655
0.338594
0.242242
0.358362
0.202992
0.354706
0.144104
0.311293
0.0835939
0.237238
0.0373921
0.160337
0.00736521
0.0986933
-0.0118482
0.0452905
-0.0224273
-0.0138335
-0.0237488
-0.0739721
-0.0182087
-0.110815
-0.0152678
-0.117536
-0.0168824
-0.155173
-0.0207801
-0.17942
-0.0334759
-0.342674
-0.155247
-0.152268
-0.139969
-0.163613
-0.119921
-0.213501
-0.0995255
-0.223669
-0.0780927
-0.239676
-0.0553379
-0.257838
-0.032974
-0.259828
-0.012788
-0.243209
0.00508799
-0.224029
0.0209025
-0.205911
0.0342454
-0.183186
0.0454717
-0.162981
0.0551752
-0.147926
0.0636767
-0.134947
0.071277
-0.125096
0.0784141
-0.118278
0.0852263
-0.113092
0.0919772
-0.109606
0.0987841
-0.107402
0.105772
-0.106116
0.113006
-0.105447
0.120526
-0.105197
0.128373
-0.105018
0.136433
-0.103351
0.144455
-0.0993057
0.152278
-0.0944573
0.159881
-0.0895715
0.167234
-0.0847802
0.174332
-0.080169
0.18117
-0.0758939
0.187768
-0.0721716
0.194161
-0.0693101
0.200436
-0.0676299
0.206682
-0.0677586
0.213079
-0.0703555
0.219826
-0.0775744
0.227241
-0.0904424
0.235104
-0.124319
0.243171
-0.172666
-0.174985
0.190116
-0.160389
0.204842
-0.155261
0.22101
-0.162474
0.234172
-0.131515
0.24637
-0.117031
0.257388
-0.0995154
0.266488
-0.0753069
0.274099
-0.0545829
0.280254
-0.0334898
0.285066
-0.0130365
0.288798
0.00636285
0.291435
0.0256819
0.293207
0.044667
0.294169
0.0642902
0.294389
0.0847712
0.293992
0.106237
0.292978
0.129423
0.291463
0.15401
0.289463
0.180462
0.287135
0.20812
0.284509
0.237005
0.281742
0.265353
0.27901
0.29259
0.276942
0.316591
0.275104
0.340433
0.267725
0.365742
0.243246
0.379185
0.194739
0.359802
0.131739
0.300241
0.0737977
0.218282
0.0319813
0.140507
0.00450246
0.0727675
-0.0120856
0.00273008
-0.0176479
-0.0684391
-0.0141832
-0.114292
-0.0119679
-0.119744
-0.0156914
-0.151457
-0.0232235
-0.171884
-0.0402765
-0.325619
-0.159536
-0.167719
-0.143339
-0.179809
-0.122058
-0.234786
-0.100392
-0.245335
-0.0777032
-0.262366
-0.0536296
-0.281915
-0.0299207
-0.283538
-0.00863939
-0.26449
0.010222
-0.242889
0.026822
-0.22251
0.0407764
-0.19714
0.0524492
-0.174654
0.0625197
-0.157997
0.0712091
-0.143637
0.0789579
-0.132845
0.0861347
-0.125456
0.0929724
-0.11993
0.0996866
-0.116321
0.106461
-0.114178
0.113413
-0.113069
0.120632
-0.112667
0.128191
-0.112757
0.136131
-0.11296
0.144352
-0.111574
0.152549
-0.107505
0.160591
-0.102502
0.168432
-0.0974152
0.176052
-0.0924029
0.183426
-0.0875439
0.190558
-0.0830257
0.197457
-0.0790684
0.204166
-0.0760134
0.210743
-0.0741976
0.217288
-0.0742958
0.223982
-0.0770246
0.230976
-0.0845397
0.238586
-0.0980616
0.246388
-0.13209
0.253994
-0.180276
-0.180602
0.196698
-0.176488
0.212393
-0.170959
0.229528
-0.179611
0.243648
-0.145637
0.256561
-0.129945
0.268396
-0.111352
0.278088
-0.0849981
0.28625
-0.0627441
0.292902
-0.0401413
0.298131
-0.0182646
0.302097
0.00239591
0.30507
0.0227083
0.307034
0.0427018
0.3082
0.0631231
0.308657
0.0843133
0.308374
0.106519
0.307533
0.130263
0.306127
0.155414
0.304269
0.182319
0.302004
0.210384
0.299468
0.23954
0.296878
0.267942
0.294238
0.29523
0.291933
0.318896
0.290286
0.342081
0.287279
0.368751
0.274684
0.391782
0.24089
0.3936
0.184258
0.356876
0.119846
0.282697
0.0656673
0.194687
0.0273932
0.111039
0.00271658
0.0273975
-0.00888639
-0.0568479
-0.00882515
-0.11436
-0.00786883
-0.120703
-0.0137211
-0.145616
-0.025078
-0.160588
-0.0467801
-0.304074
-0.164197
-0.184125
-0.146992
-0.197015
-0.124372
-0.257406
-0.101426
-0.268285
-0.0773522
-0.286443
-0.0518608
-0.307406
-0.0268274
-0.308573
-0.00427865
-0.287039
0.015581
-0.262748
0.0330633
-0.239992
0.0476927
-0.211769
0.0598861
-0.186847
0.0703151
-0.168426
0.0792718
-0.152594
0.0871678
-0.140742
0.0944287
-0.132717
0.101302
-0.126804
0.108
-0.123021
0.114738
-0.120916
0.121666
-0.119999
0.128879
-0.119882
0.136459
-0.120339
0.14448
-0.120984
0.152835
-0.119932
0.161214
-0.115889
0.169459
-0.110751
0.177528
-0.10549
0.185397
-0.100278
0.19305
-0.095203
0.200469
-0.090448
0.207675
-0.0862749
0.214686
-0.0830193
0.221581
-0.0810843
0.228441
-0.0811464
0.235414
-0.0839894
0.242672
-0.0917892
0.250443
-0.105841
0.258213
-0.139842
0.265385
-0.187408
-0.186573
0.203686
-0.193603
0.220318
-0.187593
0.238663
-0.19796
0.253569
-0.160545
0.267432
-0.143809
0.280017
-0.123936
0.290451
-0.0954314
0.299127
-0.0714193
0.306271
-0.047284
0.311875
-0.0238687
0.316261
-0.00199091
0.319457
0.0195121
0.321727
0.0404305
0.323085
0.0617637
0.323691
0.0837066
0.323578
0.106631
0.322839
0.131
0.321514
0.156738
0.319707
0.184125
0.317522
0.212568
0.315082
0.24198
0.312522
0.270502
0.310039
0.297713
0.307796
0.32114
0.305878
0.344
0.304095
0.370536
0.298576
0.397303
0.278862
0.413315
0.235273
0.400469
0.172669
0.345306
0.109203
0.258155
0.0586994
0.161543
0.0235621
0.0625189
0.00366786
-0.0369763
-0.00149151
-0.109207
-0.00268439
-0.119495
-0.0107842
-0.137516
-0.0261299
-0.145235
-0.0528327
-0.277351
-0.169161
-0.201539
-0.150899
-0.215278
-0.126887
-0.281421
-0.102596
-0.292576
-0.0770774
-0.311963
-0.0500774