/*--------------------------------*- C++ -*----------------------------------*\
  =========                 |
  \\      /  F ield         | OpenFOAM: The Open Source CFD Toolbox
   \\    /   O peration     | Website:  https://openfoam.org
    \\  /    A nd           | Version:  9
     \\/     M anipulation  |
\*---------------------------------------------------------------------------*/
FoamFile
{
    format      ascii;
    class       volScalarField;
    location    "0.4";
    object      alpha.water;
}
// * * * * * * * * * * * * * * * * * * * * * * * * * * * * * * * * * * * * * //

dimensions      [0 0 0 0 0 0 0];

internalField   nonuniform List<scalar> 
1935
(
2.71714e-10
2.80085e-10
2.93029e-10
3.14562e-10
3.68518e-10
5.35555e-10
1.05097e-09
8.94971e-09
1.52316e-08
1.61702e-08
1.20496e-08
8.91442e-09
6.33647e-09
4.33379e-09
2.90123e-09
2.08673e-09
1.6314e-09
1.03598e-09
4.99399e-10
1.59135e-10
3.2651e-11
8.32646e-12
2.59775e-12
3.46726e-13
3.9142e-14
3.46657e-15
2.68831e-16
1.8602e-17
1.13577e-18
6.07184e-20
2.83263e-21
1.14545e-22
3.98877e-24
1.19276e-25
3.02488e-27
6.32808e-29
1.06641e-30
1.42507e-32
1.45212e-34
1.04969e-36
4.72128e-39
1.03076e-41
-2.87477e-46
2.80085e-10
3.32006e-08
2.66579e-08
2.65349e-09
2.92914e-10
7.33339e-08
7.76624e-08
4.76236e-08
1.02028e-08
9.21493e-08
5.41172e-08
6.67968e-08
1.09918e-08
1.02266e-07
5.35989e-08
5.35269e-08
3.80033e-09
1.67563e-07
5.71729e-08
5.26251e-08
5.79138e-09
2.9281e-07
1.11761e-07
5.35808e-08
4.20385e-08
2.9281e-07
1.34815e-07
6.12291e-08
5.17516e-08
2.9281e-07
1.35778e-07
7.48004e-08
4.69722e-08
2.40924e-07
3.10502e-07
1.12266e-07
6.71599e-08
2.23705e-07
1.13031e-06
2.44754e-07
5.76545e-08
2.76537e-07
1.15881e-06
6.53304e-07
4.07927e-08
1.76407e-07
7.79141e-07
3.80264e-06
2.89908e-08
1.24803e-07
5.28627e-07
2.08127e-06
2.02142e-08
8.88516e-08
3.44976e-07
1.3646e-06
1.37186e-08
5.87367e-08
2.36398e-07
9.75532e-07
9.59404e-09
4.0514e-08
1.60856e-07
5.96673e-07
6.96468e-09
2.92384e-08
1.10807e-07
4.02785e-07
4.22344e-09
1.84968e-08
7.29872e-08
2.73109e-07
1.69184e-09
7.65983e-09
3.04847e-08
1.16567e-07
5.54572e-10
2.05212e-09
7.94133e-09
2.8966e-08
1.17757e-10
3.40527e-10
1.30533e-09
4.74178e-09
2.30319e-11
6.91781e-11
1.74382e-10
5.95598e-10
8.38949e-12
1.89492e-11
4.27943e-11
8.12908e-11
1.70348e-12
7.97297e-12
1.80888e-11
3.11351e-11
1.91064e-13
8.95861e-13
3.45154e-12
1.2646e-11
1.74145e-14
8.48478e-14
3.40115e-13
1.29163e-12
1.39041e-15
7.02194e-15
2.92768e-14
1.14669e-13
9.96498e-17
5.24697e-16
2.28548e-15
9.28345e-15
6.34114e-18
3.50566e-17
1.60421e-16
6.78973e-16
3.55423e-19
2.07709e-18
1.00449e-17
4.45042e-17
1.74887e-20
1.08907e-19
5.60595e-19
2.61265e-18
7.50545e-22
5.02292e-21
2.77372e-20
1.3678e-19
2.7943e-23
2.0273e-22
1.2106e-21
6.3561e-21
9.02696e-25
7.17285e-24
4.67374e-23
2.6263e-22
2.51627e-26
2.21607e-25
1.59331e-24
9.61513e-24
5.96012e-28
5.89331e-27
4.73279e-26
3.08499e-25
1.18506e-29
1.3364e-28
1.21626e-27
8.63375e-27
1.94344e-31
2.55293e-30
2.67952e-29
2.09196e-28
2.54059e-33
4.00348e-32
4.95523e-31
4.27917e-30
2.51855e-35
4.98482e-34
7.50621e-33
7.14257e-32
1.71502e-37
4.67491e-36
9.00654e-35
9.30235e-34
5.87915e-40
2.9783e-38
8.06116e-37
8.56199e-36
-1.37172e-45
4.9818e-41
2.29007e-39
1.14075e-38
1.36857e-07
1.06549e-06
1.06549e-06
1.06549e-06
3.49956e-07
4.42457e-08
2.77441e-08
2.39196e-08
6.8944e-08
7.71138e-07
7.07607e-06
5.27592e-05
0.000801816
0.0156855
0.328789
0.911598
0.963055
0.968866
0.972862
0.898248
0.415965
0.0282301
0.00814855
0.00227518
0.00059482
0.000151509
3.54237e-05
7.61113e-06
1.50836e-06
2.73359e-07
4.51969e-08
6.7712e-09
9.10007e-10
1.26547e-10
2.50395e-11
3.0672e-12
2.12358e-13
1.05438e-14
3.25042e-16
2.57939e-17
5.76986e-08
8.36473e-08
2.62947e-07
2.80764e-07
1.44336e-07
6.24493e-08
5.02954e-08
9.85728e-08
8.06936e-07
7.16303e-06
5.27348e-05
0.000379596
0.00287672
0.058993
0.533831
0.950993
0.961218
0.962687
0.961101
0.797035
0.226096
0.0190029
0.00561276
0.00156223
0.000440407
0.00011935
2.87487e-05
6.14091e-06
1.19968e-06
2.16405e-07
3.58109e-08
5.38755e-09
7.4314e-10
1.13051e-10
2.14819e-11
2.34415e-12
1.6445e-13
8.53115e-15
2.8316e-16
1.62004e-17
2.97438e-06
9.40856e-08
2.10019e-07
2.50361e-07
3.26589e-07
8.82111e-08
1.59763e-07
8.25595e-07
7.194e-06
5.07837e-05
0.000303618
0.00182546
0.0131481
0.202672
0.812325
0.94764
0.956143
0.961203
0.91884
0.569916
0.0826794
0.0126106
0.00363306
0.00111082
0.00033971
9.09396e-05
2.11821e-05
4.44934e-06
8.60831e-07
1.54436e-07
2.55503e-08
3.87505e-09
5.57047e-10
9.53673e-11
1.62055e-11
1.64608e-12
1.17996e-13
6.33292e-15
2.21033e-16
9.59629e-18
5.24243e-08
7.17754e-05
0.000115504
2.99041e-05
3.65857e-07
1.43393e-07
4.4781e-07
6.32349e-06
5.00802e-05
0.000315445
0.00162594
0.00894544
0.0948223
0.587105
0.929136
0.939969
0.945857
0.938706
0.7832
0.255923
0.026029
0.00758968
0.00241094
0.000805341
0.000240498
6.15349e-05
1.40119e-05
2.91596e-06
5.61621e-07
1.0042e-07
1.6623e-08
2.55593e-09
3.91167e-10
7.47128e-11
1.11323e-11
1.0756e-12
7.89138e-14
4.34679e-15
1.57458e-16
5.49946e-18
5.02514e-06
0.000205429
0.000252736
0.000130807
3.40302e-06
9.102e-07
6.58183e-07
2.63362e-05
0.000296582
0.00314134
0.011794
0.104802
0.513421
0.90921
0.923515
0.931726
0.937041
0.855052
0.435883
0.0541297
0.0127263
0.00444788
0.00158732
0.000525247
0.000150241
3.74354e-05
8.37792e-06
1.72999e-06
3.32774e-07
5.95887e-08
9.92843e-09
1.57155e-09
2.68944e-10
5.26029e-11
6.9433e-12
6.59969e-13
4.93661e-14
2.77785e-15
1.03592e-16
3.03761e-18
4.38062e-05
0.000280133
0.000273234
0.000150892
9.0888e-06
3.32346e-06
1.67023e-06
5.52265e-06
0.00234583
0.0308304
0.217061
0.656428
0.897091
0.91348
0.919597
0.923279
0.876997
0.552536
0.087607
0.0167415
0.00620935
0.0024
0.000917321
0.000297655
8.32006e-05
2.03722e-05
4.52528e-06
9.3303e-07
1.79901e-07
3.24166e-08
5.49667e-09
9.25636e-10
1.79986e-10
3.23839e-11
3.98766e-12
3.80432e-13
2.89439e-14
1.65921e-15
6.34114e-17
1.57686e-18
9.13589e-05
0.000366061
0.000206418
5.17468e-05
1.68987e-05
1.66124e-05
1.82666e-05
1.17542e-05
1.74015e-05
0.255931
0.781764
0.887083
0.903045
0.908743
0.91276
0.878005
0.598603
0.118123
0.0191633
0.00733461
0.00277232
0.00102522
0.000436439
0.000145177
4.02779e-05
9.87989e-06
2.20579e-06
4.5789e-07
8.90009e-08
1.62609e-08
2.86799e-09
5.39582e-10
1.13374e-10
1.8129e-11
2.1466e-12
2.06687e-13
1.59509e-14
9.29238e-16
3.62285e-17
7.90976e-19
0.000115227
0.000416071
0.000124713
4.14097e-05
3.28713e-05
8.09512e-05
0.000503649
0.000842504
0.00191749
0.545262
0.878789
0.894857
0.899548
0.902778
0.87469
0.60924
0.134316
0.01987
0.00807431
0.0031584
0.0011545
0.000396833
0.000153616
5.98412e-05
1.70558e-05
4.2707e-06
9.7161e-07
2.04902e-07
4.04766e-08
7.62368e-09
1.46073e-09
3.14804e-10
6.37634e-11
9.31385e-12
1.09153e-12
1.06042e-13
8.2837e-15
4.89405e-16
1.93878e-17
4.0031e-19
0.000124337
0.000493481
0.0001281
5.52819e-05
0.000106718
0.000555574
0.00350052
0.0598851
0.347256
0.486912
0.6517
0.777329
0.856837
0.817107
0.570545
0.139744
0.0174216
0.00731493
0.00320791
0.00126245
0.000457321
0.000160223
4.79312e-05
1.90104e-05
6.38842e-06
1.65531e-06
3.88135e-07
8.39486e-08
1.7094e-08
3.44588e-09
7.60835e-10
1.76069e-10
3.19169e-11
4.472e-12
5.25074e-13
5.14396e-14
4.06184e-15
2.42983e-16
9.75502e-18
1.9917e-19
6.70349e-05
0.00061424
0.000334376
6.6916e-05
8.36091e-05
0.00917633
0.0784644
0.493855
0.737016
0.629289
0.226379
0.198778
0.271521
0.237369
0.0892665
0.0164346
0.00596154
0.00257862
0.00111289
0.000462419
0.000176834
6.07075e-05
1.81514e-05
5.05285e-06
1.99451e-06
5.83085e-07
1.41592e-07
3.17997e-08
6.90014e-09
1.59266e-09
4.02296e-10
8.85166e-11
1.46813e-11
2.02992e-12
2.39276e-13
2.36221e-14
1.88363e-15
1.1395e-16
4.62813e-18
9.38391e-20
5.51344e-05
0.000614205
0.000448967
8.36204e-05
9.46532e-05
0.0565682
0.465781
0.739343
0.749272
0.75247
0.321625
0.0582099
0.028435
0.0152508
0.00807278
0.00425414
0.00199137
0.000874621
0.000385638
0.00016565
6.35958e-05
2.15958e-05
6.83435e-06
1.77061e-06
4.83178e-07
1.80632e-07
4.78374e-08
1.14663e-08
2.84754e-09
7.80166e-10
2.00522e-10
3.95236e-11
6.33165e-12
8.73344e-13
1.03397e-13
1.02815e-14
8.27308e-16
5.05627e-17
2.07456e-18
4.18133e-20
3.67796e-06
0.000295175
0.000907435
0.000186925
9.85308e-05
0.088004
0.706066
0.74775
0.754735
0.751755
0.622081
0.0982026
0.0135249
0.00674434
0.00270492
0.00128803
0.000646672
0.000305415
0.000134739
5.64322e-05
2.20231e-05
7.65839e-06
2.38068e-06
6.83852e-07
1.57725e-07
4.23399e-08
1.51449e-08
4.26575e-09
1.28932e-09
3.79359e-10
8.86879e-11
1.63187e-11
2.58317e-12
3.56518e-13
4.24044e-14
4.24592e-15
3.44592e-16
2.12621e-17
8.80222e-19
1.76229e-20
9.21144e-06
6.96608e-05
0.000907435
0.000389688
0.000113824
0.000731235
0.599695
0.755929
0.750855
0.751136
0.750864
0.242059
0.00759517
0.00277585
0.00122481
0.000443373
0.000224861
0.000105265
4.60896e-05
1.92745e-05
7.66607e-06
2.58993e-06
8.15076e-07
2.29251e-07
6.05838e-08
1.37831e-08
4.47799e-09
1.74435e-09
6.08449e-10
1.67231e-10
3.53543e-11
6.34083e-12
9.99723e-13
1.38238e-13
1.6522e-14
1.6658e-15
1.36309e-16
8.48339e-18
3.53616e-19
6.99676e-21
6.74299e-06
1.38695e-05
0.000446545
0.00107436
0.000140518
0.000164508
0.248656
0.748065
0.751136
0.751136
0.751166
0.495755
0.0222243
0.00112878
0.000466824
0.000160812
7.8347e-05
3.62193e-05
1.58344e-05
6.81418e-06
2.68026e-06
8.88886e-07
2.63268e-07
7.58218e-08
2.03507e-08
5.58548e-09
1.70652e-09
7.78935e-10
2.62944e-10
6.47549e-11
1.31021e-11
2.32692e-12
3.66615e-13
5.08373e-14
6.10705e-15
6.19929e-16
5.11178e-17
3.2051e-18
1.34127e-19
2.6003e-21
3.3642e-06
1.72819e-05
4.28586e-05
0.000965511
0.00150195
0.000986557
0.00166202
0.516721
0.750166
0.751136
0.750166
0.500452
0.0225225
0.000916877
0.00019668
5.88262e-05
2.65485e-05
1.23855e-05
5.49904e-06
2.35139e-06
9.07919e-07
2.99547e-07
8.75634e-08
2.44407e-08
6.96074e-09
2.12855e-09
8.08499e-10
3.45045e-10
1.00859e-10
2.31234e-11
4.57811e-12
8.07687e-13
1.27069e-13
1.76755e-14
2.13467e-15
2.18075e-16
1.81351e-17
1.14928e-18
4.86397e-20
9.39746e-22
2.30557e-06
9.65215e-06
4.04253e-05
0.000207824
0.00223665
0.0031987
0.0025647
0.075874
0.526926
0.750166
0.707569
0.347098
0.0146663
0.00122965
0.000143236
2.09006e-05
8.64701e-06
4.14609e-06
1.88298e-06
7.88977e-07
2.98981e-07
9.87172e-08
2.8884e-08
8.04247e-09
2.4979e-09
8.55334e-10
3.91344e-10
1.38465e-10
3.59066e-11
7.88475e-12
1.53886e-12
2.70331e-13
4.25304e-14
5.93841e-15
7.22037e-16
7.44543e-17
6.268e-18
4.03275e-19
1.73825e-20
3.39081e-22
1.47826e-06
5.16821e-06
2.27609e-05
8.06152e-05
0.000968595
0.00321894
0.00548889
0.00507825
0.0839117
0.261454
0.211479
0.0825742
0.0137516
0.00110867
3.30506e-05
7.61308e-06
2.96382e-06
1.40177e-06
6.22911e-07
2.559e-07
9.55825e-08
3.20207e-08
9.46719e-09
2.74464e-09
9.55125e-10
3.85281e-10
1.67442e-10
4.93681e-11
1.20071e-11
2.5874e-12
5.02407e-13
8.82932e-14
1.39493e-14
1.9602e-15
2.40615e-16
2.51361e-17
2.14889e-18
1.40601e-19
6.16828e-21
1.20163e-22
9.67537e-07
3.30015e-06
1.17023e-05
4.33621e-05
0.000314525
0.00214135
0.00360021
0.00414461
0.00529338
0.00812613
0.00763142
0.00357924
0.00358811
0.000157608
5.75198e-06
1.97996e-06
9.666e-07
4.51934e-07
1.9749e-07
8.01124e-08
2.97026e-08
1.01159e-08
3.07086e-09
1.01558e-09
3.71279e-10
1.74362e-10
6.01693e-11
1.6195e-11
3.83295e-12
8.19146e-13
1.58991e-13
2.80379e-14
4.45873e-15
6.32376e-16
7.85415e-17
8.32111e-18
7.23044e-19
4.81794e-20
2.15639e-21
4.18218e-23
4.25216e-07
1.53719e-06
5.60423e-06
2.04427e-05
0.000176174
0.000630172
0.00120972
0.00242836
0.00260952
0.00158106
0.00151807
0.000679843
6.48501e-05
4.67408e-06
1.73295e-06
5.93948e-07
2.9489e-07
1.37533e-07
5.98519e-08
2.41911e-08
8.96898e-09
3.05828e-09
1.03984e-09
3.83319e-10
1.61671e-10
6.54101e-11
1.92879e-11
5.01458e-12
1.17421e-12
2.50614e-13
4.88144e-14
8.66508e-15
1.39053e-15
1.99451e-16
2.51067e-17
2.70143e-18
2.38835e-19
1.62201e-20
7.41791e-22
1.42601e-23
1.02051e-07
3.67796e-07
1.25045e-06
4.00928e-06
1.96042e-05
0.000173667
0.000449305
0.000670053
0.000527881
0.000311519
0.000290858
0.000151979
1.91901e-05
1.60508e-06
5.51869e-07
1.6846e-07
8.44819e-08
3.9706e-08
1.73852e-08
7.04525e-09
2.60609e-09
9.20847e-10
3.71766e-10
1.46155e-10
6.38913e-11
2.03198e-11
5.77214e-12
1.48183e-12
3.46341e-13
7.41707e-14
1.45435e-14
2.60506e-15
4.22738e-16
6.14325e-17
7.8494e-18
8.58838e-19
7.73393e-20
5.35906e-21
2.50805e-22
4.75643e-24
1.65556e-08
5.99817e-08
2.0553e-07
6.7261e-07
3.76397e-06
4.41585e-05
9.3694e-05
0.000124726
0.00010147
6.31778e-05
5.10154e-05
3.14528e-05
5.11582e-06
5.14216e-07
1.36135e-07
4.55029e-08
2.2593e-08
1.09073e-08
4.81761e-09
1.95553e-09
7.49809e-10
3.15746e-10
1.23644e-10
5.47502e-11
1.93633e-11
5.8413e-12
1.6401e-12
4.20122e-13
9.85478e-14
2.12495e-14
4.2055e-15
7.61797e-16
1.25241e-16
1.84689e-17
2.3986e-18
2.67177e-19
2.45307e-20
1.73623e-21
8.32665e-23
1.55005e-24
2.07426e-09
7.29544e-09
2.58125e-08
8.99397e-08
1.04531e-06
7.61811e-06
1.56182e-05
2.00537e-05
1.74558e-05
1.13405e-05
8.81648e-06
5.64043e-06
1.21859e-06
1.45324e-07
3.17628e-08
1.13802e-08
5.78563e-09
2.79833e-09
1.27027e-09
5.62386e-10
2.44462e-10
9.67484e-11
4.3391e-11
1.68267e-11
5.28891e-12
1.5892e-12
4.45722e-13
1.14622e-13
2.70862e-14
5.89708e-15
1.18068e-15
2.16705e-16
3.6154e-17
5.41799e-18
7.16063e-19
8.12822e-20
7.61584e-21
5.51128e-22
2.7115e-23
4.92994e-25
2.37669e-10
8.25646e-10
2.89144e-09
9.90151e-09
2.0634e-07
1.05096e-06
2.05842e-06
2.75039e-06
2.55372e-06
1.80583e-06
1.4234e-06
9.14618e-07
2.6082e-07
3.59567e-08
7.07028e-09
2.66803e-09
1.40269e-09
6.88766e-10
3.77637e-10
1.67767e-10
6.99566e-11
3.16947e-11
1.30969e-11
4.3163e-12
1.36749e-12
4.1263e-13
1.16332e-13
3.01546e-14
7.19944e-15
1.58635e-15
3.21942e-16
5.9975e-17
1.01687e-17
1.55048e-18
2.08749e-19
2.41685e-20
2.31274e-21
1.71268e-22
8.65097e-24
1.52878e-25
7.35208e-11
1.68481e-10
4.47821e-10
1.26112e-09
3.11874e-08
1.21888e-07
2.25831e-07
3.25412e-07
3.22349e-07
2.5743e-07
2.09881e-07
1.35696e-07
5.08947e-08
7.83848e-09
1.46474e-09
5.91594e-10
3.17414e-10
2.13602e-10
9.95608e-11
4.60273e-11
2.11352e-11
9.11151e-12
3.16018e-12
1.05266e-12
3.37424e-13
1.02758e-13
2.92374e-14
7.66182e-15
1.85255e-15
4.13945e-16
8.52978e-17
1.61513e-17
2.78636e-18
4.32723e-19
5.94009e-20
7.01971e-21
6.86501e-22
5.20613e-23
2.70111e-24
4.61858e-26
4.1852e-11
9.60673e-11
1.96586e-10
7.13135e-10
3.60818e-09
1.17939e-08
2.09239e-08
3.33369e-08
3.54723e-08
3.35407e-08
2.83783e-08
1.86263e-08
7.74431e-09
1.44144e-09
2.74666e-10
1.23317e-10
9.59595e-11
5.05111e-11
2.65629e-11
1.27105e-11
5.60209e-12
2.05561e-12
7.23606e-13
2.45624e-13
7.98442e-14
2.46247e-14
7.09092e-15
1.88297e-15
4.61968e-16
1.04851e-16
2.19681e-17
4.2331e-18
7.43813e-19
1.17754e-19
1.64927e-20
1.99057e-21
1.99057e-22
1.54671e-23
8.24428e-25
1.35844e-26
5.51411e-12
1.98772e-11
6.19184e-11
1.71274e-10
4.42231e-10
9.71867e-10
1.68046e-09
2.8452e-09
3.6586e-09
3.84515e-09
3.53148e-09
2.44275e-09
1.04945e-09
2.14332e-10
4.88801e-11
3.52306e-11
2.40644e-11
1.30206e-11
6.69859e-12
3.00186e-12
1.17769e-12
4.41016e-13
1.59078e-13
5.50149e-14
1.81845e-14
5.69241e-15
1.66255e-15
4.48206e-16
1.11753e-16
2.57982e-17
5.50207e-18
1.07996e-18
1.93437e-19
3.12382e-20
4.46658e-21
5.50831e-22
5.63464e-23
4.48749e-24
2.45718e-25
3.88793e-27
5.23843e-13
2.09442e-12
7.59174e-12
2.42451e-11
6.07886e-11
1.06333e-10
1.47199e-10
2.29713e-10
3.51294e-10
4.15546e-10
3.7579e-10
3.02408e-10
1.33049e-10
3.00063e-11
1.16572e-11
8.99563e-12
5.68798e-12
3.00064e-12
1.38629e-12
5.88402e-13
2.36743e-13
9.12118e-14
3.36433e-14
1.18713e-14
3.99666e-15
1.272e-15
3.77451e-16
1.0346e-16
2.6249e-17
6.16992e-18
1.34067e-18
2.68257e-19
4.90097e-20
8.07764e-21
1.17957e-21
1.48682e-22
1.55617e-23
1.27049e-24
7.14454e-26
1.08235e-27
4.5034e-14
1.91875e-13
7.52317e-13
2.61117e-12
7.57837e-12
1.73511e-11
3.12364e-11
4.13623e-11
4.35446e-11
4.97506e-11
5.16871e-11
4.37506e-11
1.82412e-11
4.68782e-12
2.18458e-12
1.96095e-12
1.0871e-12
5.444e-13
2.53631e-13
1.11025e-13
4.60461e-14
1.81916e-14
6.86432e-15
2.4744e-15
8.49491e-16
2.75246e-16
8.30959e-17
2.31858e-17
5.99173e-18
1.43522e-18
3.17958e-19
6.48921e-20
1.20983e-20
2.03582e-21
3.03697e-22
3.9133e-23
4.19116e-24
3.50762e-25
2.02486e-26
2.93006e-28
3.51776e-15
1.59763e-14
6.79487e-14
2.55732e-13
8.03434e-13
2.09022e-12
4.51709e-12
8.21446e-12
1.24429e-11
1.41693e-11
9.20812e-12
4.75294e-12
2.18354e-12
6.56149e-13
4.03147e-13
3.19e-13
1.79991e-13
9.32309e-14
4.4967e-14
2.03054e-14
8.65354e-15
3.50542e-15
1.35446e-15
4.99211e-16
1.74931e-16
5.77643e-17
1.77618e-17
5.04973e-18
1.33023e-18
3.24914e-19
7.3427e-20
1.52916e-20
2.91019e-21
5.00088e-22
7.62198e-23
1.00405e-23
1.10031e-24
9.43794e-26
5.58966e-27
7.71231e-29
2.48067e-16
1.2067e-15
5.55593e-15
2.26416e-14
7.53285e-14
2.05797e-13
4.68392e-13
9.48091e-13
1.70825e-12
2.21727e-12
1.6057e-12
5.94987e-13
2.38498e-13
8.54669e-14
6.59523e-14
4.89955e-14
2.88919e-14
1.55167e-14
7.72747e-15
3.59227e-15
1.57322e-15
6.54003e-16
2.5895e-16
9.76508e-17
3.49529e-17
1.1773e-17
3.69039e-18
1.06985e-18
2.87456e-19
7.16306e-20
1.65189e-20
3.51134e-21
6.82275e-22
1.19739e-22
1.86458e-23
2.51082e-24
2.81491e-25
2.4738e-26
1.5021e-27
1.97373e-29
1.57909e-17
8.32365e-17
4.15688e-16
1.81084e-15
6.37334e-15
1.81748e-14
4.26535e-14
8.78046e-14
1.57331e-13
2.03545e-13
1.79074e-13
7.19597e-14
2.52598e-14
1.06378e-14
9.92962e-15
7.35012e-15
4.49587e-15
2.4996e-15
1.28475e-15
6.15266e-16
2.77163e-16
1.18327e-16
4.80395e-17
1.85467e-17
6.7856e-18
2.33307e-18
7.46089e-19
2.20686e-19
6.05081e-20
1.53879e-20
3.62215e-21
7.86e-22
1.5594e-22
2.79499e-23
4.44634e-24
6.11927e-25
7.01626e-26
6.31442e-27
3.92779e-28
4.91178e-30
9.03337e-19
5.20266e-18
2.83941e-17
1.31506e-16
4.92981e-16
1.48471e-15
3.63628e-15
7.65576e-15
1.38962e-14
1.81614e-14
1.67647e-14
7.75886e-15
2.62935e-15
1.27809e-15
1.42704e-15
1.06553e-15
6.76021e-16
3.89438e-16
2.06849e-16
1.0217e-16
4.73833e-17
2.07888e-17
8.65942e-18
3.42463e-18
1.28147e-18
4.50052e-19
1.46919e-19
4.43613e-20
1.24162e-20
3.2233e-21
7.74561e-22
1.71593e-22
3.47594e-23
6.36198e-24
1.03373e-24
1.45357e-25
1.7038e-26
1.56934e-27
9.99148e-29
1.1889e-30
4.63617e-20
2.92302e-19
1.7477e-18
8.65202e-18
3.48449e-17
1.12354e-16
2.91497e-16
6.38713e-16
1.20489e-15
1.62809e-15
1.574e-15
8.06394e-16
2.8035e-16
1.82995e-16
1.93279e-16
1.4918e-16
9.82993e-17
5.87623e-17
3.22963e-17
1.64703e-17
7.87042e-18
3.55108e-18
1.51852e-18
6.15516e-19
2.35694e-19
8.46e-20
2.82076e-20
8.69778e-21
2.48573e-21
6.58838e-22
1.61632e-22
3.65551e-23
7.55975e-24
1.41266e-24
2.34379e-25
3.366e-26
4.03137e-27
3.79763e-28
2.47236e-29
2.80011e-31
2.15193e-21
1.49085e-20
9.66928e-20
5.14554e-19
2.24947e-18
7.87085e-18
2.19684e-17
5.09394e-17
1.01317e-16
1.42892e-16
1.44867e-16
8.27575e-17
3.14352e-17
2.57875e-17
2.50708e-17
2.02024e-17
1.38474e-17
8.60071e-18
4.89691e-18
2.58088e-18
1.27176e-18
5.90497e-19
2.59379e-19
1.07815e-19
4.22695e-20
1.55145e-20
5.28577e-21
1.66496e-21
4.8595e-22
1.31512e-22
3.2938e-23
7.60417e-24
1.60515e-24
3.06154e-25
5.18478e-26
7.60132e-27
9.29666e-28
8.94959e-29
5.95176e-30
6.42023e-32
9.02772e-23
6.9436e-22
4.79268e-21
2.76686e-20
1.33049e-19
5.12606e-19
1.56271e-18
3.89223e-18
8.23241e-18
1.22727e-17
1.29903e-17
8.51919e-18
3.86458e-18
3.2854e-18
3.15524e-18
2.65149e-18
1.8934e-18
1.22314e-18
7.22154e-19
3.93684e-19
2.00193e-19
9.57174e-20
4.32124e-20
1.84287e-20
7.40095e-21
2.77896e-21
9.67811e-22
3.11489e-22
9.28592e-23
2.56598e-23
6.56047e-24
1.54578e-24
3.32971e-25
6.48004e-26
1.11967e-26
1.67488e-27
2.09042e-28
2.05469e-29
1.39432e-30
1.43401e-32
3.36674e-24
2.89172e-23
2.11943e-22
1.34235e-21
7.21848e-21
3.11549e-20
1.05315e-19
2.85232e-19
6.46064e-19
1.03941e-18
1.13444e-18
8.60527e-19
4.61284e-19
3.9573e-19
3.85475e-19
3.38073e-19
2.51785e-19
1.69326e-19
1.03755e-19
5.85508e-20
3.07459e-20
1.51467e-20
7.03169e-21
3.07814e-21
1.26681e-21
4.8681e-22
1.73355e-22
5.70194e-23
1.7363e-23
4.89878e-24
1.27837e-24
3.07347e-25
6.75377e-26
1.34058e-26
2.36222e-27
3.60323e-28
4.58604e-29
4.59815e-30
3.18034e-31
3.12263e-33
1.11256e-25
1.06246e-24
8.23924e-24
5.819e-23
3.58042e-22
1.76892e-21
6.73888e-21
2.01042e-20
4.93179e-20
8.61737e-20
9.6867e-20
8.48831e-20
5.13383e-20
4.57634e-20
4.5746e-20
4.19809e-20
3.26306e-20
2.28617e-20
1.45496e-20
8.50483e-21
4.61459e-21
2.34359e-21
1.11932e-21
5.03157e-22
2.12286e-22
8.3515e-23
3.0417e-23
1.02256e-23
3.18061e-24
9.16147e-25
2.4397e-25
5.98335e-26
1.34079e-26
2.71323e-27
4.87298e-28
7.57477e-29
9.82374e-30
1.00375e-30
7.06762e-32
6.63515e-34
3.26265e-27
3.35292e-26
2.74534e-25
2.2123e-24
1.60923e-23
9.36926e-23
4.10147e-22
1.36771e-21
3.63215e-21
6.93078e-21
8.32201e-21
8.04799e-21
5.45888e-21
5.11359e-21
5.27426e-21
5.09098e-21
4.12952e-21
3.01626e-21
1.99502e-21
1.20867e-21
6.77977e-22
3.55132e-22
1.74572e-22
8.06138e-23
3.48791e-23
1.40517e-23
5.23525e-24
1.79897e-24
5.71543e-25
1.68048e-25
4.56564e-26
1.14183e-26
2.60819e-27
5.37806e-28
9.83917e-29
1.55753e-29
2.0566e-30
2.13921e-31
1.53151e-32
1.37717e-34
8.37613e-29
8.67458e-28
7.48383e-27
7.14294e-26
6.46681e-25
4.62126e-24
2.38054e-23
8.98268e-23
2.59819e-22
5.40882e-22
7.17557e-22
7.36365e-22
5.60307e-22
5.55163e-22
5.92697e-22
6.03763e-22
5.1128e-22
3.89562e-22
2.67943e-22
1.68335e-22
9.76635e-23
5.27866e-23
2.67173e-23
1.26785e-23
5.62724e-24
2.32212e-24
8.85158e-25
3.10916e-25
1.00888e-25
3.02746e-26
8.38931e-27
2.13875e-27
4.97755e-28
1.04526e-28
1.94673e-29
3.13594e-30
4.21223e-31
4.45561e-32
3.2392e-33
2.79519e-35
1.8569e-30
1.77144e-29
1.66912e-28
1.97917e-27
2.29529e-26
2.12225e-25
1.32361e-24
5.71231e-24
1.81358e-23
4.1278e-23
6.1241e-23
6.59159e-23
5.62635e-23
5.8012e-23
6.57392e-23
6.95099e-23
6.20603e-23
4.93324e-23
3.53007e-23
2.30078e-23
1.38122e-23
7.70619e-24
4.01751e-24
1.95986e-24
8.9262e-25
3.77396e-25
1.47209e-25
5.28585e-26
1.75171e-26
5.36395e-27
1.51564e-27
3.93729e-28
9.3318e-29
1.99456e-29
3.77898e-30
6.18971e-31
8.44969e-32
9.0791e-33
6.69357e-34
5.55979e-36
3.52922e-32
2.84538e-31
3.73956e-30
5.84522e-29
7.61953e-28
9.1476e-27
7.12665e-26
3.54592e-25
1.24403e-24
3.10347e-24
5.13307e-24
5.80593e-24
5.4127e-24
5.69186e-24
6.91773e-24
7.51585e-24
7.12321e-24
5.95928e-24
4.4784e-24
3.05273e-24
1.90965e-24
1.10672e-24
5.97016e-25
2.99391e-25
1.39918e-25
6.06027e-26
2.41847e-26
8.87476e-27
3.00255e-27
9.37748e-28
2.70022e-28
7.14257e-29
1.72245e-29
3.74318e-30
7.20589e-31
1.19903e-31
1.66191e-32
1.81188e-33
1.35287e-34
9.43574e-37
5.66439e-34
3.76879e-33
6.14363e-32
1.556e-30
2.84873e-29
3.83568e-28
3.80259e-27
2.16244e-26
8.20652e-26
2.13637e-25
3.53405e-25
3.6482e-25
3.95193e-25
4.56462e-25
5.74282e-25
6.46236e-25
6.30484e-25
5.38545e-25
4.14636e-25
2.91023e-25
1.87471e-25
1.11792e-25
6.27603e-26
3.41321e-26
1.70648e-26
7.87218e-27
3.32878e-27
1.28734e-27
4.5707e-28
1.49324e-28
4.47694e-29
1.22635e-29
3.05986e-30
6.87574e-31
1.36765e-31
2.31484e-32
3.25389e-33
3.59447e-34
2.71403e-35
1.69717e-37
8.02256e-36
7.87252e-35
2.30368e-33
5.29992e-32
9.07593e-31
1.17087e-29
1.28351e-28
1.0353e-27
5.63597e-27
2.24806e-26
6.59512e-26
1.43135e-25
2.47002e-25
3.33809e-25
3.99973e-25
4.81497e-25
4.65572e-25
3.47854e-25
2.37542e-25
1.49424e-25
8.72117e-26
4.74557e-26
2.40929e-26
1.13819e-26
4.97932e-27
2.00622e-27
7.42774e-28
2.5318e-28
7.95348e-29
2.30009e-29
6.19323e-30
1.56687e-30
3.58621e-31
7.3371e-32
1.31785e-32
2.24026e-33
3.214e-34
3.62214e-35
2.78683e-36
1.69717e-37
)
;

boundaryField
{
    leftWall
    {
        type            zeroGradient;
    }
    rightWall
    {
        type            zeroGradient;
    }
    lowerWall
    {
        type            zeroGradient;
    }
    atmosphere
    {
        type            inletOutlet;
        inletValue      uniform 0;
        value           nonuniform List<scalar> 
45
(
0
0
0
0
0
8.02256e-36
7.87252e-35
2.30368e-33
5.29992e-32
9.07593e-31
1.17087e-29
1.28351e-28
1.0353e-27
5.63597e-27
2.24806e-26
6.59512e-26
1.43135e-25
2.47002e-25
3.33809e-25
3.99973e-25
4.81497e-25
4.65572e-25
3.47854e-25
2.37542e-25
1.49424e-25
8.72117e-26
4.74557e-26
2.40929e-26
1.13819e-26
4.97932e-27
2.00622e-27
7.42774e-28
2.5318e-28
7.95348e-29
2.30009e-29
6.19323e-30
1.56687e-30
3.58621e-31
7.3371e-32
1.31785e-32
2.24026e-33
3.214e-34
3.62214e-35
2.78683e-36
1.69717e-37
)
;
    }
    defaultFaces
    {
        type            empty;
    }
    procBoundary3to1
    {
        type            processor;
        value           nonuniform List<scalar> 
45
(
2.68727e-10
6.18863e-10
1.33258e-09
1.41768e-09
1.89017e-09
1.83545e-08
1.46305e-07
5.26051e-07
5.44575e-07
2.71587e-07
4.36577e-08
1.27316e-08
9.33047e-09
1.00184e-08
6.41062e-08
6.57262e-07
6.53937e-06
1.27098e-05
0.00275134
0.227232
0.848612
0.96867
0.975905
0.979836
0.944701
0.572505
0.0641832
0.0107467
0.00306313
0.000820358
0.000201847
4.53784e-05
9.55267e-06
1.85567e-06
3.27629e-07
5.24654e-08
7.56663e-09
9.81814e-10
1.28032e-10
2.58431e-11
3.60583e-12
2.51603e-13
1.16876e-14
3.29449e-16
3.85101e-17
)
;
    }
    procBoundary3to2
    {
        type            processor;
        value           nonuniform List<scalar> 
43
(
3.05682e-10
3.25375e-10
3.27967e-10
3.72686e-10
7.60792e-10
1.85237e-09
2.40494e-09
2.57537e-09
3.05326e-09
3.00178e-09
2.04315e-09
1.41395e-09
1.00217e-09
8.15758e-10
7.12503e-10
5.80868e-10
4.35304e-10
2.67813e-10
1.19128e-10
3.3263e-11
6.54985e-12
1.82543e-12
3.3671e-13
4.32853e-14
4.88745e-15
4.29026e-16
3.30725e-17
2.24575e-18
1.32529e-19
6.73613e-21
2.87966e-22
9.98215e-24
2.7161e-25
5.48282e-27
7.3508e-29
6.75425e-31
5.34495e-33
5.75731e-35
2.98335e-37
1.1682e-39
1.66175e-42
-6.62249e-45
-1.37578e-48
)
;
    }
}


// ************************************************************************* //
