/*--------------------------------*- C++ -*----------------------------------*\
  =========                 |
  \\      /  F ield         | OpenFOAM: The Open Source CFD Toolbox
   \\    /   O peration     | Website:  https://openfoam.org
    \\  /    A nd           | Version:  9
     \\/     M anipulation  |
\*---------------------------------------------------------------------------*/
FoamFile
{
    format      ascii;
    class       volScalarField;
    location    "0.4";
    object      k;
}
// * * * * * * * * * * * * * * * * * * * * * * * * * * * * * * * * * * * * * //

dimensions      [0 2 -2 0 0 0 0];

internalField   nonuniform List<scalar> 
1935
(
0.420044
0.417373
0.416284
0.416852
0.418849
0.421721
0.424697
0.426929
0.427687
0.426532
0.423422
0.418884
0.413041
0.406237
0.398757
0.390616
0.381453
0.370553
0.357074
0.340434
0.320688
0.298627
0.275527
0.252736
0.231322
0.211914
0.194743
0.179764
0.1668
0.155632
0.146056
0.137896
0.131002
0.125242
0.120492
0.116641
0.113587
0.11125
0.109567
0.108462
0.107763
0.106936
0.104346
0.427808
0.433884
0.438072
0.440076
0.42699
0.435189
0.441509
0.44534
0.428409
0.439441
0.448579
0.454754
0.432126
0.446711
0.459389
0.468484
0.437778
0.456557
0.473498
0.48616
0.444585
0.468028
0.489902
0.506867
0.451437
0.479705
0.507001
0.529015
0.457057
0.489867
0.522727
0.550404
0.460264
0.496784
0.534834
0.568516
0.460236
0.499063
0.541263
0.580923
0.456736
0.496068
0.540611
0.585213
0.45069
0.488369
0.532553
0.579965
0.442603
0.477427
0.519136
0.565972
0.433266
0.464393
0.501951
0.545871
0.423493
0.450744
0.483104
0.521875
0.41377
0.437723
0.464759
0.496728
0.403996
0.425896
0.448705
0.473899
0.393368
0.414728
0.435388
0.455954
0.380563
0.402521
0.423162
0.442285
0.364306
0.387104
0.408851
0.428936
0.344076
0.367021
0.389591
0.411131
0.320465
0.342368
0.36452
0.386393
0.294945
0.31469
0.335031
0.35559
0.269278
0.286186
0.303755
0.321727
0.244952
0.258856
0.273309
0.288132
0.222894
0.234011
0.245501
0.257236
0.203475
0.21222
0.22117
0.230231
0.18667
0.193499
0.200406
0.207319
0.172252
0.177576
0.182894
0.188154
0.159935
0.164086
0.168184
0.17219
0.149445
0.152678
0.155835
0.158891
0.140551
0.143057
0.14548
0.147803
0.133061
0.134984
0.136826
0.138576
0.126812
0.128261
0.129635
0.130928
0.121654
0.122714
0.123705
0.124626
0.117455
0.118183
0.118852
0.119463
0.114093
0.114528
0.114914
0.115253
0.111471
0.111631
0.111752
0.111838
0.109519
0.10941
0.109264
0.109093
0.108181
0.107812
0.107388
0.106939
0.107359
0.106797
0.106115
0.105368
0.106678
0.106182
0.105434
0.104453
0.104524
0.104552
0.104307
0.103693
0.439853
0.437364
0.433192
0.428099
0.422886
0.418018
0.413306
0.407916
0.400803
0.39131
0.379442
0.365754
0.350187
0.333301
0.317086
0.302436
0.289786
0.279449
0.271423
0.265446
0.261203
0.258643
0.257462
0.255957
0.249779
0.237018
0.221654
0.205464
0.188712
0.172379
0.157329
0.143815
0.131659
0.120496
0.109888
0.0993364
0.0881903
0.0754239
0.058648
0.034086
0.446455
0.444493
0.439971
0.433749
0.426885
0.420159
0.413608
0.406441
0.397566
0.386457
0.373365
0.358972
0.342944
0.326279
0.310694
0.296728
0.284768
0.275065
0.267571
0.262075
0.258464
0.256925
0.256781
0.254696
0.245905
0.231485
0.216055
0.200197
0.183897
0.168085
0.153525
0.140426
0.128618
0.117766
0.107463
0.0972258
0.0864224
0.0740424
0.057737
0.0340709
0.457462
0.455895
0.45053
0.442382
0.432897
0.423355
0.414167
0.404637
0.393607
0.380619
0.366176
0.350857
0.334521
0.318375
0.303549
0.290402
0.27929
0.270386
0.26363
0.258918
0.256427
0.256337
0.256744
0.252499
0.240551
0.225161
0.209989
0.194469
0.178612
0.163334
0.149292
0.136641
0.125219
0.114714
0.104744
0.0948476
0.084412
0.0724473
0.0566539
0.0339624
0.473107
0.471842
0.465155
0.454266
0.441102
0.427698
0.415002
0.40245
0.388848
0.373763
0.357927
0.341742
0.325487
0.310098
0.29611
0.283889
0.273754
0.265814
0.260044
0.256516
0.255702
0.257027
0.256446
0.248504
0.233799
0.21831
0.203566
0.18837
0.17296
0.158229
0.144724
0.13255
0.121542
0.11141
0.101795
0.0922567
0.082205
0.0706739
0.0554233
0.0337698
0.493162
0.492392
0.484152
0.469766
0.451871
0.433673
0.416786
0.40071
0.384037
0.36675
0.349603
0.332894
0.316951
0.302198
0.289014
0.277772
0.268713
0.261924
0.257472
0.255704
0.256831
0.258329
0.254456
0.242115
0.225998
0.211149
0.196849
0.181962
0.167021
0.15286
0.139914
0.128237
0.117664
0.107923
0.098675
0.0895057
0.0798463
0.0687583
0.0540702
0.0335005
0.516943
0.517288
0.507744
0.489407
0.465925
0.44239
0.421161
0.401115
0.381037
0.36156
0.343079
0.325803
0.309855
0.295489
0.283029
0.272766
0.264882
0.259491
0.256867
0.257455
0.259783
0.258803
0.249482
0.233607
0.217745
0.203834
0.189877
0.175308
0.160877
0.147314
0.134945
0.12378
0.113655
0.104314
0.0954408
0.0866442
0.0773792
0.0667369
0.0526209
0.0331629
0.543084
0.545637
0.535762
0.513605
0.484048
0.454968
0.42906
0.404552
0.381113
0.359319
0.339351
0.32121
0.304971
0.290818
0.278987
0.269697
0.263129
0.259532
0.259404
0.261964
0.263096
0.25644
0.241189
0.224058
0.209568
0.196414
0.182689
0.168482
0.154613
0.141676
0.129897
0.119252
0.109579
0.100641
0.0921439
0.0837185
0.0748445
0.0646439
0.0511013
0.0327659
0.569462
0.575679
0.567212
0.542173
0.506542
0.47183
0.440552
0.411425
0.384682
0.360476
0.338848
0.319714
0.303078
0.289034
0.277756
0.269465
0.264493
0.263321
0.265393
0.26746
0.263318
0.249153
0.230651
0.214707
0.201648
0.188878
0.17535
0.161583
0.148325
0.13603
0.124843
0.114716
0.105493
0.0969553
0.0888301
0.0807701
0.0722791
0.0625114
0.0495354
0.0323185
0.593396
0.604546
0.599858
0.574162
0.533175
0.492737
0.455923
0.422448
0.392277
0.365494
0.342083
0.321935
0.30493
0.290994
0.280247
0.273071
0.270208
0.271238
0.27282
0.269686
0.256895
0.237675
0.21994
0.20612
0.193899
0.18125
0.16797
0.154717
0.142103
0.130451
0.119847
0.110228
0.101446
0.0933001
0.0855388
0.0778349
0.0697159
0.0603679
0.047946
0.0318292
0.612236
0.629109
0.630314
0.607841
0.563103
0.517168
0.475352
0.437521
0.403829
0.374432
0.349397
0.328493
0.311346
0.297641
0.287475
0.281553
0.280211
0.280486
0.276606
0.264007
0.244537
0.225388
0.210478
0.198222
0.186251
0.173629
0.160677
0.147991
0.136026
0.125002
0.114961
0.105831
0.097476
0.0897111
0.0823032
0.0749443
0.0671838
0.0582397
0.0463538
0.0313063
0.623353
0.646863
0.654995
0.640094
0.59489
0.54456
0.498135
0.456114
0.41892
0.386926
0.360478
0.33961
0.323072
0.309941
0.300348
0.294822
0.291272
0.285025
0.271231
0.251056
0.231038
0.214956
0.202256
0.190639
0.178678
0.166179
0.153597
0.141491
0.130156
0.119731
0.110223
0.10156
0.0936152
0.0862179
0.0791514
0.0721248
0.0647082
0.0561502
0.044778
0.0307573
0.624786
0.655357
0.669606
0.668252
0.628985
0.574516
0.523568
0.477433
0.436805
0.402256
0.374382
0.353905
0.340088
0.328447
0.318871
0.310826
0.299265
0.281306
0.258931
0.237337
0.219886
0.206371
0.194719
0.183213
0.171239
0.158969
0.146852
0.135294
0.124541
0.114671
0.105664
0.0974428
0.0898891
0.0828452
0.0761075
0.0694001
0.0623119
0.0541204
0.0432356
0.030189
0.614613
0.65321
0.674694
0.685617
0.664448
0.607187
0.550862
0.500495
0.456547
0.41957
0.390269
0.369669
0.358952
0.352381
0.342509
0.327293
0.302467
0.273161
0.246872
0.22642
0.211224
0.198976
0.18758
0.175993
0.164066
0.152089
0.140448
0.12944
0.119227
0.109858
0.101308
0.0935017
0.0863203
0.0796151
0.0731932
0.0667913
0.060015
0.0521689
0.0417392
0.0296106
0.595136
0.64075
0.670222
0.686731
0.688219
0.640877
0.578597
0.524005
0.477094
0.438037
0.407536
0.386793
0.377492
0.3772
0.367273
0.339213
0.300942
0.264916
0.237617
0.21848
0.204385
0.192412
0.180856
0.169126
0.15728
0.145611
0.134419
0.123915
0.114203
0.105306
0.0971855
0.0897653
0.0829341
0.0765506
0.0704295
0.0643176
0.0578343
0.0503096
0.0403032
0.0290383
0.568313
0.618492
0.657407
0.677581
0.682684
0.660583
0.603639
0.54616
0.497398
0.456992
0.425632
0.404871
0.397158
0.399508
0.384011
0.34203
0.296117
0.258124
0.231398
0.213006
0.198997
0.186648
0.174675
0.162742
0.15096
0.139567
0.128778
0.118729
0.109475
0.101013
0.093296
0.0862437
0.0797486
0.0736733
0.0678396
0.0620024
0.0557938
0.0485674
0.0389456
0.0284713
0.536354
0.584039
0.630032
0.658647
0.665832
0.658422
0.620307
0.565638
0.517098
0.476361
0.444379
0.422875
0.415655
0.417337
0.390455
0.338886
0.290985
0.254051
0.22817
0.209662
0.194907
0.181707
0.169111
0.156891
0.145122
0.133957
0.12352
0.113878
0.105044
0.0969892
0.0896535
0.0829529
0.07678
0.0710005
0.0654404
0.0598616
0.0539074
0.0469527
0.0376741
0.0279098
0.504309
0.542421
0.584298
0.620208
0.63766
0.639164
0.624357
0.5851
0.538139
0.497564
0.465127
0.440906
0.428786
0.423517
0.387089
0.334013
0.288557
0.253442
0.22763
0.208027
0.19186
0.177467
0.164099
0.151523
0.139725
0.128747
0.118624
0.109355
0.100913
0.0932431
0.0862715
0.0799084
0.0740451
0.0685483
0.0632471
0.0579088
0.052186
0.0454734
0.0364949
0.0273541
0.478346
0.504774
0.534584
0.565463
0.589667
0.602844
0.607441
0.595823
0.561639
0.523121
0.491516
0.462888
0.438538
0.415004
0.37517
0.330891
0.289865
0.255683
0.228769
0.20729
0.189328
0.173604
0.159436
0.146506
0.134679
0.123882
0.114059
0.105149
0.0970833
0.0897835
0.083163
0.0771252
0.0715589
0.0663308
0.0612718
0.0561535
0.0506369
0.0441338
0.0354126
0.0268051
0.460709
0.4792
0.497481
0.516096
0.534559
0.55088
0.561526
0.560773
0.548224
0.522715
0.494518
0.465658
0.432893
0.401738
0.369917
0.332445
0.293261
0.258476
0.229743
0.206211
0.18654
0.169648
0.154831
0.141661
0.129876
0.119298
0.109793
0.101246
0.0935537
0.0866174
0.0803389
0.0746154
0.0693332
0.0643583
0.0595227
0.0546012
0.0492629
0.0429354
0.0344299
0.0262638
0.447534
0.464243
0.477782
0.488312
0.496478
0.503027
0.507155
0.506743
0.499871
0.485741
0.466357
0.444542
0.422021
0.400473
0.371769
0.334053
0.294383
0.258597
0.228434
0.203482
0.182708
0.165128
0.150003
0.136818
0.125216
0.11494
0.105798
0.0976348
0.0903232
0.0837493
0.0778062
0.0723867
0.0673748
0.0626356
0.058002
0.0532521
0.0480628
0.0418766
0.0335477
0.0257316
0.431699
0.450563
0.465687
0.47648
0.482838
0.485283
0.484722
0.481793
0.476261
0.467701
0.456194
0.442
0.424676
0.401333
0.368389
0.3289
0.289266
0.25367
0.223429
0.198266
0.177332
0.159743
0.144771
0.131869
0.120635
0.110771
0.102053
0.0943061
0.087389
0.0811795
0.0755666
0.0704404
0.0656834
0.0611606
0.0567059
0.0521011
0.047031
0.0409529
0.032765
0.0252102
0.408164
0.429251
0.447429
0.461879
0.472102
0.478041
0.480041
0.478515
0.473901
0.466186
0.454984
0.439378
0.417816
0.38895
0.353203
0.314362
0.27681
0.243239
0.214534
0.190467
0.170357
0.153455
0.139106
0.126791
0.116114
0.106776
0.0985486
0.0912531
0.0847455
0.0789033
0.0736149
0.0687702
0.0642515
0.0599241
0.055624
0.0511376
0.0461579
0.0401575
0.0320786
0.0247017
0.376664
0.397871
0.417097
0.433509
0.446448
0.455471
0.460266
0.460929
0.457343
0.449206
0.436027
0.417209
0.392351
0.361835
0.327399
0.292006
0.258455
0.22845
0.202562
0.180621
0.162116
0.14646
0.133117
0.12164
0.111681
0.102966
0.0952852
0.08847
0.0823842
0.07691
0.0719387
0.0673619
0.0630632
0.0589096
0.0547399
0.0503462
0.0454307
0.039481
0.0314835
0.0242081
0.340444
0.35964
0.377448
0.393095
0.405899
0.415273
0.420683
0.422057
0.418831
0.410559
0.396911
0.377817
0.3537
0.325663
0.295478
0.265254
0.236793
0.211185
0.188816
0.169587
0.153152
0.13909
0.126997
0.116525
0.10739
0.0993641
0.0922668
0.0859507
0.0802924
0.0751828
0.0705184
0.0661941
0.062096
0.0580942
0.0540319
0.0497079
0.0448339
0.0389122
0.0309726
0.0237312
0.303654
0.319649
0.334559
0.347716
0.358508
0.366381
0.370991
0.37196
0.368702
0.360857
0.348306
0.331282
0.310458
0.286954
0.26219
0.237622
0.214427
0.193329
0.174614
0.158253
0.14404
0.131702
0.120961
0.111565
0.103303
0.0959962
0.0894986
0.0836868
0.0784535
0.0736996
0.0693282
0.0652389
0.0613216
0.0574506
0.053475
0.0492009
0.0443498
0.0384387
0.0305375
0.0232725
0.269498
0.282072
0.293709
0.30387
0.312067
0.317849
0.32111
0.321279
0.317951
0.310915
0.300194
0.286104
0.269276
0.250599
0.231095
0.211743
0.193321
0.176327
0.160988
0.147329
0.135252
0.124598
0.115193
0.106869
0.099477
0.0928858
0.0869825
0.0816668
0.0768468
0.0724339
0.0683383
0.0644648
0.0607084
0.0569489
0.0530421
0.0488021
0.0439601
0.0380471
0.030169
0.022833
0.23963
0.249161
0.25785
0.265281
0.271098
0.275015
0.276889
0.276303
0.273005
0.2669
0.258076
0.246828
0.233647
0.219169
0.204088
0.189053
0.174582
0.161025
0.148569
0.137272
0.127105
0.117989
0.109827
0.102514
0.095952
0.0900476
0.0847156
0.0798754
0.0754488
0.0713566
0.0675161
0.0638382
0.0602237
0.0565587
0.0527062
0.0484887
0.0436467
0.0377241
0.0298581
0.0224136
0.214419
0.221511
0.227847
0.233108
0.237034
0.239514
0.240321
0.239214
0.23606
0.230842
0.223665
0.214769
0.204508
0.193319
0.181662
0.169963
0.158574
0.147745
0.137629
0.128297
0.119759
0.111989
0.104938
0.0985463
0.0927506
0.0874864
0.0826894
0.0782943
0.0742339
0.0704375
0.0668294
0.0633265
0.059836
0.056251
0.0524419
0.0482392
0.0433924
0.0374574
0.0295962
0.022015
0.193496
0.198745
0.203327
0.207003
0.209586
0.211021
0.211109
0.209717
0.206788
0.202342
0.196483
0.189395
0.18133
0.172582
0.163459
0.154246
0.145185
0.136457
0.128187
0.120446
0.113263
0.10664
0.100557
0.0949839
0.0898791
0.0851979
0.0808904
0.0769026
0.073176
0.0696473
0.0662472
0.0628991
0.0595167
0.056
0.0522266
0.0480348
0.0431823
0.0372356
0.0293757
0.0216378
0.176216
0.180107
0.18342
0.185974
0.187646
0.188371
0.188018
0.186516
0.183847
0.180049
0.175212
0.169477
0.163024
0.156056
0.148782
0.141401
0.13408
0.126957
0.120129
0.113662
0.107593
0.101934
0.0966836
0.0918246
0.0873314
0.0831703
0.0793012
0.0756782
0.0722498
0.0689589
0.0657425
0.06253
0.0592417
0.0557841
0.0520417
0.0478599
0.0430038
0.0370493
0.0291901
0.0212827
0.16193
0.164821
0.167218
0.168977
0.170034
0.1703
0.169698
0.168192
0.165786
0.162521
0.158473
0.153752
0.148486
0.142824
0.136911
0.130888
0.12488
0.118988
0.113292
0.107848
0.102691
0.0978386
0.0932955
0.0890526
0.0850917
0.0813859
0.0779017
0.074599
0.0714318
0.0683488
0.0652924
0.062198
0.0589918
0.0555865
0.0518729
0.0477024
0.042847
0.0368909
0.0290344
0.0209502
0.150094
0.152239
0.153967
0.155166
0.155789
0.155756
0.15502
0.153565
0.151403
0.148575
0.145143
0.141191
0.136818
0.132132
0.127241
0.122248
0.117246
0.112314
0.107515
0.102896
0.0984873
0.0943072
0.0903607
0.0866423
0.0831374
0.0798233
0.0766707
0.0736438
0.0707017
0.0677977
0.0648794
0.0618876
0.0587537
0.0553958
0.0517103
0.0475542
0.0427052
0.0367546
0.0289048
0.0206409
0.140285
0.141859
0.143085
0.143876
0.144184
0.143951
0.143145
0.141761
0.139815
0.137343
0.134397
0.131043
0.127356
0.12342
0.119315
0.115119
0.110905
0.106733
0.102654
0.0987042
0.0949105
0.0912875
0.0878395
0.0845619
0.0814417
0.0784588
0.0755868
0.0727939
0.0700428
0.0672912
0.0644913
0.0615884
0.0585187
0.0552049
0.0515482
0.0474103
0.0425741
0.0366366
0.0287984
0.0203554
0.132177
0.133302
0.134135
0.134615
0.134688
0.134312
0.133468
0.132157
0.130396
0.128215
0.125657
0.122775
0.119629
0.116281
0.112795
0.10923
0.105643
0.10208
0.0985818
0.0951774
0.0918875
0.0887233
0.0856878
0.0827759
0.0799755
0.0772683
0.0746305
0.072033
0.0694422
0.0668195
0.0641207
0.0612952
0.058283
0.055011
0.0513843
0.0472689
0.0424516
0.0365348
0.0287134
0.0200942
0.125503
0.126267
0.126786
0.127014
0.1269
0.126415
0.125547
0.124302
0.122695
0.120752
0.118508
0.116007
0.113293
0.110415
0.107424
0.104366
0.101283
0.0982122
0.095185
0.0922241
0.0893451
0.0865562
0.0838586
0.0812466
0.0787089
0.0762286
0.0737838
0.0713482
0.0688909
0.0663764
0.063764
0.0610061
0.0580462
0.0548144
0.0512192
0.0471301
0.0423377
0.0364482
0.0286489
0.0198577
0.12003
0.120494
0.120754
0.120767
0.120495
0.119918
0.119031
0.11784
0.116361
0.114615
0.112629
0.110437
0.108075
0.10558
0.102991
0.100343
0.0976692
0.0949985
0.0923542
0.089754
0.0872095
0.0847261
0.0823036
0.0799362
0.0776128
0.0753179
0.0730314
0.0707291
0.0683828
0.0659594
0.0634208
0.0607224
0.0578104
0.0546176
0.0510554
0.0469961
0.0422334
0.0363769
0.0286041
0.0196459
0.115551
0.115751
0.115779
0.115599
0.115184
0.114522
0.113615
0.112469
0.111096
0.109515
0.107745
0.105811
0.103741
0.101563
0.0993046
0.0969942
0.0946565
0.0923133
0.0899825
0.0876773
0.0854061
0.0831722
0.0809744
0.0788067
0.0766586
0.0745156
0.0723593
0.0701674
0.0679136
0.0655672
0.0630925
0.0604469
0.0575791
0.0544243
0.0508961
0.0468694
0.0421404
0.0363213
0.0285788
0.0194591
0.111882
0.11183
0.111632
0.11126
0.1107
0.109952
0.10902
0.107909
0.106628
0.105189
0.103605
0.101894
0.100073
0.098163
0.0961847
0.0941581
0.0921019
0.0900325
0.0879631
0.0859034
0.0838593
0.0818327
0.0798215
0.0778197
0.0758174
0.0738011
0.0717538
0.0696548
0.0674797
0.0651996
0.0627807
0.0601827
0.0573562
0.0542384
0.050745
0.046753
0.0420605
0.0362818
0.0285724
0.0192969
0.108876
0.108557
0.10811
0.107522
0.106801
0.105955
0.10499
0.103907
0.102709
0.101399
0.0999826
0.0984689
0.0968685
0.0951942
0.0934599
0.0916797
0.089867
0.0880336
0.0861891
0.0843405
0.0824916
0.0806433
0.0787927
0.076934
0.0750577
0.0731512
0.0711988
0.0691812
0.0670754
0.0648544
0.0624861
0.059932
0.0571446
0.054063
0.0506048
0.0466486
0.0419947
0.0362584
0.0285837
0.0191586
0.10643
0.105798
0.105045
0.104195
0.103281
0.102321
0.101314
0.100254
0.0991336
0.097945
0.0966848
0.0953532
0.0939537
0.0924925
0.0909778
0.0894185
0.0878235
0.086201
0.0845577
0.0828983
0.0812249
0.0795372
0.0778322
0.0761036
0.0743427
0.0725375
0.0706731
0.0687315
0.066691
0.064526
0.0622061
0.0596944
0.0569452
0.0538994
0.0504764
0.046557
0.0419428
0.0362501
0.0286109
0.0190431
0.104503
0.103471
0.102325
0.101152
0.100016
0.0989291
0.0978792
0.0968427
0.0957966
0.094722
0.0936058
0.0924405
0.0912231
0.0899543
0.0886374
0.0872773
0.0858793
0.0844484
0.0829888
0.0815032
0.0799924
0.0784551
0.0768874
0.0752834
0.073634
0.0719279
0.0701509
0.0682856
0.0663115
0.0642041
0.061934
0.059466
0.0567558
0.0537462
0.0503584
0.0464752
0.0419004
0.0362511
0.0286488
0.0189465
0.103085
0.101524
0.0999056
0.0983943
0.0970511
0.0958621
0.0947857
0.0937773
0.0927994
0.0918229
0.0908276
0.0898003
0.0887335
0.0876243
0.0864725
0.0852799
0.0840489
0.0827824
0.0814824
0.0801498
0.0787842
0.0773831
0.0759423
0.0744552
0.0729128
0.0713039
0.0696145
0.0678276
0.0659234
0.063878
0.0616628
0.0592434
0.0565766
0.0536064
0.0502557
0.0464092
0.041873
0.036265
0.0286947
0.01887
0.101881
0.0998826
0.0979476
0.0962697
0.0948518
0.093641
0.092575
0.0915985
0.0906686
0.089753
0.0888296
0.0878835
0.0869059
0.0858922
0.0848407
0.0837515
0.0826259
0.0814648
0.0802691
0.0790386
0.0777718
0.0764655
0.0751148
0.0737127
0.07225
0.0707155
0.0690951
0.0673722
0.0655268
0.0635356
0.0613702
0.0589966
0.056372
0.053441
0.0501272
0.0463163
0.0418162
0.0362473
0.0287165
0.0187803
)
;

boundaryField
{
    leftWall
    {
        type            kqRWallFunction;
        value           nonuniform List<scalar> 0();
    }
    rightWall
    {
        type            kqRWallFunction;
        value           nonuniform List<scalar> 
43
(
0.034086
0.0340709
0.0339624
0.0337698
0.0335005
0.0331629
0.0327659
0.0323185
0.0318292
0.0313063
0.0307573
0.030189
0.0296106
0.0290383
0.0284713
0.0279098
0.0273541
0.0268051
0.0262638
0.0257316
0.0252102
0.0247017
0.0242081
0.0237312
0.0232725
0.022833
0.0224136
0.022015
0.0216378
0.0212827
0.0209502
0.0206409
0.0203554
0.0200942
0.0198577
0.0196459
0.0194591
0.0192969
0.0191586
0.0190431
0.0189465
0.01887
0.0187803
)
;
    }
    lowerWall
    {
        type            kqRWallFunction;
        value           nonuniform List<scalar> 0();
    }
    atmosphere
    {
        type            inletOutlet;
        inletValue      uniform 0.1;
        value           nonuniform List<scalar> 
45
(
0.1
0.1
0.1
0.1
0.1
0.101881
0.0998826
0.0979476
0.0962697
0.0948518
0.093641
0.092575
0.0915985
0.0906686
0.089753
0.0888296
0.0878835
0.0869059
0.0858922
0.0848407
0.0837515
0.0826259
0.0814648
0.0802691
0.0790386
0.0777718
0.0764655
0.0751148
0.0737127
0.07225
0.0707155
0.0690951
0.0673722
0.0655268
0.0635356
0.0613702
0.0589966
0.056372
0.053441
0.0501272
0.0463163
0.0418162
0.0362473
0.0287165
0.0187803
)
;
    }
    defaultFaces
    {
        type            empty;
    }
    procBoundary3to1
    {
        type            processor;
        value           nonuniform List<scalar> 
45
(
0.42388
0.430394
0.435015
0.437677
0.438317
0.436998
0.433889
0.429657
0.425036
0.420689
0.416909
0.413389
0.409268
0.403496
0.395254
0.384309
0.371131
0.355985
0.339104
0.322403
0.307226
0.294058
0.283267
0.274899
0.268687
0.264183
0.261069
0.259005
0.25719
0.252533
0.241586
0.226621
0.210155
0.192944
0.176109
0.160606
0.146725
0.134267
0.122833
0.111959
0.101125
0.0896702
0.076555
0.0593617
0.0340009
)
;
    }
    procBoundary3to2
    {
        type            processor;
        value           nonuniform List<scalar> 
43
(
0.410621
0.406545
0.403497
0.401626
0.400822
0.400761
0.400965
0.400912
0.400158
0.398437
0.395705
0.392071
0.387441
0.381841
0.375244
0.367461
0.358117
0.346724
0.332857
0.316393
0.297682
0.277519
0.256938
0.236931
0.218237
0.201272
0.186174
0.172897
0.161305
0.151241
0.142558
0.135126
0.128831
0.123568
0.119236
0.115743
0.113005
0.110954
0.109523
0.108609
0.107965
0.106963
0.10408
)
;
    }
}


// ************************************************************************* //
