/*--------------------------------*- C++ -*----------------------------------*\
  =========                 |
  \\      /  F ield         | OpenFOAM: The Open Source CFD Toolbox
   \\    /   O peration     | Website:  https://openfoam.org
    \\  /    A nd           | Version:  9
     \\/     M anipulation  |
\*---------------------------------------------------------------------------*/
FoamFile
{
    format      ascii;
    class       volScalarField;
    location    "0.4";
    object      p_rgh;
}
// * * * * * * * * * * * * * * * * * * * * * * * * * * * * * * * * * * * * * //

dimensions      [1 -1 -2 0 0 0 0];

internalField   nonuniform List<scalar> 
1935
(
-2.99814
-3.02709
-3.05489
-3.08017
-3.10067
-3.11486
-3.12136
-3.11896
-3.10658
-3.08299
-3.04673
-2.9961
-2.93009
-2.84802
-2.74952
-2.6347
-2.50458
-2.36122
-2.2075
-2.0471
-1.88421
-1.72274
-1.56566
-1.41501
-1.27221
-1.13832
-1.01401
-0.899545
-0.794915
-0.699727
-0.613262
-0.534775
-0.463716
-0.399624
-0.341881
-0.289649
-0.242041
-0.198292
-0.157805
-0.120152
-0.0856553
-0.0555247
-0.0200823
-3.10714
-3.21031
-3.30801
-3.39637
-3.1391
-3.24495
-3.34389
-3.43169
-3.17077
-3.27856
-3.37807
-3.46463
-3.19901
-3.30837
-3.408
-3.49277
-3.22215
-3.33273
-3.43232
-3.51475
-3.23878
-3.35039
-3.45011
-3.53068
-3.24754
-3.36083
-3.46102
-3.54053
-3.24757
-3.36317
-3.46547
-3.54626
-3.23785
-3.35706
-3.46343
-3.55069
-3.21695
-3.3408
-3.45195
-3.55111
-3.18319
-3.31179
-3.43083
-3.53849
-3.13447
-3.26796
-3.39524
-3.5031
-3.06917
-3.2064
-3.34136
-3.46546
-2.98607
-3.12519
-3.26588
-3.40221
-2.8842
-3.02261
-3.16626
-3.31107
-2.76288
-2.89673
-3.03913
-3.18827
-2.62276
-2.74741
-2.88254
-3.02805
-2.46616
-2.57719
-2.69876
-2.83176
-2.29689
-2.39103
-2.49392
-2.60654
-2.11988
-2.19564
-2.2773
-2.36512
-1.94086
-1.99859
-2.05924
-2.12233
-1.765
-1.80659
-1.84841
-1.88965
-1.5958
-1.62386
-1.65004
-1.67352
-1.4351
-1.45219
-1.4661
-1.47614
-1.28397
-1.29236
-1.29702
-1.29742
-1.1433
-1.14502
-1.14302
-1.13678
-1.01368
-1.01048
-1.0038
-0.993061
-0.895227
-0.888377
-0.878306
-0.864385
-0.787687
-0.778111
-0.765425
-0.749153
-0.690447
-0.678879
-0.66423
-0.646345
-0.602493
-0.589536
-0.573653
-0.555
-0.522825
-0.508961
-0.492592
-0.474036
-0.45088
-0.436556
-0.420342
-0.402533
-0.386372
-0.372077
-0.356467
-0.339721
-0.328788
-0.314986
-0.300227
-0.284585
-0.277166
-0.26415
-0.250316
-0.235707
-0.230337
-0.218166
-0.205225
-0.191599
-0.187314
-0.175894
-0.163777
-0.151147
-0.147448
-0.136665
-0.125318
-0.113726
-0.110408
-0.100242
-0.089616
-0.0790228
-0.0766837
-0.0671744
-0.05683
-0.0462032
-0.0475367
-0.0381344
-0.0252721
-0.00863521
-0.012186
-0.00139394
0.0167592
0.0444048
-3.47576
-3.53867
-3.58284
-3.60626
-3.61236
-3.6018
-3.57967
-3.55348
-3.53362
-3.52825
-3.5231
-3.42001
-1.73617
32.318
757.303
2107.62
2227.91
2247.33
2262.95
2096.44
972.898
68.1216
22.4764
9.21869
5.52125
4.62602
4.43708
4.42506
4.44712
4.46805
4.48314
4.49364
4.50055
4.50528
4.5108
4.52068
4.5371
4.55993
4.58454
4.60314
-3.50822
-3.56669
-3.60191
-3.61715
-3.61504
-3.5976
-3.56879
-3.53366
-3.50059
-3.46964
-3.36148
-2.60278
3.14022
136.229
1268.03
2262.46
2290.52
2300.01
2302.77
1915.6
544.257
48.0492
16.7653
7.39584
4.91744
4.28677
4.16035
4.17182
4.20842
4.2411
4.26644
4.28563
4.29987
4.31106
4.32227
4.33661
4.35579
4.37961
4.40395
4.42206
-3.53045
-3.58814
-3.61246
-3.61909
-3.61131
-3.59008
-3.55651
-3.51312
-3.45364
-3.32081
-2.70776
0.931176
28.0234
491.244
1987.13
2319.39
2346.25
2364.9
2267.22
1409.31
205.342
33.5039
12.0242
6.11846
4.42845
3.95838
3.88684
3.92203
3.97252
4.01655
4.05142
4.07829
4.09914
4.11659
4.13354
4.15224
4.17371
4.19774
4.22096
4.23791
-3.56128
-3.42099
-3.325
-3.54245
-3.60544
-3.58058
-3.54201
-3.47589
-3.30591
-2.61037
0.615712
18.6141
232.909
1473.05
2336.63
2368.43
2389.38
2377.58
1989.24
650.87
67.5531
21.5614
8.92425
5.15835
3.93803
3.63233
3.62063
3.67839
3.74158
3.79567
3.83893
3.87284
3.89999
3.92334
3.94545
3.96788
3.99116
4.01515
4.03715
4.05289
-3.56415
-3.0748
-2.96298
-3.28028
-3.59646
-3.57291
-3.5324
-3.40856
-2.63608
4.77347
26.7241
265.164
1320.73
2348.4
2389.23
2416.54
2436.32
2228.88
1138.46
142.354
34.9212
13.831
6.73679
4.2439
3.4714
3.32701
3.36698
3.44404
3.51801
3.58036
3.63066
3.67089
3.70392
3.73262
3.7591
3.78447
3.80909
3.83297
3.85392
3.86864
-3.47084
-2.86493
-2.89682
-3.22882
-3.58858
-3.5672
-3.52907
-3.4791
2.81406
78.626
571.929
1738.48
2380.15
2427.25
2448.96
2463.93
2345.79
1480.71
235.689
46.2716
18.4432
8.55236
4.86322
3.44964
3.0706
3.0521
3.13081
3.22221
3.30421
3.37276
3.42863
3.47421
3.51237
3.54562
3.57563
3.60324
3.62877
3.65238
3.67233
3.6861
-3.34482
-2.61203
-3.06876
-3.50459
-3.57868
-3.52719
-3.4686
-3.46078
-3.51256
696.569
2133.84
2420.16
2466.14
2485.36
2500.15
2409.25
1645.16
325.484
53.8294
21.6224
9.35559
4.80838
3.4277
2.84853
2.74509
2.81089
2.91435
3.01465
3.10166
3.17435
3.23434
3.28418
3.3265
3.36335
3.39602
3.4252
3.45125
3.47443
3.49335
3.50618
-3.27896
-2.45464
-3.29721
-3.55094
-3.55653
-3.34766
-2.07374
-1.05383
1.61196
1525.1
2464.41
2513.28
2528.92
2539.61
2462.6
1716.61
379.168
56.941
23.9152
10.2805
4.87465
2.97253
2.50352
2.43861
2.49148
2.60192
2.71747
2.82163
2.91089
2.98591
3.04871
3.10172
3.14713
3.18656
3.22104
3.25119
3.27741
3.30004
3.31791
3.3298
-3.25833
-2.22793
-3.31051
-3.55322
-3.4135
-2.00736
6.58465
168.133
991.28
1391.01
1868.06
2240.3
2476.97
2363.92
1650.28
404.475
51.1345
22.0882
10.362
4.93742
2.83412
2.19349
2.06936
2.16767
2.29296
2.42017
2.53861
2.64273
2.73205
2.80791
2.87235
2.92739
2.97479
3.0158
3.05131
3.0819
3.10802
3.12999
3.14683
3.1578
-3.42801
-1.86449
-2.74199
-3.59643
-3.61673
23.3332
227.626
1452.49
2167.8
1842.51
652.808
576.617
800.318
703.726
265.404
49.4771
18.4772
8.53617
4.33438
2.58966
1.94695
1.803
1.86063
1.98894
2.13035
2.25971
2.37561
2.47717
2.56498
2.64052
2.70547
2.76143
2.80973
2.85142
2.88729
2.91791
2.94372
2.96495
2.98076
2.99086
-3.45483
-1.84295
-2.42196
-3.61722
-3.71806
167.495
1407.1
2233.49
2256.7
2257.18
954.654
165.491
81.4082
45.3609
24.9203
13.5548
6.76032
3.49376
2.16305
1.66869
1.54383
1.59593
1.7178
1.85583
1.99149
2.11579
2.22647
2.32402
2.4093
2.48353
2.54796
2.60378
2.65204
2.69366
2.72936
2.7597
2.78501
2.80542
2.82023
2.82955
-3.59883
-2.78708
-0.982139
-3.2961
-3.42915
270.283
2191.16
2317.55
2329.22
2309.13
1905.98
295.609
39.4367
20.7804
8.80214
4.5619
2.68876
1.76468
1.38419
1.30162
1.35851
1.47278
1.60662
1.74157
1.86879
1.98508
2.08947
2.18231
2.26435
2.33644
2.39944
2.45422
2.50169
2.54266
2.57782
2.60762
2.63227
2.65178
2.66556
2.67433
-3.55728
-3.45415
-0.893896
-2.6006
-3.43617
-1.58853
1906.02
2403.61
2375.23
2363.18
2356.61
757.536
22.934
9.08918
4.42911
2.02483
1.42569
1.15972
1.101
1.15436
1.25949
1.38368
1.5132
1.639
1.75689
1.86502
1.96297
2.05091
2.12927
2.19857
2.25939
2.31246
2.3586
2.39854
2.43289
2.46194
2.48577
2.50423
2.51674
2.52572
-3.5183
-3.59953
-2.30357
-0.378744
-3.43326
-3.02894
808.627
2437.41
2437.68
2421.95
2412.26
1593.52
70.7898
4.0916
2.18757
1.2064
0.997694
0.949672
0.990243
1.07914
1.18983
1.30896
1.42886
1.54448
1.6531
1.75353
1.84533
1.92842
2.0029
2.06901
2.12722
2.1782
2.2227
2.26139
2.29471
2.32282
2.34567
2.36307
2.37449
2.38308
-3.45318
-3.5453
-3.57361
-0.638081
1.06905
-0.492878
2.12897
1722.9
2498.99
2486.63
2469.64
1645.33
72.8279
3.35339
1.33086
0.88261
0.823058
0.853315
0.924999
1.02032
1.12736
1.23857
1.34896
1.45528
1.55568
1.64918
1.73525
1.81358
1.88404
1.94678
2.00222
2.051
2.09377
2.13108
2.16321
2.1902
2.21194
2.22821
2.2385
2.24666
-3.34431
-3.48539
-3.52873
-3.06446
3.71038
6.77034
5.17602
257.072
1797.54
2552.37
2396.43
1168.79
47.7892
4.2483
1.04816
0.705689
0.716075
0.779187
0.864277
0.961198
1.0641
1.16846
1.27108
1.36984
1.46339
1.55086
1.63166
1.70537
1.77184
1.8312
1.8839
1.9305
1.97154
2.00739
2.0382
2.06393
2.08443
2.09953
2.10874
2.11627
-3.18797
-3.35548
-3.47458
-3.40185
-0.427109
7.18089
14.7273
13.004
287.326
907.265
734.86
284.89
46.3984
3.7984
0.55069
0.56358
0.615755
0.701806
0.797528
0.897003
0.997733
1.09751
1.19453
1.28749
1.37546
1.4577
1.53366
1.60302
1.66568
1.72187
1.77199
1.81652
1.85583
1.89015
1.9195
1.94382
1.96297
1.97687
1.98507
1.99179
-2.98162
-3.14701
-3.30572
-3.36975
-2.53737
3.753
8.49925
9.60433
12.7089
23.5567
23.963
10.7314
11.7778
0.384744
0.261066
0.383235
0.498777
0.614265
0.723453
0.827936
0.928943
1.02631
1.11954
1.20808
1.29139
1.36902
1.4406
1.50597
1.56519
1.61851
1.66629
1.70886
1.74644
1.77911
1.80687
1.82964
1.84737
1.86004
1.8673
1.87313
-2.73397
-2.87575
-3.01971
-3.1288
-2.71055
-1.20426
0.741462
4.88648
5.36439
1.88717
2.48248
0.469534
-0.79777
-0.352593
0.00361025
0.214781
0.384672
0.526024
0.647792
0.758008
0.860378
0.956464
1.04687
1.13172
1.21096
1.28444
1.35208
1.41391
1.4701
1.52089
1.56653
1.60721
1.643
1.67393
1.69998
1.72113
1.73739
1.74883
1.75522
1.76014
-2.46287
-2.56926
-2.6763
-2.77344
-2.80605
-2.29306
-1.29751
-0.449061
-0.837928
-1.42409
-1.11089
-1.02644
-0.913916
-0.469919
-0.130384
0.112102
0.300424
0.451645
0.579642
0.69272
0.795302
0.889764
0.977354
1.05871
1.13415
1.20385
1.26798
1.32671
1.38024
1.42875
1.47237
1.51115
1.54509
1.57418
1.59845
1.61795
1.63278
1.64303
1.64863
1.65264
-2.19003
-2.2601
-2.32533
-2.37775
-2.39797
-2.24384
-2.01274
-1.79153
-1.71002
-1.62876
-1.36568
-1.05547
-0.763053
-0.42787
-0.148731
0.0719033
0.249701
0.39718
0.52372
0.635333
0.735792
0.827418
0.911643
0.989358
1.06114
1.12737
1.18835
1.24432
1.29543
1.34178
1.38338
1.42019
1.4522
1.47941
1.5019
1.5198
1.53326
1.5424
1.54728
1.55043
-1.93126
-1.97041
-2.00138
-2.0181
-2.00952
-1.95092
-1.85321
-1.72685
-1.5809
-1.39739
-1.15013
-0.876531
-0.609552
-0.351942
-0.127683
0.0613671
0.221432
0.358968
0.479199
0.58604
0.682271
0.769838
0.850095
0.923988
0.992184
1.05515
1.11323
1.1666
1.21537
1.25954
1.29904
1.3338
1.36382
1.38916
1.40995
1.42636
1.43856
1.44669
1.45093
1.45328
-1.69445
-1.70972
-1.71505
-1.70633
-1.6779
-1.62371
-1.54205
-1.43099
-1.29054
-1.11897
-0.91735
-0.700861
-0.485592
-0.281551
-0.0976385
0.0643629
0.206605
0.332062
0.443622
0.543733
0.634361
0.717031
0.792904
0.86285
0.9275
0.987298
1.04252
1.0933
1.13965
1.18151
1.2188
1.25145
1.27949
1.30303
1.32224
1.33732
1.3484
1.35564
1.35931
1.36092
-1.48186
-1.48008
-1.4678
-1.44231
-1.40072
-1.34027
-1.25941
-1.15614
-1.03082
-0.885005
-0.722688
-0.551574
-0.380305
-0.215951
-0.0635052
0.0751469
0.200259
0.313001
0.414843
0.507256
0.591564
0.66889
0.740146
0.806043
0.8671
0.923666
0.975935
1.02397
1.06773
1.10715
1.14213
1.17266
1.1988
1.22068
1.23847
1.25238
1.2625
1.26895
1.2721
1.27306
-1.29265
-1.27958
-1.25633
-1.22121
-1.17287
-1.11015
-1.03146
-0.936873
-0.827051
-0.703822
-0.570475
-0.431674
-0.292548
-0.157493
-0.0297183
0.089137
0.198638
0.299078
0.391129
0.475616
0.553377
0.625178
0.691677
0.753395
0.810713
0.863872
0.912989
0.958078
0.999085
1.03594
1.06859
1.09706
1.12141
1.14179
1.15835
1.17124
1.18055
1.18632
1.18899
1.18937
-1.12507
-1.10503
-1.07566
-1.036
-0.985474
-0.923554
-0.849729
-0.76429
-0.668196
-0.563098
-0.451409
-0.336179
-0.220611
-0.107546
0.000864064
0.1033
0.199163
0.288367
0.371152
0.447934
0.519197
0.585425
0.64705
0.704425
0.757804
0.80734
0.853097
0.895067
0.933207
0.96747
0.997837
1.02434
1.04706
1.0661
1.08159
1.09362
1.10221
1.10738
1.10962
1.1095
-0.976821
-0.952707
-0.920415
-0.87948
-0.829709
-0.770878
-0.702933
-0.626363
-0.542138
-0.451648
-0.35668
-0.259304
-0.161633
-0.0655591
0.0274201
0.116278
0.200427
0.279622
0.353867
0.423324
0.48824
0.548893
0.605547
0.658425
0.707688
0.753432
0.795692
0.834462
0.869717
0.901436
0.929617
0.954294
0.975523
0.993375
1.00792
1.01918
1.02715
1.03178
1.03361
1.03306
-0.845207
-0.818947
-0.7858
-0.745568
-0.698235
-0.643692
-0.582073
-0.513913
-0.44007
-0.361669
-0.280054
-0.196695
-0.113056
-0.0304589
0.0500088
0.127541
0.201601
0.271889
0.338287
0.400809
0.459557
0.514676
0.566319
0.614622
0.659688
0.701578
0.74032
0.775917
0.80836
0.837642
0.863767
0.88675
0.906613
0.923379
0.937053
0.947615
0.954991
0.959136
0.960578
0.959646
-0.728155
-0.701108
-0.668484
-0.630165
-0.586158
-0.536409
-0.481104
-0.420724
-0.355979
-0.287761
-0.217099
-0.145084
-0.0727893
-0.00119298
0.0688751
0.136762
0.201995
0.264268
0.323413
0.379375
0.432175
0.481881
0.528578
0.572349
0.613262
0.651364
0.686679
0.719218
0.748981
0.775964
0.800157
0.821552
0.840129
0.855858
0.868694
0.87857
0.885376
0.889048
0.890126
0.888874
-0.624452
-0.597624
-0.566411
-0.530662
-0.490325
-0.445376
-0.396004
-0.342616
-0.285786
-0.226227
-0.164745
-0.102183
-0.0393647
0.0229503
0.0841054
0.143567
0.200929
0.255912
0.308343
0.358139
0.405283
0.4498
0.491736
0.531142
0.568066
0.602544
0.6346
0.664246
0.691482
0.716294
0.738657
0.758527
0.775848
0.790546
0.802534
0.811709
0.817938
0.821149
0.821882
0.820362
-0.533082
-0.507218
-0.477925
-0.444985
-0.408299
-0.367866
-0.323875
-0.276674
-0.226738
-0.174647
-0.121044
-0.0665965
-0.011952
0.0422905
0.0956083
0.14757
0.197841
0.246179
0.292427
0.336497
0.378353
0.417997
0.455452
0.490748
0.523919
0.554993
0.583989
0.610916
0.635766
0.658511
0.679102
0.69747
0.713524
0.727159
0.738258
0.746698
0.752334
0.755089
0.7555
0.753763
-0.452852
-0.428467
-0.401333
-0.371199
-0.337974
-0.301697
-0.262558
-0.220867
-0.177027
-0.131512
-0.0848384
-0.0375318
0.00989924
0.0569871
0.103322
0.148562
0.192436
0.234744
0.275348
0.314162
0.351144
0.386279
0.419576
0.451051
0.480728
0.508625
0.534756
0.55912
0.581696
0.602441
0.621286
0.638139
0.652888
0.665407
0.675565
0.683229
0.688252
0.690557
0.690671
0.688768
-0.38258
-0.359934
-0.335013
-0.30758
-0.2776
-0.245161
-0.210455
-0.173758
-0.135412
-0.0957989
-0.0553238
-0.0143934
0.0266018
0.0673027
0.107393
0.146606
0.184724
0.221583
0.257062
0.291082
0.323597
0.354584
0.384042
0.411978
0.438404
0.463332
0.486763
0.508687
0.529069
0.54785
0.564948
0.580256
0.593651
0.604999
0.614166
0.62102
0.625418
0.627286
0.627132
0.62511
-0.321162
-0.300285
-0.277505
-0.252638
-0.225717
-0.196869
-0.166279
-0.134185
-0.100861
-0.0666053
-0.0317246
0.00347524
0.0387009
0.0736813
0.108175
0.141973
0.174904
0.206831
0.23765
0.26729
0.295705
0.322869
0.348773
0.373417
0.396803
0.418934
0.4398
0.459376
0.477617
0.494454
0.509794
0.523526
0.535524
0.545658
0.553798
0.559823
0.563596
0.565047
0.564659
0.562561
-0.267358
-0.248153
-0.227405
-0.204992
-0.181
-0.155567
-0.128857
-0.101055
-0.0723691
-0.0430168
-0.0132217
0.0167935
0.0468132
0.0766356
0.106077
0.134977
0.163198
0.190629
0.217181
0.242793
0.26742
0.291038
0.31363
0.335191
0.355713
0.375186
0.39359
0.410891
0.427031
0.441937
0.455513
0.467649
0.478227
0.487126
0.494229
0.499424
0.502587
0.503649
0.503064
0.500931
-0.219714
-0.202111
-0.183349
-0.163358
-0.142242
-0.120124
-0.0971266
-0.0733803
-0.0490249
-0.0242083
0.000915762
0.0261911
0.0514635
0.0765848
0.101418
0.125839
0.14974
0.173033
0.195645
0.217522
0.238626
0.25893
0.278415
0.297066
0.314866
0.331796
0.347825
0.362909
0.376987
0.389982
0.401802
0.412346
0.421506
0.429177
0.435256
0.439643
0.442227
0.442937
0.442192
0.440063
-0.176839
-0.160889
-0.144191
-0.126697
-0.108496
-0.0896698
-0.0702903
-0.0504302
-0.0301699
-0.00959845
0.0111863
0.0320802
0.0529761
0.0737679
0.0943544
0.114643
0.134551
0.154008
0.172956
0.191351
0.209157
0.226346
0.242894
0.25878
0.27398
0.288463
0.302191
0.315116
0.327174
0.338292
0.348386
0.357365
0.365139
0.371616
0.376708
0.38033
0.382376
0.382778
0.381916
0.379826
-0.137733
-0.123625
-0.109197
-0.0943785
-0.0792079
-0.063712
-0.0479059
-0.0318104
-0.0154569
0.00111039
0.0178355
0.0346526
0.0514895
0.0682715
0.0849258
0.101384
0.117584
0.133472
0.149001
0.164134
0.178836
0.19308
0.206838
0.220081
0.23278
0.244899
0.256396
0.26722
0.27731
0.286601
0.295018
0.302486
0.308928
0.314269
0.318435
0.321349
0.322917
0.323061
0.322128
0.320116
-0.101844
-0.0898835
-0.0780396
-0.0661505
-0.0541741
-0.0420729
-0.0298116
-0.0173704
-0.00474738
0.00804258
0.0209701
0.0339941
0.047066
0.060134
0.0731458
0.0860513
0.0988042
0.111363
0.123689
0.135751
0.147518
0.158959
0.170046
0.180748
0.191032
0.200859
0.210188
0.21897
0.227153
0.234678
0.241484
0.247511
0.252696
0.256977
0.260293
0.262576
0.263732
0.263682
0.262726
0.260836
-0.0688384
-0.0594732
-0.0506359
-0.0419759
-0.0333631
-0.024707
-0.0159384
-0.00701757
0.00207048
0.0113218
0.0207178
0.0302297
0.0398225
0.0494581
0.0590985
0.0687064
0.0782468
0.0876876
0.0969986
0.106152
0.115119
0.123873
0.132385
0.140624
0.14856
0.156156
0.163374
0.170173
0.176509
0.182336
0.187606
0.192271
0.196283
0.199593
0.202149
0.20389
0.204726
0.204562
0.203653
0.201946
-0.0373762
-0.0315603
-0.0265665
-0.0215906
-0.0165502
-0.0113921
-0.00605311
-0.000505295
0.00525152
0.0112024
0.0173239
0.0235876
0.0299627
0.0364186
0.0429253
0.0494547
0.0559805
0.062478
0.0689239
0.0752954
0.0815695
0.0877231
0.0937317
0.0995697
0.10521
0.110624
0.115782
0.120652
0.125201
0.129395
0.1332
0.136582
0.139505
0.141932
0.14382
0.145112
0.145719
0.145529
0.144739
0.1433
0.000316849
-0.00106421
-0.00269032
-0.00279087
-0.00206996
-0.000835526
0.000863126
0.00297068
0.00541841
0.00814565
0.0111019
0.0142446
0.0175376
0.0209503
0.0244563
0.0280329
0.0316598
0.0353189
0.0389929
0.0426651
0.0463192
0.0499381
0.0535044
0.0570001
0.0604067
0.0637052
0.0668762
0.0698998
0.0727557
0.0754237
0.0778835
0.080115
0.0820967
0.083804
0.0852061
0.0862572
0.0868669
0.0868929
0.0864244
0.0854256
0.0473221
0.0300681
0.019216
0.0133658
0.00960471
0.00699631
0.00523961
0.00412113
0.00347043
0.00316882
0.00313517
0.00331254
0.00366018
0.0041483
0.00475467
0.00546217
0.00625705
0.00712768
0.00806373
0.0090556
0.010094
0.0111697
0.0122735
0.0133961
0.0145285
0.0156617
0.0167873
0.0178971
0.0189834
0.0200391
0.0210582
0.0220354
0.0229656
0.0238427
0.024658
0.0253946
0.0260049
0.0263829
0.0265016
0.0262723
)
;

boundaryField
{
    leftWall
    {
        type            fixedFluxPressure;
        gradient        nonuniform List<scalar> 0();
        value           nonuniform List<scalar> 0();
    }
    rightWall
    {
        type            fixedFluxPressure;
        gradient        uniform 0;
        value           nonuniform List<scalar> 
43
(
4.60314
4.42206
4.23791
4.05289
3.86864
3.6861
3.50618
3.3298
3.1578
2.99086
2.82955
2.67433
2.52572
2.38308
2.24666
2.11627
1.99179
1.87313
1.76014
1.65264
1.55043
1.45328
1.36092
1.27306
1.18937
1.1095
1.03306
0.959646
0.888874
0.820362
0.753763
0.688768
0.62511
0.562561
0.500931
0.440063
0.379826
0.320116
0.260836
0.201946
0.1433
0.0854256
0.0262723
)
;
    }
    lowerWall
    {
        type            fixedFluxPressure;
        gradient        nonuniform List<scalar> 0();
        value           nonuniform List<scalar> 0();
    }
    atmosphere
    {
        type            totalPressure;
        rho             rho;
        psi             none;
        gamma           1;
        p0              uniform 0;
        value           nonuniform List<scalar> 
45
(
-0.00537277
-0.00317308
-0.00160268
-0.000610917
-0.0001642
0
0
0
0
0
0
0
0
0
0
0
0
0
0
0
0
0
0
0
0
0
0
0
0
0
0
0
0
0
0
0
0
0
0
0
0
0
0
0
0
)
;
    }
    defaultFaces
    {
        type            empty;
    }
    procBoundary3to1
    {
        type            processor;
        value           nonuniform List<scalar> 
45
(
-2.9673
-3.07604
-3.17708
-3.27218
-3.36039
-3.44238
-3.51217
-3.56229
-3.59351
-3.60699
-3.60539
-3.59365
-3.57953
-3.57319
-3.58275
-3.59985
-3.58883
-3.58931
2.32702
507.182
1904.64
2174.78
2197.06
2212.07
2139.74
1300.54
147.631
27.9995
11.1381
6.27779
5.00722
4.72402
4.6819
4.68727
4.69558
4.69967
4.70054
4.69943
4.69772
4.69805
4.7037
4.71689
4.73771
4.76158
4.78017
)
;
    }
    procBoundary3to2
    {
        type            processor;
        value           nonuniform List<scalar> 
43
(
-2.88294
-2.90962
-2.93398
-2.95544
-2.97275
-2.98411
-2.98805
-2.98337
-2.96902
-2.94391
-2.90679
-2.85636
-2.79194
-2.71313
-2.61994
-2.51282
-2.39287
-2.26186
-2.12209
-1.97647
-1.82801
-1.67956
-1.53361
-1.39231
-1.25743
-1.13024
-1.01146
-0.901384
-0.800003
-0.707091
-0.62229
-0.545176
-0.47524
-0.41182
-0.354154
-0.301504
-0.25324
-0.208815
-0.167698
-0.12939
-0.0940744
-0.0628538
-0.0266271
)
;
    }
}


// ************************************************************************* //
