/*--------------------------------*- C++ -*----------------------------------*\
  =========                 |
  \\      /  F ield         | OpenFOAM: The Open Source CFD Toolbox
   \\    /   O peration     | Website:  https://openfoam.org
    \\  /    A nd           | Version:  9
     \\/     M anipulation  |
\*---------------------------------------------------------------------------*/
FoamFile
{
    format      ascii;
    class       surfaceScalarField;
    location    "0.4";
    object      phi;
}
// * * * * * * * * * * * * * * * * * * * * * * * * * * * * * * * * * * * * * //

dimensions      [0 3 -1 0 0 0 0];

internalField   nonuniform List<scalar> 
3782
(
-4.9783e-05
8.0882e-05
-5.48378e-05
7.47623e-05
-5.96699e-05
6.80414e-05
-6.42387e-05
6.07118e-05
-6.85468e-05
5.2822e-05
-7.26106e-05
4.44381e-05
-7.6447e-05
3.56168e-05
-8.00516e-05
2.63862e-05
-8.33729e-05
1.67437e-05
-8.62934e-05
6.67741e-06
-8.86338e-05
-3.78282e-06
-9.01816e-05
-1.44862e-05
-9.07538e-05
-2.51685e-05
-9.02256e-05
-3.55306e-05
-8.85405e-05
-4.52808e-05
-8.57092e-05
-5.41602e-05
-8.18198e-05
-6.19269e-05
-7.70458e-05
-6.83572e-05
-7.16426e-05
-7.32755e-05
-6.5913e-05
-7.66116e-05
-6.01516e-05
-7.84447e-05
-5.45943e-05
-7.89796e-05
-4.93987e-05
-7.84763e-05
-4.46469e-05
-7.71871e-05
-4.03619e-05
-7.53198e-05
-3.65272e-05
-7.3026e-05
-3.31061e-05
-7.0402e-05
-3.00549e-05
-6.75024e-05
-2.73314e-05
-6.43596e-05
-2.48997e-05
-6.09968e-05
-2.2731e-05
-5.74372e-05
-2.08029e-05
-5.37079e-05
-1.90973e-05
-4.98415e-05
-1.75982e-05
-4.58728e-05
-1.62899e-05
-4.18344e-05
-1.51555e-05
-3.77527e-05
-1.41745e-05
-3.36466e-05
-1.33199e-05
-2.95236e-05
-1.25525e-05
-2.53691e-05
-1.18176e-05
-2.11185e-05
-1.10529e-05
-1.6596e-05
-1.0255e-05
-1.13918e-05
-4.6865e-06
8.55098e-05
-4.06147e-05
8.95854e-05
-3.28553e-05
9.29654e-05
-2.37751e-05
-1.3706e-05
9.55207e-05
7.91851e-05
-4.50374e-05
8.30427e-05
-3.67129e-05
8.61601e-05
-2.68926e-05
-1.59579e-05
8.8412e-05
7.22418e-05
-4.92378e-05
7.588e-05
-4.03511e-05
7.87676e-05
-2.97802e-05
-1.79681e-05
8.07778e-05
6.47027e-05
-5.32287e-05
6.81627e-05
-4.38111e-05
7.08903e-05
-3.25077e-05
-1.98268e-05
7.27491e-05
5.66424e-05
-5.70491e-05
6.00018e-05
-4.71705e-05
6.26834e-05
-3.51893e-05
-2.16622e-05
6.45187e-05
4.8151e-05
-6.0762e-05
5.15281e-05
-5.05477e-05
5.43387e-05
-3.79999e-05
-2.36984e-05
5.63749e-05
3.92935e-05
-6.44387e-05
4.28272e-05
-5.40814e-05
4.59782e-05
-4.11509e-05
-2.62173e-05
4.84972e-05
3.00758e-05
-6.81283e-05
3.38893e-05
-5.78949e-05
3.75952e-05
-4.48568e-05
-2.95179e-05
4.08957e-05
2.04315e-05
-7.18161e-05
2.45734e-05
-6.20369e-05
2.89775e-05
-4.92608e-05
-3.38776e-05
3.33372e-05
1.02503e-05
-7.5389e-05
1.46265e-05
-6.6413e-05
1.96992e-05
-5.43336e-05
-3.93964e-05
2.52179e-05
-5.41744e-07
-7.863e-05
3.81554e-06
-7.07703e-05
9.2771e-06
-5.97951e-05
-4.576e-05
1.56407e-05
-1.18624e-05
-8.12537e-05
-7.8918e-06
-7.47409e-05
-2.48407e-06
-6.52028e-05
-5.25328e-05
4.28878e-06
-2.3439e-05
-8.29832e-05
-2.02362e-05
-7.79437e-05
-1.53456e-05
-7.00935e-05
-5.9135e-05
-8.74334e-06
-3.49156e-05
-8.35982e-05
-3.28195e-05
-8.00398e-05
-2.88988e-05
-7.40142e-05
-6.50739e-05
-2.29599e-05
-4.59269e-05
-8.2952e-05
-4.52047e-05
-8.0762e-05
-4.26499e-05
-7.65691e-05
-6.98544e-05
-3.78694e-05
-5.61422e-05
-8.09701e-05
-5.70059e-05
-7.98982e-05
-5.6228e-05
-7.7347e-05
-7.28287e-05
-5.32537e-05
-6.52187e-05
-7.76782e-05
-6.77591e-05
-7.73578e-05
-6.9065e-05
-7.60411e-05
-7.33296e-05
-6.85641e-05
-7.28028e-05
-7.32326e-05
-7.69149e-05
-7.32458e-05
-8.03258e-05
-7.26302e-05
-7.10831e-05
-8.25723e-05
-7.85843e-05
-6.79237e-05
-8.39372e-05
-6.78929e-05
-8.91111e-05
-6.74563e-05
-6.63821e-05
-9.38122e-05
-8.24063e-05
-6.21291e-05
-8.85058e-05
-6.17934e-05
-9.48042e-05
-6.11579e-05
-6.00332e-05
-0.000101153
-8.43459e-05
-5.62279e-05
-9.06751e-05
-5.54642e-05
-9.73914e-05
-5.44416e-05
-5.30008e-05
-0.000104424
-8.46826e-05
-5.05249e-05
-9.0827e-05
-4.93199e-05
-9.73969e-05
-4.78716e-05
-4.60496e-05
-0.000104348
-8.37813e-05
-4.522e-05
-8.94751e-05
-4.3626e-05
-9.5547e-05
-4.17997e-05
-3.96387e-05
-0.000101958
-8.19928e-05
-4.04144e-05
-8.71055e-05
-3.85132e-05
-9.25116e-05
-3.63936e-05
-3.39777e-05
-9.81726e-05
-7.96002e-05
-3.6134e-05
-8.4101e-05
-3.40124e-05
-8.88043e-05
-3.16903e-05
-2.91096e-05
-9.36725e-05
-7.68047e-05
-3.23553e-05
-8.07254e-05
-3.00916e-05
-8.47674e-05
-2.76484e-05
-2.49819e-05
-8.8895e-05
-7.37279e-05
-2.90294e-05
-7.71317e-05
-2.66878e-05
-8.0592e-05
-2.4188e-05
-2.14977e-05
-8.40762e-05
-7.04321e-05
-2.60998e-05
-7.33915e-05
-2.37283e-05
-7.63605e-05
-2.12191e-05
-1.85491e-05
-7.93091e-05
-6.69461e-05
-2.35132e-05
-6.95294e-05
-2.11451e-05
-7.20904e-05
-1.86581e-05
-1.60368e-05
-7.46027e-05
-6.3285e-05
-2.1225e-05
-6.55491e-05
-1.88811e-05
-6.77714e-05
-1.64357e-05
-1.3879e-05
-6.99292e-05
-5.94625e-05
-1.91997e-05
-6.14517e-05
-1.68919e-05
-6.33887e-05
-1.44987e-05
-1.20131e-05
-6.52545e-05
-5.54977e-05
-1.74099e-05
-5.72452e-05
-1.51444e-05
-5.89365e-05
-1.28074e-05
-1.03935e-05
-6.05561e-05
-5.1417e-05
-1.58344e-05
-5.29476e-05
-1.36138e-05
-5.44223e-05
-1.13327e-05
-8.9874e-06
-5.58284e-05
-4.72512e-05
-1.4456e-05
-4.85844e-05
-1.22806e-05
-4.98642e-05
-1.0053e-05
-7.77091e-06
-5.10806e-05
-4.30312e-05
-1.32591e-05
-4.41835e-05
-1.11284e-05
-4.52856e-05
-8.95083e-06
-6.72579e-06
-4.63307e-05
-3.87837e-05
-1.22282e-05
-3.97705e-05
-1.01416e-05
-4.071e-05
-8.01129e-06
-5.83712e-06
-4.15987e-05
-3.45298e-05
-1.1345e-05
-3.53675e-05
-9.30384e-06
-3.61588e-05
-7.22e-06
-5.09195e-06
-3.6904e-05
-3.0283e-05
-1.05856e-05
-3.0992e-05
-8.59479e-06
-3.16511e-05
-6.56087e-06
-4.47774e-06
-3.22654e-05
-2.60411e-05
-9.91367e-06
-2.6653e-05
-7.98285e-06
-2.72033e-05
-6.01051e-06
-3.97918e-06
-2.77019e-05
-2.17621e-05
-9.27001e-06
-2.23351e-05
-7.40989e-06
-2.28222e-05
-5.52336e-06
-3.56932e-06
-2.32321e-05
-1.73015e-05
-8.56449e-06
-1.79492e-05
-6.76213e-06
-1.84823e-05
-4.9903e-06
-3.18889e-06
-1.88627e-05
-1.2236e-05
-7.72025e-06
-1.31331e-05
-5.86502e-06
-1.39758e-05
-4.14762e-06
-2.69319e-06
-1.44714e-05
-5.40114e-06
-6.36093e-06
-7.64807e-06
-9.1861e-06
9.73357e-05
-2.78348e-06
9.8075e-05
1.0621e-05
9.78301e-05
2.35482e-05
9.67399e-05
3.53386e-05
9.50272e-05
4.53173e-05
9.30056e-05
5.29334e-05
9.10083e-05
5.79634e-05
8.93121e-05
6.05723e-05
8.80414e-05
6.13033e-05
8.70368e-05
6.09148e-05
8.61027e-05
5.99951e-05
8.48952e-05
5.91642e-05
8.35593e-05
5.83204e-05
8.19718e-05
6.0098e-05
8.09753e-05
6.17418e-05
8.01707e-05
6.30689e-05
7.95615e-05
6.49906e-05
7.91541e-05
6.68988e-05
7.88856e-05
6.85856e-05
7.86404e-05
7.00831e-05
7.80246e-05
7.21782e-05
7.622e-05
7.72466e-05
7.25257e-05
8.5784e-05
6.61519e-05
9.86513e-05
5.84178e-05
0.000114028
5.1918e-05
0.000124153
4.70578e-05
0.000125674
4.30773e-05
0.000121995
3.94118e-05
0.000116832
3.58467e-05
0.000111967
3.23234e-05
0.000107988
2.88246e-05
0.000105035
2.53391e-05
0.000103107
2.18544e-05
0.000102168
1.83558e-05
0.000102171
1.48262e-05
0.00010308
1.12451e-05
0.000104865
7.58739e-06
0.000107491
3.824e-06
0.000110837
0.000113025
8.98539e-05
-4.22529e-06
9.02264e-05
1.02485e-05
8.9651e-05
2.41236e-05
8.82592e-05
3.67303e-05
8.63008e-05
4.72757e-05
8.41797e-05
5.50545e-05
8.23173e-05
5.98259e-05
8.10631e-05
6.18265e-05
8.05587e-05
6.18077e-05
8.04713e-05
6.10022e-05
8.01461e-05
6.03203e-05
7.94766e-05
5.98336e-05
7.822e-05
5.95771e-05
7.71329e-05
6.1185e-05
7.66049e-05
6.22697e-05
7.60982e-05
6.35756e-05
7.57649e-05
6.53239e-05
7.56036e-05
6.70601e-05
7.55553e-05
6.86339e-05
7.54349e-05
7.02034e-05
7.46123e-05
7.30008e-05
7.21446e-05
7.97144e-05
6.69456e-05
9.09831e-05
5.9196e-05
0.000106401
5.14089e-05
0.000121815
4.57593e-05
0.000129803
4.18836e-05
0.000129549
3.87459e-05
0.000125133
3.57824e-05
0.000119795
3.28091e-05
0.000114941
2.97837e-05
0.000111014
2.67026e-05
0.000108116
2.35695e-05
0.000106241
2.03872e-05
0.00010535
1.71549e-05
0.000105403
1.38673e-05
0.000106367
1.05148e-05
0.000108217
7.08322e-06
0.000110923
3.55636e-06
0.000114364
0.000116581
8.19445e-05
-5.39202e-06
8.20782e-05
1.01148e-05
8.13026e-05
2.48993e-05
7.96825e-05
3.83504e-05
7.75041e-05
4.94541e-05
7.52924e-05
5.72662e-05
7.35662e-05
6.15521e-05
7.27697e-05
6.2623e-05
7.30421e-05
6.15353e-05
7.37162e-05
6.03281e-05
7.39109e-05
6.01256e-05
7.36243e-05
6.01202e-05
7.26647e-05
6.05367e-05
7.23168e-05
6.15329e-05
7.21696e-05
6.2417e-05
7.19808e-05
6.37644e-05
7.19308e-05
6.53739e-05
7.20213e-05
6.69697e-05
7.21953e-05
6.84599e-05
7.20619e-05
7.03369e-05
7.05451e-05
7.45176e-05
6.6622e-05
8.36374e-05
5.97305e-05
9.78746e-05
5.11726e-05
0.000114959
4.40037e-05
0.000128984
3.94842e-05
0.000134322
3.66262e-05
0.000132408
3.43165e-05
0.000127443
3.20384e-05
0.000122073
2.96403e-05
0.000117339
2.7102e-05
0.000113552
2.44373e-05
0.000110781
2.16647e-05
0.000109013
1.87988e-05
0.000108216
1.58494e-05
0.000108353
1.28212e-05
0.000109395
9.71459e-06
0.000111324
6.52692e-06
0.00011411
3.25925e-06
0.000117631
0.00011984
7.37865e-05
-6.42945e-06
7.38956e-05
1.00058e-05
7.31158e-05
2.56791e-05
7.14295e-05
4.00367e-05
6.91614e-05
5.17222e-05
6.70007e-05
5.94269e-05
6.55066e-05
6.30462e-05
6.51776e-05
6.29521e-05
6.60048e-05
6.07081e-05
6.70474e-05
5.92855e-05
6.74845e-05
5.96886e-05
6.75609e-05
6.00438e-05
6.75053e-05
6.05923e-05
6.77281e-05
6.13101e-05
6.78513e-05
6.22938e-05
6.79666e-05
6.3649e-05
6.81847e-05
6.51558e-05
6.85229e-05
6.66315e-05
6.88223e-05
6.81605e-05
6.83172e-05
7.0842e-05
6.54063e-05
7.74285e-05
5.94578e-05
8.95859e-05
5.10375e-05
0.000106295
4.23918e-05
0.000123604
3.63753e-05
0.000135
3.31866e-05
0.000137511
3.13739e-05
0.00013422
2.98644e-05
0.000128952
2.82389e-05
0.000123699
2.6394e-05
0.000119183
2.43303e-05
0.000115616
2.20756e-05
0.000113035
1.96614e-05
0.000111427
1.71153e-05
0.000110762
1.44581e-05
0.00011101
1.17043e-05
0.000112149
8.86311e-06
0.000114165
5.9417e-06
0.000117032
2.9532e-06
0.00012062
0.000122794
6.56136e-05
-7.5243e-06
6.59204e-05
9.69898e-06
6.53212e-05
2.62783e-05
6.37738e-05
4.15841e-05
6.17226e-05
5.37734e-05
6.00583e-05
6.10913e-05
5.92953e-05
6.38092e-05
5.98243e-05
6.2423e-05
6.09853e-05
5.95471e-05
6.157e-05
5.87008e-05
6.21745e-05
5.90841e-05
6.26361e-05
5.95823e-05
6.30852e-05
6.01431e-05
6.35305e-05
6.08648e-05
6.38687e-05
6.19556e-05
6.4228e-05
6.32898e-05
6.46848e-05
6.46989e-05
6.52108e-05
6.61055e-05
6.52904e-05
6.80809e-05
6.3349e-05
7.27834e-05
5.8457e-05
8.23205e-05
5.03703e-05
9.76727e-05
4.08838e-05
0.000115781
3.30404e-05
0.000131448
2.87291e-05
0.000139312
2.70112e-05
0.000139229
2.6227e-05
0.000135004
2.54742e-05
0.000129705
2.4458e-05
0.000124715
2.31293e-05
0.000120512
2.15133e-05
0.000117232
1.96529e-05
0.000114896
1.75909e-05
0.000113489
1.53648e-05
0.000112988
1.30044e-05
0.00011337
1.05326e-05
0.000114621
7.96756e-06
0.00011673
5.32583e-06
0.000119673
2.63129e-06
0.000123314
0.000125425
5.77867e-05
-8.93613e-06
5.85383e-05
8.94741e-06
5.83227e-05
2.64939e-05
5.7072e-05
4.28347e-05
5.55714e-05
5.5274e-05
5.50546e-05
6.16081e-05
5.59918e-05
6.28719e-05
5.75756e-05
6.08392e-05
5.84025e-05
5.87203e-05
5.84166e-05
5.86867e-05
5.85413e-05
5.89594e-05
5.89303e-05
5.91933e-05
5.94563e-05
5.96171e-05
5.99297e-05
6.03914e-05
6.03972e-05
6.14881e-05
6.09251e-05
6.27619e-05
6.15663e-05
6.40577e-05
6.20005e-05
6.56713e-05
6.07335e-05
6.9348e-05
5.66279e-05
7.68889e-05
4.90665e-05
8.98819e-05
3.91854e-05
0.000107554
2.97899e-05
0.000125177
2.37644e-05
0.000137473
2.14828e-05
0.000141593
2.11756e-05
0.000139536
2.13091e-05
0.000134871
2.1226e-05
0.000129788
2.07544e-05
0.000125187
1.9894e-05
0.000121373
1.86921e-05
0.000118434
1.7204e-05
0.000116384
1.54819e-05
0.000115211
1.35704e-05
0.000114899
1.15066e-05
0.000115434
9.32056e-06
0.000116807
7.03847e-06
0.000119012
4.68572e-06
0.000122026
2.29685e-06
0.000125703
0.000127722
5.0547e-05
-1.09861e-05
5.20793e-05
7.41511e-06
5.26263e-05
2.59469e-05
5.18845e-05
4.35766e-05
5.09764e-05
5.61821e-05
5.16323e-05
6.09522e-05
5.396e-05
6.05442e-05
5.59455e-05
5.88537e-05
5.60352e-05
5.86306e-05
5.57052e-05
5.90168e-05
5.58048e-05
5.88598e-05
5.60999e-05
5.88982e-05
5.65025e-05
5.92144e-05
5.69684e-05
5.99255e-05
5.75029e-05
6.09537e-05
5.81559e-05
6.21088e-05
5.87462e-05
6.34674e-05
5.79705e-05
6.64471e-05
5.44271e-05
7.28914e-05
4.73922e-05
8.39238e-05
3.72843e-05
9.99897e-05
2.65706e-05
0.000118268
1.86955e-05
0.000133052
1.52378e-05
0.000140931
1.49579e-05
0.000141873
1.58431e-05
0.000138651
1.67236e-05
0.00013399
1.71943e-05
0.000129317
1.71858e-05
0.000125195
1.67353e-05
0.000121823
1.59058e-05
0.000119263
1.47617e-05
0.000117528
1.33611e-05
0.000116612
1.17538e-05
0.000116507
9.98216e-06
0.000117206
8.08231e-06
0.000118707
6.08719e-06
0.000121007
4.03014e-06
0.000124083
1.95537e-06
0.000127778
0.000129677
4.38899e-05
-1.39802e-05
4.65548e-05
4.75011e-06
4.847e-05
2.40317e-05
4.87655e-05
4.32812e-05
4.84523e-05
5.64953e-05
5.02959e-05
5.91086e-05
5.25874e-05
5.82527e-05
5.37104e-05
5.77307e-05
5.37473e-05
5.85937e-05
5.35735e-05
5.91906e-05
5.35702e-05
5.88631e-05
5.3739e-05
5.87294e-05
5.40887e-05
5.88647e-05
5.4582e-05
5.94323e-05
5.52023e-05
6.03333e-05
5.57805e-05
6.15306e-05
5.52038e-05
6.40441e-05
5.19523e-05
6.96986e-05
4.53388e-05
7.95049e-05
3.5319e-05
9.39435e-05
2.36961e-05
0.000111613
1.41039e-05
0.00012786
8.99791e-06
0.000138158
8.11534e-06
0.000141814
9.39151e-06
0.000140597
1.11211e-05
0.000136921
1.25377e-05
0.000132574
1.34292e-05
0.000128426
1.37927e-05
0.000124832
1.36873e-05
0.000121929
1.31843e-05
0.000119766
1.23518e-05
0.00011836
1.12507e-05
0.000117713
9.93382e-06
0.000117824
8.44687e-06
0.000118693
6.83067e-06
0.000120323
5.12372e-06
0.000122714
3.36612e-06
0.000125841
1.61032e-06
0.000129534
0.000131287
3.76123e-05
-1.82552e-05
4.16749e-05
6.87508e-07
4.55293e-05
2.01772e-05
4.7755e-05
4.10555e-05
4.83241e-05
5.59262e-05
5.08242e-05
5.66085e-05
5.25758e-05
5.65011e-05
5.25169e-05
5.77896e-05
5.22869e-05
5.88237e-05
5.21196e-05
5.93579e-05
5.16688e-05
5.93139e-05
5.16475e-05
5.87506e-05
5.20025e-05
5.85097e-05
5.25856e-05
5.88491e-05
5.32181e-05
5.97009e-05
5.27387e-05
6.201e-05
4.93583e-05
6.74245e-05
4.26794e-05
7.63775e-05
3.26874e-05
8.94968e-05
2.06742e-05
0.000105957
9.88625e-06
0.000122401
3.35071e-06
0.000134395
1.43255e-06
0.000140076
2.54206e-06
0.000140704
4.79225e-06
0.000138347
7.01545e-06
0.000134698
8.76571e-06
0.000130824
9.94846e-06
0.000127243
1.05944e-05
0.000124186
1.077e-05
0.000121753
1.05469e-05
0.000119989
9.99262e-06
0.000118915
9.16765e-06
0.000118538
8.12549e-06
0.000118866
6.91383e-06
0.000119904
5.57661e-06
0.00012166
4.15666e-06
0.000124134
2.69946e-06
0.000127298
1.26438e-06
0.000130969
0.000132552
3.1086e-05
-2.41233e-05
3.64612e-05
-4.68764e-06
4.24697e-05
1.41687e-05
4.77218e-05
3.58033e-05
4.94206e-05
5.42274e-05
5.07213e-05
5.53078e-05
5.10616e-05
5.61608e-05
5.13615e-05
5.74897e-05
5.15204e-05
5.86647e-05
5.13415e-05
5.95369e-05
5.04605e-05
6.01949e-05
4.95405e-05
5.96706e-05
4.97217e-05
5.83286e-05
5.01926e-05
5.83782e-05
4.97065e-05
6.0187e-05
4.64608e-05
6.52558e-05
3.96804e-05
7.42049e-05
2.93925e-05
8.66654e-05
1.70925e-05
0.000101797
5.67688e-06
0.000117372
-1.91421e-06
0.000129992
-4.75289e-06
0.000137234
-4.10393e-06
0.000139427
-1.75018e-06
0.00013835
9.94478e-07
0.000135602
3.44653e-06
0.000132246
5.37138e-06
0.000128899
6.73816e-06
0.000125876
7.58918e-06
0.000123335
7.98836e-06
0.000121354
8.00252e-06
0.000119975
7.6949e-06
0.000119222
7.12329e-06
0.00011911
6.34012e-06
0.000119649
5.39356e-06
0.000120851
4.3294e-06
0.000122724
3.19345e-06
0.00012527
2.03522e-06
0.000128456
9.19774e-07
0.000132084
0.000133471
2.31201e-05
-3.16027e-05
2.98956e-05
-1.14632e-05
3.76315e-05
6.43285e-06
4.59342e-05
2.75006e-05
4.83836e-05
5.17781e-05
4.90657e-05
5.46256e-05
4.96179e-05
5.56086e-05
5.01938e-05
5.69138e-05
5.04674e-05
5.83911e-05
5.00861e-05
5.99182e-05
4.88861e-05
6.13949e-05
4.65773e-05
6.19795e-05
4.5057e-05
5.98488e-05
4.39431e-05
5.94921e-05
4.07686e-05
6.33615e-05
3.43915e-05
7.16329e-05
2.4681e-05
8.39154e-05
1.28007e-05
9.85457e-05
1.41717e-06
0.00011318
-6.73649e-06
0.000125526
-1.03645e-05
0.00013362
-1.02631e-05
0.000137133
-8.06972e-06
0.000137234
-5.12151e-06
0.000135402
-2.21048e-06
0.000132691
2.98303e-07
0.000129737
2.28958e-06
0.000126907
3.7624e-06
0.000124403
4.75891e-06
0.000122338
5.33548e-06
0.000120777
5.5511e-06
0.000119759
5.46284e-06
0.00011931
5.12428e-06
0.000119448
4.58556e-06
0.000120188
3.89421e-06
0.000121542
3.09677e-06
0.000123522
2.24078e-06
0.000126126
1.37801e-06
0.000129319
5.77442e-07
0.000132885
0.000134049
1.30547e-05
-4.03686e-05
2.12018e-05
-1.96103e-05
2.92109e-05
-1.57632e-06
3.90303e-05
1.76812e-05
4.54958e-05
4.53126e-05
4.69299e-05
5.31916e-05
4.78536e-05
5.46849e-05
4.85139e-05
5.62536e-05
4.87829e-05
5.81221e-05
4.83464e-05
6.03546e-05
4.68492e-05
6.28921e-05
4.35922e-05
6.52365e-05
3.83214e-05
6.51196e-05
3.43945e-05
6.3419e-05
2.84091e-05
6.93469e-05
1.92802e-05
8.07618e-05
8.15445e-06
9.50411e-05
-2.62743e-06
0.000109328
-1.08284e-05
0.000121381
-1.50868e-05
0.000129785
-1.56685e-05
0.000134201
-1.38688e-05
0.000135333
-1.09942e-05
0.000134359
-7.89318e-06
0.000132301
-5.01294e-06
0.000129811
-2.54795e-06
0.000127272
-5.54717e-07
0.000124914
9.74476e-07
0.000122874
2.07568e-06
0.000121237
2.79614e-06
0.000120057
3.18605e-06
0.00011937
3.29557e-06
0.000119201
3.17348e-06
0.00011957
2.86696e-06
0.000120494
2.42216e-06
0.000121987
1.88546e-06
0.000124058
1.30507e-06
0.000126706
7.32852e-07
0.000129891
2.34425e-07
0.000133383
0.000134283
3.91239e-07
-4.95032e-05
9.67331e-06
-2.88924e-05
1.75381e-05
-9.44118e-06
2.69021e-05
8.3172e-06
4.03783e-05
3.18365e-05
4.37033e-05
4.98665e-05
4.50897e-05
5.32985e-05
4.59204e-05
5.54229e-05
4.62342e-05
5.78083e-05
4.58903e-05
6.06986e-05
4.46408e-05
6.41416e-05
4.20832e-05
6.7794e-05
3.62976e-05
7.09052e-05
2.85026e-05
7.12141e-05
1.88019e-05
7.90475e-05
6.96919e-06
9.25945e-05
-4.42593e-06
0.000106436
-1.32259e-05
0.000118128
-1.83447e-05
0.0001265
-1.98857e-05
0.000131326
-1.8824e-05
0.00013314
-1.63423e-05
0.000132851
-1.33363e-05
0.000131353
-1.03262e-05
0.000129291
-7.57559e-06
0.00012706
-5.20034e-06
0.000124897
-3.23612e-06
0.00012295
-1.67615e-06
0.000121314
-4.92839e-07
0.000120054
3.50905e-07
0.000119213
8.97026e-07
0.000118823
1.1892e-06
0.000118909
1.27144e-06
0.000119488
1.18784e-06
0.000120578
9.82716e-07
0.000122192
7.01728e-07
0.000124339
3.93212e-07
0.000127015
1.10191e-07
0.000130174
-1.06151e-07
0.000133599
0.000134177
-1.40949e-05
-5.83682e-05
-3.86633e-06
-3.91209e-05
4.92667e-06
-1.82342e-05
1.38723e-05
-6.28437e-07
2.87454e-05
1.69634e-05
3.88047e-05
3.98073e-05
4.08054e-05
5.12978e-05
4.19427e-05
5.42856e-05
4.24227e-05
5.73283e-05
4.22332e-05
6.08881e-05
4.12615e-05
6.51133e-05
3.92549e-05
6.98007e-05
3.51553e-05
7.50048e-05
2.56666e-05
8.07028e-05
1.19586e-05
9.27555e-05
-1.72456e-06
0.000106278
-1.25674e-05
0.000117279
-1.94562e-05
0.000125016
-2.25269e-05
0.000129571
-2.2662e-05
0.000131461
-2.09639e-05
0.000131442
-1.83642e-05
0.000130252
-1.54748e-05
0.000128464
-1.26402e-05
0.000126456
-1.00393e-05
0.000124459
-7.75648e-06
0.000122614
-5.82227e-06
0.000121016
-4.23583e-06
0.000119728
-2.97838e-06
0.000118796
-2.02064e-06
0.000118255
-1.32764e-06
0.00011813
-8.61385e-07
0.000118443
-5.8213e-07
0.000119209
-4.48926e-07
0.000120445
-4.19328e-07
0.000122162
-4.48941e-07
0.000124369
-4.90973e-07
0.000127057
-5.00984e-07
0.000130184
-4.95136e-07
0.000133594
0.000133682
-2.97e-05
-6.65376e-05
-1.8692e-05
-5.01289e-05
-6.92166e-06
-3.00045e-05
2.87189e-06
-1.0422e-05
1.38258e-05
6.00948e-06
2.79185e-05
2.57146e-05
3.4301e-05
4.49152e-05
3.61394e-05
5.24472e-05
3.68423e-05
5.66254e-05
3.68905e-05
6.08398e-05
3.62842e-05
6.57196e-05
3.44151e-05
7.16697e-05
2.97448e-05
7.96752e-05
1.89928e-05
9.14548e-05
3.83779e-06
0.000107911
-9.42457e-06
0.00011954
-1.8703e-05
0.000126558
-2.38057e-05
0.000130119
-2.55171e-05
0.000131282
-2.49235e-05
0.000130867
-2.29985e-05
0.000129517
-2.04435e-05
0.000127697
-1.76965e-05
0.000125717
-1.5009e-05
0.000123769
-1.25188e-05
0.000121969
-1.02965e-05
0.000120392
-8.37113e-06
0.00011909
-6.7462e-06
0.000118103
-5.40873e-06
0.000117459
-4.33553e-06
0.000117182
-3.49693e-06
0.000117292
-2.85928e-06
0.000117805
-2.38632e-06
0.000118736
-2.03971e-06
0.000120098
-1.77902e-06
0.000121902
-1.56168e-06
0.000124152
-1.34369e-06
0.000126839
-1.08962e-06
0.00012993
-8.61736e-07
0.000133366
0.00013282
-4.67822e-05
-7.30091e-05
-3.66534e-05
-6.02578e-05
-2.31497e-05
-4.35083e-05
-9.85974e-06
-2.37119e-05
1.3243e-06
-5.1746e-06
1.44942e-05
1.25447e-05
2.46625e-05
3.4747e-05
2.78251e-05
4.92846e-05
2.89257e-05
5.55247e-05
2.9142e-05
6.06236e-05
2.88855e-05
6.59761e-05
2.74157e-05
7.31395e-05
2.06857e-05
8.64052e-05
7.93768e-06
0.000104203
-6.57542e-06
0.000122424
-1.809e-05
0.000131055
-2.51426e-05
0.00013361
-2.83674e-05
0.000133344
-2.8863e-05
0.000131778
-2.76469e-05
0.000129651
-2.54855e-05
0.000127355
-2.28916e-05
0.000125103
-2.01831e-05
0.000123008
-1.75478e-05
0.000121134
-1.50933e-05
0.000119515
-1.2877e-05
0.000118176
-1.09234e-05
0.000117137
-9.23594e-06
0.000116415
-7.80381e-06
0.000116027
-6.60673e-06
0.000115985
-5.61814e-06
0.000116303
-4.80732e-06
0.000116994
-4.14055e-06
0.000118069
-3.5817e-06
0.000119539
-3.0924e-06
0.000121412
-2.63238e-06
0.000123691
-2.16174e-06
0.000126368
-1.65679e-06
0.000129425
-1.20337e-06
0.000132912
0.000131617
-6.51465e-05
-7.64267e-05
-5.79968e-05
-6.74074e-05
-4.68163e-05
-5.46889e-05
-3.25381e-05
-3.79901e-05
-1.89175e-05
-1.87952e-05
-6.73697e-06
3.64071e-07
7.52635e-06
2.04836e-05
1.67655e-05
4.00454e-05
1.87013e-05
5.35889e-05
1.89744e-05
6.03505e-05
1.80305e-05
6.692e-05
1.55609e-05
7.56091e-05
7.88774e-06
9.40784e-05
-7.28236e-06
0.000119373
-2.09616e-05
0.000136103
-2.93835e-05
0.000139477
-3.33299e-05
0.000137557
-3.4262e-05
0.000134276
-3.33053e-05
0.000130821
-3.1257e-05
0.000127603
-2.86512e-05
0.000124749
-2.58305e-05
0.000122282
-2.30058e-05
0.000120184
-2.03036e-05
0.000118432
-1.7797e-05
0.000117008
-1.55237e-05
0.000115902
-1.34981e-05
0.000115111
-1.17183e-05
0.000114636
-1.01718e-05
0.00011448
-8.83817e-06
0.000114651
-7.6918e-06
0.000115157
-6.70343e-06
0.000116006
-5.84103e-06
0.000117207
-5.07027e-06
0.000118768
-4.35483e-06
0.000120697
-3.65726e-06
0.000122994
-2.9425e-06
0.000125653
-2.19806e-06
0.000128681
-1.51431e-06
0.000132228
0.000130103
-8.30449e-05
-7.59541e-05
-8.05853e-05
-6.9867e-05
-7.44516e-05
-6.08226e-05
-6.42339e-05
-4.82078e-05
-5.1617e-05
-3.1412e-05
-3.92388e-05
-1.20142e-05
-2.53344e-05
6.57925e-06
-8.92769e-06
2.36387e-05
1.34666e-06
4.33146e-05
3.3157e-06
5.83815e-05
-1.40505e-06
7.16408e-05
-1.13333e-05
8.55374e-05
-2.36748e-05
0.00010642
-3.62107e-05
0.000131909
-4.25891e-05
0.000142481
-4.43923e-05
0.00014128
-4.37558e-05
0.00013692
-4.17156e-05
0.000132236
-3.89073e-05
0.000128013
-3.57313e-05
0.000124427
-3.24462e-05
0.000121464
-2.92128e-05
0.000119048
-2.61292e-05
0.0001171
-2.32532e-05
0.000115556
-2.06155e-05
0.00011437
-1.8228e-05
0.000113515
-1.60893e-05
0.000112972
-1.41883e-05
0.000112735
-1.25074e-05
0.000112799
-1.10237e-05
0.000113168
-9.71094e-06
0.000113844
-8.5401e-06
0.000114835
-7.48011e-06
0.000116147
-6.49813e-06
0.000117786
-5.55998e-06
0.000119759
-4.63121e-06
0.000122065
-3.68191e-06
0.000124704
-2.70876e-06
0.000127707
-1.7919e-06
0.000131312
0.000128311
-9.80548e-05
-7.17115e-05
-0.000100648
-6.72735e-05
-0.000100932
-6.05387e-05
-9.82038e-05
-5.09361e-05
-9.18425e-05
-3.77733e-05
-8.27375e-05
-2.11191e-05
-7.25968e-05
-3.56149e-06
-6.35009e-05
1.45429e-05
-5.47557e-05
3.45693e-05
-5.0939e-05
5.45648e-05
-5.36421e-05
7.43439e-05
-6.23245e-05
9.42197e-05
-7.05068e-05
0.000114602
-7.10173e-05
0.000132419
-6.61763e-05
0.00013764
-6.04902e-05
0.000135594
-5.49903e-05
0.00013142
-4.98543e-05
0.0001271
-4.50831e-05
0.000123242
-4.06676e-05
0.000120011
-3.65938e-05
0.00011739
-3.28499e-05
0.000115305
-2.94256e-05
0.000113676
-2.631e-05
0.00011244
-2.34895e-05
0.00011155
-2.09481e-05
0.000110973
-1.86663e-05
0.000110691
-1.66222e-05
0.000110691
-1.47911e-05
0.000110968
-1.31466e-05
0.000111523
-1.16608e-05
0.000112358
-1.03041e-05
0.000113478
-9.04606e-06
0.000114889
-7.8553e-06
0.000116596
-6.69973e-06
0.000118603
-5.54806e-06
0.000120913
-4.37515e-06
0.000123531
-3.18382e-06
0.000126516
-2.03325e-06
0.000130161
0.000126277
-0.000108063
-6.48017e-05
-0.000114451
-6.08859e-05
-0.000119893
-5.50961e-05
-0.000123803
-4.70261e-05
-0.000125368
-3.62088e-05
-0.000123991
-2.24955e-05
-0.000120932
-6.62098e-06
-0.0001178
1.14109e-05
-0.000114611
3.13809e-05
-0.000112351
5.23042e-05
-0.000111568
7.35611e-05
-0.00011095
9.36013e-05
-0.000106679
0.000110331
-9.59967e-05
0.000121737
-8.40416e-05
0.000125685
-7.34748e-05
0.000125027
-6.46321e-05
0.000122578
-5.72168e-05
0.000119684
-5.09126e-05
0.000116937
-4.54665e-05
0.000114565
-4.06955e-05
0.000112619
-3.64731e-05
0.000111082
-3.2711e-05
0.000109914
-2.93454e-05
0.000109074
-2.63274e-05
0.000108532
-2.36169e-05
0.000108263
-2.11787e-05
0.000108253
-1.89804e-05
0.000108492
-1.69912e-05
0.000108979
-1.51807e-05
0.000109713
-1.35193e-05
0.000110697
-1.19769e-05
0.000111936
-1.05237e-05
0.000113435
-9.12956e-06
0.000115201
-7.76472e-06
0.000117238
-6.40086e-06
0.00011955
-5.01683e-06
0.000122147
-3.6181e-06
0.000125117
-2.23648e-06
0.000128779
0.000124041
-0.000112521
-5.67042e-05
-0.000120678
-5.27289e-05
-0.000128626
-4.7148e-05
-0.000135978
-3.96747e-05
-0.000142175
-3.00116e-05
-0.000146631
-1.80398e-05
-0.000149372
-3.88001e-06
-0.000150383
1.2422e-05
-0.000149408
3.04061e-05
-0.000146495
4.93908e-05
-0.000141263
6.83294e-05
-0.00013304
8.53786e-05
-0.00012145
9.8741e-05
-0.000107307
0.000107594
-9.34591e-05
0.000111837
-8.13923e-05
0.00011296
-7.12595e-05
0.000112445
-6.27975e-05
0.000111222
-5.56804e-05
0.00010982
-4.96192e-05
0.000108504
-4.43887e-05
0.000107389
-3.98218e-05
0.000106515
-3.57959e-05
0.000105888
-3.222e-05
0.000105498
-2.90246e-05
0.000105336
-2.61545e-05
0.000105393
-2.35639e-05
0.000105662
-2.12134e-05
0.000106142
-1.90674e-05
0.000106833
-1.70931e-05
0.000107738
-1.52594e-05
0.000108863
-1.35365e-05
0.000110213
-1.18953e-05
0.000111794
-1.03073e-05
0.000113613
-8.74479e-06
0.000115676
-7.18218e-06
0.000117987
-5.60121e-06
0.000120566
-4.00653e-06
0.000123523
-2.40038e-06
0.000127173
0.000121641
-0.000112465
-4.85869e-05
-0.000120793
-4.44012e-05
-0.000129103
-3.88381e-05
-0.000137069
-3.1709e-05
-0.000144249
-2.2831e-05
-0.000150159
-1.21297e-05
-0.0001544
3.61185e-07
-0.000156465
1.44867e-05
-0.000155919
2.986e-05
-0.000152349
4.58207e-05
-0.00014541
6.13903e-05
-0.00013529
7.52593e-05
-0.000122864
8.63151e-05
-0.000109404
9.41341e-05
-9.6474e-05
9.89071e-05
-8.49187e-05
0.000101405
-7.49288e-05
0.000102455
-6.63983e-05
0.000102692
-5.91162e-05
0.000102538
-5.28623e-05
0.00010225
-4.74444e-05
0.000101971
-4.27068e-05
0.000101778
-3.85275e-05
0.000101708
-3.4811e-05
0.000101782
-3.14824e-05
0.000102008
-2.84811e-05
0.000102391
-2.57571e-05
0.000102938
-2.32678e-05
0.000103652
-2.09758e-05
0.000104541
-1.88474e-05
0.00010561
-1.68516e-05
0.000106867
-1.49593e-05
0.00010832
-1.31425e-05
0.000109977
-1.13745e-05
0.000111845
-9.62959e-06
0.000113931
-7.88442e-06
0.000116242
-6.12239e-06
0.000118804
-4.34446e-06
0.000121745
-2.52493e-06
0.000125354
0.000119116
-0.000109428
-4.1117e-05
-0.000117065
-3.67643e-05
-0.000124649
-3.12535e-05
-0.000131885
-2.44734e-05
-0.00013839
-1.63254e-05
-0.000143743
-6.77747e-06
-0.000147502
4.12092e-06
-0.000149191
1.61752e-05
-0.000148371
2.90405e-05
-0.000144717
4.21658e-05
-0.000138139
5.48123e-05
-0.000129032
6.61532e-05
-0.000118253
7.55352e-05
-0.000106825
8.27063e-05
-9.56962e-05
8.77786e-05
-8.54456e-05
9.11542e-05
-7.6301e-05
9.33102e-05
-6.82729e-05
9.46637e-05
-6.12646e-05
9.55299e-05
-5.51416e-05
9.61269e-05
-4.97682e-05
9.65977e-05
-4.50233e-05
9.70328e-05
-4.08043e-05
9.74895e-05
-3.70264e-05
9.80041e-05
-3.36198e-05
9.86012e-05
-3.05267e-05
9.92983e-05
-2.76983e-05
0.00010011
-2.50929e-05
0.000101047
-2.26739e-05
0.000102122
-2.04087e-05
0.000103345
-1.82674e-05
0.000104726
-1.62225e-05
0.000106275
-1.42476e-05
0.000108003
-1.23178e-05
0.000109916
-1.04093e-05
0.000112022
-8.5003e-06
0.000114333
-6.57485e-06
0.000116879
-4.62835e-06
0.000119798
-2.61185e-06
0.000123337
0.000116504
-0.000104709
-3.45808e-05
-0.000111317
-3.01561e-05
-0.000117794
-2.47763e-05
-0.00012388
-1.83877e-05
-0.000129258
-1.09475e-05
-0.000133566
-2.46875e-06
-0.000136445
6.99923e-06
-0.000137518
1.72485e-05
-0.000136474
2.79965e-05
-0.000133136
3.88275e-05
-0.000127556
4.92322e-05
-0.000120094
5.86911e-05
-0.000111367
6.68083e-05
-0.000102072
7.34115e-05
-9.28346e-05
7.85413e-05
-8.40838e-05
8.24033e-05
-7.60444e-05
8.52707e-05
-6.87902e-05
8.74095e-05
-6.23032e-05
8.90429e-05
-5.65192e-05
9.03429e-05
-5.13567e-05
9.14352e-05
-4.67332e-05
9.24093e-05
-4.25723e-05
9.33286e-05
-3.88068e-05
9.42385e-05
-3.53782e-05
9.51726e-05
-3.22365e-05
9.61566e-05
-2.93382e-05
9.72113e-05
-2.66455e-05
9.83543e-05
-2.41248e-05
9.96012e-05
-2.1746e-05
0.000100966
-1.94817e-05
0.000102462
-1.73062e-05
0.0001041
-1.51953e-05
0.000105892
-1.31258e-05
0.000107846
-1.10753e-05
0.000109972
-9.0235e-06
0.000112281
-6.95408e-06
0.000114809
-4.85629e-06
0.0001177
-2.66451e-06
0.000121145
0.000113839
-9.92236e-05
-2.90297e-05
-0.000104755
-2.4625e-05
-0.000110089
-1.94416e-05
-0.000115011
-1.34659e-05
-0.000119265
-6.69337e-06
-0.000122584
8.49606e-07
-0.000124667
9.0828e-06
-0.000125265
1.78461e-05
-0.000124178
2.69097e-05
-0.000121326
3.5975e-05
-0.000116794
4.47004e-05
-0.000110857
5.27543e-05
-0.000103933
5.98847e-05
-9.64867e-05
6.59648e-05
-8.89402e-05
7.09948e-05
-8.16118e-05
7.50748e-05
-7.46992e-05
7.83582e-05
-6.83002e-05
8.10105e-05
-6.24416e-05
8.31843e-05
-5.71069e-05
8.50082e-05
-5.22568e-05
8.65851e-05
-4.78426e-05
8.7995e-05
-4.38135e-05
8.92995e-05
-4.01212e-05
9.05462e-05
-3.6721e-05
9.17725e-05
-3.3573e-05
9.30086e-05
-3.06411e-05
9.42794e-05
-2.78931e-05
9.56064e-05
-2.53002e-05
9.70082e-05
-2.28357e-05
9.85015e-05
-2.04751e-05
0.000100101
-1.81951e-05
0.00010182
-1.59737e-05
0.00010367
-1.37893e-05
0.000105662