/*--------------------------------*- C++ -*----------------------------------*\
  =========                 |
  \\      /  F ield         | OpenFOAM: The Open Source CFD Toolbox
   \\    /   O peration     | Website:  https://openfoam.org
    \\  /    A nd           | Version:  9
     \\/     M anipulation  |
\*---------------------------------------------------------------------------*/
FoamFile
{
    format      ascii;
    class       surfaceScalarField;
    location    "0.175";
    object      phi;
}
// * * * * * * * * * * * * * * * * * * * * * * * * * * * * * * * * * * * * * //

dimensions      [0 3 -1 0 0 0 0];

internalField   nonuniform List<scalar> 
1740
(
1.79445e-08
-1.79047e-08
1.40978e-08
3.84964e-09
-2.58116e-08
3.99077e-08
-9.98354e-08
7.40243e-08
-2.01148e-07
1.01312e-07
-3.21625e-07
1.20478e-07
-4.53229e-07
1.31604e-07
-5.88569e-07
1.35339e-07
-7.21055e-07
1.32485e-07
-8.44881e-07
1.23827e-07
-9.54966e-07
1.10086e-07
-1.0469e-06
9.19337e-08
-1.11693e-06
7.00322e-08
-1.16201e-06
4.50816e-08
-1.17988e-06
1.78701e-08
-1.1692e-06
-1.06865e-08
-1.12968e-06
-3.9521e-08
-1.06226e-06
-6.74126e-08
-9.69255e-07
-9.30089e-08
-8.5438e-07
-1.14875e-07
-7.22815e-07
-1.31566e-07
-5.81093e-07
-1.41723e-07
-4.36914e-07
-1.44179e-07
-2.98837e-07
-1.38077e-07
-1.75837e-07
-1.23e-07
-7.66768e-08
-9.916e-08
-8.93413e-09
-6.77427e-08
2.26381e-08
-3.15721e-08
1.95992e-08
3.03918e-09
1.95994e-08
-2.99263e-09
-1.49105e-08
-6.55859e-08
6.64446e-08
-2.04443e-07
1.7876e-07
-4.16172e-07
2.85754e-07
-6.88203e-07
3.73345e-07
-1.00382e-06
4.36097e-07
-1.34511e-06
4.7289e-07
-1.69457e-06
4.84797e-07
-2.03591e-06
4.73826e-07
-2.35437e-06
4.42289e-07
-2.63684e-06
3.92559e-07
-2.87193e-06
3.2702e-07
-3.05003e-06
2.48131e-07
-3.16348e-06
1.58537e-07
-3.20681e-06
6.11986e-08
-3.17699e-06
-4.05095e-08
-3.07377e-06
-1.42741e-07
-2.89999e-06
-2.4119e-07
-2.66182e-06
-3.31176e-07
-2.36888e-06
-4.07821e-07
-2.03414e-06
-4.66303e-07
-1.67369e-06
-5.02176e-07
-1.30611e-06
-5.11759e-07
-9.51634e-07
-4.92556e-07
-6.30882e-07
-4.43752e-07
-3.6318e-07
-3.66862e-07
-1.64189e-07
-2.66733e-07
-4.26704e-08
-1.53092e-07
4.22045e-09
-4.38528e-08
2.382e-08
-3.90589e-08
2.41475e-08
-1.80089e-07
2.07474e-07
-4.28628e-07
4.27301e-07
-7.75812e-07
6.32937e-07
-1.20378e-06
8.0131e-07
-1.68979e-06
9.22109e-07
-2.20922e-06
9.9232e-07
-2.73752e-06
1.01309e-06
-3.25137e-06
9.87676e-07
-3.72933e-06
9.20256e-07
-4.15221e-06
8.15436e-07
-4.50325e-06
6.78059e-07
-4.76838e-06
5.1326e-07
-4.93647e-06
3.2663e-07
-4.99969e-06
1.24409e-07
-4.95384e-06
-8.63506e-08
-4.79888e-06
-2.97709e-07
-4.53919e-06
-5.00879e-07
-4.18395e-06
-6.86417e-07
-3.74719e-06
-8.44576e-07
-3.24769e-06
-9.6581e-07
-2.70843e-06
-1.04143e-06
-2.15583e-06
-1.06437e-06
-1.61833e-06
-1.03005e-06
-1.12471e-06
-9.37374e-07
-7.01674e-07
-7.899e-07
-3.70969e-07
-5.97438e-07
-1.45916e-07
-3.78145e-07
-2.75302e-08
-1.62239e-07
-3.7103e-09
-7.6165e-08
1.00311e-07
-2.99989e-07
4.31299e-07
-6.61402e-07
7.88715e-07
-1.1423e-06
1.11383e-06
-1.71812e-06
1.37714e-06
-2.36043e-06
1.56441e-06
-3.03913e-06
1.67103e-06
-3.72434e-06
1.6983e-06
-4.38751e-06
1.65085e-06
-5.00225e-06
1.53499e-06
-5.54477e-06
1.35796e-06
-5.99432e-06
1.1276e-06
-6.33343e-06
8.52368e-07
-6.54832e-06
5.41526e-07
-6.62934e-06
2.05424e-07
-6.57138e-06
-1.44312e-07
-6.3744e-06
-4.94682e-07
-6.04388e-06
-8.31399e-07
-5.5911e-06
-1.1392e-06
-5.03326e-06
-1.40241e-06
-4.39333e-06
-1.60575e-06
-3.69941e-06
-1.73535e-06
-2.98373e-06
-1.78004e-06
-2.28112e-06
-1.73266e-06
-1.62685e-06
-1.59164e-06
-1.05408e-06
-1.36266e-06
-5.90856e-07
-1.06067e-06
-2.56939e-07
-7.12063e-07
-6.11263e-08
-3.58052e-07
-6.48368e-08
-1.10924e-07
2.11234e-07
-4.16008e-07
7.36383e-07
-8.88936e-07
1.26164e-06
-1.50053e-06
1.72542e-06
-2.21832e-06
2.09494e-06
-3.00779e-06
2.35388e-06
-3.83381e-06
2.49704e-06
-4.66197e-06
2.52647e-06
-5.45964e-06
2.44852e-06
-6.19664e-06
2.27199e-06
-6.84578e-06
2.0071e-06
-7.38324e-06
1.66507e-06
-7.789e-06
1.25812e-06
-8.04719e-06
7.99721e-07
-8.14663e-06
3.04862e-07
-8.0813e-06
-2.09645e-07
-7.8509e-06
-7.25076e-07
-7.46138e-06
-1.22092e-06
-6.92528e-06
-1.67531e-06
-6.26189e-06
-2.0658e-06
-5.49716e-06
-2.37048e-06
-4.66305e-06
-2.56946e-06
-3.79649e-06
-2.6466e-06
-2.93773e-06
-2.59143e-06
-2.12812e-06
-2.40126e-06
-1.40743e-06
-2.08335e-06
-8.10918e-07
-1.65718e-06
-3.66535e-07
-1.15645e-06
-9.29911e-08
-6.31596e-07
-1.57828e-07
-1.42865e-07
3.541e-07
-5.25517e-07
1.11903e-06
-1.10641e-06
1.84253e-06
-1.84478e-06
2.46379e-06
-2.69954e-06
2.9497e-06
-3.6297e-06
3.28403e-06
-4.59509e-06
3.46243e-06
-5.55726e-06
3.48863e-06
-6.48011e-06
3.37137e-06
-7.33051e-06
3.12239e-06
-8.07863e-06
2.75523e-06
-8.69838e-06
2.28481e-06
-9.16769e-06
1.72744e-06
-9.46901e-06
1.10104e-06
-9.58972e-06
4.25575e-07
-9.52276e-06
-2.76612e-07
-9.26716e-06
-9.80672e-07
-8.8287e-06
-1.65938e-06
-8.22033e-06
-2.28368e-06
-7.46252e-06
-2.82361e-06
-6.58319e-06
-3.2498e-06
-5.61731e-06
-3.53535e-06
-4.60586e-06
-3.65806e-06
-3.59423e-06
-3.60306e-06
-2.63004e-06
-3.36545e-06
-1.76038e-06
-2.95301e-06
-1.02893e-06
-2.38863e-06
-4.73196e-07
-1.71218e-06
-1.22859e-07
-9.81934e-07
-2.80688e-07
-1.72369e-07
5.2647e-07
-6.28569e-07
1.57523e-06
-1.31319e-06
2.52716e-06
-2.17406e-06
3.32465e-06
-3.16122e-06
3.93686e-06
-4.22694e-06
4.34975e-06
-5.32601e-06
4.5615e-06
-6.41612e-06
4.57874e-06
-7.45819e-06
4.41345e-06
-8.41665e-06
4.08085e-06
-9.25968e-06
3.59825e-06
-9.95939e-06
2.98452e-06
-1.04921e-05
2.26019e-06
-1.08389e-05
1.44775e-06
-1.09855e-05
5.72251e-07
-1.09238e-05
-3.38359e-07
-1.06515e-05
-1.25293e-06
-1.01737e-05
-2.13726e-06
-9.50271e-06
-2.95461e-06
-8.65942e-06
-3.66691e-06
-7.67284e-06
-4.23638e-06
-6.58023e-06
-4.62795e-06
-5.42624e-06
-4.81205e-06
-4.26146e-06
-4.76784e-06
-3.14026e-06
-4.48665e-06
-2.11804e-06
-3.97523e-06
-1.24813e-06
-3.25854e-06
-5.78912e-07
-2.3814e-06
-1.5166e-07
-1.40919e-06
-4.32348e-07
-2.00032e-07
7.26501e-07
-7.26218e-07
2.10142e-06
-1.51045e-06
3.31139e-06
-2.48953e-06
4.30374e-06
-3.60468e-06
5.052e-06
-4.80136e-06
5.54644e-06
-6.02935e-06
5.7895e-06
-7.24268e-06
5.79207e-06
-8.39962e-06
5.57039e-06
-9.46265e-06
5.14388e-06
-1.03984e-05
4.53399e-06
-1.11776e-05
3.76378e-06
-1.17755e-05
2.85803e-06
-1.21715e-05
1.84379e-06
-1.23503e-05
7.51009e-07
-1.23018e-05
-3.86862e-07
-1.20223e-05
-1.53245e-06
-1.1515e-05
-2.64448e-06
-1.07914e-05
-3.6783e-06
-9.87122e-06
-4.58704e-06
-8.78397e-06
-5.32363e-06
-7.56846e-06
-5.84346e-06
-6.27267e-06
-6.10784e-06
-4.95245e-06
-6.08805e-06
-3.66957e-06
-5.76953e-06
-2.48879e-06
-5.15601e-06
-1.4745e-06
-4.27283e-06
-6.87239e-07
-3.16866e-06
-1.80745e-07
-1.91568e-06
-6.13093e-07
-2.2639e-07
9.5289e-07
-8.19652e-07
2.69468e-06
-1.69975e-06
4.19149e-06
-2.79288e-06
5.39687e-06
-4.03155e-06
6.29067e-06
-5.35453e-06
6.86942e-06
-6.70666e-06
7.14163e-06
-8.03858e-06
7.12399e-06
-9.30627e-06
6.83807e-06
-1.04707e-05
6.3083e-06
-1.14974e-05
5.56073e-06
-1.23564e-05
4.62274e-06
-1.30217e-05
3.52336e-06
-1.34718e-05
2.29391e-06
-1.36898e-05
9.6894e-07
-1.36636e-05
-4.12978e-07
-1.33875e-05
-1.80857e-06
-1.28623e-05
-3.16966e-06
-1.20971e-05
-4.44354e-06
-1.111e-05
-5.5741e-06
-9.92973e-06
-6.50394e-06
-8.59578e-06
-7.17741e-06
-7.15896e-06
-7.54467e-06
-5.68039e-06
-7.56662e-06
-4.22976e-06
-7.22017e-06
-2.88232e-06
-6.50345e-06
-1.71505e-06
-5.4401e-06
-8.02258e-07
-4.08145e-06
-2.11541e-07
-2.5064e-06
-8.24634e-07
-2.51848e-07
1.20474e-06
-9.09873e-07
3.35271e-06
-1.8825e-06
5.16411e-06
-3.08555e-06
6.59992e-06
-4.44295e-06
7.64808e-06
-5.88691e-06
8.31337e-06
-7.35756e-06
8.61229e-06
-8.80246e-06
8.56888e-06
-1.01758e-05
8.21137e-06
-1.14374e-05
7.56998e-06
-1.25526e-05
6.67586e-06
-1.34907e-05
5.56088e-06
-1.42255e-05
4.25812e-06
-1.47344e-05
2.80281e-06
-1.49989e-05
1.23353e-06
-1.50053e-05
-4.06664e-07
-1.47446e-05
-2.0692e-06
-1.42149e-05
-3.69944e-06
-1.34216e-05
-5.23677e-06
-1.23802e-05
-6.61553e-06
-1.11171e-05
-7.76706e-06
-9.67147e-06
-8.62302e-06
-8.09606e-06
-9.12008e-06
-6.45694e-06
-9.20574e-06
-4.83208e-06
-8.84503e-06
-3.30832e-06
-8.02721e-06
-1.97692e-06
-6.77151e-06
-9.28108e-07
-5.13027e-06
-2.45437e-07
-3.18907e-06
-1.07007e-06
-2.76698e-07
1.48144e-06
-9.9765e-07
4.07366e-06
-2.05975e-06
6.22621e-06
-3.36846e-06
7.90863e-06
-4.83916e-06
9.11877e-06
-6.39757e-06
9.87179e-06
-7.97946e-06
1.01942e-05
-9.52971e-06
1.01191e-05
-1.10012e-05
9.68289e-06
-1.23537e-05
8.92245e-06
-1.35524e-05
7.87456e-06
-1.45672e-05
6.57566e-06
-1.53717e-05
5.06266e-06
-1.5943e-05
3.37412e-06
-1.62614e-05
1.55188e-06
-1.63106e-05
-3.57417e-07
-1.6079e-05
-2.30085e-06
-1.55603e-05
-4.21813e-06
-1.47558e-05
-6.04124e-06
-1.36764e-05
-7.69493e-06
-1.23449e-05
-9.09855e-06
-1.07985e-05
-1.01695e-05
-9.09042e-06
-1.08282e-05
-7.29089e-06
-1.10053e-05
-5.48618e-06
-1.06497e-05
-3.77571e-06
-9.73767e-06
-2.26698e-06
-8.28024e-06
-1.06881e-06
-6.32844e-06
-2.83771e-07
-3.9741e-06
-1.35384e-06
-3.01169e-07
1.78261e-06
-1.08363e-06
4.85612e-06
-2.23237e-06
7.37496e-06
-3.64215e-06
9.31841e-06
-5.21963e-06
1.06963e-05
-6.88419e-06
1.15363e-05
-8.5675e-06
1.18775e-05
-1.02124e-05
1.1764e-05
-1.17713e-05
1.12418e-05
-1.32044e-05
1.03556e-05
-1.44782e-05
9.14832e-06
-1.55636e-05
7.66112e-06
-1.64353e-05
5.93433e-06
-1.70704e-05
4.00918e-06
-1.74482e-05
1.92973e-06
-1.75506e-05
-2.54989e-07
-1.73625e-05
-2.489e-06
-1.6873e-05
-4.70763e-06
-1.60778e-05
-6.83641e-06
-1.49818e-05
-8.79097e-06
-1.3602e-05
-1.04783e-05
-1.19715e-05
-1.18e-05
-1.01421e-05
-1.26576e-05
-8.18664e-06
-1.29608e-05
-6.19906e-06
-1.26373e-05
-4.29206e-06
-1.16447e-05
-2.59152e-06
-9.98079e-06
-1.2282e-06
-7.69176e-06
-3.27842e-07
-4.87446e-06
-1.68168e-06
-3.25508e-07
2.10811e-06
-1.16851e-06
5.69912e-06
-2.40126e-06
8.60771e-06
-3.90705e-06
1.08242e-05
-5.58339e-06
1.23726e-05
-7.3433e-06
1.32963e-05
-9.11478e-06
1.3649e-05
-1.08393e-05
1.34886e-05
-1.24699e-05
1.28723e-05
-1.39684e-05
1.18541e-05
-1.53035e-05
1.04834e-05
-1.64486e-05
8.80624e-06
-1.73802e-05
6.86595e-06
-1.80766e-05
4.70556e-06
-1.8517e-05
2.37015e-06
-1.86816e-05
-9.04181e-08
-1.85518e-05
-2.6188e-06
-1.81117e-05
-5.14768e-06
-1.73504e-05
-7.59772e-06
-1.62649e-05
-9.87652e-06
-1.48642e-05
-1.1879e-05
-1.31744e-05
-1.34898e-05
-1.12429e-05
-1.45891e-05
-9.14265e-06
-1.5061e-05
-6.97397e-06
-1.4806e-05
-4.86298e-06
-1.37557e-05
-2.95606e-06
-1.18877e-05
-1.40995e-06
-9.23788e-06
-3.78954e-07
-5.90545e-06
-2.06064e-06
-3.5008e-07
2.45819e-06
-1.25337e-06
6.60241e-06
-2.56788e-06
9.92223e-06
-4.16405e-06
1.24204e-05
-5.9295e-06
1.41381e-05
-7.77074e-06
1.51375e-05
-9.61262e-06
1.54909e-05
-1.13963e-05
1.52723e-05
-1.30765e-05
1.45525e-05
-1.46182e-05
1.33958e-05
-1.5994e-05
1.18592e-05
-1.71811e-05
9.9933e-06
-1.81592e-05
7.84413e-06
-1.89091e-05
5.45545e-06
-1.9411e-05
2.87198e-06
-1.9644e-05
1.42608e-07
-1.95867e-05
-2.6761e-06
-1.92179e-05
-5.51647e-06
-1.8519e-05
-8.29663e-06
-1.74775e-05
-1.09181e-05
-1.60917e-05
-1.32647e-05
-1.43773e-05
-1.52042e-05
-1.23734e-05
-1.6593e-05
-1.01494e-05
-1.7285e-05
-7.80917e-06
-1.71463e-05
-5.4915e-06
-1.60733e-05
-3.36515e-06
-1.40141e-05
-1.61755e-06
-1.09855e-05
-4.38448e-07
-7.08455e-06
-2.49909e-06
-3.75516e-07
2.83371e-06
-1.34004e-06
7.56693e-06
-2.73481e-06
1.1317e-05
-4.41522e-06
1.41008e-05
-6.25772e-06
1.59806e-05
-8.16216e-06
1.70419e-05
-1.00509e-05
1.73796e-05
-1.18662e-05
1.70876e-05
-1.3566e-05
1.62523e-05
-1.51204e-05
1.49502e-05
-1.65075e-05
1.32463e-05
-1.77102e-05
1.11961e-05
-1.87135e-05
8.84741e-06
-1.95019e-05
6.24385e-06
-2.0058e-05
3.42811e-06
-2.03615e-05
4.46074e-07
-2.03886e-05
-2.64896e-06
-2.01132e-05
-5.79186e-06
-1.95086e-05
-8.90125e-06
-1.85511e-05
-1.18755e-05
-1.72258e-05
-1.459e-05
-1.55336e-05
-1.68964e-05
-1.35006e-05
-1.8626e-05
-1.11871e-05
-1.95984e-05
-8.69623e-06
-1.96371e-05
-6.17713e-06
-1.85924e-05
-3.8221e-06
-1.63691e-05
-1.85438e-06
-1.29532e-05
-5.0777e-07
-8.43116e-06
-3.00686e-06
-4.02906e-07
3.23662e-06
-1.43164e-06
8.59566e-06
-2.90655e-06
1.27919e-05
-4.66459e-06
1.58588e-05
-6.56922e-06
1.78852e-05
-8.51347e-06
1.89862e-05
-1.04183e-05
1.92845e-05
-1.22287e-05
1.88979e-05
-1.39083e-05
1.79319e-05
-1.54344e-05
1.64763e-05
-1.6793e-05
1.46049e-05
-1.79749e-05
1.2378e-05
-1.89721e-05
9.84457e-06
-1.9775e-05
7.04676e-06
-2.03705e-05
4.02359e-06
-2.07402e-05
8.15744e-07
-2.08596e-05
-2.52952e-06
-2.06985e-05
-5.95297e-06
-2.02221e-05
-9.37762e-06
-1.93947e-05
-1.27029e-05
-1.81853e-05
-1.57994e-05
-1.6576e-05
-1.85057e-05
-1.45736e-05
-2.06285e-05
-1.22225e-05
-2.19495e-05
-9.61787e-06
-2.22417e-05
-6.91479e-06
-2.12955e-05
-4.32863e-06
-1.89552e-05
-2.12373e-06
-1.51581e-05
-5.8856e-07
-9.96633e-06
-3.59542e-06
-4.34097e-07
3.67071e-06
-1.53333e-06
9.69489e-06
-3.09052e-06
1.43491e-05
-4.91907e-06
1.76874e-05
-6.86712e-06
1.98333e-05
-8.82091e-06
2.094e-05
-1.07017e-05
2.11653e-05
-1.24599e-05
2.06561e-05
-1.40676e-05
1.95397e-05
-1.55123e-05
1.79209e-05
-1.67906e-05
1.58832e-05
-1.79033e-05
1.34907e-05
-1.88518e-05
1.07931e-05
-1.96347e-05
7.82964e-06
-2.02451e-05
4.63395e-06
-2.06686e-05
1.23925e-06
-2.0882e-05
-2.3161e-06
-2.08526e-05
-5.98242e-06
-2.05385e-05
-9.69165e-06
-1.98918e-05
-1.33496e-05
-1.88635e-05
-1.68278e-05
-1.74127e-05
-1.99566e-05
-1.552e-05
-2.25212e-05
-1.32049e-05
-2.42646e-05
-1.05451e-05
-2.49016e-05
-7.6931e-06
-2.41475e-05
-4.8844e-06
-2.17639e-05
-2.42897e-06
-1.76135e-05
-6.82814e-07
-1.17125e-05
-4.27823e-06
-4.72118e-07
4.14283e-06
-1.65325e-06
1.0876e-05
-3.29812e-06
1.5994e-05
-5.18922e-06
1.95784e-05
-7.15652e-06
2.18006e-05
-9.08024e-06
2.28637e-05
-1.08849e-05
2.29699e-05
-1.253e-05
2.23012e-05
-1.40001e-05
2.10098e-05
-1.52964e-05
1.92172e-05
-1.64288e-05
1.70156e-05
-1.74113e-05
1.44731e-05
-1.82565e-05
1.16384e-05
-1.89734e-05
8.5465e-06
-1.95634e-05
5.22397e-06
-2.00187e-05
1.69449e-06
-2.03195e-05
-2.01525e-06
-2.04331e-05
-5.8688e-06
-2.03129e-05
-9.81192e-06
-1.98995e-05
-1.3763e-05
-1.91254e-05
-1.76019e-05
-1.79233e-05
-2.11586e-05
-1.62409e-05
-2.42036e-05
-1.4062e-05
-2.64435e-05
-1.14333e-05
-2.75303e-05
-8.49215e-06
-2.70886e-05
-5.48628e-06
-2.47698e-05
-2.77378e-06
-2.0326e-05
-7.93175e-07
-1.36931e-05
-5.0714e-06
-5.21864e-07
4.6647e-06
-1.80395e-06
1.21581e-05
-3.54606e-06
1.77361e-05
-5.48952e-06
2.15219e-05
-7.44339e-06
2.37544e-05
-9.28423e-06
2.47045e-05
-1.09447e-05
2.46304e-05
-1.23991e-05
2.37556e-05
-1.36496e-05
2.22603e-05
-1.4715e-05
2.02825e-05
-1.56222e-05
1.79228e-05
-1.64002e-05
1.52512e-05
-1.70757e-05
1.23138e-05
-1.76692e-05
9.13998e-06
-1.81927e-05
5.74752e-06
-1.8647e-05
2.14879e-06
-1.90188e-05
-1.64349e-06
-1.92782e-05
-5.60934e-06
-1.93771e-05
-9.71305e-06
-1.92478e-05
-1.38922e-05
-1.88056e-05
-1.80441e-05
-1.79553e-05
-2.2009e-05
-1.66055e-05
-2.55533e-05
-1.4693e-05
-2.8356e-05
-1.22168e-05
-3.00064e-05
-9.27993e-06
-3.00255e-05
-6.12723e-06
-2.79225e-05
-3.16252e-06
-2.32907e-05
-9.23466e-07
-1.59321e-05
-5.99487e-06
-5.91216e-07
5.25591e-06
-2.00417e-06
1.35711e-05
-3.85733e-06
1.95892e-05
-5.83736e-06
2.35019e-05
-7.73102e-06
2.56481e-05
-9.4169e-06
2.63904e-05
-1.0844e-05
2.60576e-05
-1.20095e-05
2.4921e-05
-1.29395e-05
2.31904e-05
-1.36755e-05
2.10186e-05
-1.42645e-05
1.85118e-05
-1.47527e-05
1.57393e-05
-1.51816e-05
1.27427e-05
-1.55849e-05
9.54332e-06
-1.59864e-05
6.14899e-06
-1.6397e-05
2.55946e-06
-1.68126e-05
-1.22794e-06
-1.72099e-05
-5.21204e-06
-1.75435e-05
-9.37949e-06
-1.77422e-05
-1.36935e-05
-1.77084e-05
-1.80779e-05
-1.73205e-05
-2.23968e-05
-1.64453e-05
-2.64285e-05
-1.49617e-05
-2.98397e-05
-1.28014e-05
-3.21667e-05
-1.00068e-05
-3.28201e-05
-6.79413e-06
-3.11352e-05
-3.60088e-06
-2.6484e-05
-1.07968e-06
-1.84533e-05
-7.07455e-06
-6.92928e-07
5.94884e-06
-2.28135e-06
1.51595e-05
-4.26135e-06
2.15693e-05
-6.24899e-06
2.54896e-05
-8.01172e-06
2.74108e-05
-9.44182e-06
2.78205e-05
-1.05179e-05
2.71337e-05
-1.12712e-05
2.56743e-05
-1.17598e-05
2.3679e-05
-1.20528e-05
2.13116e-05
-1.22197e-05
1.86787e-05
-1.23249e-05
1.58445e-05
-1.24248e-05
1.28426e-05
-1.25661e-05
9.68459e-06
-1.27841e-05
6.367e-06
-1.31011e-05
2.87651e-06
-1.35237e-05
-8.05314e-07
-1.4039e-05
-4.69679e-06
-1.46094e-05
-8.80909e-06
-1.51672e-05
-1.31357e-05
-1.56091e-05
-1.76361e-05
-1.57939e-05
-2.2212e-05
-1.55482e-05
-2.66742e-05
-1.46862e-05
-3.07017e-05
-1.3053e-05
-3.37998e-05
-1.05964e-05
-3.52767e-05
-7.4634e-06
-3.42682e-05
-4.09635e-06
-2.98511e-05
-1.27176e-06
-2.12779e-05
-8.34632e-06
-8.47869e-07
6.79671e-06
-2.67436e-06
1.6986e-05
-4.79106e-06
2.36859e-05
-6.72883e-06
2.74274e-05
-8.24923e-06
2.89312e-05
-9.28026e-06
2.88515e-05
-9.85038e-06
2.77038e-05
-1.00393e-05
2.58632e-05
-9.94615e-06
2.35858e-05
-9.67129e-06
2.10367e-05
-9.30749e-06
1.83149e-05
-8.93624e-06
1.54733e-05
-8.62688e-06
1.25332e-05
-8.43669e-06
9.49441e-06
-8.41101e-06
6.34131e-06
-8.58253e-06
3.04803e-06
-8.96941e-06
-4.18435e-07
-9.57156e-06
-4.09464e-06
-1.03649e-05
-8.01577e-06
-1.12932e-05
-1.22073e-05
-1.22588e-05
-1.66705e-05
-1.31129e-05
-2.13579e-05
-1.36518e-05
-2.61353e-05
-1.36267e-05
-3.07268e-05
-1.27808e-05
-3.46458e-05
-1.09293e-05
-3.71282e-05
-8.0916e-06
-3.71059e-05
-4.65752e-06
-3.32851e-05
-1.51658e-06
-2.44189e-05
-9.8629e-06
-1.09047e-06
7.88718e-06
-3.23515e-06
1.91307e-05
-5.47185e-06
2.59227e-05
-7.24455e-06
2.92e-05
-8.34387e-06
3.00305e-05
-8.77174e-06
2.92794e-05
-8.63496e-06
2.7567e-05
-8.07855e-06
2.53068e-05
-7.24951e-06
2.27568e-05
-6.28048e-06
2.00677e-05
-5.28464e-06
1.7319e-05
-4.35594e-06
1.45446e-05
-3.57159e-06
1.17489e-05
-2.99476e-06
8.91757e-06
-2.67669e-06
6.02324e-06
-2.65765e-06
3.02899e-06
-2.9662e-06
-1.09884e-07
-3.61632e-06
-3.44452e-06
-4.6017e-06
-7.0304e-06
-5.8865e-06
-1.09225e-05
-7.39213e-06
-1.51649e-05
-8.9807e-06
-1.97693e-05
-1.04387e-05
-2.46774e-05
-1.14693e-05
-2.96961e-05
-1.17121e-05
-3.44031e-05
-1.08153e-05
-3.8025e-05
-8.59513e-06
-3.93261e-05
-5.28908e-06
-3.65912e-05
-1.84244e-06
-2.78655e-05
-1.17053e-05
-1.47712e-06
9.3643e-06
-4.02361e-06
2.16771e-05
-6.28968e-06
2.81887e-05
-7.6722e-06
3.05826e-05
-8.06604e-06
3.04244e-05
-7.60671e-06
2.88201e-05
-6.51393e-06
2.64743e-05
-5.01188e-06
2.38047e-05
-3.29612e-06
2.1041e-05
-1.52529e-06
1.82969e-05
1.76084e-07
1.56176e-05
1.71104e-06
1.30096e-05
3.00334e-06
1.04566e-05
3.99164e-06
7.92927e-06
4.6252e-06
5.38968e-06
4.86123e-06
2.79295e-06
4.66413e-06
8.7223e-08
4.00691e-06
-2.78731e-06
2.87581e-06
-5.89929e-06
1.27906e-06
-9.32575e-06
-7.38344e-07
-1.31474e-05
-3.07252e-06
-1.74351e-05
-5.53176e-06
-2.22181e-05
-7.80637e-06
-2.74215e-05
-9.45496e-06
-3.27545e-05
-9.94475e-06
-3.75352e-05
-8.80713e-06
-4.04637e-05
-5.97324e-06
-3.94251e-05
-2.29369e-06
-3.1545e-05
-1.3999e-05
-2.09433e-06
1.14586e-05
-5.07633e-06
2.46591e-05
-7.10721e-06
3.02196e-05
-7.68063e-06
3.1156e-05
-6.93495e-06
2.96787e-05
-5.21777e-06
2.71029e-05
-2.89052e-06
2.4147e-05
-2.55695e-07
2.11699e-05
2.45725e-06
1.83281e-05
5.08239e-06
1.56717e-05
7.50178e-06
1.31983e-05
9.63094e-06
1.08804e-05
1.14073e-05
8.68028e-06
1.27814e-05
6.55509e-06
1.37115e-05
4.45962e-06
1.41588e-05
2.34562e-06
1.40861e-05
1.60008e-07
1.34568e-05
-2.15805e-06
1.22381e-05
-4.68059e-06
1.04068e-05
-7.49451e-06
7.96288e-06
-1.07035e-05
4.95217e-06
-1.44244e-05
1.50428e-06
-1.87703e-05
-2.11494e-06
-2.38023e-05
-5.44512e-06
-2.94243e-05
-7.80522e-06
-3.51751e-05
-8.3872e-06
-3.98817e-05
-6.61251e-06
-4.11998e-05
-2.9254e-06
-3.52322e-05
-1.69244e-05
-3.04172e-06
1.45004e-05
-6.28555e-06
2.7903e-05
-7.45477e-06
3.13888e-05
-6.4991e-06
3.02003e-05
-4.01269e-06
2.71923e-05
-6.22077e-07
2.37123e-05
3.17812e-06
2.03468e-05
7.04439e-06
1.73036e-05
1.07551e-05
1.46174e-05
1.41729e-05
1.22539e-05
1.72144e-05
1.01568e-05
1.9828e-05
8.26686e-06
2.19794e-05
6.52878e-06
2.36424e-05
4.8921e-06
2.4792e-05
3.31002e-06
2.54007e-05
1.73694e-06
2.54355e-05
1.25261e-07
2.48562e-05
-1.57877e-06
2.36153e-05
-3.43974e-06
2.16604e-05
-5.53961e-06
1.89417e-05
-7.98478e-06
1.54301e-05
-1.09128e-05
1.1153e-05
-1.44932e-05
6.25945e-06
-1.89087e-05
1.1208e-06
-2.42856e-05
-3.54909e-06
-3.05052e-05
-6.64043e-06
-3.67904e-05
-6.87091e-06
-4.09693e-05
-3.74873e-06
-3.83543e-05
-2.06732e-05
-4.30562e-06
1.8806e-05
-7.01568e-06
3.0613e-05
-6.04376e-06
3.04169e-05
-2.48611e-06
2.66427e-05
2.40494e-06
2.23013e-05
7.76411e-06
1.83531e-05
1.30686e-05
1.50423e-05
1.8034e-05
1.23383e-05
2.2522e-05
1.01293e-05
2.64755e-05
8.30048e-06
2.98776e-05
6.75465e-06
3.27295e-05
5.41489e-06
3.50375e-05
4.22082e-06
3.68054e-05
3.12424e-06
3.80306e-05
2.08477e-06
3.87015e-05
1.0661e-06
3.87944e-05
3.23514e-08
3.8272e-05
-1.05636e-06
3.708e-05
-2.24779e-06
3.51456e-05
-3.60518e-06
3.23766e-05
-5.21584e-06
2.8668e-05
-7.20416e-06
2.39224e-05
-9.74754e-06
1.81043e-05
-1.30906e-05
1.13552e-05
-1.75366e-05
4.19834e-06
-2.33483e-05
-2.18814e-06
-3.04039e-05
-5.80576e-06
-3.73517e-05
-4.53588e-06
-3.96242e-05
-2.52091e-05
-5.28682e-06
2.40928e-05
-5.04067e-06
3.03669e-05
2.67427e-07
2.51088e-05
7.57406e-06
1.9336e-05
1.51518e-05
1.47235e-05
2.22419e-05
1.12631e-05
2.85584e-05
8.7258e-06
3.40404e-05
6.85625e-06
3.87233e-05
5.44643e-06
4.26742e-05
4.34962e-06
4.59623e-05
3.46651e-06
4.86476e-05
2.7296e-06
5.07765e-05
2.09196e-06
5.23811e-05
1.51967e-06
5.34792e-05
9.86642e-07
5.40743e-05
4.71005e-07
5.41544e-05
-4.77918e-08
5.369e-05
-5.91943e-07
5.26303e-05
-1.18811e-06
5.08976e-05
-1.87246e-06
4.83793e-05
-2.69756e-06
4.49195e-05
-3.74431e-06
4.03138e-05
-5.14185e-06
3.43234e-05
-7.1003e-06
2.67438e-05
-9.95699e-06
1.76033e-05
-1.42077e-05
7.607e-06
-2.04076e-05
-1.08589e-06
-2.86588e-05
-4.31647e-06
-3.63936e-05
-2.95255e-05
-2.32199e-06
2.64148e-05
6.6e-06
2.14449e-05
1.84445e-05
1.32643e-05
2.92539e-05
8.52664e-06
3.82566e-05
5.72076e-06
4.55536e-05
3.96601e-06
5.14299e-05
2.84949e-06
5.61682e-05
2.11802e-06
5.99993e-05
1.61528e-06
6.30984e-05
1.25055e-06
6.55934e-05
9.71545e-07
6.75758e-05
7.47185e-07
6.91096e-05
5.58116e-07
7.02377e-05
3.91588e-07
7.09858e-05
2.38541e-07
7.1365e-05
9.18475e-08
7.13721e-05
-5.49533e-08
7.09887e-05
-2.08504e-07
7.01776e-05
-3.7698e-07
6.88767e-05
-5.71552e-07
6.69883e-05
-8.09201e-07
6.43618e-05
-1.11785e-06
6.07668e-05
-1.54678e-06
5.5855e-05
-2.18849e-06
4.91219e-05
-3.22397e-06
3.99254e-05
-5.0112e-06
2.77567e-05
-8.23887e-06
1.3215e-05
-1.41171e-05
6.43095e-07
-2.38217e-05
-2.88824e-05
2.64148e-05
4.78597e-05
6.1124e-05
6.96507e-05
7.53714e-05
7.93374e-05
8.21869e-05
8.43049e-05
8.59202e-05
8.71708e-05
8.81423e-05
8.88895e-05
8.94476e-05
8.98392e-05
9.00777e-05
9.01696e-05
9.01146e-05
8.99061e-05
8.95292e-05
8.89576e-05
8.81484e-05
8.70306e-05
8.54838e-05
8.32953e-05
8.00713e-05
7.50601e-05
6.68212e-05
5.27041e-05
2.88824e-05
)
;

boundaryField
{
    movingWall
    {
        type            calculated;
        value           uniform 0;
    }
    fixedWalls
    {
        type            calculated;
        value           uniform 0;
    }
    frontAndBack
    {
        type            empty;
        value           nonuniform List<scalar> 0();
    }
}


// ************************************************************************* //
