/*--------------------------------*- C++ -*----------------------------------*\
  =========                 |
  \\      /  F ield         | OpenFOAM: The Open Source CFD Toolbox
   \\    /   O peration     | Website:  https://openfoam.org
    \\  /    A nd           | Version:  9
     \\/     M anipulation  |
\*---------------------------------------------------------------------------*/
FoamFile
{
    format      ascii;
    class       volScalarField;
    location    "75";
    object      k;
}
// * * * * * * * * * * * * * * * * * * * * * * * * * * * * * * * * * * * * * //

dimensions      [0 2 -2 0 0 0 0];

internalField   nonuniform List<scalar> 
12225
(
0.362811
0.344027
0.327717
0.309856
0.29537
0.283548
0.275484
0.270382
0.270458
0.27207
0.276374
0.281147
0.290584
0.296635
0.308219
0.314202
0.328006
0.330177
0.440271
0.468755
0.461621
0.448447
0.450454
0.458504
0.474763
0.499227
0.525084
0.553451
0.58227
0.608493
0.636678
0.657596
0.68492
0.698611
0.729744
0.733726
0.390404
0.417857
0.420236
0.416834
0.411639
0.407846
0.408072
0.410151
0.414769
0.421683
0.431289
0.440314
0.452351
0.462386
0.475044
0.486082
0.497704
0.51238
0.377042
0.387167
0.391463
0.391342
0.390261
0.387888
0.38568
0.384095
0.382938
0.382966
0.38348
0.384518
0.386626
0.388804
0.391561
0.395126
0.397944
0.403327
0.374434
0.376094
0.378425
0.378663
0.378272
0.377193
0.375491
0.373726
0.37202
0.370452
0.369288
0.36812
0.367462
0.3669
0.366609
0.366605
0.36689
0.367443
0.37378
0.372704
0.372658
0.372362
0.371769
0.370805
0.369548
0.368063
0.366561
0.364951
0.363516
0.362038
0.360742
0.359527
0.358403
0.357481
0.356532
0.355991
0.373775
0.371739
0.370388
0.369279
0.368231
0.367101
0.365904
0.364566
0.363218
0.361777
0.36039
0.358983
0.357631
0.356336
0.355067
0.353924
0.352756
0.3518
0.373819
0.371559
0.369634
0.367972
0.366496
0.365096
0.363762
0.362408
0.361083
0.359733
0.35841
0.357095
0.355804
0.354556
0.353324
0.352169
0.351012
0.349971
0.373832
0.371553
0.369449
0.367522
0.365772
0.364144
0.362631
0.361179
0.359792
0.35844
0.357128
0.355851
0.354605
0.353403
0.352224
0.351102
0.349995
0.348966
0.373832
0.37156
0.369418
0.367402
0.365524
0.363764
0.36212
0.360567
0.359097
0.357696
0.356354
0.355068
0.353828
0.352639
0.351487
0.350389
0.349318
0.34831
0.373829
0.371561
0.369413
0.367377
0.365455
0.363638
0.361926
0.360308
0.358776
0.357324
0.355942
0.354627
0.35337
0.352171
0.35102
0.349924
0.348866
0.347867
0.373828
0.371559
0.369409
0.367369
0.365436
0.363603
0.361866
0.36022
0.358658
0.357176
0.355768
0.354428
0.353153
0.351938
0.350777
0.349673
0.348614
0.347611
0.373827
0.371557
0.369405
0.367364
0.365428
0.363589
0.361844
0.360186
0.35861
0.357113
0.355689
0.354335
0.353044
0.351817
0.350646
0.349533
0.348467
0.347457
0.373827
0.371555
0.369402
0.36736
0.365421
0.363581
0.361832
0.36017
0.358589
0.357085
0.355654
0.354292
0.352994
0.351758
0.35058
0.349459
0.348388
0.34737
0.373826
0.371554
0.369399
0.367355
0.365416
0.363573
0.361823
0.360159
0.358577
0.357071
0.355638
0.354272
0.352972
0.351733
0.350553
0.349427
0.348354
0.347331
0.373826
0.371553
0.369396
0.367352
0.36541
0.363567
0.361816
0.360152
0.358568
0.357062
0.355627
0.354262
0.352961
0.351722
0.35054
0.349414
0.34834
0.347316
0.373826
0.371551
0.369395
0.367348
0.365406
0.363562
0.36181
0.360145
0.358561
0.357054
0.35562
0.354254
0.352954
0.351714
0.350534
0.349408
0.348335
0.347311
0.373825
0.371551
0.369393
0.367346
0.365404
0.363559
0.361807
0.36014
0.358557
0.35705
0.355616
0.35425
0.352951
0.351711
0.350532
0.349406
0.348335
0.347312
0.373825
0.37155
0.369393
0.367345
0.365403
0.363558
0.361806
0.36014
0.358557
0.35705
0.355617
0.354252
0.352953
0.351715
0.350536
0.349412
0.348341
0.34732
0.373825
0.37155
0.369393
0.367346
0.365405
0.363559
0.361809
0.360143
0.358562
0.357055
0.355624
0.354259
0.352963
0.351725
0.350549
0.349426
0.348358
0.347337
0.373825
0.371551
0.369394
0.367349
0.365407
0.363565
0.361814
0.360151
0.358569
0.357067
0.355636
0.354276
0.352979
0.351747
0.350571
0.349453
0.348385
0.34737
0.373826
0.371552
0.369396
0.367352
0.365413
0.363573
0.361826
0.360168
0.358593
0.357096
0.355674
0.354321
0.353035
0.35181
0.350644
0.349533
0.348476
0.347466
0.373826
0.371553
0.369399
0.36736
0.36543
0.363605
0.36188
0.360248
0.358702
0.357235
0.355843
0.354518
0.353258
0.352055
0.350911
0.349815
0.348772
0.347771
0.373828
0.37155
0.369412
0.367418
0.365558
0.363823
0.362195
0.36066
0.359201
0.35781
0.356477
0.355197
0.353967
0.352783
0.351645
0.350548
0.349496
0.348479
0.373822
0.371554
0.369604
0.367894
0.366341
0.364896
0.363501
0.362131
0.360773
0.35943
0.358101
0.356794
0.355517
0.354272
0.353068
0.351902
0.350785
0.349704
0.37378
0.371989
0.371112
0.370266
0.369361
0.368316
0.367053
0.365639
0.364131
0.362588
0.361045
0.359539
0.358092
0.356703
0.355403
0.354164
0.353031
0.351945
0.374298
0.375565
0.37778
0.377858
0.377291
0.375888
0.373833
0.371644
0.369501
0.36748
0.365655
0.364068
0.362688
0.361502
0.360564
0.359756
0.359209
0.358698
0.378733
0.394398
0.398302
0.396574
0.392568
0.387616
0.383631
0.380446
0.378224
0.376803
0.376393
0.376626
0.377233
0.378465
0.380144
0.382046
0.384363
0.386579
0.408342
0.427527
0.42241
0.41102
0.402202
0.397836
0.398441
0.400947
0.405711
0.412657
0.420471
0.429141
0.437968
0.447116
0.456013
0.465007
0.473513
0.482083
0.366033
0.353411
0.341985
0.33021
0.318975
0.308387
0.299391
0.29167
0.28537
0.280298
0.276607
0.27377
0.272158
0.270982
0.270918
0.271166
0.271741
0.272854
0.0317415
0.0658483
0.089883
0.109665
0.125283
0.135899
0.137912
0.1444
0.144589
0.140093
0.136713
0.135141
0.131487
0.143451
0.151028
0.162864
0.143895
0.129956
0.126151
0.131487
0.140392
0.152514
0.161956
0.173116
0.186785
0.203298
0.222957
0.245673
0.271255
0.299254
0.329413
0.360917
0.393082
0.425392
0.457502
0.489191
0.520217
0.550548
0.580011
0.608694
0.636465
0.663482
0.689638
0.71513
0.739862
0.764056
0.787604
0.810752
0.833375
0.855734
0.877681
0.899485
0.920983
0.942442
0.963691
0.98499
1.00614
1.02742
1.04861
1.06998
1.09128
1.11281
1.13429
1.15601
1.17766
1.19955
1.22134
1.24333
1.26516
1.28713
1.30888
1.33067
1.35217
1.37356
1.39455
1.41529
1.4355
1.45532
1.47448
1.49312
1.51097
1.52821
1.54464
1.56051
1.57568
1.59035
1.60378
1.61635
1.62767
1.63792
1.64696
1.65449
1.66041
1.66457
1.66617
1.67005
1.66817
1.66565
1.6608
1.65392
1.64481
1.63331
1.61965
1.60375
1.58563
1.5653
1.54276
1.51811
1.49169
1.46379
1.43443
1.40375
1.37196
1.33923
1.30581
1.27186
1.23755
1.20192
1.16567
1.12973
1.09414
1.05911
1.02476
0.991239
0.958777
0.927481
0.898281
0.875085
0.854781
0.835377
0.816585
0.798405
0.780874
0.763928
0.747617
0.731893
0.716805
0.702254
0.6884
0.674927
0.66161
0.648753
0.636437
0.624676
0.613489
0.602842
0.592716
0.583031
0.573713
0.564757
0.556168
0.547938
0.540053
0.532507
0.525273
0.518315
0.511619
0.505166
0.498953
0.492972
0.48721
0.481653
0.476293
0.471124
0.466138
0.461319
0.456666
0.45216
0.447787
0.443523
0.439373
0.435239
0.431243
0.426985
0.423134
0.418123
0.414232
0.407817
0.401328
0.382213
0.0598831
0.108389
0.146644
0.172931
0.191958
0.206666
0.220319
0.231631
0.240948
0.248383
0.254586
0.260172
0.265954
0.273822
0.282683
0.292053
0.305762
0.321967
0.343742
0.370761
0.400537
0.42958
0.458587
0.488874
0.520847
0.55483
0.591232
0.63023
0.671802
0.715686
0.761602
0.809205
0.857963
0.907131
0.956431
1.0056
1.05442
1.1027
1.15027
1.19701
1.24282
1.28764
1.3314
1.37411
1.41575
1.45637
1.49598
1.53466
1.57243
1.60939
1.64559
1.68112
1.71604
1.75044
1.78439
1.81797
1.85123
1.88427
1.91713
1.9499
1.9826
2.01535
2.04815
2.08111
2.11421
2.14757
2.18114
2.21503
2.24918
2.28368
2.31848
2.35362
2.38906
2.4248
2.46078
2.49699
2.53333
2.5698
2.60628
2.64271
2.67893
2.71483
2.75019
2.78486
2.81859
2.85147
2.88374
2.91526
2.94584
2.97546
3.0038
3.0306
3.05555
3.07839
3.09877
3.11662
3.13093
3.1404
3.14975
3.15329
3.15472
3.15026
3.14138
3.1279
3.10971
3.08675
3.05893
3.02609
2.98815
2.94604
2.90011
2.85066
2.79808
2.7428
2.68525
2.62587
2.56505
2.50324
2.44073
2.37801
2.31535
2.25309
2.19155
2.13101
2.07167
2.01395
1.95803
1.90403
1.85168
1.8009
1.75173
1.70422
1.65844
1.61442
1.57215
1.53161
1.49275
1.45554
1.41991
1.38519
1.35173
1.31967
1.28901
1.25975
1.23185
1.20525
1.17987
1.15553
1.13209
1.10958
1.08797
1.06724
1.04734
1.02825
1.0099
0.99219
0.975097
0.958593
0.942659
0.92727
0.912383
0.897968
0.884006
0.870482
0.857371
0.844642
0.832275
0.820246
0.808521
0.797065
0.785854
0.774823
0.763965
0.753096
0.742486
0.731181
0.721142
0.707602
0.698216
0.668469
0.114002
0.173327
0.216157
0.245938
0.268456
0.286707
0.302541
0.316571
0.32939
0.341779
0.354526
0.368529
0.384712
0.403922
0.426565
0.452924
0.483842
0.518416
0.555868
0.594715
0.633432
0.672211
0.711951
0.75307
0.795847
0.84058
0.887615
0.937213
0.989462
1.04423
1.10125
1.16011
1.22031
1.28143
1.34307
1.40488
1.46655
1.52779
1.58836
1.64807
1.70678
1.76437
1.82078
1.87596
1.9299
1.9826
2.03408
2.08439
2.13356
2.18164
2.22869
2.27476
2.3199
2.36419
2.40766
2.4504
2.49243
2.53382
2.57461
2.61487
2.65462
2.69392
2.73282
2.77136
2.80958
2.84753
2.88523
2.92275
2.96009
2.99732
3.03445
3.07152
3.10854
3.14557
3.18259
3.21966
3.25677
3.29395
3.33124
3.36863
3.40614
3.44375
3.48142
3.5191
3.55667
3.59401
3.63104
3.66758
3.70348
3.73853
3.77251
3.80505
3.83577
3.86432
3.89028
3.91326
3.9328
3.9474
3.95932
3.96429
3.96679
3.96272
3.95277
3.9368
3.91469
3.88639
3.85192
3.81138
3.76496
3.71312
3.65627
3.59491
3.5295
3.46062
3.38878
3.31455
3.23846
3.16109
3.08291
3.0044
2.92597
2.84801
2.77085
2.69481
2.6202
2.54745
2.47694
2.40874
2.34269
2.2787
2.21675
2.1569
2.09919
2.04365
1.99025
1.93898
1.8898
1.84265
1.79743
1.75394
1.71216
1.67208
1.63367
1.59688
1.56168
1.52798
1.49572
1.46466
1.43465
1.40578
1.37804
1.35138
1.32575
1.30112
1.27737
1.25441
1.23222
1.21077
1.19005
1.17002
1.1506
1.13179
1.11355
1.09587
1.0787
1.06202
1.0458
1.03001
1.01461
0.99956
0.984829
0.970361
0.956131
0.942012
0.928123
0.913969
0.900573
0.885461
0.874828
0.848684
0.169957
0.239509
0.287236
0.321018
0.347037
0.368382
0.386911
0.403867
0.420277
0.437116
0.455328
0.475841
0.499507
0.526988
0.558625
0.594391
0.633829
0.675978
0.719686
0.763923
0.808236
0.85296
0.898721
0.946184
0.995944
1.04846
1.10405
1.16281
1.22465
1.28928
1.35629
1.42519
1.49552
1.56682
1.63869
1.71073
1.78261
1.85405
1.92481
1.99469
2.06353
2.1312
2.19762
2.26273
2.32648
2.38886
2.44986
2.50949
2.56777
2.62472
2.68038
2.73479
2.78796
2.83996
2.89081
2.94055
2.98923
3.03687
3.08353
3.12924
3.17403
3.21795
3.26104
3.30334
3.3449
3.38575
3.42596
3.46557
3.50463
3.5432
3.58135
3.61912
3.6566
3.69383
3.73088
3.76782
3.80471
3.84163
3.87863
3.91577
3.9531
3.99065
4.0284
4.06633
4.10436
4.14242
4.18038
4.21811
4.2554
4.2921
4.3279
4.36245
4.39536
4.42619
4.45449
4.47976
4.50154
4.5189
4.53208
4.53828
4.54131
4.53757
4.52721
4.51006
4.48595
4.45479
4.4166
4.3715
4.31975
4.26171
4.19785
4.12868
4.05478
3.97676
3.89526
3.8109
3.72433
3.63618
3.54701
3.45736
3.36771
3.27849
3.19014
3.10309
3.01777
2.93455
2.8537
2.77533
2.69942
2.62591
2.5548
2.48611
2.41988
2.35611
2.29478
2.23587
2.17932
2.12507
2.07304
2.02309
1.97514
1.92914
1.88503
1.84274
1.80218
1.76329
1.726
1.69017
1.65567
1.62247
1.59052
1.55975
1.53013
1.50159
1.474
1.44726
1.42139
1.39638
1.37219
1.34878
1.32606
1.30402
1.28264
1.26191
1.24176
1.22217
1.20311
1.18454
1.16642
1.14872
1.1314
1.1144
1.0977
1.0812
1.06496
1.04874
1.03306
1.01673
1.00397
0.981564
0.225122
0.305975
0.359657
0.398403
0.428594
0.453529
0.475271
0.495347
0.515046
0.535521
0.557815
0.582848
0.611339
0.643703
0.679973
0.719777
0.762426
0.807084
0.853007
0.89977
0.94742
0.996423
1.04744
1.10112
1.15795
1.21822
1.282
1.34916
1.41945
1.49246
1.56775
1.64487
1.72337
1.80283
1.88287
1.96315
2.04336
2.12322
2.2025
2.28099
2.3585
2.43492
2.5101
2.58396
2.65643
2.72745
2.79699
2.86502
2.93154
2.99653
3.06
3.12196
3.18243
3.24142
3.29895
3.35504
3.40973
3.46303
3.51496
3.56557
3.61488
3.66293
3.70974
3.75537
3.79985
3.84323
3.88557
3.92693
3.96737
4.00697
4.04579
4.08392
4.12145
4.15847
4.19505
4.23131
4.26733
4.3032
4.33903
4.37489
4.41087
4.44702
4.48341
4.52002
4.55686
4.59387
4.63098
4.66806
4.70496
4.74149
4.7774
4.81232
4.84585
4.87754
4.90692
4.93344
4.95653
4.97558
4.99001
4.99744
5.00126
4.99825
4.98824
4.97093
4.94611
4.91361
4.87342
4.82563
4.77049
4.70834
4.63966
4.56499
4.48495
4.4002
4.31145
4.21939
4.12474
4.02817
3.93032
3.83178
3.73312
3.63489
3.53765
3.44186
3.34795
3.25626
3.16706
3.08048
2.99656
2.91528
2.83668
2.76075
2.68753
2.61699
2.54914
2.48393
2.4213
2.36119
2.30351
2.24816
2.19503
2.14405
2.09513
2.0482
2.00316
1.95992
1.91841
1.87852
1.84013
1.80317
1.76757
1.73327
1.70019
1.66829
1.63748
1.60766
1.57881
1.55089
1.52387
1.49769
1.47222
1.4475
1.42351
1.40024
1.37759
1.35556
1.33411
1.3132
1.2928
1.27286
1.25335
1.23423
1.21545
1.19695
1.17876
1.16077
1.14326
1.12572
1.11077
1.09038
0.278176
0.369531
0.431101
0.475958
0.51103
0.539984
0.565125
0.588185
0.610621
0.633697
0.658503
0.685918
0.716555
0.750697
0.788288
0.82898
0.87227
0.917668
0.964867
1.01383
1.06483
1.11829
1.17473
1.23453
1.29796
1.36505
1.43571
1.50967
1.58662
1.66616
1.74789
1.83141
1.91634
2.00232
2.08901
2.17609
2.26328
2.35031
2.43695
2.52296
2.60817
2.6924
2.7755
2.85734
2.93783
3.01686
3.09437
3.1703
3.2446
3.31724
3.38819
3.45743
3.52496
3.59076
3.65483
3.71718
3.77781
3.83674
3.89396
3.94951
4.00339
4.05564
4.10628
4.15534
4.20287
4.24891
4.2935
4.33672
4.37863
4.4193
4.45882
4.49729
4.53479
4.57143
4.60731
4.64255
4.67727
4.71157
4.74558
4.77941
4.81319
4.84701
4.88098
4.91516
4.94959
4.98427
5.01919
5.05425
5.08934
5.12434
5.15898
5.19294
5.22584
5.25724
5.28664
5.3135
5.33721
5.35714
5.37264
5.3812
5.38586
5.38385
5.37465
5.35789
5.33323
5.30045
5.25946
5.21032
5.15321
5.08846
5.01654
4.93801
4.85351
4.76375
4.66947
4.57142
4.47036
4.36701
4.26209
4.1563
4.05033
3.94479
3.84028
3.73728
3.63624
3.5375
3.44132
3.34785
3.25718
3.16934
3.08435
3.00225
2.92303
2.84671
2.77324
2.70259
2.63471
2.56952
2.50693
2.44684
2.38916
2.33378
2.28063
2.22959
2.18058
2.1335
2.08826
2.04475
2.00288
1.96255
1.92368
1.88619
1.85003
1.81511
1.78136
1.74872
1.71712
1.68653
1.6569
1.62819
1.60033
1.5733
1.54706
1.52159
1.49675
1.47258
1.44905
1.42608
1.40367
1.38176
1.36033
1.33932
1.31871
1.29846
1.27855
1.25897
1.23986
1.22106
1.20422
1.18241
0.327148
0.428856
0.498685
0.550033
0.590289
0.623441
0.651992
0.677811
0.702461
0.727274
0.753379
0.781668
0.812765
0.847002
0.884448
0.924972
0.968363
1.01445
1.06318
1.11467
1.16915
1.22691
1.28822
1.35324
1.42199
1.49439
1.57024
1.64926
1.73113
1.81553
1.9021
1.99051
2.08044
2.17157
2.26361
2.35627
2.44927
2.54237
2.63532
2.72789
2.81987
2.91107
3.00131
3.09043
3.1783
3.26479
3.34979
3.4332
3.51496
3.59498
3.67321
3.7496
3.82412
3.89672
3.96739
4.03609
4.10282
4.16757
4.23032
4.29107
4.34983
4.4066
4.46141
4.51426
4.56519
4.61423
4.66143
4.70684
4.75052
4.79256
4.83302
4.87201
4.90961
4.94595
4.98113
5.01528
5.04852
5.08099
5.11283
5.1442
5.17524
5.20609
5.23691
5.26781
5.29889
5.33022
5.36183
5.39368
5.42573
5.45788
5.48996
5.52166
5.55265
5.58252
5.61079
5.63692
5.66029
5.68025
5.69614
5.7058
5.71069
5.70969
5.70145
5.68555
5.66157
5.62919
5.58823
5.5387
5.4807
5.41455
5.34066
5.25961
5.17204
5.07868
4.98031
4.87771
4.77167
4.66304
4.55259
4.44114
4.32939
4.21803
4.10766
3.99882
3.89193
3.78737
3.68539
3.58619
3.48986
3.39647
3.30608
3.21871
3.13438
3.05307
2.97475
2.8994
2.82695
2.75731
2.69042
2.62616
2.56444
2.50516
2.44822
2.39352
2.34095
2.29041
2.24181
2.19504
2.15
2.1066
2.06474
2.02436
1.98537
1.9477
1.91128
1.87603
1.8419
1.80884
1.7768
1.74575
1.71563
1.68641
1.65806
1.63052
1.60374
1.57767
1.5523
1.5275
1.50329
1.47963
1.45648
1.4338
1.41155
1.38971
1.36826
1.34721
1.32665
1.30655
1.28796
1.26512
0.37026
0.481143
0.558678
0.616298
0.661681
0.699039
0.730999
0.759508
0.786192
0.812437
0.839424
0.868114
0.899232
0.93326
0.970467
1.01096
1.05476
1.10188
1.15239
1.20636
1.26394
1.32523
1.39031
1.45917
1.53172
1.60781
1.68721
1.76967
1.85493
1.94269
2.03268
2.12462
2.21823
2.31325
2.40942
2.50647
2.60416
2.70223
2.80044
2.89857
2.99638
3.09367
3.19023
3.28589
3.38047
3.47381
3.56578
3.65625
3.7451
3.83222
3.91754
4.00097
4.08243
4.16186
4.23922
4.31444
4.38749
4.45833
4.52693
4.59326
4.65731
4.71905
4.7785
4.83563
4.89048
4.94305
4.99337
5.04149
5.08745
5.13132
5.17317
5.21309
5.25116
5.2875
5.32222
5.35545
5.38732
5.41799
5.44761
5.47635
5.50439
5.53192
5.55911
5.58615
5.61319
5.64034
5.6677
5.6953
5.72316
5.75124
5.77944
5.80753
5.83522
5.86215
5.8879
5.91196
5.93373
5.95255
5.96773
5.97752
5.98245
5.9818
5.9742
5.95906
5.93586
5.90417
5.86374
5.81446
5.75638
5.68975
5.61495
5.53251
5.44308
5.34739
5.24627
5.14054
5.03107
4.91874
4.80439
4.68885
4.57288
4.45718
4.34238
4.22904
4.11763
4.0085
3.90194
3.79815
3.69726
3.59938
3.50456
3.41284
3.32425
3.23878
3.15639
3.07706
3.00071
2.92727
2.85667
2.7888
2.72356
2.66086
2.60059
2.54264
2.48691
2.43329
2.38169
2.33198
2.28409
2.23791
2.19335
2.15033
2.10876
2.06858
2.02971
1.99207
1.95562
1.92029
1.88604
1.85283
1.82062
1.78937
1.75903
1.72957
1.70093
1.67307
1.64596
1.61951
1.59372
1.5685
1.54382
1.51963
1.49592
1.47265
1.4498
1.42739
1.40548
1.38409
1.36384
1.33997
0.405717
0.523872
0.607902
0.671084
0.721228
0.76266
0.798059
0.829405
0.858348
0.886304
0.914504
0.943983
0.975581
1.00993
1.04746
1.08847
1.13311
1.18149
1.23367
1.28969
1.34959
1.41335
1.48092
1.5522
1.62707
1.70534
1.78682
1.8713
1.95853
2.04832
2.14041
2.2346
2.33065
2.42834
2.52744
2.62771
2.72893
2.83085
2.93325
3.03588
3.13852
3.24094
3.34294
3.4443
3.54483
3.64435
3.74268
3.83968
3.93518
4.02907
4.1212
4.21147
4.29978
4.38603
4.47012
4.55199
4.63156
4.70877
4.78355
4.85584
4.92561
4.99282
5.05743
5.11941
5.17876
5.23546
5.28953
5.34098
5.38985
5.43618
5.48002
5.52145
5.56055
5.59741
5.63215
5.66489
5.69577
5.72493
5.75255
5.7788
5.80388
5.82801
5.85141
5.87428
5.89683
5.91923
5.94163
5.96411
5.98676
6.00963
6.03268
6.05577
6.07868
6.10114
6.12279
6.14318
6.16177
6.17794
6.19097
6.19943
6.20344
6.20218
6.19444
6.1795
6.15674
6.12563
6.08581
6.03709
5.97944
5.913
5.83811
5.75525
5.66506
5.56831
5.46589
5.35862
5.24737
5.13303
5.01646
4.89849
4.77991
4.66143
4.54373
4.42737
4.31284
4.2005
4.09066
3.98353
3.87928
3.77801
3.67983
3.58477
3.49287
3.40413
3.31851
3.23598
3.15647
3.07993
3.00626
2.93538
2.8672
2.8016
2.73849
2.67776
2.6193
2.563
2.50877
2.4565
2.40608
2.35744
2.31047
2.26509
2.22121
2.17877
2.13769
2.0979
2.05934
2.02195
1.98569
1.95052
1.9164
1.88328
1.85113
1.8199
1.78954
1.76002
1.73129
1.7033
1.67601
1.64936
1.62333
1.59782
1.5728
1.54825
1.52414
1.50047
1.47729
1.45463
1.43282
1.4079
0.432287
0.555459
0.644387
0.712079
0.766382
0.811632
0.850505
0.884961
0.916631
0.946922
0.977076
1.00817
1.0411
1.07658
1.11517
1.15724
1.20302
1.25266
1.3062
1.36366
1.425
1.49014
1.55899
1.63142
1.70729
1.78643
1.86869
1.95389
2.04185
2.13241
2.22539
2.32061
2.41789
2.51705
2.61788
2.72018
2.82375
2.92837
3.0338
3.13983
3.24623
3.35277
3.45921
3.56536
3.67099
3.77589
3.87988
3.98278
4.08439
4.18456
4.28314
4.37997
4.47491
4.56785
4.65866
4.74723
4.83345
4.91722
4.99845
5.07706
5.15296
5.22609
5.29638
5.36377
5.42823
5.48971
5.5482
5.60368
5.65616
5.70567
5.75223
5.79589
5.83673
5.87481
5.91025
5.94313
5.97361
6.00181
6.0279
6.05207
6.07452
6.09547
6.11516
6.13385
6.15175
6.1691
6.18608
6.20282
6.21946
6.23613
6.25286
6.26962
6.28627
6.30263
6.31845
6.33337
6.34693
6.35859
6.36762
6.37292
6.37445
6.37114
6.36202
6.34621
6.32305
6.29194
6.25241
6.20417
6.14711
6.08129
6.00698
5.92462
5.83481
5.73836
5.63618
5.52902
5.41771
5.30311
5.18607
5.06743
4.94796
4.8284
4.70941
4.59163
4.47552
4.36148
4.2498
4.1407
4.03439
3.93099
3.83061
3.73333
3.63917
3.54814
3.46022
3.37537
3.29354
3.21466
3.13865
3.06545
2.99495
2.92705
2.86166
2.79867
2.73797
2.67945
2.62302
2.56858
2.51603
2.46528
2.41623
2.36881
2.32292
2.2785
2.23548
2.19378
2.15336
2.11415
2.0761
2.03918
2.00335
1.96856
1.93478
1.90196
1.87005
1.83903
1.80883
1.77943
1.75077
1.72282
1.69552
1.66883
1.64268
1.61699
1.59173
1.56691
1.54255
1.51867
1.49541
1.46943
0.449454
0.575376
0.66747
0.738466
0.796185
0.84489
0.8872
0.925012
0.959888
0.993176
1.02607
1.05963
1.09474
1.13215
1.17242
1.21596
1.26305
1.31382
1.36835
1.42663
1.4886
1.55418
1.62327
1.69575
1.77149
1.85037
1.93226
2.01704
2.10459
2.19478
2.28748
2.38258
2.47991
2.57935
2.68072
2.78387
2.88859
2.99471
3.10201
3.21028
3.31931
3.42886
3.5387
3.64862
3.7584
3.8678
3.97663
4.08468
4.19174
4.29762
4.40213
4.5051
4.60636
4.70575
4.80312
4.89832
4.99121
5.08166
5.16953
5.25471
5.33708
5.41653
5.49296
5.5663
5.63644
5.70333
5.76691
5.82714
5.88398
5.93744
5.98751
6.03422
6.07761
6.11773
6.15466
6.18849
6.21932
6.2473
6.27255
6.29526
6.31562
6.33385
6.3502
6.36494
6.37833
6.39061
6.40199
6.41263
6.4227
6.43239
6.44183
6.45105
6.46002
6.46868
6.47688
6.48438
6.49085
6.49591
6.49874
6.49885
6.49555
6.4879
6.47514
6.45643
6.43122
6.39886
6.35879
6.31066
6.25423
6.18953
6.11673
6.03615
5.94825
5.85387
5.75356
5.64819
5.53855
5.4255
5.30982
5.19236
5.07384
4.95499
4.83643
4.71896
4.60298
4.48886
4.3769
4.26736
4.16041
4.05624
3.95496
3.85668
3.76143
3.66922
3.58004
3.49386
3.41061
3.33026
3.25273
3.17796
3.10587
3.03635
2.96931
2.90464
2.84226
2.78204
2.72391
2.66776
2.6135
2.56104
2.5103
2.46119
2.41364
2.36756
2.3229
2.27959
2.23757
2.19679
2.15721
2.11879
2.08147
2.04523
2.01003
1.97582
1.94256
1.91021
1.87874
1.84809
1.81823
1.78911
1.76068
1.73291
1.70573
1.67905
1.65277
1.62691
1.60147
1.57644
1.55183
1.52485
0.457329
0.583941
0.677612
0.750769
0.811129
0.862776
0.908335
0.949585
0.987968
1.02472
1.06094
1.09759
1.13551
1.17538
1.21776
1.26303
1.31148
1.36325
1.41842
1.47699
1.53894
1.60419
1.67266
1.74428
1.81896
1.89661
1.97715
2.06052
2.14663
2.23541
2.32677
2.42063
2.51689
2.61545
2.71619
2.81899
2.92368
3.03011
3.13808
3.24741
3.35789
3.46931
3.58145
3.69407
3.80696
3.9199
4.03266
4.14501
4.25674
4.36763
4.47746
4.58604
4.69315
4.79861
4.90225
5.00389
5.10336
5.20046
5.29505
5.38695
5.47601
5.56209
5.64505
5.72477
5.80112
5.874
5.9433
6.00896
6.0709
6.12907
6.18346
6.23404
6.28083
6.32386
6.36316
6.39881
6.43087
6.45946
6.48469
6.50671
6.52569
6.54184
6.55541
6.56666
6.57589
6.58333
6.5892
6.59364
6.59684
6.59902
6.60037
6.60102
6.60103
6.60044
6.59924
6.59738
6.59448
6.59001
6.58337
6.57453
6.56303
6.54824
6.5295
6.50655
6.47816
6.44359
6.40223
6.35365
6.29758
6.23391
6.16273
6.08423
5.99874
5.90762
5.81103
5.70952
5.60378
5.49455
5.38258
5.26862
5.1534
5.03756
4.92165
4.80637
4.69233
4.57989
4.46935
4.36096
4.25494
4.15146
4.05067
3.95273
3.85767
3.76549
3.67619
3.58974
3.5061
3.42523
3.34708
3.27161
3.19872
3.12832
3.06034
2.99467
2.93122
2.86989
2.8106
2.75326
2.69779
2.64409
2.59209
2.54171
2.49287
2.4455
2.39954
2.35494
2.31164
2.26959
2.22875
2.18909
2.15055
2.1131
2.07671
2.04134
2.00695
1.97349
1.94094
1.90924
1.87836
1.84824
1.81885
1.79014
1.76204
1.73449
1.70731
1.68051
1.65409
1.62801
1.60219
1.57426
0.45639
0.582203
0.676071
0.750217
0.812316
0.86646
0.91503
0.959646
1.00159
1.0419
1.08166
1.12169
1.16272
1.20533
1.25001
1.29711
1.34689
1.3995
1.45502
1.5135
1.57492
1.63927
1.70649
1.77655
1.8494
1.92502
2.00338
2.08447
2.16828
2.25478
2.34382
2.43541
2.52952
2.62611
2.7251
2.82641
2.9299
3.03546
3.14293
3.25214
3.36291
3.47504
3.58833
3.70256
3.81751
3.93295
4.04866
4.1644
4.27994
4.39504
4.50947
4.62299
4.73538
4.84638
4.95587
5.06363
5.16942
5.27305
5.37428
5.47292
5.56877
5.66166
5.75142
5.83786
5.92083
6.00017
6.07574
6.14743
6.21511
6.27872
6.33817
6.39343
6.44445
6.49123
6.53378
6.57212
6.6063
6.63638
6.66244
6.68459
6.70297
6.71775
6.72918
6.73752
6.74307
6.74609
6.74672
6.74507
6.74129
6.73563
6.72833
6.71956
6.70952
6.69829
6.68581
6.67162
6.65614
6.63947
6.62236
6.60382
6.5834
6.56063
6.53506
6.50559
6.47188
6.43332
6.38938
6.33957
6.28355
6.22108
6.15212
6.07668
5.99492
5.90758
5.81506
5.71785
5.61658
5.51187
5.40442
5.29489
5.18397
5.07225
4.96025
4.84928
4.73936
4.63074
4.5237
4.41847
4.31526
4.21431
4.11559
4.01943
3.92591
3.83505
3.74686
3.66131
3.57837
3.498
3.42022
3.34495
3.27214
3.20171
3.13356
3.06762
3.00379
2.942
2.88217
2.82422
2.76807
2.71364
2.66086
2.60966
2.55997
2.51172
2.46486
2.41933
2.37509
2.3321
2.29032
2.24971
2.21023
2.17186
2.13455
2.09827
2.06298
2.02865
1.99524
1.96271
1.93101
1.9001
1.86993
1.84044
1.81157
1.78324
1.75528
1.72768
1.70039
1.67337
1.64647
1.6177
0.449844
0.573346
0.666348
0.740708
0.803844
0.859511
0.910063
0.957107
1.00189
1.0455
1.08873
1.13218
1.17634
1.22163
1.26857
1.31745
1.36846
1.42175
1.47741
1.53551
1.59606
1.6591
1.72465
1.79272
1.86318
1.93611
2.01158
2.08964
2.17038
2.25391
2.34005
2.4288
2.52015
2.61408
2.71055
2.80952
2.9109
3.01461
3.12052
3.22851
3.33841
3.45007
3.56331
3.67791
3.79369
3.91041
4.02786
4.1458
4.264
4.38221
4.50018
4.61768
4.73447
4.85037
4.9652
5.07863
5.19039
5.30024
5.40792
5.51318
5.61575
5.71547
5.81212
5.90548
5.99534
6.0815
6.16375
6.24194
6.31592
6.38556
6.45073
6.51135
6.56734
6.61864
6.66523
6.70709
6.74422
6.77662
6.80434
6.82741
6.84594
6.86005
6.86996
6.87595
6.87836
6.87749
6.87334
6.86578
6.85501
6.84131
6.82492
6.80599
6.78436
6.76041
6.73447
6.7078
6.67998
6.65122
6.62076
6.58897
6.55583
6.52118
6.48473
6.44604
6.40472
6.3603
6.31228
6.26016
6.20351
6.142
6.07541
6.00362
5.9267
5.84489
5.75845
5.66777
5.57328
5.47551
5.37499
5.27233
5.16809
5.0628
4.95683
4.85122
4.7463
4.64239
4.53977
4.43868
4.33931
4.24195
4.1467
4.05395
3.96359
3.8756
3.78997
3.7067
3.62575
3.54706
3.47068
3.39663
3.32484
3.25524
3.18777
3.12235
3.05889
2.99734
2.93763
2.87969
2.82347
2.76888
2.71586
2.66435
2.61428
2.56559
2.51824
2.47219
2.4274
2.38384
2.34146
2.30023
2.26013
2.22113
2.18319
2.14628
2.11037
2.07543
2.04142
2.00829
1.976
1.94451
1.91375
1.88366
1.85419
1.82521
1.79659
1.76832
1.7403
1.71248
1.68464
1.65515
0.435415
0.556196
0.647625
0.721464
0.785047
0.8421
0.894726
0.944353
0.991995
1.03834
1.08418
1.13016
1.17677
1.22446
1.2735
1.32402
1.37615
1.42999
1.48564
1.54315
1.60261
1.66406
1.7276
1.79335
1.86131
1.93151
2.004
2.07886
2.15612
2.23575
2.31783
2.4025
2.48984
2.57987
2.67261
2.76806
2.86618
2.96692
3.0702
3.17592
3.28397
3.39421
3.50648
3.6206
3.73638
3.85362
3.9721
4.09159
4.21185
4.33263
4.45368
4.57473
4.69549
4.8156
4.93489
5.05311
5.17002
5.28533
5.39876
5.51005
5.61898
5.72538
5.82886
5.92916
6.02599
6.11911
6.20826
6.29325
6.37388
6.44996
6.52133
6.58784
6.64937
6.70581
6.75709
6.80312
6.84388
6.8793
6.90935
6.934
6.9533
6.9673
6.97617
6.98019
6.98007
6.97598
6.96725
6.9539
6.93597
6.91362
6.88712
6.85682
6.82354
6.78753
6.74917
6.70796
6.66462
6.61958
6.57303
6.52532
6.47678
6.42761
6.3779
6.32759
6.27651
6.22436
6.17074
6.11519
6.0572
5.99633
5.93217
5.86445
5.79296
5.71767
5.6386
5.55593
5.46987
5.38078
5.28906
5.19518
5.09961
5.00282
4.90528
4.80755
4.71005
4.61313
4.51709
4.42217
4.32858
4.23655
4.14608
4.05765
3.97127
3.88695
3.80473
3.72458
3.64649
3.57043
3.49664
3.42494
3.35526
3.28753
3.2217
3.15771
3.09549
3.03493
2.97606
2.91882
2.86316
2.80901
2.75632
2.70504
2.65511
2.60648
2.55911
2.51297
2.46805
2.4243
2.3817
2.34023
2.29985
2.26055
2.2223
2.18507
2.14883
2.11355
2.0792
2.04573
2.0131
1.98124
1.95011
1.91962
1.8897
1.86023
1.83114
1.80234
1.77374
1.74525
1.71663
1.68654
0.415847
0.533383
0.622615
0.69526
0.758489
0.815911
0.869583
0.920849
0.970657
1.01973
1.06852
1.1174
1.16665
1.21644
1.2671
1.31881
1.37171
1.42587
1.48137
1.53826
1.59661
1.65648
1.71793
1.78099
1.84566
1.91215
1.98062
2.05119
2.124
2.19917
2.27685
2.35711
2.44004
2.52572
2.6142
2.70552
2.7997
2.89673
2.99656
3.09915
3.20441
3.31224
3.4225
3.53507
3.64975
3.76638
3.88474
4.00462
4.12579
4.248
4.37099
4.49452
4.61829
4.74206
4.86554
4.98844
5.11046
5.23128
5.35059
5.46803
5.58322
5.69586
5.80573
5.91254
6.01601
6.11587
6.21189
6.30384
6.39137
6.4742
6.55211
6.62491
6.6924
6.75441
6.81083
6.86154
6.9064
6.9453
6.97813
7.00478
7.02518
7.03932
7.04722
7.04935
7.04724
7.03961
7.02585
7.00611
6.98068
6.9497
6.91338
6.87213
6.82646
6.77612
6.72177
6.66379
6.60276
6.53931
6.47411
6.40789
6.34135
6.27513
6.20974
6.14553
6.08266
6.02108
5.96054
5.90061
5.84077
5.78043
5.71899
5.65593
5.59078
5.5232
5.45293
5.37986
5.30398
5.22544
5.14447
5.06136
4.97649
4.89021
4.80292
4.71505
4.62696
4.539
4.45144
4.36455
4.27854
4.19362
4.10995
4.02774
3.94711
3.86813
3.79084
3.71526
3.64138
3.56914
3.49874
3.43014
3.36329
3.29815
3.23467
3.17282
3.11252
3.05371
2.99648
2.94072
2.88637
2.83336
2.78166
2.73123
2.68202
2.634
2.58711
2.54136
2.49675
2.45324
2.41082
2.36948
2.32919
2.28995
2.25171
2.21447
2.1782
2.14288
2.10847
2.07492
2.04218
2.0102
1.9789
1.94819
1.91801
1.88826
1.85885
1.82969
1.80066
1.77165
1.74239
1.71185
0.393631
0.507739
0.594428
0.66542
0.727744
0.784922
0.838949
0.891086
0.942178
0.992806
1.04337
1.09414
1.14535
1.19711
1.24946
1.30247
1.35617
1.41061
1.46584
1.5219
1.57887
1.63683
1.6959
1.7562
1.81791
1.88115
1.94608
2.01285
2.08163
2.15259
2.22588
2.30166
2.38005
2.46118
2.54515
2.63203
2.72189
2.81475
2.91062
3.00949
3.1113
3.21599
3.32347
3.43362
3.54629
3.66133
3.77856
3.89776
4.01874
4.14125
4.26504
4.38987
4.51546
4.64153
4.76779
4.89393
5.01964
5.14458
5.26841
5.39078
5.51137
5.62983
5.74581
5.85895
5.96891
6.07532
6.1778
6.27598
6.36965
6.45852
6.54234
6.62085
6.69387
6.76121
6.8226
6.87782
6.92667
6.96896
7.00446
7.03298
7.05434
7.06843
7.07525
7.07583
7.07153
7.06019
7.04147
7.01549
6.98241
6.94213
6.89494
6.84117
6.78116
6.71525
6.64391
6.56775
6.48757
6.4043
6.31898
6.23273
6.14672
6.06204
5.9797
5.90047
5.82489
5.75318
5.68527
5.62079
5.55916
5.49964
5.44144
5.38375
5.32582
5.26697
5.20664
5.14441
5.08004
5.01344
4.94467
4.87385
4.8012
4.72697
4.65147
4.57501
4.49791
4.42047
4.34296
4.26563
4.18869
4.11236
4.03682
3.96223
3.88874
3.81643
3.74538
3.67562
3.60718
3.54007
3.47436
3.41008
3.3472
3.28572
3.22561
3.16685
3.10938
3.05313
2.99819
2.9445
2.89203
2.84073
2.79057
2.74153
2.69357
2.64666
2.60078
2.55597
2.51219
2.46943
2.42768
2.38693
2.34717
2.3084
2.27059
2.23371
2.19777
2.16274
2.12858
2.09525
2.0627
2.03085
1.99963
1.96897
1.93879
1.909
1.8795
1.85017