/*--------------------------------*- C++ -*----------------------------------*\
  =========                 |
  \\      /  F ield         | OpenFOAM: The Open Source CFD Toolbox
   \\    /   O peration     | Website:  https://openfoam.org
    \\  /    A nd           | Version:  9
     \\/     M anipulation  |
\*---------------------------------------------------------------------------*/
FoamFile
{
    format      ascii;
    class       volScalarField::Internal;
    location    "75";
    object      tmp<kEpsilon:G>;
}
// * * * * * * * * * * * * * * * * * * * * * * * * * * * * * * * * * * * * * //

dimensions      [0 2 -3 0 0 0 0];

value           nonuniform List<scalar> 
12225
(
0
0
0
0
0
0
0
0
0
0
0
0
0
0
0
0
0
0
947.579
499.456
262.61
278.147
380.712
496.836
607.045
719.177
806.712
895.739
957.876
1020.85
1062.18
1105.56
1139.24
1170.13
1246.18
1215.62
85.4288
123.004
55.4204
17.1589
5.11497
4.33041
8.72725
16.6279
26.5558
38.3688
50.9604
64.2419
77.983
91.0296
105.768
117.383
137.136
141.073
5.02597
1.72757
0.640185
0.711751
0.475572
0.193528
0.0338141
0.197138
0.804269
1.9112
3.50953
5.54797
8.09036
10.8676
14.4078
17.9078
23.0373
26.821
0.22612
0.131437
0.141869
0.299137
0.403953
0.380146
0.261991
0.127662
0.0351492
0.0112895
0.0759755
0.241852
0.530577
0.937455
1.54261
2.27804
3.32881
4.26071
0.18037
0.184784
0.249076
0.297495
0.29444
0.2838
0.252079
0.198514
0.13972
0.0836531
0.0379598
0.00947825
0.00635035
0.0375346
0.118905
0.255615
0.463802
0.686448
0.129247
0.206866
0.216856
0.192901
0.185847
0.196761
0.19779
0.180454
0.154443
0.123864
0.0915105
0.0594535
0.0318994
0.0139524
0.012543
0.0367348
0.092708
0.174825
0.100116
0.145859
0.148765
0.139768
0.143518
0.156015
0.160253
0.152095
0.138002
0.120649
0.100841
0.0791557
0.0580098
0.0406902
0.0321649
0.0394972
0.069328
0.118392
0.0769845
0.103089
0.113601
0.115434
0.120521
0.128704
0.131639
0.126753
0.117773
0.106694
0.0939114
0.0799472
0.0663578
0.0557607
0.051928
0.0595604
0.0838712
0.118438
0.059166
0.0770675
0.0908927
0.0964119
0.101007
0.106894
0.109599
0.106929
0.100925
0.0933468
0.0848231
0.0759155
0.0679641
0.0629311
0.0636013
0.072541
0.0931095
0.117176
0.0454355
0.0585695
0.0724462
0.0797121
0.0847286
0.0899021
0.0927702
0.0916626
0.0877625
0.082601
0.0769968
0.071613
0.0675168
0.066154
0.0693431
0.0782025
0.0945337
0.1104
0.0354622
0.0458773
0.0589904
0.0673188
0.0729112
0.0778266
0.0808058
0.0807416
0.0783739
0.0749783
0.0714634
0.0684603
0.066819
0.0675543
0.0717718
0.0797421
0.0924492
0.103136
0.0274714
0.0359977
0.0482206
0.0572999
0.063512
0.0684945
0.0717436
0.0726203
0.0716387
0.0697993
0.0679216
0.06662
0.0665981
0.0684951
0.0729036
0.079641
0.0892358
0.0962115
0.0203312
0.0272254
0.0383197
0.0477402
0.0545927
0.0599495
0.0637354
0.0656348
0.0660528
0.0657534
0.065377
0.0654877
0.0665894
0.0691037
0.0732258
0.0785833
0.085395
0.089712
0.0141317
0.0198255
0.0298472
0.0393131
0.046728
0.0526109
0.0570918
0.0600321
0.0617789
0.0629169
0.0639251
0.0651839
0.0670717
0.069871
0.0735798
0.0778212
0.0825525
0.0854389
0.00895385
0.0137828
0.0228406
0.0321443
0.0400152
0.0464924
0.0517262
0.0556629
0.0585906
0.0610063
0.0632174
0.0653701
0.0677518
0.0706243
0.0739756
0.0775175
0.0809005
0.0834978
0.00487328
0.0091347
0.017417
0.0265187
0.0347425
0.0418229
0.0478296
0.0526929
0.0566305
0.0601085
0.0633119
0.0662221
0.0689819
0.0719042
0.0750657
0.0783774
0.0811248
0.0841864
0.00201019
0.00599477
0.013788
0.0228226
0.0313746
0.0390104
0.0457299
0.0514159
0.0561792
0.0604676
0.0644574
0.0680151
0.0711554
0.074225
0.0774045
0.0808127
0.0834011
0.0873187
0.000691333
0.00473539
0.0125284
0.0219107
0.0309851
0.0392028
0.0465699
0.052935
0.058346
0.0631854
0.0676874
0.0716904
0.075182
0.0784633
0.0818038
0.0854298
0.0880158
0.0927846
0.00141783
0.00595383
0.014547
0.0248685
0.0346206
0.0433327
0.0511561
0.0579397
0.0636917
0.0687595
0.0733787
0.0774282
0.0809861
0.0843771
0.0878397
0.0915897
0.0941221
0.0992755
0.00369209
0.00910823
0.0192181
0.0307964
0.0410278
0.0499033
0.0578626
0.0647754
0.0705605
0.0755894
0.0800324
0.0839291
0.0873604
0.0907516
0.0941342
0.0978291
0.100115
0.105398
0.00742465
0.0144882
0.0267678
0.0395559
0.0501844
0.0592045
0.0671086
0.0736362
0.0788903
0.0834327
0.0874838
0.0910911
0.0943858
0.0976908
0.100969
0.104421
0.106514
0.111627
0.0125667
0.0236826
0.0384087
0.0499107
0.0597587
0.0697677
0.0787507
0.0851589
0.0894845
0.0929241
0.0960398
0.098864
0.101648
0.104479
0.107301
0.110178
0.111817
0.116266
0.019934
0.0425434
0.0630746
0.0677139
0.0699407
0.0774915
0.0874738
0.0954452
0.100741
0.104574
0.107421
0.10946
0.110988
0.11229
0.113202
0.114044
0.113543
0.11577
0.0413057
0.0757041
0.0990007
0.115204
0.110981
0.106805
0.107098
0.108842
0.110606
0.111925
0.111798
0.109927
0.10663
0.102567
0.0977624
0.0931034
0.0877132
0.0851953
0.0781178
0.209369
0.0690879
0.0877952
0.184705
0.238354
0.240765
0.21733
0.187143
0.157117
0.128118
0.101665
0.0795237
0.0633898
0.0540636
0.0527125
0.0589748
0.0739386
0.662826
0.127669
0.309725
0.494426
0.362672
0.288177
0.225381
0.140072
0.0611185
0.0140416
0.0143923
0.0731251
0.195049
0.381181
0.626627
0.930048
1.27782
1.66566
31.9001
71.1373
43.3299
18.3515
7.12928
2.71918
1.15591
1.04963
1.86215
3.33576
5.31492
7.70022
10.3507
13.235
16.2112
19.3082
22.3312
25.374
455.362
257.565
100.886
70.3684
91.3174
127.551
167.287
204.836
239.882
272.167
300.851
327.089
349.954
370.892
388.934
405.865
420.728
435.26
0
0
0
0
0
0
0
0
0
0
0
0
0
0
0
0
0
0
0
0
0
0
0
0
0
0
0
0
0
0
0
0
0
0
4.9746
4.72447
4.41834
3.86916
2.96329
2.08361
1.41455
1.25469
2.12711
3.77386
6.06807
9.0675
12.8549
17.5116
23.0794
29.5515
36.8516
44.9167
53.6291
62.9107
72.6302
82.7238
93.0707
103.638
114.325
125.133
135.985
146.907
157.841
168.838
179.847
190.938
202.063
213.303
224.611
236.077
247.649
259.419
271.336
283.493
295.829
308.436
321.248
334.36
347.686
361.324
375.178
389.344
403.709
418.366
433.183
448.246
463.41
478.744
494.095
509.507
524.826
540.063
555.057
569.792
584.089
597.916
611.08
623.536
635.076
645.664
655.118
663.477
670.573
676.452
680.916
683.989
685.471
685.359
683.604
680.068
674.656
667.038
658.767
647.422
634.542
619.676
602.984
584.535
564.374
542.702
519.643
495.371
470.055
443.881
417.053
389.833
362.485
335.186
308.13
281.504
255.491
230.238
205.887
182.536
160.22
138.903
118.872
100.097
82.5827
66.3277
51.3271
37.6075
25.24
14.7429
8.5356
12.4354
20.4737
28.6854
36.4259
43.5682
50.1123
56.0818
61.5208
66.4657
70.9658
75.0525
78.7736
82.118
85.1265
87.8525
90.3318
92.5937
94.6655
96.5648
98.3127
99.9147
101.38
102.726
103.968
105.119
106.191
107.195
108.139
109.026
109.866
110.662
111.422
112.153
112.859
113.543
114.211
114.865
115.507
116.141
116.768
117.383
117.986
118.57
119.13
119.636
120.112
120.423
120.737
120.492
120.477
118.398
117.122
105.646
0
3.83177
5.12874
4.90428
3.29617
1.32704
0.471761
0.559685
0.982111
1.83791
2.93402
4.17512
5.61231
7.25886
8.19773
11.1092
14.3719
17.5836
22.0695
27.1026
34.7914
42.6357
50.9117
59.4215
67.7745
75.401
81.9572
87.2308
90.9873
93.0339
93.2733
91.9934
89.2731
85.327
80.448
74.9531
69.1483
63.2909
57.5886
52.1869
47.1838
42.6272
38.5369
34.902
31.7013
28.897
26.4526
24.3254
22.4801
20.8797
19.494
18.291
17.2484
16.3455
15.568
14.8995
14.3313
13.8563
13.473
13.1782
12.9738
12.863
12.8538
12.9547
13.1763
13.5302
14.0283
14.6836
15.5086
16.5163
17.7176
19.1224
20.7398
22.5757
24.6306
26.8988
29.3636
31.9986
34.7628
37.6053
40.4548
43.236
45.8669
48.3128
50.5802
53.0273
55.6891
58.6627
62.0259
65.7705
69.941
74.5775
79.6964
85.2604
91.2759
97.6615
104.184
111.157
118.027
125.063
131.849
138.356
144.406
149.868
154.607
158.502
161.435
163.269
164.045
163.838
162.65
160.522
157.535
153.803
149.44
144.581
139.393
133.939
128.316
122.646
116.984
111.423
106.057
100.82
95.5009
90.4618
85.0993
79.1638
73.5963
68.4381
63.7618
59.5857
55.8751
52.5929
49.691
47.1279
44.8587
42.8488
41.0828
39.5221
38.1447
36.926
35.8476
34.8963
34.0582
33.3209
32.6746
32.1026
31.601
31.1656
30.7901
30.4707
30.2004
29.9746
29.7883
29.6322
29.5058
29.4111
29.3425
29.2972
29.272
29.2664
29.2772
29.3041
29.3492
29.4023
29.4649
29.5441
29.629
29.7199
29.8271
29.9462
30.0696
30.2468
30.4665
30.9412
31.7374
34.4091
39.0826
58.4445
0
2.57857
2.65597
1.99904
1.07616
0.485061
0.51387
1.23246
2.58313
4.42994
6.68609
9.41568
12.7314
16.7715
21.8252
28.3894
35.3384
43.3491
52.3222
61.3424
69.6
76.3798
82.3946
87.0935
90.0169
90.7741
89.3469
86.0722
81.4134
75.8506
69.8059
63.7826
58.0031
52.7408
48.1705
44.3992
41.4733
39.3813
38.0797
37.4948
37.5479
38.1521
39.2311
40.7111
42.5348
44.6496
47.0174
49.6017
52.3782
55.319
58.4127
61.64
64.9867
68.436
71.9784
75.5979
79.2794
83.0034
86.7558
90.5169
94.2658
97.9755
101.621
105.176
108.615
111.916
115.053
117.994
120.708
123.166
125.337
127.198
128.727
129.915
130.763
131.279
131.481
131.409
131.137
130.779
130.491
130.466
130.946
132.138
134.22
136.844
140.046
143.861
148.356
153.56
159.529
166.362
174.116
182.807
192.344
202.736
213.51
224.906
236.202
247.72
258.777
269.193
278.623
286.773
293.386
298.239
301.169
302.064
300.907
297.757
292.705
285.912
277.569
267.924
257.219
245.716
233.659
221.275
208.805
196.461
184.454
172.766
161.263
149.739
138.202
127.032
116.956
108.352
100.73
93.6606
87.0831
81.01
75.4365
70.3543
65.7336
61.5451
57.7541
54.333
51.2547
48.4859
45.9946
43.7509
41.7268
39.9016
38.2614
36.7819
35.4476
34.2369
33.137
32.1436
31.2489
30.4411
29.7118
29.0519
28.4513
27.907
27.414
26.9674
26.563
26.1951
25.8597
25.5533
25.2768
25.0255
24.7927
24.5818
24.3898
24.2113
24.0501
23.9058
23.773
23.6644
23.5919
23.5821
23.6781
24.0357
24.898
26.706
29.4589
37.4896
0
0.638133
0.812105
0.372777
0.0841712
0.350429
1.30241
2.89443
5.09196
7.84941
11.148
15.029
19.5803
24.9222
31.172
38.4683
46.4474
54.8153
62.9308
69.8566
75.0403
78.2656
79.4703
78.7238
76.2274
72.3173
67.466
62.2094
57.0343
52.3125
48.288
45.0943
42.8006
41.4181
40.9169
41.2436
42.3308
44.104
46.4873
49.4058
52.7894
56.5734
60.701
65.1217
69.7924
74.6758
79.7407
84.959
90.307
95.7604
101.301
106.909
112.563
118.244
123.932
129.608
135.248
140.829
146.327
151.717
156.973
162.062
166.955
171.622
176.038
180.177
184.013
187.521
190.676
193.458
195.854
197.858
199.473
200.716
201.613
202.202
202.521
202.629
202.603
202.541
202.551
202.742
203.229
204.099
205.453
207.391
210.038
213.499
217.856
223.176
229.546
237.102
245.94
256.074
267.44
279.902
293.341
307.432
321.64
336.145
350.2
363.496
375.566
386
394.436
400.575
404.193
405.146
403.4
399.009
392.103
382.883
371.621
358.625
344.234
328.774
312.597
296.013
279.402
262.99
246.724
230.432
214.178
198.421
183.561
169.714
156.923
145.27
134.638
124.824
115.759
107.413
99.7635
92.7787
86.4207
80.6453
75.4078
70.6641
66.377
62.5045
59.005
55.8376
52.9677
50.3662
48.0077
45.8682
43.9263
42.1566
40.5447
39.0786
37.7397
36.5142
35.3922
34.3652
33.4208
32.5495
31.7467
31.0081
30.327
29.6953
29.108
28.5639
28.0584
27.5873
27.1482
26.7365
26.35
25.9897
25.6524
25.3375
25.0527
24.8071
24.6126
24.5114
24.5665
24.9394
25.8859
28.057
31.8777
38.7691
0
0.731217
1.81009
2.17798
2.60085
3.48654
4.94053
6.96857
9.57679
12.7545
16.4827
20.7706
25.6441
31.1115
37.1006
43.3903
49.5784
55.2052
59.726
62.6483
63.7193
62.946
60.6467
57.2835
53.3306
49.2161
45.2997
41.8618
39.0979
37.1275
36.0132
35.7673
36.3737
37.8076
40.038
43.0257
46.7245
51.0825
56.0432
61.5477
67.536
73.949
80.7297
87.8245
95.1834
102.761
110.515
118.409
126.407
134.477
142.59
150.722
158.845
166.932
174.959
182.901
190.73
198.42
205.943
213.27
220.371
227.213
233.763
239.989
245.861
251.353
256.437
261.089
265.282
268.999
272.225
274.956
277.196
278.96
280.272
281.161
281.657
281.802
281.65
281.268
280.732
280.131
279.587
279.239
279.256
279.827
281.129
283.325
286.568
290.963
296.641
303.762
312.465
322.796
334.708
348.077
362.703
378.451
394.477
411.004
427.223
442.715
456.92
469.321
479.461
486.963
491.539
492.998
491.268
486.368
478.444
467.712
454.504
439.163
422.105
403.713
384.459
364.736
344.719
324.439
303.961
283.649
263.965
245.133
227.348
210.72
195.324
181.144
168.082
156
144.837
134.544
125.092
116.435
108.533
101.329
94.7725
88.8127
83.4038
78.4966
74.0419
69.9926
66.3084
62.9549
59.9003
57.115
54.5742
52.2478
50.1158
48.1607
46.3632
44.7085
43.1858
41.7841
40.4877
39.2845
38.1672
37.1309
36.1674
35.2678
34.4248
33.6374
32.9011
32.2104
31.5616
30.9506
30.3745
29.8342
29.3289
28.8591
28.435
28.0684
27.7786
27.6173
27.6659
28.0922
29.1383
31.4098
35.3417
41.3581
0
2.80336
6.01618
7.91219
9.25666
10.7283
12.4965
14.626
17.1625
20.1025
23.4237
27.0869
31.0283
35.137
39.2256
43.0136
46.1558
48.331
49.3006
48.9707
47.4327
44.9465
41.8898
38.6609
35.6025
32.9694
30.9305
29.588
29.0002
29.1993
30.2045
32.0253
34.6643
38.1189
42.3816
47.4358
53.2541
59.7987
67.0217
74.8682
83.2775
92.1863
101.531
111.248
121.278
131.563
142.051
152.692
163.441
174.256
185.1
195.936
206.732
217.453
228.069
238.548
248.86
258.971
268.849
278.462
287.775
296.75
305.352
313.543
321.288
328.549
335.291
341.481
347.086
352.079
356.436
360.144
363.196
365.594
367.347
368.469
368.979
368.9
368.274
367.154
365.615
363.763
361.753
359.77
358.024
356.741
356.142
356.455
357.904
360.635
364.837
370.715
378.429
388.086
399.663
413.064
428.056
444.532
461.784
479.598
497.445
514.644
530.607
544.706
556.401
565.221
570.804
572.898
571.378
566.243
557.627
545.771
531.031
513.814
494.615
473.899
451.951
428.996
405.249
381.164
357.255
333.865
311.275
289.713
269.353
250.295
232.577
216.165
200.965
186.879
173.843
161.806
150.724
140.55
131.23
122.707
114.923
107.825
101.356
95.4628
90.0893
85.1848
80.7046
76.6098
72.8638
69.4328
66.287
63.3971
60.7383
58.2889
56.0274
53.9366
52.0013
50.2074
48.539
46.985
45.5365
44.1859
42.9241
41.7426
40.6337
39.5933
38.6164
37.6962
36.8271
36.007
35.2336
34.5074
33.8298
33.2033
32.6395
32.1547
31.7764
31.5622
31.6037
32.0674
33.1751
35.4207
39.1387
44.2255
0
6.37717
12.4948
16.425
18.8446
20.8852
22.843
24.8069
26.8457
28.9776
31.182
33.3998
35.5393
37.4747
39.0476
40.0813
40.4174
39.966
38.7389
36.8572
34.5307
32.0186
29.5842
27.4546
25.7995
24.731
24.3177
24.6016
25.6135
27.3817
29.9354
33.3024
37.5078
42.5696
48.4968
55.2865
62.9222
71.3734
80.5973
90.5405
101.142
112.335
124.051
136.22
148.774
161.647
174.775
188.099
201.564
215.118
228.713
242.306
255.853
269.315
282.65
295.823
308.793
321.522
333.973
346.104
357.875
369.241
380.158
390.581
400.463
409.758
418.42
426.404
433.667
440.167
445.871
450.748
454.777
457.943
460.24
461.667
462.228
461.938
460.827
458.944
456.367
453.21
449.656
445.913
442.234
438.877
436.107
434.222
433.475
434.114
436.361
440.449
446.623
455.019
465.677
478.521
493.369
509.976
527.966
546.721
565.823
584.454
601.955
617.608
630.776
640.891
647.492
650.268
649.025
643.744
634.556
621.727
605.707
586.905
565.607
542.139
516.831
490.291
463.175
436.01
409.156
382.955
357.68
333.576
310.788
289.421
269.49
250.967
233.762
217.798
203
189.319
176.696
165.083
154.414
144.631
135.67
127.471
119.975
113.119
106.844
101.094
95.8235
90.9879
86.5477
82.465
78.7066
75.2409
72.0409
69.0817
66.34
63.7957
61.4311
59.2297
57.1751
55.254
53.4562
51.7745
50.1992
48.7206
47.3306
46.0226
44.7906
43.6278
42.529
41.4912
40.5126
39.5927
38.7362
37.9476
37.2409
36.6367
36.168
35.896
35.915
36.382
37.4909
39.6225
42.9576
47.1849
0
10.3035
19.3318
25.3461
28.8351
31.3966
33.4349
35.0535
36.3626
37.4137
38.2131
38.7345
38.9348
38.7647
38.1801
37.1557
35.7029
33.885
31.8185
29.6596
27.5808
25.7455
24.2906
23.319
22.9018
23.0869
23.9108
25.4069
27.6123
30.5683
34.3197
38.9105
44.3799
50.759
58.0674
66.3106
75.4795
85.5499
96.4834
108.23
120.73
133.918
147.723
162.073
176.895
192.118
207.67
223.485
239.5
255.654
271.892
288.161
304.41
320.589
336.651
352.549
368.236
383.666
398.793
413.569
427.943
441.862
455.274
468.12
480.345
491.889
502.694
512.701
521.851
530.091
537.369
543.641
548.868
553.021
556.078
558.023
558.85
558.563
557.185
554.757
551.354
547.09
542.161
536.796
531.277
525.897
520.968
516.82
513.784
512.148
512.178
514.193
518.477
525.224
534.541
546.393
560.647
577.033
595.279
614.675
634.716
654.528
673.351
690.395
704.912
716.225
723.762
727.147
726.143
720.729
711.054
697.313
679.754
658.616
634.282
607.444
578.895
549.343
519.342
489.352
459.757
430.909
403.108
376.583
351.486
327.904
305.861
285.322
266.216
248.464
231.996
216.75
202.665
189.677
177.722
166.732
156.641
147.383
138.891
131.099
123.944
117.366
111.316
105.747
100.616
95.8822
91.5095
87.4642
83.717
80.2406
77.0095
74.0016
71.1968
68.5768
66.1247
63.8262
61.6692
59.6443
57.7418
55.9549
54.2739
52.6894
51.1937
49.7795
48.4419
47.1779
45.9867
44.8696
43.8314
42.8776
42.0251
41.2977
40.7321
40.3903
40.364
40.7945
41.8418
43.7882
46.6568
50.0888
0
13.4453
24.6018
32.2307
36.5527
39.4577
41.456
42.6841
43.2939
43.3736
42.9793
42.15
40.9258
39.3573
37.5106
35.4686
33.3306
31.209
29.222
27.4827
26.0892
25.1189
24.6287
24.6586
25.2397
26.4014
28.1772
30.6084
33.7436
37.6373
42.3457
47.9228
54.4171
61.8672
70.2995
79.7259
90.1432
101.533
113.863
127.088
141.154
155.997
171.55
187.742
204.501
221.752
239.42
257.434
275.727
294.232
312.889
331.637
350.418
369.172
387.845
406.379
424.721
442.815
460.606
478.036
495.046
511.574
527.554
542.919
557.598
571.521
584.614
596.806
608.023
618.196
627.261
635.156
641.83
647.239
651.347
654.129
655.566
655.654
654.403
651.845
648.042
643.095
637.196
630.594
623.591
616.517
609.712
603.546
598.387
594.574
592.441
592.34
594.618
599.552
607.295
617.893
631.257
647.148
665.281
684.991
705.656
726.364
746.254
764.447
780.097
792.405
800.725
804.655
803.805
797.977
787.177
771.486
751.195
726.942
699.574
669.852
638.514
606.197
573.473
540.791
508.589
477.222
447.018
418.186
390.893
365.204
341.158
318.713
297.813
278.376
260.334
243.613
228.149
213.866
200.696
188.566
177.404
167.138
157.697
149.009
141.007
133.63
126.825
120.543
114.738
109.367
104.39
99.7729
95.4835
91.4926
87.7731
84.301
81.0546
78.0141
75.1615
72.4814
69.9605
67.5883
65.3545
63.2521
61.2738
59.4071
57.6425
55.9728
54.393
52.9004
51.4944
50.1772
48.9547
47.8355
46.8372
45.984
45.3147
44.8899
44.7943
45.1508
46.0824
47.7921
50.1683
52.8981
0
15.1043
27.1298
35.4748
40.1713
43.1625
45.0425
45.9695
46.1245
45.6339
44.602
43.1275
41.3176
39.2897
37.1681
35.0766
33.1312
31.4338
30.0668
29.0919
28.5513
28.4719
28.8726
29.7701
31.185
33.1466
35.6952
38.8819
42.7663
47.4122
52.8837
59.2419
66.5405
74.8239
84.1233
94.456
105.825
118.217
131.609
145.962
161.228
177.352
194.271
211.919
230.227
249.12
268.527
288.374
308.592
329.114
349.875
370.809
391.851
412.934
433.995
454.969
475.795
496.407
516.742
536.732
556.31
575.402
593.93
611.815
628.976
645.328
660.785
675.26
688.668
700.925
711.953
721.678
730.038
736.977
742.451
746.424
748.87
749.772
749.131
746.963
743.31
738.254
731.963
724.703
716.791
708.584
700.449
692.768
685.957
680.37
676.383
674.413
674.845
678.037
684.202
693.466
705.799
720.997
738.775
758.513
779.535
800.858
821.55
840.661
857.246
870.287
878.964
882.679
880.905
873.361
860.13
841.646
818.582
791.659
761.624
729.237
695.231
660.26
624.898
589.635
554.928
521.166
488.671
457.666
428.295
400.636
374.712
350.496
327.926
306.929
287.426
269.345
252.603
237.125
222.831
209.646
197.491
186.289
175.962
166.435
157.639
149.509
141.991
135.032
128.585
122.604
117.048
111.88
107.066
102.576
98.3805
94.455
90.776
87.3226
84.0755
81.0187
78.1379
75.4216
72.859
70.4428
68.1669
66.0171
63.9833
62.0581
60.2368
58.517
56.8982
55.3835
53.9794
52.6958
51.5511
50.5716
49.7942
49.2745
49.0882
49.3387
50.1131
51.5551
53.4491
55.5763
0
15.1288
26.6272
34.6319
39.1915
42.0467
43.7747
44.5649
44.61
44.0592
43.0447
41.693
40.1362
38.5074
36.9335
35.5277
34.3836
33.5711
33.1366
33.1054
33.4891
34.2936
35.5263
37.2009
39.3411
41.9834
45.1771
48.9823
53.4665
58.7003
64.7518
71.6908
79.5743
88.4503
98.3539
109.307
121.319
134.386
148.49
163.603
179.688
196.696
214.579
233.27
252.708
272.824
293.552
314.822
336.565
358.714
381.202
403.962
426.922
450.011
473.16
496.297
519.353
542.253
564.926
587.297
609.287
630.811
651.783
672.11
691.699
710.454
728.274
745.061
760.717
775.145
788.257
799.967
810.207
818.912
826.033
831.529
835.366
837.523
837.985
836.753
833.848
829.319
823.312
816.086
807.981
799.381
790.652
782.212
774.44
767.73
762.491
759.148
758.17
759.941
764.774
772.855
784.253
798.792
816.172
835.782
856.863
878.431
899.375
918.644
935.169
947.82
955.593
957.72
953.855
944.029
928.485
907.636
882.097
852.589
819.929
784.921
748.288
710.726
672.777
635.002
597.881
561.834
527.191
494.164
462.877
433.41
405.774
379.95
355.867
333.46
312.643
293.338
275.451
258.901
243.601
229.47
216.423
204.377
193.248
182.96
173.441
164.624
156.451
148.87
141.829
135.283
129.187
123.503
118.197
113.236
108.591
104.234
100.143
96.2944
92.6688
89.2493
86.0211
82.9722
80.0915
77.371
74.8037
72.3759
70.0782
67.9032
65.8463
63.9053
62.0802
60.3742
58.7943
57.3511
56.0634
54.9569
54.0678
53.4448
53.1511
53.2718
53.8622
55.0224
56.4647
58.0825
0
13.6659
23.5228
30.4034
34.4153
36.9557
38.5232
39.3315
39.5747
39.4049
38.9564
38.3423
37.6776
37.0679
36.6048
36.3626
36.3963
36.7407
37.4132
38.4177
39.7538
41.4234
43.4367
45.8151
48.589
51.8101
55.5342
59.8292
64.7681
70.4275
76.8754
84.1918
92.4326
101.652
111.889
123.174
135.522
148.938
163.415
178.934
195.468
212.978
231.425
250.744
270.892
291.808
313.431
335.7
358.548
381.919
405.735
429.931
454.433
479.17
504.067
529.048
554.032
578.939
603.689
628.2
652.383
676.144
699.385
722.004
743.896
764.953
785.062
804.114
821.998
838.611
853.852
867.631
879.871
890.507
899.487
906.769
912.319
916.108
918.113
918.32
916.723
913.348
908.295
901.813
894.283
886.092
877.632
869.28
861.403
854.377
848.57
844.473
842.604
843.41
847.289
854.456
864.966
878.65
895.136
913.88
934.192
955.043
975.351
993.813
1009.16
1020.31
1026.3
1026.54
1020.71
1008.74
990.878
967.552
939.539
907.538
872.387
834.9
795.818
755.833
715.532
675.517
636.29
598.215
561.643
526.793
493.799
462.722
433.585
406.334
380.921
357.285
335.336
314.976
296.109
278.639
262.48
247.537
233.722
220.945
209.121
198.172
188.022
178.603
169.854
161.722
154.154
147.102
140.521
134.373
128.62
123.231
118.173
113.42
108.948
104.733
100.754
96.9955
93.4412
90.0793
86.8983
83.8903
81.0454
78.3522
75.8025
73.3895
71.1087
68.9579
66.9375
65.0505
63.304
61.7091
60.2838
59.0531
58.0503
57.3179
56.9062
56.8824
57.2749
58.1543
59.1853
60.3787
0
11.1827
18.7939
24.1179
27.3126
29.4156
30.8305
31.7766
32.4331
32.931
33.3805
33.8604
34.4447
35.1872
36.1273
37.2885
38.6844
40.3107
42.1624
44.2287
46.5109
49.0126
51.7517
54.7604
58.0781
61.7687
65.8947
70.5338
75.7666
81.676
88.34
95.8281
104.204
113.523
123.834
135.171
147.559
161.011
175.53
191.11
207.735
225.378
244.015
263.607
284.113
305.48
327.654
350.577
374.186
398.42
423.201
448.477
474.172
500.223
526.545
553.056
579.671
606.301
632.859
659.256
685.392
711.166
736.469
761.189
785.208
808.404
830.655
851.84
871.842
890.549
907.854
923.657
937.88
950.459
961.35
970.511
977.912
983.517
987.3
989.231
989.287
987.457
983.793
978.554
972.142
964.989
957.461
949.895
942.645
936.011
930.389
926.334
924.326
924.812
928.06
934.447
944.085
957.016
972.671
990.509
1009.83
1029.6
1048.53
1065.45
1079.18
1088.51
1092.62
1090.84
1082.83
1068.54
1048.22
1022.29
991.584
956.888
919.095
879.028
837.453
795.114
752.452
710.185
668.879
628.902
590.668
554.291
519.889
487.507
457.163
428.805
402.361
377.752
354.895
333.688
314.033
295.826
278.973
263.373
248.932
235.562
223.172
211.68
201.011
191.094
181.867
173.273
165.259
157.777
150.781
144.232
138.093
132.329
126.91
121.807
116.996
112.452
108.156
104.091
100.241
96.5929
93.1382
89.8656
86.7649
83.8271
81.045
78.4124
75.9253
73.5815
71.3812
69.3277
67.4275
65.6917
64.1372
62.7874
61.6719
60.827
60.2919
60.1173
60.3093
60.9195
61.5841
62.4285
0
8.3787
13.6456
17.3203
19.5982
21.1962
22.4322
23.5246
24.6342
25.8737
27.3199
29.0086
30.9532
33.1443
35.5646
38.1831
40.9686
43.8821
46.903
50.0088
53.201
56.4846
59.8859
63.4493
67.229
71.2951
75.7205
80.5865
85.977
91.9867
98.6857
106.155
114.462
123.67
133.832
144.989
157.174
170.412
184.714
200.085
216.52
234.005
252.523
272.052
292.56
314.01
336.356
359.551
383.542
408.283
433.712
459.766
486.365
513.464
540.94
568.731
596.75
624.89
653.055
681.146
709.049
736.661
763.861
790.525
816.523
841.725
865.997
889.214
911.247
931.975
951.283
969.071
985.254
999.783
1012.61
1023.71
1033.05
1040.61
1046.33
1050.18
1052.13
1052.12
1050.18
1046.53
1041.69
1036.11
1030.08
1023.92
1017.91
1012.3
1007.53
1003.99
1002.2
1002.63
1005.79
1011.85
1020.86
1032.53
1046.9
1063.21
1080.67
1098.22
1114.93
1129.6
1141.01
1148.18
1150.05
1145.92
1135.43
1118.56
1095.57
1067.03
1033.72
996.523
956.327
913.963
870.202
825.803
781.325
737.422
694.61
653.223
613.654
576.062
540.556
507.175
475.935
446.682
419.384
394.071
370.573
348.78
328.581
309.868
292.554
276.512
261.635
247.837
235.032
223.138
212.078
201.782
192.186
183.231
174.866
167.043
159.716
152.844
146.391
140.32
134.601
129.204
124.106
119.282
114.713
110.383
106.274
102.378
98.6822
95.1761
91.8501
88.6965
85.7089
82.882
80.212
77.697
75.3371
73.1353
71.0978
69.235
67.5625
66.1013
64.8773
63.9205
63.2616
62.9359
62.9329
63.2925
63.6367
64.1977
0
5.76596
8.92563
11.0939
12.4842
13.5766
14.6386
15.873
17.4202
19.363
21.7375
24.5413
27.7383
31.2709
35.069
39.0517
43.1438
47.2822
51.4186
55.5272
59.597
63.6308
67.654
71.7221
75.8913
80.2413
84.8546
89.8194
95.2258
101.158
107.709
114.966
123.004
131.893
141.693
152.455
164.222
177.027
190.896
205.844
221.88
239.005
257.214
276.498
296.838
318.206
340.568
363.883
388.104
413.18
439.051
465.662
492.942
520.808
549.203
578.032
607.202
636.609
666.148
695.715
725.204
754.506
783.471
811.97
839.855
866.982
893.21
918.408
942.439
965.171
986.477
1006.25
1024.42
1040.93
1055.75
1068.89
1080.29
1089.92
1097.76
1103.74
1107.81
1109.89
1109.93
1108.26
1105.53
1101.97
1097.89
1093.51
1088.96
1084.51
1080.54
1077.65
1076.3
1076.93
1079.61
1084.76
1092.75
1103.36
1115.73
1129.72
1144.62
1159.81
1174.05
1186.18
1194.97
1199.34
1198.32
1191.25
1177.8
1157.97
1132.1
1100.8
1064.92
1025.33
982.921
938.518
892.869
846.726
800.753
755.569
711.65
669.36
628.978
590.68
554.55
520.623
488.891
459.243
431.595
405.904
382.052
359.935
339.441
320.453
302.867
286.55
271.404
257.361
244.314
232.179
220.88
210.346
200.517
191.33
182.729
174.669
167.107
160.001
153.314
147.012
141.063
135.438
130.113
125.065
120.277
115.732
111.415
107.314
103.418
99.7189
96.2061
92.8729
89.7137
86.7237
83.8998
81.2401
78.745
76.4166
74.2613
72.2881
70.5115
68.9495
67.6242
66.5598
65.7803
65.3079
65.1204
65.2519
65.3193
65.6545
0
3.67347
5.14471
6.09535
6.7051
7.31175
8.172
9.4902
11.398
13.9597
17.1787
21.0086
25.3673
30.1456
35.2254
40.4883
45.8176
51.1215
56.3272
61.3908
66.2923
71.0342
75.6447
80.1699
84.6818
89.267
94.018
99.0311
104.405
110.239
116.628
123.661
131.42
139.979
149.41
159.77
171.119
183.485
196.913
211.429
227.054
243.801
261.677
280.684
300.812
322.045
344.357
367.714
392.077
417.399
443.632
470.722
498.603
527.195
556.442
586.245
616.512
647.16
678.046
709.048
740.021
770.835
801.372
831.496
861.057
889.905
917.913
944.946
970.834
995.425
1018.57
1040.17
1060.13
1078.42
1095.05
1109.98
1123.22
1134.72
1144.44
1152.31
1158.23
1162.08
1163.77
1163.86
1162.86
1160.92
1158.35
1155.28
1151.9
1148.41
1145.14
1142.8
1141.57
1141.91
1144.4
1149.1
1155.69
1164.21
1174.76
1186.73
1199.42
1211.99
1223.39
1232.5
1238.17
1239.36
1235.15
1224.92
1208.36
1185.52
1156.8
1122.9
1084.68
1043.02
998.774
952.739
905.669
858.323
811.388
765.446
720.942
678.194
637.454
598.865
562.508
528.388
496.477
466.693
438.957
413.179
389.255
367.074
346.529
327.494
309.872
293.51
278.3
264.167
251.02
238.778
227.364
216.711
206.76
197.437
188.695
180.5
172.8
165.553
158.72
152.267
146.164
140.383
134.9
129.695
124.75
120.048
115.574
111.32
107.274
103.428
99.7734
96.3024
93.0104
89.8933
86.9488
84.1747
81.5715
79.1411
76.8894
74.8247
72.9595
71.3083
69.8902
68.7252
67.8301
67.2179
66.8586
66.7853
66.6139
66.7761
0
2.28049
2.63405
2.76693
2.82838
3.10063
3.85013
5.28282
7.52387
10.6205
14.5508
19.2353
24.5577
30.3762
36.5335
42.878
49.2717
55.5923
61.7425
67.6601
73.3162
78.7113
83.8741
88.8604
93.7461
98.6171
103.569
108.701
114.117
119.918
126.208
133.081
140.631
148.941
158.093
168.154
179.19
191.249
204.379
218.613
233.983
250.506
268.202
287.074
307.127
328.346
350.713
374.199
398.766
424.374
450.985
478.538
506.989
536.27
566.296
596.977
628.208
659.879
691.872
724.081
756.374
788.604
820.637
852.306
883.437
913.878
943.471
972.068
999.519
1025.65
1050.32
1073.4
1094.82
1114.58
1132.66
1149.08
1163.83
1176.86
1188.11
1197.46
1204.77
1209.86
1212.7
1214.23
1214.49
1213.66
1211.98
1209.56
1206.51
1203.07
1199.79
1197.07
1195.49
1195.25
1196.23
1198.8
1203.41
1209.81
1217.71
1226.68
1236.06
1245.08
1252.77
1258.11
1260.04
1257.57
1249.86
1236.35
1216.78
1191.24
1160.22
1124.43
1084.72
1041.92
996.841
950.209
902.789
855.319
808.471
762.768
718.613
676.291
636.017
597.913
562.041
528.387
496.915
467.547
440.205
414.785
391.19
369.313
349.043
330.255
312.832
296.651
281.603
267.6
254.557
242.396
231.045
220.438
210.52
201.218
192.479
184.269
176.541
169.254
162.371
155.861
149.695
143.845
138.286
132.997
127.969
123.18
118.618
114.273
110.136
106.2
102.455
98.8953
95.5161
92.3138
89.2871
86.4342
83.7556
81.2528
78.9312
76.7972
74.8616
73.1378
71.6404
70.3852
69.3842
68.6436
68.1287
67.8754
67.4982
67.5391
0
1.47489
1.23766
0.950818
0.757874
0.942766
1.77909
3.46293
6.09979
9.71586
14.2681
19.6567
25.7491
32.3742
39.3577
46.5284
53.7276
60.8261
67.7228
74.35
80.6733
86.69
92.4265
97.9352
103.292
108.584
113.908
119.363
125.055
131.089
137.57
144.598
152.272
160.684
169.919
180.053
191.154
203.272
216.468
230.777
246.231
262.856
280.67
299.69
319.915
341.343
363.952
387.718
412.602
438.577
465.593
493.632
522.616
552.486
583.163
614.556
646.562
679.07
711.971
745.146
778.453
811.767
844.918
877.735
910.056
941.711
972.58
1002.52
1031.32
1058.8
1084.77
1109.09
1131.68
1152.53