/*--------------------------------*- C++ -*----------------------------------*\
  =========                 |
  \\      /  F ield         | OpenFOAM: The Open Source CFD Toolbox
   \\    /   O peration     | Website:  https://openfoam.org
    \\  /    A nd           | Version:  9
     \\/     M anipulation  |
\*---------------------------------------------------------------------------*/
FoamFile
{
    format      ascii;
    class       volScalarField;
    location    "35";
    object      p;
}
// * * * * * * * * * * * * * * * * * * * * * * * * * * * * * * * * * * * * * //

dimensions      [0 2 -2 0 0 0 0];

internalField   nonuniform List<scalar> 
112055
(
0.0186259
0.00412282
-0.00567332
-0.0081388
0.000628458
0.00745034
0.0180179
-0.00795556
-0.00259653
0.0181373
0.00415772
0.0171233
-0.00233308
0.0171181
0.0281042
-0.000203372
-0.0628513
0.0220345
0.00413495
-0.0032582
-0.000106717
0.00010514
0.00415283
-0.000966783
0.000642922
-0.00121607
0.0405514
0.00565634
0.00740911
-0.000102952
0.00857015
-0.0168492
-0.0004989
-0.0548743
-0.00262786
-0.000385104
-0.00332482
0.0633422
-0.0113575
-3.10601e-05
-0.00070234
-0.0104409
-0.000208466
-0.00557366
0.0225773
-0.0019708
-0.0546034
0.00111327
0.00047196
-0.0102262
-0.0077545
-0.0186906
6.22055e-06
-0.0111212
-0.00368088
0.0181464
0.000490613
0.00155487
-0.012236
-0.00199683
0.0147576
0.00111689
-8.86192e-06
-8.57125e-06
0.0113431
-0.00314616
0.0658423
3.83062e-05
0.00230767
-0.00108693
0.0014941
-0.06329
-0.000848947
0.0371677
-0.0421991
-0.0400287
0.00392845
0.0184785
-0.0153758
-0.0108321
0.000196617
-0.0434883
-0.0076071
-0.00131531
-0.000195986
0.00163225
-0.00562726
-0.00364391
-0.0212876
-0.00359523
-6.88679e-05
-0.00039379
-0.00597647
0.000583024
-0.0415554
0.00389032
-0.0151326
0.0277597
0.00856648
0.000491711
-0.00230703
-0.00034302
-0.000394311
0.00503139
-0.0430341
-0.0617992
0.0113288
1.48784e-05
-0.000206862
0.00161377
-0.0630935
-0.0338199
-0.00318155
0.0062911
0.00232066
0.0211254
0.0113425
-0.00035275
-0.0205009
-0.00270293
0.0059858
0.00566821
0.0180853
4.1156e-05
-0.000697282
0.00494654
-0.061353
5.75816e-05
-0.00357114
-0.0423283
4.01662e-05
0.0402599
3.67099e-05
0.0525036
-0.0116476
-3.11133e-05
-0.000390598
0.00160655
-0.00501893
0.00279218
0.00152297
0.00420788
-0.0145544
0.0105224
1.62319e-05
-0.00358188
0.020092
2.09962e-05
-0.000358256
0.000247645
-0.0625448
8.99551e-05
0.0157694
-1.73839e-06
-0.0049847
0.00648066
0.00935596
0.00637419
-0.0115278
-0.00451366
-0.00315836
8.88872e-06
-0.00224566
-0.00335193
-0.000919352
-0.000766449
0.00945679
-0.0171936
-0.000991594
0.0113812
0.00812379
0.00645495
-0.00225438
0.0103427
-0.0165845
-0.00273673
0.000443958
-0.00346451
-0.00529629
0.000608669
-0.0163467
-0.000227023
-1.28105e-05
0.00859851
-0.0131941
0.0156866
1.03684e-05
-0.000935289
-0.0149973
-0.00161254
0.00168004
-0.000488484
-0.0035465
0.0060098
-0.00470845
-4.94251e-06
-0.012882
-0.033963
-1.96655e-05
0.00931845
0.0625134
0.0127705
0.0148576
1.10085e-05
0.0001912
0.0208699
0.0657379
0.010055
-0.0623599
-0.00040152
0.000487234
-0.000653685
0.019697
-0.000406676
-0.0148216
0.0101831
0.0082271
-0.00655255
-0.00178759
-0.00855367
-1.98335e-05
-0.0226207
-0.00312346
-0.00473806
-0.0349608
-0.00101101
-0.000322973
0.00913846
0.00351335
-0.000550209
-0.000377644
-0.00182128
-0.0130554
0.00474241
-0.025503
0.00088305
-6.31159e-06
-0.000384678
-0.0698151
0.0985761
1.35319e-05
-0.0113725
-0.00179968
1.46172e-05
-0.00120869
-0.0254162
-0.011546
-0.0106968
9.87207e-05
-0.00836295
-0.00193792
-0.00024153
-0.0501155
-0.00219143
-0.0125879
0.000270205
0.00164498
-0.00361578
-0.0358165
-0.000401851
-0.0352776
0.0209598
-0.000823329
0.0160684
0.0528211
-0.00152734
0.000188434
-0.00340765
0.0132424
3.9883e-05
-0.00194108
-0.00560698
-8.67933e-06
-0.0176799
-0.00152626
0.00452869
-0.0414434
-0.0657971
-0.0648898
-0.0496173
-0.00020071
0.00434364
0.0123696
0.00775372
0.00547442
-0.00547256
0.00524729
-0.000557151
4.19712e-05
0.0135298
-0.00167326
-2.99866e-05
0.00526987
-0.00145289
0.00477775
0.00545303
0.0103792
-0.00267882
-0.000941382
-6.68214e-05
0.00458967
0.00860633
0.00898627
0.00505923
-0.00869638
3.48501e-05
-5.5461e-07
-0.00350012
-0.00149237
-1.81132e-05
-0.00329092
0.00256912
-0.000350046
0.000315146
-0.0133848
-0.0231938
-0.010327
0.000872785
-0.00139966
-0.000929093
-0.00121706
0.0535745
0.0295789
-0.00264718
-0.0111585
-0.00679237
0.00385918
-0.000144082
0.00439342
-0.000382611
0.00349542
0.000283964
0.0111721
-0.00684737
-0.0086972
-8.41921e-06
-0.000536316
0.00131291
0.00267042
-0.0269001
0.0624934
-0.0608256
0.000597194
3.74617e-06
1.81659e-05
-0.0108765
1.77335e-05
-0.0115288
0.0113008
0.00018603
0.0257993
0.0145676
0.0164904
-0.0499219
-0.00379523
-0.00380867
0.0369238
0.000644898
-0.00046567
0.0169872
-0.0442503
-0.000466302
-0.0085719
0.107742
9.82932e-05
-0.0697195
-0.0276578
-0.00707615
0.00449232
-0.00329537
0.0224257
0.0228661
0.0102829
0.0158214
0.140222
-1.07573e-05
-9.83968e-06
-0.0052225
-0.00526041
-0.00130515
-0.000360948
0.00746339
0.0170019
0.000137292
-0.00362609
-1.18968e-05
-1.1991e-05
-0.00627312
0.012178
0.0222311
0.00296241
0.000319111
0.00076678
-0.0252341
0.0368003
-0.00177029
0.00162029
-0.00935992
-0.00734328
0.000817105
0.0202557
0.00367134
-0.0188294
0.0162761
6.87798e-05
-0.033284
-0.00824737
-0.00114021
-0.00270493
0.0031123
-0.00681891
-5.17045e-06
-0.00153477
-5.01031e-06
-1.91542e-05
-0.0102898
0.00637274
-0.0131376
-0.00185417
0.00644041
0.0300422
-0.00309834
0.000926539
0.00664798
0.00523795
-0.00964056
0.00996674
1.51768e-05
-0.0103775
-0.00844904
-0.00152072
0.0101395
-0.00425915
-0.0139556
-0.0115964
0.0254723
-9.18631e-05
-0.011686
0.0978956
0.0250675
-0.00942878
0.00123258
0.00640491
-0.00370883
0.00379539
1.72755e-07
0.0364584
0.0246946
0.000300893
-0.00907641
0.00263734
0.00592442
-0.00309393
0.00770119
-0.00669703
-0.064529
6.0233e-06
1.16731e-05
0.00896665
-1.69154e-05
-0.00251678
-0.00339147
-2.70649e-05
0.00285665
-0.0110172
4.6685e-06
-9.6937e-05
0.0162768
0.00525421
0.000114089
0.0074947
-0.000641236
-0.00421328
-0.0113479
0.00744633
-0.00755655
-0.00152784
-2.00655e-05
-0.0022825
0.000354799
-0.0502243
-0.0737033
0.000138396
-0.0157342
-0.000891181
-0.0347988
0.0129842
1.88709e-05
-0.0017553
-0.00149694
-8.59301e-06
-0.0402185
-0.00876402
4.71362e-06
0.00973693
-0.00345054
0.00718244
3.39588e-05
-0.00142329
8.58792e-05
0.00017391
8.54149e-05
-0.00343546
0.0103016
4.66982e-06
0.0052824
-0.00122758
-0.0498588
-2.36738e-05
-9.43238e-05
-0.00756925
0.0225446
-0.00805012
0.0030598
0.0660211
-2.4475e-05
-1.6171e-07
-7.19038e-06
-0.0039326
-0.010862
0.00786575
0.000749193
-0.000550037
-0.00329747
0.00321543
-0.00352623
3.51391e-06
0.0664449
-0.00229859
-2.45173e-05
0.00597645
-0.00523014
-0.0618586
0.0524004
-0.000138297
0.0135835
-0.00888641
-0.0813286
-0.00366663
2.38436e-05
-8.98915e-05
1.4448e-05
-0.0790245
0.0258489
-0.012603
-0.00881527
-0.0129046
0.00330425
0.00637402
-0.000571972
0.0259152
0.00560288
0.00925419
-0.0253247
0.00719015
2.72028e-06
-0.0192335
-0.00121256
5.61133e-06
-0.011399
-0.0457933
-0.000666156
0.000118016
0.00022524
0.105595
-0.003301
-0.0050546
-0.0659235
-0.000890363
-0.064633
-0.00540632
0.00763879
-0.000359917
-0.0471738
1.2818e-05
0.00433994
0.0059685
-0.011664
0.00953877
-0.0311704
-0.0018799
-4.23617e-07
0.0126729
0.00489582
0.00870692
1.43264e-06
0.00772201
0.00307176
0.00620755
1.35651e-05
0.00591052
0.000318662
-2.41607e-05
0.000302552
-0.00119511
0.00661279
0.00341648
-0.00213768
0.00556391
-0.0046807
-2.06291e-05
-0.011896
0.00277277
0.00539457
-0.00214118
0.0031987
-0.00298868
0.00821263
0.0113245
-4.83202e-05
-0.00358062
0.0111382
0.000543477
-0.00548643
0.0508086
0.00562969
2.72725e-06
-0.000453974
-0.0118363
0.00381927
-0.0281099
0.00903174
0.00507978
0.000593548
0.00532524
-0.049023
-0.00278911
-0.00900171
-0.00321108
-0.006927
-0.00199475
-0.0631671
0.000148124
-0.0610025
0.00194211
-0.000140538
-0.000151976
0.0020079
0.000176907
0.00491541
-0.000353786
0.000163123
-0.00301714
-0.00503638
0.0015571
0.0238664
0.0751176
0.00805234
-0.045872
-0.00554609
-0.073415
-0.00311085
-1.1138e-06
0.0193707
-1.19789e-06
0.000115194
0.0101179
0.0146151
-0.00534613
-0.0124704
0.00983278
0.00814609
1.52605e-05
0.0179766
-1.58395e-06
-0.00243097
-0.0286944
-0.0466181
-5.11068e-05
0.00560659
-0.0114442
-0.024833
-0.0089064
0.0175237
-0.0019418
4.30646e-05
0.00534941
0.0191281
0.0787011
-0.000149541
-5.09837e-05
-0.00325716
-0.00111238
-0.0409477
-0.0033797
0.0127982
-0.00593442
-1.57625e-05
-0.0504788
-0.00792436
4.53035e-05
0.00738076
0.00428621
0.00747834
0.0237451
0.0181207
0.0221188
0.0128822
8.92569e-05
0.00424323
-0.00361032
4.85774e-05
0.00772782
3.32973e-05
-0.0024311
0.00407702
-0.00303061
-0.000555477
0.130319
4.47406e-05
0.00869792
-0.00247958
-0.00111946
-0.00704951
0.0003227
0.0018031
0.0127774
8.54832e-05
0.00451871
-0.000944513
-0.0034073
-0.00321852
-0.000676556
-0.0146061
-2.07038e-05
0.00987297
0.012555
0.0150309
0.000304341
0.00298893
-0.00160065
0.0148383
-0.0623267
-0.00309818
0.00642466
-0.000358845
0.0492844
-0.00620604
-0.00125148
0.00133271
-0.0130042
1.98352e-05
-0.00783874
0.00729629
-0.0685451
0.000849733
-0.0125234
0.0110115
0.00381792
0.00527383
-4.56524e-05
-0.000779509
-2.79766e-05
-0.0117173
-0.000707736
0.0108472
0.00637143
-5.00093e-05
0.0164709
6.61571e-05
-2.86499e-05
-0.00325552
-0.0120917
-0.0306457
0.0389048
0.0649665
0.0062743
-0.00230263
-5.43092e-05
3.43773e-06
-0.000770984
-0.00611845
0.00049247
-0.000211382
-0.000217387
0.00535521
-0.063553
-0.00184487
-1.41788e-05
0.0143795
-0.0127088
0.0174634
4.25673e-06
-0.00216797
-0.0755487
1.32021e-05
-3.72704e-05
-0.000327345
-0.00321339
-0.0124184
-0.00184397
-0.00358523
-0.000379284
-0.0371453
-0.003944
0.00103898
-0.0426783
-0.00337895
0.00464767
-3.50977e-05
-0.00324953
0.0146139
-0.00316101
-0.00855722
-0.103237
-5.61362e-05
-0.0117657
-0.00568774
0.000621665
-0.000131388
-0.0263041
-0.00158492
-0.00923934
0.0130105
-0.00368918
-0.0158298
0.000175716
0.00823883
-0.000182858
-0.00389653
-0.00289667
0.00651279
0.000129443
0.00833684
-0.00145335
-0.0124326
0.0156007
-0.00830085
-0.0143327
-1.13283e-05
-0.000181473
0.0151735
0.0178007
-0.00149875
0.129266
0.00502858
6.53927e-05
0.00544494
0.0108456
-0.00826666
-0.00151394
0.139027
0.0141013
-0.00321637
-0.000388684
-0.000220401
-0.0405129
-0.00326883
0.00824634
-0.000152676
-0.00358169
0.000651888
0.0387763
-0.000153823
-0.0157559
2.96367e-05
0.0180316
5.42622e-05
0.00773545
3.96122e-05
0.0788035
-2.24724e-05
-0.0027106
-0.0365337
-0.00513014
6.87896e-05
0.0054353
0.00839108
-0.0403978
-0.00187089
0.000732612
0.00702566
0.014459
-0.0714914
-0.0251474
0.00533961
0.00768447
0.000604393
-0.0161251
0.00453582
-0.000942977
-0.000328908
-1.81295e-05
-0.00142904
-5.31189e-07
-0.00276463
0.000294346
0.0128863
-3.5728e-05
0.00357867
0.0030996
0.00526437
-0.00323957
-0.0141728
-0.0420112
1.39164e-05
-0.00602539
0.0858779
0.000796007
-0.0639254
-0.00640505
0.00377093
-0.0106396
-4.52543e-05
-0.0134875
-0.0412295
4.93698e-05
0.00426314
-0.00678805
0.00408995
0.0175389
-0.00397573
0.00212187
0.00352134
-0.0635896
0.0121914
-0.000946915
-0.00403704
2.28166e-05
-0.000801003
-0.000518298
-1.92182e-05
-0.00104547
-0.0045148
0.00120694
0.00471969
2.03447e-06
0.0085537
2.90369e-05
-7.5353e-05
8.58571e-06
0.000990062
-0.0025731
-1.41873e-05
-0.00680745
4.68069e-05
-0.00844518
-0.000794842
0.00853022
-0.000136487
0.0136327
0.00995489
-0.000113672
0.00237388
-0.0336478
-0.000139655
-0.000415786
0.000795684
-0.0136028
0.0187483
-0.054384
0.00599101
-0.00021332
0.0018851
-0.00609709
0.0212603
-0.000640325
-0.00309893
0.000379996
-0.0326723
-0.00018115
-0.00277864
-0.00400954
-0.00176148
-0.00474261
-0.00405705
-0.0392887
-0.00014221
-0.0813825
-0.000150566
0.00722792
-0.00638208
0.00523262
-0.0131144
-0.0086987
-0.00344078
-0.0387523
0.0347482
-0.00308287
0.0177024
0.00320279
-3.56473e-05
-0.000617447
-0.0218162
0.00877148
0.00431941
-0.000221485
-0.0156712
0.00248406
-0.000443615
0.000277691
0.0170993
-0.000608229
-0.00765389
0.00905938
0.00574937
-0.00242439
0.0110996
-0.00225063
0.00868121
-0.00340123
-0.00390751
-0.00841802
-0.00451108
-0.0058134
0.0402642
-0.00618783
0.00413264
0.00253501
-0.00211463
-0.0609641
0.000999632
-4.33684e-06
-0.00105759
-0.0271307
0.00466549
0.00681568
0.00843588
-0.00121597
0.0057359
0.0038668
-0.0458014
0.000531509
0.000260913
-0.00499431
0.00343023
-0.000509013
0.00418828
-9.92308e-05
1.06368e-05
0.0222249
-0.00470013
-0.00607804
-0.0031847
-0.000113671
0.064498
0.00545758
0.00167904
-0.00272541
0.002709
0.00587491
0.0154245
-0.000116608
-0.0453155
0.00717032
-0.00340376
1.87045e-05
0.00535653
5.59807e-05
-0.0472875
2.01832e-05
-0.0208554
-3.03824e-05
-0.000159185
0.00563037
-0.018466
-3.00943e-05
0.000127186
5.75973e-05
-0.00172303
0.00421505
0.0224842
-0.00388269
0.0767187
-0.0306835
-0.00656852
-0.00992344
-0.0405109
-0.000151857
0.0155411
0.00865549
0.0102925
-0.0192561
-6.16491e-06
-0.0744203
-0.00163304
-0.00576632
-0.0588858
-0.00282093
0.00907932
-0.0018154
2.07447e-05
-1.15531e-05
0.00430182
-0.00688085
-0.00310165
-0.00200145
-5.92005e-06
-0.00322534
0.000103122
-0.0157127
-0.0073471
-0.00278425
1.63553e-05
6.40364e-06
-0.000156616
0.000112671
0.0495614
-7.99645e-06
0.00881
-0.0322714
-0.000330919
0.00522731
-7.60636e-06
-0.00112233
0.00181433
-0.0116709
-0.00198699
-0.000140683
-0.00015227
-0.0186964
-0.0100913
-2.18706e-05
-0.000194601
-3.03205e-07
0.000613335
0.0199764
0.00405705
-0.000236325
-0.000860386
0.00518764
-0.00245573
0.0722386
-0.00356813
-0.00320985
0.111739
0.00434742
-0.0576683
0.0101568
0.000984124
0.00593578
-0.00381551
0.000423014
0.0135629
0.0276727
-0.0217856
-0.00021231
0.0796647
0.000259365
-0.0376281
-0.041226
-0.00690803
-0.00332838
-0.0150552
0.000265665
0.000218812
-0.00217432
-0.00044877
1.63264e-05
0.0154491
-1.43775e-06
0.00907911
0.000176065
-0.00491175
-0.0218217
-0.00520827
0.00105479
-6.21763e-05
0.0148119
-0.00952522
-0.00319173
0.0156443
0.00687604
-0.00112203
-0.000155215
-5.83979e-05
-0.0165683
-0.00844936
0.007934
0.00607259
0.0241315
-7.514e-05
0.00334914
-0.0035111
-0.00314093
-0.0168885
1.57757e-06
0.0297283
0.00451225
-0.00288587
0.0349417
-0.000364553
-0.0785397
0.0178336
-3.66171e-05
0.00489862
0.000458113
0.110184
-0.00137741
-0.064216
-7.01366e-05
9.57497e-05
-0.000785899
-0.000231044
-0.0049893
2.79965e-05
-0.0108193
-0.0415747
-0.0179215
-0.00772218
-6.4472e-05
-0.0328531
-0.045244
-0.0655107
-0.000441228
0.0903165
-0.0675619
-0.00322155
0.00489687
0.00344986
9.91851e-06
3.22409e-05
-0.00195467
-0.000345659
-0.000793186
-0.000215258
0.0091048
-0.0398234
-0.00462199
-0.000190603
-0.0475472
-0.040646
0.00788328
0.000438082
-0.00146338
-0.00383504
0.00572467
-0.00325776
0.00522433
0.0116189
-0.0134774
0.0566303
0.000580979
0.0299535
-0.0250508
-0.00163857
0.00654697
-0.000143688
-4.13071e-05
0.0133605
-0.0138187
-0.00316468
0.0145153
-0.00129108
-5.22085e-05
-0.00528596
-0.00488298
-0.0650573
-0.0116211
0.00925438
-0.000461718
-0.00789794
0.00119785
0.0737242
-0.0459508
0.00856993
-0.00164049
0.00122453
0.0419355
-0.00129609
-0.00409584
-5.0645e-05
0.00378987
-0.00468122
-0.00268831
0.00654993
-0.0173186
-0.00127796
-0.00293338
-5.33994e-06
-6.06978e-07
0.00751419
-0.00222144
0.00049978
0.00658964
0.00327739
-0.0152446
-0.00673174
0.00554241
0.0646292
0.0157832
-0.000464384
-0.00329262
0.00281415
0.00925252
-0.00261855
0.000661646
0.0122252
-0.000318261
0.0559717
-0.0591159
-5.40387e-06
-0.00594129
0.00723038
-0.0057112
-0.0351423
-0.0075547
-0.00139776
-0.000821046
-0.0582422
0.00855021
-0.0025879
0.0906363
-0.00040452
-0.00287295
0.00725018
0.00490032
0.00567916
-0.000584979
-0.00323178
0.00988715
-0.000861561
-0.0391671
-0.0573664
-0.0181406
-0.00209317
-0.00607845
-0.00270315
-0.00132526
-0.00133391
-0.00475113
-0.00252869
-0.00381183
0.00927028
0.0154827
-0.0078725
-0.0132109
-0.00253063
0.00010839
0.00377388
-0.000268785
0.00027051
4.50899e-05
-0.00658428
-0.0398678
0.00691887
-0.0549298
0.0011609
4.77396e-05
0.0108208
-5.43646e-05
-0.0235799
-0.00086206
0.0082847
-0.000360646
0.00178029
-0.0068719
1.29218e-06
0.0565123
9.89617e-05
-0.0112158
-0.000113834
0.000105608
-0.00571261
-0.00810202
0.00668144
0.00323805
0.046691
0.00174119
0.00960421
-0.00337395
-0.0136931
-0.00681367
-0.003217
-2.99773e-05
0.000118887
-0.0145341
1.87753e-06
-0.00176842
0.00914762
-0.0189539
-0.0654044
1.63004e-05
2.59496e-05
0.0023475
0.00728533
0.00254256
0.0237394
-0.00284136
-4.99805e-06
-0.00774955
0.00494527
0.00308614
0.00733241
-0.0238789
-0.0217491
-0.00322965
-0.0630519
-0.00298428
0.0106647
7.53471e-05
-6.61166e-06
-1.05462e-05
0.00717796
0.0238122
1.60197e-05
-0.0416133
0.0594849
0.000524651
-0.0196396
0.00011896
0.00871813
-0.0452107
-0.02975
-0.00665109
-0.00879044
-0.0130257
0.00620825
0.00418737
-0.0632377
-0.00587023
0.0251349
0.0103031
-3.29039e-05
0.0128504
-0.0156134
-0.00236586
0.00485517
-0.0129729
0.00192708
-0.00285983
-0.000335152
-0.00308877
-0.0322296
-0.000771179
-0.0629822
-0.0590776
-6.1644e-05
5.58666e-05
-0.0235684
0.0114219
-0.00225673
-0.00256269
-0.0362571
0.013662
5.46335e-05
0.00307822
0.0840965
0.00445175
-0.019096
-0.0141754
0.0089039
-0.00109738
-0.0658577
-0.00254213
0.0022344
-0.0824176
0.109707
0.00205838
0.00724979
-0.0215503
-0.00255451
0.00918368
0.000275304
-0.00368268
-0.00306253
1.74912e-05
0.015457
0.0982978
0.00733941
-0.00258536
-0.000938994
-0.00154077
-0.00232402
-0.0019003
0.0459303
-1.49593e-06
0.0489948
-0.000310284
-0.00308848
-0.0411422
-0.00444174
-0.0088091
0.000248024
-0.00362208
-0.000221516
0.00899919
-0.00021254
-3.68292e-05
0.00120068
-0.000116702
0.0449907
0.00383721
0.0153324
-0.0480328
-3.68208e-05
0.00696605
-0.0716708
0.00210435
0.00820079
-9.90661e-06
0.0219945
0.0341938
-0.0500568
-0.00832913
-0.00293163
-0.00342974
-0.0108761
-0.000619174
-0.00592688
0.010183
-0.00479471
-0.00712608
0.0359901
-0.00558623
-0.00326416
0.0136948
-0.103483
0.00393249
-0.00129789
0.00776434
-0.000310521
0.00690344
-0.00129011
-0.000228884
0.00682698
-0.00111618
-0.00341208
0.010932
0.000468145
-0.00308404
-0.00239209
0.000405439
0.00469221
0.00608265
9.81187e-05
-0.0108292
-0.00427418
-0.0184778
-0.00118337
0.00226711
-8.20488e-07
-0.000309777
0.124794
0.000165959
0.00537908
-0.00621761
-0.0623822
0.0050107
-0.000124216
0.000416807
0.00858125
9.05207e-05
0.0163711
-0.062023
0.000790279
0.00959323
0.0481326
-2.72602e-06
0.0104088
-0.000438366
0.00546534
-0.000425857
-0.0157156
0.00205417
-3.33149e-05
-0.0166527
0.00745398
0.00604888
0.0124664
-0.000118469
-0.00190375
-0.00057319
-0.000149604
0.00837703
-0.000761975
-0.00015117
-0.0136322
-0.000236935
0.000222084
-0.000218651
-0.051453
-0.000135173
0.00553872
0.00759332
-0.0125843
0.00851121
0.00457141
0.00515657
-0.0104324
9.9e-05
-3.47873e-06
0.00617906
-0.00174396
-0.00670125
-0.000582012
-0.0653143
0.00252501
0.00858531
0.0175658
-0.0081466
-0.00643512
-0.00682929
-0.00247414
0.00273232
0.00730386
0.00829845
-4.74524e-05
0.0315453
0.00674723
0.000458949
-0.00096548
0.0226042
-0.0013124
0.00786078
-0.000185419
0.000115809
-0.0195636
-0.046535
-0.0030027
0.00552079
0.0274933
0.0650387
0.0104478
0.00375542
-0.0246143
-0.00339061
-5.12882e-06
-0.00386315
0.000139417
-5.62808e-05
-7.50309e-05
0.00816312
-0.000154598
0.0016195
0.000611506
-0.000856381
-9.95839e-06
-0.0648518
-0.0612617
8.47783e-05
-5.14071e-05
-0.0284208
-0.000619639
0.016659
-0.00482106
0.0134177
0.00589553
-0.000916262
-0.0104061
0.00287044
-0.000173067
-0.000599909
-0.00238675
5.37475e-06
-0.00406135
0.00738997
0.0128403
-0.0634781
-0.00690307
0.000216273
-0.000346033
-0.000175379
-0.000142383
-2.20775e-05
-0.000817412
-0.0449989
-0.026389
2.70682e-06
1.07393e-05
-0.0251933
0.000120692
0.00435203
-0.00439946
-0.00422066
0.00201909
0.010428
0.00706533
-0.0089022
0.0066628
-0.0012308
-0.00292887
-0.000445935
-0.000356192
0.0204285
-0.0631235
-0.0658583
0.0352931
0.00254319
0.0056243
-0.000159395
0.0221423
-0.00616094
0.00782697
-0.050725
0.00639331
-0.0775979
-0.00193504
-0.0246051
0.000785405
0.000997162
-0.0100554
0.0462534
-0.0607777
-1.44252e-05
-0.00555696
-0.0021596
-0.0214408
-0.00249806
0.00797413
-0.000123562
0.00482794
0.00771133
-0.00140702
0.0015621
-0.0379611
-0.0132638
0.00636984
-0.00197564
-0.00047684
-0.0709149
0.00486736
-0.00102713
-1.35156e-07
-1.62733e-06
-0.00317426
0.00805137
4.86419e-06
0.0170324
0.00756803
-2.03915e-05
-0.000218994
-0.0147395
-0.0670014
0.00466281
0.00896495
-2.39228e-05
4.28075e-05
0.00607907
-0.00126362
-0.0087258
0.0415062
-8.6185e-05
1.98012e-05
0.00985165
0.00123276
-0.0284962
-0.0643547
0.00729752
-0.0455684
-0.000325452
-0.0222496
-0.00451574
-0.00255492
-0.00129101
0.0100705
2.45248e-06
-0.0112417
-0.00977416
-0.00333123
-0.0650266
0.00855941
0.0052805
-0.0242897
0.00427677
0.000619865
-0.0101646
0.00586152
-0.00339835
-2.72858e-05
0.0112772
0.00321718
-0.000329542
-0.00317397
0.00909579
-0.00323344
-0.00903736
0.00324928
-0.000667415
-0.0144948
0.00485794
6.62631e-07
0.000835925
-0.00231605
0.00547724
-3.16968e-05
0.010649
-0.000292464
0.0105971
-0.00233133
0.000296656
0.00529374
0.00963929
-0.00336411
-0.0106694
-0.00267954
-0.00306441
0.0102248
-0.0409839
-4.69379e-05
-0.0479762
-0.00229004
-0.005953
-0.00369252
-0.0115085
-0.0061698
0.00192751
0.000129267
0.0052798
-0.0211024
-0.000162375
-0.000153759
-0.0240032
0.000820416
-0.00340024
-0.00521548
0.00558964
-0.00940325
-0.0172901
0.00906812
-0.00367344
0.00849919
-0.00376895
0.026011
-0.00426098
0.000816953
8.55421e-05
-0.000290391
0.000234994
-0.00312959
7.8941e-06
-0.000533565
0.0064995
0.00526577
0.00748464
0.0109344
-0.00213431
0.0146579
0.00396981
-0.0616154
3.60627e-05
-3.07651e-06
-0.0543487
0.00577165
-0.0495553
0.00386302
-0.00693976
7.04087e-06
0.00687337
-0.0162572
-0.00171861
-0.00944956
-0.00117118
-0.000374555
3.20088e-05
0.00387988
-0.00671292
-1.8312e-06
-0.000257354
0.00583198
-0.00295359
0.00840494
-1.82857e-06
0.00737534
-0.0577239
0.0556081
0.00803312
-0.0262793
-0.00140071
0.00415721
0.00112338
-0.000588406
-1.65808e-05
-0.00029955
-0.0142792
0.0281578
-0.000900677
1.34929e-06
-0.00665506
0.000577882
0.00115691
-8.65001e-06
-0.00126429
-2.71976e-05
0.00792663
-2.83269e-05
1.45643e-05
-0.00122747
-0.0040187
0.010637
0.0107537
-1.34705e-06
0.0384159
2.24727e-05
-5.40799e-05
0.00598449
-7.95671e-06
-1.11758e-06
0.00879874
-0.000237532
-2.17225e-06
-0.00787714
-0.00639747
0.000413309
0.00230154
0.00839401
-0.00243698
0.0271092
0.00646452
-0.000112073
0.00106732
-0.0647218
-0.00787058
0.00349878
-0.000221802
2.6803e-06
-0.0169934
-0.00243711
-0.00331179
0.0187042
-0.000104666
-0.0162358
-0.000289055
0.00881099
-0.00538728
-0.0154645
0.00200692
-0.00175114
0.00855235
-0.00313331
0.00213262
3.21297e-05
0.00753935
0.00202407
-0.000216837
-1.93532e-06
-0.0333935
-0.0517782
-0.0517225
-8.08786e-05
0.00655541
0.0386035
-0.0105227
-0.000310953
0.0100757
-1.74896e-06
0.000304174
-0.0248324
-0.00989365
-0.00226378
-0.0310487
-0.000931752
9.18438e-05
0.000116306
0.0105905
-0.0526963
-0.00346487
-0.00346776
0.000539378
0.000302183
-0.00105489
-0.00216323
-0.000269533
-0.017064
-2.05485e-05
-0.0412697
0.000415802
0.00924762
0.0112764
0.00355074
0.00221449
-0.00374735
0.00030578
0.00382501
-0.000615743
0.0192938
0.00933607
0.00187655
-7.90786e-05
0.000157526
0.0875062
0.01792
-0.00333668
0.0266878
0.00531921
3.92974e-05
0.00783339
-1.89788e-05
0.00276959
-0.0122731
0.000536595
0.00441393
-0.00197658
0.0237645
-0.00225105
-3.72815e-05
0.0151468
-0.0010784
-0.00847662
0.00453482
0.0167692
-0.000383976
0.0167304
0.00405984
-0.0176806
-0.000105529
0.0358993
-0.0520811
0.00596601
-0.000102492
-0.00288617
-0.00359888
0.00182012
0.0053475
0.00609094
-0.0316707
0.00504465
-0.0278033
0.00208494
-0.0403607
0.00175104
-0.00312786
-0.0154702
-0.000730915
0.0215409
-0.00221341
0.0580477
-0.010203
-1.38878e-05
0.000126818
-0.000161776
0.00673572
0.00469357
0.00414939
-0.0030005
-0.00436473
-0.0522248
-0.0141617
-0.0191251
-1.63082e-05
-0.000169007
7.76174e-05
0.00375529
-0.00343795
0.00862348
-0.00582013
0.00358574
0.00621463
1.67588e-06
0.0318138
0.0066211
0.0300923
0.000616757
-0.000880125
-0.00608317
0.00791476
-0.0614967
0.00235617
-0.00103921
0.00189637
-0.00445838
0.00779617
0.000107423
0.0110912
-0.000522607
-0.00179407
-6.18255e-05
1.85303e-06
-0.00723278
0.0202896
-0.0160001
-0.00909461
-0.0318332
-0.00218464
-0.00071557
0.0224112
0.0174552
-0.000670082
-2.44806e-05
0.00740552
0.00283871
-0.000815362
-0.00285634
-0.0163239
-0.0635609
-0.00123948
0.0082974
-0.00258071
-0.00541482
0.000229341
0.0304986
0.0131526
-0.00326356
-0.00367787
0.00242903
-0.00208368
-0.0600032
0.000240246
-0.0667792
0.00431904
0.0124944
-0.00104379
0.000537005
-0.064208
0.0772014
-0.000120889
-0.00402118
-0.00323324
2.08929e-06
0.000247728
-0.000116602
0.0075469
0.0215752
-0.00321253
0.00711719
-0.0512083
0.00570703
-0.00772699
-0.0333284
0.0012516
0.0312369
-0.000196649
-0.0702353
0.0058019
-4.32824e-06
-5.49434e-05
-0.0331162
-0.000383789
-0.0166343
0.00773436
-0.0247556
0.00674072
0.0129448
0.00402592
0.00784966
-0.00227928
0.0084508
-0.046565
0.0113494
0.00573704
-0.000117035
0.0154788
0.00450722
-0.000613532
0.00644441
0.00384804
0.00438427
-0.0742109
0.000217117
-0.0505406
-0.00225566
0.0290065
-1.4481e-06
-0.000776052
0.013797
-0.0464754
0.00157072
-0.000131351
-0.000162349
0.0332937
0.0050636
0.0163675
-0.000109268
-0.00252243
-0.0740775
0.00487974
0.00325805
-2.17904e-05
0.0066283
-0.00103059
-0.00327858
-0.000614652
-0.00612509
-0.000173001
-8.49619e-05
1.96805e-05
0.00826929
-0.00928911
0.00258074
-0.0256873
-0.000151214
-0.0301323
5.64001e-05
-0.00851653
-0.00704534
-0.00296476
0.0024795
-0.00836299
0.0107143
-0.0118204
0.0226869
-0.00220154
-0.00503322
0.0056087
-0.000119205
-0.000207026
0.00100966
0.0210555
0.00671427
0.0793839
-0.00142845
0.00245088
0.006579
0.0156251
0.019751
0.000454857
-0.000157363
-1.93754e-06
-0.00126493
-0.00295682
-0.00429327
0.0688349
0.0950468
-0.0082787
-0.0102318
0.0085031
0.0141144
-0.00634649
2.35287e-05
-0.0853518
0.00872826
5.97508e-05
0.00601322
-0.00154073
-0.000133544
-0.0107469
-0.0121802
-0.00056616
0.0204149
-0.000155384
-0.0676903
-0.00257007
0.00601173
-0.0182012
-0.000182918
-0.0205211
0.0015533
-0.0104731
-0.0012603
1.91253e-05
5.37476e-05
-0.0568674
-0.023032
0.00782092
-1.83038e-05
0.0173582
0.00476172
-0.0463324
-0.0392956
0.0124034
-0.000136085
0.00812771
0.00618823
-0.00199926
0.00716696
-0.00947321
0.00842478
-0.00378609
1.19771e-06
0.000887287
-0.000660043
-0.00316013
-0.0703766
0.000259092
-0.000990664
-0.00453793
-0.000122302
0.00215526
-0.0541067
-0.0652398
0.0049543
0.0279767
-0.0689821
-0.0034519
-0.0748961
0.00171188
0.000667731
0.00854619
0.00981946
0.00630414
-0.0179965
0.000657618
-0.0660778
-0.0587951
0.00172651
-0.00634764
0.00853924
-0.0411959
-0.0046121
-0.00111946
-0.0722882
-0.0650877
-0.0553432
0.00355622
-0.000851268
0.00688877
1.4775e-06
7.30927e-06
-0.00290627
2.75514e-05
0.0085262
-0.0106025
-0.00126794
-0.00235055
0.0044099
0.00720685
0.00958516
-0.0616112
-0.00333079
-0.000318383
-6.27984e-07
0.00495554
-0.0105559
0.0167816
-0.00748127
0.00657266
0.00467117
-4.64013e-05
0.00500892
-0.000232138
0.00783975
0.00617091
-0.00405556
-0.0356107
-0.0126719
0.0284147
-0.00232072
0.00604035
-0.00296169
-0.00512396
-0.0644728
-0.00192761
-0.00837438
-0.0306848
-0.0319158
-0.00293567
-0.0698526
-0.0296436
0.00271636
0.00401478
-0.00161357
0.000471801
0.00591905
0.0156279
6.24765e-05
-0.00805995
-0.0012218
-3.136e-05
0.000294884
-0.00978167
-2.35105e-05
0.00871024
-0.00115318
-0.0100246
-0.00324126
0.0288461
0.000482036
0.00460384
0.00279873
-1.0862e-05
-0.0147139
-1.34978e-05
-0.000373081
-0.00021853
0.00460582
-0.0650694
0.000937339
0.0215934
-0.0131924
-0.0359704
-0.00337136
-0.00291774
-0.00196614
-0.0475987
-0.0219677
-0.000181667
-7.82822e-05
-0.0708954
0.00910063
0.000108119
0.00690971
0.0401116
0.000932472
0.00540086
-3.60724e-05
0.0465289
0.00140611
0.00498708
0.00614729
-0.00020504
-0.000207863
-4.69823e-06
-0.0124946
-0.0332949
-0.0524869
-0.0134902
0.00900527
1.5347e-06
0.00609384
-3.76704e-06
-0.000597245
-0.000136998
-0.000301401
-0.00201437
-2.6528e-05
-0.00410247
-0.0701622
-9.53263e-05
-0.0525197
0.0104275
-0.000172745
-0.000658394
-0.0063908
0.000594278
-0.000364977
1.18936e-05
-0.0125717
0.00693531
1.69196e-05
-6.04007e-05
-0.000581076
0.00366397
-0.00310087
-0.0620366
0.000408706
7.73004e-05
-0.00147376
0.00486858
0.0147006
-0.00299106
0.000241821
-0.0572373
-0.000140206
0.00909171
0.0055575
0.00498339
0.000797099
0.00778374
0.00497594
0.0310498
0.00846711
9.75854e-06
0.000260038
0.000525489
0.0011607
0.0025772
-0.0267875
0.000430911
0.00540746
2.27147e-06
-0.013993
0.0063403
-0.000438151
-0.00794694
-8.01282e-06
-0.00470911
-0.0304925
-0.0013615
0.0442102
-1.12909e-05
-0.00012848
1.55819e-06
0.00556639
-0.0627458
-0.000569145
0.0319192
0.00126107
-0.00979342
-0.000172974
-6.28573e-08
-0.00375899
0.00760055
-2.61528e-05
2.39337e-07
0.00812351
0.028158
0.00383961
0.00653226
0.000387099
-0.0284519
0.00772078
-0.0096385
-9.60891e-06
-0.0255552
-0.013209
0.000637286
0.00316091
0.00292372
0.00856045
0.0052581
0.00361838
6.07287e-05
-0.000188386
0.0412065
0.00695304
-0.000112121
0.0061178
-0.0132692
0.00422003
0.00480884
-0.00774793
-0.00109267
-6.45364e-06
-0.000308711
0.00716245
9.60662e-06
-0.00666912
0.0109271
-0.00570259
-0.000446588
0.000185761
0.0102751
-0.00813414
-0.0166828
-2.25477e-05
-0.0317704
-0.000952159
-0.00541182
-0.00149619
3.36196e-05
7.01337e-06
-7.80702e-05
-0.013476
1.78252e-05
-4.5177e-05
0.0054427
-0.015378
-0.0547554
-0.000137506
-3.78699e-05
0.00404003
1.73528e-05
-0.0163172
0.00575197
0.00173322
-0.00349621
-0.000833479
-0.00442935
0.015493
-0.00170625
0.00405623
-7.5658e-05
-0.00482604
0.0149592
-0.0290552
0.00725189
-0.0267456
1.62159e-05
-0.00447723
-0.000493124
-0.0367027
2.73881e-06
0.00527879
5.31619e-05
0.00595941
-0.000223008
-0.00010505
-0.00255985
-0.0551468
0.0147086
-0.0508979
0.00414142
0.00411675
-0.002817
0.000100693
-0.0150858
-1.10774e-06
-2.1305e-06
-0.00240199
-0.00178309
1.59036e-05
0.00537425
0.000106188
0.00613134