/*--------------------------------*- C++ -*----------------------------------*\
  =========                 |
  \\      /  F ield         | OpenFOAM: The Open Source CFD Toolbox
   \\    /   O peration     | Website:  https://openfoam.org
    \\  /    A nd           | Version:  9
     \\/     M anipulation  |
\*---------------------------------------------------------------------------*/
FoamFile
{
    format      ascii;
    class       volScalarField;
    location    "65";
    object      p;
}
// * * * * * * * * * * * * * * * * * * * * * * * * * * * * * * * * * * * * * //

dimensions      [0 2 -2 0 0 0 0];

internalField   nonuniform List<scalar> 
112055
(
0.0191635
0.00396884
-0.0074907
-0.0105892
-0.00507761
0.00755052
0.0185396
-0.0103951
-0.00431238
0.018587
0.00400714
0.0176581
-0.00404835
0.0176487
0.0287095
-0.000558186
-0.0605182
0.0226623
0.00400045
-0.00408322
-0.000591886
-0.000207409
0.00402102
-0.00141855
-0.000192499
-0.0054832
0.0412823
0.00564587
0.00750692
-0.000585572
0.00869462
-0.0170134
-0.00120498
-0.0523317
-0.00434401
-0.000788352
-0.00416583
0.0641216
-0.0119162
-6.08773e-05
-0.00145947
-0.0110229
-0.000754083
-0.00738983
0.023213
-0.00260312
-0.0521367
0.000496979
-0.00113536
-0.0107995
-0.0101535
-0.0167741
-0.000429575
-0.0117132
-0.00499422
0.0186733
0.000549463
0.000896963
-0.0109848
-0.00264041
0.015119
0.000455474
-2.08627e-05
-2.36031e-05
0.0115876
-0.00479501
0.0666005
0.000210545
0.00226651
-0.00296807
0.000776907
-0.0597735
-0.00129348
0.0378504
-0.0399489
-0.0376926
0.00379963
0.0190109
-0.0145462
-0.0114246
0.000202289
-0.0411638
-0.0100221
-0.00559146
-0.000538407
0.00124282
-0.00543061
-0.00495737
-0.0257521
-0.00487726
-0.000176062
-0.00080959
-0.0057899
-0.00506014
-0.0394408
0.00375874
-0.017819
0.0283617
0.00869031
0.000507473
-0.00401558
-0.000616522
-0.00112344
0.00494766
-0.0416991
-0.0592957
0.0115725
0.000117454
-0.000374835
0.00122191
-0.0596042
-0.0365585
-0.00491013
0.0065973
0.00227457
0.0216713
0.0117559
-0.000815683
-0.0248954
-0.00444432
0.00594894
0.00565867
0.0185346
0.000207452
-0.00144559
0.00485717
-0.0571694
-0.000413123
-0.00579269
-0.0410871
0.000212184
0.0409975
0.000170475
0.0531894
-0.0122088
-6.01802e-05
-0.00126484
0.0013446
-0.0072119
-0.00615944
0.00125286
-0.00196977
-0.017823
0.0117772
0.000119703
-0.00365975
0.0206582
0.000117666
-0.0008279
0.000192516
-0.0599881
-0.00022989
0.0161714
-0.000430684
-0.0071574
0.0065476
0.00951899
0.00667482
-0.010304
-0.00400821
-0.00488699
6.00736e-05
-0.00436971
-0.004213
-0.0019035
-0.00128472
0.00964249
-0.0173738
-0.00235031
0.011641
0.00823561
0.00652318
-0.004362
0.0115973
-0.018554
-0.00447457
-0.00120614
-0.00540588
-0.00561913
-0.000492277
-0.0182862
-0.00127987
-0.000780851
0.00872447
-0.013595
0.0163011
7.89785e-05
-0.0019293
-0.0181673
-0.00193983
0.0014084
-0.00118236
-0.00481643
0.0059746
-0.00648874
-1.88207e-06
-0.0154449
-0.036529
-0.00215574
0.00947993
0.0631077
0.0130809
0.0152214
0.000134136
0.000236025
0.02141
0.0662591
0.010401
-0.060041
-0.0011562
9.1376e-05
-0.00125638
0.0202619
-0.00115715
-0.0175717
0.0105341
0.00834388
-0.00670645
-0.00340322
-0.0109144
-1.55812e-05
-0.0221657
-0.00478172
-0.00424697
-0.0338756
-0.00238205
-0.000612426
0.00948813
0.00341091
-0.00127874
-0.000764538
-0.00344891
-0.0134402
0.00467162
-0.0240719
0.000276845
-2.38616e-06
-0.000783317
-0.0664467
0.0988229
0.000123357
-0.011294
-0.00380446
0.00013403
-0.00247864
-0.02401
-0.0148014
-0.0119238
0.000199685
-0.0107422
-0.00217696
-0.00128555
-0.0465431
-0.00452036
-0.0151893
0.000220878
0.00136686
-0.0058236
-0.0397218
-0.0011234
-0.0341529
0.0219191
-0.00135191
0.0166793
0.0535217
-0.00184096
0.000218215
-0.00534683
0.0136686
0.000214059
-0.00219233
-0.0143116
-0.00208646
-0.0158058
-0.00356687
-0.00157947
-0.0388044
-0.0624927
-0.0615769
-0.0460495
-0.000371432
0.00433728
0.0128673
0.00787436
0.00545091
-0.00580702
0.00515714
-0.00110424
-0.000431497
0.0139607
-0.00535053
-5.85541e-05
0.00518314
-0.0028861
0.0047093
0.00542826
0.0106024
-0.00452482
-0.00196733
-0.000171692
0.00458947
0.008733
0.00932911
0.00495598
-0.009935
0.000178629
-0.000772818
-0.00399032
-0.00354184
1.51233e-05
-0.00413991
0.00241734
-0.00149242
0.000178462
-0.015211
-0.0227138
-0.0133055
0.000193913
-0.00281954
-0.00194238
-0.00248928
0.0542544
0.0302001
-0.00448534
-0.0144731
-0.00761444
-0.00246957
-0.000678335
0.00438696
-0.00123665
0.00338844
0.000174032
0.0115854
-0.00904546
-0.0112361
-0.000402048
-0.00124755
-0.00186482
0.00252642
-0.0328169
0.063084
-0.0566937
-0.000275348
2.89296e-05
0.000158605
-0.0121066
0.000109982
-0.0123455
0.0115578
0.000183395
0.026391
0.014951
0.0169052
-0.048062
-0.00582172
-0.0058213
0.0375774
-0.000434077
-0.00115112
0.0174078
-0.0413657
-0.0011409
-0.0111646
0.107783
0.000200901
-0.0663563
-0.0334434
-0.00766149
0.00448789
-0.00612521
0.0230287
0.0234703
0.0105433
0.0164742
0.139827
-2.64992e-05
-2.90905e-05
-0.00599545
-0.00590789
-0.00441804
-0.00152771
0.00751548
0.0174225
0.000352443
-0.00411883
-4.0741e-05
-4.10177e-05
-0.00642908
0.0126676
0.0227619
0.00414547
-0.000195581
0.000235995
-0.0252512
0.0374803
-0.00552882
0.00128536
-0.00973147
-0.00565086
0.000306178
0.0212204
0.0048316
-0.0168583
0.0167906
-0.000332461
-0.0307095
-0.00846446
-0.00303427
-0.00641851
0.00295706
-0.00904698
-2.22882e-06
-0.00379823
-2.08702e-06
-0.000424549
-0.0115739
0.00640202
-0.0149593
-0.00349017
0.00645053
0.0306651
-0.00491077
0.000719182
0.00665289
0.00514717
-0.0126249
0.0102571
0.000148569
-0.0133357
-0.00868161
-0.00380513
0.0103943
-0.0056451
-0.0125563
-0.0108097
0.0260624
-0.00015189
-0.0125179
0.0981618
0.0256894
-0.0124146
-0.00190777
0.00643603
-0.00985681
0.00365688
-2.32818e-05
0.0371103
0.0253136
0.000326053
-0.00945381
-0.00594016
0.00588273
-0.00490975
0.00782008
-0.00753501
-0.0619447
8.79852e-05
0.000131068
0.00929412
2.29792e-05
-0.00628316
-0.00346591
-6.51092e-05
9.51328e-06
-0.0109345
8.26649e-05
-0.000166497
0.0167961
0.0051663
-0.00221992
0.00754868
-0.00124083
-0.00558901
-0.0159768
0.00775354
-0.0100237
-0.00311923
-1.58838e-05
-0.00404121
0.000227863
-0.0485062
-0.0702128
0.000383925
-0.0149194
-0.0018457
-0.0390227
0.0133051
0.000160619
-0.00373915
-0.00307363
-3.14033e-05
-0.0378485
-0.00997256
8.18302e-05
0.0100202
-0.0050235
0.0072555
-0.000951481
-0.00283828
0.000232447
-0.000213098
0.000237377
-0.00499654
0.0105216
7.09781e-05
0.00519785
-0.00254849
-0.0466969
-5.60785e-05
-0.000166853
-0.010003
0.0233865
-0.0144233
0.00290243
0.066927
4.14249e-05
3.15632e-05
-2.98879e-05
-0.00962552
-0.0137433
0.00794224
-0.000867373
-0.00108196
-0.00471165
0.00344659
-0.00184295
3.62793e-05
0.0669677
-0.0040673
-2.35157e-05
0.00593811
-0.00602172
-0.0591936
0.0531093
-0.000230688
0.0140657
-0.0112741
-0.0771023
-0.00552728
-0.00019841
-0.000150151
-0.00020017
-0.0748582
0.0264605
-0.0164515
-0.0111708
-0.0165936
0.0037072
0.00638066
-0.00174656
0.0265301
0.00553707
0.00940835
-0.0242362
0.00726328
2.57408e-05
-0.0198442
-0.00251094
8.39078e-05
-0.0106409
-0.0448402
-0.00133437
0.0003932
-0.00016268
0.105666
-0.0047125
-0.00590937
-0.0626249
-0.00185127
-0.0613239
-0.00826375
0.00795439
-0.000672315
-0.0440557
9.62445e-05
0.00424309
0.00593915
-0.0161
0.00972794
-0.028667
-0.00352549
-1.43933e-05
0.012966
0.00483526
0.00883404
3.99659e-05
0.0081261
0.00346469
0.00620651
0.000138549
0.00587784
1.89028e-05
-2.44537e-05
8.03274e-06
-0.00427446
0.00661574
0.00327028
-0.0029917
0.00555069
-0.00647771
-0.00015089
-0.0160533
-6.00001e-06
0.00533864
-0.00444914
0.00342032
-0.00491728
0.00830885
0.0119652
-6.67142e-05
-0.00493401
0.0114232
-0.00113193
-0.00736659
0.051713
0.00556566
7.49395e-05
-0.000856718
-0.0158982
0.0036823
-0.028562
0.0091831
0.00497798
-0.00109054
0.00524352
-0.0459474
-0.00371697
-0.0117093
-0.00607354
-0.00751914
-0.000406178
-0.0595221
-0.00157363
-0.0576935
-0.000590187
-0.000235802
-0.000640792
-0.000578475
0.000176125
0.00485621
-0.000659851
0.000168531
-0.00473023
-0.00587174
0.00280037
0.0244427
0.0755777
0.00817578
-0.0449523
-0.00740456
-0.069921
-0.00660443
2.90495e-05
0.0198528
2.73556e-05
0.00041686
0.0103191
0.0150023
-0.00598786
-0.0157664
0.0100143
0.00827385
0.000156492
0.0186469
-1.41446e-05
-0.00418433
-0.0290881
-0.0435572
-6.97914e-05
0.005596
-0.01389
-0.0237976
-0.0144176
0.0179582
-0.00441956
0.000111362
0.00536231
0.0196051
0.0792002
-0.000617153
-5.64089e-05
-0.00669893
-0.00229708
-0.038435
-0.00470072
0.0131087
-0.00755348
-0.000171518
-0.0487179
-0.0144773
0.000327421
0.0074289
0.00412843
0.00773429
0.0243179
0.0188
0.0229564
0.0132965
0.000174715
-0.00150811
-0.00496849
-0.000509915
0.00812283
-0.000540912
-0.00419073
0.0046216
-0.00473981
-0.00173543
0.130081
0.000318604
0.00901877
-0.00283853
-0.00230086
-0.00745707
-0.000188962
-0.000516116
0.0131856
-0.000302615
0.00443198
-0.00199617
-0.00395261
-0.0046511
-0.00135846
-0.0158899
-5.13849e-05
0.0100566
0.0128439
0.0165256
-0.000112696
-0.00327054
-0.00382115
0.0152338
-0.0597122
-0.00485533
0.00641781
-0.000677754
0.0502082
-0.00807193
-0.00322933
0.000854351
-0.0130158
-0.000996789
-0.0166202
0.00754791
-0.0653991
0.000632961
-0.0138995
0.0112915
0.00362306
0.00528243
-7.54641e-05
-0.00159824
-5.21927e-05
-0.014159
-0.00328675
0.0110689
0.00636146
-6.2331e-05
0.0168844
-0.000116978
-5.32463e-05
-0.00159482
-0.0154618
-0.0298574
0.0396772
0.0658697
0.00627641
-0.00426333
-0.000104539
6.38364e-05
-0.00158097
-0.00797371
-0.00196728
-0.000373189
-0.000385582
0.00533656
-0.0609524
-0.0034282
-3.79654e-05
0.0147597
-0.0122709
0.0178975
3.86677e-05
-0.00302291
-0.0714992
0.000123151
-6.82288e-05
-0.000607253
-0.00429682
-0.0120027
-0.00343831
-0.00557254
-0.00127923
-0.0382747
-0.00585031
-0.00102954
-0.0398471
-0.00471149
0.00469086
-6.95581e-05
-0.00471293
0.0150953
-0.00422741
-0.0141949
-0.0991843
-0.000100631
-0.0177688
-0.0140633
-0.000221822
-0.000311223
-0.0255767
-0.00378605
-0.0119176
0.0133314
-0.00553933
-0.0176257
-0.00150744
0.0083365
-0.000324431
-0.00580986
-0.00312647
0.00651587
0.000137518
0.00846701
-0.00288539
-0.0105511
0.0159982
-0.00868032
-0.01566
-8.53935e-07
-0.000321434
0.0158247
0.0183473
-0.00296475
0.129057
0.00495377
0.000367062
0.00541883
0.0110674
-0.00862293
-0.00298236
0.138656
0.0144458
-0.00465394
-0.0013125
-0.000478735
-0.0419333
-0.0038015
0.00843031
-0.000289788
-0.0055799
-0.000203943
0.0395447
-0.000294347
-0.0175197
0.000245297
0.0186185
-0.000137651
0.00784262
0.000109971
0.0793127
-0.000920944
-0.00355216
-0.0378249
-0.0080465
0.000388978
0.0054086
0.00858057
-0.0379302
-0.00434113
0.000865469
0.00716795
0.0148422
-0.0673205
-0.0285045
0.00527971
0.00778932
0.000217935
-0.0149368
0.00457161
-0.00196182
-0.000616208
4.22466e-06
-0.00286236
-1.09573e-05
-0.00362291
-0.000127675
0.0134485
-5.12222e-05
0.0034226
-0.00294973
0.00522698
-0.00469971
-0.0127881
-0.0402934
0.000142949
-0.0076359
0.0862527
-0.000800173
-0.0614097
-0.00954997
0.0035723
-0.0120074
-7.50372e-05
-0.015227
-0.0395254
0.000139126
0.00420079
-0.0107934
0.00397689
0.01822
-0.00663284
0.00199681
0.00336083
-0.0610032
0.0136113
-0.00199872
-0.00570459
0.000196757
-0.00168167
-0.00110986
2.58302e-07
-0.00165965
-0.00719713
-0.00137102
0.00464719
4.43492e-05
0.00869524
0.00017677
-0.00157073
5.36714e-05
0.000529103
-0.00483066
-3.64344e-05
-0.00820508
0.000152618
-0.00666877
-0.00167342
0.00864488
-0.000236779
0.0141212
0.010178
-0.000193681
0.00220898
-0.0330825
-0.000481548
-0.000938023
0.000383883
-0.0139929
0.0194477
-0.0517793
0.00628854
-0.000374688
0.00156695
-0.006246
0.0218372
-0.00319468
-0.00486663
0.000170258
-0.0306732
-0.000467189
-0.00362125
-0.00356478
-0.00338088
-0.00705887
-0.0109187
-0.0369568
-0.000481718
-0.0767683
-0.000268732
0.00736144
-0.00834782
0.00514444
-0.0144825
-0.00942593
-0.00621993
-0.0374135
0.0354454
-0.00348126
0.0182168
0.00305173
-4.3929e-05
-0.00122451
-0.0270442
0.00889706
0.00426181
-0.000481905
-0.0149334
0.00232484
-0.000845842
0.000430333
0.0175237
-0.00120728
-0.00996222
0.00920451
0.00574205
-0.00275504
0.0114037
-0.00399652
0.00881988
-0.00483085
-0.00659466
-0.0132241
-0.00620871
-0.00728813
0.0413999
-0.00937692
-5.74327e-05
0.00229979
-0.00390751
-0.0570158
0.000557945
-9.08119e-06
-0.00217972
-0.0257176
0.00513479
0.00706663
0.00860111
-0.0024955
0.00578425
-0.00429483
-0.0429131
0.000998919
-0.00146856
-0.00548413
-0.00626842
-0.000981129
0.00420535
-0.000187591
9.91963e-05
0.0227553
-0.00609965
-0.00838002
-0.00522986
-0.000196516
0.0653557
0.00699619
0.000670219
-0.00451406
0.0025018
0.00582683
0.015821
-0.000207215
-0.0425478
0.00747467
-0.00485047
0.000109589
0.00536585
0.000376511
-0.045691
0.000119458
-0.0226943
-3.52364e-05
-0.000502982
0.00562013
-0.0187715
-2.7894e-05
0.000144484
0.000315916
-0.00249592
0.00454166
0.0230151
-0.00379956
0.0773604
-0.0299043
-0.00650141
-0.012372
-0.0419132
-0.000265018
0.0159234
0.00877744
0.0106052
-0.0174082
5.59118e-07
-0.0713245
-0.00315464
-0.00738961
-0.0568967
-0.00305749
0.00922456
-0.00376428
-5.72012e-06
1.31649e-06
0.00421401
-0.010276
-0.0058448
-0.00440316
-1.05353e-05
-0.00526012
-0.00216571
-0.0161549
-0.00916361
-0.00240281
0.000149613
7.94313e-05
-0.000259073
0.000132541
0.0504152
-5.9837e-06
0.00894974
-0.0347727
-0.00370034
0.0051385
-2.52671e-05
-0.00174699
0.00148824
-0.0127364
-0.00363227
-0.00025992
-0.000258448
-0.0188478
-0.0112887
-3.60108e-05
-0.00055313
1.24851e-05
-0.000207016
0.0206176
0.00394202
-0.000452888
-0.00173486
0.00509605
-0.00424129
0.0726455
-0.00549687
-0.00373991
0.111632
0.00425081
-0.0554468
0.010467
-0.00138945
0.00615185
-0.00554803
-0.0063083
0.013888
0.0284342
-0.0199615
-0.000375277
0.0799621
0.000430223
-0.0330199
-0.0431128
-0.00856716
-0.00464601
-0.0163597
-0.00141902
0.000149793
-0.00312736
-0.000826231
0.000164103
0.0159163
5.79839e-05
0.00922402
0.000220418
-0.00626201
-0.0212441
-0.00690357
0.000662887
-0.000112113
0.0151776
-0.0101889
-0.00566016
0.0160298
0.00689198
-0.00157401
-0.000266113
-0.000107992
-0.0197852
-0.0114822
0.00804121
0.00616749
0.0246974
-0.000139905
0.00319713
-0.00532799
-0.00442383
-0.0190359
2.30634e-05
0.0304591
0.00439858
-0.00512842
0.0355949
-0.000751633
-0.0740823
0.018514
-5.03047e-05
0.00481504
0.000524959
0.110323
-0.00213687
-0.0607977
-0.000174333
-0.000113938
-0.000675358
-0.00038558
-0.00672584
0.000187588
-0.0131714
-0.039809
-0.0177855
-0.0102059
-0.000136741
-0.0349936
-0.0411721
-0.0610127
-0.000845734
0.0905001
-0.0633863
-0.00481318
0.00511845
-0.00398799
0.00010095
0.000151459
-0.00361481
-0.00085837
-0.00189857
-0.000404771
0.00925015
-0.0394724
-0.00603335
-0.00278594
-0.0457179
-0.0387661
0.00796067
-0.0006103
-0.00290653
-0.00541069
0.00571587
-0.00512055
0.00521663
0.0120728
-0.0142435
0.0572404
-0.000173692
0.0307272
-0.0234555
-0.00239849
0.00655169
-0.000578291
-9.97929e-05
0.0136769
-0.0155137
-0.00407453
0.0153745
-0.00372702
-7.86652e-05
-0.00766159
-0.00699691
-0.0611677
-0.0122693
0.00940819
-0.00139793
-0.012881
0.000958863
0.0741984
-0.0444238
0.00869528
-0.00249231
0.00119879
0.042648
-0.00277185
-0.00687382
-7.91843e-05
0.00365662
-0.00508123
-0.00447633
0.00658951
-0.0184978
-0.0018673
-0.00484457
3.24457e-05
-0.000169907
0.00760103
-0.00429331
-0.000949121
0.00671091
0.00313078
-0.0156254
-0.00890839
0.00552746
0.0655004
0.0161824
-0.00138369
-0.00600554
0.00297214
0.00940344
-0.00508445
0.000723268
0.0125373
-0.00283187
0.0566335
-0.0569579
8.82258e-07
-0.00725753
0.00731206
-0.0109679
-0.0384105
-0.00967503
-0.00303551
-0.00947901
-0.056231
0.00867724
-0.00476637
0.0911233
-0.00106881
-0.00407544
0.00748065
0.00481551
0.00566776
-0.00115744
-0.00328474
0.0100804
-0.00249871
-0.0343875
-0.0531953
-0.0202235
-0.00387382
-0.0104089
-0.005171
-0.00280101
-0.00433024
-0.00616722
-0.00476969
-0.00433694
0.00942227
0.0159476
-0.0113757
-0.0139742
-0.00431275
0.000396836
0.000316485
-0.000495232
0.000135319
0.000235152
-0.0106614
-0.041455
0.00693786
-0.050775
-0.000749244
0.000245556
0.0111482
-9.17522e-05
-0.0237688
-0.00150473
0.00881262
-0.000685523
-0.00155569
-0.00726771
2.31182e-05
0.0571263
-0.00035194
-0.0122323
-0.000199663
0.000421612
-0.00718352
-0.00896154
0.00674239
0.00310579
0.047452
-0.0010812
0.00977859
-0.00506895
-0.0141123
-0.00709665
-0.0056605
-6.04466e-05
0.000262593
-0.0176963
2.78248e-05
-0.00371315
0.00929771
-0.0199822
-0.0614071
0.000144604
0.00018148
0.00211685
0.00732622
0.00228537
0.0244668
-0.00403498
-1.33988e-05
-0.00819326
0.00504861
0.00303822
0.00737671
-0.0228847
-0.0217663
-0.0048088
-0.0602454
-0.00397937
0.0109944
0.000273769
-6.41338e-06
-3.77135e-05
0.00721941
0.024375
0.000144262
-0.0434619
0.0601115
0.000241647
-0.0202964
0.000276818
0.0088462
-0.0410721
-0.0289019
-0.00928867
-0.0100537
-0.0143609
0.00681986
0.00465686
-0.0596266
-0.00719778
0.0257799
0.0118321
-6.01023e-05
0.0134059
-0.0159982
-0.00435988
0.00473893
-0.0194531
0.00171123
-0.0047223
-0.000708761
-0.00272099
-0.0350278
-0.00158094
-0.0594792
-0.0569709
-0.000486395
0.000196607
-0.0256337
0.0117574
-0.00261954
-0.00434713
-0.0337743
0.0139906
0.000185709
0.00292424
0.0843423
0.00437396
-0.0201853
-0.0159206
0.00904237
-0.00229041
-0.062867
-0.00169225
0.0019943
-0.0776842
0.109616
0.00192534
0.00733297
-0.02347
-0.00440731
0.00950292
-0.000854547
-0.00539166
-0.0047185
0.000158295
0.0168084
0.0985583
0.00738367
-0.0036722
-0.00252879
-0.00303528
-0.00408091
-0.00352033
0.0465826
4.46018e-06
0.0498235
-0.000582963
-0.00612287
-0.0393747
-0.00606191
-0.0106213
-0.000241173
-0.00413675
-0.000374642
0.00914908
-0.000362054
-7.64685e-05
0.00179868
-0.00111553
0.0456787
0.00364613
0.0161787
-0.0464284
-7.44712e-05
0.00702585
-0.0674239
0.0017617
0.00834474
-2.55698e-05
0.0225352
0.0351171
-0.0475387
-0.00971903
-0.00468093
-0.00466838
-0.0125703
-0.00179414
-0.00823856
0.0103847
-0.00809424
-0.0107702
0.0368542
-0.00727507
-0.00468827
0.0150934
-0.0994166
0.00392432
-0.00262584
0.00783439
-0.000564152
0.00692817
-0.001806
-0.000499389
0.00707166
-0.00232317
-0.00622924
0.0111585
0.000137221
-0.00379759
-0.00416
0.000168521
0.00457018
0.00604839
5.28195e-05
-0.013684
-0.00631146
-0.018669
-0.00168674
-0.000649087
2.52386e-05
-0.000569368
0.124614
-2.41053e-05
0.00534899
-0.00940296
-0.0574593
0.00621755
-0.000363963
0.000203819
0.0087153
3.51417e-05
0.0173628
-0.0593084
0.000332013
0.00978562
0.0489649
-1.19149e-05
0.0106825
-0.0018218
0.00544048
-0.00138858
-0.0139233
-0.00565732
-6.4869e-05
-0.0179303
0.00761606
0.00604417
0.0128319
-0.000355716
-0.0035558
-0.00298185
8.05715e-05
0.00850466
-0.00163933
-0.000272057
-0.012317
-0.000467379
0.000344889
-0.000418596
-0.0480317
-0.000329143
0.00551837
0.00773311
-0.0121268
0.00865351
0.0044403
0.00529972
-0.00855891
0.000131459
-8.72814e-06
0.00673622
-0.00334567
-0.00765779
-0.00133019
-0.0619768
0.00229434
0.00871825
0.0180802
-0.0129769
-0.00766328
-0.00850279
-0.0026645
0.0025295
0.00734649
0.00842662
-0.000286598
0.0325889
0.00676107
-4.99305e-05
-0.00201376
0.0233717
-0.0033037
0.00793708
-0.000364099
-0.000143015
-0.0201724
-0.0443088
-0.00575259
0.00549966
0.0280965
0.0655727
0.0106557
0.00362024
-0.0247721
-0.00470568
-3.77307e-05
-0.00545187
0.000316133
-0.000109742
-0.000130238
0.00828246
-0.000269369
0.00124859
-8.56967e-05
-0.0024698
2.82367e-06
-0.0606601
-0.0583967
-0.000375269
-8.59595e-05
-0.02709
-0.00172689
0.017704
-0.00624597
0.0137509
0.00585222
-0.0024817
-0.0117112
0.000319892
-0.000419606
-0.0016873
-0.00464151
7.50038e-05
-0.00232673
0.0074709
0.0133452
-0.0597212
-0.00855743
0.000315192
-0.00357726
-0.000402849
-0.000265401
-4.07588e-05
-0.00192318
-0.0422536
-0.0256493
7.45067e-05
7.32678e-05
-0.0290301
0.000116423
0.00426007
-0.00706148
-0.00414519
-0.00128528
0.0106963
0.00709483
-0.0106757
0.00666676
-0.00250214
-0.00332831
-0.000972426
-0.000686255
0.0209316
-0.0594881
-0.0625831
0.0361697
0.00225016
0.00561102
-0.00104946
0.022806
-0.0144095
0.00835628
-0.0481157
0.00642983
-0.0735131
-0.00431334
-0.024732
0.000309062
-0.00159635
-0.0111435
0.0470224
-0.0558942
8.124e-07
-0.00636915
-0.00387553
-0.0225334
-0.00349756
0.00808313
-0.00157718
0.00470971
0.00796932
-0.00280046
-0.0036129
-0.0361338
-0.0194976
0.00637774
-0.00420411
-0.000921235
-0.0667074
0.00475135
-0.00230158
-9.61804e-06
2.65549e-05
-0.00587378
0.00816185
3.24199e-05
0.0175528
0.00763968
-3.6651e-05
-0.000397194
-0.0149666
-0.0632268
0.00458591
0.00913109
-4.49332e-05
0.000218833
0.00611149
-0.00204455
-0.00867286
0.0422355
-0.00153128
2.30183e-05
0.0100429
0.000314566
-0.0278106
-0.0609667
0.00733923
-0.0440656
-0.000619973
-0.0229335
-0.00707302
-0.00471389
-0.00187584
0.010269
-1.73352e-05
-0.0113524
-0.00950784
-0.0045563
-0.0620891
0.00868598
0.00524412
-0.0244287
0.0041391
-0.00147837
-0.0126056
0.00581261
-0.00487882
-0.000452513
0.0115588
0.00317686
-0.000635959
-0.00259609
0.00925161
-0.00490978
-0.0100786
-0.00597432
-0.00339746
-0.0161377
0.00475281
2.87812e-05
0.000336259
-0.0040137
0.0054531
-4.19369e-05
0.010887
-0.00200145
0.0108322
-0.0041033
0.000304066
0.00520678
0.0102208
-0.00427272
-0.0120681
-0.00332957
-0.00490654
0.0104212
-0.03949
-7.32599e-05
-0.0450134
-0.0040362
-0.00769005
-0.00460853
-0.0121309
-0.00633868
0.00163129
0.000430571
0.00527261
-0.0205556
-0.000277293
-0.000258505
-0.0229423
0.000315438
-0.00531035
-0.0076208
0.00557435
-0.00972264
-0.0203247
0.00921436
-0.00475392
0.00863505
-0.00521139
0.0266491
-0.00576372
0.000972193
0.000131456
-0.00119462
0.00045602
-0.00324813
8.01557e-05
-0.00112896
0.00654096
0.00522846
0.00756989
0.0112338
-0.00403647
0.0150499
0.00388918
-0.0586421
0.000295382
8.36727e-06
-0.0515209
0.00581968
-0.0469862
0.00367875
-0.0105636
7.39217e-05
0.0068891
-0.0139148
-0.00330749
-0.0125404
-0.00193573
-0.000710262
0.000176428
0.00369186
-0.00565458
3.18742e-05
-0.00365868
0.00583332
-0.00487054
0.00854678
-1.18864e-05
0.00777681
-0.0554167
0.0565328
0.00814951
-0.0259792
-0.00216804
0.00400466
0.000783008
-0.00115451
-0.000207327
-0.00119182
-0.0140922
0.0289164
-0.00187914
4.28544e-05
-0.0080556
-0.00292653
0.00111244
-7.48776e-05
-0.00143048
-4.66219e-05
0.00800669
-6.17679e-05
0.000172481
-0.00249676
-0.00492686
0.0111573
0.0109824
3.52764e-05
0.0391898
-0.00600774
-0.000330446
0.00619588
2.7408e-05
1.01055e-05
0.00894082
-0.000442294
3.92156e-05
-0.00932509
-0.00696139
0.000576685
0.00352038
0.00855597
-0.00467913
0.028005
0.00646046
-0.000500413
0.000615045
-0.0600917
-0.00927146
0.00328919
-0.000389937
9.14773e-05
-0.0189555
-0.00157503
-0.00498667
0.0191656
-0.000476974
-0.0154726
-0.000522364
0.00894499
-0.0107418
-0.0159417
0.00165466
-0.00371166
0.00867918
-0.00586301
0.00187374
0.000270004
0.00759597
0.0017575
-0.0004116
-2.2993e-05
-0.0313281
-0.0490351
-0.0495602
-0.000150219
0.00655469
0.0393778
-0.0140023
-0.000585994
0.0102707
3.92259e-05
0.000318118
-0.022033
-0.0112748
-0.0024405
-0.0365472
-0.00150708
0.000360439
-0.00017398
0.0108271
-0.0504903
-0.00505495
-0.00507191
0.000253134
0.000671261
-0.0016459
-0.00394478
-0.000495186
-0.0200449
-1.095e-05
-0.0397105
0.000555071
0.0094098
0.0116078
0.00347671
0.00296578
-0.00483452
-0.000824607
0.00370083
-0.00233942
0.0197723
0.00949367
-0.00296049
-0.000137108
-4.40488e-05
0.0878859
0.0185495
-0.00370982
0.0273131
0.00529663
-4.68999e-05
0.00793584
-1.41225e-05
0.00308425
-0.0136548
-0.00087152
0.00433271
-0.0028547
0.0244282
-0.00301001
-5.50567e-05
0.0164937
-0.00239105
-0.00985417
0.00444919
0.0172206
-0.000686568
0.0171745
0.000510483
-0.019942
-0.0011686
0.0365945
-0.0493573
0.00598383
-0.000548243
-0.00510591
-0.00401582
0.00181293
0.00526416
0.00610323
-0.0345728
0.00494072
-0.0252713
-0.00287404
-0.0374939
0.0017715
-0.00481342
-0.01918
-0.00336825
0.0229973
-0.00395377
0.0586559
-0.0104596
-3.42713e-05
0.000109634
-0.000281839
0.00674854
0.00461874
0.00404404
-0.00400776
-0.00716914
-0.0493947
-0.017418
-0.0173994
2.49403e-05
-0.000498457
-0.000431272
0.00362591
-0.00528643
0.00875435
-0.00816236
0.00423793
0.00626758
2.46662e-05
0.0326016
0.00724385
0.0307201
-0.00115577
-0.00157683
-0.0152801
0.00801117
-0.0595176
-0.000459266
-0.000940429
-0.000138042
-0.00654603
0.00786803
0.000106806
0.0113362
-0.00103856
-0.00343974
-0.000108746
9.18842e-05
-0.0163414
0.0207929
-0.0157527
-0.00904541
-0.0309959
-0.0039633
-0.00224252
0.022941
0.0181137
-0.00333443
-4.30102e-05
0.00750221
0.00265256
-0.00223789
-0.00379899
-0.0154941
-0.060837
-0.0025131
0.00842181
-0.00366828
-0.00738485
0.000321275
0.0312244
0.0135149
-0.00469038
-0.00523473
0.00236106
-0.00455062
-0.0577178
-0.000140184
-0.063468
0.00421817
0.0128577
-0.00217074
0.00083357
-0.0608717
0.0776326
-0.000195053
-0.00378668
-0.0048173
-0.000153807
-0.000117714
-0.000184527
0.00771144
0.0221463
-0.00636599
0.00714974
-0.0483955
0.00569987
-0.0112121
-0.0323589
0.000641609
0.0319143
-0.000368658
-0.0660539
0.00582675
4.34598e-05
-0.000103862
-0.0326398
-0.000716539
-0.017974
0.00908669
-0.0228687
0.00686616
0.0134416
0.000867353
0.00810923
-0.00319285
0.00858467
-0.0447621
0.0115912
0.00577553
-0.000203118
0.016245
0.00439174
-0.00126039
0.0065167
0.00367267
0.00429396
-0.0700329
0.000394993
-0.0488216
-0.00420875
0.0296232
-1.33199e-05
-0.00186537
0.0141298
-0.0438885
0.000973671
-0.00028511
-0.00045945
0.034938
0.00522385
0.0168326
-0.000172662
-0.00329865
-0.0701432
0.0050383
0.0030779
-4.47475e-05
0.00663006
-0.00214054
-0.00496004
-0.00125564
-0.00775119
-0.000790247
-0.000137853
0.000161335
0.00839275
-0.00977602
0.00276935
-0.0278729
-0.000595269
-0.0280635
-8.60478e-05
-0.00968136
-0.00869147
-0.00309299
0.00221505
-0.0095335
0.0111289
-0.0123386
0.0234164
-0.0042873
-0.00786614
0.00559375
-0.000374538
-0.00605102
0.00096393
0.0216026
0.0067776
0.0799846
-0.00299215
0.00221446
0.00657628
0.0160105
0.0202674
-0.000557028
-0.000292197
1.59655e-05
-0.00197931
-0.00365792
-0.0056701
0.0692864
0.0953394
-0.00679655
-0.0116169
0.0086187
0.0144763
-0.00835101
0.000207259
-0.0805187
0.00892366
1.49167e-05
0.00603326
-0.00370481
-0.00039671
-0.0117233
-0.0179411
-0.000792395
0.0212388
-0.000266565
-0.0645684
-0.00250477
0.006024
-0.0203738
-0.000318027
-0.0219921
0.0011542
-0.0138588
-0.00311888
-8.18531e-05
7.25948e-07
-0.0528297
-0.0232964
0.00792154
-0.000458835
0.0178952
0.00470918
-0.0434944
-0.0411245
0.0127478
-0.00646842
0.00824128
0.00616706
-0.00373837
0.00730166
-0.0125516
0.00928309
-0.00569372
2.28559e-05
0.000947418
-0.00130871
-0.00445877
-0.066186
0.000261804
-0.00214373
-0.006634
-0.00115996
0.0020465
-0.0514698
-0.0622752
0.00489817
0.0285797
-0.0648496
-0.00384
-0.0707245
0.00138556
-0.00572046
0.00868802
0.0104119
0.00628405
-0.0187069
0.000382348
-0.0627583
-0.0567252
0.00140692
-0.00688842
0.00866593
-0.042444
-0.00440218
-0.00233442
-0.0688532
-0.0617483
-0.0512657
0.00334453
-0.00229004
0.00694464
4.51449e-05
4.20689e-05
-0.00484378
0.000225413
0.00865746
-0.012455
-0.0017563
-0.00323398
0.00442365
0.00746294
0.00977453
-0.0577834
-0.00503408
-0.000633275
1.05658e-05
0.0048764
-0.00947451
0.0172229
-0.00895663
0.006572
-0.00142561
-9.34058e-05
0.00495506
-0.00042126
0.0079247
0.00618951
-0.00559241
-0.0311384
-0.0181984
0.0290839
-0.00442788
0.0060337
-0.00486937
-0.0102908
-0.0615131
-0.00383786
-0.0100534
-0.034955
-0.0373323
-0.00399166
-0.0665978
-0.027794
0.00251086
0.00397372
-0.00195075
-0.00122507
0.00587754
0.0160224
0.000248808
-0.00630739
-0.00271149
-4.26623e-05
0.000296504
-0.00880207
-4.43416e-05
0.00884683
-0.00237299
-0.0130044
-0.00488741
0.029468
0.000626699
0.00446839
-9.93356e-05
-5.09219e-05
-0.0153993
-4.49265e-05
-0.000540783
-0.000532941
-0.00120584
-0.060544
0.000627357
0.0221624
-0.0138008
-0.0371677
-0.0048911
-0.00481785
-0.00421555
-0.0460264
-0.0207019
0.000256816
-0.000135963
-0.0675013
0.00925269
0.000120464
0.00696661
0.0408695
-0.000212862
0.00532477
-7.62438e-05
0.0472014
0.00125349
0.00493298
0.00619664
-0.000355478
-0.000358036
4.39779e-05
-0.0106286
-0.0349973
-0.0488305
-0.012227
0.0091477
7.92427e-05
0.00606026
-6.90244e-05
-0.00157989
-0.000235765
-0.000546592
-0.00369561
-4.54338e-05
-0.00616087
-0.0660197
-0.00135309
-0.0491091
0.0106349
-0.000478979
-0.00149292
-0.00954882
5.96491e-05
-0.000753162
0.000112507
-0.0103073
0.00695523
-8.93794e-05
-0.000112866
-0.0015369
0.00351725
-0.00363324
-0.0599349
0.000583269
-6.73191e-05
-0.00291541
0.00493223
0.0152373
-0.00406077
-0.00224313
-0.055286
-0.000239511
0.00923847
0.00553825
0.00492786
0.000538641
0.00785517
0.00486919
0.0318811
0.00861187
0.000101743
0.000406692
0.000214804
-0.00213532
0.00228629
-0.0246219
0.000694925
0.00533288
7.46334e-05
-0.0150158
0.00634948
8.43147e-06
-0.0103482
5.00906e-05
-0.00705197
-0.0301442
-0.00273552
0.0448993
1.04113e-05
-0.00572802
2.52195e-05
0.00552233
-0.0578103
-0.000803909
0.0326889
-0.00175894
-0.00978808
-0.000355279
-5.54314e-05
-0.00464502
0.0076937
-3.85561e-05
2.52495e-05
0.00821563
0.0289498
0.00382307
0.00657106
0.000530677
-0.027055
0.00778814
-0.00909371
3.70867e-06
-0.0278629
-0.0144642
-0.0013689
0.00302182
0.00334081
0.00871303
0.00522031
0.00343101
-0.00045112
-0.000370354
0.0419298
0.0070946
-0.000214175
0.00613162
-0.0155234
0.00426542
0.00468967
-0.00816794
-0.0022487
-3.4967e-05
-9.23995e-05
0.0073865
9.48327e-05
-0.0109559
0.0115681
-0.00602378
-0.000840973
0.000173409
0.0105049
-0.00971913
-0.0189294
-4.67694e-05
-0.0311373
-0.000750208
-0.00980811
-0.00294626
-0.000235617
9.78881e-05
-0.000242581
-0.0157578
0.000153918
-8.26685e-05
0.00541679
-0.0173918
-0.0519554
-0.000252306
-5.72307e-05
0.00394439
0.000163939
-0.0160801
0.0056958
0.0014137
-0.00551258
-0.00147367
-0.00420155
0.0158929
-0.000956527
0.00395242
-0.000234622
-0.00616145
0.0153879
-0.0284557
0.00756392
-0.0259626
0.000156123
-0.00666554
-0.000975422
-0.0362419
5.27502e-05
0.00519092
0.000385774
0.0059874
-0.000404925
-0.000569147
-0.00334915
-0.0518024
0.0150904
-0.0472198
0.00403499
0.00402637
-0.00534085
-9.58216e-05
-0.0167702
5.93187e-05
1.75911e-05
-0.00276699
-0.00341429
0.000164354
0.00538242
-7.44049e-05
0.00614762
-0.00471605
-0.0137874
1.9174e-05
-0.0108773
0.00266347
-0.0151405
0.00448738
0.010326