/*--------------------------------*- C++ -*----------------------------------*\
  =========                 |
  \\      /  F ield         | OpenFOAM: The Open Source CFD Toolbox
   \\    /   O peration     | Website:  https://openfoam.org
    \\  /    A nd           | Version:  9
     \\/     M anipulation  |
\*---------------------------------------------------------------------------*/
FoamFile
{
    format      ascii;
    class       volScalarField;
    location    "580";
    object      nuTilda;
}
// * * * * * * * * * * * * * * * * * * * * * * * * * * * * * * * * * * * * * //

dimensions      [0 2 -1 0 0 0 0];

internalField   nonuniform List<scalar> 
10720
(
0.0551053
0.0568767
0.0587335
0.0605443
0.0620747
0.0628431
0.0627404
0.0616198
0.0590021
0.0544141
0.0474088
0.037952
0.0272644
0.0169641
0.0118747
0.0134604
0.0136554
0.0132197
0.0129686
0.0124433
0.0113275
0.0101134
0.00908107
0.00830082
0.00676858
0.00546258
0.00543702
0.00559338
0.00622166
0.00696841
0.00804919
0.00931259
0.00927964
0.00833231
0.00663219
0.00839909
0.010707
0.0140673
0.0152743
0.053279
0.0512157
0.0489948
0.0462129
0.0430454
0.0393719
0.0350241
0.0298654
0.0239635
0.018267
0.0166015
0.0152197
0.0146023
0.0176692
0.0203279
0.0223236
0.0239728
0.0254974
0.0270086
0.0285542
0.0301583
0.0318337
0.0335844
0.0353925
0.037183
0.0388711
0.0404347
0.0418797
0.0432203
0.0444627
0.0456225
0.0467151
0.0477723
0.0488678
0.0500398
0.0513613
0.0527384
0.0548259
0.055128
0.0660262
0.0651235
0.0637701
0.0619552
0.0603168
0.0589417
0.0589204
0.0611082
0.0643675
0.0678461
0.0706728
0.0717128
0.0702962
0.0668123
0.0654585
0.069294
0.0685301
0.0599968
0.0482238
0.0424587
0.0360803
0.0314635
0.028586
0.026876
0.0258204
0.0253465
0.0256749
0.0269775
0.0294455
0.0326489
0.0356658
0.0384418
0.0408598
0.0407819
0.033857
0.0413546
0.0524286
0.0650105
0.0856044
0.0669191
0.0673819
0.0680159
0.0680829
0.0678346
0.0672106
0.0660595
0.0643449
0.0621675
0.0596316
0.0565819
0.0533625
0.0502012
0.0470107
0.0440337
0.0412905
0.0387858
0.0365132
0.0344835
0.0326782
0.0310873
0.0297182
0.0285514
0.0275267
0.0266162
0.0258407
0.0252021
0.024701
0.0243362
0.0241031
0.0239917
0.0239883
0.0241853
0.0249359
0.0261388
0.0275639
0.0292152
0.0304254
0.0326873
0.0944259
0.0934872
0.0920655
0.0901352
0.0879426
0.0849962
0.0819986
0.079434
0.0772475
0.0736838
0.0728473
0.0750484
0.07918
0.083762
0.089133
0.0978353
0.106066
0.11002
0.108327
0.0967764
0.0816271
0.0699929
0.0618077
0.0567135
0.0538106
0.0525074
0.0528757
0.0554525
0.0607698
0.0681342
0.0752864
0.0822317
0.0888549
0.0894671
0.0742137
0.0891774
0.113365
0.140788
0.186585
0.0952871
0.0957492
0.0962914
0.0963819
0.0961671
0.0955891
0.0945207
0.0929087
0.0908099
0.0883095
0.0854266
0.082265
0.0789417
0.07555
0.0722101
0.0689445
0.0657874
0.0627671
0.05992
0.0572412
0.0547354
0.0523842
0.0501661
0.0479828
0.0457781
0.0435943
0.0414514
0.0393755
0.0374015
0.0355463
0.0338161
0.032221
0.0307745
0.0295277
0.0285009
0.0286119
0.0294246
0.030719
0.0287189
0.110026
0.109273
0.108165
0.106686
0.104925
0.102692
0.0999073
0.0964467
0.0933827
0.0900382
0.0862894
0.0821979
0.0807353
0.0840942
0.0921199
0.10549
0.122696
0.138752
0.148876
0.150093
0.14068
0.120211
0.104947
0.0942698
0.0880756
0.0850935
0.084923
0.088539
0.0972022
0.110161
0.123065
0.134863
0.142024
0.139496
0.12211
0.148726
0.188265
0.232976
0.309892
0.110696
0.111098
0.111498
0.111607
0.111479
0.111084
0.110342
0.109212
0.107718
0.105878
0.103695
0.101225
0.0985193
0.0956382
0.0926702
0.0896501
0.0866197
0.0836184
0.08069
0.0778482
0.0751128
0.0724789
0.06993
0.0673743
0.0647485
0.0620982
0.059449
0.0568274
0.0542538
0.051749
0.0493273
0.0470132
0.0448302
0.0428053
0.0409534
0.039379
0.0380097
0.0377378
0.0332761
0.119296
0.118751
0.117954
0.116889
0.115603
0.11396
0.111913
0.109349
0.106184
0.102343
0.0991363
0.0950533
0.0899459
0.08619
0.0888339
0.100544
0.121968
0.148795
0.172865
0.187906
0.191542
0.181608
0.158335
0.140569
0.128982
0.122953
0.121231
0.125128
0.13718
0.157038
0.17608
0.189596
0.194704
0.190289
0.176552
0.218765
0.275111
0.339452
0.452052
0.119771
0.120069
0.120346
0.120434
0.120357
0.120092
0.119587
0.118815
0.117782
0.116496
0.11495
0.11318
0.111201
0.10903
0.10672
0.104287
0.101767
0.0991894
0.0965951
0.0940017
0.0914344
0.0888965
0.0863798
0.0838051
0.0811146
0.0783482
0.0755331
0.0726983
0.0698676
0.0670663
0.0643155
0.0616394
0.0590633
0.0566216
0.0543462
0.0522959
0.0503666
0.0496035
0.0438155
0.125065
0.124663
0.124078
0.123296
0.122349
0.121132
0.119612
0.117771
0.115446
0.112436
0.108804
0.105563
0.101437
0.0956768
0.0906808
0.0941797
0.111571
0.142934
0.179998
0.211128
0.229738
0.233801
0.221618
0.196325
0.177581
0.166573
0.161827
0.164642
0.179162
0.206001
0.228976
0.242032
0.245745
0.242483
0.238153
0.298507
0.372529
0.458402
0.609069
0.125414
0.125632
0.125825
0.125885
0.125827
0.125633
0.125272
0.124729
0.124007
0.123109
0.122031
0.120789
0.119388
0.117828
0.116131
0.114305
0.112365
0.11033
0.108228
0.106071
0.103881
0.101662
0.0994092
0.0970588
0.0945581
0.0919364
0.0892183
0.0864305
0.0835969
0.0807441
0.0778973
0.075086
0.0723409
0.0697002
0.0672033
0.0649132
0.0627376
0.0616856
0.0559562
0.128952
0.128666
0.128245
0.127681
0.126992
0.1261
0.124977
0.123601
0.121879
0.119709
0.116843
0.113363
0.110164
0.105966
0.099512
0.0944084
0.101302
0.127812
0.171466
0.218478
0.254832
0.274847
0.277342
0.261473
0.235094
0.216992
0.207283
0.207055
0.221637
0.253773
0.27904
0.291877
0.296106
0.297243
0.309175
0.387433
0.4795
0.588343
0.778719
0.129201
0.129351
0.129477
0.129505
0.129444
0.129284
0.129007
0.128605
0.12808
0.127435
0.12667
0.125793
0.1248
0.123689
0.122466
0.121133
0.119693
0.118157
0.116538
0.114843
0.113085
0.111264
0.109376
0.107369
0.105197
0.102878
0.10043
0.0978725
0.095226
0.0925146
0.089763
0.0870017
0.0842645
0.0815933
0.079033
0.0766526
0.0743805
0.0731451
0.0677733
0.131733
0.131543
0.131256
0.130859
0.13036
0.129698
0.128851
0.127805
0.126498
0.124875
0.122808
0.120018
0.116642
0.113511
0.109021
0.101757
0.0981022
0.112326
0.152359
0.209794
0.265028
0.303985
0.3232
0.322487
0.301662
0.275534
0.258715
0.252962
0.264288
0.298774
0.326194
0.34023
0.347236
0.355853
0.390881
0.485225
0.595215
0.72793
0.959196
0.131897
0.131988
0.132058
0.132051
0.131979
0.131832
0.131602
0.131289
0.130892
0.130416
0.12986
0.129226
0.128511
0.127709
0.126824
0.125851
0.124793
0.123651
0.122432
0.121136
0.11977
0.118332
0.116813
0.115173
0.113372
0.111418
0.109321
0.107094
0.10475
0.102307
0.0997866
0.0972166
0.0946296
0.0920675
0.0895779
0.0872317
0.0849786
0.0836497
0.0787682
0.133836
0.13374
0.133568
0.133304
0.132949
0.132457
0.131814
0.13101
0.129999
0.128738
0.127168
0.125136
0.122344
0.119035
0.115939
0.11077
0.102754
0.103508
0.130648
0.188269
0.258952
0.319326
0.358246
0.374789
0.369411
0.342366
0.317672
0.303571
0.308779
0.341152
0.37137
0.38846
0.400737
0.420149
0.482565
0.591766
0.718988
0.875891
1.14876
0.133916
0.133948
0.133966
0.133926
0.133837
0.13369
0.133486
0.133229
0.132921
0.132562
0.13215
0.131683
0.131159
0.130572
0.129922
0.129208
0.128426
0.127578
0.126663
0.125681
0.124634
0.123517
0.122322
0.121014
0.119561
0.117965
0.116229
0.114358
0.11236
0.110246
0.108032
0.105739
0.103398
0.101044
0.0987264
0.0965125
0.0943702
0.0930258
0.0887018
0.135492
0.135478
0.135388
0.135211
0.134949
0.134572
0.134077
0.133455
0.132677
0.1317
0.13046
0.129009
0.127125
0.124236
0.121075
0.117852
0.111223
0.103186
0.113807
0.160454
0.237707
0.3187
0.38073
0.417276
0.42916
0.416953
0.385275
0.360498
0.357501
0.382508
0.415822
0.437975
0.458517
0.49551
0.584055
0.707135
0.850254
1.03097
1.34567
0.135486
0.135456
0.135425
0.135353
0.135245
0.135091
0.1349
0.134682
0.134438
0.134163
0.133853
0.133505
0.133115
0.13268
0.1322
0.13167
0.131089
0.130455
0.129767
0.129023
0.128222
0.127359
0.126426
0.125394
0.124237
0.122954
0.121544
0.120008
0.118348
0.116569
0.114682
0.112702
0.110652
0.108565
0.106482
0.104467
0.1025
0.101204
0.0974565
0.136819
0.136852
0.136796
0.136655
0.136443
0.136144
0.135759
0.135282
0.134687
0.133938
0.133012
0.131991
0.130846
0.128991
0.125976
0.123134
0.118993
0.110074
0.106619
0.134487
0.205935
0.301344
0.38817
0.44845
0.479949
0.484227
0.461844
0.425463
0.411913
0.426588
0.461237
0.490528
0.523216
0.587209
0.695767
0.831639
0.988577
1.19187
1.54807
0.136738
0.136641
0.136563
0.136461
0.136338
0.136174
0.135989
0.135798
0.135601
0.13539
0.135155
0.134894
0.134604
0.13428
0.133923
0.133529
0.133095
0.132619
0.1321
0.131535
0.130921
0.130254
0.129525
0.128712
0.127794
0.126769
0.125633
0.124386
0.123026
0.121555
0.119979
0.118307
0.116556
0.114754
0.112934
0.111152
0.109399
0.108196
0.105005
0.137858
0.137894
0.137828
0.137694
0.137517
0.137282
0.136988
0.136629
0.136171
0.135616
0.135011
0.134352
0.133589
0.132535
0.1305
0.127507
0.124628
0.118496
0.108682
0.116865
0.171023
0.269419
0.378459
0.465967
0.52063
0.543531
0.536072
0.499047
0.473793
0.479973
0.51073
0.54926
0.603252
0.692728
0.818573
0.965897
1.1337
1.3573
1.754
0.137744
0.137582
0.137462
0.137332
0.137198
0.137026
0.136842
0.136673
0.136513
0.13635
0.136173
0.135979
0.135764
0.135525
0.13526
0.134967
0.134644
0.134287
0.133895
0.133464
0.132992
0.132475
0.131904
0.131261
0.130532
0.129712
0.128799
0.12779
0.126683
0.125477
0.124175
0.122783
0.121313
0.119785
0.118227
0.116687
0.11516
0.114078
0.111395
0.138628
0.138643
0.138554
0.138435
0.138299
0.138122
0.137906
0.137643
0.1373
0.136917
0.136557
0.136171
0.135669
0.135008
0.133882
0.131597
0.128964
0.125348
0.116153
0.11016
0.140806
0.228424
0.35136
0.4671
0.54931
0.593951
0.604034
0.58168
0.544632
0.542892
0.573212
0.623749
0.699681
0.811364
0.953732
1.11088
1.28559
1.52593
1.96129
0.138528
0.13833
0.138174
0.13802
0.13788
0.137702
0.137519
0.137368
0.137238
0.137114
0.136983
0.136841
0.136685
0.136511
0.136318
0.136103
0.135864
0.135598
0.135303
0.134975
0.134612
0.134209
0.13376
0.13325
0.132668
0.13201
0.131274
0.130458
0.129558
0.128572
0.127502
0.126352
0.12513
0.12385
0.122535
0.121225
0.119918
0.118967
0.116731
0.139148
0.139151
0.139062
0.13898
0.138888
0.13876
0.138611
0.138427
0.138185
0.137938
0.137722
0.137495
0.13719
0.136757
0.136133
0.13482
0.13249
0.130092
0.124249
0.112964
0.121097
0.18613
0.309588
0.449728
0.563228
0.633993
0.664382
0.658919
0.624568
0.615113
0.648089
0.712698
0.810097
0.943665
1.10227
1.26745
1.44457
1.69649
2.16766
0.139078
0.138906
0.138738
0.138564
0.138423
0.138244
0.138061
0.137926
0.137821
0.137729
0.137635
0.137536
0.137426
0.137305
0.137168
0.137015
0.136842
0.136646
0.136425
0.136176
0.135897
0.135583
0.135228
0.134823
0.134356
0.133827
0.133232
0.132569
0.131836
0.131031
0.130154
0.129206
0.128195
0.12713
0.126031
0.124928
0.123825
0.122997
0.121163
0.139476
0.139479
0.139419
0.139371
0.139313
0.139229
0.139133
0.139013
0.13885
0.138689
0.138551
0.138407
0.138225
0.13796
0.13759
0.136939
0.13542
0.133433
0.130364
0.120652
0.11353
0.150369
0.259103
0.413732
0.559323
0.661319
0.715753
0.729871
0.713658
0.696936
0.733351
0.813685
0.933854
1.08974
1.26478
1.43627
1.61132
1.86776
2.37064
0.139427
0.139309
0.139167
0.138993
0.138856
0.138678
0.138498
0.138376
0.138294
0.138228
0.138166
0.138101
0.13803
0.137951
0.13786
0.137756
0.137635
0.137494
0.137331
0.137144
0.136929
0.136685
0.136405
0.136082
0.135707
0.13528
0.134798
0.13426
0.133662
0.133003
0.132284
0.131504
0.13067
0.129788
0.128874
0.127952
0.127033
0.126307
0.124882
0.139687
0.139694
0.139658
0.139632
0.139598
0.139546
0.139486
0.139412
0.139305
0.139194
0.139102
0.13901
0.138899
0.138745
0.138521
0.138206
0.137434
0.13591
0.134203
0.128502
0.116036
0.126746
0.207995
0.361974
0.535182
0.672724
0.756237
0.792906
0.796636
0.787562
0.828253
0.925476
1.06984
1.24976
1.44246
1.61859
1.78609
2.0387
2.56751
0.139649
0.139567
0.139465
0.139323
0.139198
0.139026
0.138851
0.138743
0.138679
0.138637
0.138601
0.138566
0.138527
0.138482
0.138429
0.138364
0.138283
0.138186
0.138069
0.137929
0.137766
0.137576
0.137357
0.1371
0.1368
0.136455
0.136065
0.135627
0.13514
0.134602
0.134013
0.133373
0.132685
0.131958
0.131201
0.130435
0.129678
0.129031
0.128055
0.13983
0.139839
0.139819
0.139806
0.139787
0.139756
0.13972
0.139674
0.139607
0.139531
0.139466
0.139405
0.139337
0.139248
0.139117
0.138946
0.138631
0.137706
0.136496
0.134042
0.123579
0.116671
0.164435
0.3006
0.490349
0.664603
0.783027
0.846346
0.872541
0.88671
0.931417
1.04618
1.21737
1.42445
1.63702
1.81633
1.96965
2.20859
2.75504
0.139798
0.139737
0.139661
0.139558
0.139459
0.139304
0.139137
0.139042
0.138997
0.138975
0.138961
0.13895
0.138936
0.138921
0.138897
0.138863
0.138816
0.138752
0.138671
0.138569
0.138447
0.138303
0.138133
0.13793
0.137691
0.137414
0.1371
0.136746
0.136351
0.135913
0.135432
0.134909
0.134345
0.133747
0.133125
0.132492
0.131877
0.131303
0.130717
0.139929
0.13994
0.13993
0.139926
0.139916
0.139899
0.139878
0.139851
0.13981
0.139759
0.139714
0.139673
0.139631
0.13958
0.139506
0.139401
0.139282
0.138867
0.137967
0.137084
0.131285
0.117824
0.13446
0.238193
0.427505
0.633933
0.792404
0.887865
0.939395
0.978283
1.04256
1.17499
1.37655
1.61421
1.84994
2.0319
2.16343
2.37709
2.92936
0.139901
0.139852
0.139793
0.139716
0.139642
0.139518
0.139368
0.139287
0.139258
0.139253
0.139257
0.139266
0.139274
0.139281
0.13928
0.139271
0.139249
0.139212
0.13916
0.139091
0.139003
0.138897
0.138767
0.138609
0.138421
0.138202
0.137952
0.137669
0.137352
0.136999
0.13661
0.136186
0.135727
0.13524
0.134733
0.134215
0.133721
0.133226
0.132912
0.139999
0.140011
0.140008
0.14001
0.140008
0.14
0.139989
0.139974
0.13995
0.139918
0.139887
0.139862
0.139837
0.139809
0.139769
0.139706
0.139644
0.139522
0.138971
0.138511
0.136542
0.12494
0.119963
0.183863
0.353005
0.57965
0.780105
0.914139
0.995182
1.05989
1.15108
1.3083
1.53637
1.80218
2.06496
2.26526
2.36978
2.54465
3.0865
0.139974
0.139932
0.139884
0.139823
0.139766
0.139672
0.139552
0.139488
0.139473
0.139482
0.1395
0.139522
0.139541
0.139559
0.13957
0.139575
0.139571
0.139557
0.139531
0.139493
0.13944
0.139369
0.139277
0.139159
0.139017
0.13885
0.138656
0.138434
0.138185
0.137905
0.137596
0.137256
0.136889
0.136497
0.136091
0.135672
0.135283
0.13487
0.134743
0.14005
0.140063
0.140065
0.140071
0.140074
0.140072
0.140069
0.140063
0.14005
0.140031
0.140011
0.139997
0.139985
0.139972
0.139955
0.139924
0.139879
0.139862
0.139627
0.13922
0.139095
0.132717
0.118671
0.144811
0.276324
0.504116
0.74231
0.920901
1.03713
1.12975
1.24812
1.43181
1.68615
1.9801
2.27091
2.49559
2.59149
2.71271
3.22354
0.140026
0.13999
0.139948
0.139898
0.139851
0.139779
0.139693
0.139648
0.139644
0.13966
0.139681
0.139703
0.139723
0.139741
0.139755
0.139766
0.139771
0.139771
0.139764
0.139749
0.139724
0.139689
0.13964
0.13957
0.139479
0.139363
0.139224
0.13906
0.138872
0.138659
0.13842
0.138156
0.137868
0.137559
0.13724
0.136905
0.136612
0.136272
0.136266
0.140088
0.140102
0.140107
0.140116
0.140122
0.140125
0.140128
0.140128
0.140123
0.140113
0.140101
0.140095
0.140093
0.140092
0.14009
0.140081
0.140055
0.140051
0.140011
0.139688
0.139918
0.138075
0.125051
0.123946
0.208178
0.414102
0.677267
0.903191
1.06146
1.18585
1.33159
1.54189
1.82317
2.1458
2.46494
2.71553
2.82725
2.88315
3.33904
0.140064
0.140031
0.139994
0.139951
0.139911
0.139852
0.139792
0.139765
0.139768
0.139784
0.139803
0.139822
0.13984
0.139858
0.139874
0.139887
0.139897
0.139904
0.139907
0.139905
0.139896
0.139882
0.139858
0.139822
0.139773
0.139708
0.139626
0.139524
0.139402
0.139256
0.139086
0.138893
0.138678
0.138443
0.138201
0.137936
0.137736
0.137443
0.137494
0.140115
0.14013
0.140138
0.140149
0.140158
0.140165
0.140171
0.140175
0.140177
0.140174
0.140168
0.140167
0.140171
0.140179
0.140188
0.140195
0.140191
0.140183
0.140214
0.140048
0.14007
0.140498
0.133057
0.1192
0.157576
0.320474
0.587187
0.856466
1.06342
1.22529
1.40013
1.6373
1.94632
2.29837
2.64625
2.92302
3.05301
3.05755
3.43257
0.140092
0.140061
0.140027
0.139989
0.139954
0.139905
0.13986
0.139846
0.139852
0.139866
0.139883
0.139901
0.139919
0.139936
0.139953
0.139968
0.139981
0.139992
0.14
0.140005
0.140006
0.140003
0.139994
0.139978
0.139953
0.139918
0.139872
0.139814
0.139743
0.139656
0.139552
0.139429
0.139288
0.139128
0.138959
0.13876
0.138645
0.138361
0.138424
0.140135
0.140151
0.14016
0.140173
0.140184
0.140194
0.140203
0.140211
0.140217
0.140219
0.140219
0.140222
0.14023
0.140243
0.14026
0.140278
0.140292
0.140293
0.140327
0.140302
0.14015
0.140977
0.138831
0.124539
0.128774
0.23612
0.479616
0.778517
1.03753
1.24413
1.45189
1.71692
2.05452
2.4369
2.81426
3.11746
3.2649
3.24017
3.5052
0.140112
0.140083
0.140051
0.140016
0.139985
0.139943
0.139909
0.139901
0.139908
0.139922
0.139938
0.139955
0.139973
0.139991
0.140008
0.140024
0.140039
0.140052
0.140063
0.140073
0.140079
0.140083
0.140083
0.140078
0.140067
0.140049
0.140024
0.139993
0.139952
0.139902
0.139841
0.139767
0.139682
0.139583
0.139477
0.139345
0.139285
0.139017
0.139085
0.14015
0.140166
0.140177
0.140191
0.140204
0.140215
0.140227
0.140237
0.140246
0.140252
0.140256
0.140263
0.140274
0.140291
0.140312
0.140336
0.140363
0.140381
0.140405
0.140453
0.14031
0.140734
0.141418
0.132813
0.119842
0.172252
0.367281
0.671826
0.978817
1.23732
1.48404
1.77933
2.14646
2.56022
2.96821
3.29864
3.46478
3.43484
3.56307
0.140127
0.140099
0.140068
0.140035
0.140007
0.13997
0.139944
0.139939
0.139947
0.139961
0.139977
0.139994
0.140012
0.14003
0.140047
0.140064
0.14008
0.140095
0.140108
0.14012
0.14013
0.140138
0.140144
0.140145
0.140143
0.140135
0.140124
0.140107
0.140085
0.140056
0.140021
0.139978
0.139927
0.139867
0.139802
0.139721
0.139688
0.139474
0.139546
0.14016
0.140177
0.140189
0.140204
0.140218
0.140231
0.140244
0.140256
0.140267
0.140276
0.140284
0.140293
0.140307
0.140326
0.14035
0.140379
0.140412
0.140445
0.14047
0.140532
0.140491
0.140513
0.141768
0.139136
0.123897
0.134489
0.265547
0.54521
0.885119
1.19909
1.49256
1.82247
2.22058
2.66694
3.10707
3.46632
3.65333
3.62971
3.62075
0.140138
0.140111
0.14008
0.140049
0.140022
0.139989
0.139969
0.139966
0.139975
0.139989
0.140005
0.140023
0.14004
0.140058
0.140076
0.140094
0.14011
0.140126
0.140141
0.140154
0.140166
0.140177
0.140186
0.140192
0.140195
0.140194
0.140191
0.140184
0.140173
0.140158
0.140138
0.140113
0.140083
0.140047
0.140008
0.139958
0.139939
0.139796
0.139861
0.140168
0.140184
0.140197
0.140213
0.140227
0.140241
0.140255
0.140269
0.140281
0.140293
0.140303
0.140314
0.14033
0.140351
0.140378
0.140409
0.140446
0.140488
0.140524
0.140578
0.140624
0.140511
0.141264
0.142015
0.132384
0.12083
0.187779
0.413491
0.759656
1.12444
1.47223
1.84335
2.27514
2.75534
3.22958
3.61994
3.83002
3.80709
3.69238
0.140145
0.140119
0.140089
0.140058
0.140033
0.140003
0.139986
0.139985
0.139994
0.140009
0.140026
0.140044
0.140062
0.14008
0.140098
0.140115
0.140132
0.140149
0.140164
0.140179
0.140192
0.140205
0.140216
0.140225
0.140231
0.140235
0.140237
0.140236
0.140232
0.140225
0.140216
0.140202
0.140185
0.140164
0.140142
0.140111
0.140102
0.140012
0.140067
0.140172
0.140188
0.140202
0.140218
0.140233
0.140248
0.140263
0.140277
0.140291
0.140304
0.140316
0.140328
0.140345
0.140368
0.140397
0.14043
0.140469
0.140515
0.140562
0.140611
0.140691
0.140636
0.140814
0.142337
0.139251
0.123304
0.14068
0.294334
0.612765
1.01163
1.41719
1.83774
2.30791
2.82366
3.33408
3.7585
3.99495
3.97316
3.78399
0.14015
0.140124
0.140094
0.140064
0.140039
0.140011
0.139997
0.139998
0.140009
0.140024
0.140041
0.140059
0.140078
0.140096
0.140114
0.140132
0.140149
0.140166
0.140182
0.140197
0.140211
0.140225
0.140237
0.140247
0.140256
0.140263
0.140268
0.140271
0.140272
0.140271
0.140268
0.140262
0.140254
0.140243
0.14023
0.140213
0.140209
0.140151
0.140201
0.140174
0.140191
0.140204
0.140221
0.140236
0.140251
0.140267
0.140282
0.140296
0.140311
0.140324
0.140337
0.140355
0.140379
0.140408
0.140443
0.140484
0.140531
0.140585
0.140638
0.140717
0.140757
0.140684
0.141655
0.142435
0.131854
0.121979
0.202789
0.46115
0.864765
1.32257
1.80037
2.31568
2.87006
3.41871
3.88062
4.14825
4.13417
3.89938
0.140152
0.140126
0.140097
0.140067
0.140042
0.140015
0.140004
0.140007
0.140018
0.140035
0.140053
0.140071
0.14009
0.140109
0.140127
0.140144
0.140161
0.140178
0.140194
0.14021
0.140224
0.140238
0.140251
0.140263
0.140273
0.140282
0.140289
0.140295
0.140299
0.140302
0.140303
0.140302
0.1403
0.140295
0.140289
0.14028
0.140281
0.140243
0.140288
0.140174
0.140191
0.140205
0.140221
0.140236
0.140252
0.140268
0.140283
0.140298
0.140314
0.140328
0.140342
0.14036
0.140384
0.140413
0.140449
0.140491
0.14054
0.140597
0.140656
0.140727
0.140818
0.140762
0.141038
0.14276
0.139232
0.122625
0.146318
0.324152
0.695398
1.18698
1.72533
2.2943
2.89209
3.48161
3.98463
4.28956
4.29309
4.04047
0.140152
0.140127
0.140098
0.140068
0.140043
0.140017
0.140008
0.140012
0.140025
0.140043
0.140061
0.14008
0.140099
0.140118
0.140136
0.140154
0.140171
0.140187
0.140203
0.140219
0.140234
0.140248
0.140261
0.140274
0.140285
0.140294
0.140303
0.14031
0.140317
0.140322
0.140326
0.140328
0.140329
0.140329
0.140328
0.140324
0.140328
0.140302
0.140343
0.140173
0.140189
0.140203
0.14022
0.140235
0.14025
0.140266
0.140282
0.140298
0.140314
0.140329
0.140344
0.140362
0.140385
0.140415
0.14045
0.140492
0.140542
0.140599
0.140665
0.140733
0.14083
0.140874
0.140819
0.141936
0.142758
0.131168
0.1224
0.218058
0.521371
1.01493
1.60771
2.23841
2.88659
3.52079
4.06848
4.41758
4.44938
4.20228
0.140151
0.140126
0.140097
0.140067
0.140042
0.140017
0.140009
0.140016
0.14003
0.140048
0.140068
0.140087
0.140107
0.140125
0.140143
0.14016
0.140177
0.140194
0.14021
0.140225
0.14024
0.140254
0.140267
0.14028
0.140291
0.140301
0.140311
0.140319
0.140327
0.140333
0.140339
0.140343
0.140347
0.140349
0.140351
0.140351
0.140357
0.140339
0.140377
0.14017
0.140186
0.1402
0.140216
0.140232
0.140247
0.140264
0.14028
0.140296
0.140312
0.140328
0.140343
0.140361
0.140385
0.140413
0.140448
0.140489
0.140539
0.140596
0.140663
0.140735
0.140823
0.140929
0.140872
0.141186
0.143126
0.139146
0.121188
0.151122
0.363165
0.818304
1.44588
2.14207
2.84935
3.53359
4.13004
4.5301
4.59975
4.34842
0.140148
0.140124
0.140094
0.140064
0.140039
0.140014
0.140009
0.140017
0.140033
0.140052
0.140073
0.140093
0.140112
0.140131
0.140148
0.140166
0.140182
0.140198
0.140214
0.140229
0.140243
0.140257
0.14027
0.140283
0.140294
0.140305
0.140314
0.140323
0.140331
0.140338
0.140345
0.140351
0.140356
0.14036
0.140364
0.140365
0.140373
0.14036
0.140396
0.140166
0.140182
0.140196
0.140212
0.140227
0.140243
0.140259
0.140275
0.140292
0.140308
0.140324
0.14034
0.140359
0.140381
0.14041
0.140443
0.140484
0.140532
0.140588
0.140655
0.140731
0.140813
0.140927
0.140982
0.140906
0.142171
0.143139
0.129968
0.121077
0.238355
0.615353
1.2438
1.99992
2.77503
3.5166
4.16687
4.62385
4.74188
4.48736
0.140144
0.14012
0.14009
0.14006
0.140035
0.14001
0.140007
0.140017
0.140035
0.140055
0.140077
0.140097
0.140116
0.140135
0.140152
0.140169
0.140185
0.140201
0.140216
0.14023
0.140244
0.140258
0.140271
0.140283
0.140294
0.140304
0.140314
0.140323
0.140331
0.140338
0.140346
0.140352
0.140358
0.140363
0.140368
0.140371
0.140379
0.14037
0.140403
0.14016
0.140176
0.14019
0.140206
0.140222
0.140237
0.140254
0.14027
0.140287
0.140303
0.14032
0.140336
0.140354
0.140377
0.140404
0.140437
0.140476
0.140523
0.140577
0.140642
0.140719
0.140802
0.140903
0.14103
0.140957
0.141281
0.1436
0.138958
0.117781
0.156768
0.427476
1.01258
1.80922
2.65734
3.4654
4.17583
4.69533
4.87341
4.62706
0.140139
0.140114
0.140085
0.140055
0.140029
0.140005
0.140004
0.140016
0.140035
0.140057
0.140079
0.1401
0.14012
0.140138
0.140155
0.140172
0.140187
0.140202
0.140217
0.140231
0.140244
0.140257
0.140269
0.140281
0.140291
0.140301
0.14031
0.140319
0.140327
0.140335
0.140342
0.140348
0.140355
0.14036
0.140366
0.14037
0.140378
0.140371
0.140403
0.140154
0.140169
0.140183
0.1402
0.140215
0.140231
0.140248
0.140264
0.140281
0.140298
0.140314
0.140331
0.140349
0.140371
0.140398
0.14043
0.140468
0.140512
0.140565
0.140627
0.140702
0.140787
0.140879
0.141013
0.141078
0.140937
0.14247
0.143757
0.12731
0.117543
0.274345
0.77013
1.57227
2.49001
3.37427
4.15285
4.74078
4.99096
4.77286
0.140132
0.140108
0.140079
0.140049
0.140022
0.139999
0.14
0.140014
0.140036
0.140059
0.140082
0.140103
0.140122
0.14014
0.140157
0.140173
0.140188
0.140202
0.140216
0.140229
0.140242
0.140254
0.140266
0.140277
0.140287
0.140296
0.140305
0.140313
0.140321
0.140328
0.140335
0.140341
0.140348
0.140353
0.140359
0.140364
0.140372
0.140367
0.140397
0.140146
0.140162
0.140176
0.140192
0.140208
0.140224
0.140241
0.140258
0.140275
0.140292
0.140309
0.140325
0.140343
0.140364
0.14039
0.140421
0.140458
0.140502
0.140552
0.140612
0.140682
0.140767
0.140858
0.14097
0.141127
0.140996
0.141356
0.144423
0.138209
0.110827
0.168894
0.539001
1.29825
2.2685
3.23624
4.09283
4.75672
5.08968
4.92326
0.140125
0.140101
0.140072
0.140041
0.140015
0.139992
0.139995
0.140012
0.140035
0.14006
0.140084
0.140105
0.140124
0.140142
0.140158
0.140173
0.140188
0.140201
0.140215
0.140227
0.140239
0.14025
0.140261
0.140271
0.140281
0.140289
0.140297
0.140305
0.140312
0.140319
0.140325
0.140331
0.140337
0.140343
0.140349
0.140354
0.140363
0.14036
0.140389
0.140138
0.140154
0.140168
0.140185
0.140201
0.140217
0.140234
0.140251
0.140268
0.140286
0.140303
0.14032
0.140337
0.140358
0.140383
0.140413
0.140448
0.14049
0.140539
0.140596
0.140663
0.140743
0.140835
0.140931
0.141093
0.141152
0.140892
0.143019
0.144586
0.121525
0.113482
0.342219
1.0041
1.99241
3.04355
3.98916
4.73839
5.16406
5.07062
0.140117
0.140093
0.140064
0.140033
0.140007
0.139985
0.13999
0.14001
0.140035
0.140061
0.140085
0.140107
0.140126
0.140143
0.140159
0.140173
0.140187
0.1402
0.140212
0.140224
0.140235
0.140245
0.140255
0.140264
0.140273
0.140281
0.140288
0.140295
0.140301
0.140308
0.140314
0.14032
0.140326
0.140331
0.140337
0.140343
0.140352
0.140352
0.14038
0.14013
0.140145
0.14016
0.140177
0.140193
0.14021
0.140228
0.140245
0.140263
0.14028
0.140297
0.140314
0.140332
0.140352
0.140376
0.140405
0.140439
0.140479
0.140525
0.14058
0.140644
0.140719
0.140809
0.140902
0.141028
0.141217
0.140956
0.141505
0.145802
0.135727
0.0996448
0.198069
0.713675
1.66798
2.78927
3.83348
4.67933
5.20731
5.20803
0.140108
0.140084
0.140055
0.140025
0.139998
0.139977
0.139986
0.140008
0.140035
0.140062
0.140087
0.140108
0.140127
0.140143
0.140158
0.140172
0.140185
0.140197
0.140208
0.140219
0.140229
0.140239
0.140248
0.140256
0.140264
0.140271
0.140278
0.140284
0.14029
0.140296
0.140301
0.140307
0.140313
0.140319
0.140326
0.140332
0.140342
0.140345
0.140373
0.140121
0.140137
0.140152
0.140169
0.140186
0.140204
0.140222
0.14024
0.140257
0.140275
0.140293
0.14031
0.140327
0.140346
0.140369
0.140397
0.140429
0.140468
0.140512
0.140565
0.140626
0.140696
0.140781
0.140875
0.140973
0.141174
0.141176
0.140789
0.144072
0.145068
0.111032
0.114653
0.454803
1.31052
2.46954
3.61593
4.57102
5.21152
5.32744
0.140099
0.140075
0.140046
0.140017
0.13999
0.13997
0.139981
0.140006
0.140036
0.140064
0.140089
0.14011
0.140128
0.140143
0.140157
0.14017
0.140182
0.140193
0.140204
0.140214
0.140223
0.140232
0.14024
0.140247
0.140254
0.140261
0.140267
0.140272
0.140278
0.140283
0.140289
0.140295
0.140301
0.140308
0.140315
0.140324
0.140336
0.140342
0.14037
0.140112
0.140128
0.140144
0.140162
0.14018
0.140198
0.140216
0.140235
0.140253
0.140271
0.140288
0.140306
0.140323
0.140342
0.140364
0.140391
0.140421
0.140457
0.1405
0.140549
0.140608
0.140675
0.140754
0.140847
0.140936
0.141086
0.141292
0.140815
0.141922
0.147624
0.129998
0.0866693
0.253821
0.945419
2.08703
3.32644
4.40282
5.16874
5.41892
0.14009
0.140066
0.140038
0.140008
0.139982
0.139963
0.139978
0.140006
0.140037
0.140066
0.140091
0.140111
0.140128
0.140143
0.140156
0.140168
0.140179
0.140189
0.140198
0.140207
0.140216
0.140224
0.140231
0.140238
0.140244
0.14025
0.140255
0.140261
0.140266
0.140272
0.140278
0.140284
0.140292
0.1403
0.140309
0.140319
0.140334
0.140343
0.140373
0.140103
0.14012
0.140136
0.140155
0.140174
0.140193
0.140212
0.140231
0.14025
0.140268
0.140286
0.140303
0.14032
0.140339
0.14036
0.140386
0.140415
0.140449
0.140489
0.140536
0.14059
0.140654
0.140728
0.140816
0.140907
0.14101
0.141257
0.141119
0.140739
0.14573
0.144127
0.0964335
0.127769
0.606907
1.65503
2.95707
4.16181
5.0688
5.4707
0.140081
0.140058
0.14003
0.140001
0.139975
0.139958
0.139975
0.140006
0.140039
0.140069
0.140093
0.140113
0.140129
0.140142
0.140154
0.140165
0.140174
0.140184
0.140192
0.1402
0.140208
0.140215
0.140222
0.140228
0.140234
0.140239
0.140245
0.14025
0.140256
0.140263
0.14027
0.140277
0.140286
0.140296
0.140308
0.140321
0.140338
0.140351
0.140382
0.140095
0.140112
0.14013
0.14015
0.140169
0.140189
0.140209
0.140228
0.140247
0.140266
0.140284
0.140301
0.140318
0.140337
0.140358
0.140382
0.14041
0.140442
0.14048
0.140524
0.140575
0.140635
0.140704
0.140785
0.140878
0.140963
0.14115
0.141324
0.140617
0.14277
0.149228
0.120817
0.0767516
0.332542
1.20126
2.5066
3.83379
4.8976
5.4684
0.140073
0.14005
0.140022
0.139994
0.139969
0.139953
0.139974
0.140007
0.140042
0.140072
0.140095
0.140114
0.140129
0.140141
0.140151
0.140161
0.14017
0.140178
0.140186
0.140193
0.1402
0.140207
0.140213
0.140219
0.140224
0.14023
0.140236
0.140242
0.140249
0.140257
0.140266
0.140276
0.140287
0.1403
0.140314
0.140329
0.140349
0.140365
0.140397
0.140088
0.140106
0.140125
0.140146
0.140166
0.140187
0.140207
0.140227
0.140246
0.140265
0.140283
0.140301
0.140318
0.140336
0.140356
0.140379
0.140406
0.140437
0.140473
0.140514
0.140562
0.140618
0.140683
0.140757
0.140845
0.140931
0.14105
0.141328
0.140983
0.140896
0.147637
0.141173
0.0814369
0.151964
0.769167
1.98696
3.40612
4.63756
5.39497
0.140066
0.140043
0.140016
0.139989
0.139964
0.139949
0.139973
0.14001
0.140046
0.140075
0.140098
0.140115
0.140128
0.140139
0.140148
0.140157
0.140165
0.140172
0.140179
0.140186
0.140192
0.140199
0.140205
0.140211
0.140217
0.140223
0.14023
0.140238
0.140247
0.140257
0.140268
0.140281
0.140295
0.14031
0.140327
0.140345
0.140367
0.140385
0.140417
0.140082
0.140101
0.140121
0.140143
0.140164
0.140186
0.140207
0.140227
0.140247
0.140266
0.140284