/*--------------------------------*- C++ -*----------------------------------*\
  =========                 |
  \\      /  F ield         | OpenFOAM: The Open Source CFD Toolbox
   \\    /   O peration     | Website:  https://openfoam.org
    \\  /    A nd           | Version:  9
     \\/     M anipulation  |
\*---------------------------------------------------------------------------*/
FoamFile
{
    format      ascii;
    class       volScalarField;
    location    "1950";
    object      alphat;
}
// * * * * * * * * * * * * * * * * * * * * * * * * * * * * * * * * * * * * * //

dimensions      [1 -1 -1 0 0 0 0];

internalField   nonuniform List<scalar> 
4000
(
0.000381884
0.000358275
0.000315837
0.000244892
0.000146375
0.000131431
0.000122465
0.000105979
0.00010234
0.000102782
0.000103094
0.000103544
0.00010857
0.000126411
0.000133946
0.000143472
0.00020305
0.000300038
0.000348233
0.000375802
0.000409764
0.000392307
0.000364917
0.000329973
0.000301092
0.000270197
0.000216555
0.000132899
0.000130797
0.000134809
0.000135158
0.000132389
0.000135575
0.000207898
0.000270022
0.000300969
0.000330064
0.000360231
0.000389721
0.000407018
0.000424055
0.000410518
0.000383221
0.000351318
0.000316395
0.000280564
0.000239055
0.000190208
0.000143423
0.000153511
0.000152041
0.000141884
0.000192233
0.000240841
0.000282027
0.000317569
0.000352356
0.000383079
0.000409263
0.000422472
0.000431836
0.000423572
0.000400726
0.000368894
0.000329309
0.000290121
0.000258152
0.000224764
0.000197255
0.000189992
0.000187951
0.000195113
0.000221264
0.00025489
0.000287612
0.000328071
0.000368419
0.000400175
0.000422808
0.000430812
0.00043707
0.000434916
0.000421218
0.00040233
0.00038202
0.000363275
0.000347142
0.000332918
0.000321184
0.000312089
0.000309772
0.000317652
0.000329029
0.000343379
0.00036008
0.000379745
0.000400965
0.000420448
0.000434387
0.000436358
0.000441524
0.000446406
0.000443321
0.000436836
0.000429126
0.000420699
0.000411945
0.000402745
0.000393266
0.000384154
0.000382505
0.000391002
0.000400261
0.000409542
0.0004186
0.000427518
0.000435772
0.000442676
0.000445949
0.000441005
0.00044624
0.000458144
0.00046418
0.000466828
0.000467468
0.000465959
0.000462075
0.000455923
0.00044741
0.000437196
0.00043596
0.000445857
0.000454281
0.000460545
0.000464667
0.000466491
0.000466175
0.000463782
0.000457846
0.000445873
0.000451894
0.000470808
0.000484689
0.00049425
0.000500885
0.000504487
0.000504716
0.0005011
0.000493038
0.000481068
0.000479999
0.000491903
0.000500049
0.000503831
0.000503812
0.000500441
0.000494002
0.000484564
0.000470698
0.000451663
0.000459798
0.000486958
0.000508043
0.000523526
0.000535119
0.000542971
0.000546844
0.000545696
0.000538178
0.000524167
0.000523152
0.000537415
0.000545101
0.000546452
0.000542793
0.000535142
0.000523676
0.000508219
0.000487042
0.00045969
0.000471769
0.000507209
0.000535808
0.000556953
0.000573473
0.000586009
0.000594231
0.00059718
0.000593512
0.000581646
0.000580783
0.000593124
0.000596913
0.000594069
0.000585988
0.000573588
0.000557161
0.000536038
0.000507365
0.000471747
0.000358275
0.000344023
0.000303593
0.000242128
0.000184572
0.000170416
0.000161749
0.000141726
0.000121937
0.000119628
0.000119686
0.000123047
0.000143772
0.000169242
0.000175773
0.000179521
0.00021182
0.000281809
0.000321483
0.000347244
0.000392307
0.000548934
0.000529851
0.000466649
0.000429479
0.00041136
0.000357683
0.000289938
0.000279244
0.000345944
0.000341112
0.000289703
0.000295405
0.000360732
0.000418149
0.000437074
0.000469017
0.000522547
0.000552204
0.000388469
0.000410518
0.000560023
0.000568678
0.000513724
0.000450644
0.000407698
0.000363507
0.000321349
0.000313423
0.000383552
0.000368131
0.000313411
0.00032579
0.00036854
0.000411168
0.000452384
0.000510405
0.000562119
0.000556851
0.000408297
0.000423572
0.00057318
0.000592374
0.000540662
0.000455492
0.000395167
0.000349893
0.000305999
0.000289235
0.000375678
0.000352167
0.000284711
0.000309546
0.000352825
0.000395454
0.000453747
0.000536153
0.000586282
0.000569363
0.000422154
0.000434916
0.000598632
0.000633843
0.000598279
0.000507573
0.000423093
0.000369738
0.000322439
0.000297831
0.000311829
0.000303152
0.000294647
0.000320803
0.00036831
0.000419777
0.000503128
0.000593978
0.000630049
0.000596235
0.000434043
0.000446406
0.000620801
0.000667506
0.000659465
0.000600508
0.000506473
0.000439296
0.000391031
0.000364479
0.000360982
0.000355363
0.000359609
0.000386137
0.000433738
0.000498864
0.000594032
0.00065647
0.000666396
0.000620148
0.000445887
0.000458144
0.000634749
0.000685138
0.000708522
0.000708216
0.000673733
0.000599148
0.000524767
0.000473365
0.0004536
0.00044871
0.000465682
0.000511597
0.000586834
0.000665026
0.000703185
0.000707438
0.000686436
0.000635535
0.000457948
0.000470808
0.000640067
0.000687441
0.00073269
0.000771839
0.000786825
0.000779002
0.000758099
0.000725836
0.000692512
0.000688725
0.000719788
0.000754879
0.000777491
0.000786601
0.000773168
0.000735494
0.000690975
0.000642045
0.000470861
0.000486958
0.000621797
0.000677007
0.000718534
0.000749832
0.000766315
0.000770834
0.000757538
0.000719136
0.00066271
0.000660199
0.000717364
0.000757907
0.000773453
0.000770539
0.000755215
0.000724106
0.000681652
0.000624348
0.000487222
0.000507209
0.000544324
0.000575374
0.000599875
0.000620682
0.000638109
0.000651039
0.000657356
0.000654823
0.00064176
0.00064098
0.000654674
0.00065743
0.000651316
0.000638641
0.000621428
0.000600737
0.000576218
0.00054499
0.000507524
0.000315837
0.000303593
0.000269179
0.000223476
0.000196392
0.000193647
0.000185958
0.000163543
0.000142051
0.000133145
0.000132402
0.000142001
0.000165865
0.000192791
0.000198641
0.000197169
0.000206972
0.00024663
0.000283696
0.000300998
0.000364917
0.000529851
0.00053321
0.000501814
0.000491705
0.000487026
0.000431572
0.000355918
0.000343022
0.000402989
0.000397629
0.000349395
0.000363576
0.000435406
0.000495373
0.000503205
0.000508226
0.000526582
0.000517988
0.000356805
0.000383221
0.000568678
0.000600797
0.00056266
0.000514579
0.000479884
0.00044068
0.000406825
0.000401359
0.000455858
0.000436268
0.000396525
0.000413151
0.000446993
0.000483569
0.000516569
0.000559513
0.000591752
0.000561869
0.000381668
0.000400726
0.000592374
0.000636574
0.000601816
0.000527742
0.000470505
0.00042791
0.000392964
0.000393958
0.000467395
0.000445911
0.000383833
0.000397374
0.000432386
0.000471052
0.000524749
0.000594889
0.000627287
0.000583919
0.000399078
0.000421218
0.000633844
0.000689982
0.000660939
0.000565306
0.00047572
0.000416461
0.000367291
0.000342292
0.000375896
0.000359613
0.000336998
0.000370564
0.000418675
0.000474253
0.000561182
0.000655228
0.000683895
0.000628124
0.000419982
0.000443321
0.000667506
0.000732994
0.00071687
0.000624826
0.000510401
0.000431165
0.000371466
0.000335295
0.000339383
0.000331455
0.000331003
0.000371358
0.000430216
0.000507129
0.000621106
0.000714454
0.000731405
0.000665373
0.000442692
0.00046418
0.000685138
0.000757047
0.000757491
0.00069252
0.000594242
0.000509497
0.000441665
0.000396947
0.000384875
0.000379898
0.000392271
0.000437144
0.000505593
0.000590755
0.000691065
0.000759107
0.000760048
0.000686259
0.000464092
0.000484689
0.000687441
0.000772198
0.000804801
0.000787754
0.000734076
0.00067738
0.000622503
0.000569787
0.00052915
0.000526496
0.000566897
0.000621686
0.00067884
0.000736844
0.000793093
0.000813314
0.000780158
0.000691491
0.000484994
0.000508043
0.000677007
0.000814708
0.000940127
0.00101709
0.00105252
0.00105758
0.00103117
0.00095829
0.000844724
0.000841668
0.000956619
0.00103432
0.00106586
0.00106491
0.00103135
0.000954376
0.000825637
0.000682487
0.000508635
0.000535808
0.000575374
0.00060815
0.000634905
0.000658809
0.000680205
0.000697489
0.000707197
0.000705996
0.00069117
0.000690481
0.000706094
0.00070762
0.00069821
0.000681284
0.000660144
0.000636329
0.000609472
0.000576399
0.000536352
0.000244892
0.000242128
0.000223476
0.000206582
0.000202274
0.000207829
0.000199038
0.000176357
0.000155733
0.000146603
0.000145458
0.000155949
0.00017907
0.000205298
0.000214581
0.00020658
0.000203486
0.00020835
0.000213226
0.000199758
0.000329973
0.000466649
0.000501814
0.000514495
0.000531963
0.000524339
0.000460364
0.000392785
0.000391811
0.000459427
0.0004515
0.000397038
0.000403504
0.000465826
0.000530134
0.000543046
0.00052564
0.00050614
0.000464258
0.000327021
0.000351318
0.000513724
0.00056266
0.00055513
0.0005365
0.00051557
0.000486041
0.000460228
0.000458528
0.000522124
0.00049838
0.000451911
0.000468643
0.000495294
0.000520293
0.000539998
0.000556125
0.00055955
0.000509834
0.000351666
0.000368894
0.000540662
0.000601816
0.000591815
0.000550106
0.000511449
0.000481168
0.000459267
0.000471418
0.000537759
0.000510691
0.000457555
0.000463085
0.000486805
0.000513079
0.00054796
0.00058594
0.000593295
0.000532234
0.000367416
0.00040233
0.000598279
0.000660939
0.000649869
0.000585275
0.00051909
0.000472303
0.000436793
0.00043055
0.000493854
0.000469699
0.000421
0.000440569
0.000475879
0.000519011
0.000581937
0.000643818
0.000653334
0.000590251
0.000400564
0.000436836
0.000659465
0.00071687
0.000707161
0.000633138
0.000542427
0.000474111
0.000421113
0.000390547
0.000412492
0.000396604
0.000386057
0.000424385
0.000476611
0.000542449
0.000631769
0.000704916
0.000713359
0.00065484
0.00043603
0.000466828
0.000708522
0.000757491
0.00075178
0.000687982
0.000597664
0.000522771
0.000463155
0.000420144
0.000412311
0.000406391
0.000419966
0.000466634
0.000526016
0.000600263
0.000691143
0.000755225
0.000759807
0.000708688
0.000466813
0.00049425
0.00073269
0.000804801
0.000832936
0.000799167
0.000734416
0.000676552
0.000626525
0.000574283
0.000527743
0.000527477
0.000578758
0.000634963
0.00068657
0.000745039
0.000811569
0.000846797
0.000816641
0.000738699
0.000494767
0.000523526
0.000718534
0.000940127
0.00113165
0.00115284
0.00116937
0.00119763
0.00120469
0.00114118
0.00100999
0.00101025
0.00114611
0.00121568
0.00121446
0.00118967
0.00117543
0.0011546
0.000957362
0.000726708
0.000524418
0.000556953
0.000599875
0.000634905
0.000664223
0.000692035
0.000718396
0.000740772
0.000755025
0.000756876
0.000743886
0.000743691
0.000757562
0.000756105
0.000742174
0.000720105
0.000693974
0.000666146
0.00063661
0.000601175
0.000557684
0.000146375
0.000184572
0.000196392
0.000202274
0.000212424
0.000215064
0.000203496
0.000182617
0.000164457
0.000157184
0.000155818
0.000164833
0.000185647
0.000209094
0.000222486
0.000218966
0.000207475
0.000197754
0.000179992
0.000142936
0.000301092
0.000429479
0.000491705
0.000531963
0.000549176
0.000523322
0.000458219
0.000413936
0.00042533
0.000508638
0.000499284
0.000429404
0.000427051
0.000468637
0.000528073
0.00055559
0.000542627
0.000502709
0.000436182
0.000299902
0.000316395
0.000450644
0.000514579
0.0005365
0.000539279
0.000528537
0.000511505
0.000490012
0.000495286
0.000581373
0.000552614
0.0004872
0.000499783
0.000524808
0.00053696
0.000544538
0.00054095
0.000517804
0.000453239
0.000317985
0.000329309
0.000455492
0.000527742
0.000550106
0.00054217
0.000526648
0.000512704
0.000503593
0.000524202
0.000603656
0.000571619
0.000507961
0.000506952
0.000520463
0.000531832
0.000543869
0.000549362
0.000525575
0.000452839
0.000327592
0.00038202
0.000507573
0.000565306
0.000585275
0.000565099
0.000533966
0.00050855
0.000490864
0.000504947
0.000583957
0.000555187
0.000491642
0.000493733
0.000513554
0.000536891
0.000565417
0.000583296
0.000561333
0.000501667
0.000379578
0.000429126
0.000600508
0.000624826
0.000633138
0.00060283
0.0005541
0.000510766
0.000476789
0.000470916
0.000530872
0.000509692
0.000464132
0.000481223
0.000515781
0.000557491
0.000604708
0.000632877
0.000621296
0.000593947
0.00042809
0.000467468
0.000708216
0.00069252
0.000687982
0.000656861
0.000603513
0.000551955
0.00050886
0.000485392
0.000511405
0.000505053
0.000488082
0.000516886
0.0005599
0.000610798
0.000663804
0.000693057
0.000693734
0.000706236
0.000467485
0.000500885
0.000771839
0.000787754
0.000799167
0.000771853
0.000721609
0.00067593
0.00063734
0.000595405
0.000560876
0.000564822
0.000606837
0.000652675
0.000692139
0.000738142
0.00078904
0.000815572
0.000800424
0.000779687
0.000501572
0.000535119
0.000749832
0.00101709
0.00115284
0.00122159
0.00128249
0.00134729
0.00137014
0.00128648
0.00110256
0.00110931
0.00129945
0.00138768
0.00136987
0.00130903
0.00124991
0.00117992
0.00103845
0.000759828
0.000536257
0.000573473
0.000620682
0.000658809
0.000692035
0.000726194
0.000758293
0.000785548
0.000804055
0.000809333
0.000799012
0.000799284
0.000810596
0.000805701
0.000787483
0.000760495
0.000728587
0.000694375
0.0006608
0.000622193
0.000574367
0.000131431
0.000170416
0.000193647
0.000207829
0.000215064
0.00021302
0.000201222
0.000185153
0.000171256
0.00016709
0.000165548
0.000171659
0.000188243
0.000206459
0.000219939
0.000222699
0.000215524
0.000201404
0.000174905
0.00013286
0.000270197
0.00041136
0.000487026
0.000524339
0.000523322
0.000488454
0.000448684
0.000428675
0.000452912
0.000545822
0.000536546
0.000455775
0.000441673
0.0004634
0.000497648
0.000527492
0.000528917
0.000494117
0.000419855
0.000270644
0.000280564
0.000407698
0.000479884
0.00051557
0.000528537
0.000529118
0.000519178
0.000501417
0.000518569
0.000612087
0.000584207
0.000509417
0.000510939
0.000535014
0.000543717
0.00053805
0.000522249
0.000485797
0.000413308
0.000283073
0.000290121
0.000395167
0.000470505
0.000511449
0.000526648
0.000530446
0.00052967
0.00052837
0.000553427
0.000629517
0.000598505
0.000536783
0.000531824
0.000539536
0.000540333
0.000533874
0.000516437
0.000474321
0.000397411
0.000287778
0.000363275
0.000423093
0.00047572
0.00051909
0.000533966
0.000532706
0.000526937
0.000524508
0.000551964
0.000621659
0.000596307
0.000537903
0.000526945
0.000533589
0.000539384
0.00053933
0.000522944
0.00047785
0.000421987
0.000360182
0.000420699
0.000506473
0.000510401
0.000542427
0.0005541
0.000544165
0.000526861
0.000513544
0.000530206
0.000594011
0.000576034
0.0005228
0.000518493
0.000534046
0.000551034
0.000560055
0.000546418
0.000510737
0.000501255
0.000419448
0.000465959
0.000673733
0.000594242
0.000597664
0.000603513
0.000587917
0.000561622
0.000537355
0.00053701
0.000587664
0.000583139
0.000541547
0.00054781
0.000572658
0.000598699
0.000613681
0.000605366
0.000596833
0.00066921
0.000465967
0.000504487
0.000786824
0.000734076
0.000734416
0.000721609
0.000694703
0.000669172
0.000643688
0.000608322
0.000583331
0.000590412
0.000623886
0.000662772
0.000689108
0.000714893
0.000741693
0.000752624
0.000747609
0.000794664
0.000505295
0.000542971
0.000766315
0.00105252
0.00116937
0.00128249
0.00139245
0.00148262
0.00149526
0.00134961
0.00106034
0.00107207
0.00136924
0.00151666
0.00150768
0.0014215
0.00131329
0.0011983
0.00107643
0.000777173
0.000544289
0.000586009
0.000638109
0.000680205
0.000718396
0.000758293
0.000795758
0.000827924
0.00085114
0.00086119
0.000856319
0.000856736
0.000862836
0.000853226
0.000830284
0.000798351
0.000761011
0.000721007
0.000682403
0.000639796
0.000587052
0.000122465
0.000161749
0.000185958
0.000199038
0.000203496
0.000201222
0.00019443
0.000185238
0.00017757
0.00017919
0.000177477
0.000177776
0.000187886
0.000198878
0.000206855
0.000209675
0.000205933
0.000193343
0.000168026
0.000125984
0.000216555
0.000357683
0.000431572
0.000460364
0.000458219
0.000448684
0.000440684
0.000440913
0.000479963
0.000575727
0.000568292
0.000481428
0.000451456
0.000454628
0.000462502
0.000467607
0.000464491
0.000434008
0.000360605
0.000212452
0.000239055
0.000363507
0.00044068
0.000486041
0.000511505
0.000519178
0.000511877
0.000504086
0.000533335
0.000594041
0.000573252
0.00052377
0.000511447
0.000525733
0.000535261
0.000526068
0.000497573
0.00044948
0.000370762
0.000242459
0.000258152
0.000349893
0.00042791
0.000481168
0.000512704
0.00052967
0.000535999
0.000537437
0.00056123
0.000569158
0.000549811
0.000545966
0.000540167
0.000545944
0.000541909
0.00052441
0.000491364
0.000436429
0.000355459
0.00025573
0.000347142
0.000369738
0.000416461
0.000472303
0.00050855
0.000526937
0.000534818
0.000542324
0.000566932
0.000538551
0.000525582
0.000555152
0.000544836
0.000542363
0.000536113
0.000517919
0.000481035
0.000423295
0.000371398
0.000343693
0.000411945
0.000439296
0.000431165
0.000474111
0.000510766
0.000526861
0.000529837
0.000533155
0.000553595
0.000515593
0.000507979
0.000548071
0.000538484
0.000538431
0.000536251
0.000520006
0.000481869
0.000435279
0.000437123
0.000410595
0.000462075
0.000599148
0.000509497
0.000522771
0.000551955
0.000561622
0.000555008
0.000547783
0.000561435
0.000554721
0.000555514
0.000567486
0.000559612
0.000567965
0.000574748
0.000564589
0.000533079
0.000514207
0.000593307
0.000462087
0.000504716
0.000779002
0.00067738
0.000676552
0.00067593
0.000669172
0.000658214
0.000636558
0.000599045
0.00057024
0.000578156
0.000616058
0.000657346
0.000680311
0.000691829
0.000698394
0.0006971
0.000693248
0.000786137
0.000505606
0.000546844
0.000770834
0.00105758
0.00119763
0.00134729
0.00148262
0.00157173
0.00153115
0.00126843
0.0008994
0.000906937
0.00129337
0.00155643
0.0015985
0.00151328
0.00137952
0.00122791
0.00108388
0.000782334
0.000548305
0.000594231
0.000651039
0.000697489
0.000740772
0.000785548
0.000827924
0.000865482
0.000894783
0.00091349
0.000923096
0.00092315
0.000915252
0.000897246
0.000868268
0.000830939
0.000788637
0.000743682
0.000699915
0.00065292
0.000595426
0.000105979
0.000141726
0.000163543
0.000176357
0.000182617
0.000185153
0.000185238
0.000184081
0.000184217
0.000192224
0.000190348
0.000183917
0.000185627
0.000188171
0.000188966
0.00018673
0.000180271
0.000166466
0.000141608
0.000105099
0.000132899
0.000289938
0.000355918
0.000392785
0.000413936
0.000428675
0.000440913
0.000460139
0.000494306
0.000471849
0.00046667
0.000493891
0.000465235
0.00044908
0.000438541
0.000423971
0.000400618
0.000360756
0.000292031
0.00013414
0.000190208
0.000321349
0.000406825
0.000460227
0.000490012
0.000501417
0.000504086
0.000509861
0.000498292
0.000347235
0.000336001
0.000491144
0.000512548
0.000511554
0.000511344
0.000500727
0.000470209
0.000414717
0.000327009
0.00019392
0.000224764
0.000305999
0.000392964
0.000459267
0.000503593
0.00052837
0.000537437
0.000538068
0.000486381
0.000310993
0.000298653
0.000476335
0.000538014
0.000543039
0.000537116
0.000513818
0.00046947
0.00040181
0.000311355
0.000223192
0.000332918
0.000322439
0.000367291
0.000436793
0.000490864
0.000524508
0.000542324
0.000547202
0.0004654
0.000329625
0.000317888
0.000459714
0.000549219
0.000548463
0.000532518
0.00050002
0.000446227
0.000374854
0.000324231
0.000329189
0.000402745
0.000391031
0.000371466
0.000421113
0.000476789
0.000513544
0.000533155
0.000538064
0.000441219
0.000370675
0.000358226
0.000440536
0.000543474
0.000541078
0.000522379
0.000485803
0.000428992
0.000375915
0.000389334
0.000401344
0.000455923
0.000524767
0.000441665
0.000463155
0.00050886
0.000537355
0.000547783
0.000550686
0.000483447
0.000449186
0.000441103
0.000492295
0.000563444
0.000561364
0.000550929
0.000521873
0.000473991
0.000446661
0.00051889
0.000455944
0.0005011
0.000758099
0.000622503
0.000626525
0.00063734
0.000643688
0.000636558
0.00060848
0.000560937
0.000535799
0.000534307
0.000576986
0.00063002
0.000659975
0.000668166
0.000661732
0.000648803
0.000639454
0.000763647
0.000502014
0.000545696
0.000757538
0.00103117
0.00120469
0.00137014
0.00149526
0.00153115
0.00136667
0.00103691
0.000947443
0.000943684
0.0010538
0.00139613
0.0015631
0.00152908
0.00140471
0.00123613
0.00105794
0.000768806
0.000547223
0.00059718
0.000657356
0.000707197
0.000755025
0.000804055
0.00085114
0.000894783
0.000933618
0.000971277
0.00101384
0.00101321
0.000972817
0.000936379
0.000898097
0.000854692
0.000807641
0.00075834
0.000709945
0.000659464
0.000598518
0.00010234
0.000121937
0.000142051
0.000155733
0.000164457
0.000171256
0.00017757
0.000184217
0.00019093
0.000200941
0.000199339
0.000189566
0.000183873
0.000178011
0.000172272
0.000165723
0.000156835
0.000142211
0.000120728
0.000100979
0.000130797
0.000279244
0.000343022
0.000391811
0.00042533
0.000452912
0.000479963
0.000494306
0.00039726
0.000462082
0.000453691
0.000394353
0.000490559
0.000478235
0.000452906
0.0004267
0.00039358
0.000343215
0.000279804
0.000130882
0.000143423
0.000313423
0.000401359
0.000458528
0.000495286
0.000518569
0.000533335
0.000498292
0.000305319
0.000571197
0.000561236
0.000299682
0.000491479
0.000528429
0.000515471
0.000493783
0.000457929
0.000400464
0.000311378
0.000143333
0.000197255
0.000289235
0.000393958
0.000471418
0.000524202
0.000553427
0.00056123
0.000486381
0.000308009
0.00076204
0.000752583
0.00030253
0.000478341
0.000555561
0.000549012
0.000521776
0.000471109
0.000394901
0.000290084
0.000190502
0.000321184
0.000297831
0.000342292
0.00043055
0.000504947
0.000551964
0.000566932
0.0004654
0.000352463
0.000993727
0.000986191
0.00035117
0.000461761
0.000564765
0.000549644
0.000503161
0.000430345
0.000343055
0.000295943
0.000316939
0.000393266
0.000364479
0.000335295
0.000390547
0.000470916
0.000530206
0.000553595
0.000441219
0.000411854
0.00122092
0.00121263
0.000412688
0.000442314
0.000554842
0.000529803
0.000469764
0.000390181
0.000334954
0.000361388
0.000391824
0.00044741
0.000473365
0.000396947
0.000420144
0.000485392
0.00053701
0.000561435
0.000483447
0.000502513
0.00138358
0.00137383
0.000507254
0.000494932
0.00057232
0.000545973
0.000492908
0.0004265
0.000398869
0.000467838
0.000447477
0.000493038
0.000725836
0.000569787
0.000574283
0.000595405
0.000608322
0.000599045
0.000560937
0.000596957
0.00143096
0.00141582
0.000603817
0.000580336
0.000621799
0.000632394
0.000619358
0.000595663
0.000585254
0.000729571
0.000493976
0.000538178
0.000719136
0.00095829
0.00114118
0.00128648
0.00134961
0.00126843
0.00103691
0.00101954
0.00142495
0.00141367
0.00102447
0.00105553
0.00130095
0.00138665
0.00132355
0.0011727
0.000983408
0.000729304
0.000539699
0.000593512
0.000654823
0.000705996
0.000756876
0.000809333
0.00086119
0.00091349
0.000971277
0.00104399
0.00112769
0.00112608
0.00104582
0.000974328
0.000917301
0.000865372
0.000813534
0.000760661
0.00070907
0.000657138
0.000594959
0.000102782
0.000119628
0.000133145
0.000146603
0.000157184
0.00016709
0.00017919
0.000192224
0.000200941
0.000208534
0.000206444
0.000198284
0.000188844
0.000176229
0.00016466
0.00015515
0.000144803
0.000131496
0.000118331
0.000101683
0.000134809
0.000345944
0.000402989
0.000459427
0.000508638
0.000545822
0.000575727
0.000471849
0.000462082
0.000301358
0.000292232
0.000444712
0.000456171
0.000562611
0.000535055
0.000499729
0.000449909
0.00039523
0.000341765
0.000134668
0.000153511
0.000383552
0.000455858
0.000522124
0.000581373
0.000612087
0.000594041
0.000347235
0.000571197
0.000441955
0.00042862
0.000564911
0.000330726
0.000573286
0.000593063
0.000564644
0.00050625
0.000441794
0.000371615
0.00015267
0.000189992
0.000375678
0.000467395
0.000537759
0.000603656
0.000629517
0.000569158
0.000310993
0.00076204
0.000594004
0.000577311
0.000768862
0.000299061
0.000548549
0.000610137
0.000586578
0.000522712
0.000454894
0.000379469
0.000178937
0.000312089
0.000311829
0.000375896
0.000493854
0.000583957
0.000621659
0.000538551
0.000329625
0.000993727
0.000765123
0.000745664
0.00101618
0.000326069
0.000520839
0.000604256
0.00056582
0.000477787
0.000366362
0.00030715
0.000307133
0.000384154
0.000360982
0.000339383
0.000412492
0.000530872
0.000594011
0.000515593
0.000370675
0.00122092
0.000952762
0.000930891
0.00125452
0.000373826
0.000503888
0.000578837
0.00051146
0.000396365
0.000332234
0.000355731
0.000382746
0.000437196
0.0004536
0.000384875
0.000412311
0.000511405
0.000587664
0.000554721
0.000449186
0.00138358
0.00113894
0.00111505
0.00142226
0.000459582
0.00055876
0.000586429
0.000506719
0.000409797
0.000382362
0.00044719
0.000437497
0.000481068
0.000692512
0.00052915
0.000527743
0.000560876
0.000583331
0.00057024
0.000535799
0.00143096
0.00128531
0.00125916
0.00146346
0.000548526
0.000587412
0.000602751
0.000580591
0.000545531
0.000542232
0.000695339
0.000482244
0.000524167
0.00066271
0.000844724
0.00100999
0.00110256
0.00106034
0.0008994
0.000947443
0.00142495
0.00137672
0.00135046
0.00144331
0.000958895
0.000919785
0.00109644
0.0011409
0.0010404
0.000869098
0.000672668
0.000525807
0.000581646
0.00064176
0.00069117
0.000743886
0.000799012
0.000856319
0.000923096
0.00101384
0.00112769
0.00117633
0.00116984
0.00113195
0.00101849
0.000927741
0.000861286
0.000803985
0.000748236
0.000694651
0.000644319
0.000583197
0.000103094
0.000119686
0.000132402
0.000145458
0.000155818
0.000165548
0.000177477
0.000190348
0.000199339
0.000206444
0.000204617
0.000196926
0.000187146
0.000174165
0.000162119
0.000152257
0.00014183
0.000129177
0.000118279
0.000102252
0.000135158
0.000341112
0.000397629
0.0004515
0.000499284
0.000536546
0.000568292
0.00046667
0.000453691
0.000292232
0.000285025
0.000440792
0.000452284
0.00055718
0.000528035
0.000493779
0.000447367
0.000396833
0.000340592
0.000134308
0.000152041
0.000368131
0.000436268
0.00049838
0.000552614
0.000584207
0.000573252
0.000336001
0.000561236
0.00042862
0.000418508
0.000561014
0.00032155
0.000561459
0.000578492
0.000552492
0.000500589
0.000441504
0.000376762
0.000150976
0.000187951
0.000352167
0.000445911
0.000510691
0.000571619
0.000598505
0.000549811
0.000298653
0.000752583
0.000577311
0.000563915
0.000763447
0.000289672
0.000538188
0.000593347
0.000572439
0.00051445
0.000452033
0.000381421
0.000171813
0.000309772
0.000303152
0.000359613
0.000469699
0.000555187
0.000596307
0.000525582
0.000317888
0.000986191
0.000745664
0.000728356
0.00100734
0.000314361
0.000517122
0.000590869
0.000553244
0.000471245
0.000362274
0.000302729
0.00030246
0.000382505
0.000355363
0.000331455
0.000396604
0.000509692
0.000576034
0.000507979
0.000358226
0.00121263
0.000930891
0.000909356
0.00124031
0.000357977
0.000504731
0.000570618
0.000503404
0.000392293
0.000327697
0.000350288
0.000380536
0.00043596
0.00044871
0.000379898
0.000406391
0.000505053
0.000583139
0.000555514
0.000441104
0.00137383
0.00111505
0.00108961
0.00140199
0.000443141
0.000560122
0.000582686
0.000503087
0.000406271
0.000376828
0.00044165
0.00043645
0.000479999
0.000688725
0.000526496
0.000527477
0.000564822
0.000590412
0.000578156
0.000534307
0.00141582
0.00125916
0.00123066
0.00143558
0.000540139
0.000592308
0.000606008
0.000580992
0.000542933
0.00053773
0.000690798
0.00048171
0.000523152
0.000660199
0.000841668
0.00101025
0.00110931
0.00107207
0.000906937
0.000943684
0.00141367
0.00135046
0.00132169
0.0014231
0.000948862
0.000932543
0.00111392
0.00114875
0.00104112
0.000864489
0.000671335
0.000525449
0.000580783
0.00064098
0.000690481
0.00074369
0.000799284
0.000856736
0.00092315
0.00101321
0.00112608
0.00116984
0.00116125
0.00112782
0.00101548
0.000926282
0.000860945
0.000803919
0.000748022
0.000694102
0.00064389
0.000582904
0.000103544
0.000123047
0.000142001
0.000155949
0.000164833
0.000171659
0.000177776
0.000183917
0.000189566
0.000198284
0.000196926
0.000188038
0.000182561
0.000176198
0.000169607
0.000162072
0.000152257
0.000136726
0.000120552
0.000102577
0.000132389
0.000289703
0.000349395
0.000397038
0.000429404
0.000455775
0.000481428
0.000493891
0.000394353
0.000444712
0.000440792
0.000390349
0.000488969
0.000476282
0.000451232
0.000426001
0.000395061
0.000348372
0.000293513
0.00013167
0.000141884
0.000313411
0.000396525
0.000451911
0.0004872
0.000509417
0.00052377
0.000491144
0.000299682
0.000564911
0.000561014
0.000293023
0.000486333
0.000521276
0.000508115
0.000487151
0.000453232
0.000398385
0.000313868
0.000142662
0.000195113
0.000284711
0.000383833
0.000457555
0.000507961
0.000536783
0.000545966
0.000476335
0.00030253
0.000768862
0.000763447
0.000297172
0.000472824
0.000545643
0.00053864
0.00051277
0.000465288
0.000392596
0.000289746
0.000177018
0.000317652
0.000294647
0.000336998
0.000421
0.000491642
0.000537903
0.000555152
0.000459714
0.00035117
0.00101618
0.00100734
0.000346688
0.00046032
0.000557442
0.000541541
0.000497398
0.00042835
0.00034226
0.000290421
0.000309574
0.000391002
0.000359609
0.000331003
0.000386057
0.000464132
0.0005228
0.000548071
0.000440536
0.000412688
0.00125452
0.00124031
0.000406904
0.00044553
0.000552711
0.000526989
0.000468553
0.000390041
0.000331179
0.00035321
0.000388731
0.000445857
0.000465682
0.000392271
0.000419966
0.000488082
0.000541547
0.000567486
0.000492295
0.000507254
0.00142226
0.00140199
0.000500107
0.000500937
0.000574492
0.000547372
0.000493287
0.000424036
0.000391278
0.000457962
0.000446306
0.000491903
0.000719788
0.000566897
0.000578758
0.000606837
0.000623886
0.000616058
0.000576986
0.000603817
0.00146346
0.00143558
0.000601395
0.000592229
0.000632886
0.000640415
0.000622592
0.00059293
0.000578269
0.000724886
0.000493687
0.000537415
0.000717364
0.000956619
0.00114611
0.00129945
0.00136924
0.00129337
0.0010538
0.00102447
0.00144331
0.0014231
0.00102054
0.00108139
0.00133511
0.00140458
0.00132918
0.00116958
0.000977779
0.000729611
0.000539768
0.000593124
0.000654674
0.000706094
0.000757562
0.000810596
0.000862836
0.000915252
0.000972817
0.00104582
0.00113195
0.00112782
0.00104499
0.000974104
0.000918071
0.000866271
0.000814157
0.000760848
0.000708914
0.000657086
0.000595011
0.00010857
0.000143772
0.000165865
0.00017907
0.000185647
0.000188243
0.000187886
0.000185627
0.000183873
0.000188844
0.000187146
0.000182561
0.000184901
0.0001873
0.000187454
0.000184257
0.000176596
0.000161076
0.000138734
0.000107166
0.000135575
0.000295405
0.000363576
0.000403504
0.000427051
0.000441673
0.000451456
0.000465235
0.000490559
0.000456171
0.000452284
0.000488969
0.000465898
0.00045221
0.000442204
0.000427242
0.000402738
0.000360752
0.00029094
0.000134939
0.000192233
0.00032579
0.000413151
0.000468643
0.000499783
0.000510939
0.000511447
0.000512548
0.000491479
0.000330726
0.00032155
0.000486333
0.000512136
0.000511381
0.000511062
0.000500823
0.000470751
0.000415197
0.000326179
0.000181817
0.000221264
0.000309546
0.000397374
0.000463085
0.000506952
0.000531824
0.000540167
0.000538014
0.000478341
0.000299061
0.000289671
0.000472824
0.000537015
0.00054109
0.000534809
0.000511899
0.000468683
0.000401658
0.00030889
0.000206628
0.000329029
0.000320803
0.000370564