/*--------------------------------*- C++ -*----------------------------------*\
  =========                 |
  \\      /  F ield         | OpenFOAM: The Open Source CFD Toolbox
   \\    /   O peration     | Website:  https://openfoam.org
    \\  /    A nd           | Version:  9
     \\/     M anipulation  |
\*---------------------------------------------------------------------------*/
FoamFile
{
    format      ascii;
    class       volScalarField;
    location    "1950";
    object      nut;
}
// * * * * * * * * * * * * * * * * * * * * * * * * * * * * * * * * * * * * * //

dimensions      [0 2 -1 0 0 0 0];

internalField   nonuniform List<scalar> 
4000
(
0.000329532
0.000309154
0.000272515
0.000211275
0.000126275
0.000113386
0.000105653
9.14304e-05
8.82904e-05
8.86717e-05
8.89413e-05
8.93297e-05
9.36658e-05
0.000109058
0.000115556
0.000123771
0.000175171
0.000258877
0.000300486
0.000324283
0.000353614
0.000338551
0.000314912
0.000284745
0.000259817
0.000233154
0.000186865
0.000114679
0.000112865
0.000116327
0.000116627
0.000114239
0.000116988
0.000179395
0.000233003
0.000259711
0.000284825
0.000310865
0.00033632
0.000351245
0.000365962
0.000354284
0.000330728
0.000303195
0.000273053
0.000242124
0.0002063
0.000164145
0.000123772
0.000132477
0.000131209
0.000122443
0.000165893
0.000207841
0.000243388
0.000274066
0.000304091
0.000330606
0.0003532
0.000364597
0.000372693
0.000365565
0.000345852
0.00031838
0.000284215
0.00025039
0.000222797
0.00019398
0.000170239
0.00016397
0.000162209
0.00016839
0.00019096
0.000219982
0.000248225
0.000283147
0.00031797
0.000345376
0.000364907
0.00037181
0.000377226
0.000375372
0.000363553
0.000347253
0.000329724
0.000313545
0.000299621
0.000287343
0.000277215
0.000269366
0.000267366
0.000274167
0.000283987
0.000296373
0.000310788
0.000327761
0.000346075
0.000362889
0.000374916
0.000376611
0.000381085
0.000385303
0.000382645
0.000377051
0.000370398
0.000363125
0.000355569
0.000347629
0.000339447
0.000331582
0.000330158
0.000337493
0.000345484
0.000353496
0.000361314
0.00036901
0.000376132
0.000382089
0.00038491
0.000380637
0.000385171
0.00039545
0.000400665
0.000402954
0.000403509
0.000402207
0.000398856
0.000393546
0.000386198
0.000377381
0.000376315
0.000384858
0.000392129
0.000397536
0.000401093
0.000402666
0.000402391
0.000400322
0.000395193
0.000384854
0.000390065
0.000406396
0.000418383
0.00042664
0.00043237
0.000435481
0.00043568
0.000432561
0.000425601
0.000415268
0.000414346
0.000424622
0.000431653
0.000434917
0.000434899
0.000431987
0.000426426
0.000418275
0.000406302
0.000389866
0.000396902
0.000420352
0.000438557
0.000451927
0.000461938
0.000468719
0.000472064
0.000471075
0.000464585
0.000452489
0.000451614
0.000463927
0.000470561
0.000471726
0.000468565
0.000461958
0.000452057
0.00043871
0.000420424
0.000396809
0.000407247
0.000437844
0.000462537
0.000480794
0.00049506
0.000505884
0.000512986
0.000515533
0.000512369
0.000502124
0.000501379
0.000512033
0.000515303
0.000512846
0.000505867
0.000495159
0.000480974
0.000462735
0.000437979
0.000407228
0.000309154
0.000296846
0.000261941
0.000208887
0.000159226
0.000147017
0.000139544
0.000122271
0.000105198
0.000103206
0.000103255
0.000106156
0.000124036
0.00014601
0.00015164
0.00015487
0.000182734
0.000243137
0.000277391
0.000299633
0.000338551
0.000473715
0.000457237
0.000402683
0.000370603
0.000354964
0.000308644
0.000250187
0.000240959
0.000298515
0.000294346
0.000249985
0.000254904
0.000311274
0.000360823
0.000377158
0.000404728
0.00045093
0.000476536
0.000335239
0.000354284
0.00048331
0.000490781
0.000443355
0.00038891
0.00035184
0.000313699
0.000277317
0.000270478
0.000330998
0.000317689
0.000270467
0.000281149
0.000318043
0.000354835
0.000390412
0.00044049
0.000485121
0.000480574
0.000352367
0.000365565
0.000494687
0.000511255
0.000466626
0.000393118
0.000341049
0.000301971
0.000264087
0.000249619
0.000324222
0.000303931
0.000245715
0.000267149
0.000304503
0.000341297
0.000391612
0.000462736
0.000505999
0.000491394
0.000364342
0.000375372
0.000516676
0.000547071
0.000516378
0.000438089
0.000365172
0.00031912
0.000278295
0.000257056
0.000269137
0.000261648
0.000254307
0.000276883
0.000317887
0.00036231
0.000434253
0.000512666
0.000543796
0.000514608
0.000374618
0.000385303
0.000535832
0.00057615
0.000569212
0.000518325
0.000437159
0.000379175
0.000337515
0.000314596
0.000311578
0.000306727
0.000310393
0.000333291
0.000374378
0.000430592
0.000512735
0.000566628
0.000575193
0.000535269
0.000384856
0.00039545
0.000547893
0.000591393
0.000611582
0.000611319
0.000581554
0.000517175
0.00045297
0.000408601
0.00039154
0.000387319
0.000401969
0.000441603
0.000506546
0.000574039
0.000606977
0.000610647
0.000592514
0.000548572
0.000395282
0.000406396
0.000552505
0.000593406
0.00063247
0.000666267
0.000679205
0.000672453
0.000654409
0.000626559
0.000597792
0.000594523
0.000621338
0.00065163
0.000671149
0.000679012
0.000667414
0.000634891
0.000596456
0.000554214
0.000406443
0.000420352
0.000536754
0.000584421
0.000620274
0.000647297
0.00066153
0.000665434
0.000653958
0.000620808
0.000572097
0.00056993
0.000619279
0.000654277
0.000667695
0.000665177
0.000651945
0.000625085
0.000588431
0.000538957
0.00042058
0.000437844
0.000469887
0.000496696
0.000517852
0.00053582
0.000550869
0.000562036
0.000567492
0.000565307
0.00055403
0.000553357
0.000565179
0.000567557
0.000562275
0.000551329
0.000536464
0.000518597
0.000497425
0.000470462
0.000438116
0.000272515
0.000261941
0.000232232
0.000192789
0.000169422
0.000167058
0.00016043
0.000141094
0.000122551
0.000114867
0.000114226
0.000122508
0.000143098
0.000166326
0.000171368
0.000170093
0.00017855
0.000212771
0.000244767
0.000259707
0.000314912
0.000457237
0.000460124
0.000433023
0.000424297
0.000420257
0.000372402
0.00030712
0.000295994
0.00034774
0.000343115
0.000301493
0.000313728
0.000375709
0.000427459
0.000434221
0.000438558
0.000454403
0.000446994
0.000307907
0.000330728
0.000490781
0.000518501
0.000485586
0.000444084
0.000414135
0.000380297
0.00035108
0.000346364
0.000393396
0.00037649
0.000342193
0.00035654
0.000385746
0.000417315
0.000445802
0.00048287
0.000510695
0.000484906
0.000329388
0.000345852
0.000511255
0.000549404
0.000519407
0.000455473
0.000406068
0.000369303
0.000339141
0.000339998
0.000403377
0.000384836
0.00033126
0.000342947
0.000373166
0.000406541
0.000452891
0.000513429
0.00054139
0.000503959
0.000344429
0.000363553
0.000547071
0.000595526
0.00057046
0.000487918
0.000410592
0.000359443
0.000317003
0.000295427
0.00032443
0.000310376
0.000290857
0.000319829
0.000361355
0.000409327
0.000484359
0.000565532
0.000590273
0.000542135
0.000362486
0.000382645
0.00057615
0.000632678
0.000618762
0.000539314
0.000440548
0.000372154
0.000320625
0.000289403
0.000292931
0.000286089
0.000285699
0.000320531
0.000371335
0.000437724
0.000536104
0.000616677
0.000631307
0.000574309
0.000382103
0.000400665
0.000591393
0.000653467
0.000653853
0.00059777
0.000512938
0.000439787
0.000381235
0.000342635
0.000332214
0.000327918
0.000338599
0.000377333
0.000436417
0.000509929
0.000596516
0.000655248
0.000656058
0.000592362
0.00040059
0.000418383
0.000593406
0.000666574
0.000694719
0.000680003
0.000633667
0.000584726
0.000537354
0.000491848
0.00045677
0.000454479
0.000489354
0.00053665
0.000585986
0.000636058
0.000684613
0.000702068
0.000673446
0.000596902
0.000418647
0.000438557
0.000584421
0.000703298
0.000811572
0.000878016
0.000908604
0.000912977
0.000890174
0.000827263
0.000729223
0.000726585
0.000825822
0.000892895
0.000920123
0.000919302
0.000890331
0.000823873
0.000712733
0.000589151
0.000439069
0.000462537
0.000496696
0.000524997
0.0005481
0.000568742
0.000587219
0.000602145
0.000610531
0.000609496
0.000596697
0.000596103
0.000609582
0.000610897
0.000602768
0.00058815
0.000569894
0.000549329
0.000526138
0.000497582
0.000463006
0.000211275
0.000208887
0.000192789
0.000178212
0.000174498
0.000179295
0.000171716
0.000152149
0.000134355
0.000126478
0.00012549
0.000134542
0.00015449
0.000177117
0.000185121
0.000178214
0.000175541
0.000179738
0.000183948
0.00017233
0.000284745
0.000402683
0.000433023
0.000443963
0.000459034
0.000452452
0.000397246
0.000338933
0.000338095
0.00039644
0.0003896
0.000342605
0.000348182
0.000401958
0.000457451
0.000468598
0.000453581
0.000436757
0.00040062
0.000282197
0.000303195
0.000443355
0.000485586
0.000479083
0.000462998
0.000444928
0.000419442
0.000397165
0.0003957
0.000450582
0.000430092
0.000389989
0.000404428
0.000427428
0.000449004
0.000466017
0.000479943
0.000482902
0.000439997
0.000303496
0.00031838
0.000466626
0.000519407
0.000510774
0.000474772
0.000441403
0.000415265
0.000396362
0.000406849
0.000464105
0.000440744
0.000394885
0.000399657
0.00042013
0.000442811
0.000472921
0.000505704
0.000512052
0.000459354
0.000317105
0.000347253
0.000516378
0.00057046
0.000560905
0.000505152
0.000448023
0.000407638
0.000376988
0.0003716
0.000426236
0.000405388
0.000363357
0.000380248
0.000410726
0.000447956
0.000502271
0.000555683
0.000563897
0.000509449
0.000345729
0.000377051
0.000569212
0.000618762
0.000610381
0.000546488
0.000468189
0.00040922
0.000363474
0.000337091
0.000356031
0.000342319
0.000333216
0.000366299
0.000411379
0.000468209
0.000545307
0.000608444
0.000615732
0.000565222
0.000376355
0.000402954
0.000611582
0.000653853
0.000648922
0.000593853
0.00051589
0.000451243
0.000399782
0.000362656
0.000355894
0.000350785
0.000362502
0.000402786
0.000454044
0.000518135
0.000596582
0.000651897
0.000655852
0.000611726
0.000402941
0.00042664
0.00063247
0.000694719
0.000719004
0.000689854
0.000633959
0.000584008
0.000540823
0.000495727
0.000455552
0.000455323
0.00049959
0.000548108
0.000592657
0.00064313
0.00070056
0.00073097
0.00070494
0.000637658
0.000427087
0.000451927
0.000620274
0.000811572
0.00097691
0.000995204
0.00100948
0.00103388
0.00103997
0.000985144
0.000871889
0.000872113
0.000989404
0.00104946
0.00104841
0.001027
0.0010147
0.000996722
0.000826451
0.000627331
0.000452698
0.000480794
0.000517852
0.0005481
0.000573416
0.000597433
0.000620198
0.000639523
0.000651834
0.000653436
0.000642221
0.000642053
0.000654029
0.000652767
0.000640734
0.000621674
0.000599108
0.000575077
0.000549572
0.000518975
0.000481426
0.000126275
0.000159226
0.000169422
0.000174498
0.000183257
0.00018554
0.000175562
0.00015755
0.000141882
0.000135607
0.000134428
0.000142207
0.000160164
0.000180393
0.000191944
0.000188903
0.000178985
0.000170598
0.000155275
0.000123309
0.000259817
0.000370603
0.000424297
0.000459034
0.000473885
0.000451572
0.000395395
0.000357185
0.000367018
0.000438905
0.000430834
0.000370534
0.000368501
0.000404383
0.000455671
0.000479418
0.000468236
0.000433792
0.000376387
0.000258789
0.000273053
0.00038891
0.000444084
0.000462998
0.00046539
0.000456116
0.000441416
0.000422869
0.000427421
0.000501713
0.000476895
0.000420443
0.000431301
0.000452897
0.000463384
0.000469929
0.000466839
0.000446868
0.00039115
0.000274426
0.000284215
0.000393118
0.000455473
0.000474772
0.000467919
0.000454518
0.00044248
0.000434617
0.000452403
0.000520976
0.000493327
0.000438388
0.000437516
0.000449178
0.000458992
0.000469385
0.00047413
0.000453603
0.000390829
0.000282734
0.000329724
0.000438089
0.000487918
0.000505152
0.000487735
0.000460861
0.000438921
0.000423655
0.00043581
0.000504003
0.000479172
0.000424327
0.000426132
0.000443241
0.000463386
0.00048801
0.000503445
0.000484489
0.000432992
0.000327617
0.000370398
0.000518325
0.000539314
0.000546488
0.000520326
0.000478263
0.000440857
0.000411528
0.000406458
0.000458208
0.000439927
0.000400604
0.000415356
0.000445186
0.00048119
0.000521948
0.000546263
0.000536268
0.000512663
0.000369504
0.000403509
0.000611319
0.00059777
0.000593853
0.000566988
0.000520937
0.000476432
0.000439232
0.000418975
0.000441428
0.000435946
0.000421297
0.000446161
0.000483291
0.000527226
0.000572982
0.000598234
0.000598819
0.000609611
0.000403524
0.00043237
0.000666267
0.000680003
0.000689854
0.000666276
0.000622903
0.00058347
0.000550158
0.000513958
0.000484152
0.000487558
0.000523827
0.000563396
0.000597463
0.000637175
0.000681113
0.000704016
0.000690942
0.000673042
0.000432964
0.000461938
0.000647297
0.000878016
0.000995204
0.00105455
0.00110713
0.00116307
0.00118281
0.00111058
0.000951805
0.000957633
0.00112178
0.00119794
0.00118257
0.00113004
0.00107901
0.00101859
0.000896453
0.000655926
0.00046292
0.00049506
0.00053582
0.000568742
0.000597433
0.000626931
0.000654651
0.000678191
0.000694177
0.00069874
0.000689831
0.000690067
0.000699832
0.000695599
0.000679862
0.000656554
0.000628997
0.000599454
0.000570461
0.000537125
0.000495831
0.000113386
0.000147017
0.000167058
0.000179295
0.00018554
0.000183779
0.000173602
0.000159738
0.000147748
0.000144154
0.000142823
0.000148096
0.000162404
0.000178121
0.000189749
0.000192127
0.000185934
0.000173752
0.000150891
0.000114619
0.000233154
0.000354964
0.000420257
0.000452452
0.000451572
0.000421483
0.000387167
0.000369904
0.000390819
0.000470991
0.000462987
0.00039329
0.00038112
0.000399866
0.000429415
0.000455169
0.000456401
0.000426375
0.000362294
0.000233539
0.000242124
0.00035184
0.000414135
0.000444928
0.000456116
0.000456616
0.000448038
0.000432712
0.000447515
0.000528219
0.00050416
0.000439616
0.000440929
0.000461704
0.000469214
0.000464326
0.000450693
0.000419238
0.000356682
0.00024429
0.00025039
0.000341049
0.000406068
0.000441403
0.000454518
0.000457793
0.000457122
0.000456
0.000477626
0.000543296
0.000516532
0.000463262
0.000458981
0.000465637
0.000466327
0.000460754
0.000445709
0.000409363
0.000342986
0.000248368
0.000313545
0.000365172
0.000410592
0.000448023
0.000460861
0.00045977
0.000454789
0.000452692
0.000476389
0.000536543
0.000514662
0.000464254
0.000454796
0.000460531
0.000465535
0.000465491
0.00045135
0.000412431
0.000364218
0.000310876
0.000363125
0.000437159
0.000440548
0.000468189
0.000478263
0.000469685
0.000454748
0.000443251
0.000457633
0.000512704
0.000497188
0.000451241
0.000447524
0.00046095
0.000475614
0.000483403
0.000471634
0.000440838
0.000432656
0.000362045
0.000402207
0.000581554
0.000512938
0.00051589
0.000520937
0.000507474
0.000484775
0.000463827
0.000463529
0.000507252
0.000503346
0.000467445
0.000472853
0.000494301
0.000516781
0.000529715
0.000522539
0.000515175
0.000577652
0.000402215
0.000435481
0.000679205
0.000633667
0.000633959
0.000622903
0.000599676
0.000577636
0.000555637
0.000525108
0.000503534
0.000509647
0.000538543
0.000572111
0.000594845
0.000617105
0.000640241
0.000649677
0.000645351
0.000685972
0.00043618
0.000468719
0.00066153
0.000908604
0.00100948
0.00110713
0.00120205
0.00127991
0.00129082
0.00116509
0.000915367
0.000925487
0.00118204
0.0013093
0.00130154
0.00122714
0.00113372
0.00103445
0.000929244
0.000670904
0.000469857
0.000505884
0.000550869
0.000587219
0.000620198
0.000654651
0.000687007
0.00071479
0.000734846
0.000743531
0.00073933
0.000739691
0.000744954
0.000736648
0.000716828
0.000689247
0.000656999
0.000622452
0.000589117
0.000552326
0.000506786
0.000105653
0.000139544
0.00016043
0.000171716
0.000175562
0.000173602
0.000167742
0.000159811
0.000153195
0.000154594
0.000153115
0.000153373
0.000162096
0.00017158
0.000178462
0.000180894
0.000177665
0.000166802
0.00014496
0.000108689
0.000186865
0.000308644
0.000372402
0.000397246
0.000395395
0.000387167
0.000380266
0.000380466
0.000414162
0.000496797
0.000490381
0.000415426
0.000389563
0.000392299
0.00039909
0.000403494
0.000400806
0.000374502
0.000311164
0.000183323
0.0002063
0.000313699
0.000380297
0.000419442
0.000441416
0.000448038
0.000441738
0.000435016
0.000460258
0.000512647
0.000494706
0.000452004
0.000441368
0.000453695
0.000461917
0.000453984
0.000429394
0.000387892
0.00031996
0.000209238
0.000222797
0.000301971
0.000369303
0.000415265
0.00044248
0.000457122
0.000462584
0.000463826
0.000484361
0.000491204
0.000474507
0.000471188
0.000466182
0.000471167
0.000467686
0.000452584
0.000424065
0.000376655
0.000306775
0.000220707
0.000299621
0.00031912
0.000359443
0.000407638
0.000438921
0.000454789
0.000461591
0.000468069
0.000489307
0.000464814
0.000453621
0.000479141
0.000470237
0.000468103
0.00046271
0.000447008
0.000415176
0.000365342
0.000320553
0.000296644
0.000355569
0.000379175
0.000372154
0.00040922
0.000440857
0.000454748
0.000457315
0.000460177
0.00047782
0.000445019
0.000438448
0.000473052
0.000464778
0.000464733
0.000462853
0.000448832
0.000415917
0.000375705
0.0003773
0.000354405
0.000398856
0.000517175
0.000439787
0.000451243
0.000476432
0.000484775
0.000479064
0.000472828
0.000484611
0.000478816
0.000479501
0.000489835
0.000483039
0.00049025
0.000496106
0.000487338
0.000460141
0.000443853
0.000512134
0.000398867
0.00043568
0.000672453
0.000584726
0.000584008
0.00058347
0.000577636
0.000568176
0.000549481
0.000517099
0.000492234
0.000499067
0.000531786
0.000567427
0.000587252
0.000597194
0.000602863
0.000601747
0.000598424
0.000678613
0.000436449
0.000472064
0.000665434
0.000912977
0.00103388
0.00116307
0.00127991
0.00135684
0.00132181
0.00109501
0.000776437
0.000782944
0.00111655
0.00134364
0.00137995
0.00130638
0.00119089
0.00106002
0.00093568
0.000675362
0.000473325
0.000512986
0.000562036
0.000602145
0.000639523
0.000678191
0.00071479
0.000747231
0.000772545
0.000788711
0.000797014
0.000797064
0.000790235
0.000774674
0.000749638
0.000717394
0.000680859
0.000642036
0.00060424
0.00056366
0.000514018
9.14304e-05
0.000122271
0.000141094
0.000152149
0.00015755
0.000159738
0.000159811
0.000158813
0.00015893
0.000165839
0.000164221
0.000158672
0.000160147
0.000162342
0.000163027
0.000161099
0.000155525
0.000143615
0.000122169
9.06713e-05
0.000114679
0.000250187
0.00030712
0.000338933
0.000357185
0.000369904
0.000380466
0.000397057
0.00042654
0.000407161
0.000402692
0.000426181
0.000401453
0.000387512
0.000378417
0.000365844
0.000345692
0.000311294
0.000251992
0.000115749
0.000164145
0.000277317
0.00035108
0.000397165
0.000422869
0.000432712
0.000435016
0.00044
0.000430017
0.000299658
0.000289963
0.000423849
0.000442319
0.000441461
0.000441278
0.000432116
0.00040578
0.000357891
0.000282201
0.000167348
0.00019398
0.000264087
0.000339141
0.000396362
0.000434617
0.000456
0.000463826
0.000464371
0.000419764
0.000268399
0.000257749
0.000411095
0.000464325
0.000468661
0.000463549
0.000443441
0.000405168
0.000346775
0.00026871
0.000192623
0.000287343
0.000278295
0.000317003
0.000376988
0.000423655
0.000452692
0.000468069
0.000472279
0.000401678
0.000284494
0.000274364
0.000396771
0.00047402
0.000473368
0.000459606
0.000431558
0.000385131
0.000323531
0.000279842
0.000284125
0.000347629
0.000337515
0.000320625
0.000363474
0.000411528
0.000443251
0.000460177
0.000464414
0.000380826
0.000319939
0.000309193
0.000380236
0.000469084
0.000467017
0.000450878
0.000419309
0.000370276
0.000324465
0.000336051
0.000346419
0.000393546
0.00045297
0.000381235
0.000399782
0.000439232
0.000463827
0.000472828
0.000475333
0.000417294
0.000387722
0.000380746
0.000424932
0.000486345
0.000484551
0.000475545
0.000450466
0.000409136
0.000385548
0.000447899
0.000393564
0.000432561
0.000654409
0.000537354
0.000540823
0.000550158
0.000555637
0.000549481
0.000525244
0.000484204
0.000462506
0.000461219
0.000498058
0.000543838
0.000569696
0.000576768
0.000571214
0.000560055
0.000551987
0.000659199
0.00043335
0.000471075
0.000653958
0.000890174
0.00103997
0.00118281
0.00129082
0.00132181
0.00117983
0.000895159
0.00081794
0.000814696
0.000909739
0.00120527
0.0013494
0.00132002
0.00121265
0.00106712
0.000913286
0.000663686
0.000472393
0.000515533
0.000567492
0.000610531
0.000651834
0.000694177
0.000734846
0.000772545
0.000806098
0.000838637
0.000875413
0.000874867
0.00083997
0.000808484
0.000775409
0.000737913
0.000697274
0.000654697
0.000612904
0.000569313
0.00051669
8.82904e-05
0.000105198
0.000122551
0.000134355
0.000141882
0.000147748
0.000153195
0.00015893
0.000164723
0.000173362
0.00017198
0.000163546
0.000158634
0.000153576
0.000148624
0.000142974
0.000135306
0.000122689
0.000104155
8.71167e-05
0.000112865
0.000240959
0.000295994
0.000338095
0.000367018
0.000390819
0.000414162
0.00042654
0.000342799
0.000398745
0.000391503
0.00034029
0.000423306
0.000412671
0.000390814
0.0003682
0.00033962
0.000296161
0.000241443
0.000112938
0.000123772
0.000270478
0.000346364
0.0003957
0.000427421
0.000447515
0.000460258
0.000430017
0.000263485
0.000492944
0.000484348
0.000258621
0.000424138
0.000456025
0.000444842
0.000426125
0.000395183
0.000345591
0.000268712
0.000123693
0.000170239
0.000249619
0.000339998
0.000406849
0.000452403
0.000477626
0.000484361
0.000419764
0.000265823
0.000657687
0.000649525
0.000261095
0.000412826
0.000479469
0.000473816
0.000450311
0.000406583
0.000340812
0.000250352
0.00016441
0.000277215
0.000257056
0.000295427
0.0003716
0.00043581
0.000476389
0.000489307
0.000401678
0.000304205
0.000857699
0.000851194
0.000303089
0.000398537
0.000487438
0.000474388
0.000434268
0.000371423
0.000296086
0.000255426
0.000273552
0.000339447
0.000314596
0.000289403
0.000337091
0.000406458
0.000457633
0.00047782
0.000380826
0.000355481
0.00105385
0.00104669
0.000356201
0.00038177
0.000478897
0.000457286
0.000405465
0.000336776
0.00028911
0.000311929
0.000338203
0.000386198
0.000408601
0.000342635
0.000362656
0.000418975
0.000463529
0.000484611
0.000417294
0.000433753
0.00119431
0.0011859
0.000437845
0.000427208
0.000494007
0.000471266
0.000425463
0.000368143
0.000344295
0.000403831
0.000386257
0.000425601
0.000626559
0.000491848
0.000495727
0.000513958
0.000525108
0.000517099
0.000484204
0.0005153
0.00123529
0.00122223
0.000521222
0.000500949
0.000536741
0.000545888
0.000534636
0.000514183
0.000505201
0.000629783
0.000426411
0.000464585
0.000620808
0.000827263
0.000985144
0.00111058
0.00116509
0.00109501
0.000895159
0.000880195
0.00123029
0.00122055
0.000884446
0.00091124
0.00112309
0.00119707
0.00114258
0.00101236
0.000848948
0.000629587
0.000465899
0.000512369
0.000565307
0.000609496
0.000653436
0.00069874
0.000743531
0.000788711
0.000838637
0.000901466
0.000973792
0.000972414
0.000903049
0.000841275
0.000792004
0.000747143
0.000702368
0.000656704
0.000612151
0.000567307
0.000513618
8.86717e-05
0.000103206
0.000114867
0.000126478
0.000135607
0.000144154
0.000154594
0.000165839
0.000173362
0.000180181
0.000178374
0.000171069
0.000162923
0.000152039
0.000142057
0.000133852
0.000124925
0.000113444
0.000102087
8.77239e-05
0.000116327
0.000298515
0.00034774
0.00039644
0.000438905
0.000470991
0.000496797
0.000407161
0.000398745
0.0002603
0.000252419
0.000383755
0.000393633
0.000485479
0.0004617
0.000431217
0.000388227
0.000341045
0.000294909
0.000116205
0.000132477
0.000330998
0.000393396
0.000450582
0.000501713
0.000528219
0.000512647
0.000299658
0.000492944
0.000381692
0.000370179
0.00048752
0.000285411
0.000494736
0.000511802
0.000487277
0.000436884
0.000381259
0.000320696
0.000131752
0.00016397
0.000324222
0.000403377
0.000464105
0.000520976
0.000543296
0.000491204
0.000268399
0.000657687
0.000512978
0.000498568
0.000663576
0.000258101
0.000473419
0.00052657
0.000506238
0.000451119
0.000392589
0.000327494
0.000154429
0.000269366
0.000269137
0.00032443
0.000426236
0.000504003
0.000536543
0.000464814
0.000284494
0.000857699
0.00066074
0.000643944
0.000877083
0.000281425
0.000449528
0.000521523
0.00048835
0.00041237
0.000316201
0.000265098
0.000265088
0.000331582
0.000311578
0.000292931
0.000356031
0.000458208
0.000512704
0.000445019
0.000319939
0.00105385
0.000822775
0.000803898
0.00108285
0.000322659
0.000434917
0.000499608
0.000441453
0.000342113
0.000286761
0.000307046
0.000330366
0.000377381
0.00039154
0.000332214
0.000355894
0.000441428
0.000507252
0.000478816
0.000387722
0.00119431
0.000983556
0.000962943
0.0012277
0.000396696
0.000482303
0.000506187
0.000437384
0.000353725
0.000330046
0.000386008
0.000377642
0.000415268
0.000597792
0.00045677
0.000455552
0.000484152
0.000503534
0.000492234
0.000462506
0.00123529
0.00110999
0.00108742
0.00126335
0.000473492
0.000507057
0.000520298
0.00050117
0.000470908
0.000468063
0.000600233
0.000416283
0.000452489
0.000572097
0.000729223
0.000871889
0.000951805
0.000915367
0.000776437
0.00081794
0.00123029
0.00118897
0.00116631
0.00124615
0.000827829
0.000794035
0.000946528
0.000984908
0.000898145
0.000750266
0.000580694
0.000453906
0.000502124
0.00055403
0.000596697
0.000642221
0.000689831
0.000739329
0.000797014
0.000875413
0.000973792
0.00101593
0.00101034
0.000977481
0.000879433
0.000801028
0.00074362
0.000694126
0.000645978
0.000599703
0.000556239
0.000503463
8.89413e-05
0.000103255
0.000114226
0.00012549
0.000134428
0.000142823
0.000153115
0.000164221
0.00017198
0.000178374
0.000176795
0.000169897
0.000161458
0.000150257
0.000139864
0.000131356
0.00012236
0.000111444
0.000102041
8.82148e-05
0.000116627
0.000294346
0.000343115
0.0003896
0.000430834
0.000462987
0.000490381
0.000402692
0.000391503
0.000252419
0.000246195
0.000380372
0.000390279
0.000480793
0.000455643
0.000426083
0.000386034
0.000342427
0.000293897
0.000115894
0.000131209
0.000317689
0.00037649
0.000430092
0.000476896
0.00050416
0.000494706
0.000289963
0.000484348
0.000370179
0.000361448
0.000484157
0.000277493
0.000484529
0.000499228
0.00047679
0.000431999
0.000381009
0.000325138
0.000130289
0.000162209
0.000303931
0.000384836
0.000440744
0.000493327
0.000516532
0.000474507
0.000257749
0.000649525
0.000498568
0.000487005
0.000658902
0.000249998
0.000464476
0.00051208
0.000494036
0.000443988
0.00039012
0.000329179
0.00014828
0.000267366
0.000261648
0.000310376
0.000405388
0.000479172
0.000514662
0.000453621
0.000274364
0.000851194
0.000643944
0.000629004
0.000869452
0.000271321
0.00044632
0.000509969
0.000477496
0.000406723
0.000312673
0.000261283
0.000261054
0.000330158
0.000306727
0.000286089
0.000342319
0.000439927
0.000497188
0.000438448
0.000309193
0.00104669
0.000803898
0.000785311
0.00107059
0.000308979
0.000435645
0.000492514
0.0004345
0.000338599
0.000282845
0.000302348
0.000328459
0.000376315
0.000387319
0.000327918
0.000350785
0.000435946
0.000503346
0.000479501
0.000380746
0.0011859
0.000962943
0.000940981
0.00121021
0.000382505
0.000483478
0.000502956
0.000434249
0.000350681
0.000325269
0.000381226
0.000376738
0.000414346
0.000594523
0.000454479
0.000455323
0.000487558
0.000509647
0.000499067
0.000461219
0.00122223
0.00108742
0.00106282
0.00123928
0.000466253
0.000511283
0.00052311
0.000501516
0.000468665
0.000464176
0.000596313
0.000415823
0.000451614
0.00056993
0.000726585
0.000872113
0.000957633
0.000925487
0.000782944
0.000814696
0.00122055
0.00116631
0.00114147
0.0012287
0.000819168
0.00080505
0.00096162
0.000991685
0.000898768
0.000746287
0.000579544
0.000453597
0.000501379
0.000553357
0.000596103
0.000642053
0.000690067
0.000739691
0.000797064
0.000874867
0.000972414
0.00101034
0.00100293
0.000973918
0.000876835
0.00079977
0.000743327
0.00069407
0.000645794
0.00059923
0.000555869
0.000503211
8.93297e-05
0.000106156
0.000122508
0.000134542
0.000142207
0.000148096
0.000153373
0.000158672
0.000163546
0.000171069
0.000169897
0.000162227
0.000157501
0.000152011
0.000146325
0.000139823
0.000131355
0.000117956
0.000104002
8.84947e-05
0.000114239
0.000249985
0.000301493
0.000342605
0.000370534
0.00039329
0.000415426
0.000426181
0.00034029
0.000383755
0.000380372
0.000336835
0.000421934
0.000410986
0.00038937
0.000367597
0.000340899
0.000300611
0.000253272
0.000113618
0.000122443
0.000270467
0.000342193
0.000389989
0.000420443
0.000439616
0.000452004
0.000423849
0.000258621
0.00048752
0.000484157
0.000252875
0.000419697
0.000449852
0.000438493
0.000420402
0.00039113
0.000343798
0.000270861
0.000123114
0.00016839
0.000245715
0.00033126
0.000394885
0.000438388
0.000463262
0.000471188
0.000411095
0.000261095
0.000663575
0.000658902
0.000256471
0.000408065
0.000470909
0.000464865
0.000442538
0.000401559
0.000338823
0.00025006
0.000152772
0.000274167
0.000254307
0.000290857
0.000363357
0.000424327
0.000464254
0.000479141
0.000396771
0.000303089
0.000877083
0.000869452
0.000299222
0.000397294
0.000481118
0.000467394
0.000429295
0.000369701
0.0002954
0.00025066
0.000267195
0.000337493
0.000310393
0.000285699
0.000333216
0.000400604
0.000451241
0.000473052
0.000380236
0.000356201
0.00108285
0.00107059
0.00035121
0.000384547
0.000477058
0.000454856
0.000404419
0.000336655
0.000285851
0.00030487
0.000335533
0.000384858
0.000401969
0.000338599
0.000362502
0.000421297
0.000467445
0.000489835
0.000424932
0.000437845
0.0012277
0.0012102
0.000431677
0.000432392
0.000495883
0.000472475
0.00042579
0.000366016
0.000337742
0.000395306
0.000385245
0.000424622
0.000621338
0.000489354
0.00049959
0.000523827
0.000538543
0.000531786
0.000498058
0.000521222
0.00126335
0.00123928
0.000519132
0.000511216
0.000546312
0.000552812
0.000537428
0.000511824
0.000499171
0.000625739
0.000426162
0.000463927
0.000619279
0.000825822
0.000989404
0.00112178
0.00118204
0.00111655
0.000909739
0.000884446
0.00124615
0.0012287
0.00088106
0.000933562
0.00115258
0.00121254
0.00114744
0.00100967
0.00084409
0.000629852
0.000465958
0.000512033
0.000565179
0.000609582
0.000654029
0.000699832
0.000744954
0.000790235
0.00083997
0.000903049
0.000977481
0.000973918
0.000902335
0.000841084
0.000792671
0.000747921
0.000702907
0.000656866
0.000612017
0.000567262
0.000513663
9.36658e-05
0.000124036
0.000143098
0.00015449
0.000160164
0.000162404
0.000162096
0.000160147
0.000158634
0.000162923
0.000161458
0.000157501
0.00015952
0.00016159
0.000161723
0.000158964
0.000152354
0.000138965
0.000119688
9.24541e-05
0.000116988
0.000254904
0.000313728
0.000348182
0.000368501
0.00038112
0.000389563
0.000401453
0.000423306
0.000393633
0.000390279
0.000421934
0.000402025
0.000390214
0.000381578
0.000368666
0.000347521
0.000311291
0.000251051
0.000116439
0.000165893
0.000281149
0.00035654
0.000404428
0.000431301
0.000440929
0.000441368
0.000442319
0.000424138
0.000285411
0.000277493
0.000419697
0.000441964
0.000441311
0.000441036
0.000432198
0.000406247
0.000358306
0.000281485
0.000156904
0.00019096
0.000267149
0.000342947
0.000399657
0.000437516
0.000458981
0.000466182
0.000464325
0.000412826
0.000258101
0.000249998
0.000408065
0.000463463
0.000466979
0.000461558