/*--------------------------------*- C++ -*----------------------------------*\
  =========                 |
  \\      /  F ield         | OpenFOAM: The Open Source CFD Toolbox
   \\    /   O peration     | Website:  https://openfoam.org
    \\  /    A nd           | Version:  9
     \\/     M anipulation  |
\*---------------------------------------------------------------------------*/
FoamFile
{
    format      ascii;
    class       volScalarField;
    location    "450";
    object      epsilon;
}
// * * * * * * * * * * * * * * * * * * * * * * * * * * * * * * * * * * * * * //

dimensions      [0 2 -3 0 0 0 0];

internalField   nonuniform List<scalar> 
4000
(
2.12465e-07
2.08571e-07
2.06799e-07
2.06914e-07
2.07483e-07
2.0861e-07
2.09537e-07
2.12408e-07
2.17341e-07
2.23883e-07
2.2942e-07
2.28669e-07
2.22511e-07
2.16697e-07
2.1751e-07
2.22496e-07
2.30556e-07
2.41848e-07
2.53563e-07
2.48404e-07
2.25441e-07
2.36106e-07
2.43991e-07
2.51839e-07
2.54516e-07
2.53787e-07
2.56479e-07
2.69905e-07
2.90906e-07
3.14458e-07
3.31397e-07
3.25416e-07
3.00273e-07
2.69729e-07
2.45861e-07
2.35496e-07
2.36553e-07
2.45464e-07
2.57582e-07
2.50916e-07
3.74915e-07
3.73185e-07
3.43512e-07
3.07294e-07
2.81336e-07
2.8161e-07
2.95365e-07
3.22523e-07
3.64403e-07
4.08577e-07
4.4459e-07
4.32331e-07
3.74778e-07
3.0919e-07
2.61355e-07
2.36862e-07
2.34856e-07
2.47844e-07
2.61344e-07
2.62158e-07
9.09469e-07
8.83473e-07
8.18532e-07
7.23471e-07
6.29302e-07
5.62231e-07
5.32751e-07
5.43962e-07
5.85516e-07
6.31732e-07
6.99038e-07
6.99132e-07
6.09708e-07
4.75441e-07
3.62251e-07
3.0362e-07
2.98551e-07
3.20695e-07
3.54011e-07
3.91114e-07
1.35119e-06
1.41606e-06
1.44381e-06
1.42555e-06
1.38474e-06
1.34318e-06
1.3087e-06
1.27754e-06
1.23449e-06
1.18744e-06
1.24558e-06
1.27691e-06
1.21702e-06
1.0782e-06
8.97331e-07
7.30428e-07
6.35971e-07
6.27087e-07
6.67667e-07
7.03145e-07
1.62459e-06
1.83568e-06
2.0376e-06
2.20205e-06
2.33478e-06
2.42617e-06
2.44959e-06
2.39194e-06
2.26281e-06
2.12191e-06
2.14484e-06
2.1859e-06
2.14641e-06
2.0284e-06
1.83937e-06
1.59539e-06
1.34985e-06
1.17079e-06
1.06373e-06
9.49684e-07
1.87215e-06
2.27626e-06
2.69876e-06
3.07792e-06
3.39508e-06
3.617e-06
3.71395e-06
3.67479e-06
3.51994e-06
3.3258e-06
3.32012e-06
3.35064e-06
3.28916e-06
3.12945e-06
2.87776e-06
2.55103e-06
2.18211e-06
1.8121e-06
1.47184e-06
1.14871e-06
2.14205e-06
2.7451e-06
3.39939e-06
3.99678e-06
4.50512e-06
4.89391e-06
5.1241e-06
5.16389e-06
5.02456e-06
4.79252e-06
4.77194e-06
4.78916e-06
4.6672e-06
4.39877e-06
4.00239e-06
3.51678e-06
2.98287e-06
2.42777e-06
1.8752e-06
1.34022e-06
2.44963e-06
3.30444e-06
4.21325e-06
5.06435e-06
5.82237e-06
6.42802e-06
6.83087e-06
6.99376e-06
6.91308e-06
6.66444e-06
6.6119e-06
6.58176e-06
6.35816e-06
5.93592e-06
5.3419e-06
4.62638e-06
3.85272e-06
3.07046e-06
2.29206e-06
1.53741e-06
2.8285e-06
3.95806e-06
5.08882e-06
6.08125e-06
6.93268e-06
7.62963e-06
8.16167e-06
8.51165e-06
8.6468e-06
8.53072e-06
8.33356e-06
8.08406e-06
7.64197e-06
7.05932e-06
6.36371e-06
5.57167e-06
4.70215e-06
3.77443e-06
2.78911e-06
1.78911e-06
2.08571e-07
2.34117e-07
2.54805e-07
2.77671e-07
3.02703e-07
3.27583e-07
3.49715e-07
3.71202e-07
3.96794e-07
4.25893e-07
4.45417e-07
4.37814e-07
4.03069e-07
3.58503e-07
3.24985e-07
3.0687e-07
3.03105e-07
3.06212e-07
2.9873e-07
2.55462e-07
2.36106e-07
2.55106e-07
2.73105e-07
2.82644e-07
2.86293e-07
2.90474e-07
2.9654e-07
3.08096e-07
3.2819e-07
3.5324e-07
3.72519e-07
3.72737e-07
3.55119e-07
3.25964e-07
2.93014e-07
2.6826e-07
2.59236e-07
2.60551e-07
2.60647e-07
2.6661e-07
3.73185e-07
4.35209e-07
4.10685e-07
3.92865e-07
3.86578e-07
3.77868e-07
3.61295e-07
3.52404e-07
3.61702e-07
3.86914e-07
4.13079e-07
4.1052e-07
3.77223e-07
3.34751e-07
2.98607e-07
2.73531e-07
2.62812e-07
2.61188e-07
2.65246e-07
2.82317e-07
8.83473e-07
9.55629e-07
8.58262e-07
7.20717e-07
5.95739e-07
5.14142e-07
4.74778e-07
4.67743e-07
4.83204e-07
5.10189e-07
5.43472e-07
5.34979e-07
4.79989e-07
4.0644e-07
3.46391e-07
3.17241e-07
3.17664e-07
3.44043e-07
4.04282e-07
4.19906e-07
1.41606e-06
1.3373e-06
1.31083e-06
1.25466e-06
1.15777e-06
1.03637e-06
9.22135e-07
8.44197e-07
8.13354e-07
7.98854e-07
8.17436e-07
8.19052e-07
7.75762e-07
6.87969e-07
5.93107e-07
5.36478e-07
5.40696e-07
6.09176e-07
7.0595e-07
7.1651e-07
1.83568e-06
1.62287e-06
1.69703e-06
1.7941e-06
1.86688e-06
1.87022e-06
1.79175e-06
1.63715e-06
1.44212e-06
1.29673e-06
1.28306e-06
1.32902e-06
1.37562e-06
1.37797e-06
1.31062e-06
1.19334e-06
1.07544e-06
9.91325e-07
9.42234e-07
9.64155e-07
2.27626e-06
2.07551e-06
2.28982e-06
2.52095e-06
2.71563e-06
2.79039e-06
2.73572e-06
2.55082e-06
2.28947e-06
2.06705e-06
2.04238e-06
2.13812e-06
2.23609e-06
2.26801e-06
2.1858e-06
1.99904e-06
1.73373e-06
1.44759e-06
1.21256e-06
1.1809e-06
2.7451e-06
2.78025e-06
3.2076e-06
3.57629e-06
3.87608e-06
4.04723e-06
4.0799e-06
3.95112e-06
3.66907e-06
3.38409e-06
3.38393e-06
3.54612e-06
3.60848e-06
3.53318e-06
3.29715e-06
2.94447e-06
2.52158e-06
2.076e-06
1.65574e-06
1.43845e-06
3.30444e-06
3.94416e-06
4.80522e-06
5.56565e-06
6.22392e-06
6.69938e-06
6.94179e-06
6.89166e-06
6.56855e-06
6.14771e-06
6.21004e-06
6.4538e-06
6.46472e-06
6.16466e-06
5.58952e-06
4.83341e-06
4.00671e-06
3.20205e-06
2.43534e-06
1.80973e-06
3.95806e-06
5.41793e-06
6.93303e-06
8.32897e-06
9.58552e-06
1.06677e-05
1.15463e-05
1.21802e-05
1.25036e-05
1.24619e-05
1.21755e-05
1.17127e-05
1.0947e-05
9.96959e-06
8.83455e-06
7.58373e-06
6.26602e-06
4.92621e-06
3.57519e-06
2.28716e-06
2.06799e-07
2.54805e-07
2.83624e-07
3.13604e-07
3.52158e-07
3.99342e-07
4.47278e-07
4.9313e-07
5.4246e-07
5.93643e-07
6.25563e-07
6.06837e-07
5.45467e-07
4.61293e-07
3.99015e-07
3.71759e-07
3.75387e-07
3.75234e-07
3.46196e-07
2.59959e-07
2.43991e-07
2.73105e-07
3.01497e-07
3.19322e-07
3.31022e-07
3.43356e-07
3.57835e-07
3.75627e-07
4.01485e-07
4.33079e-07
4.57096e-07
4.5713e-07
4.37471e-07
4.02663e-07
3.62499e-07
3.34382e-07
3.2485e-07
3.22417e-07
3.10135e-07
2.96565e-07
3.43512e-07
4.10685e-07
4.28116e-07
4.43138e-07
4.48668e-07
4.40489e-07
4.23405e-07
4.09166e-07
4.12314e-07
4.36696e-07
4.64654e-07
4.61956e-07
4.29704e-07
3.92304e-07
3.59199e-07
3.3481e-07
3.23086e-07
3.15513e-07
3.037e-07
2.93115e-07
8.18532e-07
8.58262e-07
7.652e-07
6.60335e-07
5.90096e-07
5.59941e-07
5.39797e-07
5.11122e-07
4.95493e-07
5.11756e-07
5.42843e-07
5.25772e-07
4.6857e-07
4.15367e-07
3.8486e-07
3.70149e-07
3.63071e-07
3.71016e-07
4.17653e-07
4.37898e-07
1.44381e-06
1.31083e-06
1.18411e-06
1.05157e-06
9.07222e-07
7.74245e-07
6.92069e-07
6.57399e-07
6.60452e-07
6.8653e-07
7.20362e-07
6.9035e-07
6.0997e-07
5.2729e-07
4.65817e-07
4.38461e-07
4.69513e-07
5.70989e-07
7.11205e-07
7.5121e-07
2.0376e-06
1.69703e-06
1.54297e-06
1.44774e-06
1.35736e-06
1.25337e-06
1.14852e-06
1.05817e-06
9.86306e-07
9.58068e-07
9.8037e-07
9.55434e-07
9.00588e-07
8.46971e-07
7.93897e-07
7.57936e-07
7.81121e-07
8.50178e-07
9.47871e-07
1.04495e-06
2.69876e-06
2.28982e-06
2.19907e-06
2.15298e-06
2.0739e-06
1.9286e-06
1.73689e-06
1.58901e-06
1.46757e-06
1.41021e-06
1.43958e-06
1.44115e-06
1.41316e-06
1.37636e-06
1.33099e-06
1.32451e-06
1.27913e-06
1.23838e-06
1.24066e-06
1.34791e-06
3.39939e-06
3.2076e-06
3.43948e-06
3.63306e-06
3.6767e-06
3.55824e-06
3.29848e-06
2.93226e-06
2.69274e-06
2.53044e-06
2.61697e-06
2.81005e-06
2.94866e-06
2.94309e-06
2.82221e-06
2.57669e-06
2.29269e-06
2.0107e-06
1.78731e-06
1.73537e-06
4.21325e-06
4.80522e-06
6.02858e-06
7.17215e-06
8.08536e-06
8.65051e-06
8.84044e-06
8.56084e-06
7.90034e-06
7.27376e-06
7.35732e-06
7.87567e-06
8.19578e-06
7.98142e-06
7.24358e-06
6.17072e-06
4.972e-06
3.8397e-06
2.89577e-06
2.26293e-06
5.08882e-06
6.93303e-06
8.81841e-06
1.05927e-05
1.22324e-05
1.3693e-05
1.49309e-05
1.58873e-05
1.64736e-05
1.65777e-05
1.62019e-05
1.54466e-05
1.42992e-05
1.2893e-05
1.12992e-05
9.58852e-06
7.84602e-06
6.14097e-06
4.48459e-06
2.93545e-06
2.06914e-07
2.77671e-07
3.13604e-07
3.45776e-07
3.88251e-07
4.47486e-07
5.18082e-07
5.93423e-07
6.74934e-07
7.54157e-07
7.98043e-07
7.60774e-07
6.5891e-07
5.35805e-07
4.57001e-07
4.47559e-07
4.60313e-07
4.48105e-07
3.89655e-07
2.60189e-07
2.51839e-07
2.82644e-07
3.19322e-07
3.44467e-07
3.6411e-07
3.86193e-07
4.13697e-07
4.46806e-07
4.8864e-07
5.33567e-07
5.61836e-07
5.53021e-07
5.19639e-07
4.72399e-07
4.26844e-07
4.00843e-07
3.9208e-07
3.83474e-07
3.55313e-07
3.27511e-07
3.07294e-07
3.92865e-07
4.43138e-07
4.71396e-07
4.78648e-07
4.75093e-07
4.68953e-07
4.68033e-07
4.86623e-07
5.27041e-07
5.6135e-07
5.45539e-07
4.96751e-07
4.51442e-07
4.17466e-07
3.97216e-07
3.90844e-07
3.84306e-07
3.58869e-07
3.02662e-07
7.23471e-07
7.20717e-07
6.60335e-07
6.24977e-07
6.19926e-07
6.17113e-07
5.93136e-07
5.55872e-07
5.45309e-07
5.82612e-07
6.28101e-07
5.88584e-07
5.05454e-07
4.50114e-07
4.3138e-07
4.28835e-07
4.23317e-07
4.10452e-07
4.25141e-07
4.42677e-07
1.42555e-06
1.25466e-06
1.05157e-06
8.84227e-07
7.53096e-07
6.66526e-07
6.26162e-07
6.21026e-07
6.51116e-07
7.20895e-07
7.9352e-07
7.19871e-07
5.87833e-07
4.9308e-07
4.47998e-07
4.37011e-07
4.59663e-07
5.47828e-07
7.06944e-07
7.86886e-07
2.20205e-06
1.7941e-06
1.44774e-06
1.20064e-06
1.01885e-06
9.03874e-07
8.37507e-07
8.11554e-07
8.40177e-07
9.51012e-07
1.06719e-06
9.56551e-07
7.71904e-07
6.4672e-07
5.81568e-07
5.66174e-07
6.19558e-07
7.73452e-07
9.9646e-07
1.14966e-06
3.07792e-06
2.52095e-06
2.15298e-06
1.85112e-06
1.56226e-06
1.40993e-06
1.335e-06
1.31317e-06
1.35393e-06
1.50493e-06
1.66871e-06
1.52903e-06
1.28617e-06
1.08615e-06
9.54484e-07
9.00706e-07
9.44456e-07
1.1304e-06
1.35892e-06
1.5639e-06
3.99678e-06
3.57629e-06
3.63306e-06
3.60272e-06
3.42302e-06
3.35685e-06
3.42504e-06
3.39835e-06
3.29514e-06
3.24986e-06
3.39844e-06
3.45756e-06
3.34357e-06
3.0212e-06
2.55721e-06
2.12062e-06
2.01496e-06
2.01206e-06
1.99518e-06
2.07533e-06
5.06435e-06
5.56565e-06
7.17215e-06
8.85733e-06
1.01822e-05
1.09121e-05
1.11026e-05
1.08387e-05
1.02011e-05
9.46078e-06
9.39623e-06
9.87151e-06
1.02588e-05
1.00583e-05
9.12423e-06
7.72e-06
6.06558e-06
4.50944e-06
3.33062e-06
2.73968e-06
6.08125e-06
8.32897e-06
1.05927e-05
1.27567e-05
1.48102e-05
1.67244e-05
1.84298e-05
1.98473e-05
2.08658e-05
2.13071e-05
2.07783e-05
1.95203e-05
1.78367e-05
1.58801e-05
1.37394e-05
1.15195e-05
9.34634e-06
7.29612e-06
5.35726e-06
3.55219e-06
2.07483e-07
3.02703e-07
3.52158e-07
3.88251e-07
4.34631e-07
5.03573e-07
5.98395e-07
7.12376e-07
8.36616e-07
9.4615e-07
9.94294e-07
9.25786e-07
7.66485e-07
6.01376e-07
5.39495e-07
5.54495e-07
5.53609e-07
5.12555e-07
4.18642e-07
2.56218e-07
2.54516e-07
2.86293e-07
3.31022e-07
3.6411e-07
3.9469e-07
4.32392e-07
4.83033e-07
5.46537e-07
6.18518e-07
6.82296e-07
7.05746e-07
6.7187e-07
6.09902e-07
5.4388e-07
4.94669e-07
4.67782e-07
4.51251e-07
4.26667e-07
3.77397e-07
3.45833e-07
2.81336e-07
3.86578e-07
4.48668e-07
4.78648e-07
4.90408e-07
4.99781e-07
5.18885e-07
5.56094e-07
6.18971e-07
6.93963e-07
7.22297e-07
6.64688e-07
5.80319e-07
5.15747e-07
4.76292e-07
4.57974e-07
4.55782e-07
4.51413e-07
4.15778e-07
3.16055e-07
6.29302e-07
5.95739e-07
5.90096e-07
6.19926e-07
6.42096e-07
6.34825e-07
6.13962e-07
6.12197e-07
6.65597e-07
7.7024e-07
8.16157e-07
7.08326e-07
5.75372e-07
4.99136e-07
4.77487e-07
4.81505e-07
4.83962e-07
4.58286e-07
4.32354e-07
4.36334e-07
1.38474e-06
1.15777e-06
9.07222e-07
7.53096e-07
6.73925e-07
6.40548e-07
6.36185e-07
6.65706e-07
7.59599e-07
9.3575e-07
1.02683e-06
8.43132e-07
6.33626e-07
5.15591e-07
4.72584e-07
4.66976e-07
4.78608e-07
5.33736e-07
6.8426e-07
8.08311e-07
2.33478e-06
1.86688e-06
1.35736e-06
1.01885e-06
8.28816e-07
7.37966e-07
7.11309e-07
7.54779e-07
9.19344e-07
1.23211e-06
1.40398e-06
1.1144e-06
7.90639e-07
5.973e-07
5.13648e-07
5.01113e-07
5.57829e-07
7.25176e-07
1.03465e-06
1.23922e-06
3.39508e-06
2.71563e-06
2.0739e-06
1.56226e-06
1.29784e-06
1.22384e-06
1.25513e-06
1.36987e-06
1.61251e-06
2.03802e-06
2.26413e-06
1.86273e-06
1.39904e-06
1.05387e-06
8.3675e-07
7.41992e-07
7.85635e-07
1.04536e-06
1.48248e-06
1.75539e-06
4.50512e-06
3.87608e-06
3.6767e-06
3.42302e-06
3.45851e-06
3.78384e-06
4.07985e-06
4.20115e-06
4.19814e-06
4.27881e-06
4.39511e-06
4.24115e-06
3.97113e-06
3.46949e-06
2.78482e-06
2.12239e-06
1.75473e-06
1.94491e-06
2.18858e-06
2.36616e-06
5.82237e-06
6.22392e-06
8.08536e-06
1.01822e-05
1.17814e-05
1.29446e-05
1.34211e-05
1.31856e-05
1.24722e-05
1.1716e-05
1.15019e-05
1.18568e-05
1.23245e-05
1.21076e-05
1.08537e-05
8.78617e-06
6.72394e-06
5.00951e-06
3.69021e-06
3.17194e-06
6.93268e-06
9.58552e-06
1.22324e-05
1.48102e-05
1.7377e-05
1.98513e-05
2.21658e-05
2.42693e-05
2.60199e-05
2.71062e-05
2.63826e-05
2.42316e-05
2.17017e-05
1.90059e-05
1.62184e-05
1.34144e-05
1.07475e-05
8.35969e-06
6.14943e-06
4.09256e-06
2.0861e-07
3.27583e-07
3.99342e-07
4.47486e-07
5.03573e-07
5.91477e-07
7.26119e-07
8.99359e-07
1.07482e-06
1.20051e-06
1.23071e-06
1.11523e-06
9.01511e-07
7.32516e-07
6.90002e-07
6.75958e-07
6.3394e-07
5.5519e-07
4.30777e-07
2.5032e-07
2.53787e-07
2.90474e-07
3.43356e-07
3.86193e-07
4.32392e-07
4.97082e-07
5.9096e-07
7.10317e-07
8.34456e-07
9.21093e-07
9.17649e-07
8.33582e-07
7.29234e-07
6.36534e-07
5.73414e-07
5.31004e-07
4.93393e-07
4.46421e-07
3.78157e-07
3.43559e-07
2.8161e-07
3.77868e-07
4.40489e-07
4.75093e-07
4.99781e-07
5.37471e-07
6.0958e-07
7.28476e-07
8.87737e-07
1.02535e-06
1.00202e-06
8.48878e-07
7.0361e-07
6.02963e-07
5.44484e-07
5.17079e-07
5.09192e-07
4.98188e-07
4.50439e-07
3.28706e-07
5.62231e-07
5.14142e-07
5.59941e-07
6.17113e-07
6.34825e-07
6.32514e-07
6.60452e-07
7.70496e-07
9.93718e-07
1.24427e-06
1.20417e-06
9.28778e-07
6.98842e-07
5.74854e-07
5.29933e-07
5.27959e-07
5.35805e-07
5.06094e-07
4.42208e-07
4.25786e-07
1.34318e-06
1.03637e-06
7.74245e-07
6.66526e-07
6.40548e-07
6.48606e-07
6.91351e-07
8.29096e-07
1.15492e-06
1.59752e-06
1.56084e-06
1.10206e-06
7.47836e-07
5.74501e-07
5.13755e-07
5.02369e-07
5.03309e-07
5.28682e-07
6.46994e-07
8.11893e-07
2.42617e-06
1.87022e-06
1.25337e-06
9.03874e-07
7.37966e-07
6.81269e-07
7.18507e-07
9.14701e-07
1.41119e-06
2.15718e-06
2.15768e-06
1.43421e-06
9.02196e-07
6.28776e-07
5.15814e-07
4.93479e-07
5.4026e-07
6.91525e-07
1.03216e-06
1.2944e-06
3.617e-06
2.79039e-06
1.9286e-06
1.40993e-06
1.22384e-06
1.23978e-06
1.39945e-06
1.72799e-06
2.35783e-06
3.25954e-06
3.22195e-06
2.29846e-06
1.58372e-06
1.12947e-06
8.47529e-07
7.13895e-07
7.35635e-07
9.71831e-07
1.54734e-06
1.88578e-06
4.89391e-06
4.04723e-06
3.55824e-06
3.35685e-06
3.78384e-06
4.36223e-06
4.82072e-06
5.06801e-06
5.32006e-06
5.77283e-06
5.55581e-06
4.85798e-06
4.40696e-06
3.86341e-06
3.09412e-06
2.30015e-06
1.77125e-06
1.80548e-06
2.30589e-06
2.58137e-06
6.42801e-06
6.69938e-06
8.65051e-06
1.09121e-05
1.29446e-05
1.4419e-05
1.49531e-05
1.47431e-05
1.4262e-05
1.39268e-05
1.3559e-05
1.3314e-05
1.37078e-05
1.36113e-05
1.22986e-05
9.88453e-06
7.21809e-06
5.38723e-06
3.94485e-06
3.51568e-06
7.62963e-06
1.06677e-05
1.3693e-05
1.67244e-05
1.98513e-05
2.29831e-05
2.61217e-05
2.92548e-05
3.22143e-05
3.44548e-05
3.3565e-05
2.98989e-05
2.60353e-05
2.22918e-05
1.86892e-05
1.52437e-05
1.20594e-05
9.30385e-06
6.82524e-06
4.53015e-06
2.09537e-07
3.49715e-07
4.47278e-07
5.18082e-07
5.98395e-07
7.26119e-07
9.31295e-07
1.19053e-06
1.41833e-06
1.5258e-06
1.50104e-06
1.32745e-06
1.1131e-06
9.52406e-07
8.57348e-07
7.77641e-07
6.88012e-07
5.78111e-07
4.3201e-07
2.43883e-07
2.56479e-07
2.9654e-07
3.57835e-07
4.13697e-07
4.83033e-07
5.9096e-07
7.56024e-07
9.70171e-07
1.18566e-06
1.31519e-06
1.2552e-06
1.07863e-06
9.15924e-07
7.74742e-07
6.65516e-07
5.84141e-07
5.1726e-07
4.49647e-07
3.69835e-07
3.30265e-07
2.95365e-07
3.61295e-07
4.23405e-07
4.68953e-07
5.18885e-07
6.0958e-07
7.82204e-07
1.06572e-06
1.43745e-06
1.74978e-06
1.6014e-06
1.20968e-06
9.29037e-07
7.46687e-07
6.34303e-07
5.73834e-07
5.4336e-07
5.12093e-07
4.52222e-07
3.45887e-07
5.32751e-07
4.74778e-07
5.39797e-07
5.93136e-07
6.13962e-07
6.60452e-07
8.20158e-07
1.20101e-06
1.86218e-06
2.53543e-06
2.24186e-06
1.47571e-06
9.73249e-07
7.16597e-07
6.06465e-07
5.76669e-07
5.77964e-07
5.46944e-07
4.60511e-07
4.17677e-07
1.3087e-06
9.22135e-07
6.92069e-07
6.26162e-07
6.36185e-07
6.91351e-07
8.65105e-07
1.3659e-06
2.42514e-06
3.67954e-06
3.17466e-06
1.85863e-06
1.05592e-06
7.02936e-07
5.76424e-07
5.40815e-07
5.27951e-07
5.28702e-07
6.05642e-07
7.98913e-07
2.44959e-06
1.79175e-06
1.14852e-06
8.37507e-07
7.11309e-07
7.18507e-07
9.23018e-07
1.58273e-06
3.1085e-06
5.03017e-06
4.34683e-06
2.38666e-06
1.22624e-06
7.44544e-07
5.63884e-07
5.14214e-07
5.4178e-07
6.68196e-07
9.9126e-07
1.30834e-06
3.71395e-06
2.73572e-06
1.73689e-06
1.335e-06
1.25513e-06
1.39945e-06
1.78738e-06
2.62842e-06
4.36553e-06
6.49033e-06
5.63803e-06
3.30891e-06
1.91743e-06
1.26969e-06
9.20498e-07
7.46386e-07
7.35607e-07
9.38421e-07
1.52949e-06
1.94327e-06
5.1241e-06
4.0799e-06
3.29848e-06
3.42504e-06
4.07985e-06
4.82072e-06
5.43709e-06
6.09149e-06
7.55022e-06
9.2586e-06
8.42096e-06
5.98381e-06
4.68149e-06
4.03844e-06
3.27686e-06
2.4499e-06
1.82845e-06
1.66366e-06
2.31039e-06
2.69777e-06
6.83087e-06
6.94179e-06
8.84044e-06
1.11026e-05
1.34211e-05
1.49531e-05
1.5569e-05
1.57816e-05
1.63773e-05
1.73382e-05
1.68178e-05
1.47936e-05
1.42942e-05
1.41272e-05
1.2884e-05
1.04015e-05
7.45522e-06
5.3968e-06
4.00746e-06
3.71582e-06
8.16167e-06
1.15463e-05
1.49309e-05
1.84298e-05
2.21658e-05
2.61217e-05
3.0401e-05
3.50943e-05
4.00586e-05
4.43567e-05
4.34658e-05
3.71654e-05
3.11178e-05
2.58289e-05
2.1143e-05
1.69308e-05
1.3195e-05
1.00649e-05
7.34106e-06
4.84314e-06
2.12408e-07
3.71202e-07
4.9313e-07
5.93423e-07
7.12376e-07
8.99359e-07
1.19053e-06
1.54472e-06
1.82919e-06
1.90377e-06
1.76578e-06
1.55972e-06
1.39489e-06
1.2024e-06
1.01727e-06
8.5851e-07
7.22435e-07
5.88177e-07
4.27659e-07
2.37978e-07
2.69905e-07
3.08096e-07
3.75627e-07
4.46806e-07
5.46537e-07
7.10317e-07
9.70171e-07
1.32696e-06
1.71066e-06
2.07242e-06
1.95247e-06
1.50671e-06
1.20759e-06
9.61237e-07
7.68153e-07
6.2981e-07
5.29543e-07
4.44407e-07
3.56055e-07
3.14999e-07
3.22523e-07
3.52404e-07
4.09166e-07
4.68033e-07
5.56094e-07
7.28476e-07
1.06572e-06
1.65722e-06
2.56937e-06
3.97856e-06
3.7149e-06
2.1357e-06
1.38839e-06
9.79934e-07
7.48288e-07
6.21705e-07
5.48516e-07
4.87138e-07
4.09631e-07
3.28472e-07
5.43962e-07
4.67743e-07
5.11122e-07
5.55872e-07
6.12197e-07
7.70496e-07
1.20101e-06
2.19252e-06
4.11143e-06
7.02001e-06
6.41403e-06
3.29676e-06
1.70159e-06
1.00798e-06
7.28665e-07
6.31671e-07
6.04057e-07
5.63207e-07
4.68701e-07
4.1219e-07
1.27754e-06
8.44197e-07
6.57399e-07
6.21026e-07
6.65706e-07
8.29096e-07
1.3659e-06
2.8807e-06
6.20542e-06
1.07223e-05
9.68655e-06
4.76707e-06
2.06771e-06
1.0252e-06
6.9365e-07
5.95254e-07
5.58017e-07
5.36532e-07
5.82082e-07
7.74113e-07
2.39194e-06
1.63715e-06
1.05817e-06
8.11554e-07
7.54779e-07
9.14701e-07
1.58273e-06
3.573e-06
8.04018e-06
1.41463e-05
1.27071e-05
6.12428e-06
2.38033e-06
1.06456e-06
6.7402e-07
5.6053e-07
5.55408e-07
6.46684e-07
9.17487e-07
1.28066e-06
3.67479e-06
2.55082e-06
1.58901e-06
1.31317e-06
1.36987e-06
1.72799e-06
2.62842e-06
4.92919e-06
1.0075e-05
1.66727e-05
1.50342e-05
7.45726e-06
3.04266e-06
1.55911e-06
1.03594e-06
8.05273e-07
7.52016e-07
9.04406e-07
1.44375e-06
1.9226e-06
5.16389e-06
3.95112e-06
2.93226e-06
3.39835e-06
4.20115e-06
5.06801e-06
6.09149e-06
8.42227e-06
1.33306e-05
1.92158e-05
1.81055e-05
1.03389e-05
5.50283e-06
4.03401e-06
3.24522e-06
2.45997e-06
1.82504e-06
1.5765e-06
2.19392e-06
2.69748e-06
6.99376e-06
6.89166e-06
8.56084e-06
1.08387e-05
1.31856e-05
1.47431e-05
1.57816e-05
1.73559e-05
2.06508e-05
2.47352e-05
2.43324e-05
1.82263e-05
1.48432e-05
1.38182e-05
1.25371e-05
1.01433e-05
7.1825e-06
4.92598e-06
3.84176e-06
3.74659e-06
8.51165e-06
1.21802e-05
1.58873e-05
1.98473e-05
2.42693e-05
2.92548e-05
3.50943e-05
4.21309e-05
5.03763e-05
5.82238e-05
5.78372e-05
4.70331e-05
3.73125e-05
2.96898e-05
2.35443e-05
1.83978e-05
1.40595e-05
1.05693e-05
7.64598e-06
5.00569e-06
2.17341e-07
3.96794e-07
5.4246e-07
6.74934e-07
8.36616e-07
1.07482e-06
1.41833e-06
1.82919e-06
2.14249e-06
2.16766e-06
2.02545e-06
1.71836e-06
1.63467e-06
1.40612e-06
1.14358e-06
9.21065e-07
7.48629e-07
5.96848e-07
4.26299e-07
2.33768e-07
2.90906e-07
3.2819e-07
4.01485e-07
4.8864e-07
6.18518e-07
8.34456e-07
1.18566e-06
1.71066e-06
2.47782e-06
5.38323e-06
5.61761e-06
2.54396e-06
1.6059e-06
1.15977e-06
8.58712e-07
6.64256e-07
5.37713e-07
4.42027e-07
3.51042e-07
3.03584e-07
3.64403e-07
3.61702e-07
4.12314e-07
4.86623e-07
6.18971e-07
8.87737e-07
1.43745e-06
2.56937e-06
5.51007e-06
1.35528e-05
1.45275e-05
5.34414e-06
2.32721e-06
1.30206e-06
8.61969e-07
6.52478e-07
5.38529e-07
4.56593e-07
3.77513e-07
3.36638e-07
5.85515e-07
4.83204e-07
4.95493e-07
5.45309e-07
6.65597e-07
9.93718e-07
1.86218e-06
4.11143e-06
9.98714e-06
2.28298e-05
2.45921e-05
9.53603e-06
3.59224e-06
1.54294e-06
8.91713e-07
6.79349e-07
6.00936e-07
5.42382e-07
4.59159e-07
4.23663e-07
1.23449e-06
8.13354e-07
6.60452e-07
6.51116e-07
7.59599e-07
1.15492e-06
2.42514e-06
6.20542e-06
1.525e-05
3.22275e-05
3.44323e-05
1.46638e-05
5.08448e-06
1.76716e-06
9.03219e-07
6.78058e-07
5.98733e-07
5.52514e-07
5.73579e-07
7.49506e-07
2.26281e-06
1.44212e-06
9.86306e-07
8.40177e-07
9.19344e-07
1.41119e-06
3.1085e-06
8.04018e-06
2.00028e-05
4.00513e-05
4.19779e-05
1.95162e-05
6.19568e-06
1.88794e-06
8.97337e-07
6.48365e-07
5.88946e-07
6.37433e-07
8.57865e-07
1.22751e-06
3.51994e-06
2.28947e-06
1.46757e-06
1.35393e-06
1.61251e-06
2.35783e-06
4.36553e-06
1.0075e-05
2.38348e-05
4.38695e-05
4.49542e-05
2.25272e-05
6.98668e-06
2.29743e-06
1.22719e-06
8.88423e-07
7.78199e-07
8.66316e-07
1.31571e-06
1.83777e-06
5.02456e-06
3.66907e-06
2.69274e-06
3.29514e-06
4.19814e-06
5.32006e-06
7.55022e-06
1.33306e-05
2.59549e-05
4.12841e-05
4.2039e-05
2.32588e-05
8.35398e-06
4.1886e-06
3.0686e-06
2.33364e-06
1.73775e-06
1.45549e-06
1.99394e-06
2.58891e-06
6.91308e-06
6.56855e-06
7.90034e-06
1.02011e-05
1.24722e-05
1.4262e-05
1.63773e-05
2.06508e-05
2.91888e-05
3.91791e-05
3.9949e-05
2.67897e-05
1.68711e-05
1.3392e-05
1.15638e-05
9.23403e-06
6.46733e-06
4.31183e-06
3.52332e-06
3.62093e-06
8.6468e-06
1.25036e-05
1.64736e-05
2.08658e-05
2.60199e-05
3.22143e-05
4.00586e-05
5.03763e-05
6.35014e-05
7.61722e-05
7.74223e-05
6.04251e-05
4.48398e-05
3.37808e-05
2.573e-05
1.94975e-05
1.45408e-05
1.0732e-05
7.68871e-06
4.99129e-06
2.23883e-07
4.25893e-07
5.93643e-07
7.54157e-07
9.4615e-07
1.20051e-06
1.5258e-06
1.90377e-06
2.16766e-06
2.2707e-06
2.18003e-06
2.02989e-06
1.69201e-06
1.4805e-06
1.20148e-06
9.5752e-07
7.67072e-07
6.03139e-07
4.27574e-07
2.3146e-07
3.14458e-07
3.5324e-07
4.33079e-07
5.33567e-07
6.82296e-07
9.21093e-07
1.31519e-06
2.07242e-06
5.38323e-06
7.95619e-06
8.1659e-06
6.71051e-06
2.24682e-06
1.26958e-06
8.85001e-07
6.72248e-07
5.40251e-07
4.42144e-07
3.53926e-07
3.0699e-07
4.08577e-07
3.86914e-07
4.36696e-07
5.27041e-07
6.93963e-07
1.02535e-06
1.74978e-06
3.97856e-06
1.35528e-05
1.50592e-05
1.46608e-05
1.6481e-05
4.23078e-06
1.57194e-06
9.00563e-07
6.51927e-07
5.24465e-07
4.36799e-07
3.68345e-07
3.61787e-07
6.31732e-07
5.10189e-07
5.11756e-07
5.82612e-07
7.7024e-07
1.24427e-06
2.53543e-06
7.02001e-06
2.28298e-05
2.31604e-05
2.19144e-05
2.75126e-05
6.99312e-06
2.06407e-06
9.88499e-07
6.95424e-07
5.76694e-07
5.03921e-07
4.50023e-07
4.59234e-07
1.18744e-06
7.98854e-07
6.8653e-07
7.20895e-07
9.3575e-07
1.59752e-06
3.67954e-06
1.07223e-05
3.22275e-05
3.11943e-05
2.93577e-05
3.79504e-05
9.85044e-06
2.61836e-06
1.11831e-06
7.73794e-07
6.52369e-07
5.82286e-07
5.82161e-07
7.41975e-07
2.12191e-06
1.29673e-06
9.58068e-07
9.51012e-07
1.23211e-06
2.15718e-06
5.03017e-06
1.41463e-05
4.00513e-05
3.76134e-05
3.59691e-05
4.53773e-05
1.19748e-05
3.00759e-06
1.20781e-06
7.91371e-07
6.57522e-07
6.51561e-07
8.26644e-07
1.18024e-06
3.3258e-06
2.06705e-06
1.41021e-06
1.50493e-06
2.03802e-06
3.25954e-06
6.49033e-06
1.66727e-05
4.38695e-05
4.08186e-05
4.04216e-05
4.73501e-05
1.27011e-05
3.3581e-06
1.50681e-06
1.01941e-06
8.31499e-07
8.41567e-07
1.20108e-06
1.73547e-06
4.79252e-06
3.38409e-06
2.53044e-06
3.24986e-06
4.27881e-06
5.77283e-06
9.2586e-06
1.92158e-05
4.12841e-05
4.19455e-05
4.28112e-05
4.42897e-05
1.27851e-05
4.66668e-06
2.95879e-06
2.209e-06
1.64287e-06
1.3331e-06
1.7893e-06
2.42771e-06
6.66444e-06
6.14771e-06
7.27376e-06
9.46078e-06
1.1716e-05
1.39268e-05
1.73382e-05
2.47352e-05
3.91791e-05
4.52735e-05
4.69387e-05
3.97106e-05
2.07019e-05
1.35528e-05
1.06057e-05
8.13598e-06
5.6243e-06
3.69473e-06
3.14078e-06
3.39052e-06
8.53072e-06
1.24619e-05
1.65777e-05
2.13071e-05
2.71062e-05
3.44548e-05
4.43567e-05
5.82238e-05
7.61722e-05
8.77991e-05
9.1435e-05
7.51235e-05
5.271e-05
3.74639e-05
2.72846e-05
1.99764e-05
1.44997e-05
1.04905e-05
7.44741e-06
4.78725e-06
2.2942e-07
4.45417e-07
6.25563e-07
7.98043e-07
9.94294e-07
1.23071e-06
1.50104e-06
1.76578e-06
2.02545e-06
2.18003e-06
2.1987e-06
2.02904e-06
1.62126e-06
1.42737e-06
1.17708e-06
9.50998e-07
7.66465e-07
6.01979e-07
4.26944e-07
2.29743e-07
3.31397e-07
3.72519e-07
4.57096e-07
5.61836e-07
7.05746e-07
9.17649e-07
1.2552e-06
1.95247e-06
5.61761e-06
8.1659e-06
8.42101e-06
7.10265e-06
2.04718e-06
1.13551e-06
8.18881e-07
6.45063e-07
5.30644e-07
4.40025e-07
3.57794e-07
3.12133e-07
4.4459e-07
4.13079e-07
4.64654e-07
5.6135e-07
7.22297e-07
1.00202e-06
1.6014e-06
3.7149e-06
1.45275e-05
1.46608e-05
1.41572e-05
1.88436e-05
3.91763e-06
1.3562e-06
8.1061e-07
6.15057e-07
5.05721e-07
4.26954e-07
3.73255e-07
3.89338e-07
6.99038e-07
5.43472e-07
5.42843e-07
6.28101e-07
8.16157e-07
1.20417e-06
2.24186e-06
6.41403e-06
2.45921e-05
2.19144e-05
2.05379e-05
3.18152e-05
6.44936e-06
1.73141e-06
8.86009e-07
6.5822e-07
5.49842e-07
4.83557e-07
4.59709e-07
5.18789e-07
1.24558e-06
8.17436e-07
7.20362e-07
7.9352e-07
1.02683e-06
1.56084e-06
3.17466e-06
9.68655e-06
3.44323e-05
2.93577e-05
2.7854e-05
4.32014e-05
8.98282e-06
2.17674e-06
1.04074e-06
7.85067e-07
6.79567e-07
6.16821e-07
6.14461e-07
7.73084e-07
2.14484e-06
1.28306e-06
9.8037e-07
1.06719e-06
1.40398e-06
2.15768e-06
4.34683e-06
1.27071e-05
4.19779e-05
3.59691e-05
3.55384e-05
5.03439e-05
1.08258e-05
2.611e-06
1.26611e-06
9.31316e-07
7.65311e-07
6.98362e-07
8.28271e-07
1.18916e-06
3.32012e-06
2.04238e-06
1.43958e-06
1.66871e-06
2.26413e-06
3.22195e-06
5.63803e-06
1.50342e-05
4.49542e-05
4.04216e-05
4.16961e-05
5.1136e-05
1.1494e-05
3.06846e-06
1.64429e-06
1.19545e-06
9.37309e-07
8.54058e-07
1.1529e-06
1.72303e-06
4.77194e-06
3.38393e-06
2.61697e-06
3.39844e-06
4.39511e-06
5.55581e-06
8.42096e-06
1.81055e-05
4.2039e-05
4.28112e-05
4.55012e-05
4.68515e-05
1.18208e-05
4.44765e-06
3.03543e-06
2.3071e-06
1.69383e-06
1.30171e-06
1.73322e-06
2.40057e-06
6.6119e-06
6.21004e-06
7.35732e-06
9.39623e-06
1.15019e-05
1.3559e-05
1.68178e-05
2.43324e-05
3.9949e-05
4.69387e-05
5.03253e-05
4.13266e-05
2.05897e-05
1.34068e-05
1.05008e-05
8.03711e-06
5.53723e-06
3.629e-06
3.11283e-06
3.34395e-06
8.33356e-06
1.21755e-05
1.62019e-05
2.07783e-05
2.63826e-05
3.3565e-05
4.34658e-05
5.78372e-05
7.74223e-05
9.1435e-05
9.74577e-05
7.72493e-05
5.29194e-05
3.71744e-05
2.68937e-05
1.96093e-05
1.42068e-05
1.0276e-05
7.28597e-06
4.69281e-06
2.28669e-07
4.37814e-07
6.06837e-07
7.60774e-07
9.25786e-07
1.11523e-06
1.32745e-06
1.55972e-06
1.71836e-06
2.02989e-06
2.02904e-06
1.62109e-06
1.41571e-06
1.25411e-06
1.06667e-06
8.85885e-07
7.28956e-07
5.79803e-07
4.15833e-07
2.26905e-07
3.25416e-07
3.72737e-07
4.5713e-07
5.53021e-07
6.7187e-07
8.33582e-07
1.07863e-06
1.50671e-06
2.54396e-06
6.71051e-06
7.10265e-06
2.49506e-06
1.32681e-06
9.40394e-07
7.31658e-07
6.0023e-07
5.06404e-07
4.27587e-07
3.54142e-07
3.09301e-07
4.32331e-07
4.1052e-07
4.61956e-07
5.45539e-07
6.64688e-07
8.48878e-07
1.20968e-06
2.1357e-06
5.34414e-06
1.6481e-05
1.88436e-05
5.4712e-06
1.82596e-06
9.62675e-07
6.88302e-07
5.58129e-07
4.73287e-07
4.09327e-07
3.70048e-07
3.96682e-07
6.99132e-07
5.34979e-07
5.25772e-07
5.88584e-07
7.08326e-07
9.28778e-07
1.47571e-06
3.29676e-06
9.53603e-06
2.75126e-05
3.18152e-05
9.57754e-06
2.58189e-06
1.06681e-06
7.09768e-07
5.76182e-07
4.98461e-07
4.53503e-07
4.58352e-07
5.51248e-07
1.27691e-06
8.19051e-07
6.9035e-07
7.19871e-07
8.43132e-07
1.10206e-06
1.85863e-06
4.76707e-06
1.46638e-05
3.79504e-05
4.32014e-05
1.36935e-05
3.37037e-06
1.23517e-06
8.06765e-07
6.7258e-07
6.06294e-07
5.83556e-07
6.34085e-07
8.17199e-07
2.1859e-06
1.32902e-06
9.55434e-07
9.56551e-07
1.1144e-06
1.43421e-06
2.38666e-06
6.12428e-06
1.95162e-05
4.53773e-05
5.03439e-05
1.66978e-05
4.04684e-06
1.507e-06
1.01929e-06
8.61855e-07
7.66501e-07
7.21986e-07
8.46413e-07
1.21478e-06
3.35064e-06
2.13812e-06
1.44115e-06
1.52903e-06
1.86273e-06
2.29846e-06
3.30891e-06
7.45726e-06
2.25272e-05
4.73501e-05
5.1136e-05
1.78106e-05
4.66047e-06
2.04523e-06
1.49223e-06
1.22563e-06
1.00433e-06
8.81595e-07
1.14508e-06
1.736e-06
4.78916e-06
3.54612e-06
2.81005e-06
3.45756e-06
4.24115e-06
4.85798e-06
5.98381e-06
1.03389e-05
2.32588e-05
4.42897e-05
4.68515e-05
1.78447e-05
6.09904e-06
3.83577e-06
3.12979e-06
2.48625e-06
1.83814e-06
1.34937e-06
1.76851e-06
2.41345e-06
6.58176e-06
6.4538e-06
7.87567e-06
9.87151e-06
1.18568e-05
1.3314e-05
1.47936e-05
1.82263e-05
2.67897e-05
3.97106e-05
4.13266e-05
2.36069e-05
1.53111e-05
1.27804e-05
1.09539e-05
8.54489e-06
5.93263e-06
3.91904e-06
3.2517e-06
3.35671e-06
8.08406e-06
1.17127e-05
1.54466e-05
1.95203e-05
2.42316e-05
2.98989e-05
3.71654e-05
4.70331e-05
6.04251e-05
7.51235e-05
7.72493e-05
5.79953e-05
4.27342e-05
3.20897e-05
2.42912e-05
1.82764e-05
1.35577e-05
9.96263e-06
7.10629e-06
4.6076e-06
2.22511e-07
4.03069e-07
5.45467e-07
6.5891e-07
7.66485e-07
9.01511e-07
1.1131e-06
1.39489e-06
1.63467e-06
1.69201e-06
1.62126e-06
1.41571e-06
1.23694e-06
1.05801e-06
9.06709e-07
7.76224e-07
6.57105e-07
5.34812e-07
3.91183e-07
2.20386e-07
3.00273e-07
3.55119e-07
4.37471e-07
5.19639e-07
6.09902e-07
7.29234e-07
9.15924e-07
1.20759e-06
1.6059e-06
2.24682e-06
2.04718e-06
1.32681e-06
1.005e-06
8.04128e-07
6.59284e-07
5.53806e-07
4.72843e-07
4.02523e-07
3.35345e-07
2.87027e-07
3.74778e-07
3.77223e-07
4.29704e-07
4.96751e-07
5.80319e-07
7.0361e-07
9.29037e-07
1.38839e-06
2.32721e-06
4.23078e-06
3.91763e-06
1.82596e-06
1.03828e-06
7.41055e-07
5.95327e-07
5.04263e-07
4.37229e-07
3.83133e-07
3.4669e-07
3.63882e-07
6.09708e-07
4.79989e-07
4.6857e-07
5.05454e-07
5.75372e-07
6.98842e-07