/*--------------------------------*- C++ -*----------------------------------*\
  =========                 |
  \\      /  F ield         | OpenFOAM: The Open Source CFD Toolbox
   \\    /   O peration     | Website:  https://openfoam.org
    \\  /    A nd           | Version:  9
     \\/     M anipulation  |
\*---------------------------------------------------------------------------*/
FoamFile
{
    format      ascii;
    class       volScalarField;
    location    "450";
    object      k;
}
// * * * * * * * * * * * * * * * * * * * * * * * * * * * * * * * * * * * * * //

dimensions      [0 2 -2 0 0 0 0];

internalField   nonuniform List<scalar> 
4000
(
2.56221e-05
2.53083e-05
2.52169e-05
2.52562e-05
2.53127e-05
2.54132e-05
2.54956e-05
2.57258e-05
2.61126e-05
2.66183e-05
2.7043e-05
2.69724e-05
2.64587e-05
2.60115e-05
2.61293e-05
2.65502e-05
2.71801e-05
2.80227e-05
2.88689e-05
2.84495e-05
2.68736e-05
2.78544e-05
2.83748e-05
2.88574e-05
2.90162e-05
2.89712e-05
2.91641e-05
3.01274e-05
3.16268e-05
3.32797e-05
3.44396e-05
3.40236e-05
3.22495e-05
3.00317e-05
2.82881e-05
2.75304e-05
2.7623e-05
2.82872e-05
2.91345e-05
2.85912e-05
3.99945e-05
3.94967e-05
3.6985e-05
3.3905e-05
3.16024e-05
3.13109e-05
3.20904e-05
3.38734e-05
3.66432e-05
3.94969e-05
4.17495e-05
4.09597e-05
3.72799e-05
3.28813e-05
2.9477e-05
2.76538e-05
2.75878e-05
2.86477e-05
2.96976e-05
2.98079e-05
7.07246e-05
6.93998e-05
6.5934e-05
6.06046e-05
5.49474e-05
5.05109e-05
4.81406e-05
4.82018e-05
5.0245e-05
5.27824e-05
5.65305e-05
5.64425e-05
5.13932e-05
4.36176e-05
3.67626e-05
3.31556e-05
3.30432e-05
3.48719e-05
3.75054e-05
4.03095e-05
9.05103e-05
9.35086e-05
9.47565e-05
9.38618e-05
9.18461e-05
8.96285e-05
8.758e-05
8.56575e-05
8.3322e-05
8.10334e-05
8.36764e-05
8.5173e-05
8.26497e-05
7.65439e-05
6.82314e-05
6.0134e-05
5.53836e-05
5.50699e-05
5.72902e-05
5.89575e-05
0.000101999
0.00011074
0.000118687
0.000124746
0.000129362
0.000132272
0.000132668
0.000130206
0.00012525
0.000119928
0.000120799
0.000122504
0.000121235
0.00011707
0.000110138
0.000100764
9.0709e-05
8.27553e-05
7.74821e-05
7.14957e-05
0.000111936
0.000127479
0.000142593
0.000155322
0.000165421
0.000172151
0.000174858
0.000173378
0.000168349
0.000162097
0.000161969
0.000163169
0.000161402
0.000156431
0.000148288
0.000137248
0.000124082
0.000109942
9.58016e-05
8.10504e-05
0.000122256
0.000144104
0.000165883
0.000184411
0.000199337
0.000210286
0.000216502
0.00021741
0.000213396
0.000206805
0.000206335
0.000207102
0.000203832
0.00019624
0.000184609
0.000169704
0.000152413
0.000133161
0.000112275
8.97205e-05
0.000133495
0.000162784
0.000191061
0.000215594
0.00023618
0.000251888
0.000261989
0.000265936
0.000263797
0.000257452
0.000256299
0.000255868
0.000250342
0.000239451
0.000223554
0.0002035
0.000180493
0.00015546
0.000128146
9.82452e-05
0.000146706
0.000183194
0.000216209
0.000243095
0.00026494
0.00028212
0.000294862
0.000303074
0.00030617
0.000303373
0.00029895
0.00029331
0.000282826
0.000268566
0.000250947
0.00023002
0.000205782
0.00017808
0.000145835
0.000108618
2.53083e-05
2.74413e-05
2.91083e-05
3.08602e-05
3.26735e-05
3.43837e-05
3.5846e-05
3.72348e-05
3.88671e-05
4.0689e-05
4.18964e-05
4.14441e-05
3.92155e-05
3.62282e-05
3.40135e-05
3.28026e-05
3.25975e-05
3.2807e-05
3.22142e-05
2.89711e-05
2.78544e-05
3.67253e-05
4.2452e-05
4.73726e-05
5.12407e-05
5.3876e-05
5.51923e-05
5.62671e-05
5.82313e-05
6.09349e-05
6.31283e-05
6.26909e-05
5.92064e-05
5.40561e-05
4.9221e-05
4.56126e-05
4.31601e-05
4.10857e-05
3.82556e-05
2.98361e-05
3.94967e-05
4.73438e-05
4.99712e-05
5.39755e-05
5.90356e-05
6.19258e-05
6.08012e-05
5.86413e-05
5.82771e-05
6.02877e-05
6.29359e-05
6.29237e-05
5.97973e-05
5.57579e-05
5.20497e-05
4.82762e-05
4.43224e-05
4.06274e-05
3.71083e-05
3.14717e-05
6.93998e-05
7.89396e-05
7.5576e-05
6.88421e-05
6.30541e-05
6.04004e-05
5.98273e-05
5.97222e-05
6.04589e-05
6.29476e-05
6.63616e-05
6.52367e-05
5.99463e-05
5.42024e-05
5.0155e-05
4.72441e-05
4.45184e-05
4.33171e-05
4.47354e-05
4.2015e-05
9.35086e-05
0.000100634
0.000102399
0.000100242
9.47463e-05
8.74138e-05
8.05126e-05
7.62517e-05
7.58219e-05
7.75858e-05
8.13451e-05
8.07133e-05
7.52846e-05
6.77053e-05
6.07469e-05
5.65897e-05
5.63203e-05
6.01273e-05
6.48214e-05
5.95314e-05
0.00011074
0.000115852
0.000123936
0.000131261
0.000136371
0.000137036
0.000133081
0.000125345
0.000115933
0.000110178
0.000112212
0.000114782
0.000114582
0.000111486
0.000105364
9.75206e-05
9.03045e-05
8.48649e-05
8.00262e-05
7.21475e-05
0.000127479
0.000137695
0.00015394
0.000170663
0.000186028
0.000194802
0.000195912
0.000189596
0.000178052
0.000167705
0.000168472
0.000173492
0.000175274
0.000172004
0.000162869
0.000148387
0.000130297
0.000111628
9.53244e-05
8.25188e-05
0.000144104
0.000167601
0.000194373
0.000220185
0.000244487
0.000261483
0.000269128
0.000267661
0.000257739
0.000246597
0.000247459
0.000253484
0.000252083
0.000242542
0.000225565
0.000201088
0.000172104
0.000143265
0.000116944
9.40916e-05
0.000162784
0.000206478
0.000247503
0.000286051
0.000321214
0.000348225
0.000364751
0.000368618
0.00035975
0.000347354
0.000350346
0.000357359
0.000353613
0.000336724
0.000307481
0.000269136
0.000226849
0.000185914
0.000147653
0.00010959
0.000183194
0.000225496
0.000265362
0.000299449
0.00032845
0.000352381
0.000371208
0.000384488
0.000391136
0.000390195
0.000384574
0.000375222
0.000359065
0.000337725
0.000311976
0.000282229
0.000248965
0.000212501
0.000171969
0.000127894
2.52169e-05
2.91083e-05
3.13571e-05
3.35844e-05
3.62724e-05
3.93572e-05
4.23282e-05
4.50636e-05
4.79167e-05
5.07885e-05
5.25073e-05
5.147e-05
4.79555e-05
4.28379e-05
3.89901e-05
3.73445e-05
3.76895e-05
3.76419e-05
3.56116e-05
2.93451e-05
2.83748e-05
4.2452e-05
5.03074e-05
5.67714e-05
6.23766e-05
6.70379e-05
7.03989e-05
7.31572e-05
7.66107e-05
8.07092e-05
8.37479e-05
8.31797e-05
7.82847e-05
7.12142e-05
6.49005e-05
6.05874e-05
5.7124e-05
5.37078e-05
4.8118e-05
3.20059e-05
3.6985e-05
4.99712e-05
5.87811e-05
6.75407e-05
7.48976e-05
7.89281e-05
7.91464e-05
7.78171e-05
7.79866e-05
8.09347e-05
8.44726e-05
8.4176e-05
8.01153e-05
7.50521e-05
7.01776e-05
6.50534e-05
5.91824e-05
5.2762e-05
4.50767e-05
3.22387e-05
6.5934e-05
7.5576e-05
7.43606e-05
7.20471e-05
7.30042e-05
7.70636e-05
7.99895e-05
7.90353e-05
7.77123e-05
8.01757e-05
8.45532e-05
8.21406e-05
7.47678e-05
6.9074e-05
6.62336e-05
6.28418e-05
5.67895e-05
5.08888e-05
4.8279e-05
4.30129e-05
9.47565e-05
0.000102399
0.000100744
9.49884e-05
8.68548e-05
7.91695e-05
7.52133e-05
7.5101e-05
7.89366e-05
8.63457e-05
9.39062e-05
8.96062e-05
7.79931e-05
6.79607e-05
6.13847e-05
5.72816e-05
5.67794e-05
6.12023e-05
6.72668e-05
6.13124e-05
0.000118687
0.000123936
0.000123725
0.000122236
0.000118374
0.000112031
0.000105844
0.000102175
0.000101623
0.000106476
0.000114627
0.000110335
9.89777e-05
8.89217e-05
8.15168e-05
7.72174e-05
7.80542e-05
8.14026e-05
8.35327e-05
7.61109e-05
0.000142593
0.00015394
0.000160483
0.000166321
0.000168776
0.000165482
0.000157415
0.000152584
0.000150228
0.00015326
0.000160336
0.000157319
0.000147009
0.000135798
0.00012592
0.000120813
0.000114058
0.000107309
0.000100834
9.01344e-05
0.000165883
0.000194373
0.000219468
0.00024414
0.00026257
0.000271597
0.000270549
0.000259673
0.000250346
0.00024479
0.000252372
0.000260283
0.000259163
0.000248657
0.000230128
0.0002036
0.000175634
0.000149415
0.000127764
0.000106613
0.000191061
0.000247503
0.000314796
0.000381374
0.000437548
0.000475728
0.000496578
0.00049804
0.000475685
0.0004522
0.000458622
0.000479157
0.000481471
0.000461051
0.000419057
0.000360081
0.000292201
0.000226642
0.000172256
0.000127054
0.000216209
0.000265362
0.000311115
0.000351128
0.000386069
0.000415864
0.00044029
0.000458711
0.000469784
0.000471655
0.000464976
0.000450938
0.000428728
0.000400533
0.000367247
0.000329679
0.000288936
0.000245865
0.000199769
0.000150866
2.52562e-05
3.08602e-05
3.35844e-05
3.59249e-05
3.88275e-05
4.26014e-05
4.68069e-05
5.10661e-05
5.54816e-05
5.961e-05
6.17954e-05
5.98235e-05
5.44225e-05
4.7369e-05
4.27718e-05
4.24332e-05
4.32471e-05
4.24176e-05
3.85759e-05
2.93845e-05
2.88574e-05
4.73726e-05
5.67714e-05
6.41371e-05
7.08191e-05
7.71714e-05
8.28877e-05
8.82302e-05
9.41384e-05
0.000100119
0.000103684
0.00010202
9.50501e-05
8.62661e-05
7.95081e-05
7.45586e-05
7.05542e-05
6.59535e-05
5.75392e-05
3.41634e-05
3.3905e-05
5.39755e-05
6.75407e-05
7.80723e-05
8.56482e-05
9.05977e-05
9.32071e-05
9.48314e-05
9.80727e-05
0.00010376
0.000108328
0.000106087
9.92568e-05
9.21387e-05
8.60351e-05
8.01194e-05
7.3768e-05
6.62905e-05
5.5315e-05
3.28024e-05
6.06046e-05
6.88421e-05
7.20471e-05
7.75774e-05
8.60059e-05
9.37424e-05
9.71725e-05
9.64832e-05
9.72842e-05
0.00010346
0.000109896
0.000104364
9.28427e-05
8.51466e-05
8.17049e-05
7.75897e-05
6.97551e-05
5.94805e-05
5.13751e-05
4.31101e-05
9.38618e-05
0.000100242
9.49884e-05
8.78654e-05
8.19365e-05
7.94192e-05
8.07681e-05
8.55332e-05
9.46651e-05
0.000108669
0.000120685
0.00011074
9.14347e-05
7.75486e-05
7.0151e-05
6.49534e-05
6.106e-05
6.21307e-05
6.79238e-05
6.30791e-05
0.000124746
0.000131261
0.000122236
0.000111846
0.000101874
9.52569e-05
9.28901e-05
9.54012e-05
0.000105415
0.000125975
0.000144537
0.000130457
0.00010404
8.47781e-05
7.41252e-05
6.93851e-05
7.06334e-05
7.89913e-05
8.80145e-05
8.10266e-05
0.000155322
0.000170663
0.000166321
0.000158061
0.000146632
0.000141476
0.000141078
0.000146123
0.00015867
0.000181879
0.000201568
0.000184946
0.000154066
0.000127092
0.000108532
9.87894e-05
9.79035e-05
0.000105581
0.000110552
9.94107e-05
0.000184411
0.000220185
0.00024414
0.000261256
0.000270451
0.000278669
0.000289202
0.000294804
0.00029736
0.000304486
0.000318568
0.000316416
0.000298506
0.000267594
0.00022893
0.000192132
0.000172593
0.000158396
0.00014317
0.000119848
0.000215594
0.000286051
0.000381374
0.000479393
0.000554776
0.000593402
0.000604968
0.000599535
0.000579358
0.000555316
0.000557111
0.000573939
0.00058268
0.000567515
0.000523406
0.000454804
0.000364226
0.000270841
0.000196546
0.000144085
0.000243095
0.000299449
0.000351128
0.000397054
0.000438206
0.000474851
0.000506354
0.000531829
0.000549738
0.00055734
0.000548695
0.000526851
0.000496531
0.000459929
0.00041807
0.000372254
0.000324382
0.000275505
0.000224628
0.000171098
2.53127e-05
3.26735e-05
3.62724e-05
3.88275e-05
4.19129e-05
4.61824e-05
5.16305e-05
5.77548e-05
6.40764e-05
6.94014e-05
7.16264e-05
6.82236e-05
6.02367e-05
5.12955e-05
4.80232e-05
4.89935e-05
4.88854e-05
4.63725e-05
4.04636e-05
2.91004e-05
2.90162e-05
5.12407e-05
6.23766e-05
7.08191e-05
7.87644e-05
8.71541e-05
9.60391e-05
0.000105272
0.000114668
0.000122629
0.000125736
0.000121508
0.000112011
0.000101726
9.39222e-05
8.77613e-05
8.23904e-05
7.55418e-05
6.37196e-05
3.54368e-05
3.16024e-05
5.90356e-05
7.48976e-05
8.56482e-05
9.35668e-05
0.000100243
0.000106613
0.000113655
0.000122629
0.000132335
0.000136524
0.000129855
0.00011856
0.000108562
0.000100832
9.40695e-05
8.76291e-05
7.9809e-05
6.63371e-05
3.3616e-05
5.49474e-05
6.30541e-05
7.30042e-05
8.60059e-05
9.77807e-05
0.000105372
0.000109605
0.000113921
0.000123041
0.000136851
0.000143425
0.000130741
0.000113012
0.000101539
9.60056e-05
9.09219e-05
8.24877e-05
6.92534e-05
5.50004e-05
4.24478e-05
9.18461e-05
9.47463e-05
8.68548e-05
8.19365e-05
8.20415e-05
8.62518e-05
9.3521e-05
0.000104728
0.000122709
0.000147524
0.000160518
0.000139288
0.000110736
9.19657e-05
8.2233e-05
7.50049e-05
6.74999e-05
6.3499e-05
6.69387e-05
6.39929e-05
0.000129362
0.000136371
0.000118374
0.000101874
9.20319e-05
8.89788e-05
9.2077e-05
0.000103821
0.000130301
0.000171281
0.000193826
0.000162453
0.000120623
9.20198e-05
7.7025e-05
7.00965e-05
6.9363e-05
7.70858e-05
9.12311e-05
8.49823e-05
0.000165421
0.000186028
0.000168776
0.000146632
0.000135311
0.000135585
0.000144545
0.000162985
0.000195279
0.000241831
0.000265438
0.000227067
0.000176009
0.000134906
0.000107509
9.29023e-05
9.08682e-05
0.000103859
0.000120908
0.000107082
0.000199337
0.000244487
0.00026257
0.000270451
0.000284039
0.000308116
0.000331676
0.000349041
0.000362821
0.00038141
0.000393272
0.000374652
0.000343164
0.000299443
0.00024775
0.000198854
0.000167453
0.000164518
0.000159688
0.000130541
0.00023618
0.000321214
0.000437548
0.000554776
0.000627245
0.000674485
0.000697818
0.000696631
0.000677748
0.000655867
0.000650888
0.000659132
0.000666861
0.000648935
0.000593559
0.000506533
0.000413581
0.00030827
0.000218548
0.00015861
0.00026494
0.00032845
0.000386069
0.000438206
0.000487131
0.000532045
0.000572434
0.000607959
0.000636713
0.000654166
0.000643328
0.000608454
0.000565779
0.000518294
0.000466732
0.00041178
0.000355785
0.000301396
0.000245997
0.000187823
2.54132e-05
3.43837e-05
3.93572e-05
4.26014e-05
4.61824e-05
5.13869e-05
5.87318e-05
6.74708e-05
7.57898e-05
8.14769e-05
8.27306e-05
7.73828e-05
6.71231e-05
5.8692e-05
5.65825e-05
5.58139e-05
5.34371e-05
4.88724e-05
4.12265e-05
2.86647e-05
2.89712e-05
5.3876e-05
6.70379e-05
7.71714e-05
8.71541e-05
9.87416e-05
0.000112491
0.000127403
0.00014131
0.000150661
0.000151571
0.000143494
0.000131109
0.000118221
0.000107772
9.92929e-05
9.11887e-05
8.12576e-05
6.61775e-05
3.53539e-05
3.13109e-05
6.19258e-05
7.89281e-05
9.05977e-05
0.000100243
0.00011052
0.000123334
0.000139328
0.000157268
0.000171597
0.000171824
0.000157714
0.000140788
0.000126407
0.000115492
0.000106893
9.93816e-05
9.03561e-05
7.44207e-05
3.44422e-05
5.05109e-05
6.04004e-05
7.70636e-05
9.37424e-05
0.000105372
0.000113626
0.000123577
0.000140185
0.000165264
0.000190124
0.0001899
0.000164192
0.000137516
0.000119972
0.000110253
0.000102984
9.39591e-05
7.89927e-05
5.92112e-05
4.15032e-05
8.96285e-05
8.74138e-05
7.91695e-05
7.94192e-05
8.62518e-05
9.69071e-05
0.000111742
0.000135545
0.000173967
0.000217282
0.000219484
0.000177279
0.000135775
0.000109724
9.54734e-05
8.52743e-05
7.46205e-05
6.58697e-05
6.49414e-05
6.39158e-05
0.000132272
0.000137036
0.000112031
9.52569e-05
8.89788e-05
9.13245e-05
0.000103855
0.000134055
0.000190405
0.000259941
0.000267788
0.000204915
0.000144838
0.000106378
8.57695e-05
7.53168e-05
7.14066e-05
7.5942e-05
9.15083e-05
8.72385e-05
0.000172151
0.000194802
0.000165482
0.000141476
0.000135585
0.000144253
0.000166403
0.000205605
0.000267976
0.000342208
0.000345867
0.000273098
0.000202203
0.000150476
0.000116029
9.64946e-05
9.10696e-05
0.00010168
0.000128038
0.000112053
0.000210286
0.000261483
0.000271597
0.000278669
0.000308116
0.00034641
0.000382652
0.000412683
0.000444269
0.000480451
0.000471045
0.000421326
0.000375923
0.000327283
0.000270285
0.000214358
0.000174654
0.000166195
0.000173314
0.000138093
0.000251888
0.000348225
0.000475728
0.000593402
0.000674485
0.000734377
0.000763376
0.000767023
0.000759341
0.000752331
0.000737656
0.000720629
0.000721474
0.000705181
0.000647712
0.000550097
0.000438131
0.000337226
0.000235796
0.000169613
0.00028212
0.000352381
0.000415864
0.000474851
0.000532045
0.000586404
0.000638485
0.000688429
0.000733932
0.000767415
0.000755367
0.000699993
0.000638809
0.000576404
0.000512915
0.000448249
0.000383951
0.000323448
0.000263484
0.000200798
2.54956e-05
3.5846e-05
4.23282e-05
4.68069e-05
5.16305e-05
5.87318e-05
6.91638e-05
8.12807e-05
9.12964e-05
9.58872e-05
9.47346e-05
8.71037e-05
7.74167e-05
6.99256e-05
6.52895e-05
6.11978e-05
5.63874e-05
5.0177e-05
4.12746e-05
2.81936e-05
2.91641e-05
5.51923e-05
7.03989e-05
8.28877e-05
9.60391e-05
0.000112491
0.000133141
0.000155836
0.000175535
0.000185905
0.000182997
0.000170166
0.000154391
0.000137371
0.000121773
0.000108651
9.67739e-05
8.37036e-05
6.63002e-05
3.44794e-05
3.20904e-05
6.08012e-05
7.91464e-05
9.32071e-05
0.000106613
0.000123334
0.000146532
0.000176595
0.000208825
0.000231324
0.000223634
0.000196415
0.00017086
0.000149161
0.000131675
0.000118351
0.000107452
9.52577e-05
7.6844e-05
3.55702e-05
4.81406e-05
5.98273e-05
7.99895e-05
9.71725e-05
0.000109605
0.000123577
0.000147199
0.000186989
0.000241334
0.000286757
0.000270899
0.000218314
0.000173911
0.000144348
0.000126282
0.000114578
0.0001037
8.72146e-05
6.34981e-05
4.07228e-05
8.758e-05
8.05126e-05
7.52133e-05
8.07681e-05
9.3521e-05
0.000111742
0.000140972
0.000194491
0.000278827
0.000359178
0.00033322
0.000245728
0.000175886
0.000134109
0.000110888
9.56497e-05
8.17318e-05
6.89327e-05
6.29454e-05
6.29637e-05
0.000132668
0.000133081
0.000105844
9.28901e-05
9.2077e-05
0.000103855
0.000136244
0.000205202
0.000322515
0.000440338
0.000407705
0.000283325
0.000185233
0.000128867
9.90633e-05
8.31988e-05
7.52552e-05
7.58999e-05
8.9044e-05
8.76104e-05
0.000174858
0.000195912
0.000157415
0.000141078
0.000144545
0.000166403
0.000210514
0.000287364
0.000408353
0.000527885
0.000486441
0.000347595
0.000238641
0.000171703
0.000129839
0.000105077
9.51894e-05
0.000102053
0.000129878
0.000114083
0.000216502
0.000269128
0.000270549
0.000289202
0.000331676
0.000382652
0.000433408
0.000488845
0.000573198
0.00065138
0.000609916
0.000487535
0.000401387
0.000344297
0.000286165
0.00022809
0.00018313
0.000164665
0.000179709
0.000142008
0.000261989
0.000364751
0.000496578
0.000604968
0.000697818
0.000763376
0.000799144
0.000820965
0.000852216
0.000886214
0.000861252
0.000781732
0.000747626
0.000725442
0.000669401
0.000570092
0.000448846
0.000347487
0.000242926
0.000175773
0.000294862
0.000371208
0.00044029
0.000506354
0.000572434
0.000638485
0.000706285
0.000777035
0.000848448
0.000908006
0.000897556
0.000809403
0.000719592
0.00063597
0.00055692
0.000480699
0.000407568
0.000340709
0.000276443
0.0002098
2.57258e-05
3.72348e-05
4.50636e-05
5.10661e-05
5.77548e-05
6.74708e-05
8.12807e-05
9.66853e-05
0.000108352
0.000111536
0.000105974
9.71286e-05
9.00817e-05
8.16189e-05
7.30686e-05
6.5296e-05
5.81975e-05
5.07055e-05
4.09531e-05
2.77416e-05
3.01274e-05
5.62671e-05
7.31572e-05
8.82302e-05
0.000105272
0.000127403
0.000155836
0.000187954
0.000215799
0.000235021
0.000228666
0.000205213
0.000183132
0.000158892
0.000135721
0.000116311
9.99298e-05
8.38596e-05
6.45296e-05
3.34252e-05
3.38734e-05
5.86413e-05
7.78171e-05
9.48314e-05
0.000113655
0.000139328
0.000176595
0.000227302
0.000287619
0.000356501
0.000343263
0.000264677
0.000214976
0.000177625
0.000148815
0.00012743
0.000110391
9.32115e-05
7.13806e-05
3.4361e-05
4.82018e-05
5.97222e-05
7.90353e-05
9.64832e-05
0.000113921
0.000140185
0.000186989
0.000266402
0.000381788
0.000509491
0.000480904
0.000337072
0.000238302
0.000179605
0.000145602
0.000125559
0.000110467
9.17683e-05
6.57257e-05
4.01319e-05
8.56575e-05
7.62517e-05
7.5101e-05
8.55332e-05
0.000104728
0.000135545
0.000194491
0.000309273
0.000493107
0.000676675
0.000630868
0.00041599
0.000258637
0.000173496
0.000131489
0.000107527
8.89855e-05
7.23182e-05
6.22494e-05
6.14096e-05
0.000130206
0.000125345
0.000102175
9.54012e-05
0.000103821
0.000134055
0.000205202
0.000350571
0.000586201
0.000824048
0.000763517
0.0004852
0.000275077
0.00016823
0.000118968
9.40083e-05
8.05031e-05
7.62932e-05
8.43916e-05
8.61357e-05
0.000173378
0.000189596
0.000152584
0.000146123
0.000162985
0.000205605
0.000287364
0.000439689
0.000689833
0.00093493
0.000865956
0.000555129
0.000320012
0.000205219
0.000148267
0.000116429
0.000100948
0.000102381
0.000126806
0.000113078
0.00021741
0.000267661
0.000259673
0.000294804
0.000349041
0.000412683
0.000488845
0.000616667
0.000823443
0.00102208
0.000969652
0.000677602
0.000453852
0.000354187
0.000291297
0.000233985
0.000187294
0.000163394
0.000177529
0.000141822
0.000265936
0.000368618
0.00049804
0.000599535
0.000696631
0.000767023
0.000820965
0.000892327
0.00101322
0.00113851
0.00111422
0.000909334
0.000774261
0.000717577
0.000657442
0.00056044
0.000438188
0.000333655
0.000238263
0.000176596
0.000303074
0.000384488
0.000458711
0.000531829
0.000607959
0.000688429
0.000777035
0.000877432
0.000988206
0.00108864
0.00108615
0.0009473
0.00081245
0.000698075
0.000598473
0.000508151
0.000425172
0.000351934
0.000283964
0.000214382
2.61126e-05
3.88671e-05
4.79167e-05
5.54816e-05
6.40764e-05
7.57898e-05
9.12964e-05
0.000108352
0.000120682
0.000121774
0.000116233
0.000103721
0.000100141
9.04949e-05
7.88662e-05
6.83094e-05
5.94971e-05
5.11297e-05
4.08123e-05
2.74171e-05
3.16268e-05
5.82313e-05
7.66107e-05
9.41384e-05
0.000114668
0.00014131
0.000175535
0.000215799
0.000259572
0.000384903
0.00038941
0.000264262
0.000212694
0.000177409
0.000146369
0.000121362
0.000101411
8.33575e-05
6.31109e-05
3.25775e-05
3.66432e-05
5.82771e-05
7.79866e-05
9.80727e-05
0.000122629
0.000157268
0.000208825
0.000287619
0.000432298
0.000707188
0.000732096
0.000420647
0.000277869
0.000206454
0.000162314
0.000132245
0.000109389
8.83484e-05
6.48994e-05
3.48637e-05
5.0245e-05
6.04589e-05
7.77123e-05
9.72842e-05
0.000123041
0.000165264
0.000241334
0.000381788
0.000636303
0.00102186
0.00106089
0.000606026
0.000350844
0.000224571
0.000164753
0.000133053
0.000111636
9.02093e-05
6.44433e-05
4.07078e-05
8.3322e-05
7.58219e-05
7.89366e-05
9.4665e-05
0.000122709
0.000173967
0.000278827
0.000493107
0.000850029
0.00131774
0.0013595
0.000801001
0.000423278
0.000234822
0.000158167
0.000121724
9.6889e-05
7.59756e-05
6.25122e-05
5.99203e-05
0.00012525
0.000115933
0.000101623
0.000105415
0.000130301
0.000190405
0.000322515
0.000586201
0.00103169
0.00155805
0.00158742
0.000970111
0.000474194
0.00023699
0.000148704
0.000109519
8.8132e-05
7.80694e-05
8.11786e-05
8.35744e-05
0.000168349
0.000178052
0.000150228
0.00015867
0.000195279
0.000267976
0.000408353
0.000689833
0.00117517
0.00168888
0.00169652
0.00108037
0.000516978
0.000265183
0.00017383
0.000130911
0.000108105
0.000102475
0.000120229
0.000109619
0.000213396
0.000257739
0.000250346
0.00029736
0.000362821
0.000444269
0.000573198
0.000823443
0.00124843
0.00164736
0.0016504
0.00112167
0.000587334
0.000373084
0.000289823
0.000232598
0.000185998
0.000158131
0.000168983
0.000137917
0.000263797
0.00035975
0.000475685
0.000579358
0.000677748
0.000759341
0.000852216
0.00101322
0.00128805
0.00155654
0.0015646
0.00118802
0.000849963
0.000705446
0.00062278
0.000525877
0.000408429
0.000305303
0.000224875
0.000172578
0.00030617
0.000391136
0.000469784
0.000549738
0.000636713
0.000733932
0.000848448
0.000988206
0.00115315
0.00130356
0.00132
0.00112019
0.000918797
0.00076112
0.00063517
0.000528339
0.000434882
0.000355536
0.000285012
0.000213951
2.66183e-05
4.0689e-05
5.07885e-05
5.961e-05
6.94014e-05
8.14769e-05
9.58872e-05
0.000111536
0.000121774
0.000125739
0.00012194
0.00011578
0.000102303
9.34848e-05
8.13305e-05
6.99415e-05
6.03441e-05
5.14022e-05
4.08427e-05
2.72276e-05
3.32797e-05
6.09349e-05
8.07092e-05
0.000100119
0.000122629
0.000150661
0.000185905
0.000235021
0.000384903
0.000385266
0.000373707
0.000424326
0.000246192
0.000183662
0.000148311
0.000121936
0.000101098
8.23073e-05
6.18946e-05
3.27727e-05
3.94969e-05
6.02877e-05
8.09347e-05
0.00010376
0.000132335
0.000171597
0.000231324
0.000356501
0.000707188
0.000656838
0.000620752
0.000781394
0.000363807
0.000220829
0.000164075
0.000130852
0.000105922
8.34444e-05
6.05567e-05
3.65365e-05
5.27824e-05
6.29476e-05
8.01757e-05
0.00010346
0.000136851
0.000190124
0.000286757
0.000509491
0.00102186
0.000937169
0.000876328
0.00112335
0.000492572
0.0002543
0.000171957
0.000133601
0.000107349
8.4034e-05
6.14611e-05
4.29031e-05
8.10334e-05
7.75858e-05
8.63457e-05
0.000108669
0.000147524
0.000217282
0.000359178
0.000676675
0.00131774
0.00120375
0.00112881
0.00142353
0.000613253
0.000287053
0.00017968
0.000135041
0.000105537
8.09583e-05
6.43872e-05
5.94263e-05
0.000119928
0.000110178
0.000106476
0.000125975
0.000171281
0.000259941
0.000440338
0.000824048
0.00155805
0.00142142
0.00135486
0.0016376
0.000700417
0.000309009
0.000182314
0.000130108
9.97403e-05
8.25471e-05
8.06735e-05
8.13375e-05
0.000162097
0.000167705
0.00015326
0.000181879
0.000241831
0.000342208
0.000527885
0.00093493
0.00168888
0.00155367
0.0015229
0.00171927
0.000738916
0.000333238
0.000204885
0.000150276
0.000118524
0.000104097
0.000114288
0.000105475
0.000206805
0.000246597
0.00024479
0.000304486
0.00038141
0.000480451
0.00065138
0.00102208
0.00164736
0.00162691
0.0016322
0.00167774
0.000756323
0.00040325
0.000292487
0.000232551
0.000184856
0.000152335
0.000158599
0.000132129
0.000257452
0.000347354
0.0004522
0.000555316
0.000655867
0.000752331
0.000886214
0.00113851
0.00155654
0.00170233
0.00172975
0.00153758
0.000969535
0.000709601
0.000588323
0.000484965
0.000373871
0.000276057
0.000208201
0.000165201
0.000303373
0.000390195
0.000471655
0.00055734
0.000654166
0.000767415
0.000908006
0.00108864
0.00130356
0.00143966
0.0014764
0.00129677
0.0010242
0.000815877
0.000660714
0.000537073
0.000434109
0.000350187
0.000279051
0.000208115
2.7043e-05
4.18964e-05
5.25073e-05
6.17954e-05
7.16264e-05
8.27306e-05
9.47346e-05
0.000105974
0.000116233
0.00012194
0.000122109
0.000115572
9.93045e-05
9.10136e-05
8.00786e-05
6.94998e-05
6.02084e-05
5.12595e-05
4.07629e-05
2.70785e-05
3.44396e-05
6.31283e-05
8.37479e-05
0.000103684
0.000125736
0.000151571
0.000182997
0.000228666
0.00038941
0.000373707
0.000359685
0.000427128
0.000228584
0.000171233
0.000140643
0.000117689
9.8663e-05
8.05982e-05
6.05999e-05
3.31142e-05
4.17495e-05
6.29359e-05
8.44726e-05
0.000108328
0.000136524
0.000171824
0.000223634
0.000343263
0.000732096
0.000620752
0.000575487
0.000834711
0.000341432
0.000202466
0.000153193
0.000124236
0.000101096
7.95108e-05
5.82928e-05
3.83783e-05
5.65305e-05
6.63616e-05
8.45532e-05
0.000109896
0.000143425
0.0001899
0.000270899
0.000480904
0.00106089
0.000876328
0.000804298
0.00121363
0.000459772
0.00022942
0.000160128
0.000126637
0.000101396
7.91396e-05
6.02168e-05
4.66013e-05
8.36764e-05
8.13451e-05
9.39062e-05
0.000120685
0.000160518
0.000219484
0.00033322
0.000630868
0.0013595
0.00112881
0.00105454
0.0015243
0.000567963
0.000258741
0.000172611
0.000135919
0.00010932
8.59886e-05
6.85114e-05
6.11153e-05
0.000120799
0.000112212
0.000114627
0.000144537
0.000193826
0.000267788
0.000407705
0.000763517
0.00158742
0.00135486
0.00131117
0.0017264
0.000647893
0.000288915
0.000191527
0.000147577
0.000114579
9.05757e-05
8.33223e-05
8.1803e-05
0.000161969
0.000168472
0.000160336
0.000201568
0.000265438
0.000345867
0.000486441
0.000865956
0.00169652
0.0015229
0.00152547
0.00178366
0.000687934
0.000322342
0.000222001
0.000171828
0.000133751
0.000109518
0.000113249
0.000105011
0.000206335
0.000247459
0.000252372
0.000318568
0.000393272
0.000471045
0.000609916
0.000969652
0.0016504
0.0016322
0.00167403
0.00172121
0.000715326
0.000394939
0.000303184
0.000245867
0.000193976
0.0001534
0.000154278
0.00013119
0.000256299
0.000350346
0.000458622
0.000557111
0.000650888
0.000737656
0.000861252
0.00111422
0.0015646
0.00172975
0.00178961
0.00156334
0.000956261
0.000702877
0.00058791
0.000485989
0.00037393
0.000274487
0.00020644
0.000163772
0.00029895
0.000384574
0.000464976
0.000548695
0.000643328
0.000755367
0.000897556
0.00108615
0.00132
0.0014764
0.00153636
0.00132477
0.00103001
0.000813821
0.000655922
0.000531584
0.000429034
0.000345937
0.000275344
0.000205526
2.69724e-05
4.14441e-05
5.147e-05
5.98235e-05
6.82236e-05
7.73828e-05
8.71037e-05
9.71286e-05
0.000103721
0.00011578
0.000115572
9.91619e-05
9.03748e-05
8.33658e-05
7.4921e-05
6.624e-05
5.81856e-05
4.99597e-05
4.0043e-05
2.68423e-05
3.40236e-05
6.26909e-05
8.31797e-05
0.00010202
0.000121508
0.000143494
0.000170166
0.000205213
0.000264262
0.000424326
0.000427128
0.000248161
0.000186393
0.000154392
0.000130247
0.000111044
9.44142e-05
7.78325e-05
5.88231e-05
3.28972e-05
4.09597e-05
6.29237e-05
8.4176e-05
0.000106087
0.000129855
0.000157714
0.000196415
0.000264677
0.000420647
0.000781394
0.000834711
0.000409623
0.000235947
0.000171231
0.000138332
0.0001151
9.4984e-05
7.54557e-05
5.62366e-05
3.88911e-05
5.64425e-05
6.52367e-05
8.21406e-05
0.000104364
0.000130741
0.000164192
0.000218314
0.000337072
0.000606026
0.00112335
0.00121363
0.000583478
0.000282512
0.000179955
0.000139341
0.00011397
9.27039e-05
7.37453e-05
5.87763e-05
4.86103e-05
8.5173e-05
8.07133e-05
8.96062e-05
0.00011074
0.000139288
0.000177279
0.000245728
0.00041599
0.000801001
0.00142353
0.0015243
0.000740782
0.0003268
0.000192555
0.00014649
0.000120336
9.93609e-05
8.19798e-05
7.04879e-05
6.35236e-05
0.000122504
0.000114782
0.000110335
0.000130457
0.000162453
0.000204915
0.000283325
0.0004852
0.000970111
0.0016376
0.0017264
0.000855954
0.000368049
0.000216125
0.000166755
0.000138816
0.000114956
9.48178e-05
8.71382e-05
8.30744e-05
0.000163169
0.000173492
0.000157319
0.000184946
0.000227067
0.000273098
0.000347595
0.000555129
0.00108037
0.00171927
0.00178366
0.000913445
0.000411033
0.000259381
0.000208231
0.000174344
0.000141857
0.000114999
0.000114568
0.000105652
0.000207102
0.000253484
0.000260283
0.000316416
0.000374652
0.000421326
0.000487535
0.000677602
0.00112167
0.00167774
0.00172121
0.000938171
0.000486603
0.000359854
0.000307223
0.000258807
0.000206796
0.000159548
0.000154772
0.0001318
0.000255868
0.000357359
0.000479157
0.000573939
0.000659132
0.000720629
0.000781732
0.000909334
0.00118802
0.00153758
0.00156334
0.00107221
0.000785511
0.000682508
0.000608183
0.000510868
0.000395389
0.000290746
0.000213143
0.000164377
0.00029331
0.000375222
0.000450938
0.000526851
0.000608454
0.000699993
0.000809403
0.0009473
0.00112019
0.00129677
0.00132477
0.00109508
0.000893417
0.000738249
0.00061349
0.000507847
0.000416459
0.000339373
0.000271155
0.000203256
2.64587e-05
3.92155e-05
4.79555e-05
5.44225e-05
6.02367e-05
6.71231e-05
7.74167e-05
9.00817e-05
0.000100141
0.000102303
9.93045e-05
9.03748e-05
8.24892e-05
7.44169e-05
6.72492e-05
6.06739e-05
5.43188e-05
4.73612e-05
3.84596e-05
2.63198e-05
3.22495e-05
5.92064e-05
7.82847e-05
9.50501e-05
0.000112011
0.000131109
0.000154391
0.000183132
0.000212694
0.000246192
0.000228584
0.000186393
0.000161337
0.000139725
0.000120583
0.000104204
8.94587e-05
7.42905e-05
5.63047e-05
3.13241e-05
3.72799e-05
5.97973e-05
8.01153e-05
9.92568e-05
0.00011856
0.000140788
0.00017086
0.000214976
0.000277869
0.000363807
0.000341432
0.000235947
0.000179617
0.000147724
0.000125207
0.000106669
8.94607e-05
7.18177e-05
5.35552e-05
3.67626e-05
5.13932e-05
5.99463e-05
7.47678e-05
9.28427e-05
0.000113012
0.000137516
0.000173911
0.000238302
0.000350845
0.000492572
0.000459772
0.000282512
0.000188217
0.000145263
0.000120274