/*--------------------------------*- C++ -*----------------------------------*\
  =========                 |
  \\      /  F ield         | OpenFOAM: The Open Source CFD Toolbox
   \\    /   O peration     | Website:  https://openfoam.org
    \\  /    A nd           | Version:  9
     \\/     M anipulation  |
\*---------------------------------------------------------------------------*/
FoamFile
{
    format      ascii;
    class       surfaceScalarField;
    location    "450";
    object      phi;
}
// * * * * * * * * * * * * * * * * * * * * * * * * * * * * * * * * * * * * * //

dimensions      [1 0 -1 0 0 0 0];

internalField   nonuniform List<scalar> 
11200
(
-0.000249546
0.000498966
-0.000249547
0.000359454
-0.00064135
3.22942e-05
0.00116151
-0.00102672
0.000224678
0.0019098
-0.000908837
0.000160549
0.00248212
-0.000617346
4.4996e-05
0.00286798
-0.000321803
-6.41359e-05
0.00301985
-3.9278e-05
-0.000112706
0.00298379
0.000149391
-0.000113469
0.00281774
0.000256035
-9.01228e-05
0.00254189
0.000331994
-5.62805e-05
0.00201505
0.000564163
-3.74558e-05
0.00105538
0.000976808
-1.72414e-05
-0.000295682
0.00136744
-1.6478e-05
-0.00166867
0.00146473
-9.18805e-05
-0.00252968
0.0011326
-0.000271741
-0.00269704
0.000622475
-0.000455246
-0.00226402
0.000181522
-0.000614658
-0.00142493
-4.19724e-05
-0.000797226
-0.000476004
0.000160971
-0.00111002
0.000881261
-0.00135741
0.000921301
-0.00134357
0.000921301
0.00154927
-0.00202725
0.000758122
0.00172124
-0.00180645
0.000607868
0.00173034
-0.00130024
0.000382351
0.00174072
-0.000830532
0.000202796
0.00180957
-0.000493913
0.000103222
0.0017557
-4.73573e-05
6.1892e-05
0.00154877
0.000282
7.42319e-05
0.00128037
0.000414973
0.000109364
0.00104242
0.000416524
0.000153327
0.000816335
0.000591874
0.000198245
0.000404883
0.00114945
0.000238627
-0.0003073
0.00180058
0.000278814
-0.00117229
0.0020387
0.000290756
-0.00188158
0.00155005
0.000291628
-0.00225232
0.000656328
0.000336726
-0.00221315
-0.000239233
0.000381505
-0.00177417
-0.000828104
0.000347148
-0.000960465
-0.000756955
0.000104211
-3.37024e-05
-4.55809e-05
0.00239551
-0.0061336
0.00239551
0.00343508
-0.00511965
0.00205362
0.00359025
-0.00360966
0.00164859
0.0032485
-0.00218788
0.00122968
0.00275644
-0.00120734
0.000868971
0.00230631
-0.000671027
0.000627244
0.00186187
-0.000173428
0.000570461
0.00130108
0.000217375
0.00062533
0.000699335
0.000341186
0.000675452
0.00018116
0.000245933
0.000688706
-0.000141266
0.000195783
0.000718455
-0.00037699
0.000554402
0.000830655
-0.000697046
0.00116032
0.000960109
-0.0011005
0.00146714
0.000974773
-0.00148574
0.00102455
0.000910527
-0.00177833
4.96078e-05
0.000899192
-0.0019677
-0.00098632
0.00093646
-0.0019643
-0.00177578
0.000944377
-0.00142559
-0.00221821
0.000922727
-0.00248462
0.00102557
0.00284747
-0.0118281
0.00284747
0.00432004
-0.00954935
0.0029576
0.00503295
-0.00720806
0.00288596
0.00520668
-0.00503982
0.00267866
0.00495602
-0.00334548
0.00238915
0.00428911
-0.00211892
0.002115
0.00334985
-0.00121765
0.00198354
0.00221308
-0.000606016
0.00196012
0.00101558
-0.000326278
0.0018649
-4.19087e-05
-0.000361664
0.00166506
-0.000690429
-0.000702116
0.00154642
-0.00110256
-0.000763811
0.00173032
-0.00147242
-0.00053559
0.00206567
-0.00182968
-0.000402494
0.00222672
-0.00219538
-0.000715214
0.00210534
-0.00257818
-0.00143384
0.00186627
-0.00299182
-0.002306
0.00173346
-0.00312314
-0.00339256
0.00174842
-0.00237023
-0.00487014
0.00189952
-0.00701649
0.00216229
0.00171098
-0.0152501
0.00171098
0.00237272
-0.0126135
0.00240245
0.00240015
-0.0100537
0.00281831
0.00209186
-0.00783932
0.00310787
0.00161081
-0.00615741
0.00329306
0.00104697
-0.00489072
0.00333572
0.000501973
-0.00390786
0.00323527
7.21463e-05
-0.00315919
0.00298304
-0.000253624
-0.0026298
0.00262931
-0.00054652
-0.0023282
0.00225945
-0.000589799
-0.00266327
0.00200446
-0.000500708
-0.00300196
0.00214908
-0.000512776
-0.00309
0.00256649
-0.000746447
-0.0031306
0.00296178
-0.00125929
-0.00336185
0.00315949
-0.00194508
-0.00386492
0.00311691
-0.0024717
-0.00470581
0.00292655
-0.00251421
-0.0060703
0.0027204
-0.0017589
-0.0081151
0.00248976
-0.0111111
0.0023357
0.000656608
-0.0165632
0.000656608
0.000140007
-0.0138964
0.00179954
-0.00082971
-0.0114888
0.00240483
-0.00174291
-0.00968878
0.00276273
-0.00240401
-0.00843507
0.00293882
-0.00267681
-0.00754116
0.0029233
-0.00254678
-0.00681728
0.00277944
-0.00209788
-0.00618456
0.0025765
-0.00146868
-0.00558856
0.0023296
-0.000796342
-0.00509862
0.00209811
-2.25248e-06
-0.00532469
0.00186735
0.00084379
-0.00573764
0.00188966
0.00154798
-0.00596393
0.00216976
0.0019881
-0.00610603
0.00253533
0.0020306
-0.00628052
0.0028762
0.00164004
-0.00657346
0.00309911
0.000977478
-0.00715736
0.00311412
0.00034202
-0.0082831
0.00284825
0.000132846
-0.01026
0.00235398
-0.012986
0.00200767
-0.000267086
-0.016029
-0.000267086
-0.00165674
-0.0137724
0.00126573
-0.00309813
-0.0118567
0.0018094
-0.00410864
-0.01068
0.00200182
-0.00454653
-0.00995894
0.00196183
-0.00443195
-0.00943229
0.00177661
-0.00384815
-0.00894266
0.00154164
-0.00292666
-0.00844695
0.00134094
-0.00182717
-0.00791471
0.0012267
-0.000659202
-0.0074248
0.00115825
0.000633267
-0.00756092
0.000943783
0.00196135
-0.00792584
0.000860142
0.00313365
-0.00815128
0.00101509
0.00400046
-0.0082919
0.0013191
0.00442783
-0.00840709
0.00169924
0.00435131
-0.00853446
0.00203757
0.0037557
-0.00879966
0.00223795
0.00275492
-0.00947954
0.00219723
0.00144015
-0.0109176
0.0019724
-0.0131864
0.00164057
-0.00114178
-0.0137454
-0.00114178
-0.00319703
-0.0120202
0.000303168
-0.0048912
-0.0108117
0.000649279
-0.00589402
-0.010203
0.000525958
-0.00611301
-0.00986826
0.00012839
-0.00566934
-0.00965073
-0.00022515
-0.00470374
-0.00942427
-0.000483933
-0.00338201
-0.00912688
-0.000641751
-0.00190364
-0.00872581
-0.000667218
-0.000427003
-0.00828244
-0.000618967
0.00119357
-0.0084012
-0.000780262
0.00287741
-0.00869782
-0.000911819
0.00440652
-0.00883955
-0.000840798
0.00559333
-0.00887164
-0.000607025
0.00629735
-0.00883982
-0.000271227
0.00639864
-0.00880219
0.000166505
0.00577842
-0.00886061
0.000681219
0.00449352
-0.00916253
0.000967946
0.0025137
-0.0100383
0.00110056
-0.0116966
0.00102388
-0.0023989
-0.00894752
-0.0023989
-0.00500906
-0.00796857
-0.00144141
-0.00680602
-0.0075036
-0.00151108
-0.00769779
-0.00742807
-0.00188312
-0.00773838
-0.00746596
-0.00236164
-0.00703912
-0.00753533
-0.0028146
-0.00572748
-0.00758198
-0.00315388
-0.0039786
-0.00755208
-0.00332363
-0.00201002
-0.00738357
-0.0033108
-0.000106409
-0.00708434
-0.00310169
0.00191762
-0.00715836
-0.00326684
0.00396739
-0.00730717
-0.00344038
0.00579508
-0.0072846
-0.0033826
0.0072056
-0.00715335
-0.00312876
0.00806523
-0.00697873
-0.00272065
0.00826495
-0.0067941
-0.00220775
0.0076929
-0.0066337
-0.00165478
0.00623557
-0.00656794
-0.00113719
0.00369931
-0.00683093
-0.000671053
-0.00767661
-0.000320672
-0.00447372
-0.00447372
-0.00766681
-0.00477538
-0.0094691
-0.00570122
-0.0102329
-0.00666415
-0.0100876
-0.00761119
-0.00913772
-0.0084852
-0.00747142
-0.00924825
-0.00518523
-0.00983824
-0.00246681
-0.010102
0.000301688
-0.00985283
0.0030254
-0.00988205
0.00562162
-0.00990336
0.00777506
-0.009438
0.0093761
-0.00875434
0.0103538
-0.00795642
0.0106216
-0.00706179
0.0100634
-0.00607545
0.00849526
-0.00499969
0.00540675
-0.00374235
-0.00226981
3.22943e-05
-0.00064135
0.000359454
0.000526829
-0.000989073
0.000526829
0.00120765
-0.00111649
0.000660382
0.00187763
-0.00107542
0.000566014
0.00244218
-0.000914644
0.000395104
0.00281978
-0.000685415
0.000243653
0.0029975
-0.000458363
0.000167863
0.00299516
-0.000281694
0.000170468
0.00285712
-0.000175687
0.000223494
0.00259863
-9.13935e-05
0.000293487
0.00212389
0.000107511
0.00032966
0.00120686
0.000604625
0.000295062
-0.000108213
0.00109197
0.00020653
-0.00144739
0.00125281
-5.65434e-06
-0.00228718
0.000884043
-0.000316135
-0.00243701
0.000235178
-0.000540708
-0.00203812
-0.000358455
-0.000655148
-0.00129579
-0.000796843
-0.000742717
-0.000532418
-0.000921219
-0.000952168
-0.000784102
-0.00110575
0.000758122
-0.00202725
0.00154927
0.00135192
-0.00217647
0.00135192
0.00167994
-0.0019438
0.0011073
0.0018095
-0.00161248
0.000789926
0.00183516
-0.00127803
0.000540559
0.00185697
-0.00101065
0.00040664
0.00181502
-0.000726569
0.00037203
0.00166118
-0.000471057
0.000417395
0.00144272
-0.00034037
0.000492464
0.00122726
-0.000296517
0.000573872
0.000976604
-7.87732e-05
0.000635134
0.000568211
0.000555615
0.000695906
-6.70336e-05
0.00128907
0.000716782
-0.000783887
0.00157103
0.000689177
-0.00136129
0.00111023
0.000642677
-0.00164548
0.000213508
0.0006425
-0.00156344
-0.000707365
0.000648377
-0.00119131
-0.00140744
0.000585681
-0.000644252
-0.0017473
0.00038333
-0.0016931
0.000219255
0.00205362
-0.00511965
0.00343508
0.0030828
-0.0042342
0.0030828
0.00333025
-0.00304323
0.00250101
0.00308174
-0.0019963
0.00186226
0.0026464
-0.00130829
0.00133468
0.00220142
-0.000946148
0.00100774
0.00178634
-0.000677791
0.000936746
0.00133636
-0.000421109
0.00102534
0.000847355
-0.000289022
0.00111308
0.000405322
-0.00032565
0.00115986
8.0337e-05
-0.000244039
0.0012087
-0.000200007
0.000326169
0.00134038
-0.00048916
0.0010344
0.00150378
-0.00080901
0.00131104
0.00155442
-0.0011152
0.000830136
0.00149666
-0.00137822
-8.754e-05
0.00146319
-0.00153217
-0.00110165
0.00148471
-0.00153724
-0.00192293
0.00146504
-0.00115914
-0.00262875
0.0014263
-0.00337695
0.00155062
0.0029576
-0.00954935
0.00432004
0.00465199
-0.00762249
0.00465199
0.00551368
-0.00553827
0.0045198
0.00569101
-0.00353146
0.00403694
0.00531979
-0.00195068
0.00340308
0.00452559
-0.000870121
0.00283335
0.00349633
-0.000169436
0.00250448
0.00235773
0.000279428
0.00239816
0.00121947
0.000421895
0.00229222
0.000190582
0.000272937
0.00209536
-0.000572144
7.64726e-05
0.00198865
-0.00114902
0.000398784
0.00223457
-0.00155975
0.000844251
0.00266648
-0.00183271
0.000926227
0.00288436
-0.00212641
0.000426207
0.00280287
-0.00253025
-0.000455697
0.00263825
-0.00300449
-0.00146923
0.00257537
-0.0031684
-0.00269645
0.0026861
-0.00242119
-0.00441267
0.00293663
-0.00684886
0.00321349
0.00240245
-0.0126135
0.00237272
0.00377305
-0.0103637
0.00377305
0.0044014
-0.00789513
0.00454687
0.00455123
-0.00544991
0.00487657
0.00436399
-0.0033671
0.00489682
0.00388871
-0.00174831
0.00468928
0.00315231
-0.000567436
0.00436973
0.00222279
0.000224784
0.00396724
0.00114389
0.000653476
0.00347664
5.62896e-05
0.000654023
0.00296598
-0.000851662
0.000369035
0.00261987
-0.00154246
0.000350162
0.00288851
-0.00212377
0.000466023
0.003526
-0.00263332
0.000339005
0.00405851
-0.00313631
-0.000187674
0.00427634
-0.00362824
-0.00108093
0.00423411
-0.00389876
-0.00240724
0.0041352
-0.00362265
-0.00430385
0.00405183
-0.00244891
-0.0069077
0.00381112
-0.0103124
0.00335029
0.00179954
-0.0138964
0.000140007
0.0024147
-0.0115939
0.0024147
0.00224074
-0.00899712
0.00368083
0.00172168
-0.00650542
0.00433735
0.00110357
-0.00441154
0.00460142
0.000545867
-0.00280985
0.00454259
0.000139933
-0.00162
0.00423797
-0.000129432
-0.00074583
0.0038165
-0.00037462
-0.00016333
0.00339159
-0.000602162
4.17734e-05
0.00293789
-0.000796773
-0.000123788
0.00255479
-0.000893147
-0.000364551
0.00270075
-0.000945966
-0.000578067
0.00326666
-0.00104883
-0.00091692
0.0038941
-0.00128914
-0.00146566
0.00439449
-0.00160638
-0.00235357
0.00468899
-0.0018804
-0.00371667
0.00469756
-0.00187713
-0.00577318
0.00431428
-0.00135204
-0.00861345
0.00353457
-0.0121351
0.00247823
0.00126573
-0.0137724
-0.00165674
0.00114571
-0.0113538
0.00114571
0.000333736
-0.00895295
0.00257728
-0.000521793
-0.00685203
0.00320403
-0.0011947
-0.00514516
0.00336843
-0.00157932
-0.00388372
0.00323514
-0.00167759
-0.0029412
0.00296114
-0.00153392
-0.00214236
0.00259382
-0.00125894
-0.00150311
0.00229151
-0.000931948
-0.00113424
0.00200727
-0.000540934
-0.00128649
0.00171548
-2.57772e-05
-0.00170612
0.00168655
0.000498435
-0.0021035
0.00201631
0.000865128
-0.00253751
0.00257301
0.000931832
-0.00301855
0.00318544
0.000732995
-0.00374333
0.00362619
0.000342106
-0.00489225
0.00380443
-0.00018927
-0.006584
0.00353942
-0.000428889
-0.00912011
0.00271866
-0.0123543
0.00143086
0.000303168
-0.0120202
-0.00319703
-0.000470409
-0.00980657
-0.000470409
-0.00172903
-0.00782465
0.000779688
-0.0026792
-0.00645453
0.0010787
-0.00319412
-0.00539069
0.000888916
-0.00324981
-0.00456645
0.00051331
-0.00292212
-0.00394073
0.000187943
-0.00234599
-0.00338391
2.37017e-05
-0.00162756
-0.00283392
-5.48222e-05
-0.000916266
-0.00238949
-7.49933e-05
-4.34598e-05
-0.00247179
-0.000467765
0.0010095
-0.00289841
-0.000772471
0.00201711
-0.00325483
-0.000697064
0.00271642
-0.00363021
-0.000213606
0.00302865
-0.00398639
0.000384415
0.00290796
-0.00450286
0.00104676
0.00237025
-0.00526849
0.00159522
0.00145795
-0.00640843
0.0017047
0.000489485
-0.00828649
0.00123542
-0.0108984
5.74124e-05
-0.00144141
-0.00796857
-0.00500906
-0.00322278
-0.00624375
-0.00322278
-0.00471913
-0.00512817
-0.00271113
-0.00560868
-0.00449841
-0.00294961
-0.00579794
-0.0040507
-0.00351232
-0.00535333
-0.00370418
-0.00412143
-0.00443564
-0.00341664
-0.00459562
-0.00321701
-0.00312402
-0.00480213
-0.00180827
-0.00272632
-0.00482712
-0.000453085
-0.00219821
-0.00464815
0.00102144
-0.00235069
-0.00486245
0.00254136
-0.00282611
-0.00503258
0.00393011
-0.00306601
-0.00496014
0.00500675
-0.00323301
-0.00460257
0.00566178
-0.00340565
-0.00395638
0.00574366
-0.00363371
-0.00315872
0.00513792
-0.00396591
-0.00235156
0.00382822
-0.00449764
-0.0017382
0.00192264
-0.00552982
-0.00152208
-0.00733613
-0.00196022
-0.00477538
-0.00766681
-0.00789721
-0.00789721
-0.00971453
-0.00901199
-0.0105281
-0.010349
-0.0104636
-0.0117264
-0.00961499
-0.0130379
-0.00805611
-0.0142238
-0.0058378
-0.0151806
-0.00304406
-0.015622
0.000233979
-0.0153291
0.00334949
-0.0153483
0.0059155
-0.0152955
0.00794231
-0.0145308
0.00938295
-0.0134279
0.0101965
-0.0121756
0.0103073
-0.0108062
0.00960041
-0.00933441
0.00789683
-0.00779367
0.00482457
-0.00619983
-0.00478131
0.000224678
-0.00102672
0.00116151
0.000660382
-0.00111649
0.00120765
0.00123905
-0.00115729
0.00123905
0.00183887
-0.00115107
0.00111731
0.00238792
-0.00109617
0.000942274
0.0028049
-0.000963107
0.000789787
0.00303089
-0.000770043
0.000711899
0.00306516
-0.000593952
0.000730088
0.00294191
-0.000468156
0.000814831
0.00266459
-0.000355758
0.000926474
0.00215733
-0.00013609
0.000972917
0.00126015
0.00031059
0.000881567
-3.93167e-05
0.000831679
0.000674233
-0.00130917
0.000965258
0.000298821
-0.00206499
0.000508215
-6.86558e-05
-0.00217704
-0.000174858
-0.00025386
-0.00178127
-0.000802768
-0.00024812
-0.00112519
-0.00118417
-0.000214553
-0.000495841
-0.00130757
-0.000273882
-0.00129218
-0.000309357
0.000607868
-0.00180645
0.00172124
0.0011073
-0.0019438
0.00167994
0.00145101
-0.00184458
0.00145101
0.00163938
-0.00167723
0.00112781
0.00171432
-0.00149868
0.000868187
0.00174837
-0.00133519
0.000744702
0.00174406
-0.00115162
0.000757927
0.00165541
-0.000955453
0.000867533
0.00149452
-0.000833674
0.00101885
0.00131198
-0.00076726
0.0011679
0.00109491
-0.000541452
0.00125754
0.000725304
8.67786e-05
0.00128924
0.000190705
0.000841544
0.00124137
-0.000397861
0.00111798
0.00112486
-0.00090599
0.000660725
0.000998185
-0.00116691
-0.00016016
0.00088869
-0.00113135
-0.000994969
0.00080506
-0.000873669
-0.00155616
0.000700056
-0.000493696
-0.00178855
0.000484435
-0.00174311
0.000176583
0.00164859
-0.00360966
0.00359025
0.00250101
-0.00304323
0.00333025
0.00273177
-0.00230578
0.00273177
0.00256246
-0.00170374
0.00205826
0.00222853
-0.00134837
0.00151839
0.00187563
-0.00118686
0.00121235
0.00155812
-0.00107832
0.00118097
0.00122883
-0.000919627
0.0013188
0.000861967
-0.000833318
0.00147959
0.000525878
-0.000879012
0.00160771
0.000278963
-0.000785294
0.00169946
5.52965e-05
-0.000165561
0.00181636
-0.00017371
0.000650563
0.00192367
-0.000446297
0.00101939
0.00192547
-0.000743371
0.000621286
0.00183307
-0.000994347
-0.000195261
0.00174923
-0.00117992
-0.00103524
0.00171058
-0.00125603
-0.00169217
0.00167726
-0.001009
-0.00227023
0.00166113
-0.00293534
0.00173411
0.00288596
-0.00720806
0.00503295
0.0045198
-0.00553827
0.00551368
0.00529359
-0.00385288
0.00529359
0.00533031
-0.0022776
0.00457448
0.00480866
-0.00111986
0.00369649
0.00394807
-0.000447343
0.00295453
0.00296195
-0.000112255
0.00252456
0.00198462
6.51881e-05
0.00239066
0.00107711
5.19233e-06
0.00236121
0.000282114
-0.000300269
0.00231163
-0.000346451
-0.000461643
0.00229359
-0.000875573
8.33191e-05
0.00251481
-0.00127533
0.000826218
0.00289053
-0.00155916
0.00109962
0.00308786
-0.00186599
0.000710651
0.00302024
-0.00231841
4.92721e-06
0.00289045
-0.00285298
-0.00083685
0.00291159
-0.00310719
-0.00189541
0.00314374
-0.002426
-0.0035311
0.00351661
-0.00593559
0.0037881
0.00281831
-0.0100537
0.00240015
0.00454687
-0.00789513
0.0044014
0.0055176
-0.00579425
0.0055176
0.00590429
-0.0036484
0.0058608
0.00580722
-0.0017902
0.00566436
0.00526241
-0.000405958
0.00519284
0.00431185
0.000540423
0.0046677
0.00310776
0.00106724
0.00416932
0.00175781
0.00115651
0.0036753
0.00039963
0.000836916
0.003187
-0.0007669
0.00045171
0.00287307
-0.0017154
0.000751717
0.00316862
-0.00248588
0.0013018
0.00382087
-0.00312422
0.00147248
0.00432394
-0.00373978
0.0010849
0.00451762
-0.00430526
0.000250671
0.00455388
-0.00462692
-0.00100184
0.00462194
-0.00428755
-0.00291825
0.0047354
-0.00288575
-0.00564201
0.00452027
-0.00915792
0.00368684
0.00240483
-0.0114888
-0.00082971
0.00368083
-0.00899712
0.00224074
0.00414032
-0.00671321
0.00414032
0.00405915
-0.00434788
0.00511804
0.00366062
-0.00224306
0.00545285
0.00308731
-0.000636014
0.00534599
0.00241078
0.000485598
0.00496933
0.00163911
0.00118006
0.00447535
0.000793269
0.00145198
0.00394195
-0.000132188
0.00133309
0.00336717
-0.00104315
0.00099479
0.00292268
-0.00178902
0.00104819
0.00315014
-0.00238353
0.00129711
0.00386584
-0.00289402
0.00130012
0.00457692
-0.00337321
0.000877051
0.00508148
-0.0036825
-0.000130148
0.00537909
-0.00374112
-0.00163792
0.00539224
-0.00330968
-0.00403872
0.00500326
-0.00215062
-0.007195
0.00392842
-0.0109387
0.00210837
0.0018094
-0.0118567
-0.00309813
0.00257728
-0.00895295
0.000333736
0.00255891
-0.00667643
0.00255891
0.00211232
-0.00441369
0.00371648
0.00155023
-0.00247961
0.00416711
0.00105589
-0.000953151
0.00404664
0.000608627
0.000196087
0.00369793
0.000245576
0.000867401
0.00326953
-0.00011088
0.00124261
0.00285732
-0.000567754
0.00135629
0.00244093
-0.0010412
0.00113444
0.00204926
-0.00135001
0.000921362
0.00212219
-0.00149965
0.000803076
0.00265997
-0.00160053
0.000594985
0.003379
-0.00170955
0.000112717
0.00405878
-0.00184996
-0.000899086
0.00453552
-0.00199252
-0.00240119
0.00471023
-0.00193489
-0.00469235
0.00413539
-0.00142256
-0.00768088
0.00269218
-0.0112947
0.000364258
0.000649279
-0.0108117
-0.0048912
0.000779688
-0.00782465
-0.00172903
0.000240484
-0.00559794
0.000240484
-0.000380065
-0.00384059
0.00112622
-0.000821032
-0.00237597
0.00122629
-0.000983758
-0.00125376
0.000976675
-0.000851517
-0.000456665
0.000708466
-0.000626881
0.000127512
0.000538958
-0.000558695
0.000780088
0.000339517
-0.000653328
0.00123159
0.000144342
-0.00076033
0.000975868
-0.000202192
-0.000519026
0.000267653
-0.000360072
-0.00015495
-7.70819e-05
-0.000180992
0.000233567
-0.000344647
0.000337501
0.000504775
-0.000799322
0.00102524
0.000464358
-0.001564
0.0017521
0.000198607
-0.00275041
0.00221021
-0.000280886
-0.00447423
0.00196608
-0.000392435
-0.00701252
0.000678626
-0.010118
-0.00151169
-0.00151108
-0.0075036
-0.00680602
-0.00271113
-0.00512817
-0.00471913
-0.00369619
-0.00362775
-0.00369619
-0.00428421
-0.00265247
-0.00354964
-0.00437357
-0.00189327
-0.00390561
-0.00397509
-0.00126276
-0.00451088
-0.00322685
-0.000697395
-0.00510311
-0.00235254
-0.000117797
-0.00543111
-0.00133377
0.000403038
-0.00546884
-0.00040988
0.000960009
-0.00530047
0.000480738
0.000771867
-0.00554907
0.00138123
0.000143195
-0.00580861
0.00231719
-0.000337217
-0.00563596
0.00319296
-0.000774292
-0.00504868
0.00378988
-0.00118127
-0.00417134
0.00394988
-0.00166325
-0.00321943
0.00359266
-0.00229434
-0.00245036
0.00273612
-0.00319559
-0.00216025
0.00145386
-0.00467916
-0.00257312
-0.00698323
-0.00364112
-0.00570122
-0.0094691
-0.00901199
-0.00971453
-0.0108258
-0.0108258
-0.0115796
-0.0122476
-0.0114417
-0.0137575
-0.0105303
-0.0152121
-0.00890987
-0.0165416
-0.00654979
-0.0176585
-0.00347988
-0.0182889
0.000227496
-0.0180765
0.00372202
-0.0180709
0.00645946
-0.0178897
0.00851304
-0.0169216
0.00992026
-0.0156094
0.0107172
-0.0141538
0.0108394
-0.0125916
0.0101517
-0.010941
0.0084469
-0.00928438
0.00527736
-0.00770938
-0.00648711
0.000160549
-0.000908837
0.0019098
0.000566014
-0.00107542
0.00187763
0.00111731
-0.00115107
0.00183887
0.00170262
-0.00117054
0.00170262
0.0022681
-0.00116369
0.00154055
0.00274474
-0.00110428
0.00141747
0.00304584
-0.000952997
0.00136381
0.00313637
-0.000782763
0.00142229
0.0030226
-0.000652107
0.00158066
0.00269433
-0.000533001
0.00178768
0.00210532
-0.000305902
0.00186776
0.00120072
8.64992e-05
0.00169958
-4.17615e-05
0.000589926
0.00132673
-0.00119284
0.000628458
0.000821341
-0.00180083
8.80822e-05
0.000451165
-0.00180063
-0.000575278
0.00032124
-0.00138751
-0.00102219
0.000361027
-0.000807878
-0.00121357
0.000419462
-0.000321663
-0.00118097
0.000420928
-0.00106732
0.000436339
0.000382351
-0.00130024
0.00173034
0.000789926
-0.00161248
0.0018095
0.00112781
-0.00167723
0.00163938
0.00137392
-0.00166267
0.00137392
0.0015362
-0.00161966
0.00116196
0.00162949
-0.00153747
0.00108464
0.00167781
-0.00140823
0.00116487
0.00164452
-0.00125069
0.00136877
0.00151726
-0.0011548
0.00164881
0.00132928
-0.00109714
0.00192001
0.00111432
-0.000879803
0.00204639
0.000786909
-0.000288219
0.00199133
0.000368086
0.000419129
0.00183088
-0.000103391
0.000636234
0.00158845
-0.000540793
0.000203712
0.0013199
-0.000774884
-0.000521528
0.00106903
-0.000738736
-0.00114367
0.000890433
-0.000526586
-0.00146092
0.000735312
-0.000249232
-0.00148148
0.00050766
-0.00125458
0.000114655
0.00122968
-0.00218788
0.0032485
0.00186226
-0.0019963
0.00308174
0.00205826
-0.00170374
0.00256246
0.00198435
-0.00151473
0.00198435
0.00179035
-0.00144822
0.00154103
0.00156451
-0.00142707
0.00132784
0.00135137
-0.00138463
0.00137053
0.00111804
-0.00129385
0.0015953
0.000842886
-0.0012896
0.00188956
0.000564139
-0.00136297
0.0021523
0.000354826
-0.00126628
0.00229527
0.000194026
-0.000651534
0.00234047
5.99561e-05
0.000154739
0.00232206
-0.00014683
0.000569301
0.0021991
-0.000405884
0.000299075
0.0019967
-0.000651422
-0.000338482
0.0018117
-0.000838026
-0.000938797
0.00169233
-0.000933361
-0.00132348
0.00163522
-0.000776793
-0.00160827
0.00163144
-0.00195539
0.00165828
0.00267866
-0.00503982
0.00520668
0.00403694
-0.00353146
0.00569101
0.00457448
-0.0022776
0.00533031
0.00446425
-0.00129397
0.00446425
0.00391715
-0.000720009
0.00351555
0.0031639
-0.000505579
0.00278635
0.00237324
-0.000482378
0.00241298
0.00164149
-0.000542995
0.00237156
0.000956284
-0.000727089
0.00248391
0.000316357
-0.00100933
0.00259794
-0.000226191
-0.00110006
0.00266995
-0.000661456
-0.000520303
0.00281885
-0.000984519
0.000344087
0.00302421
-0.001241
0.000793666
0.0031199
-0.00155021
0.000614282
0.00301418
-0.00200261
0.000124519
0.00287982
-0.00256733
-0.000398689
0.00293623
-0.00290254
-0.00110436
0.00325992
-0.00234028
-0.00240426
0.00375055
-0.00456288
0.00405557
0.00310787
-0.00783932
0.00209186
0.00487657
-0.00544991
0.00455123
0.0058608
-0.0036484
0.00590429
0.00621386
-0.00199994
0.00621386
0.00601934
-0.000691356
0.00583039
0.00535888
0.000182676
0.00516517
0.00434991
0.000672146
0.00452221
0.00312435
0.000842715
0.00400922
0.00178659
0.000680234
0.00360576
0.000476921
0.000213464
0.00327389
-0.000670167
-0.00017738
0.00309751
-0.00165104
0.000291495
0.00333771
-0.00242273
0.00108091
0.00385571
-0.00305992
0.00149922
0.00425552
-0.00369474
0.00136034
0.00440634
-0.00434909
0.000837741
0.00449501
-0.00479291
-5.0899e-05
0.00471804
-0.00454374
-0.00161054
0.00499248
-0.003113
-0.00413498
0.00482027
-0.00764462
0.00365553
0.00276273
-0.00968878
-0.00174291
0.00433735
-0.00650542
0.00172168
0.00511804
-0.00434788
0.00405915
0.00529752
-0.00235887
0.00529752
0.00505801
-0.000716282
0.00571732
0.00448822
0.000508944
0.00558956
0.00368816
0.00126045
0.00518111
0.00271541
0.00161982
0.00467099
0.00157795
0.00164299
0.00411664
0.000267058
0.00133087
0.00356065
-0.00109512
0.000917715
0.00318977
-0.00223211
0.00114061
0.00343802
-0.00306335
0.00168116
0.0040968
-0.0037036
0.00197465
0.0047417
-0.00425763
0.00182437
0.00517144
-0.00467194
0.0011995
0.00543163
-0.00467808
-0.000175769
0.00552326
-0.00405768
-0.00238182
0.00515409
-0.00256583
-0.00554163
0.00384316
-0.00948611
0.00138397
0.00200182
-0.01068
-0.00410864
0.00320403
-0.00685203
-0.000521793
0.00371648
-0.00441369
0.00211232
0.00368508
-0.00229603
0.00368508
0.00331459
-0.000490812
0.00431215
0.00281742
0.000738899
0.00431387
0.00227179
0.00149104
0.00401296
0.00165986
0.00191473
0.00358653
0.000908873
0.00211505
0.00313623
-0.000121959
0.00212086
0.00268176
-0.00130351
0.00182827
0.00232025
-0.00220973
0.00169496
0.00247404
-0.0027453
0.00182372
0.00305296
-0.00305627
0.00189504
0.00376954
-0.00326519
0.00168669
0.00440534
-0.00338356
0.00100729
0.00484606
-0.00331993
-0.000457643
0.00492844
-0.00282858
-0.00292507
0.00418725
-0.00180363
-0.00612733
0.00225291
-0.0101396
-0.000785902
0.000525959
-0.010203
-0.00589402
0.0010787
-0.00645453
-0.0026792
0.00112622
-0.00384059
-0.000380065
0.000943047
-0.00192964
0.000943046
0.000805592
-0.000519386
0.00139234
0.000684212
0.000541264
0.0012957
0.000587767
0.0013051
0.000990854
0.000520993
0.00182165
0.000698806
0.000282057
0.00224911
0.000444386
-0.000359843
0.00267729
0.000229805
-0.00111951
0.00245487
-6.91226e-05
-0.00150976
0.00185053
-0.000125396
-0.00162945
0.00153077
0.000231628
-0.00154941
0.00130134
0.000851142
-0.00140308
0.000972902
0.00159267
-0.00119614
0.000250537
0.00230189
-0.00107616
-0.000915481
0.00254805
-0.000978651
-0.0029055
0.00184901
-0.000586502
-0.00582133
-1.95045e-05
-0.00950495
-0.00273279
-0.00188312
-0.00742807
-0.00769779
-0.00294961
-0.00449841
-0.00560868
-0.00354964
-0.00265247
-0.00428421
-0.00380583
-0.00141722
-0.00380583
-0.00375807
-0.000403656
-0.00406907
-0.00342174
0.00030016
-0.00460609
-0.00281866
0.000764438
-0.00516551
-0.00201164
0.00121697
-0.00563346
-0.00108256
0.00173929
-0.00588812
-0.000367394
0.00249331
-0.00583167
0.000232354
0.00229826
-0.00599222
0.000869115
0.00144869
-0.00604354
0.00144581
0.000945541
-0.00562743
0.00199743
0.0005902
-0.00488915
0.00250993
0.000264534
-0.00397546
0.00282668
-0.000245097
-0.00304053
0.00281317
-0.0011476
-0.0022047
0.00245433
-0.00232497
-0.0023819
0.00154388
-0.00413361
-0.00335033
-0.006883
-0.00471914
-0.00666415
-0.0102329
-0.010349
-0.0105281
-0.0122476
-0.0115796
-0.0129562
-0.0129562
-0.0127114
-0.014406
-0.0116833
-0.01594
-0.00996154
-0.0174989
-0.00747507
-0.018928
-0.00411553
-0.0199092
0.000205946
-0.0199047
0.0042739
-0.0198406
0.00722712
-0.0193942
0.00932536
-0.0180742
0.0107268
-0.0164206
0.011547
-0.0147093
0.0117425
-0.0130321
0.01111
-0.011456
0.00937425
-0.00987354
0.0059749
-0.00844356
-0.00739512
4.4996e-05
-0.000617346
0.00248212
0.000395104
-0.000914644
0.00244218
0.000942275
-0.00109617
0.00238792
0.00154055
-0.00116369
0.0022681
0.00213206
-0.00118295
0.00213206
0.00266834
-0.00115693
0.0020382
0.00305558
-0.00105759
0.00203419
0.00321246
-0.000916208
0.00218162
0.00309643
-0.00081116
0.00250781
0.00265557
-0.000697512
0.002926
0.00190694
-0.000467852
0.00308418
0.000939677
-7.45865e-05
0.00274136
-0.00019613
0.000307998
0.00215448
-0.0011247
0.000188019
0.00156182
-0.00149521
-0.000348178
0.00116986
-0.00136268
-0.000829874
0.00101865
-0.000941118
-0.0010645
0.00100403
-0.000465566
-0.00108164
0.0010256
-0.000125904
-0.000928498
0.00100979
-0.000752231
0.00106267
0.000202796
-0.000830533
0.00174072
0.000540559
-0.00127803
0.00183516
0.000868187
-0.00149868
0.00171432
0.00116196
-0.00161966
0.0015362
0.00140408
-0.00166713
0.00140408
0.00157834
-0.00164307
0.00139659
0.00168421
-0.00156349
0.00156494
0.00168862
-0.00147449
0.00192267
0.00153939
-0.00143148
0.00241837
0.00125509
-0.00138147
0.00288828
0.000945764
-0.00115852
0.00304638
0.000650886
-0.000605441
0.00281705
0.000346641
3.34079e-06
0.00243971
-1.67646e-05
0.000137122
0.0020027
-0.00034826
-0.000249607
0.00155281
-0.000493852
-0.000797747
0.00118252
-0.000420187
-0.00116711
0.00091942
-0.000226512
-0.00124914
0.000709184
-2.93636e-05
-0.00109075
0.000472794
-0.000729492
6.25673e-05
0.000868971
-0.00120734
0.00275644
0.00133468
-0.00130829
0.0026464
0.00151839
-0.00134837
0.00222853
0.00154103
-0.00144822
0.00179035
0.00148629
-0.00155759
0.00148629
0.00139007
-0.00161151
0.00139255
0.00126884
-0.00161619
0.0015445
0.00109495
-0.001622
0.00191673
0.000821385
-0.00168237
0.00241403
0.000479971
-0.00175135
0.00286363
0.000213929
-0.00162276
0.00302557
8.7428e-05
-0.00104416
0.00290569
5.43048e-05
-0.000307037
0.00266553
-3.53567e-05
6.81071e-05
0.00235772
-0.000212609
-7.74577e-05
0.00200176
-0.000396393
-0.000499734
0.00169746
-0.000533103
-0.000829001
0.00149095
-0.000599527
-0.000933841
0.00138637
-0.000496763
-0.000927981
0.00136594
-0.000919928
0.00135199
0.00238915
-0.00334548
0.00495602
0.00340308
-0.00195068
0.00531979
0.00369649
-0.00111986
0.00480866
0.00351555
-0.000720009
0.00391715
0.00306992
-0.000666254
0.00306992
0.00252705
-0.000782438
0.0025002
0.00197774
-0.000945416
0.00229154
0.0014366
-0.00111553
0.00240623
0.000844738
-0.00131175
0.00270517
0.000202085
-0.00152377
0.00301304
-0.000347815
-0.00153676
0.00313387
-0.000710143
-0.000984126
0.00312116
-0.000890399
-0.000189117
0.00308652
-0.00104453
0.000342328
0.00299976
-0.00128511
0.000361174
0.00281608
-0.00167877
0.000119699
0.00265401
-0.00221315
-7.20856e-05
0.00271368
-0.00258049
-0.000412396
0.00310585
-0.00216153
-0.00130441
0.00370814
-0.00314862
0.00412289
0.00329306
-0.00615741
0.00161081
0.00489682
-0.0033671
0.00436399
0.00566436
-0.0017902
0.00580722
0.00583039
-0.000691356
0.00601934