/*--------------------------------*- C++ -*----------------------------------*\
  =========                 |
  \\      /  F ield         | OpenFOAM: The Open Source CFD Toolbox
   \\    /   O peration     | Website:  https://openfoam.org
    \\  /    A nd           | Version:  9
     \\/     M anipulation  |
\*---------------------------------------------------------------------------*/
FoamFile
{
    format      ascii;
    class       volVectorField;
    location    "450";
    object      U;
}
// * * * * * * * * * * * * * * * * * * * * * * * * * * * * * * * * * * * * * //

dimensions      [0 1 -1 0 0 0 0];

internalField   nonuniform List<vector> 
4000
(
(-0.00232622 0.00316963 -0.00232622)
(4.77743e-05 -0.000277294 -0.000828967)
(0.00244898 -0.00205269 1.46064e-05)
(0.00533801 -0.00220172 3.14965e-05)
(0.00758492 -0.00177587 -0.000190546)
(0.00927935 -0.00119102 -0.000370692)
(0.0102225 -0.00065833 -0.000467081)
(0.0103855 -0.000230806 -0.000489764)
(0.00999218 5.83056e-05 -0.000473289)
(0.00918361 0.000308624 -0.000432302)
(0.00791313 0.000866564 -0.000413303)
(0.00555128 0.00174422 -0.000369262)
(0.00168625 0.0026085 -0.000321818)
(-0.00344228 0.00296696 -0.000444698)
(-0.00771632 0.00245088 -0.000876846)
(-0.00950738 0.00157203 -0.0014663)
(-0.00885126 0.000911428 -0.0021837)
(-0.00635426 0.000772095 -0.00316227)
(-0.00330228 0.00152905 -0.00466038)
(0.000197715 0.00348456 -0.0059444)
(0.000331369 0.000353758 0.000331369)
(0.00516023 -0.00371792 0.000835443)
(0.00571817 -0.00460582 0.000845916)
(0.00597744 -0.00385651 0.000448206)
(0.00583907 -0.00253564 0.000122799)
(0.00609526 -0.00118521 -8.85262e-06)
(0.006217 0.000382756 -7.54567e-05)
(0.00572264 0.00129432 -1.29258e-05)
(0.00485094 0.00162673 9.71428e-05)
(0.00391075 0.00178634 0.000206066)
(0.00312673 0.00263379 0.000295933)
(0.00223464 0.00444963 0.000370634)
(0.000458458 0.00627993 0.000450943)
(-0.00241658 0.00675617 0.000449923)
(-0.00544859 0.00518375 0.00037122)
(-0.00742688 0.00271969 0.000391264)
(-0.00792787 0.000371489 0.000376561)
(-0.00697264 -0.00107573 5.13373e-05)
(-0.00515644 -0.000530683 -0.000978725)
(-0.000837395 0.00210617 -0.00209073)
(0.00446024 -0.00847646 0.00446024)
(0.0107961 -0.00864165 0.00426187)
(0.0127161 -0.00630518 0.00363043)
(0.0121639 -0.00379766 0.00273103)
(0.0103602 -0.00231834 0.00187236)
(0.00852975 -0.00192714 0.00140878)
(0.00729806 -0.000744167 0.0014988)
(0.00552909 0.0005049 0.00182099)
(0.00347155 0.00106279 0.00199803)
(0.00142903 0.000931174 0.00196032)
(-0.000137146 0.00133086 0.00192685)
(-0.000947173 0.00322967 0.00215048)
(-0.00174834 0.00581499 0.00247471)
(-0.00301821 0.00714895 0.00243325)
(-0.00447306 0.00567601 0.00206388)
(-0.0055754 0.00196374 0.00185062)
(-0.00651108 -0.00178411 0.00183401)
(-0.00708635 -0.00420306 0.00166873)
(-0.00660663 -0.0042396 0.0012032)
(-0.00223069 -0.00190751 0.000772976)
(0.00607848 -0.0338988 0.00607848)
(0.0126671 -0.026615 0.00672137)
(0.016371 -0.0187773 0.00690765)
(0.0181068 -0.0114781 0.00676291)
(0.0179599 -0.0059202 0.00637711)
(0.0164014 -0.00230905 0.0059656)
(0.0135709 -6.81031e-05 0.00578891)
(0.00978034 0.00121803 0.00570911)
(0.00554481 0.00156608 0.00524953)
(0.00147787 0.000963942 0.00442132)
(-0.00175083 0.000102159 0.00379859)
(-0.00315289 0.000734524 0.00420552)
(-0.00440424 0.00233931 0.00528794)
(-0.00577129 0.00328738 0.00599373)
(-0.00704585 0.00198255 0.00572177)
(-0.00816776 -0.00120937 0.00486692)
(-0.00982686 -0.00432901 0.00424721)
(-0.0111453 -0.00703638 0.00405597)
(-0.01017 -0.00990036 0.00417748)
(-0.00482229 -0.0143665 0.00458184)
(0.0033065 -0.0500958 0.0033065)
(0.00777276 -0.0411077 0.00489039)
(0.00812447 -0.0322465 0.00587524)
(0.00795211 -0.0241434 0.00670508)
(0.00656508 -0.0175865 0.00729526)
(0.00473511 -0.012475 0.00746068)
(0.00274837 -0.00849792 0.00715261)
(0.000988463 -0.00564989 0.00636314)
(-0.000315135 -0.00400737 0.00534361)
(-0.00144952 -0.00344521 0.0044458)
(-0.00229415 -0.00484732 0.00366406)
(-0.00186682 -0.00583896 0.00378727)
(-0.00151506 -0.00584862 0.00485102)
(-0.00188085 -0.00582505 0.00629064)
(-0.00329335 -0.00669288 0.00743623)
(-0.00570359 -0.00856642 0.00775684)
(-0.00816857 -0.0116383 0.00733916)
(-0.00912611 -0.0167872 0.00669419)
(-0.0080957 -0.0244146 0.00602983)
(-0.00251121 -0.0350157 0.00568679)
(0.00109761 -0.0569368 0.00109761)
(0.00263791 -0.0474811 0.00304519)
(-0.00159669 -0.0384041 0.00376561)
(-0.00451235 -0.0311171 0.0041601)
(-0.00747282 -0.0259944 0.00412853)
(-0.00907912 -0.0223647 0.00364805)
(-0.00924634 -0.0195185 0.00299134)
(-0.00812373 -0.0171288 0.00238762)
(-0.00614057 -0.015006 0.00194297)
(-0.00393595 -0.0133872 0.00173083)
(-0.00155411 -0.0143524 0.00113995)
(0.00151351 -0.0158463 0.00101131)
(0.00430299 -0.0165685 0.00157899)
(0.00637779 -0.0170211 0.00254335)
(0.00730074 -0.0177604 0.00374083)
(0.00665013 -0.019124 0.0049667)
(0.00448854 -0.0216792 0.00575224)
(0.00242893 -0.0263012 0.00562185)
(-0.000327461 -0.0337853 0.00483256)
(0.00166676 -0.0441363 0.00460144)
(-0.000703972 -0.0577313 -0.000703972)
(-0.00190755 -0.0490759 0.00128745)
(-0.00904105 -0.0415977 0.00114562)
(-0.0129134 -0.0366859 0.000674098)
(-0.0154694 -0.0334973 -0.000120256)
(-0.0159136 -0.0312197 -0.00101398)
(-0.014556 -0.0292344 -0.00177261)
(-0.0118104 -0.0273329 -0.00231436)
(-0.00817562 -0.025382 -0.00254575)
(-0.00443197 -0.0236671 -0.00248127)
(-8.73179e-05 -0.0243283 -0.00295052)
(0.00451514 -0.02566 -0.00306311)
(0.00894967 -0.0264056 -0.00262593)
(0.012571 -0.0268557 -0.00183944)
(0.0149204 -0.0272956 -0.000816336)
(0.0156048 -0.0279422 0.000343869)
(0.0143838 -0.0293084 0.00144904)
(0.0118452 -0.0322611 0.00219928)
(0.00661794 -0.0380089 0.00271575)
(0.0047564 -0.0466249 0.00337589)
(-0.00309898 -0.0515152 -0.00309898)
(-0.00656521 -0.0451605 -0.00133602)
(-0.0149859 -0.0403052 -0.00234297)
(-0.0192895 -0.0377245 -0.00350841)
(-0.0213363 -0.0363063 -0.00480058)
(-0.0207888 -0.0352876 -0.00599463)
(-0.0181868 -0.0342355 -0.00690462)
(-0.0140912 -0.0330494 -0.00749642)
(-0.0090987 -0.0316307 -0.00771798)
(-0.00430212 -0.0301734 -0.0075201)
(0.00149689 -0.0304341 -0.00792058)
(0.00703269 -0.0312939 -0.00801908)
(0.0127243 -0.031725 -0.00756116)
(0.0175236 -0.0319043 -0.00670937)
(0.0209119 -0.0319628 -0.00563388)
(0.0224369 -0.0319757 -0.00436429)
(0.0216045 -0.0322558 -0.00300014)
(0.0185806 -0.0335636 -0.00165903)
(0.011914 -0.0370625 -0.000167487)
(0.00758934 -0.0433052 0.00165002)
(-0.00683831 -0.0387442 -0.00683831)
(-0.0125053 -0.0344108 -0.00601857)
(-0.0215333 -0.0320216 -0.00767122)
(-0.0257902 -0.031245 -0.00951368)
(-0.0272577 -0.0310442 -0.0113709)
(-0.0259648 -0.0310708 -0.0130578)
(-0.0223619 -0.0310506 -0.0144177)
(-0.0169597 -0.0307655 -0.0153367)
(-0.0104095 -0.0300197 -0.0156783)
(-0.00417319 -0.0289275 -0.0152325)
(0.00361362 -0.0290481 -0.0155427)
(0.010195 -0.0296417 -0.0155973)
(0.0170422 -0.0296091 -0.0149208)
(0.0227277 -0.0292003 -0.0137608)
(0.0267434 -0.0286241 -0.0122765)
(0.0286983 -0.0280369 -0.0105458)
(0.0281982 -0.0276542 -0.0086547)
(0.0250199 -0.027774 -0.00666682)
(0.0175034 -0.0293386 -0.00433683)
(0.0110211 -0.033231 -0.00125945)
(-0.0125679 -0.0240015 -0.0125679)
(-0.0215563 -0.0197394 -0.0142244)
(-0.0307395 -0.0175059 -0.0174354)
(-0.0347826 -0.0165168 -0.0205616)
(-0.0356966 -0.0158717 -0.0235884)
(-0.0336651 -0.0152968 -0.0263986)
(-0.0290331 -0.0146226 -0.0288923)
(-0.0221367 -0.0137138 -0.0308861)
(-0.0134838 -0.012485 -0.0319539)
(-0.0045668 -0.0110461 -0.0314732)
(0.00686324 -0.0116869 -0.0314534)
(0.0150832 -0.0128783 -0.0311102)
(0.0233461 -0.0137381 -0.0294406)
(0.0299338 -0.0142618 -0.0271815)
(0.0344727 -0.0145914 -0.0246219)
(0.0367276 -0.0148371 -0.021812)
(0.0363688 -0.0151155 -0.0187576)
(0.0330356 -0.0156472 -0.0154309)
(0.0249191 -0.0171506 -0.0114498)
(0.0156656 -0.0205673 -0.00627213)
(-0.000828967 -0.000277295 4.7774e-05)
(0.000897198 -0.00129714 0.000897198)
(0.00280576 -0.00205267 0.00146175)
(0.00532545 -0.00230038 0.00113945)
(0.00744864 -0.00220998 0.000553677)
(0.009088 -0.00189835 4.82486e-05)
(0.0100796 -0.00145494 -0.000202557)
(0.01036 -0.00109242 -0.000210323)
(0.0100821 -0.00087083 -7.8608e-05)
(0.00936186 -0.000660888 0.000102237)
(0.00820318 -6.85718e-05 0.000203926)
(0.00599747 0.000952427 0.000205541)
(0.0022539 0.00208047 9.7245e-05)
(-0.00275097 0.00264991 -0.00032645)
(-0.00692993 0.00201682 -0.00116195)
(-0.00862241 0.000668978 -0.00192975)
(-0.00799259 -0.000619857 -0.00251604)
(-0.005748 -0.00151324 -0.00303315)
(-0.00306975 -0.00179636 -0.0039653)
(-0.000449836 -0.00158484 -0.00462886)
(0.000835443 -0.00371792 0.00516023)
(0.00395769 -0.00503339 0.00395769)
(0.00531489 -0.0052661 0.00311377)
(0.00610685 -0.00486232 0.00211021)
(0.00625062 -0.00403685 0.00130348)
(0.00631201 -0.00309389 0.000831837)
(0.00635442 -0.00205216 0.00063843)
(0.00602268 -0.00122694 0.000700086)
(0.00535223 -0.00075975 0.00086845)
(0.00455218 -0.000402952 0.00108199)
(0.003751 0.000599566 0.00128696)
(0.00276509 0.00262302 0.00149508)
(0.00109806 0.00473264 0.00163925)
(-0.00139149 0.0054224 0.00164237)
(-0.00391172 0.00388394 0.00157355)
(-0.00544231 0.00115065 0.00171521)
(-0.00569524 -0.00162806 0.00194287)
(-0.00478768 -0.0036986 0.00196109)
(-0.0033193 -0.00443271 0.00147282)
(-0.000814856 -0.00387806 0.00123737)
(0.00426187 -0.00864165 0.0107961)
(0.0093967 -0.00837492 0.0093967)
(0.0114875 -0.00671404 0.00756119)
(0.0113149 -0.00523674 0.00561941)
(0.00990966 -0.00442652 0.00400604)
(0.00828798 -0.00407253 0.00297123)
(0.00692875 -0.00333412 0.00270789)
(0.00542215 -0.00231823 0.00292341)
(0.00378091 -0.00170194 0.00314605)
(0.00211555 -0.00158448 0.00325259)
(0.000715983 -0.000990346 0.00340973)
(-0.000270788 0.00117035 0.00384898)
(-0.00113744 0.00398032 0.00434757)
(-0.00218131 0.0053398 0.0044547)
(-0.00331735 0.00387375 0.0042564)
(-0.00425589 0.000442609 0.00421868)
(-0.005031 -0.00302458 0.00439579)
(-0.00547732 -0.00563804 0.00446421)
(-0.00511027 -0.0068695 0.0045651)
(-0.00234247 -0.00672334 0.00534336)
(0.00672137 -0.026615 0.0126671)
(0.0135014 -0.0205332 0.0135014)
(0.0179117 -0.0139423 0.0131987)
(0.0198513 -0.00794572 0.012025)
(0.0194696 -0.00372592 0.0104085)
(0.0173696 -0.00142726 0.0088779)
(0.0140773 -0.000358588 0.00800035)
(0.010195 0.000184819 0.00774576)
(0.00617081 0.000275168 0.00741192)
(0.00235048 -0.00027161 0.00674571)
(-0.00095263 -0.000423134 0.00641016)
(-0.00318309 0.00123053 0.00717938)
(-0.00480922 0.00341462 0.00842198)
(-0.00594654 0.00415843 0.00896901)
(-0.00679177 0.00244201 0.00856696)
(-0.00784762 -0.000833645 0.00791505)
(-0.00972006 -0.0037805 0.0076641)
(-0.0111954 -0.00650821 0.00791908)
(-0.0103073 -0.00998843 0.00864832)
(-0.00556059 -0.0155208 0.00962876)
(0.00489039 -0.0411077 0.00777276)
(0.0113834 -0.0334492 0.0113834)
(0.0142039 -0.0252511 0.0133712)
(0.0157095 -0.0171255 0.0143555)
(0.0156634 -0.0101783 0.0146925)
(0.0145515 -0.00475631 0.0144714)
(0.0124821 -0.000773391 0.0138462)
(0.00957577 0.00182853 0.0128068)
(0.00597551 0.00279109 0.0114014)
(0.002122 0.00232096 0.00986451)
(-0.00172935 0.00126668 0.00889043)
(-0.00436051 0.00173161 0.00967011)
(-0.00637159 0.0027632 0.011419)
(-0.00817277 0.00271886 0.01285)
(-0.00995695 0.000968624 0.0133969)
(-0.0119021 -0.00200488 0.0131122)
(-0.0135098 -0.00603123 0.0125257)
(-0.0135382 -0.0120844 0.0120159)
(-0.0111344 -0.0207906 0.0112817)
(-0.00455254 -0.0323081 0.0103529)
(0.00304519 -0.0474811 0.00263791)
(0.00863915 -0.0393153 0.00863915)
(0.00795454 -0.0303049 0.0118037)
(0.00695193 -0.0214677 0.0134504)
(0.00484699 -0.0140039 0.0142311)
(0.00279726 -0.00818785 0.014239)
(0.00113957 -0.00380922 0.0136621)
(-6.52029e-06 -0.000650541 0.0127666)
(-0.000788664 0.00125865 0.0116782)
(-0.00164183 0.00183575 0.0104735)
(-0.00259841 0.00100646 0.00953066)
(-0.00307184 0.000426749 0.00978126)
(-0.00321211 0.000102769 0.011065)
(-0.00338437 -0.000798097 0.0125901)
(-0.00394025 -0.00280378 0.0138427)
(-0.00500457 -0.00622015 0.0144556)
(-0.00626105 -0.0112683 0.0142566)
(-0.00658365 -0.0185646 0.0130847)
(-0.00654947 -0.0284482 0.0110421)
(-0.00156134 -0.0408578 0.00883752)
(0.00128745 -0.0490759 -0.00190755)
(0.00612627 -0.041099 0.00612627)
(0.00216751 -0.0322685 0.00961002)
(-0.000396875 -0.0241102 0.0109759)
(-0.00324813 -0.0173397 0.011217)
(-0.00497847 -0.0122432 0.010715)
(-0.00574928 -0.00834264 0.00986072)
(-0.00555104 -0.00521423 0.00908408)
(-0.00473484 -0.00290853 0.00859793)
(-0.00376783 -0.00176761 0.00811218)
(-0.00269344 -0.00240355 0.00730511)
(-0.00112009 -0.00369751 0.00691666)
(0.000822734 -0.00500567 0.00740975)
(0.00251362 -0.00653942 0.0085601)
(0.00326556 -0.00848079 0.010066)
(0.00308122 -0.0113801 0.0113075)
(0.00191854 -0.0158199 0.011836)
(0.000693577 -0.0225092 0.0112743)
(-0.00238233 -0.0320647 0.00959823)
(0.000476432 -0.0438266 0.00696423)
(-0.00133602 -0.0451605 -0.00656521)
(0.00211433 -0.0374498 0.00211433)
(-0.00472148 -0.0299147 0.00498772)
(-0.00799533 -0.0240947 0.00527027)
(-0.0105119 -0.0193426 0.00444476)
(-0.011345 -0.015719 0.00300753)
(-0.0108284 -0.0130792 0.00146259)
(-0.00914218 -0.0107093 0.000614566)
(-0.00677029 -0.00847241 0.000623119)
(-0.00441726 -0.00687595 0.000896933)
(-0.0017817 -0.00724946 -2.06834e-05)
(0.00157685 -0.0087794 -0.000981127)
(0.0052308 -0.0102376 -0.000818266)
(0.00839041 -0.0118683 0.000321682)
(0.0101146 -0.0132736 0.00228885)
(0.0105214 -0.0154379 0.00433199)
(0.00949246 -0.0188161 0.00582143)
(0.00736283 -0.0235674 0.00646395)
(0.00205947 -0.0309828 0.00604245)
(0.00269053 -0.0408018 0.00389532)
(-0.00601857 -0.0344108 -0.0125053)
(-0.00663855 -0.0279405 -0.00663855)
(-0.0146655 -0.0234452 -0.00571072)
(-0.0184258 -0.0208513 -0.00696307)
(-0.0201984 -0.0190065 -0.00900759)
(-0.0196035 -0.0176014 -0.0110428)
(-0.0171445 -0.0165204 -0.0125737)
(-0.0133491 -0.015554 -0.0132626)
(-0.00868801 -0.0143285 -0.0130981)
(-0.0041226 -0.0129554 -0.0120963)
(0.00119893 -0.0131193 -0.0129459)
(0.00618481 -0.0144098 -0.01386)
(0.011294 -0.0149224 -0.0137263)
(0.0156161 -0.0153006 -0.0126626)
(0.0187026 -0.0158027 -0.0107626)
(0.0201135 -0.0166124 -0.00833061)
(0.0193456 -0.0178909 -0.00576138)
(0.0163663 -0.02004 -0.0035254)
(0.00938615 -0.0242485 -0.00201443)
(0.00661023 -0.0311288 -0.0021449)
(-0.0142244 -0.0197394 -0.0215563)
(-0.0222023 -0.0130433 -0.0222023)
(-0.0316065 -0.00909375 -0.0258463)
(-0.0357215 -0.00677142 -0.0300627)
(-0.0368853 -0.00505801 -0.0343618)
(-0.0351942 -0.0036213 -0.0384182)
(-0.0309803 -0.00225982 -0.0420329)
(-0.0244174 -0.000794189 -0.0449031)
(-0.015613 0.000922684 -0.0462901)
(-0.00597726 0.00296987 -0.0454796)
(0.00762327 0.00211118 -0.0455186)
(0.0162383 0.000148684 -0.0452683)
(0.024288 -0.00140784 -0.0429615)
(0.0303198 -0.00266667 -0.039679)
(0.0342541 -0.00382037 -0.0359126)
(0.0359449 -0.00502658 -0.0317387)
(0.0350605 -0.00646572 -0.027197)
(0.0312951 -0.00846666 -0.0223689)
(0.0226236 -0.0119475 -0.0171148)
(0.0138618 -0.0181707 -0.01181)
(1.46065e-05 -0.00205269 0.00244898)
(0.00146175 -0.00205267 0.00280576)
(0.00312848 -0.00214841 0.00312848)
(0.00525207 -0.00227531 0.0028266)
(0.00725781 -0.00239915 0.00227181)
(0.00894013 -0.00234714 0.00175336)
(0.0100926 -0.0021067 0.00148867)
(0.0105445 -0.00178944 0.00151882)
(0.0103671 -0.00155161 0.00173981)
(0.00964315 -0.00130714 0.00202307)
(0.00837632 -0.000694595 0.0021445)
(0.00614847 0.000453039 0.00192651)
(0.00248216 0.00167338 0.0014124)
(-0.00237269 0.00217834 0.000345768)
(-0.00634776 0.00123169 -0.000844284)
(-0.00777833 -0.000523153 -0.00162474)
(-0.00701295 -0.0020016 -0.00183389)
(-0.0050001 -0.00292664 -0.00192122)
(-0.00268115 -0.00328079 -0.0023677)
(-0.000648104 -0.00341837 -0.00267133)
(0.000845916 -0.00460582 0.00571817)
(0.00311377 -0.0052661 0.00531489)
(0.00447529 -0.00543876 0.00447529)
(0.00538614 -0.00529513 0.00334386)
(0.00578627 -0.00489327 0.00245123)
(0.00593707 -0.00429708 0.00199973)
(0.00602361 -0.00356502 0.00196869)
(0.00588646 -0.00280691 0.00222567)
(0.00544848 -0.00228445 0.00258566)
(0.00481414 -0.0018466 0.00294724)
(0.00412175 -0.000827443 0.00319222)
(0.00321379 0.00125518 0.00336411)
(0.00179623 0.00341621 0.00333529)
(-0.000275637 0.00402083 0.00309401)
(-0.00243181 0.00234638 0.00278833)
(-0.00375888 -0.000495564 0.00263312)
(-0.00409116 -0.00312566 0.00251965)
(-0.00349352 -0.00486984 0.00221703)
(-0.00245625 -0.00543131 0.00145015)
(-0.000689895 -0.00507049 0.000530569)
(0.00363043 -0.00630518 0.0127161)
(0.00756119 -0.00671404 0.0114875)
(0.00934749 -0.00620292 0.00934749)
(0.00931277 -0.00574015 0.00699098)
(0.00831392 -0.00543703 0.00507928)
(0.00705035 -0.00514169 0.0039464)
(0.00592718 -0.00461525 0.00374725)
(0.00482199 -0.00387309 0.00410978)
(0.00362837 -0.00346426 0.00450604)
(0.00237188 -0.00340718 0.00477376)
(0.00129867 -0.00281157 0.00499749)
(0.000483398 -0.000620204 0.00545114)
(-0.000176998 0.00228224 0.00594958)
(-0.00100881 0.00369532 0.0060701)
(-0.00203411 0.00238909 0.0058415)
(-0.00295967 -0.000540532 0.00567595)
(-0.00375629 -0.00351054 0.00566716)
(-0.00433465 -0.00562018 0.00559496)
(-0.00420935 -0.00650918 0.0055356)
(-0.00235142 -0.0061998 0.00593511)
(0.00690765 -0.0187773 0.016371)
(0.0131987 -0.0139423 0.0179117)
(0.0174225 -0.00909282 0.0174225)
(0.0188848 -0.00507214 0.0153792)
(0.017908 -0.00274596 0.0126891)
(0.0153484 -0.00196307 0.0102966)
(0.0119796 -0.00196696 0.00888098)
(0.00854396 -0.00203511 0.00841113)
(0.00529538 -0.00220151 0.00815444)
(0.00231805 -0.00268018 0.00770664)
(-0.000264833 -0.0026446 0.00745977)
(-0.00232247 -0.0005795 0.0083026)
(-0.00388583 0.00220331 0.00977609)
(-0.00497321 0.00342533 0.0105198)
(-0.00580786 0.00211528 0.0102674)
(-0.00699876 -0.000592804 0.00975769)
(-0.00901347 -0.00294629 0.00970655)
(-0.0107796 -0.00497657 0.0103337)
(-0.0101861 -0.0079315 0.0114425)
(-0.00608058 -0.0132119 0.012396)
(0.00587524 -0.0322465 0.00812447)
(0.0133712 -0.0252511 0.0142039)
(0.0176139 -0.0183188 0.0176139)
(0.0200683 -0.0113578 0.0189107)
(0.0206149 -0.00548978 0.018735)
(0.019576 -0.00131446 0.0176483)
(0.0169191 0.00127197 0.0162319)
(0.0131038 0.00258254 0.0146822)
(0.00855977 0.00248876 0.0129153)
(0.00374143 0.00112619 0.011025)
(-0.000892057 -5.22557e-05 0.00973207)
(-0.00460003 0.00141646 0.0107802)
(-0.00743036 0.00376366 0.0131565)
(-0.00976032 0.00457016 0.0149677)
(-0.0118335 0.00328618 0.0156344)
(-0.0140644 0.000781421 0.0155671)
(-0.0159591 -0.00256754 0.0154745)
(-0.0160575 -0.00809601 0.0155009)
(-0.0130354 -0.0167176 0.0146713)
(-0.00594484 -0.0282773 0.0123953)
(0.00376561 -0.0384041 -0.00159669)
(0.0118037 -0.0303049 0.00795454)
(0.0136822 -0.0225499 0.0136822)
(0.014391 -0.014549 0.0166663)
(0.0135236 -0.00742972 0.0178761)
(0.0118291 -0.00180604 0.0178215)
(0.0096977 0.00209139 0.0167392)
(0.00718413 0.00433313 0.0150885)
(0.00438423 0.00508029 0.0132892)
(0.00130768 0.0043978 0.0113345)
(-0.00220736 0.00308596 0.00969943)
(-0.00517436 0.00367356 0.0104263)
(-0.00736427 0.00500953 0.0129096)
(-0.00920234 0.00526008 0.0154194)
(-0.0109005 0.00381964 0.0172079)
(-0.0124643 0.000639888 0.0181623)
(-0.0132247 -0.00474176 0.0179871)
(-0.0124372 -0.0128063 0.0164787)
(-0.0102933 -0.0234883 0.0131731)
(-0.00334673 -0.036517 0.00810444)
(0.00114562 -0.0415977 -0.00904105)
(0.00961002 -0.0322685 0.00216751)
(0.00885591 -0.0241397 0.00885591)
(0.00816291 -0.0159238 0.0121391)
(0.0063324 -0.00873862 0.0133193)
(0.00448114 -0.00323244 0.0131685)
(0.0029812 0.000488637 0.0123343)
(0.00159024 0.00285055 0.0108105)
(0.000361295 0.00405634 0.00932776)
(-0.00106239 0.00409171 0.00787605)
(-0.00291413 0.00321101 0.00655195)
(-0.00437367 0.00291933 0.00667953)
(-0.00507771 0.00312359 0.00844976)
(-0.0054411 0.00277281 0.0109779)
(-0.00585903 0.00129932 0.0133881)
(-0.00616533 -0.00191171 0.0147852)
(-0.00672474 -0.00749588 0.0151488)
(-0.00660766 -0.0159755 0.0135637)
(-0.00715628 -0.026972 0.00950653)
(-0.00113053 -0.0398756 0.00302273)
(-0.00234297 -0.0403052 -0.0149859)
(0.00498772 -0.0299147 -0.00472148)
(0.00136575 -0.0221892 0.00136575)
(-0.000270619 -0.0147375 0.00344981)
(-0.00226037 -0.00803737 0.00313916)
(-0.00325539 -0.00262936 0.00186904)
(-0.003208 0.00149981 0.000826977)
(-0.00237072 0.00442076 0.000456194)
(-0.0018491 0.00585864 -6.65511e-05)
(-0.00200168 0.00647404 -0.000512291)
(-0.00259262 0.00570423 -0.00163381)
(-0.0024435 0.00457345 -0.00243676)
(-0.00127149 0.0034918 -0.00222923)
(5.58212e-05 0.00217469 -0.000825934)
(0.00139597 -0.000200943 0.0014902)
(0.00185358 -0.00392907 0.0042709)
(0.00119685 -0.00935951 0.00636486)
(0.000409681 -0.0168501 0.0062436)
(-0.0029451 -0.0265234 0.00311989)
(0.00166033 -0.037825 -0.00319009)
(-0.00767122 -0.0320216 -0.0215333)
(-0.00571072 -0.0234452 -0.0146655)
(-0.0118891 -0.0176564 -0.0118891)
(-0.01414 -0.0137625 -0.0120604)
(-0.0152642 -0.0107132 -0.0136646)
(-0.014628 -0.00830875 -0.015597)
(-0.012603 -0.00644782 -0.0170973)
(-0.0096276 -0.00490911 -0.017522)
(-0.00624584 -0.00298877 -0.0173716)
(-0.00300758 -0.000863262 -0.0168335)
(0.000177908 -0.00155547 -0.0176474)
(0.0031214 -0.00417905 -0.0185131)
(0.00642999 -0.00532472 -0.0185539)
(0.00957707 -0.00614048 -0.0173167)
(0.0121636 -0.00724494 -0.0149848)
(0.0136279 -0.00887941 -0.0120795)
(0.0133908 -0.0113229 -0.0092339)
(0.0116817 -0.0149415 -0.00748528)
(0.00619401 -0.0208978 -0.00775552)
(0.00657991 -0.0295141 -0.0106021)
(-0.0174354 -0.0175059 -0.0307395)
(-0.0258463 -0.00909375 -0.0316065)
(-0.0355379 -0.004341 -0.0355379)
(-0.0394708 -0.00144533 -0.0404381)
(-0.0403855 0.00070727 -0.0455364)
(-0.0384661 0.00250768 -0.0503824)
(-0.0340714 0.00420651 -0.054729)
(-0.0272115 0.0059982 -0.0582282)
(-0.0176404 0.00806988 -0.0598148)
(-0.00701752 0.0106349 -0.0586781)
(0.00852349 0.00972836 -0.0588042)
(0.017953 0.00712666 -0.0586905)
(0.0263132 0.00505083 -0.05581)
(0.0322681 0.00338242 -0.0516881)
(0.0360684 0.00181777 -0.0470062)
(0.0377348 0.000176993 -0.0418729)
(0.0369284 -0.00175637 -0.036345)
(0.0332635 -0.00439723 -0.0306295)
(0.0243428 -0.00877797 -0.0250035)
(0.0155746 -0.0163943 -0.0204182)
(3.14966e-05 -0.00220172 0.00533801)
(0.00113945 -0.00230038 0.00532545)
(0.0028266 -0.00227531 0.00525207)
(0.00480781 -0.00228142 0.00480781)
(0.0067938 -0.00239196 0.0042596)
(0.00862231 -0.00246361 0.00382919)
(0.0100059 -0.00234825 0.00360793)
(0.0107052 -0.00208936 0.00370362)
(0.0106647 -0.00185549 0.00407211)
(0.00987541 -0.00161096 0.00457282)
(0.00834837 -0.00101737 0.0047663)
(0.00595659 0.000189549 0.00434449)
(0.00228879 0.00138491 0.00338652)
(-0.00230206 0.00160184 0.00182403)
(-0.00570827 0.00022253 0.000499879)
(-0.00657607 -0.00159441 -2.57987e-05)
(-0.00561736 -0.00275816 8.92476e-05)
(-0.00377316 -0.00327025 0.000296903)
(-0.0018082 -0.00325182 0.000205359)
(-0.00043341 -0.00313432 0.000181088)
(0.000448206 -0.00385651 0.00597744)
(0.00211021 -0.00486232 0.00610685)
(0.00334386 -0.00529513 0.00538614)
(0.00434703 -0.00539946 0.00434703)
(0.00503936 -0.00529558 0.00351441)
(0.00545128 -0.00496295 0.00316132)
(0.005707 -0.00440623 0.00331181)
(0.0057656 -0.00373664 0.00382722)
(0.00549757 -0.00324229 0.00453328)
(0.00490584 -0.00280831 0.00522295)
(0.00418087 -0.00183004 0.00559348)
(0.00331563 0.000181264 0.00559552)
(0.00216698 0.00217172 0.00527531)
(0.000526003 0.00247957 0.00467917)
(-0.00122141 0.00065961 0.0040266)
(-0.00242687 -0.00193844 0.00342768)
(-0.002734 -0.00391982 0.0029836)
(-0.00224155 -0.00488731 0.00252918)
(-0.0014008 -0.00485186 0.0017837)
(-0.000190009 -0.00410061 0.000586239)
(0.00273103 -0.00379766 0.0121639)
(0.00561941 -0.00523674 0.0113149)
(0.00699098 -0.00574015 0.00931277)
(0.00710179 -0.00596923 0.00710179)
(0.00656701 -0.00598183 0.00536821)
(0.00578433 -0.00578009 0.0044382)
(0.00501709 -0.0054106 0.00441886)
(0.00428223 -0.00494285 0.00501294)
(0.0034329 -0.00476148 0.00576795)
(0.00242589 -0.00477983 0.00641691)
(0.00149863 -0.00420673 0.00682803)
(0.000824132 -0.00209959 0.00715429)
(0.00042687 0.000654606 0.00736383)
(-6.9976e-05 0.00193452 0.00719817)
(-0.000901319 0.000843488 0.00673152)
(-0.00180445 -0.00150047 0.00628459)
(-0.00257936 -0.00371263 0.00602142)
(-0.00316962 -0.00496731 0.0058853)
(-0.00314464 -0.00507465 0.00587649)
(-0.00189591 -0.00380867 0.00608051)
(0.00676291 -0.0114781 0.0181068)
(0.012025 -0.00794572 0.0198513)
(0.0153792 -0.00507214 0.0188848)
(0.0160638 -0.00333333 0.0160638)
(0.0147311 -0.00290951 0.0127617)
(0.0123186 -0.00324582 0.0100893)
(0.00953498 -0.00376562 0.00861815)
(0.00693788 -0.00404971 0.00827279)
(0.00453282 -0.00432534 0.00837703)
(0.00220928 -0.00478458 0.00845036)
(5.31356e-05 -0.00467783 0.00853481)
(-0.00175842 -0.00256637 0.00921896)
(-0.00298857 0.000320275 0.0103024)
(-0.00387582 0.00189989 0.0108858)
(-0.00467874 0.00121791 0.01062)
(-0.00594218 -0.000673296 0.0101815)
(-0.00791584 -0.00223042 0.0103067)
(-0.0098541 -0.00319369 0.0112886)
(-0.00962484 -0.00490379 0.0128061)
(-0.00627458 -0.00905259 0.0137939)
(0.00670508 -0.0241434 0.00795211)
(0.0143555 -0.0171255 0.0157095)
(0.0189107 -0.0113578 0.0200683)
(0.0213208 -0.00616076 0.0213208)
(0.0215952 -0.00234459 0.020379)
(0.0200546 -0.000165703 0.0183822)
(0.0170856 0.00078781 0.0162895)
(0.0131309 0.000826943 0.0144355)
(0.00856753 -9.68423e-05 0.0127473)
(0.00390829 -0.00168376 0.011211)
(-0.000509405 -0.00256383 0.0103074)
(-0.00431814 -0.00074201 0.0112792)
(-0.00723019 0.00224611 0.0134418)
(-0.00956189 0.00386003 0.0150931)
(-0.0116099 0.00340584 0.0157194)
(-0.0139566 0.00184347 0.0159472)
(-0.0162856 -0.000312738 0.0164522)
(-0.0168869 -0.0043432 0.0171242)
(-0.0139266 -0.0119112 0.0164023)
(-0.00677465 -0.023017 0.012884)
(0.0041601 -0.0311171 -0.00451235)
(0.0134504 -0.0214677 0.00695193)
(0.0166663 -0.014549 0.014391)
(0.018342 -0.00813177 0.018342)
(0.0182686 -0.00267455 0.0197774)
(0.0167838 0.0012698 0.019365)
(0.0143513 0.00367815 0.017923)
(0.0112678 0.00481344 0.0161103)
(0.00762865 0.00469351 0.0141653)
(0.00345875 0.00320474 0.0121119)
(-0.00154427 0.00154598 0.0105834)
(-0.00616393 0.00281517 0.0114415)
(-0.0093885 0.00527518 0.0139584)
(-0.0118221 0.00652483 0.0164267)
(-0.0138475 0.00598033 0.018116)
(-0.0156845 0.00388627 0.0191179)
(-0.0167332 -0.000166852 0.0193381)
(-0.0155915 -0.00737239 0.0179174)
(-0.0122802 -0.0177614 0.0136735)
(-0.00410836 -0.0311254 0.00614513)
(0.000674098 -0.0366859 -0.0129134)
(0.0109759 -0.0241102 -0.000396875)
(0.0121391 -0.0159238 0.00816291)
(0.0130269 -0.00871253 0.0130269)
(0.0124205 -0.0028167 0.0151771)
(0.0107507 0.00161913 0.0149819)
(0.00891003 0.00439189 0.0137156)
(0.00694085 0.00583127 0.0121435)
(0.0046753 0.0062346 0.0105728)
(0.00173451 0.00571239 0.00897627)
(-0.00261587 0.00456229 0.00758262)
(-0.00647078 0.00469235 0.00801532)
(-0.00882749 0.00582792 0.0100817)
(-0.010173 0.00649107 0.0127019)
(-0.0110359 0.00589655 0.0150889)
(-0.0117193 0.00356851 0.0168252)
(-0.0119695 -0.00135773 0.0172373)
(-0.0107015 -0.00983848 0.0146561)
(-0.00935215 -0.0212532 0.00864442)
(-0.00125662 -0.0352821 -0.000872272)
(-0.00350841 -0.0377245 -0.0192895)
(0.00527027 -0.0240947 -0.00799533)
(0.00344981 -0.0147375 -0.000270619)
(0.00371315 -0.00669615 0.00371315)
(0.00316567 -3.22058e-05 0.00498303)
(0.00271359 0.00430685 0.00461803)
(0.00225257 0.00681659 0.00355728)
(0.00203211 0.0083293 0.00263698)
(0.00166435 0.00921886 0.00185932)
(0.000190914 0.00971135 0.00111531)
(-0.00270854 0.00890077 -0.000154521)
(-0.00482804 0.00797597 -0.000523705)
(-0.00563987 0.00773668 0.000624984)
(-0.0056685 0.00747638 0.00277343)
(-0.00520352 0.00653182 0.00534071)
(-0.00473961 0.00408742 0.00782219)
(-0.00403336 -0.00150333 0.00858427)
(-0.00317084 -0.0105641 0.00670677)
(-0.00460215 -0.0218278 0.00105028)
(0.00234067 -0.0351356 -0.00779048)
(-0.00951368 -0.031245 -0.0257902)
(-0.00696307 -0.0208513 -0.0184258)
(-0.0120604 -0.0137625 -0.01414)
(-0.0128688 -0.00886413 -0.0128688)
(-0.0131106 -0.00512373 -0.0136127)
(-0.0124185 -0.00233325 -0.0153166)
(-0.0108844 -0.000306052 -0.0172452)
(-0.00844284 0.0013083 -0.0186921)
(-0.00526904 0.0030262 -0.0192518)
(-0.00241598 0.00537156 -0.0188856)
(-0.000153317 0.00474216 -0.0196344)
(0.00191758 0.00171132 -0.0202181)
(0.0040745 0.000118613 -0.0191032)
(0.00595848 -0.000863089 -0.0167099)
(0.00762229 -0.0018781 -0.0135686)
(0.0091551 -0.00354462 -0.0106521)
(0.00985775 -0.00656963 -0.00832039)
(0.00985665 -0.0113035 -0.00800926)
(0.00588253 -0.0185593 -0.0105674)
(0.00779495 -0.0286898 -0.0150344)
(-0.0205616 -0.0165168 -0.0347826)
(-0.0300627 -0.00677142 -0.0357215)
(-0.0404381 -0.00144533 -0.0394708)
(-0.0443303 0.00175055 -0.0443303)
(-0.0449232 0.00408089 -0.0494538)
(-0.042631 0.00602254 -0.0544603)
(-0.0379214 0.00794645 -0.0592193)
(-0.030689 0.010043 -0.063411)
(-0.0204212 0.0125538 -0.0660975)
(-0.00857342 0.015791 -0.0656174)
(0.0098445 0.0149148 -0.0655046)
(0.0203546 0.0115915 -0.0645285)
(0.0291725 0.00903162 -0.0607649)
(0.0351205 0.00696716 -0.0558205)
(0.0388597 0.00511778 -0.0505166)
(0.0406463 0.00325779 -0.0450473)
(0.0401162 0.00107862 -0.0394335)
(0.0366205 -0.0018815 -0.0337739)
(0.0273001 -0.0067792 -0.0285317)
(0.0179517 -0.0155002 -0.0246265)
(-0.000190546 -0.00177587 0.00758492)
(0.000553677 -0.00220998 0.00744864)
(0.00227181 -0.00239915 0.00725781)
(0.0042596 -0.00239196 0.00679379)
(0.0062921 -0.00241815 0.0062921)
(0.008253 -0.00246171 0.00594511)
(0.00988411 -0.0023863 0.00586603)
(0.0108766 -0.00223338 0.00619436)
(0.0109948 -0.00209278 0.0069679)
(0.0100117 -0.00189298 0.00797858)
(0.00795547 -0.00132341 0.00835502)
(0.00513334 -0.000125442 0.00754755)
(0.00147095 0.000969896 0.00598125)
(-0.00261089 0.000670984 0.0040318)
(-0.00497319 -0.000993336 0.00269155)
(-0.00516192 -0.00234655 0.00226723)
(-0.00404762 -0.00299107 0.00234299)
(-0.00240145 -0.00307222 0.00250942)
(-0.000836946 -0.00274295 0.00250792)
(-0.000100147 -0.002376 0.0026319)
(0.000122799 -0.00253564 0.00583906)
(0.00130348 -0.00403685 0.00625062)
(0.00245123 -0.00489327 0.00578627)
(0.00351441 -0.00529558 0.00503936)
(0.00444167 -0.00540558 0.00444167)
(0.00515335 -0.00525573 0.00428232)