/*--------------------------------*- C++ -*----------------------------------*\
  =========                 |
  \\      /  F ield         | OpenFOAM: The Open Source CFD Toolbox
   \\    /   O peration     | Website:  https://openfoam.org
    \\  /    A nd           | Version:  9
     \\/     M anipulation  |
\*---------------------------------------------------------------------------*/
FoamFile
{
    format      ascii;
    class       surfaceScalarField;
    location    "0.1";
    object      phi;
}
// * * * * * * * * * * * * * * * * * * * * * * * * * * * * * * * * * * * * * //

dimensions      [0 3 -1 0 0 0 0];

internalField   nonuniform List<scalar> 
1740
(
1.76277e-08
-1.76269e-08
1.41786e-08
3.44871e-09
-2.44437e-08
3.86218e-08
-9.67116e-08
7.22672e-08
-1.9603e-07
9.93168e-08
-3.14385e-07
1.18357e-07
-4.43818e-07
1.29432e-07
-5.77018e-07
1.33201e-07
-7.07468e-07
1.30451e-07
-8.29439e-07
1.21973e-07
-9.37927e-07
1.08488e-07
-1.02859e-06
9.06596e-08
-1.09772e-06
6.91381e-08
-1.14234e-06
4.46184e-08
-1.16022e-06
1.78754e-08
-1.15002e-06
-1.01992e-08
-1.11146e-06
-3.85622e-08
-1.04544e-06
-6.60158e-08
-9.54207e-07
-9.12331e-08
-8.41404e-07
-1.12803e-07
-7.12101e-07
-1.29303e-07
-5.72707e-07
-1.39393e-07
-4.30789e-07
-1.41918e-07
-2.94772e-07
-1.36017e-07
-1.7351e-07
-1.21262e-07
-7.56689e-08
-9.78413e-08
-8.76482e-09
-6.69039e-08
2.24428e-08
-3.12072e-08
1.94135e-08
3.02943e-09
1.94133e-08
-3.32128e-09
-1.43048e-08
-6.48931e-08
6.50207e-08
-2.00909e-07
1.74639e-07
-4.08431e-07
2.7979e-07
-6.75336e-07
3.66222e-07
-9.85264e-07
4.28283e-07
-1.32061e-06
4.64774e-07
-1.66414e-06
4.76732e-07
-1.99983e-06
4.66141e-07
-2.31316e-06
4.35296e-07
-2.59121e-06
3.86541e-07
-2.82278e-06
3.22227e-07
-2.99841e-06
2.44777e-07
-3.11059e-06
1.56793e-07
-3.15389e-06
6.11723e-08
-3.1253e-06
-3.8783e-08
-3.02455e-06
-1.39309e-07
-2.85439e-06
-2.36184e-07
-2.6208e-06
-3.24816e-07
-2.33319e-06
-4.00413e-07
-2.00427e-06
-4.58224e-07
-1.64981e-06
-4.93859e-07
-1.28806e-06
-5.03663e-07
-9.38946e-07
-4.85133e-07
-6.22799e-07
-4.37408e-07
-3.58722e-07
-3.61918e-07
-1.62255e-07
-2.63371e-07
-4.21732e-08
-1.51289e-07
4.17921e-09
-4.33233e-08
2.35921e-08
-3.90787e-08
2.47733e-08
-1.78246e-07
2.04187e-07
-4.22536e-07
4.18927e-07
-7.63467e-07
6.20722e-07
-1.18371e-06
7.86464e-07
-1.66105e-06
9.05625e-07
-2.17137e-06
9.75091e-07
-2.69056e-06
9.95924e-07
-3.19572e-06
9.71306e-07
-3.66579e-06
9.05367e-07
-4.08189e-06
8.0264e-07
-4.42755e-06
6.67889e-07
-4.68894e-06
5.06158e-07
-4.85508e-06
3.22932e-07
-4.91822e-06
1.24322e-07
-4.87423e-06
-8.27739e-08
-4.72296e-06
-2.90582e-07
-4.46865e-06
-4.90491e-07
-4.12023e-06
-6.73235e-07
-3.69141e-06
-8.29231e-07
-3.20056e-06
-9.49075e-07
-2.67024e-06
-1.02418e-06
-2.12639e-06
-1.04752e-06
-1.59702e-06
-1.01451e-06
-1.11048e-06
-9.23942e-07
-6.9319e-07
-7.7921e-07
-3.66707e-07
-5.89855e-07
-1.44338e-07
-3.73659e-07
-2.72683e-08
-1.60393e-07
-3.67655e-09
-7.54433e-08
1.00217e-07
-2.96082e-07
4.24825e-07
-6.51581e-07
7.74427e-07
-1.12422e-06
1.09336e-06
-1.69003e-06
1.35228e-06
-2.32119e-06
1.53678e-06
-2.98821e-06
1.64212e-06
-3.66178e-06
1.66949e-06
-4.31387e-06
1.6234e-06
-4.91856e-06
1.51006e-06
-5.4525e-06
1.33658e-06
-5.89525e-06
1.11064e-06
-6.22965e-06
8.40556e-07
-6.44212e-06
5.35402e-07
-6.5231e-06
2.05303e-07
-6.46751e-06
-1.38366e-07
-6.27521e-06
-4.82875e-07
-5.95148e-06
-8.14221e-07
-5.5073e-06
-1.11742e-06
-4.95946e-06
-1.37707e-06
-4.33045e-06
-1.57809e-06
-3.64785e-06
-1.70678e-06
-2.94334e-06
-1.75202e-06
-2.25121e-06
-1.70664e-06
-1.60624e-06
-1.56891e-06
-1.04121e-06
-1.34423e-06
-5.83915e-07
-1.04715e-06
-2.54038e-07
-7.03536e-07
-6.04707e-08
-3.53961e-07
-6.41471e-08
-1.09408e-07
2.09624e-07
-4.09853e-07
7.25271e-07
-8.75158e-07
1.23973e-06
-1.47662e-06
1.69483e-06
-2.18242e-06
2.05807e-06
-2.95869e-06
2.31305e-06
-3.77099e-06
2.45441e-06
-4.58556e-06
2.48406e-06
-5.37035e-06
2.40819e-06
-6.09571e-06
2.23542e-06
-6.73491e-06
1.97578e-06
-7.26456e-06
1.64029e-06
-7.66492e-06
1.24092e-06
-7.92036e-06
7.90844e-07
-8.0198e-06
3.04745e-07
-7.95724e-06
-2.00931e-07
-7.73227e-06
-7.07849e-07
-7.35059e-06
-1.1959e-06
-6.82441e-06
-1.6436e-06
-6.17259e-06
-2.02889e-06
-5.42053e-06
-2.33014e-06
-4.59962e-06
-2.52769e-06
-3.74619e-06
-2.60546e-06
-2.89986e-06
-2.55297e-06
-2.10147e-06
-2.36731e-06
-1.39031e-06
-2.05539e-06
-8.01332e-07
-1.63613e-06
-3.6231e-07
-1.14256e-06
-9.19439e-08
-6.24327e-07
-1.56091e-07
-1.40672e-07
3.50298e-07
-5.17413e-07
1.10201e-06
-1.08918e-06
1.8115e-06
-1.81583e-06
2.42147e-06
-2.65699e-06
2.89923e-06
-3.57237e-06
3.22844e-06
-4.52254e-06
3.40458e-06
-5.4697e-06
3.43122e-06
-6.3784e-06
3.31688e-06
-7.21605e-06
3.07307e-06
-7.95333e-06
2.71307e-06
-8.56456e-06
2.25152e-06
-9.02801e-06
1.70437e-06
-9.32634e-06
1.08917e-06
-9.44706e-06
4.2547e-07
-9.3831e-06
-2.64888e-07
-9.13339e-06
-9.57556e-07
-8.70346e-06
-1.62583e-06
-8.1059e-06
-2.24116e-06
-7.36073e-06
-2.77406e-06
-6.49532e-06
-3.19555e-06
-5.54402e-06
-3.47898e-06
-4.54717e-06
-3.60231e-06
-3.54954e-06
-3.5506e-06
-2.59813e-06
-3.31872e-06
-1.73954e-06
-2.91399e-06
-1.017e-06
-2.35866e-06
-4.67805e-07
-1.69176e-06
-1.21474e-07
-9.70658e-07
-2.77565e-07
-1.69692e-07
5.19989e-07
-6.19012e-07
1.55133e-06
-1.29337e-06
2.48586e-06
-2.14137e-06
3.26946e-06
-3.1138e-06
3.87167e-06
-4.16371e-06
4.27834e-06
-5.24659e-06
4.48747e-06
-6.32084e-06
4.50547e-06
-7.34799e-06
4.34404e-06
-8.29306e-06
4.01813e-06
-9.12472e-06
3.54472e-06
-9.81549e-06
2.94229e-06
-1.03421e-05
2.23095e-06
-1.06856e-05
1.43272e-06
-1.08322e-05
5.72089e-07
-1.07736e-05
-3.23576e-07
-1.05073e-05
-1.22376e-06
-1.00383e-05
-2.09488e-06
-9.37861e-06
-2.90085e-06
-8.54852e-06
-3.60415e-06
-7.57658e-06
-4.16749e-06
-6.49942e-06
-4.55614e-06
-5.36105e-06
-4.74068e-06
-4.21138e-06
-4.70027e-06
-3.10414e-06
-4.42595e-06
-2.09417e-06
-3.92396e-06
-1.23432e-06
-3.21852e-06
-5.72583e-07
-2.35349e-06
-1.50008e-07
-1.39323e-06
-4.27573e-07
-1.97063e-07
7.17052e-07
-7.15796e-07
2.07006e-06
-1.48911e-06
3.25918e-06
-2.4547e-06
4.23505e-06
-3.55458e-06
4.97155e-06
-4.735e-06
5.45876e-06
-5.94644e-06
5.69892e-06
-7.14361e-06
5.70263e-06
-8.2854e-06
5.48582e-06
-9.33482e-06
5.06756e-06
-1.0259e-05
4.46891e-06
-1.10292e-05
3.71245e-06
-1.16207e-05
2.82247e-06
-1.20134e-05
1.82543e-06
-1.21919e-05
7.50622e-07
-1.21463e-05
-3.69184e-07
-1.18727e-05
-1.49736e-06
-1.13742e-05
-2.59339e-06
-1.06617e-05
-3.61333e-06
-9.75486e-06
-4.51102e-06
-8.68244e-06
-5.23992e-06
-7.48272e-06
-5.75586e-06
-6.20303e-06
-6.02037e-06
-4.89857e-06
-6.00473e-06
-3.63041e-06
-5.69411e-06
-2.46271e-06
-5.09167e-06
-1.45928e-06
-4.22194e-06
-6.80218e-07
-3.13256e-06
-1.78901e-07
-1.89455e-06
-6.06474e-07
-2.2333e-07
9.40382e-07
-8.08981e-07
2.65571e-06
-1.67805e-06
4.12825e-06
-2.75768e-06
5.31468e-06
-3.98118e-06
6.19505e-06
-5.28809e-06
6.76567e-06
-6.62393e-06
7.03477e-06
-7.93998e-06
7.01868e-06
-9.19279e-06
6.73864e-06
-1.03439e-05
6.21863e-06
-1.13592e-05
5.48426e-06
-1.22092e-05
4.56239e-06
-1.28681e-05
3.48143e-06
-1.33147e-05
2.27205e-06
-1.35322e-05
9.6805e-07
-1.35086e-05
-3.92794e-07
-1.32379e-05
-1.76804e-06
-1.27209e-05
-3.11037e-06
-1.19663e-05
-4.36789e-06
-1.09921e-05
-5.48528e-06
-9.82621e-06
-6.40578e-06
-8.50782e-06
-7.07424e-06
-7.08705e-06
-7.44114e-06
-5.62437e-06
-7.46741e-06
-4.18877e-06
-7.1297e-06
-2.85485e-06
-6.4256e-06
-1.69892e-06
-5.37787e-06
-7.94789e-07
-4.03669e-06
-2.09576e-07
-2.47976e-06
-8.1605e-07
-2.48879e-07
1.18926e-06
-8.99563e-07
3.3064e-06
-1.86163e-06
5.09032e-06
-3.05181e-06
6.50486e-06
-4.39483e-06
7.53807e-06
-5.82357e-06
8.19441e-06
-7.27884e-06
8.49003e-06
-8.70873e-06
8.44858e-06
-1.0068e-05
8.09785e-06
-1.13169e-05
7.46763e-06
-1.24212e-05
6.58853e-06
-1.33506e-05
5.49182e-06
-1.40791e-05
4.20992e-06
-1.45844e-05
2.77731e-06
-1.48481e-05
1.23174e-06
-1.48563e-05
-3.84584e-07
-1.46003e-05
-2.02403e-06
-1.40778e-05
-3.63289e-06
-1.32942e-05
-5.15146e-06
-1.22646e-05
-6.51493e-06
-1.1015e-05
-7.65539e-06
-9.58411e-06
-8.5051e-06
-8.02414e-06
-9.00111e-06
-6.40051e-06
-9.09104e-06
-4.79051e-06
-8.73971e-06
-3.28027e-06
-7.93584e-06
-1.96037e-06
-6.69777e-06
-9.20413e-07
-5.07665e-06
-2.43413e-07
-3.15676e-06
-1.05946e-06
-2.7399e-07
1.46325e-06
-9.88295e-07
4.0207e-06
-2.04087e-06
6.1429e-06
-3.338e-06
7.80198e-06
-4.79576e-06
8.99583e-06
-6.3405e-06
9.73915e-06
-7.90853e-06
1.00581e-05
-9.44524e-06
9.98528e-06
-1.0904e-05
9.55661e-06
-1.22449e-05
8.80853e-06
-1.34336e-05
7.7772e-06
-1.44402e-05
6.49844e-06
-1.52386e-05
5.00839e-06
-1.58062e-05
3.34484e-06
-1.61232e-05
1.54873e-06
-1.61735e-05
-3.34249e-07
-1.59454e-05
-2.25213e-06
-1.54326e-05
-4.14564e-06
-1.46364e-05
-5.94773e-06
-1.35672e-05
-7.58409e-06
-1.22477e-05
-8.97489e-06
-1.07146e-05
-1.00382e-05
-9.02077e-06
-1.0695e-05
-7.23578e-06
-1.0876e-05
-5.44526e-06
-1.05302e-05
-3.7479e-06
-9.6332e-06
-2.25046e-06
-8.1952e-06
-1.06109e-06
-6.26602e-06
-2.81734e-07
-3.93612e-06
-1.3412e-06
-2.98888e-07
1.76214e-06
-1.07579e-06
4.7976e-06
-2.21658e-06
7.28369e-06
-3.61669e-06
9.20209e-06
-5.18334e-06
1.05625e-05
-6.83639e-06
1.13922e-05
-8.50797e-06
1.17296e-05
-1.01413e-05
1.16186e-05
-1.16892e-05
1.11045e-05
-1.31123e-05
1.02316e-05
-1.43772e-05
9.0421e-06
-1.54552e-05
7.57649e-06
-1.63212e-05
5.87434e-06
-1.69524e-05
3.97602e-06
-1.73283e-05
1.92466e-06
-1.74309e-05
-2.31694e-07
-1.72449e-05
-2.43809e-06
-1.67597e-05
-4.63088e-06
-1.59708e-05
-6.73662e-06
-1.48829e-05
-8.67193e-06
-1.35131e-05
-1.03447e-05
-1.1894e-05
-1.16573e-05
-1.00771e-05
-1.25119e-05
-8.13462e-06
-1.28185e-05
-6.16002e-06
-1.25048e-05
-4.26528e-06
-1.15279e-05
-2.57548e-06
-9.885e-06
-1.22065e-06
-7.62085e-06
-3.25832e-07
-4.83094e-06
-1.66703e-06
-3.23803e-07
2.08594e-06
-1.16268e-06
5.63648e-06
-2.38955e-06
8.51056e-06
-3.88812e-06
1.07007e-05
-5.55631e-06
1.22307e-05
-7.30745e-06
1.31433e-05
-9.06987e-06
1.3492e-05
-1.07854e-05
1.33341e-05
-1.24072e-05
1.27263e-05
-1.38975e-05
1.17219e-05
-1.52252e-05
1.03698e-05
-1.63639e-05
8.71523e-06
-1.72903e-05
6.80076e-06
-1.79828e-05
4.66851e-06
-1.84208e-05
2.36263e-06
-1.85844e-05
-6.80455e-08
-1.84553e-05
-2.56721e-06
-1.80176e-05
-5.06858e-06
-1.72603e-05
-7.4939e-06
-1.61805e-05
-9.75176e-06
-1.47872e-05
-1.1738e-05
-1.31062e-05
-1.33383e-05
-1.11848e-05
-1.44333e-05
-9.0955e-06
-1.49078e-05
-6.93809e-06
-1.46622e-05
-4.83805e-06
-1.3628e-05
-2.94096e-06
-1.17821e-05
-1.40276e-06
-9.15905e-06
-3.77017e-07
-5.85668e-06
-2.04405e-06
-3.49076e-07
2.43502e-06
-1.24998e-06
6.53738e-06
-2.56106e-06
9.82165e-06
-4.15294e-06
1.22925e-05
-5.91339e-06
1.39911e-05
-7.74906e-06
1.4979e-05
-9.585e-06
1.5328e-05
-1.13626e-05
1.51117e-05
-1.30366e-05
1.44003e-05
-1.45723e-05
1.32576e-05
-1.59425e-05
1.17399e-05
-1.71244e-05
9.89715e-06
-1.8098e-05
7.77441e-06
-1.88441e-05
5.41463e-06
-1.9343e-05
2.86153e-06
-1.95741e-05
1.63e-07
-1.95158e-05
-2.62543e-06
-1.91473e-05
-5.43714e-06
-1.84499e-05
-8.19129e-06
-1.74113e-05
-1.07904e-05
-1.60299e-05
-1.31194e-05
-1.43213e-05
-1.50469e-05
-1.23246e-05
-1.643e-05
-1.0109e-05
-1.71234e-05
-7.77776e-06
-1.69934e-05
-5.46926e-06
-1.59365e-05
-3.35146e-06
-1.38999e-05
-1.61094e-06
-1.08996e-05
-4.36642e-07
-7.03098e-06
-2.48069e-06
-3.75299e-07
2.81032e-06
-1.33938e-06
7.50146e-06
-2.73348e-06
1.12157e-05
-4.41285e-06
1.39719e-05
-6.25385e-06
1.58321e-05
-8.15627e-06
1.68814e-05
-1.00425e-05
1.72143e-05
-1.18549e-05
1.6924e-05
-1.35514e-05
1.60969e-05
-1.51023e-05
1.48085e-05
-1.64857e-05
1.31234e-05
-1.76847e-05
1.10962e-05
-1.86844e-05
8.77404e-06
-1.94693e-05
6.19951e-06
-2.00221e-05
3.41437e-06
-2.03226e-05
4.63512e-07
-2.03473e-05
-2.60079e-06
-2.007e-05
-5.71441e-06
-1.94643e-05
-8.79701e-06
-1.85067e-05
-1.1748e-05
-1.71824e-05
-1.44436e-05
-1.54926e-05
-1.67367e-05
-1.34634e-05
-1.84592e-05
-1.11552e-05
-1.94317e-05
-8.67063e-06
-1.9478e-05
-6.15848e-06
-1.84486e-05
-3.81032e-06
-1.6248e-05
-1.84857e-06
-1.28613e-05
-5.06148e-07
-8.3734e-06
-2.98684e-06
-4.03524e-07
3.21384e-06
-1.43388e-06
8.53181e-06
-2.91103e-06
1.26929e-05
-4.67145e-06
1.57323e-05
-6.57827e-06
1.77389e-05
-8.52424e-06
1.88274e-05
-1.04302e-05
1.91202e-05
-1.22411e-05
1.87349e-05
-1.39204e-05
1.77763e-05
-1.54457e-05
1.63337e-05
-1.68028e-05
1.44805e-05
-1.79827e-05
1.2276e-05
-1.89772e-05
9.76861e-06
-1.97771e-05
6.99936e-06
-2.03691e-05
4.0064e-06
-2.07351e-05
8.29436e-07
-2.08506e-05
-2.48526e-06
-2.06856e-05
-5.87943e-06
-2.02055e-05
-9.27706e-06
-1.9375e-05
-1.25785e-05
-1.81632e-05
-1.56554e-05
-1.65526e-05
-1.83472e-05
-1.45503e-05
-2.04615e-05
-1.22009e-05
-2.17811e-05
-9.59946e-06
-2.20795e-05
-6.90064e-06
-2.11475e-05
-4.3193e-06
-1.88294e-05
-2.11896e-06
-1.50617e-05
-5.87177e-07
-9.90519e-06
-3.57401e-06
-4.35556e-07
3.6494e-06
-1.53847e-06
9.63472e-06
-3.10079e-06
1.42552e-05
-4.93515e-06
1.75667e-05
-6.88906e-06
1.96928e-05
-8.84831e-06
2.07867e-05
-1.07339e-05
2.10058e-05
-1.2496e-05
2.04969e-05
-1.41066e-05
1.93869e-05
-1.55532e-05
1.77803e-05
-1.68322e-05
1.57596e-05
-1.79447e-05
1.33885e-05
-1.88919e-05
1.07158e-05
-1.96724e-05
7.77987e-06
-2.02794e-05
4.6134e-06
-2.06986e-05
1.24867e-06
-2.0907e-05
-2.27689e-06
-2.08718e-05
-5.91455e-06
-2.05518e-05
-9.59713e-06
-1.9899e-05
-1.32313e-05
-1.88649e-05
-1.66895e-05
-1.74092e-05
-1.9803e-05
-1.55127e-05
-2.23579e-05
-1.31955e-05
-2.40983e-05
-1.05352e-05
-2.47397e-05
-7.68441e-06
-2.39983e-05
-4.87809e-06
-2.16357e-05
-2.42551e-06
-1.75142e-05
-6.81742e-07
-1.1649e-05
-4.25576e-06
-4.7437e-07
4.12377e-06
-1.66111e-06
1.08215e-05
-3.31383e-06
1.59079e-05
-5.21393e-06
1.94668e-05
-7.19055e-06
2.16694e-05
-9.12327e-06
2.27194e-05
-1.09362e-05
2.28187e-05
-1.25885e-05
2.21492e-05
-1.40646e-05
2.0863e-05
-1.53654e-05
1.90811e-05
-1.6501e-05
1.68951e-05
-1.7485e-05
1.43725e-05
-1.83303e-05
1.15612e-05
-1.90457e-05
8.49524e-06
-1.96327e-05
5.20042e-06
-2.00835e-05
1.69946e-06
-2.03785e-05
-1.98187e-06
-2.04851e-05
-5.80796e-06
-2.03568e-05
-9.7254e-06
-1.99348e-05
-1.36533e-05
-1.91519e-05
-1.74724e-05
-1.79413e-05
-2.10136e-05
-1.62512e-05
-2.4048e-05
-1.40661e-05
-2.62834e-05
-1.14332e-05
-2.73727e-05
-8.48983e-06
-2.69416e-05
-5.48356e-06
-2.4642e-05
-2.77189e-06
-2.02259e-05
-7.92494e-07
-1.36284e-05
-5.04825e-06
-5.24799e-07
4.64857e-06
-1.81415e-06
1.21108e-05
-3.56645e-06
1.76602e-05
-5.52169e-06
2.1422e-05
-7.48791e-06
2.36357e-05
-9.34088e-06
2.45724e-05
-1.10127e-05
2.44906e-05
-1.24774e-05
2.36138e-05
-1.37366e-05
2.21223e-05
-1.48091e-05
2.01536e-05
-1.57217e-05
1.78077e-05
-1.65032e-05
1.5154e-05
-1.71802e-05
1.22382e-05
-1.77733e-05
9.08836e-06
-1.82946e-05
5.72164e-06
-1.87446e-05
2.14948e-06
-1.91102e-05
-1.61625e-06
-1.93618e-05
-5.5564e-06
-1.94512e-05
-9.63598e-06
-1.93112e-05
-1.37933e-05
-1.88575e-05
-1.79262e-05
-1.79955e-05
-2.18757e-05
-1.66344e-05
-2.5409e-05
-1.47119e-05
-2.8206e-05
-1.22275e-05
-2.9857e-05
-9.2848e-06
-2.98843e-05
-6.12865e-06
-2.77981e-05
-3.16248e-06
-2.31921e-05
-9.23246e-07
-1.58676e-05
-5.9715e-06
-5.94666e-07
5.24323e-06
-2.01613e-06
1.35323e-05
-3.88125e-06
1.95254e-05
-5.87521e-06
2.3416e-05
-7.78361e-06
2.55441e-05
-9.48415e-06
2.62729e-05
-1.09252e-05
2.59317e-05
-1.21035e-05
2.47921e-05
-1.30447e-05
2.30636e-05
-1.37902e-05
2.0899e-05
-1.43866e-05
1.84041e-05
-1.48802e-05
1.56476e-05
-1.53122e-05
1.26702e-05
-1.57164e-05
9.49258e-06
-1.61165e-05
6.12169e-06
-1.65234e-05
2.55644e-06
-1.6933e-05
-1.20671e-06
-1.73221e-05
-5.16731e-06
-1.76454e-05
-9.31268e-06
-1.78321e-05
-1.36066e-05
-1.77847e-05
-1.79735e-05
-1.73826e-05
-2.22778e-05
-1.6493e-05
-2.62985e-05
-1.49958e-05
-2.97032e-05
-1.28236e-05
-3.20292e-05
-1.00195e-05
-3.26884e-05
-6.80013e-06
-3.10175e-05
-3.60295e-06
-2.63892e-05
-1.08e-06
-1.83905e-05
-7.05149e-06
-6.96671e-07
5.9399e-06
-2.2943e-06
1.51299e-05
-4.2873e-06
2.15184e-05
-6.29019e-06
2.54189e-05
-8.06923e-06
2.73231e-05
-9.51577e-06
2.77194e-05
-1.06077e-05
2.70237e-05
-1.13757e-05
2.556e-05
-1.18776e-05
2.35655e-05
-1.2182e-05
2.12034e-05
-1.23582e-05
1.85803e-05
-1.24705e-05
1.57599e-05
-1.25752e-05
1.27748e-05
-1.27187e-05
9.63612e-06
-1.29364e-05
6.33943e-06
-1.32506e-05
2.87062e-06
-1.36678e-05
-7.8953e-07
-1.41751e-05
-4.66006e-06
-1.4735e-05
-8.75274e-06
-1.52801e-05
-1.30615e-05
-1.57073e-05
-1.75462e-05
-1.58761e-05
-2.2109e-05
-1.56136e-05
-2.6561e-05
-1.47351e-05
-3.05818e-05
-1.30867e-05
-3.36776e-05
-1.06172e-05
-3.5158e-05
-7.47428e-06
-3.41604e-05
-4.1007e-06
-2.97628e-05
-1.27268e-06
-2.12186e-05
-8.32418e-06
-8.51623e-07
6.79153e-06
-2.68736e-06
1.69656e-05
-4.81722e-06
2.36482e-05
-6.77062e-06
2.73723e-05
-8.30795e-06
2.88604e-05
-9.35628e-06
2.87678e-05
-9.94338e-06
2.76108e-05
-1.01484e-05
2.5765e-05
-1.00699e-05
2.3487e-05
-9.80803e-06
2.09416e-05
-9.45518e-06
1.82275e-05
-9.09263e-06
1.53973e-05
-8.78953e-06
1.24717e-05
-8.60302e-06
9.44961e-06
-8.57832e-06
6.31473e-06
-8.74808e-06
3.04037e-06
-9.13039e-06
-4.07218e-07
-9.72519e-06
-4.06526e-06
-1.05084e-05
-7.96949e-06
-1.14241e-05
-1.21458e-05
-1.23747e-05
-1.65956e-05
-1.32119e-05
-2.12718e-05
-1.37327e-05
-2.60403e-05
-1.3689e-05
-3.06254e-05
-1.28253e-05
-3.45414e-05
-1.09579e-05
-3.70254e-05
-8.10739e-06
-3.70109e-05
-4.66425e-06
-3.3206e-05
-1.51815e-06
-2.43647e-05
-9.84233e-06
-1.09391e-06
7.88543e-06
-3.24716e-06
1.91189e-05
-5.49625e-06
2.58973e-05
-7.28393e-06
2.916e-05
-8.39979e-06
2.99763e-05
-8.84491e-06
2.92129e-05
-8.72539e-06
2.74912e-05
-8.18566e-06
2.52253e-05
-7.37221e-06
2.26735e-05
-6.41729e-06
1.99866e-05
-5.43367e-06
1.72439e-05
-4.51506e-06
1.44787e-05
-3.73836e-06
1.1695e-05
-3.16656e-06
8.8778e-06
-2.85076e-06
5.99893e-06
-2.83113e-06
3.02074e-06
-3.13618e-06
-1.02166e-07
-3.77989e-06
-3.42155e-06
-4.756e-06
-6.99338e-06
-6.02879e-06
-1.0873e-05
-7.51984e-06
-1.51046e-05
-9.0916e-06
-1.97e-05
-1.0531e-05
-2.46008e-05
-1.15422e-05
-2.96142e-05
-1.17656e-05
-3.4318e-05
-1.08509e-05
-3.79401e-05
-8.61546e-06
-3.92463e-05
-5.29811e-06
-3.65233e-05
-1.84467e-06
-2.78181e-05
-1.1687e-05
-1.4799e-06
9.36534e-06
-4.03357e-06
2.16726e-05
-6.31036e-06
2.81741e-05
-7.70624e-06
3.05559e-05
-8.11528e-06
3.03853e-05
-7.67225e-06
2.87699e-05
-6.59622e-06
2.64152e-05
-5.11079e-06
2.37399e-05
-3.41098e-06
2.09737e-05
-1.65493e-06
1.82306e-05
3.32452e-08
1.55557e-05
1.55709e-06
1.29549e-05
2.84058e-06
1.04115e-05
3.82266e-06
7.89572e-06
4.45278e-06
5.3688e-06
4.68829e-06
2.78523e-06
4.4936e-06
9.25182e-08
3.84176e-06
-2.7697e-06
2.71889e-06
-5.87052e-06
1.13313e-06
-9.28725e-06
-8.70687e-07
-1.31008e-05
-3.18894e-06
-1.73818e-05
-5.6303e-06
-2.21595e-05
-7.88569e-06
-2.73588e-05
-9.5146e-06
-3.26891e-05
-9.98547e-06
-3.74692e-05
-8.83117e-06
-4.04006e-05
-5.98427e-06
-3.93702e-05
-2.29653e-06
-3.15059e-05
-1.39835e-05
-2.09615e-06
1.14615e-05
-5.08335e-06
2.46598e-05
-7.12253e-06
3.02133e-05
-7.7069e-06
3.11402e-05
-6.97428e-06
2.96527e-05
-5.2717e-06
2.70673e-05
-2.96002e-06
2.41035e-05
-3.41139e-07
2.1121e-05
2.35607e-06
1.82765e-05
4.96625e-06
1.56204e-05
7.37201e-06
1.31499e-05
9.48931e-06
1.08376e-05
1.1256e-05
8.64487e-06
1.26231e-05
6.52865e-06
1.35488e-05
4.44307e-06
1.39947e-05
2.33933e-06
1.39234e-05
1.63794e-07
1.32986e-05
-2.14484e-06
1.2087e-05
-4.65899e-06
1.02656e-05
-7.4658e-06
7.83385e-06
-1.0669e-05
4.83757e-06
-1.43855e-05
1.40602e-06
-1.87279e-05
-2.19537e-06
-2.37574e-05
-5.50689e-06
-2.93776e-05
-7.84848e-06
-3.51276e-05
-8.41348e-06
-3.98356e-05
-6.62498e-06
-4.11587e-05
-2.92874e-06
-3.52021e-05
-1.69123e-05
-3.04239e-06
1.45039e-05
-6.2891e-06
2.79065e-05
-7.4638e-06
3.1388e-05
-6.51618e-06
3.01926e-05
-4.04017e-06
2.71767e-05
-6.61918e-07
2.3689e-05
3.12445e-06
2.03171e-05
6.976e-06
1.72694e-05
1.06717e-05
1.45808e-05
1.40749e-05
1.22172e-05
1.71028e-05
1.0122e-05
1.97044e-05
8.23599e-06
2.1846e-05
6.50332e-06
2.35014e-05
4.87316e-06
2.46462e-05
3.29827e-06
2.5253e-05
1.7326e-06
2.52886e-05
1.28146e-07
2.4713e-05
-1.56922e-06
2.34784e-05
-3.42439e-06
2.15321e-05
-5.5195e-06
1.88241e-05
-7.96103e-06
1.5325e-05
-1.08864e-05
1.10621e-05
-1.4465e-05
6.18403e-06
-1.88793e-05
1.06181e-06
-2.42554e-05
-3.59139e-06
-3.04744e-05
-6.66687e-06
-3.67601e-05
-6.88388e-06
-4.09417e-05
-3.75235e-06
-3.83336e-05
-2.06646e-05
-4.30518e-06
1.88091e-05
-7.01588e-06
3.06172e-05
-6.04662e-06
3.04187e-05
-2.49403e-06
2.664e-05
2.38946e-06
2.22932e-05
7.73881e-06
1.83397e-05
1.30316e-05
1.50244e-05
1.7984e-05
1.2317e-05
2.24585e-05
1.01063e-05
2.63984e-05
8.27727e-06
2.97877e-05
6.73269e-06
3.26283e-05
5.39543e-06
3.49267e-05
4.20488e-06
3.66874e-05
3.11253e-06
3.79079e-05
2.0777e-06
3.85768e-05
1.06376e-06
3.86704e-05
3.45675e-08
3.81511e-05
-1.05e-06
3.69647e-05
-2.23791e-06
3.50377e-05
-3.59252e-06
3.22779e-05
-5.2012e-06
2.85797e-05
-7.18826e-06
2.38457e-05
-9.73098e-06
1.80401e-05
-1.30738e-05
1.13043e-05
-1.75196e-05
4.16103e-06
-2.33312e-05
-2.21212e-06
-3.03869e-05
-5.81791e-06
-3.73359e-05
-4.53943e-06
-3.96121e-05
-2.5204e-05
-5.28563e-06
2.40947e-05
-5.03842e-06
3.037e-05
2.6934e-07
2.5111e-05
7.57353e-06
1.93358e-05
1.51465e-05
1.47203e-05
2.22293e-05
1.12568e-05
2.85367e-05
8.71698e-06
3.40081e-05
6.84562e-06
3.86796e-05
5.43484e-06
4.2619e-05
4.33793e-06
4.58962e-05
3.4555e-06
4.85716e-05
2.71994e-06
5.06924e-05
2.08417e-06
5.22908e-05
1.51408e-06
5.33851e-05
9.83445e-07
5.39786e-05
4.70215e-07
5.40595e-05
-4.62983e-08
5.35979e-05
-5.88419e-07
5.25429e-05
-1.18291e-06
5.08164e-05
-1.866e-06
4.83054e-05
-2.69028e-06
4.48538e-05
-3.73661e-06
4.02569e-05
-5.13406e-06
3.42757e-05
-7.09264e-06
2.67057e-05
-9.94952e-06
1.75749e-05
-1.42004e-05
7.58829e-06
-2.04004e-05
-1.09569e-06
-2.86519e-05
-4.31945e-06
-3.63883e-05
-2.95235e-05
-2.3207e-06
2.64154e-05
6.60309e-06
2.14462e-05
1.84486e-05
1.32654e-05
2.92575e-05
8.52695e-06
3.82577e-05
5.72002e-06
4.55503e-05
3.96425e-06
5.14204e-05
2.84688e-06
5.61512e-05
2.11484e-06
5.99742e-05
1.61183e-06
6.3065e-05
1.24712e-06
6.55521e-05
9.68378e-07
6.75276e-05
7.44473e-07
6.90557e-05
5.56001e-07
7.01797e-05
3.9016e-07
7.09253e-05
2.37835e-07
7.13036e-05
9.18473e-08
7.13116e-05
-5.43004e-08
7.09305e-05
-2.07286e-07
7.01229e-05
-3.75321e-07
6.88265e-05
-5.69588e-07
6.69433e-05
-8.07069e-07
6.43224e-05
-1.11568e-06
6.0733e-05
-1.54468e-06
5.58269e-05
-2.18652e-06
4.90995e-05
-3.22214e-06
3.99086e-05
-5.00949e-06
2.77455e-05
-8.23723e-06
1.32091e-05
-1.41155e-05
6.41299e-07
-2.38205e-05
-2.88822e-05
2.64154e-05
4.78616e-05
6.1127e-05
6.9654e-05
7.5374e-05
7.93382e-05
8.21851e-05
8.43e-05
8.59118e-05
8.71589e-05
8.81273e-05
8.88718e-05
8.94278e-05
8.98179e-05
9.00557e-05
9.01476e-05
9.00933e-05
8.9886e-05
8.95107e-05
8.89411e-05
8.8134e-05
8.70184e-05
8.54737e-05
8.32872e-05
8.0065e-05
7.50555e-05
6.68183e-05
5.27027e-05
2.88822e-05
)
;

boundaryField
{
    movingWall
    {
        type            calculated;
        value           uniform 0;
    }
    fixedWalls
    {
        type            calculated;
        value           uniform 0;
    }
    frontAndBack
    {
        type            empty;
        value           nonuniform List<scalar> 0();
    }
}


// ************************************************************************* //
