/*--------------------------------*- C++ -*----------------------------------*\
  =========                 |
  \\      /  F ield         | OpenFOAM: The Open Source CFD Toolbox
   \\    /   O peration     | Website:  https://openfoam.org
    \\  /    A nd           | Version:  9
     \\/     M anipulation  |
\*---------------------------------------------------------------------------*/
FoamFile
{
    format      ascii;
    class       surfaceScalarField;
    location    "0.1";
    object      phi;
}
// * * * * * * * * * * * * * * * * * * * * * * * * * * * * * * * * * * * * * //

dimensions      [0 3 -1 0 0 0 0];

internalField   nonuniform List<scalar> 
1740
(
6.02044e-09
-6.02071e-09
5.27238e-09
7.48377e-10
-7.21616e-09
1.24884e-08
-3.11061e-08
2.38902e-08
-6.43094e-08
3.32034e-08
-1.04184e-07
3.98742e-08
-1.48003e-07
4.38191e-08
-1.93182e-07
4.51793e-08
-2.37374e-07
4.4192e-08
-2.78509e-07
4.11341e-08
-3.14804e-07
3.62951e-08
-3.44772e-07
2.99681e-08
-3.67222e-07
2.24498e-08
-3.81264e-07
1.40421e-08
-3.86318e-07
5.05467e-09
-3.82127e-07
-4.19132e-09
-3.68768e-07
-1.3359e-08
-3.46674e-07
-2.20939e-08
-3.16649e-07
-3.00256e-08
-2.79876e-07
-3.6773e-08
-2.37921e-07
-4.19542e-08
-1.92722e-07
-4.51992e-08
-1.46554e-07
-4.61681e-08
-1.0198e-07
-4.45741e-08
-6.17634e-08
-4.0217e-08
-2.87189e-08
-3.30445e-08
-5.44332e-09
-2.32755e-08
6.19024e-09
-1.16336e-08
6.20514e-09
-1.49926e-11
6.20516e-09
-3.97999e-10
-5.62306e-09
-1.96824e-08
2.00329e-08
-6.39182e-08
5.6724e-08
-1.32481e-07
9.24528e-08
-2.21536e-07
1.22259e-07
-3.25644e-07
1.43982e-07
-4.38755e-07
1.5693e-07
-5.54819e-07
1.61243e-07
-6.6813e-07
1.57503e-07
-7.73518e-07
1.46523e-07
-8.66462e-07
1.29239e-07
-9.4315e-07
1.06656e-07
-1.00052e-06
7.98195e-08
-1.03629e-06
4.98123e-08
-1.04899e-06
1.77555e-08
-1.038e-06
-1.51844e-08
-1.00357e-06
-4.77899e-08
-9.46868e-07
-7.87933e-08
-8.70007e-07
-1.06886e-07
-7.76038e-07
-1.30743e-07
-6.68936e-07
-1.49056e-07
-5.5354e-07
-1.60595e-07
-4.35436e-07
-1.64272e-07
-3.20767e-07
-1.59244e-07
-2.15937e-07
-1.45047e-07
-1.27169e-07
-1.21811e-07
-5.9818e-08
-9.06269e-08
-1.73291e-08
-5.41225e-08
3.4052e-10
-1.76846e-08
6.54576e-09
-1.18554e-08
6.23252e-09
-5.62353e-08
6.44131e-08
-1.3585e-07
1.36339e-07
-2.48434e-07
2.05036e-07
-3.88475e-07
2.623e-07
-5.48543e-07
3.0405e-07
-7.20322e-07
3.28709e-07
-8.95347e-07
3.36268e-07
-1.0655e-06
3.27661e-07
-1.22335e-06
3.04369e-07
-1.36231e-06
2.682e-07
-1.47681e-06
2.21155e-07
-1.56236e-06
1.65365e-07
-1.6156e-06
1.03058e-07
-1.63441e-06
3.65582e-08
-1.61787e-06
-3.17172e-08
-1.56641e-06
-9.92504e-08
-1.48177e-06
-1.63433e-07
-1.36707e-06
-2.21592e-07
-1.22677e-06
-2.71042e-07
-1.06666e-06
-3.09165e-07
-8.93724e-07
-3.3353e-07
-7.15949e-07
-3.42046e-07
-5.42021e-07
-3.33172e-07
-3.80881e-07
-3.06187e-07
-2.41102e-07
-2.6159e-07
-1.30042e-07
-2.01687e-07
-5.27528e-08
-1.31412e-07
-1.0667e-08
-5.97703e-08
-4.12131e-09
-2.36713e-08
2.99037e-08
-9.46394e-08
1.35381e-07
-2.10794e-07
2.52493e-07
-3.66982e-07
3.61224e-07
-5.55522e-07
4.5084e-07
-7.67052e-07
5.15581e-07
-9.91379e-07
5.53035e-07
-1.21818e-06
5.63067e-07
-1.43753e-06
5.4701e-07
-1.64028e-06
5.07126e-07
-1.81834e-06
4.46257e-07
-1.9648e-06
3.67617e-07
-2.0741e-06
2.74666e-07
-2.1421e-06
1.71054e-07
-2.16613e-06
6.05915e-08
-2.1451e-06
-5.27463e-08
-2.07952e-06
-1.6483e-07
-1.97156e-06
-2.71395e-07
-1.82507e-06
-3.68085e-07
-1.64557e-06
-4.50546e-07
-1.44017e-06
-5.14561e-07
-1.21746e-06
-5.56242e-07
-9.87212e-07
-5.72292e-07
-7.60051e-07
-5.60332e-07
-5.4691e-07
-5.19328e-07
-3.58354e-07
-4.50146e-07
-2.03739e-07
-3.56303e-07
-9.02707e-08
-2.4488e-07
-2.2127e-08
-1.27914e-07
-2.62484e-08
-3.47469e-08
6.46507e-08
-1.31933e-07
2.32567e-07
-2.84426e-07
4.04987e-07
-4.83563e-07
5.60362e-07
-7.19045e-07
6.86322e-07
-9.79413e-07
7.75949e-07
-1.25267e-06
8.26294e-07
-1.52688e-06
8.37279e-07
-1.79066e-06
8.10787e-07
-2.03354e-06
7.50004e-07
-2.24625e-06
6.5897e-07
-2.42092e-06
5.42282e-07
-2.55117e-06
4.0492e-07
-2.63227e-06
2.5215e-07
-2.66116e-06
8.94831e-08
-2.63656e-06
-7.73379e-08
-2.55905e-06
-2.4235e-07
-2.43104e-06
-3.99402e-07
-2.2569e-06
-5.42223e-07
-2.04289e-06
-6.64552e-07
-1.79712e-06
-7.60335e-07
-1.52936e-06
-8.24002e-07
-1.25082e-06
-8.50833e-07
-9.73728e-07
-8.37423e-07
-7.1081e-07
-7.82247e-07
-4.74602e-07
-6.86353e-07
-2.76689e-07
-5.54216e-07
-1.26931e-07
-3.94638e-07
-3.29065e-08
-2.21939e-07
-5.9155e-08
-4.49758e-08
1.09626e-07
-1.67436e-07
3.55027e-07
-3.5554e-07
5.93091e-07
-5.96897e-07
8.01719e-07
-8.7829e-07
9.67715e-07
-1.18596e-06
1.08362e-06
-1.50606e-06
1.14639e-06
-1.82511e-06
1.15633e-06
-2.13044e-06
1.11611e-06
-2.4105e-06
1.03006e-06
-2.65512e-06
9.03591e-07
-2.85568e-06
7.4284e-07
-3.00522e-06
5.54461e-07
-3.09855e-06
3.4548e-07
-3.13231e-06
1.23246e-07
-3.10506e-06
-1.04589e-07
-3.01733e-06
-3.30085e-07
-2.87168e-06
-5.45047e-07
-2.67278e-06
-7.41119e-07
-2.4274e-06
-9.09941e-07
-2.14432e-06
-1.04341e-06
-1.8343e-06
-1.13403e-06
-1.50972e-06
-1.17541e-06
-1.18429e-06
-1.16285e-06
-8.72521e-07
-1.09402e-06
-5.89048e-07
-9.69827e-07
-3.47972e-07
-7.95292e-07
-1.6218e-07
-5.80429e-07
-4.29256e-08
-3.41194e-07
-1.0208e-07
-5.45571e-08
1.64184e-07
-2.01412e-07
5.01882e-07
-4.24407e-07
8.16087e-07
-7.07386e-07
1.0847e-06
-1.03404e-06
1.29437e-06
-1.38815e-06
1.43772e-06
-1.75389e-06
1.51213e-06
-2.11627e-06
1.51871e-06
-2.46141e-06
1.46126e-06
-2.77685e-06
1.3455e-06
-3.05168e-06
1.17843e-06
-3.27675e-06
9.67902e-07
-3.44465e-06
7.22364e-07
-3.54987e-06
4.50702e-07
-3.58881e-06
1.62182e-07
-3.55984e-06
-1.3356e-07
-3.46339e-06
-4.26529e-07
-3.30204e-06
-7.06396e-07
-3.08057e-06
-9.62593e-07
-2.80601e-06
-1.1845e-06
-2.48766e-06
-1.36176e-06
-2.137e-06
-1.48469e-06
-1.76749e-06
-1.54492e-06
-1.39429e-06
-1.53605e-06
-1.03372e-06
-1.45458e-06
-7.02755e-07
-1.3008e-06
-4.18278e-07
-1.07977e-06
-1.96492e-07
-8.02216e-07
-5.24431e-08
-4.85242e-07
-1.54523e-07
-6.37742e-08
2.27958e-07
-2.34494e-07
6.72601e-07
-4.91946e-07
1.07354e-06
-8.16218e-07
1.40897e-06
-1.18779e-06
1.66595e-06
-1.58783e-06
1.83776e-06
-1.99848e-06
1.92278e-06
-2.40319e-06
1.92342e-06
-2.78696e-06
1.84503e-06
-3.13652e-06
1.69506e-06
-3.44041e-06
1.48231e-06
-3.68905e-06
1.21654e-06
-3.87478e-06
9.08096e-07
-3.99185e-06
5.67774e-07
-4.03646e-06
2.06793e-07
-4.0068e-06
-1.63221e-07
-3.90313e-06
-5.302e-07
-3.72788e-06
-8.81647e-07
-3.48577e-06
-1.20471e-06
-3.1839e-06
-1.48637e-06
-2.83185e-06
-1.7138e-06
-2.44168e-06
-1.87486e-06
-2.02781e-06
-1.95879e-06
-1.6068e-06
-1.95706e-06
-1.19694e-06
-1.86444e-06
-8.17701e-07
-1.68003e-06
-4.89054e-07
-1.40842e-06
-2.30771e-07
-1.0605e-06
-6.18254e-08
-6.54188e-07
-2.16349e-07
-7.28999e-08
3.00858e-07
-2.67381e-07
8.67082e-07
-5.5925e-07
1.36541e-06
-9.24791e-07
1.77451e-06
-1.34116e-06
2.08232e-06
-1.78679e-06
2.28339e-06
-2.24173e-06
2.37772e-06
-2.68787e-06
2.36956e-06
-3.10917e-06
2.26633e-06
-3.49166e-06
2.07754e-06
-3.82348e-06
1.81414e-06
-4.09485e-06
1.48791e-06
-4.29795e-06
1.1112e-06
-4.42693e-06
6.96748e-07
-4.47782e-06
2.5769e-07
-4.44864e-06
-1.92408e-07
-4.33937e-06
-6.39466e-07
-4.15217e-06
-1.06884e-06
-3.8915e-06
-1.46538e-06
-3.56431e-06
-1.81356e-06
-3.18023e-06
-2.09789e-06
-2.75168e-06
-2.30341e-06
-2.29392e-06
-2.41655e-06
-1.82489e-06
-2.4261e-06
-1.36491e-06
-2.32442e-06
-9.36163e-07
-2.10878e-06
-5.61988e-07
-1.78259e-06
-2.66036e-07
-1.35645e-06
-7.14432e-08
-8.48781e-07
-2.87792e-07
-8.217e-08
3.83028e-07
-3.00722e-07
1.08563e-06
-6.27365e-07
1.69205e-06
-1.03442e-06
2.18157e-06
-1.49558e-06
2.54348e-06
-1.98642e-06
2.77423e-06
-2.48483e-06
2.87612e-06
-2.97121e-06
2.85595e-06
-3.42857e-06
2.72368e-06
-3.84243e-06
2.49141e-06
-4.20074e-06
2.17245e-06
-4.49368e-06
1.78085e-06
-4.71348e-06
1.331e-06
-4.85429e-06
8.37563e-07
-4.9121e-06
3.15499e-07
-4.8847e-06
-2.19814e-07
-4.77175e-06
-7.52415e-07
-4.57496e-06
-1.26563e-06
-4.29832e-06
-1.74202e-06
-3.94834e-06
-2.16354e-06
-3.53443e-06
-2.5118e-06
-3.06913e-06
-2.76871e-06
-2.5683e-06
-2.91737e-06
-2.05119e-06
-2.94321e-06
-1.54018e-06
-2.83543e-06
-1.06037e-06
-2.58859e-06
-6.38762e-07
-2.2042e-06
-3.03282e-07
-1.69193e-06
-8.16398e-08
-1.07042e-06
-3.69432e-07
-9.17834e-08
4.74811e-07
-3.35089e-07
1.32894e-06
-6.97213e-07
2.05418e-06
-1.14623e-06
2.63059e-06
-1.65212e-06
3.04936e-06
-2.18749e-06
3.3096e-06
-2.72806e-06
3.41669e-06
-3.25282e-06
3.38071e-06
-3.74401e-06
3.21487e-06
-4.18688e-06
2.93428e-06
-4.56945e-06
2.55503e-06
-4.88214e-06
2.09353e-06
-5.11744e-06
1.5663e-06
-5.26971e-06
9.89834e-07
-5.33496e-06
3.80747e-07
-5.31079e-06
-2.43985e-07
-5.19646e-06
-8.66746e-07
-4.99306e-06
-1.46902e-06
-4.70383e-06
-2.03125e-06
-4.33456e-06
-2.53281e-06
-3.89403e-06
-2.95232e-06
-3.39455e-06
-3.2682e-06
-2.8523e-06
-3.45963e-06
-2.28761e-06
-3.5079e-06
-1.72491e-06
-3.39813e-06
-1.19234e-06
-3.12116e-06
-7.20944e-07
-2.6756e-06
-3.43443e-07
-2.06943e-06
-9.27302e-08
-1.32114e-06
-4.62162e-07
-1.01916e-07
5.76728e-07
-3.70996e-07
1.59802e-06
-7.69592e-07
2.45277e-06
-1.26108e-06
3.12208e-06
-1.81141e-06
3.59969e-06
-2.39008e-06
3.88827e-06
-2.97064e-06
3.99726e-06
-3.53084e-06
3.9409e-06
-4.05241e-06
3.73643e-06
-4.52068e-06
3.40255e-06
-4.92408e-06
2.95843e-06
-5.25363e-06
2.42308e-06
-5.5024e-06
1.81508e-06
-5.66518e-06
1.15261e-06
-5.73814e-06
4.53712e-07
-5.71876e-06
-2.63367e-07
-5.60581e-06
-9.79697e-07
-5.39959e-06
-1.67525e-06
-5.10229e-06
-2.32855e-06
-4.71856e-06
-2.91655e-06
-4.25611e-06
-3.41477e-06
-3.72651e-06
-3.7978e-06
-3.14579e-06
-4.04034e-06
-2.53505e-06
-4.11864e-06
-1.9206e-06
-4.01257e-06
-1.33375e-06
-3.70801e-06
-8.09955e-07
-3.19939e-06
-3.87393e-07
-2.49199e-06
-1.05013e-07
-1.60352e-06
-5.67175e-07
-1.12745e-07
6.89472e-07
-4.08944e-07
1.89422e-06
-8.45241e-07
2.88907e-06
-1.37966e-06
3.6565e-06
-1.97369e-06
4.19372e-06
-2.59352e-06
4.5081e-06
-3.21062e-06
4.61436e-06
-3.80174e-06
4.53202e-06
-4.3485e-06
4.2832e-06
-4.83679e-06
3.89084e-06
-5.25593e-06
3.37757e-06
-5.59798e-06
2.76513e-06
-5.857e-06
2.07409e-06
-6.02849e-06
1.32411e-06
-6.10904e-06
5.34255e-07
-6.09603e-06
-2.76369e-07
-5.98774e-06
-1.088e-06
-5.78345e-06
-1.87953e-06
-5.484e-06
-2.628e-06
-5.09239e-06
-3.30815e-06
-4.61471e-06
-3.89245e-06
-4.0611e-06
-4.35142e-06
-3.44682e-06
-4.65462e-06
-2.79317e-06
-4.77229e-06
-2.12804e-06
-4.6777e-06
-1.48591e-06
-4.35014e-06
-9.07069e-07
-3.77824e-06
-4.35975e-07
-2.96309e-06
-1.18785e-07
-1.92071e-06
-6.8596e-07
-1.24473e-07
8.13945e-07
-4.49498e-07
2.21924e-06
-9.24927e-07
3.3645e-06
-1.50253e-06
4.23409e-06
-2.13875e-06
4.82995e-06
-2.7963e-06
5.16565e-06
-3.44469e-06
5.26274e-06
-4.06007e-06
5.14741e-06
-4.62455e-06
4.84768e-06
-5.12515e-06
4.39144e-06
-5.55275e-06
3.80517e-06
-5.90101e-06
3.11339e-06
-6.16547e-06
2.33855e-06
-6.34276e-06
1.5014e-06
-6.43011e-06
6.21601e-07
-6.42499e-06
-2.81484e-07
-6.32512e-06
-1.18787e-06
-6.12863e-06
-2.07602e-06
-5.83461e-06
-2.92202e-06
-5.44389e-06
-3.69887e-06
-4.96019e-06
-4.37616e-06
-4.3914e-06
-4.9202e-06
-3.75112e-06
-5.29489e-06
-3.06005e-06
-5.46336e-06
-2.34707e-06
-5.39068e-06
-1.64969e-06
-5.04752e-06
-1.01343e-06
-4.41449e-06
-4.90037e-07
-3.48648e-06
-1.34362e-07
-2.27638e-06
-8.20322e-07
-1.37374e-07
9.51319e-07
-4.93382e-07
2.57525e-06
-1.00958e-06
3.8807e-06
-1.63023e-06
4.85474e-06
-2.30603e-06
5.50575e-06
-2.996e-06
5.85562e-06
-3.66799e-06
5.93474e-06
-4.29819e-06
5.7776e-06
-4.8699e-06
5.41939e-06
-5.37217e-06
4.8937e-06
-5.79819e-06
4.23119e-06
-6.14397e-06
3.45917e-06
-6.40709e-06
2.60168e-06
-6.5858e-06
1.68011e-06
-6.6783e-06
7.141e-07
-6.68235e-06
-2.77441e-07
-6.59512e-06
-1.27509e-06
-6.41345e-06
-2.25769e-06
-6.13432e-06
-3.20115e-06
-5.75581e-06
-4.07738e-06
-5.27841e-06
-4.85356e-06
-4.70674e-06
-5.49187e-06
-4.05154e-06
-5.95009e-06
-3.33175e-06
-6.18315e-06
-2.57636e-06
-6.14608e-06
-1.82546e-06
-5.79842e-06
-1.13011e-06
-5.10983e-06
-5.50496e-07
-4.0661e-06
-1.5211e-07
-2.67477e-06
-9.72432e-07
-1.5184e-07
1.10316e-06
-5.41625e-07
2.96504e-06
-1.10047e-06
4.43954e-06
-1.76343e-06
5.5177e-06
-2.47455e-06
6.21687e-06
-3.1891e-06
6.57017e-06
-3.87379e-06
6.61942e-06
-4.50569e-06
6.4095e-06
-5.07043e-06
5.98413e-06
-5.5601e-06
5.38337e-06
-5.97121e-06
4.64231e-06
-6.30293e-06
3.79089e-06
-6.5556e-06
2.85434e-06
-6.72957e-06
1.85409e-06
-6.82444e-06
8.08969e-07
-6.83848e-06
-2.63407e-07
-6.76845e-06
-1.34512e-06
-6.60976e-06
-2.41638e-06
-6.357e-06
-3.45392e-06
-6.00487e-06
-4.42951e-06
-5.54975e-06
-5.30868e-06
-4.99173e-06
-6.04989e-06
-4.33721e-06
-6.60461e-06
-3.60178e-06
-6.91858e-06
-2.81309e-06
-6.93477e-06
-2.01297e-06
-6.59854e-06
-1.25812e-06
-5.86469e-06
-6.18422e-07
-4.7058e-06
-1.72491e-07
-3.1207e-06
-1.14492e-06
-1.68477e-07
1.27164e-06
-5.95751e-07
3.39231e-06
-1.19939e-06
5.04317e-06
-1.90297e-06
6.22128e-06
-2.64285e-06
6.95676e-06
-3.37065e-06
7.29797e-06
-4.05283e-06
7.30161e-06
-4.66872e-06
7.02539e-06
-5.20767e-06
6.52309e-06
-5.66619e-06
5.84188e-06
-6.04523e-06
5.02135e-06
-6.34806e-06
4.09372e-06
-6.57848e-06
3.08476e-06
-6.73955e-06
2.01516e-06
-6.83264e-06
9.02056e-07
-6.85683e-06
-2.39213e-07
-6.80866e-06
-1.39329e-06
-6.68213e-06
-2.54291e-06
-6.46919e-06
-3.66686e-06
-6.16067e-06
-4.73803e-06
-5.74792e-06
-5.72143e-06
-5.22512e-06
-6.57269e-06
-4.5925e-06
-7.23723e-06
-3.86019e-06
-7.65088e-06
-3.05242e-06
-7.74254e-06
-2.21121e-06
-7.43974e-06
-1.39849e-06
-6.67741e-06
-6.95168e-07
-5.40912e-06
-1.9613e-07
-3.61974e-06
-1.34105e-06
-1.88233e-07
1.45987e-06
-6.58055e-07
3.86213e-06
-1.30893e-06
5.69405e-06
-2.04989e-06
6.96224e-06
-2.80855e-06
7.71542e-06
-3.53343e-06
8.02285e-06
-4.19233e-06
7.96051e-06
-4.76874e-06
7.6018e-06
-5.25764e-06
7.01199e-06
-5.66154e-06
6.24578e-06
-5.98716e-06
5.34697e-06
-6.2428e-06
4.34935e-06
-6.43641e-06
3.27838e-06
-6.57425e-06
2.153e-06
-6.65987e-06
9.87674e-07
-6.69349e-06
-2.05588e-07
-6.67166e-06
-1.41513e-06
-6.58713e-06
-2.62743e-06
-6.4292e-06
-3.82479e-06
-6.1845e-06
-4.98273e-06
-5.83854e-06
-6.0674e-06
-5.37821e-06
-7.03302e-06
-4.79549e-06
-7.81995e-06
-4.09236e-06
-8.35402e-06
-3.28664e-06
-8.54826e-06
-2.41796e-06
-8.30841e-06
-1.55226e-06
-7.54312e-06
-7.82559e-07
-6.17882e-06
-2.23936e-07
-4.17836e-06
-1.56499e-06
-2.12617e-07
1.67249e-06
-7.31984e-07
4.3815e-06
-1.43267e-06
6.39474e-06
-2.20516e-06
7.73472e-06
-2.96752e-06
8.47778e-06
-3.66667e-06
8.72199e-06
-4.27425e-06
8.56809e-06
-4.78067e-06
8.10822e-06
-5.18897e-06
7.42029e-06
-5.50954e-06
6.56636e-06
-5.75613e-06
5.59356e-06
-5.94292e-06
4.53615e-06
-6.08256e-06
3.41802e-06
-6.18483e-06
2.25527e-06
-6.25576e-06
1.0586e-06
-6.29699e-06
-1.64356e-07
-6.3054e-06
-1.40671e-06
-6.27287e-06
-2.65997e-06
-6.18628e-06
-3.91137e-06
-6.02808e-06
-5.14093e-06
-5.77749e-06
-6.31798e-06
-5.41293e-06
-7.39759e-06
-4.91593e-06
-8.31695e-06
-4.27708e-06
-8.99287e-06
-3.50377e-06
-9.32158e-06
-2.62917e-06
-9.18302e-06
-1.72045e-06
-8.45183e-06
-8.83168e-07
-7.0161e-06
-2.57302e-07
-4.80423e-06
-1.82229e-06
-2.44064e-07
1.91655e-06
-8.22656e-07
4.96009e-06
-1.57524e-06
7.14733e-06
-2.36883e-06
8.52831e-06
-3.11211e-06
9.22106e-06
-3.75341e-06
9.36329e-06
-4.27233e-06
9.08701e-06
-4.66999e-06
8.50587e-06
-4.96037e-06
7.71067e-06
-5.16372e-06
6.76971e-06
-5.30193e-06
5.73177e-06
-5.39559e-06
4.6298e-06
-5.46219e-06
3.48462e-06
-5.51507e-06
2.30815e-06
-5.56278e-06
1.10631e-06
-5.60861e-06
-1.18528e-07
-5.65016e-06
-1.36517e-06
-5.67894e-06
-2.63119e-06
-5.68011e-06
-3.9102e-06
-5.63248e-06
-5.18856e-06
-5.50914e-06
-6.44132e-06
-5.27937e-06
-7.62736e-06
-4.91236e-06
-8.68396e-06
-4.38374e-06
-9.52149e-06
-3.68526e-06
-1.00201e-05
-2.83751e-06
-1.00308e-05
-1.90378e-06
-9.38556e-06
-1.00069e-06
-7.91919e-06
-2.98457e-07
-5.50646e-06
-2.12075e-06
-2.8656e-07
2.20311e-06
-9.3752e-07
5.61105e-06
-1.74193e-06
7.95174e-06
-2.53808e-06
9.32446e-06
-3.22764e-06
9.91062e-06
-3.76623e-06
9.90189e-06
-4.14757e-06
9.46835e-06
-4.38843e-06
8.74674e-06
-4.51702e-06
7.83926e-06
-4.56511e-06
6.8178e-06
-4.56329e-06
5.72995e-06
-4.53843e-06
4.60494e-06
-4.51243e-06
3.45861e-06
-4.50171e-06
2.29744e-06
-4.51706e-06
1.12166e-06
-4.56338e-06
-7.22046e-08
-4.63938e-06
-1.28916e-06
-4.73703e-06
-2.53354e-06
-4.84085e-06
-3.80637e-06
-4.92729e-06
-5.10212e-06
-4.96444e-06
-6.40418e-06
-4.9128e-06
-7.679e-06
-4.7282e-06
-8.86856e-06
-4.36795e-06
-9.88174e-06
-3.80201e-06
-1.0586e-05
-3.0298e-06
-1.0803e-05
-2.1017e-06
-1.03137e-05
-1.1404e-06
-8.88048e-06
-3.51072e-07
-6.29579e-06
-2.47182e-06
-3.46711e-07
2.54982e-06
-1.087e-06
6.35134e-06
-1.93705e-06
8.8018e-06
-2.70271e-06
1.00901e-05
-3.28588e-06
1.04938e-05
-3.65973e-06
1.02757e-05
-3.84096e-06
9.64958e-06
-3.86787e-06
8.77364e-06
-3.78583e-06
7.75722e-06
-3.63895e-06
6.67091e-06
-3.46599e-06
5.55699e-06
-3.29889e-06
4.43785e-06
-3.16263e-06
3.32235e-06
-3.07557e-06
2.21038e-06
-3.04992e-06
1.096e-06
-3.09191e-06
-3.0208e-08
-3.20168e-06
-1.1794e-06
-3.37257e-06
-2.36265e-06
-3.59011e-06
-3.58884e-06
-3.83052e-06
-4.86171e-06
-4.05929e-06
-6.17541e-06
-4.23025e-06
-7.50804e-06
-4.2865e-06
-8.81231e-06
-4.16505e-06
-1.00032e-05
-3.80779e-06
-1.09433e-05
-3.18176e-06
-1.1429e-05
-2.31e-06
-1.11854e-05
-1.30938e-06
-9.88111e-06
-4.21308e-07
-7.18386e-06
-2.89313e-06
-4.35509e-07
2.98533e-06
-1.28442e-06
7.20025e-06
-2.15912e-06
9.67649e-06
-2.83582e-06
1.07668e-05
-3.23316e-06
1.08911e-05
-3.35849e-06
1.04011e-05
-3.26291e-06
9.55399e-06
-3.01199e-06
8.52272e-06
-2.66971e-06
7.41494e-06
-2.29136e-06
6.29256e-06
-1.92147e-06
5.18711e-06
-1.5944e-06
4.11078e-06
-1.33571e-06
3.06366e-06
-1.1637e-06
2.03837e-06
-1.09066e-06
1.02296e-06
-1.12351e-06
2.64102e-09
-1.26391e-06
-1.03899e-06
-1.50765e-06
-2.11891e-06
-1.8432e-06
-3.25329e-06
-2.24963e-06
-4.45528e-06
-2.6937e-06
-5.73133e-06
-3.12692e-06
-7.07482e-06
-3.48335e-06
-8.45588e-06
-3.68066e-06
-9.80588e-06
-3.62825e-06
-1.09957e-05
-3.24817e-06
-1.18091e-05
-2.51488e-06
-1.19187e-05
-1.51573e-06
-1.08803e-05
-5.19486e-07
-8.1801e-06
-3.41262e-06
-5.70898e-07
3.55623e-06
-1.54309e-06
8.17244e-06
-2.38845e-06
1.05219e-05
-2.87464e-06
1.1253e-05
-2.96941e-06
1.09859e-05
-2.73813e-06
1.01698e-05
-2.27843e-06
9.09429e-06
-1.68618e-06
7.93047e-06
-1.04167e-06
6.77044e-06
-4.06779e-07
5.65766e-06
1.73166e-07
4.60716e-06
6.65937e-07
3.61801e-06
1.04905e-06
2.68054e-06
1.307e-06
1.78042e-06
1.4293e-06
9.00654e-07
1.40935e-06
2.25897e-08
1.24406e-06
-8.73701e-07
9.34356e-07
-1.80921e-06
4.86662e-07
-2.80559e-06
-8.44805e-08
-3.88414e-06
-7.52475e-07
-5.06334e-06
-1.47341e-06
-6.35388e-06
-2.18012e-06
-7.74918e-06
-2.77742e-06
-9.20858e-06
-3.14323e-06
-1.06299e-05
-3.14419e-06
-1.18081e-05
-2.67909e-06
-1.23838e-05
-1.76407e-06
-1.17953e-05
-6.62237e-07
-9.28194e-06
-4.07485e-06
-7.79442e-07
4.33567e-06
-1.86305e-06
9.25605e-06
-2.55715e-06
1.12159e-05
-2.68317e-06
1.1379e-05
-2.313e-06
1.06157e-05
-1.59793e-06
9.45472e-06
-6.88954e-07
8.18531e-06
2.92539e-07
6.94898e-06
1.25907e-06
5.80391e-06
2.15164e-06
4.76509e-06
2.93219e-06
3.82661e-06
3.57683e-06
2.97338e-06
4.07064e-06
2.18673e-06
4.40407e-06
1.44699e-06
4.57051e-06
7.34214e-07
4.56488e-06
2.82226e-08
4.38307e-06
-6.91891e-07
4.02222e-06
-1.44836e-06
3.48195e-06
-2.26532e-06
2.7669e-06
-3.16909e-06
1.89111e-06
-4.18755e-06
8.84761e-07
-5.34753e-06
-1.96197e-07
-6.66822e-06
-1.25823e-06
-8.14655e-06
-2.15966e-06
-9.72842e-06
-2.71157e-06
-1.12562e-05
-2.71089e-06
-1.23845e-05
-2.03925e-06
-1.24669e-05
-8.72684e-07
-1.04485e-05
-4.94754e-06
-1.08718e-06
5.42285e-06
-2.18549e-06
1.03544e-05
-2.47914e-06
1.15096e-05
-1.9824e-06
1.08823e-05
-9.46615e-07
9.57994e-06
3.73659e-07
8.13445e-06
1.78509e-06
6.77388e-06
3.16056e-06
5.57351e-06
4.42439e-06
4.54008e-06
5.53522e-06
3.65426e-06
6.47259e-06
2.88924e-06
7.22772e-06
2.21824e-06
7.79759e-06
1.61686e-06
8.18124e-06
1.06333e-06
8.37762e-06
5.37835e-07
8.38426e-06
2.15816e-08
8.19671e-06
-5.04337e-07
7.80846e-06
-1.06011e-06
7.21167e-06
-1.66853e-06
6.39889e-06
-2.35631e-06
5.36665e-06
-3.1553e-06
4.12204e-06
-4.10292e-06
2.694e-06
-5.24019e-06
1.15109e-06
-6.60364e-06
-3.74112e-07
-8.20322e-06
-1.66054e-06
-9.96978e-06
-2.39715e-06
-1.16479e-05
-2.25621e-06
-1.26079e-05
-1.16704e-06
-1.15377e-05
-6.11457e-06
-1.46945e-06
6.8923e-06
-2.26162e-06
1.11465e-05
-1.69993e-06
1.09479e-05
-2.31744e-07
9.41411e-06
1.65488e-06
7.69332e-06
3.63121e-06
6.15812e-06
5.50948e-06
4.89561e-06
7.19787e-06
3.88512e-06
8.66071e-06
3.07724e-06
9.89145e-06
2.42352e-06
1.08967e-05
1.884e-06
1.16875e-05
1.42743e-06
1.22749e-05
1.02951e-06
1.26673e-05
6.70891e-07
1.28697e-05
3.35387e-07
1.28828e-05
8.49155e-09
1.27025e-05
-3.24003e-07
1.23196e-05
-6.77262e-07
1.17201e-05
-1.06894e-06
1.08847e-05
-1.52099e-06
9.79136e-06
-2.06193e-06
8.41826e-06
-2.72982e-06
6.75323e-06
-3.57516e-06
4.8118e-06
-4.66221e-06
2.67066e-06
-6.06207e-06
5.20405e-07
-7.81953e-06
-1.27123e-06
-9.85625e-06
-2.1302e-06
-1.17489e-05
-1.49647e-06
-1.21714e-05
-7.61104e-06
-1.68448e-06
8.57678e-06
-1.32078e-06
1.07828e-05
7.98836e-07
8.8283e-06
3.54797e-06
6.66497e-06
6.29586e-06
4.94543e-06
8.77707e-06
3.67691e-06
1.09082e-05
2.76446e-06
1.26888e-05
2.10455e-06
1.41499e-05
1.61615e-06
1.53299e-05
1.24352e-06
1.62644e-05
9.49523e-07
1.69826e-05
7.09157e-07
1.75071e-05
5.05094e-07
1.78532e-05
3.24728e-07
1.80304e-05
1.58234e-07
1.80416e-05
-2.76487e-09
1.78839e-05
-1.66271e-07
1.75474e-05
-3.40799e-07
1.7015e-05
-5.36524e-07
1.62607e-05
-7.66703e-07
1.52487e-05
-1.04987e-06
1.39321e-05
-1.41326e-06
1.22553e-05
-1.89832e-06
1.01621e-05
-2.56899e-06
7.62179e-06
-3.52181e-06
4.68973e-06
-4.88747e-06
1.62878e-06
-6.79529e-06
-8.77252e-07
-9.24286e-06
-1.57683e-06
-1.14718e-05
-9.18788e-06
-4.83187e-07
9.05996e-06
2.87269e-06
7.42695e-06
7.14115e-06
4.55985e-06
1.09511e-05
2.85499e-06
1.40398e-05
1.85681e-06
1.64658e-05
1.25082e-06
1.83555e-05
8.74782e-07
1.98273e-05
6.32751e-07
2.09747e-05
4.6878e-07
2.18667e-05
3.51481e-07
2.25531e-05
2.63112e-07
2.30691e-05
1.93218e-07
2.34389e-05
1.35275e-07
2.36787e-05
8.49152e-08
2.3798e-05
3.89453e-08
2.38005e-05
-5.24691e-09
2.36843e-05
-5.00839e-08
2.34417e-05
-9.81587e-08
2.30578e-05
-1.52619e-07
2.25088e-05
-2.17744e-07
2.17588e-05
-2.99913e-07
2.0755e-05
-4.09382e-07
1.94204e-05
-5.63769e-07
1.76464e-05
-7.94986e-07
1.52869e-05
-1.1623e-06
1.21736e-05
-1.7742e-06
8.2025e-06
-2.82418e-06
3.62122e-06
-4.66157e-06
-1.50484e-07
-7.70012e-06
-9.33836e-06
9.05996e-06
1.64869e-05
2.10468e-05
2.39017e-05
2.57586e-05
2.70094e-05
2.78842e-05
2.85169e-05
2.89857e-05
2.93372e-05
2.96003e-05
2.97935e-05
2.99288e-05
3.00137e-05
3.00526e-05
3.00474e-05
2.99973e-05
2.98991e-05
2.97465e-05
2.95288e-05
2.92289e-05
2.88195e-05
2.82557e-05
2.74607e-05
2.62984e-05
2.45242e-05
2.17001e-05
1.70385e-05
9.33836e-06
)
;

boundaryField
{
    movingWall
    {
        type            calculated;
        value           uniform 0;
    }
    fixedWalls
    {
        type            calculated;
        value           uniform 0;
    }
    frontAndBack
    {
        type            empty;
        value           nonuniform List<scalar> 0();
    }
}


// ************************************************************************* //
