/*--------------------------------*- C++ -*----------------------------------*\
  =========                 |
  \\      /  F ield         | OpenFOAM: The Open Source CFD Toolbox
   \\    /   O peration     | Website:  https://openfoam.org
    \\  /    A nd           | Version:  9
     \\/     M anipulation  |
\*---------------------------------------------------------------------------*/
FoamFile
{
    format      ascii;
    class       volVectorField;
    location    "0.1";
    object      U;
}
// * * * * * * * * * * * * * * * * * * * * * * * * * * * * * * * * * * * * * //

dimensions      [0 1 -1 0 0 0 0];

internalField   nonuniform List<vector> 
900
(
(0.00012043 -0.000118526 0)
(0.000233899 -6.09241e-05 0)
(4.10241e-05 7.51869e-05 0)
(-0.000510498 0.000207464 0)
(-0.0013803 0.000313277 0)
(-0.00249315 0.000387521 0)
(-0.00376569 0.000430952 0)
(-0.00511698 0.000446465 0)
(-0.00647239 0.00043749 0)
(-0.00776538 0.000407489 0)
(-0.00893799 0.000359724 0)
(-0.00994112 0.000297258 0)
(-0.0107345 0.000223061 0)
(-0.0112869 0.000140089 0)
(-0.0115762 5.13283e-05 0)
(-0.0115897 -4.01358e-05 0)
(-0.0113246 -0.000131053 0)
(-0.0107885 -0.000217954 0)
(-0.00999981 -0.000297138 0)
(-0.00898842 -0.000364717 0)
(-0.00779564 -0.000416685 0)
(-0.00647417 -0.00044903 0)
(-0.00508757 -0.000457867 0)
(-0.00370897 -0.000439606 0)
(-0.00241917 -0.000391226 0)
(-0.00130342 -0.000310904 0)
(-0.000445928 -0.00019959 0)
(8.13956e-05 -6.45017e-05 0)
(0.000248838 6.99138e-05 0)
(0.000121561 0.000120537 0)
(6.92476e-05 -0.000237941 0)
(-0.000134709 0.000147605 0)
(-0.00107594 0.000788264 0)
(-0.00278684 0.00141837 0)
(-0.00518436 0.00194061 0)
(-0.00812279 0.0023188 0)
(-0.0114244 0.00254434 0)
(-0.0149043 0.0026227 0)
(-0.018384 0.00256595 0)
(-0.0216995 0.00238913 0)
(-0.0247046 0.00210858 0)
(-0.0272739 0.0017412 0)
(-0.029304 0.00130426 0)
(-0.0307147 0.000815427 0)
(-0.0314493 0.00029287 0)
(-0.0314762 -0.000244524 0)
(-0.0307896 -0.000776995 0)
(-0.0294108 -0.00128384 0)
(-0.0273887 -0.00174351 0)
(-0.0248009 -0.00213398 0)
(-0.021753 -0.00243328 0)
(-0.0183781 -0.00262034 0)
(-0.0148335 -0.00267609 0)
(-0.0112969 -0.00258493 0)
(-0.00795915 -0.0023369 0)
(-0.00501387 -0.00193144 0)
(-0.00264049 -0.00138449 0)
(-0.000978118 -0.00074101 0)
(-9.19506e-05 -0.000106018 0)
(7.73494e-05 0.000252032 0)
(-6.02604e-05 -6.26209e-05 0)
(-0.000765702 0.00108026 0)
(-0.00262085 0.00262397 0)
(-0.0055416 0.00412446 0)
(-0.00938013 0.00538074 0)
(-0.0139397 0.00629941 0)
(-0.0189794 0.00684713 0)
(-0.0242425 0.00702619 0)
(-0.0294776 0.00685895 0)
(-0.0344492 0.00637882 0)
(-0.038946 0.00562534 0)
(-0.0427848 0.00464158 0)
(-0.0458143 0.00347284 0)
(-0.0479163 0.00216626 0)
(-0.0490081 0.00077078 0)
(-0.0490439 -0.000662687 0)
(-0.048016 -0.00208105 0)
(-0.0459567 -0.00342915 0)
(-0.0429386 -0.00465024 0)
(-0.0390759 -0.00568706 0)
(-0.0345229 -0.00648348 0)
(-0.0294723 -0.00698693 0)
(-0.0241504 -0.00715163 0)
(-0.0188099 -0.00694297 0)
(-0.0137192 -0.00634346 0)
(-0.00914673 -0.00536191 0)
(-0.00533701 -0.00404805 0)
(-0.0024794 -0.00251448 0)
(-0.000699548 -0.00097951 0)
(-4.57254e-05 0.000106097 0)
(-0.00019148 0.000468236 0)
(-0.00142894 0.00280887 0)
(-0.0042488 0.0055658 0)
(-0.00839653 0.00817417 0)
(-0.013633 0.0103432 0)
(-0.0197064 0.0119219 0)
(-0.0263209 0.012849 0)
(-0.0331632 0.0131214 0)
(-0.0399263 0.0127722 0)
(-0.0463219 0.0118565 0)
(-0.0520897 0.010443 0)
(-0.0570036 0.00860842 0)
(-0.0608759 0.00643496 0)
(-0.0635605 0.00400906 0)
(-0.0649548 0.00142086 0)
(-0.065002 -0.00123568 0)
(-0.0636929 -0.00386288 0)
(-0.0610675 -0.00635964 0)
(-0.057216 -0.00862261 0)
(-0.0522793 -0.0105482 0)
(-0.0464477 -0.0120359 0)
(-0.039958 -0.0129927 0)
(-0.033088 -0.0133394 0)
(-0.0261466 -0.0130183 0)
(-0.019462 -0.012004 0)
(-0.0133627 -0.0103179 0)
(-0.00815144 -0.00804856 0)
(-0.00407374 -0.0053787 0)
(-0.00134395 -0.00262976 0)
(-0.000171825 -0.000383468 0)
(-0.00030942 0.00134738 0)
(-0.00206226 0.00533544 0)
(-0.00584281 0.00960007 0)
(-0.0112087 0.013511 0)
(-0.0178117 0.0167152 0)
(-0.0253363 0.0190181 0)
(-0.0334303 0.0203363 0)
(-0.0417298 0.0206645 0)
(-0.0498812 0.0200495 0)
(-0.0575546 0.0185717 0)
(-0.0644523 0.016333 0)
(-0.0703159 0.0134493 0)
(-0.0749309 0.010046 0)
(-0.0781301 0.00625554 0)
(-0.0797959 0.00221644 0)
(-0.079863 -0.00192685 0)
(-0.0783202 -0.0060243 0)
(-0.075212 -0.00992108 0)
(-0.0706404 -0.0134593 0)
(-0.0647648 -0.0164814 0)
(-0.0578017 -0.0188349 0)
(-0.0500205 -0.0203796 0)
(-0.0417387 -0.0209971 0)
(-0.0333108 -0.0206023 0)
(-0.0251162 -0.0191587 0)
(-0.0175399 -0.016697 0)
(-0.0109455 -0.0133397 0)
(-0.00564566 -0.00932866 0)
(-0.00196224 -0.0050647 0)
(-0.000285129 -0.00121119 0)
(-0.000413967 0.00254688 0)
(-0.00265501 0.008636 0)
(-0.00737226 0.014714 0)
(-0.0139362 0.0201229 0)
(-0.0218812 0.0244738 0)
(-0.0308192 0.0275464 0)
(-0.0403383 0.0292473 0)
(-0.0500237 0.0295769 0)
(-0.0594801 0.0286014 0)
(-0.0683421 0.0264317 0)
(-0.0762824 0.0232079 0)
(-0.0830181 0.0190901 0)
(-0.0883148 0.0142516 0)
(-0.0919896 0.00887591 0)
(-0.0939138 0.00315501 0)
(-0.0940148 -0.00271096 0)
(-0.0922784 -0.00851429 0)
(-0.0887507 -0.0140408 0)
(-0.0835401 -0.0190721 0)
(-0.0768179 -0.0233902 0)
(-0.0688182 -0.0267844 0)
(-0.0598354 -0.0290607 0)
(-0.0502188 -0.0300544 0)
(-0.040363 -0.0296463 0)
(-0.0306959 -0.0277813 0)
(-0.0216609 -0.0244919 0)
(-0.0136888 -0.0199236 0)
(-0.00717027 -0.0143627 0)
(-0.00254551 -0.00826705 0)
(-0.00038565 -0.00235144 0)
(-0.000508881 0.00404255 0)
(-0.00321495 0.0126804 0)
(-0.00884457 0.0208848 0)
(-0.0165874 0.0279916 0)
(-0.025857 0.0335985 0)
(-0.0361867 0.0374783 0)
(-0.0471 0.0395421 0)
(-0.0581304 0.0398075 0)
(-0.0688419 0.0383691 0)
(-0.078838 0.0353752 0)
(-0.0877671 0.0310102 0)
(-0.0953273 0.0254828 0)
(-0.10127 0.0190186 0)
(-0.105401 0.0118556 0)
(-0.107582 0.00424262 0)
(-0.107736 -0.0035614 0)
(-0.105844 -0.0112877 0)
(-0.101949 -0.0186591 0)
(-0.0961629 -0.0253924 0)
(-0.0886615 -0.031204 0)
(-0.0796904 -0.0358186 0)
(-0.0695621 -0.0389808 0)
(-0.0586527 -0.0404715 0)
(-0.047394 -0.0401275 0)
(-0.0362627 -0.0378648 0)
(-0.0257647 -0.033705 0)
(-0.0164058 -0.0278034 0)
(-0.00866413 -0.0204747 0)
(-0.00310504 -0.0122173 0)
(-0.000477709 -0.00378327 0)
(-0.000598512 0.00581878 0)
(-0.003756 0.0174461 0)
(-0.010283 0.0280934 0)
(-0.0191937 0.037102 0)
(-0.0297789 0.0440741 0)
(-0.0414884 0.0487939 0)
(-0.0537777 0.0511933 0)
(-0.0661267 0.051321 0)
(-0.07806 0.0493115 0)
(-0.0891525 0.0453592 0)
(-0.0990327 0.0396995 0)
(-0.107385 0.032595 0)
(-0.11395 0.0243268 0)
(-0.118528 0.01519 0)
(-0.120974 0.00549182 0)
(-0.121204 -0.00444882 0)
(-0.119194 -0.0143008 0)
(-0.114983 -0.0237217 0)
(-0.108679 -0.0323608 0)
(-0.100457 -0.0398644 0)
(-0.0905673 -0.0458863 0)
(-0.0793352 -0.0501014 0)
(-0.0671588 -0.0522258 0)
(-0.054505 -0.0520399 0)
(-0.0419006 -0.0494165 0)
(-0.0299186 -0.044351 0)
(-0.0191477 -0.0369927 0)
(-0.0101622 -0.0276697 0)
(-0.00365945 -0.016909 0)
(-0.000566555 -0.00549657 0)
(-0.000686661 0.00786871 0)
(-0.00429247 0.0229234 0)
(-0.0117148 0.0363323 0)
(-0.021793 0.0474486 0)
(-0.0336924 0.0558942 0)
(-0.0467756 0.0614819 0)
(-0.0604267 0.0641825 0)
(-0.0740713 0.0640917 0)
(-0.0871953 0.061397 0)
(-0.0993486 0.05635 0)
(-0.110144 0.0492446 0)
(-0.119258 0.0404025 0)
(-0.126426 0.0301635 0)
(-0.131443 0.0188807 0)
(-0.134163 0.00691987 0)
(-0.134496 -0.00534057 0)
(-0.132411 -0.0175077 0)
(-0.12794 -0.0291741 0)
(-0.121179 -0.0399195 0)
(-0.112299 -0.0493167 0)
(-0.101548 -0.0569421 0)
(-0.0892555 -0.0623921 0)
(-0.0758369 -0.0653049 0)
(-0.0617916 -0.0653895 0)
(-0.0476974 -0.0624577 0)
(-0.0341986 -0.0564606 0)
(-0.0219745 -0.0475233 0)
(-0.0117051 -0.0359723 0)
(-0.00422862 -0.0223544 0)
(-0.000657091 -0.00749278 0)
(-0.000776446 0.0101933 0)
(-0.00483714 0.0291156 0)
(-0.0131658 0.0456064 0)
(-0.0244219 0.0590354 0)
(-0.0376402 0.0690576 0)
(-0.0520916 0.075533 0)
(-0.0670866 0.0784905 0)
(-0.081996 0.0780908 0)
(-0.0962699 0.0745903 0)
(-0.109437 0.0683095 0)
(-0.121101 0.0596101 0)
(-0.130936 0.0488779 0)
(-0.138677 0.0365137 0)
(-0.144123 0.022929 0)
(-0.147125 0.0085461 0)
(-0.14759 -0.00619969 0)
(-0.14548 -0.0208565 0)
(-0.140813 -0.0349534 0)
(-0.133672 -0.048001 0)
(-0.124214 -0.0594961 0)
(-0.112674 -0.0689317 0)
(-0.0993799 -0.075815 0)
(-0.084757 -0.0796925 0)
(-0.0693321 -0.0801831 0)
(-0.0537329 -0.0770166 0)
(-0.0386786 -0.0700771 0)
(-0.0249465 -0.0594448 0)
(-0.0133331 -0.0454283 0)
(-0.00483152 -0.028586 0)
(-0.000753638 -0.00978424 0)
(-0.000870385 0.0128 0)
(-0.00540112 0.0360379 0)
(-0.0146589 0.0559322 0)
(-0.0271123 0.0718736 0)
(-0.0416566 0.0835648 0)
(-0.0574659 0.0909334 0)
(-0.0737747 0.094088 0)
(-0.0899003 0.0932756 0)
(-0.105261 0.0888391 0)
(-0.119372 0.0811824 0)
(-0.131834 0.0707438 0)
(-0.142326 0.0579792 0)
(-0.150594 0.0433518 0)
(-0.156443 0.02733 0)
(-0.159729 0.0103887 0)
(-0.160357 -0.00698462 0)
(-0.158278 -0.0242844 0)
(-0.153496 -0.040981 0)
(-0.146073 -0.0565182 0)
(-0.136142 -0.0703153 0)
(-0.123917 -0.081777 0)
(-0.109711 -0.0903109 0)
(-0.0939488 -0.0953553 0)
(-0.0771774 -0.0964174 0)
(-0.0600702 -0.0931195 0)
(-0.0434231 -0.0852512 0)
(-0.0281191 -0.0728222 0)
(-0.0150844 -0.0561035 0)
(-0.00548582 -0.0356554 0)
(-0.000860075 -0.0123932 0)
(-0.000970661 0.0157019 0)
(-0.00599438 0.043716 0)
(-0.0162147 0.0673358 0)
(-0.0298913 0.0859783 0)
(-0.045767 0.0994123 0)
(-0.0629118 0.107657 0)
(-0.0804826 0.110926 0)
(-0.097746 0.109577 0)
(-0.114095 0.104062 0)
(-0.12904 0.0948823 0)
(-0.142192 0.0825645 0)
(-0.153245 0.0676388 0)
(-0.161964 0.0506319 0)
(-0.168171 0.0320653 0)
(-0.17173 0.012461 0)
(-0.172547 -0.00764991 0)
(-0.170566 -0.0277162 0)
(-0.165769 -0.047157 0)
(-0.158191 -0.0653545 0)
(-0.14793 -0.0816525 0)
(-0.135166 -0.0953633 0)
(-0.120183 -0.105784 0)
(-0.10339 -0.112228 0)
(-0.0853419 -0.114066 0)
(-0.0667492 -0.11078 0)
(-0.0484838 -0.102034 0)
(-0.0315417 -0.0877315 0)
(-0.0169943 -0.0680817 0)
(-0.00620835 -0.0436322 0)
(-0.000980099 -0.015351 0)
(-0.0010795 0.0189171 0)
(-0.00662697 0.0521855 0)
(-0.0178533 0.0798507 0)
(-0.0327829 0.101365 0)
(-0.0499878 0.116587 0)
(-0.0684254 0.125655 0)
(-0.0871731 0.128923 0)
(-0.105452 0.126888 0)
(-0.122642 0.120133 0)
(-0.138259 0.109278 0)
(-0.151939 0.0949477 0)
(-0.163408 0.0777513 0)
(-0.172462 0.0582776 0)
(-0.178949 0.037096 0)
(-0.182751 0.0147662 0)
(-0.18378 -0.00814782 0)
(-0.181969 -0.0310616 0)
(-0.17728 -0.0533544 0)
(-0.16971 -0.0743559 0)
(-0.159311 -0.0933395 0)
(-0.146212 -0.109524 0)
(-0.130649 -0.122088 0)
(-0.112996 -0.130199 0)
(-0.093794 -0.133063 0)
(-0.0737803 -0.129989 0)
(-0.0538963 -0.120465 0)
(-0.0352567 -0.104254 0)
(-0.0190965 -0.0814616 0)
(-0.00701579 -0.052603 0)
(-0.0011175 -0.0186978 0)
(-0.00119958 0.0224693 0)
(-0.0073105 0.0614917 0)
(-0.0195967 0.0935171 0)
(-0.0358106 0.118046 0)
(-0.054329 0.135056 0)
(-0.0739851 0.144848 0)
(-0.0937771 0.147952 0)
(-0.11289 0.145044 0)
(-0.130702 0.136867 0)
(-0.14676 0.124178 0)
(-0.16074 0.107712 0)
(-0.172417 0.0881603 0)
(-0.181636 0.0661715 0)
(-0.188284 0.0423538 0)
(-0.192272 0.0172924 0)
(-0.193523 -0.00843096 0)
(-0.191963 -0.0342148 0)
(-0.187528 -0.0594146 0)
(-0.180171 -0.0833217 0)
(-0.169884 -0.105149 0)
(-0.156726 -0.124024 0)
(-0.14086 -0.139002 0)
(-0.122598 -0.149086 0)
(-0.102444 -0.153286 0)
(-0.081137 -0.150691 0)
(-0.0596767 -0.140565 0)
(-0.0392995 -0.122467 0)
(-0.0214239 -0.0963531 0)
(-0.00792585 -0.06267 0)
(-0.00127649 -0.0224831 0)
(-0.00133455 0.0263892 0)
(-0.00806032 0.0716919 0)
(-0.0214727 0.108381 0)
(-0.0390018 0.136025 0)
(-0.0587958 0.154762 0)
(-0.0795509 0.165109 0)
(-0.100189 0.167826 0)
(-0.119873 0.16381 0)
(-0.138004 0.154 0)
(-0.154178 0.139312 0)
(-0.168142 0.120601 0)
(-0.179741 0.0986445 0)
(-0.188889 0.0741426 0)
(-0.195529 0.0477313 0)
(-0.199611 0.0200049 0)
(-0.201077 -0.00845641 0)
(-0.199851 -0.0370553 0)
(-0.19584 -0.0651447 0)
(-0.188947 -0.0919978 0)
(-0.179089 -0.116783 0)
(-0.166233 -0.138546 0)
(-0.150442 -0.156215 0)
(-0.131931 -0.168616 0)
(-0.11113 -0.174529 0)
(-0.0887466 -0.17277 0)
(-0.0658183 -0.162312 0)
(-0.0436986 -0.142435 0)
(-0.0240109 -0.112873 0)
(-0.00895884 -0.0739517 0)
(-0.00146226 -0.026766 0)
(-0.00148984 0.0307167 0)
(-0.00889863 0.0828591 0)
(-0.0235205 0.124495 0)
(-0.0423924 0.15529 0)
(-0.0633909 0.175607 0)
(-0.0850621 0.186247 0)
(-0.106259 0.188271 0)
(-0.126147 0.182854 0)
(-0.144178 0.171167 0)
(-0.160035 0.154311 0)
(-0.173561 0.133269 0)
(-0.184703 0.108903 0)
(-0.193465 0.0819552 0)
(-0.199864 0.0530729 0)
(-0.203903 0.0228392 0)
(-0.205554 -0.00819107 0)
(-0.204742 -0.0394503 0)
(-0.201349 -0.0703163 0)
(-0.195217 -0.100071 0)
(-0.186178 -0.12786 0)
(-0.174084 -0.152669 0)
(-0.158866 -0.173302 0)
(-0.1406 -0.188398 0)
(-0.119593 -0.196475 0)
(-0.0964757 -0.196018 0)
(-0.0722843 -0.185624 0)
(-0.0484756 -0.164195 0)
(-0.0268956 -0.13114 0)
(-0.01014 -0.0865839 0)
(-0.00168164 -0.0316182 0)
(-0.001674 0.0355067 0)
(-0.00985902 0.0950889 0)
(-0.0257968 0.14192 0)
(-0.0460324 0.175808 0)
(-0.0681146 0.197433 0)
(-0.0904287 0.207982 0)
(-0.111779 0.208905 0)
(-0.131365 0.20172 0)
(-0.148738 0.18788 0)
(-0.163708 0.168687 0)
(-0.176253 0.145262 0)
(-0.186453 0.118542 0)
(-0.194425 0.0892972 0)
(-0.200279 0.0581651 0)
(-0.204088 0.0256927 0)
(-0.205862 -0.00761814 0)
(-0.205537 -0.04126 0)
(-0.202968 -0.0746679 0)
(-0.19794 -0.107165 0)
(-0.190185 -0.137911 0)
(-0.179422 -0.165853 0)
(-0.165413 -0.189696 0)
(-0.148048 -0.207888 0)
(-0.127451 -0.218656 0)
(-0.104109 -0.220095 0)
(-0.0789982 -0.210325 0)
(-0.0536437 -0.187735 0)
(-0.0301243 -0.151268 0)
(-0.0115033 -0.100722 0)
(-0.00194439 -0.0371269 0)
(-0.00190089 0.0408361 0)
(-0.0109935 0.10851 0)
(-0.0283856 0.160726 0)
(-0.04999 0.197512 0)
(-0.072959 0.220003 0)
(-0.0955153 0.229913 0)
(-0.11645 0.229198 0)
(-0.135058 0.219801 0)
(-0.151044 0.203497 0)
(-0.164399 0.181814 0)
(-0.175283 0.156004 0)
(-0.18394 0.127065 0)
(-0.190624 0.0957736 0)
(-0.195558 0.0627307 0)
(-0.198894 0.0284187 0)
(-0.200693 -0.00674425 0)
(-0.200909 -0.0423445 0)
(-0.199379 -0.077911 0)
(-0.195831 -0.112849 0)
(-0.189895 -0.146372 0)
(-0.18114 -0.177434 0)
(-0.169128 -0.204669 0)
(-0.153511 -0.226355 0)
(-0.134156 -0.240414 0)
(-0.111318 -0.244487 0)
(-0.0858248 -0.236103 0)
(-0.0592037 -0.21297 0)
(-0.0337558 -0.173356 0)
(-0.0130969 -0.116546 0)
(-0.00226529 -0.043402 0)
(-0.00219353 0.0468177 0)
(-0.0123831 0.123301 0)
(-0.031409 0.18099 0)
(-0.0543531 0.220275 0)
(-0.0778917 0.242955 0)
(-0.100105 0.251472 0)
(-0.119842 0.248432 0)
(-0.136573 0.236295 0)
(-0.15024 0.217203 0)
(-0.161081 0.192911 0)
(-0.169482 0.164789 0)
(-0.175881 0.133871 0)
(-0.180693 0.100906 0)
(-0.184262 0.0664278 0)
(-0.186829 0.0308232 0)
(-0.188515 -0.00560618 0)
(-0.1893 -0.0425744 0)
(-0.189016 -0.0797426 0)
(-0.187341 -0.116643 0)
(-0.183811 -0.152593 0)
(-0.177838 -0.18661 0)
(-0.168763 -0.217313 0)
(-0.15595 -0.242848 0)
(-0.138929 -0.260843 0)
(-0.117609 -0.268439 0)
(-0.0925385 -0.262452 0)
(-0.0651341 -0.239692 0)
(-0.0378679 -0.197472 0)
(-0.0149935 -0.134268 0)
(-0.00266802 -0.0505866 0)
(-0.00259108 0.0536216 0)
(-0.014155 0.139707 0)
(-0.0350399 0.202791 0)
(-0.0592191 0.243873 0)
(-0.0828157 0.265745 0)
(-0.103835 0.271855 0)
(-0.121302 0.265641 0)
(-0.13499 0.250173 0)
(-0.145179 0.227981 0)
(-0.152426 0.201035 0)
(-0.15739 0.170787 0)
(-0.160726 0.138262 0)
(-0.163014 0.104143 0)
(-0.164724 0.0688589 0)
(-0.166187 0.0326673 0)
(-0.167585 -0.00427581 0)
(-0.168934 -0.0418437 0)
(-0.170073 -0.0798657 0)
(-0.170653 -0.118045 0)
(-0.170133 -0.155863 0)
(-0.167782 -0.192466 0)
(-0.162716 -0.226539 0)
(-0.153976 -0.256169 0)
(-0.140674 -0.27874 0)
(-0.12224 -0.290884 0)
(-0.0987654 -0.288585 0)
(-0.0713669 -0.267509 0)
(-0.0425623 -0.223623 0)
(-0.0173047 -0.154141 0)
(-0.00319227 -0.0588766 0)
(-0.00316171 0.0615109 0)
(-0.0165088 0.158071 0)
(-0.0395118 0.226179 0)
(-0.0646605 0.267903 0)
(-0.087484 0.287548 0)
(-0.10607 0.289937 0)
(-0.119819 0.279549 0)
(-0.128979 0.260136 0)
(-0.134295 0.234608 0)
(-0.136712 0.205096 0)
(-0.137192 0.173068 0)
(-0.136611 0.139479 0)
(-0.135705 0.104892 0)
(-0.135053 0.0695932 0)
(-0.135063 0.0336802 0)
(-0.135973 -0.00286075 0)
(-0.13784 -0.0400846 0)
(-0.140528 -0.0780169 0)
(-0.143691 -0.116571 0)
(-0.146747 -0.155448 0)
(-0.148862 -0.194005 0)
(-0.148955 -0.231092 0)
(-0.145739 -0.264858 0)
(-0.137847 -0.292549 0)
(-0.124091 -0.310341 0)
(-0.103878 -0.313318 0)
(-0.0777325 -0.295733 0)
(-0.0479631 -0.251697 0)
(-0.0202067 -0.176466 0)
(-0.0039071 -0.0685537 0)
(-0.00402658 0.0709046 0)
(-0.0197567 0.178851 0)
(-0.0451106 0.251101 0)
(-0.0706307 0.291651 0)
(-0.091327 0.307105 0)
(-0.105686 0.304146 0)
(-0.113795 0.288494 0)
(-0.116602 0.264598 0)
(-0.115441 0.235674 0)
(-0.111701 0.203902 0)
(-0.106642 0.170664 0)
(-0.101332 0.13676 0)
(-0.0966213 0.102575 0)
(-0.0931582 0.0682107 0)
(-0.0913983 0.033585 0)
(-0.0916181 -0.00149793 0)
(-0.0939159 -0.0372834 0)
(-0.0981999 -0.074005 0)
(-0.104163 -0.111811 0)
(-0.111241 -0.15067 0)
(-0.118572 -0.190227 0)
(-0.124945 -0.229622 0)
(-0.128797 -0.267227 0)
(-0.128277 -0.300334 0)
(-0.12146 -0.324821 0)
(-0.106807 -0.334909 0)
(-0.0838394 -0.323208 0)
(-0.0541901 -0.281352 0)
(-0.0239751 -0.201598 0)
(-0.00493581 -0.0800446 0)
(-0.00540309 0.0824849 0)
(-0.024375 0.202627 0)
(-0.0521101 0.277235 0)
(-0.0767406 0.313838 0)
(-0.0931153 0.322504 0)
(-0.100695 0.312325 0)
(-0.100696 0.290381 0)
(-0.0950185 0.261715 0)
(-0.0856816 0.229659 0)
(-0.0745064 0.196263 0)
(-0.0629943 0.162678 0)
(-0.0523209 0.129446 0)
(-0.0433737 0.0967126 0)
(-0.0368007 0.0643688 0)
(-0.0330536 0.0321423 0)
(-0.0324175 -0.000337759 0)
(-0.035023 -0.0334939 0)
(-0.040839 -0.0677566 0)
(-0.0496421 -0.10351 0)
(-0.0609636 -0.141011 0)
(-0.074013 -0.180261 0)
(-0.087585 -0.220811 0)
(-0.09997 -0.261452 0)
(-0.108916 -0.299799 0)
(-0.111736 -0.331737 0)
(-0.105705 -0.350848 0)
(-0.0888171 -0.348037 0)
(-0.0612595 -0.311793 0)
(-0.0290266 -0.229902 0)
(-0.0064995 -0.0940253 0)
(-0.00767498 0.0973736 0)
(-0.031042 0.230001 0)
(-0.0605398 0.303623 0)
(-0.0817547 0.332206 0)
(-0.0903263 0.330869 0)
(-0.0876272 0.311589 0)
(-0.0765426 0.282695 0)
(-0.0601212 0.249496 0)
(-0.0410538 0.215106 0)
(-0.0214747 0.181181 0)
(-0.00297143 0.148462 0)
(0.0133175 0.117133 0)
(0.0265938 0.087055 0)
(0.0363047 0.0578958 0)
(0.0420716 0.0292101 0)
(0.0436438 0.000482513 0)
(0.0408753 -0.0288479 0)
(0.0337271 -0.0593678 0)
(0.022295 -0.0916623 0)
(0.00687025 -0.126264 0)
(-0.0119633 -0.163556 0)
(-0.0331897 -0.203593 0)
(-0.0551839 -0.245792 0)
(-0.0755292 -0.28843 0)
(-0.0909269 -0.327887 0)
(-0.0973709 -0.357634 0)
(-0.0907866 -0.367157 0)
(-0.0687936 -0.341343 0)
(-0.0359248 -0.2616 0)
(-0.00898288 -0.111585 0)
(-0.0114627 0.117369 0)
(-0.0405185 0.261248 0)
(-0.0694983 0.327942 0)
(-0.0825034 0.342888 0)
(-0.078002 0.328052 0)
(-0.0605719 0.298331 0)
(-0.0352228 0.262715 0)
(-0.00611964 0.226127 0)
(0.0236232 0.19096 0)
(0.0518561 0.158158 0)
(0.0771745 0.127881 0)
(0.0986915 0.0998863 0)
(0.115856 0.0737372 0)
(0.128324 0.0489056 0)
(0.135865 0.024819 0)
(0.138312 0.000875094 0)
(0.135527 -0.0235595 0)
(0.127401 -0.0491561 0)
(0.113873 -0.0766276 0)
(0.0949834 -0.106717 0)
(0.0709724 -0.140149 0)
(0.0424457 -0.177508 0)
(0.0106179 -0.218984 0)
(-0.0223524 -0.263868 0)
(-0.0529956 -0.309663 0)
(-0.0762894 -0.350644 0)
(-0.0858028 -0.375813 0)
(-0.0752454 -0.366671 0)
(-0.0451755 -0.296297 0)
(-0.0129791 -0.134418 0)
(-0.0174941 0.145287 0)
(-0.0528358 0.295323 0)
(-0.0752782 0.345146 0)
(-0.0716425 0.339587 0)
(-0.0468315 0.3085 0)
(-0.00985483 0.268572 0)
(0.0322483 0.228095 0)
(0.0747572 0.190585 0)
(0.114755 0.157118 0)
(0.150591 0.127645 0)
(0.181417 0.101654 0)
(0.206847 0.078483 0)
(0.226737 0.0574538 0)
(0.241048 0.0379155 0)
(0.249761 0.019247 0)
(0.252832 0.000841286 0)
(0.250158 -0.0179209 0)
(0.241574 -0.0377003 0)
(0.226856 -0.0592302 0)
(0.205756 -0.0833439 0)
(0.178077 -0.110986 0)
(0.143813 -0.143178 0)
(0.103403 -0.180879 0)
(0.0581641 -0.224619 0)
(0.0109206 -0.273665 0)
(-0.0331789 -0.324339 0)
(-0.0658493 -0.366995 0)
(-0.0759659 -0.381493 0)
(-0.056221 -0.331868 0)
(-0.0190697 -0.165088 0)
(-0.02552 0.185745 0)
(-0.0643482 0.327435 0)
(-0.0667843 0.344825 0)
(-0.0333994 0.312444 0)
(0.0197106 0.265477 0)
(0.079429 0.218861 0)
(0.138189 0.177903 0)
(0.192117 0.143552 0)
(0.239527 0.115127 0)
(0.279931 0.0915265 0)
(0.31341 0.0716656 0)
(0.340275 0.0546077 0)
(0.36088 0.0395738 0)
(0.37553 0.0259129 0)
(0.384434 0.0130609 0)
(0.387679 0.000499109 0)
(0.385217 -0.0122852 0)
(0.376851 -0.025841 0)
(0.362232 -0.0407988 0)
(0.340855 -0.0579237 0)
(0.312083 -0.0781762 0)
(0.275215 -0.10277 0)
(0.229656 -0.133194 0)
(0.175283 -0.171102 0)
(0.113184 -0.217831 0)
(0.0469482 -0.272958 0)
(-0.0153639 -0.330899 0)
(-0.0589316 -0.374342 0)
(-0.0642641 -0.361981 0)
(-0.0265079 -0.207648 0)
(-0.0292738 0.242679 0)
(-0.0589155 0.342204 0)
(-0.0156003 0.307735 0)
(0.0635023 0.248448 0)
(0.14881 0.193337 0)
(0.228268 0.148806 0)
(0.297704 0.114682 0)
(0.356285 0.0888373 0)
(0.404683 0.0690608 0)
(0.444054 0.0536081 0)
(0.475554 0.0412065 0)
(0.500171 0.0309428 0)
(0.518682 0.0221531 0)
(0.531655 0.0143364 0)
(0.539462 0.00709174 0)
(0.542288 7.06201e-05 0)
(0.540134 -0.00706174 0)
(0.532813 -0.0146637 0)
(0.519927 -0.0231582 0)
(0.500836 -0.0330874 0)
(0.47462 -0.0451885 0)
(0.440039 -0.060504 0)
(0.395521 -0.0805334 0)
(0.339278 -0.107412 0)
(0.269764 -0.143987 0)
(0.186853 -0.193306 0)
(0.094074 -0.25638 0)
(0.00370269 -0.326221 0)
(-0.0517501 -0.36928 0)
(-0.0277754 -0.264038 0)
(0.0101387 0.283651 0)
(0.0234794 0.29767 0)
(0.145327 0.213174 0)
(0.274736 0.145596 0)
(0.379441 0.100094 0)
(0.461403 0.0700832 0)
(0.525388 0.0502936 0)
(0.575197 0.0369681 0)
(0.613989 0.0276583 0)
(0.644204 0.0208683 0)
(0.667607 0.0156938 0)
(0.685447 0.0115737 0)
(0.698598 0.00814526 0)
(0.707656 0.00515919 0)
(0.712998 0.0024303 0)
(0.714817 -0.000194128 0)
(0.713143 -0.00285669 0)
(0.707835 -0.00570964 0)
(0.698563 -0.00893732 0)
(0.684764 -0.0127879 0)
(0.665566 -0.0176246 0)
(0.639668 -0.0240153 0)
(0.605162 -0.0328935 0)
(0.559288 -0.045849 0)
(0.498258 -0.0656017 0)
(0.417264 -0.0965865 0)
(0.310209 -0.145306 0)
(0.173463 -0.219257 0)
(0.0400939 -0.310928 0)
(0.0175809 -0.29663 0)
(0.301457 0.146169 0)
(0.399416 0.127356 0)
(0.561211 0.0756421 0)
(0.678927 0.0433611 0)
(0.749279 0.0255627 0)
(0.794235 0.0156794 0)
(0.825166 0.0100956 0)
(0.84725 0.00682742 0)
(0.863436 0.00480217 0)
(0.875519 0.00345997 0)
(0.884594 0.00250865 0)
(0.891343 0.00179044 0)
(0.896208 0.00121517 0)
(0.899472 0.000727236 0)
(0.901309 0.000288773 0)
(0.90181 -0.000129506 0)
(0.900992 -0.000554148 0)
(0.898799 -0.00101327 0)
(0.89509 -0.00154209 0)
(0.88962 -0.00219093 0)
(0.881987 -0.00303987 0)
(0.871553 -0.0042283 0)
(0.857281 -0.00601713 0)
(0.837419 -0.00892172 0)
(0.808984 -0.0139827 0)
(0.76663 -0.0232704 0)
(0.698618 -0.0407904 0)
(0.580944 -0.073851 0)
(0.413264 -0.128035 0)
(0.307736 -0.148563 0)
)
;

boundaryField
{
    movingWall
    {
        type            fixedValue;
        value           uniform (1 0 0);
    }
    fixedWalls
    {
        type            noSlip;
    }
    frontAndBack
    {
        type            empty;
    }
}


// ************************************************************************* //
