/*--------------------------------*- C++ -*----------------------------------*\
  =========                 |
  \\      /  F ield         | OpenFOAM: The Open Source CFD Toolbox
   \\    /   O peration     | Website:  https://openfoam.org
    \\  /    A nd           | Version:  9
     \\/     M anipulation  |
\*---------------------------------------------------------------------------*/
FoamFile
{
    format      ascii;
    class       volScalarField;
    location    "1800";
    object      k;
}
// * * * * * * * * * * * * * * * * * * * * * * * * * * * * * * * * * * * * * //

dimensions      [0 2 -2 0 0 0 0];

internalField   nonuniform List<scalar> 
4000
(
2.8771e-05
2.17689e-05
1.24685e-05
6.18402e-06
5.18364e-06
4.59751e-06
3.61343e-06
2.87001e-06
2.71519e-06
2.75809e-06
2.80143e-06
2.79777e-06
2.95744e-06
3.61097e-06
4.52982e-06
5.09619e-06
6.36328e-06
1.35879e-05
2.34243e-05
3.01218e-05
3.66611e-05
3.33389e-05
2.85283e-05
2.475e-05
2.02915e-05
1.52864e-05
6.89381e-06
4.59671e-06
4.4104e-06
4.69828e-06
4.74099e-06
4.54152e-06
4.79085e-06
7.01854e-06
1.52045e-05
1.97582e-05
2.38e-05
2.75833e-05
3.36258e-05
3.73185e-05
4.0369e-05
3.79436e-05
3.37987e-05
2.8881e-05
2.35506e-05
1.84533e-05
1.3427e-05
7.69492e-06
5.25952e-06
5.87715e-06
5.82848e-06
5.15519e-06
8.88955e-06
1.40993e-05
1.92148e-05
2.42586e-05
2.93786e-05
3.40722e-05
3.83787e-05
4.09749e-05
4.23767e-05
4.09515e-05
3.6986e-05
3.15013e-05
2.50433e-05
1.93011e-05
1.48054e-05
1.10317e-05
8.87638e-06
8.28549e-06
7.92681e-06
8.65196e-06
1.15079e-05
1.51951e-05
1.97154e-05
2.54796e-05
3.17745e-05
3.72197e-05
4.13902e-05
4.29782e-05
4.37235e-05
4.35718e-05
4.10934e-05
3.75723e-05
3.37622e-05
3.04012e-05
2.77251e-05
2.56322e-05
2.41037e-05
2.28463e-05
2.2509e-05
2.35643e-05
2.51463e-05
2.73518e-05
3.01534e-05
3.3656e-05
3.76009e-05
4.13035e-05
4.4007e-05
4.43196e-05
4.48534e-05
4.6174e-05
4.58845e-05
4.4842e-05
4.3461e-05
4.19211e-05
4.03802e-05
3.88072e-05
3.71976e-05
3.55375e-05
3.5052e-05
3.64925e-05
3.81316e-05
3.98323e-05
4.1541e-05
4.32586e-05
4.48245e-05
4.60746e-05
4.65798e-05
4.54357e-05
4.6033e-05
4.89211e-05
5.06473e-05
5.16081e-05
5.20597e-05
5.19691e-05
5.13289e-05
5.01795e-05
4.84838e-05
4.63336e-05
4.58227e-05
4.77845e-05
4.95158e-05
5.08026e-05
5.16186e-05
5.18972e-05
5.1632e-05
5.08579e-05
4.93169e-05
4.65998e-05
4.74272e-05
5.19396e-05
5.551e-05
5.81295e-05
6.00653e-05
6.1242e-05
6.15591e-05
6.09028e-05
5.91207e-05
5.63548e-05
5.58269e-05
5.84483e-05
6.02961e-05
6.11132e-05
6.0986e-05
6.00024e-05
5.82414e-05
5.57725e-05
5.23449e-05
4.79812e-05
4.93329e-05
5.58585e-05
6.127e-05
6.54747e-05
6.87804e-05
7.11565e-05
7.2485e-05
7.24872e-05
7.07855e-05
6.7349e-05
6.67838e-05
7.01913e-05
7.20208e-05
7.22169e-05
7.10892e-05
6.88948e-05
6.57284e-05
6.16262e-05
5.62994e-05
4.98793e-05
5.21823e-05
6.09191e-05
6.8475e-05
7.44051e-05
7.92638e-05
8.31082e-05
8.57962e-05
8.70543e-05
8.6413e-05
8.34009e-05
8.2885e-05
8.60719e-05
8.68789e-05
8.57938e-05
8.32481e-05
7.95199e-05
7.47526e-05
6.8882e-05
6.13718e-05
5.27243e-05
2.17689e-05
1.91779e-05
1.16727e-05
8.93882e-06
8.43961e-06
8.38604e-06
6.81331e-06
4.56767e-06
3.76223e-06
3.72127e-06
3.76967e-06
3.88797e-06
4.539e-06
6.71749e-06
8.31917e-06
8.6927e-06
8.77267e-06
1.23517e-05
2.08493e-05
2.37248e-05
3.33389e-05
4.59069e-05
4.02284e-05
3.40514e-05
2.97035e-05
2.41686e-05
1.54462e-05
9.28007e-06
7.15051e-06
7.22919e-06
7.30941e-06
7.56919e-06
9.50122e-06
1.63697e-05
2.44625e-05
2.91164e-05
3.29878e-05
3.87698e-05
4.52812e-05
3.3739e-05
3.79436e-05
4.68441e-05
4.24442e-05
3.55448e-05
2.89808e-05
2.37134e-05
1.88411e-05
1.37448e-05
9.80549e-06
8.97263e-06
9.11984e-06
1.07373e-05
1.46533e-05
1.98589e-05
2.49047e-05
3.03332e-05
3.72978e-05
4.47195e-05
4.9471e-05
3.8467e-05
4.09515e-05
4.5206e-05
4.28078e-05
3.65705e-05
2.8259e-05
2.23308e-05
1.76518e-05
1.34046e-05
1.06944e-05
1.13551e-05
1.0811e-05
1.08513e-05
1.40898e-05
1.8434e-05
2.30834e-05
2.88567e-05
3.68083e-05
4.32766e-05
4.61629e-05
4.14742e-05
4.35718e-05
4.8167e-05
4.76409e-05
4.3115e-05
3.46612e-05
2.73268e-05
2.24203e-05
1.85695e-05
1.64572e-05
1.64755e-05
1.60705e-05
1.63899e-05
1.89304e-05
2.28455e-05
2.7632e-05
3.47886e-05
4.29408e-05
4.78348e-05
4.87753e-05
4.41104e-05
4.6174e-05
5.15318e-05
5.23075e-05
5.04335e-05
4.49299e-05
3.66379e-05
3.1162e-05
2.71146e-05
2.48316e-05
2.3977e-05
2.36385e-05
2.45792e-05
2.7055e-05
3.11426e-05
3.65972e-05
4.45765e-05
5.02485e-05
5.26235e-05
5.21491e-05
4.67313e-05
4.89211e-05
5.4675e-05
5.5775e-05
5.59915e-05
5.53341e-05
5.17153e-05
4.45714e-05
3.81131e-05
3.40513e-05
3.20003e-05
3.16768e-05
3.35137e-05
3.73576e-05
4.38915e-05
5.11167e-05
5.49119e-05
5.60427e-05
5.6301e-05
5.53859e-05
4.95163e-05
5.19396e-05
5.85268e-05
5.99586e-05
6.17662e-05
6.46816e-05
6.62137e-05
6.56059e-05
6.33189e-05
5.90197e-05
5.34571e-05
5.25937e-05
5.73811e-05
6.18669e-05
6.45542e-05
6.56303e-05
6.46346e-05
6.22173e-05
6.07375e-05
5.93335e-05
5.25751e-05
5.58585e-05
6.48973e-05
6.95891e-05
7.3327e-05
7.70047e-05
7.99493e-05
8.15805e-05
8.07622e-05
7.61383e-05
6.78859e-05
6.68697e-05
7.48469e-05
7.98129e-05
8.12136e-05
8.01436e-05
7.76953e-05
7.42958e-05
7.06435e-05
6.57755e-05
5.65293e-05
6.09191e-05
7.06737e-05
7.94091e-05
8.67384e-05
9.33065e-05
9.90501e-05
0.000103538
0.000106127
0.000105929
0.000102322
0.000101726
0.000105572
0.000106048
0.00010375
9.94887e-05
9.39204e-05
8.74625e-05
8.01539e-05
7.13812e-05
6.15912e-05
1.24685e-05
1.16727e-05
1.08132e-05
1.06937e-05
1.07628e-05
1.05194e-05
8.4096e-06
6.12405e-06
4.86147e-06
4.48561e-06
4.47564e-06
4.78435e-06
5.95724e-06
8.48614e-06
1.06762e-05
1.11566e-05
1.10195e-05
1.03837e-05
1.28345e-05
1.44963e-05
2.85283e-05
4.02284e-05
3.87443e-05
3.54263e-05
3.21926e-05
2.66221e-05
1.78502e-05
1.18862e-05
9.41109e-06
8.8918e-06
8.9613e-06
9.75805e-06
1.2596e-05
1.91564e-05
2.74072e-05
3.19654e-05
3.4603e-05
3.75576e-05
3.87857e-05
2.76746e-05
3.37987e-05
4.24442e-05
4.07188e-05
3.56975e-05
3.07015e-05
2.62132e-05
2.18288e-05
1.69215e-05
1.2855e-05
1.09835e-05
1.12452e-05
1.36437e-05
1.79631e-05
2.30488e-05
2.76785e-05
3.2268e-05
3.76232e-05
4.29919e-05
4.49182e-05
3.4212e-05
3.6986e-05
4.28078e-05
4.11221e-05
3.57055e-05
2.91129e-05
2.42194e-05
2.01923e-05
1.64503e-05
1.39696e-05
1.23711e-05
1.24736e-05
1.39489e-05
1.69956e-05
2.10287e-05
2.51141e-05
2.9828e-05
3.61329e-05
4.15732e-05
4.34634e-05
3.73783e-05
4.10934e-05
4.76409e-05
4.58867e-05
4.05686e-05
3.22537e-05
2.54894e-05
2.08551e-05
1.70583e-05
1.43875e-05
1.33971e-05
1.33287e-05
1.46675e-05
1.77034e-05
2.15612e-05
2.60942e-05
3.26679e-05
4.06761e-05
4.61211e-05
4.80116e-05
4.14971e-05
4.58845e-05
5.23075e-05
5.03727e-05
4.54773e-05
3.74861e-05
2.92092e-05
2.36889e-05
1.95069e-05
1.67115e-05
1.58373e-05
1.57922e-05
1.70056e-05
2.0069e-05
2.42439e-05
2.96452e-05
3.77571e-05
4.5726e-05
5.08762e-05
5.28235e-05
4.63318e-05
5.06473e-05
5.5775e-05
5.36568e-05
4.82408e-05
4.18667e-05
3.49254e-05
2.89735e-05
2.4297e-05
2.12284e-05
1.99119e-05
1.99156e-05
2.1414e-05
2.46e-05
2.93666e-05
3.52941e-05
4.22476e-05
4.8929e-05
5.46427e-05
5.65949e-05
5.11921e-05
5.551e-05
5.99586e-05
5.93418e-05
5.33739e-05
4.75485e-05
4.41169e-05
4.05178e-05
3.69863e-05
3.32737e-05
2.98652e-05
2.9743e-05
3.32705e-05
3.72795e-05
4.11353e-05
4.48901e-05
4.84806e-05
5.49315e-05
6.09265e-05
6.11037e-05
5.61627e-05
6.127e-05
6.95891e-05
7.84384e-05
8.6742e-05
9.22573e-05
9.57381e-05
9.87389e-05
9.83905e-05
9.06733e-05
7.62261e-05
7.49563e-05
8.92523e-05
9.79682e-05
9.96208e-05
9.76408e-05
9.4843e-05
8.92459e-05
8.06127e-05
7.0984e-05
6.20243e-05
6.8475e-05
7.94091e-05
8.90673e-05
9.74532e-05
0.000105431
0.000112927
0.000119253
0.00012332
0.000123717
0.000119363
0.000118676
0.000123368
0.000123375
0.000119716
0.00011369
0.000106421
9.85437e-05
9.00989e-05
8.02956e-05
6.92182e-05
6.18402e-06
8.93882e-06
1.06937e-05
1.14614e-05
1.19727e-05
1.14396e-05
9.2649e-06
7.14316e-06
5.78223e-06
5.25776e-06
5.20642e-06
5.627e-06
6.91894e-06
9.25932e-06
1.16913e-05
1.24585e-05
1.19865e-05
1.10166e-05
8.80985e-06
6.39973e-06
2.475e-05
3.40514e-05
3.54263e-05
3.43258e-05
3.15283e-05
2.55632e-05
1.75796e-05
1.2796e-05
1.08391e-05
1.06914e-05
1.07212e-05
1.11928e-05
1.35102e-05
1.89848e-05
2.6961e-05
3.18831e-05
3.39534e-05
3.45837e-05
3.29941e-05
2.39234e-05
2.8881e-05
3.55448e-05
3.56975e-05
3.31938e-05
3.0119e-05
2.66816e-05
2.28864e-05
1.79429e-05
1.41159e-05
1.27174e-05
1.28719e-05
1.48683e-05
1.91695e-05
2.42798e-05
2.82888e-05
3.17757e-05
3.5017e-05
3.77518e-05
3.75698e-05
2.95578e-05
3.15013e-05
3.65705e-05
3.57055e-05
3.2206e-05
2.81731e-05
2.47244e-05
2.15257e-05
1.83961e-05
1.59747e-05
1.39037e-05
1.39771e-05
1.5939e-05
1.88129e-05
2.23448e-05
2.57173e-05
2.91044e-05
3.29676e-05
3.64005e-05
3.72028e-05
3.19747e-05
3.75723e-05
4.3115e-05
4.05686e-05
3.57679e-05
2.97704e-05
2.48515e-05
2.11793e-05
1.8033e-05
1.55557e-05
1.35732e-05
1.37331e-05
1.57453e-05
1.85678e-05
2.18683e-05
2.55692e-05
3.04436e-05
3.63032e-05
4.10388e-05
4.34136e-05
3.78452e-05
4.4842e-05
5.04335e-05
4.54773e-05
3.97285e-05
3.28204e-05
2.65558e-05
2.20126e-05
1.82926e-05
1.5232e-05
1.32629e-05
1.34877e-05
1.57234e-05
1.89772e-05
2.27059e-05
2.72061e-05
3.34752e-05
4.04139e-05
4.61258e-05
5.07694e-05
4.51666e-05
5.16081e-05
5.59915e-05
4.82408e-05
4.16167e-05
3.52912e-05
2.94629e-05
2.48766e-05
2.11062e-05
1.81018e-05
1.64319e-05
1.66114e-05
1.86792e-05
2.18756e-05
2.56498e-05
3.02103e-05
3.61498e-05
4.27153e-05
4.9421e-05
5.66481e-05
5.20846e-05
5.81295e-05
6.17662e-05
5.33739e-05
4.68289e-05
4.36247e-05
4.11986e-05
3.94342e-05
3.75531e-05
3.43617e-05
3.02133e-05
3.00451e-05
3.47358e-05
3.84893e-05
4.06975e-05
4.26243e-05
4.5264e-05
4.89221e-05
5.58282e-05
6.29527e-05
5.87719e-05
6.54747e-05
7.3327e-05
8.6742e-05
9.78168e-05
0.000106641
0.000116704
0.000126909
0.000131784
0.000125159
0.000107521
0.000106175
0.000124842
0.000132919
0.0001292
0.000119989
0.000110537
0.000102348
8.99023e-05
7.50592e-05
6.62791e-05
7.44051e-05
8.67384e-05
9.74532e-05
0.000106993
0.000116751
0.000126495
0.000135212
0.000141296
0.00014297
0.000139113
0.000138422
0.000142698
0.000141493
0.000135858
0.000127525
0.000118045
0.000108374
9.86779e-05
8.77277e-05
7.51876e-05
5.18364e-06
8.43961e-06
1.07628e-05
1.19727e-05
1.23218e-05
1.13909e-05
9.48206e-06
7.73153e-06
6.48076e-06
5.99928e-06
5.96319e-06
6.31281e-06
7.50374e-06
9.42108e-06
1.16077e-05
1.26792e-05
1.24784e-05
1.11584e-05
8.6532e-06
5.14134e-06
2.02915e-05
2.97035e-05
3.21926e-05
3.15283e-05
2.81117e-05
2.21176e-05
1.62753e-05
1.2921e-05
1.15497e-05
1.23233e-05
1.23816e-05
1.18529e-05
1.35357e-05
1.74959e-05
2.38793e-05
2.92615e-05
3.18464e-05
3.19456e-05
2.91787e-05
1.99537e-05
2.35506e-05
2.89808e-05
3.07015e-05
3.0119e-05
2.83804e-05
2.58617e-05
2.2139e-05
1.73899e-05
1.43225e-05
1.40952e-05
1.40754e-05
1.49621e-05
1.85954e-05
2.35598e-05
2.74315e-05
3.00869e-05
3.18011e-05
3.23861e-05
3.05478e-05
2.44033e-05
2.50433e-05
2.8259e-05
2.91129e-05
2.81731e-05
2.63025e-05
2.41303e-05
2.16465e-05
1.90249e-05
1.66556e-05
1.54695e-05
1.53265e-05
1.66948e-05
1.93795e-05
2.23851e-05
2.51481e-05
2.73979e-05
2.92153e-05
3.01045e-05
2.91484e-05
2.55997e-05
3.37622e-05
3.46612e-05
3.22537e-05
2.97704e-05
2.66752e-05
2.37581e-05
2.11684e-05
1.87846e-05
1.70154e-05
1.60935e-05
1.57608e-05
1.69668e-05
1.91687e-05
2.17727e-05
2.45064e-05
2.75077e-05
3.06478e-05
3.31354e-05
3.52914e-05
3.38752e-05
4.3461e-05
4.49299e-05
3.74861e-05
3.28204e-05
2.85322e-05
2.4626e-05
2.13789e-05
1.85276e-05
1.62921e-05
1.52844e-05
1.51487e-05
1.65794e-05
1.91261e-05
2.20528e-05
2.53576e-05
2.93832e-05
3.38228e-05
3.84865e-05
4.53888e-05
4.36691e-05
5.20597e-05
5.53341e-05
4.18667e-05
3.52912e-05
3.08193e-05
2.69985e-05
2.37943e-05
2.10663e-05
1.90607e-05
1.88731e-05
1.89224e-05
1.96751e-05
2.19395e-05
2.46782e-05
2.79045e-05
3.18837e-05
3.65825e-05
4.3138e-05
5.59151e-05
5.24732e-05
6.00653e-05
6.46816e-05
4.75485e-05
4.36247e-05
4.26374e-05
4.21337e-05
4.20602e-05
4.16291e-05
3.92448e-05
3.54754e-05
3.54042e-05
3.98966e-05
4.29233e-05
4.36732e-05
4.38747e-05
4.45423e-05
4.57265e-05
4.95709e-05
6.58735e-05
6.06799e-05
6.87804e-05
7.70047e-05
9.22573e-05
0.000106641
0.000125763
0.000144364
0.000160646
0.000169232
0.000159621
0.000132829
0.000131817
0.000159946
0.000171289
0.000164159
0.00014834
0.000130146
0.000111069
9.61064e-05
7.88321e-05
6.95972e-05
7.92638e-05
9.33065e-05
0.000105431
0.000116751
0.000129285
0.000141712
0.000152858
0.000161096
0.000164322
0.000161279
0.000160566
0.000164043
0.000161317
0.000153562
0.000142784
0.000130614
0.000118178
0.000106689
9.43128e-05
8.00601e-05
4.59751e-06
8.38604e-06
1.05194e-05
1.14396e-05
1.13909e-05
1.05322e-05
9.29145e-06
8.06488e-06
7.0953e-06
6.78201e-06
6.77212e-06
6.92996e-06
7.82075e-06
9.14851e-06
1.06147e-05
1.16288e-05
1.17207e-05
1.07328e-05
8.31506e-06
4.40102e-06
1.52864e-05
2.41686e-05
2.66221e-05
2.55632e-05
2.21176e-05
1.80381e-05
1.48873e-05
1.28319e-05
1.2192e-05
1.37783e-05
1.38217e-05
1.23749e-05
1.32064e-05
1.56719e-05
1.94545e-05
2.38108e-05
2.68742e-05
2.74078e-05
2.46368e-05
1.55487e-05
1.84533e-05
2.37134e-05
2.62132e-05
2.66816e-05
2.58617e-05
2.36483e-05
1.9939e-05
1.61528e-05
1.42235e-05
1.4965e-05
1.47864e-05
1.4633e-05
1.70821e-05
2.12054e-05
2.50945e-05
2.74226e-05
2.83031e-05
2.77566e-05
2.50492e-05
1.92655e-05
1.93011e-05
2.23308e-05
2.42194e-05
2.47244e-05
2.41303e-05
2.27523e-05
2.08422e-05
1.84922e-05
1.6441e-05
1.6241e-05
1.58863e-05
1.65051e-05
1.88202e-05
2.14211e-05
2.3652e-05
2.52012e-05
2.58292e-05
2.52659e-05
2.31497e-05
1.96054e-05
3.04012e-05
2.73268e-05
2.54894e-05
2.48515e-05
2.37581e-05
2.22343e-05
2.04989e-05
1.87825e-05
1.7725e-05
1.76461e-05
1.7118e-05
1.75385e-05
1.90579e-05
2.09857e-05
2.29004e-05
2.45428e-05
2.56906e-05
2.62798e-05
2.77716e-05
3.02929e-05
4.19211e-05
3.66379e-05
2.92092e-05
2.65558e-05
2.4626e-05
2.25497e-05
2.04408e-05
1.85013e-05
1.74074e-05
1.80381e-05
1.75587e-05
1.74706e-05
1.89704e-05
2.10209e-05
2.32229e-05
2.5415e-05
2.74576e-05
3.00902e-05
3.7086e-05
4.20023e-05
5.19691e-05
5.17152e-05
3.49254e-05
2.94629e-05
2.69985e-05
2.49257e-05
2.29556e-05
2.13263e-05
2.07617e-05
2.3077e-05
2.2906e-05
2.12798e-05
2.21638e-05
2.38208e-05
2.58217e-05
2.80078e-05
3.06431e-05
3.61669e-05
5.24453e-05
5.23213e-05
6.1242e-05
6.62137e-05
4.41169e-05
4.11986e-05
4.21337e-05
4.37522e-05
4.54285e-05
4.60841e-05
4.3628e-05
3.96168e-05
3.95757e-05
4.43532e-05
4.7476e-05
4.71363e-05
4.55412e-05
4.39532e-05
4.30677e-05
4.60741e-05
6.73975e-05
6.18255e-05
7.11565e-05
7.99493e-05
9.57381e-05
0.000116704
0.000144364
0.000171896
0.000194195
0.000203835
0.000185108
0.000141863
0.000140794
0.000185324
0.000206014
0.000197904
0.00017613
0.000148641
0.000120525
9.91703e-05
8.15786e-05
7.19483e-05
8.31082e-05
9.90501e-05
0.000112927
0.000126495
0.000141712
0.000156861
0.000170662
0.000181396
0.000186819
0.000185726
0.000184901
0.000186394
0.000181488
0.000171258
0.000157841
0.000142933
0.000127793
0.000114109
0.000100035
8.39142e-05
3.61343e-06
6.81331e-06
8.4096e-06
9.2649e-06
9.48206e-06
9.29145e-06
8.82134e-06
8.21772e-06
7.7058e-06
7.80705e-06
7.8459e-06
7.54693e-06
7.93478e-06
8.56432e-06
9.15516e-06
9.47431e-06
9.34468e-06
8.47443e-06
6.59544e-06
3.49782e-06
6.89381e-06
1.54462e-05
1.78502e-05
1.75796e-05
1.62753e-05
1.48873e-05
1.36553e-05
1.27594e-05
1.31202e-05
1.63921e-05
1.64822e-05
1.31627e-05
1.28052e-05
1.38965e-05
1.54974e-05
1.72606e-05
1.87674e-05
1.89994e-05
1.63253e-05
7.16392e-06
1.3427e-05
1.88411e-05
2.18288e-05
2.28864e-05
2.2139e-05
1.9939e-05
1.71907e-05
1.49716e-05
1.43702e-05
1.66185e-05
1.63272e-05
1.44812e-05
1.54588e-05
1.8032e-05
2.11338e-05
2.35048e-05
2.42262e-05
2.29902e-05
1.97678e-05
1.37838e-05
1.48054e-05
1.76518e-05
2.01923e-05
2.15257e-05
2.16465e-05
2.08422e-05
1.92926e-05
1.7225e-05
1.61167e-05
1.7733e-05
1.71599e-05
1.60486e-05
1.74653e-05
1.96615e-05
2.14326e-05
2.2441e-05
2.24071e-05
2.10119e-05
1.82194e-05
1.47138e-05
2.77251e-05
2.24203e-05
2.08551e-05
2.11793e-05
2.11684e-05
2.04989e-05
1.93788e-05
1.81976e-05
1.7866e-05
1.9675e-05
1.88933e-05
1.75804e-05
1.83844e-05
1.97147e-05
2.097e-05
2.17468e-05
2.18088e-05
2.14387e-05
2.27072e-05
2.74519e-05
4.03802e-05
3.1162e-05
2.36889e-05
2.20126e-05
2.13789e-05
2.04408e-05
1.91938e-05
1.80446e-05
1.81312e-05
2.14349e-05
2.06713e-05
1.80443e-05
1.83898e-05
1.96356e-05
2.09591e-05
2.19841e-05
2.26944e-05
2.43615e-05
3.14979e-05
4.03606e-05
5.13289e-05
4.45714e-05
2.89735e-05
2.48766e-05
2.37943e-05
2.29556e-05
2.20261e-05
2.14345e-05
2.24155e-05
2.83367e-05
2.79358e-05
2.27997e-05
2.2161e-05
2.27768e-05
2.37168e-05
2.46157e-05
2.58153e-05
3.00014e-05
4.51792e-05
5.16271e-05
6.15591e-05
6.56059e-05
4.05178e-05
3.94342e-05
4.20602e-05
4.54285e-05
4.84795e-05
4.92256e-05
4.53165e-05
4.22565e-05
4.21644e-05
4.58433e-05
5.04035e-05
5.00087e-05
4.70244e-05
4.35911e-05
4.09332e-05
4.23237e-05
6.67215e-05
6.2123e-05
7.2485e-05
8.15805e-05
9.87388e-05
0.000126909
0.000160646
0.000194195
0.000221705
0.00022783
0.000189555
0.000138847
0.000137848
0.000188329
0.000228988
0.000224925
0.000198247
0.000164627
0.000130004
0.000101627
8.30161e-05
7.32563e-05
8.57962e-05
0.000103538
0.000119253
0.000135212
0.000152858
0.000170662
0.00018744
0.000201424
0.000210873
0.000215975
0.000215005
0.000210199
0.000201254
0.000187813
0.000171462
0.000153915
0.000136344
0.000120375
0.000104509
8.66151e-05
2.87001e-06
4.56767e-06
6.12405e-06
7.14316e-06
7.73153e-06
8.06488e-06
8.21772e-06
8.26722e-06
8.37757e-06
8.99869e-06
9.07083e-06
8.23674e-06
7.9601e-06
7.87676e-06
7.7618e-06
7.47687e-06
6.91611e-06
5.87559e-06
4.19305e-06
2.73754e-06
4.59671e-06
9.28007e-06
1.18862e-05
1.2796e-05
1.2921e-05
1.28319e-05
1.27594e-05
1.30785e-05
1.45962e-05
1.77962e-05
1.78865e-05
1.45563e-05
1.28362e-05
1.25276e-05
1.27544e-05
1.29866e-05
1.29013e-05
1.19689e-05
8.84611e-06
4.32263e-06
7.69492e-06
1.37448e-05
1.69215e-05
1.79429e-05
1.73899e-05
1.61528e-05
1.49716e-05
1.43976e-05
1.51353e-05
2.02746e-05
2.01696e-05
1.5046e-05
1.44182e-05
1.52536e-05
1.67858e-05
1.83119e-05
1.89401e-05
1.77489e-05
1.4367e-05
8.03088e-06
1.10317e-05
1.34046e-05
1.64503e-05
1.83961e-05
1.90249e-05
1.84922e-05
1.7225e-05
1.60751e-05
1.67275e-05
2.64435e-05
2.5928e-05
1.6538e-05
1.61195e-05
1.7403e-05
1.87885e-05
1.93943e-05
1.88005e-05
1.6841e-05
1.36393e-05
1.0582e-05
2.56322e-05
1.85695e-05
1.70583e-05
1.8033e-05
1.87846e-05
1.87825e-05
1.81976e-05
1.75898e-05
1.90923e-05
3.70137e-05
3.60013e-05
1.87705e-05
1.76304e-05
1.8355e-05
1.90075e-05
1.90765e-05
1.8379e-05
1.74161e-05
1.871e-05
2.52659e-05
3.88072e-05
2.71146e-05
1.95069e-05
1.82926e-05
1.85276e-05
1.85013e-05
1.80446e-05
1.77586e-05
2.0609e-05
4.78124e-05
4.66169e-05
2.047e-05
1.79633e-05
1.83088e-05
1.88181e-05
1.89286e-05
1.87908e-05
2.00238e-05
2.73195e-05
3.87251e-05
5.01795e-05
3.81131e-05
2.4297e-05
2.11062e-05
2.10663e-05
2.13263e-05
2.14345e-05
2.20406e-05
2.68434e-05
6.08294e-05
6.03131e-05
2.71e-05
2.25822e-05
2.19752e-05
2.18693e-05
2.16723e-05
2.18515e-05
2.51371e-05
3.85505e-05
5.04413e-05
6.09028e-05
6.33189e-05
3.69863e-05
3.75531e-05
4.16291e-05
4.60841e-05
4.92256e-05
4.83055e-05
4.5005e-05
6.82802e-05
6.85351e-05
4.53159e-05
4.89546e-05
5.02579e-05
4.72625e-05
4.27746e-05
3.8728e-05
3.86066e-05
6.42856e-05
6.14575e-05
7.24872e-05
8.07622e-05
9.83905e-05
0.000131784
0.000169232
0.000203835
0.00022783
0.000215157
0.000167246
0.000181341
0.00018213
0.000166295
0.000213671
0.000229423
0.000207146
0.000172655
0.000134501
0.000101006
8.21103e-05
7.32548e-05
8.70543e-05
0.000106127
0.00012332
0.000141296
0.000161096
0.000181396
0.000201424
0.000220195
0.000238765
0.000260537
0.000259399
0.000237974
0.000219753
0.000201522
0.000181972
0.000161972
0.000142298
0.000124369
0.000107073
8.78736e-05
2.71519e-06
3.76223e-06
4.86147e-06
5.78223e-06
6.48076e-06
7.0953e-06
7.7058e-06
8.37757e-06
9.02854e-06
1.00237e-05
1.00373e-05
8.89312e-06
8.09872e-06
7.37346e-06
6.76648e-06
6.16951e-06
5.4855e-06
4.53692e-06
3.52426e-06
2.57449e-06
4.4104e-06
7.15051e-06
9.41109e-06
1.08391e-05
1.15497e-05
1.2192e-05
1.31202e-05
1.45962e-05
1.60608e-05
4.51906e-05
4.64758e-05
1.59775e-05
1.42352e-05
1.26692e-05
1.1805e-05
1.12395e-05
1.05561e-05
9.0521e-06
6.95369e-06
4.27735e-06
5.25951e-06
9.80549e-06
1.2855e-05
1.41159e-05
1.43225e-05
1.42235e-05
1.43702e-05
1.51353e-05
2.10833e-05
0.000103784
0.0001066
2.12841e-05
1.49055e-05
1.42536e-05
1.43328e-05
1.46378e-05
1.45541e-05
1.32679e-05
1.00876e-05
5.11633e-06
8.87638e-06
1.06944e-05
1.39696e-05
1.59747e-05
1.66556e-05
1.6441e-05
1.61167e-05
1.67275e-05
3.06009e-05
0.000170297
0.000173946
3.12796e-05
1.65799e-05
1.60708e-05
1.65365e-05
1.68033e-05
1.60673e-05
1.3964e-05
1.06363e-05
8.22854e-06
2.41037e-05
1.64572e-05
1.43875e-05
1.55557e-05
1.70154e-05
1.7725e-05
1.7866e-05
1.90922e-05
4.52992e-05
0.000251566
0.000256136
4.63508e-05
1.89397e-05
1.77058e-05
1.76299e-05
1.70009e-05
1.56503e-05
1.45097e-05
1.63868e-05
2.37636e-05
3.71976e-05
2.48316e-05
1.67115e-05
1.5232e-05
1.62921e-05
1.74074e-05
1.81312e-05
2.0609e-05
6.04005e-05
0.000329211
0.000334686
6.19465e-05
2.06237e-05
1.80299e-05
1.73742e-05
1.64233e-05
1.55621e-05
1.7029e-05
2.48477e-05
3.70939e-05
4.84838e-05
3.40513e-05
2.12284e-05
1.81018e-05
1.90607e-05
2.07617e-05
2.24155e-05
2.68434e-05
7.72142e-05
0.000378072
0.00038498
7.90971e-05
2.71052e-05
2.25152e-05
2.09097e-05
1.93821e-05
1.86793e-05
2.18906e-05
3.44128e-05
4.87346e-05
5.91207e-05
5.90197e-05
3.32737e-05
3.43617e-05
3.92448e-05
4.3628e-05
4.53165e-05
4.5005e-05
8.47996e-05
0.000367913
0.000374941
8.68451e-05
4.5241e-05
4.5613e-05
4.41726e-05
3.99617e-05
3.53214e-05
3.47329e-05
5.98173e-05
5.96855e-05
7.07855e-05
7.61383e-05
9.06733e-05
0.000125159
0.000159621
0.000185108
0.000189555
0.000167246
0.000193074
0.000340243
0.000343226
0.000195581
0.000166212
0.000189192
0.000186944
0.000162307
0.000127665
9.32271e-05
7.75041e-05
7.15767e-05
8.6413e-05
0.000105929
0.000123717
0.00014297
0.000164322
0.000186819
0.000210873
0.000238765
0.000276107
0.00032278
0.000320602
0.000275471
0.000238424
0.000210839
0.000187195
0.00016503
0.000143875
0.00012474
0.000106872
8.72427e-05
2.75809e-06
3.72127e-06
4.48561e-06
5.25776e-06
5.99928e-06
6.78201e-06
7.80705e-06
8.99869e-06
1.00237e-05
1.0908e-05
1.07696e-05
9.77245e-06
8.71961e-06
7.49815e-06
6.4866e-06
5.72495e-06
4.99343e-06
4.20944e-06
3.54453e-06
2.61509e-06
4.69828e-06
7.22919e-06
8.8918e-06
1.06914e-05
1.23233e-05
1.37783e-05
1.63921e-05
1.77962e-05
4.51906e-05
4.58127e-05
4.54283e-05
4.55249e-05
1.7255e-05
1.57709e-05
1.32717e-05
1.19468e-05
1.03462e-05
8.64346e-06
7.11404e-06
4.58337e-06
5.87715e-06
8.97263e-06
1.09835e-05
1.27174e-05
1.40952e-05
1.4965e-05
1.66185e-05
2.02746e-05
0.000103784
8.43689e-05
8.36536e-05
0.000106932
2.00452e-05
1.60833e-05
1.4642e-05
1.39864e-05
1.27216e-05
1.09992e-05
8.92914e-06
5.78168e-06
8.28549e-06
1.13551e-05
1.23711e-05
1.39037e-05
1.54696e-05
1.6241e-05
1.7733e-05
2.64435e-05
0.000170297
0.000130455
0.000128994
0.000176498
2.6658e-05
1.71933e-05
1.5936e-05
1.54263e-05
1.39992e-05
1.24106e-05
1.11332e-05
7.83915e-06
2.28463e-05
1.64755e-05
1.33971e-05
1.35732e-05
1.60935e-05
1.76461e-05
1.9675e-05
3.70137e-05
0.000251566
0.000185904
0.000183174
0.000261279
3.78016e-05
1.90377e-05
1.71809e-05
1.58438e-05
1.35996e-05
1.33022e-05
1.62988e-05
2.25746e-05
3.55375e-05
2.3977e-05
1.58373e-05
1.32629e-05
1.52844e-05
1.80381e-05
2.14349e-05
4.78124e-05
0.000329211
0.000248482
0.000243906
0.000341765
4.92809e-05
2.08652e-05
1.75518e-05
1.5083e-05
1.33862e-05
1.58904e-05
2.38727e-05
3.54478e-05
4.63336e-05
3.20003e-05
1.99119e-05
1.64319e-05
1.88731e-05
2.3077e-05
2.83367e-05
6.08294e-05
0.000378072
0.000309894
0.000302943
0.000391486
6.23149e-05
2.78767e-05
2.26935e-05
1.88302e-05
1.68131e-05
2.0359e-05
3.22189e-05
4.66161e-05
5.63548e-05
5.34571e-05
2.98652e-05
3.02133e-05
3.54754e-05
3.96168e-05
4.22565e-05
6.82802e-05
0.000367913
0.000353312
0.00034343
0.000381731
6.99587e-05
4.19901e-05
3.94575e-05
3.57362e-05
3.09726e-05
3.10824e-05
5.42257e-05
5.69792e-05
6.7349e-05
6.78859e-05
7.62261e-05
0.000107521
0.000132829
0.000141863
0.000138847
0.000181341
0.000340243
0.000370391
0.000359901
0.000347659
0.000183769
0.000138461
0.000141749
0.00013431
0.000109567
7.84304e-05
6.92759e-05
6.82056e-05
8.34009e-05
0.000102322
0.000119363
0.000139113
0.000161279
0.000185726
0.000215975
0.000260537
0.00032278
0.00035111
0.000342993
0.000322443
0.000260812
0.000216089
0.000185941
0.000161804
0.000139914
0.000120371
0.000103277
8.42663e-05
2.80143e-06
3.76967e-06
4.47564e-06
5.20642e-06
5.96319e-06
6.77212e-06
7.8459e-06
9.07083e-06
1.00373e-05
1.07696e-05
1.02299e-05
9.42375e-06
8.50711e-06
7.36535e-06
6.38915e-06
5.66152e-06
4.96878e-06
4.22972e-06
3.58639e-06
2.66315e-06
4.74099e-06
7.30941e-06
8.9613e-06
1.07212e-05
1.23816e-05
1.38217e-05
1.64822e-05
1.78865e-05
4.64758e-05
4.54283e-05
4.33984e-05
4.37311e-05
1.64828e-05
1.52356e-05
1.29546e-05
1.17833e-05
1.03814e-05
8.74375e-06
7.14897e-06
4.63222e-06
5.82848e-06
9.11984e-06
1.12452e-05
1.28719e-05
1.40754e-05
1.47864e-05
1.63272e-05
2.01697e-05
0.0001066
8.36536e-05
8.07996e-05
0.000102942
1.90421e-05
1.54661e-05
1.42394e-05
1.37128e-05
1.26424e-05
1.10063e-05
8.8713e-06
5.73265e-06
7.92682e-06
1.0811e-05
1.24736e-05
1.39771e-05
1.53265e-05
1.58863e-05
1.71599e-05
2.5928e-05
0.000173946
0.000128994
0.00012586
0.00017018
2.5036e-05
1.66275e-05
1.55639e-05
1.51208e-05
1.38906e-05
1.23093e-05
1.06438e-05
7.49821e-06
2.2509e-05
1.60705e-05
1.33287e-05
1.37331e-05
1.57608e-05
1.7118e-05
1.88933e-05
3.60013e-05
0.000256137
0.000183174
0.000180334
0.00025352
3.57259e-05
1.8544e-05
1.68917e-05
1.56392e-05
1.36695e-05
1.32707e-05
1.59716e-05
2.20984e-05
3.5052e-05
2.36385e-05
1.57922e-05
1.34877e-05
1.51487e-05
1.75587e-05
2.06713e-05
4.66169e-05
0.000334686
0.000243906
0.000241747
0.000332436
4.67977e-05
2.05595e-05
1.74466e-05
1.50709e-05
1.34616e-05
1.58307e-05
2.3468e-05
3.47858e-05
4.58227e-05
3.16768e-05
1.99156e-05
1.66114e-05
1.89224e-05
2.2906e-05
2.79358e-05
6.03131e-05
0.00038498
0.000302943
0.000301734
0.000382217
6.07631e-05
2.82897e-05
2.3151e-05
1.91202e-05
1.68832e-05
2.02481e-05
3.17644e-05
4.59484e-05
5.58269e-05
5.25937e-05
2.9743e-05
3.00451e-05
3.54042e-05
3.95757e-05
4.21644e-05
6.85351e-05
0.000374941
0.00034343
0.000342744
0.000373209
6.94415e-05
4.27289e-05
4.00186e-05
3.59235e-05
3.07397e-05
3.07815e-05
5.31231e-05
5.63141e-05
6.67838e-05
6.68697e-05
7.49563e-05
0.000106175
0.000131817
0.000140794
0.000137848
0.00018213
0.000343226
0.000359901
0.000358646
0.000341953
0.000183016
0.000138572
0.000141643
0.00013374
0.000108381
7.69215e-05
6.81366e-05
6.75156e-05
8.2885e-05
0.000101726
0.000118676
0.000138422
0.000160566
0.000184901
0.000215005
0.000259399
0.000320602
0.000342993
0.000341243
0.000319393
0.000259188
0.000215232
0.000185393
0.000161338
0.000139385
0.000119718
0.000102637
8.36544e-05
2.79777e-06
3.88797e-06
4.78435e-06
5.627e-06
6.31281e-06
6.92996e-06
7.54693e-06
8.23674e-06
8.89312e-06
9.77245e-06
9.42375e-06
8.53957e-06
7.92278e-06
7.3087e-06
6.76007e-06
6.2091e-06
5.56613e-06
4.64311e-06
3.69957e-06
2.6616e-06
4.54152e-06
7.56919e-06
9.75805e-06
1.11928e-05
1.18529e-05
1.23749e-05
1.31627e-05
1.45563e-05
1.59775e-05
4.5525e-05
4.37311e-05
1.51786e-05
1.3864e-05
1.27202e-05
1.21117e-05
1.17172e-05
1.11559e-05
9.72534e-06
7.40985e-06
4.43262e-06
5.15519e-06
1.07373e-05
1.36437e-05
1.48683e-05
1.49621e-05
1.4633e-05
1.44812e-05
1.5046e-05
2.12841e-05
0.000106932
0.000102942
2.04413e-05
1.46672e-05
1.42482e-05
1.44512e-05
1.47503e-05
1.45948e-05
1.33616e-05
1.0446e-05
5.11361e-06
8.65196e-06
1.08513e-05
1.39489e-05
1.5939e-05
1.66948e-05
1.65051e-05
1.60486e-05
1.6538e-05
3.12796e-05
0.000176498
0.00017018
3.01054e-05
1.63502e-05
1.59413e-05
1.63965e-05
1.65779e-05
1.58453e-05
1.38854e-05
1.08104e-05
8.11768e-06
2.35643e-05
1.63899e-05
1.46675e-05
1.57453e-05
1.69668e-05
1.75385e-05
1.75804e-05
1.87705e-05
4.63508e-05
0.000261279
0.00025352
4.51275e-05
1.88085e-05
1.76743e-05
1.76502e-05
1.71124e-05
1.58952e-05
1.4757e-05
1.63024e-05
2.31364e-05
3.64925e-05
2.45792e-05
1.70056e-05
1.57234e-05
1.65794e-05
1.74706e-05
1.80443e-05
2.047e-05
6.19465e-05
0.000341765
0.000332436
6.04148e-05
2.07529e-05
1.83045e-05
1.76919e-05
1.67944e-05
1.59223e-05
1.71197e-05
2.44252e-05
3.6221e-05
4.77845e-05
3.35137e-05
2.1414e-05
1.86792e-05
1.96751e-05
2.12798e-05
2.27997e-05
2.71e-05
7.90971e-05
0.000391486
0.000382217
7.77495e-05
2.78771e-05
2.34976e-05
2.18537e-05
2.01512e-05
1.90979e-05
2.17702e-05
3.36211e-05
4.78912e-05
5.84483e-05
5.73811e-05
3.32705e-05
3.47358e-05
3.98966e-05
4.43532e-05
4.58433e-05
4.53159e-05
8.68452e-05
0.000381731
0.000373209
8.63529e-05
4.64677e-05
4.70323e-05
4.55467e-05
4.09672e-05
3.56844e-05
3.44083e-05
5.79794e-05
5.89157e-05
7.01913e-05
7.48469e-05
8.92523e-05
0.000124842
0.000159946
0.000185324
0.000188329
0.000166295
0.000195581
0.000347659
0.000341953
0.000195672
0.000167444
0.000190408
0.000188545
0.000163271
0.000127539
9.15567e-05
7.62692e-05
7.09284e-05
8.60719e-05
0.000105572
0.000123368
0.000142698
0.000164043
0.000186394
0.000210199
0.000237974
0.000275471
0.000322443
0.000319394
0.000274392
0.000237808
0.000210554
0.000187136
0.000165022
0.000143766
0.000124429
0.000106494
8.68463e-05
2.95744e-06
4.539e-06
5.95724e-06
6.91894e-06
7.50374e-06
7.82075e-06
7.93478e-06
7.9601e-06
8.09872e-06
8.71961e-06
8.50711e-06
7.92278e-06
7.87254e-06
7.92931e-06
7.90443e-06
7.66903e-06
7.12186e-06
6.03714e-06
4.59979e-06
2.86985e-06
4.79085e-06
9.50122e-06
1.2596e-05
1.35102e-05
1.35357e-05
1.32064e-05
1.28052e-05
1.28362e-05
1.42352e-05
1.7255e-05
1.64828e-05
1.3864e-05
1.28129e-05
1.29259e-05
1.34235e-05
1.38868e-05
1.40335e-05
1.31538e-05
1.00944e-05
4.62704e-06
8.88955e-06
1.46533e-05
1.79631e-05
1.91694e-05
1.85954e-05
1.70821e-05
1.54588e-05
1.44182e-05
1.49055e-05
2.00452e-05
1.90421e-05
1.46672e-05
1.44416e-05
1.54411e-05
1.69593e-05
1.8333e-05
1.87956e-05
1.76331e-05
1.4401e-05
8.52152e-06
1.15079e-05
1.40898e-05
1.69956e-05
1.88129e-05
1.93795e-05
1.88202e-05
1.74653e-05
1.61195e-05