/*--------------------------------*- C++ -*----------------------------------*\
  =========                 |
  \\      /  F ield         | OpenFOAM: The Open Source CFD Toolbox
   \\    /   O peration     | Website:  https://openfoam.org
    \\  /    A nd           | Version:  9
     \\/     M anipulation  |
\*---------------------------------------------------------------------------*/
FoamFile
{
    format      ascii;
    class       surfaceScalarField;
    location    "1800";
    object      phi;
}
// * * * * * * * * * * * * * * * * * * * * * * * * * * * * * * * * * * * * * //

dimensions      [1 0 -1 0 0 0 0];

internalField   nonuniform List<scalar> 
11200
(
0.00194229
-0.00388458
0.00194229
0.000875296
-0.000233082
0.00130006
-0.000233016
0.000666743
0.000441589
-0.000671861
0.000169435
0.000269405
-0.000893937
0.000242065
-1.99884e-05
-0.000926979
-8.28959e-07
3.38637e-05
-0.000695086
-0.000289212
5.73203e-05
-0.000499173
-0.000190979
-4.93562e-06
-0.000283152
-0.000173097
-4.29275e-05
7.63704e-06
-0.000191483
-9.93073e-05
0.000311544
-0.000203389
-0.000100518
0.000575235
-0.000196281
-6.74096e-05
0.000857232
-0.000214153
-6.78407e-05
0.00117333
-0.000282448
-3.36388e-05
0.00130444
-8.24897e-05
-4.8614e-05
0.00118075
0.000166806
-4.31129e-05
0.00069333
0.000267693
0.000219731
-0.000813372
0.00118849
0.000318172
-0.00198136
-0.000276282
0.00144424
-0.00406494
0.00208356
0.00236596
-0.00861651
0.00236596
0.00468118
-0.00499105
0.00244274
0.00547831
-0.00263922
0.00250888
0.00449057
-0.000852224
0.00200946
0.00270189
0.000612866
0.00141793
0.000655149
0.000956278
0.00108966
-0.000502083
0.000315996
0.000552029
-0.000606855
-0.0001231
3.68957e-05
-0.000361093
-0.000195049
-0.000223805
4.68576e-05
-0.000197047
-0.000402382
0.000472933
-0.000211443
-0.000418016
0.000743457
-0.00022794
-0.00023886
0.000642011
-0.000103186
-9.51699e-06
-0.00055965
0.000366088
0.000553124
-0.00261865
0.000891286
0.00108524
-0.00434455
0.000521909
0.00137084
-0.00533459
-0.000704933
0.00196273
-0.00439958
-0.00216628
0.00241981
-0.00225385
-0.00472796
0.00230594
-0.00857225
0.00225346
0.00145494
-0.0115264
0.00145494
0.00286128
-0.00825649
0.0018591
0.00351949
-0.00523685
0.00193942
0.00352502
-0.00263569
0.00177794
0.00303943
-0.000414454
0.00151292
0.002086
0.000625022
0.00128469
0.000760593
0.000577436
0.00106397
-0.000193467
0.000197207
0.000633755
-0.00029577
7.7593e-06
-0.0001005
6.69039e-05
8.84551e-06
-0.000568562
0.000364886
9.44887e-06
-0.000518869
9.64161e-05
3.83494e-05
2.18627e-06
-0.000979712
0.000257816
0.00071513
-0.00225235
0.000581186
0.00105754
-0.003253
0.000577764
0.00131419
-0.00377924
-0.000513022
0.00156118
-0.00375512
-0.00256429
0.00183523
-0.00292366
-0.00497957
0.00198183
-0.0014198
-0.00806225
0.00183043
-0.0114095
0.00141747
0.00071953
-0.0129655
0.00071953
0.000973247
-0.00988982
0.0013796
0.000883937
-0.00680432
0.00165677
0.000720872
-0.00429964
0.00182701
0.000739259
-0.00228401
0.00185117
0.00075971
-0.00107085
0.00167542
0.000450023
-0.000585009
0.00147213
-6.45192e-05
-0.00044554
0.00115729
-0.000207902
-0.000455754
0.000606906
0.00017709
-0.000376077
-6.04817e-08
0.000349514
-0.000344162
0.000181195
1.60351e-05
-0.000373644
0.00074548
-0.000516655
-0.000387469
0.00117798
-0.000796239
-0.000567545
0.00142832
-0.000815245
-0.00106343
0.0016602
-0.000891122
-0.00230179
0.00186465
-0.00106763
-0.00424822
0.00186044
-0.00106232
-0.00667535
0.00169046
-0.000732174
-0.00977658
0.00138418
-0.0128566
0.000714861
0.000189108
-0.0133437
0.000189108
-0.000307193
-0.0105195
0.001126
-0.000883062
-0.00775741
0.00152895
-0.00126246
-0.00570128
0.00178104
-0.0012974
-0.00420108
0.001952
-0.0010728
-0.00323716
0.00194171
-0.00078623
-0.00266974
0.00179816
-0.000514175
-0.00234176
0.00162416
-0.000221432
-0.00217457
0.00142607
0.000205648
-0.00203676
0.0012336
0.000510534
-0.00195154
0.00130249
0.000713485
-0.00205149
0.0014749
0.000914744
-0.00222268
0.00163395
0.00113708
-0.00257384
0.00178396
0.00130136
-0.00316054
0.00193283
0.0011914
-0.0041412
0.00194936
0.000781747
-0.00563014
0.00179157
0.000233382
-0.00767097
0.00154399
-0.000223364
-0.0104447
0.00112487
-0.0132569
0.000176974
-0.000195195
-0.0129533
-0.000195195
-0.00111153
-0.0105481
0.000944937
-0.00187193
-0.00834195
0.00134494
-0.00228556
-0.00681842
0.00153077
-0.00230973
-0.00577336
0.00159645
-0.00204543
-0.00509002
0.00158857
-0.00159341
-0.00463294
0.00151117
-0.00105133
-0.00431882
0.00143497
-0.000489994
-0.00411127
0.00137537
0.000103908
-0.00395247
0.00132181
0.000639021
-0.00385516
0.00136851
0.00115065
-0.003981
0.00141788
0.00164918
-0.00418512
0.0014639
0.00206116
-0.00451397
0.00152815
0.00228919
-0.00499131
0.00160274
0.00222924
-0.00569201
0.00161076
0.00179569
-0.00674241
0.00154581
0.00104437
-0.00827067
0.00135101
0.000158407
-0.01049
0.000931229
-0.0128803
-0.000218181
-0.000512025
-0.0119292
-0.000512025
-0.00171599
-0.0100304
0.000686203
-0.00262972
-0.00841038
0.000982161
-0.003076
-0.00740982
0.00103768
-0.00305839
-0.00675161
0.000960638
-0.00269453
-0.00633791
0.000884023
-0.00210212
-0.0060636
0.000838259
-0.00139045
-0.0058533
0.000822819
-0.000664141
-0.00567298
0.000835397
3.41182e-05
-0.00550048
0.00084975
0.000714792
-0.00542245
0.000886615
0.00141643
-0.00556363
0.000880999
0.00210144
-0.00574186
0.000871721
0.00267024
-0.0059644
0.000881635
0.00301326
-0.00625518
0.000920843
0.00301035
-0.00668351
0.000994405
0.00255217
-0.00734407
0.00105984
0.00164519
-0.00834982
0.000986137
0.000468977
-0.00997924
0.000665487
-0.0118668
-0.000544571
-0.000961991
-0.0100053
-0.000961991
-0.0024252
-0.00857198
4.83699e-06
-0.00347233
-0.0075394
0.000176161
-0.00392851
-0.00699135
3.77147e-05
-0.00384566
-0.00667636
-0.000158093
-0.00336532
-0.00650397
-0.000314277
-0.00260279
-0.00638905
-0.000437082
-0.00168682
-0.00627801
-0.000491265
-0.000769804
-0.00614471
-0.000445276
1.5516e-05
-0.00597816
-0.000307638
0.000783745
-0.005923
-0.000267684
0.0016766
-0.00607219
-0.000384292
0.0025746
-0.00620446
-0.000435399
0.00332005
-0.0063234
-0.000386443
0.00378385
-0.00644755
-0.000271413
0.00385372
-0.00662718
-0.000126198
0.00338964
-0.00694549
6.5499e-05
0.00234895
-0.00749698
0.00018784
0.000913859
-0.00853166
-1.24953e-05
-0.00995725
-0.000995662
-0.0017629
-0.00647946
-0.0017629
-0.00350899
-0.00566912
-0.00115677
-0.00460198
-0.00525342
-0.001193
-0.00501848
-0.00515292
-0.00142193
-0.00485261
-0.0051722
-0.00167004
-0.00424186
-0.00524783
-0.00186689
-0.00329887
-0.00531924
-0.0020128
-0.00215341
-0.0053532
-0.00207026
-0.000978005
-0.00531183
-0.00200829
9.01675e-07
-0.00518612
-0.00177094
0.000958627
-0.00515576
-0.00172495
0.00211845
-0.00527709
-0.00195493
0.00325474
-0.00532302
-0.00201773
0.00418698
-0.00529466
-0.00196098
0.00478589
-0.00522628
-0.00182018
0.0049414
-0.00515158
-0.00163111
0.00451945
-0.00513333
-0.00139022
0.00343294
-0.00523274
-0.00117772
0.00171229
-0.00564733
-0.00116367
-0.00645237
-0.00179259
-0.00323973
-0.00323973
-0.005381
-0.00352784
-0.00644442
-0.00418999
-0.00675429
-0.00484304
-0.00646185
-0.00546464
-0.00569287
-0.0060168
-0.00454512
-0.00646699
-0.00309962
-0.0067987
-0.00148601
-0.00692543
-3.19809e-05
-0.00664015
0.00141201
-0.00659975
0.00303322
-0.0068983
0.00448511
-0.0067749
0.00563489
-0.00644444
0.00639736
-0.00598875
0.00667984
-0.00543405
0.00636464
-0.00481813
0.00530641
-0.00417451
0.00318815
-0.00352906
-0.00326422
0.00130006
-0.000233082
0.000875296
0.000469568
0.00166097
0.000469567
4.28886e-05
0.000355731
0.000512573
3.5948e-05
-8.47627e-05
0.000361121
-0.000146979
3.30603e-05
0.000129867
-0.000193786
-0.000122956
0.000203621
-9.93459e-05
-0.000331978
0.000294861
-7.56094e-05
-0.000262047
0.00023338
-6.75205e-05
-0.000216996
0.000165984
5.56768e-06
-0.000223636
5.12472e-05
0.000104872
-0.000227312
2.74966e-05
0.00018578
-0.00022988
8.1568e-05
0.000281008
-0.000278305
0.000115245
0.000461328
-0.000385382
0.000171439
0.000528739
-0.00021968
0.000103668
0.000485541
-4.41545e-05
4.42448e-05
0.000430379
-1.20634e-06
0.000276105
-0.000277141
0.000823424
0.000202251
-0.00135791
0.00206721
0.000457754
-0.000344526
0.00107014
0.00244274
-0.00499105
0.00468118
0.00469278
-0.00283908
0.00469278
0.00527443
-0.00176048
0.0040435
0.00449049
-0.0003227
0.00303139
0.0029673
0.000838952
0.00213528
0.00143619
0.000959714
0.00153813
0.000432843
0.000279138
0.000944275
5.10628e-05
-0.000169042
0.000325669
-2.83914e-05
-0.000251935
-0.00010941
1.25438e-05
-0.000228644
-0.000438306
8.8635e-05
-0.000266013
-0.000455402
7.64947e-05
-0.00030161
-0.000154986
-0.000294794
-0.000173071
0.000256538
-0.00135329
0.000278844
0.000947391
-0.0028718
0.000851823
0.00153227
-0.0043345
0.00069453
0.00209489
-0.00511415
-0.000251547
0.0029928
-0.0044852
-0.00138264
0.00399698
-0.00228348
-0.0023015
0.00447294
-0.00472452
0.00434997
0.0018591
-0.0082565
0.00286128
0.00354304
-0.00620697
0.00354304
0.00425477
-0.00396411
0.00343131
0.00424231
-0.00151121
0.00297891
0.00363362
0.000520361
0.00244019
0.00265986
0.00122062
0.00199755
0.00149808
0.000939798
0.00156508
0.000611444
0.000411816
0.000939535
0.000122834
6.91506e-05
6.70272e-05
-3.26376e-05
3.35202e-05
-0.000675253
-0.00024799
2.94288e-06
-0.00057247
-0.000805927
5.38656e-05
0.000204651
-0.00168009
0.000416174
0.00100006
-0.00283281
0.000904035
0.00158507
-0.00384118
0.00113243
0.00204195
-0.00446009
0.000352562
0.00252206
-0.00443415
-0.00152509
0.00308284
-0.00362424
-0.00374963
0.00353891
-0.00181034
-0.00590775
0.00362277
-0.00800984
0.00289245
0.0013796
-0.00988982
0.000973247
0.0022363
-0.00792038
0.0022363
0.00247221
-0.00524045
0.0026972
0.00245822
-0.00239516
0.00272494
0.00226604
3.77752e-05
0.00252593
0.00184134
0.00108539
0.00223535
0.00123398
0.00114272
0.00187656
0.000550654
0.000894629
0.00135781
9.30783e-05
0.000660661
0.000472972
-4.7645e-07
0.000607139
-0.000480126
-0.000177093
0.000575672
-0.000214917
-0.000707363
0.000623738
0.000705878
-0.00134782
0.000834415
0.0014002
-0.00192718
0.00105371
0.001858
-0.00234468
0.00097657
0.00223356
-0.00258225
-9.97746e-05
0.00255455
-0.00259773
-0.0024371
0.00278794
-0.00229048
-0.00514056
0.00277413
-0.00136461
-0.00775317
0.00230373
-0.00969505
0.00103546
0.001126
-0.0105195
-0.000307193
0.00142139
-0.00851118
0.00142139
0.00116429
-0.00568385
0.00222945
0.000767094
-0.0027465
0.00252957
0.000610637
-0.000474828
0.00262106
0.000498246
0.00071557
0.00242392
0.000294958
0.00103896
0.00210521
4.63126e-05
0.00108379
0.00168365
-4.92568e-05
0.00106476
0.00111754
0.000148995
0.0010922
0.000550286
0.000245559
0.00105973
0.000721867
5.47129e-05
0.00101905
0.00127043
-0.000228727
0.00102492
0.00172689
-0.000449908
0.000956554
0.0021023
-0.000579746
0.000616447
0.00242279
-0.000786287
-0.000576423
0.00263254
-0.00121142
-0.00278172
0.00256132
-0.00144278
-0.0056331
0.00226788
-0.00112029
-0.00840056
0.00144978
-0.0103588
-0.000279605
0.000944937
-0.0105481
-0.00111153
0.000879664
-0.00838064
0.000879664
0.000338739
-0.00563917
0.00184118
-0.000164051
-0.00293886
0.00222591
-0.000382022
-0.00102212
0.00236171
-0.000370834
1.51284e-05
0.00227782
-0.000389552
0.000550316
0.00201852
-0.000370233
0.000775155
0.00172428
-0.000216775
0.000873571
0.00141309
0.000142257
0.000935376
0.0011196
0.000438046
0.000923376
0.00120907
0.000527143
0.00085062
0.00149722
0.0005075
0.000742873
0.00176559
0.000460708
0.000496306
0.00203518
0.000437165
-4.93159e-05
0.00229205
0.000171442
-0.00108242
0.00238248
-0.000356199
-0.00296529
0.00225702
-0.000892667
-0.00560893
0.0018633
-0.000946534
-0.00829652
0.000881056
-0.0104097
-0.0011138
0.000686203
-0.0100304
-0.00171599
0.000327354
-0.00766294
0.000327354
-0.000382099
-0.00525635
0.00130879
-0.00086163
-0.00313487
0.00171321
-0.00103026
-0.00168835
0.0017955
-0.00094935
-0.000896136
0.00171437
-0.000732395
-0.000426471
0.00159809
-0.000483632
-0.000129267
0.00147847
-0.000200874
8.21358e-05
0.00134407
0.000131429
0.000264424
0.0011884
0.000421386
0.00029358
0.00122645
0.00065012
0.00011757
0.00138531
0.000850396
-9.82867e-05
0.0015126
0.00102903
-0.000427591
0.0016269
0.0010744
-0.000921311
0.00174747
0.000865351
-0.00171602
0.00183705
0.000365535
-0.00315458
0.00174895
-0.000345186
-0.00523669
0.00132462
-0.000695803
-0.00759732
0.0003169
-0.00991504
-0.00173502
4.83696e-06
-0.00857198
-0.0024252
-0.000574506
-0.00650426
-0.000574506
-0.00135288
-0.00462951
0.000327699
-0.00180771
-0.00326173
0.000619399
-0.00191383
-0.00233957
0.000599242
-0.00175395
-0.00183376
0.000463463
-0.00138243
-0.00156335
0.000328273
-0.000890071
-0.00138372
0.000270827
-0.000365725
-0.00120184
0.000314349
8.76213e-05
-0.000937844
0.000441283
0.000518782
-0.000899266
0.000494
0.00100102
-0.00114352
0.000394557
0.00146463
-0.00133835
0.000341056
0.00180214
-0.0015418
0.000390256
0.00192905
-0.00183843
0.000518793
0.0017961
-0.00235929
0.000650022
0.00132602
-0.00327776
0.000658756
0.000544633
-0.0046144
0.000346938
-2.30916e-05
-0.00645751
-0.000584578
-0.00848754
-0.00244626
-0.00115677
-0.00566912
-0.00350899
-0.00231935
-0.00417909
-0.00231935
-0.0031307
-0.00318958
-0.00182158
-0.00339962
-0.00264298
-0.00177175
-0.00322205
-0.00233957
-0.0018476
-0.00278227
-0.00219959
-0.00194083
-0.00212721
-0.00210628
-0.00212493
-0.00137947
-0.00201096
-0.00219075
-0.000626517
-0.00186071
-0.00210237
4.76688e-05
-0.00156027
-0.0018227
0.000710358
-0.00153392
-0.00175299
0.001452
-0.00183384
-0.00200624
0.00218283
-0.00199305
-0.00209387
0.00281117
-0.0021008
-0.00203033
0.00322862
-0.002203
-0.00187305
0.00338875
-0.00234708
-0.00180345
0.00309363
-0.00265186
-0.00172099
0.00227884
-0.00318605
-0.00179127
0.00113088
-0.00415585
-0.00231737
-0.00562177
-0.00352748
-0.00352784
-0.005381
-0.00561739
-0.00561739
-0.00662245
-0.0063745
-0.00688857
-0.00721989
-0.00659844
-0.00809434
-0.00588609
-0.00892874
-0.0048346
-0.00962475
-0.00348946
-0.0101548
-0.00189132
-0.0103843
-3.05572e-05
-0.0100612
0.00184672
-0.010011
0.00346332
-0.0103487
0.00481943
-0.0101241
0.00587214
-0.00959796
0.00657374
-0.00889334
0.00684844
-0.00805582
0.00657061
-0.00719216
0.00556467
-0.00635462
0.00349216
-0.0056124
-0.00539383
0.00044159
0.000666743
-0.000233016
0.000512573
0.00035573
4.28885e-05
0.000562245
-9.93102e-05
0.000562245
0.000458312
-2.38079e-05
0.000488849
0.000293008
-4.88154e-05
0.000343967
0.000274387
-0.000234171
0.000456407
0.000361598
-0.000375672
0.000583323
0.000288164
-0.000282436
0.000589255
0.000135978
-0.000232593
0.00055077
-3.45863e-06
-0.000230989
0.00042168
-0.000112496
-0.000230381
0.000366923
-0.000202943
-0.000248884
0.000420906
-0.000200741
-0.000326176
0.000439231
-4.34766e-05
-0.000443525
0.000457717
1.98521e-05
-0.000320864
0.000361219
-4.51075e-05
-0.000144367
0.000253576
8.66972e-06
-0.000100603
0.000322937
1.23506e-05
-4.52993e-05
0.000243883
-0.000239984
0.000949782
-0.000239692
0.00135519
-0.00052505
0.00250888
-0.00263922
0.00547831
0.0040435
-0.00176048
0.00527443
0.00441865
-0.000849551
0.00441865
0.0038036
0.000320398
0.0033023
0.00257938
0.0010196
0.00229113
0.00140845
0.00086291
0.001612
0.000702463
0.00019567
0.00107892
0.000406121
-0.000232886
0.00057246
0.000204133
-0.000296664
0.000156649
-1.34442e-05
-0.000238751
-0.000212965
-0.0001731
-0.000284903
-0.000241222
-0.000300697
-0.000367723
9.14541e-05
-0.000613638
-0.000263036
0.000506339
-0.00135266
0.000185778
0.00105711
-0.00252288
0.000766988
0.00161465
-0.00369922
0.000846986
0.00227991
-0.00430274
0.000243989
0.00325178
-0.00399422
-0.000700335
0.00434354
-0.00239998
-0.00134136
0.00516989
-0.00207243
0.00537764
0.00193942
-0.00523685
0.00351949
0.00343131
-0.00396411
0.00425477
0.00418768
-0.00236229
0.00418768
0.00424419
-0.000422774
0.00366557
0.0036431
0.00108817
0.00297272
0.00270239
0.00143659
0.00236458
0.00164815
0.00102628
0.0017887
0.000846133
0.000393287
0.00111538
0.000314064
1.89553e-05
0.000283478
-0.000104036
-4.31319e-05
-0.000452773
-0.00050721
-0.00010813
-0.000346067
-0.00102611
-3.66593e-05
0.000392489
-0.00183202
0.000375492
0.00116744
-0.0028743
0.000983195
0.00182993
-0.00382025
0.0013377
0.00241721
-0.00442326
0.000910172
0.00306189
-0.00434061
-0.000543026
0.00378721
-0.00353941
-0.00229397
0.00433135
-0.00196431
-0.00373052
0.00443683
-0.00489719
0.00375289
0.00165677
-0.00680432
0.000883937
0.0026972
-0.00524045
0.00247221
0.00319139
-0.00335067
0.00319139
0.00329896
-0.00105898
0.00325357
0.0030368
0.000914162
0.0029621
0.00242699
0.00172552
0.00255623
0.00168431
0.00154938
0.00209614
0.000918253
0.00103052
0.00148662
0.000304461
0.000603352
0.000502364
-0.000108122
0.000399286
-0.000509963
-0.000538204
0.000370107
-0.000263074
-0.00113677
0.000534733
0.000733049
-0.00184398
0.000946021
0.00153688
-0.00254255
0.00144678
0.00209298
-0.0031254
0.00159266
0.00256145
-0.00338887
0.000738061
0.00299013
-0.00328018
-0.00118114
0.00331736
-0.00274802
-0.00334585
0.00329385
-0.00166042
-0.00512712
0.00261272
-0.00658307
0.00106092
0.00152895
-0.00775741
-0.000883062
0.00222945
-0.00568385
0.00116429
0.00236191
-0.00361559
0.00236191
0.00222625
-0.00123351
0.00283975
0.00200272
0.000857073
0.00290167
0.0016192
0.00186675
0.00266621
0.00110769
0.0018829
0.0022832
0.000544536
0.00154474
0.00173258
0.000129086
0.00123755
0.000898792
5.98474e-05
0.00104714
-2.83323e-05
-0.000105388
0.00102665
0.00023056
-0.000584954
0.00115439
0.00113033
-0.00114158
0.00142942
0.00180011
-0.00162936
0.00174793
0.00228892
-0.00199655
0.00171622
0.00266642
-0.00222965
0.000688517
0.00291519
-0.00237639
-0.00134459
0.00287151
-0.00223232
-0.00363818
0.00241615
-0.0015215
-0.0056178
0.00122963
-0.00757628
-0.000807893
0.00134494
-0.00834195
-0.00187193
0.00184118
-0.00563917
0.000338739
0.00174263
-0.00341849
0.00174263
0.0013904
-0.00104419
0.00238882
0.00111268
0.000866175
0.00263031
0.00085397
0.00186931
0.00253397
0.000530939
0.00198453
0.00223992
0.000195963
0.0017867
0.00181729
1.55422e-05
0.00159356
0.00123749
0.000112028
0.00146827
0.000601973
0.000140988
0.00144371
0.00076304
-0.000107651
0.00151238
0.00138785
-0.000465789
0.00167145
0.0018817
-0.000793939
0.00184692
0.00226434
-0.00105802
0.00171863
0.00255371
-0.00135867
0.00071241
0.00265923
-0.0017309
-0.00114291
0.00242756
-0.00183446
-0.00345209
0.00178077
-0.00134363
-0.005592
0.00036443
-0.00818163
-0.00185207
0.000982161
-0.00841038
-0.00262972
0.00130879
-0.00525635
-0.000382099
0.00110855
-0.00301801
0.00110855
0.000694964
-0.000706697
0.0017893
0.000407348
0.000901499
0.00204779
0.000268782
0.0016889
0.00203334
0.000157483
0.00182434
0.00186957
4.86596e-05
0.00173143
0.00164256
1.8178e-05
0.001622
0.00134611
0.000127522
0.00155321
0.0009941
0.000195518
0.00153479
0.00106737
0.000107505
0.00155577
0.00142994
-3.82495e-05
0.00163152
0.00169828
-0.000176857
0.00169987
0.00191254
-0.000337369
0.0015477
0.0020789
-0.000658671
0.000766571
0.00210419
-0.00109535
-0.000806418
0.00184914
-0.00130861
-0.00305527
0.00114106
-0.000991087
-0.00522023
-0.00037239
-0.00827532
-0.00263242
0.000176161
-0.0075394
-0.00347233
0.000327699
-0.00462951
-0.00135288
-1.48843e-05
-0.00233285
-1.48844e-05
-0.000175718
-0.000628235
0.000701768
-0.000222709
0.000540865
0.00100686
-0.000184012
0.00111819
0.000995472
-0.000109379
0.0011961
0.000881877
-2.97797e-05
0.0011482
0.000774455
6.97941e-05
0.00113505
0.000701727
0.000118148
0.00130991
0.000636226
0.000148652
0.00130894
0.000689345
0.000219365
0.00110294
0.000776669
0.000262868
0.00108547
0.000843607
0.000301133
0.00110522
0.00094664
0.000303416
0.00100025
0.00106397
0.000234016
0.000401802
0.00108419
2.47212e-05
-0.000708818
0.000770448
-0.000339478
-0.00236954
2.54016e-05
-0.000205666
-0.00459929
-0.00133933
-0.007446
-0.00348123
-0.001193
-0.00525342
-0.00460198
-0.00182158
-0.00318958
-0.0031307
-0.00207974
-0.00181652
-0.00207974
-0.00194133
-0.000961756
-0.00157664
-0.00143694
-0.000351181
-0.00145994
-0.000893224
-1.33917e-05
-0.00135297
-0.000463865
8.36809e-05
-0.00144188
-0.000164172
0.000166505
-0.00150875
2.03324e-05
0.00030896
-0.00146079
0.000110746
0.000669222
-0.00127243
0.000190831
0.000688203
-0.00121234
0.000354741
0.000319681
-0.0013869
0.000622914
0.000163187
-0.00143977
0.00102595
5.7471e-05
-0.00138561
0.00153544
-6.25029e-05
-0.0013198
0.00198237
-0.000424195
-0.00142438
0.00206352
-0.00101471
-0.00149626
0.00178245
-0.00184017
-0.00203956
0.00116008
-0.00317699
-0.00311731
-0.00520456
-0.00460884
-0.00418999
-0.00644442
-0.0063745
-0.00662245
-0.00728276
-0.00728276
-0.00741644
-0.00804796
-0.00701746
-0.00884449
-0.00623707
-0.00972251
-0.0051849
-0.0105932
-0.00383667
-0.0113365
-0.00215179
-0.0117602
-1.94149e-05
-0.0115243
0.00213626
-0.0114784
0.00384326
-0.011736
0.00520759
-0.0113252
0.00625998
-0.0105929
0.00702732
-0.00972317
0.007397
-0.0088497
0.0072434
-0.00805327
0.00632155
-0.00727294
0.00414873
-0.00661657
-0.00644966
0.000269406
0.000169435
-0.000671861
0.000361121
-8.47627e-05
3.59479e-05
0.000488849
-2.38079e-05
0.000458312
0.000511009
-4.43384e-05
0.000511009
0.000508112
-0.000180849
0.000527701
0.000616663
-0.000372988
0.000720842
0.000707495
-0.000423528
0.000916021
0.000577553
-0.000275303
0.000994502
0.000317781
-0.000214057
0.0010246
-1.29412e-06
-0.000213929
0.000954688
-0.000301939
-0.000216517
0.000884089
-0.000514382
-0.000249078
0.000882433
-0.000566436
-0.000346759
0.000838056
-0.00040698
-0.00048885
0.000787128
-0.000247919
-0.000430644
0.000632818
-0.00018706
-0.000266449
0.000459176
-0.000140594
-0.000133795
0.000410269
-0.000103342
-8.09297e-05
0.000287563
-0.000113633
3.26473e-05
-0.000262049
0.000352826
-0.000991513
0.00200946
-0.000852224
0.00449057
0.00303139
-0.0003227
0.00449049
0.0033023
0.000320398
0.0038036
0.00282412
0.000912076
0.00282412
0.00194292
0.0010369
0.00195461
0.0011721
0.000597304
0.00141255
0.00075023
1.8227e-05
0.00105904
0.000602913
-0.000330747
0.000775219
0.000364911
-0.000323835
0.000504428
-2.42233e-05
-0.000244844
0.000207085
-0.000353337
-0.000301236
0.000172612
-0.000521563
-0.000413471
0.000424077
-0.000666193
-0.000383484
0.000687695
-0.00111681
5.39788e-07
0.00101834
-0.00191526
0.000554605
0.00142785
-0.00277114
0.000891607
0.00197775
-0.00321905
0.000740804
0.00282513
-0.0029787
0.000252096
0.00377022
-0.00196063
-0.000235123
0.00441964
-0.000646857
0.00441674
0.00177794
-0.00263569
0.00352502
0.00297891
-0.00151121
0.00424231
0.00366557
-0.000422774
0.00424419
0.00372222
0.000798795
0.00372222
0.0032201
0.0014871
0.00302463
0.00239458
0.00140787
0.00237954
0.0015253
0.000883532
0.00179268
0.000870679
0.000241556
0.00119771
0.00037731
-8.14675e-05
0.000534479
-0.000140231
-0.000105489
-7.45878e-05
-0.000609345
-0.000188357
1.01698e-05
-0.00105772
-0.000168458
0.000595854
-0.00171098
0.000213746
0.00122347
-0.00257122
0.00086341
0.00182731
-0.00337493
0.00134359
0.00243194
-0.00387319
0.00133967
0.00311209
-0.00379911
0.000606131
0.00384781
-0.00307614
-0.000540474
0.00440095
-0.00181291
-0.00150731
0.00444578
-0.00248457
0.00377769
0.00182701
-0.00429964
0.000720872
0.00272494
-0.00239516
0.00245822
0.00325357
-0.00105898
0.00329896
0.00343577
0.000434392
0.00343577
0.00317212
0.00158461
0.00312824
0.00256364
0.00189492
0.00267765
0.00183253
0.00151076
0.00220002
0.00107893
0.00088848
0.00159329
0.000409706
0.000398233
0.000691887
-0.00016963
0.000154108
-0.000190227
-0.000730591
9.32266e-05
1.63027e-05
-0.0013374
0.000305049
0.000866348
-0.00202752
0.000803307
0.00163745
-0.00270121
0.00142711
0.00220296
-0.00326971
0.00178595
0.0026876
-0.00350599
0.00141193
0.00315415
-0.00331434
0.000249257
0.00348258
-0.00275608
-0.00119246
0.00338757
-0.00182177
-0.00243198
0.00260308
-0.00415982
0.000914402
0.00178104
-0.00570128
-0.00126246
0.00252957
-0.0027465
0.000767094
0.00283975
-0.00123351
0.00222625
0.00289591
0.000322074
0.00289591
0.00270398
0.00167614
0.00300206
0.0022569
0.00222584
0.00278237
0.0016503
0.00199819
0.00240237
0.000983514
0.00144715
0.0018407
0.000370196
0.000937637
0.0009727
-6.98808e-05
0.000572885
-7.03688e-06
-0.000526967
0.000545258
0.000235611
-0.00113188
0.000846231
0.00119407
-0.00176387
0.00132155
0.00191386
-0.00232612
0.00186185
0.00241643
-0.00273478
0.00207396
0.00278706
-0.00290677
0.00148523
0.00301387
-0.00283729
0.000129028
0.00292226
-0.00251748
-0.00136549
0.00226936
-0.00176054
-0.00278134
0.000822037
-0.00553634
-0.00119191
0.00153077
-0.00681842
-0.00228556
0.00222591
-0.00293886
-0.000164051
0.00238882
-0.00104419
0.0013904
0.00228502
0.000529673
0.00228502
0.00208907
0.00183837
0.00266403
0.00177161
0.00242778
0.00264947
0.00132662
0.00228704
0.00239605
0.00080241
0.00183925
0.00194939
0.000320507
0.00140075
0.00125627
1.9527e-05
0.00104991
0.000425927
-0.000303434
0.00102426
0.000606999
-0.00080527
0.00130901
0.0014269
-0.00133171
0.00170626
0.00202342
-0.00176506
0.00213317
0.00242637
-0.00206673
0.00225862
0.00267072
-0.00225977
0.00164743
0.00269007
-0.00236758
0.000344827
0.00231958
-0.00221245
-0.0011672
0.00142733
-0.0015318
-0.00296346
-0.000134089
-0.006654
-0.00226622
0.00103768
-0.00740982
-0.003076
0.00171321
-0.00313487
-0.00086163
0.0017893
-0.000706697
0.000694964
0.00159779
0.000912699
0.00159779
0.00145395
0.00193391
0.00209608
0.00130874
0.00237301
0.00223332
0.00108726
0.00223605
0.00214203
0.000769592
0.00189448
0.001905
0.00040918
0.00158849
0.00151878
8.12544e-05
0.00136371
0.00100822
-0.000264751
0.00133972
0.00109791
-0.000663154
0.00151323
0.00162412
-0.001011
0.00178201
0.00197036
-0.001248
0.00209534
0.00218737
-0.0014026
0.00221468
0.00227744
-0.00156163
0.00176241
0.00214824
-0.00177927
0.000759104
0.00165249
-0.00170996
-0.000839044
0.000743591
-0.0010612
-0.00314637
-0.000838242
-0.00727101
-0.00307661
3.77147e-05
-0.00699135
-0.00392851
0.000619399
-0.00326173
-0.00180771
0.000701768
-0.000628235
-0.000175718
0.000679013
0.000958205
0.000679013
0.000731311
0.00171848
0.00116999
0.00082581
0.00192697
0.00134701
0.000849642
0.00176139
0.00133271
0.000756668
0.00153042
0.00123149
0.000551327
0.00139965
0.00109591
0.000116361
0.00151483
0.000920075
-0.000334839
0.00150956
0.000970702
-0.000575335
0.00136407
0.00116632
-0.00070893
0.00147015
0.00128906
-0.000723271
0.0016734
0.00138291
-0.000663592
0.00181699
0.00140197
-0.000647288
0.00159312
0.00123717
-0.000683447
0.000814423
0.000751286
-0.000631605
-0.000729766
-0.00013572
-7.95172e-05
-0.00326488
-0.0017729
-0.00689575
-0.003936
-0.00142193
-0.00515292
-0.00501848
-0.00177175
-0.00264298
-0.00339962
-0.00157664
-0.000961756
-0.00194133
-0.00117074
0.00014641
-0.00117074
-0.000663806
0.000557797
-0.000806196
-0.000120448
0.000689851
-0.000659207
0.00024109
0.000697237
-0.000739267
0.00039377
0.000751423
-0.000882439
0.000360298
0.000925223
-0.000952894
0.000126588
0.00138351
-0.000907407
-0.000126162
0.00140197
-0.000852006
-0.000189549
0.000932863
-0.000892301
-6.42649e-05
0.000747881
-0.000842777
0.000251809
0.0006818
-0.000710085
0.000742977
0.00065189
-0.000645864
0.00118869
0.000502846
-0.000779822
0.0015364
8.87019e-05
-0.00111825
0.00171518
-0.00101482
-0.00193329
0.00137238
-0.00264308
-0.00339632
-0.00510774
-0.00502446
-0.00484304
-0.00675429
-0.00721989
-0.00688857
-0.00804796
-0.00741644
-0.00797475
-0.00797475
-0.00748827
-0.00877317
-0.00674706
-0.00977387
-0.0057599
-0.0108832
-0.00441252
-0.0119325
-0.00257237
-0.0126751
-1.73651e-05
-0.0126958
0.00256684
-0.0126607
0.004432
-0.0126683
0.00579667
-0.011942
0.0067908
-0.0109052
0.00752575
-0.00980623
0.00798817
-0.00880926
0.00802937
-0.00800577
0.00716316
-0.00742154
0.00479444
-0.00689092
-0.00676296
-1.99884e-05
0.000242065
-0.000893937
0.000129867
3.30603e-05
-0.000146979
0.000343967
-4.88154e-05
0.000293008
0.000527701
-0.000180849
0.000508112
0.000703999
-0.000352601
0.000703999
0.00091224
-0.000475334
0.000987934
0.000990596
-0.000396527
0.00123419
0.00082456
-0.000251315
0.00141185
0.000478183
-0.000195007
0.00156598
-4.80713e-06
-0.000193548
0.00163123
-0.000475682
-0.000204218
0.00155918
-0.000775384
-0.000251062
0.0014332
-0.000862987
-0.000348604
0.00127427
-0.000717737
-0.000483298
0.00112519
-0.000469703
-0.000529829
0.000914629
-0.000263657
-0.000408624
0.000661769
-6.47126e-05
-0.000259277
0.000470609
0.00012753
-0.000128069
0.000223388
0.000150142
-1.00576e-05
-0.000274607
0.000232956
-0.00107433
0.00141793
0.000612866
0.00270189
0.00213528
0.000838952
0.0029673
0.00229113
0.0010196
0.00257938
0.00195461
0.0010369
0.00194292
0.00141275
0.000731137
0.00141275
0.000995091
0.000208045
0.00114684
0.000824499
-0.000224324
0.00105742
0.000747952
-0.000406711
0.00100716
0.000467444
-0.00032092
0.000910847
-2.5963e-05
-0.00024441
0.000751352
-0.000463076
-0.00030799
0.000713497
-0.000682559
-0.000431606
0.000824106
-0.000755272
-0.000494775
0.00090658
-0.000951642
-0.000261377
0.000992784
-0.00139697
0.000210335
0.00113301
-0.00193675
0.000674912
0.00143401
-0.00224713
0.000905165
0.00197109
-0.00207489
0.000873102
0.00259684
-0.00136567
0.000731682
0.00296872
0.000561413
0.00272264
0.00151292
-0.000414454
0.00303943
0.00244019
0.000520361
0.00363362
0.00297272
0.00108817
0.0036431
0.00302463
0.0014871
0.0032201
0.00263134
0.00151773
0.00263134
0.00197564
0.00116694
0.00207634
0.00133156
0.000583091
0.00162934
0.000839962
4.23804e-05
0.00124021
0.000405895
-0.000175595
0.000823219
-0.000147198
-0.000174349
0.000408444
-0.000635483
-0.000260829
0.000451294
-0.00101473
-0.000290503
0.000834002
-0.00149927
-1.23922e-05
0.00122563
-0.00213751
0.000563834
0.00164033
-0.00276457
0.00114214
0.0021272
-0.00313896
0.00145058
0.00271083
-0.00307138
0.00135831
0.00332709
-0.00251283
0.000942799
0.0037727
-0.0015394
0.000413137
0.00379089
-0.000410657
0.00321037
0.00185117
-0.00228401
0.000739258
0.00252593
3.77751e-05
0.00226604
0.0029621
0.000914162
0.0030368
0.00312824
0.00158461
0.00317212
0.00291442
0.00194537
0.00291442
0.00241559
0.00181143
0.002532
0.00177371
0.00129584
0.00212915
0.00109565
0.000688307
0.00162541
0.000440849
0.000234874
0.000936221
-0.000193866
-9.06074e-07
0.000271044
-0.000779642
-6.21288e-05
0.000403377
-0.0013665
0.000124044
0.00103866
-0.00198079
0.000596135
0.00164321
-0.00256203
0.00122492
0.00212311
-0.00301567
0.00174288