/*--------------------------------*- C++ -*----------------------------------*\
  =========                 |
  \\      /  F ield         | OpenFOAM: The Open Source CFD Toolbox
   \\    /   O peration     | Website:  https://openfoam.org
    \\  /    A nd           | Version:  9
     \\/     M anipulation  |
\*---------------------------------------------------------------------------*/
FoamFile
{
    format      ascii;
    class       volScalarField;
    location    "110";
    object      p;
}
// * * * * * * * * * * * * * * * * * * * * * * * * * * * * * * * * * * * * * //

dimensions      [0 2 -2 0 0 0 0];

internalField   nonuniform List<scalar> 
112055
(
0.0195848
0.00458605
-0.00596027
-0.00831535
-0.00799702
0.00819075
0.0189681
-0.00818077
-0.00331264
0.0189411
0.00462283
0.0181071
-0.00311772
0.018097
0.0289224
-0.000672605
-0.0634318
0.0226162
0.00460727
-0.00295021
-0.00107047
-0.00161987
0.00462646
-0.000660071
-0.00110293
-0.00546787
0.0415265
0.00635273
0.00814851
-0.00107934
0.00925521
-0.016186
-0.00121
-0.0418009
-0.00333565
-0.000939374
-0.00302646
0.0644576
-0.0107876
-0.000201184
-0.0013755
-0.00993156
1.97981e-05
-0.00587368
0.0231575
-0.00177512
-0.0417245
-0.00919662
-0.00114509
-0.00972111
-0.00802545
-0.0162385
-0.00125603
-0.0105885
-0.00377207
0.0191009
-0.00283798
-0.00840241
-0.0105219
-0.00180917
0.0154885
-0.00961508
-7.0602e-05
-6.45353e-05
0.0120751
-0.00366228
0.0669349
-0.00138155
0.00305042
-0.00203552
-0.00852802
-0.0614771
-0.000539659
0.0380519
-0.0308305
-0.0395019
0.00457777
0.0194336
-0.0141209
-0.0103137
0.00122874
-0.0429302
-0.00792904
-0.00576974
-0.000661087
0.00195345
-0.00492906
-0.00373816
-0.027444
-0.00366344
-0.000435639
-0.000954302
-0.00527247
-0.00749888
-0.0308749
0.00453845
-0.0182712
0.0285778
0.00924989
-0.00250886
-0.00309329
-0.00080869
-0.00102352
0.00553489
-0.0474079
-0.0633397
0.0120593
-0.000370374
-0.000615104
0.00193336
-0.0613736
-0.0340204
-0.0039454
0.00722843
0.00305981
0.0220374
0.012299
-0.00083698
-0.0281753
-0.00341175
0.00652458
0.00636507
0.0188914
0.000579848
-0.00136564
0.00544674
-0.0561569
7.44627e-05
-0.00454924
-0.0463158
0.000589431
0.041249
0.000358396
0.0533609
-0.0110651
-0.000203095
-0.00116113
0.00220794
-0.0058267
0.00287946
0.00212014
0.00187338
-0.0192199
0.0106143
-0.000369322
-0.00281089
0.0207252
-0.000822882
-0.000849425
-0.00366731
-0.0640514
-0.00154693
0.0165931
-0.00124201
-0.00578914
0.00704703
0.0100616
0.00730632
-0.00983547
-0.00339395
-0.00392649
-0.000560275
-0.00344063
-0.0030666
-0.00168549
-0.000301242
0.0102111
-0.0165428
-0.00189759
0.0121536
0.00872969
0.00702119
-0.00343988
0.0104453
-0.0149068
-0.00343385
-0.00102679
-0.00417378
-0.00464247
-0.00324895
-0.0147417
-0.00132787
-0.000824622
0.00928445
-0.0124137
0.0162491
-0.000529193
-0.00170354
-0.0198599
-0.00100325
0.00207596
-0.00119811
-0.00360772
0.00654948
-0.0053278
-8.81853e-05
-0.0145844
-0.0345516
-0.000646968
0.0100239
0.0631858
0.0135623
0.0155909
0.000174452
-0.00260076
0.0217785
0.0660717
0.0109721
-0.0626638
-0.00105186
0.000812709
-0.00124583
0.0203273
-0.00105277
-0.0179227
0.0111022
0.00883553
-0.0059406
-0.00277755
-0.00858038
-0.000206012
-0.0219512
-0.00365426
-0.00362869
-0.0294403
-0.00192553
-0.000802034
0.0100733
0.00399815
-0.00116176
-0.000919688
-0.00281195
-0.0122752
0.00541556
-0.0251861
-0.00476839
-9.5807e-05
-0.000933007
-0.0706295
0.0990304
-0.00112789
-0.0105381
-0.00273939
-0.00121277
-0.001991
-0.0250751
-0.0138601
-0.0107013
2.2669e-05
-0.0084499
-0.00127131
-0.00131356
-0.0313449
-0.00351423
-0.0142662
-0.00395716
0.00203742
-0.00458376
-0.0398968
-0.00102527
-0.0295156
0.0223546
-0.000364331
0.0166348
0.053722
-0.000910576
-0.00240965
-0.0041238
0.013879
-0.00138917
-0.00128126
-0.00988367
-0.000709671
-0.0152743
-0.00247407
-0.00739908
-0.029109
-0.0657597
-0.0647152
-0.0311459
-0.000609822
0.00507824
0.0129714
0.00850525
0.00616495
-0.00482283
0.00575406
-0.0010795
1.14857e-05
0.0141672
-0.00175837
-0.000223193
0.005778
-0.00238607
0.00545181
0.00614319
0.0111434
-0.00363351
-0.00171733
-0.000437741
0.00532375
0.0092935
0.00991774
0.00555764
-0.00876554
0.000389109
-0.000789716
-0.00296066
-0.00244077
-0.000435771
-0.002999
0.00323107
-0.00142459
0.00248961
-0.0140809
-0.022545
-0.00848292
-0.00536194
-0.00222762
-0.00170101
-0.00199982
0.0544205
0.0302792
-0.00360243
-0.0133748
-0.00660641
0.0028046
9.17899e-05
0.00512696
-0.00113451
0.0039784
-0.000827991
0.0121311
-0.00720921
-0.00965702
-0.00123934
-0.00113871
0.00361804
0.00333601
-0.0158306
0.063152
-0.0558008
-0.000782584
-6.32027e-07
-0.000465064
-0.0108775
-0.000789195
-0.0111513
0.0120726
0.00112589
0.0264916
0.0152535
0.0173026
-0.0632579
-0.00451747
-0.00451837
0.037677
-0.0034446
-0.00117693
0.0177723
-0.0407035
-0.00117096
-0.00955324
0.107784
-7.15836e-05
-0.0705291
-0.0171954
-0.00652393
0.00522517
-0.00480944
0.0230431
0.0234874
0.0109187
0.0163531
0.140021
-8.5669e-05
-8.04456e-05
-0.00504951
-0.0047763
-0.00273237
-0.00144804
0.00806686
0.0177844
-0.00129457
-0.00308565
-9.42583e-05
-8.85341e-05
-0.00567017
0.0127825
0.0229776
0.00464316
0.000563266
0.00251836
-0.0233635
0.0376808
-0.00169108
0.00197679
-0.00876188
-0.00705941
0.0026128
0.0216599
0.00533012
-0.0184169
0.0172515
-0.00147334
-0.0300988
-0.00752716
-0.00208832
-0.0060753
0.00376131
-0.00720734
-7.40383e-05
-0.00250926
-7.19565e-05
-0.00121648
-0.00983368
0.00707981
-0.0138016
-0.00284457
0.00699657
0.0307454
-0.00394724
0.00157744
0.007214
0.00574431
-0.0110303
0.0105936
0.000913581
-0.00865603
-0.00773469
-0.00249894
0.010774
-0.00436091
-0.013778
-0.0103168
0.0261604
-0.00045123
-0.0113143
0.0983785
0.0256859
-0.0107769
0.0033666
0.0071125
-0.00976917
0.00444071
-1.66211e-05
0.0372082
0.0253165
-0.000857295
-0.0084934
0.00346883
0.00646061
-0.00394562
0.00845297
-0.00652525
-0.0654755
-0.000117777
0.000173492
0.0095804
-0.000441912
-0.00600556
-0.00261989
-0.000224325
-0.00950926
-0.0101785
-0.000140022
-0.000423883
0.0172577
0.00576165
-0.000154103
0.00809942
-0.00123493
-0.00431095
-0.0162585
0.00837036
-0.00791558
-0.00239991
-0.00020871
-0.00326243
0.00267107
-0.0634745
-0.0747577
-0.00131705
-0.0145016
-0.00156641
-0.0380977
0.0137859
-0.000472872
-0.00269235
-0.00236915
-6.47369e-05
-0.0290879
-0.00880768
-0.000136054
0.0103614
-0.0040253
0.00790057
-0.000448805
-0.00235044
-0.000826775
0.000509458
-0.000959335
-0.00400086
0.0110649
-0.000155038
0.00579131
-0.0020422
-0.047413
-0.000174718
-0.000420448
-0.00790721
0.0228803
-0.0123037
0.00370837
0.0672995
-0.000489447
-0.000469868
-5.89475e-05
-0.00846183
-0.00905366
0.00848079
-0.00067883
-0.00106505
-0.00353395
0.00412991
-0.00131491
-0.000211748
0.0667939
-0.00328319
-0.000243008
0.00651485
-0.00507025
-0.063284
0.0533187
-0.000484032
0.0145705
-0.00880832
-0.0766824
-0.00445641
-0.000651742
-0.000451841
-0.000619448
-0.07443
0.0264988
-0.016924
-0.00874898
-0.0170416
0.004336
0.00692799
-0.00152139
0.0265592
0.00612527
0.00994288
-0.0242177
0.00790788
-5.09207e-06
-0.0186348
-0.0020166
-0.000111263
-0.0101394
-0.0596377
-0.00123239
-0.00148009
0.000559665
0.105661
-0.00353456
-0.00494792
-0.065971
-0.00157039
-0.0643759
-0.00702398
0.00856694
-0.000844283
-0.0306074
-0.000971566
0.00500365
0.00650684
-0.0164538
0.010294
-0.0280648
-0.00287151
-2.33517e-05
0.0134198
0.00557302
0.00938099
-0.000219112
0.00832455
0.00409788
0.0067563
-0.000639571
0.00644666
0.000917166
-0.000242967
0.000905007
-0.00274189
0.00717728
0.00406544
-0.00189776
0.00626116
-0.00531406
-0.000303927
-0.016273
-0.00933282
0.00591308
-0.00347257
0.004107
-0.00376564
0.00885179
0.0124797
-0.00045131
-0.00393533
0.0119647
0.000812924
-0.0058476
0.052067
0.00615325
-0.000137811
-0.000922271
-0.0159197
0.00446505
-0.0282975
0.00974191
0.00557911
0.00101411
0.00583595
-0.0467323
-0.00280731
-0.00887224
-0.00476661
-0.0063805
-0.00174203
-0.0608753
-0.00112594
-0.0589106
-0.0106208
-0.000491827
-0.00108699
-0.0110704
0.00105693
0.00559313
-0.000801598
0.00104894
-0.00379758
-0.00491568
0.00330243
0.0247606
0.0755407
0.00865414
-0.0591924
-0.00588211
-0.0744611
-0.00597211
-0.000177016
0.0202033
-0.000165037
-0.00148092
0.0107719
0.0154637
-0.00485706
-0.0153273
0.0105369
0.00874999
0.000939814
0.0190954
-2.26991e-05
-0.00337522
-0.0289899
-0.03057
-0.000456725
0.0063048
-0.0104153
-0.0237591
-0.0127694
0.0183236
-0.00302813
-0.000509994
0.00607653
0.0199598
0.079398
-0.00108853
-0.000478371
-0.0060081
-0.00195561
-0.0291843
-0.00350854
0.0135884
-0.00604496
-0.000310954
-0.0430893
-0.0124155
-0.000257036
0.00797751
0.00475002
0.00836119
0.0246346
0.0192472
0.0224622
0.0138127
-3.81311e-05
-0.00603348
-0.00396765
-0.000100927
0.00833198
-0.000175404
-0.00338088
0.00520673
-0.00380414
-0.00151614
0.130316
-0.000133512
0.00931002
-0.00208504
-0.00195761
-0.00641906
0.000568949
-0.00207759
0.0137035
-0.00151942
0.00518536
-0.00172782
-0.0031182
-0.00367867
-0.00124751
-0.0146325
-0.000170666
0.0105792
0.0133004
0.0170056
0.000820521
-0.0222832
-0.00307072
0.0155213
-0.0635495
-0.00372936
0.00698103
-0.000812261
0.05057
-0.00645327
-0.00219484
-0.0113421
-0.0120571
-0.000461374
-0.0306894
0.00817849
-0.0693772
0.00149541
-0.0118863
0.011836
0.00425892
0.00599953
-0.000256612
-0.00140203
-0.000235464
-0.0105727
-0.00143519
0.0115531
0.00692573
-0.000476234
0.0172804
-0.00055796
-0.000240638
-0.0010674
-0.0148605
-0.0276882
0.039964
0.0662451
0.0068252
-0.00319434
-0.000270984
0.000534848
-0.0013907
-0.00636741
-0.00323214
-0.000611782
-0.000619185
0.00588486
-0.0654286
-0.00266386
-0.000107359
0.0150628
-0.0118019
0.0182606
0.000473
-0.00192775
-0.0708727
0.000484972
-0.00022068
-0.000773967
-0.00312428
-0.0115152
-0.0026724
-0.00430802
-0.00113982
-0.0407526
-0.00455071
0.00173435
-0.0391933
-0.00351973
0.00541356
-0.000218144
-0.00373786
0.0155829
-0.00305982
-0.0122019
-0.102723
-0.000269665
-0.0228296
-0.00955618
-0.00218266
-0.000550376
-0.0257047
-0.00304552
-0.0090002
0.0138104
-0.00446841
-0.0169118
-0.00117853
0.00887888
-0.000579328
-0.00451623
-0.0024171
0.00707175
-0.00185458
0.00906744
-0.00238069
-0.0120539
0.0164235
-0.00775302
-0.0144099
-0.000159776
-0.000576368
0.0157064
0.018787
-0.00232679
0.1293
0.005535
-0.00321432
0.00613399
0.0115527
-0.00770701
-0.00233979
0.138861
0.0148165
-0.00368212
-0.00114611
-0.000714446
-0.0522319
-0.00297391
0.00885236
-0.000560548
-0.00431246
-0.00227244
0.039829
-0.000562685
-0.0167419
-0.000585611
0.0190601
-0.000568882
0.00846973
-0.000549585
0.0795215
-0.000652252
-0.00243666
-0.0396973
-0.00795025
-0.00326469
0.00612416
0.00899948
-0.028927
-0.0029469
-0.00327005
0.00782216
0.015307
-0.0661689
-0.0289542
0.00585604
0.00841852
0.000935382
-0.0157462
0.00529823
-0.00164535
-0.000777661
-0.000276956
-0.00225668
-3.68052e-05
-0.00250189
0.0008074
0.013464
-0.000290646
0.0042158
-0.0229126
0.00594944
-0.00372586
-0.013982
-0.0414726
-0.000704634
-0.00611886
0.0863377
-0.000717342
-0.0647254
-0.00795996
0.00420958
-0.0107681
-0.000256932
-0.0140713
-0.0407177
-0.000138168
0.00495662
-0.00784128
0.00474762
0.0186735
-0.00525225
0.00280995
0.00415651
-0.0653878
0.014096
-0.00173015
-0.0044239
0.000625246
-0.00145495
-0.000114621
-0.000275176
-0.000854599
-0.00544399
-0.000609386
0.00539217
-0.000253977
0.0092893
-0.000769499
-0.00153474
-9.75546e-05
0.00126592
-0.00375533
-0.000107165
-0.0070533
-0.000131813
-0.00613134
-0.00144972
0.00918606
-0.000453487
0.0146252
0.0107433
-0.000468365
0.00282755
-0.0345646
-0.000868333
-0.00105476
0.00130523
-0.0127886
0.0192486
-0.0392396
0.00692532
-0.000585214
0.00225148
-0.00535209
0.0222204
-0.00132985
-0.00373873
0.00244325
-0.030496
-0.000748828
-0.00272727
-0.00292994
-0.00260622
-0.00560421
-0.00358615
-0.0387743
-0.000854521
-0.0756743
-0.000529849
0.0078157
-0.00666847
0.00573933
-0.0124322
-0.00837194
-0.00488873
-0.0322352
0.0352462
-0.00270144
0.0186497
0.00385288
-0.00027321
-0.00115323
-0.0243031
0.00941654
0.0050152
-0.000713469
-0.014503
0.00294047
-0.000962539
0.000119256
0.017891
-0.00114238
-0.00790502
0.00974461
0.0064449
-0.0020129
0.0119511
-0.00306348
0.00930134
-0.0036412
-0.00522582
-0.0108444
-0.00508648
-0.00615188
0.0418137
-0.00793349
-0.000397662
0.00313718
-0.00297075
-0.0558838
0.00128935
-6.56619e-05
-0.00179722
-0.031745
0.00525566
0.00770443
0.00921305
-0.00200215
0.00648311
-0.00672645
-0.0422586
0.00162133
-0.000287179
-0.00462503
-0.00978026
-0.00105809
0.00472464
-0.000421808
0.000726069
0.0229757
-0.00477052
-0.00687266
-0.00400709
-0.00046234
0.0657273
0.0075008
0.000616938
-0.00363224
0.0031391
0.00640914
0.0162545
-0.00045665
-0.0425092
0.00777629
-0.00366186
-0.000791609
0.00608068
-0.00269788
-0.0410587
-0.000836576
-0.0190172
-0.00027018
-0.000625967
0.00616593
-0.0171991
-0.000256524
-0.00189148
-0.00268011
-0.00164257
0.00481504
0.0232595
-0.00324544
0.0777025
-0.0276296
-0.00587513
-0.010933
-0.0477773
-0.000508349
0.0163131
0.00928783
0.0111732
-0.0168927
-0.000172616
-0.0743398
-0.00258646
-0.00589955
-0.0563883
-0.00234502
0.00976183
-0.00274519
-6.11214e-06
-0.000150153
0.00497406
-0.00791946
-0.0044972
-0.00306405
-0.000374036
-0.00403507
-0.000252594
-0.0150724
-0.00739325
-0.00174594
-0.00155586
-0.000593536
-0.000485795
-0.00172815
0.0507431
-0.000117654
0.00951216
-0.031827
-0.00116938
0.00573375
-7.06281e-05
-0.000938134
0.00217595
-0.0111101
-0.00280848
-0.000539358
-0.000482163
-0.0180825
-0.0100863
-0.000217558
-0.00086879
0.00017172
0.00185741
0.020534
0.00471406
-0.00071126
-0.0015695
0.00569239
-0.00341644
0.0721815
-0.00424969
-0.0027001
0.111509
0.00501113
-0.0502312
0.0110382
-0.000402639
0.0068105
-0.00448912
0.00640352
0.0143301
0.0287988
-0.0216159
-0.000618182
0.0795447
-0.00381501
-0.0248297
-0.0532996
-0.00692739
-0.00366757
-0.0151288
-0.000175007
-0.000137593
-0.00223244
-0.000903846
-0.00063028
0.0163853
-0.000274167
0.00976031
-0.00222608
-0.00519398
-0.0203388
-0.00573134
0.00157335
-0.000319187
0.0156
-0.00895714
-0.00431616
0.016388
0.00745417
-0.000812081
-0.000527121
-0.000312044
-0.0405916
-0.00843829
0.00865286
0.00685085
0.0249867
-0.000494959
0.00399526
-0.00411424
-0.00345969
-0.019649
0.00021012
0.0301752
0.00499738
-0.00399461
0.0357537
-0.000911227
-0.0730679
0.018964
-0.000283657
0.00540021
-0.00331702
0.110635
-0.0012942
-0.0631287
-0.000702262
-0.00122434
-0.000191737
0.000247619
-0.00555631
-1.20118e-05
-0.0100897
-0.0412176
-0.0165701
-0.00859816
-0.000627929
-0.0332717
-0.0281301
-0.0590852
-0.000963456
0.0902257
-0.0619652
-0.00384463
0.00548995
-0.0197201
7.25089e-05
-0.000982207
-0.00280067
-0.00103128
-0.00159255
-0.000649634
0.00978337
-0.0440807
-0.00496725
-0.00337769
-0.0468441
-0.0405299
0.0085112
0.00102845
-0.0023973
-0.00416406
0.00641978
-0.0039426
0.00575608
0.0126084
-0.0128546
0.0568088
0.00154993
0.0310758
-0.0357153
-0.00154994
0.00710732
-0.000521558
-0.000614247
0.0141151
-0.0143708
-0.00315642
0.0148825
-0.00311222
-0.000375717
-0.00608784
-0.00567346
-0.0614252
-0.0111065
0.0099417
-0.00126235
-0.010136
0.00182313
0.0741565
-0.0427237
0.009258
-0.00162733
0.00198971
0.0422841
-0.00225444
-0.00551606
-0.000372927
0.00443922
-0.00426257
-0.00360248
0.0072602
-0.0173266
-0.000852528
-0.00387743
-0.000576537
-0.000398863
0.00823045
-0.00339369
-0.00181554
0.0071686
0.00392919
-0.0145913
-0.00710272
0.00607549
0.0658774
0.0165985
-0.0012461
-0.00435602
0.00339583
0.00992701
-0.00386076
-0.00302169
0.0128908
-0.000819528
0.0567809
-0.0513427
-0.000164337
-0.00583955
0.0079581
-0.00640508
-0.035688
-0.00772495
-0.00229691
0.00289964
-0.0491037
0.00924667
-0.00355084
0.0914752
-0.0011378
-0.00312985
0.00785085
0.00540149
0.0063735
-0.00111
-0.002449
0.0106222
-0.00185573
-0.0253878
-0.0541617
-0.0222682
-0.00294733
-0.00689358
-0.00392092
-0.00228039
-0.00256368
-0.00482975
-0.00371322
-0.0034988
0.00994644
0.0164154
-0.00915454
-0.0125916
-0.00347604
0.000300543
-0.0107271
-0.000715799
-0.00376203
-0.00164237
-0.00757352
-0.0462198
0.00749832
-0.0618292
0.00158188
-0.00168936
0.0114537
-0.000262656
-0.0217555
-0.000489962
0.0088609
-0.000852976
-0.00138551
-0.00623769
0.000121908
0.0565445
0.000291389
-0.0110212
-0.000456764
0.000366582
-0.00605124
-0.00763985
0.0074105
0.00390135
0.0477106
0.00124502
0.0102509
-0.00407529
-0.0128927
-0.00612871
-0.00431938
-0.000177795
-0.00127484
-0.0188071
-0.000206793
-0.00269863
0.00978691
-0.0181798
-0.0613312
-0.00126817
-3.87682e-05
0.00276475
0.0078828
0.00294436
0.0242138
-0.0030921
-5.91138e-05
-0.00712722
0.00575103
0.00381245
0.00792972
-0.0229347
-0.0212493
-0.00365572
-0.0637426
-0.00282776
0.0112973
0.000464203
-0.000122726
-9.24312e-05
0.00776173
0.0246708
-0.00131385
-0.0530947
0.0602181
0.00113097
-0.0190412
-0.00124475
0.00939374
-0.0264845
-0.0274953
-0.0075466
-0.00887662
-0.0123573
0.00737726
0.0047791
-0.0610334
-0.00578188
0.026128
0.0123267
-0.000183881
0.0134325
-0.0149644
-0.00326379
0.00534485
-0.0129349
0.00255571
-0.00378817
-0.000887531
-0.00205927
-0.0311876
-0.00139176
-0.0610817
-0.0516575
0.000250736
0.000333478
-0.021267
0.0123004
-0.00166004
-0.00350298
-0.0332043
0.0144318
0.000304495
0.00372892
0.0839664
0.00512804
-0.0182851
-0.0148409
0.00953687
-0.00186761
-0.0668365
-0.00206931
0.00264646
-0.0766332
0.10947
0.00274233
0.00797847
-0.0195183
-0.00353522
0.00979941
-0.00200665
-0.00435285
-0.00360414
-0.000101013
0.0172859
0.098737
0.00793903
-0.00274768
-0.00198327
-0.00249805
-0.0032952
-0.00272328
0.0465351
-3.30938e-05
0.0501356
-0.000776679
-0.00403662
-0.0408056
-0.00473306
-0.00930817
0.000973451
-0.00330573
-0.000623217
0.00970894
-0.000612368
-0.000223363
0.00177293
-0.000750232
0.045838
0.00428023
0.0157078
-0.042052
-0.000219653
0.00767882
-0.0664225
0.00245409
0.00896147
-0.000381446
0.0228673
0.0342351
-0.0499899
-0.00806335
-0.00376219
-0.00347081
-0.0103732
-0.00154125
-0.00655656
0.010911
-0.00553715
-0.00824019
0.0372014
-0.00578905
-0.0035153
0.0155748
-0.102997
0.00467331
-0.00209517
0.0083792
-0.000727534
0.00747746
-0.00102303
-0.000725503
0.00771076
-0.00188939
-0.00490645
0.0116485
0.00104235
-0.00292456
-0.00335889
0.00290165
0.00517654
0.00662589
0.000324212
-0.00915294
-0.00508895
-0.0178669
-0.000909155
-0.0123786
0.00019946
-0.000730455
0.124775
-0.00202975
0.00606683
-0.00712431
-0.0578137
0.00671455
-0.000643456
0.0027658
0.0091986
0.000295457
0.016605
-0.0624304
-0.00261786
0.0103508
0.0492775
-3.44811e-05
0.0112454
-0.00159237
0.0061548
-0.00127007
-0.0133978
-0.0120597
-0.000210276
-0.0157734
0.00825789
0.00659313
0.0133522
-0.000621606
-0.00273983
-0.00293906
0.000466213
0.00909782
-0.0014214
-0.000528715
-0.0118615
-0.000714417
-0.00354068
-0.000655808
-0.0332943
-0.000558263
0.00622972
0.00837221
-0.0115591
0.00912394
0.00505036
0.00573212
-0.0080163
-0.00157269
-5.29742e-05
0.00730587
-0.00273369
-0.0063372
-0.00127734
-0.0653114
0.00313097
0.00929606
0.0185163
-0.0103908
-0.00656824
-0.00726831
-0.00198168
0.00335419
0.00789973
0.00902827
-0.000587276
0.0316509
0.00731591
0.00070575
-0.00168102
0.0237823
-0.00225531
0.00847508
-0.00061769
0.0005311
-0.0189738
-0.0503065
-0.00439782
0.0062118
0.0283363
0.0654033
0.0111626
0.00440424
-0.0238985
-0.0037238
-8.78988e-05
-0.00420035
-0.00194426
-0.00029637
-0.000345254
0.00888634
-0.000528981
0.00195307
-0.000244473
-0.00185231
-0.000176295
-0.0600516
-0.0589988
0.000229392
-0.00025425
-0.0278463
-0.00141647
0.0168317
-0.00490061
0.0142201
0.00643045
-0.00194229
-0.00994413
0.00080896
-0.000664478
-0.00138343
-0.00361803
-9.03133e-05
-0.00179822
0.0081056
0.0134443
-0.0604141
-0.00732738
-0.00300118
-0.000995413
-0.000646783
-0.000538674
-0.000161601
-0.00161777
-0.0422767
-0.0245534
-6.21826e-05
-0.00111757
-0.0281137
-0.00172733
0.00501936
-0.00533587
-0.00358003
0.0058534
0.0112576
0.00764899
-0.00937297
0.00723041
-0.00201749
-0.00255041
-0.00107272
-0.000856664
0.0212668
-0.060552
-0.0665303
0.0365235
0.00292391
0.006319
-0.000877138
0.0232051
-0.0105897
0.00840189
-0.0490103
0.00710792
-0.0730111
-0.00298076
-0.0229872
0.00105212
-0.00391971
-0.0099615
0.0472881
-0.0572728
-0.000193817
-0.00515741
-0.00297762
-0.0270129
-0.00258607
0.00869298
-0.000769825
0.0053164
0.00859196
-0.00232203
-0.0224492
-0.0291576
-0.00985199
0.0069241
-0.00331408
-0.00101771
-0.0658156
0.00535743
-0.0018542
-2.56591e-05
-0.000166664
-0.0042635
0.00876535
0.000244594
0.018001
0.0081614
-0.000218442
-0.000611104
-0.0140536
-0.0625343
0.00533328
0.00971668
-0.000129622
0.000606824
0.00680184
-0.00120118
-0.00796443
0.0424724
-0.000697894
-0.000225535
0.0105848
-0.00526112
-0.0258967
-0.0636157
0.00789517
-0.0402474
-0.000782565
-0.022525
-0.00562076
-0.00350908
-0.000861938
0.0107242
-2.3794e-05
-0.0104235
-0.00882961
-0.00336765
-0.067098
0.0092531
0.00596593
-0.0240053
0.00474901
0.000571528
-0.0111975
0.00639517
-0.00369219
-0.00119212
0.0120936
0.00394667
-0.000790862
-0.00200187
0.00981165
-0.00376046
-0.00860172
-0.011288
-0.00138726
-0.0150277
0.00535128
0.000147724
-0.00411122
-0.00309028
0.00616694
-0.00032288
0.0114249
-0.00144695
0.0113706
-0.00331122
-0.00508971
0.00580257
0.010759
-0.00311479
-0.0108247
-0.00226236
-0.00394175
0.0108957
-0.0336663
-0.000270608
-0.0445051
-0.0032603
-0.00646617
-0.00343511
-0.0109799
-0.00543407
0.00249815
-0.000712039
0.00581228
-0.0196611
-0.000532137
-0.000482812
-0.0231717
-0.00366539
-0.00426382
-0.00605764
0.00628381
-0.00877417
-0.0112923
0.0097056
-0.00355071
0.00922742
-0.00419301
0.0269778
-0.00446858
0.00140864
-0.001207
-0.00113986
-0.0052232
-0.00238357
0.000587472
-0.000132619
0.00721458
0.00595088
0.00820062
0.0117852
-0.00302219
0.0153387
0.00465592
-0.0597687
-0.00048201
-0.000150308
-0.0374397
0.00651763
-0.0348837
0.00430962
-0.00799796
0.000589361
0.00745146
-0.0134158
-0.00270511
-0.00775136
-0.00109744
-0.000868953
-0.000728059
0.00432481
-0.00515444
-0.000200947
-0.000919126
0.00637397
-0.00372796
0.00915174
-3.44005e-05
0.00837293
-0.0503721
0.0569065
0.00876195
-0.0234204
-0.00132326
0.00462151
0.00167841
-0.00110852
-0.000670444
-0.00112515
-0.0132246
0.029276
-0.00159143
-0.000261409
-0.00690791
0.00104421
0.00167579
-0.000864147
-0.000560821
-0.000196882
0.00855693
-0.000185139
-0.00146483
-0.00210537
-0.00374201
0.0116962
0.0114179
-0.000122449
0.038656
0.00535182
-0.000535805
0.00685492
-0.000147231
-3.41973e-05
0.00950967
-0.000659219
-0.000111998
-0.00767896
-0.00603821
-0.0078151
0.00402366
0.0091689
-0.00365115
0.0284023
0.0070224
-0.000995451
0.00134868
-0.0587231
-0.00765129
0.0039297
-0.000595372
-0.000424484
-0.015272
-0.00198048
-0.00382271
0.0194594
-0.000993458
-0.0150598
-0.000699724
0.00944139
-0.0058579
-0.0148256
0.00235085
-0.00268382
0.00924788
-0.0042199
0.00253424
-0.000253149
0.0081462
0.00242142
-0.000650332
-2.01899e-05
-0.0311212
-0.046563
-0.051752
-0.000367366
0.00711754
0.0396706
-0.0126708
-0.00076103
0.0107328
-0.00011214
-0.00513225
-0.021749
-0.00948392
-0.00176729
-0.0246293
-0.000714116
0.000972229
-0.00169632
0.0113675
-0.0527833
-0.00405545
-0.00407137
-0.000739768
0.000923844
-0.000847171
-0.00300467
-0.000673739
-0.0114124
-0.000285769
-0.0432142
-0.00670178
0.00996433
0.0121541
0.00425047
0.00351179
-0.00362555
-0.00209008
0.00448082
-0.00176897
0.020033
0.0100248
-0.0218195
-0.000434652
-0.00201505
0.0880372
0.0189969
-0.00293301
0.0273214
0.00584733
-0.00103183
0.00855164
-0.000271889
0.00374377
-0.0116549
-0.00193988
0.00508839
-0.00197687
0.0248057
-0.00192802
-0.000303254
0.0169723
-0.00191257
-0.00819341
0.00520191
0.0176484
-0.000817043
0.0174252
-0.00521019
-0.0221485
-0.000693929
0.036394
-0.048263
0.00667856
-0.00107875
-0.00398711
-0.00321945
0.0023509
0.00585869
0.0067922
-0.0301669
0.0055425
-0.0247035
-0.021555
-0.0368844
0.00254038
-0.00386065
-0.0402247
-0.00147909
0.0234586
-0.00303089
0.0586662
-0.00949858
-9.46177e-05
0.000734959
-0.000537788
0.00730412
0.00536482
0.00481161
-0.00285374
-0.00579759
-0.0534145
-0.018303
-0.019012
-0.000457645
-0.000642986
0.00053014
0.00440883
-0.00425535
0.00932239
-0.00649678
0.00412307
0.00695249
-0.000173618
0.0329418
0.00779674
0.0307815
0.000801829
-0.000756926
-0.0268788
0.00851628
-0.0591034
-0.0121679
-0.00044554
-0.00265528
-0.0052743
0.00841277
0.000604087
0.011851
-0.00109892
-0.0027867
-0.000293643
-0.000401673
-0.0300974
0.0211359
-0.0148365
-0.00832061
-0.0285191
-0.00302159
-0.00174737
0.0231903
0.0185675
-0.00139086
-0.000141011
0.00814362
0.00347066
-0.00178242
-0.00288481
-0.0150925
-0.0640972
-0.00211578
0.00901899
-0.00274364
-0.00609564
-0.00278656
0.030952
0.0138166
-0.00351772
-0.00401167
0.00315137
-0.00318197
-0.0542078
0.00142738
-0.0669564
0.00497994
0.0133769
-0.00185877
-0.00636035
-0.0637938
0.0775843
-0.000409855
-0.00335043
-0.00384695
-0.000369461
0.00153922
-0.000400527
0.0083506
0.02252
-0.00406324
0.00770305
-0.058763
0.00640467
-0.00896171
-0.0280702
-0.0115881
0.0321909
-0.000600941
-0.0647731
0.00652683
-0.000113993
-0.000286317
-0.0339881
-0.000874887
-0.0157134
0.00786581
-0.0245778
0.00732211
0.0139554
-0.00444376
0.00872941
-0.00208621
0.00917918
-0.0458622
0.0120615
0.00628844
-0.000470254
0.0167146
0.00499174
-0.00124691
0.00701183
0.00429897
0.00505197
-0.0692029
0.00102978
-0.0436351
-0.00314835
0.0297103
-2.8776e-05
-0.00156955
0.0145675
-0.0324915
-0.00908037
0.000567453
-0.000659657
0.0352699
0.00564371
0.0172795
-0.000416754
-0.00220323
-0.0695106
0.00545952
0.00388472
-0.000130617
0.00719453
-0.00183851
-0.00380236
-0.00124331
-0.00621693
-0.000668379
-0.000443128
-0.00106919
0.00899146
-0.00866771
0.00316993
-0.0233842
-0.000550467
-0.0288913
-0.000792741
-0.0081531
-0.00703989
-0.0022256
0.00287724
-0.00800901
0.0116814
-0.0111985
0.0231581
-0.00338809
-0.00643859
0.00630239
-0.000663724
0.00472151
0.00176438
0.0219727
0.0074446
0.0803202
-0.00229894
0.00305413
0.00714403
0.0163661
0.020649
0.00109942
-0.000563647
0.000144706
-0.0011478
-0.00279122
-0.00462762
0.0687903
0.0955199
-0.00628812
-0.0103814
0.00916757
0.014939
-0.00700103
0.000639303
-0.0794877
0.00952936
0.000179202
0.00672614
-0.00250222
-0.000670349
-0.0102173
-0.0227929
9.25351e-05
0.02079
-0.000488163
-0.0685859
-0.00172348
0.00671673
-0.0233133
-0.000536177
-0.0277202
0.00186823
-0.0125069
-0.0022038
-0.000952846
0.000138092
-0.0539221
-0.0213626
0.0085365
-0.00121881
0.0179831
0.00545009
-0.0436743
-0.0452461
0.0132657
0.00506216
0.00884072
0.00673506
-0.00285155
0.0077542
-0.00792572
0.00978818
-0.00459046
-0.000154352
0.00144969
-0.00121563
-0.0034927
-0.0652904
0.00108494
-0.00181084
-0.00535102
-0.000741229
0.00285404
-0.0392111
-0.0671711
0.00563339
0.0287113
-0.0640285
-0.00305569
-0.0699145
0.00207397
0.00688487
0.00928298
0.0109467
0.00685708
-0.0173583
0.00126693
-0.06613
-0.0490831
0.00228434
-0.00597409
0.00923621
-0.0521383
-0.00393412
-0.00189399
-0.0732402
-0.0648316
-0.0596434
0.0039866
-0.00181278
0.00760091
-0.000192011
-0.000253575
-0.00387334
-0.000642154
0.0092395
-0.0101225
-0.000770201
-0.00234456
0.00494453
0.00809424
0.0103374
-0.05667
-0.00404657
-0.000823024
-4.08696e-05
0.00545945
-0.00899998
0.0176419
-0.0077626
0.00713598
-0.00955928
-0.000275408
0.00568805
-0.000617064
0.00844224
0.00687556
-0.00454037
-0.0268802
-0.0237554
0.0289795
-0.00348772
0.00658404
-0.00372916
-0.00537629
-0.066476
-0.00283726
-0.00878252
-0.0249958
-0.0294376
-0.00283715
-0.0709219
-0.0275662
0.00333679
0.00472968
-0.00100986
-0.000837747
0.00645499
0.0164406
-0.00170387
-0.00577254
-0.00219148
-0.000143308
-0.0014104
-0.00831617
-0.000136704
0.00941574
-0.00201859
-0.000101572
-0.0037369
0.0295275
0.00107383
0.00508183
-0.00983706
-9.72365e-05
-0.0140795
-9.67622e-05
0.000100121
-0.000691183
-0.00827797
-0.0592474
0.00131504
0.0225339
-0.0125591
-0.038959
-0.00371098
-0.00368862
-0.00331879
-0.0419818
-0.0215344
0.000890253
-0.000371451
-0.0717958
0.00980399
0.000597795
0.00762198
0.0403651
-0.00364083
0.00591502
-0.000223582
0.0469072
0.00208666
0.00566686
0.00688399
-0.000602587
-0.000610292
-0.000119187
-0.0100844
-0.0343918
-0.0596726
-0.011777
0.00968896
-0.000564591
0.00663758
-0.000849826
-0.00137903
-0.000477736
-0.000711309
-0.00300081
-0.000193362
-0.00494741
-0.0648847
-0.00158126
-0.0505502
0.0111434
-0.00065777
-0.00131611
-0.00733101
0.000982948
-0.000915184
0.000466934
-0.00981078
0.00751561
-0.000928721
-0.000292446
-0.0013481
0.00430632
-0.00259492
-0.0579387
-0.00633242
-0.000343167
-0.00230276
0.00564608
0.0157248
-0.00290208
-0.00328693
-0.0554375
-0.000476334
0.00973069
0.00624885
0.0056619
0.00141558
0.00839758
0.00547126
0.0322405
0.00921478
-0.000311888
0.000282384
0.00111241
0.0012528
0.00295923
-0.0240751
-0.00707735
0.00592194
-0.000546349
-0.0137086
0.00689353
0.000640178
-0.00815876
-0.000546284
-0.00558224
-0.03086
-0.0021731
0.045062
-0.000485278
0.00471782
-0.000220775
0.00609147
-0.057894
8.45041e-05
0.0330209
-0.000783971
-0.00900235
-0.000603094
-0.000816591
-0.00347557
0.00832124
-0.000122507
-0.000198682
0.00876473
0.0285203
0.00457599
0.00724252
-0.00683597
-0.0279953
0.00833875
-0.00851998
-0.000148655
-0.0229323
-0.0125473
0.000397853
0.00382076
0.00352615
0.00931478
0.00594307
0.00406142
0.000511524
-0.000620357
0.0421616
0.00775063
-0.000457807
0.00681951
-0.0118793
0.00499428
0.00529659
-0.00711594
-0.00192793
-8.66373e-05
0.000305434
0.00776319
8.3562e-05
-0.00773237
0.0120858
-0.00504432
-0.000911386
0.00101836
0.0110577
-0.00847877
-0.0196751
-0.000138221
-0.0321221
-3.06462e-05
-0.00592177
-0.00232457
0.000444031
0.000106232
-0.00046559
-0.0119549
-0.00104877
-0.000231425
0.00613205
-0.0138245
-0.0386528
-0.000584184
-0.000433082
0.00471282
-0.000900535
-0.0151255
0.00628085
0.00229063
-0.00425365
-0.000460325
-0.0037535
0.0163266
-0.00117934
0.00472237
-0.000447395
-0.00509991
0.0156231
-0.0258067
0.00785754
-0.0261311
-0.00141123
-0.00523358
-0.00098778
-0.0389098
0.000133159
0.00578697
-8.37854e-05
0.00668214
-0.000617387
-0.00107691
-0.00224965
-0.0511689
0.0154022
-0.0584305
0.00480309
0.00479179
-0.00399231
-0.000291606
-0.0157668
-0.000501269
-1.12835e-05
-0.00201199
-0.00277172
-0.00119953
0.00609692
-0.000370607
0.00683535
-0.0124052
-0.0138342
-3.31444e-06
-0.010368
0.00348772