/*--------------------------------*- C++ -*----------------------------------*\
  =========                 |
  \\      /  F ield         | OpenFOAM: The Open Source CFD Toolbox
   \\    /   O peration     | Website:  https://openfoam.org
    \\  /    A nd           | Version:  9
     \\/     M anipulation  |
\*---------------------------------------------------------------------------*/
FoamFile
{
    format      ascii;
    class       surfaceScalarField;
    location    "110";
    object      phi;
}
// * * * * * * * * * * * * * * * * * * * * * * * * * * * * * * * * * * * * * //

dimensions      [0 3 -1 0 0 0 0];

internalField   nonuniform List<scalar> 
167688
(
-0.042233
0.0254557
0.0167773
0.00803144
-0.0735495
0.065518
0.0359513
0.0485753
-0.0845267
0.0400126
-0.0857605
0.0457479
0.0995704
-0.0944187
-0.0051517
-0.0730356
0.0130949
0.0599407
0.041959
-0.0246856
-0.0172734
-0.0380378
0.0780505
-0.125461
0.0425171
0.0829443
-0.0261332
-0.00372324
0.0298564
-0.0516808
0.0597122
-0.0616953
0.0349562
0.0267391
0.117534
-0.089917
-0.0276166
-0.0464592
-0.015236
-0.0373351
0.0169849
0.0203501
0.0414929
0.032993
-0.0744859
0.0189692
-0.00208402
-0.0168851
0.0211952
-0.0259692
0.00477399
0.0300737
0.0389092
-0.0689829
0.108426
-0.0663277
-0.0420983
-0.0840132
-0.0227295
0.106743
0.0471687
0.0546344
-0.101803
0.062592
-0.0325182
-0.0890147
0.0646611
0.0243536
0.0823343
-0.00328384
-0.0790505
-0.0783257
0.0275895
0.0507361
0.0124206
0.0103832
-0.0228038
0.071822
-0.0802062
0.00838422
-0.091166
0.0181305
6.16526e-05
-0.0840748
0.0117423
0.0691934
-0.0809357
0.0613206
-0.057945
-0.00337559
0.136566
-0.122672
-0.0138943
-0.00543246
0.00289061
0.00254185
-0.0713891
-0.0540723
-0.11857
0.0788448
0.0397252
0.0526935
0.0557325
0.00444825
-0.0140999
0.00965168
0.027117
0.038133
-0.0652499
-0.0579755
-0.0370094
0.0949849
0.0341629
-0.0924235
0.0582606
-0.0637285
0.0141213
0.0496071
-0.0745838
-0.0108168
0.0854006
0.065426
-0.0294746
0.0411382
-0.019943
0.0404965
-0.0672106
0.0267141
-0.00523058
-0.000201874
-0.119976
0.0116518
0.108324
-0.101014
0.0354092
0.0656053
-0.00201563
-0.0617128
0.0707499
-0.0296474
-0.0411024
-0.0264218
0.0234728
0.00294898
0.0918837
-0.0899483
-0.00193539
-0.0550203
0.0821373
0.0064788
-0.0703371
0.0638583
0.0227929
0.0191661
-0.0668378
0.0438999
0.022938
0.0679049
-0.0137508
-0.0541541
-0.0344187
0.00423752
0.0301811
0.0726578
-0.0321613
0.00854211
0.0326206
-0.0411627
-0.0556816
-0.0642942
0.118032
-0.0349122
-0.0831203
-0.000508652
0.118541
-0.00719352
-0.0295546
0.0367481
0.126284
-0.0733033
-0.0529808
0.0143054
-0.00985716
0.114289
-0.0899507
-0.0243382
-0.061224
0.00539318
0.0558308
-0.0854901
-0.0163808
0.101871
0.0562403
0.0116646
-0.00441222
0.00151412
0.0028981
-0.0620654
-0.0269493
-0.0269039
0.0212611
0.00564275
-0.0103652
0.0386606
-0.0282955
-0.0094742
0.0124829
-0.00300866
0.090353
-0.0056511
-0.0847019
-0.0194401
0.0464422
-0.0237807
-0.0226615
-0.0589464
0.00392611
0.0145431
0.0627323
-0.0772754
-0.00218688
-0.00728733
0.0478608
0.0228891
-0.0669176
-0.0114081
0.112165
-0.0706722
0.0157944
-0.0700389
0.0542445
0.0718098
-0.0507279
-0.0210819
0.0671832
-0.0607044
0.011258
-0.010664
-0.000594005
-0.0665042
0.0847204
-0.0182162
0.136741
-0.0593937
-0.0773476
-0.0499259
-0.0686441
0.035329
0.0364808
0.0241872
0.0753832
0.0341161
-0.0444813
0.118484
-0.0281314
0.0759066
-0.0507335
-0.025173
-0.028188
-0.00914711
0.0787713
-0.067029
-0.053681
-0.0131569
0.0592501
0.0582836
0.112986
-0.108559
-0.00442665
-0.0928474
0.0668679
0.0259795
0.0632772
-0.102658
0.039381
-0.00840783
0.0383748
-0.029967
-0.0167394
0.0040689
0.0126705
-0.0484515
0.0412579
-0.0599062
0.0953893
-0.0354831
0.0784975
-0.117557
0.0390597
-0.0640174
0.0798118
-0.00180258
-0.00260965
-0.0481898
0.0454391
0.00275068
0.0454392
0.031865
-0.0773042
-0.0723947
0.0470072
0.0253875
-0.0754649
0.0142409
-0.0576605
0.0202185
0.0374421
0.042435
-0.00488544
-0.0375496
0.00651513
-0.0725473
0.0660322
0.00765725
0.00360078
-0.127823
0.089902
0.0379207
0.0510354
-0.0822746
0.0312392
-0.00811118
0.0799332
-0.0399181
0.0137849
0.0575285
-0.0827128
0.0251844
-0.0553841
0.089547
-0.019965
0.0832422
-0.00150296
-0.0176975
0.0192004
0.00375846
0.0629523
-0.0667108
-0.0856789
0.0219916
0.0636873
0.0327498
-0.0411576
-0.030374
0.0879025
0.0303502
-0.0179296
0.0193782
0.0739033
-0.0932815
0.0209033
-0.00437188
-0.0165314
-0.0167801
0.0549131
-0.104311
0.0463357
0.128359
-0.0909164
-0.0374427
0.103061
-0.0745079
-0.0285534
-0.0443062
-0.0278879
0.0721941
0.0352443
0.00143885
-0.0366832
0.0399691
0.0630922
-0.0342625
0.033707
0.000555454
-0.0690791
-0.00408521
0.0731643
-0.00840348
0.013292
-0.00488849
0.019323
-0.0792292
-0.0695993
0.0388343
0.030765
0.0239761
0.00549156
-0.0294677
-0.118811
0.0380067
0.0808044
0.0757751
-0.06926
-0.0849177
0.0924492
-0.00753147
-0.0170608
0.000321391
-0.0368074
0.0839761
-0.0365731
0.0514079
-0.0148348
0.00612875
0.0857549
-0.0874519
0.0431457
0.0706396
-0.0350059
-0.0356336
-0.0864086
0.0749653
0.0114433
-0.025428
-0.0469668
-0.0366647
0.00224606
0.0375565
-0.00236008
-0.0351964
0.0982506
-0.0528114
-0.0994138
0.0671301
0.0322837
0.0075727
0.0458692
-0.0534419
-0.0733333
0.0364379
0.0368953
-0.086825
0.0942701
-0.00744511
0.0845246
-0.005535
-0.0789896
0.052204
0.00505794
-0.0572619
0.0226729
0.0386477
-0.0886038
0.00768573
0.080918
-0.0563836
0.0604109
-0.00402725
0.0177824
0.0426746
-0.060457
0.065176
0.00546353
0.089977
-0.0824043
-0.0187703
0.0103668
-0.0156899
-0.0470679
0.0627578
-0.0454387
-0.0823839
-0.0958413
-0.00517314
0.122246
-0.0304644
-0.0917818
0.0651684
-0.050455
-0.0147134
0.000152618
-0.0806955
0.0805429
-0.0514806
0.0357907
0.0833011
0.021075
-0.104376
-0.11823
0.0145469
0.103683
0.0721978
-0.102156
0.0299581
-0.0720053
0.0438617
0.0281436
-0.0455126
0.0330025
0.0125101
-0.0541506
-0.0452632
-0.00399229
-0.0828327
-0.0759674
0.0068883
-0.0694728
0.0194551
0.0500178
0.0105913
0.0494608
-0.0600521
0.0856132
0.0509532
-0.107317
0.0408126
-0.0199819
0.0710173
0.101172
-0.0478799
-0.0532922
-0.139403
0.0966727
0.0427299
0.0588239
-0.0679395
0.00911555
-0.00861321
-0.0395766
0.102625
-0.0461037
-0.0565212
-0.0293404
-0.0570682
0.00139406
-0.0133455
0.0119514
-0.0179672
0.042288
-0.0243208
-0.028411
0.0369531
0.027081
-0.0790208
0.0519398
-0.0927649
-0.0241829
0.116948
-0.0347387
-0.0229218
-0.0194753
0.00432464
0.0151507
0.0199202
-0.0444152
0.0244951
0.0298655
-0.0108964
0.0752626
0.0159674
-0.09123
-0.0985047
0.0747809
0.0237238
0.114499
0.00248379
-0.116983
-0.0153272
0.0393033
-0.0175848
0.0820032
-0.00609662
-0.0202978
0.040218
0.0554168
-0.0376344
-0.0564415
-0.00554258
0.0619841
-0.134642
0.0436367
0.0910058
0.0840883
-0.0311241
-0.0529642
-0.105519
0.0213851
0.0841344
0.0189909
-0.0436407
0.0246498
0.0954649
0.0308192
-0.00801296
0.0455694
0.0614695
-0.0123337
-0.0491358
-0.112757
0.0241536
0.0173027
0.0956833
-0.0183197
0.0471132
-0.0287935
-0.0418932
0.0701651
-0.0282719
0.0743974
-0.105542
0.0311448
-0.113602
0.0396053
0.0739964
-0.0726657
-0.0619767
-0.0424534
-0.029552
-0.114872
0.0489632
0.0659092
0.0294353
-0.000156336
-0.029279
-0.102558
0.0535974
0.0489609
-0.0853625
-0.0540402
-0.034757
-5.70951e-05
0.000425345
-0.00036825
-0.00184473
-0.00451581
0.00636054
-0.0606635
-0.0230532
0.0837166
-0.0379641
0.0489548
-0.0109906
0.113032
-0.0801771
-0.032855
-0.119383
0.05872
-0.0164564
-0.0672033
0.0836597
0.0395456
-0.0101103
0.06671
0.0102107
-0.0769207
0.0297607
-0.0637867
0.0340261
0.121885
-0.063238
-0.0586469
0.0222418
0.0618465
0.024613
0.0354133
-0.0600262
0.102809
-0.0195081
0.00791286
-0.00646004
-0.00145282
0.0930798
-0.0377362
-0.0553437
0.00222263
0.0566013
0.00576228
-0.09068
0.058446
-0.0478547
-0.0914212
0.00574232
0.0187875
-0.000435546
-0.018352
-0.0185328
0.0854007
0.0552067
0.00626276
0.0297452
-0.0287877
-0.000957493
0.0224567
0.0620679
-0.0160183
-0.0294944
-0.00298524
-0.0132449
0.0162301
-0.0770265
0.00755369
0.00286037
-0.0956253
0.0453807
0.0768655
-0.0097287
-0.0325599
0.0422886
0.0457916
0.0684973
0.0634716
-0.0388586
-0.0328197
-0.0131404
0.0459601
0.0671559
0.0354691
-0.0331512
0.00672941
0.0325143
0.0427414
-0.0752556
0.0217269
0.00364984
-0.0253767
0.02931
0.0171283
-0.0464383
-0.000311901
0.000277742
3.41587e-05
-0.000286923
-2.49777e-05
0.00262471
0.00528815
-0.0025559
0.0810534
-0.0812919
0.0661802
0.0151117
-0.0226162
-0.0151185
0.0377347
0.0550293
-0.0625263
0.00749703
0.101399
-0.083673
-0.0177258
0.0323025
0.0328659
0.100963
-0.0263992
-0.0745637
0.124468
-0.0311294
-0.0933384
0.0849601
-0.0812016
-0.0349319
0.0252032
-0.0965262
0.0535927
0.0429335
0.0107243
0.0603599
-0.0710842
-0.0459266
-0.0301335
0.0760601
0.111062
-0.056329
-0.0547332
-0.068112
-0.0467604
0.0574226
0.0439763
-0.0533159
0.0687346
-0.0154186
0.0854321
-0.0842156
-0.00121643
0.101874
-0.0599306
-0.0419434
0.104203
0.0325382
0.106482
-0.0413625
-0.0651192
0.0814682
-0.00927041
0.024342
-0.0426617
-0.110009
0.102391
0.00761788
-0.0799044
0.0629387
0.0169657
-0.0543964
0.0737746
0.00117538
-0.119406
0.0531215
-0.0746232
0.0215017
0.0857903
-0.0532761
0.000872585
-0.0736969
0.0728243
-0.0206397
-0.0960737
0.0505738
0.0454999
-0.127045
0.0386587
0.0883862
-0.0995685
0.0238218
0.0757467
0.00147705
0.0432352
-0.0447122
0.0474964
-0.0285055
-0.0201759
-0.0380911
0.0582671
-0.086472
-0.0160863
-0.104968
0.0732388
0.0317296
0.0970368
0.00483725
-0.0839117
0.0674552
0.0217177
-0.00081441
0.0103691
-0.031046
0.0206769
0.105856
-0.0204244
0.0689918
-0.00228177
0.0535554
-0.0865162
0.0329608
-0.0103369
-0.0239256
-0.0826124
0.00802862
-0.0587499
-0.0225421
0.0799914
0.0483678
-0.0666825
0.0247894
-0.0499774
-0.0216869
0.0716643
0.0544417
-0.0120066
0.0664148
7.22582e-05
-0.066487
0.100057
-0.0427224
-0.0573348
-0.0200659
-0.0527725
0.0728384
-0.0217513
0.0961487
0.0522032
0.0397194
-0.0919226
-0.0127057
-0.083368
-0.0381595
0.017239
0.0209205
-0.00981112
0.0112052
-0.0216712
0.0201682
0.107925
-0.0255912
-0.109156
0.0856692
0.0234871
-0.0862501
0.0293368
0.0569133
-0.0302485
0.0600091
-0.126299
0.00748744
0.0647473
-0.0544735
-0.0102738
-0.0078499
-0.0485337
-0.0594605
0.0740035
0.00616658
0.018176
-0.0243426
0.0106217
0.0261048
-0.0367264
-0.000248193
-0.0240074
0.0242556
0.0152681
0.00519381
-0.0204619
-0.0643999
-0.00252702
0.0669269
-0.0736059
0.00920605
-0.0186071
-0.00775751
0.0263646
-0.0891
0.0892526
0.125105
-0.124915
-0.000190011
0.0165283
0.0229001
-0.0394285
-0.0334085
0.0108927
0.0225158
0.0540471
0.0710582
0.0826129
0.0174442
-0.00767954
0.00661285
0.00106669
0.034296
0.0875889
0.000416722
-0.000473817
-0.0254294
-0.0127301
-0.0123373
-0.0365633
0.0489006
0.0798362
0.0266455
0.0493017
-0.0819461
0.0326443
-0.0277824
-0.008143
0.0359254
0.00644315
-0.0342256
-0.0306137
-0.0131826
0.0437962
0.0180361
0.00610808
-0.0241442
-0.000483019
0.000359355
0.000123664
0.12769
-0.0428946
-0.0847954
0.0697793
0.0579106
0.0781074
-0.0804786
0.00237116
-0.0320509
-0.00850883
0.0405598
0.106723
-0.0499659
-0.0567566
-0.0584212
-0.0686237
0.087638
-0.0969378
0.00929978
0.0370621
-0.0205338
-0.00363612
0.0616138
-0.0579777
0.00519897
0.0479226
0.105015
-0.00669217
-0.0983227
0.0223118
0.0827031
0.00202568
-0.0584672
-0.0391005
0.0164843
-0.0294344
0.0310145
-0.00158012
-0.0352535
-3.29133e-06
0.0352568
0.00582904
-0.075331
0.0695019
-0.0346221
0.0777753
-0.0431532
0.0305809
0.023105
-0.0536859
-0.0275461
0.000642188
-0.0809008
-0.0156254
-0.0992217
0.065589
0.0336326
-0.0452136
-0.0219159
0.0671295
-0.0164854
0.0134441
0.00304127
-0.0694802
0.0348581
0.00461565
0.0251295
-0.00739023
-0.0278632
-0.00419373
0.00456483
-0.000371097
0.0520068
-0.0213768
-0.03063
0.0213086
-0.0780903
0.0567817
-0.0242043
0.023279
0.000925305
0.0705346
-0.0358263
-0.0347082
0.00533825
-0.0908283
0.108739
-0.0245442
-0.0841944
0.111319
-0.0933351
-0.0179836
0.0693994
-0.00298467
0.0671801
-0.0907834
0.0236033
-0.0416003
-0.0443202
0.0859205
0.0935813
-0.0264012
-0.0737167
0.0536508
0.0474013
-0.0678226
0.0204214
0.0310588
0.0432517
-0.0743106
0.0533001
-0.0518231
-0.100358
0.0911479
0.00920983
0.0559659
-0.0668342
0.0108683
-0.0157025
0.0260716
0.0794406
-0.110698
0.0312571
0.0629903
0.00214123
-0.0651316
0.0832128
-0.0805276
-0.00268519
0.0896251
0.0113378
0.0640392
0.0121879
-0.0762271
0.00965467
-0.0428376
0.0331829
0.0922081
-0.0200482
-0.0721598
0.0346216
-0.0547975
0.0271501
0.0433844
0.0533436
-0.0949439
-0.0582334
0.0276197
-0.0713195
0.00800008
0.0633194
0.0149501
0.00370373
-0.0186539
0.00789857
-0.0327668
0.0248682
0.024111
-0.0179445
0.0658256
0.0242904
-0.0901161
-0.00428735
0.0690346
-0.00827739
0.00643266
-0.0239245
-0.00228759
0.0262121
0.0617951
0.00224407
-0.0177735
0.0699767
0.0738915
-0.0428327
0.0155992
-0.00352501
-0.0120742
-0.0939301
0.0098412
0.0840889
-0.131969
0.118926
0.0130432
-0.024925
0.00631792
0.00830302
-0.0322275
-0.08406
0.0340826
0.0202682
-0.0654818
0.0377499
-0.00250561
-0.0379797
0.0890527
-0.051073
0.0152027
0.0642379
-0.0137731
0.0688024
-0.0112812
0.0648366
0.00319969
-0.000454339
-0.00274535
0.0660864
-0.0839098
0.0178234
-0.051703
0.0787839
0.0300031
0.0192115
-0.0492147
-0.0743536
0.0752262
0.0352274
0.0735112
-0.0587145
-0.0108849
0.0668556
-0.0561313
0.0577196
-0.0795561
0.0218364
-0.00586996
-0.0320942
0.058281
0.029102
-0.087383
0.0712077
0.00948867
-0.0806963
0.0502634
0.00174334
0.0431018
-0.0890284
0.0994135
-0.0416409
-0.0577725
0.0144776
0.0731605
0.0539813
0.0605177
-0.0836754
0.0123559
-0.0732931
0.00749474
0.0657983
-0.0117069
0.0443388
-0.0326319
-0.0259946
-0.0379691
0.0639637
0.132975
-0.0803729
-0.0526018
-0.0369489
-0.0685706
-0.0885712
0.0923675
-0.00379627
-0.0283325
-0.071236
0.0266984
-0.0114302
0.000641991
-0.000482452
-0.000159539
-0.0659437
0.0623076
0.0509864
-0.00454421
-0.0163273
-0.0506107
0.066938
0.0198361
-0.00104853
-0.0205712
-0.0252659
0.045837
-0.0813144
-0.00493572
0.0547174
0.0583148
0.0497928
0.0831819
0.0932882
-0.0341913
-0.0590969
0.0463181
-0.0550008
0.0086827
-0.0310104
-0.048894
-0.034189
0.09247
0.0439214
-0.0342667
-0.088296
-0.00435377
0.0926498
-0.121406
0.0945183
0.0268872
-0.0877235
0.0123654
0.0753581
0.113807
-0.0027443
0.118702
-0.0649749
-0.0537275
-0.0343452
-0.0348361
0.0691813
0.101589
0.0171136
0.00607453
-0.0943706
-0.0030867
-0.0502292
0.127655
-0.0678154
-0.0598396
-0.0892433
-0.0127947
0.102038
0.142242
-0.0484557
-0.0937866
0.0259012
0.0124033
-0.0383046
0.115556
-0.110746
-0.00480944
0.105753
-0.0345449
0.0218662
-0.0092478
0.0226804
-0.0134326
0.0194057
0.0365199
-0.0559256
0.0440785
0.0672402
-0.000776717
0.0102583
-0.00948155
-0.0738287
0.0835524
-0.00972377
0.0458303
-0.119659
0.107507
-0.0142192
0.0144832
0.00111598
-0.0124164
-0.0383589
0.0507752
0.0904778
-0.0266836
-0.0637941
-0.0270881
-0.0384769
0.065565
0.0642175
0.0602504
-0.0905585
0.0856032
0.00495529
-0.0264741
-0.0219645
0.0484385
-0.000226803
0.0261271
-0.0259003
-0.0953237
-0.0185755
0.113899
-0.0190057
-0.000469617
-0.0974192
0.00884798
0.1125
-0.0813221
-0.0311778
-0.0944249
0.0564452
0.0195412
0.0585662
-0.00257906
0.0171183
-0.0145392
-0.0192229
0.0162377
-0.124439
0.0595618
0.0648769
0.0608175
-0.0275357
-0.0332818
-0.0268601
0.0770194
-0.0501593
0.00656177
-0.0120363
0.00547455
-0.0986399
0.086771
0.0118689
0.12422
-0.0123471
-0.111873
0.1124
-0.0465743
0.0861955
0.0380248
-0.0051314
0.0116932
0.0382076
-0.0272374
-0.0109702
-0.0730198
0.0206465
0.0523734
-0.0579842
-0.0671582
-0.00586168
0.0380277
-0.0519296
0.0139019
0.0635117
-0.0075458
-0.0177433
-0.0626328
0.0803761
0.0290728
0.00913479
-0.0837776
0.00329362
0.080484
0.0384898
0.0346338
-0.0731236
0.0212032
-0.0481447
0.0269415
-0.0586857
-0.0627198
-0.0367462
-0.0724101
0.0258942
0.0124526
-0.0383469
0.0583306
0.0951885
0.0362362
-0.0283377
0.00783019
-0.0014506
-0.00637959
-0.0978503
0.107093
-0.00924269
0.0567648
-0.0848122
0.0280474
-0.0626034
0.0282581
-0.00722581
-0.000453733
0.0208028
-0.111361
-0.0804451
0.0769233
0.00352183
2.92962e-05
0.000248446
-0.0832629
0.0669356
-7.90003e-05
-0.000207923
0.068
-0.02555
-0.0424499
0.0309495
-0.0426564
-0.070777
-0.00111563
0.0718926
-0.00264779
-0.0246916
0.0273394
0.113515
-0.0313648
-0.0821502
-0.0583307
0.0996816
-0.0413509
0.0729693
-0.00957791
-0.0633914
-0.0648648
-0.00842826
0.0968486
-0.0446447
-0.0296661
0.00546177
-0.013644
-0.0867138
-0.0479787
-0.0839906
-0.0657675
0.0290371
0.0367304
-0.0197567
0.0826392
-0.0628825
-0.0137297
0.0618524
-0.0481227
-0.0136993
-0.0816244
-0.0429217
0.0484404
-0.00551866
0.000624296
0.0374034
-0.0825292
-0.00706982
0.089599
-0.00116633
0.0579482
-0.0567819
0.0850125
-0.0120432
0.0255942
-0.0591372
0.033543
-0.0153006
0.127801
0.0687404
-0.0431462
0.0916623
0.0150602
0.0118965
0.0713163
0.0754884
-0.0915246
0.0160361
0.0186806
-0.0724531
0.0537725
-0.0482761
0.088318
-0.0400419
0.0605386
0.0406335
-0.0347181
-0.046463
0.0811812
-0.0172743
-0.0400991
0.0573734
-0.0143389
0.0720585
-0.00242103
-0.047991
0.050412
0.0918711
0.00120869
-0.05022
0.0237459
0.0644555
0.0165072
-0.0809628
0.0924778
-0.0223275
-0.0701503
0.0385213
-0.0340723
-0.00444909
-0.143515
0.0490468
0.094468
0.00729817
-0.0590489
0.0517507
-0.0526577
-0.00534616
0.0580039
0.0108158
-0.0744069
0.0635911
-0.0896774
0.0374682
0.0522091
0.0136823
0.00694079
-0.0206231
-0.112634
0.0288568
0.0934659
0.0915345
-0.040328
-0.0512065
0.0438583
-0.0611326
0.0245543
-0.0459519
-0.00922395
0.0551758
-0.0928539
0.0712726
0.0215813
-0.0408595
-0.0691494
-0.0614518
0.0722675
-0.0162673
-0.0729759
-0.0131618
0.0390631
0.106736
-0.0582381
-0.0484982
-0.0816217
0.0478988
0.0337229
-0.022189
0.0714908
-0.0554229
0.0430855
-0.00662054
-0.00986487
7.96504e-05
6.19063e-05
-0.000141557
0.0928859
-0.0665337
-0.0263522
-0.000205784
-0.0031642
0.00336998
0.0846959
-0.0210782
-0.0636176
-0.0997279
-0.0247108
0.118128
-0.0638112
-0.0543166
0.114409
-0.0297129
0.0966696
-0.093542
-0.00312759
0.0583922
-0.0781489
-0.11731
0.067164
0.050146
0.0329792
0.0636904
-0.0986971
0.0824786
0.0162185
-0.028199
-0.0522461
-0.02808
0.0300097
-0.00192975
-0.0264131
0.0332193
-0.00680626
-0.0154921
0.0145659
0.000926189
-0.00134877
-0.0406413
0.0419901
0.00910271
-0.00127252
-0.0436622
-0.0460152
4.0742e-05
0.000601249
-0.0556572
0.0932878
-0.0376306
0.0375059
-0.0777871
0.0402812
-0.0447864
0.0402365
0.00454996
-0.0408127
0.0783186
-0.0237943
0.0805591
-0.0732958
0.032439
0.0408567
-0.0427047
0.0573544
-0.0146497
-0.0703872
0.0383362
0.0686553
-0.0145563
-0.054099
0.0395384
0.0178943
-0.0574327
-0.0413618
0.040013
0.107609
-0.0154007
0.0430656
-0.0137472
-0.0293185
0.0716635
0.00628183
-0.0779453
-0.0613525
-0.0294218
0.0907743
-0.0598646
0.0139128
0.0283464
-0.0309942
-0.0704328
-0.073082
0.0230707
-0.0713468
-0.0722348
0.0557465
0.0164883
-0.0221525
0.0433557
0.0946694
-0.055844
-0.0388253
-6.81377e-05
0.0209876
-0.0209194
0.0967925
-0.0462677
-0.0505248
0.115456
-0.0434161
-0.0720397
0.0394368
0.0285097
-0.0679465
-0.0220089
-0.0227775
0.00993646
0.000734941
-0.0106714
0.0953983
0.0208831
0.0710649
-0.091948
0.00482912
-0.0604863
-0.022428
0.0785931
-0.0561651
-0.010832
0.0401421
0.104051
-0.0233306
-0.0807203
-0.0582884
0.0403212
-0.0696441
-0.00198309
0.0716272
0.0602252
-0.0949433
-0.0384397
0.036395
0.0020447
-0.0356232
0.0550288
-0.0145185
-0.0498368
0.0643553
-0.0905729
0.072291
0.0182819
0.0450053
0.0295914
-0.0745967
0.0463952
0.00716001
-0.0535552
-0.0343512
0.00793809
0.0341074
0.00895821
0.0107833
-0.0200311
-0.0586356
0.0311873
0.0274483
0.0786484
-0.00345925
-0.0751892
0.0380863
-0.0163595
-0.0655253
0.0728234
-0.0788555
0.124384
-0.045528
0.00159583
-0.0445175
0.00970113
-0.0885567
-0.0996153
0.0382628
0.0448974
-0.004037
-0.0408604
-0.0986971
-0.0879126
0.0701693
-0.000519546
-0.00116538
0.00168493
0.0462017
-0.0607202
0.0492581
-0.0192549
-0.00976605
-0.0481258
0.0578919
0.0543015
-0.0767295
-0.0660494
0.0586029
0.00744649
-0.0616204
0.0674494
-0.00784541
0.0519815
-0.0441361
-0.0453072
-0.0133285
0.0891859
-0.0678773
-0.054209
-0.0211449
0.0753539
0.0470257
0.0605072
-0.107533
-0.0876573
0.0519225
0.0357348
0.0294256
0.0458136
-0.0752392
-0.0387608
-0.0590896
0.0543487
0.00271136
-0.0570601
0.033442
0.0821139
0.0815983
-0.0420599
-0.0342733
-0.0314942
0.00560565
0.0133434
-0.0189491
0.00666977
-0.0877646
0.0810948
-0.0460412
-0.00156768
0.0476088
0.0891027
-0.091413
0.00231032
0.00395251
0.0289772
-0.0329297
0.0142647
-0.0168438
0.0356146
-0.0888663
0.0532516
0.0518428
0.0255893
-0.0774321
-0.0279157
-0.0893944
-0.00338922
0.0170715
0.0673259
-0.0844502
0.0171243
-0.0901316
-0.00120885
0.0913405
0.038945
0.0351996
-0.0741446
-0.0513665
0.0496392
0.0017273
-0.0126317
-0.0750918
0.021414
-0.0254553
0.00404131
0.0563459
-0.00995072
0.024647
-0.0184428
-0.00620414
0.0827827
-0.0197923
0.0203227
-0.0655116
0.0451889
-0.0681949
0.0155372
0.0984116
-0.0348692
-0.0635424
-0.0253475
0.0647843
-0.0576057
0.105076
-0.0474703
0.104609
0.00772648
-0.112335
-0.0667638
-0.00840999
0.0751738
0.00849636
-0.0807312
0.0995378
-0.0698121
-0.0297257
-0.0387055
0.0564779
-0.0177724
0.0985688
-0.046726
-0.059378
0.0802611
0.0362238
-0.036472
0.0175215
-0.0857568
0.0682353
-0.0920044
0.0252405
0.0189449
-0.0191717
0.0736843
-0.00502896
0.0646076
-0.0345232
-0.0300844
-0.0273643
0.0158035
0.0115608
0.00917772
-0.00995444
-0.0282475
-0.0542817
0.0950852
-0.070161
-0.0249242
0.0117886
-0.0745844
0.0627958
-0.104131
0.0271931
0.0769376
0.0192252
0.0853836
0.0813139
-0.013988
0.0178124
0.0560452
-0.0738576
-0.131573
0.0607398
0.070833
-0.0976933
-0.0338795
-0.0422196
0.0700256
-0.027806
0.00722793
-0.00686013
-0.000367796
-0.0756675
-0.0182431
0.0939106
-0.0052306
-0.068175
0.0734056
0.0375806
-0.0269589
0.00514731
-0.0390637
0.0339164
0.0391354
-0.0392036
-0.111312
0.00718162
0.0913805
-0.0726999
0.0118876
-0.0205011
0.00861352
0.0834991
-0.00483033
-0.0786688
0.0395016
-0.0898097
0.0503081
-0.0351234
0.0831255
-0.0480021
-0.125703
0.0532923
0.0724106
0.0371215
-0.0319742
0.0424779
-0.118145
0.034821
-0.0665026
0.0316816
-0.10316
0.0645722
0.0385877
0.0552827
-0.0432762
-0.0120066
0.104785
-0.0524105
-0.0523744
0.00992364
-0.0743994
0.0644758
-0.0269425
-0.00646607
0.0908818
0.0131692
0.0306316
-0.062872
0.0322404
0.0856149
-0.0461133
-0.030485
-0.0563956
0.0868806
-0.0381794
0.00550659
0.0326728
-0.0711218
-0.0545811
0.077027
0.0176424
0.00558778
0.00115111
-0.00673889
-0.0778757
0.0896643
-0.0701548
0.0278724
0.0422824
-0.0759309
0.0431112
0.0146478
0.052611
-0.0672588
-0.0413418
-0.0449259
0.0862677
-0.036793
0.0394383
-0.00264533
0.00692807
0.0821746
-0.0513257
-0.030296
-0.0598408
0.0392696
-0.0422753
-0.0563646
-0.065287
0.00400087
0.0612861
0.0122491
0.0806368
0.0356958
0.056782
0.0286757
-0.0842417
0.055566
0.0619197
0.0428652
-0.0139393
-0.0462008
0.0601401
-0.0801094
0.031262
0.0488474
-0.102587
0.0201635
0.0824239
-0.0940134
0.0190377
0.0749756
-0.0416888
-0.0525447
0.0942335
-0.00646079
0.00226705
-0.00691981
-0.0296533
-0.0782269
0.0542605
0.0239663
-0.00220764
0.0565564
0.114405
-0.103954
-0.0104504
-0.0476856
0.0763614
0.0343767
-0.0163406
-0.0050088
0.0317914
-0.0267826
-0.0311007
0.0985648
-0.0674641
0.0018481
-0.00236765
0.0611106
-0.0696196
0.008509
-0.0972025
0.0669714
0.0302312
-0.0732491
-0.0234772
0.0967262
0.01013
-0.0488355
-0.0686636
-0.00956329
0.0455269
-0.0766275
-0.000127144
-0.000355875
-0.00705375
0.0403668
-0.033313
0.0972178
-0.0677922
-0.0611694
-0.0419905
0.0704565
-0.0946429
0.0241864
0.00988107
-0.0110621
0.00118101
-0.0498836
-0.0377737
-0.0183185
-0.0265092
0.0448277
0.0482496
-0.0956824
0.0474328
-0.0316266
0.0664476
-0.0701809
0.0848287
-0.0236188
-0.00374548
-0.041219
0.0894686
-0.0779327
0.0126457
0.074696
-0.0614463
-0.0132497
-0.0467219
0.0313014
0.0154205
-0.0814245
0.098946
-0.00790431
0.0637099
-0.0558056
0.0962472
0.0192086
0.0152864
-0.00534995
-0.042464
0.0797589
-0.0372949
0.0992464
-0.0344366
-0.0648098
0.0477954
0.00748734
0.0195144
0.0484856
-0.0384132
-0.0587893
0.0200909
-0.09334
-0.0505843
0.0322658
0.035486
0.107123
-0.0103306
0.0114563
0.0436058
-0.0550621
0.070478
-0.0440201
-0.026458
0.00086706
-0.0435717
0.00500543
0.00970085
-0.0147063
-0.0144151
0.00724053
0.00717461
-0.0666274
0.0642064
0.0517365
-0.0596408
-0.0477899
-0.0507148
0.00842562
0.019718
-0.0281436
0.0567785
-0.0261468
-0.0884372
0.0728512
0.015586
-0.104989
0.069866
-0.0209789
-0.0560875
0.0770664
-0.0597775
-0.0451909
-0.0923452
0.00390478
0.0884404
0.090874
0.00837243
-0.0516974
0.0583672
-0.0362276
0.00525491
0.0309727
-0.116693
0.0679704
0.0487227
0.113503
-0.0380754
-0.0754273
-0.0647301
0.0186889
0.0760522
-0.0760522
0.0634969
-0.0939819
0.0322314
-0.0172812
-0.0458952
0.0343408
0.0115544
-0.0819587
0.0807924
0.00499232
-0.0746364
-0.00763865
0.0133317
-0.00569301
-0.0954567
0.0683685
0.00335861
-0.000158922
0.078269
-0.0108616
-0.0674074
0.0884258
0.00998586
0.0687328
-0.0147049
-0.0540278
-0.0957282
0.0381225
-0.0847619
0.0351418
0.0496201
-0.0173594
-0.0285358
0.0720843
-0.113061
0.0409764
-0.00862008
-0.056422
0.0650421
0.085766
-0.0760773
-0.0096887
0.099436
-0.0943482
-0.00508772
-0.026214
-0.00240561
0.0286196
0.0631427
-0.0740552
0.0109125
0.0152145
-0.057286
0.0420715
0.048332
0.0651708
0.000616798
0.00661113
-0.0253838
0.00279377
0.0225901
0.085744
-0.0387183
-0.0885555
0.0892405
-0.000684965
0.0617694
-0.100756
0.0389862
0.0770579
0.0336817
-0.11074
0.00760089
0.0761652
-0.0837661
-0.106126
0.0851467
0.0920925
-0.033704
-0.0583885
0.09313
-0.0245583
-0.0685717
-0.0547165
-0.0311665
0.085883
0.0326094
0.0591932
-0.0918026
-0.0045069
-0.0718908
0.0763977
0.086328
0.00205837
-0.0883864
0.134218
-0.0536181
-0.0805997
-0.0626027
0.1029
-0.0402977
-0.131525
0.0745272
0.0569979
-0.102887
0.0265564
0.076331
0.0814102
-0.0787592
-0.00265097
-0.0694109
0.0641803
0.0231492
-0.0774322
0.054283
-0.00495466
0.077039
0.000157306
-0.0251337
0.0249764
-0.035295
0.112353
0.0390066
0.0355863
-0.074593
-0.087388
-0.0161364
0.103524
0.0418955
0.0189221
0.0833553
-0.0646956
-0.0186597
0.133524
-0.0273946
-0.106129
-0.0675298
0.0341338
0.033396
0.0468114
-0.0472032
0.000391861
0.105204
-0.0331062
-0.0720979
-0.0300276
0.102419
-0.0723919
-0.0337507
-0.0500414
0.0837921
0.0775443
-0.0336826
0.0171331
0.00998917
-0.0271223
0.0074245
0.000333677
-0.00775817
0.0467283
0.000278891
-0.0887965
0.0179651
0.0708314
0.0680493
-0.0944313
0.026382
0.045123
-0.000547873
-0.0445752
-0.0260946
0.0431622
-0.0170676
0.0927475
0.00679039
0.0805594
-0.0449448
0.0808154
-0.0407163
-0.0400991
-0.0159102
-0.023591
0.0395012
0.115702
-0.0594281
-0.0562737
0.0143289
0.0674546
-0.0817835
0.0354052
0.0294523
-0.0648575
-0.125524
0.0524721
0.0730521
0.0608605
0.0301893
-0.0910498
-0.0877782
0.0328718
0.0549064
-0.00368705
0.00368705
-0.0114108
0.116615
0.000577859
-0.00046739
-0.00011047
0.0291257
0.0575514
-0.0866771
0.0599507
-0.0323219
-0.0276288
-0.0905431
0.0367701
0.053773
-0.0531062
-0.0464851
0.0995913
-0.0515938
0.0543364
-0.0027426
-0.00631959
-0.0617979
0.0681174
0.0141998
0.0666782
-0.080878
-0.049832
0.0573735
-0.0075415
0.00463932
0.022751
-0.0273904
-0.0514469
0.0900531
-0.0386062
0.00919362
-0.0338793
-0.1118
0.0488568
0.0629431
-0.00465645
0.0792326
-0.0745762
0.103115
0.000995601
-0.104111
0.000134653
0.0097856
-0.00992025
0.0182695
0.0459663
-0.0642358
0.0489366
-0.0575567
-0.0221839
0.0926404
0.0294027
-0.0530216
0.0236189
-0.0508365
-0.0166933
-0.0293796
-0.0538782
0.0832578
0.074774
-0.0672138
-0.00756024
0.0265153
-0.0440235
0.0175082
0.0612968
0.0418186
0.0376468
0.0498532
-0.0875
-0.103921
0.028891
0.07503
-0.0498964
-0.0528908
0.102787
-0.0203848
0.0631924
-0.0428076
-0.000491413
0.0528537
-0.0523623
0.0969487
-0.0510371
-0.0459116
0.0234777
-0.0734824
0.0500047
0.112717
-0.0533359
-0.0593812
0.0802383
-0.0170955
0.0813428
-0.030277
-0.0510657
-0.11018
0.043841
0.0663393
0.0525375
-0.102163
0.0496256
-0.0188942
0.00282708
0.0160671
0.0847372
-0.00646816
-0.019183
-0.00693217
0.0261152
0.0768177
-0.0995671
0.0227494
0.0596745
0.024352
-0.0840266
-0.00991326
0.0277074
-0.0177941
0.0106867
-0.0521779
0.0414912
-0.136205
0.0789482
0.0572565
0.0729696
-0.0953208
0.0223512
0.0662679
-0.0210039
-0.0452639
0.0481763
-0.0193376
-0.0288387
-0.0566297
0.00370004
0.0529297
-0.0909595
0.0772994
0.0136601
-0.107663
0.0404593
-0.0831493
0.051227
0.0319223
-0.0775586
0.0639463
0.0136123
0.0188566
0.00787409
-0.0267307
0.000179283
0.0460692
-0.0462485
0.127597
-0.0741807
-0.0534164
0.0679678
-0.0530385
-0.0149293
0.00556872
-0.0259537
0.020385
-0.00739879
0.100039
-0.0926406
-0.0690445
0.0311176
0.0379268
-0.0264297
-0.0447328
0.0711626
-0.0666428
-0.0155374
0.0821802
-0.0343955
0.00496114
0.0772068
-0.100117
0.0229101
0.0928766
-0.064115
-0.0287616
-0.0820194
0.0886145
-0.00659508
-0.128371
0.0661774
0.0621939
0.0128403
-0.0129528
0.000112475
0.0303569
-0.0246592
-0.00569761
0.0314611
-0.0573698
0.0259088
0.0977909
-0.0791216
-0.0186693
-0.00877647
-0.0552855
0.064062
0.0686153
0.0313847
0.030972
0.00369855
-0.0346706
0.022599
0.0637143
-0.0863133
0.0376289
-0.031272
-0.00635693
0.0394795
0.00239912
-0.0418786
0.0859377
0.0267794
0.110818
-0.117663
0.00684561
-0.0711082
-0.000592769
0.071701
0.0967814
-0.00661172
-0.0901697
-0.0454962
0.0125834
0.0329127
0.0145173
0.0963002
0.0562203
0.00377792
-0.0599983
0.103062
0.00660577
-0.109668
0.081621
0.013279
-0.0949
0.0478779
0.0244732
-0.0723511
0.0397996
0.0283337
-0.0681333
0.00450115
0.098561
0.0912846
-0.0016892
-0.0895954
0.0921137
0.00466769
-0.073798
0.0290877
0.0447103
0.0420389
-0.0455885
0.00354958
-0.0374987
0.0341416
0.00335714
0.0645592
-0.0355725
-0.0289866
-0.00857281
-0.00152685
0.0100997
0.0425095
0.0220981
-0.0599541
0.0401224
0.0198317
-0.035702
0.0696826
-0.0339805
0.0256354
0.0191699
-0.0448053
-0.106762
0.107352
-0.000590589
-0.052172
0.0191831
0.0329889
-0.0156533
-0.0626715
0.0783247
0.0381213
-0.063437
0.0253157
0.0391927
-0.0342937
-0.00489899
0.100659
-0.10836
0.00770044
0.0217414
-0.022815
0.00107368
-0.0166535
-0.0641048
0.0807584
0.0405063
-0.0837358
0.0432295
0.0407365
-0.0172619
-0.0234746
0.0319335
-0.0458728
0.0568369
-0.0885955
0.0317586
0.118094
-0.0177686
-0.100326
-0.114723
0.0130345
0.0390381
0.0753669