/*--------------------------------*- C++ -*----------------------------------*\
  =========                 |
  \\      /  F ield         | OpenFOAM: The Open Source CFD Toolbox
   \\    /   O peration     | Website:  https://openfoam.org
    \\  /    A nd           | Version:  9
     \\/     M anipulation  |
\*---------------------------------------------------------------------------*/
FoamFile
{
    format      ascii;
    class       volVectorField;
    location    "110";
    object      U;
}
// * * * * * * * * * * * * * * * * * * * * * * * * * * * * * * * * * * * * * //

dimensions      [0 1 -1 0 0 0 0];

internalField   nonuniform List<vector> 
112055
(
(0.478542 0.0166192 0)
(0.503531 -0.00479134 0)
(0.526856 0.000621145 -2.10381e-20)
(0.534558 -0.00200728 6.19015e-21)
(0.534835 -0.0568467 -1.07227e-20)
(0.499751 0.00470301 0)
(0.479766 0.0159671 -6.59986e-20)
(0.534274 -0.00209252 0)
(0.519283 -0.000101514 -1.38817e-20)
(0.480049 -0.00276 3.55575e-21)
(0.503513 -0.00488581 1.37115e-20)
(0.481389 0.0201283 -4.43793e-20)
(0.519023 -0.000404358 6.75313e-21)
(0.481419 0.0197452 4.23407e-20)
(0.458742 -0.006408 -2.63993e-20)
(0.517151 -0.00101481 8.20349e-22)
(0.414813 -0.0149569 7.31872e-20)
(0.468847 -0.0483769 -2.33455e-21)
(0.504126 -0.00697775 0)
(0.519185 0.00657296 -8.66998e-21)
(0.521579 0.00449342 7.45249e-21)
(0.529047 0.00949149 0)
(0.504135 -0.00708009 -7.90771e-21)
(0.514651 -0.0110948 1.18209e-21)
(0.478225 -0.0555121 0)
(0.53043 -0.0283435 1.78025e-20)
(0.429583 0.0254883 -2.01662e-20)
(0.500546 0.00192358 0)
(0.499802 0.00464406 0)
(0.521814 0.00439124 -7.59471e-21)
(0.499991 -2.81387e-05 -4.20461e-20)
(0.547109 0.0218565 0)
(0.517424 0.00199344 0)
(0.0406882 0.0402436 -2.51564e-20)
(0.519323 -9.21306e-05 1.27987e-20)
(0.515408 0.00196271 -1.85233e-21)
(0.519315 0.00649727 0)
(0.35381 0.118771 1.6424e-20)
(0.536635 -0.0171161 0)
(0.511582 -0.00176806 3.51756e-22)
(0.515951 0.00120414 5.39683e-21)
(0.534894 -0.0168463 1.21122e-20)
(0.512156 -0.0053603 -6.30119e-23)
(0.526644 0.000584802 3.5292e-20)
(0.467775 -0.0486159 0)
(0.516528 -0.00856579 0)
(0.0477079 0.0397935 0)
(0.480315 -0.0550409 0)
(0.530775 0.00817686 -7.81519e-21)
(0.534433 -0.0170314 2.49084e-21)
(0.533732 -0.00201905 1.77033e-20)
(0.538207 0.110815 0)
(0.525595 0.00471648 -5.22169e-21)
(0.536239 -0.0165221 3.27191e-20)
(0.520337 0.00189636 2.07248e-20)
(0.479486 0.0164475 3.23651e-20)
(0.346392 -0.0132387 -1.00913e-21)
(0.334322 0.061807 0)
(0.534164 0.0708569 0)
(0.516565 -0.00842768 2.82306e-21)
(0.486829 -0.00911178 2.27479e-20)
(0.482746 -0.0509085 -1.9921e-20)
(0.511113 0.00259184 -4.74718e-22)
(0.511103 0.00256756 5.01119e-22)
(0.494217 -0.00119397 0)
(0.519908 -5.00311e-05 -1.49625e-20)
(0.348046 0.119642 0)
(0.527079 0.0119983 0)
(0.508919 0.0148555 6.61977e-22)
(0.520508 -0.00252285 -9.31311e-21)
(0.335779 0.0530688 1.95114e-20)
(-0.071187 0.019536 3.38388e-22)
(0.514453 -0.0110939 0)
(0.438433 0.00660126 7.40928e-20)
(0.55834 -0.0131608 -8.76601e-20)
(0.255225 -0.203447 -8.27028e-21)
(0.502864 0.000735951 -2.40632e-21)
(0.478824 0.0163224 -3.41861e-20)
(0.542986 0.0491827 -2.29548e-20)
(0.535704 -0.0165195 -4.30289e-20)
(0.485418 0.00828005 4.89719e-21)
(0.218947 -0.188681 -8.51749e-21)
(0.533651 -0.00210098 0)
(0.532077 -0.0283004 1.83568e-20)
(0.517226 -0.000916925 2.34457e-21)
(0.507715 -0.00110499 4.48997e-21)
(0.524226 -0.0364125 -1.64003e-20)
(0.520247 0.00180905 2.16805e-20)
(0.0199338 -0.10119 1.09059e-19)
(0.520059 0.00192199 0)
(0.515187 0.001293 -1.62186e-21)
(0.515455 0.00195281 1.91734e-21)
(0.524777 -0.0363558 0)
(0.532639 -0.0561046 1.91403e-20)
(0.562573 -0.0138195 0)
(0.502954 0.000825885 3.85544e-21)
(0.557259 0.0175285 -1.20709e-19)
(0.459404 -0.0063871 4.49847e-20)
(0.49999 -3.41649e-05 1.9229e-20)
(0.344184 -0.0196098 0)
(0.518983 -0.000410395 6.20053e-21)
(0.513844 0.001084 5.78524e-24)
(0.516907 -0.0030633 2.33995e-21)
(0.502501 -0.00580366 -2.73979e-20)
(0.59958 0.00229663 0)
(0.329402 -0.00956118 -2.91376e-20)
(0.494246 -0.00130439 0)
(0.52121 0.000928359 0)
(0.51241 0.000258253 -9.29611e-22)
(0.507744 -0.000892328 0)
(-0.0720592 0.0209124 6.43581e-20)
(0.554439 -0.0482165 -2.42302e-20)
(0.520229 0.000143263 0)
(0.502201 0.0238534 1.3617e-20)
(0.508871 0.0147217 0)
(0.473604 0.00932908 6.4292e-20)
(0.492753 0.0215872 0)
(0.516339 -0.00170256 0)
(0.0280753 -0.094081 -1.40634e-19)
(0.519649 -0.000503396 -8.02147e-21)
(0.500603 -0.0027739 7.97017e-21)
(0.500552 0.00196785 0)
(0.480184 -0.00249024 0)
(0.505002 0.00662078 -2.06275e-21)
(0.515972 0.00123413 -1.02818e-20)
(0.502615 -0.00583043 8.88225e-21)
(0.471858 0.0427082 -5.6295e-20)
(0.511478 -0.000418299 -1.78961e-22)
(0.523852 0.00236879 -1.34024e-20)
(0.599459 0.00287496 0)
(0.504191 0.00757887 2.749e-22)
(0.430152 0.0268338 -7.269e-20)
(0.507338 0.00203233 -1.89685e-21)
(0.401612 0.0187028 8.45118e-20)
(0.53722 -0.0171177 1.27296e-20)
(0.511658 -0.00178786 0)
(0.517936 -0.00403208 2.0593e-21)
(0.508738 0.00701063 0)
(0.526006 0.00185414 9.13723e-21)
(0.231896 0.0674403 7.15084e-21)
(0.508878 0.00702673 0)
(0.207059 0.00856444 0)
(0.559666 0.025611 -1.65607e-20)
(0.44565 -0.219711 0)
(0.521317 0.00130504 7.82708e-22)
(0.52103 0.02259 3.68835e-21)
(0.473882 -0.037473 8.04057e-21)
(0.52396 0.00299587 0)
(0.516303 -0.00170976 3.52136e-21)
(0.533594 0.0310146 0)
(0.342219 -0.0119809 0)
(0.528281 0.00941757 0)
(0.484989 0.00274795 0)
(0.525162 0.00519586 -6.23843e-23)
(0.525897 0.00174419 0)
(0.501466 -0.013418 2.66064e-20)
(0.498374 7.23807e-05 -1.47284e-20)
(0.502059 0.0235086 0)
(0.532873 0.0705025 -9.5724e-21)
(0.522689 0.0414344 1.0437e-20)
(0.520178 0.000144958 2.4211e-23)
(0.402941 -0.0037995 -1.89965e-21)
(0.522737 0.00333439 -2.63399e-21)
(0.519374 0.00620805 8.14374e-21)
(0.51594 0.000381507 -5.95579e-21)
(0.513496 0.0063086 -9.20124e-22)
(0.497503 0.00374349 -4.78961e-21)
(0.547658 0.021324 8.52486e-22)
(0.518229 0.00249904 8.51173e-21)
(0.494045 0.00303673 0)
(0.498814 -0.00927002 -5.50157e-20)
(0.50152 -0.0135418 1.49772e-20)
(0.522614 0.00327655 9.38481e-21)
(0.445806 -0.213278 2.17549e-21)
(0.542257 -0.00255135 -1.39043e-20)
(0.519687 -0.00050327 1.17637e-20)
(0.529834 0.00846329 3.23202e-21)
(0.522527 -0.00164067 1.81967e-20)
(0.524374 0.0183489 2.37922e-20)
(0.543064 -0.0108963 -1.26123e-20)
(0.542146 -0.00203971 6.86693e-20)
(0.520716 -0.00598466 -3.83799e-21)
(0.522161 -0.00191843 5.80321e-21)
(0.499932 -5.37138e-05 -6.12918e-20)
(0.53979 -0.0199973 -4.85302e-20)
(0.481404 -0.0518267 2.65493e-20)
(0.402712 -0.00216751 1.9985e-21)
(0.515982 0.000388468 7.00045e-21)
(0.561408 0.0253342 8.93704e-21)
(0.516413 0.0137593 4.21574e-21)
(0.509169 -0.0098383 0)
(0.517417 0.00202064 -8.29573e-21)
(0.519911 0.0019505 -8.38314e-21)
(0.500604 -0.00285884 1.44577e-20)
(0.524103 -0.000517853 -1.14817e-20)
(0.511515 0.00335326 4.7988e-23)
(0.546864 0.010484 0)
(0.558498 -0.0458631 -3.26829e-20)
(0.519325 0.00365934 -8.75857e-22)
(0.498443 8.31557e-05 4.52225e-20)
(0.375962 -0.00304453 -2.71832e-20)
(0.491235 0.00294049 3.58807e-20)
(0.486613 -0.00878491 4.69257e-20)
(0.504786 0.00824509 0)
(0.536723 0.00259674 -1.20761e-21)
(0.474098 0.00911942 -5.43265e-20)
(0.359063 -0.0756181 0)
(0.49533 0.0187918 2.79258e-20)
(0.433779 -0.0156776 -7.6036e-20)
(0.517069 -0.00323844 0)
(0.511253 -0.0085211 9.21222e-22)
(0.514806 0.000319297 0)
(0.474632 -0.0377759 -3.25265e-20)
(0.51701 -0.00314551 -3.6287e-23)
(0.556491 0.0175867 6.67773e-20)
(0.495078 0.0189209 1.6582e-21)
(0.498648 -0.00931356 3.41318e-20)
(0.526548 -0.0249381 0)
(0.51812 0.000338331 5.42866e-21)
(0.534549 -0.0014392 0)
(0.513613 -0.0018519 2.29884e-22)
(0.558231 0.0301215 0)
(0.519896 -5.91644e-05 1.35963e-20)
(0.523146 0.0410697 -1.25533e-20)
(0.569817 -0.0201198 1.28882e-19)
(0.518247 0.00250645 -5.94976e-21)
(0.513802 0.00107401 -6.8748e-22)
(0.496964 0.0213549 -2.23642e-20)
(0.506277 -0.0122968 -5.84911e-21)
(0.516554 -0.00220986 -6.92465e-23)
(0.515246 0.00190857 -2.0947e-21)
(0.518177 0.000344949 -4.95502e-21)
(0.539505 -0.0203903 -3.32536e-20)
(0.501287 0.0010078 -1.18847e-20)
(0.553249 -0.100284 0)
(0.405192 -0.0793657 -1.32209e-20)
(0.511543 0.00344948 -3.51895e-22)
(0.515289 0.00190294 0)
(-0.0110597 -0.0175613 9.55526e-21)
(0.255025 0.0506992 5.17485e-20)
(0.51446 -0.00789705 4.42076e-21)
(0.536421 0.0286081 -3.29716e-20)
(0.520673 -0.00317454 -1.06654e-20)
(0.512625 -0.00699306 2.7279e-22)
(0.517264 -0.00110015 9.75021e-21)
(0.553408 -0.098835 2.16337e-20)
(0.544191 0.0172417 -3.42697e-20)
(0.536933 -0.00704194 4.0788e-20)
(0.514706 -0.0155065 -2.6213e-22)
(0.534428 -0.00161905 1.10405e-20)
(0.517399 0.0165313 0)
(0.520482 -0.00591829 6.11789e-21)
(0.0987386 0.0190308 0)
(0.524263 0.00379173 1.68372e-20)
(0.546116 0.010614 3.32367e-21)
(0.534531 0.0304413 1.37231e-22)
(0.509198 -0.0097286 5.45775e-21)
(0.523861 0.00235327 2.47707e-20)
(0.159148 -0.0994642 9.88043e-20)
(0.516863 -0.00298276 -5.24055e-21)
(0.570004 -0.0197011 -1.40129e-19)
(0.468282 0.0684484 -4.78562e-21)
(0.513603 0.00627446 2.23889e-21)
(0.480924 -0.0510961 -5.00017e-20)
(0.399799 0.0286307 0)
(0.516255 0.0138473 -3.66406e-21)
(0.537202 0.00371918 -2.64899e-22)
(0.522433 -0.0016581 -9.38491e-21)
(0.488482 -0.0302718 -1.64616e-20)
(0.526603 0.0128028 -2.77586e-21)
(0.51738 0.0162182 4.67842e-21)
(0.505299 0.0687951 0)
(0.519825 0.00370112 8.66466e-22)
(0.536573 0.109996 -1.92232e-21)
(0.520548 -0.0032461 1.91588e-23)
(0.222824 -0.0486728 2.43713e-20)
(0.539315 -0.0121411 3.38575e-20)
(-0.0044507 -0.0109682 0)
(-0.00413358 -0.0106905 -9.81704e-21)
(0.086461 0.0186486 2.72395e-20)
(0.512395 0.000280138 -2.77943e-22)
(0.504688 0.0106734 -8.84448e-21)
(0.489398 -0.0407071 3.94092e-20)
(0.499451 0.00563268 0)
(0.500329 0.00105822 0)
(0.524616 0.0183145 -2.69109e-20)
(0.500201 -0.000335597 1.14673e-20)
(0.514908 -0.000921184 -6.50009e-21)
(0.512003 -0.000605622 -1.08649e-23)
(0.48783 -0.0302441 -3.90755e-20)
(0.519444 -0.00446873 2.74653e-21)
(0.511612 0.00251224 0)
(0.500821 -0.0017505 0)
(0.517498 0.000693977 0)
(0.501219 0.000970353 0)
(0.500364 0.0010772 0)
(0.495921 0.00354813 0)
(0.520337 0.00112269 0)
(0.516478 0.00105188 0)
(0.515254 0.00125171 -2.22977e-21)
(0.50421 0.0102663 -2.18556e-20)
(0.49992 -3.47996e-05 2.73467e-20)
(0.497256 0.0212422 0)
(0.500463 -0.000106526 0)
(0.532578 -0.00727593 -2.81039e-20)
(0.506895 0.00253302 2.50445e-21)
(0.521952 -0.00215587 -5.85076e-21)
(0.520284 0.0130463 -1.76404e-20)
(0.520525 -0.0032509 9.95843e-23)
(0.515883 0.00496658 -9.29855e-22)
(0.519219 0.00628459 -1.32495e-21)
(0.507354 0.00891659 2.43588e-22)
(0.520861 -0.00479936 -3.14934e-21)
(0.411143 0.0165751 0)
(0.54539 0.00193618 0)
(0.559359 0.0301211 -4.13758e-23)
(0.537487 0.00193549 0)
(0.408863 -0.0777896 -1.14782e-20)
(0.51767 -0.000992428 -3.15104e-23)
(0.516426 0.00103239 -3.70714e-21)
(0.517227 -0.00103775 -1.07452e-20)
(0.399119 0.0177638 9.13367e-22)
(0.454521 -0.0262989 -2.4228e-22)
(0.520253 0.00112313 -3.75845e-21)
(0.542907 0.0171583 4.51657e-20)
(0.527612 -0.0118416 -2.01001e-20)
(0.209887 0.0123303 -4.79097e-21)
(0.51203 -0.00542889 -1.35024e-22)
(0.504563 0.0105451 0)
(0.517824 -0.00398867 0)
(0.506262 -0.0121742 6.44367e-21)
(0.446615 0.0519513 -3.85562e-21)
(0.49303 0.0217432 1.45025e-20)
(0.531116 -0.00132044 1.71753e-22)
(0.534514 0.0055415 4.28032e-20)
(0.524324 0.00626922 6.11525e-21)
(0.516534 -0.00221835 -2.87755e-21)
(0.481813 0.0075269 1.56444e-20)
(0.507169 0.00884568 2.33937e-22)
(0.294581 -0.0863176 7.46669e-20)
(0.375618 -0.00546364 -8.87158e-21)
(0.495037 0.0460711 2.87268e-20)
(0.478285 -0.0526826 -1.13261e-21)
(0.511047 0.00292462 3.56443e-23)
(0.394107 0.0210777 -1.07799e-21)
(0.53734 -0.00693334 -4.05386e-20)
(0.523718 0.00251047 0)
(0.537664 -0.0126697 0)
(0.494199 0.00303028 1.16898e-20)
(0.487582 0.00746444 0)
(0.46266 -0.0275041 -5.24899e-20)
(0.486568 -0.0183942 -9.91003e-21)
(0.483477 0.000233016 5.04037e-22)
(0.347753 -0.0202422 -1.04364e-19)
(0.52376 -0.00201649 3.14965e-20)
(0.523726 -0.00195585 -2.96769e-20)
(0.438695 -0.0156629 0)
(0.545197 -0.0112255 0)
(0.517717 0.00208007 0)
(0.482387 -0.00417875 -1.51437e-22)
(0.576138 0.136362 -8.47248e-22)
(0.517683 0.00210265 5.49527e-21)
(0.534249 0.00584003 -2.08308e-20)
(0.221683 -0.0689726 0)
(0.516409 -0.0151219 1.45006e-22)
(-0.0123074 -0.0199764 1.91998e-20)
(0.302679 -0.0871264 -1.82911e-20)
(0.527843 0.0146011 -1.51686e-20)
(0.504365 0.0103213 6.57188e-21)
(0.527119 -0.00859955 3.61503e-21)
(0.468654 -0.0410156 -7.86483e-20)
(0.467852 -0.0405161 7.02741e-20)
(0.494821 -0.0182234 0)
(0.480686 -0.0586128 0)
(0.00879917 -0.0114323 -2.12332e-20)
(0.509594 -0.00115021 -1.70331e-22)
(0.509562 -0.00115851 1.57237e-22)
(0.52409 -0.0112282 0)
(0.52401 0.0123054 3.73289e-21)
(0.527943 -0.00213848 -3.66117e-21)
(0.520952 -0.00471519 -2.65998e-21)
(0.499924 -0.00160283 4.57603e-21)
(0.48234 -0.00450019 1.94826e-22)
(0.485414 -0.0384956 7.25129e-21)
(0.520573 0.0130892 1.85893e-20)
(0.509707 0.00137311 -1.87323e-22)
(0.50969 0.00138361 0)
(0.526016 -0.0248371 -2.9169e-21)
(0.489864 -0.0400196 -1.61454e-20)
(0.470928 -0.016112 0)
(0.503357 0.0807008 2.01856e-21)
(0.510752 -0.00352677 -3.83282e-22)
(0.414496 -0.0413815 0)
(0.566512 -0.0074212 -6.98671e-20)
(0.439246 0.00584094 -5.52727e-20)
(0.51876 -0.0041531 -3.97598e-21)
(0.508578 -0.00652246 1.58531e-21)
(0.532278 -0.0206467 -2.67127e-20)
(0.354585 -0.296251 -1.20425e-21)
(0.40214 -0.0399793 0)
(0.469398 0.0690923 -6.2816e-22)
(0.50213 0.0794469 0)
(0.141675 -0.121833 0)
(0.48309 0.0199181 0)
(0.528454 0.00527261 -2.96551e-21)
(0.554106 0.151575 -3.21808e-20)
(0.530336 0.0219943 -1.2977e-20)
(0.520501 -0.00260114 7.00165e-21)
(0.534838 -0.018094 1.54344e-20)
(0.505658 0.00603236 0)
(0.531176 -0.00141078 0)
(0.512037 -0.0036199 0)
(0.520492 -0.00418098 5.68741e-21)
(0.512077 -0.00372165 -7.19351e-23)
(0.523972 0.00601718 3.30481e-21)
(0.534431 0.00691807 0)
(0.500102 0.00127368 1.68203e-20)
(0.544823 0.00171256 -1.34647e-20)
(0.518207 0.000129996 -2.15285e-20)
(0.500979 -0.00699032 0)
(0.453542 -0.0257211 1.44246e-20)
(0.520634 0.000566239 0)
(0.511036 0.0119017 -8.45704e-21)
(0.50025 -0.00295441 3.59077e-20)
(0.500229 -0.000364342 -4.96281e-20)
(0.537321 0.0109284 1.06196e-20)
(0.495226 -0.0229385 1.97017e-20)
(0.467041 0.00231647 -1.86967e-21)
(0.537437 0.00141249 0)
(0.530658 0.0218893 -4.67267e-21)
(0.520431 -0.00439638 -5.26154e-21)
(0.495079 -0.0181267 0)
(0.521985 0.00233599 3.62951e-20)
(0.526177 -0.131805 0)
(0.535699 0.0496762 1.4759e-20)
(0.463248 -0.0280445 0)
(0.513885 0.00203953 0)
(0.538 -0.0125395 -3.01942e-21)
(0.259404 0.0554784 -5.19185e-20)
(0.463239 -0.0411701 -2.5192e-20)
(0.536776 0.0108637 0)
(0.484311 0.00859037 -1.33513e-20)
(0.500089 0.00130673 4.58227e-23)
(0.102258 0.0840092 -1.03502e-20)
(0.503144 0.000873361 0)
(0.508651 -0.000574324 -8.11482e-23)
(0.439806 -0.0164677 -1.70338e-20)
(0.464196 -0.0405146 -1.09101e-20)
(0.4458 0.0535106 3.38986e-21)
(0.531756 -0.0205284 4.34654e-20)
(0.233637 0.0593393 -3.48348e-21)
(0.500563 -0.00245444 -2.49586e-20)
(0.520671 0.000604915 5.08894e-21)
(0.499507 0.00573261 -1.14767e-20)
(0.527449 -0.0115305 2.0046e-20)
(0.0602639 0.00863721 -1.02418e-19)
(0.510997 0.00740534 -8.21749e-22)
(0.505341 0.00787286 -7.53725e-22)
(0.496791 -0.0292585 0)
(0.516067 0.00517143 0)
(0.534211 -0.0187919 1.28036e-20)
(0.520712 0.0226031 0)
(0.511632 0.00254342 0)
(0.341194 0.0612746 5.116e-20)
(0.535785 0.0286161 2.70518e-20)
(0.511343 0.00694676 5.25127e-22)
(0.513405 -0.0023943 0)
(0.483015 0.0203473 -3.78401e-22)
(0.500827 -0.00170531 0)
(0.515903 0.00479782 8.43068e-22)
(0.499901 -0.00163735 1.84542e-20)
(0.514764 0.000304651 2.27401e-21)
(0.521873 0.00238207 -2.5454e-20)
(0.548122 0.0355878 -2.43307e-20)
(0.500063 0.0221202 9.8445e-21)
(0.533903 -0.00244116 1.42174e-20)
(0.518898 -0.00180904 0)
(0.513588 -0.00185587 0)
(0.519205 0.000738023 0)
(0.410945 0.0139891 5.85606e-22)
(0.366787 -0.0243461 2.05851e-19)
(0.0115753 -0.0123754 2.03844e-20)
(0.482497 -0.0393385 -4.4472e-21)
(0.543728 0.0480971 0)
(0.516187 -0.00101823 9.7389e-21)
(0.162703 -0.100779 0)
(0.490748 0.00379257 -8.61503e-21)
(0.394552 0.0229619 1.59904e-21)
(0.520609 -0.00312375 0)
(0.518862 -0.00181745 0)
(0.509596 -0.00142462 0)
(0.556489 -0.0138539 -1.16818e-20)
(0.532588 -0.00733157 2.91866e-20)
(0.511295 0.0066816 -8.33156e-22)
(0.495642 -0.0229814 6.05274e-21)
(0.520226 -0.000488092 1.86181e-20)
(0.499989 0.00169494 -3.31247e-20)
(0.518183 -0.00276056 -1.80972e-21)
(0.517441 0.000711503 0)
(0.523694 -0.012063 3.93384e-22)
(0.512156 -0.00997023 0)
(0.524385 -0.011419 3.33239e-22)
(0.520166 -0.000519746 -1.43159e-20)
(0.496078 0.00357456 4.94661e-21)
(0.511945 0.00667666 2.53093e-22)
(0.501063 -0.00235395 0)
(0.517281 -0.00100188 -6.92727e-21)
(0.598414 0.0573963 0)
(0.511081 -0.00167263 0)
(0.513344 -0.00235273 0)
(0.533731 -0.00233228 -1.93498e-20)
(0.459919 -0.10001 -2.18943e-20)
(0.529426 0.0485401 -2.29827e-20)
(0.505764 0.00607351 0)
(0.276843 0.237124 0)
(0.516783 0.00564865 0)
(0.516858 0.00555337 -2.51904e-23)
(0.509572 -0.00145744 0)
(0.106066 0.0831325 0)
(0.537111 0.000153803 -8.75649e-21)
(0.499536 -0.00306499 -2.52183e-20)
(0.532533 0.017701 2.17117e-21)
(0.514877 -0.000921898 -4.2281e-21)
(0.519467 0.000434944 1.045e-21)
(0.508014 0.0250789 4.29435e-21)
(0.506757 0.125111 -7.1028e-24)
(0.51597 -0.00290233 0)
(0.360705 -0.0711645 0)
(0.519247 0.000734225 4.37826e-22)
(0.513242 -0.00251202 -2.08337e-21)
(0.500526 -0.00245453 0)
(0.52412 -0.0109317 0)
(0.428019 -0.0277226 -3.28067e-20)
(0.401004 0.0309235 0)
(0.512083 0.000842773 -1.02658e-21)
(0.488339 0.0226934 -5.03722e-21)
(0.535087 -0.00149113 -2.77008e-20)
(0.410488 0.203019 -2.15166e-20)
(0.522043 0.00048422 -1.22216e-20)
(0.516113 0.0090016 0)
(0.513946 0.00207946 0)
(0.515883 0.00880163 0)
(0.435879 0.212585 -4.62247e-20)
(0.462125 -0.0354636 0)
(0.551718 0.0278982 5.77976e-20)
(0.534873 -0.00140968 0)
(0.552616 0.0263755 -6.57128e-20)
(0.507811 0.0329003 1.77435e-20)
(0.501066 -0.00703253 0)
(0.519633 -0.00361852 -9.79507e-21)
(0.46174 -0.0365217 0)
(0.500166 -0.00073132 3.06067e-20)
(0.498472 -0.000922836 0)
(0.562191 0.0455711 -2.24531e-22)
(0.499987 0.00163887 1.48644e-20)
(0.511039 0.00300701 0)
(0.550976 0.0117085 5.43789e-20)
(0.517237 -0.00101071 8.09236e-21)
(0.510951 0.00700698 3.53061e-22)
(0.535396 0.0489158 0)
(0.107296 -0.0232084 6.899e-21)
(0.514996 -0.000525788 -2.70334e-21)
(0.448886 -0.0311697 -3.78948e-21)
(0.512013 -0.00976039 -1.94651e-22)
(0.230335 -0.0675531 -3.30633e-20)
(0.519463 0.000454221 3.31621e-21)
(0.523724 -0.00992005 7.12959e-21)
(-0.0062281 -0.013417 1.0279e-20)
(0.516164 -0.000979215 0)
(-0.00459476 -0.0127418 2.50522e-21)
(0.506015 0.0354093 -3.29943e-20)
(0.499698 0.0221942 1.001e-20)
(0.514094 0.00119579 -7.88679e-23)
(0.461638 -0.000490103 5.26753e-20)
(0.516286 -0.0119092 0)
(0.502216 0.0016059 0)
(0.501181 -0.00505222 -4.48728e-21)
(0.549137 0.0341213 0)
(0.497376 0.00366779 0)
(0.550429 0.15113 3.13275e-20)
(0.518251 0.000128041 1.70338e-20)
(0.508688 -0.000564336 1.90172e-24)
(0.49146 -0.00213824 -1.76832e-20)
(0.501 0.000968639 2.75264e-24)
(0.499526 -0.000633679 4.37588e-20)
(0.51612 -0.00277589 0)
(0.498753 -0.0377179 1.0566e-20)
(0.508257 0.0327753 -1.13384e-20)
(0.501309 -0.00736154 9.09376e-21)
(0.52275 -2.03302e-05 1.80946e-21)
(0.501261 -0.00507673 0)
(0.511918 0.0101441 3.31558e-21)
(0.513251 -0.00242813 1.42141e-21)
(0.511994 0.010241 -8.26475e-21)
(0.528512 -0.00218845 1.87995e-21)
(0.500297 -0.00298797 -4.09739e-20)
(0.504747 0.00466833 -3.20693e-22)
(0.516138 0.00254385 4.62404e-21)
(0.500932 0.00279343 -2.85101e-20)
(0.524085 -0.00047582 1.16819e-20)
(0.513267 0.00372921 6.27832e-22)
(0.549229 0.0307301 -3.97827e-20)
(0.355334 0.0722072 -3.54249e-20)
(0.502181 -0.00648945 -1.1277e-20)
(0.524151 0.00382475 -1.39009e-20)
(0.508024 0.0247769 -5.2994e-22)
(0.521594 -0.00191249 2.46223e-21)
(0.499656 -0.00147191 5.36474e-20)
(0.491675 0.0398953 -4.14933e-20)
(0.515597 0.00284418 -2.67884e-21)
(0.520116 -0.00179368 -1.04885e-20)
(0.49391 0.0087862 1.571e-20)
(0.502086 0.00585796 -3.39304e-21)
(0.526723 0.00015553 1.79183e-20)
(0.390296 0.107544 5.33619e-20)
(0.500126 -0.000701802 -1.23289e-20)
(0.511768 0.00650347 2.62387e-22)
(0.514056 -0.000544364 -3.90519e-21)
(0.548445 0.0294154 -9.30546e-22)
(0.503099 0.000844907 -3.6495e-21)
(0.568468 0.00306331 0)
(0.498966 0.000641112 0)
(0.500424 -0.00011148 0)
(0.500514 0.00582683 0)
(0.501008 -0.00234314 0)
(0.598534 0.0567528 -4.41312e-20)
(0.518022 -0.00471659 0)
(0.536896 -0.00199415 1.10323e-22)
(0.527043 -0.00891112 0)
(0.527536 0.0144943 1.30602e-20)
(0.352381 -0.298112 1.39671e-21)
(-0.00461816 0.00207374 0)
(0.526021 0.00366204 4.92076e-23)
(-0.080003 0.0377156 -6.25634e-20)
(0.552606 0.027895 1.37442e-20)
(0.512117 0.000834852 1.9264e-21)
(0.521205 0.00385239 0)
(0.547831 0.032829 0)
(0.491764 0.00507214 -3.10191e-22)
(0.50098 0.00100622 -3.55289e-20)
(0.514661 -0.00133532 0)
(0.492533 0.00339394 -2.1449e-21)
(0.519724 6.65581e-06 4.01288e-21)
(0.523674 -0.010023 0)
(0.505605 0.084526 0)
(0.46775 0.00592807 -6.04678e-20)
(0.340661 -0.0392202 0)
(0.498898 -0.0115814 5.3278e-23)
(0.0906438 -0.0243666 0)
(0.526765 0.000242895 1.87409e-20)
(0.0131692 -0.0136226 -1.35644e-22)
(0.533371 -0.0150874 0)
(0.514456 -0.0102519 -4.11547e-22)
(0.477469 0.000180724 0)
(0.514258 -0.00998338 0)
(0.444137 -0.0318991 0)
(0.495632 -0.00919539 1.85393e-20)
(0.487237 0.00719337 -6.82478e-20)
(0.524146 0.0125503 0)
(0.548196 0.0200914 1.51514e-20)
(0.497329 -0.000894664 -4.3548e-21)
(0.498745 -0.0115865 -1.8746e-20)
(0.463339 0.00208811 0)
(0.478546 0.0350766 -3.03386e-20)
(0.510381 0.00217969 -8.77941e-23)
(0.5192 0.000342228 -1.34719e-20)
(0.569721 0.00344322 0)
(0.480953 -0.00310611 2.9176e-20)
(0.515628 0.00277961 -1.47629e-23)
(0.500877 0.00279787 2.85047e-20)
(0.537067 -0.00143678 -4.1621e-20)
(0.561325 0.0444733 -7.25641e-20)
(0.534778 0.041231 9.86258e-21)
(0.481217 -0.00273548 -2.79722e-20)
(0.521462 -0.00573442 -2.34873e-20)
(0.522061 -0.00444382 3.33231e-21)
(0.502558 0.00786939 0)
(0.477929 0.000284878 2.64822e-20)
(0.325581 0.0469414 7.84002e-20)
(0.521126 0.00394487 1.2316e-21)
(0.516472 0.00250419 0)
(0.53334 -0.0144215 3.02373e-22)
(0.516682 0.000754071 0)
(0.544004 -0.0124259 -2.74799e-20)
(0.519522 0.00112538 0)
(0.491197 0.00266587 0)
(0.526669 0.00230466 0)
(0.513448 0.00373911 5.72889e-22)
(0.56574 -0.0146169 1.13296e-20)
(0.528426 0.0504756 0)
(0.385849 0.0264031 3.84882e-22)
(0.499877 -0.00267293 1.32521e-20)
(0.502238 -0.0013261 0)
(0.500003 0.0187153 -3.10554e-20)
(0.468053 0.00533462 5.44158e-20)
(0.478361 0.0355459 0)
(0.461058 -0.0984842 2.26578e-20)
(0.490011 0.0173438 3.67077e-20)
(0.517791 -0.012256 -3.15827e-22)
(0.216581 -0.0479054 -4.1754e-20)
(0.520226 -0.00184998 -4.14088e-21)
(0.511745 -0.00402105 0)
(0.49876 -0.0370692 0)
(0.512251 -0.00419778 0)
(0.519198 0.000325088 1.21286e-20)
(0.506003 0.0393404 3.49141e-21)
(0.519725 1.3448e-06 0)
(0.519818 -0.00367566 0)
(0.0809112 0.0292727 -9.3056e-21)
(0.387844 0.025411 -6.54646e-22)
(0.497331 -0.0293269 -2.28908e-20)
(0.518346 -0.0163484 0)
(0.516706 0.000777965 0)
(0.527824 0.0178046 1.39366e-20)
(0.510771 -0.00380097 3.9615e-22)
(0.337217 0.100235 5.97953e-21)
(0.490217 0.0170588 0)
(0.529198 0.00549516 -2.92791e-21)
(0.501597 0.000371366 1.21114e-20)
(0.516752 0.00127164 0)
(0.520103 -0.013199 1.01872e-20)
(0.519227 -0.000191922 -8.475e-21)
(0.515045 -0.000548874 -2.53061e-21)
(0.546214 -0.00457683 6.22621e-20)
(0.511058 -0.00166538 -1.66193e-22)
(0.497253 -0.000822313 2.84104e-20)
(0.491666 -0.00212311 -4.33921e-20)
(0.460822 0.150122 4.36635e-21)
(0.511083 0.00557551 -3.90892e-22)
(0.443328 -0.0483805 -4.86101e-20)
(0.52396 0.00477249 0)
(0.485977 -0.0195454 -4.55205e-20)
(0.452663 -0.0306534 -3.2276e-20)
(0.520556 -0.000652922 7.97675e-21)
(0.500499 -0.00366339 -4.31923e-21)
(0.514687 -0.0013262 0)
(0.393824 0.109753 -4.09409e-20)
(0.528191 0.000654347 0)
(0.520429 -0.00285692 0)
(0.428681 -0.000476957 -4.98662e-20)
(0.538346 -0.0295951 0)
(0.517892 -0.00253068 1.53695e-21)
(0.214103 0.0677232 -1.30701e-19)
(0.500318 0.0188497 2.80039e-20)
(0.506503 -0.0665256 7.84634e-20)
(0.511187 0.0117935 1.00072e-20)
(0.538264 0.00574728 5.30525e-20)
(0.494147 0.00868313 -2.817e-21)
(0.503076 -0.000621433 1.10037e-20)
(0.502684 0.00790717 1.76457e-20)
(0.512305 -0.00184137 5.04841e-22)
(0.515748 -0.000962907 0)
(0.512016 0.00282694 0)
(0.537139 -0.0014515 3.97206e-20)
(0.517085 -0.00389725 7.59288e-21)
(0.495054 -0.00300784 -2.40005e-20)
(0.500541 -0.00369331 1.45146e-20)
(0.516304 0.00252714 9.15614e-22)
(0.48354 -1.6402e-05 -3.7355e-22)
(0.522834 0.00504003 8.78268e-22)
(0.512099 0.00287688 -3.31134e-22)
(0.507085 0.122762 -1.85044e-21)
(0.547031 0.0200326 -2.62799e-20)
(0.565574 -0.0319534 -8.08854e-20)
(0.432603 0.0371788 4.04595e-20)
(0.285932 0.232781 0)
(0.501215 -0.0072932 -1.05348e-20)
(0.520921 -0.00271342 0)
(0.510672 -0.000619767 -8.14678e-22)
(0.469527 -0.00838723 8.93332e-22)
(0.515704 -0.000953406 0)
(0.528018 0.000546009 9.04293e-21)
(0.530681 0.0216244 0)
(0.513896 -0.00173621 -2.33873e-21)
(0.513946 -0.00172159 -1.27054e-21)
(0.503005 -0.0107418 9.92589e-21)
(0.16137 -0.00137515 7.95688e-20)
(0.518204 -0.000460919 -1.99456e-20)
(0.509446 -0.000659812 -4.82785e-22)
(0.486925 -0.0185787 5.4279e-20)
(0.536442 -0.0451199 -3.39285e-21)
(0.481382 -0.00292544 -6.26837e-22)
(0.470315 -0.00817931 1.93914e-22)
(0.516213 0.00265205 -3.88085e-21)
(0.555241 0.188169 1.98966e-20)
(0.49925 0.00332196 -1.8985e-21)
(0.511668 -0.00172201 0)
(0.514814 -0.00147615 0)
(0.518881 0.00294883 -7.193e-21)
(0.536053 -0.044533 3.541e-21)
(0.51821 -0.000430023 1.26592e-20)
(0.523086 -0.00193717 0)
(0.518798 0.00145528 5.3373e-21)
(0.580564 -0.030428 0)
(0.523366 -0.00113568 1.20238e-20)
(0.510385 0.0276932 0)
(0.573945 0.137547 2.11365e-20)
(0.519544 0.00109596 1.1371e-20)
(0.50451 0.0128363 0)
(0.511707 -0.00174677 -9.09491e-22)
(0.519378 -0.000261383 -1.65234e-20)
(0.48642 0.0201617 0)
(0.518778 0.00296618 -1.28583e-20)
(0.533031 0.0409805 -1.05559e-20)
(0.215911 -0.0642657 -3.47226e-21)
(0.510647 -0.000574744 -6.55815e-22)
(0.557961 0.0610931 0)
(0.508532 0.0652355 0)
(0.50941 -0.0463632 -5.37254e-21)
(0.514936 0.00252498 -3.60128e-21)
(0.565393 0.0327755 0)
(0.523807 0.00479731 0)
(0.536929 -0.00195405 0)
(0.490712 0.00343302 -3.05723e-20)
(0.522053 0.000451205 1.10776e-20)
(0.552768 0.00415363 0)
(0.526663 0.00354178 -3.07874e-21)
(0.499618 -0.00150982 -3.60051e-20)
(0.513285 0.00128514 2.77386e-21)
(0.52332 -0.00117041 0)
(0.519413 -0.020364 -4.03576e-21)
(0.500618 -0.00482323 0)
(0.536167 -0.000524659 0)
(0.49928 0.00243599 -1.32534e-20)
(0.517609 0.000916981 7.51971e-21)
(0.178491 -0.160743 4.13944e-21)
(0.485309 0.00291586 2.14112e-20)
(0.530209 -0.0206847 1.52048e-20)
(0.545861 -0.00428837 -6.64705e-20)
(0.512012 0.00377201 -1.66285e-22)
(0.513319 0.00130608 0)
(0.481896 -0.058452 0)
(0.479924 0.0207735 0)
(0.517886 -0.00100647 0)
(0.0906357 0.0392124 1.98303e-20)
(0.502802 -0.00699474 -4.64756e-21)
(0.457384 0.0100913 6.25278e-21)
(0.500025 0.00020925 2.42573e-20)
(0.495081 -0.00292135 0)
(0.530097 -0.0209245 -2.83068e-20)
(0.51787 -0.000974279 0)
(0.0146234 -0.00811143 6.55943e-20)
(0.488013 -0.0105387 -5.20583e-20)
(0.519234 -0.000143153 7.16485e-21)
(0.518757 0.00143174 -5.55587e-21)
(0.515291 0.00262567 0)
(0.11917 -0.0688576 -4.37128e-20)
(0.519841 -0.0132159 1.09968e-20)
(0.498496 -0.0176712 0)
(0.51443 0.00166733 -2.86449e-21)
(0.523167 -0.00202634 0)
(0.508114 -0.0487851 0)
(0.43321 0.0358885 -4.04712e-20)
(0.514379 0.00165525 5.41474e-24)
(0.552347 0.00358125 0)
(0.391044 0.0350638 -3.69759e-22)
(0.479263 0.0248423 0)
(0.522584 0.00428593 8.57062e-22)
(0.49958 0.00356726 -1.64418e-20)
(0.522419 -0.00399432 -1.44973e-21)
(0.325192 0.0506458 -8.30667e-20)
(0.519934 -0.00204555 -3.30464e-21)
(0.517748 0.00501168 0)
(0.579366 -0.0308804 -2.84511e-20)
(0.510102 0.0339737 3.43872e-20)
(0.455158 0.00732925 0)
(0.500017 0.000182506 0)
(0.498238 -0.0176555 1.95063e-20)
(0.552887 -0.0134094 3.87203e-20)
(0.521245 -0.00575208 0)
(0.347371 -0.0958721 -3.28597e-20)
(0.500575 0.0115564 -2.0759e-22)
(0.487545 0.00728894 7.58431e-20)
(0.458682 0.059105 2.83142e-20)
(0.00268134 -0.114613 -7.62207e-20)
(0.502223 -0.00640375 0)
(0.499633 0.00358997 -5.89072e-21)
(0.511026 -0.00849133 4.1559e-21)
(0.537274 -0.0946694 -1.36733e-20)
(0.504677 0.0128159 0)
(0.516352 -0.000970537 -4.77308e-21)
(0.514764 -0.00144653 0)
(0.51329 0.00453029 6.44575e-22)
(0.517722 -0.000985911 -8.61692e-21)
(0.510862 -0.0029979 0)
(0.517866 0.00496865 -1.71927e-21)
(0.511069 0.00538996 -1.49703e-21)
(0.48781 -0.047593 0)
(0.513363 -0.00286601 -1.52201e-22)
(0.503566 0.000361107 2.16766e-20)
(0.425775 -0.03863 -4.49678e-20)
(0.50002 9.29694e-07 5.21825e-20)
(0.519338 -0.000216488 2.13503e-20)
(0.526631 -0.129562 0)
(0.584025 -0.076355 0)
(0.522162 0.000100031 6.71816e-22)
(0.526816 0.00235923 0)
(0.308271 -0.00362559 0)
(0.532551 0.0192202 2.02529e-21)
(0.067114 0.0106622 7.17165e-20)
(0.54025 -0.00510425 1.18399e-20)
(0.503171 -0.000575921 0)
(0.537236 -0.00556874 -2.40304e-20)
(0.512362 -0.00186067 -5.34454e-22)
(0.545477 0.000318811 0)
(0.58291 -0.077636 0)
(0.509963 -0.00976661 -1.02217e-21)
(0.503994 0.00708062 0)
(0.526971 0.0160734 3.10949e-21)
(0.50282 0.00214292 -1.24214e-21)
(0.479163 0.0370263 1.40072e-20)
(0.527981 -0.00660751 0)
(0.508771 0.0118175 -8.82619e-21)
(0.503679 0.000356953 -4.57567e-21)
(0.150175 -0.000207348 -8.32578e-20)
(0.47383 0.126126 5.4235e-21)
(0.516719 0.00123479 0)
(0.522347 0.000391672 0)
(0.455615 0.0161674 0)
(0.51606 -0.00117334 -3.42887e-23)
(0.512329 0.00110455 5.28338e-23)
(0.513259 0.0043907 -9.83678e-22)
(0.514148 -0.00640177 -2.10973e-21)
(0.525927 0.00408303 -3.63745e-20)
(0.496893 0.0406826 3.36861e-21)
(0.501287 0.000851723 0)
(0.516241 -0.00816529 -1.81509e-21)
(0.498975 0.00280978 4.36514e-20)
(0.518497 0.0153181 2.95021e-21)
(0.526028 -0.00172514 -5.21276e-21)
(0.511991 -0.00301863 8.48723e-23)