/*--------------------------------*- C++ -*----------------------------------*\
  =========                 |
  \\      /  F ield         | OpenFOAM: The Open Source CFD Toolbox
   \\    /   O peration     | Website:  https://openfoam.org
    \\  /    A nd           | Version:  9
     \\/     M anipulation  |
\*---------------------------------------------------------------------------*/
FoamFile
{
    format      ascii;
    class       volScalarField;
    location    "700";
    object      alphat;
}
// * * * * * * * * * * * * * * * * * * * * * * * * * * * * * * * * * * * * * //

dimensions      [1 -1 -1 0 0 0 0];

internalField   nonuniform List<scalar> 
4000
(
0.000275184
0.000259932
0.000249228
0.000241876
0.000235633
0.000230697
0.000226576
0.000224223
0.000225487
0.000228751
0.000231445
0.000230763
0.000229643
0.000230183
0.000234453
0.000239432
0.000244027
0.000247618
0.000256214
0.000284611
0.000307964
0.000302198
0.000296127
0.000287444
0.000266616
0.00026083
0.000256591
0.000256138
0.00026141
0.000269601
0.000272984
0.00026552
0.000258237
0.000257604
0.000260494
0.000275515
0.000309873
0.000322125
0.000330082
0.000337461
0.000447066
0.000434301
0.000407257
0.000371985
0.000341044
0.000316327
0.000289934
0.000265655
0.000276922
0.000288453
0.000290082
0.000278843
0.000273752
0.00029991
0.000331184
0.000354707
0.000385071
0.000417936
0.000448677
0.000465729
0.000492995
0.000486234
0.000468557
0.000441242
0.000403118
0.000367818
0.000337684
0.000315838
0.000302688
0.000306579
0.000306036
0.000302432
0.000315618
0.000338753
0.000365276
0.000394332
0.000429332
0.000463131
0.00048647
0.000497695
0.000509159
0.000509817
0.000499648
0.000481648
0.000460349
0.000441548
0.000427739
0.000416264
0.000405328
0.000391647
0.000371731
0.000366563
0.000375739
0.000391904
0.000413152
0.000440701
0.00046883
0.000494558
0.000511207
0.000514622
0.000519318
0.000529333
0.000532373
0.000532247
0.000531841
0.000531162
0.000529149
0.000524568
0.000516219
0.000502381
0.00048419
0.000485699
0.000493048
0.000501141
0.000508408
0.000515489
0.000522976
0.000530007
0.000532634
0.000526179
0.000527867
0.000547582
0.000563902
0.000577511
0.000589134
0.000597674
0.000602144
0.000601789
0.000595796
0.000583791
0.000570326
0.000574823
0.000580766
0.000584426
0.000584654
0.000581208
0.000574603
0.00056568
0.000553351
0.000536355
0.000536767
0.000565856
0.000592851
0.000615878
0.000635427
0.000650919
0.000661523
0.000666016
0.000663185
0.000652605
0.000642178
0.000648626
0.000652722
0.000651983
0.000645961
0.000634903
0.000619107
0.000599227
0.000574699
0.000547369
0.000547698
0.00058749
0.000623775
0.000654978
0.00068204
0.000704146
0.000720819
0.000730624
0.000731492
0.000722257
0.000714193
0.000722077
0.000723555
0.000717884
0.000705625
0.00068751
0.000663811
0.000634939
0.000599944
0.000560966
0.000562598
0.000611946
0.000656171
0.000693033
0.000725282
0.000753438
0.000776957
0.000794444
0.000803561
0.000801076
0.00079745
0.000802766
0.000797774
0.000785107
0.000766102
0.000741573
0.000711635
0.000675486
0.000630437
0.000579384
0.000259932
0.000263322
0.000263778
0.00026744
0.00027019
0.000267918
0.000263452
0.000261704
0.00026402
0.000269597
0.000272909
0.000270561
0.000269464
0.000272537
0.000284248
0.000289274
0.000284141
0.000276557
0.000272753
0.000281407
0.000302198
0.000365892
0.00043848
0.000543748
0.000643499
0.000659445
0.000647042
0.000654553
0.000675954
0.000701607
0.000694695
0.000651307
0.00062737
0.000638179
0.000690778
0.0006845
0.00058345
0.000470814
0.000386398
0.000321427
0.000434301
0.000542158
0.00053456
0.000531357
0.000560052
0.000590961
0.000619908
0.000674542
0.000673396
0.000691296
0.000678116
0.000636174
0.000620966
0.000619999
0.000614773
0.000597163
0.000571498
0.000560922
0.000554048
0.000425872
0.000486234
0.000654287
0.000675937
0.000625558
0.000574851
0.000547212
0.000533024
0.000537956
0.000572021
0.000617923
0.000623263
0.000584796
0.000553034
0.000548388
0.000566188
0.000592813
0.000633707
0.000683893
0.000665424
0.000485996
0.000509817
0.000699916
0.000744189
0.000712719
0.000639069
0.000579426
0.000538711
0.000512054
0.000502752
0.000516188
0.000535344
0.000525187
0.000523235
0.000540626
0.000574895
0.000625152
0.000694861
0.000735557
0.000702169
0.000511658
0.000529333
0.000750788
0.000822027
0.000823468
0.000779411
0.000705785
0.000649226
0.000614774
0.000593305
0.000581158
0.000570901
0.000569136
0.000581428
0.000609431
0.000652716
0.000722435
0.000779028
0.000795421
0.000741801
0.000533381
0.000547582
0.000791803
0.000889083
0.000947142
0.000979814
0.000982436
0.000958572
0.00092016
0.00087221
0.000808346
0.000756388
0.000750061
0.000770613
0.000813044
0.00087168
0.000898401
0.000887783
0.000852372
0.000775763
0.000554539
0.000565856
0.00081955
0.000932479
0.00103919
0.00114648
0.00121482
0.00123384
0.00123215
0.00121713
0.00119128
0.00116123
0.00115955
0.00117703
0.00117452
0.00113091
0.0010623
0.00097481
0.000893287
0.000801289
0.000576882
0.00058749
0.000801287
0.000918471
0.00102358
0.00111587
0.00117876
0.00121944
0.00123756
0.00122627
0.00118475
0.00115528
0.00116494
0.00117461
0.00116113
0.00112236
0.00106333
0.000983442
0.000897455
0.000798557
0.000603363
0.000611946
0.000665671
0.000715943
0.000760429
0.000801739
0.000839831
0.000873264
0.000899387
0.000914443
0.000913959
0.000908863
0.000911441
0.000901757
0.00088241
0.000855558
0.000822993
0.000785452
0.000742342
0.000691035
0.000634243
0.000249228
0.000263778
0.000271953
0.00028129
0.000283913
0.000282834
0.000282228
0.000284073
0.000290165
0.000299496
0.000303993
0.000298968
0.000295142
0.000297113
0.000306997
0.000310034
0.000297518
0.000284347
0.000273712
0.000268866
0.000296127
0.00043848
0.000555534
0.000670742
0.0007528
0.000785516
0.000799765
0.000840997
0.000892039
0.000941924
0.000933385
0.000865811
0.00082092
0.000817341
0.000856083
0.000826301
0.000700186
0.000543682
0.000411644
0.000303854
0.000407257
0.00053456
0.000576217
0.000626092
0.000689293
0.000750705
0.000805411
0.000876158
0.000912054
0.000962657
0.000936948
0.000857177
0.000810569
0.000789302
0.000762521
0.000715744
0.000650133
0.000585879
0.000520831
0.000383545
0.000468557
0.000675937
0.000716814
0.000690442
0.00067441
0.000676377
0.000690976
0.000736066
0.00082472
0.000905333
0.000881045
0.000797223
0.000727142
0.000694042
0.000689168
0.000691501
0.000701275
0.000714751
0.000675143
0.000462501
0.000499648
0.000744189
0.000821762
0.000793281
0.00072929
0.00068128
0.000650681
0.000640957
0.000668282
0.000759051
0.000797986
0.000718417
0.00066932
0.000664264
0.000686744
0.000726815
0.000780614
0.000812499
0.000739727
0.000495924
0.000532373
0.000822027
0.000930061
0.000924408
0.000848572
0.000767971
0.000709891
0.000677256
0.000675267
0.000711156
0.00074199
0.00070514
0.000682832
0.000695328
0.000737331
0.000805854
0.00087978
0.00089531
0.000801895
0.000531878
0.000563902
0.000889083
0.00103241
0.00107667
0.00104161
0.000989859
0.000945891
0.000918924
0.000909699
0.000914782
0.000912393
0.000875562
0.00085243
0.000863908
0.000904726
0.000958827
0.0010038
0.000977373
0.000856835
0.000568483
0.000592851
0.000932479
0.00111661
0.00125761
0.00133999
0.0013587
0.00136385
0.00136815
0.00136534
0.00133712
0.00130302
0.00128024
0.00126838
0.0012565
0.00124205
0.00122693
0.00116374
0.00105229
0.000897383
0.000604184
0.000623775
0.000918471
0.0011646
0.00140218
0.00158544
0.00169497
0.00176217
0.00180413
0.00180632
0.00171241
0.00165403
0.0016896
0.00172879
0.00171572
0.0016382
0.0015209
0.00133853
0.0011265
0.000907828
0.000642322
0.000656171
0.000715943
0.000771156
0.000821383
0.000869804
0.000916144
0.000958218
0.00099225
0.00101332
0.00101536
0.00100856
0.00100829
0.000993591
0.000967789
0.000934013
0.000894991
0.000851761
0.000803438
0.000746939
0.000683123
0.000241876
0.00026744
0.00028129
0.000285705
0.000285141
0.000286695
0.000291528
0.000298807
0.000310521
0.000324938
0.000330898
0.000321536
0.000312981
0.000311647
0.000315969
0.000314603
0.00030179
0.000283986
0.000268703
0.000255505
0.000287444
0.000543748
0.000670742
0.000746355
0.000792423
0.000839933
0.00089808
0.000981255
0.00107483
0.00115448
0.00114034
0.00104561
0.00096607
0.000935219
0.000939242
0.000894336
0.000757382
0.00059789
0.000443694
0.000282521
0.000371985
0.000531357
0.000626092
0.000710086
0.000788758
0.000859009
0.000928654
0.00102875
0.00113169
0.0012301
0.00119111
0.00105729
0.000955443
0.000904526
0.000854897
0.000788248
0.000699831
0.000602385
0.000499711
0.000353788
0.000441242
0.000625558
0.000690442
0.000716985
0.000743071
0.000776178
0.000820409
0.000902567
0.00104044
0.00118849
0.00113866
0.000973936
0.000855722
0.00079489
0.000766786
0.000742176
0.000715197
0.000680899
0.000609055
0.000427368
0.000481648
0.000712719
0.000793281
0.000796811
0.000777941
0.000763707
0.000760972
0.000785783
0.000883932
0.00108405
0.00109443
0.000914721
0.000798187
0.000760487
0.000759809
0.000772926
0.000789045
0.000784058
0.000704406
0.000473363
0.000532247
0.000823468
0.000924408
0.000930773
0.000888127
0.000838301
0.000802544
0.000794361
0.000842514
0.000973624
0.00104381
0.000906314
0.000813594
0.000792769
0.000813762
0.000856715
0.000899552
0.000898273
0.000797535
0.000527322
0.000577511
0.000947142
0.00107667
0.00111059
0.00108645
0.0010468
0.00101947
0.0010199
0.0010644
0.00116122
0.00121801
0.00110102
0.000997452
0.000962991
0.000976092
0.0010141
0.001045
0.00102013
0.000897451
0.000580501
0.000615878
0.00103919
0.00125761
0.00139408
0.00144326
0.00145679
0.00146871
0.00148902
0.00151419
0.00153677
0.00153842
0.00147496
0.00141276
0.00137332
0.0013517
0.00133895
0.00129375
0.00116981
0.000978527
0.000628406
0.000654978
0.00102358
0.00140218
0.00177095
0.00192893
0.00202805
0.00210101
0.00213105
0.00209543
0.00200278
0.001954
0.00199647
0.00202999
0.00201745
0.00196554
0.00188956
0.00170936
0.00135304
0.00100615
0.000676727
0.000693033
0.000760429
0.000821383
0.000877617
0.000933715
0.000989328
0.00104105
0.00108426
0.00111334
0.00112251
0.00111587
0.00110879
0.00108615
0.00105175
0.00100947
0.000962456
0.00091292
0.000859008
0.000796616
0.000724513
0.000235633
0.00027019
0.000283913
0.000285141
0.000283848
0.000287583
0.000297614
0.00031116
0.000329333
0.000349686
0.000356268
0.000341524
0.000327588
0.000321067
0.000318305
0.000311473
0.000297604
0.00028069
0.000263223
0.000243866
0.000266616
0.000643499
0.0007528
0.000792423
0.000823046
0.000883408
0.000981082
0.00111109
0.00125057
0.0013547
0.00132723
0.00120663
0.0010956
0.00103488
0.000994574
0.000930768
0.000790322
0.000627722
0.00047767
0.000265863
0.000341044
0.000560052
0.000689293
0.000788758
0.000866577
0.000934213
0.00102135
0.00116908
0.00134601
0.00148114
0.00142359
0.00124338
0.00109252
0.00100602
0.000925106
0.000838029
0.000736949
0.000623986
0.000500282
0.000330271
0.000403118
0.000574851
0.00067441
0.000743071
0.000802117
0.00086036
0.000929559
0.00104639
0.00124742
0.00144366
0.00136892
0.00113851
0.000963866
0.000870942
0.00082009
0.000772844
0.000717883
0.000649814
0.000551998
0.000390476
0.000460349
0.000639069
0.00072929
0.000777941
0.000805789
0.00082883
0.000858445
0.000927178
0.00111529
0.00138955
0.00135927
0.00109298
0.000903464
0.000828541
0.000801657
0.000785172
0.000762679
0.000717181
0.000624477
0.000448006
0.000531841
0.000779411
0.000848572
0.000888127
0.000898198
0.000895067
0.000896524
0.000931007
0.00105976
0.00131025
0.00137446
0.00111692
0.000935136
0.000871
0.000861287
0.000867373
0.000865156
0.000830325
0.000753684
0.000523442
0.000589134
0.000979814
0.00104161
0.00108645
0.00110694
0.00111006
0.00111615
0.00115142
0.0012566
0.00144881
0.00154013
0.00132419
0.0011354
0.00105731
0.00104032
0.00104374
0.00103478
0.000991292
0.000917582
0.000591975
0.000635427
0.00114648
0.00133999
0.00144326
0.00149891
0.00152747
0.00155329
0.00158704
0.00163438
0.00170079
0.00173182
0.00162162
0.0015205
0.00146124
0.00142879
0.00140773
0.00135901
0.00124705
0.00105842
0.000650161
0.00068204
0.00111587
0.00158544
0.00192893
0.00210373
0.00224616
0.00235247
0.00239499
0.00234292
0.00222371
0.00218005
0.00224825
0.00230416
0.00229181
0.00221763
0.00210292
0.00194984
0.00154187
0.00109656
0.000707619
0.000725282
0.000801739
0.000869804
0.000933715
0.000999784
0.00106585
0.00112826
0.00118224
0.0012219
0.00124124
0.00123379
0.0012168
0.00118428
0.00114026
0.00108857
0.001032
0.000973139
0.000912151
0.000842724
0.000761197
0.000230697
0.000267918
0.000282834
0.000286695
0.000287583
0.000291387
0.000305174
0.000325066
0.000349384
0.000374915
0.000381383
0.000361556
0.000343051
0.000330098
0.000319194
0.000306193
0.00029016
0.000274064
0.000257319
0.00023445
0.00026083
0.000659445
0.000785516
0.000839933
0.000883408
0.000948745
0.00106657
0.00123112
0.00139778
0.00149078
0.00144924
0.00134096
0.00122952
0.00114697
0.00107023
0.000974342
0.000834712
0.000674729
0.000518977
0.00025422
0.000316327
0.000590961
0.000750705
0.000859009
0.000934213
0.00100353
0.00111702
0.00130786
0.00151536
0.0016254
0.0015591
0.00140331
0.00124557
0.00113547
0.00103475
0.000907758
0.000778213
0.000649122
0.000508101
0.000302509
0.000367818
0.000547212
0.000676377
0.000776178
0.00086036
0.000937771
0.00102706
0.00118195
0.00143255
0.00160545
0.00151822
0.00129098
0.00107925
0.000951628
0.00087037
0.000800534
0.000722588
0.000630891
0.000514734
0.000354044
0.000441548
0.000579426
0.00068128
0.000763707
0.00082883
0.000884631
0.000947253
0.00106901
0.00133143
0.00160183
0.00153907
0.00124866
0.000999406
0.000881979
0.000826925
0.000783271
0.00073015
0.000656419
0.000555207
0.000423494
0.000531162
0.000705785
0.000767971
0.000838301
0.000895067
0.000937341
0.000981456
0.00107207
0.00128845
0.00159228
0.00161442
0.00129821
0.00103774
0.000925464
0.000881394
0.000850631
0.000808112
0.000745209
0.000679533
0.000521034
0.000597674
0.000982436
0.000989859
0.0010468
0.00111006
0.00115708
0.00119921
0.00127325
0.00144137
0.00170202
0.00179313
0.00150143
0.0012377
0.00112034
0.00107416
0.00104135
0.000992722
0.000934009
0.000911143
0.000601941
0.000650919
0.00121482
0.0013587
0.00145679
0.00152747
0.00157685
0.00161991
0.00166618
0.00173145
0.00183564
0.00188204
0.00172322
0.00159275
0.00152031
0.00147493
0.0014369
0.00137408
0.0012633
0.00111625
0.000668461
0.000704146
0.00117876
0.00169497
0.00202805
0.00224616
0.00243053
0.00256204
0.00259399
0.00249571
0.00233768
0.00229967
0.00239495
0.00249525
0.00250699
0.00241677
0.00226315
0.00206626
0.00167563
0.00116834
0.000734224
0.000753438
0.000839831
0.000916144
0.000989328
0.00106585
0.00114289
0.00121704
0.00128351
0.00133697
0.00137186
0.00136219
0.00132973
0.00128375
0.00122828
0.00116611
0.00109982
0.00103155
0.00096241
0.000885045
0.000793491
0.000226576
0.000263452
0.000282228
0.000291528
0.000297614
0.000305174
0.000319983
0.000344132
0.000374354
0.000402972
0.000408223
0.000385087
0.000362155
0.0003416
0.00032178
0.000302739
0.00028479
0.000269245
0.00025253
0.000227265
0.000256591
0.000647042
0.000799765
0.00089808
0.000981082
0.00106657
0.00118872
0.00135623
0.00150566
0.00153521
0.00148119
0.00144153
0.00136929
0.00127781
0.00118004
0.00106201
0.000913333
0.000754834
0.000586431
0.000248835
0.000289934
0.000619908
0.000805411
0.000928654
0.00102135
0.00111702
0.00125587
0.00144532
0.00158975
0.00158491
0.00150445
0.00147727
0.00140085
0.00129373
0.00118341
0.0010546
0.000897247
0.000721487
0.000536139
0.000265248
0.000337684
0.000533024
0.000690976
0.000820409
0.000929559
0.00102706
0.00114333
0.00132598
0.00151002
0.00156081
0.00145142
0.0013564
0.00121584
0.00107563
0.000960861
0.000856422
0.000748445
0.000629296
0.000491055
0.000317607
0.000427739
0.000538711
0.000650681
0.000760972
0.000858445
0.000947253
0.00105078
0.00122222
0.00145117
0.00159155
0.0014915
0.00131877
0.00110804
0.000952294
0.000860999
0.000786975
0.00070611
0.00061004
0.000503009
0.000403572
0.000529149
0.000649226
0.000709891
0.000802544
0.000896524
0.000981456
0.00107485
0.00122718
0.00145021
0.00164905
0.0016196
0.00138686
0.00113323
0.000975862
0.000892817
0.000826493
0.000751756
0.00067065
0.000615126
0.000519212
0.000602144
0.000958572
0.000945891
0.00101947
0.00111615
0.00119921
0.001277
0.00139682
0.00160244
0.00181517
0.00187294
0.00161492
0.00131814
0.00116142
0.00108587
0.00102175
0.000942471
0.000871902
0.00087824
0.00060884
0.000661523
0.00123384
0.00136385
0.00146871
0.00155329
0.00161991
0.00167683
0.00173703
0.00183756
0.0019832
0.00202229
0.00181619
0.00164296
0.00155907
0.0015035
0.00144837
0.00136999
0.00125318
0.00113893
0.000682122
0.000720819
0.00121944
0.00176217
0.00210101
0.00235247
0.00256204
0.00269257
0.00268575
0.00255545
0.00244738
0.00241966
0.00246016
0.00257064
0.00262418
0.00255314
0.00238551
0.00215547
0.00176388
0.00121517
0.00075514
0.000776957
0.000873264
0.000958218
0.00104105
0.00112826
0.00121704
0.0013044
0.00138674
0.00146126
0.00152388
0.00151004
0.00145041
0.00138351
0.00131281
0.00123887
0.00116258
0.00108506
0.00100743
0.000921958
0.000820682
0.000224223
0.000261704
0.000284073
0.000298807
0.00031116
0.000325066
0.000344132
0.000372192
0.00040468
0.000432749
0.000435036
0.000411754
0.000385857
0.000357637
0.000330471
0.000306501
0.000286753
0.000270104
0.000252129
0.000223287
0.000256138
0.000654553
0.000840997
0.000981255
0.00111109
0.00123112
0.00135623
0.00148327
0.00153695
0.00144524
0.00138179
0.00145929
0.00147277
0.00139853
0.0012989
0.00117427
0.00102269
0.000856762
0.000665922
0.000248586
0.000265655
0.000674542
0.000876158
0.00102875
0.00116908
0.00130786
0.00144532
0.0015462
0.00153388
0.00151085
0.00138269
0.00138394
0.00146087
0.00142413
0.00132917
0.00119874
0.00104501
0.000864737
0.000640611
0.000247367
0.000315838
0.000537956
0.000736066
0.000902567
0.00104639
0.00118195
0.00132598
0.00142425
0.00147278
0.00171008
0.00152132
0.00127188
0.00127697
0.00123614
0.00112133
0.000988036
0.000840917
0.000680529
0.000501319
0.000283318
0.000416264
0.000512054
0.000640957
0.000785783
0.000927178
0.00106901
0.00122222
0.00134604
0.00147692
0.00193828
0.00175294
0.00127193
0.00117493
0.00108574
0.000956312
0.000833518
0.000713408
0.00058899
0.000469073
0.000389131
0.000524568
0.000614774
0.000677256
0.000794361
0.000931007
0.00107207
0.00122718
0.00136605
0.00152807
0.0021036
0.00199963
0.00137119
0.00118623
0.00106077
0.000931886
0.000820549
0.000712053
0.000616095
0.000569424
0.000515655
0.000601789
0.00092016
0.000918924
0.0010199
0.00115142
0.00127325
0.00139682
0.00154334
0.00171688
0.0022452
0.00224793
0.00164527
0.00138793
0.00121918
0.0011063
0.0010095
0.000903524
0.000820736
0.000834625
0.000611227
0.000666016
0.00123215
0.00136815
0.00148902
0.00158704
0.00166618
0.00173703
0.00184037
0.0020449
0.00243993
0.00246141
0.00197768
0.00170583
0.00158547
0.00152075
0.0014544
0.00136252
0.00123193
0.00112431
0.000689656
0.000730624
0.00123756
0.00180413
0.00213105
0.00239499
0.00259399
0.00268575
0.00265489
0.00266269
0.00291147
0.00287431
0.00259003
0.00254108
0.00259753
0.00257388
0.00243393
0.00220005
0.0018136
0.00123508
0.000768461
0.000794444
0.000899387
0.00099225
0.00108426
0.00118224
0.00128351
0.00138674
0.00149193
0.00160196
0.00171322
0.00169133
0.00158498
0.00148366
0.00139066
0.00130219
0.0012154
0.00112905
0.00104345
0.000950735
0.000841142
0.000225487
0.00026402
0.000290165
0.000310521
0.000329333
0.000349384
0.000374354
0.00040468
0.000432226
0.000458111
0.000462755
0.000433101
0.000410606
0.000380301
0.000349373
0.000322086
0.00029894
0.000278753
0.000257627
0.000222282
0.00026141
0.000675954
0.000892039
0.00107483
0.00125057
0.00139778
0.00150566
0.00153695
0.00145856
0.00162008
0.00149218
0.001347
0.00142537
0.00143108
0.00137828
0.00126448
0.00111384
0.000936148
0.000723867
0.000250653
0.000276922
0.000673396
0.000912054
0.00113169
0.00134601
0.00151536
0.00158975
0.00153388
0.00158923
0.00223839
0.00204988
0.00137917
0.00132605
0.00141202
0.00141143
0.00129599
0.00113203
0.000938968
0.000700361
0.000249939
0.000302688
0.000572021
0.00082472
0.00104044
0.00124742
0.00143255
0.00151002
0.00147278
0.0018747
0.00287967
0.00266242
0.00160087
0.00121656
0.00127995
0.0012601
0.00112602
0.000959878
0.000782431
0.000573494
0.000258458
0.000405328
0.000502752
0.000668282
0.000883932
0.00111529
0.00133143
0.00145117
0.00147692
0.00219356
0.00346226
0.00324214
0.00188837
0.00119386
0.00119401
0.00112222
0.000958921
0.000784299
0.000608082
0.000454355
0.000378906
0.000516219
0.000593305
0.000675267
0.000842514
0.00105976
0.00128845
0.00145021
0.00152807
0.00243932
0.00391094
0.00371597
0.00214616
0.00123203
0.00116765
0.00104775
0.000868797
0.000702517
0.000583875
0.000539432
0.000507764
0.000595796
0.00087221
0.000909699
0.0010644
0.0012566
0.00144137
0.00160244
0.00171688
0.00263197
0.00417625
0.0040357
0.00239142
0.00145966
0.00132521
0.00118238
0.0010355
0.000890103
0.000784729
0.000785655
0.000606783
0.000663185
0.00121713
0.00136534
0.00151419
0.00163438
0.00173145
0.00183756
0.0020449
0.00286906
0.00429469
0.00419036
0.00268801
0.00183582
0.00162192
0.00152971
0.00145261
0.0013474
0.00119993
0.00107928
0.000688162
0.000731492
0.00122627
0.00180632
0.00209543
0.00234292
0.00249571
0.00255545
0.00266269
0.00320924
0.00408401
0.00396529
0.00309096
0.00254508
0.00243943
0.00243384
0.0023534
0.00215318
0.00181668
0.00121341
0.000770859
0.000803561
0.000914443
0.00101332
0.00111334
0.0012219
0.00133697
0.00146126
0.00160196
0.00176782
0.00194035
0.00190189
0.00173838
0.00158548
0.00145886
0.00135071
0.00125212
0.0011574
0.00106542
0.000967478
0.000852193
0.000228751
0.000269597
0.000299496
0.000324938
0.000349686
0.000374915
0.000402972
0.000432749
0.000458111
0.00047192
0.000471652
0.000455205
0.000434407
0.000398304
0.000366623
0.000339443
0.000314832
0.00029136
0.000266281
0.000223474
0.000269601
0.000701607
0.000941924
0.00115448
0.0013547
0.00149078
0.00153521
0.00144524
0.00162008
0.0010393
0.000952338
0.00138334
0.00115321
0.0013096
0.00135981
0.00127827
0.00113804
0.000959375
0.000744091
0.000252744
0.000288453
0.000691296
0.000962657
0.0012301
0.00148114
0.0016254
0.00158491
0.00151085
0.00223839
0.00158779
0.00141577
0.00192073
0.00117622
0.00121826
0.00135553
0.00128189
0.00112101
0.000920471
0.000688921
0.000254638
0.000306579
0.000617923
0.000905333
0.00118849
0.00144366
0.00160545
0.00156081
0.00171008
0.00287967
0.00213842
0.001889
0.00250413
0.00132859
0.00112328
0.00122373
0.00112184
0.000946144
0.000762224
0.000560955
0.00026683
0.000391647
0.000516188
0.000759051
0.00108405
0.00138955
0.00160183
0.00159155
0.00193828
0.00346226
0.00270585
0.00238859
0.00305466
0.00153707
0.00114011
0.00118167
0.00103046
0.000826286
0.000632497
0.000459529
0.000367927
0.000502381
0.000581158
0.000711156
0.000973624
0.00131025
0.00159228
0.00164905
0.0021036
0.00391094
0.00327181
0.00289862
0.00348132
0.00171328
0.00121196
0.0011835
0.00097447
0.000742559
0.000576894
0.000519398
0.00049146
0.000583791
0.000808346
0.000914782
0.00116122
0.00144881
0.00170202
0.00181517
0.0022452
0.00417625
0.00378239
0.00337143
0.00374911
0.00188126
0.00142153
0.00131296
0.00109795
0.000890876
0.000753929
0.000724471
0.000590889
0.000652605
0.00119128
0.00133712
0.00153677
0.00170079
0.00183564
0.0019832
0.00243993
0.00429469
0.00416361
0.00373659
0.00389663
0.00215126
0.00168352
0.00154398
0.00143484
0.00130528
0.00114182
0.000999074
0.000674441
0.000722257
0.00118475
0.00171241
0.00200278
0.00222371
0.00233768
0.00244738
0.00291147
0.00408401
0.00434479
0.00396086
0.00378434
0.00273441
0.00229361
0.00221038
0.00216711
0.00200951
0.0017614
0.00113697
0.00075847
0.000801076
0.000913959
0.00101536
0.00112251
0.00124124
0.00137186
0.00152388
0.00171322
0.00194035
0.00207017
0.00197934
0.00188508
0.00168333
0.0015138
0.00138011
0.00126767
0.00116449
0.00106806
0.000967576
0.000849758
0.000231445
0.000272909
0.000303993
0.000330898
0.000356268
0.000381383
0.000408223
0.000435036
0.000462755
0.000471652
0.000459438
0.000450625
0.00042636
0.000391799
0.000364762
0.000341666
0.000319819
0.000297257
0.000271268
0.000223753
0.000272984
0.000694695
0.000933385
0.00114034
0.00132723
0.00144924
0.00148119
0.00138179
0.00149218
0.000952338
0.000891849
0.00120878
0.00101508
0.00120006
0.0012657
0.00119553
0.00106949
0.000907908
0.00070849
0.00025021
0.000290082
0.000678116
0.000936948
0.00119111
0.00142359
0.0015591
0.00150445
0.00138269
0.00204988
0.00141577
0.00134999
0.00165216
0.000997433
0.00108544
0.00122794
0.00115441
0.00100669
0.000829031
0.000621862
0.000254537
0.000306036
0.000623263
0.000881045
0.00113866
0.00136892
0.00151822
0.00145142
0.00152132
0.00266242
0.001889
0.00184141
0.00218653
0.00111158
0.000984418
0.00109728
0.00100018
0.000848031
0.000691757
0.000520656
0.000273424
0.000371731
0.000535344
0.000797986
0.00109443
0.00135927
0.00153907
0.0014915
0.00175294
0.00324214
0.00238859
0.00235926
0.00272853
0.00130091
0.00100563
0.00107608
0.000948734
0.000779989
0.000621238
0.000469963
0.000350937
0.00048419
0.000570901
0.00074199
0.00104381
0.00137446
0.00161442
0.0016196
0.00199963
0.00371597
0.00289862
0.00286815
0.003189
0.00156127
0.00112424
0.00114055
0.000967004
0.000757564
0.000587091
0.000505409
0.000469694
0.000570326
0.000756388
0.000912393
0.00121801
0.00154013
0.00179313
0.00187294
0.00224793
0.0040357
0.00337143
0.0033119
0.0035224
0.00184607
0.00140321
0.00133285
0.00111401
0.000884437
0.000723856
0.000672383
0.000571762
0.000642178
0.00116123
0.00130302
0.00153842
0.00173182
0.00188204
0.00202229
0.00246141
0.00419036
0.00373659
0.00361362
0.00374176
0.00213701
0.00166018
0.00152254
0.00140193
0.00125485
0.00107611
0.000930287
0.000657032
0.000714193
0.00115528
0.00165403
0.001954
0.00218005
0.00229967
0.00241966
0.00287431
0.00396529
0.00396086
0.00377236
0.00363079
0.00266029
0.00221726
0.00211749
0.00207865
0.00192458
0.00168933
0.00106574
0.000741075
0.00079745
0.000908863
0.00100856
0.00111587
0.00123379
0.00136219
0.00151004
0.00169133
0.00190189
0.00197934
0.00198475
0.00186766
0.00167108
0.00150391
0.00136957
0.00125599
0.00115148
0.0010545
0.000954284
0.000836917
0.000230763
0.000270561
0.000298968
0.000321536
0.000341524
0.000361556
0.000385087
0.000411754
0.000433101
0.000455205
0.000450625
0.000432031
0.000399152
0.000371573
0.000349746
0.00033124
0.000313472
0.000295485
0.00027171
0.000225172
0.00026552
0.000651307
0.000865811
0.00104561
0.00120663
0.00134096
0.00144153
0.00145929
0.001347
0.00138334
0.00120878
0.000977511
0.00108512
0.00118356
0.00116129
0.00107571
0.000960278
0.000823523
0.000646471
0.000246858
0.000278843
0.000636174
0.000857177
0.00105729
0.00124338
0.00140331
0.00147727
0.00138394
0.00137917
0.00192073
0.00165216
0.0010372
0.000964509
0.00111409
0.00111156
0.00101373
0.00089078
0.00075097
0.000570369
0.00025495
0.000302432
0.000584796
0.000797223
0.000973936
0.00113851
0.00129098
0.0013564
0.00127188
0.00160087
0.00250413
0.00218653
0.00123943
0.000895706
0.00100421
0.000985415
0.000886542
0.000776548
0.00065657
0.000507757
0.000285582
0.000366563
0.000525187
0.000718417
0.000914721
0.00109298
0.00124866
0.00131877
0.00127193
0.00188837
0.00305466
0.00272853
0.00153033
0.000920239
0.000990846
0.000956641
0.000853208
0.000740475
0.000620034
0.000484984
0.000348247
0.000485699
0.000569136
0.00070514
0.000906314
0.00111692
0.00129821
0.00138686
0.00137119
0.00214616
0.00348132
0.003189
0.00180797
0.00102009
0.00105525
0.00100023
0.000877318
0.000739285
0.000609771
0.00052129
0.000466073
0.000574823
0.000750061
0.000875562
0.00110102
0.00132419
0.00150143
0.00161492
0.00164527
0.00239142
0.00374911
0.0035224
0.00209342
0.0013165
0.00128118
0.0011898
0.00104586
0.00088366
0.000740908
0.000678776
0.000574214
0.000648626
0.00115955
0.00128024
0.00147496
0.00162162
0.00172322
0.00181619
0.00197768
0.00268801
0.00389663
0.00374176
0.00243483
0.00170566
0.00155876
0.00149405
0.00141134
0.00127759
0.00109612
0.000944293
0.000662862
0.000722077
0.00116494
0.0016896
0.00199647
0.00224825
0.00239495
0.00246016
0.00259003
0.00309096
0.00378434
0.00363079
0.00290796
0.00240276
0.0022674
0.00227036
0.00222428
0.00203233
0.00174372
0.00109247
0.000749276
0.000802766
0.000911441
0.00100829
0.00110879
0.0012168
0.00132973
0.00145041
0.00158498
0.00173838
0.00188508
0.00186766
0.00172062
0.00157548
0.00145018
0.0013417
0.0012429
0.00114722
0.00105535
0.000957609
0.000843119
0.000229643
0.000269464
0.000295142
0.000312981
0.000327588
0.000343051
0.000362155
0.000385857
0.000410606
0.000434407
0.00042636
0.000399152
0.000371648
0.000349249
0.000332357
0.000318651
0.000307166
0.000294059
0.000273366
0.000228552
0.000258237
0.00062737
0.00082092
0.00096607
0.0010956
0.00122952
0.00136929
0.00147277
0.00142537
0.00115321
0.00101508
0.00108512
0.00115549
0.00113375
0.00106112
0.000973279
0.000878377
0.000769082
0.000615068
0.000248962
0.000273752
0.000620966
0.000810569
0.000955443
0.00109252
0.00124557
0.00140085
0.00146087
0.00132605
0.00117622
0.000997433
0.000964509
0.00107848
0.00108188
0.00100943
0.000923318
0.000827979
0.000713766
0.0005577
0.000261885
0.000315618
0.000553034
0.000727142
0.000855722
0.000963866
0.00107925
0.00121584
0.00127697
0.00121656
0.00132859
0.00111158
0.000895706
0.000971189
0.000967399
0.000899885
0.000827929
0.00074809
0.000648364
0.000511611
0.000308663
0.000375739
0.000523235
0.00066932
0.000798187
0.000903464
0.000999406
0.00110804
0.00117493
0.00119386
0.00153707
0.00130091
0.000920239
0.000952807
0.000939934
0.000875707
0.000807766
0.000729214
0.000630281
0.000506004
0.000365055
0.000493048
0.000581428
0.000682832
0.000813594
0.000935136
0.00103774
0.00113323
0.00118623
0.00123203
0.00171328
0.00156127
0.00102009
0.00100877
0.000984821
0.000919358
0.00084173
0.000747988
0.000647976
0.000559873
0.000474119
0.000580766
0.000770613
0.00085243
0.000997452
0.0011354
0.0012377
0.00131814
0.00138793
0.00145966
0.00188126
0.00184607
0.0013165
0.00124051
0.00119171
0.00112593
0.00103662
0.000915271
0.000789824
0.000726738
0.00058057
0.000652722
0.00117703
0.00126838
0.00141276
0.0015205
0.00159275
0.00164296
0.00170583
0.00183582
0.00215126
0.00213701
0.00170566
0.00158009
0.00155856
0.00153523
0.00146456
0.0013347
0.00114678