/*--------------------------------*- C++ -*----------------------------------*\
  =========                 |
  \\      /  F ield         | OpenFOAM: The Open Source CFD Toolbox
   \\    /   O peration     | Website:  https://openfoam.org
    \\  /    A nd           | Version:  9
     \\/     M anipulation  |
\*---------------------------------------------------------------------------*/
FoamFile
{
    format      ascii;
    class       volVectorField;
    location    "700";
    object      U;
}
// * * * * * * * * * * * * * * * * * * * * * * * * * * * * * * * * * * * * * //

dimensions      [0 1 -1 0 0 0 0];

internalField   nonuniform List<vector> 
4000
(
(-0.00474964 0.00816881 -0.00474964)
(-0.00733503 0.00231636 -0.00343047)
(-0.00755113 -0.000980331 -0.00239363)
(-0.00618189 -0.00221152 -0.00168302)
(-0.00440971 -0.00136964 -0.00125036)
(-0.00270182 -0.000196827 -0.000920412)
(-0.00121443 8.02358e-06 -0.000637533)
(6.91443e-05 -0.00042688 -0.000357382)
(0.000992114 -0.00117982 -0.000189575)
(0.00167831 -0.00134995 -0.000167445)
(0.00230578 -0.00121392 -0.000200202)
(0.0029786 -0.00133147 -0.000128566)
(0.00388619 -0.00121878 -0.000142097)
(0.00516717 -0.00075009 -0.000304113)
(0.00697508 -0.00130006 -0.000609409)
(0.00892367 -0.00237825 -0.000976024)
(0.0103387 -0.00257119 -0.00150971)
(0.0105629 -0.00114986 -0.00198129)
(0.00968286 0.00245787 -0.00209443)
(0.00627462 0.0110242 -0.00173722)
(0.00235215 0.0155488 0.00235215)
(0.00627237 0.0103277 0.00233199)
(0.006016 0.00659974 0.00177904)
(0.00297912 0.00388824 0.00117489)
(-0.00288359 0.00198341 0.000281492)
(-0.00503792 -0.000230418 -0.000443616)
(-0.00519888 -0.00112408 -0.000717672)
(-0.00360462 -0.000659891 -0.000757234)
(-0.0020588 -0.000157118 -0.00116672)
(-0.00083168 0.000227806 -0.0015587)
(0.000471973 0.00066251 -0.00165269)
(0.00191955 -0.000134942 -0.00114973)
(0.00327869 -0.00109657 -0.000553526)
(0.00387482 -0.00126594 -0.000365651)
(0.00422932 -0.00113091 -0.000378503)
(0.00026528 0.00300474 0.000188156)
(-0.0070461 0.00795354 0.00117306)
(-0.0107455 0.0095639 0.00208265)
(-0.0108178 0.0112981 0.0030252)
(-0.0051715 0.0143494 0.00340118)
(0.00707216 -0.0135142 0.00707216)
(0.0141625 -0.00783558 0.00697983)
(0.0175091 -0.000879044 0.00618913)
(0.0166417 0.00419334 0.0049588)
(0.0122022 0.00565664 0.00350991)
(0.00757248 0.0042357 0.00230519)
(0.00343751 0.00189781 0.00150003)
(-0.0015675 -0.00180594 1.18098e-05)
(-0.00166098 -0.000753908 -0.00106705)
(-0.00151072 0.000383759 -0.00179569)
(-0.000633613 0.000722114 -0.00183521)
(-0.000296136 -0.000526027 -0.000939969)
(-0.00175659 -0.00136795 0.000255685)
(-0.00602365 0.00128489 0.00101971)
(-0.0117726 0.00539123 0.00170073)
(-0.0155948 0.00712718 0.00248538)
(-0.0190392 0.00639387 0.00359147)
(-0.0193465 0.00099276 0.0047266)
(-0.0150722 -0.00792172 0.00542286)
(-0.00711603 -0.0159754 0.00536446)
(0.00379267 -0.0326656 0.00379267)
(0.00942379 -0.0237258 0.00479709)
(0.0123973 -0.014289 0.00537682)
(0.0145595 -0.00537629 0.0056174)
(0.0149257 0.000959454 0.00529603)
(0.0133242 0.00328663 0.00467486)
(0.0105004 0.00365119 0.00404943)
(0.00735493 0.00381827 0.00340046)
(0.00278962 0.00362673 0.0022645)
(0.000411433 0.00387473 0.000955434)
(-0.000488548 0.00403154 0.000475811)
(-0.00320879 0.00332819 0.00133223)
(-0.00822835 0.0034297 0.00240631)
(-0.0125029 0.00431044 0.00304343)
(-0.0153864 0.00500022 0.00347656)
(-0.0169897 0.00423318 0.00399422)
(-0.0159018 -0.000450362 0.00451462)
(-0.0125111 -0.00963063 0.00451789)
(-0.00912053 -0.0200734 0.00396782)
(-0.00334293 -0.0303783 0.00293272)
(0.00154188 -0.0407205 0.00154188)
(0.00408454 -0.0313502 0.00307467)
(0.00316343 -0.0214793 0.00411633)
(0.00299977 -0.0133256 0.00523643)
(0.00248224 -0.00770172 0.00609782)
(0.00226385 -0.00459659 0.00630778)
(0.00167113 -0.00306509 0.00605374)
(0.00108037 -0.00151993 0.00556951)
(0.000737492 0.000252424 0.00492849)
(0.000972108 0.00198209 0.00425468)
(0.00126515 0.00381916 0.00384631)
(0.00051843 0.00377107 0.00411468)
(-0.00117911 0.00251182 0.00479685)
(-0.0030736 0.00115399 0.00543294)
(-0.0043134 -0.000511948 0.00580643)
(-0.00428469 -0.00377921 0.0058406)
(-0.0042384 -0.00946439 0.00508142)
(-0.00355492 -0.0181343 0.00394847)
(-0.0040558 -0.0287035 0.00288574)
(-0.00130005 -0.0389707 0.00133625)
(0.000195505 -0.0440176 0.000195505)
(0.000426181 -0.0352233 0.00195833)
(-0.00337124 -0.0265009 0.00273519)
(-0.00497407 -0.0204945 0.00333438)
(-0.0062213 -0.0167808 0.00359642)
(-0.00641621 -0.0147273 0.00344665)
(-0.00588898 -0.0132316 0.00310974)
(-0.00471501 -0.0117971 0.00285978)
(-0.00291938 -0.0102836 0.0027597)
(-0.000930603 -0.00827211 0.00294582)
(0.00109619 -0.00551485 0.00351203)
(0.00263402 -0.00547418 0.00358429)
(0.00417326 -0.006506 0.00365056)
(0.00516171 -0.0080145 0.00382143)
(0.00550888 -0.00991047 0.00404725)
(0.00518873 -0.0125266 0.00408101)
(0.00403104 -0.0168918 0.00367727)
(0.00284992 -0.0236534 0.00289205)
(-0.000626804 -0.0330468 0.00197651)
(-9.81258e-05 -0.0425311 0.000150404)
(-0.000979314 -0.0428953 -0.000979315)
(-0.00237898 -0.0357263 0.000741751)
(-0.00745911 -0.0294594 0.000751246)
(-0.00967239 -0.0257129 0.000511482)
(-0.0108762 -0.0236692 2.41211e-05)
(-0.0106884 -0.0225603 -0.000528847)
(-0.00943147 -0.0216693 -0.000976776)
(-0.00736005 -0.0207058 -0.00129905)
(-0.00468015 -0.0194413 -0.0013799)
(-0.00207558 -0.0176998 -0.00112813)
(0.000910506 -0.0154009 -0.000550361)
(0.00356077 -0.0155216 -0.000629579)
(0.00637094 -0.0163779 -0.000565266)
(0.00855314 -0.0174263 -0.00027676)
(0.00983884 -0.0185715 0.0001761)
(0.0100355 -0.0201966 0.000633355)
(0.00888512 -0.0229119 0.000972565)
(0.00688008 -0.0273437 0.00101375)
(0.00196223 -0.0342132 0.000808259)
(0.000929305 -0.041958 -0.00102334)
(-0.0025655 -0.0376343 -0.0025655)
(-0.00514158 -0.0325968 -0.00117218)
(-0.0110429 -0.0288073 -0.00191589)
(-0.0136724 -0.0270645 -0.00281756)
(-0.0147069 -0.0264149 -0.00376659)
(-0.0140431 -0.0262158 -0.0046139)
(-0.0120855 -0.0259558 -0.00523865)
(-0.00919148 -0.0255179 -0.00565301)
(-0.00566887 -0.0247313 -0.00579188)
(-0.00243728 -0.023503 -0.00558256)
(0.00118562 -0.0220724 -0.00526164)
(0.00441911 -0.0223208 -0.0055335)
(0.008098 -0.0229162 -0.00539904)
(0.0111698 -0.0234074 -0.00489807)
(0.0132141 -0.0237633 -0.00416381)
(0.0138993 -0.0242686 -0.00329588)
(0.0128938 -0.0253745 -0.00239924)
(0.0103936 -0.0275835 -0.00164041)
(0.00456585 -0.0318171 -0.00110106)
(0.00238263 -0.0372363 -0.00269458)
(-0.00510617 -0.0279485 -0.00510617)
(-0.00905087 -0.0246075 -0.00458315)
(-0.0153452 -0.0228551 -0.00582918)
(-0.0179936 -0.0224727 -0.00726996)
(-0.0187021 -0.0226624 -0.00866814)
(-0.0176105 -0.0231432 -0.00984359)
(-0.0151004 -0.0235968 -0.010744)
(-0.0114602 -0.0238122 -0.0113304)
(-0.00704717 -0.0236131 -0.0114967)
(-0.0030717 -0.0228609 -0.0110389)
(0.00153625 -0.0220627 -0.010583)
(0.00559852 -0.0223791 -0.0111261)
(0.0102829 -0.0226066 -0.0109388)
(0.014222 -0.0225568 -0.0102834)
(0.0169808 -0.0223086 -0.00931853)
(0.018194 -0.022041 -0.00814607)
(0.01749 -0.0220193 -0.00684329)
(0.0148302 -0.0225469 -0.00555787)
(0.0085076 -0.0244679 -0.00452246)
(0.00490104 -0.027976 -0.00535974)
(-0.00901045 -0.0171384 -0.00901046)
(-0.0152772 -0.0140862 -0.0102992)
(-0.0216834 -0.0127024 -0.0127573)
(-0.0242406 -0.0123495 -0.0151847)
(-0.0246842 -0.0123005 -0.0175038)
(-0.0232587 -0.0122962 -0.0196146)
(-0.0202523 -0.0121329 -0.0214275)
(-0.0158317 -0.0116992 -0.0228578)
(-0.010251 -0.0109285 -0.0236387)
(-0.00502598 -0.0099096 -0.023093)
(0.00208136 -0.00903421 -0.0226887)
(0.00802017 -0.00980772 -0.0234938)
(0.0142413 -0.0105801 -0.0228405)
(0.0193011 -0.0111441 -0.0214444)
(0.0228252 -0.0115008 -0.0195746)
(0.0245417 -0.011742 -0.0174056)
(0.0241727 -0.012031 -0.0150875)
(0.0215669 -0.012595 -0.0127473)
(0.0150626 -0.0141582 -0.0104794)
(0.0089438 -0.0173765 -0.00948443)
(-0.00343047 0.00231636 -0.00733503)
(-0.00564222 -0.000318552 -0.00564223)
(-0.00597684 -0.0019909 -0.0042359)
(-0.00488959 -0.00264211 -0.00322746)
(-0.00335033 -0.00188786 -0.00253461)
(-0.00180812 -0.000945604 -0.0019692)
(-0.000331837 -0.000598107 -0.00142359)
(0.000919534 -0.000666895 -0.00087172)
(0.00168112 -0.000768782 -0.00052105)
(0.00199429 -0.000659208 -0.00046989)
(0.00212331 -0.000431407 -0.000544608)
(0.00235226 -0.000698017 -0.000446611)
(0.00298722 -0.000934902 -0.000579998)
(0.00420328 -0.000865827 -0.00106863)
(0.0059561 -0.00153391 -0.00181769)
(0.00783028 -0.0024254 -0.00278657)
(0.00928989 -0.00284139 -0.00412207)
(0.00962022 -0.00182762 -0.00539295)
(0.0087537 0.00130399 -0.0064388)
(0.00600937 0.00851342 -0.00758942)
(0.00233199 0.0103277 0.00627237)
(0.00508414 0.00647756 0.00508414)
(0.00507809 0.00355953 0.00318976)
(0.00285134 0.00171842 0.00164386)
(-0.00110837 0.000265374 0.000420679)
(-0.00313696 -0.00159455 -0.000795407)
(-0.00337148 -0.00207582 -0.00115891)
(-0.00245398 -0.00155219 -0.00120487)
(-0.00144477 -0.00066644 -0.00178226)
(-0.000729489 -3.2417e-05 -0.00236545)
(-2.25108e-05 0.00048142 -0.00247922)
(0.00089582 -0.000270872 -0.00180561)
(0.00197519 -0.00124482 -0.00110446)
(0.00264979 -0.00165229 -0.00106258)
(0.00290365 -0.00163891 -0.00117947)
(-0.000440825 0.00200686 -0.000275999)
(-0.00557651 0.00586221 0.000936009)
(-0.00835875 0.00748613 0.0022676)
(-0.00815552 0.0101679 0.00360965)
(-0.00297053 0.0152058 0.00352898)
(0.00697983 -0.00783558 0.0141625)
(0.0132112 -0.00337803 0.0132112)
(0.0164681 0.00141903 0.0110544)
(0.0156886 0.00413239 0.00846212)
(0.0119901 0.00454896 0.00593611)
(0.00788097 0.00290112 0.00384208)
(0.00388892 0.000536941 0.00228304)
(-0.000108649 -0.00234396 0.000202957)
(-0.00108093 -0.00208336 -0.00149021)
(-0.00144724 -0.0013747 -0.00251332)
(-0.0013501 -0.00104861 -0.00245686)
(-0.00175842 -0.00162925 -0.00119355)
(-0.00316315 -0.00156813 0.000412829)
(-0.00653245 0.000971184 0.00174122)
(-0.0115241 0.00460509 0.00298642)
(-0.0148958 0.00659568 0.0045493)
(-0.0178237 0.00690263 0.00673848)
(-0.0181873 0.00468401 0.00925592)
(-0.0144689 0.000639677 0.0113251)
(-0.00745433 -0.0016072 0.0120477)
(0.00479709 -0.0237258 0.00942379)
(0.0109953 -0.0165943 0.0109953)
(0.0149667 -0.00873425 0.0112992)
(0.0173088 -0.00120617 0.0104972)
(0.0168016 0.00307253 0.00910683)
(0.0142876 0.00408451 0.0077021)
(0.0110421 0.00363618 0.00634474)
(0.00767088 0.00295327 0.00483451)
(0.00329851 0.00168174 0.00266093)
(0.000138141 0.000681228 0.000401445)
(-0.00209742 0.000633376 9.70082e-05)
(-0.00531393 0.00120042 0.00170014)
(-0.00968549 0.00265595 0.00359934)
(-0.0134519 0.00433246 0.00501924)
(-0.0163729 0.0055136 0.00614972)
(-0.0183618 0.0054083 0.00743944)
(-0.0184505 0.00247983 0.008878)
(-0.0153576 -0.00481155 0.0100928)
(-0.0111247 -0.0128022 0.0101544)
(-0.00475148 -0.0198261 0.00886418)
(0.00307467 -0.0313502 0.00408454)
(0.00773775 -0.0237043 0.00773775)
(0.00903815 -0.0147601 0.00983231)
(0.00986675 -0.00631937 0.0109688)
(0.0103581 -7.85709e-05 0.011237)
(0.00954938 0.00277446 0.0107625)
(0.00770185 0.00349533 0.00996007)
(0.00563868 0.0040142 0.0089048)
(0.00351226 0.00468539 0.00762381)
(0.00173242 0.00493807 0.00606786)
(-2.06808e-05 0.00496153 0.00514504)
(-0.002641 0.00515909 0.00601694)
(-0.00576776 0.00512621 0.00729722)
(-0.00869719 0.00504838 0.00844819)
(-0.0108251 0.00451321 0.00937837)
(-0.0116604 0.00216236 0.0101175)
(-0.010457 -0.00366906 0.0104165)
(-0.00901309 -0.0120666 0.00965161)
(-0.00751092 -0.02098 0.00784964)
(-0.00284748 -0.0284464 0.00444919)
(0.00195833 -0.0352233 0.000426181)
(0.00576227 -0.0275245 0.00576227)
(0.00451097 -0.0184091 0.0087446)
(0.00377388 -0.00984007 0.0104731)
(0.00258165 -0.00363242 0.0114802)
(0.00228592 4.317e-05 0.0116423)
(0.00177953 0.00175679 0.0112124)
(0.00127134 0.00282305 0.0105355)
(0.000989061 0.0037835 0.00981518)
(0.000897813 0.00463705 0.00911745)
(0.000838626 0.0055659 0.00868973)
(0.00024558 0.00571363 0.00898113)
(-0.000693941 0.00528204 0.00966725)
(-0.00188466 0.00436408 0.0104957)
(-0.0028694 0.00267944 0.0112479)
(-0.0030478 -0.0010544 0.0115193)
(-0.00385425 -0.0074316 0.0107712)
(-0.00429349 -0.0162121 0.00916859)
(-0.0054817 -0.0254378 0.00629491)
(-0.00174765 -0.0331482 0.00117707)
(0.000741751 -0.0357263 -0.00237898)
(0.00411303 -0.0280318 0.00411303)
(0.000927685 -0.0195821 0.00717377)
(-0.000397598 -0.012064 0.00858474)
(-0.001815 -0.00678905 0.00914793)
(-0.00242469 -0.00381675 0.00911457)
(-0.00247563 -0.00208652 0.00882148)
(-0.00194156 -0.000725341 0.00859987)
(-0.000958515 0.000608205 0.00853281)
(5.35068e-05 0.00193707 0.00868195)
(0.00101491 0.00310613 0.00888685)
(0.00169139 0.00328539 0.00916601)
(0.00224768 0.00268212 0.00957406)
(0.00243718 0.0013458 0.00998673)
(0.00253344 -0.00105566 0.0101824)
(0.00203264 -0.00464248 0.0101422)
(0.00060338 -0.0102342 0.00952795)
(-0.000695296 -0.0180603 0.00796664)
(-0.00393069 -0.0266706 0.00480268)
(-0.000656523 -0.0342989 -0.00160316)
(-0.00117218 -0.0325968 -0.00514158)
(0.00129903 -0.0252791 0.00129903)
(-0.00346583 -0.0184346 0.00367958)
(-0.00487858 -0.0133033 0.00412009)
(-0.00584158 -0.0096152 0.00375472)
(-0.00587186 -0.00741151 0.0031163)
(-0.00529382 -0.00633855 0.00233867)
(-0.00403071 -0.00524756 0.00192022)
(-0.0022898 -0.0037049 0.00211779)
(-0.000579038 -0.0013753 0.00316126)
(0.0011658 0.00086409 0.00449292)
(0.00278823 0.00060453 0.00454543)
(0.00452985 -0.00053532 0.0045453)
(0.00582239 -0.00231459 0.00473097)
(0.00650334 -0.00480985 0.00503241)
(0.00639999 -0.00798315 0.00535964)
(0.005207 -0.0122107 0.00554712)
(0.0036088 -0.0175987 0.00478285)
(-0.00128681 -0.0247073 0.00209769)
(0.00112878 -0.0318618 -0.00459386)
(-0.00458315 -0.0246075 -0.00905087)
(-0.00498017 -0.0190731 -0.00498017)
(-0.0101733 -0.0150544 -0.00416084)
(-0.0119874 -0.012937 -0.00492911)
(-0.0124489 -0.0118502 -0.00624724)
(-0.0114552 -0.0115063 -0.00739162)
(-0.00955032 -0.0115039 -0.00824048)
(-0.00701137 -0.0114975 -0.00856417)
(-0.00409357 -0.0112046 -0.00815712)
(-0.00149563 -0.0100912 -0.00681753)
(0.00173361 -0.00937035 -0.0055514)
(0.00453262 -0.00990037 -0.00636988)
(0.00775872 -0.0103022 -0.00655143)
(0.0104633 -0.0106049 -0.00616045)
(0.0123538 -0.0109383 -0.00534094)
(0.0131432 -0.0115985 -0.00423688)
(0.0123954 -0.0128822 -0.00320396)
(0.0102962 -0.0150224 -0.00286614)
(0.00481121 -0.0189763 -0.00422104)
(0.00454317 -0.0244632 -0.00884333)
(-0.0102992 -0.0140862 -0.0152772)
(-0.015873 -0.00923653 -0.015873)
(-0.0221645 -0.00659264 -0.0187289)
(-0.0244277 -0.00528275 -0.0220311)
(-0.024776 -0.00447201 -0.0253335)
(-0.023489 -0.00381371 -0.0284348)
(-0.0208286 -0.00302515 -0.0311403)
(-0.016821 -0.00197544 -0.0332778)
(-0.0114075 -0.000603417 -0.0343866)
(-0.00584886 0.00107105 -0.0334668)
(0.0034883 0.0020848 -0.0327045)
(0.00999582 0.000676982 -0.0337114)
(0.0162702 -0.000595661 -0.0327963)
(0.0210745 -0.00172487 -0.0307845)
(0.0243022 -0.0027159 -0.0280495)
(0.0258312 -0.00367088 -0.024889)
(0.0254227 -0.00480767 -0.0215915)
(0.0229048 -0.00639657 -0.018419)
(0.0162978 -0.00923566 -0.0158263)
(0.0105666 -0.0142077 -0.0155528)
(-0.00239363 -0.000980331 -0.00755113)
(-0.0042359 -0.0019909 -0.00597684)
(-0.00446796 -0.00253679 -0.00446796)
(-0.00351075 -0.00254706 -0.00329411)
(-0.00216819 -0.00204648 -0.00252369)
(-0.000701341 -0.00151308 -0.00190046)
(0.000806767 -0.00120796 -0.0012411)
(0.00196182 -0.00105038 -0.000581037)
(0.00248861 -0.000830136 -0.000134236)
(0.00235789 -0.000544808 -0.00011371)
(0.00193222 -0.000275426 -0.000271607)
(0.0016706 -0.000542095 -0.000241314)
(0.00193036 -0.000920747 -0.000534272)
(0.00294046 -0.00106069 -0.00127944)
(0.00451109 -0.00163159 -0.00233543)
(0.00615627 -0.0023102 -0.00369343)
(0.00757477 -0.0029077 -0.00552482)
(0.00792457 -0.00230602 -0.00740279)
(0.00708826 -6.73408e-05 -0.00941698)
(0.00495833 0.0045866 -0.0118245)
(0.00177904 0.00659974 0.006016)
(0.00318976 0.00355953 0.00507809)
(0.00302399 0.00131466 0.00302399)
(0.00109502 -0.000370164 0.0011044)
(-0.00118268 -0.001729 -4.55311e-05)
(-0.0024183 -0.00284752 -0.000968153)
(-0.00235571 -0.00291318 -0.00102853)
(-0.00176123 -0.00225578 -0.000960137)
(-0.00115564 -0.00127899 -0.0013951)
(-0.000811256 -0.000533255 -0.00197679)
(-0.000454523 -1.61592e-06 -0.00211649)
(0.000177679 -0.000502949 -0.00155514)
(0.00106572 -0.0013551 -0.00121661)
(0.00179445 -0.00194384 -0.00161112)
(0.00219356 -0.00212712 -0.00206672)
(0.000191303 0.000419147 -0.00148332)
(-0.00333664 0.00352085 -0.000349841)
(-0.00525941 0.00488459 0.000915675)
(-0.00506921 0.00698432 0.00190883)
(-0.00121586 0.0111853 0.00114052)
(0.00618913 -0.000879044 0.0175091)
(0.0110544 0.00141903 0.0164681)
(0.0137136 0.00335983 0.0137136)
(0.0130245 0.00395679 0.0104253)
(0.0100387 0.00325751 0.00734775)
(0.00640572 0.00131131 0.00470858)
(0.00283178 -0.00101582 0.00260293)
(-0.000188945 -0.00295574 0.000521394)
(-0.00120812 -0.00276137 -0.000941996)
(-0.00170325 -0.0023652 -0.00195539)
(-0.00188367 -0.00214418 -0.00182464)
(-0.00232061 -0.00218559 -0.000646634)
(-0.00332848 -0.00180959 0.000636541)
(-0.00577714 0.000275303 0.00182852)
(-0.00984917 0.00353591 0.00341208)
(-0.012521 0.00564266 0.00543603)
(-0.0146414 0.00658391 0.00816147)
(-0.0148524 0.0060712 0.0113123)
(-0.0118824 0.00547538 0.0137823)
(-0.00617325 0.00663449 0.0143982)
(0.00537682 -0.014289 0.0123973)
(0.0112992 -0.00873425 0.0149667)
(0.0154331 -0.00282154 0.0154331)
(0.017203 0.00202372 0.0140625)
(0.0162013 0.00417797 0.011949)
(0.0135176 0.00409828 0.00982674)
(0.0101962 0.00296561 0.00777424)
(0.00662942 0.00154342 0.00547235)
(0.00242272 -0.000389952 0.00259676)
(-0.000706491 -0.00170474 9.69375e-05)
(-0.00291101 -0.00157597 0.000176369)
(-0.00584241 -0.000339529 0.00209077)
(-0.00968437 0.00182997 0.00439549)
(-0.0130878 0.00404279 0.0063335)
(-0.0157605 0.00559614 0.00798934)
(-0.0176867 0.00609651 0.00994618)
(-0.0180738 0.00469489 0.0121579)
(-0.0158641 0.000533033 0.0140951)
(-0.0114149 -0.00507173 0.0146374)
(-0.00542135 -0.010133 0.0132056)
(0.00411633 -0.0214793 0.00316343)
(0.00983231 -0.0147601 0.00903815)
(0.0125045 -0.00792364 0.0125045)
(0.0141487 -0.0012426 0.0139743)
(0.0142979 0.00328922 0.0138231)
(0.0128071 0.00500989 0.0128349)
(0.0103622 0.00496096 0.0114662)
(0.00760834 0.00456145 0.00976035)
(0.00465185 0.00407459 0.00759099)
(0.00167783 0.00267274 0.00486678)
(-0.00183899 0.00187381 0.0040013)
(-0.0052219 0.00328833 0.0060534)
(-0.00870821 0.00470036 0.00821227)
(-0.0117573 0.00571712 0.00990803)
(-0.01405 0.00605311 0.0113202)
(-0.0152151 0.00469121 0.0125389)
(-0.0145701 0.000642498 0.0132729)
(-0.0121924 -0.00586837 0.0126061)
(-0.00936345 -0.0122312 0.00991252)
(-0.00381799 -0.0180363 0.0048927)
(0.00273519 -0.0265009 -0.00337124)
(0.0087446 -0.0184091 0.00451097)
(0.0096066 -0.0108099 0.0096066)
(0.00981734 -0.00337157 0.0124347)
(0.00932473 0.00232912 0.0136133)
(0.0083544 0.00525079 0.0134211)
(0.00683369 0.00609828 0.0125495)
(0.00515268 0.00623573 0.0112678)
(0.00353894 0.00623922 0.00980641)
(0.00203522 0.00597814 0.00831742)
(0.000254789 0.0057975 0.00763164)
(-0.00214728 0.0063348 0.0087167)
(-0.00453151 0.0069134 0.0102314)
(-0.00677826 0.00710855 0.0117185)
(-0.00849937 0.00640238 0.0129633)
(-0.00935178 0.00361837 0.013628)
(-0.00943276 -0.00201077 0.0130358)
(-0.00899903 -0.00939023 0.0106302)
(-0.00825789 -0.0166533 0.0059096)
(-0.00253246 -0.0240505 -0.00144784)
(0.000751246 -0.0294594 -0.00745911)
(0.00717377 -0.0195821 0.000927685)
(0.00652022 -0.0114644 0.00652022)
(0.00614064 -0.00403667 0.00956707)
(0.00518715 0.00136905 0.0109343)
(0.00430295 0.0042594 0.0108207)
(0.00348992 0.00526716 0.0100924)
(0.0027647 0.00550362 0.0092309)
(0.00220752 0.00562825 0.00843056)
(0.00168511 0.00573857 0.00781524)
(0.000989789 0.00593227 0.00772637)
(-0.000116603 0.00632663 0.0084491)
(-0.00116328 0.00663217 0.00958698)
(-0.00232662 0.00646193 0.0107962)
(-0.00339435 0.00528215 0.0118846)
(-0.00443002 0.00217278 0.0123925)
(-0.00543674 -0.00333413 0.0112355)
(-0.00594896 -0.0107821 0.00813278)
(-0.00694702 -0.0186119 0.0024615)
(-0.000757893 -0.0277916 -0.00582559)
(-0.00191589 -0.0288073 -0.0110429)
(0.00367958 -0.0184346 -0.00346583)
(0.00157803 -0.0105073 0.00157803)
(0.00125716 -0.00333582 0.00388757)
(0.000957333 0.00189537 0.00482486)
(0.00103087 0.00451086 0.0044756)
(0.00118598 0.00563644 0.00368125)
(0.00142638 0.00633205 0.00300162)
(0.00171297 0.00691231 0.00274974)
(0.0016496 0.00745917 0.00301515)
(0.00127439 0.00794017 0.00361295)
(0.000971326 0.00798594 0.00409952)
(0.00105647 0.00775799 0.00487141)
(0.000991287 0.00713841 0.00581708)
(0.000694583 0.00572855 0.00684277)
(0.000345829 0.00269092 0.00737121)
(-0.000408456 -0.00318428 0.00620537)
(-0.00128543 -0.0104582 0.00352217)
(-0.00388336 -0.0181594 -0.00195682)
(0.00180119 -0.0279913 -0.00985343)
(-0.00582918 -0.0228551 -0.0153452)
(-0.00416084 -0.0150544 -0.0101733)
(-0.00743625 -0.00936436 -0.00743625)
(-0.0074473 -0.00577682 -0.00678433)
(-0.00700231 -0.00366837 -0.00738864)
(-0.00530845 -0.002899 -0.00766082)
(-0.00349294 -0.00305481 -0.00819607)
(-0.00173551 -0.00336194 -0.00831266)
(-0.000145044 -0.00320191 -0.00753669)
(0.000687996 -0.00150175 -0.0065247)
(0.00165958 -0.000696348 -0.00560114)
(0.00262455 -0.00176433 -0.00559329)
(0.00409056 -0.00225928 -0.00523308)
(0.00558592 -0.00243785 -0.00482244)
(0.00720008 -0.00280945 -0.00469498)
(0.00843897 -0.00412707 -0.00472073)
(0.00827796 -0.00651778 -0.0044231)
(0.00758469 -0.00993548 -0.00551891)
(0.00382634 -0.0152595 -0.0088846)
(0.00574784 -0.0228252 -0.0147037)
(-0.0127573 -0.0127024 -0.0216834)
(-0.0187289 -0.00659264 -0.0221645)
(-0.0250501 -0.00337821 -0.0250501)
(-0.0268594 -0.00168054 -0.0286942)
(-0.0267413 -0.000550111 -0.0324531)
(-0.0252185 0.000451362 -0.0361786)
(-0.0225107 0.00165183 -0.0396257)
(-0.0184461 0.00316855 -0.0424514)
(-0.012675 0.00504907 -0.0439669)
(-0.00644626 0.00721883 -0.0427161)
(0.0047468 0.00817149 -0.0415599)
(0.0118423 0.00621143 -0.0426977)
(0.0185488 0.00451715 -0.0414374)
(0.0235169 0.00301579 -0.0388566)
(0.0268561 0.00166671 -0.0354979)
(0.028619 0.000348159 -0.0318256)
(0.0285531 -0.00116105 -0.0280976)
(0.0262499 -0.00317144 -0.0245423)
(0.0193972 -0.00659935 -0.0218759)
(0.0131241 -0.0128651 -0.0216647)
(-0.00168302 -0.00221152 -0.00618189)
(-0.00322746 -0.00264211 -0.00488959)
(-0.00329411 -0.00254706 -0.00351075)
(-0.00250751 -0.00228843 -0.00250751)
(-0.00121143 -0.0020577 -0.00177314)
(0.000301417 -0.0018675 -0.00117467)
(0.0018869 -0.0017083 -0.000537724)
(0.0030324 -0.00136227 0.000246005)
(0.00331193 -0.000975394 0.000803567)
(0.00268742 -0.000607107 0.000901959)
(0.00162214 -0.000368846 0.00064466)
(0.000859008 -0.0005587 0.000358629)
(0.000756166 -0.000977668 -0.000233434)
(0.00156441 -0.00124276 -0.00123138)
(0.00288343 -0.00161851 -0.0024652)
(0.0042565 -0.0020696 -0.00396112)
(0.00534566 -0.00256533 -0.00581521)
(0.00571098 -0.00244027 -0.00782904)
(0.00493292 -0.00122781 -0.0100832)
(0.00330929 0.000966815 -0.0125474)
(0.00117489 0.00388824 0.00297912)
(0.00164386 0.00171842 0.00285134)
(0.0011044 -0.000370164 0.00109502)
(-0.000345471 -0.00219689 -0.000345471)
(-0.00136752 -0.0033733 -0.000895472)
(-0.00171299 -0.00385917 -0.00100549)
(-0.00154117 -0.00370385 -0.000678349)
(-0.00115338 -0.00284034 -0.000346453)
(-0.000944357 -0.0018128 -0.000459415)
(-0.000975532 -0.0010489 -0.000874161)
(-0.000944907 -0.000556629 -0.00107234)
(-0.000598552 -0.000765172 -0.000945144)
(9.27871e-05 -0.0014305 -0.00119148)
(0.000846215 -0.00211562 -0.00211189)
(0.00129845 -0.00238326 -0.00302017)
(0.000487133 -0.00104603 -0.00306909)
(-0.00143141 0.000939936 -0.00274279)
(-0.00262795 0.00180652 -0.00195836)
(-0.00248303 0.00287416 -0.00140442)
(-0.000422822 0.0046094 -0.0023257)
(0.0049588 0.00419334 0.0166417)
(0.00846212 0.00413239 0.0156886)
(0.0104253 0.00395679 0.0130245)
(0.00982225 0.00309285 0.00982225)
(0.00742627 0.00136489 0.00678407)
(0.00433654 -0.00088519 0.00417604)
(0.00147437 -0.0028386 0.0022423)
(-0.000526004 -0.00367919 0.000904604)
(-0.00146609 -0.00336147 2.79605e-05)
(-0.0020313 -0.00321655 -0.000687306)
(-0.0023877 -0.00305768 -0.000553186)
(-0.00269998 -0.00269881 0.000137119)
(-0.00326529 -0.0022103 0.000608147)
(-0.00468898 -0.000817578 0.0010973)
(-0.00765152 0.00187357 0.0024692)
(-0.00965844 0.00396231 0.00447382)
(-0.0109629 0.00514564 0.00710013)
(-0.0108954 0.00528043 0.0100955)
(-0.00854395 0.00530285 0.012408)
(-0.0044756 0.0063597 0.0126994)
(0.0056174 -0.00537629 0.0145595)
(0.0104972 -0.00120617 0.0173088)
(0.0140625 0.00202372 0.017203)
(0.0152679 0.00397228 0.0152679)
(0.014228 0.00424999 0.0127537)
(0.0117585 0.00316961 0.0102901)
(0.00861661 0.00150816 0.0079372)
(0.00504402 -0.000302846 0.00535777)
(0.00137545 -0.00207576 0.00278607)
(-0.00128798 -0.00329132 0.00102064)
(-0.00339327 -0.00317091 0.00132933)
(-0.00579598 -0.00160544 0.00282567)
(-0.00887427 0.000702677 0.00465047)
(-0.0118771 0.00315711 0.00657771)
(-0.0140344 0.00491261 0.00835349)
(-0.0155546 0.00592087 0.0105684)
(-0.0158314 0.00572715 0.0131634)
(-0.0141498 0.00388699 0.0156018)
(-0.0103394 0.00096514 0.0168263)
(-0.00543358 -0.00241799 0.0158283)
(0.00523643 -0.0133256 0.00299977)
(0.0109688 -0.00631937 0.00986675)
(0.0139743 -0.0012426 0.0141487)
(0.0154392 0.00273784 0.0154392)
(0.0152472 0.0049355 0.0148592)
(0.0135947 0.00525649 0.0134809)
(0.0110469 0.00445432 0.011775)
(0.00809335 0.00339484 0.00975114)
(0.00478436 0.0019122 0.00712792)
(0.00108666 -0.000535201 0.00422865)
(-0.00304478 -0.00120647 0.00402401)
(-0.00669147 0.000981651 0.00628073)
(-0.0100657 0.00342843 0.0086737)
(-0.0128206 0.00514596 0.0104884)
(-0.0148805 0.0061563 0.0120951)
(-0.0159593 0.00591919 0.0136307)
(-0.0155178 0.00385572 0.0147736)
(-0.0133871 1.94127e-05 0.0145543)
(-0.0100735 -0.00475552 0.011625)
(-0.00469739 -0.0107534 0.00624223)
(0.00333438 -0.0204945 -0.00497407)
(0.0104731 -0.00984007 0.00377388)
(0.0124347 -0.00337157 0.00981734)
(0.0131661 0.00181865 0.0131661)
(0.0128403 0.00534186 0.0142803)
(0.0116583 0.0067855 0.0139796)
(0.00980121 0.00670171 0.012947)
(0.00762271 0.0060579 0.0114652)
(0.00527856 0.00523408 0.0096925)
(0.00278236 0.00390515 0.00776619)
(-0.000682931 0.00289326 0.00717543)
(-0.0041923 0.00432701 0.00901961)
(-0.00726281 0.00594612 0.0109184)
(-0.00984098 0.00702757 0.012513)
(-0.011727 0.0072361 0.0137846)
(-0.0127033 0.00580662 0.0145153)
(-0.0126175 0.00225738 0.0140805)
(-0.0115278 -0.00291339 0.0115239)
(-0.00970734 -0.00883645 0.00626837)
(-0.00314746 -0.0181704 -0.00166047)
(0.000511481 -0.0257129 -0.00967239)
(0.00858474 -0.012064 -0.000397598)
(0.00956707 -0.00403667 0.00614064)
(0.00985475 0.00181308 0.00985475)
(0.00936175 0.00560525 0.0114931)
(0.00860955 0.00724035 0.0116894)
(0.00760138 0.0072842 0.0111229)
(0.00638346 0.00665065 0.0102361)
(0.00499416 0.00588498 0.00927182)
(0.00332871 0.00508595 0.0084092)
(0.000893421 0.00455146 0.00834861)
(-0.00209129 0.00530189 0.00959217)
(-0.00423779 0.00650617 0.0110179)
(-0.00608701 0.00732379 0.0122627)
(-0.00749722 0.00723209 0.0132111)
(-0.00848919 0.00540753 0.0134731)
(-0.00909512 0.00141483 0.0122316)
(-0.00886694 -0.00433539 0.00864837)
(-0.00835887 -0.0117888 0.00218406)
(-0.000699538 -0.024056 -0.00709623)
(-0.00281756 -0.0270645 -0.0136724)
(0.00412009 -0.0133033 -0.00487858)
(0.00388756 -0.00333582 0.00125716)
(0.00479796 0.00354974 0.00479796)
(0.00480562 0.00688141 0.00618873)
(0.00500265 0.00816192 0.00632754)
(0.00514438 0.00833813 0.00591298)
(0.00507061 0.00819291 0.00541213)
(0.00469157 0.00808175 0.00513295)
(0.00356223 0.00815008 0.00519731)
(0.00145132 0.00819886 0.00559861)
(-0.00076513 0.00826291 0.00639884)
(-0.00175595 0.00852016 0.00741641)
(-0.00248504 0.00872545 0.00838274)
(-0.00301838 0.00851051 0.00919589)
(-0.00349531 0.00704073 0.00943541)
(-0.00405377 0.00319009 0.00806496)
(-0.00348684 -0.00416678 0.00407857)
(-0.00453993 -0.0135823 -0.00250939)
(0.00251525 -0.0263555 -0.0118638)
(-0.00726996 -0.0224727 -0.0179936)
(-0.00492911 -0.012937 -0.0119874)
(-0.00678433 -0.00577682 -0.0074473)
(-0.00437243 -0.00100293 -0.00437243)
(-0.00320953 0.00118773 -0.00404675)
(-0.00154131 0.00123398 -0.00455534)
(-1.43688e-05 0.000387612 -0.00541123)
(0.00102092 -0.000345396 -0.00619814)
(0.00181195 -0.000373893 -0.00636705)
(0.00204862 0.00118023 -0.0055205)
(0.00196587 0.00160212 -0.00457341)
(0.00175085 0.000235231 -0.00436988)
(0.00248868 6.55625e-05 -0.003675)
(0.00336451 0.000530712 -0.00264922)
(0.00437788 0.000993501 -0.00154132)
(0.00504043 0.000400163 -0.000687533)
(0.00572909 -0.00251005 -0.00160402)
(0.00680457 -0.00701957 -0.00485465)
(0.00428459 -0.0136288 -0.0101614)
(0.00708069 -0.0227096 -0.0169808)
(-0.0151847 -0.0123495 -0.0242406)
(-0.0220311 -0.00528275 -0.0244277)
(-0.0286942 -0.00168054 -0.0268594)
(-0.0301195 0.000261645 -0.0301195)
(-0.029485 0.00161238 -0.0337057)
(-0.0278261 0.00286348 -0.0378222)
(-0.0251605 0.00443395 -0.0420559)
(-0.0209914 0.00641009 -0.0458214)
(-0.0146803 0.00876649 -0.0482292)
(-0.00750773 0.011521 -0.0477417)
(0.00648711 0.0124684 -0.0466869)
(0.0145348 0.00985216 -0.0471473)
(0.0217169 0.00767397 -0.044742)
(0.0266514 0.0058062 -0.0410255)
(0.0299206 0.00418082 -0.0369212)
(0.0319096 0.00263588 -0.0330056)
(0.0324024 0.000826315 -0.0295763)
(0.0302869 -0.00145636 -0.0263001)
(0.0228687 -0.00530329 -0.0239793)
(0.0156146 -0.0125874 -0.0239933)
(-0.00125036 -0.00136964 -0.00440971)
(-0.00253461 -0.00188786 -0.00335033)
(-0.00252369 -0.00204648 -0.00216819)
(-0.00177314 -0.0020577 -0.00121143)
(-0.000436352 -0.00202518 -0.000436352)
(0.00117812 -0.0020749 0.000215172)
(0.00293616 -0.00204394 0.000932154)
(0.00413457 -0.00168598 0.00177255)
(0.00419743 -0.00117295 0.0025387)
(0.00300371 -0.000775707 0.00290563)
(0.00111224 -0.000614112 0.00251275)
(-0.000229812 -0.000726884 0.00158801)
(-0.000640225 -0.00108197 0.000546899)
(4.02366e-05 -0.00139453 -0.000743609)
(0.00120735 -0.00160835 -0.00209534)
(0.00241161 -0.0018144 -0.00354575)
(0.00328105 -0.0020146 -0.005144)
(0.00353875 -0.00200492 -0.00680071)
(0.00297955 -0.00155882 -0.00867663)