/*--------------------------------*- C++ -*----------------------------------*\
  =========                 |
  \\      /  F ield         | OpenFOAM: The Open Source CFD Toolbox
   \\    /   O peration     | Website:  https://openfoam.org
    \\  /    A nd           | Version:  9
     \\/     M anipulation  |
\*---------------------------------------------------------------------------*/
FoamFile
{
    format      ascii;
    class       volScalarField;
    location    "0.4";
    object      p;
}
// * * * * * * * * * * * * * * * * * * * * * * * * * * * * * * * * * * * * * //

dimensions      [0 2 -2 0 0 0 0];

internalField   nonuniform List<scalar> 
900
(
4.57815e-06
-0.00252598
-0.00696119
-0.0120182
-0.0165751
-0.0198903
-0.0215109
-0.0211986
-0.0188772
-0.014595
-0.00849525
-0.000796261
0.00822486
0.0182443
0.0289022
0.0398121
0.0505722
0.0607763
0.0700285
0.0779593
0.0842442
0.0886259
0.090938
0.0911328
0.0893116
0.0857601
0.0809914
0.0758048
0.0713609
0.0689146
0.00253104
-2.03993e-05
-0.00354724
-0.00731817
-0.0106564
-0.0130184
-0.0140395
-0.0135112
-0.0113511
-0.00757912
-0.00229903
0.00431801
0.0120463
0.0206167
0.0297262
0.0390482
0.048242
0.0569648
0.0648843
0.071694
0.0771298
0.0809884
0.0831475
0.0835867
0.0824082
0.0798577
0.0763465
0.0724641
0.0689293
0.0664789
0.00703537
0.0034551
-0.000176513
-0.00355517
-0.00639971
-0.00832791
-0.00906393
-0.00845004
-0.00642258
-0.00299851
0.00173582
0.00763574
0.0145082
0.0221208
0.0302099
0.0384899
0.0466621
0.0544252
0.0614879
0.0675815
0.0724759
0.0759947
0.0780323
0.0785698
0.0776877
0.0755783
0.0725617
0.0690668
0.0654309
0.0619878
0.0124094
0.0072772
0.00293932
-0.000620771
-0.00345757
-0.00531259
-0.00598925
-0.0053873
-0.00347519
-0.000281994
0.00410787
0.00956155
0.0159047
0.0229278
0.0303933
0.0380422
0.0456026
0.052799
0.059363
0.0650456
0.0696306
0.072949
0.0748928
0.0754278
0.0746009
0.0725479
0.0695134
0.0658109
0.0614605
0.0564953
0.017688
0.0108535
0.00557104
0.00157246
-0.00148569
-0.00344304
-0.00417128
-0.00362607
-0.00181147
0.00122517
0.005394
0.0105663
0.0165784
0.0232364
0.0303204
0.0375899
0.0447911
0.0516642
0.0579539
0.0634195
0.0678478
0.0710656
0.0729522
0.0734496
0.0725672
0.0703862
0.0670894
0.0629035
0.0575808
0.0509244
0.0222135
0.0136599
0.0073227
0.0027387
-0.000679001
-0.0028449
-0.00368679
-0.00321105
-0.00145717
0.00150633
0.00557946
0.0106319
0.0165047
0.0230127
0.0299467
0.0370778
0.044162
0.0509474
0.0571823
0.0626255
0.067057
0.0702903
0.0721837
0.0726499
0.0716586
0.0692417
0.0655331
0.0606985
0.0542699
0.045879
0.0255183
0.0152705
0.00783064
0.00258067
-0.00127336
-0.0037022
-0.00467878
-0.00425453
-0.00250274
0.000485664
0.00459751
0.00969661
0.0156238
0.022197
0.0292121
0.0364452
0.0436557
0.0505921
0.0569989
0.0626256
0.0672374
0.0706263
0.0726227
0.0731048
0.0720016
0.0692993
0.0650944
0.0595125
0.051902
0.041766
0.0272387
0.0153251
0.00676914
0.000821732
-0.00349475
-0.00619458
-0.00728791
-0.00686657
-0.00503599
-0.00190995
0.00238326
0.0076987
0.0138732
0.0207239
0.0280473
0.0356194
0.0431978
0.0505256
0.0573368
0.0633652
0.0683535
0.072065
0.0742955
0.0748838
0.0737155
0.0707333
0.0660034
0.0596251
0.0507863
0.0388859
0.0270605
0.0134942
0.00382287
-0.002822
-0.00758996
-0.0105316
-0.0116898
-0.0111939
-0.00918085
-0.00578764
-0.00115905
0.00454918
0.0111675
0.0185094
0.0263688
0.0345183
0.04271
0.0506767
0.0581376
0.0648042
0.0703904
0.0746239
0.0772587
0.078088
0.0769495
0.073741
0.0685014
0.0613112
0.0512063
0.0374931
0.0246821
0.00945395
-0.00132868
-0.00865056
-0.0138308
-0.0169541
-0.0180942
-0.0174185
-0.0150955
-0.0112866
-0.00615445
0.000133172
0.00739883
0.0154508
0.0240788
0.0330502
0.0421089
0.0509752
0.0593489
0.0669148
0.073352
0.0783449
0.0815982
0.0828511
0.0818864
0.0785512
0.0728551
0.0648617
0.0534518
0.0378403
0.0197884
0.00286636
-0.00902435
-0.0169869
-0.0225155
-0.0257305
-0.0267394
-0.0257495
-0.0229636
-0.0185693
-0.0127485
-0.00568237
0.00244342
0.0114317
0.0210679
0.0311139
0.0413049
0.0513471
0.0609188
0.0696744
0.0772522
0.0832863
0.0874225
0.0893356
0.0887423
0.0854289
0.0793687
0.0706037
0.0578456
0.0402126
0.012033
-0.0066379
-0.019635
-0.0281861
-0.033973
-0.0371583
-0.0378888
-0.0364179
-0.0329869
-0.0278131
-0.0210995
-0.013041
-0.00383142
0.00632786
0.0172194
0.0286015
0.0402021
0.051714
0.0627933
0.0730615
0.0821115
0.0895192
0.0948608
0.0977334
0.0977719
0.0946861
0.0883992
0.0789208
0.0647695
0.0449552
0.0010221
-0.0194758
-0.0335776
-0.0426456
-0.0485693
-0.0515648
-0.051829
-0.0496707
-0.0453777
-0.0392012
-0.0313677
-0.0220863
-0.0115575
1.5829e-05
0.0124169
0.0254044
0.038703
0.051995
0.0649164
0.077055
0.0879547
0.0971258
0.104063
0.108268
0.109275
0.106693
0.100374
0.0902767
0.0746905
0.0525002
-0.0137001
-0.0361295
-0.0513317
-0.0608173
-0.0667133
-0.0693078
-0.0688645
-0.0657626
-0.0603465
-0.0529084
-0.0437009
-0.032947
-0.0208512
-0.00761355
0.00655589
0.0214228
0.0367152
0.0521116
0.0672323
0.0816339
0.0948096
0.106198
0.115198
0.121198
0.123603
0.12189
0.11581
0.10524
0.0881899
0.0633955
-0.0326703
-0.0571691
-0.0734595
-0.0832213
-0.0888637
-0.090775
-0.0893111
-0.0849428
-0.0780861
-0.0690824
-0.058214
-0.0457165
-0.0317941
-0.016637
-0.000439953
0.0165794
0.0341629
0.0519954
0.0696903
0.0867792
0.102707
0.116834
0.128454
0.136818
0.141167
0.140807
0.135341
0.124518
0.105999
0.0783385
-0.0565325
-0.0832832
-0.100634
-0.110465
-0.115536
-0.116381
-0.113483
-0.107437
-0.0987478
-0.0878182
-0.0749625
-0.0604264
-0.0444069
-0.0270747
-0.00859705
0.0108385
0.0310023
0.0516001
0.0722526
0.092478
0.111679
0.129141
0.144038
0.15546
0.162447
0.164077
0.15974
0.148993
0.129044
0.0982202
-0.0860781
-0.115326
-0.133676
-0.143267
-0.147312
-0.146558
-0.141676
-0.133419
-0.12241
-0.109124
-0.0939081
-0.0770131
-0.0586182
-0.038861
-0.0178654
0.0042293
0.0272409
0.0509165
0.0749044
0.0987283
0.121765
0.143227
0.162168
0.177494
0.187996
0.192454
0.189962
0.179779
0.158514
0.124186
-0.122312
-0.15439
-0.173617
-0.182487
-0.184841
-0.181747
-0.174134
-0.162974
-0.149038
-0.132878
-0.114877
-0.0952778
-0.0742275
-0.0518112
-0.0280888
-0.00312886
0.0229587
0.0499884
0.0776641
0.105543
0.132999
0.159196
0.183067
0.203316
0.218441
0.226836
0.227183
0.218292
0.195946
0.157727
-0.166564
-0.201918
-0.221776
-0.229171
-0.228848
-0.22236
-0.211008
-0.196046
-0.178421
-0.158775
-0.13751
-0.114843
-0.0908669
-0.0655881
-0.0389764
-0.0110018
0.0183279
0.0489273
0.0805916
0.11295
0.145414
0.17713
0.206935
0.23333
0.254472
0.268277
0.272854
0.266349
0.243364
0.200813
-0.220676
-0.259891
-0.279886
-0.28459
-0.280114
-0.268739
-0.252282
-0.232358
-0.210112
-0.186264
-0.161209
-0.135111
-0.107966
-0.0796744
-0.0500808
-0.019024
0.0136244
0.0479179
0.083787
0.120983
0.159012
0.197061
0.233917
0.267904
0.296815
0.317983
0.328759
0.326305
0.303487
0.256121
-0.287349
-0.33112
-0.350262
-0.350291
-0.339435
-0.32106
-0.297671
-0.271313
-0.243329
-0.214475
-0.18509
-0.155222
-0.124732
-0.0933603
-0.0607929
-0.0266997
0.00922223
0.0472075
0.087373
0.129655
0.17373
0.21891
0.264025
0.307289
0.346152
0.377289
0.397068
0.401235
0.380051
0.327423
-0.370764
-0.419729
-0.43603
-0.428108
-0.407513
-0.379174
-0.346457
-0.311859
-0.27686
-0.242158
-0.207936
-0.174049
-0.140145
-0.105758
-0.0703657
-0.0334315
0.00555999
0.0470681
0.0914511
0.138903
0.189366
0.2424
0.29702
0.351477
0.402984
0.447546
0.480353
0.495174
0.478324
0.420274
-0.477789
-0.53193
-0.541395
-0.520095
-0.484733
-0.442348
-0.39726
-0.352315
-0.30895
-0.267618
-0.228193
-0.190207
-0.153008
-0.115857
-0.0779772
-0.0385886
0.00307024
0.0477224
0.0960206
0.148495
0.205466
0.266904
0.332221
0.399963
0.467358
0.529902
0.581516
0.613381
0.605917
0.543343
-0.620437
-0.677275
-0.671833
-0.628197
-0.570675
-0.508817
-0.4477
-0.390157
-0.337194
-0.288702
-0.243998
-0.202129
-0.162034
-0.122629
-0.0828406
-0.0416192
0.00206588
0.0492279
0.100857
0.157893
0.221159
0.291229
0.368208
0.45134
0.538369
0.624762
0.703425
0.762514
0.774078
0.711092
-0.820881
-0.870486
-0.833801
-0.753243
-0.663081
-0.574967
-0.493864
-0.421727
-0.35843
-0.302796
-0.253262
-0.208188
-0.165988
-0.125175
-0.0843546
-0.0421987
0.00259244
0.051327
0.105353
0.166073
0.234924
0.313301
0.402363
0.502634
0.613216
0.730619
0.847773
0.950242
0.999505
0.949113
-1.1202
-1.13325
-1.03341
-0.893156
-0.756378
-0.634383
-0.529834
-0.44211
-0.368813
-0.307016
-0.253893
-0.206921
-0.163904
-0.122925
-0.0822799
-0.0403864
0.00429163
0.0533262
0.108404
0.171403
0.244449
0.329941
0.430488
0.548631
0.686107
0.842452
1.01315
1.18369
1.30573
1.30274
-1.59391
-1.49456
-1.27385
-1.04153
-0.841169
-0.677956
-0.548223
-0.445872
-0.364597
-0.298925
-0.244415
-0.197539
-0.155477
-0.11593
-0.0769389
-0.0367412
0.00636367
0.0541359
0.108531
0.171844
0.246881
0.337155
0.44706
0.581968
0.747992
0.950902
1.19326
1.46643
1.72288
1.85162
-2.412
-1.99037
-1.54061
-1.17663
-0.897789
-0.690501
-0.5386
-0.426446
-0.341954
-0.276514
-0.223993
-0.179949
-0.141091
-0.10488
-0.0692438
-0.0323617
0.00750587
0.0521797
0.103737
0.164729
0.238472
0.329463
0.443946
0.590708
0.782147
1.0346
1.36462
1.78318
2.28909
2.77172
-4.02177
-2.64105
-1.7301
-1.20352
-0.85938
-0.628306
-0.473312
-0.36657
-0.290141
-0.233122
-0.188574
-0.151848
-0.119685
-0.089674
-0.0599
-0.0287079
0.0054732
0.0443025
0.0897011
0.144096
0.210781
0.294488
0.402343
0.545587
0.742808
1.02371
1.42889
2.02903
3.02778
4.51444
-6.7753
-3.27619
-1.63119
-0.981573
-0.646804
-0.449906
-0.330913
-0.25499
-0.203139
-0.16549
-0.136434
-0.112432
-0.0910745
-0.0705922
-0.0495789
-0.0268131
-0.00112761
0.0287064
0.0641132
0.106893
0.159509
0.225592
0.310909
0.425507
0.588681
0.837655
1.2412
1.98554
3.74441
7.36189
)
;

boundaryField
{
    movingWall
    {
        type            zeroGradient;
    }
    fixedWalls
    {
        type            zeroGradient;
    }
    frontAndBack
    {
        type            empty;
    }
}


// ************************************************************************* //
