/*--------------------------------*- C++ -*----------------------------------*\
  =========                 |
  \\      /  F ield         | OpenFOAM: The Open Source CFD Toolbox
   \\    /   O peration     | Website:  https://openfoam.org
    \\  /    A nd           | Version:  9
     \\/     M anipulation  |
\*---------------------------------------------------------------------------*/
FoamFile
{
    format      ascii;
    class       volScalarField;
    location    "0.05";
    object      k;
}
// * * * * * * * * * * * * * * * * * * * * * * * * * * * * * * * * * * * * * //

dimensions      [0 2 -2 0 0 0 0];

internalField   nonuniform List<scalar> 
1935
(
0.0229241
0.0260882
0.0297135
0.0318347
0.0330221
0.0336983
0.0341091
0.0343924
0.0346242
0.0348457
0.0350794
0.0353387
0.0356338
0.0359752
0.0363762
0.0368555
0.03744
0.0381682
0.0390932
0.0402723
0.0417624
0.0434806
0.0449209
0.0456247
0.0454351
0.0448703
0.0448639
0.0445991
0.0427764
0.0407903
0.0390017
0.0376842
0.0368133
0.0361586
0.0356098
0.035112
0.0346359
0.0341611
0.0336654
0.0331212
0.0324877
0.0316937
0.0305934
0.028863
0.028885
0.0492125
0.0577258
0.0620361
0.0643541
0.0656377
0.0663709
0.0668163
0.0671207
0.0673677
0.0676059
0.0678657
0.0681701
0.0685405
0.069003
0.0695919
0.0703551
0.0713569
0.0726732
0.0743672
0.0763906
0.0784623
0.0798942
0.0802076
0.0793048
0.0778062
0.0773366
0.0776114
0.0760054
0.0720178
0.0683693
0.0658281
0.0643537
0.0635744
0.0632426
0.0630191
0.06278
0.0625011
0.0621638
0.0617315
0.0611291
0.0601925
0.058551
0.0553473
0.0318801
0.0578682
0.0681076
0.0731699
0.0759293
0.0775196
0.0784812
0.0791008
0.0795404
0.0798958
0.0802261
0.0805713
0.0809625
0.0814291
0.0820045
0.0827307
0.0836605
0.084856
0.0863731
0.0882187
0.0902459
0.0920755
0.0930822
0.0929989
0.0920228
0.0910432
0.0916413
0.0907893
0.0878242
0.0847621
0.0823764
0.0810283
0.0801717
0.0794657
0.078756
0.078062
0.0774203
0.076829
0.0762559
0.0756446
0.0748911
0.0737803
0.071838
0.0679768
0.0336162
0.0622227
0.0733072
0.0787033
0.0816574
0.0833992
0.0844911
0.0852235
0.0857593
0.0861963
0.0865971
0.0870055
0.0874568
0.087984
0.0886228
0.0894148
0.0904069
0.0916445
0.0931494
0.0948724
0.0966109
0.097968
0.0984391
0.0979459
0.0968654
0.0960501
0.0958555
0.0953855
0.0939899
0.0906924
0.0882973
0.0877209
0.0877704
0.0875172
0.0868857
0.0860926
0.0852924
0.0845395
0.0838275
0.0831094
0.0822804
0.0811119
0.079092
0.0750241
0.0346434
0.0646583
0.076246
0.0818355
0.0848951
0.08672
0.0878877
0.0886895
0.0892868
0.0897765
0.0902212
0.090666
0.0911469
0.0916974
0.0923514
0.093145
0.0941138
0.0952823
0.0966409
0.098104
0.0994572
0.100352
0.100446
0.0998225
0.0989807
0.0986415
0.0979222
0.0977363
0.0973026
0.0945005
0.0922127
0.0917602
0.0919524
0.091842
0.0913088
0.0905466
0.0897234
0.0889203
0.088154
0.0873943
0.086548
0.0853927
0.0834093
0.0793396
0.0352792
0.0661036
0.0780186
0.0837413
0.0868706
0.0887465
0.0899595
0.0908025
0.0914357
0.0919546
0.0924208
0.0928788
0.0933636
0.0939069
0.0945385
0.095287
0.0961756
0.0972109
0.0983625
0.0995331
0.100532
0.101098
0.101059
0.100636
0.100379
0.100778
0.100036
0.0997701
0.0992159
0.0967845
0.094899
0.0944076
0.0944415
0.0942798
0.0937822
0.0930706
0.0922792
0.0914871
0.0907218
0.0899669
0.0891446
0.0880492
0.0861723
0.0822197
0.0356978
0.0669988
0.0791323
0.084954
0.0881356
0.0900466
0.0912877
0.0921543
0.092806
0.0933372
0.0938082
0.094262
0.0947321
0.0952468
0.0958315
0.0965073
0.0972871
0.0981657
0.0991048
0.100015
0.100752
0.101156
0.1012
0.101196
0.10166
0.102809
0.102327
0.101769
0.100581
0.0983356
0.0967408
0.0961542
0.0959712
0.0956932
0.0951892
0.0945206
0.0937786
0.0930267
0.0922935
0.0915722
0.0908018
0.0898021
0.088095
0.0843815
0.035993
0.0675745
0.0798522
0.0857479
0.0889706
0.0909076
0.0921668
0.0930461
0.0937051
0.0942372
0.0947017
0.0951399
0.0955831
0.0960568
0.0965816
0.0971731
0.0978372
0.0985638
0.099317
0.100029
0.100609
0.100993
0.101266
0.101776
0.10296
0.104822
0.104892
0.103922
0.101881
0.0995462
0.0980229
0.0972999
0.0969158
0.0965194
0.0959944
0.0953601
0.0946707
0.0939711
0.0932858
0.0926148
0.0919157
0.091045
0.0895853
0.0862996
0.0362158
0.0679595
0.0803283
0.0862773
0.0895319
0.0914882
0.0927593
0.0936445
0.0943038
0.0948298
0.0952809
0.0956967
0.0961068
0.0965336
0.0969948
0.0975018
0.0980575
0.0986523
0.0992601
0.0998402
0.100356
0.100822
0.101398
0.102441
0.104316
0.106944
0.107789
0.106297
0.103281
0.100605
0.0989529
0.0980545
0.0974958
0.0969984
0.0964522
0.0958474
0.0952094
0.0945657
0.0939353
0.0933238
0.0927096
0.0919988
0.0908812
0.0883257
0.0363947
0.068228
0.08065
0.0866346
0.0899122
0.0918825
0.0931609
0.0940478
0.0947033
0.0952193
0.0956533
0.0960438
0.0964186
0.0967983
0.0971982
0.0976279
0.0980902
0.0985799
0.0990843
0.0995912
0.100111
0.100719
0.101626
0.103185
0.105722
0.109186
0.110898
0.108781
0.104762
0.101585
0.0996677
0.0985644
0.0978514
0.0972712
0.0967082
0.0961304
0.0955411
0.0949532
0.0943803
0.0938327
0.09331
0.0927764
0.0920773
0.0906304
0.0365462
0.0684245
0.0808734
0.0868791
0.0901718
0.0921512
0.0934334
0.0943193
0.0949687
0.0954729
0.0958886
0.0962532
0.0965934
0.0969286
0.097273
0.0976358
0.098022
0.098433
0.0988709
0.0993498
0.0999195
0.100702
0.101938
0.103984
0.10716
0.111506
0.114052
0.111226
0.106251
0.102506
0.100253
0.0989293
0.0980754
0.0974254
0.0968499
0.0962976
0.0957542
0.0952207
0.0947056
0.0942227
0.0937891
0.0934198
0.0931037
0.0926921
0.0366805
0.0685755
0.0810322
0.0870465
0.0903467
0.0923305
0.0936137
0.0944966
0.0951386
0.0956305
0.0960279
0.0963677
0.0966758
0.0969711
0.0972674
0.097575
0.0979022
0.0982581
0.0986592
0.099143
0.0997905
0.100757
0.10231
0.104808
0.108597
0.113824
0.11708
0.113494
0.107658
0.103354
0.100749
0.0992041
0.0982205
0.0975102
0.0969255
0.0963974
0.0958971
0.0954161
0.094958
0.094538
0.094184
0.0939396
0.0938634
0.0939793
0.0368026
0.0686968
0.0811478
0.0871607
0.0904614
0.0924453
0.0937265
0.094605
0.095239
0.0957186
0.0960988
0.096416
0.0966956
0.0969563
0.0972126
0.0974765
0.0977602
0.0980805
0.0984671
0.0989769
0.0997158
0.100865
0.10271
0.105624
0.109985
0.116043
0.119827
0.115476
0.108908
0.104104
0.101168
0.0994165
0.0983161
0.0975539
0.0969626
0.0964575
0.0959978
0.0955666
0.0951636
0.0948031
0.0945169
0.0943585
0.0944062
0.0947474
0.0369159
0.0687989
0.0812352
0.0872388
0.0905341
0.0925138
0.0937906
0.0946632
0.0952889
0.0957568
0.0961213
0.0964184
0.0966733
0.0969051
0.097129
0.0973593
0.0976122
0.0979119
0.0982993
0.0988474
0.0996818
0.101004
0.103116
0.106408
0.111292
0.118093
0.122204
0.117121
0.109961
0.10474
0.101516
0.0995814
0.0983788
0.0975725
0.0969771
0.0964939
0.096072
0.095688
0.0953372
0.0950318
0.0948024
0.0947011
0.0948026
0.0951886
0.0370227
0.0688885
0.0813042
0.0872927
0.0905778
0.0925498
0.0938199
0.0946854
0.0953025
0.0957594
0.0961099
0.0963895
0.0966235
0.0968315
0.0970298
0.097235
0.0974671
0.0977569
0.0981551
0.0987477
0.0996761
0.101158
0.103512
0.107144
0.112497
0.119933
0.124171
0.118417
0.110802
0.105255
0.101795
0.0997064
0.0984176
0.0975751
0.0969779
0.0965155
0.0961287
0.0957884
0.0954859
0.0952303
0.0950478
0.0949835
0.0950981
0.0954498
0.0371243
0.0689697
0.0813613
0.0873307
0.0906018
0.0925632
0.0938246
0.094682
0.0952905
0.0957371
0.0960751
0.0963398
0.0965565
0.0967452
0.0969237
0.0971105
0.0973296
0.097617
0.0980318
0.098671
0.0996891
0.101318
0.10389
0.107827
0.113594
0.121551
0.125729
0.119384
0.111439
0.105653
0.102009
0.0997966
0.0984379
0.0975667
0.0969698
0.0965271
0.0961724
0.0958718
0.0956131
0.0954012
0.0952568
0.0952155
0.0953221
0.0956122
0.0372214
0.0690452
0.0814108
0.0873584
0.090613
0.0925617
0.0938128
0.0946613
0.0952609
0.095698
0.0960251
0.096277
0.0964794
0.0966529
0.0968163
0.0969901
0.0972015
0.0974917
0.0979264
0.0986121
0.0997143
0.101477
0.104247
0.108458
0.114591
0.122961
0.126917
0.120067
0.111898
0.105946
0.102165
0.0998564
0.0984431
0.0975504
0.0969557
0.0965314
0.0962056
0.0959404
0.0957202
0.0955457
0.0954317
0.0954043
0.0954939
0.0957193
0.0373147
0.0691167
0.0814553
0.0873797
0.0906161
0.0925505
0.0937903
0.0946292
0.09522
0.0956482
0.0959655
0.0962067
0.0963975
0.0965589
0.0967109
0.0968759
0.0970838
0.0973799
0.0978362
0.0985668
0.0997473
0.101633
0.104583
0.109044
0.115506
0.124193
0.127791
0.120521
0.112211
0.106152
0.102271
0.0998908
0.0984362
0.0975281
0.0969373
0.0965299
0.0962296
0.0959953
0.0958081
0.0956649
0.0955749
0.0955557
0.0956266
0.0957958
0.0374045
0.0691852
0.0814967
0.0873972
0.0906145
0.0925336
0.0937612
0.0945902
0.0951723
0.0955921
0.0959008
0.096133
0.0963143
0.0964663
0.0966099
0.0967691
0.0969763
0.0972804
0.0977588
0.0985325
0.0997859
0.101786
0.104902
0.109594
0.116362
0.125278
0.128404
0.120802
0.112415
0.106288
0.102339
0.099905
0.0984198
0.0975015
0.0969156
0.0965236
0.0962457
0.0960377
0.0958782
0.0957606
0.0956893
0.095675
0.095729
0.0958541
0.037491
0.0692515
0.081536
0.0874126
0.0906103
0.0925137
0.0937288
0.0945476
0.0951211
0.095533
0.0958342
0.0960586
0.0962322
0.0963769
0.0965144
0.0966701
0.0968786
0.0971921
0.0976924
0.0985071
0.0998287
0.101934
0.105207
0.110118
0.117175
0.126239
0.128801
0.120954
0.112537
0.106374
0.102376
0.099904
0.0983967
0.097472
0.0968916
0.0965134
0.0962547
0.0960688
0.0959321
0.0958351
0.0957781
0.0957668
0.0958072
0.0958985
0.0375744
0.069316
0.081574
0.087427
0.0906052
0.0924928
0.0936952
0.0945038
0.0950688
0.0954734
0.0957676
0.0959855
0.0961528
0.0962919
0.0964251
0.0965791
0.0967903
0.0971138
0.0976357
0.0984893
0.0998751
0.10208
0.1055
0.110621
0.117959
0.127099
0.129032
0.121016
0.112605
0.106424
0.102393
0.0998924
0.0983692
0.0974408
0.0968662
0.0965002
0.0962577
0.0960902
0.0959719
0.0958911
0.095845
0.0958356
0.0958652
0.0959317
0.0960232
0.0376548
0.0693789
0.0816111
0.087441
0.0906
0.092472
0.0936618
0.0944602
0.0950171
0.0954147
0.0957028
0.095915
0.0960772
0.0962119
0.0963422
0.0964957
0.0967106
0.0970445
0.0975875
0.0984782
0.0999246
0.102224
0.105785
0.11111
0.118732
0.127891
0.129152
0.121027
0.112638
0.106451
0.102396
0.0998743
0.0983395
0.0974092
0.0968402
0.0964848
0.0962559
0.0961033
0.0959996
0.0959314
0.0958935
0.0958852
0.0959063
0.0959547
0.0960203
0.0377321
0.0694404
0.0816475
0.087455
0.0905954
0.092452
0.0936295
0.0944181
0.0949669
0.095358
0.0956406
0.0958479
0.0960059
0.0961373
0.0962657
0.0964196
0.0966388
0.0969834
0.0975468
0.0984729
0.099977
0.102367
0.106064
0.11159
0.119504
0.128634
0.129202
0.121013
0.112654
0.106465
0.102391
0.0998525
0.098309
0.097378
0.0968141
0.0964678
0.0962502
0.0961096
0.0960175
0.0959589
0.095927
0.0959191
0.0959338
0.0959681
0.0960149
0.0378066
0.0695003
0.0816833
0.0874693
0.0905917
0.0924335
0.0935989
0.0943779
0.0949192
0.0953041
0.0955815
0.0957846
0.0959391
0.096068
0.0961952
0.0963503
0.0965743
0.0969296
0.0975128
0.0984728
0.100032
0.102508
0.106336
0.11206
0.120271
0.129324
0.129209
0.120987
0.11266
0.10647
0.102382
0.0998294
0.0982791
0.0973478
0.0967886
0.09645
0.0962416
0.0961107
0.0960275
0.095976
0.0959483
0.0959404
0.09595
0.0959738
0.0960061
0.037878
0.0695588
0.0817184
0.0874838
0.090589
0.0924165
0.0935703
0.0943401
0.0948741
0.0952532
0.095526
0.0957253
0.0958769
0.0960039
0.0961306
0.0962873
0.0965165
0.0968824
0.0974849
0.0984775
0.100089
0.102647
0.106602
0.112516
0.121011
0.129974
0.129222
0.120961
0.112661
0.106472
0.10237
0.0998066
0.0982506
0.0973194
0.0967642
0.096432
0.096231
0.0961077
0.0960314
0.0959852
0.0959602
0.0959519
0.0959572
0.0959729
0.0959942
0.0379466
0.0696158
0.0817529
0.0874986
0.0905874
0.0924013
0.093544
0.0943049
0.0948319
0.0952055
0.095474
0.0956701
0.0958192
0.0959448
0.0960715
0.0962303
0.0964647
0.0968412
0.0974624
0.0984864
0.100149
0.102786
0.106862
0.112961
0.121737
0.130614
0.129256
0.120946
0.112663
0.106472
0.102359
0.099785
0.0982242
0.097293
0.0967412
0.0964142
0.0962193
0.0961019
0.0960307
0.0959883
0.095965
0.0959559
0.0959576
0.0959669
0.0959795
0.0380123
0.0696712
0.0817867
0.0875136
0.0905869
0.0923878
0.0935199
0.0942724
0.0947927
0.0951612
0.0954257
0.0956188
0.0957659
0.0958905
0.0960175
0.0961786
0.0964186
0.0968055
0.0974449
0.0984993
0.10021
0.102924
0.107116
0.113394
0.122447
0.131246
0.12933
0.120952
0.112672
0.106473
0.102349
0.0997653
0.0982001
0.0972689
0.0967199
0.0963973
0.0962072
0.0960944
0.096027
0.0959871
0.0959647
0.0959545
0.095953
0.0959571
0.0959629
0.0380751
0.0697252
0.0818197
0.0875289
0.0905873
0.092376
0.0934981
0.0942425
0.0947565
0.0951201
0.0953809
0.0955714
0.0957168
0.0958406
0.0959683
0.096132
0.0963776
0.0967748
0.0974322
0.098516
0.100274
0.103061
0.107366
0.113814
0.123125
0.131866
0.129457
0.120984
0.112689
0.106478
0.10234
0.099748
0.0981786
0.0972472
0.0967006
0.0963815
0.0961952
0.0960859
0.0960213
0.095983
0.095961
0.0959495
0.0959451
0.0959448
0.0959452
0.0381351
0.0697776
0.0818521
0.0875442
0.0905887
0.0923658
0.0934783
0.0942151
0.0947231
0.0950821
0.0953396
0.0955276
0.0956716
0.095795
0.0959236
0.0960901
0.0963413
0.0967489
0.0974237
0.0985363
0.10034
0.103198
0.107612
0.114223
0.123773
0.132483
0.129633
0.12104
0.112716
0.106487
0.102335
0.0997332
0.0981598
0.0972281
0.0966835
0.0963673
0.0961841
0.0960774
0.0960147
0.0959774
0.0959552
0.0959423
0.0959352
0.0959313
0.0959272
0.0381924
0.0698286
0.0818836
0.0875596
0.090591
0.0923571
0.0934606
0.0941901
0.0946925
0.0950472
0.0953015
0.0954874
0.0956301
0.0957533
0.095883
0.0960524
0.0963095
0.0967273
0.0974195
0.0985603
0.100409
0.103336
0.107855
0.114624
0.124407
0.133101
0.129848
0.121122
0.112755
0.106502
0.102333
0.0997212
0.0981438
0.0972119
0.0966689
0.0963552
0.0961743
0.0960696
0.0960081
0.0959712
0.0959484
0.095934
0.0959245
0.0959174
0.0959096
0.0382469
0.0698781
0.0819143
0.087575
0.0905939
0.0923497
0.0934448
0.0941675
0.0946644
0.0950151
0.0952665
0.0954504
0.0955921
0.0957153
0.0958463
0.0960188
0.0962818
0.09671
0.0974195
0.0985881
0.100481
0.103476
0.108098
0.115021
0.12503
0.133723
0.130099
0.12123
0.112807
0.106522
0.102334
0.0997122
0.0981309
0.0971987
0.0966572
0.0963454
0.0961664
0.0960631
0.0960023
0.0959653
0.0959416
0.0959256
0.0959139
0.0959039
0.0958929
0.0382986
0.0699259
0.081944
0.0875902
0.0905975
0.0923436
0.0934307
0.0941469
0.0946389
0.0949857
0.0952344
0.0954165
0.0955574
0.0956808
0.0958133
0.0959891
0.0962582
0.0966968
0.0974235
0.09862
0.100556
0.103619
0.108343
0.115416
0.125648
0.134347
0.130379
0.121363
0.112872
0.106549
0.102339
0.0997066
0.0981212
0.0971888
0.0966486
0.0963385
0.096161
0.0960585
0.0959978
0.0959604
0.0959356
0.0959179
0.095904
0.0958914
0.0958775
0.0383477
0.0699722
0.0819728
0.0876052
0.0906015
0.0923387
0.0934183
0.0941284
0.0946156
0.0949589
0.095205
0.0953856
0.0955258
0.0956496
0.0957837
0.095963
0.0962384
0.0966877
0.0974319
0.0986564
0.100637
0.103767
0.108591
0.115814
0.126263
0.134975
0.130684
0.121517
0.112949
0.106582
0.102348
0.0997046
0.0981153
0.0971826
0.0966437
0.096335
0.0961585
0.0960563
0.0959955
0.0959571
0.095931
0.0959114
0.0958952
0.0958802
0.0958638
0.038394
0.070017
0.0820006
0.0876199
0.090606
0.0923347
0.0934073
0.0941118
0.0945945
0.0949344
0.0951782
0.0953574
0.0954972
0.0956215
0.0957575
0.0959405
0.0962225
0.0966828
0.097445
0.0986979
0.100722
0.10392
0.108845
0.116218
0.126882
0.13561
0.131012
0.12169
0.113038
0.106623
0.102362
0.0997068
0.0981136
0.0971809
0.0966431
0.0963355
0.0961595
0.0960573
0.0959957
0.095956
0.0959282
0.0959065
0.0958881
0.0958706
0.0958518
0.0384377
0.0700601
0.0820274
0.0876342
0.0906108
0.0923317
0.0933978
0.094097
0.0945755
0.0949123
0.095154
0.0953319
0.0954714
0.0955965
0.0957346
0.0959217
0.0962106
0.0966824
0.0974632
0.0987455
0.100815
0.104082
0.109109
0.116631
0.127509
0.136257
0.131364
0.121883
0.113139
0.10667
0.102382
0.0997139
0.0981171
0.0971843
0.0966475
0.0963407
0.0961648
0.096062
0.0959991
0.0959576
0.0959277
0.0959037
0.0958828
0.0958629
0.0958416
0.0384788
0.0701017
0.0820531
0.0876482
0.0906158
0.0923295
0.0933896
0.0940838
0.0945584
0.0948924
0.0951321
0.0953091
0.0954485
0.0955746
0.095715
0.0959065
0.0962029
0.096687
0.0974873
0.0988003
0.100917
0.104255
0.109387
0.117059
0.128153
0.136926
0.131745
0.122098
0.113253
0.106726
0.102408
0.099727
0.0981266
0.0971938
0.0966578
0.0963514
0.0961751
0.0960709
0.0960061
0.0959624
0.0959298
0.0959032
0.0958796
0.0958571
0.0958334
0.0385173
0.0701418
0.0820778
0.0876618
0.0906211
0.0923281
0.0933826
0.0940723
0.0945433
0.0948746
0.0951127
0.0952889
0.0954284
0.0955558
0.0956991
0.0958955
0.0962001
0.0966974
0.0975186
0.0988641
0.101031
0.104442
0.109683
0.11751
0.128821
0.137624
0.132162
0.122338
0.113382
0.106791
0.102441
0.0997473
0.0981435
0.0972109
0.0966754
0.0963687
0.0961911
0.0960849
0.0960175
0.0959707
0.095935
0.0959053
0.0958787
0.0958534
0.0958271
0.0385531
0.0701803
0.0821015
0.087675
0.0906267
0.0923275
0.0933769
0.0940624
0.0945302
0.0948592
0.0950958
0.0952715
0.0954116
0.0955407
0.0956872
0.0958893
0.096203
0.0967148
0.0975588
0.0989393
0.101159
0.104649
0.110003
0.117992
0.129524
0.138364
0.132622
0.122607
0.113529
0.106867
0.102483
0.0997768
0.0981698
0.0972371
0.0967016
0.0963939
0.0962141
0.0961047
0.0960337
0.0959831
0.0959435
0.0959101
0.0958801
0.0958517
0.0958227
0.0385863
0.0702171
0.0821241
0.0876879
0.0906326
0.0923279
0.0933727
0.0940543
0.0945192
0.0948462
0.0950818
0.0952574
0.0953985
0.0955298
0.0956804
0.095889
0.0962132
0.0967413
0.0976105
0.0990294
0.101307
0.104882
0.110357
0.118515
0.130277
0.13916
0.133133
0.12291
0.113695
0.106957
0.102537
0.0998176
0.0982077
0.0972746
0.0967383
0.0964284
0.096245
0.0961313
0.0960554
0.0959999
0.0959557
0.0959179
0.095884
0.0958521
0.09582
0.0386167
0.0702521
0.0821456
0.0877005
0.090639
0.0923293
0.09337
0.0940483
0.0945108
0.0948363
0.0950713
0.0952474
0.0953901
0.0955245
0.0956801
0.0958966
0.096233
0.0967798
0.0976774
0.0991392
0.10148
0.105148
0.110754
0.119095
0.1311
0.140032
0.133708
0.123253
0.113885
0.107062
0.102605
0.0998731
0.0982604
0.0973265
0.0967881
0.0964742
0.0962855
0.0961656
0.0960833
0.0960216
0.0959716
0.0959287
0.0958902
0.0958544
0.0958189
0.038644
0.070285
0.082166
0.0877129
0.090646
0.0923321
0.0933693
0.0940449
0.0945056
0.0948302
0.0950655
0.0952429
0.0953882
0.0955269
0.095689
0.0959153
0.0962663
0.096835
0.0977653
0.0992756
0.101688
0.105458
0.11121
0.11975
0.132018
0.141011
0.134364
0.123644
0.114103
0.107187
0.102691
0.099947
0.0983319
0.0973963
0.0968539
0.0965337
0.0963371
0.0962088
0.0961181
0.0960487
0.0959917
0.0959426
0.0958989
0.0958586
0.0958194
0.0386678
0.0703147
0.0821848
0.0877252
0.090654
0.0923367
0.0933712
0.094045
0.0945047
0.0948296
0.0950661
0.0952462
0.0953957
0.0955404
0.0957113
0.0959502
0.0963192
0.0969141
0.0978826
0.0994484
0.101941
0.105826
0.11174
0.120503
0.133064
0.142125
0.135128
0.124096
0.114353
0.107334
0.102798
0.100044
0.0984272
0.0974884
0.0969393
0.0966095
0.0964018
0.0962621
0.0961606
0.0960814
0.096016
0.0959596
0.0959098
0.0958644
0.0958214
0.0386871
0.0703393
0.0822013
0.0877373
0.0906632
0.0923437
0.0933767
0.0940499
0.0945102
0.0948367
0.0950764
0.0952611
0.0954171
0.0955708
0.0957538
0.0960093
0.0964014
0.0970285
0.0980422
0.099672
0.102255
0.106269
0.112363
0.121375
0.134268
0.143415
0.136009
0.124611
0.114634
0.107505
0.102932
0.100172
0.0985531
0.0976087
0.0970488
0.0967048
0.0964816
0.0963267
0.0962114
0.0961202
0.0960444
0.0959796
0.0959228
0.0958721
0.0958245
0.0387012
0.0703552
0.0822138
0.0877484
0.0906734
0.0923537
0.0933871
0.0940619
0.0945249
0.0948557
0.0951012
0.0952936
0.0954597
0.0956267
0.0958272
0.0961056
0.096528
0.0971955
0.0982636
0.0999677
)
;

boundaryField
{
    leftWall
    {
        type            kqRWallFunction;
        value           nonuniform List<scalar> 
44
(
0.0229241
0.028885
0.0318801
0.0336162
0.0346434
0.0352792
0.0356978
0.035993
0.0362158
0.0363947
0.0365462
0.0366805
0.0368026
0.0369159
0.0370227
0.0371243
0.0372214
0.0373147
0.0374045
0.037491
0.0375744
0.0376548
0.0377321
0.0378066
0.037878
0.0379466
0.0380123
0.0380751
0.0381351
0.0381924
0.0382469
0.0382986
0.0383477
0.038394
0.0384377
0.0384788
0.0385173
0.0385531
0.0385863
0.0386167
0.038644
0.0386678
0.0386871
0.0387012
)
;
    }
    rightWall
    {
        type            kqRWallFunction;
        value           nonuniform List<scalar> 0();
    }
    lowerWall
    {
        type            kqRWallFunction;
        value           nonuniform List<scalar> 
44
(
0.0229241
0.0260882
0.0297135
0.0318347
0.0330221
0.0336983
0.0341091
0.0343924
0.0346242
0.0348457
0.0350794
0.0353387
0.0356338
0.0359752
0.0363762
0.0368555
0.03744
0.0381682
0.0390932
0.0402723
0.0417624
0.0434806
0.0449209
0.0456247
0.0454351
0.0448703
0.0448639
0.0445991
0.0427764
0.0407903
0.0390017
0.0376842
0.0368133
0.0361586
0.0356098
0.035112
0.0346359
0.0341611
0.0336654
0.0331212
0.0324877
0.0316937
0.0305934
0.028863
)
;
    }
    atmosphere
    {
        type            inletOutlet;
        inletValue      nonuniform List<scalar> 0();
        value           nonuniform List<scalar> 0();
    }
    defaultFaces
    {
        type            empty;
    }
    procBoundary0to1
    {
        type            processor;
        value           nonuniform List<scalar> 
44
(
0.0258035
0.0484545
0.0593879
0.0656829
0.069662
0.0724413
0.0747414
0.0772188
0.0806081
0.0858635
0.090774
0.0938313
0.0953633
0.0958658
0.0960311
0.0960662
0.0960565
0.0960409
0.0960305
0.0960257
0.0960257
0.0961164
0.0960865
0.0960611
0.0960369
0.096013
0.0959889
0.0959649
0.0959411
0.0959182
0.0958966
0.0958766
0.0958583
0.0958421
0.0958278
0.0958154
0.095805
0.0957965
0.0957896
0.0957843
0.0957806
0.095778
0.0957767
0.095776
)
;
    }
    procBoundary0to2
    {
        type            processor;
        value           nonuniform List<scalar> 
46
(
0.102653
0.106808
0.113099
0.122386
0.13565
0.144895
0.136997
0.125164
0.114927
0.107692
0.103095
0.100337
0.0987184
0.0977649
0.097188
0.096823
0.0965783
0.0964036
0.0962709
0.0961649
0.096077
0.0960023
0.0959375
0.0958805
0.0958279
0.0387093
0.0703578
0.0822191
0.0877564
0.0906841
0.0923674
0.0934048
0.0940844
0.0945537
0.0948924
0.0951478
0.0953527
0.0955347
0.0957218
0.0959478
0.0962586
0.0967221
0.0974421
0.0985773
0.102653
0.100368
)
;
    }
}


// ************************************************************************* //
