/*--------------------------------*- C++ -*----------------------------------*\
  =========                 |
  \\      /  F ield         | OpenFOAM: The Open Source CFD Toolbox
   \\    /   O peration     | Website:  https://openfoam.org
    \\  /    A nd           | Version:  9
     \\/     M anipulation  |
\*---------------------------------------------------------------------------*/
FoamFile
{
    format      ascii;
    class       volScalarField;
    location    "1900";
    object      alphat;
}
// * * * * * * * * * * * * * * * * * * * * * * * * * * * * * * * * * * * * * //

dimensions      [1 -1 -1 0 0 0 0];

internalField   nonuniform List<scalar> 
4000
(
0.000375447
0.000346525
0.000293864
0.000211825
0.000145205
0.000132923
0.000122814
0.00010655
0.000102874
0.00010353
0.000103954
0.000104194
0.00010914
0.000126622
0.000134959
0.000143822
0.000176934
0.000278522
0.000337085
0.000370363
0.000408498
0.000391619
0.000365366
0.000335375
0.000304549
0.000270957
0.000207
0.00013286
0.000130839
0.000135432
0.0001361
0.000133039
0.00013607
0.000200296
0.000271161
0.000304055
0.000334468
0.000360215
0.000388813
0.000405978
0.00042415
0.000411121
0.000385374
0.000353556
0.000317444
0.000281026
0.000239043
0.000187978
0.000143536
0.000153504
0.00015242
0.000142802
0.000193799
0.00024308
0.000284138
0.000319889
0.000354846
0.000385161
0.000409959
0.000422707
0.000432591
0.000424927
0.000403053
0.000371571
0.000331017
0.000291085
0.000258655
0.000226406
0.000204025
0.000196617
0.000193923
0.000200124
0.000224132
0.000257284
0.000290584
0.000330961
0.000371144
0.000402372
0.000424167
0.000431671
0.000438235
0.000436724
0.00042366
0.00040519
0.000384962
0.000366251
0.000350339
0.000336592
0.000325477
0.000316312
0.000313496
0.000321035
0.000332045
0.00034628
0.000362973
0.000382595
0.000403634
0.000422737
0.000436168
0.000437607
0.000443007
0.000448542
0.000446062
0.000440027
0.000432584
0.000424372
0.000415855
0.000406907
0.000397584
0.000388298
0.000386126
0.000394516
0.000403691
0.000412894
0.000421871
0.000430647
0.000438679
0.000445218
0.000448006
0.000442554
0.000448002
0.000460559
0.000467124
0.000470151
0.000471056
0.000469763
0.000466061
0.000460071
0.00045162
0.000441239
0.000439565
0.000449362
0.000457756
0.000463981
0.000468036
0.000469755
0.000469253
0.000466552
0.000460169
0.000447686
0.000453919
0.000473481
0.000487812
0.000497698
0.000504595
0.000508414
0.000508838
0.000505413
0.000497462
0.000485355
0.000483892
0.000495635
0.000503713
0.000507452
0.000507379
0.00050391
0.000497286
0.000487567
0.000473289
0.000453728
0.000462088
0.000489903
0.000511412
0.00052719
0.000539029
0.000547104
0.000551211
0.000550356
0.000543099
0.000529086
0.000527695
0.000541673
0.000549225
0.000550476
0.000546721
0.000538937
0.000527267
0.000511524
0.000489921
0.000462006
0.000474341
0.00051048
0.000539589
0.000561128
0.000577987
0.000590816
0.000599336
0.000602655
0.000599332
0.00058756
0.000586275
0.000598274
0.000601853
0.00059882
0.000590551
0.000577925
0.000561208
0.000539712
0.000510547
0.000474322
0.000346525
0.000321617
0.000276504
0.000217721
0.000184392
0.000174829
0.000164795
0.000140304
0.000122072
0.000120646
0.00012084
0.00012346
0.000142033
0.000173743
0.000180989
0.000183018
0.000196019
0.000260041
0.000308687
0.00033685
0.000391619
0.000553166
0.00053461
0.000478704
0.000440781
0.000415743
0.000351167
0.00028344
0.000288426
0.000352311
0.000346447
0.000296993
0.000292761
0.000355536
0.000421619
0.000445386
0.000476135
0.000519322
0.000540809
0.000387398
0.000411121
0.000551073
0.000556105
0.000506867
0.000449078
0.000407229
0.000363276
0.000321744
0.000316205
0.000392792
0.000372066
0.00031507
0.000327938
0.00037121
0.000413096
0.000454736
0.000509674
0.000556551
0.000554894
0.000408777
0.000424927
0.000568812
0.000587974
0.000539846
0.000454919
0.000394696
0.000349502
0.000306533
0.000293883
0.000387046
0.00035421
0.000287138
0.000311477
0.000354978
0.000397291
0.000454848
0.000535192
0.000582591
0.000566353
0.000423304
0.000436724
0.000597247
0.000633059
0.000599942
0.000508431
0.00042352
0.000370292
0.000324017
0.000300563
0.000316269
0.000305819
0.000297299
0.000323867
0.000370977
0.000422105
0.000504663
0.000594127
0.000628441
0.000594941
0.000435677
0.000448542
0.000621512
0.000669124
0.000662942
0.000603517
0.000507382
0.000440763
0.000393215
0.00036749
0.000364442
0.000358124
0.000362426
0.000389025
0.000436334
0.000502055
0.000596218
0.000658048
0.00066684
0.000620555
0.0004479
0.000460559
0.000636989
0.000688399
0.000713533
0.000714482
0.000680426
0.000604878
0.000530709
0.000478648
0.000458434
0.000452762
0.000469663
0.000517126
0.000592084
0.000669074
0.000706745
0.000710286
0.000688586
0.000637447
0.000460297
0.000473481
0.00064335
0.000691553
0.000737923
0.000777058
0.000792989
0.00078572
0.000765302
0.000733544
0.000699313
0.000694278
0.000724532
0.000758267
0.000780616
0.000789535
0.000776034
0.000738936
0.00069447
0.000645211
0.0004735
0.000489903
0.000625595
0.000681029
0.000722925
0.000754719
0.000771666
0.000776187
0.000763674
0.000726532
0.000670742
0.000667147
0.000722568
0.000762532
0.000778123
0.000775361
0.00075991
0.000728484
0.000685928
0.000628303
0.000490151
0.00051048
0.000548102
0.00057954
0.000604379
0.000625542
0.000643302
0.000656564
0.000663333
0.00066123
0.000648274
0.000647058
0.000660398
0.000662919
0.000656593
0.000643707
0.00062624
0.000605239
0.000580363
0.000548703
0.000510735
0.000293864
0.000276504
0.000244433
0.000212612
0.000199255
0.000195657
0.000188188
0.0001628
0.000141935
0.000133968
0.000133469
0.000142228
0.000165353
0.000196117
0.000206668
0.000202362
0.000203979
0.000228169
0.000264954
0.000283747
0.000365366
0.00053461
0.000545576
0.00051902
0.000504497
0.00048951
0.000421623
0.000350227
0.000350408
0.000411302
0.000404175
0.000356118
0.000362493
0.00042811
0.000494007
0.000511191
0.000518683
0.000531895
0.000513473
0.000355749
0.000385374
0.000556105
0.000587238
0.000555622
0.000511878
0.000477881
0.000441017
0.000409646
0.000405046
0.000464742
0.00044047
0.000399331
0.000417519
0.000451534
0.000484947
0.000518355
0.00055936
0.000586732
0.000556736
0.000383387
0.000403053
0.000587974
0.000631649
0.000598374
0.00052399
0.000467798
0.000427527
0.000394866
0.000401555
0.000477521
0.00044838
0.00038722
0.000400072
0.000435179
0.000471724
0.000523329
0.000592085
0.000623409
0.000580646
0.000400898
0.00042366
0.000633059
0.000688153
0.000658965
0.00056152
0.000472788
0.000415451
0.000368685
0.000347585
0.000381509
0.000362469
0.000341465
0.000373968
0.000420948
0.000474673
0.000559322
0.000652718
0.000681469
0.000626846
0.00042199
0.000446062
0.000669124
0.000733537
0.000716726
0.000621863
0.000506688
0.000429358
0.000371749
0.000337388
0.000341362
0.00033318
0.000334208
0.000374177
0.00043168
0.000506973
0.000619725
0.000713741
0.000731135
0.000666078
0.00044509
0.000467124
0.000688399
0.000759559
0.000759282
0.000691496
0.000591521
0.000506929
0.000440563
0.000396896
0.000384993
0.000380843
0.000394254
0.000438779
0.000506411
0.000590813
0.000691223
0.000760396
0.000761927
0.000688714
0.00046682
0.000487812
0.000691553
0.000775947
0.00080771
0.000789123
0.000734328
0.000676642
0.000622426
0.000570735
0.000530685
0.000528909
0.000569635
0.000624368
0.0006815
0.00073934
0.000795245
0.000815733
0.000783827
0.000695259
0.000487994
0.000511412
0.000681029
0.000818305
0.00094349
0.00102092
0.00105551
0.00105576
0.00103077
0.000961359
0.000850749
0.000848315
0.000961178
0.00103815
0.00107015
0.00107027
0.0010367
0.000958961
0.000830368
0.000686985
0.000511917
0.000539589
0.00057954
0.000612562
0.000639556
0.000663806
0.000685578
0.000703213
0.00071342
0.000712725
0.000698022
0.000696868
0.00071216
0.000713447
0.000703819
0.000686662
0.000665238
0.000641097
0.000613903
0.000580453
0.000539952
0.000211825
0.000217721
0.000212612
0.000206706
0.000206472
0.000210685
0.00020029
0.000175475
0.000155178
0.000146467
0.000145473
0.000155624
0.000178532
0.000207106
0.000221445
0.000213688
0.000207601
0.000205269
0.000199265
0.000179022
0.000335375
0.000478704
0.00051902
0.000530321
0.000539275
0.000519939
0.000448412
0.000390303
0.000398931
0.000467322
0.000458347
0.000403666
0.000404629
0.000459359
0.000524265
0.000544894
0.000534534
0.000515531
0.000468937
0.000329797
0.000353556
0.000506867
0.000555622
0.000550686
0.000533471
0.000513384
0.000489886
0.000465359
0.00046336
0.000529775
0.000502127
0.000455746
0.000474817
0.000503785
0.000522946
0.000541168
0.000557436
0.00055957
0.000509441
0.000353793
0.000371571
0.000539846
0.000598374
0.000586396
0.000544385
0.000508369
0.000482697
0.000463778
0.000480531
0.000545432
0.000512434
0.000462271
0.00046749
0.000491386
0.00051448
0.00054608
0.000583109
0.000591747
0.00053247
0.000369611
0.00040519
0.000599942
0.000658965
0.000644457
0.000578446
0.000514743
0.000471663
0.000439748
0.000438621
0.000501118
0.000469721
0.000426191
0.000444662
0.000478632
0.000519067
0.000579025
0.000640658
0.000652426
0.000591543
0.000402808
0.000440027
0.000662942
0.000716726
0.000703326
0.000626528
0.000537095
0.00047215
0.000422728
0.000395576
0.000415747
0.000398269
0.000391165
0.000428413
0.000478533
0.000541623
0.000629086
0.000703565
0.000714206
0.00065729
0.000438695
0.000470151
0.000713533
0.000759282
0.000749765
0.000682472
0.00059231
0.00051975
0.000462866
0.000422304
0.000414985
0.000410149
0.00042476
0.000470342
0.000527748
0.000599649
0.000689734
0.000755922
0.000762624
0.000712297
0.000469782
0.000497697
0.000737923
0.00080771
0.000832529
0.000795773
0.00073116
0.000674842
0.00062696
0.000577529
0.000534172
0.000534933
0.000585317
0.000640362
0.000690545
0.000747043
0.000812755
0.000849794
0.000820941
0.00074311
0.000497985
0.00052719
0.000722925
0.00094349
0.00112732
0.00114855
0.00116606
0.00119512
0.00120421
0.00114541
0.00102048
0.00102007
0.00115446
0.00122304
0.00122122
0.00119524
0.00117951
0.00115869
0.000962832
0.000731675
0.000527908
0.000561128
0.000604379
0.000639556
0.00066901
0.000697165
0.000723979
0.000746884
0.000761706
0.00076412
0.000751443
0.000750548
0.000764013
0.00076228
0.000748074
0.000725704
0.000699244
0.000671091
0.000641233
0.000605453
0.000561533
0.000145205
0.000184392
0.000199255
0.000206472
0.000215069
0.000217782
0.000203364
0.000181612
0.000163807
0.000156569
0.000155447
0.000164347
0.000184854
0.000209326
0.000226969
0.000226003
0.000213588
0.000202661
0.000183407
0.000143864
0.000304549
0.000440781
0.000504497
0.000539275
0.000547455
0.000513006
0.000450408
0.000415328
0.00043329
0.000516276
0.000507269
0.00043699
0.000430006
0.000467026
0.000521479
0.000550459
0.00054391
0.000508549
0.000441495
0.000301395
0.000317444
0.000449078
0.000511878
0.000533471
0.000536658
0.000530117
0.000519055
0.000494993
0.000500582
0.000588734
0.000557607
0.000491627
0.000505069
0.000535075
0.000544297
0.000546453
0.000542021
0.00051959
0.000455567
0.000319842
0.000331017
0.000454919
0.00052399
0.000544385
0.000537514
0.000526553
0.000517244
0.000510097
0.000532994
0.000609
0.000573057
0.00051315
0.000512476
0.000526778
0.000536059
0.000543984
0.000547815
0.000525356
0.000454812
0.000329586
0.000384962
0.000508431
0.00056152
0.000578446
0.000558533
0.000531125
0.000509751
0.000495438
0.000513453
0.000590132
0.000555815
0.000496759
0.000498473
0.000517295
0.000538335
0.000563851
0.000581178
0.000561404
0.000504213
0.000381801
0.000432584
0.000603517
0.000621863
0.000626528
0.000595511
0.000549561
0.000510125
0.000479915
0.000477237
0.000534273
0.0005099
0.000469313
0.000486019
0.000518646
0.000557685
0.000602827
0.000631706
0.000622518
0.0005972
0.000430889
0.000471056
0.000714482
0.000691496
0.000682472
0.000650071
0.000598742
0.00055047
0.000510421
0.000489456
0.000515281
0.000509676
0.000494292
0.00052217
0.000563089
0.000611353
0.000662936
0.000693483
0.000696662
0.000710933
0.000470599
0.000504595
0.000777058
0.000789123
0.000795773
0.000767322
0.000718903
0.0006759
0.000639987
0.000601713
0.000571989
0.00057659
0.000616206
0.000660287
0.000697738
0.000741269
0.000790619
0.000818222
0.000805312
0.000784369
0.000504929
0.000539029
0.000754719
0.00102092
0.00114855
0.00121723
0.00127952
0.00134619
0.00137215
0.00129521
0.00112007
0.00112387
0.00131109
0.00139803
0.00137921
0.00131596
0.00125466
0.00118396
0.00104469
0.000765066
0.000539875
0.000577987
0.000625542
0.000663806
0.000697165
0.000731752
0.000764372
0.00079221
0.000811316
0.000817187
0.000807261
0.000806621
0.000817391
0.000812185
0.000793674
0.000766319
0.000734037
0.000699446
0.000665571
0.000626637
0.000578391
0.000132923
0.000174828
0.000195657
0.000210685
0.000217782
0.000213801
0.000200429
0.000184176
0.000170639
0.000166167
0.000164938
0.000171079
0.000187192
0.000205693
0.000221004
0.000226808
0.000220957
0.000206281
0.000179633
0.000133529
0.000270957
0.000415743
0.00048951
0.000519939
0.000513006
0.000479195
0.000447122
0.000432758
0.000461889
0.000553939
0.000545318
0.000464291
0.000445296
0.000464526
0.000494783
0.000520824
0.000522937
0.000491975
0.000420285
0.000270151
0.000281026
0.000407229
0.000477881
0.000513384
0.000530117
0.00053714
0.00052688
0.000505096
0.000524617
0.000618105
0.00058937
0.000514449
0.000514264
0.000542903
0.000554801
0.00054483
0.000524439
0.000487027
0.000414993
0.000284501
0.000291085
0.000394696
0.000467798
0.000508369
0.000526553
0.000534917
0.000536425
0.00053558
0.000560994
0.00063307
0.000599895
0.000541584
0.000537116
0.000546107
0.000546939
0.000537696
0.000517547
0.000475165
0.000399143
0.000289311
0.000366251
0.00042352
0.000472788
0.000514743
0.000531125
0.000533253
0.000530339
0.000530234
0.000560036
0.000626745
0.000598262
0.000542997
0.000531934
0.000537911
0.000542442
0.000540231
0.000522729
0.000478487
0.000423897
0.000362224
0.000424372
0.000507382
0.000506688
0.000537095
0.000549561
0.000542451
0.000528373
0.000518083
0.000537107
0.000598784
0.00057858
0.000528211
0.000523688
0.000537688
0.000552635
0.000559829
0.000545946
0.000511324
0.000503611
0.000422295
0.000469763
0.000680426
0.000591521
0.00059231
0.000598742
0.000585587
0.000562182
0.000540363
0.000541944
0.000593282
0.000589546
0.000548295
0.000553721
0.000576802
0.000600621
0.000613962
0.000605654
0.000598652
0.000674321
0.000469162
0.000508414
0.000792989
0.000734328
0.00073116
0.000718903
0.000694227
0.000671208
0.000648402
0.00061695
0.00059724
0.000604276
0.00063451
0.000671555
0.000695959
0.000719392
0.000744234
0.000754876
0.000751558
0.000799939
0.000508733
0.000547104
0.000771666
0.00105551
0.00116606
0.00127952
0.0013911
0.00148401
0.0015017
0.00136441
0.00108357
0.00108792
0.00138158
0.00152829
0.00151796
0.00142904
0.00131837
0.00120177
0.00108178
0.000782132
0.00054798
0.000590816
0.000643302
0.000685578
0.000723979
0.000764372
0.000802409
0.000835187
0.000859012
0.000869593
0.000865025
0.00086442
0.000869847
0.000859901
0.000836645
0.000804334
0.000766603
0.00072618
0.000687281
0.000644366
0.000591211
0.000122814
0.000164795
0.000188188
0.00020029
0.000203364
0.000200429
0.000193387
0.000184384
0.000176967
0.000177936
0.000176553
0.000177092
0.00018664
0.000197482
0.000206001
0.000209772
0.000207142
0.000195116
0.000169739
0.000124089
0.000207
0.000351167
0.000421623
0.000448412
0.000450408
0.000447122
0.000443376
0.000447517
0.000489927
0.000583891
0.000576065
0.000490434
0.000455735
0.000455952
0.000462479
0.000464561
0.00045715
0.000426132
0.000354244
0.000203519
0.000239043
0.000363276
0.000441017
0.000489886
0.000519055
0.00052688
0.000516464
0.000507974
0.000540025
0.000595291
0.000574847
0.000529106
0.000513764
0.000528829
0.000542284
0.000534803
0.000504088
0.000452318
0.000371906
0.000242846
0.000258655
0.000349502
0.000427527
0.000482697
0.000517244
0.000536425
0.000543214
0.000544157
0.000566944
0.000565898
0.000547525
0.000549769
0.0005442
0.000550776
0.000547611
0.000529478
0.000494517
0.000437815
0.000355949
0.000255811
0.000350339
0.000370292
0.000415451
0.000471663
0.000509751
0.000530339
0.000539836
0.000548654
0.000573504
0.000538292
0.000525426
0.000559706
0.00054959
0.000546353
0.0005393
0.000519873
0.000481848
0.000423817
0.00037233
0.000345579
0.000415855
0.000440763
0.000429358
0.00047215
0.000510125
0.000528373
0.0005336
0.000538942
0.000560008
0.000518384
0.000510057
0.000553354
0.000543702
0.000542242
0.000538472
0.000520806
0.000482
0.000435616
0.000438773
0.000413453
0.000466061
0.000604878
0.000506929
0.00051975
0.00055047
0.000562182
0.000557567
0.000551878
0.000566415
0.000561523
0.00056248
0.00057412
0.000565422
0.000572226
0.000577192
0.000565426
0.000533087
0.000514816
0.000598035
0.000465317
0.000508838
0.00078572
0.000676642
0.000674842
0.0006759
0.000671208
0.000662415
0.000643346
0.000609299
0.000584764
0.000591865
0.000626684
0.000666163
0.000687362
0.000696756
0.000701188
0.000698553
0.000695561
0.000791704
0.000509103
0.000551211
0.000776187
0.00105576
0.00119512
0.00134619
0.00148401
0.00157777
0.00154468
0.00129045
0.00092242
0.000923634
0.00130373
0.00156759
0.00160851
0.00152055
0.00138393
0.0012297
0.00108636
0.000786823
0.000552069
0.000599336
0.000656564
0.000703213
0.000746884
0.00079221
0.000835187
0.00087337
0.00090324
0.000922294
0.00093198
0.000931221
0.000922416
0.000904013
0.000874714
0.000837027
0.000794342
0.00074896
0.000704895
0.000657621
0.000599718
0.00010655
0.000140304
0.0001628
0.000175475
0.000181612
0.000184176
0.000184384
0.000183457
0.000183661
0.000190894
0.000189353
0.000183268
0.000184419
0.000186623
0.000187438
0.000185373
0.000179034
0.000165051
0.000137256
0.000104808
0.00013286
0.00028344
0.000350227
0.000390303
0.000415328
0.000432758
0.000447517
0.000469572
0.00050483
0.000483013
0.000474284
0.000501834
0.000471494
0.000451976
0.000439484
0.000423475
0.000397978
0.000355898
0.000285431
0.000131975
0.000187978
0.000321744
0.000409646
0.000465359
0.000494993
0.000505096
0.000507974
0.000515943
0.000502103
0.000346203
0.000336112
0.000493391
0.000515658
0.000512723
0.000512743
0.000503893
0.000474205
0.00041705
0.000327192
0.000191951
0.000226406
0.000306533
0.000394866
0.000463778
0.000510097
0.00053558
0.000544157
0.000543913
0.000486369
0.000311883
0.000301048
0.000475993
0.000540855
0.000546031
0.00054056
0.000517153
0.000471718
0.000402383
0.000310782
0.000221748
0.000336592
0.000324017
0.000368685
0.000439748
0.000495438
0.000530234
0.000548654
0.000553279
0.00046656
0.000336465
0.000325277
0.000460304
0.000552979
0.000551883
0.000535197
0.000501879
0.000447255
0.000375413
0.000325034
0.000331003
0.000406907
0.000393215
0.000371749
0.000422728
0.000479915
0.000518083
0.000538942
0.000544065
0.000443353
0.000381335
0.000369733
0.000442328
0.000547736
0.000544594
0.000524672
0.00048714
0.000429861
0.000376626
0.000390929
0.000404168
0.000460071
0.000530709
0.000440563
0.000462866
0.000510421
0.000540363
0.000551878
0.00055504
0.000486082
0.000461786
0.000455992
0.000495867
0.000568095
0.000564911
0.000553048
0.000522769
0.000474186
0.000447353
0.000523389
0.000459164
0.000505413
0.000765302
0.000622426
0.00062696
0.000639987
0.000648402
0.000643346
0.000617531
0.000571869
0.000551412
0.000551465
0.000586409
0.000638003
0.00066629
0.000672608
0.000664285
0.000650061
0.000641598
0.000769433
0.000505565
0.000550356
0.000763674
0.00103077
0.00120421
0.00137215
0.0015017
0.00154468
0.00138982
0.00105982
0.000967479
0.000965254
0.00106629
0.00140562
0.00157077
0.00153539
0.00140841
0.00123749
0.00106071
0.000773668
0.000551116
0.000602655
0.000663333
0.00071342
0.000761706
0.000811316
0.000859012
0.00090324
0.000942503
0.000980178
0.00102278
0.00102166
0.000980166
0.000943166
0.000904524
0.00086082
0.000813431
0.000763755
0.000715098
0.000664357
0.000602979
0.000102874
0.000122072
0.000141935
0.000155178
0.000163807
0.000170639
0.000176967
0.000183661
0.000190297
0.000200261
0.000199088
0.000189057
0.000183024
0.000176806
0.000170886
0.000164202
0.000155207
0.000140474
0.000118521
0.000100372
0.000130839
0.000288426
0.000350408
0.000398931
0.00043329
0.000461889
0.000489927
0.00050483
0.000409257
0.000462336
0.000451493
0.000401218
0.00049869
0.000486593
0.000460015
0.000432527
0.000398458
0.000347779
0.000289046
0.00013035
0.000143536
0.000316205
0.000405046
0.00046336
0.000500582
0.000524617
0.000540025
0.000502103
0.000306394
0.000572327
0.000562564
0.000301033
0.000493527
0.000533479
0.000519995
0.000497577
0.000461327
0.000403195
0.000313172
0.000143292
0.000204025
0.000293883
0.000401555
0.000480531
0.000532994
0.000560994
0.000566944
0.000486369
0.000310396
0.000769836
0.000761239
0.000306179
0.000477312
0.00055885
0.000553435
0.000526523
0.000475553
0.000398173
0.000292037
0.00019014
0.000325477
0.000300563
0.000347585
0.000438621
0.000513453
0.000560036
0.000573504
0.00046656
0.000359574
0.00100941
0.00100341
0.000359056
0.000461278
0.00056782
0.000553274
0.00050672
0.000433904
0.000345857
0.000296943
0.000318771
0.000397584
0.00036749
0.000337388
0.000395576
0.000477237
0.000537107
0.000560008
0.000443353
0.000422596
0.00124354
0.00123776
0.000424052
0.000442728
0.000557427
0.000532424
0.000472253
0.000393002
0.000336861
0.000363057
0.000394502
0.00045162
0.000478648
0.000396896
0.000422304
0.000489456
0.000541944
0.000566415
0.000486082
0.000514744
0.00141062
0.00140503
0.000520172
0.00049619
0.000574361
0.000547619
0.000494318
0.00042805
0.000400289
0.000471468
0.000450607
0.000497462
0.000733544
0.000570735
0.000577529
0.000601713
0.00061695
0.000609299
0.000571869
0.000613046
0.00146037
0.00145199
0.000619111
0.000587357
0.000627597
0.000637013
0.00062282
0.000598453
0.000588343
0.000735726
0.000497552
0.000543099
0.000726532
0.000961359
0.00114541
0.00129521
0.00136441
0.00129045
0.00105982
0.00104018
0.00145083
0.00144337
0.00104335
0.0010685
0.00131072
0.00139423
0.00132918
0.00117663
0.000988804
0.00073544
0.000543747
0.000599332
0.00066123
0.000712725
0.00076412
0.000817187
0.000869593
0.000922294
0.000980178
0.00105286
0.00113646
0.00113432
0.00105308
0.000981072
0.000923718
0.000871519
0.000819411
0.000766231
0.000714417
0.000662229
0.000599585
0.00010353
0.000120646
0.000133968
0.000146467
0.000156569
0.000166167
0.000177936
0.000190894
0.000200261
0.000208139
0.00020656
0.000198095
0.000188112
0.000175294
0.000163617
0.000153993
0.000143647
0.000130536
0.000117903
0.000101271
0.000135432
0.000352311
0.000411302
0.000467322
0.000516276
0.000553939
0.000583891
0.000483013
0.000462336
0.00030069
0.000292132
0.000444987
0.000462008
0.000571304
0.000545697
0.000510615
0.000460475
0.00040682
0.00035161
0.000134923
0.000153504
0.000392792
0.000464742
0.000529775
0.000588734
0.000618105
0.000595291
0.000346203
0.000572327
0.000441026
0.000428776
0.000567395
0.000330165
0.000575524
0.000601397
0.000574519
0.000515769
0.000451622
0.000381178
0.000153088
0.000196617
0.000387046
0.000477521
0.000545432
0.000609
0.00063307
0.000565898
0.000311883
0.000769836
0.000593677
0.000578618
0.000776753
0.000301338
0.000546281
0.000614354
0.000592666
0.00052961
0.000461852
0.00038376
0.00018
0.000316312
0.000316269
0.000381509
0.000501118
0.000590132
0.000626745
0.000538292
0.000336465
0.00100941
0.000766074
0.000748759
0.00102977
0.000332939
0.000520102
0.000607736
0.000569589
0.000481639
0.000368941
0.000309177
0.000308723
0.000388298
0.000364442
0.000341362
0.000415747
0.000534273
0.000598784
0.000518384
0.000381335
0.00124354
0.000955509
0.000936137
0.00127218
0.000383214
0.000504754
0.000580845
0.000512382
0.000398637
0.000334165
0.000357506
0.000385098
0.000441239
0.000458434
0.000384993
0.000414985
0.000515281
0.000593282
0.000561523
0.000461786
0.00141062
0.00114376
0.00112239
0.00144142
0.000469478
0.000562442
0.000589131
0.000508701
0.000412606
0.000384033
0.000450169
0.000440449
0.000485355
0.000699313
0.000530685
0.000534172
0.000571989
0.00059724
0.000584764
0.000551412
0.00146037
0.00129183
0.00126783
0.0014837
0.000560496
0.000595983
0.000610331
0.000587328
0.000551219
0.000545837
0.000700649
0.000485775
0.000529086
0.000670742
0.000850749
0.00102048
0.00112007
0.00108357
0.00092242
0.000967479
0.00145083
0.00138548
0.00136094
0.00146199
0.000974353
0.000934007
0.001108
0.00115102
0.00104889
0.000876844
0.000679794
0.000529943
0.00058756
0.000648274
0.000698022
0.000751443
0.000807261
0.000865025
0.00093198
0.00102278
0.00113646
0.00118098
0.00117359
0.00113801
0.00102475
0.000933875
0.00086725
0.000809771
0.000753775
0.000699961
0.00064943
0.000587892
0.000103954
0.00012084
0.000133469
0.000145473
0.000155447
0.000164938
0.000176553
0.000189353
0.000199088
0.00020656
0.000204963
0.000197067
0.000186796
0.000173781
0.000161802
0.000151969
0.00014166
0.000129113
0.000118488
0.000102404
0.0001361
0.000346447
0.000404175
0.000458347
0.000507269
0.000545318
0.000576065
0.000474284
0.000451493
0.000292132
0.000284579
0.000437673
0.000452439
0.000558887
0.000530484
0.000495765
0.000448912
0.000399016
0.000343431
0.000135182
0.00015242
0.000372066
0.00044047
0.000502127
0.000557607
0.00058937
0.000574847
0.000336112
0.000562564
0.000428776
0.000418163
0.00055833
0.000321795
0.000559471
0.000578091
0.00055191
0.000500306
0.000441786
0.000377127
0.000151674
0.000193923
0.00035421
0.00044838
0.000512434
0.000573057
0.000599895
0.000547525
0.000301048
0.000761239
0.000578618
0.000565171
0.000764002
0.00029271
0.000535862
0.000591586
0.000570188
0.000513025
0.000450596
0.000376239
0.000171828
0.000313496
0.000305819
0.000362469
0.000469721
0.000555815
0.000598262
0.000525426
0.000325277
0.00100341
0.000748759
0.000732668
0.00101237
0.000321546
0.000518094
0.000590861
0.000550955
0.00046797
0.00036177
0.000302785
0.000303045
0.000386126
0.000358124
0.00033318
0.000398269
0.000509901
0.00057858
0.000510057
0.000369733
0.00123776
0.000936138
0.000917767
0.00124824
0.000368026
0.000507977
0.000571549
0.000502111
0.000392752
0.000329539
0.00035104
0.00038187
0.000439565
0.000452762
0.000380843
0.000410149
0.000509676
0.000589546
0.00056248
0.000455992
0.00140503
0.00112239
0.00110258
0.00141234
0.000457352
0.000569013
0.000589063
0.000507592
0.000410244
0.000379065
0.000443425
0.000438685
0.000483892
0.000694278
0.000528909
0.000534933
0.00057659
0.000604276
0.000591865
0.000551465
0.00145199
0.00126783
0.00124766
0.00145034
0.000557455
0.000605662
0.000617826
0.000591022
0.000550236
0.000541648
0.000694343
0.000484784
0.000527695
0.000667147
0.000848315
0.00102007
0.00112387
0.00108792
0.000923634
0.000965254
0.00144337
0.00136094
0.00134117
0.00143798
0.000967036
0.000945567
0.00112289
0.00116013
0.00105179
0.000873248
0.000677595
0.000529409
0.000586275
0.000647058
0.000696868
0.000750548
0.000806621
0.00086442
0.000931221
0.00102166
0.00113432
0.00117359
0.00116998
0.00113399
0.00102192
0.000932685
0.000867165
0.000810097
0.000754079
0.000699957
0.000649375
0.000587717
0.000104194
0.00012346
0.000142228
0.000155624
0.000164347
0.000171079
0.000177092
0.000183268
0.000189057
0.000198095
0.000197067
0.000188286
0.000182695
0.000176272
0.000169825
0.0001625
0.000152969
0.00013762
0.000120896
0.000103012
0.000133039
0.000296993
0.000356118
0.000403666
0.00043699
0.000464291
0.000490434
0.000501834
0.000401218
0.000444987
0.000437673
0.000391933
0.000492068
0.000480718
0.000455494
0.00042971
0.000398144
0.000351593
0.000296791
0.000132679
0.000142802
0.00031507
0.000399331
0.000455746
0.000491627
0.000514449
0.000529106
0.000493391
0.000301033
0.000567395
0.00055833
0.000295132
0.00048739
0.000523493
0.00051016
0.0004887
0.000454519
0.000399793
0.000316267
0.000143444
0.000200124
0.000287138
0.00038722
0.000462271
0.00051315
0.000541584
0.000549769
0.000475993
0.000306179
0.000776753
0.000764002
0.000301045
0.000473558
0.000547035
0.000540127
0.000514183
0.000466368
0.000393345
0.000290886
0.000176976
0.000321035
0.000297299
0.000341465
0.000426191
0.000496759
0.000542997
0.000559706
0.000460304
0.000359056
0.00102977
0.00101237
0.00035366
0.000463983
0.000560645
0.000544074
0.000499279
0.000430448
0.000345014
0.000292195
0.00031008
0.000394516
0.000362426
0.000334208
0.000391165
0.000469313
0.000528211
0.000553354
0.000442328
0.000424052
0.00127218
0.00124824
0.00041577
0.000451152
0.0005572
0.000530686
0.000471942
0.000394016
0.000334432
0.000354719
0.00039001
0.000449362
0.000469663
0.000394254
0.00042476
0.000494292
0.000548295
0.00057412
0.000495867
0.000520172
0.00144142
0.00141234
0.000511848
0.000510094
0.000582716
0.000554825
0.000499888
0.000429482
0.000394232
0.000459904
0.00044846
0.000495635
0.000724532
0.000569635
0.000585317
0.000616206
0.00063451
0.000626684
0.000586409
0.000619111
0.0014837
0.00145034
0.000617103
0.000604557
0.000645138
0.000652465
0.000633269
0.000600971
0.000583015
0.000727697
0.00049667
0.000541673
0.000722568
0.000961178
0.00115446
0.00131109
0.00138158
0.00130373
0.00106629
0.00104335
0.00146199
0.00143798
0.00103792
0.00109071
0.0013408
0.00141716
0.0013445
0.00118258
0.000986802
0.000734952
0.000543631
0.000598274
0.000660398
0.00071216
0.000764013
0.000817391
0.000869847
0.000922416
0.000980166
0.00105308
0.00113801
0.00113399
0.00105149
0.000980512
0.000924259
0.000872527
0.000820469
0.000767025
0.000714804
0.000662505
0.00059972
0.00010914
0.000142033
0.000165353
0.000178532
0.000184854
0.000187192
0.00018664
0.000184419
0.000183024
0.000188112
0.000186796
0.000182695
0.00018472
0.000186999
0.000187356
0.000184579
0.000177425
0.000161909
0.000138463
0.0001079
0.00013607
0.000292761
0.000362493
0.000404628
0.000430006
0.000445296
0.000455735
0.000471494
0.00049869
0.000462008
0.000452439
0.000492068
0.000469715
0.000454678
0.000443995
0.000428811
0.000403893
0.000361321
0.000291142
0.000135563
0.000193799
0.000327938
0.000417519
0.000474817
0.000505069
0.000514264
0.000513764
0.000515658
0.000493527
0.000330165
0.000321795
0.00048739
0.000513916
0.000512244
0.000512069
0.000502851
0.000473695
0.000417892
0.000328392
0.000184342
0.000224132
0.000311477
0.000400072
0.00046749
0.000512476
0.000537116
0.0005442
0.000540855
0.000477312
0.000301338
0.00029271
0.000473558
0.000538805
0.000542906
0.000537017
0.000514314
0.000470913
0.00040373
0.000311114
0.000207234
0.000332045
0.000323867
0.000373968
0.000444662