/*--------------------------------*- C++ -*----------------------------------*\
  =========                 |
  \\      /  F ield         | OpenFOAM: The Open Source CFD Toolbox
   \\    /   O peration     | Website:  https://openfoam.org
    \\  /    A nd           | Version:  9
     \\/     M anipulation  |
\*---------------------------------------------------------------------------*/
FoamFile
{
    format      ascii;
    class       volScalarField;
    location    "1900";
    object      k;
}
// * * * * * * * * * * * * * * * * * * * * * * * * * * * * * * * * * * * * * //

dimensions      [0 2 -2 0 0 0 0];

internalField   nonuniform List<scalar> 
4000
(
3.30576e-05
2.79758e-05
1.98592e-05
1.00826e-05
4.96725e-06
4.18677e-06
3.56607e-06
2.6867e-06
2.50686e-06
2.54073e-06
2.5629e-06
2.57285e-06
2.81743e-06
3.77506e-06
4.31116e-06
4.89317e-06
7.15514e-06
1.78906e-05
2.65418e-05
3.22362e-05
3.93258e-05
3.61478e-05
3.14695e-05
2.66206e-05
2.19309e-05
1.73193e-05
9.9454e-06
4.17846e-06
4.05415e-06
4.34591e-06
4.39034e-06
4.19389e-06
4.38425e-06
9.33623e-06
1.73203e-05
2.18329e-05
2.64355e-05
3.05927e-05
3.56442e-05
3.88719e-05
4.24511e-05
3.98946e-05
3.50916e-05
2.95516e-05
2.38212e-05
1.86645e-05
1.34992e-05
8.31268e-06
4.88092e-06
5.57532e-06
5.5001e-06
4.83208e-06
8.88229e-06
1.39804e-05
1.91016e-05
2.42117e-05
2.97774e-05
3.50593e-05
3.96853e-05
4.21855e-05
4.4186e-05
4.26495e-05
3.83942e-05
3.26409e-05
2.58989e-05
2.00209e-05
1.57888e-05
1.21034e-05
9.87948e-06
9.16826e-06
8.91035e-06
9.4831e-06
1.18784e-05
1.56478e-05
1.99832e-05
2.59144e-05
3.25736e-05
3.82694e-05
4.2509e-05
4.40172e-05
4.53655e-05
4.5072e-05
4.24323e-05
3.88227e-05
3.50445e-05
3.17204e-05
2.90276e-05
2.68053e-05
2.50796e-05
2.36887e-05
2.32611e-05
2.4384e-05
2.60748e-05
2.83555e-05
3.11575e-05
3.46183e-05
3.85279e-05
4.2252e-05
4.49673e-05
4.52525e-05
4.63746e-05
4.75602e-05
4.70546e-05
4.58048e-05
4.42778e-05
4.26205e-05
4.09361e-05
3.92033e-05
3.74359e-05
3.57079e-05
3.52973e-05
3.68412e-05
3.85693e-05
4.03436e-05
4.21136e-05
4.38791e-05
4.55238e-05
4.68795e-05
4.74547e-05
4.62948e-05
4.744e-05
5.01578e-05
5.16172e-05
5.23033e-05
5.25166e-05
5.22383e-05
5.14267e-05
5.01217e-05
4.83034e-05
4.61087e-05
4.57463e-05
4.78022e-05
4.96011e-05
5.09558e-05
5.18467e-05
5.22228e-05
5.21031e-05
5.14932e-05
5.008e-05
4.73871e-05
4.87146e-05
5.30256e-05
5.6302e-05
5.86215e-05
6.02702e-05
6.11968e-05
6.13089e-05
6.04953e-05
5.86137e-05
5.57972e-05
5.54475e-05
5.81635e-05
6.00706e-05
6.09619e-05
6.09401e-05
6.01038e-05
5.85254e-05
5.62493e-05
5.29897e-05
4.86867e-05
5.04966e-05
5.67813e-05
6.18934e-05
6.57851e-05
6.87854e-05
7.08739e-05
7.19541e-05
7.17445e-05
6.98776e-05
6.63259e-05
6.59625e-05
6.94902e-05
7.14328e-05
7.17521e-05
7.07704e-05
6.87625e-05
6.5808e-05
6.19263e-05
5.67933e-05
5.04914e-05
5.32221e-05
6.16643e-05
6.89154e-05
7.45424e-05
7.91035e-05
8.2668e-05
8.5084e-05
8.60475e-05
8.51196e-05
8.18237e-05
8.14488e-05
8.4799e-05
8.5804e-05
8.49307e-05
8.25924e-05
7.90893e-05
7.45693e-05
6.89539e-05
6.1689e-05
5.32305e-05
2.79758e-05
2.38335e-05
1.75317e-05
1.08857e-05
8.01738e-06
7.26745e-06
6.45604e-06
4.63533e-06
3.52588e-06
3.45024e-06
3.46336e-06
3.6093e-06
4.74092e-06
7.14566e-06
7.80073e-06
7.94747e-06
8.94106e-06
1.5608e-05
2.22799e-05
2.65342e-05
3.61478e-05
5.0321e-05
4.53303e-05
3.70275e-05
3.12084e-05
2.66755e-05
1.87498e-05
1.09322e-05
7.03788e-06
6.77056e-06
6.81385e-06
7.21964e-06
1.08618e-05
1.87325e-05
2.69812e-05
3.16123e-05
3.68712e-05
4.4073e-05
4.95609e-05
3.53914e-05
3.98946e-05
4.60905e-05
4.27345e-05
3.56197e-05
2.88022e-05
2.3812e-05
1.87046e-05
1.39357e-05
1.01634e-05
8.79727e-06
8.76833e-06
1.05725e-05
1.44872e-05
1.93611e-05
2.4381e-05
2.94745e-05
3.61375e-05
4.3106e-05
4.68227e-05
3.94611e-05
4.26495e-05
4.69754e-05
4.49061e-05
3.83346e-05
2.917e-05
2.26924e-05
1.78959e-05
1.35453e-05
1.06416e-05
1.10501e-05
1.04661e-05
1.05604e-05
1.38432e-05
1.82483e-05
2.29062e-05
2.91967e-05
3.79112e-05
4.43812e-05
4.6703e-05
4.23388e-05
4.5072e-05
5.01301e-05
4.97165e-05
4.48453e-05
3.6152e-05
2.818e-05
2.31659e-05
1.91196e-05
1.68525e-05
1.67664e-05
1.62822e-05
1.65253e-05
1.88527e-05
2.29409e-05
2.7844e-05
3.56456e-05
4.42236e-05
4.91942e-05
4.98009e-05
4.48685e-05
4.75602e-05
5.34031e-05
5.40007e-05
5.14505e-05
4.6021e-05
3.78681e-05
3.18649e-05
2.75673e-05
2.50573e-05
2.4094e-05
2.36692e-05
2.45743e-05
2.70659e-05
3.12884e-05
3.72035e-05
4.52369e-05
5.0963e-05
5.37196e-05
5.31936e-05
4.74363e-05
5.01578e-05
5.63093e-05
5.70309e-05
5.65691e-05
5.56342e-05
5.23639e-05
4.54804e-05
3.88342e-05
3.4217e-05
3.2098e-05
3.17111e-05
3.3528e-05
3.76995e-05
4.43423e-05
5.13213e-05
5.49419e-05
5.63226e-05
5.70528e-05
5.62647e-05
5.01135e-05
5.30256e-05
5.97497e-05
6.08123e-05
6.19693e-05
6.42481e-05
6.543e-05
6.46315e-05
6.23411e-05
5.83351e-05
5.30561e-05
5.23986e-05
5.72289e-05
6.14379e-05
6.39688e-05
6.50261e-05
6.41688e-05
6.21701e-05
6.11416e-05
5.98922e-05
5.30435e-05
5.67813e-05
6.56654e-05
7.00571e-05
7.33539e-05
7.65329e-05
7.89121e-05
8.01008e-05
7.89677e-05
7.41534e-05
6.58221e-05
6.53256e-05
7.3626e-05
7.87301e-05
8.02218e-05
7.93061e-05
7.71411e-05
7.4024e-05
7.06376e-05
6.59584e-05
5.68532e-05
6.16643e-05
7.11064e-05
7.95127e-05
8.64906e-05
9.26718e-05
9.80264e-05
0.000102129
0.000104271
0.000103637
9.96361e-05
9.92399e-05
0.000103349
0.000104122
0.00010213
9.81496e-05
9.28845e-05
8.67472e-05
7.97507e-05
7.12749e-05
6.17405e-05
1.98592e-05
1.75317e-05
1.37419e-05
1.05612e-05
9.41293e-06
9.12182e-06
8.3913e-06
6.24742e-06
4.75762e-06
4.24906e-06
4.21931e-06
4.77575e-06
6.43598e-06
9.08636e-06
1.0193e-05
9.74207e-06
9.82543e-06
1.20632e-05
1.6256e-05
1.86638e-05
3.14695e-05
4.53303e-05
4.31847e-05
3.8045e-05
3.42751e-05
3.01646e-05
2.16826e-05
1.34971e-05
9.58154e-06
8.5292e-06
8.52192e-06
9.75215e-06
1.3677e-05
2.16376e-05
3.01895e-05
3.47276e-05
3.80159e-05
4.19657e-05
4.34738e-05
2.98369e-05
3.50916e-05
4.27345e-05
4.10059e-05
3.55758e-05
3.04683e-05
2.62512e-05
2.15677e-05
1.71942e-05
1.32846e-05
1.09548e-05
1.09553e-05
1.35318e-05
1.78264e-05
2.23204e-05
2.68218e-05
3.11792e-05
3.62206e-05
4.13353e-05
4.31315e-05
3.47434e-05
3.83942e-05
4.49061e-05
4.32177e-05
3.7573e-05
2.99622e-05
2.43994e-05
2.0125e-05
1.62288e-05
1.3485e-05
1.21887e-05
1.1978e-05
1.33458e-05
1.66139e-05
2.0613e-05
2.46761e-05
2.99198e-05
3.70404e-05
4.24659e-05
4.41276e-05
3.79942e-05
4.24323e-05
4.97165e-05
4.79624e-05
4.24008e-05
3.35132e-05
2.59171e-05
2.09891e-05
1.69751e-05
1.41782e-05
1.31509e-05
1.29491e-05
1.41221e-05
1.71782e-05
2.11723e-05
2.59046e-05
3.32099e-05
4.17874e-05
4.72824e-05
4.89993e-05
4.21064e-05
4.70546e-05
5.40007e-05
5.2058e-05
4.6777e-05
3.85328e-05
2.9733e-05
2.38203e-05
1.9448e-05
1.65414e-05
1.55045e-05
1.537e-05
1.64197e-05
1.94786e-05
2.37863e-05
2.95802e-05
3.82347e-05
4.64871e-05
5.18044e-05
5.36283e-05
4.68576e-05
5.16172e-05
5.70309e-05
5.49641e-05
4.91203e-05
4.23668e-05
3.517e-05
2.90469e-05
2.42237e-05
2.09606e-05
1.94801e-05
1.93867e-05
2.08267e-05
2.40157e-05
2.88675e-05
3.49871e-05
4.229e-05
4.93066e-05
5.52405e-05
5.7047e-05
5.15598e-05
5.6302e-05
6.08123e-05
6.01816e-05
5.37935e-05
4.71922e-05
4.34803e-05
3.9597e-05
3.58696e-05
3.20621e-05
2.85123e-05
2.8489e-05
3.2075e-05
3.60509e-05
3.99629e-05
4.39042e-05
4.77987e-05
5.48493e-05
6.10844e-05
6.1207e-05
5.63565e-05
6.18934e-05
7.00571e-05
7.87215e-05
8.6606e-05
9.16692e-05
9.42436e-05
9.65198e-05
9.55934e-05
8.73342e-05
7.2352e-05
7.18187e-05
8.69807e-05
9.60603e-05
9.78127e-05
9.60181e-05
9.37347e-05
8.84998e-05
8.01558e-05
7.07343e-05
6.20301e-05
6.89154e-05
7.95127e-05
8.8844e-05
9.68606e-05
0.000104366
0.000111347
0.000117171
0.000120628
0.000120428
0.000115537
0.000115128
0.000120203
0.000120615
0.000117365
0.0001117
0.000104825
9.7342e-05
8.92478e-05
7.97766e-05
6.90219e-05
1.00826e-05
1.08857e-05
1.05612e-05
1.01053e-05
1.01415e-05
1.05663e-05
9.4815e-06
7.25832e-06
5.68303e-06
5.06909e-06
5.00261e-06
5.71234e-06
7.50315e-06
1.01158e-05
1.16563e-05
1.09037e-05
1.02471e-05
9.94243e-06
9.23946e-06
7.35561e-06
2.66206e-05
3.70275e-05
3.8045e-05
3.65471e-05
3.46295e-05
2.9761e-05
2.1093e-05
1.40223e-05
1.08632e-05
1.03733e-05
1.03148e-05
1.11183e-05
1.4405e-05
2.12359e-05
2.95953e-05
3.47528e-05
3.67727e-05
3.76859e-05
3.61099e-05
2.56983e-05
2.95516e-05
3.56197e-05
3.55758e-05
3.29314e-05
2.99413e-05
2.65027e-05
2.25917e-05
1.85191e-05
1.46513e-05
1.27707e-05
1.26761e-05
1.48983e-05
1.92539e-05
2.35284e-05
2.71464e-05
3.05957e-05
3.37003e-05
3.62111e-05
3.60843e-05
2.96054e-05
3.26409e-05
3.83346e-05
3.7573e-05
3.36292e-05
2.87295e-05
2.46972e-05
2.13411e-05
1.8107e-05
1.56666e-05
1.39131e-05
1.3645e-05
1.54108e-05
1.84431e-05
2.18653e-05
2.50561e-05
2.8793e-05
3.32946e-05
3.69221e-05
3.75405e-05
3.23093e-05
3.88227e-05
4.48453e-05
4.24008e-05
3.74015e-05
3.0711e-05
2.50479e-05
2.1056e-05
1.76737e-05
1.5063e-05
1.32624e-05
1.31242e-05
1.50193e-05
1.79675e-05
2.13638e-05
2.51938e-05
3.05944e-05
3.69397e-05
4.16933e-05
4.39147e-05
3.83735e-05
4.58048e-05
5.14505e-05
4.6777e-05
4.09679e-05
3.36236e-05
2.67235e-05
2.18116e-05
1.7908e-05
1.48075e-05
1.27954e-05
1.27747e-05
1.49176e-05
1.81979e-05
2.20537e-05
2.68606e-05
3.3651e-05
4.08763e-05
4.65098e-05
5.09117e-05
4.55321e-05
5.23033e-05
5.65691e-05
4.91203e-05
4.23575e-05
3.56141e-05
2.92926e-05
2.44154e-05
2.05016e-05
1.73435e-05
1.53873e-05
1.54604e-05
1.76271e-05
2.08719e-05
2.47619e-05
2.96159e-05
3.60072e-05
4.28379e-05
4.95105e-05
5.65809e-05
5.22279e-05
5.86215e-05
6.19693e-05
5.37935e-05
4.68058e-05
4.31091e-05
4.02115e-05
3.80916e-05
3.59726e-05
3.24957e-05
2.80026e-05
2.79847e-05
3.29983e-05
3.68884e-05
3.91879e-05
4.13627e-05
4.44201e-05
4.8407e-05
5.53444e-05
6.25847e-05
5.86991e-05
6.57851e-05
7.33539e-05
8.6606e-05
9.77469e-05
0.000105082
0.000113898
0.000123292
0.000127588
0.000119851
0.000101061
0.000100648
0.000120594
0.000129487
0.000125953
0.000117017
0.000108413
0.00010117
8.8895e-05
7.43663e-05
6.59769e-05
7.45424e-05
8.64906e-05
9.68606e-05
0.000105999
0.000115133
0.000124189
0.000132202
0.000137538
0.000138453
0.000133933
0.000133575
0.000138369
0.000137713
0.000132606
0.000124777
0.000115828
0.000106674
9.73817e-05
8.68083e-05
7.46611e-05
4.96725e-06
8.01738e-06
9.41293e-06
1.01415e-05
1.10231e-05
1.1247e-05
9.75687e-06
7.77656e-06
6.33298e-06
5.78878e-06
5.70984e-06
6.37121e-06
8.04531e-06
1.03209e-05
1.21912e-05
1.21657e-05
1.08935e-05
9.76675e-06
7.9735e-06
4.90212e-06
2.19309e-05
3.12084e-05
3.42751e-05
3.46295e-05
3.2183e-05
2.61219e-05
1.86443e-05
1.36253e-05
1.13936e-05
1.18604e-05
1.17615e-05
1.16896e-05
1.41698e-05
1.91394e-05
2.61467e-05
3.18973e-05
3.46291e-05
3.44025e-05
3.11312e-05
2.14435e-05
2.38212e-05
2.88022e-05
3.04683e-05
2.99413e-05
2.81374e-05
2.53648e-05
2.22643e-05
1.82494e-05
1.48001e-05
1.4046e-05
1.37521e-05
1.5056e-05
1.90292e-05
2.33259e-05
2.62728e-05
2.87794e-05
3.06266e-05
3.12089e-05
2.94784e-05
2.42023e-05
2.58989e-05
2.917e-05
2.99622e-05
2.87295e-05
2.63557e-05
2.38825e-05
2.14437e-05
1.88067e-05
1.66332e-05
1.54892e-05
1.50361e-05
1.63554e-05
1.91058e-05
2.20075e-05
2.44196e-05
2.6689e-05
2.88553e-05
2.99284e-05
2.90151e-05
2.56965e-05
3.50445e-05
3.6152e-05
3.35132e-05
3.0711e-05
2.70757e-05
2.37079e-05
2.09254e-05
1.83554e-05
1.64427e-05
1.56045e-05
1.51725e-05
1.62828e-05
1.86125e-05
2.12763e-05
2.40077e-05
2.72355e-05
3.06722e-05
3.32381e-05
3.55034e-05
3.44749e-05
4.42778e-05
4.6021e-05
3.85328e-05
3.36236e-05
2.88864e-05
2.45163e-05
2.10001e-05
1.79939e-05
1.57155e-05
1.47796e-05
1.45159e-05
1.57881e-05
1.83543e-05
2.13688e-05
2.48431e-05
2.91703e-05
3.37975e-05
3.8429e-05
4.53799e-05
4.39327e-05
5.25166e-05
5.56342e-05
4.23668e-05
3.56141e-05
3.0749e-05
2.65205e-05
2.30705e-05
2.02044e-05
1.80349e-05
1.74625e-05
1.75664e-05
1.85308e-05
2.08531e-05
2.36866e-05
2.71257e-05
3.14162e-05
3.62838e-05
4.27877e-05
5.54768e-05
5.24186e-05
6.02702e-05
6.42481e-05
4.71922e-05
4.31091e-05
4.16403e-05
4.0639e-05
4.02162e-05
3.94779e-05
3.67223e-05
3.25383e-05
3.28022e-05
3.77477e-05
4.09647e-05
4.18336e-05
4.22671e-05
4.33324e-05
4.48336e-05
4.86974e-05
6.49405e-05
6.03565e-05
6.87854e-05
7.65329e-05
9.16692e-05
0.000105082
0.000122426
0.000139478
0.000155178
0.000162606
0.00015146
0.000123614
0.000123778
0.000153231
0.000165663
0.000159103
0.000143607
0.000126573
0.000108837
9.45978e-05
7.77361e-05
6.90105e-05
7.91035e-05
9.26718e-05
0.000104366
0.000115133
0.000126869
0.000138465
0.00014877
0.000156074
0.000158387
0.000154603
0.000154305
0.000158402
0.000156356
0.000149286
0.000139151
0.000127656
0.00011589
0.000104925
9.29991e-05
7.92202e-05
4.18677e-06
7.26745e-06
9.12182e-06
1.05663e-05
1.1247e-05
1.07947e-05
9.4716e-06
8.00086e-06
6.87395e-06
6.51858e-06
6.42874e-06
6.90617e-06
8.25206e-06
9.95949e-06
1.15165e-05
1.21753e-05
1.1601e-05
1.01324e-05
7.67947e-06
4.21961e-06
1.73193e-05
2.66755e-05
3.01646e-05
2.9761e-05
2.61219e-05
2.07522e-05
1.60987e-05
1.30128e-05
1.18017e-05
1.32864e-05
1.31262e-05
1.20799e-05
1.35861e-05
1.67797e-05
2.12356e-05
2.61165e-05
2.94697e-05
2.9948e-05
2.67666e-05
1.71897e-05
1.86645e-05
2.3812e-05
2.62512e-05
2.65027e-05
2.53648e-05
2.34943e-05
2.06007e-05
1.69081e-05
1.44339e-05
1.47772e-05
1.43612e-05
1.46477e-05
1.76427e-05
2.16431e-05
2.46395e-05
2.62985e-05
2.72165e-05
2.69081e-05
2.44598e-05
1.91442e-05
2.00209e-05
2.26924e-05
2.43994e-05
2.46972e-05
2.38825e-05
2.25078e-05
2.0663e-05
1.84129e-05
1.65166e-05
1.60847e-05
1.55158e-05
1.62808e-05
1.87081e-05
2.12461e-05
2.31944e-05
2.44997e-05
2.51884e-05
2.47848e-05
2.28875e-05
1.9793e-05
3.17204e-05
2.818e-05
2.59171e-05
2.50479e-05
2.37079e-05
2.20249e-05
2.0194e-05
1.83197e-05
1.70877e-05
1.70012e-05
1.6505e-05
1.69101e-05
1.8561e-05
2.05712e-05
2.24415e-05
2.40912e-05
2.5342e-05
2.60445e-05
2.78862e-05
3.10248e-05
4.26205e-05
3.78681e-05
2.9733e-05
2.67235e-05
2.45163e-05
2.22128e-05
1.99513e-05
1.78896e-05
1.66748e-05
1.71327e-05
1.67645e-05
1.67053e-05
1.82592e-05
2.03792e-05
2.26521e-05
2.49573e-05
2.71045e-05
2.98857e-05
3.7406e-05
4.22018e-05
5.22383e-05
5.23639e-05
3.517e-05
2.92926e-05
2.65205e-05
2.42098e-05
2.20839e-05
2.03278e-05
1.95077e-05
2.1091e-05
2.12491e-05
2.01229e-05
2.11074e-05
2.28404e-05
2.4961e-05
2.73098e-05
3.00718e-05
3.57111e-05
5.20508e-05
5.21052e-05
6.11968e-05
6.543e-05
4.34803e-05
4.02115e-05
4.0639e-05
4.1818e-05
4.31675e-05
4.349e-05
4.06341e-05
3.61928e-05
3.67006e-05
4.19538e-05
4.52674e-05
4.50762e-05
4.37086e-05
4.24861e-05
4.19604e-05
4.50634e-05
6.60582e-05
6.12763e-05
7.08739e-05
7.89121e-05
9.42436e-05
0.000113898
0.000139478
0.000165319
0.000186707
0.000195042
0.000174779
0.000131627
0.000132026
0.000176998
0.000198557
0.000191169
0.000170067
0.000144066
0.00011773
9.73274e-05
8.01439e-05
7.11045e-05
8.2668e-05
9.80264e-05
0.000111347
0.000124189
0.000138465
0.000152624
0.000165387
0.000175002
0.000179386
0.000177541
0.000177227
0.000179404
0.000175287
0.000165906
0.000153315
0.000139247
0.000124929
0.000111891
9.83446e-05
8.27788e-05
3.56607e-06
6.45604e-06
8.3913e-06
9.4815e-06
9.75687e-06
9.4716e-06
8.81937e-06
8.02338e-06
7.39556e-06
7.47289e-06
7.36651e-06
7.40335e-06
8.20682e-06
9.17865e-06
9.98884e-06
1.03671e-05
1.01231e-05
8.99429e-06
6.81414e-06
3.61918e-06
9.9454e-06
1.87498e-05
2.16826e-05
2.1093e-05
1.86443e-05
1.60987e-05
1.39835e-05
1.24591e-05
1.24767e-05
1.58437e-05
1.56103e-05
1.26689e-05
1.29245e-05
1.4583e-05
1.67416e-05
1.9112e-05
2.11998e-05
2.15601e-05
1.8661e-05
9.63577e-06
1.34992e-05
1.87046e-05
2.15677e-05
2.25917e-05
2.22643e-05
2.06007e-05
1.79408e-05
1.52986e-05
1.4216e-05
1.62638e-05
1.56911e-05
1.43125e-05
1.58829e-05
1.8768e-05
2.16049e-05
2.32958e-05
2.35184e-05
2.23257e-05
1.93497e-05
1.39297e-05
1.57888e-05
1.78959e-05
2.0125e-05
2.13411e-05
2.14437e-05
2.0663e-05
1.91764e-05
1.72071e-05
1.60379e-05
1.72944e-05
1.65665e-05
1.5789e-05
1.74578e-05
1.96739e-05
2.13176e-05
2.21368e-05
2.19939e-05
2.06744e-05
1.81808e-05
1.54394e-05
2.90276e-05
2.31659e-05
2.0989e-05
2.1056e-05
2.09254e-05
2.0194e-05
1.89921e-05
1.76578e-05
1.71801e-05
1.88081e-05
1.81536e-05
1.69946e-05
1.79141e-05
1.93689e-05
2.06367e-05
2.13906e-05
2.14877e-05
2.1273e-05
2.29799e-05
2.82351e-05
4.09361e-05
3.18649e-05
2.38203e-05
2.18116e-05
2.10001e-05
1.99513e-05
1.8615e-05
1.73665e-05
1.7267e-05
2.01257e-05
1.96074e-05
1.72761e-05
1.77367e-05
1.90604e-05
2.04329e-05
2.15034e-05
2.22843e-05
2.41164e-05
3.15898e-05
4.0457e-05
5.14267e-05
4.54804e-05
2.90469e-05
2.44154e-05
2.30705e-05
2.20839e-05
2.10493e-05
2.03235e-05
2.09397e-05
2.57654e-05
2.58916e-05
2.16123e-05
2.11665e-05
2.18753e-05
2.29039e-05
2.39095e-05
2.52466e-05
2.96766e-05
4.51599e-05
5.12595e-05
6.13089e-05
6.46315e-05
3.9597e-05
3.80916e-05
4.02162e-05
4.31675e-05
4.5882e-05
4.62424e-05
4.20377e-05
3.86532e-05
3.92631e-05
4.33815e-05
4.80493e-05
4.78744e-05
4.51719e-05
4.2125e-05
3.98544e-05
4.13243e-05
6.51135e-05
6.13714e-05
7.19541e-05
8.01008e-05
9.65198e-05
0.000123292
0.000155178
0.000186707
0.000212857
0.000216636
0.000177564
0.000129624
0.000130017
0.000179536
0.000220013
0.000217254
0.000191712
0.000159959
0.000127092
9.96802e-05
8.13242e-05
7.21761e-05
8.5084e-05
0.000102129
0.000117171
0.000132202
0.00014877
0.000165387
0.000180898
0.000193529
0.000201816
0.000206097
0.000205693
0.000201761
0.000193751
0.000181365
0.000166048
0.000149521
0.000132902
0.000117709
0.000102441
8.5186e-05
2.6867e-06
4.63533e-06
6.24741e-06
7.25832e-06
7.77656e-06
8.00086e-06
8.02338e-06
7.94796e-06
7.96801e-06
8.60089e-06
8.47443e-06
7.93362e-06
8.01897e-06
8.2015e-06
8.26855e-06
8.08595e-06
7.54237e-06
6.40915e-06
4.41309e-06
2.59587e-06
4.17846e-06
1.09322e-05
1.34971e-05
1.40223e-05
1.36253e-05
1.30128e-05
1.24591e-05
1.23772e-05
1.37332e-05
1.74003e-05
1.70618e-05
1.37635e-05
1.26001e-05
1.27827e-05
1.3406e-05
1.40124e-05
1.42895e-05
1.35957e-05
1.07856e-05
4.10707e-06
8.31268e-06
1.39357e-05
1.71942e-05
1.85191e-05
1.82494e-05
1.69081e-05
1.52986e-05
1.41801e-05
1.4576e-05
1.95405e-05
1.88924e-05
1.45541e-05
1.45078e-05
1.57867e-05
1.75187e-05
1.89209e-05
1.91678e-05
1.77349e-05
1.43572e-05
8.67043e-06
1.21034e-05
1.35453e-05
1.62288e-05
1.8107e-05
1.88067e-05
1.84129e-05
1.72071e-05
1.59153e-05
1.62542e-05
2.46946e-05
2.38851e-05
1.60266e-05
1.60366e-05
1.74758e-05
1.88032e-05
1.92712e-05
1.85756e-05
1.66114e-05
1.36393e-05
1.15724e-05
2.68053e-05
1.91196e-05
1.69751e-05
1.76737e-05
1.83554e-05
1.83197e-05
1.76578e-05
1.69447e-05
1.81875e-05
3.35559e-05
3.26855e-05
1.80407e-05
1.71805e-05
1.79853e-05
1.86771e-05
1.87324e-05
1.80345e-05
1.71959e-05
1.88856e-05
2.59065e-05
3.92033e-05
2.75673e-05
1.9448e-05
1.7908e-05
1.79939e-05
1.78896e-05
1.73665e-05
1.69809e-05
1.94568e-05
4.37447e-05
4.27542e-05
1.95108e-05
1.73556e-05
1.77837e-05
1.83293e-05
1.84541e-05
1.83517e-05
1.97459e-05
2.73244e-05
3.86648e-05
5.01217e-05
3.88342e-05
2.42237e-05
2.05016e-05
2.02044e-05
2.03278e-05
2.03235e-05
2.07599e-05
2.49653e-05
5.59547e-05
5.56084e-05
2.57023e-05
2.16656e-05
2.11861e-05
2.11678e-05
2.10502e-05
2.13411e-05
2.48511e-05
3.85434e-05
4.99172e-05
6.04953e-05
6.23411e-05
3.58696e-05
3.59726e-05
3.94779e-05
4.349e-05
4.62424e-05
4.5018e-05
4.16925e-05
6.37311e-05
6.40193e-05
4.29139e-05
4.66461e-05
4.8126e-05
4.54697e-05
4.13912e-05
3.77354e-05
3.76431e-05
6.26033e-05
6.0527e-05
7.17445e-05
7.89677e-05
9.55934e-05
0.000127588
0.000162606
0.000195042
0.000216636
0.000201828
0.000157001
0.000171926
0.000172582
0.000158461
0.000204314
0.000220661
0.000199943
0.000167444
0.000131402
9.86511e-05
8.01116e-05
7.19353e-05
8.60475e-05
0.000104271
0.000120628
0.000137538
0.000156074
0.000175002
0.000193529
0.000210757
0.000227958
0.000248217
0.000247611
0.000227836
0.000210917
0.000193956
0.000175641
0.000156812
0.000138222
0.000121158
0.000104565
8.61253e-05
2.50686e-06
3.52588e-06
4.75762e-06
5.68303e-06
6.33298e-06
6.87395e-06
7.39556e-06
7.96801e-06
8.55434e-06
9.47663e-06
9.37636e-06
8.44743e-06
7.90754e-06
7.371e-06
6.88047e-06
6.34933e-06
5.67091e-06
4.64508e-06
3.3112e-06
2.38084e-06
4.05415e-06
7.03788e-06
9.58154e-06
1.08632e-05
1.13936e-05
1.18017e-05
1.24767e-05
1.37332e-05
1.52239e-05
4.41781e-05
4.34744e-05
1.5033e-05
1.36038e-05
1.24352e-05
1.18373e-05
1.14778e-05
1.09395e-05
9.51189e-06
6.97608e-06
4.01804e-06
4.88092e-06
1.01634e-05
1.32846e-05
1.46513e-05
1.48001e-05
1.44339e-05
1.4216e-05
1.4576e-05
1.99371e-05
9.85833e-05
9.79159e-05
1.98716e-05
1.4544e-05
1.42751e-05
1.45932e-05
1.50393e-05
1.49259e-05
1.35326e-05
1.03254e-05
4.85613e-06
9.87948e-06
1.06416e-05
1.3485e-05
1.56666e-05
1.66332e-05
1.65166e-05
1.60379e-05
1.62542e-05
2.83346e-05
0.000158715
0.000159122
2.85104e-05
1.61731e-05
1.59569e-05
1.64603e-05
1.66284e-05
1.5717e-05
1.35318e-05
1.03841e-05
8.53962e-06
2.50796e-05
1.68525e-05
1.41782e-05
1.5063e-05
1.64427e-05
1.70877e-05
1.71801e-05
1.81875e-05
4.10404e-05
0.000232238
0.000234494
4.1844e-05
1.82985e-05
1.72563e-05
1.7157e-05
1.65022e-05
1.51374e-05
1.41323e-05
1.63604e-05
2.40388e-05
3.74359e-05
2.50573e-05
1.65414e-05
1.48075e-05
1.57155e-05
1.66748e-05
1.7267e-05
1.94568e-05
5.5367e-05
0.000305829
0.000309123
5.65279e-05
1.98072e-05
1.7496e-05
1.68608e-05
1.59135e-05
1.50541e-05
1.66699e-05
2.47036e-05
3.68411e-05
4.83034e-05
3.4217e-05
2.09606e-05
1.73435e-05
1.80349e-05
1.95077e-05
2.09397e-05
2.49653e-05
7.15196e-05
0.000354501
0.000358315
7.32451e-05
2.59733e-05
2.17553e-05
2.02366e-05
1.87528e-05
1.80878e-05
2.14689e-05
3.40057e-05
4.80764e-05
5.86137e-05
5.83351e-05
3.20621e-05
3.24957e-05
3.67223e-05
4.06341e-05
4.20377e-05
4.16925e-05
7.97477e-05
0.000349773
0.000352171
8.1226e-05
4.30869e-05
4.35982e-05
4.23578e-05
3.84626e-05
3.41414e-05
3.37418e-05
5.84113e-05
5.86276e-05
6.98776e-05
7.41534e-05
8.73342e-05
0.000119851
0.00015146
0.000174779
0.000177564
0.000157001
0.000183763
0.000323464
0.000324715
0.000185649
0.000158817
0.000180767
0.000179196
0.000156067
0.000123456
9.00434e-05
7.51857e-05
7.00344e-05
8.51196e-05
0.000103637
0.000120428
0.000138453
0.000158387
0.000179386
0.000201816
0.000227958
0.000263029
0.000306483
0.00030524
0.000263003
0.000228225
0.000202295
0.000180057
0.000159151
0.000139146
0.000120951
0.000103915
8.5171e-05
2.54073e-06
3.45024e-06
4.24906e-06
5.06909e-06
5.78878e-06
6.51858e-06
7.47289e-06
8.60089e-06
9.47663e-06
1.02723e-05
1.01247e-05
9.27775e-06
8.35794e-06
7.25335e-06
6.31614e-06
5.59285e-06
4.86632e-06
4.02096e-06
3.28636e-06
2.42456e-06
4.34591e-06
6.77056e-06
8.5292e-06
1.03733e-05
1.18604e-05
1.32864e-05
1.58437e-05
1.74003e-05
4.41781e-05
4.42217e-05
4.31577e-05
4.33598e-05
1.66879e-05
1.52719e-05
1.28868e-05
1.16153e-05
1.01392e-05
8.36232e-06
6.70642e-06
4.30879e-06
5.57532e-06
8.79727e-06
1.09548e-05
1.27707e-05
1.4046e-05
1.47772e-05
1.62638e-05
1.95405e-05
9.85833e-05
8.11086e-05
7.92294e-05
9.96452e-05
1.89979e-05
1.56677e-05
1.43735e-05
1.38421e-05
1.26946e-05
1.0939e-05
8.73961e-06
5.54542e-06
9.16826e-06
1.10501e-05
1.21887e-05
1.39131e-05
1.54892e-05
1.60847e-05
1.72944e-05
2.46946e-05
0.000158715
0.000124598
0.000122001
0.00016312
2.45373e-05
1.66786e-05
1.55936e-05
1.51877e-05
1.37588e-05
1.20496e-05
1.07084e-05
7.67548e-06
2.36887e-05
1.67664e-05
1.31509e-05
1.32624e-05
1.56045e-05
1.70012e-05
1.88081e-05
3.35559e-05
0.000232238
0.000176412
0.000173203
0.000241463
3.4236e-05
1.83494e-05
1.65984e-05
1.53039e-05
1.31183e-05
1.28367e-05
1.60696e-05
2.25519e-05
3.57079e-05
2.4094e-05
1.55045e-05
1.27954e-05
1.47796e-05
1.71327e-05
2.01257e-05
4.37447e-05
0.000305829
0.000234776
0.000230944
0.000318664
4.51384e-05
1.99381e-05
1.68776e-05
1.45791e-05
1.28352e-05
1.54307e-05
2.36162e-05
3.51035e-05
4.61087e-05
3.2098e-05
1.94801e-05
1.53873e-05
1.74625e-05
2.1091e-05
2.57654e-05
5.59547e-05
0.000354501
0.000292033
0.000287484
0.000368727
5.81229e-05
2.64235e-05
2.15771e-05
1.79316e-05
1.59942e-05
1.9846e-05
3.18819e-05
4.59311e-05
5.57972e-05
5.30561e-05
2.85123e-05
2.80026e-05
3.25383e-05
3.61928e-05
3.86532e-05
6.37311e-05
0.000349772
0.000332233
0.000326662
0.000361253
6.57626e-05
3.98561e-05
3.74908e-05
3.39222e-05
2.94e-05
3.00535e-05
5.31722e-05
5.58863e-05
6.63259e-05
6.58221e-05
7.2352e-05
0.000101061
0.000123614
0.000131627
0.000129624
0.000171926
0.000323464
0.000348052
0.000342301
0.000329872
0.000174549
0.000131666
0.000135002
0.000127616
0.000104154
7.4788e-05
6.69279e-05
6.65314e-05
8.18237e-05
9.96361e-05
0.000115537
0.000133933
0.000154603
0.000177541
0.000206097
0.000248217
0.000306483
0.000330826
0.000326545
0.000307092
0.000248988
0.000206776
0.000178316
0.000155453
0.000134685
0.000116129
9.9954e-05
8.18941e-05
2.5629e-06
3.46336e-06
4.21931e-06
5.00261e-06
5.70985e-06
6.42875e-06
7.36651e-06
8.47444e-06
9.37636e-06
1.01247e-05
9.96309e-06
9.18183e-06
8.24757e-06
7.13729e-06
6.18704e-06
5.45824e-06
4.7444e-06
3.94342e-06
3.32305e-06
2.48173e-06
4.39034e-06
6.81385e-06
8.52192e-06
1.03148e-05
1.17615e-05
1.31262e-05
1.56103e-05
1.70618e-05
4.34744e-05
4.31577e-05
4.23296e-05
4.27739e-05
1.62714e-05
1.49491e-05
1.26159e-05
1.13897e-05
9.99389e-06
8.25296e-06
6.65846e-06
4.32932e-06
5.5001e-06
8.76833e-06
1.09553e-05
1.26761e-05
1.37521e-05
1.43612e-05
1.56911e-05
1.88924e-05
9.79159e-05
7.92294e-05
7.7752e-05
9.85358e-05
1.8321e-05
1.51448e-05
1.39462e-05
1.34459e-05
1.24018e-05
1.06751e-05
8.51099e-06
5.4464e-06
8.91035e-06
1.04661e-05
1.1978e-05
1.3645e-05
1.50361e-05
1.55158e-05
1.65665e-05
2.38851e-05
0.000159122
0.000122001
0.000119856
0.000161461
2.35433e-05
1.61488e-05
1.51957e-05
1.48447e-05
1.35321e-05
1.18224e-05
1.03803e-05
6.99524e-06
2.32611e-05
1.62822e-05
1.29491e-05
1.31242e-05
1.51725e-05
1.6505e-05
1.81536e-05
3.26855e-05
0.000234494
0.000173203
0.000170485
0.00023912
3.26831e-05
1.79017e-05
1.63479e-05
1.51198e-05
1.30611e-05
1.26233e-05
1.55554e-05
2.17229e-05
3.52973e-05
2.36692e-05
1.537e-05
1.27747e-05
1.45159e-05
1.67645e-05
1.96074e-05
4.27542e-05
0.000309123
0.000230944
0.000227837
0.000314886
4.28406e-05
1.95782e-05
1.67634e-05
1.45433e-05
1.28188e-05
1.51866e-05
2.30446e-05
3.44952e-05
4.57463e-05
3.17111e-05
1.93867e-05
1.54604e-05
1.75664e-05
2.12491e-05
2.58916e-05
5.56084e-05
0.000358315
0.000287484
0.000284331
0.00036357
5.58177e-05
2.63459e-05
2.16916e-05
1.8007e-05
1.59459e-05
1.95603e-05
3.13715e-05
4.55395e-05
5.54475e-05
5.23986e-05
2.8489e-05
2.79847e-05
3.28022e-05
3.67006e-05
3.92631e-05
6.40193e-05
0.000352171
0.000326662
0.000323847
0.000354501
6.44452e-05
4.05154e-05
3.80978e-05
3.42028e-05
2.93712e-05
2.98904e-05
5.24235e-05
5.56339e-05
6.59625e-05
6.53256e-05
7.18187e-05
0.000100648
0.000123778
0.000132026
0.000130017
0.000172582
0.000324715
0.000342301
0.000339808
0.000325776
0.00017342
0.000133117
0.000137066
0.000128902
0.000104623
7.4402e-05
6.67414e-05
6.63745e-05
8.14488e-05
9.92399e-05
0.000115128
0.000133575
0.000154305
0.000177227
0.000205693
0.000247611
0.00030524
0.000326545
0.000324919
0.000304914
0.000247614
0.000206248
0.000178273
0.000155572
0.000134789
0.000116122
9.99253e-05
8.18279e-05
2.57285e-06
3.6093e-06
4.77576e-06
5.71234e-06
6.37121e-06
6.90617e-06
7.40335e-06
7.93362e-06
8.44743e-06
9.27775e-06
9.18183e-06
8.38333e-06
7.88811e-06
7.3403e-06
6.81316e-06
6.23996e-06
5.5333e-06
4.48472e-06
3.45991e-06
2.51178e-06
4.19389e-06
7.21964e-06
9.75215e-06
1.11184e-05
1.16896e-05
1.20799e-05
1.26689e-05
1.37635e-05
1.5033e-05
4.33598e-05
4.27739e-05
1.47428e-05
1.35538e-05
1.24659e-05
1.18828e-05
1.1491e-05
1.09157e-05
9.46947e-06
6.9983e-06
4.17044e-06
4.83208e-06
1.05725e-05
1.35318e-05
1.48983e-05
1.5056e-05
1.46477e-05
1.43126e-05
1.45541e-05
1.98716e-05
9.96452e-05
9.85358e-05
1.95622e-05
1.43662e-05
1.40927e-05
1.43733e-05
1.47208e-05
1.455e-05
1.32088e-05
1.02112e-05
4.87174e-06
9.4831e-06
1.05604e-05
1.33458e-05
1.54108e-05
1.63554e-05
1.62808e-05
1.5789e-05
1.60266e-05
2.85104e-05
0.00016312
0.000161461
2.81199e-05
1.5926e-05
1.5678e-05
1.61503e-05
1.62735e-05
1.5413e-05
1.3346e-05
1.01603e-05
7.4193e-06
2.4384e-05
1.65253e-05
1.41221e-05
1.50193e-05
1.62828e-05
1.69101e-05
1.69946e-05
1.80407e-05
4.1844e-05
0.000241463
0.00023912
4.12794e-05
1.81323e-05
1.71221e-05
1.70376e-05
1.64208e-05
1.5121e-05
1.397e-05
1.56818e-05
2.27396e-05
3.68412e-05
2.45743e-05
1.64197e-05
1.49176e-05
1.57881e-05
1.67053e-05
1.72761e-05
1.95108e-05
5.65279e-05
0.000318664
0.000314886
5.53651e-05
1.97411e-05
1.75704e-05
1.6976e-05
1.60474e-05
1.5116e-05
1.63729e-05
2.38677e-05
3.59772e-05
4.78022e-05
3.3528e-05
2.08267e-05
1.76271e-05
1.85308e-05
2.01229e-05
2.16123e-05
2.57023e-05
7.32451e-05
0.000368726
0.00036357
7.17043e-05
2.62279e-05
2.22344e-05
2.06903e-05
1.90661e-05
1.81277e-05
2.10517e-05
3.31381e-05
4.75855e-05
5.81635e-05
5.72289e-05
3.2075e-05
3.29983e-05
3.77477e-05
4.19538e-05
4.33815e-05
4.29139e-05
8.1226e-05
0.000361253
0.000354501
8.02237e-05
4.43623e-05
4.50846e-05
4.3565e-05
3.92006e-05
3.43095e-05
3.36058e-05
5.75233e-05
5.83876e-05
6.94902e-05
7.3626e-05
8.69807e-05
0.000120594
0.000153231
0.000176998
0.000179536
0.000158461
0.000185649
0.000329872
0.000325776
0.000184667
0.000162001
0.000185623
0.000182605
0.000158116
0.000124164
8.97971e-05
7.52482e-05
6.99787e-05
8.4799e-05
0.000103349
0.000120203
0.000138369
0.000158402
0.000179404
0.000201761
0.000227836
0.000263003
0.000307092
0.000304914
0.000262153
0.000227929
0.000202497
0.000180452
0.000159554
0.000139433
0.000121078
0.000103991
8.51942e-05
2.81743e-06
4.74092e-06
6.43598e-06
7.50315e-06
8.04531e-06
8.25206e-06
8.20682e-06
8.01897e-06
7.90754e-06
8.35794e-06
8.24757e-06
7.88811e-06
8.05436e-06
8.24905e-06
8.28008e-06
8.03932e-06
7.43324e-06
6.19527e-06
4.52817e-06
2.75573e-06
4.38425e-06
1.08618e-05
1.3677e-05
1.4405e-05
1.41699e-05
1.35861e-05
1.29245e-05
1.26001e-05
1.36038e-05
1.66879e-05
1.62714e-05
1.35538e-05
1.26999e-05
1.29942e-05
1.36018e-05
1.41265e-05
1.42847e-05
1.33846e-05
1.03357e-05
4.35066e-06
8.88229e-06
1.44872e-05
1.78264e-05
1.92539e-05
1.90292e-05
1.76427e-05
1.58829e-05
1.45078e-05
1.4544e-05
1.89979e-05
1.8321e-05
1.43662e-05
1.44419e-05
1.56916e-05
1.73368e-05
1.86591e-05
1.89111e-05
1.75694e-05
1.42443e-05
8.05702e-06
1.18784e-05
1.38432e-05
1.66139e-05
1.84431e-05
1.91058e-05
1.87081e-05
1.74578e-05