/*--------------------------------*- C++ -*----------------------------------*\
  =========                 |
  \\      /  F ield         | OpenFOAM: The Open Source CFD Toolbox
   \\    /   O peration     | Website:  https://openfoam.org
    \\  /    A nd           | Version:  9
     \\/     M anipulation  |
\*---------------------------------------------------------------------------*/
FoamFile
{
    format      ascii;
    class       surfaceScalarField;
    location    "1900";
    object      phi;
}
// * * * * * * * * * * * * * * * * * * * * * * * * * * * * * * * * * * * * * //

dimensions      [1 0 -1 0 0 0 0];

internalField   nonuniform List<scalar> 
11200
(
0.00276567
-0.00553132
0.00276567
0.00298348
-0.00232516
0.00210743
0.00141725
0.000350241
0.00121615
4.30615e-05
0.000688918
0.000685389
-0.000677117
0.000558127
0.000162039
-0.0009563
0.000248722
3.04525e-05
-0.000874335
-0.000153589
7.16149e-05
-0.000584969
-0.000263024
-2.63345e-05
-0.000312255
-0.000183067
-8.96465e-05
-6.29745e-07
-0.000158939
-0.00015269
0.000295817
-0.000149027
-0.000147425
0.00056924
-0.000179747
-9.36772e-05
0.000913784
-0.00029121
-5.33226e-05
0.00114067
-0.000279962
5.30823e-05
0.000978529
0.000137976
2.41663e-05
0.000438455
0.000491091
4.8976e-05
-0.00056278
0.00044501
0.000556265
-0.00227361
0.000743344
0.000967611
-0.00247717
-0.00171599
0.0019196
-0.00505229
0.00257514
0.00212342
-0.00977815
0.00212342
0.00388335
-0.00627731
0.00219223
0.00510847
-0.00302971
0.00215485
0.0047992
-0.00095863
0.0019568
0.00329941
0.000496995
0.00156091
0.00132587
0.00101207
0.00121018
-8.47471e-05
0.000486686
0.000770345
-0.000453379
4.54236e-05
6.0183e-05
-0.000335205
1.70291e-05
-0.000318274
3.91189e-05
-1.99474e-05
-0.000513318
0.000429249
-3.41082e-05
-0.000505052
0.000597956
-4.10509e-05
-0.000307405
0.000292582
-2.83377e-05
4.25027e-05
-0.00112535
0.000413537
0.000724439
-0.00320014
0.00102531
0.00118747
-0.00473373
0.000472487
0.0015522
-0.00531303
-0.000999626
0.00202393
-0.00401451
-0.00283235
0.00227719
-0.00212753
-0.00584358
0.00224062
-0.00933641
0.00215659
0.001208
-0.0121942
0.001208
0.00216291
-0.00885198
0.00161977
0.00287536
-0.00549992
0.00175777
0.00303858
-0.002823
0.00170115
0.00264263
-0.000571484
0.00146443
0.00192374
0.000511263
0.00121969
0.000948965
0.000474525
0.000986934
-7.48276e-06
0.000340604
0.000661264
-0.000233771
0.000307058
-6.37421e-05
9.15897e-05
0.000237239
-0.000582548
0.000386296
0.00020213
-0.000530945
0.000100067
0.000224583
2.05963e-05
-0.000931613
0.000275306
0.000728039
-0.00200752
0.000466342
0.00102311
-0.00275669
0.000525948
0.00124853
-0.00316792
-0.000596205
0.00147992
-0.00309181
-0.00280456
0.00172883
-0.00236426
-0.00538297
0.00182307
-0.00126729
-0.00862117
0.00168063
-0.0118716
0.00126794
0.000559932
-0.013314
0.000559931
0.000565415
-0.0101119
0.00125442
0.00040374
-0.00688553
0.00154729
0.000222625
-0.00436765
0.00172577
0.000280718
-0.00242052
0.00179095
0.000399213
-0.00124328
0.00163605
0.000219937
-0.00076583
0.00141963
-9.13695e-05
-0.000485763
0.00113767
-0.000131912
-0.000322839
0.000670437
0.000232921
-0.000264121
0.000136526
0.000448511
-0.000244996
0.000231536
0.0002462
-0.00031257
0.000739464
-0.000150344
-0.000466662
0.00113851
-0.000392982
-0.000705605
0.00141459
-0.000347508
-0.00116785
0.00164832
-0.000364419
-0.00238175
0.00180245
-0.000582211
-0.00433022
0.00174346
-0.00071819
-0.0068188
0.00157181
-0.000623642
-0.00999392
0.0012782
-0.0130867
0.000591413
8.46958e-05
-0.0134834
8.46958e-05
-0.000508253
-0.0105811
0.00106214
-0.00108683
-0.00776398
0.00145703
-0.00144955
-0.00569593
0.001691
-0.00148768
-0.00422649
0.00184411
-0.00127478
-0.0032802
0.00182401
-0.00101768
-0.00270555
0.00168262
-0.000722903
-0.00232298
0.00154245
-0.000345507
-0.00208543
0.00138519
0.000138493
-0.00193423
0.00118611
0.000519185
-0.00187104
0.00124535
0.000796108
-0.00200478
0.00141529
0.00102051
-0.00223289
0.00154182
0.00124272
-0.00260957
0.00168175
0.00143411
-0.00318928
0.00183006
0.00136428
-0.00415428
0.00184236
0.0009785
-0.00563516
0.00169072
0.000400828
-0.00769939
0.00145827
-0.000151462
-0.0104981
0.00105648
-0.0133259
8.77418e-05
-0.000241694
-0.013
-0.000241694
-0.00119087
-0.0105385
0.000906585
-0.00195074
-0.00829447
0.00129036
-0.00234831
-0.00675177
0.00145341
-0.00236797
-0.00570126
0.00149443
-0.00211886
-0.00501723
0.00148793
-0.00169437
-0.00454734
0.00141731
-0.00116747
-0.00420398
0.0013541
-0.000596442
-0.00396301
0.00130656
1.93269e-05
-0.00379305
0.00124305
0.0006009
-0.00373781
0.00128519
0.00114249
-0.00388488
0.00133851
0.00164707
-0.00411332
0.00137586
0.00205977
-0.00445536
0.00143309
0.00230262
-0.00493226
0.00150014
0.00227284
-0.00562835
0.00150385
0.00186717
-0.00668647
0.00145698
0.00111438
-0.00823142
0.00128482
0.000195885
-0.0104662
0.000886536
-0.0128771
-0.000252863
-0.000535682
-0.0119286
-0.000535682
-0.00174597
-0.00998377
0.000655594
-0.00265385
-0.00833375
0.000947153
-0.00308763
-0.00730982
0.000991834
-0.00306572
-0.00663609
0.000912919
-0.0027083
-0.00621304
0.000838399
-0.00213091
-0.00592654
0.000801798
-0.001433
-0.0057002
0.000798308
-0.000716041
-0.00550569
0.000825717
-1.39617e-05
-0.0053293
0.00083417
0.000678776
-0.0052925
0.000861955
0.00138523
-0.00544747
0.000856146
0.00207127
-0.00563314
0.000833772
0.00264251
-0.00585929
0.000832699
0.00299605
-0.00615036
0.000864552
0.00301439
-0.00657882
0.00093213
0.00257919
-0.00725252
0.00100125
0.00168097
-0.00827564
0.000942437
0.000496662
-0.00991784
0.000636002
-0.0118308
-0.000549676
-0.000970752
-0.00998714
-0.000970752
-0.00242439
-0.00851536
-1.47629e-05
-0.0034594
-0.00746122
0.000162485
-0.00390787
-0.00689852
3.71706e-05
-0.00382139
-0.00656955
-0.000153013
-0.00334756
-0.00638766
-0.000299214
-0.00259727
-0.00626327
-0.000413552
-0.00169344
-0.00614158
-0.000462449
-0.000786375
-0.00599939
-0.000413367
-1.21202e-05
-0.00583195
-0.000271602
0.000750957
-0.00581164
-0.00024394
0.00164294
-0.00596801
-0.000371449
0.00253872
-0.0061022
-0.000426719
0.00328409
-0.00622151
-0.000383157
0.00375466
-0.00634569
-0.000275234
0.00384004
-0.00652739
-0.000136813
0.00339303
-0.00685483
4.93205e-05
0.00236778
-0.00741552
0.000165128
0.000936827
-0.00846262
-2.42695e-05
-0.00991411
-0.000979859
-0.00176113
-0.00646488
-0.00176113
-0.00348817
-0.00563025
-0.00115807
-0.00456567
-0.0052049
-0.00117882
-0.00497724
-0.00510116
-0.00138579
-0.00481174
-0.00511755
-0.0016175
-0.00420785
-0.00519298
-0.00179857
-0.00327363
-0.00526266
-0.00193483
-0.00213523
-0.00529122
-0.00198875
-0.000969412
-0.00524385
-0.00192136
-1.17642e-05
-0.00511514
-0.00167447
0.000931331
-0.00510332
-0.00165141
0.00208618
-0.00522656
-0.00189629
0.00321965
-0.00527071
-0.00196496
0.00415054
-0.00524035
-0.00191205
0.00475252
-0.0051692
-0.00177847
0.00491793
-0.00509241
-0.00160038
0.00450873
-0.0050754
-0.00137023
0.00343927
-0.00517775
-0.00116831
0.00173078
-0.00559917
-0.00115495
-0.00642223
-0.00176109
-0.00323244
-0.00323244
-0.0053493
-0.00351339
-0.00639685
-0.00415735
-0.00670365
-0.00479436
-0.00641764
-0.00540356
-0.00565584
-0.00595478
-0.00450865
-0.00640985
-0.00306286
-0.00673702
-0.00145205
-0.00685466
-2.18504e-05
-0.00654534
0.00139763
-0.00652281
0.00300669
-0.00683562
0.0044534
-0.00671742
0.00560229
-0.00638924
0.00636419
-0.00593111
0.00664973
-0.00537795
0.00634461
-0.00477028
0.00530292
-0.00413606
0.00320085
-0.0034971
-0.00322138
0.00210743
-0.00232516
0.00298348
0.00227539
-0.000335799
0.00227539
0.00133312
0.000772352
0.00138623
0.000601109
0.000577105
0.000840365
6.6093e-05
0.000335358
0.000361682
-0.000223381
0.000117454
0.000202453
-0.000274494
-0.000116404
0.000239115
-0.000176808
-0.000291903
0.000167889
-0.000102622
-0.00022012
5.62925e-05
1.48356e-06
-0.000174236
-8.25597e-05
0.000100632
-0.000162717
-8.38589e-05
0.000186248
-0.000210869
3.15792e-05
0.000343278
-0.000340849
0.00013051
0.000430896
-0.000258085
0.000223548
0.000232207
5.76648e-05
0.000165177
-0.000152904
0.000247297
0.000186775
-0.000585726
0.000293531
0.000695581
-0.00150038
0.000883793
0.000998577
-0.00175476
0.000469201
0.00170484
-0.00159644
0.00241687
0.00219223
-0.00627731
0.00388335
0.00411682
-0.00418495
0.00411682
0.00523567
-0.00208538
0.00389374
0.00498327
-0.000476237
0.00326252
0.00366911
0.000757192
0.00245322
0.00205879
0.00115059
0.00178736
0.000933671
0.000603042
0.00117603
0.000274788
-2.37227e-05
0.000450886
2.2208e-05
-0.000150606
-0.000135209
1.94914e-05
-0.000178033
-0.000506804
4.87271e-05
-0.000198189
-0.000498814
-0.000122558
-0.000200842
-0.000146146
-0.000721607
-0.000113689
0.000414393
-0.00188513
0.000485987
0.00114391
-0.00351292
0.0011251
0.00174784
-0.00487164
0.00075095
0.00240726
-0.00532525
-0.000487305
0.00325839
-0.00425522
-0.00190905
0.00400001
-0.00220721
-0.00357524
0.00423709
-0.00563155
0.00398449
0.00161977
-0.00885198
0.00216291
0.0029819
-0.00690922
0.0029819
0.00382133
-0.00432334
0.0031563
0.00392866
-0.00173225
0.00284983
0.00341069
0.000397104
0.00234249
0.00262086
0.00124377
0.00191635
0.00171498
0.000968278
0.00152758
0.000848241
0.000518502
0.000985776
0.000250985
0.000231322
0.000151584
1.14882e-05
0.000113251
-0.000634334
-0.000241688
6.80945e-05
-0.00054405
-0.000831504
0.000145581
0.000263989
-0.00170794
0.000444128
0.00104666
-0.00270528
0.000917766
0.00158866
-0.00351589
0.00120089
0.00198335
-0.00401657
0.000326722
0.00240484
-0.00394853
-0.00174088
0.00291436
-0.00313835
-0.00417224
0.00327609
-0.00166295
-0.00654783
0.00317783
-0.00842861
0.00240205
0.00125442
-0.0101119
0.000565415
0.00191975
-0.00823988
0.00191975
0.00209339
-0.00543449
0.00248481
0.0020333
-0.00251378
0.00256739
0.00189834
-0.000104661
0.00242767
0.00160728
0.00102082
0.00215006
0.0011181
0.00106297
0.00181412
0.000555272
0.000885282
0.00133373
0.000163822
0.000738602
0.000554606
0.000128016
0.000647523
-0.000361943
7.93789e-06
0.000618848
-0.000199139
-0.000466981
0.000668814
0.00069115
-0.00107149
0.000820803
0.00136635
-0.00160117
0.00102661
0.00183542
-0.00192523
0.000980175
0.0021931
-0.00211266
-0.000159939
0.00247654
-0.00220291
-0.00253718
0.00263001
-0.00201383
-0.00535064
0.00256112
-0.00128148
-0.00802482
0.00202284
-0.00982985
0.000711168
0.00106214
-0.0105811
-0.000508253
0.00126063
-0.00863684
0.00126063
0.000950189
-0.00576511
0.00209809
0.000505489
-0.00278269
0.00240461
0.000339902
-0.000594678
0.00249971
0.000283529
0.000589023
0.00231218
0.000112536
0.000918454
0.00199812
-7.60687e-05
0.00100879
0.00160755
-9.31586e-05
0.00104658
0.0010943
0.000161674
0.00107563
0.00050317
0.000332333
0.00106933
0.000624213
0.000204471
0.00102486
0.0011871
-4.40183e-05
0.000989278
0.00162184
-0.000253405
0.000911675
0.00200608
-0.000349001
0.000574194
0.00233163
-0.000560456
-0.000619185
0.00251306
-0.00102428
-0.00280477
0.00242213
-0.00132048
-0.00571492
0.00211875
-0.00108335
-0.00849276
0.0012873
-0.0103787
-0.000446783
0.000906585
-0.0105385
-0.00119087
0.000787233
-0.00839814
0.000787233
0.000198056
-0.00563856
0.001753
-0.000299468
-0.00295818
0.00212643
-0.000514048
-0.00112973
0.00224406
-0.000509425
-9.54504e-05
0.00216778
-0.000523656
0.000434179
0.00191581
-0.000491403
0.000696601
0.00163403
-0.000308565
0.000842161
0.00132814
9.16228e-05
0.000928156
0.000990336
0.000438404
0.000932101
0.00107564
0.000565628
0.000850816
0.00138533
0.000562103
0.000710655
0.001658
0.000528083
0.000449462
0.00192932
0.000508583
-8.78983e-05
0.00218173
0.00025772
-0.00111937
0.0022549
-0.000262434
-0.00295864
0.002131
-0.000834414
-0.00560643
0.00174832
-0.00092558
-0.00829412
0.00077907
-0.0103844
-0.00117267
0.000655595
-0.00998377
-0.00174597
0.000269832
-0.00762661
0.000269832
-0.000460786
-0.00521673
0.00125594
-0.000940583
-0.00314244
0.00165589
-0.001129
-0.0017525
0.00172411
-0.00105924
-0.000968913
0.0016421
-0.000858068
-0.000491694
0.0015265
-0.000609828
-0.000169769
0.00141644
-0.000315261
7.99063e-05
0.0012934
5.53521e-05
0.000282774
0.00110894
0.00038629
0.000308866
0.00115425
0.00064242
0.000118978
0.00133185
0.000857086
-0.000118056
0.00144782
0.00104108
-0.00045453
0.0015527
0.0010949
-0.000943459
0.00166629
0.000896401
-0.00173244
0.0017437
0.000409696
-0.00313017
0.00165949
-0.000309324
-0.00519045
0.00124548
-0.00067421
-0.00755174
0.000258505
-0.00986952
-0.00173881
-1.47627e-05
-0.00851536
-0.00242439
-0.000603736
-0.00644866
-0.000603736
-0.00138156
-0.0045877
0.000311285
-0.00184294
-0.00324715
0.000603266
-0.00196281
-0.00235783
0.000572177
-0.001823
-0.00185135
0.000443425
-0.00147649
-0.00156703
0.000315264
-0.00100213
-0.00137084
0.000264264
-0.00046912
-0.00117717
0.000310697
1.46761e-05
-0.00090386
0.000431234
0.000477364
-0.000877817
0.000480053
0.000983349
-0.00113483
0.000376369
0.00145146
-0.00133106
0.000318179
0.00179002
-0.00153636
0.000360109
0.00192384
-0.00183198
0.000479465
0.00180131
-0.00234565
0.000598934
0.0013418
-0.00323603
0.000614696
0.000567218
-0.0045613
0.000310563
-3.03707e-06
-0.00639905
-0.0006067
-0.00843812
-0.0024143
-0.00115807
-0.00563025
-0.00348817
-0.00231006
-0.00414466
-0.00231006
-0.0031089
-0.00316731
-0.00180037
-0.00338023
-0.00263376
-0.00172785
-0.00320872
-0.00233435
-0.00181248
-0.00278484
-0.00219629
-0.00187752
-0.00215482
-0.00210015
-0.00203172
-0.00142107
-0.00199608
-0.00209726
-0.000675204
-0.00183783
-0.00200657
1.7447e-07
-0.00152985
-0.00172386
0.00067298
-0.00152028
-0.00168176
0.00141816
-0.00182376
-0.00195254
0.00214854
-0.00198036
-0.00204605
0.00277111
-0.00208615
-0.00198482
0.00319012
-0.00218412
-0.00184534
0.00335828
-0.00232331
-0.00179089
0.00307738
-0.00262331
-0.00170205
0.00227942
-0.00315181
-0.00177985
0.00114067
-0.00411813
-0.00229712
-0.00558808
-0.00347046
-0.00351339
-0.0053493
-0.00558572
-0.00558572
-0.0065843
-0.00632608
-0.00685608
-0.00715635
-0.00658127
-0.00801271
-0.00588405
-0.00884829
-0.00483824
-0.00955582
-0.00349323
-0.0100781
-0.00189194
-0.0102938
-2.69574e-05
-0.00994018
0.00184273
-0.00991277
0.0034508
-0.0102675
0.00480112
-0.0100481
0.00584894
-0.00952322
0.00654457
-0.00881087
0.00681647
-0.00797315
0.00654364
-0.00712077
0.00554862
-0.00629285
0.0034893
-0.00555591
-0.00532017
0.00121615
0.000350241
0.00141725
0.00138623
0.000772351
0.00133312
0.00104787
0.000676842
0.00104787
0.00071556
0.000408636
0.000764058
0.000397822
0.000206882
0.000472516
0.000181131
1.6125e-05
0.000402989
0.000155039
-0.000201726
0.000466917
0.00019084
-0.000337263
0.00046936
0.000115958
-0.000268851
0.000400035
3.3345e-06
-0.000221628
0.000251697
-0.000114034
-0.000206506
0.000240019
-0.000196142
-0.000251486
0.000365181
-0.000128627
-0.000374351
0.000437358
-3.67089e-05
-0.00032208
0.000453711
-0.000173111
-4.37786e-05
0.000345335
-0.000438303
0.000119815
0.000332132
-0.000570159
0.000224122
0.000603311
-0.000767582
0.000482666
0.000713398
-0.000816693
0.00110973
0.000644324
0.00107573
0.000524547
0.00215485
-0.00302971
0.00510847
0.00389374
-0.00208538
0.00523567
0.00474836
-0.00103242
0.00474836
0.0044889
9.48034e-05
0.00383579
0.0033538
0.00101373
0.00278147
0.0020247
0.00118265
0.00194993
0.00112682
0.000537139
0.00133506
0.0006164
-0.000104057
0.000728104
0.000281791
-0.00027223
0.00020278
3.60704e-06
-0.000247836
-0.00020241
-0.00023637
-0.000258375
-0.000206968
-0.000497561
-0.000310345
0.000173904
-0.000966385
-0.000177643
0.000686511
-0.00185927
0.000411498
0.00130324
-0.00316563
0.00110214
0.0019083
-0.00433647
0.00100008
0.00269784
-0.00469999
0.000101239
0.00374479
-0.00396861
-0.000983011
0.0047343
-0.00220954
-0.00176231
0.00535008
-0.00249521
0.00534591
0.00175777
-0.00549992
0.00287536
0.0031563
-0.00432334
0.00382133
0.00398416
-0.00268812
0.00398416
0.0040768
-0.00068799
0.00353997
0.00357581
0.000965974
0.00289124
0.00281212
0.00151927
0.00234343
0.00192716
0.00109225
0.00185742
0.00109857
0.000474207
0.0012361
0.000477539
8.78134e-05
0.000412572
-4.32033e-05
-5.7462e-06
-0.000355682
-0.000524866
-5.63961e-05
-0.000264366
-0.0010972
2.41924e-05
0.000501792
-0.00192794
0.000420268
0.00127948
-0.00287753
0.00103677
0.00191299
-0.00365658
0.00143693
0.00242762
-0.00412851
0.000896095
0.00298076
-0.0040235
-0.000718079
0.00362868
-0.00323689
-0.00259268
0.00409915
-0.00180679
-0.00406423
0.00404966
-0.00513027
0.00323032
0.00154729
-0.00688553
0.000403739
0.00248481
-0.00543449
0.00209339
0.00293462
-0.00358775
0.00293462
0.00304331
-0.00131607
0.00308679
0.00284063
0.000741796
0.00285453
0.00234884
0.00166553
0.00249559
0.00168412
0.00149822
0.00207287
0.000991409
0.000998647
0.001502
0.000413369
0.000609088
0.000611369
1.44239e-05
0.000421996
-0.000390743
-0.000394617
0.000382161
-0.000228656
-0.000981245
0.000542186
0.000759784
-0.00167295
0.000934139
0.00154419
-0.00234747
0.00144393
0.00210277
-0.00285692
0.00159094
0.00254854
-0.00306857
0.000661935
0.00292235
-0.00297741
-0.00134603
0.00316681
-0.00253103
-0.00352142
0.00304348
-0.00157135
-0.00526078
0.00225972
-0.00663529
0.00064484
0.00145703
-0.00776398
-0.00108683
0.00209809
-0.00576511
0.000950189
0.00218754
-0.00376666
0.00218754
0.00199939
-0.00141349
0.00269017
0.00178362
0.000670304
0.00278697
0.00146209
0.00172766
0.00257158
0.00100737
0.00174907
0.00220199
0.00050489
0.00142818
0.0016805
0.000154402
0.00115683
0.000897052
0.000133374
0.000986645
-4.04539e-05
1.60289e-05
0.000989058
0.000134658
-0.000418274
0.00111537
0.00104822
-0.000955363
0.00137199
0.00172107
-0.00142569
0.00169774
0.00222259
-0.0017684
0.00166324
0.00260204
-0.00200993
0.000596694
0.00281983
-0.00221264
-0.00144564
0.00272447
-0.00212407
-0.00372125
0.00223001
-0.00147379
-0.00563737
0.0010136
-0.00756729
-0.000988575
0.00129036
-0.00829447
-0.00195074
0.001753
-0.00563856
0.000198056
0.00161868
-0.00349803
0.00161868
0.00124125
-0.00117667
0.00226704
0.000958704
0.000678141
0.00251877
0.000718393
0.0017028
0.00243295
0.000420608
0.00182111
0.00214155
0.000119074
0.00163528
0.00172846
-2.23882e-05
0.00147543
0.00115099
0.00011633
0.00138117
0.00045709
0.000196478
0.00138913
0.000595415
-2.02878e-05
0.00145571
0.00126175
-0.000360519
0.0015962
0.00177403
-0.000676863
0.00177544
0.00216796
-0.000939581
0.00164702
0.00246067
-0.00125134
0.000619603
0.00254375
-0.00164824
-0.00120069
0.00228294
-0.00177995
-0.00346961
0.00162839
-0.00130883
-0.00554483
0.000215419
-0.00813936
-0.00190943
0.000947152
-0.00833375
-0.00265385
0.00125594
-0.00521673
-0.000460786
0.00102973
-0.00304561
0.00102973
0.000605757
-0.000819511
0.00172271
0.000293204
0.000745064
0.00196974
0.000150962
0.00153358
0.00195356
3.90701e-05
0.00167503
0.00178448
-6.35051e-05
0.00159834
0.00155595
-7.14575e-05
0.00152509
0.0012517
8.39669e-05
0.00149047
0.000844216
0.000202082
0.00149768
0.000927586
0.000142067
0.00151559
0.00133198
8.50444e-06
0.0015709
0.00160668
-0.000124461
0.00163551
0.00182559
-0.000288496
0.00148463
0.00199272
-0.000626908
0.000699622
0.00200209
-0.00106584
-0.00084298
0.00174071
-0.00128391
-0.00303932
0.00103326
-0.000965884
-0.00515558
-0.000448768
-0.00821723
-0.00262681
0.000162485
-0.00746122
-0.0034594
0.000311285
-0.0045877
-0.00138156
-3.6688e-05
-0.00234966
-3.6688e-05
-0.000223688
-0.00071004
0.000680795
-0.000276167
0.000386954
0.000982765
-0.000257678
0.000987157
0.000971355
-0.000200394
0.00107962
0.000853387
-0.000129674
0.00104739
0.000744491
-2.35474e-05
0.00106216
0.000667498
5.08325e-05
0.00127121
0.000576111
0.000110768
0.00128223
0.000635556
0.000200756
0.00106441
0.000737561
0.000251413
0.00103593
0.000802486
0.000290303
0.00105216
0.000904566
0.000288143
0.000946761
0.00101949
0.000219377
0.000340562
0.00102676
1.69652e-05
-0.000731662
0.00070579
-0.000334885
-0.00234778
-2.91253e-05
-0.000188769
-0.00454724
-0.00136116
-0.00738687
-0.00343343
-0.00117882
-0.0052049
-0.00456567
-0.00180037
-0.00316731
-0.0031089
-0.00205875
-0.00183291
-0.00205875
-0.0019574
-0.00101838
-0.00152086
-0.00149235
-0.000439096
-0.00145148
-0.000962155
-7.92351e-05
-0.00134133
-0.000540332
3.28297e-05
-0.00140675
-0.000255561
0.000136785
-0.00147143
-6.99176e-05
0.000289422
-0.00141948
3.85716e-05
0.000662744
-0.00122389
0.000144443
0.000674538
-0.00117994
0.000325534
0.000300245
-0.00136947
0.000600768
0.000144108
-0.00142946
0.00101198
3.10956e-05
-0.00137497
0.00152512
-9.02302e-05
-0.00132149
0.00196104
-0.000456225
-0.00143002
0.00203472
-0.00102664
-0.00148076
0.00176706
-0.00182923
-0.00203073
0.00115658
-0.00314758
-0.0030863
-0.00516584
-0.00453491
-0.00415735
-0.00639685
-0.00632608
-0.0065843
-0.00724254
-0.00724254
-0.00739444
-0.00802282
-0.00702922
-0.00881703
-0.00626693
-0.00968982
-0.00522483
-0.0105651
-0.00387081
-0.0112953
-0.00217623
-0.0116989
-2.57113e-05
-0.011428
0.00213626
-0.0114002
0.00384076
-0.0116717
0.00520277
-0.011266
0.00624617
-0.0105355
0.00700397
-0.0096589
0.00735981
-0.00878522
0.0072026
-0.0079902
0.0062855
-0.00720498
0.0041285
-0.0065465
-0.00635751
0.000685389
0.000688919
4.30613e-05
0.000840365
0.000577105
0.000601109
0.000764058
0.000408636
0.00071556
0.000642964
0.00024217
0.000642964
0.000506433
6.88444e-05
0.000540173
0.00042789
-0.000106956
0.000588457
0.000482636
-0.000329638
0.0007418
0.000473021
-0.000366172
0.000845157
0.000297495
-0.000292059
0.000867632
1.84523e-05
-0.000256378
0.000787128
-0.000281646
-0.000232592
0.000772716
-0.000488417
-0.000264325
0.000836286
-0.000483042
-0.00038826
0.000820256
-0.000329425
-0.000439584
0.000739683
-0.000334188
-0.000203154
0.000553236
-0.000465254
1.94557e-05
0.000443713
-0.000533972
0.00013394
0.000538069
-0.000606639
0.000230979
0.000555087
-0.000496537
0.000350577
0.000183676
0.000527321
-0.00049927
0.0019568
-0.00095863
0.0047992
0.00326252
-0.000476237
0.00498327
0.00383579
9.48034e-05
0.0044889
0.00353775
0.00083823
0.00353775
0.00263206
0.00123499
0.00252102
0.00167246
0.00101586
0.00178671
0.00107404
0.00027907
0.00132479
0.000760735
-0.000253033
0.000928272
0.000439059
-0.000347449
0.000579847
-1.09839e-05
-0.000273021
0.000264278
-0.000421654
-0.000277805
0.000248916
-0.000676148
-0.000367304
0.000531377
-0.000948134
-0.000299101
0.000869339
-0.0015356
0.000170529
0.0012806
-0.00246715
0.000888651
0.00174807
-0.00336749
0.00118251
0.00243513
-0.00370161
0.00080263
0.00341022
-0.00319943
9.09097e-05
0.00437219
-0.00196344
-0.000437759
0.00490242
-0.00084366
0.00475345
0.00170115
-0.002823
0.00303858
0.00284983
-0.00173225
0.00392866
0.00353997
-0.00068799
0.0040768
0.00367016
0.000577858
0.00367016
0.00328215
0.00147501
0.00303924
0.00262967
0.00153328
0.0024785
0.00184198
0.00096508
0.0019591
0.00114238
0.000312811
0.00136985
0.000552963
-2.64234e-05
0.000680966
-8.93556e-05
-3.60812e-05
4.96952e-05
-0.000655535
-9.50276e-05
0.000119035
-0.00116216
-8.99192e-05
0.00073103
-0.00184827
0.000286135
0.00138035
-0.00267556
0.000929793
0.00198102
-0.00334952
0.00144467
0.00254556
-0.0037095
0.0013877
0.00313556
-0.00355708
0.000510875
0.00376801
-0.00285972
-0.000705455
0.00419817
-0.00170025
-0.00166136
0.00411379
-0.00262243
0.00330885
0.00172577
-0.00436765
0.000222625
0.00256739
-0.00251378
0.0020333
0.00308679
-0.00131607
0.00304331
0.00329717
0.000157097
0.00329717
0.0031183
0.00143334
0.00307507
0.00260541
0.00185748
0.00268428
0.00192449
0.0014898
0.00222907
0.00121884
0.000867454
0.001653
0.000573142
0.00042235
0.000808293
-6.2368e-05
0.000290067
-8.13855e-05
-0.000663749
0.000212175
6.55195e-05
-0.00126709
0.000344696
0.00092851
-0.00194557
0.000820049
0.00168875
-0.00261125
0.00144713
0.00225111
-0.00312572
0.00178289
0.00272479
-0.0032934
0.00134039
0.00313735
-0.00308486
9.91233e-05
0.00337002
-0.00257485
-0.00132078
0.00314879
-0.00173409
-0.00245436
0.00221197
-0.00418128
0.000469602
0.001691
-0.00569593
-0.00144955
0.00240461
-0.00278269
0.000505489
0.00269017
-0.00141349
0.00199939
0.00273016
7.71295e-05
0.00273016
0.00257272
0.00147735
0.0029004
0.00218226
0.00210372
0.0027158
0.00162551
0.00189827
0.00235027
0.00100689
0.00135985
0.00180672
0.000451076
0.000901738
0.000973477
3.31492e-05
0.000654739
1.27957e-05
-0.000409455
0.000611727
0.000177707
-0.000994807
0.000843837
0.00113443
-0.00161484
0.00129782
0.00186334
-0.00216211
0.00183868
0.00237831
-0.00255078
0.00202529
0.00274831
-0.00271318
0.00138263
0.00293999
-0.00267885
1.38508e-05
0.00277541
-0.00240636
-0.00141834
0.0020551
-0.0017011
-0.00272869
0.000582664
-0.00551867
-0.00135229
0.00145341
-0.00675177
-0.00234831
0.00212643
-0.00295818
-0.000299468
0.00226704
-0.00117667
0.00124125
0.00215227
0.000306679
0.00215227
0.00196355
0.00162812
0.00255672
0.00167492
0.00226762
0.00255767
0.00126371
0.00214498
0.00230605
0.000779463
0.00170765
0.00186491
0.000340733
0.00131156
0.0011799
6.73761e-05
0.00105215
0.000333034
-0.000235876
0.00103645
0.000473941
-0.000717658
0.00127113
0.00131624
-0.00122354
0.00164911
0.00192862
-0.00164133
0.00207937
0.00234507
-0.00193842
0.00218856
0.00259448
-0.00214436
0.00154127
0.00259105
-0.00227511
0.000248043
0.00217949
-0.00214667
-0.00118058
0.00126219
-0.00147914
-0.00290772
-0.000273082
-0.00660298
-0.00230426
0.000991834
-0.00730982
-0.00308763
0.00165589
-0.00314244
-0.000940583
0.00172271
-0.000819511
0.000605757
0.00150693
0.000738235
0.00150693
0.00135423
0.00173882
0.00201173
0.00121525
0.002211
0.00214916
0.00100437
0.00209048
0.00204986
0.000696228
0.00176609
0.00180564
0.000356305
0.00150008
0.0014031
7.244e-05
0.00133736
0.000842869
-0.000231757
0.00133234
0.000935886
-0.000613369
0.00147633
0.00150839
-0.000953167
0.00172243
0.00187315
-0.00118218
0.00203168
0.00210229
-0.00133974
0.00214114
0.00219771
-0.00151632
0.00166626
0.00205368
-0.00175297
0.000690268
0.00153513
-0.00168669
-0.000840058
0.000626458
-0.00102653
-0.00310547
-0.000911178
-0.00720039
-0.00305592
3.71706e-05
-0.00689852
-0.00390787
0.000603266
-0.00324715
-0.00184294
0.000680795
-0.00071004
-0.000223688
0.000653403
0.000793018
0.000653403
0.000676582
0.00156709
0.00113131
0.000754622
0.00180379
0.00130052
0.00076875
0.0016531
0.00127663
0.00067226
0.00143723
0.00116984
0.000477752
0.00133326
0.00102881
6.62443e-05
0.00149296
0.00083201
-0.000354088
0.00149938
0.000888853
-0.000574155
0.0013328
0.00110115
-0.000700722
0.00142252
0.00122895
-0.000713098
0.00161948
0.00132915
-0.000661772
0.00175717
0.00135212
-0.000666365
0.0015175
0.00118012
-0.000706721
0.000745156
0.000691258
-0.000634667
-0.00073483
-0.000206408
-7.18118e-05
-0.00322722
-0.00180227
-0.00682837
-0.00387727
-0.00138579
-0.00510116
-0.00497724
-0.00172785
-0.00263376
-0.00338023
-0.00152086
-0.00101838
-0.0019574
-0.00115951
7.03294e-05
-0.00115951
-0.000705501
0.000485781
-0.000824184
-0.000195721
0.000638119
-0.000685434
0.000145713
0.000664558
-0.000759651
0.000291816
0.00072654
-0.000906837
0.000262539
0.000909529
-0.000966468
5.55842e-05
0.00138579
-0.000909763
-0.000157874
0.00139712
-0.000864228
-0.000198038
0.000918052
-0.000914557
-6.25048e-05
0.000729939
-0.000872409
0.000253588
0.000661547
-0.000733131
0.00073085
0.000625631
-0.000667212
0.001148
0.000469351
-0.000799032
0.00148414
5.06034e-05
-0.00112234
0.00168536
-0.00102667
-0.00194011
0.00135611
-0.00262091
-0.00336336
-0.00506525
-0.00494191
-0.00479436
-0.00670365
-0.00715635
-0.00685608
-0.00802282
-0.00739444
-0.00798766
-0.00798766
-0.00752893
-0.00878999
-0.00679515
-0.00978548
-0.00580916
-0.0108865
-0.00445682
-0.0119211
-0.00260639
-0.0126399
-2.6256e-05
-0.0126223
0.00256953
-0.0125989
0.00443224
-0.0126164
0.00579302
-0.0118968
0.00678158
-0.0108625
0.00751106
-0.00976275
0.00796151
-0.00876632
0.00798427
-0.00796236
0.0071104
-0.00735778
0.0047603
-0.00681731
-0.00666246
0.000162039
0.000558127
-0.000677118
0.000361683
0.000335358
6.60926e-05
0.000472516
0.000206882
0.000397822
0.000540173
6.88444e-05
0.000506433
0.000576041
-7.1771e-05
0.000576041
0.000670402
-0.00028093
0.000775006
0.000783907
-0.000420617
0.00104891
0.000723395
-0.000358331
0.00126401
0.000460092
-0.000293385
0.00142433
3.24425e-05
-0.000272955
0.00148774
-0.000428535
-0.000243015
0.00147672
-0.000739351
-0.000255257
0.00140237
-0.000806529
-0.000366841
0.00125429
-0.000641626
-0.00049448
0.00106927
-0.000476215
-0.000401824
0.000789645
-0.000411696
-0.000159007
0.000538179
-0.000313699
8.61833e-06
0.000431424
-0.000146562
8.85055e-05
0.000299425
-4.63113e-06
0.00018034
-0.000138609
0.000430941
-0.000934849
0.00156091
0.000496995
0.00329941
0.00245322
0.000757192
0.00366911
0.00278147
0.00101373
0.0033538
0.00252102
0.00123499
0.00263205
0.00191415
0.00114199
0.00191415
0.00135596
0.00059053
0.00147345
0.00104111
-4.69486e-05
0.00126597
0.00087181
-0.00039382
0.00113306
0.000533821
-0.000368517
0.00099297
-2.54225e-05
-0.000265794
0.000816361
-0.000542734
-0.000267737
0.000790951
-0.000816167
-0.00037999
0.000929542
-0.000954771
-0.000420835
0.00106194
-0.00125385
-0.000130124
0.00121532
-0.00179769
0.000455967
0.00143414
-0.00238562
0.00101507
0.00184902
-0.00264802
0.00116333
0.00251793
-0.00234897
0.000952996
0.00320866
-0.00150978
0.00069727
0.0035463
0.000456027
0.00321859
0.00146443
-0.000571484
0.00264263
0.00234249
0.000397104
0.00341069
0.00289124
0.000965974
0.00357581
0.00303924
0.00147501
0.00328215
0.00279227
0.00163594
0.00279227
0.00226981
0.00128567
0.00230582
0.00165029
0.000669423
0.00186225
0.00109903
9.8155e-05
0.00142914
0.000566605
-0.000120983
0.000965857
-0.000117859
-5.68114e-05
0.000525175
-0.000706158
-0.000119251
0.000558846
-0.00113463
-0.000187888
0.000967399
-0.00165171
7.98241e-05
0.00139678
-0.00229063
0.000652559
0.00183726
-0.00283761
0.00122475
0.00232375
-0.00308166
0.00153708
0.00285759
-0.00290975
0.00138469
0.00337475
-0.00234049
0.000892606
0.00368931
-0.00144028
0.00034534
0.00356551
-0.000516421
0.00284103
0.00179095
-0.00242052
0.000280718
0.00242767
-0.000104661
0.00189834
0.00285453
0.000741796
0.00284063
0.00307507
0.00143334
0.0031183
0.00295052
0.00188505
0.00295052
0.00251336
0.00180584
0.00260126
0.00191489
0.00129144
0.00220553
0.00126477
0.000682498
0.00171878
0.000608244
0.000300027
0.0010438
-0.000116179
0.000233493
0.000352729
-0.000768234
0.000142866
0.000455455
-0.00135445
0.000211267
0.00111557
-0.00195965
0.000647483
0.0017263
-0.00252923
0.00126912
0.00220412
-0.00295215
0.00175458