/*--------------------------------*- C++ -*----------------------------------*\
  =========                 |
  \\      /  F ield         | OpenFOAM: The Open Source CFD Toolbox
   \\    /   O peration     | Website:  https://openfoam.org
    \\  /    A nd           | Version:  9
     \\/     M anipulation  |
\*---------------------------------------------------------------------------*/
FoamFile
{
    format      ascii;
    class       volScalarField;
    location    "0.04";
    object      k;
}
// * * * * * * * * * * * * * * * * * * * * * * * * * * * * * * * * * * * * * //

dimensions      [0 2 -2 0 0 0 0];

internalField   nonuniform List<scalar> 
12225
(
0.353958
0.335142
0.317111
0.301139
0.288335
0.279156
0.273607
0.271401
0.272093
0.27517
0.280125
0.286493
0.293872
0.30193
0.310413
0.319125
0.328066
0.341711
0.437098
0.449457
0.438625
0.433636
0.439449
0.454426
0.475926
0.50151
0.529193
0.557492
0.585376
0.612184
0.637541
0.661283
0.683503
0.704269
0.724805
0.744545
0.395198
0.410945
0.410771
0.405932
0.402236
0.401204
0.402976
0.407289
0.41373
0.421848
0.431217
0.441465
0.452288
0.463453
0.474821
0.486317
0.498169
0.510254
0.379647
0.384862
0.386591
0.385799
0.383994
0.382137
0.380703
0.379911
0.379828
0.380439
0.381685
0.383491
0.38578
0.388485
0.39156
0.394988
0.398801
0.402964
0.374979
0.375908
0.376254
0.375743
0.374598
0.373118
0.371538
0.37002
0.368661
0.367515
0.366603
0.365928
0.365482
0.365255
0.36524
0.365433
0.365841
0.366445
0.37349
0.372557
0.371761
0.370809
0.369634
0.368278
0.366811
0.365302
0.363807
0.362365
0.361003
0.359737
0.358576
0.357525
0.356586
0.355762
0.355054
0.35446
0.373013
0.371296
0.369811
0.368412
0.367018
0.365599
0.364152
0.36269
0.361231
0.359793
0.35839
0.357035
0.355735
0.354498
0.353326
0.352224
0.351194
0.350242
0.372866
0.370838
0.369002
0.367304
0.3657
0.364157
0.362655
0.361184
0.359743
0.358333
0.356958
0.355621
0.354328
0.35308
0.351881
0.350732
0.349636
0.348602
0.372821
0.370681
0.368689
0.36683
0.365083
0.36343
0.361854
0.360341
0.358883
0.357476
0.356116
0.354802
0.353533
0.352309
0.351129
0.349996
0.348908
0.347878
0.372807
0.370628
0.368576
0.366642
0.364818
0.363093
0.361457
0.3599
0.358413
0.35699
0.355626
0.354317
0.353061
0.351853
0.350694
0.349581
0.348514
0.347504
0.372802
0.37061
0.368536
0.366572
0.364711
0.362949
0.361276
0.359687
0.358175
0.356733
0.355357
0.354043
0.352786
0.351584
0.350433
0.349333
0.34828
0.347286
0.3728
0.370604
0.368521
0.366547
0.364673
0.362894
0.361205
0.3596
0.358072
0.356618
0.355232
0.35391
0.352649
0.351446
0.350296
0.349199
0.348152
0.347165
0.372798
0.3706
0.368514
0.366535
0.364655
0.36287
0.361172
0.359558
0.358022
0.35656
0.355167
0.35384
0.352575
0.351368
0.350218
0.349121
0.348075
0.347091
0.372797
0.370597
0.36851
0.366528
0.364646
0.362857
0.361156
0.359538
0.357997
0.356531
0.355134
0.353804
0.352536
0.351327
0.350176
0.349078
0.348033
0.34705
0.372796
0.370595
0.368506
0.366523
0.364639
0.362849
0.361147
0.359527
0.357986
0.356518
0.35512
0.353789
0.35252
0.351312
0.35016
0.349062
0.348017
0.347035
0.372795
0.370593
0.368503
0.366519
0.364635
0.362844
0.361141
0.359521
0.35798
0.356513
0.355116
0.353785
0.352518
0.35131
0.350159
0.349063
0.34802
0.34704
0.372795
0.370591
0.368501
0.366516
0.364631
0.36284
0.361138
0.359518
0.357978
0.356512
0.355116
0.353787
0.352522
0.351316
0.350168
0.349074
0.348034
0.347056
0.372794
0.37059
0.368499
0.366514
0.364629
0.362838
0.361136
0.359518
0.357979
0.356514
0.355121
0.353794
0.352531
0.351329
0.350183
0.349093
0.348056
0.347081
0.372794
0.37059
0.368498
0.366513
0.364629
0.362839
0.361138
0.359521
0.357984
0.356522
0.355131
0.353807
0.352547
0.351348
0.350206
0.349119
0.348086
0.347115
0.372794
0.37059
0.368499
0.366515
0.364631
0.362843
0.361144
0.359529
0.357994
0.356535
0.355146
0.353826
0.352569
0.351373
0.350235
0.349151
0.348121
0.347153
0.372794
0.37059
0.3685
0.366518
0.364636
0.36285
0.361153
0.359541
0.358009
0.356553
0.355168
0.353851
0.352598
0.351405
0.35027
0.34919
0.348163
0.347199
0.372794
0.370592
0.368504
0.366525
0.364647
0.362866
0.361175
0.359569
0.358044
0.356594
0.355216
0.353906
0.352659
0.351473
0.350344
0.349269
0.348246
0.347285
0.372796
0.370598
0.368518
0.366551
0.364688
0.362925
0.361254
0.359668
0.358163
0.356732
0.35537
0.354074
0.352839
0.351661
0.350538
0.349467
0.348446
0.347484
0.372804
0.37063
0.368593
0.366681
0.36488
0.36318
0.361569
0.360035
0.358571
0.357171
0.355829
0.354543
0.35331
0.352128
0.350993
0.349906
0.348866
0.347883
0.372855
0.370818
0.368974
0.36727
0.365656
0.364102
0.362591
0.361116
0.359674
0.358266
0.356897
0.35557
0.354286
0.353049
0.351861
0.350721
0.349632
0.348605
0.373166
0.37177
0.370582
0.36938
0.368066
0.366631
0.365106
0.363535
0.361955
0.360399
0.358888
0.357439
0.356062
0.354762
0.353542
0.352403
0.351343
0.35037
0.3748
0.375837
0.37619
0.375425
0.373867
0.371917
0.369837
0.367784
0.365854
0.364098
0.362542
0.361193
0.36005
0.359101
0.358332
0.35773
0.357275
0.356955
0.382739
0.391727
0.392483
0.388937
0.384516
0.380518
0.377332
0.375038
0.373605
0.37295
0.372977
0.373586
0.374681
0.376175
0.377989
0.380053
0.382307
0.384684
0.407617
0.414761
0.405686
0.39621
0.390686
0.389297
0.391293
0.395839
0.402197
0.409773
0.418116
0.426889
0.43584
0.444782
0.453584
0.462156
0.470456
0.478405
0.360572
0.347597
0.335009
0.323011
0.312065
0.30245
0.294272
0.287523
0.282124
0.277952
0.274869
0.272736
0.271417
0.270786
0.27073
0.271148
0.271954
0.273066
0.196038
0.249376
0.295167
0.325997
0.345961
0.358178
0.364579
0.366414
0.364554
0.359619
0.352034
0.342051
0.329869
0.316602
0.303396
0.289686
0.275177
0.259845
0.244093
0.229153
0.217793
0.214843
0.22594
0.253659
0.294341
0.339806
0.382139
0.415353
0.438517
0.455938
0.486285
0.532477
0.589049
0.651884
0.717568
0.783609
0.848303
0.910532
0.969586
1.02504
1.07665
1.12433
1.16807
1.20796
1.24411
1.2767
1.30593
1.33201
1.35516
1.37559
1.39351
1.40911
1.42257
1.43405
1.44372
1.4517
1.45813
1.46312
1.46678
1.46921
1.47052
1.47079
1.47011
1.46856
1.46623
1.4632
1.45954
1.45534
1.45068
1.44562
1.44025
1.43464
1.42885
1.42298
1.41708
1.41123
1.40549
1.39995
1.39467
1.38974
1.38522
1.38122
1.37782
1.37513
1.37299
1.37121
1.3698
1.36874
1.36801
1.36761
1.36747
1.36758
1.36786
1.36825
1.36868
1.36906
1.36926
1.36917
1.36862
1.36744
1.3654
1.36225
1.3577
1.35141
1.343
1.33203
1.31804
1.30054
1.27905
1.25311
1.22234
1.18651
1.14554
1.09964
1.04933
0.995703
0.941071
0.89051
0.853542
0.823422
0.793909
0.764889
0.736705
0.709686
0.684076
0.660029
0.637619
0.616862
0.597722
0.580133
0.564008
0.549243
0.535733
0.523367
0.512038
0.501641
0.492078
0.483255
0.475086
0.467491
0.460396
0.453731
0.447434
0.44144
0.435668
0.430082
0.424603
0.419196
0.413845
0.40855
0.403315
0.398148
0.393052
0.388031
0.383088
0.378223
0.373435
0.368723
0.364087
0.359525
0.355035
0.350617
0.346268
0.341986
0.33777
0.333615
0.329518
0.325471
0.321466
0.31749
0.313524
0.309544
0.305515
0.301384
0.297079
0.292483
0.28744
0.281604
0.274813
0.264998
0.368062
0.471638
0.536127
0.576682
0.600735
0.612889
0.615928
0.611845
0.602279
0.588604
0.571932
0.553086
0.532562
0.510249
0.486379
0.462034
0.438704
0.418678
0.405765
0.406618
0.431965
0.494101
0.598278
0.735914
0.88721
1.03172
1.16078
1.25732
1.32828
1.38283
1.42746
1.46714
1.50596
1.54694
1.59197
1.64204
1.69747
1.75792
1.82255
1.89014
1.95927
2.02848
2.0964
2.16187
2.22395
2.28197
2.3355
2.38433
2.42839
2.46774
2.50252
2.53291
2.55914
2.58141
2.59996
2.61499
2.62672
2.63533
2.641
2.64391
2.64421
2.64205
2.63758
2.63094
2.62227
2.61171
2.59938
2.58543
2.56999
2.5532
2.53522
2.51618
2.49624
2.47555
2.45429
2.43261
2.41069
2.38872
2.36687
2.34534
2.32433
2.30404
2.28469
2.26649
2.25001
2.23503
2.22155
2.20969
2.19956
2.19125
2.18485
2.18042
2.178
2.17762
2.17926
2.1829
2.18846
2.19582
2.20483
2.21525
2.22678
2.23902
2.25145
2.26343
2.27417
2.28272
2.28796
2.28862
2.28332
2.2706
2.24907
2.21749
2.17495
2.121
2.05579
1.98015
1.89555
1.80368
1.71413
1.62644
1.53947
1.45435
1.37222
1.29392
1.22
1.15079
1.08637
1.02669
0.971575
0.920799
0.874083
0.831133
0.791652
0.755352
0.72196
0.69122
0.662896
0.636772
0.612654
0.590363
0.569739
0.550639
0.532935
0.516505
0.501217
0.48691
0.473626
0.461393
0.450119
0.439713
0.43008
0.421129
0.412774
0.404938
0.397548
0.390542
0.383865
0.377467
0.371307
0.365348
0.359561
0.353918
0.348399
0.342986
0.337665
0.332426
0.327261
0.322168
0.317147
0.312205
0.307353
0.302614
0.298022
0.293631
0.289526
0.285856
0.282835
0.281072
0.280765
0.287825
0.445074
0.549704
0.616001
0.66074
0.689832
0.706816
0.713839
0.712629
0.704846
0.692119
0.676012
0.657958
0.639203
0.62093
0.603187
0.587084
0.574966
0.571495
0.584912
0.627558
0.713311
0.849774
1.02871
1.22961
1.42034
1.56538
1.66678
1.73037
1.76785
1.7921
1.81433
1.84301
1.88344
1.93805
2.00707
2.08921
2.18219
2.28322
2.38926
2.49737
2.6049
2.70966
2.80994
2.90456
2.99279
3.07423
3.1488
3.21659
3.27781
3.33277
3.38178
3.42517
3.46328
3.4964
3.52483
3.54881
3.56858
3.58437
3.59637
3.60476
3.6097
3.61136
3.60988
3.60539
3.59804
3.58793
3.57522
3.56001
3.54244
3.52263
3.50073
3.47686
3.45118
3.42384
3.39501
3.36485
3.33356
3.30133
3.26836
3.23487
3.20108
3.16722
3.13349
3.10013
3.06735
3.0356
3.00471
2.97483
2.94617
2.91895
2.89337
2.86965
2.84797
2.82851
2.81144
2.79687
2.7849
2.77559
2.7689
2.76477
2.763
2.76331
2.76526
2.76822
2.7714
2.77373
2.77394
2.77049
2.76163
2.74548
2.7201
2.6837
2.63483
2.57253
2.49657
2.40748
2.30655
2.19676
2.08866
1.9804
1.87277
1.7674
1.66573
1.56885
1.47746
1.39194
1.3124
1.23875
1.17078
1.10818
1.05059
0.997634
0.948938
0.904137
0.862885
0.824864
0.78978
0.757366
0.727379
0.699603
0.673839
0.649912
0.627661
0.606943
0.587602
0.569467
0.552372
0.536238
0.521093
0.506869
0.493501
0.480919
0.469056
0.457844
0.447215
0.437104
0.42745
0.418194
0.409283
0.400667
0.392299
0.384137
0.376145
0.368287
0.360534
0.35286
0.345242
0.337659
0.330097
0.322544
0.314991
0.307438
0.29989
0.292362
0.284887
0.277532
0.270395
0.263793
0.25792
0.254981
0.496334
0.596841
0.671807
0.726281
0.763162
0.785399
0.795461
0.795611
0.788058
0.77501
0.75868
0.741279
0.725027
0.712154
0.703224
0.700367
0.70746
0.731474
0.783222
0.875354
1.01755
1.20974
1.41672
1.60838
1.76221
1.86686
1.92756
1.95805
1.97516
1.994
2.0253
2.0749
2.1445
2.23293
2.33733
2.45412
2.57956
2.71011
2.84261
2.97438
3.10323
3.2275
3.34598
3.45785
3.56266
3.66017
3.75038
3.83339
3.90941
3.97869
4.04152
4.09817
4.14895
4.19412
4.23396
4.2687
4.29858
4.3238
4.34457
4.36107
4.37347
4.38192
4.38658
4.38759
4.38507
4.37916
4.36998
4.35765
4.34229
4.32402
4.30295
4.2792
4.2529
4.22418
4.19316
4.15997
4.12477
4.08769
4.04889
4.00851
3.96671
3.92366
3.87953
3.8345
3.78876
3.74287
3.69673
3.65047
3.60433
3.55855
3.51343
3.46924
3.42628
3.38483
3.3452
3.30766
3.27247
3.23988
3.21006
3.18316
3.15921
3.13813
3.11972
3.10357
3.08905
3.07526
3.061
3.04476
3.02474
2.99888
2.96499
2.92096
2.86491
2.7955
2.71209
2.6148
2.50459
2.38874
2.27217
2.1546
2.03774
1.9235
1.81344
1.70872
1.61008
1.51787
1.4322
1.35295
1.27983
1.21252
1.15059
1.09363
1.04124
0.992996
0.94854
0.907523
0.869627
0.834568
0.802085
0.771945
0.74394
0.717881
0.693597
0.670935
0.649747
0.629889
0.611219
0.59359
0.576937
0.561214
0.546348
0.532269
0.518911
0.506209
0.494099
0.482521
0.471413
0.460717
0.45038
0.440349
0.430575
0.421012
0.411618
0.402356
0.39319
0.38409
0.375028
0.36598
0.356926
0.34785
0.338741
0.32959
0.320396
0.311168
0.301922
0.292702
0.283569
0.274696
0.266186
0.258847
0.542293
0.648953
0.738609
0.80417
0.848233
0.874517
0.886359
0.886757
0.878565
0.864639
0.847943
0.831654
0.819361
0.812762
0.814515
0.828214
0.859327
0.916264
1.0099
1.1419
1.30869
1.49472
1.67401
1.82427
1.93321
2.00086
2.03827
2.06186
2.08769
2.12752
2.18754
2.26919
2.37074
2.48885
2.61966
2.75942
2.90477
3.05279
3.20102
3.34744
3.49044
3.62874
3.76139
3.88773
4.00729
4.11984
4.22523
4.32349
4.41469
4.49897
4.57651
4.64752
4.71221
4.77081
4.82354
4.87062
4.91226
4.94865
4.98
5.00648
5.02826
5.04551
5.05838
5.067
5.07152
5.07206
5.06874
5.06167
5.05096
5.03672
5.01904
4.99802
4.97375
4.94632
4.91583
4.88235
4.84598
4.8068
4.76492
4.72041
4.67338
4.62394
4.57223
4.51839
4.46258
4.4051
4.34608
4.28564
4.22397
4.16132
4.09797
4.0342
3.97035
3.90676
3.84378
3.7818
3.7212
3.66236
3.60566
3.55145
3.5
3.45152
3.40611
3.36366
3.32389
3.28619
3.24967
3.21307
3.17475
3.13272
3.08479
3.02867
2.96226
2.88393
2.79276
2.68849
2.57392
2.4567
2.33692
2.21621
2.09666
1.98021
1.86841
1.76234
1.66268
1.56973
1.48351
1.40384
1.3304
1.2628
1.20062
1.14339
1.09071
1.04214
0.997329
0.955911
0.917577
0.88204
0.849046
0.818365
0.789791
0.76314
0.738244
0.714953
0.693127
0.672636
0.653354
0.635159
0.617927
0.601608
0.586128
0.571415
0.557404
0.544031
0.531234
0.518953
0.507129
0.495707
0.484631
0.47385
0.463316
0.45298
0.442802
0.43274
0.42276
0.412828
0.402916
0.392999
0.383056
0.373069
0.363026
0.352918
0.342741
0.332501
0.322211
0.311901
0.30162
0.291478
0.281548
0.272227
0.582472
0.708428
0.817495
0.895168
0.946434
0.976787
0.990672
0.991831
0.98374
0.969898
0.954027
0.940223
0.933186
0.934744
0.949276
0.981262
1.03574
1.11759
1.2294
1.36764
1.52223
1.67724
1.8152
1.92397
2.00051
2.05116
2.08859
2.12693
2.17747
2.24666
2.33636
2.4452
2.57022
2.70795
2.85503
3.00849
3.16577
3.32471
3.48346
3.64048
3.79447
3.94436
4.08931
4.22863
4.36181
4.48848
4.60842
4.72146
4.82757
4.92675
5.01907
5.10464
5.18359
5.25608
5.32228
5.38236
5.43652
5.48492
5.52774
5.56517
5.59735
5.62446
5.64664
5.66403
5.67677
5.68498
5.68877
5.68826
5.68353
5.67467
5.66178
5.64491
5.62414
5.59952
5.5711
5.53895
5.50309
5.46358
5.42046
5.37377
5.32357
5.26991
5.21289
5.15259
5.08912
5.02262
4.9532
4.88101
4.80623
4.72906
4.64973
4.56852
4.48572
4.40166
4.31673
4.23131
4.14586
4.06084
3.97676
3.8941
3.81338
3.73506
3.65952
3.58704
3.51768
3.45129
3.38736
3.32506
3.2631
3.19975
3.13296
3.06055
2.98024
2.89036
2.78982
2.67847
2.56316
2.44422
2.32317
2.20209
2.08308
1.96797
1.85815
1.75455
1.65769
1.56772
1.48456
1.40791
1.3374
1.27257
1.21296
1.1581
1.10755
1.06091
1.0178
0.977875
0.940843
0.906429
0.874393
0.844519
0.816618
0.790516
0.766061
0.743113
0.721544
0.701239
0.682086
0.663979
0.646805
0.630489
0.614963
0.60016
0.586019
0.572478
0.559478
0.546963
0.534877
0.523165
0.511776
0.500658
0.489763
0.479047
0.468466
0.457982
0.447557
0.437161
0.426763
0.416339
0.405869
0.395334
0.384722
0.374024
0.363237
0.352364
0.341417
0.33042
0.319413
0.308473
0.29766
0.287217
0.612881
0.770709
0.903296
0.99421
1.05348
1.08896
1.1063
1.1099
1.10379
1.09211
1.07937
1.07059
1.06877
1.07764
1.10166
1.14476
1.20985
1.29791
1.40677
1.53002
1.65757
1.77777
1.8809
1.96264
2.0255
2.07756
2.12938
2.19047
2.26701
2.36142
2.47319
2.60019
2.73967
2.88886
3.04526
3.20671
3.37132
3.53746
3.70369
3.86877
4.03157
4.19112
4.34659
4.49726
4.64254
4.78197
4.91517
5.04188
5.16191
5.27515
5.38156
5.48114
5.57394
5.66003
5.73954
5.81258
5.87929
5.93983
5.99435
6.04299
6.08592
6.12327
6.1552
6.18184
6.20331
6.21973
6.23121
6.23785
6.23974
6.23694
6.22953
6.21756
6.20107
6.18009
6.15467
6.1248
6.09051
6.05181
6.00871
5.9612
5.90931
5.85305
5.79245
5.72755
5.6584
5.58501
5.50742
5.42582
5.34035
5.25118
5.15849
5.0625
4.96347
4.86168
4.75748
4.65125
4.54345
4.43455
4.3251
4.2157
4.10697
3.99956
3.89411
3.79121
3.69128
3.59455
3.50097
3.41018
3.32143
3.23334
3.14412
3.052
2.95449
2.85036
2.73853
2.62294
2.50369
2.38203
2.2598
2.13908
2.0218
1.90956
1.80352
1.70436
1.61236
1.52748
1.44947
1.37791
1.31232
1.25217
1.19695
1.14616
1.09937
1.05616
1.01616
0.979046
0.944539
0.912384
0.882362
0.854279
0.827962
0.803259
0.780033
0.758163
0.737536
0.71805
0.699611
0.682128
0.665504
0.649656
0.634524
0.620048
0.606173
0.592843
0.580005
0.567604
0.555591
0.543913
0.532522
0.521369
0.510409
0.499598
0.488895
0.478261
0.467662
0.457066
0.446444
0.435772
0.42503
0.414202
0.403274
0.392239
0.381095
0.369843
0.358495
0.347072
0.335606
0.324158
0.31278
0.301644
0.631492
0.83276
0.991081
1.09511
1.16309
1.20533
1.2282
1.23652
1.23465
1.22701
1.21835
1.21371
1.21503
1.22714
1.25407
1.29861
1.36177
1.44226
1.53618
1.63723
1.73783
1.83104
1.91273
1.98302
2.04622
2.10916
2.17886
2.26058
2.35701
2.46849
2.59384
2.73114
2.87831
3.03337
3.19453
3.36023
3.52904
3.69971
3.87105
4.04198
4.2115
4.37868
4.54268
4.70277
4.85827
5.00863
5.15337
5.29212
5.42457
5.55051
5.66977
5.78227
5.88796
5.98685
6.07897
6.1644
6.24321
6.31552
6.38145
6.44112
6.49467
6.54221
6.58389
6.61982
6.65012
6.67489
6.69424
6.70824
6.71698
6.72053
6.71892
6.71221
6.70042
6.68356
6.66164
6.63467
6.60262
6.56549
6.52324
6.47587
6.42335
6.36567
6.3028
6.23474
6.16152
6.0829
5.99903
5.91007
5.81615
5.71738
5.61391
5.5059
5.39354
5.2771
5.15686
5.03317
4.90646
4.77717
4.64584
4.51308
4.37955
4.246
4.11322
3.98203
3.85314
3.72707
3.60411
3.48436
3.36779
3.25338
3.13949
3.02543
2.908
2.78876
2.66723
2.54336
2.41788
2.29219
2.16811
2.04752
1.93212
1.82318
1.72155
1.6276
1.54135
1.46251
1.39063
1.32515
1.26546
1.21095
1.16106
1.11526
1.07309
1.03415
0.998058
0.96452
0.933265
0.904062
0.876713
0.851043
0.826904
0.804163
0.782702
0.762416
0.743212
0.725002
0.707707
0.691249
0.67555
0.660526
0.646127
0.632303
0.619004
0.606183
0.593791
0.581781
0.570105
0.558717
0.547571
0.536623
0.525831
0.515152
0.504547
0.493981
0.483419
0.472831
0.46219
0.451473
0.44066
0.429736
0.41869
0.407513
0.396204
0.384767
0.373211
0.361555
0.34983
0.338082
0.326359
0.314798
0.634505
0.891175
1.07498
1.19204
1.26994
1.32057
1.35078
1.3656
1.36946
1.36683
1.3624
1.35881
1.36024
1.37118
1.39506
1.43381
1.48752
1.55426
1.63035
1.71098
1.79137
1.86808
1.9401
2.0091
2.07887
2.15396
2.23829
2.33436
2.44305
2.56397
2.69603
2.83782
2.98789
3.14486
3.30747
3.47456
3.64505
3.81789
3.99208
4.16667
4.34071
4.51333
4.68368
4.851
5.01456
5.17374
5.32799
5.47683
5.61986
5.75676
5.88729
6.01125
6.12851
6.23901
6.3427
6.43958
6.52969
6.61309
6.68985
6.76006
6.82382
6.88123
6.93239
6.97742
7.01641
7.04944
7.07662
7.098
7.11366
7.12364
7.12799
7.12673
7.11987
7.10742
7.08937
7.0657
7.03638
7.00137
6.96064
6.91413
6.8618
6.8036
6.73949
6.66942
6.59337
6.51097
6.42247
6.32798
6.22761
6.12145
6.00959
5.89215
5.7693
5.64122
5.50819
5.37052
5.22856
5.08274
4.93354
4.7815
4.62727
4.47157
4.31522
4.15926
4.0046
3.85191
3.70163
3.55405
3.41024
3.26964
3.12993
2.99308
2.85773
2.72286
2.58806
2.45356
2.32023
2.18945
2.06286
1.94205
1.82837
1.72274
1.62562
1.53706
1.45675
1.38418
1.31868
1.25952
1.20597
1.15735
1.11304
1.07248
1.0352
1.00078
0.968872
0.939178
0.91145
0.885477
0.86108
0.838108
0.816429
0.795932
0.776516
0.758095
0.740589
0.723927
0.708042
0.692869
0.67834
0.664383
0.650956
0.638017
0.625523
0.613432
0.601702
0.590292
0.579158
0.56826
0.557555
0.547002
0.536563
0.526198
0.51587
0.505546
0.495194
0.484784
0.474292
0.463695
0.452975
0.442118
0.431112
0.419953
0.408638
0.397172
0.385563
0.373832
0.362003
0.350118
0.33822
0.326425
0.626913
0.94498
1.14863
1.27845
1.36705
1.4272
1.46601
1.48849
1.49888
1.50131
1.49989
1.4968
1.49692
1.50439
1.52227
1.55223
1.59429
1.64694
1.70754
1.77299
1.84063
1.90897
1.97816
2.04979
2.12635
2.21035
2.30374
2.40751
2.52183
2.64623
2.77992
2.92194
3.07133
3.22716
3.38853
3.55455
3.72436
3.89709
4.07188
4.24784
4.4241
4.59983
4.77418
4.94636
5.11565
5.28136
5.44287
5.59963
5.75118
5.8971
6.03706
6.17079
6.29807
6.41875
6.53272
6.63992
6.74031
6.8339
6.92071
7.00078
7.07418
7.14098
7.20124
7.25505
7.30248
7.3436
7.37848
7.40718
7.42974
7.44621
7.4566
7.46094
7.45923
7.45144
7.43757
7.41757
7.39141
7.35902
7.32035
7.27535
7.22393
7.16604
7.10159
7.03053
6.9527
6.86786
6.7762
6.67785
6.57286
6.46131
6.34326
6.21879
6.08803
5.95113
5.80831
5.6599
5.5062
5.34755
5.18438
5.01715
4.84641
4.67275
4.49687
4.32001
4.14335
3.96753
3.793
3.61947
3.44987
3.2846
3.12265
2.96421
2.80886
2.65631
2.50664
2.36036
2.21844
2.08214
1.95284
1.83178
1.71987
1.61762
1.52508
1.44192
1.36754
1.30115
1.24189
1.18888
1.14129
1.09837
1.05944
1.02393
0.991359
0.961309
0.933443
0.907483
0.883196
0.860392
0.838912
0.818624
0.799417
0.781194
0.763873
0.747383
0.731657
0.716637
0.702267
0.688493
0.675252
0.662489
0.650167
0.63825
0.626702
0.615486
0.604564
0.593899
0.583454
0.573191
0.563071
0.553058
0.543115
0.533205
0.523295
0.513353
0.503349
0.493255
0.483048
0.472706
0.462213
0.451556
0.440725
0.429715
0.418525
0.407159
0.395629
0.38395
0.372148
0.360259
0.348323
0.336441
0.622809
0.97725
1.20439
1.34793
1.44744
1.51754
1.56567
1.59674
1.61471
1.62334
1.62453
1.62276
1.62223
1.62664
1.63889
1.66074
1.69269
1.73403
1.78329
1.83872
1.89892
1.96323
2.03189
2.10585
2.1864
2.27472
2.37167
2.47759
2.59243
2.71586
2.84735
2.98633
3.13219
3.2843
3.44201
3.60464
3.7715
3.94183
4.11488
4.28985
4.46593
4.64231
4.81819
4.99279
5.16534
5.33515
5.50156
5.66396
5.82182
5.97466
6.12208
6.26373
6.39932
6.52862
6.65144
6.76766
6.87718
6.97993
7.07589
7.16506
7.24744
7.32305
7.39195
7.45416
7.50975
7.55874
7.6012
7.63714
7.66661
7.68961
7.70617
7.71629
7.71994
7.7171
7.70774
7.69181
7.66925
7.64
7.60398
7.56112
7.51133
7.45453
7.39065
7.3196
7.241
7.15494
7.06153
6.96083
6.85292
6.73782
6.61558
6.48627
6.34995
6.20673
6.05678
5.90051
5.73816
5.56998
5.39632
5.21756
5.03414
4.84647
4.65473
4.46042
4.2654
4.06992
3.87468
3.68047
3.48876
3.30031
3.11554
2.93501
2.75913
2.58844
2.42358
2.26546
2.1151
1.97365
1.84212
1.72132
1.61166
1.51318
1.42548
1.34785
1.27939
1.21907
1.16584
1.11869
1.07671
1.03909
1.00513
0.974261
0.945984
0.91991
0.895715
0.873141
0.851977
0.832055
0.813237
0.795409
0.778479
0.762369
0.747009
0.732343
0.718316
0.70488
0.691989
0.679596
0.667642
0.656088
0.644904
0.634055
0.623509
0.613233
0.603193
0.593355
0.583685
0.574148
0.564708
0.555332
0.545985
0.536634
0.527246
0.517791
0.508241
0.49857
0.488755
0.478778
0.468621
0.458273
0.447725
0.436973
0.426017
0.414862
0.403517
0.392001
0.380335
0.368552
0.356691
0.344841
0.659831
1.01941
1.24694
1.39728
1.50552
1.58492
1.64246
1.68266
1.70906
1.72418
1.731
1.73338
1.735
1.73922
1.74884
1.76584
1.79126
1.82523
1.86722
1.9164
1.97202
2.03367
2.10137
2.17546
2.25644
2.34477
2.44077
2.54455
2.65607
2.77512
2.90144
3.03469
3.17454
3.32057
3.47234
3.62934
3.79098
3.95658
4.12549
4.29701
4.47041
4.64492
4.81978
4.99423
5.16752
5.33893
5.50778
5.67344
5.83532
5.99291
6.14572
6.29334
6.43543
6.57167
6.70182
6.82568
6.94307
7.05389
7.15803
7.25544
7.34607
7.4299
7.50692
7.57715
7.64059
7.69724
7.74713
7.79027
7.82666
7.8563
7.87918
7.89528
7.90457
7.90701
7.90255
7.89114
7.87269
7.84713
7.81438
7.77434
7.72692
7.67202
7.60955
7.53935
7.46117
7.37512
7.28128
7.1797
7.07041
6.95345
6.82885
6.69665
6.55688
6.40957
6.25464
6.09299
5.9246
5.74965
5.56839
5.38113
5.1882
4.99001
4.78703
4.58017
4.37039
4.15842
3.94513
3.73157
3.51901
3.30871
3.10189
2.89991
2.70411
2.5159
2.33665
2.16762
2.00992
1.86446
1.73185
1.61235
1.50585
1.41184
1.32948
1.25771
1.19529
1.141
1.09363
1.05207
1.01534
0.982611
0.953181
0.926473
0.902021
0.879452
0.85847
0.838843
0.820386
0.802954
0.786433
0.770731
0.755773
0.741497
0.72785
0.714786
0.702264
0.690245
0.678691
0.667558
0.656793
0.646375
0.636272
0.626454
0.61689
0.607548
0.598397
0.589405
0.580538
0.571765
0.563052
0.554365
0.545673
0.536943
0.528145
0.51925
0.510229
0.501059
0.491718
0.482188
0.472451
0.462499
0.452321
0.441916
0.431282
0.420427
0.409359
0.398095
0.386657
0.375074
0.363382
0.351662
0.663339
1.03048
1.26399
1.42105
1.5369
1.62469
1.69125
1.74084
1.77645
1.80047
1.816
1.82613
1.83392
1.84229
1.85385
1.87066
1.89412
1.92493
1.96323
2.00876
2.06117
2.12014
2.1855
2.25726
2.33551
2.42037
2.51199
2.61044
2.71575
2.82776
2.9464
3.07156
3.20309
3.34079
3.48439
3.63359
3.78778
3.94624
4.10852
4.27404
4.44216
4.61218
4.78339
4.95506
5.12647
5.29692
5.46571
5.63218
5.79574
5.95581
6.11188
6.26347
6.41017
6.55162
6.6875
6.81753
6.94149
7.05919
7.17047
7.27521
7.37332
7.46471
7.54934
7.62715
7.69812
7.76222
7.81942
7.86971
7.91306
7.94944
7.97882
8.00115
8.0164
8.0245
8.02538
8.01896
8.00517
7.9839
7.95506
7.91854
7.87425
7.82207
7.7619
7.69347
7.61681
7.53196
7.43895
7.33782
7.22859
7.11128
6.98593
6.85255
6.71121
6.56194
6.40485
6.24025
6.06825
5.88902
5.70272
5.50957
5.30979
5.10368
4.89162
4.67416
4.45194
4.22567
3.99627
3.7649
3.533
3.3023
3.07478
2.85271
2.63845
2.43436
2.2425
2.06449
1.9014
1.75382
1.62184
1.50514
1.40301
1.31442
1.23809
1.17259
1.11645
1.06822
1.02659
0.990393
0.95861
0.930405
0.905091
0.882115
0.861044
0.841536
0.823329
0.806221
0.790057
0.774721
0.76012
0.746187
0.732865
0.720109
0.707883
0.696153
0.684889
0.674061
0.663638
0.653581
0.643847
0.634426
0.625286
0.616399
0.607734
0.599262
0.59095
0.582768
0.574684
0.566665
0.558678
0.550692
0.542674
0.534593
0.526418
0.518121
0.509676
0.501057
0.492243
0.483217
0.473962
0.464469
0.454728
0.444738
0.434498
0.424014
0.413296
0.402359
0.391224
0.379919
0.368475
0.356968
0.64161
1.01089
1.25423
1.41845
1.54042
1.6351
1.70977
1.76861
1.81442
1.84976
1.87699
1.89852
1.91675
1.93405
1.95265
1.97443
2.00083
2.03281
2.07085
2.11507
2.16537
2.22158
2.28352
2.35113
2.42441
2.50333
2.58806
2.67884
2.77605
2.8789
2.98768
3.10253
3.22352
3.35057
3.48355
3.62221
3.76618
3.91499
4.06819
4.22525
4.38561
4.54863
4.71367
4.88004
5.04705
5.21403
5.38029
5.54518
5.70807
5.86837
6.02553
6.17903
6.32842
6.47326
6.61318
6.74785
6.87697
7.00029
7.11759
7.22869
7.33342
7.43165
7.52327
7.60819
7.68632
7.7576
7.82195
7.87932
7.92965
7.97287
8.00894
8.03777
8.0593
8.07345
8.08012
8.07922
8.07065
8.05431
8.03007
7.99782
7.95744
7.90882
7.85181
7.7863
7.71232
7.62987
7.53896
7.43962
7.33185
7.21567
7.09109
6.95815
6.81687
6.66732
6.50956
6.34371
6.16988
5.98814
5.79857
5.60128
5.39636
5.18397
4.96429
4.73764
4.50445
4.26536
4.02126
3.77343
3.52361
3.27405
3.02756
2.78737
2.55696
2.33958
2.13793
1.95379
1.78806
1.64086
1.51168
1.39957
1.30323
1.22113
1.15156
1.0928
1.04315
1.00103
0.965046
0.933996
0.906872
0.882855
0.861291
0.841669
0.823594
0.806765
0.790957
0.776003
0.761779
0.748195
0.735187
0.722706
0.710717
0.699193
0.688111
0.677452
0.667196
0.657326
0.647815
0.638626
0.62974
0.621146
0.612816
0.604722
0.596835
0.589126
0.581564
0.574117
0.566752
0.559438
0.552141
0.544829
0.53747
0.53003
0.522481
0.514793
0.506939
0.498895
0.490638
0.48215
0.473415
0.464424
0.455167
0.445641
0.435847
0.425789
0.415478
0.404928
0.394158
0.383193
0.372064
0.360837
0.672723
1.00621
1.23585
1.39587
1.51879
1.61757
1.69886
1.76673
1.82369
1.87179
1.91286
1.94866
1.98096
2.01147
2.04183
2.0735
2.10766
2.14517
2.18659
2.23221
2.28211
2.33631
2.39474
2.45753
2.52505
2.5966
2.67258
2.75341
2.83942
2.9307
3.02748
3.13
3.2384
3.35275
3.47304
3.59912
3.73079
3.86771
4.00953
4.1558
4.30602
4.45964
4.61609
4.77473
4.93492
5.09602
5.25737
5.41833
5.57826
5.73657
5.89268
6.04605
6.19617
6.34257
6.48483
6.62254
6.75536
6.88298
7.0051
7.12148
7.2319
7.33617
7.43411
7.52557
7.61043
7.68854
7.75981
7.82413
7.88141
7.93154
7.97442
8.00996
8.03806
8.0586
8.07148
8.07658
8.07378
8.06295
8.04395
8.01666
7.98093
7.93666
7.88374
7.82216
7.75189
7.67291
7.58522
7.48881
7.38368
7.26983
7.14727
7.01601
6.87605
6.72743
6.57015
6.40426
6.22977
6.04667
5.85494
5.65456
5.44548
5.2277
5.00122
4.76618
4.52287
4.27182
4.01397
3.75078
3.48436
3.21762
2.95428
2.69867
2.4553
2.22825
2.02058
1.83403
1.66907
1.52521
1.40129
1.29572
1.20666
1.1321
1.06999
1.01836
0.975358
0.939322
0.90883
0.882687
0.859921
0.839761
0.821604
0.80499
0.789574
0.775099
0.76138
0.748283
0.735717
0.723617
0.711943
0.700666
0.68977
0.679244
0.66908
0.659272
0.649814
0.640694
0.631896
0.623383
0.615167
0.60723
0.599549
0.592099
0.584853
0.577782
0.570855
0.564041
0.557308
0.550623
0.543951
0.537259
0.530514
0.523684
0.516736
0.509641
0.50237
0.494899
0.487205
0.479268
0.471072
0.462605
0.453859
0.444829
0.435517
0.425925
0.416063
0.405944
0.395587
0.385013
0.374251
0.363361
0.665267
0.97291
1.19463
1.3508
1.47326
1.57494
1.66226
1.73882
1.807
1.86852
1.92477
1.97697
2.0262
2.07348
2.11975
2.1658
2.2123
2.25978
2.30858
2.35896
2.41109
2.46533
2.52117
2.57889
2.63894
2.70161
2.76734
2.83665
2.91003
2.98793
3.07075
3.15885
3.25252
3.35197
3.4573
3.56852
3.68553
3.80814
3.9361
4.06906
4.20661
4.34829
4.4936
4.64196
4.7928
4.94552
5.0995
5.25411
5.40874
5.5628
5.71568
5.86684
6.01572
6.16183
6.30469
6.44386
6.57893
6.70951
6.83528
6.95591
7.07112
7.18065
7.28427
7.38176
7.47294
7.55763
7.63566
7.70687
7.77113
7.82828
7.8782
7.92074
7.95576
7.98313
8.00271
8.01434
8.01789
8.0132
8.00012
7.9785
7.94817
7.90912
7.86128
7.80459
7.73901
7.66449
7.58101
7.48854
7.38705
7.27654
7.15698
7.02834
6.89062
6.74378
6.58777
6.42256
6.24807
6.06419
5.87079
5.66772
5.45478
5.23182
4.9987
4.75541
4.50215
4.23944
3.96834
3.69059
3.40887
3.1269
2.84944
2.58195
2.32988
2.09783
1.88886
1.70431
1.54401
1.40676
1.29071
1.19368
1.11332
1.04726
0.993198
0.948972
0.912655
0.882577
0.857337
0.835797
0.817052
0.800402
0.785311
0.771382
0.758323
0.745924
0.734037
0.722565
0.711441
0.700626
0.690099
0.679851
0.66988
0.66019
0.650786
0.641674
0.632857
0.624336
0.616099
0.60812
0.600429
0.59301
0.585844
0.578908
0.572178
0.565628
0.559227
0.552946
0.546751
0.54061
0.534489
0.528352
0.522166
0.515896
0.50951
0.502977
0.496268
0.489355
0.482214
0.474825
0.46717
0.459237
0.451015
0.442501
0.433691
0.424591
0.415208
0.405553
0.395643
0.385499
0.375146
0.364636
0.608619
0.928853
1.14104
1.29211
1.41331
1.51664
1.60829
1.69193
1.76986
1.84362
1.91427
1.98253
2.04893
2.11382
2.17743
2.23991
2.30132
2.36166
2.42093
2.47936
2.53604
2.5915
2.64601
2.70003
2.75411
2.80887
2.86501
2.92324
2.98428
3.04879
3.11739
3.19062
3.26893
3.35268
3.44211
3.53738
3.63852
3.74546
3.85808
3.97612
4.09929
4.22722
4.35948
4.49559
4.63503
4.77727
4.92172
5.06781
5.21496
5.36256
5.51004
5.65682
5.80237
5.94613
6.08761
6.22632
6.36181
6.49365
6.62143
6.7448
6.8634
6.97691
7.08504
7.18753
7.2841
7.37454
7.45861
7.53612
7.60686
7.67065
7.72729
7.7766
7.81842
7.85256
7.87884
7.89709
7.90714
7.90879
7.90189
7.88623
7.86179
7.82853
7.78635
7.73515
7.67487
7.60544
7.5268
7.43891
7.34171
7.23515
7.11918
6.99373
6.85874
6.71412
6.55977
6.39554
6.22126
6.03674
5.8417
5.63587
5.41892
5.19055
4.95051
4.6987
4.4353
4.16091
3.87684