/*--------------------------------*- C++ -*----------------------------------*\
  =========                 |
  \\      /  F ield         | OpenFOAM: The Open Source CFD Toolbox
   \\    /   O peration     | Website:  https://openfoam.org
    \\  /    A nd           | Version:  9
     \\/     M anipulation  |
\*---------------------------------------------------------------------------*/
FoamFile
{
    format      ascii;
    class       volScalarField;
    location    "0.04";
    object      p;
}
// * * * * * * * * * * * * * * * * * * * * * * * * * * * * * * * * * * * * * //

dimensions      [0 2 -2 0 0 0 0];

internalField   nonuniform List<scalar> 
12225
(
-1.17747
-3.45278
-4.60805
-4.90719
-5.06333
-5.20778
-5.31397
-5.38074
-5.42521
-5.45735
-5.47865
-5.48859
-5.4871
-5.47313
-5.44473
-5.39514
-5.3216
-5.17659
-4.63406
-5.33678
-5.42327
-5.27941
-5.22715
-5.27891
-5.34106
-5.38511
-5.41689
-5.44136
-5.45801
-5.46533
-5.46264
-5.44867
-5.42211
-5.3776
-5.31579
-5.22353
-4.84582
-4.74295
-4.8926
-5.00397
-5.09824
-5.20506
-5.29493
-5.35599
-5.39818
-5.42937
-5.45094
-5.4623
-5.46324
-5.45305
-5.43127
-5.39509
-5.34918
-5.30112
-4.70973
-4.62887
-4.89764
-5.0667
-5.14892
-5.23102
-5.30799
-5.3642
-5.40409
-5.43403
-5.4552
-5.46694
-5.46903
-5.46115
-5.44353
-5.41583
-5.38399
-5.35908
-4.71687
-4.73121
-4.96483
-5.10541
-5.16931
-5.23902
-5.31063
-5.3656
-5.4052
-5.43509
-5.45669
-5.46952
-5.47351
-5.4688
-5.45621
-5.43692
-5.41653
-5.40438
-4.77948
-4.81934
-4.99093
-5.11234
-5.17825
-5.24596
-5.31456
-5.36866
-5.40838
-5.43861
-5.46095
-5.47517
-5.4814
-5.48014
-5.47261
-5.46076
-5.44935
-5.44566
-4.84072
-4.87777
-5.00809
-5.1211
-5.19164
-5.25687
-5.32125
-5.37387
-5.41364
-5.44433
-5.46757
-5.48341
-5.49211
-5.49445
-5.49187
-5.48651
-5.48227
-5.48429
-4.89581
-4.9283
-5.03268
-5.13638
-5.20745
-5.2693
-5.32948
-5.38057
-5.42048
-5.4518
-5.47615
-5.49384
-5.50526
-5.51132
-5.5135
-5.51384
-5.51534
-5.52131
-4.94803
-4.97742
-5.06255
-5.15477
-5.22379
-5.28275
-5.33942
-5.38901
-5.42903
-5.46111
-5.48678
-5.50652
-5.52081
-5.5306
-5.53728
-5.54263
-5.54882
-5.55786
-4.99839
-5.02478
-5.09458
-5.17532
-5.24118
-5.29773
-5.35139
-5.39945
-5.43952
-5.47247
-5.4996
-5.52152
-5.53877
-5.55223
-5.56315
-5.57294
-5.58316
-5.59493
-5.04683
-5.07
-5.12775
-5.19814
-5.26014
-5.31437
-5.36544
-5.41202
-5.45212
-5.48601
-5.51474
-5.53894
-5.55917
-5.57622
-5.59112
-5.60497
-5.61885
-5.63336
-5.08939
-5.10974
-5.15887
-5.22098
-5.27904
-5.33112
-5.38015
-5.42554
-5.46568
-5.50051
-5.5308
-5.55716
-5.58011
-5.60036
-5.61873
-5.63609
-5.6532
-5.67038
-5.12974
-5.14768
-5.18988
-5.24485
-5.29897
-5.34895
-5.39626
-5.44065
-5.48089
-5.51672
-5.54862
-5.57715
-5.6028
-5.62615
-5.64787
-5.6686
-5.68888
-5.70891
-5.17347
-5.1891
-5.22506
-5.27325
-5.32313
-5.3708
-5.4165
-5.46005
-5.50054
-5.53758
-5.57142
-5.6025
-5.63123
-5.65806
-5.68351
-5.70804
-5.73201
-5.75556
-5.21984
-5.23332
-5.26398
-5.30617
-5.35189
-5.39723
-5.44156
-5.48457
-5.52558
-5.56414
-5.60029
-5.63432
-5.66654
-5.69729
-5.72692
-5.75574
-5.78402
-5.81187
-5.26753
-5.2792
-5.30569
-5.34304
-5.38515
-5.42846
-5.47187
-5.51486
-5.55684
-5.59733
-5.63625
-5.6737
-5.70988
-5.74502
-5.77933
-5.81304
-5.84632
-5.87928
-5.31437
-5.32473
-5.34835
-5.38237
-5.42197
-5.46405
-5.5073
-5.55104
-5.59467
-5.63771
-5.67996
-5.72138
-5.76207
-5.80213
-5.8417
-5.88089
-5.91987
-5.95868
-5.35659
-5.3663
-5.38857
-5.42116
-5.45998
-5.50223
-5.54654
-5.59215
-5.63842
-5.68485
-5.73114
-5.77718
-5.82295
-5.86847
-5.91381
-5.95901
-6.00417
-6.04932
-5.38737
-5.39736
-5.42021
-5.45389
-5.49444
-5.53904
-5.58628
-5.63536
-5.68566
-5.73664
-5.78793
-5.83936
-5.89084
-5.94234
-5.99387
-6.04542
-6.09705
-6.14872
-5.39229
-5.40352
-5.42912
-5.46676
-5.5118
-5.56086
-5.61245
-5.66597
-5.72082
-5.77644
-5.83243
-5.88862
-5.94493
-6.00132
-6.05776
-6.11423
-6.17075
-6.22728
-5.3802
-5.3929
-5.42213
-5.46512
-5.51576
-5.56972
-5.62573
-5.68351
-5.74245
-5.8019
-5.86153
-5.92126
-5.98105
-6.04087
-6.10067
-6.16045
-6.22022
-6.27994
-5.35594
-5.37009
-5.40418
-5.45487
-5.51245
-5.57142
-5.63178
-5.6939
-5.75686
-5.81976
-5.88244
-5.94501
-6.00752
-6.06993
-6.13222
-6.1944
-6.2565
-6.31847
-5.32322
-5.33777
-5.37765
-5.43915
-5.50524
-5.56913
-5.63352
-5.69968
-5.76617
-5.83197
-5.89718
-5.96208
-6.02672
-6.09108
-6.15521
-6.21913
-6.2829
-6.34649
-5.28506
-5.29871
-5.34595
-5.41997
-5.49425
-5.56352
-5.63312
-5.70353
-5.77278
-5.84059
-5.90763
-5.97424
-6.0404
-6.10613
-6.1715
-6.23662
-6.30152
-6.36618
-5.24217
-5.25207
-5.31826
-5.40586
-5.48099
-5.55279
-5.62896
-5.70491
-5.77712
-5.84667
-5.91519
-5.9831
-6.05032
-6.11693
-6.18309
-6.24893
-6.31455
-6.37993
-5.19692
-5.17526
-5.29134
-5.40844
-5.47936
-5.54599
-5.62403
-5.70313
-5.77728
-5.84824
-5.91808
-5.9871
-6.05518
-6.12246
-6.1892
-6.25556
-6.32165
-6.38748
-5.19012
-5.04734
-5.21124
-5.38547
-5.48055
-5.55457
-5.63429
-5.71243
-5.78528
-5.85561
-5.92524
-5.9941
-6.062
-6.12913
-6.19574
-6.262
-6.32806
-6.39392
-5.33619
-5.05748
-5.09655
-5.23363
-5.36283
-5.48251
-5.59154
-5.68447
-5.76602
-5.84263
-5.91677
-5.98874
-6.05882
-6.12754
-6.19532
-6.26246
-6.32936
-6.39646
-5.26587
-5.77126
-5.78948
-5.63959
-5.57018
-5.60652
-5.67527
-5.74172
-5.80609
-5.87203
-5.93911
-6.00599
-6.07222
-6.13793
-6.20321
-6.26806
-6.33264
-6.39869
-1.93901
-3.80733
-4.88278
-5.18457
-5.33011
-5.47986
-5.60678
-5.70398
-5.78625
-5.86365
-5.93835
-6.0104
-6.08028
-6.14867
-6.21588
-6.28181
-6.34601
-6.4065
-7.44775
-7.42644
-7.41844
-7.43996
-7.50025
-7.59879
-7.72692
-7.87222
-8.0218
-8.1637
-8.28715
-8.38272
-8.4421
-8.46267
-8.45104
-8.41349
-8.35604
-8.28537
-8.20986
-8.13836
-8.07773
-8.03209
-8.00309
-7.99052
-7.99317
-8.00971
-8.03902
-8.08059
-8.13561
-8.20802
-8.30389
-8.43365
-8.60806
-8.83802
-9.13159
-9.4919
-9.91614
-10.3959
-10.9184
-11.4688
-12.0316
-12.5927
-13.1403
-13.6655
-14.162
-14.6264
-15.0571
-15.4543
-15.8192
-16.1538
-16.4602
-16.7408
-16.9982
-17.2345
-17.4518
-17.652
-17.8367
-18.0073
-18.165
-18.311
-18.4459
-18.5706
-18.6855
-18.791
-18.8874
-18.9749
-19.0533
-19.1227
-19.1829
-19.2334
-19.274
-19.304
-19.3228
-19.3297
-19.3238
-19.3042
-19.2698
-19.2194
-19.1518
-19.0658
-18.9603
-18.8336
-18.6834
-18.5058
-18.296
-18.0529
-17.774
-17.4562
-17.0961
-16.6899
-16.2335
-15.7226
-15.1525
-14.5183
-13.815
-13.0373
-12.1799
-11.2375
-10.2052
-9.07858
-7.85406
-6.52933
-5.10385
-3.57934
-1.96047
-0.255387
1.5237
3.36014
5.23277
7.11615
8.98137
10.7972
12.5319
14.1551
15.6401
16.9661
18.1204
19.1029
19.9171
20.5633
21.0498
21.3927
21.6102
21.721
21.7433
21.694
21.5883
21.4393
21.2581
21.0543
20.8354
20.6079
20.3767
20.1459
19.9187
19.6976
19.4844
19.2806
19.0871
18.9048
18.734
18.575
18.428
18.2934
18.1721
18.059
17.9551
17.8604
17.775
17.6988
17.6312
17.5718
17.5199
17.4749
17.4363
17.4036
17.3762
17.3536
17.3354
17.3212
17.3106
17.3034
17.2992
17.2978
17.2993
17.3035
17.3104
17.3204
17.3336
17.3507
17.3724
17.3998
17.4347
17.4793
17.5372
17.6132
17.7159
17.8535
18.0564
18.2896
-7.62151
-7.57077
-7.59194
-7.66847
-7.77167
-7.89314
-8.02784
-8.16752
-8.30308
-8.4265
-8.53131
-8.61277
-8.66809
-8.69065
-8.67011
-8.60633
-8.50444
-8.37446
-8.23032
-8.08845
-7.9659
-7.87576
-7.82272
-7.80245
-7.80519
-7.81996
-7.83872
-7.86081
-7.89308
-7.94637
-8.03107
-8.15892
-8.34523
-8.60353
-8.9412
-9.35725
-9.84235
-10.3809
-10.954
-11.5428
-12.1301
-12.7024
-13.2499
-13.7663
-14.2483
-14.6948
-15.1063
-15.4846
-15.8318
-16.1503
-16.4427
-16.7114
-16.9588
-17.1869
-17.3975
-17.5925
-17.7731
-17.9408
-18.0965
-18.2411
-18.3756
-18.5004
-18.616
-18.7228
-18.8211
-18.9109
-18.9922
-19.0651
-19.1292
-19.1842
-19.2297
-19.2652
-19.2901
-19.3036
-19.3047
-19.2925
-19.2658
-19.2232
-19.1632
-19.0841
-18.9839
-18.8603
-18.7116
-18.5364
-18.3339
-18.1002
-17.832
-17.5259
-17.1786
-16.7861
-16.3446
-15.8499
-15.2973
-14.6821
-13.9994
-13.244
-12.4107
-11.4943
-10.4898
-9.39286
-8.19964
-6.9076
-5.51577
-4.0253
-2.44007
-0.767285
0.981951
2.79223
4.64366
6.51201
8.36942
10.1855
11.9289
13.5696
15.0808
16.4408
17.6345
18.6541
19.4982
20.1726
20.6891
21.0628
21.3108
21.4512
21.5016
21.4786
21.3971
21.2701
21.1089
20.923
20.7201
20.5069
20.2883
20.0687
19.8514
19.639
19.4335
19.2364
19.0489
18.8717
18.7055
18.5504
18.4068
18.2741
18.1512
18.04
17.9387
17.847
17.7646
17.6908
17.6253
17.5674
17.5168
17.4729
17.4351
17.403
17.3761
17.3539
17.336
17.3219
17.3114
17.3042
17.3
17.2985
17.2998
17.3038
17.3105
17.32
17.3328
17.3493
17.3703
17.3968
17.4303
17.4731
17.5282
17.5998
17.6954
17.8203
17.9991
18.1924
-7.85884
-7.80974
-7.84538
-7.93907
-8.05356
-8.17709
-8.30477
-8.43019
-8.54649
-8.64759
-8.72835
-8.78454
-8.81286
-8.81066
-8.77559
-8.70583
-8.60235
-8.46911
-8.31466
-8.15356
-8.00475
-7.8853
-7.80302
-7.75407
-7.72823
-7.71719
-7.71941
-7.74079
-7.7929
-7.88984
-8.04486
-8.2672
-8.56054
-8.92271
-9.34622
-9.81961
-10.3292
-10.8609
-11.4016
-11.94
-12.4672
-12.9762
-13.4625
-13.9231
-14.3562
-14.7616
-15.1393
-15.4905
-15.8163
-16.1183
-16.3981
-16.6575
-16.8981
-17.1214
-17.3289
-17.5219
-17.7016
-17.8691
-18.0254
-18.1712
-18.3072
-18.434
-18.5519
-18.6614
-18.7625
-18.8555
-18.9402
-19.0166
-19.0845
-19.1435
-19.1933
-19.2333
-19.2628
-19.2812
-19.2875
-19.2808
-19.26
-19.2239
-19.171
-19.0999
-19.0085
-18.8947
-18.7565
-18.592
-18.3998
-18.177
-17.9205
-17.6271
-17.2935
-16.9158
-16.4904
-16.0129
-15.4791
-14.8842
-14.2234
-13.4917
-12.6839
-11.7947
-10.8193
-9.75303
-8.59192
-7.33306
-5.97494
-4.51801
-2.9653
-1.32297
0.399042
2.18653
4.02075
5.87847
7.73251
9.55276
11.3078
12.9671
14.5028
15.8918
17.1177
18.1714
19.0518
19.7635
20.3165
20.7251
21.0061
21.1772
21.256
21.259
21.201
21.0955
20.9535
20.7849
20.5975
20.398
20.1917
19.9831
19.7755
19.5717
19.3738
19.1836
19.0022
18.8304
18.669
18.5183
18.3783
18.2489
18.1299
18.0216
17.9229
17.8335
17.753
17.6809
17.6169
17.5605
17.5111
17.4682
17.4314
17.4001
17.3739
17.3523
17.3348
17.3211
17.3109
17.3038
17.2996
17.2982
17.2994
17.3031
17.3095
17.3187
17.331
17.3468
17.3668
17.3921
17.4239
17.4642
17.5156
17.5815
17.6672
17.7754
17.9189
18.0516
-8.12917
-8.10615
-8.14559
-8.22895
-8.33106
-8.44134
-8.55396
-8.66292
-8.76221
-8.84638
-8.91073
-8.95133
-8.96506
-8.94968
-8.90345
-8.82609
-8.7192
-8.58681
-8.43653
-8.28053
-8.13402
-8.01022
-7.91606
-7.85211
-7.81603
-7.80792
-7.83303
-7.90097
-8.02202
-8.20363
-8.44831
-8.75334
-9.11182
-9.51452
-9.95143
-10.4128
-10.8898
-11.3742
-11.8591
-12.3382
-12.8066
-13.2601
-13.6954
-14.1105
-14.5039
-14.875
-15.2237
-15.5505
-15.8561
-16.1415
-16.4079
-16.6564
-16.8884
-17.105
-17.3074
-17.4966
-17.6738
-17.8397
-17.9952
-18.1409
-18.2774
-18.4053
-18.5248
-18.6363
-18.7399
-18.8357
-18.9236
-19.0035
-19.0753
-19.1385
-19.1927
-19.2374
-19.272
-19.2957
-19.3077
-19.307
-19.2924
-19.2628
-19.2169
-19.1531
-19.0698
-18.9652
-18.8372
-18.6839
-18.5031
-18.2924
-18.0487
-17.7691
-17.4502
-17.0884
-16.6799
-16.2207
-15.7064
-15.1324
-14.4939
-13.7859
-13.0032
-12.1405
-11.1927
-10.155
-9.02304
-7.7933
-6.46362
-5.03361
-3.50526
-1.88361
-0.177452
1.60011
3.43122
5.29319
7.15884
8.99756
10.7769
12.4646
14.0309
15.4507
16.7072
17.7918
18.7024
19.4424
20.0217
20.4546
20.758
20.95
21.0481
21.069
21.0278
20.9377
20.8101
20.6546
20.4793
20.2908
20.0947
19.8952
19.696
19.4998
19.3088
19.1249
18.9492
18.7827
18.6261
18.4796
18.3436
18.2178
18.1022
17.9966
17.9005
17.8135
17.7355
17.6657
17.6038
17.5493
17.5016
17.4603
17.4249
17.3948
17.3696
17.3489
17.3321
17.319
17.3092
17.3025
17.2985
17.2972
17.2983
17.3019
17.3079
17.3167
17.3283
17.3432
17.362
17.3856
17.4151
17.4521
17.4987
17.5573
17.6312
17.7201
17.8278
17.9107
-8.34608
-8.35054
-8.39066
-8.46009
-8.54572
-8.63925
-8.73471
-8.82653
-8.90934
-8.97819
-9.02878
-9.05746
-9.06141
-9.03868
-8.98825
-8.91059
-8.80804
-8.68541
-8.55051
-8.41403
-8.28767
-8.18135
-8.10128
-8.05117
-8.03493
-8.0584
-8.12916
-8.25439
-8.43818
-8.6798
-8.97409
-9.31319
-9.68833
-10.091
-10.5136
-10.9493
-11.392
-11.8363
-12.2776
-12.7117
-13.1352
-13.5454
-13.9401
-14.3177
-14.6774
-15.0185
-15.3411
-15.6453
-15.9317
-16.2009
-16.4538
-16.6912
-16.9142
-17.1236
-17.3203
-17.5052
-17.6792
-17.843
-17.9972
-18.1423
-18.279
-18.4076
-18.5283
-18.6415
-18.7473
-18.8456
-18.9364
-19.0197
-19.095
-19.1622
-19.2208
-19.2702
-19.3098
-19.3389
-19.3566
-19.3621
-19.3542
-19.3317
-19.2934
-19.2377
-19.1631
-19.0679
-18.9501
-18.8077
-18.6384
-18.4399
-18.2093
-17.9437
-17.6398
-17.2942
-16.903
-16.4624
-15.968
-15.4153
-14.7995
-14.1157
-13.3585
-12.5226
-11.6028
-10.5938
-9.49095
-8.29009
-6.98828
-5.58416
-4.07856
-2.47525
-0.781705
0.990191
2.82357
4.69624
6.58092
8.44618
10.258
11.9819
13.5854
15.042
16.3336
17.4507
18.39
19.1554
19.7572
20.2103
20.5322
20.7411
20.8551
20.891
20.8638
20.7869
20.6717
20.5278
20.3633
20.1848
19.9978
19.8068
19.6153
19.4262
19.2417
19.0637
18.8935
18.7319
18.5798
18.4376
18.3054
18.1832
18.0709
17.9684
17.8752
17.791
17.7154
17.648
17.5882
17.5357
17.4899
17.4503
17.4164
17.3876
17.3636
17.3438
17.328
17.3156
17.3064
17.3001
17.2965
17.2953
17.2964
17.2999
17.3057
17.3139
17.3247
17.3386
17.356
17.3777
17.4045
17.4377
17.4788
17.5292
17.5904
17.6601
17.7362
17.7814
-8.44945
-8.47339
-8.51662
-8.57843
-8.65232
-8.73244
-8.81377
-8.8915
-8.96099
-9.01798
-9.05863
-9.07967
-9.07869
-9.05407
-9.00554
-8.93448
-8.84412
-8.7399
-8.62941
-8.52179
-8.42621
-8.35071
-8.30192
-8.28606
-8.30965
-8.37927
-8.5003
-8.67537
-8.90328
-9.17922
-9.49598
-9.84548
-10.2199
-10.612
-11.0158
-11.426
-11.838
-12.2481
-12.653
-13.0499
-13.4365
-13.8111
-14.1722
-14.5188
-14.8501
-15.1659
-15.466
-15.7505
-16.0199
-16.2745
-16.5151
-16.7423
-16.9568
-17.1594
-17.3507
-17.5315
-17.7024
-17.8641
-18.017
-18.1617
-18.2986
-18.428
-18.5501
-18.6652
-18.7733
-18.8743
-18.9684
-19.0551
-19.1344
-19.2059
-19.2691
-19.3235
-19.3685
-19.4034
-19.4274
-19.4395
-19.4387
-19.4238
-19.3936
-19.3466
-19.2813
-19.196
-19.0889
-18.9578
-18.8005
-18.6148
-18.3979
-18.147
-17.8589
-17.5302
-17.1571
-16.7359
-16.2623
-15.7318
-15.1397
-14.4811
-13.7506
-12.9427
-12.0521
-11.0731
-10.0008
-8.83023
-7.55782
-6.18112
-4.69971
-3.11596
-1.43587
0.330095
2.16627
4.05119
5.95754
7.853
9.70172
11.4664
13.1122
14.6109
15.9425
17.0954
18.0658
18.8581
19.4834
19.9572
20.2977
20.5238
20.6537
20.7046
20.6916
20.6281
20.5256
20.3935
20.24
20.0718
19.8943
19.712
19.5285
19.3467
19.169
18.9971
18.8325
18.6762
18.5288
18.391
18.2629
18.1445
18.0357
17.9365
17.8464
17.7651
17.6923
17.6274
17.57
17.5197
17.4759
17.4381
17.4059
17.3786
17.3559
17.3374
17.3225
17.3111
17.3026
17.2968
17.2936
17.2927
17.2939
17.2973
17.3027
17.3104
17.3205
17.3333
17.3491
17.3686
17.3924
17.4214
17.4566
17.4984
17.547
17.5985
17.648
17.6637
-8.41993
-8.45207
-8.5049
-8.56809
-8.63703
-8.70886
-8.78017
-8.84731
-8.90666
-8.95475
-8.9884
-9.00496
-9.0026
-8.98028
-8.93846
-8.87929
-8.80674
-8.72651
-8.64572
-8.57225
-8.51391
-8.47809
-8.47176
-8.50154
-8.57338
-8.69173
-8.85865
-9.0732
-9.33151
-9.62761
-9.95445
-10.3049
-10.6723
-11.051
-11.4359
-11.8231
-12.2092
-12.5913
-12.9672
-13.3349
-13.6928
-14.0396
-14.3744
-14.6964
-15.0052
-15.3005
-15.5822
-15.8505
-16.1057
-16.3481
-16.5783
-16.7967
-17.0039
-17.2006
-17.3873
-17.5646
-17.7331
-17.8932
-18.0453
-18.19
-18.3275
-18.4581
-18.582
-18.6993
-18.8101
-18.9143
-19.0119
-19.1026
-19.1862
-19.2624
-19.3306
-19.3905
-19.4414
-19.4825
-19.5131
-19.5323
-19.539
-19.5322
-19.5105
-19.4727
-19.4171
-19.3422
-19.246
-19.1267
-18.982
-18.8096
-18.607
-18.3713
-18.0995
-17.7883
-17.4339
-17.0327
-16.5805
-16.073
-15.5053
-14.8726
-14.1696
-13.3907
-12.5302
-11.5825
-10.5419
-9.40317
-8.16187
-6.81454
-5.35949
-3.79759
-2.13327
-0.375425
1.46176
3.35784
5.2856
7.21174
9.09855
10.9058
12.597
14.1414
15.5162
16.7077
17.7117
18.5332
19.1838
19.68
20.0407
20.2852
20.4325
20.4997
20.5022
20.4534
20.3646
20.2455
20.1042
19.9471
19.78
19.6071
19.4323
19.2586
19.0882
18.923
18.7645
18.6139
18.4718
18.3387
18.2151
18.1009
17.996
17.9004
17.8137
17.7357
17.6658
17.6038
17.5491
17.5012
17.4596
17.4239
17.3935
17.368
17.3468
17.3296
17.3159
17.3054
17.2978
17.2927
17.29
17.2894
17.2908
17.2941
17.2993
17.3065
17.3157
17.3272
17.3414
17.3585
17.3791
17.4038
17.4327
17.466
17.5024
17.5374
17.5645
17.5571
-8.26494
-8.30149
-8.36799
-8.43952
-8.50914
-8.57637
-8.64055
-8.69947
-8.75055
-8.79125
-8.81921
-8.83263
-8.83033
-8.81223
-8.77967
-8.73549
-8.68408
-8.63108
-8.5831
-8.54716
-8.53028
-8.53922
-8.58023
-8.65864
-8.77835
-8.94121
-9.14666
-9.39183
-9.67195
-9.98112
-10.3131
-10.6619
-11.022
-11.389
-11.7588
-12.1283
-12.4949
-12.8563
-13.2109
-13.5571
-13.8937
-14.22
-14.5351
-14.8386
-15.1302
-15.4098
-15.6774
-15.9332
-16.1773
-16.4102
-16.6322
-16.8438
-17.0455
-17.2378
-17.4212
-17.5961
-17.7631
-17.9225
-18.0747
-18.22
-18.3588
-18.4912
-18.6174
-18.7375
-18.8515
-18.9594
-19.061
-19.1561
-19.2445
-19.3257
-19.3995
-19.4652
-19.5223
-19.5701
-19.6077
-19.6343
-19.6489
-19.6504
-19.6376
-19.6092
-19.5636
-19.4993
-19.4144
-19.307
-19.1751
-19.0163
-18.8282
-18.608
-18.3527
-18.0591
-17.7236
-17.3425
-16.9119
-16.4273
-15.8842
-15.2775
-14.602
-13.8522
-13.0222
-12.106
-11.0977
-9.99158
-8.78247
-7.46597
-6.03915
-4.5014
-2.8555
-1.1087
0.726464
2.63081
4.57735
6.53157
8.45454
10.3042
12.0417
13.6326
15.0512
16.2824
17.3214
18.1734
18.8509
19.3712
19.7538
20.0187
20.1852
20.2707
20.2906
20.2582
20.1849
20.0804
19.9525
19.8079
19.6523
19.4901
19.325
19.1601
18.9978
18.8401
18.6885
18.5441
18.4078
18.2801
18.1614
18.0519
17.9514
17.8598
17.7769
17.7025
17.636
17.577
17.5252
17.48
17.441
17.4076
17.3793
17.3556
17.3362
17.3205
17.3082
17.2988
17.2922
17.2879
17.2858
17.2856
17.2872
17.2905
17.2954
17.302
17.3104
17.3207
17.333
17.3477
17.365
17.3851
17.4079
17.4327
17.4578
17.478
17.4865
17.4608
-8.02098
-8.04777
-8.13247
-8.21708
-8.28949
-8.35406
-8.41259
-8.46442
-8.50811
-8.54208
-8.5649
-8.57568
-8.57415
-8.56122
-8.53906
-8.51112
-8.48202
-8.45729
-8.44302
-8.44552
-8.47092
-8.52487
-8.61217
-8.73625
-8.89887
-9.09981
-9.33694
-9.60653
-9.90372
-10.2231
-10.5594
-10.9075
-11.2631
-11.6223
-11.9821
-12.3397
-12.693
-13.0403
-13.3802
-13.7115
-14.0334
-14.3453
-14.6466
-14.9371
-15.2166
-15.4851
-15.7427
-15.9896
-16.226
-16.4522
-16.6687
-16.8758
-17.074
-17.2636
-17.4453
-17.6192
-17.7859
-17.9457
-18.099
-18.246
-18.3868
-18.5219
-18.6511
-18.7746
-18.8925
-19.0045
-19.1106
-19.2106
-19.3042
-19.3911
-19.4707
-19.5426
-19.6063
-19.6609
-19.7058
-19.7401
-19.7628
-19.7728
-19.7691
-19.7501
-19.7146
-19.6609
-19.5872
-19.4917
-19.3726
-19.2273
-19.0536
-18.8487
-18.6097
-18.3334
-18.0164
-17.6551
-17.2455
-16.7833
-16.2641
-15.6828
-15.0343
-14.3128
-13.5125
-12.6273
-11.6508
-10.5771
-9.40018
-8.11499
-6.71738
-5.20535
-3.57998
-1.84695
-0.0173039
1.89102
3.85156
5.82955
7.7851
9.67485
11.4559
13.0909
14.5516
15.8211
16.8945
17.7772
18.4823
19.0278
19.4339
19.7212
19.909
20.0148
20.0542
20.0402
19.9843
19.896
19.7832
19.6526
19.5098
19.3594
19.2051
19.0501
18.8969
18.7475
18.6035
18.4661
18.3363
18.2146
18.1015
17.9971
17.9014
17.8144
17.7358
17.6653
17.6025
17.547
17.4985
17.4563
17.42
17.3891
17.3632
17.3416
17.3241
17.3101
17.2993
17.2913
17.2857
17.2824
17.2809
17.2812
17.2831
17.2864
17.2911
17.2972
17.3047
17.3136
17.3241
17.3363
17.3502
17.3658
17.3825
17.3994
17.414
17.4212
17.4141
17.374
-7.67117
-7.74947
-7.84759
-7.93622
-8.00847
-8.06981
-8.12286
-8.16804
-8.20483
-8.23252
-8.2506
-8.25904
-8.2586
-8.25107
-8.2393
-8.22724
-8.21966
-8.22191
-8.23957
-8.27816
-8.34275
-8.43763
-8.56595
-8.7294
-8.92804
-9.16029
-9.42318
-9.71268
-10.0241
-10.3528
-10.694
-11.0436
-11.3978
-11.7533
-12.1077
-12.4585
-12.8041
-13.1429
-13.4738
-13.7961
-14.1089
-14.4118
-14.7045
-14.987
-15.259
-15.5207
-15.7722
-16.0138
-16.2457
-16.4683
-16.6819
-16.8869
-17.0837
-17.2727
-17.4543
-17.6289
-17.7968
-17.9583
-18.1137
-18.2633
-18.4073
-18.5458
-18.6788
-18.8065
-18.9288
-19.0456
-19.1568
-19.2621
-19.3613
-19.4541
-19.5399
-19.6183
-19.6887
-19.7505
-19.8028
-19.8449
-19.8758
-19.8944
-19.8995
-19.89
-19.8644
-19.8212
-19.7586
-19.675
-19.5681
-19.436
-19.2762
-19.086
-18.8627
-18.603
-18.3037
-17.9612
-17.5716
-17.1308
-16.6343
-16.0771
-15.454
-14.7595
-13.9874
-13.1317
-12.1857
-11.1429
-9.9971
-8.74239
-7.37371
-5.88782
-4.28436
-2.56755
-0.74708
1.16067
3.13014
5.1274
7.11091
9.03508
10.8542
12.5281
14.0262
15.3305
16.4358
17.3477
18.0799
18.651
19.0817
19.3928
19.6036
19.7318
19.7925
19.7988
19.7621
19.6917
19.5956
19.4805
19.3518
19.2144
19.0721
18.928
18.7848
18.6446
18.509
18.3795
18.2568
18.1418
18.0349
17.9362
17.8459
17.7639
17.69
17.6239
17.5653
17.5137
17.4687
17.4299
17.3967
17.3686
17.3452
17.3261
17.3107
17.2986
17.2894
17.2829
17.2785
17.2762
17.2755
17.2764
17.2786
17.282
17.2865
17.2921
17.2987
17.3063
17.3149
17.3246
17.3351
17.3462
17.3571
17.3664
17.3715
17.3673
17.3473
17.2956
-7.31035
-7.41813
-7.52229
-7.61626
-7.69115
-7.75091
-7.79988
-7.83961
-7.8705
-7.89276
-7.90679
-7.9134
-7.91419
-7.91165
-7.90922
-7.91115
-7.92231
-7.94784
-7.99282
-8.06196
-8.15927
-8.28777
-8.44919
-8.64388
-8.87074
-9.1274
-9.41048
-9.71595
-10.0395
-10.3767
-10.7236
-11.0764
-11.432
-11.7873
-12.1402
-12.4887
-12.8311
-13.1663
-13.4932
-13.8113
-14.1198
-14.4186
-14.7074
-14.9861
-15.2548
-15.5137
-15.7628
-16.0025
-16.2331
-16.4549
-16.6682
-16.8735
-17.0711
-17.2615
-17.4448
-17.6216
-17.7922
-17.9567
-18.1155
-18.2689
-18.4168
-18.5596
-18.6973
-18.8298
-18.9572
-19.0793
-19.196
-19.3071
-19.4124
-19.5113
-19.6036
-19.6887
-19.7661
-19.835
-19.8948
-19.9447
-19.9836
-20.0107
-20.0246
-20.0243
-20.0084
-19.9753
-19.9234
-19.8509
-19.756
-19.6364
-19.4898
-19.3135
-19.1049
-18.8608
-18.5781
-18.2532
-17.8822
-17.4612
-16.9856
-16.4507
-15.8511
-15.1814
-14.4354
-13.6068
-12.6889
-11.675
-10.5582
-9.33221
-7.99127
-6.53122
-4.95044
-3.25129
-1.44196
0.462084
2.43644
4.44734
6.45226
8.40352
10.253
11.9582
13.4869
14.8203
15.953
16.891
17.6486
18.2447
18.7003
19.0361
19.2713
19.4232
19.5068
19.5351
19.5191
19.4681
19.3901
19.2916
19.1784
19.0551
18.9257
18.7936
18.6613
18.5312
18.4049
18.2839
18.1692
18.0615
17.9614
17.8691
17.7848
17.7083
17.6396
17.5784
17.5243
17.477
17.436
17.4008
17.371
17.346
17.3255
17.3089
17.2959
17.2859
17.2786
17.2736
17.2706
17.2694
17.2697
17.2712
17.2738
17.2773
17.2816
17.2867
17.2924
17.2988
17.3056
17.3127
17.3199
17.3267
17.3321
17.3344
17.3309
17.3166
17.2858
17.2249
-6.99611
-7.07274
-7.19835
-7.30135
-7.37468
-7.43075
-7.47486
-7.50922
-7.53483
-7.55249
-7.56319
-7.56838
-7.57021
-7.57165
-7.57649
-7.58918
-7.6146
-7.65768
-7.72307
-7.81483
-7.9361
-8.08893
-8.27408
-8.49098
-8.73787
-9.01196
-9.30975
-9.62729
-9.96049
-10.3054
-10.6582
-11.0155
-11.3744
-11.7322
-12.0868
-12.4364
-12.7795
-13.115
-13.442
-13.76
-14.0684
-14.3671
-14.6559
-14.9348
-15.2039
-15.4634
-15.7135
-15.9544
-16.1865
-16.4102
-16.6258
-16.8336
-17.0342
-17.2277
-17.4146
-17.5952
-17.7698
-17.9387
-18.102
-18.2601
-18.4131
-18.561
-18.704
-18.842
-18.9751
-19.103
-19.2257
-19.343
-19.4545
-19.5599
-19.6588
-19.7507
-19.835
-19.9112
-19.9784
-20.0359
-20.0828
-20.118
-20.1405
-20.1491
-20.1424
-20.1189
-20.0771
-20.0153
-19.9315
-19.8235
-19.6891
-19.5257
-19.3307
-19.1009
-18.8333
-18.5244
-18.1704
-17.7672
-17.3106
-16.7957
-16.2173
-15.5698
-14.8472
-14.0431
-13.1507
-12.1629
-11.0725
-9.87264
-8.55716
-7.12109
-5.56179
-3.88033
-2.08342
-0.18541
1.79003
3.80899
5.8281
7.79798
9.66864
11.3958
12.9464
14.3014
15.4554
16.4152
17.1954
17.815
18.2949
18.6555
18.9157
19.0922
19.1999
19.2512
19.2571
19.2266
19.1677
19.0869
18.9901
18.8819
18.7665
18.6471
18.5267
18.4074
18.2912
18.1795
18.0734
17.9737
17.881
17.7957
17.7179
17.6476
17.5846
17.5287
17.4796
17.4369
17.4002
17.369
17.3429
17.3214
17.304
17.2903
17.2797
17.272
17.2668
17.2635
17.2621
17.2621
17.2634
17.2656
17.2687
17.2724
17.2766
17.2812
17.2861
17.2912
17.2962
17.3009
17.3049
17.3075
17.3077
17.3035
17.2923
17.2694
17.2295
17.161
-6.66577
-6.79131
-6.90734
-7.00332
-7.07437
-7.12757
-7.16816
-7.19859
-7.22026
-7.23444
-7.24259
-7.24655
-7.2488
-7.25259
-7.26187
-7.28117
-7.31531
-7.36907
-7.44679
-7.55211
-7.68767
-7.85491
-8.05406
-8.28408
-8.5429
-8.8276
-9.1347
-9.46035
-9.8006
-10.1517
-10.51
-10.8723
-11.2357
-11.5977
-11.9563
-12.3096
-12.6563
-12.9953
-13.3258
-13.6471
-13.9589
-14.261
-14.5531
-14.8355
-15.1081
-15.3713
-15.6251
-15.87
-16.1063
-16.3342
-16.5543
-16.7668
-16.9721
-17.1706
-17.3626
-17.5485
-17.7285
-17.9028
-18.0718
-18.2357
-18.3944
-18.5483
-18.6973
-18.8414
-18.9806
-19.1148
-19.2438
-19.3675
-19.4855
-19.5975
-19.7031
-19.8018
-19.8931
-19.9763
-20.0508
-20.1157
-20.1702
-20.2133
-20.2439
-20.2609
-20.2628
-20.2484
-20.216
-20.164
-20.0904
-19.9931
-19.8698
-19.7181
-19.5353
-19.3184
-19.0643
-18.7696
-18.4307
-18.0434
-17.6034
-17.1061
-16.5462
-15.9181
-15.2159
-14.433
-13.5626
-12.5975
-11.5303
-10.3535
-9.06065
-7.64599
-6.10608
-4.44104
-2.65656
-0.766113
1.20702
3.22865
5.25449
7.2338
9.11528
10.8539
12.4163
13.784
14.9524
15.9286
16.7276
17.3684
17.8714
18.2563
18.5414
18.743
18.8751
18.9501
18.9784
18.9691
18.93
18.8678
18.7881
18.6958
18.595
18.4892
18.3812
18.2735
18.1681
18.0663
17.9695
17.8784
17.7939
17.7161
17.6453
17.5816
17.5248
17.4747
17.4311
17.3935
17.3615
17.3347
17.3126
17.2948
17.2808
17.2701
17.2624
17.2572
17.2541
17.2528
17.253
17.2544
17.2567
17.2598
17.2634
17.2674
17.2715
17.2757
17.2798
17.2836
17.2869
17.2892
17.2902
17.2889
17.2842
17.2742
17.2561
17.2256
17.178
17.1034
-6.39247
-6.53037
-6.63978
-6.7318
-6.80326
-6.85626
-6.89528
-6.92319
-6.94197
-6.95335
-6.9591
-6.96132
-6.96269
-6.96654
-6.97689
-6.99823
-7.03531
-7.09278
-7.17486
-7.285
-7.42561
-7.59794
-7.80206
-8.03683
-8.30012
-8.58904
-8.90024
-9.22997
-9.57443
-9.92989
-10.2928
-10.66
-11.0284
-11.3957
-11.7596
-12.1185
-12.471
-12.8158
-13.1522
-13.4795
-13.7973
-14.1054
-14.4037
-14.6921
-14.9709
-15.2403
-15.5003
-15.7515
-15.994
-16.2283
-16.4548
-16.6737
-16.8854
-17.0904
-17.2889
-17.4813
-17.6678
-17.8487
-18.0242
-18.1946
-18.3599
-18.5203
-18.6759
-18.8265
-18.9723
-19.113
-19.2486
-19.3788
-19.5034
-19.6221
-19.7343
-19.8398
-19.9379
-20.028
-20.1095
-20.1816
-20.2433
-20.2939
-20.3321
-20.3568
-20.3668
-20.3607
-20.337
-20.2939
-20.2294
-20.1416
-20.0282
-19.8867
-19.7146
-19.5089
-19.2665
-18.9842
-18.6582
-18.2845
-17.8588
-17.3764
-16.8322
-16.2206
-15.5356
-14.7706
-13.9187
-12.9726
-11.9246
-10.7672
-9.49331
-8.09673
-6.57339
-4.92277
-3.14993
-1.26794
0.699892
2.71879
4.74352
6.72237
8.60349
10.342
11.9055
13.2765
14.4516
15.4386
16.2523
16.9115
17.4357
17.8439
18.1534
18.3796
18.5361
18.6348
18.6858
18.698
18.6792
18.6358
18.5737
18.4978
18.4122
18.3205
18.2256
18.1301
18.0359
17.9447
17.8578
17.776
17.7
17.6304
17.5672
17.5106
17.4605
17.4167
17.3789
17.3468
17.3199
17.2978
17.2801
17.2663
17.2559
17.2486
17.2438
17.2413
17.2406
17.2414
17.2433
17.2462
17.2498
17.2538
17.258
17.2623
17.2664
17.2703
17.2737
17.2763
17.2779
17.278
17.276
17.2711
17.2619
17.2465
17.2223
17.1852
17.1311
17.0514
-6.21191
-6.31474
-6.42608
-6.5206
-6.58874
-6.63685
-6.67109
-6.6945
-6.70905
-6.71646
-6.71851
-6.71734
-6.71562
-6.71666
-6.72441
-6.7433
-6.77796
-6.833
-6.91258
-7.02013
-7.15809
-7.32778
-7.52933
-7.76178
-8.02319
-8.31089
-8.62163
-8.95173
-9.29745
-9.6551
-10.0211
-10.3922
-10.7654
-11.1381
-11.5081
-11.8736
-12.2331
-12.5854
-12.9294
-13.2646
-13.5904
-13.9067
-14.2131
-14.5098
-14.7968
-15.0743
-15.3425
-15.6018
-15.8524
-16.0947
-16.329
-16.5558
-16.7753
-16.988
-17.1941
-17.394
-17.5879
-17.7762
-17.959
-18.1365
-18.309
-18.4764
-18.6389
-18.7964
-18.9489
-19.0964
-19.2387
-19.3756
-19.5068
-19.632
-19.7508
-19.8629
-19.9675
-20.0643
-20.1524
-20.2312
-20.2998
-20.3572
-20.4024
-20.4343
-20.4517
-20.4531
-20.437
-20.4017
-20.3453
-20.2657
-20.1608
-20.0281
-19.8651
-19.6689
-19.4364
-19.1643
-18.849
-18.4865
-18.0726
-17.6024
-17.071
-16.4726
-15.8014
-15.0506
-14.2134
-13.2822
-12.2494
-11.1071
-9.84801
-8.46556
-6.95534
-5.31652
-3.55401
-1.68102
0.278556
2.28901
4.3042
6.27193
8.14077
9.86716
11.4206
12.7854
13.9596
14.9515
15.7758
16.4503
16.9936
17.4234
17.7561
18.0061
18.1865
18.3085
18.3819
18.4156
18.4169
18.3926
18.3484
18.2891
18.2191
18.1419
18.0605
17.9777
17.8954
17.8152
17.7387
17.6666
17.5998
17.5388
17.4837
17.4347
17.3918
17.3547
17.3232
17.2969
17.2755
17.2585
17.2454
17.2359
17.2295
17.2257
17.2242
17.2245
17.2264
17.2294
17.2333
17.2378
17.2426
17.2476
17.2526
17.2572
17.2614
17.265
17.2677
17.2693
17.2693
17.2673
17.2626
17.2543
17.241
17.2208
17.1911
17.1483
17.0887
17.0047
-6.08497
-6.17786
-6.27767
-6.36246
-6.42218
-6.46275
-6.49008
-6.50716
-6.51577
-6.51742
-6.51379
-6.5069
-6.49934
-6.49436
-6.4958
-6.50801
-6.53557
-6.58303
-6.65457
-6.75369
-6.88299
-7.04399
-7.23715
-7.46184
-7.71638
-7.99832
-8.30453
-8.63151
-8.97561
-9.33315
-9.70053
-10.0744
-10.4517
-10.8297
-11.2061
-11.5788
-11.9461
-12.3069
-12.6599
-13.0044
-13.3399
-13.6659
-13.9822
-14.2888
-14.5858
-14.8731
-15.1512
-15.4201
-15.6803
-15.9321
-16.1757
-16.4116
-16.6401
-16.8616
-17.0764
-17.2847
-17.487
-17.6834
-17.8742
-18.0596
-18.2397
-18.4147
-18.5845
-18.7493
-18.9089
-19.0634
-19.2125
-19.3561
-19.494
-19.6258
-19.7511
-19.8696
-19.9807
-20.0838
-20.1783
-20.2635
-20.3384
-20.4023
-20.454
-20.4925
-20.5165
-20.5246
-20.5153
-20.4868
-20.4373
-20.3648
-20.267
-20.1417
-19.9862
-19.7978
-19.5733
-19.3095
-19.0027
-18.6491
-18.2443
-17.7836
-17.262
-16.6737
-16.0128
-15.2727
-14.4462
-13.5259
-12.5039
-11.3724
-10.1236
-8.75108
-7.25014
-5.62004
-3.86606
-2.00219
-0.0535683
1.94276
3.93969
5.88514
7.72917
9.43079
10.9625
12.3112
13.4766
14.4673
15.2975
15.984
16.544
16.9936
17.3481
17.621
17.8245
17.9693
18.0649
18.1198
18.1415
18.1364
18.1102
18.068
18.0139
17.9517
17.8845
17.8149
17.745
17.6765
17.611
17.5493
17.4923
17.4405
17.3941
17.3533
17.3181
17.2882
17.2635
17.2435
17.228
17.2165
17.2085
17.2036
17.2014
17.2015
17.2034
17.2069
17.2114
17.2168
17.2228
17.229
17.2353
17.2414
17.2471
17.2523
17.2566
17.26
17.2621
17.2626
17.2612
17.2572
17.2501
17.2386
17.2216
17.197
17.1625
17.1147
17.0504
16.9628
-6.01718
-6.08953
-6.18717
-6.26466
-6.31362