/*--------------------------------*- C++ -*----------------------------------*\
  =========                 |
  \\      /  F ield         | OpenFOAM: The Open Source CFD Toolbox
   \\    /   O peration     | Website:  https://openfoam.org
    \\  /    A nd           | Version:  9
     \\/     M anipulation  |
\*---------------------------------------------------------------------------*/
FoamFile
{
    format      ascii;
    class       volScalarField;
    location    "50";
    object      alphat;
}
// * * * * * * * * * * * * * * * * * * * * * * * * * * * * * * * * * * * * * //

dimensions      [1 -1 -1 0 0 0 0];

internalField   nonuniform List<scalar> 
4000
(
0.0025044
0.00277131
0.00297594
0.00311525
0.00321273
0.00328217
0.00333314
0.00337241
0.00340207
0.00342236
0.00342396
0.00340321
0.00337204
0.00332965
0.00327451
0.00320015
0.00309735
0.00295246
0.00274178
0.00246688
0.00253763
0.00289727
0.00317247
0.00337477
0.00352584
0.00363894
0.00372519
0.00379191
0.00384298
0.00387961
0.00387788
0.00383679
0.00378213
0.00371192
0.00362191
0.00350495
0.00335009
0.00314408
0.00286457
0.00249872
0.00254163
0.00293606
0.003239
0.00346775
0.00363995
0.00376751
0.00386156
0.00393012
0.00397729
0.00400631
0.00400108
0.00396536
0.00391347
0.00384145
0.00374457
0.00361463
0.00344047
0.00320966
0.00290304
0.00250218
0.00252274
0.00291698
0.0032231
0.0034575
0.00363433
0.00376334
0.00385399
0.00391414
0.00394941
0.00396657
0.00395897
0.00393387
0.00389327
0.00383003
0.00373766
0.00360791
0.00343079
0.00319536
0.00288535
0.00248365
0.00248489
0.00287756
0.00317675
0.00339623
0.00355407
0.00366331
0.00374184
0.00378402
0.00379969
0.00379775
0.00378513
0.00378017
0.00375952
0.00371486
0.00363792
0.00352863
0.00337069
0.0031504
0.00284823
0.00244706
0.00244568
0.00281203
0.00310826
0.00331568
0.00345778
0.0035481
0.00359638
0.00360402
0.00357838
0.00352854
0.0035076
0.00355139
0.00357502
0.00356755
0.00352175
0.00343312
0.00329206
0.00308567
0.00278652
0.00240998
0.00239967
0.00273188
0.00300643
0.00319985
0.00333023
0.00340034
0.00341632
0.00337798
0.00329095
0.00317505
0.00313456
0.00324193
0.0033352
0.00338042
0.00337121
0.00330713
0.00317876
0.00298709
0.00270987
0.00236645
0.00233646
0.00262859
0.00287295
0.00304658
0.00315978
0.00321342
0.00320245
0.00310707
0.002929
0.00269227
0.00257124
0.00284667
0.00304154
0.00315492
0.00318196
0.00313706
0.00302837
0.00285672
0.00260978
0.00230649
0.00223806
0.00248245
0.00268756
0.00283598
0.00293253
0.00297642
0.00295834
0.00285245
0.00262011
0.00223485
0.00216217
0.00247698
0.00277054
0.0029075
0.00294476
0.00291081
0.00281993
0.00267387
0.00246672
0.00221286
0.00208986
0.00225978
0.00240727
0.00252268
0.00260606
0.00265494
0.00266184
0.00261079
0.00248131
0.0022882
0.00218366
0.00239226
0.00254871
0.00262178
0.00262866
0.00258745
0.00250884
0.00239577
0.00224776
0.00207328
0.00277131
0.00307741
0.0033062
0.00346427
0.00357739
0.00366147
0.00372793
0.00378777
0.0038384
0.00387773
0.00388483
0.00384647
0.00379435
0.00373018
0.00365844
0.00356797
0.00344765
0.00328159
0.00304405
0.00272869
0.00289727
0.00633106
0.00813745
0.00965784
0.0109854
0.0121241
0.0131084
0.0139244
0.0146062
0.0151689
0.0152229
0.0146613
0.0139601
0.0131278
0.0121147
0.0109509
0.0096059
0.00807751
0.00627365
0.00284772
0.00293606
0.00825184
0.0110249
0.013281
0.0151699
0.0166709
0.0178034
0.0185964
0.0190914
0.0193664
0.0193646
0.0190795
0.0185743
0.0177802
0.0166373
0.0151262
0.0132309
0.0109731
0.00820185
0.00288329
0.00291698
0.00915208
0.0123717
0.0148497
0.0168192
0.0182622
0.0191829
0.0196527
0.0197726
0.0197091
0.0196545
0.0196849
0.0195594
0.0191086
0.0182046
0.016779
0.0148232
0.0123508
0.00912462
0.00286395
0.00287756
0.00901493
0.0123556
0.0148035
0.0166915
0.0180478
0.0186757
0.0187737
0.0185463
0.0181406
0.0179919
0.0183823
0.0186196
0.0185691
0.0179585
0.0166556
0.0148097
0.0123753
0.00901288
0.00282912
0.00281203
0.00843856
0.0115554
0.0136143
0.0150734
0.0160063
0.0163134
0.0161111
0.0155668
0.014762
0.0145732
0.0152904
0.0158557
0.016127
0.0158989
0.0150508
0.0136451
0.0116031
0.00846225
0.00276732
0.00273188
0.00763687
0.0103556
0.0119478
0.0129221
0.0134134
0.0133855
0.0128083
0.0118086
0.0106378
0.0103748
0.0112428
0.0124446
0.0131601
0.0133029
0.0129024
0.0119819
0.0104113
0.00767742
0.0026911
0.00262859
0.00673019
0.00895522
0.0101088
0.0106771
0.0108315
0.0105759
0.00983877
0.00852984
0.00720028
0.00688663
0.00796459
0.00943943
0.0103438
0.0107162
0.010647
0.0101297
0.00900203
0.00677326
0.00259212
0.00248245
0.00562022
0.00722086
0.00795572
0.00822365
0.00818854
0.00787632
0.00722125
0.00610361
0.0047733
0.00441827
0.00554336
0.00686904
0.00767581
0.00808479
0.00818239
0.00795349
0.00724288
0.00564743
0.00245103
0.00225978
0.00258151
0.00277984
0.00290139
0.00297009
0.00299304
0.00296456
0.00286443
0.00267476
0.00246174
0.00235272
0.00258099
0.00278195
0.00291333
0.0029601
0.00294706
0.00288376
0.00276429
0.00256449
0.00223579
0.00297594
0.0033062
0.0035396
0.00369906
0.0038141
0.00390315
0.00397634
0.00405822
0.00413278
0.00419313
0.00420632
0.00414982
0.00407412
0.00398579
0.00390672
0.00381043
0.00368728
0.00351892
0.00327613
0.00293682
0.00317247
0.00813745
0.0110025
0.0134243
0.0154567
0.0170648
0.0183598
0.0191144
0.0195238
0.0197513
0.0197741
0.0195782
0.0191825
0.0184604
0.0171045
0.0154439
0.0133715
0.0109301
0.008067
0.00312339
0.003239
0.0110249
0.0155215
0.0191212
0.0219748
0.0240129
0.0252635
0.0257768
0.0256789
0.0253955
0.0253278
0.0255803
0.0257039
0.0252492
0.0239946
0.0219407
0.0190676
0.0154561
0.0109575
0.00318454
0.0032231
0.0123717
0.0176621
0.021628
0.0245866
0.026477
0.0273028
0.027183
0.0263188
0.0253739
0.025183
0.0260034
0.026901
0.0271385
0.0263888
0.0245427
0.0216034
0.0176369
0.0123291
0.00316719
0.00317675
0.0123556
0.0178944
0.0217813
0.0245583
0.026163
0.0265643
0.0258536
0.0242813
0.0226999
0.0223727
0.0237442
0.0253641
0.0262528
0.0260013
0.0245053
0.0217955
0.0179171
0.0123326
0.00312634
0.00310826
0.0115554
0.0169336
0.0203916
0.0226127
0.0237245
0.0237041
0.0225583
0.0205509
0.0184604
0.0180011
0.019821
0.021933
0.023312
0.023534
0.022572
0.0204373
0.0169976
0.0115737
0.00306009
0.00300643
0.0103556
0.0151928
0.0180662
0.0196721
0.0202778
0.0199232
0.0186043
0.0164184
0.0139021
0.0133051
0.0155086
0.0179575
0.0195289
0.0200931
0.0196416
0.0181264
0.0152823
0.0104091
0.00296159
0.00287295
0.00895522
0.0129603
0.0151801
0.0162309
0.016439
0.0159015
0.0145937
0.0124812
0.00986111
0.00915137
0.0115368
0.0140064
0.0155376
0.0162687
0.0161991
0.0152335
0.0130514
0.00902328
0.00283208
0.00268756
0.00722086
0.0100112
0.011426
0.0119704
0.01193
0.0114051
0.0103612
0.00854853
0.00636481
0.00573736
0.00770888
0.00989994
0.011119
0.0117873
0.0119256
0.0114448
0.0100663
0.00727067
0.00265153
0.00240727
0.00277984
0.00300066
0.00312687
0.00318869
0.00319736
0.00314887
0.00302358
0.00283446
0.00261036
0.00249687
0.00273484
0.00293413
0.00309251
0.00316125
0.00316346
0.0031071
0.00298236
0.00275883
0.00237788
0.00311525
0.00346427
0.00369906
0.00385763
0.00397586
0.00407926
0.00416224
0.00423075
0.0042901
0.00433826
0.00435198
0.00430995
0.00425046
0.004178
0.00408864
0.00397745
0.00385095
0.00368331
0.00343893
0.00308061
0.00337477
0.00965784
0.0134243
0.0164799
0.0187245
0.0199377
0.0205722
0.0208866
0.0209906
0.0209844
0.0210079
0.0210704
0.0209967
0.0206829
0.0200168
0.0187485
0.0164407
0.0133513
0.00958391
0.00332962
0.00346775
0.013281
0.0191212
0.0234641
0.0264688
0.0281118
0.0285398
0.0282533
0.0275142
0.0267359
0.0266382
0.0273924
0.0281905
0.0285306
0.0281033
0.0264597
0.0234212
0.019052
0.0132059
0.00341684
0.0034575
0.0148497
0.021628
0.0263226
0.0294182
0.0309617
0.031004
0.0299417
0.0282106
0.026532
0.0262463
0.0277665
0.0295816
0.0307849
0.0308709
0.0293864
0.0263034
0.0215962
0.0147956
0.00340401
0.00339623
0.0148035
0.0217813
0.0263908
0.0293437
0.0307343
0.0305172
0.028861
0.0262829
0.0237346
0.0232411
0.0255102
0.028204
0.030088
0.0305358
0.0292908
0.0264023
0.0217894
0.0147588
0.00334787
0.00331568
0.0136143
0.0203916
0.0246643
0.0272212
0.0282918
0.0279203
0.0260255
0.0229654
0.0197179
0.0190146
0.0219269
0.025201
0.0274111
0.0280643
0.0271782
0.0247135
0.0204488
0.013612
0.00327027
0.00319985
0.0119478
0.0180662
0.0218227
0.023893
0.0246011
0.0240483
0.022259
0.0191645
0.0154701
0.0145655
0.0179454
0.0214055
0.0236151
0.0243953
0.0238692
0.0219008
0.0181655
0.0119905
0.00315609
0.00304658
0.0101088
0.0151801
0.018221
0.0197495
0.0201205
0.0194939
0.0178976
0.0150109
0.0113835
0.0103912
0.0137679
0.0170844
0.0190615
0.0199354
0.0197329
0.0183036
0.0152946
0.0101758
0.00300501
0.00283598
0.00795572
0.011426
0.0133518
0.014185
0.0142408
0.0136645
0.0124712
0.0100719
0.00733981
0.00655527
0.0090516
0.0117561
0.0133342
0.0140883
0.0141496
0.0133908
0.0115003
0.00800853
0.00279786
0.00252268
0.00290139
0.00312687
0.00325412
0.00331264
0.00331425
0.00325561
0.00312297
0.00295163
0.00272646
0.00261098
0.0028547
0.00304678
0.00319704
0.00327659
0.00328624
0.00323293
0.00310637
0.00287709
0.00248995
0.00321273
0.00357739
0.0038141
0.00397586
0.00410746
0.00419398
0.00425315
0.00430043
0.00434159
0.0043759
0.00439096
0.00436442
0.00432296
0.00427165
0.00420617
0.00411156
0.00397249
0.00380232
0.00355613
0.00318183
0.00352584
0.0109854
0.0154567
0.0187245
0.0203729
0.0211292
0.021394
0.0213551
0.0211314
0.0208769
0.0209224
0.0212655
0.0215359
0.0215741
0.0212745
0.0204621
0.0187186
0.0153917
0.0109126
0.00348454
0.00363995
0.0151699
0.0219748
0.0264688
0.0288968
0.0297311
0.029517
0.0285844
0.0272478
0.0260063
0.0259211
0.0271761
0.0286131
0.0296129
0.0298373
0.0289657
0.0264757
0.0219238
0.0150984
0.00359309
0.00363433
0.0168192
0.0245866
0.0294182
0.0320827
0.0328297
0.0321386
0.0303636
0.0279314
0.0256393
0.0252941
0.0274445
0.0300342
0.0319866
0.0328013
0.0321127
0.029443
0.0245733
0.0167684
0.0035847
0.00355407
0.0166915
0.0245583
0.0293437
0.0320553
0.0329165
0.03202
0.0296972
0.0263864
0.0230771
0.0224574
0.0254807
0.0290144
0.0316139
0.0327417
0.0320366
0.0293793
0.0245706
0.0166373
0.00350859
0.00345778
0.0150734
0.0226127
0.0272212
0.0298179
0.0307235
0.0299198
0.0275057
0.023755
0.0196498
0.0187715
0.0225184
0.0266003
0.0293942
0.0305159
0.0298048
0.027295
0.0226792
0.0150651
0.00341437
0.00333023
0.0129221
0.0196721
0.023893
0.0262369
0.0270318
0.0263898
0.0241541
0.0204086
0.0159627
0.0148738
0.0189992
0.0231838
0.0258701
0.026846
0.0262464
0.0240045
0.0197906
0.0129627
0.00328754
0.00315978
0.0106771
0.0162309
0.0197495
0.0216427
0.0222241
0.0216729
0.0197009
0.0162648
0.0120858
0.0109611
0.0148688
0.0187673
0.0211963
0.0220534
0.0216606
0.01987
0.0163696
0.0107444
0.00311826
0.00293253
0.00822365
0.0119704
0.014185
0.015239
0.0154257
0.0149141
0.0134125
0.0107781
0.00783178
0.00699
0.00971675
0.012662
0.0146426
0.0152917
0.0152257
0.0142482
0.0120611
0.00827644
0.00289347
0.00260606
0.00297009
0.00318869
0.00331264
0.00336825
0.00336593
0.00330285
0.00319128
0.00303297
0.00280952
0.00269328
0.00293834
0.00311985
0.00324464
0.00332772
0.00334129
0.00329052
0.00316651
0.00294331
0.00257126
0.00328217
0.00366147
0.00390315
0.00407926
0.00419398
0.00425506
0.00429071
0.00431679
0.00433882
0.00435918
0.00437905
0.00436807
0.00434272
0.00431083
0.00426849
0.00419965
0.00407585
0.00389364
0.00364306
0.00325406
0.00363894
0.0121241
0.0170648
0.0199377
0.0211292
0.0215353
0.0214537
0.0210546
0.0204815
0.0199643
0.0200801
0.0207288
0.0213511
0.0217367
0.0217679
0.0212921
0.0200141
0.0170166
0.0120525
0.00360031
0.00376751
0.0166709
0.0240129
0.0281118
0.0297311
0.0299279
0.0291117
0.0275885
0.025721
0.0240957
0.0241169
0.0258176
0.0278153
0.0294012
0.0302066
0.0299471
0.0282285
0.02401
0.0166117
0.00372365
0.00376334
0.0182622
0.026477
0.0309617
0.0328297
0.0329044
0.0316127
0.0292793
0.0263488
0.0236784
0.0233501
0.0259386
0.0290944
0.0316327
0.0330404
0.0329972
0.0310922
0.0265245
0.0182319
0.00371684
0.00366331
0.0180478
0.026163
0.0307343
0.0329165
0.0331469
0.0317418
0.0289602
0.0251983
0.0214909
0.020834
0.0243009
0.0283656
0.03147
0.0331057
0.0330013
0.0308566
0.0262365
0.0180176
0.00361979
0.0035481
0.0160063
0.0237245
0.0282918
0.0307235
0.031292
0.0301355
0.0273571
0.0232041
0.0187335
0.0177886
0.0219394
0.0264864
0.0296792
0.0311535
0.0307974
0.0284428
0.0238497
0.016023
0.00350618
0.00340034
0.0134134
0.0202778
0.0246011
0.0270318
0.0278598
0.0269915
0.0244425
0.0203452
0.0156415
0.0145073
0.0189087
0.0234658
0.0264853
0.0277073
0.0271101
0.0247843
0.0204519
0.0134784
0.00335934
0.00321342
0.0108315
0.016439
0.0201205
0.0222241
0.0230183
0.0223189
0.0200809
0.0163964
0.0121017
0.0109679
0.0150013
0.0191295
0.0218362
0.0228792
0.0223004
0.0203012
0.0166229
0.0109177
0.00317313
0.00297642
0.00818854
0.01193
0.0142408
0.0154257
0.0157249
0.0151762
0.013463
0.0108186
0.00791214
0.0070861
0.00980936
0.0127295
0.0148138
0.0156509
0.0154515
0.0143393
0.0120458
0.0082499
0.00293774
0.00265494
0.00299304
0.00319736
0.00331425
0.00336593
0.00336093
0.00330943
0.00322144
0.00307641
0.00285739
0.00274162
0.00298487
0.00315588
0.00326085
0.00332354
0.00333921
0.00329201
0.00317446
0.00296497
0.00261918
0.00333314
0.00372793
0.00397634
0.00416224
0.00425315
0.00429071
0.00430389
0.00430688
0.00430256
0.00430583
0.00433976
0.00435147
0.00434067
0.00432584
0.00430425
0.00425903
0.00415948
0.00396786
0.00371109
0.00330688
0.00372519
0.0131084
0.0183598
0.0205722
0.021394
0.0214537
0.0210077
0.020223
0.019267
0.0184474
0.0187226
0.0197257
0.020702
0.0214343
0.0217964
0.0216401
0.0207093
0.0183263
0.0130343
0.0036877
0.00386156
0.0178034
0.0252635
0.0285398
0.029517
0.0291117
0.0277112
0.0256375
0.0233414
0.0214885
0.0217454
0.023746
0.0261805
0.0282812
0.0296229
0.0299191
0.0287964
0.0253357
0.0177617
0.00381909
0.00385399
0.0191829
0.0273028
0.031004
0.0321386
0.0316127
0.0298089
0.0270582
0.023878
0.0211568
0.0209654
0.0236891
0.0271367
0.0300911
0.0319872
0.0325123
0.031298
0.0274519
0.0191867
0.0038092
0.00374184
0.0186757
0.0265643
0.0305172
0.03202
0.0317418
0.0299556
0.0268875
0.0229701
0.0192659
0.0187041
0.02226
0.0265169
0.0299099
0.0319141
0.0322993
0.0308005
0.0267561
0.0187257
0.00369593
0.00359638
0.0163134
0.0237041
0.0279203
0.0299198
0.0301355
0.028701
0.0257136
0.0214651
0.0170669
0.0162046
0.0203651
0.02502
0.0284135
0.0301541
0.0301337
0.0282104
0.0239484
0.0163935
0.0035541
0.00341632
0.0133855
0.0199232
0.0240483
0.0263898
0.0269915
0.0259156
0.0232084
0.0190898
0.0145611
0.0135154
0.0178108
0.0223659
0.0255235
0.0269492
0.0265822
0.0243567
0.0202036
0.0135094
0.0033763
0.00320245
0.0105759
0.0159015
0.0194939
0.0216729
0.0223189
0.0214554
0.019124
0.0155203
0.0114782
0.010441
0.0142801
0.0182825
0.0210475
0.0222532
0.0218354
0.0197676
0.0161653
0.0107084
0.00316489
0.00295834
0.00787632
0.0114051
0.0136645
0.0149141
0.0151762
0.0144094
0.0127212
0.0102825
0.00761883
0.00686834
0.00940715
0.0120901
0.0140813
0.0151001
0.0150044
0.0138167
0.0115635
0.00796209
0.00292241
0.00266184
0.00296456
0.00314887
0.00325561
0.00330285
0.00330943
0.00328247
0.00321206
0.0030788
0.00286653
0.0027526
0.00299125
0.00315198
0.00324045
0.00327841
0.00327792
0.00323477
0.00312708
0.00293729
0.0026269
0.00337241
0.00378777
0.00405822
0.00423075
0.00430043
0.00431679
0.00430688
0.00427593
0.00419576
0.0040367
0.00418543
0.00431885
0.004332
0.00433342
0.00433006
0.00430545
0.00422744
0.00404576
0.00377051
0.00334705
0.00379191
0.0139244
0.0191144
0.0208866
0.0213551
0.0210546
0.020223
0.0190222
0.0176352
0.0163297
0.0169372
0.0184389
0.0197594
0.0208362
0.0215293
0.0216936
0.0210882
0.0191718
0.0138539
0.00375414
0.00393012
0.0185964
0.0257768
0.0282533
0.0285844
0.0275885
0.0256375
0.0231191
0.0207117
0.0191254
0.0195632
0.0213954
0.0240256
0.0265385
0.0283655
0.0291934
0.0286644
0.0259605
0.0185769
0.00388742
0.00391414
0.0196527
0.027183
0.0299417
0.0303636
0.0292793
0.0270582
0.024079
0.0209863
0.0186485
0.0186747
0.0211023
0.0244882
0.02765
0.0299276
0.0309756
0.0304312
0.0274635
0.0196913
0.00386944
0.00378402
0.0187737
0.0258536
0.028861
0.0296972
0.0289602
0.0268875
0.0237162
0.0199398
0.0166091
0.0162892
0.019599
0.0236967
0.0271454
0.0293995
0.0302228
0.0293616
0.0262062
0.0188591
0.00373885
0.00360402
0.0161111
0.0225583
0.0260255
0.0275057
0.0273571
0.0257136
0.0226978
0.0186376
0.0146352
0.0140696
0.0179293
0.022347
0.0257022
0.0276121
0.0279379
0.0265236
0.0229757
0.0162558
0.0035625
0.00337798
0.0128083
0.0186043
0.022259
0.0241541
0.0244425
0.0232084
0.0205516
0.0167399
0.0127301
0.0119323
0.0158297
0.0200074
0.0230432
0.0245875
0.0245187
0.0227325
0.0190375
0.0130269
0.00334032
0.00310707
0.00983877
0.0145937
0.0178976
0.0197009
0.0200809
0.019124
0.0169364
0.0137313
0.010239
0.00941658
0.0128085
0.0163457
0.0188941
0.0201526
0.0199877
0.0182976
0.0149806
0.0100611
0.00307539
0.00285245
0.00722125
0.0103612
0.0124712
0.0134125
0.013463
0.0127212
0.0112741
0.00922483
0.00696911
0.0063585
0.00856384
0.0108246
0.0125171
0.0134694
0.0135703
0.0127084
0.0105877
0.00735791
0.00282365
0.00261079
0.00286443
0.00302358
0.00312297
0.00319128
0.00322144
0.00321206
0.00315514
0.00303268
0.00282995
0.00272085
0.00295163
0.00310115
0.00317587
0.00319594
0.00317176
0.00310611
0.00300588
0.00284134
0.00257947
0.00340207
0.0038384
0.00413278
0.0042901
0.00434159
0.00433882
0.00430256
0.00419576
0.00381414
0.00371139
0.00385652
0.00417914
0.00431401
0.00433974
0.00435236
0.00434521
0.00428544
0.00411863
0.00382079
0.00337708
0.00384298
0.0146062
0.0195238
0.0209906
0.0211314
0.0204815
0.019267
0.0176352
0.0155763
0.0120286
0.0139451
0.0170777
0.0186907
0.0200896
0.0210952
0.0215613
0.0212474
0.019609
0.0145219
0.00380351
0.00397729
0.0190914
0.0256789
0.0275142
0.0272478
0.025721
0.0233414
0.0207117
0.0190012
0.0182685
0.0187258
0.019507
0.0217945
0.0245271
0.0267438
0.02805
0.0280664
0.0259472
0.0190846
0.00393314
0.00394941
0.0197726
0.0263188
0.0282106
0.0279314
0.0263488
0.023878
0.0209863
0.0185114
0.0172243
0.0172743
0.0187802
0.0216453
0.0247315
0.0272456
0.0287704
0.0288893
0.0267238
0.0198408
0.00390381
0.00379969
0.0185463
0.0242813
0.0262829
0.0263864
0.0251983
0.0229701
0.0199398
0.0166278
0.0140491
0.0140183
0.0167576
0.0203165
0.0235445
0.0259127
0.027166
0.0270105
0.0247883
0.0186703
0.00375414
0.00357838
0.0155668
0.0205509
0.0229654
0.023755
0.0232041
0.0214651
0.0186376
0.0150265
0.0117838
0.0116574
0.0149749
0.0187716
0.0218077
0.0237466
0.0244444
0.0236999
0.0211458
0.0157819
0.0035373
0.00329095
0.0118086
0.0164184
0.0191645
0.0204086
0.0203452
0.0190898
0.0167399
0.0135113
0.0102572
0.00992969
0.013199
0.0166425
0.0192468
0.0207408
0.0209889
0.0198383
0.0170381
0.0121384
0.00325653
0.002929
0.00852984
0.0124812
0.0150109
0.0162648
0.0163964
0.0155203
0.0137313
0.0111706
0.00842599
0.0079948
0.0107397
0.0135151
0.0155566
0.0166633
0.0167101
0.0155571
0.0130185
0.00890188
0.00290829
0.00262011
0.00610361
0.00854853
0.0100719
0.0107781
0.0108186
0.0102825
0.00922483
0.0076861
0.0059579
0.00558715
0.00733171
0.00902048
0.0102548
0.0109486
0.0110305
0.0103958
0.00887135
0.00632401
0.00260843
0.00248131
0.00267476
0.00283446
0.00295163
0.00303297
0.00307641
0.0030788
0.00303268
0.00292108
0.00273049
0.00263684
0.00285418
0.00298824
0.00304998
0.0030573
0.00301938
0.00294004
0.00282129
0.00265653
0.00245761
0.00342236
0.00387773
0.00419313
0.00433826
0.0043759
0.00435918
0.00430583
0.0040367
0.00371139
0.00353932
0.00372953
0.00399756
0.0042882
0.00434931
0.00437184
0.00437759
0.00433172
0.00417699
0.00385903
0.00339708
0.00387961
0.0151689
0.0197513
0.0209844
0.0208769
0.0199643
0.0184474
0.0163297
0.0120286
0.00666495
0.00803365
0.015894
0.0178208
0.0194463
0.020681
0.0213716
0.0212778
0.0198481
0.0150613
0.00383762
0.00400631
0.0193664
0.0253955
0.0267359
0.0260063
0.0240957
0.0214885
0.0191254
0.0182685
0.0151342
0.017104
0.018475
0.0200911
0.0228285
0.0252853
0.0269425
0.0273831
0.0257169
0.0193645
0.00396016
0.00396657
0.0197091
0.0253739
0.026532
0.0256393
0.0236784
0.0211568
0.0186485
0.0172243
0.017348
0.017124
0.017316
0.0193611
0.0221449
0.0247385
0.0266419
0.0273425
0.0258612
0.0197952
0.00391953
0.00379775
0.0181406
0.0226999
0.0237346
0.0230771
0.0214909
0.0192659
0.0166091
0.0140491
0.012391
0.0125422
0.0144929
0.0172656
0.020064
0.0224149
0.0240565
0.0246249
0.0233135
0.0183003
0.0037517
0.00352854
0.014762
0.0184604
0.0197179
0.0196498
0.0187335
0.0170669
0.0146352
0.0117838
0.0094806
0.00976753
0.01231
0.0152142
0.0177035
0.0195148
0.0205514
0.0206223
0.0191798
0.0150545
0.00348815
0.00317505
0.0106378
0.0139021
0.0154701
0.0159627
0.0156415
0.0145611
0.0127301
0.0102572
0.00788153
0.00815771
0.0105776
0.013062
0.0150081
0.0162541
0.0167239
0.0162965
0.0146372
0.0110485
0.00314385
0.00269227
0.00720028
0.00986111
0.0113835
0.0120858
0.0121017
0.0114782
0.010239
0.00842599
0.00647769
0.00661134
0.00854717
0.0103981
0.0117582
0.0125279
0.0126411
0.0120127
0.0104597
0.00759344
0.00268947
0.00223485
0.0047733
0.00636481
0.00733981
0.00783178
0.00791214
0.00761883
0.00696911
0.0059579
0.00475121
0.00476728
0.00595989
0.00701075
0.00774201
0.00812327
0.0081174
0.00766904
0.00668377
0.00499542
0.00223648
0.0022882
0.00246174
0.00261036
0.00272646
0.00280952
0.00285739
0.00286653
0.00282995
0.00273049
0.0025476
0.00250453
0.00269233
0.00280091
0.00284754
0.00284579
0.00280246
0.00272095
0.00260327
0.00245027
0.00227254
0.00342396
0.00388483
0.00420632
0.00435198
0.00439096
0.00437905
0.00433976
0.00418543
0.00385652
0.00372953
0.00390245
0.00416324
0.0043274
0.00436131
0.00438247
0.00438911
0.00434462
0.00419091
0.00386646
0.00339864
0.00387788
0.0152229
0.0197741
0.0210079
0.0209224
0.0200801
0.0187226
0.0169372
0.0139451
0.00803365
0.00953142
0.0161684
0.0180225
0.0195341
0.020701
0.0213715
0.0212819
0.0198675
0.0151355
0.00383649
0.00400108
0.0193646
0.0253278
0.0266382
0.0259211
0.0241169
0.0217454
0.0195632
0.0187258
0.017104
0.0185746
0.0188158
0.0203487
0.0228431
0.0251505
0.0267707
0.0272353
0.0256224
0.0193629
0.0039546
0.00395897
0.0196545
0.025183
0.0262463
0.0252941
0.0233501
0.0209654
0.0186747
0.0172743
0.017124
0.0167973
0.0172427
0.019169
0.0217716
0.0242804
0.0261984
0.0269799
0.0256161
0.0197215
0.00391023
0.00378513
0.0179919
0.0223727
0.0232411
0.0224574
0.020834
0.0187041
0.0162892
0.0140183
0.0125422
0.0125483
0.0142562
0.0167502
0.0193428
0.0216163
0.023306
0.024017
0.0229005
0.0181089
0.00373546
0.0035076
0.0145732
0.0180011
0.0190146
0.0187715
0.0177886
0.0162046
0.0140696
0.0116574
0.00976753
0.00987286
0.0119523
0.0144433
0.0166698
0.0183902
0.0194916
0.0197562
0.0186007
0.0148087
0.00346099
0.00313457
0.0103748
0.0133051
0.0145655
0.0148738
0.0145073
0.0135154
0.0119323
0.00992969
0.00815771
0.00820639
0.0100726
0.0121085
0.0137718
0.0148901
0.0153898
0.0151677
0.0138789
0.010716
0.00309281
0.00257124
0.00688663
0.00915137
0.0103912
0.0109611
0.0109679
0.010441
0.00941658
0.0079948
0.00661134
0.0065631
0.00799318
0.00943777
0.0105238
0.0111436
0.0112389
0.0107538
0.00954337
0.00718506
0.00254399
0.00216217
0.00441827
0.00573736
0.00655527
0.00699
0.00708609
0.00686834
0.0063585
0.00558715
0.00476728
0.00467759
0.00552293
0.00630226
0.00684121
0.00710309
0.00705529
0.00666251
0.00586768
0.00453044
0.00214475
0.00218366
0.00235272
0.00249687
0.00261098
0.00269328
0.00274162
0.0027526
0.00272085
0.00263684
0.00250453
0.00244719
0.00258443
0.00267187
0.00270931
0.00270335
0.00265855
0.00257772
0.00246262
0.00231552
0.002143
0.00340321
0.00384647
0.00414982
0.00430995
0.00436442
0.00436807
0.00435147
0.00431885
0.00417914
0.00399756
0.00416324
0.00433216
0.00435112
0.00435825
0.00436962
0.00436356
0.00430453
0.00413715
0.00382917
0.00337793
0.00383679
0.0146613
0.0195782
0.0210704
0.0212655
0.0207288
0.0197257
0.0184389
0.0170777
0.015894
0.0161684
0.0177685
0.0191015
0.0203039
0.0212003
0.021619
0.0212912
0.0196555
0.0146036
0.00379749
0.00396536
0.0190795
0.0255803
0.0273924
0.0271761
0.0258176
0.023746
0.0213954
0.019507
0.018475
0.0188158
0.01996
0.0221747
0.0245972
0.026596
0.0278128
0.0278341
0.0257849
0.0190662
0.00391968
0.00393388
0.0196849
0.0260034
0.0277665
0.0274445
0.0259386
0.0236891
0.0211023
0.0187802
0.017316
0.0172427
0.0188097
0.0214448
0.0242419
0.0265761
0.0280621
0.0282627
0.0262779
0.0197073
0.00388422
0.00378017
0.0183823
0.0237442
0.0255102
0.0254807
0.0243009
0.02226
0.019599
0.0167576
0.0144929
0.0142562
0.0165779
0.0196586
0.0225191
0.0247054
0.0259638
0.0259746
0.0240504
0.0184228
0.00372765
0.00355139
0.0152904
0.019821
0.0219269
0.0225184
0.0219394
0.0203651
0.0179293
0.0149749
0.01231
0.0119523
0.0146129
0.0177469
0.020351
0.0220998
0.0228268
0.0223191
0.0201531
0.0153575
0.00349848
0.00324193
0.0112428
0.0155086
0.0179454
0.0189992
0.0189087
0.0178108
0.0158297
0.013199
0.0105776
0.0100726
0.0125961
0.0153966
0.0175737
0.0188652
0.0191321
0.0182154
0.0158244
0.011425
0.00318973
0.00284667
0.00796459
0.0115368
0.0137679
0.0148688
0.0150013
0.0142801
0.0128085
0.0107397
0.00854717
0.00799318
0.0100755
0.0122913
0.0139382
0.0148295
0.0148528
0.0138851
0.0117383
0.00812992
0.00279724
0.00247698
0.00554336
0.00770888
0.0090516
0.00971675
0.00980936
0.00940715
0.00856384
0.00733171
0.00595989
0.00552293
0.00682827
0.00815596
0.00911255
0.00961731
0.00961276
0.00902119
0.00773385
0.00557132
0.00241758
0.00239226
0.00258099
0.00273484
0.0028547
0.00293834
0.00298487
0.00299125
0.00295163
0.00285418
0.00269233
0.00258443
0.0027605
0.00287739
0.00293106
0.00293353
0.00289207
0.00281008
0.00268803
0.00253197
0.00233987
0.00337204
0.00379435
0.00407412
0.00425046
0.00432296
0.00434272
0.00434067
0.004332
0.00431401
0.0042882
0.0043274
0.00435112
0.0043477
0.0043483
0.00434724
0.00432452
0.00424695
0.00406342
0.00377735
0.00334648
0.00378213
0.0139601
0.0191825
0.0209967
0.0215359
0.0213511
0.020702
0.0197594
0.0186907
0.0178208
0.0180225
0.0191015
0.020196
0.0211052
0.0216934
0.0217974
0.0211605
0.0192357
0.0139135
0.00374398
0.00391347
0.0185743
0.0257039
0.0281905
0.0286131
0.0278153
0.0261805
0.0240256
0.0217945
0.0200911
0.0203487
0.0221747
0.0245499
0.0267491
0.0283422
0.0290405
0.0284754
0.0258167
0.0185437
0.00386826
0.00389327
0.0195594
0.026901
0.0295816
0.0300342
0.0290944
0.0271367
0.0244882
0.0216453
0.0193611
0.019169
0.0214448
0.0245515
0.0274035
0.0294526
0.0303902
0.0298569
0.0270284
0.0195426
0.00384315
0.00375952
0.0186196
0.0253641
0.028204
0.0290144
0.0283656
0.0265169
0.0236967
0.0203165
0.0172656
0.0167502
0.0196586
0.0233261
0.0264229
0.0284596
0.0292051
0.0284021
0.0254742
0.018625
0.00370594
0.00357502
0.0158557
0.021933
0.025201
0.0266003
0.0264864
0.02502
0.022347
0.0187716
0.0152142
0.0144433
0.0177469
0.0216123
0.0246056
0.0263323
0.0266334
0.025337
0.0220641
0.0158569
0.00352127
0.0033352
0.0124446
0.0179575
0.0214055
0.0231838
0.0234658
0.0223659
0.0200074
0.0166425
0.013062
0.0121085
0.0153966
0.0190662
0.0217716
0.023169
0.0231196
0.0214984
0.0181002
0.0124998
0.00327944
0.00304154
0.00943943
0.0140064
0.0170844
0.0187673
0.0191295
0.0182825
0.0163457
0.0135151
0.0103981
0.00943777
0.0122913
0.015393
0.0176492
0.0187764
0.0186386
0.0171195
0.014116
0.009496
0.00298328
0.00277054
0.00686904
0.00989994
0.0117561
0.012662
0.0127295
0.0120901
0.0108246
0.00902048
0.00701074
0.00630226
0.00815596
0.0101302
0.0116036
0.0124234
0.0124945
0.0116915
0.00992679
0.0068657
0.0027101
0.00254871
0.00278195
0.00293413
0.00304678
0.00311985
0.00315588
0.00315198
0.00310115
0.00298824
0.00280091
0.00267187
0.00287739
0.00301804
0.00308752
0.00310243
0.00307211
0.00300061
0.002882
0.00272882
0.0024956
0.00332965
0.00373018
0.00398579
0.004178
0.00427165
0.00431083
0.00432584
0.00433342
0.00433974
0.00434931
0.00436131
0.00435825
0.0043483
0.00433722
0.00431898
0.00427561
0.00417595
0.00397729
0.00371305
0.00330332
0.00371192
0.0131278
0.0184604
0.0206829
0.0215741
0.0217367
0.0214343
0.0208362
0.0200896
0.0194463
0.0195341
0.0203039
0.0211052
0.0217056
0.0219749
0.0217567
0.020793
0.0184767
0.0130828
0.0036738
0.00384145
0.0177802
0.0252492
0.0285306
0.0296129
0.0294012
0.0282812
0.0265385
0.0245271
0.0228285
0.0228431
0.0245972
0.0267491
0.0285716
0.0296932
0.0298499
0.028675
0.0252874
0.017733
0.00379595
0.00383003
0.0191086
0.0271385
0.0307849
0.0319866
0.0316327
0.0300911
0.02765
0.0247315
0.0221449
0.0217716
0.0242419
0.0274035
0.0300671
0.0317305
0.0321159
0.0308802
0.0271649
0.0190608
0.00377921
0.00371486
0.0185691
0.0262528
0.030088
0.0316139
0.03147
0.0299099
0.0271454
0.0235445
0.020064
0.0193428
0.0225191
0.0264229
0.0295175
0.0313081
0.0315734
0.0300875
0.0262361
0.0185363
0.00365959
0.00356755
0.016127
0.023312
0.0274111
0.0293942
0.0296792
0.0284135
0.0257022
0.0218077
0.0177035
0.0166698
0.020351
0.0246056
0.0277252
0.0293086
0.0292374
0.027369
0.023298
0.0160689
0.00351344
0.00338042
0.0131601
0.0195289
0.0236151
0.0258701
0.0264853
0.0255235
0.0230432
0.0192468
0.0150081
0.0137718
0.0175737
0.0217716
0.0247094
0.0260406
0.025691
0.0235952
0.0195493
0.0131349
0.00332453
0.00315492
0.0103438
0.0155376
0.0190615
0.0211963
0.0218362
0.0210475
0.0188941
0.0155566
0.0117582
0.0105238
0.0139382
0.0176492
0.0202435
0.0213951
0.0210182
0.0190587
0.0155708
0.0103401
0.00309623
0.0029075
0.00767581
0.011119
0.0133342
0.0146426
0.0148138
0.0140813
0.0125171
0.0102548
0.00774201
0.00684121
0.00911255
0.0116036
0.013472
0.0144679
0.014481
0.013275
0.0111069
0.00765364
0.00284987
0.00262178
0.00291333
0.00309251
0.00319704
0.00324464
0.00326085
0.00324045
0.00317587
0.00304998
0.00284754
0.00270931
0.00293106
0.00308752
0.00317235
0.00320454
0.00319409
0.00315038
0.00304666
0.00286489
0.00257154
0.00327451
0.00365844
0.00390672
0.00408864
0.00420617
0.00426849
0.00430425
0.00433006
0.00435236
0.00437184
0.00438247
0.00436962
0.00434724
0.00431898
0.00427932
0.00421165
0.00408717
0.00389735
0.00363974
0.00324665
0.00362191
0.0121147
0.0171045
0.0200168
0.0212745
0.0217679
0.0217964
0.0215293
0.0210952
0.020681
0.020701
0.0212003
0.0216934
0.0219749
0.0219265
0.0213924
0.020081
0.0171015
0.0120676
0.00358252
0.00374457
0.0166373
0.0239946
0.0281033
0.0298373
0.0302066