/*--------------------------------*- C++ -*----------------------------------*\
  =========                 |
  \\      /  F ield         | OpenFOAM: The Open Source CFD Toolbox
   \\    /   O peration     | Website:  https://openfoam.org
    \\  /    A nd           | Version:  9
     \\/     M anipulation  |
\*---------------------------------------------------------------------------*/
FoamFile
{
    format      ascii;
    class       volScalarField;
    location    "50";
    object      nut;
}
// * * * * * * * * * * * * * * * * * * * * * * * * * * * * * * * * * * * * * //

dimensions      [0 2 -1 0 0 0 0];

internalField   nonuniform List<scalar> 
4000
(
0.00216092
0.00239142
0.00256813
0.00268842
0.00277258
0.00283255
0.00287656
0.00291047
0.00293608
0.00295359
0.00295495
0.00293701
0.00291008
0.00287347
0.00282585
0.00276164
0.00267287
0.00254777
0.00236584
0.00212844
0.00218972
0.00250026
0.00273788
0.00291253
0.00304295
0.00314058
0.00321502
0.00327261
0.00331668
0.00334828
0.00334677
0.0033113
0.00326411
0.00320351
0.00312581
0.00302484
0.00289115
0.00271328
0.00247195
0.00215604
0.00219325
0.00253383
0.00279541
0.00299289
0.00314154
0.00325164
0.0033328
0.00339196
0.00343266
0.00345769
0.00345316
0.00342233
0.00337755
0.00331539
0.00323177
0.00311961
0.00296926
0.00276999
0.00250523
0.0021591
0.00217701
0.00251744
0.00278178
0.00298414
0.00313679
0.00324814
0.00332636
0.00337826
0.00340868
0.00342347
0.00341689
0.00339524
0.00336021
0.00330564
0.00322591
0.00311392
0.00296101
0.00275775
0.00249005
0.00214318
0.00214439
0.00248349
0.00274185
0.00293136
0.00306761
0.0031619
0.00322967
0.00326605
0.00327954
0.00327785
0.00326694
0.00326267
0.00324487
0.00320633
0.00313993
0.00304559
0.00290924
0.00271903
0.00245808
0.00211165
0.00211059
0.00242697
0.00268281
0.00286191
0.00298459
0.00306255
0.0031042
0.00311077
0.00308862
0.00304557
0.00302748
0.0030653
0.00308571
0.00307928
0.00303975
0.00296324
0.00284145
0.00266322
0.00240487
0.0020797
0.00207092
0.00235783
0.00259495
0.00276199
0.00287456
0.00293509
0.00294886
0.00291575
0.00284059
0.00274053
0.00270557
0.00279826
0.00287879
0.00291784
0.0029099
0.00285457
0.00274371
0.00257817
0.00233875
0.00204217
0.00201641
0.0022687
0.00247975
0.00262971
0.00272749
0.0027738
0.00276432
0.00268196
0.00252822
0.00232384
0.00221935
0.00245713
0.00262537
0.00272325
0.0027466
0.00270781
0.00261393
0.00246567
0.00225238
0.00199047
0.0019315
0.00214255
0.0023197
0.0024479
0.00253131
0.00256923
0.00255363
0.00246221
0.00226162
0.00192896
0.00186619
0.00213803
0.00239148
0.00250971
0.00254185
0.00251251
0.002434
0.00230782
0.00212891
0.00190969
0.00180354
0.00195027
0.00207764
0.00217731
0.00224934
0.00229158
0.00229755
0.00225348
0.00214168
0.00197494
0.00188468
0.00206477
0.00219986
0.00226293
0.00226885
0.00223324
0.00216533
0.00206767
0.00193984
0.00178919
0.00239142
0.0026557
0.00285322
0.0029897
0.00308737
0.00315997
0.00321735
0.00326901
0.00331272
0.00334666
0.00335274
0.00331959
0.00327458
0.00321917
0.00315723
0.00307912
0.00297523
0.00283187
0.00262679
0.00235451
0.00250026
0.00546376
0.00702286
0.00833508
0.00948083
0.0104636
0.011313
0.0120172
0.0126055
0.0130911
0.0131376
0.0126529
0.0120477
0.0113295
0.0104551
0.00945075
0.00828998
0.00697087
0.00541398
0.00245737
0.00253383
0.00712165
0.00951508
0.0114623
0.0130925
0.0143878
0.015365
0.0160493
0.0164764
0.0167136
0.0167119
0.0164659
0.01603
0.0153448
0.0143586
0.0130545
0.0114188
0.00947003
0.0070782
0.00248816
0.00251744
0.00789881
0.0106777
0.0128165
0.0145163
0.0157615
0.016556
0.0169612
0.0170646
0.0170095
0.0169624
0.0169887
0.0168805
0.0164917
0.0157115
0.0144813
0.0127933
0.0106594
0.00787478
0.00247154
0.00248349
0.00778062
0.0106641
0.012777
0.0144065
0.015577
0.0161187
0.0162031
0.0160066
0.0156563
0.0155279
0.0158649
0.01607
0.0160265
0.0154996
0.0143752
0.012782
0.0106807
0.00777852
0.00244155
0.00242697
0.00728329
0.00997371
0.0117509
0.0130103
0.0138154
0.0140804
0.0139056
0.0134355
0.0127407
0.0125777
0.0131969
0.0136849
0.0139193
0.0137225
0.0129905
0.0117771
0.0100145
0.00730344
0.00238826
0.00235783
0.00659145
0.00893828
0.0103127
0.0111537
0.0115778
0.0115536
0.0110552
0.0101922
0.00918141
0.00895431
0.00970375
0.0107412
0.0113589
0.0114821
0.0111364
0.0103419
0.00898606
0.00662618
0.00232251
0.0022687
0.00580891
0.00772959
0.00872545
0.00921611
0.00934938
0.00912878
0.00849239
0.00736242
0.0062146
0.00594379
0.00687442
0.00814758
0.00892823
0.00924975
0.00918996
0.00874331
0.00776975
0.00584586
0.00223711
0.00214255
0.00485084
0.00623254
0.00686699
0.00709837
0.00706813
0.00679864
0.00623316
0.00526833
0.00411987
0.00381336
0.00478463
0.00592905
0.00662545
0.00697844
0.0070626
0.00686488
0.00625136
0.00487416
0.00211534
0.00195027
0.00222799
0.00239922
0.00250417
0.00256351
0.00258335
0.00255879
0.00247236
0.0023086
0.0021247
0.00203057
0.00222762
0.00240112
0.00251452
0.00255488
0.00254359
0.0024889
0.00238574
0.00221324
0.0019295
0.00256813
0.00285322
0.00305472
0.00319239
0.00329171
0.00336861
0.00343182
0.00350252
0.00356688
0.00361896
0.00363028
0.00358146
0.00351608
0.00343982
0.00337153
0.0032884
0.00318207
0.00303673
0.00282713
0.00253422
0.00273788
0.00702286
0.00949551
0.0115856
0.0133397
0.0147274
0.0158449
0.0164961
0.0168494
0.0170455
0.017065
0.016896
0.0165544
0.0159314
0.0147612
0.0133281
0.0115397
0.0094327
0.00696175
0.00269538
0.00279541
0.00951508
0.0133959
0.0165025
0.0189651
0.0207238
0.0218029
0.0222456
0.0221608
0.0219161
0.0218575
0.0220755
0.0221824
0.0217901
0.0207076
0.0189352
0.0164558
0.013339
0.00945652
0.00274826
0.00278178
0.0106777
0.0152437
0.0186664
0.0212197
0.0228509
0.0235632
0.0234595
0.0227133
0.0218976
0.0217328
0.022441
0.0232159
0.0234211
0.0227744
0.0211814
0.0186448
0.0152215
0.0106406
0.00273338
0.00274185
0.0106641
0.0154447
0.0187993
0.0211959
0.0225806
0.0229266
0.0223128
0.0209556
0.0195905
0.019308
0.0204919
0.0218902
0.0226575
0.0224407
0.0211498
0.0188111
0.0154637
0.0106438
0.0026982
0.00268281
0.00997371
0.0146157
0.0176004
0.0195173
0.0204766
0.0204588
0.0194696
0.0177366
0.0159321
0.0155356
0.0171065
0.0189296
0.0201201
0.0203119
0.0194818
0.0176393
0.0146705
0.00998907
0.00264109
0.00259495
0.00893828
0.0131134
0.0155936
0.0169797
0.0175023
0.0171961
0.0160575
0.0141706
0.0119984
0.0114831
0.0133852
0.015499
0.0168556
0.0173426
0.0169529
0.0156451
0.0131903
0.00898406
0.00255611
0.00247975
0.00772959
0.0111866
0.0131027
0.0140098
0.0141893
0.0137253
0.0125964
0.0107727
0.00851095
0.00789827
0.00995739
0.0120892
0.013411
0.0140421
0.013982
0.0131484
0.0112648
0.00778802
0.00244435
0.0023197
0.00623254
0.00864107
0.00986232
0.0103323
0.0102975
0.0098444
0.00894325
0.00737849
0.00549341
0.00495177
0.0066536
0.00854497
0.00959729
0.0101741
0.0102934
0.00987827
0.00868834
0.00627531
0.0022885
0.00207764
0.00239922
0.00258982
0.00269879
0.00275217
0.00275967
0.00271782
0.00260966
0.0024464
0.00225295
0.00215497
0.00236038
0.00253241
0.00266912
0.00272845
0.00273034
0.00268166
0.00257396
0.00238102
0.00205221
0.00268842
0.0029897
0.00319239
0.0033293
0.00343139
0.00352069
0.00359237
0.00365156
0.00370284
0.00374443
0.00375617
0.00371978
0.00366836
0.00360576
0.00352858
0.00343257
0.00332335
0.00317863
0.00296767
0.00265837
0.00291253
0.00833508
0.0115856
0.0142226
0.0161597
0.0172067
0.0177543
0.0180257
0.0181154
0.01811
0.01813
0.0181838
0.0181201
0.0178492
0.0172744
0.0161799
0.0141884
0.0115222
0.00827091
0.00287341
0.00299289
0.0114623
0.0165025
0.0202504
0.0228432
0.0242608
0.0246299
0.0243824
0.0237444
0.0230724
0.022988
0.0236389
0.0243278
0.0246216
0.0242531
0.0228349
0.0202128
0.0164423
0.011397
0.0029488
0.00298414
0.0128165
0.0186664
0.0227178
0.0253891
0.0267208
0.0267569
0.0258397
0.0243454
0.0228964
0.0226498
0.0239619
0.0255287
0.0265675
0.0266421
0.0253612
0.0227008
0.0186384
0.0127693
0.00293783
0.00293136
0.012777
0.0187993
0.0227774
0.0253257
0.0265253
0.0263376
0.0249078
0.0226825
0.0204829
0.0200569
0.0220154
0.0243405
0.0259668
0.0263536
0.0252795
0.0227868
0.0188057
0.0127379
0.00288947
0.00286191
0.0117509
0.0176004
0.0212879
0.0234945
0.0244183
0.0240972
0.0224616
0.0198201
0.0170169
0.0164099
0.0189236
0.0217497
0.0236574
0.0242215
0.0234569
0.0213298
0.0176491
0.0117485
0.00282257
0.00276199
0.0103127
0.0155936
0.0188358
0.0206226
0.0212336
0.0207562
0.0192116
0.0165403
0.0133514
0.0125705
0.0154879
0.0184746
0.0203819
0.0210555
0.0206016
0.0189027
0.0156788
0.0103491
0.00272408
0.00262971
0.00872545
0.0131027
0.0157274
0.0170466
0.0173668
0.0168258
0.0154477
0.0129559
0.00982475
0.00896817
0.0118828
0.0147456
0.0164522
0.0172066
0.0170319
0.0157982
0.0132011
0.00878292
0.00259371
0.0024479
0.00686699
0.00986232
0.0115245
0.0122437
0.0122919
0.0117944
0.0107643
0.00869317
0.00633483
0.00565762
0.00781237
0.0101469
0.0115091
0.0121599
0.0122128
0.0115579
0.00992616
0.0069123
0.00241489
0.00217731
0.00250417
0.00269879
0.00280862
0.00285913
0.00286053
0.00280991
0.00269541
0.0025475
0.00235312
0.00225344
0.0024638
0.0026296
0.00275931
0.00282797
0.00283629
0.00279026
0.00268102
0.00248313
0.00214899
0.00277258
0.00308737
0.00329171
0.00343139
0.00354505
0.00361983
0.00367101
0.00371195
0.0037476
0.00377731
0.00379016
0.00376704
0.00373111
0.0036867
0.00363009
0.00354835
0.00342827
0.00328136
0.00306884
0.00274576
0.00304295
0.00948083
0.0133397
0.0161597
0.0175823
0.0182351
0.0184639
0.0184306
0.0182379
0.0180184
0.0180572
0.0183527
0.0185857
0.0186184
0.0183598
0.0176586
0.016154
0.013283
0.0094176
0.00300714
0.00314154
0.0130925
0.0189651
0.0228432
0.0249383
0.025658
0.0254732
0.0246682
0.0235146
0.0224431
0.0223693
0.0234522
0.0246924
0.0255554
0.0257492
0.0249972
0.0228486
0.0189205
0.0130303
0.00310094
0.00313679
0.0145163
0.0212197
0.0253891
0.0276882
0.0283324
0.0277356
0.0262034
0.0241041
0.0221258
0.0218277
0.0236837
0.0259188
0.0276041
0.0283075
0.0277137
0.02541
0.0212077
0.014472
0.0030938
0.00306761
0.0144065
0.0211959
0.0253257
0.0276654
0.0284082
0.0276341
0.025629
0.0227713
0.019915
0.0193801
0.0219895
0.0250394
0.0272832
0.028257
0.0276488
0.0253558
0.0212059
0.0143592
0.00302821
0.00298459
0.0130103
0.0195173
0.0234945
0.0257353
0.0265166
0.0258225
0.0237386
0.0205011
0.0169579
0.0161998
0.0194337
0.022957
0.0253686
0.026337
0.0257235
0.0235576
0.0195741
0.0130026
0.00294698
0.00287456
0.0111537
0.0169797
0.0206226
0.0226453
0.0233311
0.0227768
0.0208468
0.0176137
0.0137763
0.0128364
0.0163971
0.020009
0.0223278
0.0231704
0.0226531
0.0207183
0.0170814
0.0111884
0.00283759
0.00272749
0.00921611
0.0140098
0.0170466
0.0186805
0.0191822
0.0187062
0.0170039
0.0140378
0.0104307
0.0094599
0.0128327
0.0161978
0.0182945
0.0190344
0.0186955
0.0171502
0.014129
0.00927382
0.00269152
0.00253131
0.00709837
0.0103323
0.0122437
0.0131534
0.0133145
0.0128728
0.0115766
0.00930257
0.00675935
0.00603274
0.00838632
0.0109285
0.0126382
0.0131985
0.0131416
0.0122979
0.0104103
0.00714367
0.00249748
0.00224934
0.00256351
0.00275217
0.00285913
0.00290712
0.00290511
0.00285065
0.00275432
0.00261767
0.00242479
0.00232444
0.00253596
0.00269263
0.00280035
0.00287208
0.00288379
0.00283998
0.00273295
0.00254032
0.00221923
0.00283255
0.00315997
0.00336861
0.00352069
0.00361983
0.0036727
0.0037037
0.00372647
0.00374577
0.00376358
0.0037805
0.0037706
0.00374842
0.00372068
0.00368397
0.00362443
0.0035175
0.00336019
0.00314388
0.00280811
0.00314058
0.0104636
0.0147274
0.0172067
0.0182351
0.018586
0.0185161
0.0181727
0.0176793
0.0172339
0.0173328
0.0178911
0.0184271
0.0187592
0.0187857
0.0183749
0.017272
0.0146852
0.0104013
0.00310706
0.00325164
0.0143878
0.0207238
0.0242608
0.025658
0.0258279
0.0251235
0.0238092
0.0221979
0.0207956
0.0208133
0.0222803
0.0240041
0.0253726
0.0260677
0.0258439
0.024361
0.0207207
0.0143362
0.00321362
0.00324814
0.0157615
0.0228509
0.0267208
0.0283324
0.0283965
0.0272815
0.0252674
0.0227383
0.0204335
0.02015
0.0223839
0.0251075
0.0272983
0.0285135
0.0284765
0.0268329
0.0228913
0.0157349
0.00320785
0.0031619
0.015577
0.0225806
0.0265253
0.0284082
0.0286066
0.0273935
0.0249926
0.0217456
0.0185458
0.0179788
0.0209709
0.0244792
0.0271586
0.0285707
0.028481
0.0266304
0.0226434
0.0155504
0.0031242
0.00306255
0.0138154
0.0204766
0.0244183
0.0265166
0.0270068
0.0260083
0.02361
0.0200253
0.0161667
0.0153512
0.0189337
0.0228583
0.0256141
0.0268869
0.0265799
0.024548
0.0205842
0.0138293
0.00302623
0.00293509
0.0115778
0.0175023
0.0212336
0.0233311
0.0240455
0.0232957
0.0210953
0.0175587
0.0134988
0.0125199
0.0163187
0.0202521
0.0228585
0.0239135
0.0233982
0.0213912
0.0176521
0.0116335
0.00289958
0.0027738
0.00934938
0.0141893
0.0173668
0.0191822
0.0198675
0.0192635
0.0173316
0.0141512
0.0104442
0.00946557
0.0129469
0.0165101
0.0188465
0.0197469
0.0192476
0.0175222
0.0143476
0.00942346
0.00273891
0.00256923
0.00706813
0.0102975
0.0122919
0.0133145
0.0135725
0.0130988
0.01162
0.00933736
0.00682861
0.0061156
0.00846612
0.0109866
0.0127858
0.0135084
0.0133364
0.0123765
0.0103971
0.00712084
0.00253574
0.00229158
0.00258335
0.00275967
0.00286053
0.00290511
0.00290077
0.0028563
0.00278033
0.00265513
0.00246607
0.00236614
0.00257609
0.00272371
0.00281432
0.00286844
0.00288198
0.00284126
0.00273983
0.00255905
0.00226063
0.00287656
0.00321735
0.00343182
0.00359237
0.00367101
0.0037037
0.00371544
0.00371851
0.00371538
0.00371873
0.00374767
0.00375694
0.00374704
0.00373386
0.00371496
0.00367574
0.0035897
0.00342425
0.0032026
0.0028537
0.00321502
0.011313
0.0158449
0.0177543
0.0184639
0.0185161
0.0181327
0.0174576
0.0166356
0.0159315
0.0161668
0.0170285
0.0178685
0.018499
0.0188107
0.0186753
0.0178719
0.0158154
0.0112486
0.00318249
0.0033328
0.015365
0.0218029
0.0246299
0.0254732
0.0251235
0.0239154
0.0221268
0.0201465
0.0185489
0.0187692
0.0204941
0.0225939
0.0244063
0.0255638
0.0258194
0.0248508
0.0218646
0.0153286
0.00329599
0.00332636
0.016556
0.0235632
0.0267569
0.0277356
0.0272815
0.0257246
0.0233507
0.0206062
0.0182579
0.0180923
0.0204427
0.023418
0.0259677
0.0276043
0.0280577
0.0270102
0.0236914
0.0165588
0.00328756
0.00322967
0.0161187
0.0229266
0.0263376
0.0276341
0.0273935
0.0258516
0.0232034
0.0198224
0.0166255
0.0161406
0.0192094
0.0228834
0.0258119
0.0275419
0.0278747
0.0265816
0.0230916
0.0161614
0.0031899
0.0031042
0.0140804
0.0204588
0.0240972
0.0258225
0.0260083
0.0247698
0.0221912
0.0185243
0.0147283
0.013984
0.0175748
0.0215924
0.0245214
0.0260239
0.0260068
0.0243472
0.0206692
0.014149
0.00306758
0.00294886
0.0115536
0.0171961
0.0207562
0.0227768
0.0232957
0.0223667
0.0200299
0.0164749
0.0125663
0.0116637
0.015371
0.0193025
0.0220281
0.0232589
0.0229424
0.0210219
0.0174377
0.0116601
0.0029142
0.00276432
0.00912878
0.0137253
0.0168258
0.0187062
0.0192635
0.0185179
0.0165054
0.0133948
0.009906
0.00901076
0.0123243
0.0157789
0.0181656
0.0192064
0.018846
0.0170616
0.0139526
0.00924281
0.00273179
0.00255363
0.00679864
0.0098444
0.0117944
0.0128728
0.0130988
0.0124368
0.0109796
0.00887448
0.00657538
0.00592761
0.00811887
0.0104347
0.0121534
0.0130329
0.0129504
0.0119255
0.00998083
0.00687245
0.00252252
0.00229755
0.00255879
0.00271782
0.00280991
0.00285065
0.0028563
0.002833
0.00277221
0.00265717
0.00247394
0.00237559
0.00258157
0.00272031
0.00279668
0.00282947
0.00282907
0.00279185
0.00269894
0.00253518
0.00226732
0.00291047
0.00326901
0.00350252
0.00365156
0.00371195
0.00372647
0.00371851
0.00369267
0.00362472
0.00348897
0.00361672
0.00372989
0.0037401
0.00374068
0.00373737
0.00371586
0.00364837
0.00349148
0.00325388
0.00288837
0.00327261
0.0120172
0.0164961
0.0180257
0.0184306
0.0181727
0.0174576
0.0164258
0.0152361
0.0141185
0.0146386
0.015924
0.0170578
0.017984
0.0185806
0.0187215
0.0181987
0.0165449
0.0119558
0.00323982
0.00339196
0.0160493
0.0222456
0.0243824
0.0246682
0.0238092
0.0221268
0.0199555
0.0178817
0.0165179
0.016892
0.0184684
0.0207356
0.0229028
0.0244788
0.025193
0.0247366
0.0224036
0.016032
0.00335495
0.00337826
0.0169612
0.0234595
0.0258397
0.0262034
0.0252674
0.0233507
0.0207799
0.0181115
0.0160946
0.0161165
0.0182108
0.0211325
0.0238609
0.0258265
0.0267312
0.0262617
0.0237011
0.0169941
0.00333954
0.00326605
0.0162031
0.0223128
0.0249078
0.025629
0.0249926
0.0232034
0.0204664
0.0172072
0.0143327
0.0140565
0.0169129
0.0204493
0.0234258
0.0253714
0.0260823
0.0253395
0.0226168
0.0162763
0.00322693
0.00311077
0.0139056
0.0194696
0.0224616
0.0237386
0.02361
0.0221912
0.0195881
0.0160838
0.0126295
0.0121414
0.0154724
0.0192852
0.0221812
0.0238297
0.0241113
0.0228911
0.0198294
0.01403
0.00307482
0.00291575
0.0110552
0.0160575
0.0192116
0.0208468
0.0210953
0.0200299
0.0177366
0.0144466
0.0109859
0.0102973
0.013661
0.0172668
0.0198871
0.0212202
0.0211611
0.0196199
0.0164311
0.0112436
0.00288313
0.00268196
0.00849239
0.0125964
0.0154477
0.0170039
0.0173316
0.0165054
0.0146171
0.0118506
0.00883636
0.00812654
0.011054
0.014107
0.0163068
0.0173932
0.0172511
0.0157926
0.01293
0.00868408
0.00265453
0.00246221
0.00623316
0.00894325
0.0107643
0.0115766
0.01162
0.0109796
0.00973033
0.00796152
0.00601456
0.00548753
0.00739094
0.00934227
0.0108032
0.0116252
0.0117125
0.0109688
0.00913849
0.00635094
0.00243727
0.00225348
0.00247236
0.00260966
0.00269541
0.00275432
0.00278033
0.00277221
0.00272305
0.00261733
0.00244235
0.00234817
0.00254736
0.00267642
0.00274093
0.00275828
0.00273743
0.00268079
0.00259433
0.00245236
0.00222639
0.00293608
0.00331272
0.00356688
0.00370284
0.0037476
0.00374577
0.00371538
0.00362472
0.00329817
0.00321322
0.00333727
0.00361168
0.0037253
0.00374644
0.00375675
0.00375022
0.00369843
0.00355436
0.00329727
0.00291429
0.00331668
0.0126055
0.0168494
0.0181154
0.0182379
0.0176793
0.0166356
0.0152361
0.0134752
0.0104296
0.0120812
0.0147605
0.0161397
0.0173413
0.0182064
0.0186074
0.018336
0.0169221
0.0125322
0.00328242
0.00343266
0.0164764
0.0221608
0.0237444
0.0235146
0.0221979
0.0201465
0.0178817
0.0164149
0.0157997
0.0161839
0.0168443
0.0188122
0.0211676
0.0230793
0.0242061
0.0242203
0.0223918
0.01647
0.0033944
0.00340868
0.0170646
0.0227133
0.0243454
0.0241041
0.0227383
0.0206062
0.0181115
0.015977
0.0148684
0.0149098
0.0162077
0.0186793
0.0213422
0.0235118
0.0248278
0.0249308
0.0230625
0.0171229
0.00336918
0.00327954
0.0160066
0.0209556
0.0226825
0.0227713
0.0217456
0.0198224
0.0172072
0.0143489
0.0121236
0.0120969
0.0144608
0.0175321
0.020318
0.022362
0.0234439
0.0233101
0.0213928
0.0161133
0.00324011
0.00308862
0.0134355
0.0177366
0.0198201
0.0205011
0.0200253
0.0185243
0.0160838
0.0129672
0.0101687
0.0100596
0.0129226
0.0161994
0.0188197
0.0204934
0.0210959
0.0204537
0.0182499
0.0136209
0.00305304
0.00284059
0.0101922
0.0141706
0.0165403
0.0176137
0.0175587
0.0164749
0.0144466
0.0116601
0.00885165
0.00856897
0.0113905
0.0143625
0.0166103
0.0179
0.0181144
0.0171216
0.0147051
0.0104766
0.00281079
0.00252822
0.00736242
0.0107727
0.0129559
0.0140378
0.0141512
0.0133948
0.0118506
0.00964042
0.00727159
0.00689944
0.00926848
0.0116639
0.013426
0.0143814
0.014422
0.0134271
0.0112363
0.00768338
0.00251027
0.00226162
0.00526833
0.00737849
0.00869317
0.00930257
0.00933736
0.00887448
0.00796152
0.00663338
0.00514177
0.00482178
0.00632746
0.00778506
0.00885046
0.00944943
0.00952021
0.00897261
0.00765697
0.00545845
0.00225148
0.00214168
0.0023086
0.0024464
0.0025475
0.00261767
0.00265513
0.00265717
0.00261733
0.00252099
0.00235649
0.00227565
0.00246323
0.00257896
0.00263226
0.0026386
0.0026059
0.00253745
0.00243499
0.00229282
0.00212118
0.00295359
0.00334666
0.00361896
0.00374443
0.00377731
0.00376358
0.00371873
0.00348897
0.00321322
0.00309189
0.0032538
0.00345835
0.003704
0.00375495
0.00377364
0.00377819
0.00373836
0.00360471
0.00333025
0.00293155
0.00334828
0.0130911
0.0170455
0.01811
0.0180184
0.0172339
0.0159315
0.0141185
0.0104296
0.00581285
0.00699452
0.0137539
0.0153937
0.0167875
0.0178493
0.0184437
0.0183621
0.0171283
0.0129976
0.00331185
0.00345769
0.0167136
0.0219161
0.0230724
0.0224431
0.0207956
0.0185489
0.0165179
0.0157997
0.0131369
0.014815
0.015963
0.0173446
0.0197023
0.0218207
0.0232502
0.0236304
0.0221929
0.0167114
0.0034177
0.00342347
0.0170095
0.0218976
0.0228964
0.0221258
0.0204335
0.0182579
0.0160946
0.0148684
0.014981
0.0147834
0.0149452
0.0167083
0.01911
0.021348
0.0229907
0.0235957
0.0223178
0.0170835
0.00338273
0.00327785
0.0156563
0.0195905
0.0204829
0.019915
0.0185458
0.0166255
0.0143327
0.0121236
0.010693
0.0108232
0.0125064
0.0148992
0.0173142
0.0193431
0.0207601
0.021251
0.0201198
0.0157938
0.00323798
0.00304557
0.0127407
0.0159321
0.0170169
0.0169579
0.0161667
0.0147283
0.0126295
0.0101687
0.00818109
0.00842868
0.0106228
0.0131292
0.0152776
0.016841
0.0177359
0.0177973
0.0165528
0.0129929
0.00301061
0.00274053
0.00918141
0.0119984
0.0133514
0.0137763
0.0134988
0.0125663
0.0109859
0.00885165
0.0068014
0.00703973
0.00912813
0.0112723
0.0129519
0.0140274
0.0144331
0.0140645
0.0126327
0.00953572
0.00271351
0.00232384
0.0062146
0.00851095
0.00982475
0.0104307
0.0104442
0.009906
0.00883636
0.00727159
0.00559012
0.00570546
0.00737614
0.00897366
0.0101476
0.010812
0.0109099
0.0103677
0.00902748
0.00655385
0.00232137
0.00192896
0.00411987
0.00549341
0.00633483
0.00675935
0.00682861
0.00657538
0.00601456
0.00514177
0.00410032
0.00411419
0.00514347
0.00605045
0.00668164
0.00701077
0.0070058
0.00661892
0.00576864
0.00431154
0.00193035
0.00197494
0.0021247
0.00225295
0.00235312
0.00242479
0.00246607
0.00247394
0.00244235
0.00235649
0.00219864
0.00216146
0.00232354
0.00241727
0.00245753
0.00245604
0.00241867
0.00234834
0.0022468
0.00211476
0.00196139
0.00295495
0.00335274
0.00363028
0.00375617
0.00379016
0.0037805
0.00374767
0.00361672
0.00333727
0.0032538
0.00340089
0.00360022
0.0037373
0.00376505
0.00378265
0.00378801
0.0037494
0.00361665
0.00333661
0.00293285
0.00334677
0.0131376
0.017065
0.01813
0.0180572
0.0173328
0.0161668
0.0146386
0.0120812
0.00699452
0.0082851
0.0139844
0.0155649
0.016862
0.0178659
0.0184432
0.0183654
0.0171449
0.0130616
0.00331085
0.00345316
0.0167119
0.0218575
0.022988
0.0223693
0.0208133
0.0187692
0.016892
0.0161839
0.014815
0.0160634
0.0162502
0.0175648
0.019714
0.0217039
0.0231017
0.0235027
0.0221112
0.0167099
0.00341288
0.00341689
0.0169624
0.0217328
0.0226498
0.0218277
0.02015
0.0180923
0.0161165
0.0149098
0.0147834
0.0144988
0.0148809
0.0165422
0.0187876
0.0209525
0.0226078
0.0232826
0.0221063
0.0170198
0.00337468
0.00326694
0.0155279
0.019308
0.0200569
0.0193801
0.0179788
0.0161406
0.0140565
0.0120969
0.0108232
0.0108283
0.012302
0.0144542
0.0166917
0.0186539
0.0201123
0.0207263
0.0197633
0.0156286
0.00322395
0.00302748
0.0125777
0.0155356
0.0164099
0.0161998
0.0153512
0.013984
0.0121414
0.0100596
0.00842868
0.00851958
0.0103141
0.0124638
0.0143854
0.0158703
0.0168211
0.0170497
0.016053
0.0127807
0.00298715
0.00270557
0.00895431
0.0114831
0.0125705
0.0128364
0.0125199
0.0116637
0.0102973
0.00856897
0.00703973
0.00708173
0.00869225
0.0104494
0.0118849
0.0128502
0.0132816
0.0130902
0.0119782
0.0092487
0.00266945
0.00221935
0.00594379
0.00789827
0.00896817
0.0094599
0.00946557
0.00901076
0.00812654
0.00689944
0.00570546
0.00566383
0.00689802
0.00814479
0.00908216
0.00961722
0.00969952
0.009281
0.0082365
0.00620129
0.00219578
0.00186619
0.00381336
0.00495177
0.00565762
0.00603274
0.0061156
0.00592761
0.00548753
0.00482178
0.00411419
0.00403677
0.00476634
0.00543896
0.00590415
0.00613023
0.00608904
0.00575012
0.0050642
0.00391013
0.00185113
0.00188468
0.00203057
0.00215497
0.00225344
0.00232444
0.00236614
0.00237559
0.00234817
0.00227565
0.00216146
0.00211197
0.00223042
0.0023059
0.00233822
0.0023331
0.00229445
0.00222471
0.00212539
0.00199844
0.00184956
0.00293701
0.00331959
0.00358146
0.00371978
0.00376704
0.0037706
0.00375694
0.00372989
0.00361168
0.00345835
0.00360022
0.00374216
0.00375643
0.0037619
0.00377131
0.00376583
0.00371474
0.00357022
0.0033044
0.00291496
0.0033113
0.0126529
0.016896
0.0181838
0.0183527
0.0178911
0.0170285
0.015924
0.0147605
0.0137539
0.0139844
0.0153481
0.0164903
0.0175242
0.0182961
0.0186566
0.0183734
0.0169619
0.0126024
0.00327717
0.00342233
0.0164659
0.0220755
0.0236389
0.0234522
0.0222803
0.0204941
0.0184684
0.0168443
0.015963
0.0162502
0.0172304
0.0191381
0.0212269
0.0229511
0.024001
0.0240195
0.0222515
0.0164539
0.00338273
0.00339524
0.0169887
0.022441
0.0239619
0.0236837
0.0223839
0.0204427
0.0182108
0.0162077
0.0149452
0.0148809
0.0162322
0.0185058
0.0209194
0.0229337
0.0242164
0.0243898
0.0226775
0.0170076
0.00335223
0.00326267
0.0158649
0.0204919
0.0220154
0.0219895
0.0209709
0.0192094
0.0169129
0.0144608
0.0125064
0.012302
0.0143056
0.0169642
0.0194329
0.0213199
0.0224062
0.0224159
0.0207558
0.0158996
0.00321721
0.0030653
0.0131969
0.0171065
0.0189236
0.0194337
0.0189337
0.0175748
0.0154724
0.0129226
0.0106228
0.0103141
0.0126102
0.015315
0.0175625
0.019072
0.0196997
0.0192618
0.0173929
0.0132545
0.00301952
0.00279826
0.00970375
0.0133852
0.0154879
0.0163971
0.0163187
0.015371
0.013661
0.0113905
0.00912813
0.00869225
0.0108701
0.0132871
0.0151662
0.0162811
0.0165116
0.0157208
0.0136574
0.00986075
0.00275311
0.00245713
0.00687442
0.00995739
0.0118828
0.0128327
0.0129469
0.0123243
0.011054
0.00926848
0.00737614
0.00689802
0.00869519
0.0106076
0.0120291
0.0127985
0.0128188
0.0119838
0.0101312
0.00701697
0.0024144
0.00213803
0.00478463
0.0066536
0.00781237
0.00838632
0.00846612
0.00811887
0.00739094
0.00632746
0.00514347
0.00476634
0.00589293
0.00703886
0.00786454
0.00830028
0.00829646
0.007786
0.00667503
0.00480867
0.00208672
0.00206477
0.00222762
0.00236038
0.0024638
0.00253596
0.00257609
0.00258157
0.00254736
0.00246323
0.00232354
0.00223042
0.00238238
0.00248327
0.0025296
0.00253176
0.002496
0.00242525
0.00231994
0.00218528
0.0020195
0.00291008
0.00327458
0.00351608
0.00366836
0.00373111
0.00374842
0.00374704
0.0037401
0.0037253
0.003704
0.0037373
0.00375643
0.00375286
0.003753
0.00375183
0.00373205
0.003665
0.00350656
0.00325966
0.0028878
0.00326411
0.0120477
0.0165544
0.0181201
0.0185857
0.0184271
0.0178685
0.0170578
0.0161397
0.0153937
0.0155649
0.0164903
0.0174315
0.0182144
0.018721
0.0188103
0.0182606
0.0165996
0.012007
0.00323099
0.00337755
0.01603
0.0221824
0.0243278
0.0246924
0.0240041
0.0225939
0.0207356
0.0188122
0.0173446
0.0175648
0.0191381
0.0211864
0.0230834
0.024458
0.0250606
0.0245731
0.0222791
0.0160031
0.00333835
0.00336021
0.0168805
0.0232159
0.0255287
0.0259188
0.0251075
0.023418
0.0211325
0.0186793
0.0167083
0.0165422
0.0185058
0.0211866
0.0236478
0.0254163
0.0262257
0.0257659
0.0233253
0.0168655
0.00331679
0.00324487
0.01607
0.0218902
0.0243405
0.0250394
0.0244792
0.0228834
0.0204493
0.0175321
0.0148992
0.0144542
0.0169642
0.0201294
0.0228021
0.0245601
0.0252038
0.0245111
0.0219848
0.0160741
0.00319848
0.00308571
0.0136849
0.0189296
0.0217497
0.022957
0.0228583
0.0215924
0.0192852
0.0161994
0.0131292
0.0124638
0.015315
0.018651
0.0212346
0.022725
0.0229852
0.0218668
0.0190425
0.0136856
0.00303919
0.00287879
0.0107412
0.015499
0.0184746
0.020009
0.0202521
0.0193025
0.0172668
0.0143625
0.0112723
0.0104494
0.0132871
0.0164543
0.0187895
0.0199957
0.0199534
0.0185544
0.0156219
0.0107885
0.00283055
0.00262537
0.00814758
0.0120892
0.0147456
0.0161978
0.0165101
0.0157789
0.014107
0.0116639
0.00897366
0.00814479
0.0106076
0.0132847
0.0152321
0.0162052
0.0160865
0.0147756
0.0121835
0.00819619
0.002575
0.00239148
0.00592905
0.00854497
0.0101469
0.0109285
0.0109866
0.0104347
0.00934227
0.00778506
0.00605045
0.00543896
0.00703886
0.00874289
0.0100146
0.0107223
0.0107838
0.0100909
0.00856796
0.00592601
0.00233923
0.00219986
0.00240112
0.00253241
0.0026296
0.00269263
0.00272371
0.00272031
0.00267642
0.00257896
0.00241727
0.0023059
0.00248327
0.00260467
0.00266466
0.00267754
0.00265139
0.00258971
0.00248737
0.0023552
0.00215396
0.00287347
0.00321917
0.00343982
0.00360576
0.0036867
0.00372068
0.00373386
0.00374068
0.00374644
0.00375495
0.00376505
0.0037619
0.003753
0.00374322
0.00372732
0.00368978
0.00360369
0.00343222
0.00320416
0.00285054
0.00320351
0.0113295
0.0159314
0.0178492
0.0186184
0.0187592
0.018499
0.017984
0.0173413
0.0167875
0.016862
0.0175242
0.0182144
0.0187317
0.0189637
0.0187751
0.0179435
0.0159447
0.0112901
0.00317041
0.00331539
0.0153448
0.0217901
0.0246216
0.0255554
0.0253726
0.0244063
0.0229028
0.0211676
0.0197023
0.019714
0.0212269
0.0230834
0.024656
0.0256239
0.0257592
0.0247455
0.0218224
0.0153035
0.00327594
0.00330564
0.0164917
0.0234211
0.0265675
0.0276041
0.0272983
0.0259677
0.0238609
0.0213422
0.01911
0.0187876
0.0209194
0.0236478
0.0259466
0.0273823
0.0277152
0.0266493
0.0234433
0.0164498
0.00326161
0.00320633
0.0160265
0.0226575
0.0259668
0.0272832
0.0271586
0.0258119
0.0234258
0.020318
0.0173142
0.0166917
0.0194329
0.0228021
0.025473
0.0270187
0.027248
0.025966
0.0226425
0.0159977
0.00315848
0.00307928
0.0139193
0.0201201
0.0236574
0.0253686
0.0256141
0.0245214
0.0221812
0.0188197
0.0152776
0.0143854
0.0175625
0.0212346
0.0239271
0.0252939
0.0252329
0.0236207
0.0201076
0.0138686
0.00303244
0.00291784
0.0113589
0.0168556
0.0203819
0.0223278
0.0228585
0.0220281
0.0198871
0.0166103
0.0129519
0.0118849
0.0151662
0.0187895
0.0213252
0.0224744
0.0221729
0.0203643
0.0168727
0.0113367
0.00286948
0.00272325
0.00892823
0.013411
0.0164522
0.0182945
0.0188465
0.0181656
0.0163068
0.013426
0.0101476
0.00908216
0.0120291
0.0152321
0.0174714
0.0184656
0.0181405
0.0164495
0.0134393
0.00892477
0.0026725
0.00250971
0.00662545
0.00959729
0.0115091
0.0126382
0.0127858
0.0121534
0.0108032
0.00885046
0.00668164
0.00590415
0.00786454
0.0100146
0.0116273
0.0124871
0.0124985
0.0114577
0.00958661
0.00660612
0.00245988
0.00226293
0.00251452
0.00266912
0.00275931
0.00280035
0.00281432
0.00279668
0.00274093
0.00263226
0.00245753
0.00233822
0.0025296
0.00266466
0.00273788
0.00276568
0.00275668
0.00271898
0.0026295
0.00247266
0.00221951
0.00282585
0.00315723
0.00337153
0.00352858
0.00363009
0.00368397
0.00371496
0.00373737
0.00375675
0.00377364
0.00378265
0.00377131
0.00375183
0.00372732
0.003693
0.00363452
0.00352705
0.00336321
0.00314087
0.00280161
0.00312581
0.0104551
0.0147612
0.0172744
0.0183598
0.0187857
0.0188107
0.0185806
0.0182064
0.0178493
0.0178659
0.0182961
0.018721
0.0189637
0.0189217
0.0184608