/*--------------------------------*- C++ -*----------------------------------*\
  =========                 |
  \\      /  F ield         | OpenFOAM: The Open Source CFD Toolbox
   \\    /   O peration     | Website:  https://openfoam.org
    \\  /    A nd           | Version:  9
     \\/     M anipulation  |
\*---------------------------------------------------------------------------*/
FoamFile
{
    format      ascii;
    class       volScalarField;
    location    "0.475";
    object      p;
}
// * * * * * * * * * * * * * * * * * * * * * * * * * * * * * * * * * * * * * //

dimensions      [0 2 -2 0 0 0 0];

internalField   nonuniform List<scalar> 
900
(
2.21753e-05
-0.00776666
-0.0210868
-0.0360226
-0.0493101
-0.0588718
-0.0634939
-0.0625675
-0.0559091
-0.0436405
-0.0261115
-0.00385714
0.0224257
0.0518886
0.0835402
0.116259
0.148814
0.179908
0.208225
0.232505
0.251627
0.264706
0.271195
0.27098
0.26448
0.252741
0.237522
0.22142
0.208046
0.201059
0.00780988
-8.75072e-05
-0.0106833
-0.0218015
-0.0315198
-0.0383247
-0.0412348
-0.0397072
-0.0335279
-0.0227376
-0.00758092
0.0115264
0.0340172
0.0591849
0.0861941
0.114096
0.14185
0.168364
0.192538
0.213328
0.229823
0.241322
0.247416
0.24807
0.243681
0.235133
0.223831
0.211704
0.201052
0.194101
0.0213943
0.0103119
-0.000609167
-0.0105352
-0.0187686
-0.0242836
-0.0263605
-0.0246024
-0.0188467
-0.00912154
0.00438009
0.0213199
0.0412255
0.0634977
0.0874184
0.112163
0.13682
0.160427
0.182012
0.200651
0.215538
0.226051
0.231829
0.232831
0.229381
0.222191
0.212382
0.201402
0.190458
0.180649
0.037307
0.021476
0.00845077
-0.00195486
-0.0101026
-0.0153601
-0.0172564
-0.0155701
-0.0102312
-0.00129601
0.0110594
0.0265444
0.0447549
0.0651725
0.0871656
0.109996
0.132837
0.154798
0.174971
0.192478
0.206541
0.216543
0.222102
0.223118
0.21981
0.212725
0.202771
0.191077
0.177957
0.163672
0.0525266
0.0315317
0.0157289
0.00411259
-0.00460694
-0.0101229
-0.0121854
-0.0107453
-0.00583291
0.0024546
0.0139443
0.02838
0.0454127
0.0645904
0.085351
0.107023
0.128834
0.149939
0.169451
0.186499
0.200283
0.210149
0.215647
0.21659
0.213077
0.2055
0.194603
0.181295
0.165152
0.145812
0.0649187
0.0387675
0.0199089
0.00667892
-0.00300942
-0.00911127
-0.0115635
-0.0104714
-0.00596045
0.00183004
0.0127249
0.0264946
0.0428358
0.0613513
0.0815346
0.102762
0.124298
0.145309
0.164903
0.182174
0.196266
0.206443
0.212156
0.2131
0.20924
0.200826
0.188485
0.172991
0.153334
0.128708
0.0728983
0.0417515
0.0197571
0.00470814
-0.00617263
-0.0130503
-0.0160156
-0.0153067
-0.0111327
-0.00367002
0.00690403
0.0203837
0.0365058
0.0549201
0.0751653
0.0966524
0.118662
0.140354
0.160802
0.179034
0.194101
0.205146
0.211482
0.21266
0.208495
0.199101
0.185024
0.166973
0.143467
0.113393
0.0751898
0.0392515
0.014158
-0.00277098
-0.0149286
-0.0226537
-0.0261647
-0.0258128
-0.0218765
-0.0145612
-0.00404123
0.00950307
0.0258478
0.0446873
0.0656
0.0880238
0.111245
0.1344
0.156506
0.176497
0.193296
0.205889
0.213413
0.215236
0.211003
0.200685
0.184763
0.163936
0.136318
0.100571
0.0706809
0.0301467
0.00204662
-0.0167339
-0.0301578
-0.0387155
-0.0427348
-0.0426638
-0.0388376
-0.0314801
-0.0207556
-0.00681312
0.010167
0.0299259
0.0520833
0.0761029
0.101271
0.126693
0.151311
0.173945
0.193354
0.208329
0.217785
0.220863
0.216998
0.205999
0.188286
0.164572
0.132588
0.09081
0.0583331
0.0133717
-0.0176199
-0.0381706
-0.052787
-0.0621003
-0.0665374
-0.066632
-0.0627657
-0.0551712
-0.0439933
-0.0293411
-0.0113427
0.00979863
0.0337512
0.0600108
0.0878677
0.116393
0.144446
0.170709
0.193752
0.212123
0.224463
0.229632
0.226799
0.215565
0.196271
0.169647
0.133024
0.0846975
0.0371295
-0.0121211
-0.045882
-0.0680872
-0.0837759
-0.0937184
-0.098438
-0.0985495
-0.0944738
-0.0864444
-0.0745768
-0.0589287
-0.039563
-0.0166134
0.00965234
0.0387764
0.0700654
0.102563
0.135044
0.166042
0.193906
0.216898
0.233324
0.241685
0.240809
0.230019
0.209534
0.180079
0.138524
0.0829688
0.00604554
-0.0473887
-0.0837969
-0.107514
-0.124112
-0.134508
-0.139329
-0.139272
-0.134796
-0.126128
-0.113347
-0.0964446
-0.0754019
-0.050263
-0.0212089
0.0113727
0.0468273
0.0841894
0.12216
0.159119
0.193169
0.222243
0.244238
0.257207
0.259533
0.250159
0.229097
0.197023
0.15024
0.0866202
-0.0359679
-0.0935208
-0.132457
-0.157512
-0.174805
-0.185419
-0.190099
-0.189636
-0.184532
-0.175009
-0.161095
-0.142706
-0.119718
-0.0920616
-0.0597996
-0.023216
0.0171083
0.0602305
0.104801
0.149054
0.190838
0.227706
0.257076
0.276442
0.283603
0.276979
0.256255
0.221961
0.169689
0.0970273
-0.0899978
-0.151664
-0.193015
-0.219187
-0.236884
-0.247387
-0.251589
-0.250401
-0.24438
-0.233744
-0.21847
-0.198377
-0.173216
-0.142771
-0.10695
-0.0658886
-0.0200467
0.0297032
0.0820034
0.134969
0.186196
0.232831
0.271732
0.299708
0.313808
0.311731
0.292654
0.256815
0.198877
0.116076
-0.15719
-0.223059
-0.266714
-0.293708
-0.311393
-0.321306
-0.324544
-0.322175
-0.314839
-0.30276
-0.285856
-0.263838
-0.236306
-0.202859
-0.163205
-0.117279
-0.0653582
-0.00818041
0.0529513
0.116087
0.178598
0.237213
0.288165
0.327444
0.351144
0.355991
0.340396
0.304074
0.240457
0.146321
-0.238789
-0.309101
-0.354948
-0.382334
-0.399385
-0.407995
-0.409544
-0.405326
-0.396099
-0.382113
-0.363229
-0.339029
-0.308933
-0.272316
-0.228637
-0.177564
-0.119122
-0.0538287
0.017153
0.0918916
0.167596
0.240602
0.306477
0.360265
0.396877
0.411744
0.402159
0.366965
0.297925
0.19119
-0.336223
-0.41145
-0.459348
-0.486469
-0.501931
-0.508149
-0.506923
-0.499861
-0.487902
-0.471343
-0.449984
-0.423263
-0.390385
-0.350458
-0.302633
-0.246245
-0.18098
-0.107041
-0.0253388
0.0623304
0.153122
0.243054
0.327034
0.399063
0.45263
0.481494
0.481351
0.449663
0.375878
0.255247
-0.451254
-0.532209
-0.581936
-0.607732
-0.620116
-0.622287
-0.616658
-0.605292
-0.58938
-0.569289
-0.544754
-0.51504
-0.479097
-0.435715
-0.383677
-0.321913
-0.249681
-0.166759
-0.0736743
0.0280635
0.135717
0.245126
0.350622
0.445129
0.5205
0.568396
0.582308
0.557579
0.480377
0.344571
-0.586261
-0.674234
-0.725348
-0.748076
-0.755041
-0.750656
-0.738234
-0.720467
-0.698876
-0.673916
-0.645232
-0.61187
-0.572474
-0.525457
-0.469167
-0.402058
-0.322868
-0.230839
-0.125967
-0.0092928
0.116765
0.248092
0.378631
0.500302
0.603186
0.676411
0.71053
0.697736
0.619454
0.467288
-0.744753
-0.841641
-0.893184
-0.90992
-0.907797
-0.893108
-0.870454
-0.843361
-0.813747
-0.782135
-0.748017
-0.710148
-0.666786
-0.615895
-0.555321
-0.482966
-0.396968
-0.295919
-0.179135
-0.0469878
0.0986868
0.254132
0.413218
0.567098
0.704104
0.810468
0.872972
0.879276
0.803857
0.634411
-0.932299
-1.04065
-1.09052
-1.09631
-1.07937
-1.04887
-1.01117
-0.970828
-0.930157
-0.889652
-0.848525
-0.805109
-0.757167
-0.70212
-0.637235
-0.559793
-0.467255
-0.35747
-0.228932
-0.0811336
0.0849691
0.266373
0.457348
0.648746
0.827421
0.976554
1.07833
1.11412
1.04816
0.861209
-1.15827
-1.28096
-1.32457
-1.311
-1.27041
-1.21618
-1.15692
-1.0983
-1.04288
-0.99088
-0.940994
-0.89093
-0.837789
-0.778332
-0.709161
-0.626871
-0.528188
-0.410136
-0.270271
-0.107008
0.0798943
0.288654
0.514579
0.748963
0.977856
1.18163
1.33727
1.4178
1.37248
1.16959
-1.43918
-1.57803
-1.60561
-1.5584
-1.48069
-1.39164
-1.30238
-1.21943
-1.14512
-1.07894
-1.01865
-0.961008
-0.902248
-0.838316
-0.765059
-0.678328
-0.574071
-0.448441
-0.297959
-0.119793
0.0878073
0.324807
0.588346
0.871244
1.15999
1.4331
1.66235
1.81039
1.80505
1.59255
-1.80555
-1.95672
-1.94765
-1.84281
-1.70796
-1.56918
-1.4396
-1.32564
-1.22841
-1.1458
-1.07402
-1.00846
-0.944192
-0.87618
-0.79943
-0.709012
-0.600078
-0.467891
-0.30789
-0.115854
0.111765
0.377226
0.680442
1.01723
1.37649
1.7371
2.06695
2.31709
2.38641
2.18307
-2.31609
-2.45693
-2.36802
-2.1659
-1.94527
-1.73794
-1.55665
-1.40547
-1.28244
-1.18253
-1.09949
-1.02684
-0.958161
-0.887306
-0.808374
-0.715652
-0.603528
-0.466398
-0.298614
-0.0944903
0.151561
0.444628
0.78844
1.18364
1.62453
2.09438
2.56141
2.96679
3.17466
3.031
-3.08373
-3.1399
-2.88402
-2.52177
-2.17686
-1.87952
-1.63621
-1.4442
-1.29539
-1.17997
-1.08821
-1.01115
-0.940698
-0.869494
-0.790765
-0.69809
-0.585184
-0.445668
-0.272888
-0.0596937
0.201688
0.519635
0.902747
1.35863
1.891
2.49435
3.14624
3.78636
4.24801
4.28755
-4.32422
-4.09135
-3.50629
-2.89315
-2.37657
-1.96816
-1.65716
-1.42621
-1.2566
-1.13142
-1.0365
-0.960039
-0.892203
-0.824558
-0.749616
-0.660434
-0.550246
-0.412081
-0.238473
-0.0209549
0.250397
0.587514
1.00481
1.51921
2.14903
2.91017
3.80471
4.78988
5.70242
6.20494
-6.5311
-5.41652
-4.19609
-3.22059
-2.48991
-1.96147
-1.59059
-1.33394
-1.15669
-1.03318
-0.94448
-0.876283
-0.817408
-0.758752
-0.692489
-0.611482
-0.508796
-0.377263
-0.208924
0.00554673
0.277742
0.622776
1.06103
1.62051
2.33988
3.26994
4.46034
5.93101
7.66303
9.33063
-11.0278
-7.16614
-4.64473
-3.22575
-2.32079
-1.72969
-1.35335
-1.11502
-0.963105
-0.86547
-0.801001
-0.754846
-0.715953
-0.67558
-0.626329
-0.561482
-0.474494
-0.358561
-0.206023
-0.00773365
0.248044
0.577385
1.00366
1.56277
2.31307
3.34906
4.80332
6.88899
10.2077
15.0254
-19.0539
-8.87655
-4.22263
-2.48946
-1.63039
-1.14306
-0.874853
-0.730358
-0.654024
-0.616388
-0.600223
-0.593976
-0.589108
-0.57876
-0.556983
-0.518241
-0.457056
-0.36766
-0.243637
-0.0773759
0.140783
0.424054
0.792101
1.27725
1.93912
2.89533
4.37709
6.96991
12.6571
23.9018
)
;

boundaryField
{
    movingWall
    {
        type            zeroGradient;
    }
    fixedWalls
    {
        type            zeroGradient;
    }
    frontAndBack
    {
        type            empty;
    }
}


// ************************************************************************* //
