/*--------------------------------*- C++ -*----------------------------------*\
  =========                 |
  \\      /  F ield         | OpenFOAM: The Open Source CFD Toolbox
   \\    /   O peration     | Website:  https://openfoam.org
    \\  /    A nd           | Version:  9
     \\/     M anipulation  |
\*---------------------------------------------------------------------------*/
FoamFile
{
    format      ascii;
    class       volVectorField;
    location    "0.475";
    object      U;
}
// * * * * * * * * * * * * * * * * * * * * * * * * * * * * * * * * * * * * * //

dimensions      [0 1 -1 0 0 0 0];

internalField   nonuniform List<vector> 
900
(
(0.000361012 -0.000360471 0)
(0.000679846 -0.000170407 0)
(3.63017e-05 0.000249241 0)
(-0.00169425 0.000645358 0)
(-0.00436899 0.000954723 0)
(-0.00774891 0.00116702 0)
(-0.0115833 0.00128868 0)
(-0.0156373 0.00133125 0)
(-0.0196999 0.00130618 0)
(-0.023585 0.00122322 0)
(-0.0271292 0.00109036 0)
(-0.0301898 0.000914314 0)
(-0.0326442 0.000701194 0)
(-0.0343899 0.000457292 0)
(-0.0353464 0.000189757 0)
(-0.0354589 -9.2846e-05 0)
(-0.0347018 -0.000380174 0)
(-0.0330846 -0.000660004 0)
(-0.0306551 -0.000918414 0)
(-0.0275037 -0.00114027 0)
(-0.0237646 -0.00130997 0)
(-0.0196145 -0.00141242 0)
(-0.0152691 -0.00143409 0)
(-0.010975 -0.00136411 0)
(-0.00699931 -0.00119549 0)
(-0.00361389 -0.000927144 0)
(-0.0010739 -0.000568376 0)
(0.000420103 -0.000149178 0)
(0.000818605 0.000248107 0)
(0.000375847 0.000372361 0)
(0.000188132 -0.000694419 0)
(-0.000516293 0.000539114 0)
(-0.00351396 0.00250562 0)
(-0.00884355 0.0043942 0)
(-0.0162113 0.00592846 0)
(-0.0251572 0.00701933 0)
(-0.0351465 0.00765892 0)
(-0.0456383 0.00787586 0)
(-0.0561212 0.00771126 0)
(-0.0661274 0.00720797 0)
(-0.0752376 0.00640708 0)
(-0.0830831 0.00534796 0)
(-0.0893479 0.00406996 0)
(-0.0937714 0.00261496 0)
(-0.0961546 0.00102994 0)
(-0.0963677 -0.000630925 0)
(-0.0943595 -0.00230506 0)
(-0.0901671 -0.00392142 0)
(-0.0839247 -0.0054019 0)
(-0.0758691 -0.00666418 0)
(-0.0663409 -0.00762593 0)
(-0.0557797 -0.00821027 0)
(-0.0447111 -0.00835211 0)
(-0.0337254 -0.00800507 0)
(-0.0234463 -0.00714962 0)
(-0.0144879 -0.00580445 0)
(-0.00739484 -0.00404625 0)
(-0.00255644 -0.00204458 0)
(-9.63629e-05 -0.000148125 0)
(0.000272008 0.000826396 0)
(-0.000220232 -8.87402e-05 0)
(-0.00250108 0.0035291 0)
(-0.00834992 0.0082559 0)
(-0.0174216 0.0127535 0)
(-0.0292137 0.0164511 0)
(-0.0431103 0.0191107 0)
(-0.0583875 0.0206711 0)
(-0.0742943 0.0211662 0)
(-0.0901054 0.0206737 0)
(-0.105145 0.0192885 0)
(-0.118802 0.0171114 0)
(-0.130533 0.0142456 0)
(-0.139875 0.0107992 0)
(-0.146448 0.00688869 0)
(-0.149963 0.00264464 0)
(-0.150237 -0.00178491 0)
(-0.147204 -0.00623216 0)
(-0.140927 -0.0105102 0)
(-0.131608 -0.0144172 0)
(-0.119596 -0.0177436 0)
(-0.105386 -0.0202831 0)
(-0.0896099 -0.021847 0)
(-0.0730166 -0.0222804 0)
(-0.0564411 -0.0214811 0)
(-0.0407575 -0.0194208 0)
(-0.0268181 -0.0161725 0)
(-0.0153701 -0.0119507 0)
(-0.00695191 -0.0071688 0)
(-0.00185365 -0.00255348 0)
(-7.80966e-05 0.000506147 0)
(-0.000634869 0.00163727 0)
(-0.00458228 0.00900579 0)
(-0.0134281 0.0174353 0)
(-0.0262811 0.0252483 0)
(-0.0423508 0.0316315 0)
(-0.0608566 0.0362047 0)
(-0.0809142 0.0388476 0)
(-0.10161 0.0395941 0)
(-0.122058 0.0385601 0)
(-0.14143 0.0359013 0)
(-0.158969 0.0317924 0)
(-0.174004 0.0264203 0)
(-0.185958 0.019985 0)
(-0.19436 0.012705 0)
(-0.198854 0.00482425 0)
(-0.199217 -0.00338253 0)
(-0.195366 -0.011607 0)
(-0.187382 -0.0195093 0)
(-0.175515 -0.0267255 0)
(-0.160192 -0.032881 0)
(-0.14202 -0.03761 0)
(-0.121771 -0.0405808 0)
(-0.10036 -0.0415254 0)
(-0.0788078 -0.0402724 0)
(-0.0581831 -0.0367848 0)
(-0.0395361 -0.0312035 0)
(-0.0238005 -0.0239027 0)
(-0.0116884 -0.0155568 0)
(-0.00374916 -0.00725186 0)
(-0.000443965 -0.000814022 0)
(-0.00100909 0.00445683 0)
(-0.00656617 0.0169656 0)
(-0.0183789 0.0299849 0)
(-0.0349583 0.0416832 0)
(-0.0551763 0.0511018 0)
(-0.0780644 0.0577666 0)
(-0.10258 0.0615204 0)
(-0.127667 0.0624075 0)
(-0.152311 0.0605887 0)
(-0.175565 0.056288 0)
(-0.196565 0.0497647 0)
(-0.214541 0.0413023 0)
(-0.228832 0.0312087 0)
(-0.238898 0.0198221 0)
(-0.244327 0.00751998 0)
(-0.244859 -0.00527434 0)
(-0.240394 -0.0180885 0)
(-0.231016 -0.0304045 0)
(-0.216998 -0.0416702 0)
(-0.19882 -0.0513191 0)
(-0.177164 -0.0587993 0)
(-0.152904 -0.0636113 0)
(-0.127085 -0.0653516 0)
(-0.10088 -0.0637632 0)
(-0.075531 -0.0587886 0)
(-0.0522804 -0.0506284 0)
(-0.032264 -0.0398062 0)
(-0.0164083 -0.0272332 0)
(-0.00558443 -0.0142972 0)
(-0.000774201 -0.00313184 0)
(-0.00134103 0.00828176 0)
(-0.00841088 0.0273183 0)
(-0.0230838 0.0458357 0)
(-0.043281 0.0619813 0)
(-0.0675167 0.0747457 0)
(-0.0946151 0.0836243 0)
(-0.123369 0.0884619 0)
(-0.152589 0.0893369 0)
(-0.181148 0.0864704 0)
(-0.208005 0.0801666 0)
(-0.23221 0.0707794 0)
(-0.252923 0.0586994 0)
(-0.269417 0.0443531 0)
(-0.281095 0.0282101 0)
(-0.2875 0.0107942 0)
(-0.288332 -0.00730874 0)
(-0.283467 -0.0254466 0)
(-0.272973 -0.0429056 0)
(-0.25713 -0.0589252 0)
(-0.236438 -0.0727241 0)
(-0.211625 -0.0835393 0)
(-0.183641 -0.0906761 0)
(-0.153635 -0.0935684 0)
(-0.122917 -0.0918458 0)
(-0.0929028 -0.0854048 0)
(-0.0650385 -0.0744809 0)
(-0.0406919 -0.0597195 0)
(-0.0210454 -0.0422335 0)
(-0.00733318 -0.0236626 0)
(-0.00106777 -0.00637734 0)
(-0.00163957 0.0130279 0)
(-0.010127 0.03994 0)
(-0.0275332 0.0648677 0)
(-0.0512193 0.0860246 0)
(-0.0793408 0.102434 0)
(-0.110504 0.113626 0)
(-0.143332 0.119495 0)
(-0.176504 0.120187 0)
(-0.208793 0.116006 0)
(-0.239077 0.107353 0)
(-0.266343 0.0946875 0)
(-0.289692 0.078515 0)
(-0.30835 0.0593875 0)
(-0.321671 0.0379124 0)
(-0.329156 0.0147652 0)
(-0.330464 -0.00929878 0)
(-0.325434 -0.0334393 0)
(-0.314104 -0.0567354 0)
(-0.296731 -0.0782026 0)
(-0.273811 -0.0968242 0)
(-0.246093 -0.1116 0)
(-0.214576 -0.121608 0)
(-0.180496 -0.126084 0)
(-0.145296 -0.124505 0)
(-0.110571 -0.116681 0)
(-0.0779951 -0.102844 0)
(-0.0492028 -0.0837222 0)
(-0.0256742 -0.0605959 0)
(-0.00903812 -0.0353241 0)
(-0.00133902 -0.0104977 0)
(-0.00191497 0.0186294 0)
(-0.0117414 0.0547127 0)
(-0.031761 0.0869497 0)
(-0.0588065 0.11368 0)
(-0.0906827 0.134029 0)
(-0.125775 0.147625 0)
(-0.162535 0.154465 0)
(-0.199514 0.154801 0)
(-0.235392 0.149048 0)
(-0.268981 0.137723 0)
(-0.299217 0.121402 0)
(-0.32516 0.100715 0)
(-0.345997 0.0763411 0)
(-0.361045 0.0490264 0)
(-0.369762 0.0195978 0)
(-0.371762 -0.0110208 0)
(-0.366834 -0.0417994 0)
(-0.354965 -0.0716045 0)
(-0.336367 -0.0992162 0)
(-0.311506 -0.123364 0)
(-0.281118 -0.142782 0)
(-0.246228 -0.156284 0)
(-0.208146 -0.162861 0)
(-0.168439 -0.161786 0)
(-0.128894 -0.152727 0)
(-0.0914383 -0.135859 0)
(-0.0580119 -0.111951 0)
(-0.0304355 -0.0824136 0)
(-0.0107695 -0.0493124 0)
(-0.0016064 -0.0154789 0)
(-0.00217553 0.0250392 0)
(-0.0132809 0.0715379 0)
(-0.0358101 0.111962 0)
(-0.0660929 0.14482 0)
(-0.101592 0.169399 0)
(-0.140474 0.185487 0)
(-0.181022 0.193234 0)
(-0.221663 0.193045 0)
(-0.260995 0.185477 0)
(-0.297776 0.171183 0)
(-0.330904 0.150873 0)
(-0.359414 0.125303 0)
(-0.382466 0.0952814 0)
(-0.399347 0.0616879 0)
(-0.409475 0.0254936 0)
(-0.412414 -0.0122161 0)
(-0.40789 -0.0502274 0)
(-0.39582 -0.0871952 0)
(-0.376346 -0.121658 0)
(-0.349867 -0.152074 0)
(-0.317081 -0.176882 0)
(-0.279006 -0.19459 0)
(-0.237002 -0.203886 0)
(-0.192757 -0.203773 0)
(-0.148252 -0.193707 0)
(-0.105694 -0.173739 0)
(-0.0673722 -0.144621 0)
(-0.0354946 -0.107864 0)
(-0.0126051 -0.0657349 0)
(-0.00188811 -0.0213502 0)
(-0.00242707 0.0322242 0)
(-0.014767 0.0903372 0)
(-0.0397185 0.139797 0)
(-0.0731235 0.179318 0)
(-0.11211 0.208405 0)
(-0.154628 0.227062 0)
(-0.198797 0.235652 0)
(-0.242927 0.234772 0)
(-0.285547 0.225161 0)
(-0.325374 0.207634 0)
(-0.36129 0.183044 0)
(-0.392315 0.152283 0)
(-0.417601 0.116282 0)
(-0.436413 0.0760455 0)
(-0.448136 0.0326761 0)
(-0.452279 -0.0125946 0)
(-0.448497 -0.0583825 0)
(-0.436615 -0.10314 0)
(-0.416677 -0.145163 0)
(-0.388984 -0.182627 0)
(-0.354151 -0.213645 0)
(-0.313157 -0.23637 0)
(-0.267376 -0.249123 0)
(-0.218595 -0.250554 0)
(-0.168996 -0.239818 0)
(-0.121086 -0.216755 0)
(-0.0775417 -0.182032 0)
(-0.0410212 -0.137218 0)
(-0.0146224 -0.0847819 0)
(-0.00220118 -0.0281838 0)
(-0.00267356 0.0401621 0)
(-0.0162158 0.111048 0)
(-0.0435158 0.17036 0)
(-0.079932 0.217051 0)
(-0.122259 0.250896 0)
(-0.168231 0.272178 0)
(-0.215808 0.281528 0)
(-0.263199 0.27979 0)
(-0.308877 0.267922 0)
(-0.351537 0.246925 0)
(-0.390064 0.217815 0)
(-0.42349 0.181618 0)
(-0.450972 0.139386 0)
(-0.471773 0.092232 0)
(-0.485251 0.0413705 0)
(-0.490865 -0.011844 0)
(-0.488188 -0.0658796 0)
(-0.476941 -0.119004 0)
(-0.457035 -0.169281 0)
(-0.428637 -0.214596 0)
(-0.392234 -0.252711 0)
(-0.34871 -0.281373 0)
(-0.299413 -0.298461 0)
(-0.246193 -0.302172 0)
(-0.191415 -0.291252 0)
(-0.137902 -0.265216 0)
(-0.0887656 -0.224553 0)
(-0.0471802 -0.170834 0)
(-0.0168966 -0.106726 0)
(-0.00256183 -0.0360929 0)
(-0.00291796 0.0488376 0)
(-0.0176405 0.133621 0)
(-0.0472272 0.203561 0)
(-0.0865438 0.257885 0)
(-0.132044 0.296694 0)
(-0.181244 0.320616 0)
(-0.231955 0.330612 0)
(-0.282293 0.327831 0)
(-0.330697 0.313493 0)
(-0.375868 0.288817 0)
(-0.416719 0.254995 0)
(-0.452321 0.213191 0)
(-0.481864 0.164568 0)
(-0.50463 0.110331 0)
(-0.519968 0.0517772 0)
(-0.527292 -0.00964707 0)
(-0.526096 -0.0722954 0)
(-0.515979 -0.134281 0)
(-0.496697 -0.193457 0)
(-0.468235 -0.247422 0)
(-0.4309 -0.293572 0)
(-0.385418 -0.329198 0)
(-0.333041 -0.351654 0)
(-0.275628 -0.358574 0)
(-0.215694 -0.348151 0)
(-0.156377 -0.319434 0)
(-0.101263 -0.272605 0)
(-0.054128 -0.209152 0)
(-0.0195013 -0.131919 0)
(-0.00298614 -0.0452302 0)
(-0.00316335 0.0582425 0)
(-0.0190557 0.15802 0)
(-0.0508806 0.239317 0)
(-0.0929859 0.301675 0)
(-0.141464 0.345585 0)
(-0.19361 0.372092 0)
(-0.247088 0.382565 0)
(-0.299942 0.378519 0)
(-0.350603 0.361486 0)
(-0.397811 0.332939 0)
(-0.440541 0.294261 0)
(-0.477939 0.24676 0)
(-0.509264 0.191694 0)
(-0.533844 0.130338 0)
(-0.551046 0.0640382 0)
(-0.560261 -0.00570717 0)
(-0.560905 -0.077183 0)
(-0.55245 -0.148393 0)
(-0.534475 -0.217015 0)
(-0.506741 -0.280385 0)
(-0.469311 -0.335526 0)
(-0.422673 -0.379238 0)
(-0.367896 -0.408264 0)
(-0.306764 -0.419545 0)
(-0.241875 -0.410554 0)
(-0.176662 -0.379685 0)
(-0.115218 -0.326635 0)
(-0.0620105 -0.252679 0)
(-0.0225096 -0.160787 0)
(-0.00349089 -0.0557876 0)
(-0.00341427 0.0683768 0)
(-0.0204831 0.184222 0)
(-0.0545186 0.277553 0)
(-0.0993022 0.348262 0)
(-0.150531 0.397306 0)
(-0.205264 0.426239 0)
(-0.261025 0.436928 0)
(-0.315811 0.431329 0)
(-0.368081 0.411346 0)
(-0.416651 0.37874 0)
(-0.460608 0.335111 0)
(-0.499215 0.281904 0)
(-0.531844 0.220467 0)
(-0.557911 0.15211 0)
(-0.576836 0.0781941 0)
(-0.588013 0.000215515 0)
(-0.590804 -0.0800983 0)
(-0.584555 -0.160702 0)
(-0.568651 -0.239156 0)
(-0.542593 -0.312578 0)
(-0.50613 -0.377637 0)
(-0.459424 -0.430618 0)
(-0.403245 -0.467578 0)
(-0.33918 -0.484626 0)
(-0.269809 -0.478315 0)
(-0.1988 -0.44614 0)
(-0.130766 -0.38707 0)
(-0.0709624 -0.301968 0)
(-0.0259962 -0.193823 0)
(-0.00409456 -0.0679964 0)
(-0.00367864 0.0792547 0)
(-0.0219597 0.212233 0)
(-0.0582144 0.318208 0)
(-0.105575 0.397466 0)
(-0.159286 0.451531 0)
(-0.216149 0.482583 0)
(-0.273561 0.493091 0)
(-0.329502 0.485551 0)
(-0.382501 0.462303 0)
(-0.431512 0.425444 0)
(-0.475782 0.376805 0)
(-0.514751 0.317978 0)
(-0.547956 0.250376 0)
(-0.574952 0.17532 0)
(-0.595258 0.094134 0)
(-0.608312 0.00825824 0)
(-0.613453 -0.0806385 0)
(-0.609922 -0.17054 0)
(-0.596907 -0.258969 0)
(-0.573619 -0.342898 0)
(-0.539432 -0.418692 0)
(-0.494075 -0.482128 0)
(-0.437884 -0.528525 0)
(-0.372086 -0.553016 0)
(-0.299091 -0.551007 0)
(-0.222687 -0.518789 0)
(-0.147981 -0.454264 0)
(-0.0811051 -0.357587 0)
(-0.0300403 -0.231583 0)
(-0.00481866 -0.0821294 0)
(-0.00397044 0.0909148 0)
(-0.0235486 0.242106 0)
(-0.0620918 0.361253 0)
(-0.111948 0.449097 0)
(-0.167826 0.507862 0)
(-0.226241 0.540508 0)
(-0.284479 0.550252 0)
(-0.34055 0.540238 0)
(-0.39312 0.513324 0)
(-0.441341 0.471991 0)
(-0.484697 0.418322 0)
(-0.522868 0.354052 0)
(-0.555617 0.280644 0)
(-0.582699 0.199394 0)
(-0.603789 0.11154 0)
(-0.618421 0.0184014 0)
(-0.625958 -0.078492 0)
(-0.625571 -0.177247 0)
(-0.616269 -0.275454 0)
(-0.596964 -0.370046 0)
(-0.5666 -0.457176 0)
(-0.524374 -0.532168 0)
(-0.470027 -0.589582 0)
(-0.404224 -0.623457 0)
(-0.328981 -0.627799 0)
(-0.248021 -0.597326 0)
(-0.166852 -0.52842 0)
(-0.0925462 -0.420087 0)
(-0.0347298 -0.274677 0)
(-0.00568972 -0.0985054 0)
(-0.0043139 0.103438 0)
(-0.0253546 0.27397 0)
(-0.0663534 0.406712 0)
(-0.118662 0.50295 0)
(-0.176326 0.565803 0)
(-0.235551 0.599224 0)
(-0.293543 0.607363 0)
(-0.348412 0.59415 0)
(-0.399045 0.563052 0)
(-0.444885 0.516981 0)
(-0.485733 0.458294 0)
(-0.521584 0.388862 0)
(-0.552499 0.310175 0)
(-0.578497 0.223464 0)
(-0.599469 0.129833 0)
(-0.615112 0.0304097 0)
(-0.624869 -0.0734995 0)
(-0.627902 -0.180231 0)
(-0.623082 -0.287574 0)
(-0.609035 -0.39256 0)
(-0.584253 -0.491274 0)
(-0.547308 -0.578701 0)
(-0.497183 -0.648686 0)
(-0.43374 -0.694101 0)
(-0.358301 -0.707307 0)
(-0.274237 -0.68101 0)
(-0.187258 -0.609483 0)
(-0.105379 -0.489944 0)
(-0.0401694 -0.323763 0)
(-0.00674273 -0.117497 0)
(-0.0047502 0.116976 0)
(-0.0275473 0.308078 0)
(-0.0713149 0.454692 0)
(-0.126078 0.558804 0)
(-0.185054 0.624727 0)
(-0.244118 0.657705 0)
(-0.300461 0.663064 0)
(-0.352405 0.645685 0)
(-0.399176 0.609744 0)
(-0.44062 0.558627 0)
(-0.476953 0.494972 0)
(-0.508569 0.420773 0)
(-0.535897 0.337516 0)
(-0.559284 0.246327 0)
(-0.578905 0.148125 0)
(-0.59468 0.0437773 0)
(-0.60621 -0.0657182 0)
(-0.612717 -0.179042 0)
(-0.613007 -0.294321 0)
(-0.605475 -0.408867 0)
(-0.588173 -0.518892 0)
(-0.558996 -0.619231 0)
(-0.516019 -0.703154 0)
(-0.458033 -0.762373 0)
(-0.385298 -0.787408 0)
(-0.300406 -0.768477 0)
(-0.208921 -0.696993 0)
(-0.119679 -0.567484 0)
(-0.0464935 -0.379534 0)
(-0.00802725 -0.139545 0)
(-0.00534888 0.131794 0)
(-0.0303957 0.344871 0)
(-0.0774505 0.505417 0)
(-0.134714 0.616404 0)
(-0.194359 0.68381 0)
(-0.251949 0.7146 0)
(-0.304794 0.715585 0)
(-0.351589 0.692794 0)
(-0.392069 0.6512 0)
(-0.426622 0.594695 0)
(-0.45599 0.526184 0)
(-0.481053 0.447753 0)
(-0.502671 0.360843 0)
(-0.521575 0.26643 0)
(-0.538276 0.165193 0)
(-0.552983 0.0576868 0)
(-0.565526 -0.055482 0)
(-0.575276 -0.173444 0)
(-0.581075 -0.294814 0)
(-0.581182 -0.417382 0)
(-0.573282 -0.537734 0)
(-0.554605 -0.650834 0)
(-0.522216 -0.749636 0)
(-0.47358 -0.824841 0)
(-0.40746 -0.86504 0)
(-0.325099 -0.857505 0)
(-0.23134 -0.789888 0)
(-0.135506 -0.65278 0)
(-0.0538903 -0.442712 0)
(-0.00961901 -0.165185 0)
(-0.00622816 0.148345 0)
(-0.0343209 0.385064 0)
(-0.0854458 0.559244 0)
(-0.145243 0.675397 0)
(-0.204602 0.741912 0)
(-0.258882 0.768089 0)
(-0.305749 0.762615 0)
(-0.34453 0.732868 0)
(-0.375692 0.684694 0)
(-0.400337 0.622474 0)
(-0.419852 0.549336 0)
(-0.435671 0.467395 0)
(-0.449138 0.377988 0)
(-0.461398 0.28189 0)
(-0.473333 0.179498 0)
(-0.485481 0.0710011 0)
(-0.497967 -0.0434413 0)
(-0.510404 -0.163498 0)
(-0.521788 -0.288407 0)
(-0.53039 -0.416637 0)
(-0.533673 -0.545433 0)
(-0.528303 -0.670253 0)
(-0.510336 -0.784135 0)
(-0.475721 -0.877118 0)
(-0.421273 -0.935979 0)
(-0.346171 -0.94471 0)
(-0.253669 -0.886211 0)
(-0.152887 -0.745473 0)
(-0.0626419 -0.514032 0)
(-0.0116419 -0.195094 0)
(-0.00759226 0.16738 0)
(-0.0399801 0.429762 0)
(-0.0962517 0.616654 0)
(-0.158445 0.735188 0)
(-0.215965 0.797364 0)
(-0.264268 0.815661 0)
(-0.301791 0.801111 0)
(-0.328875 0.762619 0)
(-0.347011 0.706907 0)
(-0.358205 0.63877 0)
(-0.364591 0.561449 0)
(-0.36821 0.476982 0)
(-0.370893 0.386525 0)
(-0.374197 0.29059 0)
(-0.379363 0.189251 0)
(-0.387272 0.0823057 0)
(-0.39838 -0.0305633 0)
(-0.412622 -0.149613 0)
(-0.429281 -0.274802 0)
(-0.44682 -0.405452 0)
(-0.462705 -0.539755 0)
(-0.473267 -0.674088 0)
(-0.473704 -0.802125 0)
(-0.458411 -0.913837 0)
(-0.421885 -0.994635 0)
(-0.360429 -1.02519 0)
(-0.274499 -0.982706 0)
(-0.171771 -0.844508 0)
(-0.0731891 -0.594205 0)
(-0.0143097 -0.230185 0)
(-0.0098008 0.190144 0)
(-0.048393 0.480575 0)
(-0.111107 0.678124 0)
(-0.175003 0.794629 0)
(-0.228018 0.847584 0)
(-0.266366 0.853772 0)
(-0.289944 0.827052 0)
(-0.300646 0.777938 0)
(-0.301324 0.713904 0)
(-0.295072 0.639964 0)
(-0.284832 0.559276 0)
(-0.273235 0.47365 0)
(-0.262545 0.383944 0)
(-0.254662 0.290344 0)
(-0.251125 0.192569 0)
(-0.253115 0.0900258 0)
(-0.261413 -0.0180707 0)
(-0.276323 -0.132561 0)
(-0.297532 -0.254153 0)
(-0.3239 -0.383131 0)
(-0.35319 -0.518875 0)
(-0.381762 -0.659111 0)
(-0.404323 -0.79882 0)
(-0.413937 -0.928774 0)
(-0.40264 -1.03391 0)
(-0.363095 -1.09208 0)
(-0.291437 -1.07423 0)
(-0.191886 -0.947661 0)
(-0.0862191 -0.683832 0)
(-0.0180022 -0.271765 0)
(-0.0134957 0.218704 0)
(-0.0611185 0.539709 0)
(-0.131424 0.743766 0)
(-0.19495 0.851396 0)
(-0.238781 0.888445 0)
(-0.261185 0.877351 0)
(-0.264587 0.835152 0)
(-0.253095 0.773809 0)
(-0.231266 0.701199 0)
(-0.203374 0.622189 0)
(-0.173122 0.539558 0)
(-0.143609 0.45467 0)
(-0.117382 0.367948 0)
(-0.0965307 0.279183 0)
(-0.0827593 0.187732 0)
(-0.0774391 0.0926356 0)
(-0.081614 -0.00729726 0)
(-0.0959513 -0.113417 0)
(-0.120618 -0.227124 0)
(-0.155061 -0.34966 0)
(-0.197672 -0.481718 0)
(-0.245328 -0.622728 0)
(-0.29286 -0.769664 0)
(-0.3326 -0.915207 0)
(-0.35443 -1.04526 0)
(-0.346943 -1.13617 0)
(-0.300302 -1.15296 0)
(-0.21233 -1.05073 0)
(-0.102742 -0.783153 0)
(-0.023394 -0.321839 0)
(-0.0198161 0.256497 0)
(-0.0804305 0.609848 0)
(-0.158262 0.812418 0)
(-0.216301 0.900827 0)
(-0.242818 0.913291 0)
(-0.240418 0.879186 0)
(-0.215482 0.818622 0)
(-0.175016 0.744378 0)
(-0.12544 0.664035 0)
(-0.0720894 0.58174 0)
(-0.0191782 0.499481 0)
(0.0300185 0.417917 0)
(0.0729475 0.336899 0)
(0.107581 0.255774 0)
(0.132264 0.173548 0)
(0.145605 0.0889675 0)
(0.146428 0.000546467 0)
(0.133774 -0.09343 0)
(0.106989 -0.194888 0)
(0.0659074 -0.305881 0)
(0.0112003 -0.428354 0)
(-0.0550831 -0.56359 0)
(-0.12873 -0.711108 0)
(-0.202406 -0.866668 0)
(-0.264847 -1.01906 0)
(-0.300925 -1.14561 0)
(-0.29359 -1.20727 0)
(-0.230549 -1.14614 0)
(-0.123983 -0.891339 0)
(-0.0316268 -0.383532 0)
(-0.0306581 0.309128 0)
(-0.109156 0.693361 0)
(-0.190543 0.87969 0)
(-0.231884 0.933984 0)
(-0.227528 0.911655 0)
(-0.187891 0.849422 0)
(-0.124809 0.769304 0)
(-0.0484556 0.683496 0)
(0.0332029 0.598139 0)
(0.114321 0.515885 0)
(0.190745 0.437468 0)
(0.259529 0.362602 0)
(0.318538 0.290469 0)
(0.366145 0.219971 0)
(0.401014 0.149828 0)
(0.421961 0.0786057 0)
(0.427855 0.00468424 0)
(0.417583 -0.0738058 0)
(0.39008 -0.159054 0)
(0.34444 -0.253622 0)
(0.280193 -0.360409 0)
(0.197819 -0.482373 0)
(0.099634 -0.621755 0)
(-0.00884036 -0.778313 0)
(-0.117114 -0.945854 0)
(-0.208081 -1.10625 0)
(-0.257649 -1.22075 0)
(-0.239844 -1.22064 0)
(-0.150455 -1.00474 0)
(-0.044336 -0.461495 0)
(-0.0484998 0.385573 0)
(-0.148755 0.789766 0)
(-0.219802 0.933961 0)
(-0.222294 0.934718 0)
(-0.166324 0.868071 0)
(-0.0740628 0.775799 0)
(0.0367716 0.678777 0)
(0.153772 0.586202 0)
(0.268721 0.501258 0)
(0.376463 0.424289 0)
(0.473865 0.35441 0)
(0.559027 0.290284 0)
(0.630746 0.230455 0)
(0.688167 0.173473 0)
(0.730558 0.117908 0)
(0.757159 0.0623056 0)
(0.767077 0.00510718 0)
(0.759225 -0.0554625 0)
(0.732285 -0.121531 0)
(0.684726 -0.195744 0)
(0.614937 -0.281416 0)
(0.521561 -0.382596 0)
(0.404241 -0.503811 0)
(0.265055 -0.648996 0)
(0.110964 -0.818616 0)
(-0.0426073 -1.00327 0)
(-0.167701 -1.17158 0)
(-0.223706 -1.25205 0)
(-0.178371 -1.11328 0)
(-0.062654 -0.56241 0)
(-0.0737781 0.500877 0)
(-0.191344 0.88879 0)
(-0.216111 0.947764 0)
(-0.141309 0.874858 0)
(-0.00733736 0.761254 0)
(0.151249 0.64525 0)
(0.313972 0.540923 0)
(0.469496 0.45139 0)
(0.612013 0.375507 0)
(0.738934 0.310896 0)
(0.849359 0.255098 0)
(0.943178 0.205926 0)
(1.02057 0.161534 0)
(1.08172 0.120358 0)
(1.12668 0.0810309 0)
(1.15525 0.0422785 0)
(1.16692 0.00280863 0)
(1.1608 -0.0388157 0)
(1.13552 -0.0843392 0)
(1.0892 -0.136021 0)
(1.01935 -0.196912 0)
(0.922935 -0.271187 0)
(0.796696 -0.36446 0)
(0.638105 -0.483742 0)
(0.447674 -0.63616 0)
(0.2337 -0.824134 0)
(0.0200881 -1.03274 0)
(-0.144524 -1.20425 0)
(-0.18976 -1.19325 0)
(-0.0825366 -0.69624 0)
(-0.0911729 0.671511 0)
(-0.193246 0.950095 0)
(-0.0946227 0.864391 0)
(0.110663 0.712122 0)
(0.342015 0.568683 0)
(0.56526 0.450576 0)
(0.767497 0.35821 0)
(0.944637 0.28679 0)
(1.09683 0.230966 0)
(1.22593 0.186376 0)
(1.33411 0.149777 0)
(1.42338 0.118808 0)
(1.49534 0.0917403 0)
(1.55118 0.067269 0)
(1.59166 0.0443577 0)
(1.61709 0.0221133 0)
(1.62735 -0.000320391 0)
(1.62186 -0.0238673 0)
(1.59942 -0.0496536 0)
(1.55817 -0.0791808 0)
(1.49529 -0.114596 0)
(1.40683 -0.159107 0)
(1.28736 -0.217616 0)
(1.13001 -0.297587 0)
(0.927409 -0.409813 0)
(0.675259 -0.567454 0)
(0.380187 -0.778638 0)
(0.0770734 -1.02353 0)
(-0.12878 -1.18747 0)
(-0.0775234 -0.861616 0)
(0.0101973 0.815317 0)
(0.0266306 0.852601 0)
(0.359464 0.615926 0)
(0.722706 0.430591 0)
(1.02418 0.304795 0)
(1.26709 0.219826 0)
(1.46295 0.162426 0)
(1.62074 0.12299 0)
(1.74808 0.0949447 0)
(1.85109 0.0741376 0)
(1.9343 0.0580002 0)
(2.00097 0.0449193 0)
(2.05336 0.0338488 0)
(2.09307 0.0240777 0)
(2.12109 0.0150892 0)
(2.13796 0.00647026 0)
(2.14382 -0.00215333 0)
(2.13835 -0.0111756 0)
(2.12075 -0.0210723 0)
(2.08957 -0.0324954 0)
(2.0425 -0.0464238 0)
(1.97595 -0.0644362 0)
(1.88437 -0.0892255 0)
(1.75929 -0.125589 0)
(1.58814 -0.182233 0)
(1.35371 -0.274528 0)
(1.03298 -0.42683 0)
(0.6074 -0.667133 0)
(0.174444 -0.967871 0)
(0.0770731 -0.930328 0)
(0.886962 0.431535 0)
(1.15962 0.378517 0)
(1.62531 0.230007 0)
(1.97395 0.136114 0)
(2.18833 0.0829058 0)
(2.32886 0.052262 0)
(2.42821 0.0343901 0)
(2.50116 0.0237089 0)
(2.55617 0.0170101 0)
(2.5985 0.0125342 0)
(2.6314 0.00933389 0)
(2.6569 0.00688953 0)
(2.67629 0.00490455 0)
(2.69042 0.0032 0)
(2.69981 0.00165893 0)
(2.70474 0.000195961 0)
(2.70531 -0.00126129 0)
(2.70142 -0.00278779 0)
(2.69275 -0.00447254 0)
(2.67872 -0.00644186 0)
(2.65833 -0.00889611 0)
(2.62995 -0.0121846 0)
(2.59084 -0.0169695 0)
(2.53623 -0.0245983 0)
(2.45759 -0.037943 0)
(2.339 -0.0632078 0)
(2.1451 -0.113457 0)
(1.79812 -0.213469 0)
(1.28212 -0.383519 0)
(0.943183 -0.45238 0)
)
;

boundaryField
{
    movingWall
    {
        type            fixedValue;
        value           uniform (3 0 0);
    }
    fixedWalls
    {
        type            noSlip;
    }
    frontAndBack
    {
        type            empty;
    }
}


// ************************************************************************* //
