/*--------------------------------*- C++ -*----------------------------------*\
  =========                 |
  \\      /  F ield         | OpenFOAM: The Open Source CFD Toolbox
   \\    /   O peration     | Website:  https://openfoam.org
    \\  /    A nd           | Version:  9
     \\/     M anipulation  |
\*---------------------------------------------------------------------------*/
FoamFile
{
    format      ascii;
    class       volScalarField;
    location    "0.29";
    object      nut;
}
// * * * * * * * * * * * * * * * * * * * * * * * * * * * * * * * * * * * * * //

dimensions      [0 2 -1 0 0 0 0];

internalField   nonuniform List<scalar> 
12225
(
4.04768e-05
3.83178e-05
3.62504e-05
3.44199e-05
3.29519e-05
3.18976e-05
3.12561e-05
3.09935e-05
3.10578e-05
3.13897e-05
3.19305e-05
3.26265e-05
3.34313e-05
3.43064e-05
3.52225e-05
3.61551e-05
3.71091e-05
3.84905e-05
0.000281048
0.000209266
0.000176267
0.00015744
0.000146272
0.000139688
0.000135794
0.000133431
0.000131916
0.000130859
0.000130045
0.000129358
0.00012874
0.000128162
0.000127623
0.00012708
0.000126683
0.000125737
0.000556048
0.000419909
0.000349817
0.000304738
0.000272452
0.000247988
0.000228773
0.00021331
0.000200683
0.000190283
0.00018167
0.000174505
0.000168517
0.000163487
0.00015924
0.000155591
0.000152454
0.000149397
0.000740308
0.000625822
0.000544118
0.000485002
0.000439776
0.000403658
0.000373851
0.000348618
0.00032687
0.000307912
0.000291268
0.000276593
0.000263615
0.000252107
0.000241871
0.000232693
0.000224417
0.000216762
0.000817069
0.000759142
0.000700547
0.000648581
0.000603902
0.000565591
0.000532484
0.000503527
0.000477897
0.000454983
0.000434341
0.000415636
0.000398611
0.000383053
0.000368785
0.000355622
0.000343422
0.000332089
0.000842101
0.000819688
0.000789926
0.000757608
0.000725558
0.00069517
0.000666975
0.000641029
0.000617192
0.00059526
0.000575032
0.00055632
0.00053896
0.000522805
0.000507727
0.000493595
0.00048031
0.000467917
0.000849261
0.000841808
0.000829742
0.000814189
0.000796483
0.000777765
0.000758856
0.000740265
0.000722282
0.000705052
0.000688635
0.00067304
0.000658247
0.000644216
0.000630902
0.000618251
0.000606223
0.000594943
0.00085112
0.000848748
0.000844481
0.000838237
0.000830247
0.000820898
0.000810603
0.000799728
0.000788563
0.000777325
0.000766169
0.000755203
0.000744497
0.000734092
0.000724011
0.000714266
0.000704868
0.000695971
0.00085156
0.000850665
0.00084917
0.000846887
0.000843742
0.00083976
0.000835036
0.000829697
0.00082388
0.000817712
0.000811308
0.000804762
0.00079815
0.000791534
0.00078496
0.000778464
0.000772085
0.000765957
0.000851652
0.000851133
0.000850468
0.000849564
0.000848347
0.000846773
0.000844827
0.000842521
0.000839886
0.000836962
0.000833794
0.00083043
0.000826913
0.000823282
0.000819572
0.000815817
0.000812049
0.000808365
0.000851668
0.00085123
0.000850778
0.000850278
0.000849698
0.000849007
0.000848183
0.000847212
0.000846089
0.000844816
0.000843401
0.000841857
0.000840197
0.000838438
0.000836597
0.000834688
0.000832733
0.000830788
0.000851669
0.000851245
0.000850835
0.000850429
0.000850014
0.000849575
0.000849101
0.00084858
0.000848003
0.000847366
0.000846665
0.000845903
0.000845079
0.0008442
0.00084327
0.000842295
0.000841285
0.000840274
0.000851668
0.000851244
0.000850843
0.000850459
0.000850088
0.000849726
0.000849365
0.000849001
0.000848629
0.000848243
0.000847841
0.000847421
0.00084698
0.000846519
0.000846038
0.000845538
0.000845024
0.000844514
0.000851667
0.000851242
0.000850839
0.000850458
0.000850096
0.000849751
0.000849421
0.000849102
0.000848793
0.000848491
0.000848195
0.000847902
0.000847611
0.000847321
0.000847032
0.000846742
0.000846455
0.000846181
0.000851666
0.000851239
0.000850835
0.000850452
0.00085009
0.000849746
0.000849419
0.000849108
0.000848812
0.000848528
0.000848257
0.000847996
0.000847746
0.000847505
0.000847272
0.000847048
0.000846833
0.000846638
0.000851665
0.000851236
0.000850831
0.000850447
0.000850083
0.000849737
0.000849409
0.000849098
0.000848801
0.000848519
0.000848251
0.000847994
0.00084775
0.000847517
0.000847294
0.000847082
0.000846881
0.000846703
0.000851664
0.000851235
0.000850828
0.000850442
0.000850077
0.00084973
0.000849401
0.000849088
0.00084879
0.000848507
0.000848237
0.00084798
0.000847735
0.000847502
0.000847279
0.000847066
0.000846866
0.000846688
0.000851663
0.000851234
0.000850826
0.00085044
0.000850073
0.000849725
0.000849395
0.000849081
0.000848782
0.000848498
0.000848227
0.000847969
0.000847722
0.000847488
0.000847264
0.00084705
0.000846848
0.000846669
0.000851663
0.000851233
0.000850825
0.000850439
0.000850072
0.000849724
0.000849393
0.000849078
0.000848779
0.000848494
0.000848222
0.000847963
0.000847716
0.000847481
0.000847255
0.000847041
0.000846838
0.000846658
0.000851664
0.000851234
0.000850826
0.00085044
0.000850074
0.000849726
0.000849396
0.000849081
0.000848782
0.000848497
0.000848225
0.000847965
0.000847717
0.00084748
0.000847253
0.000847036
0.000846831
0.000846648
0.000851664
0.000851235
0.000850829
0.000850443
0.000850078
0.00084973
0.000849399
0.000849082
0.000848779
0.000848489
0.000848209
0.00084794
0.000847679
0.000847427
0.000847182
0.000846944
0.000846715
0.000846505
0.000851665
0.000851237
0.00085083
0.000850442
0.000850068
0.000849706
0.000849351
0.000848999
0.000848647
0.000848293
0.000847934
0.000847569
0.000847198
0.000846818
0.000846432
0.000846038
0.00084564
0.00084525
0.000851664
0.000851228
0.000850794
0.000850348
0.00084987
0.000849345
0.000848761
0.00084811
0.000847388
0.000846592
0.000845727
0.000844795
0.000843804
0.000842759
0.000841669
0.00084054
0.000839384
0.000838222
0.000851634
0.000851073
0.000850343
0.000849363
0.000848079
0.000846467
0.00084453
0.000842291
0.000839784
0.00083705
0.000834132
0.000831071
0.000827905
0.000824667
0.000821387
0.00081809
0.000814801
0.000811565
0.000851287
0.000849596
0.000846721
0.000842577
0.000837262
0.000830978
0.000823969
0.000816468
0.00080867
0.000800732
0.000792777
0.000784894
0.000777148
0.000769584
0.000762232
0.000755113
0.000748239
0.000741666
0.000848318
0.000839425
0.00082616
0.000810016
0.000792355
0.000774221
0.000756314
0.000739034
0.000722581
0.000707034
0.000692406
0.000678669
0.000665775
0.000653672
0.000642303
0.000631612
0.000621553
0.000612135
0.000828548
0.000788842
0.000746032
0.000705698
0.000669456
0.000637491
0.000609431
0.000584721
0.000562822
0.000543279
0.000525723
0.000509855
0.000495433
0.000482263
0.000470187
0.000459073
0.000448816
0.000439367
0.000730725
0.000627344
0.000554503
0.000501053
0.00046031
0.000428336
0.00040262
0.000381452
0.00036369
0.000348558
0.00033551
0.000324149
0.000314177
0.000305363
0.000297529
0.000290529
0.000284245
0.000278594
0.000439249
0.00033847
0.000287933
0.000256866
0.000236359
0.000222507
0.00021299
0.000206309
0.000201503
0.000197956
0.000195269
0.000193175
0.000191498
0.000190115
0.000188946
0.000187932
0.000187036
0.000186209
7.16431e-05
6.90587e-05
6.65522e-05
6.41646e-05
6.19883e-05
6.00784e-05
5.84565e-05
5.71213e-05
5.60572e-05
5.52404e-05
5.46438e-05
5.42396e-05
5.40012e-05
5.39035e-05
5.3924e-05
5.40426e-05
5.42419e-05
5.45056e-05
2.04608e-07
5.33182e-06
8.85885e-06
1.19405e-05
1.50323e-05
1.87323e-05
2.30313e-05
2.80633e-05
3.39768e-05
4.07906e-05
4.79871e-05
5.55864e-05
6.35339e-05
7.17567e-05
8.01811e-05
8.87377e-05
9.73618e-05
0.000105993
0.000114574
0.000123049
0.000131366
0.000139468
0.000147301
0.000154808
0.000161926
0.000168592
0.000174737
0.000180293
0.000185194
0.000189373
0.000192748
0.000195188
0.000196503
0.000196728
0.000196926
0.000197305
4.54431e-05
0.000200728
0.000200852
4.62555e-05
0.00020322
4.67558e-05
0.000203417
0.000206349
4.80644e-05
4.90882e-05
5.01661e-05
5.12547e-05
5.23494e-05
5.34468e-05
5.4545e-05
5.56425e-05
5.67387e-05
5.78327e-05
5.89242e-05
6.00129e-05
6.10983e-05
6.21803e-05
6.32585e-05
6.43327e-05
6.54025e-05
6.64677e-05
6.75279e-05
6.85828e-05
6.96321e-05
7.06753e-05
7.17121e-05
7.27421e-05
7.37648e-05
7.47798e-05
7.57868e-05
7.67851e-05
7.77745e-05
7.87543e-05
7.97243e-05
8.06838e-05
8.16326e-05
8.257e-05
8.34957e-05
8.44093e-05
8.53103e-05
8.61982e-05
8.70728e-05
8.79335e-05
8.878e-05
8.96119e-05
9.04289e-05
9.12304e-05
9.20163e-05
9.2786e-05
9.35392e-05
9.42756e-05
9.49947e-05
9.56962e-05
9.63798e-05
9.70454e-05
9.76929e-05
9.83228e-05
9.89364e-05
9.95365e-05
0.000100122
0.000100685
0.000101226
0.000101746
0.000102244
0.00010272
0.000103174
0.000103605
0.000104013
0.000104398
0.000104759
0.000105096
0.000105409
0.000105697
0.000105961
0.0001062
0.000106414
0.000106602
0.000106765
0.000106903
0.000107015
0.000107101
0.000107162
0.000107197
0.000107207
0.00010719
0.000107149
0.000107082
0.000106989
0.000106872
0.00010673
0.000106562
0.000106371
0.000106155
0.000105915
0.000105651
0.000105364
0.000105055
0.000104722
0.000104367
0.000103991
0.000103593
0.000103175
0.000102736
0.000102278
0.0001018
0.000101304
0.000100789
0.000100257
9.97089e-05
9.91441e-05
9.85638e-05
9.79686e-05
9.73593e-05
9.67366e-05
9.6101e-05
9.54536e-05
9.47948e-05
9.41256e-05
9.34468e-05
9.27581e-05
9.20627e-05
9.13586e-05
9.065e-05
8.99419e-05
8.92882e-05
8.8866e-05
8.84789e-05
8.80917e-05
8.77023e-05
8.73109e-05
8.69174e-05
8.65212e-05
8.61211e-05
8.5714e-05
8.52932e-05
8.48432e-05
8.43237e-05
8.36355e-05
8.23356e-05
7.92748e-07
2.2869e-05
5.06887e-05
7.1197e-05
8.6163e-05
9.6919e-05
0.000105702
0.000113927
0.000122306
0.000131134
0.000140468
0.000150238
0.000160342
0.000170679
0.000181153
0.000191681
0.000202186
0.000212594
0.000222835
0.000232837
0.000242529
0.000251828
0.000260648
0.000268883
0.000276412
0.00028309
0.00028874
0.000293155
0.00029609
0.000297272
0.000296374
0.000292933
0.000286236
0.000275767
0.000263731
0.000259279
0.000247995
0.000257146
0.000254141
0.000247488
0.00026132
0.000252892
0.000263965
0.000269622
0.000268217
0.000274004
0.000280458
0.000287358
0.000294567
0.000302015
0.000309653
0.000317448
0.000325379
0.000333432
0.000341597
0.000349867
0.000358239
0.000366709
0.000375273
0.00038393
0.000392678
0.000401514
0.000410438
0.000419446
0.000428537
0.000437708
0.000446957
0.000456279
0.000465673
0.000475133
0.000484656
0.000494237
0.000503872
0.000513556
0.000523283
0.000533049
0.000542846
0.000552671
0.000562517
0.000572377
0.000582247
0.00059212
0.000601991
0.000611854
0.000621703
0.000631533
0.00064134
0.000651118
0.000660863
0.000670571
0.000680236
0.000689855
0.000699423
0.000708932
0.000718375
0.000727739
0.000737001
0.000746125
0.000755057
0.000763633
0.000771601
0.000779397
0.00078707
0.000794621
0.000802045
0.000809337
0.000816492
0.000823503
0.000830366
0.000837075
0.000843625
0.00085001
0.000856226
0.000862267
0.00086813
0.000873809
0.0008793
0.0008846
0.000889703
0.000894608
0.000899309
0.000903805
0.000908092
0.000912167
0.000916029
0.000919675
0.000923103
0.00092631
0.000929297
0.000932061
0.000934602
0.000936919
0.000939011
0.00094088
0.000942524
0.000943945
0.000945143
0.000946119
0.000946875
0.000947413
0.000947734
0.000947841
0.000947736
0.000947422
0.000946903
0.000946182
0.000945262
0.000944148
0.000942843
0.000941353
0.000939683
0.000937837
0.000935821
0.000933641
0.000931303
0.00092881
0.000926175
0.0009234
0.000920493
0.000917467
0.000914312
0.000911064
0.000907717
0.00090424
0.000900536
0.000896062
0.000889547
0.000882338
0.000874908
0.000867375
0.000859776
0.000852129
0.000844442
0.000836718
0.000828949
0.000821113
0.000813134
0.0008049
0.000795422
0.000777041
1.59177e-06
3.74075e-05
8.15514e-05
0.000114953
0.000139106
0.000157071
0.000171268
0.000183445
0.000194744
0.000205826
0.000217011
0.000228405
0.000240001
0.00025174
0.000263543
0.000275331
0.000287025
0.000298548
0.00030983
0.000320799
0.000331384
0.00034151
0.000351101
0.000360069
0.000368324
0.000375771
0.000382314
0.000387872
0.000392392
0.000395883
0.000398433
0.00040021
0.000401443
0.000402516
0.000404525
0.000408837
0.000413815
0.000421244
0.000429726
0.000439248
0.000450981
0.000461395
0.000474213
0.000487776
0.000501155
0.000515555
0.000530451
0.000545743
0.000561379
0.00057732
0.000593536
0.000610002
0.000626698
0.00064361
0.000660727
0.000678042
0.000695547
0.000713238
0.000731109
0.000749156
0.000767375
0.000785761
0.00080431
0.000823016
0.000841874
0.000860877
0.000880019
0.000899291
0.000918686
0.000938195
0.000957808
0.000977515
0.000997305
0.00101717
0.00103709
0.00105706
0.00107707
0.0010971
0.00111715
0.00113719
0.00115722
0.00117722
0.00119718
0.00121709
0.00123694
0.00125671
0.00127639
0.00129597
0.00131545
0.0013348
0.00135401
0.00137307
0.00139197
0.00141068
0.00142919
0.00144746
0.00146545
0.00148313
0.00150045
0.00151709
0.00153328
0.00154918
0.00156482
0.00158019
0.0015953
0.00161013
0.00162466
0.0016389
0.00165281
0.00166641
0.00167967
0.00169258
0.00170513
0.00171732
0.00172913
0.00174056
0.00175159
0.00176223
0.00177245
0.00178225
0.00179163
0.00180058
0.00180909
0.00181716
0.00182478
0.00183195
0.00183867
0.00184493
0.00185072
0.00185606
0.00186092
0.00186532
0.00186926
0.00187272
0.00187572
0.00187826
0.00188033
0.00188194
0.00188309
0.00188379
0.00188403
0.00188383
0.00188319
0.00188212
0.00188062
0.00187869
0.00187636
0.00187362
0.00187048
0.00186696
0.00186307
0.00185881
0.00185419
0.00184923
0.00184395
0.00183834
0.00183244
0.00182624
0.00181978
0.00181307
0.00180611
0.00179894
0.00179156
0.00178389
0.00177579
0.00176674
0.00175588
0.00174403
0.00173171
0.00171911
0.00170634
0.00169343
0.00168041
0.00166729
0.00165403
0.00164057
0.00162671
0.00161194
0.00159431
0.00156521
2.5549e-06
4.83441e-05
0.000104326
0.000147404
0.000179448
0.000203672
0.000222745
0.000238666
0.000252828
0.000266129
0.000279089
0.000291969
0.000304871
0.000317801
0.000330725
0.000343585
0.000356321
0.000368871
0.00038118
0.000393197
0.000404877
0.000416178
0.000427064
0.000437505
0.000447475
0.000456964
0.000465977
0.000474551
0.000482762
0.000490745
0.000498695
0.000506869
0.000515555
0.000525054
0.000535709
0.000547777
0.000561106
0.000575809
0.000591789
0.000608862
0.000626933
0.000645655
0.000665363
0.000685866
0.000706871
0.000728376
0.000750292
0.000772575
0.000795202
0.000818153
0.000841414
0.000864972
0.000888813
0.000912929
0.00093731
0.000961949
0.00098684
0.00101198
0.00103735
0.00106296
0.00108879
0.00111485
0.00114112
0.00116759
0.00119426
0.00122111
0.00124814
0.00127533
0.00130267
0.00133015
0.00135775
0.00138545
0.00141325
0.00144112
0.00146905
0.00149702
0.00152501
0.00155301
0.00158099
0.00160894
0.00163684
0.00166467
0.00169242
0.00172005
0.00174757
0.00177494
0.00180216
0.0018292
0.00185605
0.00188269
0.0019091
0.00193527
0.00196116
0.00198675
0.00201203
0.00203695
0.0020615
0.00208563
0.00210923
0.00213222
0.00215475
0.0021769
0.00219868
0.0022201
0.00224113
0.00226178
0.00228202
0.00230184
0.00232122
0.00234015
0.00235862
0.0023766
0.0023941
0.00241108
0.00242755
0.00244349
0.00245888
0.00247372
0.00248799
0.00250169
0.0025148
0.00252732
0.00253924
0.00255055
0.00256125
0.00257132
0.00258077
0.00258958
0.00259776
0.0026053
0.00261219
0.00261845
0.00262405
0.00262902
0.00263334
0.00263701
0.00264004
0.00264244
0.00264419
0.00264532
0.00264582
0.00264571
0.00264498
0.00264364
0.00264171
0.00263919
0.0026361
0.00263243
0.00262822
0.00262346
0.00261817
0.00261237
0.00260607
0.00259929
0.00259204
0.00258434
0.00257622
0.00256768
0.00255876
0.00254948
0.00253987
0.0025299
0.0025196
0.00250892
0.00249772
0.00248565
0.00247227
0.00245793
0.00244301
0.00242769
0.00241211
0.00239631
0.00238033
0.00236419
0.00234787
0.00233126
0.00231411
0.0022957
0.00227388
0.00224202
3.52567e-06
5.7229e-05
0.00012243
0.000173826
0.000212679
0.000242333
0.000265677
0.000284921
0.000301654
0.000316955
0.000331504
0.000345698
0.000359739
0.00037371
0.000387628
0.000401474
0.000415216
0.000428819
0.000442253
0.000455496
0.000468535
0.000481366
0.000493997
0.000506444
0.000518739
0.000530928
0.000543076
0.000555271
0.000567632
0.000580308
0.000593476
0.000607336
0.000622086
0.0006379
0.000654909
0.000673172
0.000692656
0.000713318
0.000735081
0.000757825
0.000781446
0.000805865
0.000831078
0.000856988
0.000883457
0.0009104
0.000937759
0.000965499
0.000993599
0.00102205
0.00105083
0.00107994
0.00110937
0.00113912
0.00116916
0.0011995
0.00123014
0.00126105
0.00129224
0.00132369
0.0013554
0.00138736
0.00141956
0.00145199
0.00148463
0.00151747
0.0015505
0.0015837
0.00161706
0.00165056
0.00168417
0.00171789
0.00175169
0.00178555
0.00181945
0.00185337
0.00188728
0.00192117
0.00195501
0.00198877
0.00202245
0.002056
0.00208943
0.00212269
0.00215577
0.00218865
0.0022213
0.00225372
0.00228587
0.00231774
0.0023493
0.00238054
0.00241143
0.00244195
0.00247208
0.00250178
0.00253105
0.00255985
0.00258801
0.00261561
0.00264274
0.00266943
0.00269568
0.0027215
0.00274687
0.00277177
0.00279619
0.00282012
0.00284353
0.00286641
0.00288874
0.0029105
0.00293169
0.00295228
0.00297226
0.00299162
0.00301034
0.0030284
0.00304581
0.00306254
0.00307858
0.00309392
0.00310855
0.00312247
0.00313567
0.00314813
0.00315986
0.00317084
0.00318107
0.00319054
0.00319926
0.00320721
0.00321441
0.00322084
0.0032265
0.00323141
0.00323555
0.00323893
0.00324155
0.00324343
0.00324456
0.00324495
0.0032446
0.00324354
0.00324175
0.00323927
0.00323609
0.00323222
0.00322769
0.00322251
0.00321668
0.00321022
0.00320317
0.00319552
0.0031873
0.00317854
0.00316924
0.00315944
0.00314917
0.00313843
0.00312726
0.00311565
0.00310363
0.00309114
0.00307811
0.00306433
0.00304957
0.00303399
0.00301778
0.00300114
0.00298415
0.00296689
0.00294942
0.00293176
0.0029139
0.00289575
0.00287704
0.00285707
0.00283396
0.00280325
4.43988e-06
6.44277e-05
0.000137441
0.000195926
0.000240698
0.00027515
0.000302319
0.000324573
0.000343657
0.000360795
0.000376805
0.000392201
0.000407284
0.000422214
0.000437065
0.000451864
0.000466613
0.00048131
0.000495951
0.000510542
0.000525098
0.000539646
0.000554224
0.000568881
0.000583678
0.000598689
0.000614001
0.000629713
0.000645939
0.000662803
0.000680438
0.000698975
0.000718531
0.000739198
0.000761025
0.000784021
0.000808148
0.00083335
0.000859548
0.000886654
0.000914587
0.000943284
0.000972695
0.00100275
0.00103336
0.00106445
0.00109599
0.00112792
0.00116024
0.00119292
0.00122596
0.00125935
0.00129308
0.00132714
0.00136152
0.00139622
0.00143123
0.00146654
0.00150213
0.00153801
0.00157416
0.00161056
0.00164721
0.00168409
0.00172119
0.00175849
0.00179598
0.00183363
0.00187142
0.00190935
0.00194738
0.0019855
0.00202368
0.0020619
0.00210014
0.00213837
0.00217656
0.0022147
0.00225275
0.0022907
0.00232851
0.00236616
0.00240364
0.0024409
0.00247794
0.00251472
0.00255124
0.00258745
0.00262335
0.00265892
0.00269412
0.00272895
0.00276338
0.00279739
0.00283096
0.00286407
0.00289669
0.00292879
0.00296026
0.00299119
0.00302163
0.00305159
0.00308108
0.0031101
0.00313863
0.00316665
0.00319415
0.0032211
0.0032475
0.00327332
0.00329854
0.00332315
0.00334713
0.00337046
0.00339314
0.00341513
0.00343643
0.00345702
0.00347689
0.00349602
0.0035144
0.00353202
0.00354887
0.00356494
0.00358022
0.0035947
0.00360837
0.00362122
0.00363326
0.00364446
0.00365483
0.00366437
0.00367307
0.00368093
0.00368795
0.00369413
0.00369946
0.00370396
0.00370762
0.00371045
0.00371246
0.00371365
0.00371402
0.00371358
0.00371235
0.00371034
0.00370754
0.00370398
0.00369967
0.00369464
0.00368887
0.0036824
0.00367525
0.00366742
0.00365895
0.00364985
0.00364015
0.00362986
0.00361903
0.00360765
0.00359577
0.00358339
0.00357052
0.00355714
0.00354321
0.00352861
0.00351323
0.00349713
0.00348044
0.00346328
0.00344575
0.00342792
0.00340986
0.0033916
0.00337315
0.00335447
0.00333531
0.00331511
0.00329236
0.00326421
5.22796e-06
7.04711e-05
0.000149929
0.000214422
0.000264347
0.000303073
0.000333715
0.000358749
0.000380033
0.00039891
0.000416312
0.000432857
0.000448937
0.000464787
0.000480542
0.000496276
0.000512029
0.000527827
0.000543696
0.000559663
0.000575764
0.000592045
0.000608562
0.00062538
0.000642571
0.000660215
0.000678398
0.000697212
0.00071675
0.000737103
0.000758363
0.000780607
0.000803899
0.000828281
0.000853765
0.000880338
0.00090796
0.000936575
0.000966115
0.000996506
0.00102768
0.00105958
0.00109214
0.00112531
0.00115903
0.00119324
0.0012279
0.00126298
0.00129846
0.00133431
0.00137054
0.00140712
0.00144405
0.00148132
0.00151893
0.00155685
0.00159509
0.00163363
0.00167246
0.00171157
0.00175095
0.00179058
0.00183045
0.00187055
0.00191086
0.00195136
0.00199204
0.00203287
0.00207383
0.00211491
0.00215608
0.00219731
0.0022386
0.0022799
0.00232119
0.00236246
0.00240367
0.0024448
0.00248582
0.0025267
0.00256742
0.00260795
0.00264827
0.00268835
0.00272817
0.0027677
0.00280692
0.00284581
0.00288435
0.00292251
0.00296029
0.00299765
0.00303459
0.00307108
0.00310711
0.00314266
0.00317772
0.00321216
0.00324604
0.0032794
0.00331226
0.00334464
0.00337654
0.00340794
0.00343884
0.00346921
0.00349904
0.00352831
0.003557
0.00358509
0.00361256
0.00363939
0.00366557
0.00369108
0.0037159
0.00374001
0.0037634
0.00378604
0.00380793
0.00382905
0.00384939
0.00386893
0.00388766
0.00390556
0.00392264
0.00393888
0.00395427
0.0039688
0.00398246
0.00399525
0.00400716
0.00401819
0.00402833
0.00403759
0.00404595
0.00405343
0.00406001
0.00406569
0.00407049
0.00407441
0.00407745
0.00407961
0.0040809
0.00408133
0.00408091
0.00407965
0.00407755
0.00407463
0.0040709
0.00406639
0.00406109
0.00405501
0.0040482
0.00404066
0.00403241
0.00402348
0.00401389
0.00400366
0.00399281
0.00398137
0.00396937
0.00395681
0.00394371
0.00393007
0.00391586
0.00390103
0.00388554
0.00386941
0.00385272
0.00383555
0.003818
0.00380014
0.00378203
0.00376375
0.00374531
0.00372671
0.00370779
0.00368809
0.00366651
0.00364118
5.9016e-06
7.53779e-05
0.000160093
0.000229667
0.000284081
0.000326624
0.000360437
0.000388057
0.000411425
0.000431974
0.00045073
0.000468399
0.000485457
0.000502208
0.000518844
0.000535487
0.000552213
0.000569078
0.000586129
0.000603412
0.000620976
0.000638879
0.000657182
0.000675954
0.000695267
0.000715196
0.000735817
0.000757205
0.00077943
0.000802556
0.00082664
0.000851726
0.000877843
0.000905004
0.000933203
0.000962415
0.0009926
0.00102371
0.00105568
0.00108845
0.00112196
0.00115616
0.00119099
0.0012264
0.00126234
0.00129878
0.00133567
0.00137298
0.00141069
0.00144879
0.00148726
0.00152609
0.00156527
0.00160478
0.00164463
0.00168479
0.00172525
0.00176601
0.00180706
0.00184838
0.00188996
0.00193179
0.00197385
0.00201612
0.0020586
0.00210125
0.00214407
0.00218704
0.00223013
0.00227332
0.0023166
0.00235993
0.0024033
0.00244668
0.00249004
0.00253337
0.00257663
0.00261979
0.00266283
0.00270573
0.00274845
0.00279097
0.00283326
0.00287529
0.00291705
0.0029585
0.00299962
0.00304039
0.00308079
0.00312081
0.00316041
0.0031996
0.00323834
0.00327662
0.00331444
0.00335176
0.00338857
0.00342479
0.00346049
0.0034957
0.00353042
0.00356467
0.00359844
0.00363172
0.00366449
0.00369673
0.00372843
0.00375957
0.00379011
0.00382006
0.00384938
0.00387805
0.00390606
0.00393339
0.00396001
0.00398592
0.00401109
0.00403551
0.00405915
0.004082
0.00410405
0.00412528
0.00414568
0.00416523
0.00418394
0.00420178
0.00421874
0.00423482
0.00425001
0.0042643
0.00427767
0.00429013
0.00430167
0.0043123
0.00432201
0.00433079
0.00433864
0.00434556
0.00435156
0.00435665
0.00436082
0.00436408
0.00436642
0.00436786
0.00436841
0.00436811
0.0043669
0.00436483
0.0043619
0.00435815
0.00435356
0.00434818
0.004342
0.00433506
0.00432737
0.00431894
0.00430982
0.00430001
0.00428954
0.00427843
0.0042667
0.00425438
0.00424147
0.004228
0.00421394
0.00419929
0.00418403
0.00416818
0.00415179
0.00413494
0.00411769
0.00410013
0.00408234
0.00406438
0.00404632
0.00402818
0.00400986
0.00399104
0.0039709
0.00394819
6.45605e-06
7.923e-05
0.000168123
0.000241933
0.000300227
0.000346162
0.000382859
0.000412882
0.000438223
0.000460382
0.000480457
0.00049923
0.000517246
0.000534874
0.000552358
0.000569864
0.000587501
0.000605353
0.000623484
0.000641954
0.000660821
0.000680145
0.000699988
0.000720417
0.000741496
0.000763289
0.00078586
0.000809265
0.000833555
0.000858772
0.000884949
0.000912107
0.000940256
0.000969391
0.000999496
0.00103054
0.00106249
0.00109529
0.0011289
0.00116325
0.00119831
0.00123401
0.00127031
0.00130717
0.00134454
0.00138239
0.00142068
0.0014594
0.00149851
0.001538
0.00157785
0.00161806
0.0016586
0.00169947
0.00174067
0.00178216
0.00182396
0.00186604
0.0019084
0.00195103
0.0019939
0.00203702
0.00208036
0.00212391
0.00216765
0.00221158
0.00225567
0.0022999
0.00234426
0.00238872
0.00243327
0.00247789
0.00252254
0.00256721
0.00261188
0.00265651
0.00270108
0.00274557
0.00278994
0.00283417
0.00287823
0.0029221
0.00296574
0.00300913
0.00305224
0.00309504
0.00313751
0.00317963
0.00322138
0.00326274
0.00330369
0.00334421
0.00338429
0.00342392
0.00346308
0.00350175
0.00353991
0.00357755
0.00361471
0.00365142
0.00368767
0.00372347
0.0037588
0.00379365
0.00382801
0.00386185
0.00389515
0.00392789
0.00396005
0.00399161
0.00402255
0.00405285
0.00408248
0.00411143
0.00413967
0.0041672
0.00419398
0.00422
0.00424524
0.00426968
0.00429331
0.0043161
0.00433805
0.00435915
0.00437938
0.00439873
0.00441719
0.00443476
0.00445141
0.00446714
0.00448194
0.0044958
0.00450873
0.00452072
0.00453178
0.00454189
0.00455104
0.00455923
0.00456648
0.00457278
0.00457817
0.00458261
0.00458609
0.00458865
0.00459028
0.00459102
0.00459084
0.00458977
0.00458782
0.004585
0.00458133
0.00457683
0.00457151
0.00456539
0.00455848
0.00455081
0.0045424
0.00453327
0.00452345
0.00451294
0.00450178
0.00448999
0.00447758
0.00446457
0.00445097
0.00443677
0.00442199
0.00440664
0.00439077
0.00437444
0.00435771
0.00434068
0.00432341
0.004306
0.00428853
0.00427105
0.00425353
0.00423575
0.00421707
0.00419663
6.891e-06
8.21197e-05
0.000174209
0.000251469
0.000313063
0.000361976
0.000401271
0.000433504
0.000460695
0.000484386
0.000505732
0.000525573
0.000544513
0.000562975
0.000581252
0.000599546
0.000618
0.000636716
0.000655777
0.000675251
0.0006952
0.000715686
0.000736767
0.000758501
0.000780944
0.000804148
0.000828163
0.000853029
0.000878781
0.000905446
0.00093304
0.00096157
0.000991032
0.00102141
0.00105269
0.00108484
0.00111781
0.00115158
0.00118608
0.00122128
0.00125713
0.00129358
0.00133059
0.00136813
0.00140616
0.00144464
0.00148355
0.00152287
0.00156256
0.00160262
0.00164303
0.00168378
0.00172486
0.00176625
0.00180795
0.00184995
0.00189224
0.00193481
0.00197765
0.00202075
0.0020641
0.0021077
0.00215152
0.00219556
0.00223981
0.00228425
0.00232887
0.00237364
0.00241857
0.00246362
0.00250878
0.00255403
0.00259935
0.00264471
0.00269009
0.00273547
0.00278083
0.00282612
0.00287133
0.00291643
0.00296138
0.00300616
0.00305074
0.00309508
0.00313916
0.00318295
0.00322643
0.00326956
0.00331233
0.00335471
0.0033967
0.00343826
0.0034794
0.00352009
0.00356032
0.00360009
0.00363941
0.00367828
0.00371674
0.00375477
0.00379238
0.00382956
0.0038663
0.00390258
0.00393838
0.00397368
0.00400846
0.00404268
0.00407634
0.0041094
0.00414185
0.00417366
0.00420481
0.00423528
0.00426505
0.0042941
0.00432241
0.00434996
0.00437673
0.00440269
0.00442783
0.00445213
0.00447558
0.00449816
0.00451987
0.00454069
0.00456062
0.00457965
0.00459775
0.00461491
0.00463112
0.00464638
0.0046607
0.00467406
0.00468648
0.00469795
0.00470843
0.00471793
0.00472647
0.00473404
0.00474066
0.00474633
0.00475103
0.00475479
0.00475761
0.0047595
0.00476046
0.00476052
0.00475967
0.00475794
0.00475533
0.00475187
0.00474756
0.00474243
0.00473649
0.00472976
0.00472226
0.004714
0.00470502
0.00469534
0.00468496
0.00467392
0.00466223
0.00464991
0.00463698
0.00462345
0.00460933
0.00459466
0.00457947
0.00456382
0.00454777
0.00453141
0.00451482
0.0044981
0.00448136
0.00446466
0.00444802
0.00443129
0.004414
0.00439545
7.21088e-06
8.41463e-05
0.000178543
0.000258519
0.000322855
0.000374336
0.000415929
0.00045016
0.00047905
0.000504168
0.000526705
0.000547548
0.000567348
0.000586573
0.000605554
0.000624528
0.000643663
0.000663081
0.000682876
0.000703124
0.000723889
0.00074523
0.000767199
0.000789847
0.000813219
0.000837356
0.000862294
0.000888063
0.000914684
0.000942171
0.00097053
0.000999758
0.00102984
0.00106077
0.00109252
0.00112505
0.00115833
0.00119232
0.00122699
0.00126228
0.00129817
0.00133461
0.00137157
0.00140901
0.00144691
0.00148522
0.00152394
0.00156304
0.0016025
0.00164231
0.00168245
0.00172292
0.0017637
0.00180479
0.00184619
0.00188788
0.00192986
0.00197213
0.00201468
0.00205751
0.0021006
0.00214396
0.00218757
0.00223143
0.00227553
0.00231985
0.00236439
0.00240913
0.00245407
0.00249918
0.00254445
0.00258986
0.00263539
0.00268102
0.00272672
0.00277247
0.00281825
0.00286402
0.00290975
0.00295542
0.00300099
0.00304643
0.0030917
0.00313677
0.00318161
0.00322619
0.00327047
0.00331444
0.00335805
0.00340129
0.00344415
0.0034866
0.00352864
0.00357024
0.00361141
0.00365222
0.00369265
0.00373271
0.00377239
0.0038117
0.00385061
0.00388913
0.00392724
0.0039649
0.00400211
0.00403882
0.00407503
0.0041107
0.00414581
0.00418034
0.00421426
0.00424755
0.00428019
0.00431215
0.00434341
0.00437396
0.00440377
0.00443282
0.00446109
0.00448855
0.00451518
0.00454097
0.0045659
0.00458996
0.00461313
0.00463542
0.00465681
0.0046773
0.00469685
0.00471545
0.00473308
0.00474976
0.00476548
0.00478023
0.00479402
0.00480684
0.00481868
0.00482954
0.00483941
0.00484832
0.00485626
0.00486322
0.00486923
0.00487427
0.00487836
0.00488151
0.00488372
0.00488501
0.00488538
0.00488486
0.00488344
0.00488115
0.00487799
0.00487399
0.00486916
0.00486352
0.00485709
0.00484988
0.00484192
0.00483322
0.0048238
0.0048137
0.00480291
0.00479147
0.00477939
0.0047667
0.00475342
0.00473957
0.00472519
0.00471035
0.00469511
0.00467954
0.00466374
0.00464782
0.00463189
0.00461605
0.00460033
0.00458463
0.00456858
0.00455163
7.42441e-06
8.54149e-05
0.000181322
0.00026333
0.000329868
0.000383497
0.000427068
0.000463052
0.000493453
0.000519848
0.000543453
0.000565189
0.000585739
0.000605608
0.000625161
0.000644659
0.000664291
0.000684197
0.000704479
0.000725217
0.000746476
0.000768311
0.000790768
0.000813889
0.00083771
0.000862262
0.00088757
0.000913652
0.00094052
0.00096818
0.000996629
0.00102586
0.00105586
0.0010866
0.00111806
0.00115022
0.00118304
0.00121648
0.00125051
0.00128511
0.00132022
0.00135583
0.00139189
0.0014284
0.00146531
0.00150261
0.00154027
0.0015783
0.00161666
0.00165536
0.00169439