/*--------------------------------*- C++ -*----------------------------------*\
  =========                 |
  \\      /  F ield         | OpenFOAM: The Open Source CFD Toolbox
   \\    /   O peration     | Website:  https://openfoam.org
    \\  /    A nd           | Version:  9
     \\/     M anipulation  |
\*---------------------------------------------------------------------------*/
FoamFile
{
    format      ascii;
    class       volScalarField;
    location    "0.29";
    object      p;
}
// * * * * * * * * * * * * * * * * * * * * * * * * * * * * * * * * * * * * * //

dimensions      [0 2 -2 0 0 0 0];

internalField   nonuniform List<scalar> 
12225
(
-1.18706
-3.47008
-4.63261
-4.9409
-5.1093
-5.2692
-5.394
-5.48268
-5.55259
-5.61396
-5.66859
-5.71632
-5.75746
-5.79136
-5.81693
-5.82389
-5.82196
-5.71553
-4.65456
-5.35669
-5.44699
-5.31204
-5.27212
-5.33959
-5.42057
-5.48669
-5.54402
-5.59779
-5.64779
-5.69288
-5.73277
-5.76662
-5.794
-5.80796
-5.82129
-5.80711
-4.8593
-4.75637
-4.91321
-5.03545
-5.14298
-5.26548
-5.37401
-5.45695
-5.52449
-5.58472
-5.63934
-5.6881
-5.73119
-5.76834
-5.8
-5.82311
-5.85188
-5.88523
-4.72201
-4.6439
-4.92004
-5.09888
-5.19349
-5.29082
-5.38617
-5.46402
-5.52895
-5.58756
-5.64132
-5.68988
-5.73338
-5.77199
-5.80674
-5.8377
-5.87652
-5.92945
-4.72897
-4.74625
-4.9864
-5.13642
-5.21261
-5.29752
-5.38738
-5.46374
-5.52805
-5.58619
-5.63983
-5.68878
-5.7333
-5.77397
-5.81227
-5.84989
-5.89541
-5.95556
-4.79065
-4.83313
-5.01099
-5.14184
-5.21999
-5.30272
-5.38928
-5.46442
-5.52839
-5.58629
-5.63995
-5.68939
-5.73501
-5.77767
-5.81906
-5.86147
-5.91096
-5.97293
-4.85038
-4.88992
-5.02639
-5.14871
-5.23126
-5.31118
-5.39311
-5.46626
-5.52968
-5.58728
-5.6409
-5.69078
-5.73741
-5.78181
-5.82567
-5.87125
-5.92274
-5.98363
-4.90351
-4.93843
-5.0488
-5.16154
-5.24425
-5.32035
-5.39754
-5.46851
-5.53126
-5.58851
-5.64204
-5.6923
-5.73983
-5.78566
-5.83133
-5.87879
-5.93078
-5.98917
-4.95328
-4.98504
-5.07589
-5.1768
-5.25702
-5.32968
-5.40267
-5.4713
-5.53316
-5.58995
-5.64331
-5.69383
-5.74204
-5.7889
-5.83572
-5.884
-5.93544
-5.9908
-5.00062
-5.02927
-5.1045
-5.19351
-5.27003
-5.3396
-5.40874
-5.47483
-5.5355
-5.59168
-5.64475
-5.69532
-5.74394
-5.7914
-5.83874
-5.88703
-5.93726
-5.98952
-5.04537
-5.07067
-5.13352
-5.21168
-5.28369
-5.35014
-5.41569
-5.47909
-5.53834
-5.59375
-5.64635
-5.69677
-5.74549
-5.79312
-5.84046
-5.88818
-5.93682
-5.98613
-5.08385
-5.1062
-5.16009
-5.22944
-5.29682
-5.36025
-5.42271
-5.48363
-5.54139
-5.59592
-5.64795
-5.69803
-5.74655
-5.794
-5.84094
-5.88779
-5.93482
-5.98165
-5.11951
-5.13933
-5.1859
-5.2475
-5.31018
-5.37053
-5.43008
-5.48858
-5.54475
-5.59829
-5.64961
-5.69917
-5.74729
-5.79431
-5.84059
-5.88638
-5.93177
-5.97636
-5.157
-5.17431
-5.21414
-5.26819
-5.32563
-5.38243
-5.43884
-5.49466
-5.54893
-5.60117
-5.65152
-5.70029
-5.7477
-5.79395
-5.83924
-5.88366
-5.9272
-5.9695
-5.19506
-5.20997
-5.24385
-5.29091
-5.34289
-5.39574
-5.44883
-5.5018
-5.55387
-5.60449
-5.65357
-5.70124
-5.74759
-5.79271
-5.83667
-5.87945
-5.92101
-5.96104
-5.23175
-5.24451
-5.27339
-5.31435
-5.36105
-5.40984
-5.45954
-5.50958
-5.55926
-5.60799
-5.6555
-5.70174
-5.7467
-5.79037
-5.83272
-5.87369
-5.91321
-5.95107
-5.26419
-5.2752
-5.30019
-5.33622
-5.37834
-5.42335
-5.46986
-5.51711
-5.56438
-5.61106
-5.65679
-5.70137
-5.7447
-5.7867
-5.82728
-5.86637
-5.90391
-5.93975
-5.28801
-5.29781
-5.3202
-5.35288
-5.39172
-5.43384
-5.47781
-5.52276
-5.56794
-5.61274
-5.65672
-5.69962
-5.74128
-5.78157
-5.8204
-5.85769
-5.8934
-5.92745
-5.29626
-5.30561
-5.32706
-5.35858
-5.39624
-5.43721
-5.47999
-5.52372
-5.56768
-5.61124
-5.65395
-5.69552
-5.73579
-5.77463
-5.81197
-5.84775
-5.88195
-5.91454
-5.28116
-5.29121
-5.31417
-5.34778
-5.38753
-5.43008
-5.47389
-5.51828
-5.56263
-5.60629
-5.64884
-5.69003
-5.72976
-5.76793
-5.8045
-5.83945
-5.87278
-5.90451
-5.25487
-5.26604
-5.29181
-5.32949
-5.3732
-5.41871
-5.46468
-5.51081
-5.55645
-5.60093
-5.64389
-5.68525
-5.72494
-5.76294
-5.79921
-5.83379
-5.86669
-5.89799
-5.21985
-5.23221
-5.26222
-5.30665
-5.35609
-5.40515
-5.45381
-5.50242
-5.55003
-5.59576
-5.63946
-5.68122
-5.72112
-5.75914
-5.79531
-5.82969
-5.86235
-5.89338
-5.17918
-5.19176
-5.2271
-5.28164
-5.3387
-5.39163
-5.44311
-5.49441
-5.54408
-5.59114
-5.6357
-5.67805
-5.71829
-5.75644
-5.79261
-5.82691
-5.85945
-5.89033
-5.1353
-5.14685
-5.1892
-5.25576
-5.32039
-5.37795
-5.43376
-5.48834
-5.53974
-5.58768
-5.63289
-5.67574
-5.71625
-5.7545
-5.79065
-5.82488
-5.8573
-5.88804
-5.08841
-5.09616
-5.15716
-5.2369
-5.30195
-5.36153
-5.42333
-5.48279
-5.53643
-5.58535
-5.63124
-5.67457
-5.7153
-5.75358
-5.78967
-5.82379
-5.8561
-5.88678
-5.04044
-5.01678
-5.12753
-5.23641
-5.2969
-5.3509
-5.41422
-5.47645
-5.5316
-5.58146
-5.62817
-5.67209
-5.71315
-5.75158
-5.78772
-5.82183
-5.85411
-5.88473
-5.03112
-4.88677
-5.04576
-5.21189
-5.2963
-5.35721
-5.42189
-5.48291
-5.5365
-5.58547
-5.6317
-5.67518
-5.71579
-5.75377
-5.78949
-5.82321
-5.85519
-5.8856
-5.17652
-4.8927
-4.92739
-5.05777
-5.17725
-5.28414
-5.37807
-5.45368
-5.51575
-5.5708
-5.62135
-5.66772
-5.71028
-5.74964
-5.78632
-5.82071
-5.85332
-5.88479
-5.11332
-5.61299
-5.62305
-5.46372
-5.38264
-5.40672
-5.46073
-5.50997
-5.5549
-5.59926
-5.64269
-5.6839
-5.72252
-5.75876
-5.79282
-5.82479
-5.85495
-5.88513
-1.77463
-3.64517
-4.71639
-5.00936
-5.1441
-5.28072
-5.39249
-5.47232
-5.5351
-5.59092
-5.64201
-5.68845
-5.7308
-5.76983
-5.80593
-5.83912
-5.86907
-5.894
-6.7931
-6.79307
-6.79337
-6.79397
-6.79478
-6.79573
-6.79685
-6.79814
-6.79963
-6.80134
-6.80329
-6.80552
-6.80806
-6.81095
-6.81424
-6.81796
-6.82214
-6.82684
-6.83208
-6.83791
-6.84437
-6.85151
-6.85935
-6.86796
-6.87737
-6.88762
-6.89878
-6.91089
-6.92398
-6.93805
-6.95309
-6.96906
-6.98586
-7.00345
-7.02216
-7.04278
-7.0655
-7.09011
-7.11774
-7.1507
-7.18826
-7.21901
-7.23166
-7.24556
-7.27063
-7.2968
-7.32488
-7.35409
-7.38418
-7.41493
-7.44619
-7.4778
-7.50965
-7.54162
-7.57359
-7.60546
-7.6371
-7.66841
-7.69926
-7.72953
-7.7591
-7.78783
-7.81559
-7.84223
-7.86761
-7.89158
-7.91398
-7.93463
-7.95339
-7.97007
-7.98449
-7.99649
-8.00587
-8.01245
-8.01604
-8.01645
-8.0135
-8.00699
-7.99673
-7.98254
-7.96422
-7.9416
-7.91449
-7.88271
-7.84609
-7.80446
-7.75764
-7.70549
-7.64784
-7.58455
-7.51546
-7.44046
-7.3594
-7.27218
-7.17869
-7.07882
-6.97255
-6.85991
-6.74084
-6.61514
-6.48261
-6.34297
-6.19642
-6.04299
-5.88272
-5.71564
-5.54177
-5.36115
-5.17385
-4.97994
-4.77951
-4.57266
-4.35951
-4.1402
-3.91489
-3.68374
-3.44693
-3.20466
-2.95714
-2.7046
-2.44726
-2.18538
-1.91921
-1.64902
-1.3751
-1.09772
-0.81718
-0.533782
-0.247832
0.0403601
0.33048
0.62221
0.915233
1.20923
1.50388
1.79887
2.09389
2.38863
2.68278
2.97604
3.26813
3.55876
3.84764
4.13453
4.41915
4.70127
4.98064
5.25705
5.53028
5.80014
6.06644
6.32899
6.58765
6.84226
7.09268
7.3388
7.58048
7.81764
8.05018
8.27803
8.5011
8.71934
8.93272
9.1412
9.34476
9.54336
9.73683
9.92503
10.108
10.2856
10.4581
10.6253
10.7872
10.944
11.0956
11.2425
11.3855
11.5259
11.6727
11.8266
-6.79216
-6.79234
-6.79268
-6.79319
-6.79373
-6.79424
-6.79478
-6.79546
-6.79635
-6.79751
-6.79896
-6.80072
-6.80283
-6.80531
-6.80818
-6.81147
-6.81521
-6.81944
-6.8242
-6.82951
-6.83542
-6.84197
-6.84919
-6.85713
-6.86583
-6.87533
-6.88565
-6.89682
-6.90881
-6.92162
-6.9353
-6.94998
-6.96568
-6.98244
-7.00047
-7.01961
-7.03923
-7.05921
-7.07941
-7.09781
-7.11121
-7.12526
-7.16122
-7.20691
-7.23999
-7.27084
-7.30141
-7.33199
-7.36281
-7.39394
-7.42535
-7.457
-7.4888
-7.52069
-7.55255
-7.58429
-7.61582
-7.64702
-7.67778
-7.70798
-7.73749
-7.76621
-7.79397
-7.82066
-7.84611
-7.87019
-7.89273
-7.91357
-7.93255
-7.94949
-7.96422
-7.97656
-7.98633
-7.99334
-7.99741
-7.99834
-7.99595
-7.99005
-7.98045
-7.96695
-7.94938
-7.92755
-7.90128
-7.87039
-7.8347
-7.79404
-7.74826
-7.69719
-7.64067
-7.57857
-7.51073
-7.43703
-7.35733
-7.27153
-7.17951
-7.08116
-6.97636
-6.86502
-6.747
-6.62206
-6.49024
-6.35189
-6.20683
-6.05499
-5.89635
-5.73091
-5.5587
-5.37975
-5.19411
-5.00187
-4.8031
-4.59791
-4.38641
-4.16873
-3.94503
-3.71548
-3.48024
-3.23951
-2.9935
-2.74244
-2.48654
-2.22605
-1.96124
-1.69237
-1.4197
-1.14354
-0.864156
-0.581863
-0.29696
-0.00975667
0.279435
0.570298
0.862516
1.15577
1.44975
1.74413
2.0386
2.33285
2.62659
2.9195
3.21129
3.50169
3.79041
4.07719
4.36177
4.6439
4.92334
5.19987
5.47327
5.74335
6.0099
6.27277
6.53178
6.78677
7.03761
7.28418
7.52635
7.76401
7.99709
8.22548
8.44913
8.66797
8.88196
9.09106
9.29525
9.49447
9.68857
9.87742
10.061
10.2394
10.4125
10.5804
10.7432
10.9008
11.0535
11.2016
11.3464
11.4889
11.6392
11.7871
-6.78919
-6.79002
-6.79092
-6.79177
-6.79239
-6.79284
-6.79326
-6.79377
-6.79448
-6.79543
-6.79667
-6.79824
-6.80015
-6.80244
-6.80513
-6.80826
-6.81184
-6.81593
-6.82054
-6.82572
-6.8315
-6.83791
-6.84501
-6.85282
-6.86137
-6.87072
-6.88088
-6.89188
-6.90373
-6.91644
-6.93003
-6.94456
-6.96014
-6.97698
-6.99537
-7.01509
-7.03572
-7.0575
-7.08053
-7.10345
-7.12426
-7.1444
-7.16986
-7.19968
-7.22873
-7.25812
-7.28795
-7.31809
-7.34853
-7.37925
-7.41021
-7.44137
-7.47267
-7.50403
-7.53537
-7.56661
-7.59763
-7.62835
-7.65866
-7.68843
-7.71756
-7.74592
-7.77337
-7.79978
-7.825
-7.84889
-7.87129
-7.89204
-7.91098
-7.92793
-7.94273
-7.95518
-7.96513
-7.97237
-7.97672
-7.978
-7.97602
-7.97058
-7.96151
-7.94861
-7.93169
-7.91057
-7.88507
-7.85502
-7.82023
-7.78053
-7.73577
-7.68578
-7.6304
-7.5695
-7.50292
-7.43052
-7.35219
-7.2678
-7.17723
-7.08038
-6.97713
-6.86734
-6.75087
-6.62782
-6.49796
-6.36144
-6.2182
-6.06821
-5.91144
-5.7479
-5.57761
-5.40059
-5.2169
-5.0266
-4.82978
-4.62653
-4.41697
-4.20122
-3.97944
-3.75178
-3.51842
-3.27954
-3.03535
-2.78606
-2.53191
-2.27313
-2.00997
-1.74271
-1.4716
-1.19694
-0.919005
-0.638098
-0.354517
-0.0685709
0.219431
0.509175
0.800344
1.09262
1.3857
1.67925
1.97297
2.26655
2.55968
2.85207
3.14342
3.43344
3.72187
4.00842
4.29284
4.57489
4.85431
5.13089
5.40441
5.67466
5.94146
6.20461
6.46396
6.71934
6.97062
7.21766
7.46035
7.69857
7.93222
8.16123
8.38551
8.60499
8.81963
9.02937
9.23417
9.43397
9.62872
9.81834
10.0028
10.182
10.356
10.5248
10.6885
10.8471
11.0011
11.1506
11.2974
11.4416
11.5946
11.7324
-6.78447
-6.78597
-6.78772
-6.78926
-6.79035
-6.79111
-6.79175
-6.7924
-6.79318
-6.79417
-6.79541
-6.79695
-6.79884
-6.8011
-6.80375
-6.80684
-6.81039
-6.81444
-6.81901
-6.82414
-6.82987
-6.83624
-6.84327
-6.85101
-6.85948
-6.86873
-6.87877
-6.88964
-6.90137
-6.91398
-6.92749
-6.94194
-6.95737
-6.9739
-6.99166
-7.01068
-7.03074
-7.05182
-7.07397
-7.09694
-7.12032
-7.14439
-7.16991
-7.19683
-7.22456
-7.25303
-7.28206
-7.31155
-7.34142
-7.37163
-7.4021
-7.43279
-7.46363
-7.49454
-7.52545
-7.55626
-7.58689
-7.61724
-7.64721
-7.67668
-7.70553
-7.73364
-7.76089
-7.78713
-7.81222
-7.83602
-7.85837
-7.87911
-7.89808
-7.9151
-7.93001
-7.94263
-7.95277
-7.96026
-7.9649
-7.96652
-7.96491
-7.9599
-7.95129
-7.9389
-7.92254
-7.90203
-7.87718
-7.84781
-7.81376
-7.77485
-7.73091
-7.68179
-7.62732
-7.56737
-7.50178
-7.43041
-7.35314
-7.26984
-7.18038
-7.08466
-6.98256
-6.87397
-6.75878
-6.63701
-6.50857
-6.37348
-6.23167
-6.08312
-5.92782
-5.76575
-5.59694
-5.42142
-5.23924
-5.05045
-4.85513
-4.65339
-4.44533
-4.23108
-4.01078
-3.78459
-3.55268
-3.31524
-3.07246
-2.82455
-2.57176
-2.3143
-2.05244
-1.78643
-1.51654
-1.24306
-0.966256
-0.686435
-0.403893
-0.118936
0.168128
0.456986
0.747325
1.03883
1.33118
1.62407
1.91719
2.21023
2.50287
2.79483
3.08581
3.37553
3.6637
3.95006
4.23434
4.5163
4.7957
5.0723
5.34589
5.61626
5.88322
6.14659
6.40619
6.66187
6.91348
7.16089
7.40397
7.64262
7.87672
8.10619
8.33097
8.55097
8.76614
8.97642
9.18174
9.38202
9.57723
9.76736
9.95235
10.1322
10.3068
10.4762
10.6406
10.8
10.9548
11.1052
11.2529
11.3971
11.5491
11.6748
-6.77904
-6.78126
-6.78406
-6.78646
-6.78817
-6.78941
-6.79042
-6.79138
-6.7924
-6.79358
-6.79498
-6.79666
-6.79867
-6.80104
-6.8038
-6.80699
-6.81063
-6.81477
-6.81944
-6.82467
-6.83049
-6.83695
-6.84407
-6.8519
-6.86047
-6.86982
-6.87997
-6.89096
-6.90281
-6.91557
-6.92927
-6.94393
-6.9596
-6.97632
-6.99414
-7.01305
-7.03298
-7.05388
-7.0757
-7.09835
-7.12181
-7.14628
-7.1719
-7.19848
-7.22578
-7.25372
-7.28222
-7.3112
-7.3406
-7.37036
-7.40042
-7.43071
-7.46117
-7.49173
-7.5223
-7.5528
-7.58314
-7.61322
-7.64295
-7.6722
-7.70087
-7.72882
-7.75594
-7.78208
-7.80711
-7.83087
-7.85321
-7.87397
-7.89299
-7.9101
-7.92513
-7.93789
-7.94821
-7.9559
-7.96078
-7.96266
-7.96135
-7.95666
-7.94841
-7.93641
-7.92046
-7.90039
-7.87601
-7.84715
-7.81363
-7.77528
-7.73194
-7.68343
-7.62962
-7.57033
-7.50544
-7.43481
-7.35829
-7.27576
-7.1871
-7.0922
-6.99095
-6.88325
-6.76902
-6.6482
-6.52076
-6.38666
-6.24584
-6.0983
-5.944
-5.78295
-5.61516
-5.44066
-5.2595
-5.07174
-4.87745
-4.67673
-4.46969
-4.25645
-4.03716
-3.81196
-3.58104
-3.34456
-3.10274
-2.85577
-2.60389
-2.34734
-2.08635
-1.8212
-1.55214
-1.27945
-1.00342
-0.724343
-0.442512
-0.158232
0.128189
0.416438
0.706204
0.997171
1.28903
1.58146
1.87415
2.16681
2.45911
2.75077
3.04148
3.33097
3.61896
3.90517
4.18935
4.47124
4.7506
5.02721
5.30084
5.57128
5.83835
6.10186
6.36163
6.6175
6.86934
7.11699
7.36034
7.59928
7.8337
8.06352
8.28865
8.50901
8.72455
8.93519
9.14085
9.34144
9.53694
9.72737
9.91268
10.0928
10.2678
10.4377
10.6024
10.7623
10.9174
11.0682
11.2158
11.359
11.5081
11.6221
-6.77387
-6.77681
-6.78058
-6.78386
-6.78626
-6.78806
-6.78954
-6.7909
-6.79227
-6.79376
-6.79544
-6.79737
-6.79962
-6.80221
-6.8052
-6.8086
-6.81247
-6.81682
-6.82171
-6.82716
-6.8332
-6.83989
-6.84725
-6.85532
-6.86414
-6.87374
-6.88416
-6.89542
-6.90757
-6.92062
-6.93461
-6.94957
-6.96552
-6.98249
-7.00048
-7.01949
-7.03948
-7.06041
-7.08224
-7.10491
-7.12838
-7.15273
-7.178
-7.20411
-7.23094
-7.25842
-7.28647
-7.31503
-7.34404
-7.37344
-7.40315
-7.43313
-7.46329
-7.49358
-7.5239
-7.55417
-7.58431
-7.61422
-7.64379
-7.67291
-7.70147
-7.72934
-7.7564
-7.78251
-7.80753
-7.8313
-7.85368
-7.8745
-7.89361
-7.91082
-7.92596
-7.93887
-7.94935
-7.95723
-7.96231
-7.96441
-7.96333
-7.9589
-7.95093
-7.93921
-7.92358
-7.90383
-7.8798
-7.8513
-7.81816
-7.78021
-7.73727
-7.6892
-7.63584
-7.57702
-7.51262
-7.44249
-7.3665
-7.28451
-7.19642
-7.1021
-7.00145
-6.89438
-6.78082
-6.66068
-6.53392
-6.40049
-6.26035
-6.11348
-5.95985
-5.79948
-5.63236
-5.45854
-5.27806
-5.09097
-4.89735
-4.69731
-4.49094
-4.27837
-4.05974
-3.8352
-3.60492
-3.36909
-3.1279
-2.88156
-2.63029
-2.37434
-2.11394
-1.84936
-1.58085
-1.30871
-1.0332
-0.754631
-0.473286
-0.189472
0.0965033
0.384329
0.673694
0.964284
1.25579
1.54789
1.84028
2.13265
2.4247
2.71613
3.00665
3.29597
3.5838
3.86989
4.15397
4.43579
4.71511
4.9917
5.26533
5.53581
5.80293
6.06651
6.32637
6.58236
6.83433
7.08214
7.32567
7.56481
7.79944
8.02948
8.25484
8.47544
8.69121
8.90207
9.10794
9.30875
9.50445
9.69507
9.88059
10.061
10.2362
10.4063
10.5713
10.7313
10.8866
11.0373
11.1843
11.3257
11.4718
11.5755
-6.76994
-6.77344
-6.77801
-6.78205
-6.7851
-6.78745
-6.78943
-6.79122
-6.79299
-6.79483
-6.79685
-6.79911
-6.80166
-6.80456
-6.80784
-6.81154
-6.8157
-6.82035
-6.82553
-6.83128
-6.83764
-6.84463
-6.85231
-6.8607
-6.86984
-6.87977
-6.89051
-6.9021
-6.91457
-6.92794
-6.94223
-6.95747
-6.97366
-6.99082
-7.00895
-7.02803
-7.04805
-7.06897
-7.09077
-7.11341
-7.13686
-7.16111
-7.18617
-7.21198
-7.23849
-7.26564
-7.29337
-7.32163
-7.35035
-7.37948
-7.40896
-7.43872
-7.46868
-7.49879
-7.52896
-7.5591
-7.58913
-7.61895
-7.64845
-7.67753
-7.70606
-7.73393
-7.76101
-7.78715
-7.81221
-7.83605
-7.85851
-7.87943
-7.89864
-7.91597
-7.93125
-7.9443
-7.95493
-7.96297
-7.96822
-7.9705
-7.96962
-7.96538
-7.95761
-7.94611
-7.93069
-7.91117
-7.88737
-7.85912
-7.82623
-7.78854
-7.74587
-7.69808
-7.64501
-7.5865
-7.52241
-7.45261
-7.37696
-7.29533
-7.2076
-7.11366
-7.01341
-6.90676
-6.79362
-6.67392
-6.54759
-6.41458
-6.27486
-6.12841
-5.9752
-5.81524
-5.64854
-5.47514
-5.29507
-5.1084
-4.9152
-4.71557
-4.50962
-4.29746
-4.07924
-3.85512
-3.62525
-3.38983
-3.14904
-2.9031
-2.65224
-2.39667
-2.13666
-1.87246
-1.60433
-1.33255
-1.0574
-0.779173
-0.498164
-0.214676
0.0709854
0.358509
0.647584
0.937896
1.22913
1.52099
1.81315
2.1053
2.39715
2.68839
2.97874
3.2679
3.5556
3.84157
4.12555
4.40729
4.68654
4.96308
5.23668
5.50714
5.77426
6.03785
6.29775
6.5538
6.80583
7.05373
7.29736
7.5366
7.77136
8.00153
8.22702
8.44776
8.66367
8.87467
9.08068
9.28163
9.47748
9.66824
9.85389
10.0344
10.2098
10.38
10.5451
10.7052
10.8603
11.0107
11.1569
11.2964
11.4396
11.5342
-6.76766
-6.77158
-6.77677
-6.78143
-6.78504
-6.78789
-6.79032
-6.79255
-6.79471
-6.79692
-6.7993
-6.8019
-6.80478
-6.80801
-6.81161
-6.81564
-6.82012
-6.8251
-6.83062
-6.8367
-6.84339
-6.85073
-6.85874
-6.86747
-6.87695
-6.88721
-6.89828
-6.91019
-6.92297
-6.93662
-6.95118
-6.96664
-6.98303
-7.00035
-7.01858
-7.03773
-7.05776
-7.07867
-7.10043
-7.12302
-7.1464
-7.17056
-7.19548
-7.22112
-7.24744
-7.27439
-7.30193
-7.32999
-7.35854
-7.38752
-7.41685
-7.44649
-7.47636
-7.50639
-7.5365
-7.56661
-7.59662
-7.62643
-7.65595
-7.68507
-7.71365
-7.74158
-7.76873
-7.79496
-7.82012
-7.84407
-7.86664
-7.88768
-7.90702
-7.92448
-7.9399
-7.95308
-7.96386
-7.97203
-7.97742
-7.97984
-7.9791
-7.975
-7.96736
-7.95599
-7.94071
-7.92133
-7.89767
-7.86955
-7.8368
-7.79925
-7.75673
-7.70909
-7.65617
-7.59782
-7.5339
-7.46428
-7.38881
-7.30738
-7.21985
-7.12613
-7.02611
-6.91969
-6.80678
-6.68731
-6.5612
-6.42842
-6.28892
-6.14268
-5.98969
-5.82994
-5.66345
-5.49026
-5.3104
-5.12394
-4.93097
-4.73156
-4.52582
-4.3139
-4.09591
-3.87201
-3.64238
-3.40719
-3.16664
-2.92094
-2.67031
-2.41499
-2.15522
-1.89125
-1.62336
-1.35182
-1.07691
-0.79892
-0.518144
-0.234884
0.0505523
0.337855
0.626714
0.916816
1.20785
1.49951
1.79148
2.08345
2.37512
2.6662
2.95639
3.24541
3.53297
3.81882
4.10269
4.38432
4.66347
4.93993
5.21346
5.48387
5.75094
6.01451
6.27439
6.53043
6.78248
7.0304
7.27406
7.51335
7.74815
7.97838
8.20395
8.42476
8.64075
8.85183
9.05792
9.25896
9.45491
9.64576
9.8315
10.0121
10.1875
10.3578
10.5229
10.6829
10.8378
10.9876
11.1328
11.2703
11.411
11.4976
-6.76732
-6.77151
-6.77713
-6.78224
-6.78628
-6.78955
-6.79238
-6.79498
-6.7975
-6.80007
-6.80277
-6.8057
-6.80891
-6.81245
-6.81637
-6.82071
-6.82551
-6.83081
-6.83665
-6.84305
-6.85006
-6.85771
-6.86604
-6.87509
-6.88487
-6.89543
-6.90678
-6.91896
-6.93199
-6.94587
-6.96064
-6.97628
-6.99282
-7.01025
-7.02857
-7.04776
-7.06782
-7.08873
-7.11047
-7.13302
-7.15635
-7.18045
-7.20529
-7.23083
-7.25705
-7.2839
-7.31134
-7.33933
-7.3678
-7.39672
-7.42602
-7.45564
-7.4855
-7.51555
-7.54569
-7.57584
-7.60592
-7.63581
-7.66542
-7.69463
-7.72332
-7.75138
-7.77865
-7.80501
-7.83031
-7.85439
-7.8771
-7.89827
-7.91774
-7.93534
-7.95087
-7.96418
-7.97506
-7.98334
-7.98883
-7.99133
-7.99067
-7.98665
-7.97907
-7.96776
-7.95253
-7.9332
-7.90958
-7.88149
-7.84878
-7.81126
-7.76878
-7.72117
-7.66829
-7.60998
-7.54611
-7.47653
-7.40112
-7.31975
-7.2323
-7.13865
-7.03871
-6.93236
-6.81953
-6.70012
-6.57408
-6.44135
-6.30191
-6.15572
-6.00278
-5.84308
-5.67665
-5.50351
-5.32372
-5.13732
-4.94441
-4.74508
-4.53943
-4.32758
-4.10969
-3.88589
-3.65636
-3.42129
-3.18085
-2.93528
-2.68478
-2.42959
-2.16996
-1.90614
-1.6384
-1.36701
-1.09226
-0.814432
-0.53382
-0.250727
0.03454
0.321672
0.61036
0.90029
1.19115
1.48264
1.77444
2.06625
2.35776
2.64867
2.93871
3.22757
3.51499
3.80069
4.08442
4.36592
4.64496
4.92131
5.19474
5.46505
5.73204
5.99554
6.25536
6.51135
6.76335
7.01124
7.25487
7.49415
7.72895
7.95919
8.18477
8.40561
8.62162
8.83273
9.03886
9.23994
9.43595
9.62686
9.81265
9.99328
10.1687
10.339
10.504
10.6638
10.8184
10.9675
11.1115
11.247
11.3853
11.4651
-6.76903
-6.77334
-6.77917
-6.78456
-6.78891
-6.7925
-6.79564
-6.79855
-6.80137
-6.80422
-6.80722
-6.81042
-6.8139
-6.81772
-6.82191
-6.82652
-6.83159
-6.83716
-6.84326
-6.84993
-6.85721
-6.86512
-6.87371
-6.883
-6.89303
-6.90382
-6.91539
-6.92778
-6.94099
-6.95505
-6.96996
-6.98573
-7.00238
-7.01989
-7.03827
-7.0575
-7.07759
-7.09851
-7.12024
-7.14278
-7.1661
-7.19018
-7.215
-7.24053
-7.26672
-7.29356
-7.321
-7.34899
-7.37749
-7.40644
-7.43579
-7.46547
-7.49541
-7.52555
-7.5558
-7.58607
-7.61627
-7.6463
-7.67605
-7.70542
-7.73426
-7.76247
-7.7899
-7.81641
-7.84185
-7.86608
-7.88892
-7.91022
-7.92981
-7.94751
-7.96314
-7.97652
-7.98747
-7.9958
-8.00133
-8.00386
-8.00321
-7.99918
-7.9916
-7.98027
-7.965
-7.94562
-7.92195
-7.89381
-7.86103
-7.82345
-7.7809
-7.73322
-7.68027
-7.6219
-7.55797
-7.48833
-7.41287
-7.33145
-7.24396
-7.15028
-7.05029
-6.94389
-6.83099
-6.71151
-6.5854
-6.45261
-6.3131
-6.16684
-6.01383
-5.85406
-5.68756
-5.51437
-5.33452
-5.14808
-4.95514
-4.75577
-4.5501
-4.33825
-4.12036
-3.89657
-3.66706
-3.43202
-3.19163
-2.9461
-2.69566
-2.44055
-2.181
-1.91727
-1.64963
-1.37835
-1.10372
-0.826012
-0.545532
-0.262579
0.0225418
0.309523
0.598055
0.887825
1.17852
1.46984
1.76146
2.05309
2.34443
2.63517
2.92503
3.21372
3.50097
3.78651
4.07007
4.35142
4.6303
4.9065
5.17979
5.44997
5.71683
5.98021
6.23992
6.49581
6.74773
6.99553
7.2391
7.47832
7.71307
7.94327
8.16882
8.38963
8.60562
8.81672
9.02286
9.22396
9.41999
9.61092
9.79672
9.97735
10.1528
10.323
10.4879
10.6474
10.8015
10.9499
11.0926
11.2261
11.3623
11.4363
-6.77268
-6.777
-6.78287
-6.78837
-6.79289
-6.79668
-6.80004
-6.80317
-6.80621
-6.80928
-6.81248
-6.81589
-6.81958
-6.82359
-6.82798
-6.83278
-6.83805
-6.84381
-6.8501
-6.85696
-6.86442
-6.87252
-6.88129
-6.89075
-6.90094
-6.91189
-6.92361
-6.93612
-6.94946
-6.96362
-6.97863
-6.99449
-7.0112
-7.02877
-7.04719
-7.06646
-7.08657
-7.10751
-7.12928
-7.15184
-7.17519
-7.1993
-7.22415
-7.24972
-7.27597
-7.30287
-7.33037
-7.35845
-7.38704
-7.4161
-7.44557
-7.47538
-7.50547
-7.53576
-7.56617
-7.5966
-7.62698
-7.65718
-7.6871
-7.71664
-7.74565
-7.77402
-7.8016
-7.82825
-7.85383
-7.87817
-7.90112
-7.92251
-7.94217
-7.95992
-7.97559
-7.98899
-7.99995
-8.00826
-8.01375
-8.01623
-8.0155
-8.01139
-8.00371
-7.99226
-7.97687
-7.95736
-7.93354
-7.90526
-7.87232
-7.83458
-7.79188
-7.74405
-7.69094
-7.63242
-7.56833
-7.49856
-7.42296
-7.34141
-7.25379
-7.15996
-7.05981
-6.95325
-6.84019
-6.72054
-6.59427
-6.46131
-6.32163
-6.17521
-6.02204
-5.86213
-5.69549
-5.52216
-5.34219
-5.15564
-4.96259
-4.76314
-4.55739
-4.34547
-4.12753
-3.90371
-3.67418
-3.43913
-3.19874
-2.95323
-2.70283
-2.44776
-2.18827
-1.92461
-1.65706
-1.38587
-1.11135
-0.833766
-0.553422
-0.270616
0.0143493
0.301167
0.589527
0.87912
1.16963
1.46076
1.75219
2.04362
2.33475
2.62529
2.91494
3.20343
3.49047
3.7758
4.05916
4.3403
4.61899
4.89499
5.16809
5.43809
5.70478
5.96799
6.22755
6.48329
6.73507
6.98275
7.2262
7.46532
7.69998
7.9301
8.15557
8.37632
8.59227
8.80332
9.00943
9.21052
9.40654
9.59746
9.78325
9.96385
10.1392
10.3093
10.474
10.6332
10.7868
10.9343
11.0758
11.2074
11.3416
11.4107
-6.77811
-6.78232
-6.78809
-6.79355
-6.79811
-6.80199
-6.80546
-6.80871
-6.81186
-6.81506
-6.81837
-6.8219
-6.82569
-6.8298
-6.83429
-6.8392
-6.84456
-6.85042
-6.85681
-6.86376
-6.87132
-6.87951
-6.88836
-6.89791
-6.90819
-6.91921
-6.931
-6.94358
-6.95697
-6.97119
-6.98624
-7.00214
-7.01889
-7.0365
-7.05495
-7.07426
-7.09441
-7.11539
-7.1372
-7.15982
-7.18323
-7.20742
-7.23235
-7.25801
-7.28437
-7.31138
-7.33902
-7.36723
-7.39597
-7.42519
-7.45482
-7.48481
-7.51508
-7.54554
-7.57613
-7.60675
-7.6373
-7.66767
-7.69776
-7.72745
-7.7566
-7.7851
-7.81279
-7.83955
-7.8652
-7.8896
-7.91259
-7.934
-7.95365
-7.97138
-7.987
-8.00033
-8.01119
-8.01939
-8.02475
-8.02708
-8.02619
-8.02189
-8.01401
-8.00236
-7.98675
-7.96702
-7.94297
-7.91445
-7.88129
-7.84331
-7.80037
-7.75231
-7.69898
-7.64024
-7.57595
-7.50597
-7.43017
-7.34843
-7.26059
-7.16653
-7.06614
-6.95934
-6.84603
-6.72615
-6.59964
-6.46645
-6.32655
-6.17992
-6.02654
-5.86643
-5.69961
-5.52611
-5.34598
-5.15929
-4.96611
-4.76655
-4.56071
-4.34871
-4.13071
-3.90684
-3.67728
-3.44222
-3.20184
-2.95636
-2.706
-2.45099
-2.19158
-1.92802
-1.66057
-1.38951
-1.11512
-0.837682
-0.557503
-0.274873
0.00990481
0.296524
0.584677
0.874053
1.16434
1.45523
1.74642
2.0376
2.32848
2.61877
2.90816
3.19639
3.48316
3.76824
4.05134
4.33223
4.61066
4.88642
5.15928
5.42905
5.69551
5.95851
6.21786
6.4734
6.725
6.9725
7.2158
7.45476
7.68929
7.91929
8.14466
8.36531
8.58117
8.79216
8.99821
9.19926
9.39525
9.58614
9.77189
9.95243
10.1277
10.2976
10.4621
10.6209
10.7739
10.9206
11.0608
11.1906
11.323
11.388
-6.78508
-6.7891
-6.79465
-6.79996
-6.80445
-6.80829
-6.81175
-6.81499
-6.81816
-6.82135
-6.82467
-6.82818
-6.83197
-6.83608
-6.84056
-6.84545
-6.85081
-6.85666
-6.86304
-6.86999
-6.87755
-6.88573
-6.89459
-6.90414
-6.91441
-6.92543
-6.93723
-6.94981
-6.96321
-6.97743
-6.99249
-7.0084
-7.02516
-7.04279
-7.06127
-7.08061
-7.1008
-7.12184
-7.14372
-7.16641
-7.18992
-7.21421
-7.23926
-7.26504
-7.29154
-7.3187
-7.34649
-7.37486
-7.40377
-7.43316
-7.46296
-7.49312
-7.52355
-7.55418
-7.58493
-7.61569
-7.64637
-7.67686
-7.70705
-7.73683
-7.76605
-7.79459
-7.82231
-7.84906
-7.8747
-7.89906
-7.92198
-7.94329
-7.96283
-7.98041
-7.99587
-8.00901
-8.01967
-8.02764
-8.03276
-8.03483
-8.03366
-8.02909
-8.02092
-8.00897
-7.99306
-7.97302
-7.94867
-7.91985
-7.88639
-7.84812
-7.8049
-7.75656
-7.70296
-7.64396
-7.57942
-7.50921
-7.43317
-7.35116
-7.26304
-7.16868
-7.06801
-6.96092
-6.84733
-6.72717
-6.6004
-6.46695
-6.32681
-6.17994
-6.02635
-5.86605
-5.69904
-5.52538
-5.3451
-5.15828
-4.965
-4.76534
-4.55943
-4.34738
-4.12934
-3.90546
-3.6759
-3.44086
-3.20054
-2.95512
-2.70485
-2.44994
-2.19065
-1.92723
-1.65994
-1.38905
-1.11485
-0.837622
-0.557664
-0.27527
0.00925901
0.295617
0.583497
0.87259
1.16259
1.45318
1.74406
2.03493
2.32549
2.61545
2.90452
3.19242
3.47887
3.76361
4.04639
4.32696
4.60509
4.88053
5.1531
5.42257
5.68875
5.95147
6.21056
6.46586
6.71722
6.96451
7.2076
7.44637
7.68073
7.91056
8.13579
8.35632
8.57207
8.78296
8.98894
9.18992
9.38586
9.5767
9.76239
9.94286
10.118
10.2878
10.452
10.6104
10.7628
10.9085
11.0475
11.1756
11.3061
11.3679
-6.79335
-6.79715
-6.8024
-6.80746
-6.81175
-6.81544
-6.81875
-6.82186
-6.82489
-6.82794
-6.83112
-6.83451
-6.83816
-6.84213
-6.84648
-6.85125
-6.85648
-6.86222
-6.86849
-6.87534
-6.88279
-6.89089
-6.89966
-6.90913
-6.91933
-6.93029
-6.94202
-6.95455
-6.9679
-6.98209
-6.99712
-7.01301
-7.02976
-7.04739
-7.06589
-7.08525
-7.10549
-7.12659
-7.14853
-7.17131
-7.19491
-7.2193
-7.24447
-7.27038
-7.297
-7.32429
-7.35222
-7.38072
-7.40976
-7.43927
-7.46919
-7.49945
-7.52998
-7.56069
-7.59149
-7.6223
-7.653
-7.68349
-7.71367
-7.74339
-7.77255
-7.80099
-7.82859
-7.8552
-7.88067
-7.90483
-7.92754
-7.94861
-7.96789
-7.9852
-8.00035
-8.01318
-8.0235
-8.03113
-8.03589
-8.0376
-8.03606
-8.03111
-8.02256
-8.01024
-7.99397
-7.97357
-7.94887
-7.91971
-7.88592
-7.84734
-7.80382
-7.7552
-7.70133
-7.64208
-7.5773
-7.50683
-7.43051
-7.34818
-7.25974
-7.16508
-7.0641
-6.95672
-6.84285
-6.72243
-6.5954
-6.46172
-6.32135
-6.17429
-6.02052
-5.86005
-5.6929
-5.51911
-5.33873
-5.15183
-4.95848
-4.75879
-4.55286
-4.34082
-4.12281
-3.89898
-3.6695
-3.43456
-3.19435
-2.94908
-2.69897
-2.44424
-2.18516
-1.92196
-1.65491
-1.38428
-1.11035
-0.833418
-0.553767
-0.271695
0.012497
0.298506
0.586025
0.874747
1.16436
1.45457
1.74505
2.03552
2.32568
2.61524
2.9039
3.19139
3.47744
3.76178
4.04416
4.32434
4.60207
4.87714
5.14933
5.41845
5.68429
5.94668
6.20545
6.46044
6.71152
6.95854
7.20137
7.43992
7.67406
7.9037
8.12875
8.34913
8.56474
8.77552
8.9814
9.18231
9.37818
9.56896
9.75458
9.93495
10.11
10.2795
10.4434
10.6014
10.7532
10.898
11.0358
11.1623
11.2911
11.3503
-6.80276
-6.80633
-6.81125
-6.81596
-6.81994
-6.82333
-6.82634
-6.82914
-6.83187
-6.83462
-6.83751
-6.8406
-6.84397
-6.84767
-6.85177
-6.85629
-6.86129
-6.8668
-6.87286
-6.87951
-6.88678
-6.8947
-6.90331
-6.91263
-6.92269
-6.93351
-6.94513
-6.95755
-6.9708
-6.98491
-6.99987
-7.0157
-7.03241
-7.05001
-7.06849
-7.08786
-7.10811
-7.12923
-7.15121
-7.17403
-7.19768
-7.22213
-7.24735
-7.27331
-7.29999
-7.32732
-7.35528
-7.38381
-7.41286
-7.44236
-7.47225
-7.50246
-7.53291
-7.56353
-7.59421
-7.62488
-7.65541
-7.68572
-7.71568
-7.74517
-7.77406
-7.80223
-7.82952
-7.85581
-7.88093
-7.90474
-7.92706
-7.94775
-7.96662
-7.98351
-7.99824
-8.01063
-8.02051
-8.0277
-8.03202
-8.03328
-8.03131
-8.02593
-8.01697
-8.00424
-7.98757
-7.9668
-7.94174
-7.91225
-7.87814
-7.83927
-7.79548
-7.74661
-7.69252
-7.63305
-7.56802
-7.49726
-7.42063
-7.33799
-7.24925
-7.15431
-7.05306
-6.94543
-6.83132
-6.71068
-6.58345
-6.4496
-6.30908
-6.16188
-6.008
-5.84744
-5.68023
-5.50641
-5.32602
-5.13913
-4.94582
-4.74618
-4.54034
-4.3284
-4.11052
-3.88685
-3.65756
-3.42282
-3.18284
-2.93782
-2.68798
-2.43355
-2.17478
-1.91192
-1.64522
-1.37497
-1.10143
-0.824903
-0.545673
-0.264036
0.0197079
0.305257
0.592305
0.880547
1.16968
1.45939
1.74937
2.03934
2.329
2.61805
2.9062
3.19319
3.47874
3.76259
4.04449
4.32419
4.60146
4.87607
5.14782
5.41651
5.68194
5.94393
6.20232
6.45696
6.7077
6.9544
7.19694
7.43521
7.6691
7.89852
8.12337
8.34356
8.55902
8.76967
8.97544
9.17626
9.37206
9.56276
9.7483
9.92858
10.1035
10.2728
10.4364
10.5939
10.745
10.889
11.0256
11.1506
11.2776
11.3349
-6.81363
-6.81698
-6.82155
-6.82584
-6.82935
-6.83224
-6.83474
-6.83701
-6.8392
-6.84144
-6.84383
-6.84644
-6.84936
-6.85264
-6.85632
-6.86047
-6.86511
-6.87029
-6.87603
-6.88238
-6.88937
-6.89703
-6.90538
-6.91446
-6.92429
-6.9349
-6.94631
-6.95854
-6.97162
-6.98555
-7.00036
-7.01605
-7.03264
-7.05012
-7.06849
-7.08775
-7.1079
-7.12893
-7.15081
-7.17354
-7.19709
-7.22143
-7.24654
-7.27238
-7.29891
-7.32608
-7.35386
-7.38219
-7.41101
-7.44026
-7.46988
-7.49979
-7.52992
-7.56019
-7.59051
-7.62078
-7.65091
-7.68078
-7.71029
-7.73931
-7.76772
-7.7954
-7.82219
-7.84796
-7.87256
-7.89583
-7.91763
-7.93777
-7.95611
-7.97246
-7.98666
-7.99853
-8.00789
-8.01457
-8.01839
-8.01917
-8.01674
-8.01091
-8.00153
-7.9884
-7.97136
-7.95025
-7.92489
-7.89511
-7.86076
-7.82167
-7.7777
-7.72868
-7.67442
-7.61473
-7.54944
-7.47841
-7.4015
-7.31862
-7.22966
-7.13451
-7.03309
-6.92529
-6.81105
-6.69029
-6.56298
-6.42905
-6.2885
-6.14129
-5.98742
-5.82691
-5.65976
-5.48603
-5.30576
-5.11902
-4.92589
-4.72645
-4.52084
-4.30916
-4.09156
-3.8682
-3.63923
-3.40485
-3.16525
-2.92064
-2.67122
-2.41725
-2.15894
-1.89657
-1.63038
-1.36065
-1.08766
-0.811691
-0.533032
-0.251979
0.0311698
0.316114
0.602548