/*--------------------------------*- C++ -*----------------------------------*\
  =========                 |
  \\      /  F ield         | OpenFOAM: The Open Source CFD Toolbox
   \\    /   O peration     | Website:  https://openfoam.org
    \\  /    A nd           | Version:  9
     \\/     M anipulation  |
\*---------------------------------------------------------------------------*/
FoamFile
{
    format      ascii;
    class       surfaceScalarField;
    location    "0.29";
    object      phi;
}
// * * * * * * * * * * * * * * * * * * * * * * * * * * * * * * * * * * * * * //

dimensions      [0 3 -1 0 0 0 0];

internalField   nonuniform List<scalar> 
24170
(
3.1336e-06
5.48061e-08
3.04827e-06
8.5326e-08
2.97315e-06
7.5123e-08
2.90432e-06
6.88352e-08
2.83949e-06
6.4828e-08
2.78227e-06
5.72202e-08
2.73337e-06
4.8898e-08
2.69185e-06
4.15223e-08
2.65641e-06
3.54368e-08
2.62589e-06
3.0519e-08
2.59932e-06
2.65693e-08
2.5759e-06
2.34236e-08
2.55494e-06
2.09629e-08
2.53576e-06
1.91732e-08
2.51774e-06
1.80226e-08
2.4991e-06
1.86388e-08
2.47859e-06
2.05121e-08
3.76217e-08
2.44097e-06
3.45361e-06
1.84442e-08
3.45616e-06
8.27724e-08
3.44962e-06
8.16671e-08
3.438e-06
8.04558e-08
3.42351e-06
7.93153e-08
3.40597e-06
7.47596e-08
3.38635e-06
6.85258e-08
3.36544e-06
6.2424e-08
3.34404e-06
5.68415e-08
3.32274e-06
5.18204e-08
3.30194e-06
4.73686e-08
3.28187e-06
4.34956e-08
3.26264e-06
4.01941e-08
3.24423e-06
3.75734e-08
3.22671e-06
3.55463e-08
3.20991e-06
3.54439e-08
3.19472e-06
3.57007e-08
4.58282e-08
3.18651e-06
3.66535e-06
1.56073e-08
3.67825e-06
6.98727e-08
3.68532e-06
7.46053e-08
3.6896e-06
7.61727e-08
3.69127e-06
7.76405e-08
3.69014e-06
7.58901e-08
3.68669e-06
7.19758e-08
3.6815e-06
6.76176e-08
3.67499e-06
6.33522e-08
3.66751e-06
5.92985e-08
3.65935e-06
5.55329e-08
3.65071e-06
5.21334e-08
3.64175e-06
4.91549e-08
3.63257e-06
4.6746e-08
3.62319e-06
4.49304e-08
3.61403e-06
4.46083e-08
3.60475e-06
4.49785e-08
4.95496e-08
3.60103e-06
3.92465e-06
1.63465e-08
3.9358e-06
5.87204e-08
3.94255e-06
6.78605e-08
3.94802e-06
7.06954e-08
3.95244e-06
7.32271e-08
3.95536e-06
7.29681e-08
3.95691e-06
7.04209e-08
3.9574e-06
6.71328e-08
3.957e-06
6.37489e-08
3.95587e-06
6.04287e-08
3.95414e-06
5.72655e-08
3.95191e-06
5.436e-08
3.94927e-06
5.17948e-08
3.94631e-06
4.97124e-08
3.94305e-06
4.81898e-08
3.93993e-06
4.7727e-08
3.93695e-06
4.79521e-08
4.98097e-08
3.93669e-06
4.20777e-06
1.57059e-08
4.216e-06
5.04877e-08
4.22167e-06
6.21953e-08
4.2266e-06
6.57615e-08
4.2313e-06
6.85261e-08
4.23526e-06
6.90089e-08
4.23836e-06
6.73226e-08
4.24073e-06
6.47598e-08
4.24249e-06
6.19911e-08
4.24372e-06
5.92005e-08
4.24449e-06
5.64889e-08
4.24489e-06
5.39651e-08
4.24496e-06
5.1723e-08
4.24479e-06
4.9884e-08
4.24445e-06
4.85258e-08
4.24429e-06
4.78914e-08
4.24448e-06
4.77603e-08
4.81697e-08
4.24612e-06
4.51044e-06
1.43529e-08
4.51686e-06
4.40643e-08
4.52218e-06
5.68825e-08
4.52684e-06
6.11001e-08
4.53145e-06
6.39105e-08
4.53565e-06
6.48151e-08
4.53923e-06
6.37353e-08
4.54228e-06
6.17121e-08
4.54487e-06
5.9402e-08
4.54706e-06
5.70125e-08
4.5489e-06
5.46502e-08
4.55044e-06
5.24244e-08
4.55173e-06
5.04286e-08
4.55286e-06
4.8758e-08
4.55392e-06
4.74683e-08
4.55516e-06
4.66517e-08
4.55679e-06
4.61299e-08
4.56669e-08
4.55929e-06
4.83412e-06
1.29516e-08
4.83958e-06
3.86041e-08
4.84483e-06
5.16291e-08
4.84943e-06
5.65077e-08
4.85394e-06
5.93982e-08
4.85817e-06
6.05833e-08
4.86194e-06
5.99667e-08
4.86528e-06
5.83736e-08
4.86825e-06
5.64277e-08
4.87091e-06
5.43582e-08
4.87328e-06
5.22772e-08
4.87542e-06
5.02894e-08
4.87736e-06
4.84813e-08
4.8792e-06
4.69232e-08
4.88102e-06
4.56446e-08
4.88302e-06
4.46541e-08
4.88536e-06
4.37919e-08
4.27937e-08
4.88823e-06
5.1809e-06
1.16314e-08
5.18571e-06
3.37983e-08
5.19084e-06
4.64931e-08
5.19542e-06
5.19265e-08
5.19989e-06
5.4932e-08
5.20415e-06
5.63202e-08
5.20804e-06
5.60796e-08
5.21156e-06
5.48547e-08
5.21477e-06
5.32195e-08
5.21771e-06
5.14207e-08
5.22041e-06
4.95759e-08
5.22291e-06
4.77836e-08
5.22527e-06
4.61205e-08
5.22756e-06
4.46366e-08
5.22986e-06
4.33404e-08
5.23232e-06
4.21998e-08
5.23503e-06
4.10764e-08
3.97572e-08
5.23807e-06
5.5526e-06
1.03678e-08
5.55685e-06
2.95474e-08
5.56177e-06
4.1574e-08
5.56634e-06
4.73572e-08
5.5708e-06
5.04726e-08
5.57511e-06
5.20093e-08
5.57911e-06
5.20796e-08
5.58278e-06
5.11814e-08
5.58618e-06
4.98247e-08
5.58933e-06
4.82657e-08
5.59228e-06
4.66274e-08
5.59506e-06
4.50015e-08
5.59773e-06
4.34552e-08
5.60034e-06
4.20239e-08
5.60298e-06
4.0703e-08
5.60573e-06
3.94472e-08
5.60866e-06
3.81442e-08
3.66464e-08
5.61178e-06
5.95099e-06
9.15756e-09
5.95476e-06
2.57743e-08
5.95942e-06
3.69168e-08
5.96395e-06
4.28206e-08
5.96841e-06
4.60128e-08
5.97277e-06
4.76521e-08
5.97688e-06
4.79714e-08
5.9807e-06
4.73602e-08
5.98427e-06
4.62563e-08
5.98762e-06
4.49146e-08
5.99078e-06
4.3462e-08
5.9938e-06
4.19836e-08
5.99672e-06
4.0538e-08
5.99959e-06
3.91517e-08
6.00248e-06
3.78152e-08
6.00544e-06
3.64849e-08
6.00851e-06
3.50766e-08
3.34997e-08
6.01166e-06
6.37796e-06
8.01418e-09
6.38133e-06
2.24016e-08
6.38571e-06
3.25304e-08
6.39019e-06
3.83417e-08
6.39465e-06
4.15582e-08
6.39904e-06
4.32586e-08
6.40325e-06
4.37652e-08
6.40721e-06
4.3397e-08
6.41095e-06
4.25196e-08
6.41449e-06
4.13753e-08
6.41786e-06
4.00919e-08
6.42109e-06
3.87486e-08
6.42423e-06
3.73968e-08
6.42733e-06
3.60586e-08
6.43042e-06
3.47255e-08
6.43354e-06
3.33633e-08
6.4367e-06
3.19137e-08
3.03296e-08
6.43987e-06
5.74175e-06
7.09933e-09
5.74433e-06
1.98163e-08
5.74784e-06
2.90298e-08
5.75156e-06
3.46149e-08
5.75532e-06
3.78012e-08
5.75905e-06
3.95247e-08
5.76267e-06
4.01439e-08
5.76613e-06
3.99435e-08
5.76941e-06
3.92356e-08
5.77254e-06
3.82436e-08
5.77554e-06
3.70922e-08
5.77843e-06
3.58565e-08
5.78125e-06
3.45835e-08
5.78401e-06
3.32937e-08
5.78676e-06
3.19821e-08
5.7895e-06
3.06246e-08
5.79223e-06
2.91813e-08
2.76331e-08
5.79492e-06
6.99913e-06
6.12167e-09
7.00187e-06
1.7082e-08
7.00566e-06
2.52419e-08
7.00982e-06
3.0448e-08
7.0141e-06
3.3521e-08
7.0184e-06
3.52255e-08
7.02262e-06
3.59269e-08
7.02668e-06
3.58782e-08
7.03058e-06
3.5337e-08
7.03432e-06
3.45014e-08
7.03793e-06
3.34898e-08
7.04141e-06
3.23724e-08
7.0448e-06
3.11922e-08
7.04813e-06
2.99697e-08
7.0514e-06
2.87053e-08
7.05464e-06
2.73864e-08
7.05783e-06
2.59902e-08
2.45192e-08
7.06095e-06
8.53188e-06
5.09041e-09
8.53474e-06
1.4225e-08
8.53878e-06
2.11938e-08
8.54338e-06
2.5847e-08
8.54821e-06
2.86949e-08
8.55312e-06
3.03173e-08
8.55799e-06
3.10537e-08
8.56274e-06
3.11251e-08
8.56734e-06
3.07372e-08
8.57179e-06
3.00565e-08
8.57609e-06
2.91904e-08
8.58026e-06
2.82034e-08
8.58432e-06
2.7135e-08
8.58828e-06
2.60066e-08
8.59216e-06
2.48246e-08
8.59596e-06
2.35873e-08
8.59966e-06
2.22858e-08
2.09368e-08
8.60325e-06
1.04003e-05
4.01612e-09
1.04033e-05
1.1263e-08
1.04075e-05
1.6904e-08
1.04126e-05
2.08184e-08
1.0418e-05
2.33011e-08
1.04235e-05
2.47548e-08
1.04291e-05
2.54609e-08
1.04346e-05
2.56049e-08
1.044e-05
2.53445e-08
1.04453e-05
2.48106e-08
1.04504e-05
2.40941e-08
1.04553e-05
2.32521e-08
1.04601e-05
2.23204e-08
1.04648e-05
2.13208e-08
1.04694e-05
2.02648e-08
1.04738e-05
1.91587e-08
1.04781e-05
1.80036e-08
1.68235e-08
1.04822e-05
1.26779e-05
2.90441e-09
1.2681e-05
8.18773e-09
1.26855e-05
1.23642e-08
1.2691e-05
1.53508e-08
1.2697e-05
1.73052e-08
1.27033e-05
1.84781e-08
1.27096e-05
1.90722e-08
1.2716e-05
1.92282e-08
1.27223e-05
1.90587e-08
1.27285e-05
1.86577e-08
1.27345e-05
1.80945e-08
1.27403e-05
1.74155e-08
1.2746e-05
1.6651e-08
1.27515e-05
1.58215e-08
1.27568e-05
1.49408e-08
1.27619e-05
1.40195e-08
1.27669e-05
1.30636e-08
1.20994e-08
1.27716e-05
1.54543e-05
1.74426e-09
1.54576e-05
4.94846e-09
1.54624e-05
7.5075e-09
1.54684e-05
9.37456e-09
1.54751e-05
1.06239e-08
1.54822e-05
1.13851e-08
1.54895e-05
1.17737e-08
1.54968e-05
1.18746e-08
1.55041e-05
1.17551e-08
1.55113e-05
1.14717e-08
1.55184e-05
1.10679e-08
1.55252e-05
1.05746e-08
1.55318e-05
1.00135e-08
1.55383e-05
9.4007e-09
1.55444e-05
8.74832e-09
1.55504e-05
8.067e-09
1.55561e-05
7.3637e-09
6.66254e-09
1.55615e-05
1.88389e-05
4.94311e-10
1.88424e-05
1.41434e-09
1.88478e-05
2.14812e-09
1.88545e-05
2.68483e-09
1.8862e-05
3.04612e-09
1.88702e-05
3.26131e-09
1.88786e-05
3.35291e-09
1.88871e-05
3.33958e-09
1.88956e-05
3.23959e-09
1.8904e-05
3.0693e-09
1.89123e-05
2.84185e-09
1.89203e-05
2.56763e-09
1.8928e-05
2.25531e-09
1.89355e-05
1.91245e-09
1.89427e-05
1.54586e-09
1.89496e-05
1.16243e-09
1.89562e-05
7.66746e-10
3.7784e-10
1.89625e-05
2.29648e-05
-9.52275e-10
2.29689e-05
-2.71575e-09
2.29752e-05
-4.15046e-09
2.29831e-05
-5.21385e-09
2.29921e-05
-5.92277e-09
2.30017e-05
-6.36397e-09
2.30117e-05
-6.63078e-09
2.30218e-05
-6.78187e-09
2.30319e-05
-6.854e-09
2.30419e-05
-6.87831e-09
2.30516e-05
-6.87993e-09
2.3061e-05
-6.87483e-09
2.30701e-05
-6.87169e-09
2.30789e-05
-6.87495e-09
2.30874e-05
-6.88653e-09
2.30954e-05
-6.90605e-09
2.31031e-05
-6.93328e-09
-6.9561e-09
2.31105e-05
1.68118e-05
-2.09682e-09
1.68151e-05
-5.94804e-09
1.682e-05
-9.07463e-09
1.68261e-05
-1.13326e-08
1.6833e-05
-1.27708e-08
1.68402e-05
-1.36234e-08
1.68477e-05
-1.40945e-08
1.68552e-05
-1.42921e-08
1.68626e-05
-1.42912e-08
1.68699e-05
-1.41624e-08
1.6877e-05
-1.39604e-08
1.68839e-05
-1.37194e-08
1.68904e-05
-1.346e-08
1.68968e-05
-1.31952e-08
1.69028e-05
-1.29331e-08
1.69086e-05
-1.26778e-08
1.69141e-05
-1.24315e-08
-1.21864e-08
1.69193e-05
1.46357e-05
-3.20478e-09
1.46388e-05
-9.10479e-09
1.46437e-05
-1.38946e-08
1.46495e-05
-1.72088e-08
1.4656e-05
-1.91938e-08
1.46627e-05
-2.03241e-08
1.46695e-05
-2.09022e-08
1.46762e-05
-2.10622e-08
1.46829e-05
-2.09239e-08
1.46893e-05
-2.06036e-08
1.46955e-05
-2.01804e-08
1.47015e-05
-1.96995e-08
1.47072e-05
-1.91898e-08
1.47127e-05
-1.86713e-08
1.47179e-05
-1.81567e-08
1.47229e-05
-1.76527e-08
1.47276e-05
-1.71633e-08
-1.66831e-08
1.47321e-05
1.27412e-05
-4.25217e-09
1.27444e-05
-1.23128e-08
1.27493e-05
-1.8848e-08
1.27551e-05
-2.29971e-08
1.27612e-05
-2.53001e-08
1.27675e-05
-2.66018e-08
1.27738e-05
-2.72065e-08
1.278e-05
-2.72411e-08
1.2786e-05
-2.68971e-08
1.27917e-05
-2.63457e-08
1.27972e-05
-2.5682e-08
1.28025e-05
-2.49555e-08
1.28075e-05
-2.42003e-08
1.28122e-05
-2.34411e-08
1.28168e-05
-2.2693e-08
1.28211e-05
-2.19634e-08
1.28252e-05
-2.12563e-08
-2.05677e-08
1.28291e-05
1.10918e-05
-5.12853e-09
1.10951e-05
-1.56321e-08
1.11004e-05
-2.41391e-08
1.11062e-05
-2.87726e-08
1.1112e-05
-3.11333e-08
1.11179e-05
-3.2511e-08
1.11238e-05
-3.30538e-08
1.11294e-05
-3.28807e-08
1.11348e-05
-3.22835e-08
1.11399e-05
-3.14784e-08
1.11448e-05
-3.05627e-08
1.11495e-05
-2.95876e-08
1.11538e-05
-2.85926e-08
1.1158e-05
-2.76053e-08
1.1162e-05
-2.66406e-08
1.11657e-05
-2.57054e-08
1.11692e-05
-2.48027e-08
-2.39292e-08
1.11726e-05
9.65583e-06
-5.74171e-09
9.65935e-06
-1.91536e-08
9.66495e-06
-2.97357e-08
9.67062e-06
-3.44495e-08
9.67625e-06
-3.67642e-08
9.68188e-06
-3.81368e-08
9.6873e-06
-3.84765e-08
9.69242e-06
-3.80025e-08
9.69726e-06
-3.71223e-08
9.70184e-06
-3.60584e-08
9.70617e-06
-3.48906e-08
9.71025e-06
-3.36702e-08
9.7141e-06
-3.2442e-08
9.71773e-06
-3.12354e-08
9.72116e-06
-3.00645e-08
9.72439e-06
-2.89352e-08
9.72743e-06
-2.78489e-08
-2.68006e-08
9.7303e-06
8.40543e-06
-5.82085e-09
8.4098e-06
-2.35255e-08
8.4153e-06
-3.52342e-08
8.42049e-06
-3.96333e-08
8.42591e-06
-4.21861e-08
8.43137e-06
-4.35983e-08
8.43651e-06
-4.36154e-08
8.44125e-06
-4.2749e-08
8.44567e-06
-4.15354e-08
8.44978e-06
-4.01743e-08
8.45362e-06
-3.87232e-08
8.45718e-06
-3.72341e-08
8.46049e-06
-3.57547e-08
8.46357e-06
-3.4314e-08
8.46643e-06
-3.29256e-08
8.46909e-06
-3.15956e-08
8.47157e-06
-3.03245e-08
-2.91086e-08
8.47388e-06
7.31506e-06
-3.59279e-09
7.32194e-06
-3.04077e-08
7.32738e-06
-4.06796e-08
7.33215e-06
-4.43949e-08
7.33745e-06
-4.74899e-08
7.34281e-06
-4.89627e-08
7.34776e-06
-4.85659e-08
7.35223e-06
-4.72174e-08
7.35626e-06
-4.55646e-08
7.35987e-06
-4.37857e-08
7.36309e-06
-4.19398e-08
7.36595e-06
-4.00902e-08
7.36848e-06
-3.82865e-08
7.37072e-06
-3.65545e-08
7.3727e-06
-3.49061e-08
7.37445e-06
-3.33457e-08
7.37599e-06
-3.18705e-08
-3.04741e-08
7.37736e-06
6.36222e-06
4.25358e-09
6.37294e-06
-4.11296e-08
6.38006e-06
-4.78018e-08
6.38624e-06
-5.05687e-08
6.3922e-06
-5.34508e-08
6.39748e-06
-5.42403e-08
6.40182e-06
-5.2913e-08
6.40539e-06
-5.07809e-08
6.40828e-06
-4.8458e-08
6.41055e-06
-4.60566e-08
6.41226e-06
-4.36441e-08
6.41346e-06
-4.12985e-08
6.41425e-06
-3.9068e-08
6.41466e-06
-3.69725e-08
6.41478e-06
-3.50184e-08
6.41464e-06
-3.32069e-08
6.4143e-06
-3.15298e-08
-2.99665e-08
6.41379e-06
5.53608e-06
1.36389e-08
5.54775e-06
-5.28011e-08
5.55743e-06
-5.74841e-08
5.566e-06
-5.91322e-08
5.57276e-06
-6.02105e-08
5.57717e-06
-5.86523e-08
5.5793e-06
-5.50491e-08
5.57973e-06
-5.12033e-08
5.57886e-06
-4.75895e-08
5.57698e-06
-4.4179e-08
5.57432e-06
-4.09794e-08
5.57105e-06
-3.80284e-08
5.56732e-06
-3.53395e-08
5.56325e-06
-3.29044e-08
5.55894e-06
-3.07087e-08
5.55448e-06
-2.87492e-08
5.54997e-06
-2.70171e-08
-2.54514e-08
5.54545e-06
4.85751e-06
-1.62615e-08
4.86091e-06
-5.62012e-08
4.8615e-06
-5.80743e-08
4.85883e-06
-5.64604e-08
4.85481e-06
-5.61985e-08
4.84811e-06
-5.19504e-08
4.83885e-06
-4.57879e-08
4.82759e-06
-3.9943e-08
4.81497e-06
-3.49696e-08
4.80158e-06
-3.07905e-08
4.78787e-06
-2.72698e-08
4.77415e-06
-2.43043e-08
4.76061e-06
-2.18031e-08
4.7474e-06
-1.96873e-08
4.73458e-06
-1.78937e-08
4.72224e-06
-1.64125e-08
4.7105e-06
-1.52703e-08
-1.49599e-08
4.70001e-06
4.18641e-06
4.13021e-06
4.07214e-06
4.01568e-06
3.95948e-06
3.90753e-06
3.86174e-06
3.8218e-06
3.78683e-06
3.75604e-06
3.72877e-06
3.70446e-06
3.68266e-06
3.66297e-06
3.64508e-06
3.62867e-06
3.6134e-06
3.59844e-06
9.10566e-09
-9.10566e-09
1.99104e-08
-1.08048e-08
2.79306e-08
-8.02023e-09
3.19229e-08
-3.99227e-09
3.15565e-08
3.66421e-10
2.73348e-08
4.22168e-09
1.99086e-08
7.42623e-09
9.99388e-09
9.9147e-09
-1.81282e-09
1.18067e-08
-1.50935e-08
1.32807e-08
-2.95861e-08
1.44926e-08
-4.51314e-08
1.55452e-08
-6.1637e-08
1.65056e-08
-7.90491e-08
1.74122e-08
-9.73344e-08
1.82853e-08
-1.16469e-07
1.91347e-08
-1.36434e-07
1.99648e-08
-1.57211e-07
2.07769e-08
-1.78782e-07
2.15712e-08
-2.01129e-07
2.2347e-08
-2.24232e-07
2.31029e-08
-2.48068e-07
2.38362e-08
-2.7261e-07
2.45423e-08
-2.97823e-07
2.52127e-08
-3.23657e-07
2.58341e-08
-3.50049e-07
2.63923e-08
-3.76938e-07
2.68889e-08
-4.04313e-07
2.7375e-08
-4.3228e-07
2.79666e-08
-4.61051e-07
2.87714e-08
-4.90765e-07
2.97137e-08
-5.21218e-07
3.04534e-08
-5.51888e-07
3.06699e-08
-5.82371e-07
3.04828e-08
-6.12779e-07
3.04084e-08
-6.43847e-07
3.10679e-08
-6.75757e-07
3.19095e-08
-7.0804e-07
3.22831e-08
-7.41935e-07
3.38949e-08
-7.80577e-07
3.86422e-08
-8.2707e-07
4.64934e-08
-8.8192e-07
5.485e-08
-9.26543e-07
4.46224e-08
-9.59006e-07
3.2463e-08
-9.97856e-07
3.88506e-08
-1.03934e-06
4.14812e-08
-1.08232e-06
4.2987e-08
-1.12627e-06
4.39493e-08
-1.1708e-06
4.45237e-08
-1.21564e-06
4.48406e-08
-1.26063e-06
4.49908e-08
-1.30565e-06
4.50232e-08
-1.35062e-06
4.49708e-08
-1.39548e-06
4.48547e-08
-1.44017e-06
4.46884e-08
-1.48465e-06
4.44805e-08
-1.52888e-06
4.42366e-08
-1.57284e-06
4.39599e-08
-1.6165e-06
4.36523e-08
-1.65981e-06
4.33142e-08
-1.70276e-06
4.29458e-08
-1.7453e-06
4.25464e-08
-1.78742e-06
4.21153e-08
-1.82907e-06
4.16514e-08
-1.87022e-06
4.11536e-08
-1.91084e-06
4.06209e-08
-1.9509e-06
4.00522e-08
-1.99034e-06
3.94465e-08
-2.02914e-06
3.88029e-08
-2.06727e-06
3.81208e-08
-2.10467e-06
3.73997e-08
-2.1413e-06
3.66391e-08
-2.17714e-06
3.58387e-08
-2.21214e-06
3.49986e-08
-2.24626e-06
3.41188e-08
-2.27946e-06
3.31996e-08
-2.3117e-06
3.22413e-08
-2.34295e-06
3.12445e-08
-2.37316e-06
3.02096e-08
-2.40229e-06
2.91376e-08
-2.43032e-06
2.8029e-08
-2.45721e-06
2.68846e-08
-2.48291e-06
2.57053e-08
-2.5074e-06
2.44918e-08
-2.53065e-06
2.32447e-08
-2.55261e-06
2.19645e-08
-2.57326e-06
2.06516e-08
-2.59257e-06
1.9306e-08
-2.6105e-06
1.79272e-08
-2.62701e-06
1.65144e-08
-2.64208e-06
1.50658e-08
-2.65566e-06
1.3579e-08
-2.66771e-06
1.205e-08
-2.67818e-06
1.04725e-08
-2.68702e-06
8.83798e-09
-2.69415e-06
7.13445e-09
-2.6995e-06
5.34489e-09
-2.70295e-06
3.45821e-09
-2.70443e-06
1.47793e-09
-2.7039e-06
-5.28506e-10
-2.70171e-06
-2.19033e-09
-2.69793e-06
-3.78175e-09
-2.69259e-06
-5.34314e-09
-2.68569e-06
-6.89714e-09
-2.67724e-06
-8.45547e-09
-2.66722e-06
-1.00202e-08
-2.65563e-06
-1.15907e-08
-2.64246e-06
-1.31655e-08
-2.62772e-06
-1.47425e-08
-2.6114e-06
-1.63198e-08
-2.5935e-06
-1.78951e-08
-2.57404e-06
-1.94664e-08
-2.553e-06
-2.10314e-08
-2.53042e-06
-2.25882e-08
-2.50628e-06
-2.41345e-08
-2.48061e-06
-2.56684e-08
-2.45343e-06
-2.71876e-08
-2.42474e-06
-2.86903e-08
-2.39456e-06
-3.01741e-08
-2.36292e-06
-3.16371e-08
-2.32985e-06
-3.30773e-08
-2.29535e-06
-3.44928e-08
-2.25947e-06
-3.58816e-08
-2.22223e-06
-3.72419e-08
-2.18366e-06
-3.8572e-08
-2.14379e-06
-3.98701e-08
-2.10265e-06
-4.11346e-08
-2.06029e-06
-4.23638e-08
-2.01673e-06
-4.35561e-08
-1.97202e-06
-4.471e-08
-1.9262e-06
-4.5824e-08
-1.8793e-06
-4.68968e-08
-1.83138e-06
-4.79273e-08
-1.78246e-06
-4.89144e-08
-1.7326e-06
-4.98572e-08
-1.68185e-06
-5.07547e-08
-1.63024e-06
-5.16059e-08
-1.57783e-06
-5.24103e-08
-1.52467e-06
-5.31673e-08
-1.47079e-06
-5.38766e-08
-1.41625e-06
-5.4538e-08
-1.3611e-06
-5.51513e-08
-1.30538e-06
-5.57164e-08
-1.24915e-06
-5.62336e-08
-1.19245e-06
-5.67032e-08
-1.13532e-06
-5.71258e-08
-1.07782e-06
-5.7502e-08
-1.01999e-06
-5.78325e-08
-9.61869e-07
-5.81184e-08
-9.03508e-07
-5.83608e-08
-8.44947e-07
-5.85611e-08
-7.86226e-07
-5.87206e-08
-7.27385e-07
-5.88411e-08
-6.68461e-07
-5.89242e-08
-6.09489e-07
-5.89719e-08
-5.50503e-07
-5.89859e-08
-4.91535e-07
-5.89684e-08
-4.32614e-07
-5.8921e-08
-3.73769e-07
-5.88451e-08
-3.15027e-07
-5.87415e-08
-2.56416e-07
-5.8611e-08
-1.97966e-07
-5.84497e-08
-1.39709e-07
-5.82578e-08
-8.1674e-08
-5.80347e-08
-2.39039e-08
-5.77701e-08
3.35661e-08
-5.74699e-08
9.06961e-08
-5.713e-08
1.47486e-07
-5.67897e-08
2.03957e-07
-5.64708e-08
2.60125e-07
-5.61682e-08
3.15987e-07
-5.58619e-08
3.71513e-07
-5.5526e-08
4.26634e-07
-5.51213e-08
4.81215e-07
-5.45808e-08
5.34989e-07
-5.37743e-08
5.87425e-07
-5.24362e-08
6.37313e-07
-4.9888e-08
6.81807e-07
-4.4494e-08
7.13375e-07
-3.15679e-08
8.32579e-09
7.05049e-07
7.04969e-09
-1.61553e-08
9.76642e-09
-1.35215e-08
8.60096e-09
-6.85476e-09
4.68827e-09
-7.9578e-11
-1.34439e-09
6.39908e-09
-9.37795e-09
1.22552e-08
-1.9329e-08
1.73773e-08
-3.11392e-08
2.17249e-08
-4.46926e-08
2.53601e-08
-5.98236e-08
2.84116e-08
-7.63579e-08
3.1027e-08
-9.41469e-08
3.33342e-08
-1.13073e-07
3.54318e-08
-1.3305e-07
3.73892e-08
-1.54018e-07
3.92529e-08
-1.75935e-07
4.10524e-08
-1.98777e-07
4.2806e-08
-2.22525e-07
4.45251e-08
-2.47171e-07
4.62168e-08
-2.72709e-07
4.78857e-08
-2.99141e-07
4.95342e-08
-3.26468e-07
5.11637e-08
-3.54699e-07
5.27736e-08
-3.83849e-07
5.43621e-08
-4.13941e-07
5.59264e-08
-4.45018e-07
5.74692e-08
-4.7714e-07
5.90113e-08
-5.10374e-07
6.06086e-08
-5.44755e-07
6.23473e-08
-5.80271e-07
6.42878e-08
-6.16931e-07
6.63739e-08
-6.54905e-07
6.84269e-08
-6.94544e-07
7.0309e-08
-7.36113e-07
7.20522e-08
-7.79417e-07
7.37115e-08
-8.23776e-07
7.54271e-08
-8.69165e-07
7.72986e-08
-9.16061e-07
7.9179e-08
-9.63604e-07
8.14377e-08
-1.00972e-06
8.47611e-08
-1.05212e-06
8.88888e-08
-1.08874e-06
9.14738e-08
-1.13298e-06
8.88641e-08
-1.18569e-06
8.51694e-08
-1.23221e-06
8.53734e-08
-1.27661e-06
8.58792e-08
-1.31981e-06
8.61828e-08
-1.36218e-06
8.63248e-08
-1.40396e-06
8.63052e-08
-1.44526e-06
8.61412e-08
-1.48613e-06
8.58599e-08
-1.52659e-06
8.54828e-08
-1.56665e-06
8.50268e-08
-1.6063e-06
8.45044e-08
-1.64553e-06
8.3924e-08
-1.68434e-06
8.3291e-08
-1.72272e-06
8.26084e-08
-1.76063e-06
8.18774e-08
-1.79808e-06
8.1098e-08
-1.83503e-06
8.02692e-08
-1.87148e-06
7.93893e-08
-1.90739e-06
7.84565e-08
-1.94274e-06
7.74683e-08
-1.97751e-06
7.64228e-08
-2.01168e-06
7.53175e-08
-2.04521e-06
7.41506e-08
-2.07807e-06
7.29199e-08
-2.11025e-06
7.1624e-08
-2.14171e-06
7.02612e-08
-2.17242e-06
6.88306e-08
-2.20235e-06
6.73312e-08
-2.23147e-06
6.57624e-08
-2.25976e-06
6.4124e-08
-2.28718e-06
6.24157e-08
-2.3137e-06
6.06381e-08
-2.33929e-06
5.87914e-08
-2.36392e-06
5.68764e-08
-2.38757e-06
5.48939e-08
-2.41021e-06
5.28449e-08
-2.4318e-06
5.07307e-08
-2.45232e-06
4.85525e-08
-2.47175e-06
4.63115e-08
-2.49006e-06
4.40092e-08
-2.50721e-06
4.16467e-08
-2.52319e-06
3.92254e-08
-2.53797e-06
3.67462e-08
-2.55153e-06
3.421e-08
-2.56384e-06
3.16173e-08
-2.57488e-06
2.89685e-08
-2.58463e-06
2.62634e-08
-2.59307e-06
2.35017e-08
-2.60017e-06
2.06826e-08
-2.60593e-06
1.78054e-08
-2.61032e-06
1.48695e-08
-2.61336e-06
1.18754e-08
-2.61505e-06
8.82605e-09
-2.61544e-06
5.72997e-09
-2.61459e-06
2.60859e-09
-2.61264e-06
-4.74943e-10
-2.60959e-06
-3.57749e-09
-2.60519e-06
-6.58468e-09
-2.59936e-06
-9.6145e-09
-2.59204e-06
-1.26662e-08
-2.5832e-06
-1.57367e-08
-2.57283e-06
-1.88255e-08
-2.56092e-06
-2.19301e-08
-2.54746e-06
-2.50473e-08
-2.53245e-06
-2.81732e-08
-2.51589e-06
-3.13036e-08
-2.49778e-06
-3.44342e-08
-2.47811e-06
-3.75609e-08
-2.4569e-06
-4.06793e-08
-2.43414e-06
-4.37852e-08
-2.40986e-06
-4.68745e-08
-2.38405e-06
-4.99429e-08
-2.35673e-06
-5.29863e-08
-2.32792e-06
-5.60006e-08
-2.29763e-06
-5.89816e-08
-2.26588e-06
-6.19253e-08
-2.23269e-06
-6.48275e-08
-2.19808e-06
-6.76842e-08
-2.16208e-06
-7.04916e-08
-2.12472e-06
-7.32458e-08
-2.08601e-06
-7.59432e-08
-2.04601e-06
-7.85804e-08
-2.00472e-06
-8.11538e-08
-1.9622e-06
-8.36602e-08
-1.91846e-06
-8.60964e-08
-1.87356e-06
-8.84591e-08
-1.82753e-06
-9.07452e-08
-1.7804e-06
-9.29519e-08
-1.73222e-06
-9.50765e-08
-1.68303e-06
-9.71168e-08
-1.63287e-06
-9.90706e-08
-1.58179e-06
-1.00936e-07
-1.52984e-06
-1.02711e-07
-1.47705e-06
-1.04394e-07
-1.42347e-06
-1.05984e-07
-1.36916e-06
-1.0748e-07
-1.31416e-06
-1.0888e-07
-1.25851e-06
-1.10185e-07
-1.20227e-06
-1.11394e-07
-1.14548e-06
-1.12507e-07
-1.08819e-06
-1.13525e-07
-1.03044e-06
-1.14447e-07
-9.72293e-07
-1.15277e-07
-9.13781e-07
-1.16014e-07
-8.54954e-07
-1.16659e-07
-7.95856e-07
-1.17216e-07
-7.3653e-07
-1.17687e-07
-6.77018e-07
-1.18073e-07
-6.1736e-07
-1.18379e-07
-5.57594e-07
-1.18607e-07
-4.97758e-07
-1.1876e-07
-4.37887e-07
-1.18843e-07
-3.78013e-07
-1.1886e-07
-3.18169e-07
-1.18813e-07
-2.58382e-07
-1.18708e-07
-1.98681e-07
-1.18546e-07
-1.39092e-07
-1.1833e-07
-7.964e-08
-1.18063e-07
-2.03483e-08
-1.17741e-07
3.87565e-08
-1.17363e-07
9.76483e-08
-1.16926e-07
1.56309e-07
-1.16431e-07
2.14728e-07
-1.15888e-07
2.72907e-07
-1.15309e-07
3.30843e-07
-1.14726e-07
3.8853e-07
-1.14158e-07
4.45957e-07
-1.13595e-07
5.03105e-07
-1.1301e-07
5.59934e-07
-1.12355e-07
6.16366e-07
-1.11553e-07
6.72256e-07
-1.10471e-07
7.27337e-07
-1.08856e-07
7.81117e-07
-1.06216e-07
8.32629e-07
-1.014e-07
8.80268e-07
-9.21329e-08
9.2074e-07
-7.20405e-08
-2.51046e-08
9.54171e-07
4.31474e-10
-1.65868e-08
-4.03022e-09
-9.05979e-09
-1.09866e-08
1.01639e-10
-1.94627e-08
8.39652e-09
-2.91732e-08
1.61096e-08
-4.00702e-08
2.31522e-08
-5.21836e-08
2.94907e-08
-6.55732e-08
3.51146e-08
-8.02755e-08
4.00624e-08
-9.62817e-08
4.44178e-08
-1.13544e-07
4.82889e-08
-1.31995e-07
5.17858e-08
-1.51569e-07
5.50055e-08
-1.72206e-07
5.80264e-08
-1.9386e-07
6.09074e-08
-2.16499e-07
6.36911e-08
-2.40101e-07
6.64078e-08
-2.64654e-07
6.90784e-08
-2.90156e-07
7.17181e-08
-3.16608e-07
7.43378e-08
-3.44019e-07
7.69457e-08
-3.72404e-07
7.95487e-08
-4.01783e-07
8.2152e-08
-4.32181e-07
8.47608e-08
-4.63636e-07
8.73808e-08
-4.96189e-07
9.00221e-08
-5.29881e-07
9.2704e-08
-5.64731e-07
9.54582e-08
-6.00702e-07
9.83182e-08
-6.37705e-07
1.01291e-07
-6.75658e-07
1.04326e-07
-7.14552e-07
1.07321e-07
-7.54417e-07
1.10174e-07
-7.95178e-07
1.12814e-07
-8.36657e-07
1.1519e-07
-8.7854e-07
1.1731e-07
-9.20555e-07
1.19314e-07
-9.62612e-07
1.21236e-07
-1.00426e-06
1.23086e-07
-1.04447e-06
1.24968e-07
-1.0822e-06
1.26622e-07
-1.11796e-06
1.27232e-07
-1.15553e-06
1.26436e-07
-1.19561e-06
1.25248e-07
-1.23482e-06
1.24583e-07
-1.27308e-06
1.24139e-07
-1.31063e-06
1.23738e-07
-1.34762e-06
1.23312e-07
-1.38414e-06
1.22828e-07
-1.42028e-06
1.22274e-07
-1.45607e-06
1.21648e-07
-1.49154e-06
1.20953e-07
-1.5267e-06
1.20192e-07
-1.56156e-06
1.19368e-07
-1.59612e-06
1.18483e-07
-1.63037e-06
1.17537e-07
-1.66429e-06
1.1653e-07
-1.69787e-06
1.15459e-07
-1.7311e-06
1.14323e-07
-1.76395e-06
1.13119e-07
-1.7964e-06
1.11842e-07
-1.82843e-06
1.10489e-07
-1.86002e-06
1.09057e-07
-1.89114e-06
1.07543e-07
-1.92177e-06
1.05942e-07
-1.95187e-06
1.04252e-07
-1.98142e-06
1.0247e-07
-2.01039e-06
1.00594e-07
-2.03875e-06
9.86213e-08
-2.06647e-06
9.65503e-08
-2.09352e-06
9.43799e-08
-2.11986e-06
9.21092e-08
-2.14548e-06
8.97377e-08
-2.17033e-06
8.72654e-08
-2.19438e-06
8.46924e-08
-2.21761e-06
8.20195e-08
-2.23998e-06
7.92474e-08
-2.26146e-06
7.63775e-08
-2.28203e-06
7.3411e-08
-2.30165e-06
7.03497e-08
-2.32029e-06
6.71954e-08
-2.33793e-06
6.395e-08
-2.35454e-06
6.06155e-08
-2.37008e-06
5.71939e-08
-2.38455e-06
5.36872e-08
-2.3979e-06
5.00974e-08
-2.41011e-06
4.64262e-08
-2.42117e-06
4.26753e-08
-2.43105e-06
3.88463e-08
-2.43973e-06
3.49408e-08
-2.44718e-06
3.09601e-08
-2.45341e-06
2.69061e-08
-2.45838e-06
2.27811e-08
-2.4621e-06
1.85888e-08
-2.46456e-06
1.43345e-08
-2.46576e-06
1.00262e-08
-2.46571e-06
5.67619e-09
-2.4644e-06
1.3015e-09
-2.4618e-06
-3.07648e-09
-2.4579e-06
-7.47487e-09
-2.4526e-06
-1.18917e-08
-2.44586e-06
-1.63514e-08
-2.43767e-06
-2.08529e-08
-2.42802e-06
-2.53916e-08
-2.41688e-06
-2.99618e-08
-2.40425e-06
-3.45577e-08
-2.39013e-06
-3.91732e-08
-2.3745e-06
-4.38019e-08
-2.35736e-06
-4.84376e-08
-2.33873e-06
-5.30738e-08
-2.31858e-06
-5.77043e-08
-2.29694e-06
-6.23226e-08
-2.2738e-06
-6.69226e-08
-2.24918e-06
-7.14979e-08
-2.22308e-06
-7.60424e-08
-2.19551e-06
-8.05499e-08
-2.1665e-06
-8.50142e-08
-2.13605e-06
-8.94294e-08
-2.10419e-06
-9.37893e-08
-2.07093e-06
-9.80877e-08
-2.03629e-06
-1.02319e-07
-2.00031e-06
-1.06477e-07
-1.963e-06
-1.10556e-07
-1.92439e-06
-1.14551e-07
-1.88452e-06
-1.18456e-07
-1.8434e-06
-1.22267e-07
-1.80108e-06
-1.25979e-07
-1.75759e-06
-1.29586e-07
-1.71297e-06
-1.33084e-07
-1.66725e-06
-1.36469e-07
-1.62046e-06
-1.39735e-07
-1.57266e-06
-1.4288e-07
-1.52388e-06
-1.459e-07
-1.47416e-06
-1.48791e-07
-1.42354e-06
-1.51551e-07
-1.37207e-06
-1.54177e-07
-1.3198e-06
-1.56667e-07
-1.26677e-06
-1.59017e-07
-1.21302e-06
-1.61228e-07
-1.1586e-06
-1.63297e-07
-1.10356e-06
-1.65224e-07
-1.04795e-06
-1.6701e-07
-9.91803e-07
-1.68652e-07
-9.35174e-07
-1.70153e-07
-8.78108e-07
-1.71513e-07
-8.20651e-07
-1.72734e-07
-7.62846e-07
-1.73818e-07
-7.04739e-07
-1.74767e-07
-6.46371e-07
-1.75584e-07
-5.87786e-07
-1.76272e-07
-5.29024e-07
-1.76836e-07
-4.70124e-07
-1.77279e-07
-4.11123e-07
-1.77607e-07
-3.52057e-07
-1.77826e-07
-2.92962e-07
-1.77939e-07
-2.33867e-07
-1.77954e-07
-1.74804e-07
-1.77876e-07
-1.15801e-07
-1.77711e-07
-5.68842e-08
-1.77463e-07
1.92394e-09
-1.77139e-07
6.05986e-08
-1.76738e-07
1.19118e-07
-1.76261e-07
1.77465e-07
-1.75709e-07
2.35622e-07
-1.75084e-07
2.93586e-07
-1.74395e-07
3.51361e-07
-1.73664e-07
4.08959e-07
-1.72907e-07
4.66367e-07
-1.72133e-07
5.23564e-07
-1.71355e-07
5.8053e-07
-1.70562e-07
6.37238e-07
-1.69718e-07
6.93643e-07
-1.6876e-07
7.49666e-07
-1.67576e-07
8.0517e-07
-1.65975e-07
8.5992e-07
-1.63606e-07
9.13515e-07
-1.5981e-07
9.65324e-07
-1.5321e-07
1.01445e-06
-1.4126e-07
1.06039e-06
-1.17975e-07
-7.20002e-08
1.10728e-06
-5.83357e-09
-1.07532e-08
-1.5499e-08
6.05612e-10
-2.63338e-08
1.09365e-08
-3.80583e-08
2.01211e-08
-5.04899e-08
2.85412e-08
-6.36473e-08
3.63096e-08
-7.76044e-08
4.34478e-08
-9.24533e-08
4.99635e-08
-1.08275e-07
5.58838e-08
-1.2512e-07
6.12635e-08
-1.4301e-07
6.61785e-08
-1.61938e-07
7.07138e-08
-1.81884e-07
7.4952e-08
-2.02824e-07
7.89659e-08
-2.24732e-07
8.28157e-08
-2.47589e-07
8.65483e-08
-2.71381e-07
9.01995e-08
-2.96099e-07
9.3796e-08
-3.21738e-07
9.73574e-08
-3.48299e-07
1.00898e-07
-3.75783e-07
1.0443e-07
-4.04194e-07
1.0796e-07
-4.33536e-07
1.11494e-07
-4.63811e-07
1.15036e-07
-4.95021e-07
1.1859e-07
-5.27155e-07
1.22157e-07
-5.6019e-07
1.25739e-07
-5.94068e-07
1.29336e-07
-6.28691e-07
1.32941e-07
-6.63925e-07
1.36525e-07
-6.99628e-07
1.40029e-07
-7.35678e-07
1.43371e-07
-7.71965e-07
1.46461e-07
-8.08379e-07
1.49228e-07
-8.44822e-07
1.51633e-07
-8.81201e-07
1.53689e-07
-9.17343e-07
1.55456e-07
-9.53079e-07
1.56972e-07
-9.88247e-07
1.58254e-07
-1.02259e-06
1.59315e-07
-1.056e-06
1.60027e-07
-1.08891e-06
1.6014e-07
-1.1221e-06
1.59632e-07
-1.15572e-06
1.58867e-07
-1.18928e-06
1.58137e-07
-1.22258e-06
1.57444e-07
-1.2556e-06
1.56761e-07
-1.28835e-06
1.5606e-07
-1.32085e-06
1.55323e-07
-1.35311e-06
1.54537e-07
-1.38516e-06
1.53696e-07
-1.417e-06
1.52795e-07
-1.44864e-06
1.51832e-07
-1.48007e-06
1.50803e-07
-1.5113e-06
1.49706e-07
-1.5423e-06
1.48537e-07
-1.57306e-06
1.47292e-07
-1.60357e-06
1.45967e-07
-1.6338e-06
1.44556e-07
-1.66374e-06
1.43056e-07
-1.69336e-06
1.41461e-07
-1.72263e-06
1.39765e-07
-1.75154e-06
1.37965e-07
-1.78005e-06
1.36054e-07
-1.80814e-06
1.3403e-07
-1.83577e-06
1.31888e-07
-1.86293e-06
1.29624e-07
-1.88957e-06
1.27235e-07
-1.91566e-06
1.24718e-07
-1.94119e-06
1.22072e-07
-1.9661e-06
1.19295e-07
-1.99038e-06
1.16386e-07
-2.01399e-06
1.13344e-07
-2.03689e-06
1.1017e-07
-2.05906e-06
1.06862e-07
-2.08046e-06
1.03423e-07
-2.10107e-06
9.98537e-08
-2.12085e-06
9.61552e-08
-2.13977e-06
9.23297e-08
-2.1578e-06
8.83794e-08
-2.17491e-06
8.43066e-08
-2.19107e-06
8.01141e-08
-2.20626e-06
7.58045e-08
-2.22045e-06
7.13808e-08
-2.23361e-06
6.68458e-08
-2.24571e-06
6.22025e-08
-2.25674e-06
5.74537e-08
-2.26667e-06
5.26024e-08
-2.27547e-06
4.76513e-08
-2.28313e-06
4.26034e-08
-2.28963e-06
3.74616e-08
-2.29496e-06
3.22295e-08
-2.29909e-06
2.69112e-08
-2.30201e-06
2.15117e-08
-2.30371e-06
1.60374e-08
-2.30418e-06
1.04964e-08
-2.30341e-06
4.89789e-09
-2.30136e-06
-7.48355e-10
-2.298e-06
-6.43568e-09
-2.2933e-06
-1.21696e-08
-2.28724e-06
-1.79579e-08
-2.27978e-06
-2.38075e-08
-2.27092e-06
-2.97144e-08
-2.26064e-06
-3.5672e-08
-2.24893e-06
-4.16726e-08
-2.23578e-06
-4.77078e-08
-2.22118e-06
-5.37694e-08
-2.20513e-06
-5.98486e-08
-2.18763e-06
-6.59373e-08
-2.16868e-06
-7.20269e-08
-2.14828e-06
-7.81091e-08
-2.12642e-06
-8.41755e-08
-2.10313e-06
-9.02178e-08
-2.0784e-06
-9.62278e-08
-2.05224e-06
-1.02197e-07
-2.02467e-06
-1.08119e-07
-1.99571e-06
-1.13983e-07
-1.96535e-06
-1.19783e-07