/*--------------------------------*- C++ -*----------------------------------*\
  =========                 |
  \\      /  F ield         | OpenFOAM: The Open Source CFD Toolbox
   \\    /   O peration     | Website:  https://openfoam.org
    \\  /    A nd           | Version:  9
     \\/     M anipulation  |
\*---------------------------------------------------------------------------*/
FoamFile
{
    format      ascii;
    class       volScalarField;
    location    "0.05";
    object      alpha.water;
}
// * * * * * * * * * * * * * * * * * * * * * * * * * * * * * * * * * * * * * //

dimensions      [0 0 0 0 0 0 0];

internalField   nonuniform List<scalar> 
1935
(
1.28427e-39
2.05414e-40
1.8353e-41
1.0941e-42
6.81865e-44
4.16347e-45
2.43674e-46
1.36482e-47
7.28388e-49
3.68663e-50
1.76058e-51
7.88891e-53
3.29616e-54
1.27486e-55
4.52075e-57
1.45535e-58
5.09293e-60
1.82725e-61
6.12665e-63
1.91526e-64
5.57019e-66
1.50479e-67
3.76238e-69
7.87227e-71
1.51311e-72
2.66908e-74
4.31704e-76
6.39972e-78
8.69446e-80
1.08279e-81
1.23696e-83
1.29771e-85
1.25241e-87
1.11451e-89
9.17362e-92
7.01215e-94
5.00262e-96
3.35191e-98
2.12552e-100
1.28952e-102
1.01665e-104
7.56634e-107
4.33818e-108
5.10037e-41
1.92541e-42
6.81429e-44
2.45179e-45
7.64299e-42
2.7138e-43
9.48427e-45
3.37514e-46
6.0422e-43
2.05419e-44
7.10751e-46
2.51331e-47
3.53776e-44
1.185e-45
4.06148e-47
1.43088e-48
2.11869e-45
6.83368e-47
2.26388e-48
7.81402e-50
1.2467e-46
3.90129e-48
1.25946e-49
4.25746e-51
7.05554e-48
2.15162e-49
6.79661e-51
2.26116e-52
3.82538e-49
1.1385e-50
3.52398e-52
1.15663e-53
1.97985e-50
5.7647e-52
1.7525e-53
5.68774e-55
9.73929e-52
2.78243e-53
8.33036e-55
2.68095e-56
4.53251e-53
1.27497e-54
3.77121e-56
1.20744e-57
1.98548e-54
5.52217e-56
1.61981e-57
5.17923e-59
8.14077e-56
2.25018e-57
6.57484e-59
2.10883e-60
3.10392e-57
8.58174e-59
2.51134e-60
8.12304e-62
1.09248e-58
3.04111e-60
8.97925e-62
2.94885e-63
3.5278e-60
1.00143e-61
3.00881e-63
1.00433e-64
1.26972e-61
3.38711e-63
9.94862e-65
3.2152e-66
4.53908e-63
1.20517e-64
3.53138e-66
1.03303e-67
1.51844e-64
4.03769e-66
1.1875e-67
3.48982e-69
4.75313e-66
1.26892e-67
3.74026e-69
1.11545e-70
1.38942e-67
3.72268e-69
1.02746e-70
3.11477e-72
3.77086e-69
9.52363e-71
2.63535e-72
8.13266e-74
8.7217e-71
2.23592e-72
6.30783e-74
1.98893e-75
1.86426e-72
4.87445e-74
1.40789e-75
4.54327e-77
3.67311e-74
9.86043e-76
2.92092e-77
9.70508e-79
6.6799e-76
1.845e-77
5.64314e-79
1.93675e-80
1.11997e-77
3.19999e-79
1.01428e-80
3.61008e-82
1.73081e-79
5.14034e-81
1.69606e-82
6.28602e-84
2.46575e-81
7.64961e-83
2.63959e-84
1.02292e-85
3.23975e-83
1.05527e-84
3.82608e-86
1.55687e-87
3.92938e-85
1.35088e-86
5.17109e-88
2.21879e-89
4.40527e-87
1.60716e-88
6.5268e-90
2.96565e-91
4.57377e-89
1.78061e-90
7.70908e-92
3.72526e-93
4.4087e-91
1.84205e-92
8.54319e-94
4.40895e-95
3.95792e-93
1.78523e-94
8.91148e-96
4.93177e-97
3.32253e-95
1.62751e-96
8.78368e-98
5.23323e-99
2.62082e-97
1.4026e-98
8.21859e-100
5.29067e-101
1.95404e-99
1.14934e-100
7.3389e-102
5.12814e-103
1.3867e-101
9.02419e-103
6.3061e-104
5.48706e-105
9.46482e-104
7.76893e-105
6.6442e-106
6.12758e-107
8.73593e-106
7.56971e-107
6.70856e-108
6.4153e-109
7.09422e-108
6.56946e-109
6.19298e-110
6.26554e-111
3.91351e-109
3.62091e-110
3.57099e-111
3.60943e-112
9.28849e-47
2.58398e-48
8.39987e-50
2.661e-51
8.23423e-53
2.48357e-54
7.28823e-56
2.07741e-57
5.74172e-59
1.53621e-60
3.97216e-62
9.90934e-64
2.38119e-65
5.50267e-67
1.22093e-68
2.59686e-70
5.28622e-72
1.02815e-73
1.90737e-75
3.36899e-77
5.65485e-79
9.00138e-81
1.3558e-82
1.92761e-84
2.57999e-86
3.24128e-88
3.81e-90
4.17596e-92
4.25294e-94
4.01099e-96
3.49256e-98
2.80128e-100
2.06641e-102
1.40033e-104
8.70015e-107
4.92502e-109
2.49473e-111
1.07732e-113
3.49796e-116
1.05262e-118
1.18723e-47
3.54046e-49
1.13332e-50
3.54971e-52
1.08545e-53
3.2359e-55
9.38941e-57
2.6476e-58
7.24336e-60
1.91954e-61
4.91943e-63
1.21728e-64
2.90351e-66
6.66542e-68
1.47034e-69
3.11178e-71
6.30819e-73
1.22292e-74
2.26332e-76
3.99189e-78
6.69698e-80
1.06652e-81
1.60877e-83
2.29309e-85
3.08041e-87
3.88875e-89
4.59913e-91
5.07905e-93
5.22021e-95
4.97778e-97
4.39207e-99
3.57875e-101
2.68942e-103
1.86179e-105
1.18409e-107
6.86599e-110
3.55735e-112
1.56567e-114
5.15271e-117
8.6945e-120
8.45887e-49
2.61205e-50
8.27896e-52
2.56407e-53
7.74752e-55
2.28093e-56
6.53434e-58
1.81901e-59
4.91335e-61
1.28578e-62
3.25479e-64
7.95727e-66
1.87589e-67
4.25769e-69
9.28935e-71
1.94517e-72
3.90299e-74
7.49186e-76
1.3734e-77
2.40014e-79
3.99106e-81
6.30179e-83
9.42766e-85
1.3331e-86
1.77704e-88
2.22669e-90
2.61462e-92
2.86772e-94
2.92854e-96
2.77642e-98
2.43803e-100
1.98018e-102
1.48689e-104
1.03211e-106
6.61399e-109
3.88878e-111
2.05851e-113
9.32942e-116
3.1794e-118
5.24715e-121
4.71136e-50
1.49653e-51
4.73159e-53
1.45842e-54
4.37984e-56
1.28032e-57
3.63945e-59
1.00489e-60
2.69155e-62
6.98349e-64
1.75261e-65
4.24801e-67
9.92903e-69
2.23453e-70
4.83454e-72
1.00401e-73
1.9982e-75
3.80496e-77
6.92036e-79
1.20003e-80
1.98021e-82
3.10306e-84
4.60748e-86
6.46656e-88
8.55597e-90
1.06413e-91
1.24023e-93
1.3502e-95
1.3687e-97
1.28834e-99
1.12377e-101
9.07487e-104
6.78614e-106
4.70361e-108
3.02203e-110
1.79188e-112
9.63989e-115
4.48038e-117
1.57793e-119
2.78171e-122
2.53795e-51
8.14582e-53
2.55718e-54
7.85579e-56
2.34844e-57
6.82349e-59
1.92638e-60
5.28035e-62
1.4037e-63
3.61415e-65
9.00019e-67
2.1646e-68
5.02038e-70
1.12119e-71
2.40741e-73
4.96223e-75
9.8034e-77
1.85327e-78
3.34674e-80
5.76295e-82
9.44436e-84
1.46997e-85
2.16808e-87
3.02284e-89
3.97345e-91
4.9099e-93
5.68575e-95
6.15079e-97
6.19696e-99
5.79976e-101
5.03383e-103
4.0503e-105
3.02451e-107
2.10056e-109
1.35902e-111
8.16959e-114
4.49368e-116
2.15505e-118
7.88469e-121
1.43477e-123
1.35542e-52
4.22631e-54
1.29565e-55
3.94218e-57
1.16485e-58
3.36073e-60
9.43946e-62
2.5732e-63
6.79769e-65
1.73894e-66
4.30199e-68
1.02779e-69
2.3679e-71
5.25302e-73
1.12046e-74
2.29438e-76
4.50336e-78
8.45874e-80
1.51786e-81
2.59739e-83
4.23039e-85
6.54429e-87
9.59412e-89
1.32966e-90
1.73742e-92
2.13419e-94
2.4569e-96
2.64248e-98
2.64746e-100
2.46503e-102
2.13032e-104
1.70932e-106
1.27602e-108
8.89325e-111
5.8059e-113
3.548e-115
2.00219e-117
9.94635e-120
3.79449e-122
7.13828e-125
7.12308e-54
2.17668e-55
6.50976e-57
1.91835e-58
5.48173e-60
1.55345e-61
4.31358e-63
1.16237e-64
3.05631e-66
7.78167e-68
1.91515e-69
4.55039e-71
1.04251e-72
2.29977e-74
4.87776e-76
9.93207e-78
1.93853e-79
3.6209e-81
6.46157e-83
1.09965e-84
1.78128e-86
2.74072e-88
3.9964e-90
5.509e-92
7.15989e-94
8.74795e-96
1.00171e-97
1.07171e-99
1.06833e-101
9.902e-104
8.52671e-106
6.82858e-108
5.10201e-110
3.57405e-112
2.35953e-114
1.46999e-116
8.54048e-119
4.41198e-121
1.76123e-123
3.42901e-126
3.62071e-55
1.0893e-56
3.19507e-58
9.20209e-60
2.56831e-61
7.06757e-63
1.90108e-64
4.96882e-66
1.293e-67
3.25618e-69
7.9515e-71
1.88149e-72
4.29284e-74
9.42708e-76
1.99016e-77
4.03333e-79
7.83505e-81
1.45656e-82
2.58699e-84
4.38186e-86
7.06456e-88
1.08185e-89
1.57007e-91
2.15408e-93
2.78628e-95
3.38799e-97
3.86096e-99
4.11134e-101
4.08003e-103
3.76676e-105
3.2343e-107
2.58766e-109
1.93749e-111
1.36655e-113
9.14451e-116
5.82567e-118
3.49745e-120
1.88628e-122
7.90603e-125
1.59402e-127
1.77339e-56
5.25988e-58
1.51642e-59
4.28503e-61
1.17198e-62
3.15405e-64
8.29131e-66
2.11787e-67
5.35e-69
1.30826e-70
3.13141e-72
7.33852e-74
1.65783e-75
3.62344e-77
7.62336e-79
1.53957e-80
2.97926e-82
5.51702e-84
9.76027e-86
1.64666e-87
2.64419e-89
4.03296e-91
5.82916e-93
7.96451e-95
1.0259e-96
1.24219e-98
1.4096e-100
1.49475e-102
1.47756e-104
1.35961e-106
1.16497e-108
9.32076e-111
7.00323e-113
4.98269e-115
3.38814e-117
2.21432e-119
1.37891e-121
7.79481e-124
3.44118e-126
7.18573e-129
8.35209e-58
2.44738e-59
6.94747e-61
1.92873e-62
5.17565e-64
1.36606e-65
3.52129e-67
8.81861e-69
2.18093e-70
5.22387e-72
1.22143e-73
2.7873e-75
6.13281e-77
1.32441e-78
2.76262e-80
5.53136e-82
1.0674e-83
1.97113e-85
3.47692e-87
5.84713e-89
9.35854e-91
1.4226e-92
2.04917e-94
2.79003e-96
3.58092e-98
4.31998e-100
4.88407e-102
5.16033e-104
5.08397e-106
4.66572e-108
3.99259e-110
3.19793e-112
2.41473e-114
1.73658e-116
1.20317e-118
8.0942e-121
5.24863e-123
3.12181e-125
1.45587e-127
3.14706e-130
3.77195e-59
1.09453e-60
3.06594e-62
8.37863e-64
2.21005e-65
5.72921e-67
1.44992e-68
3.56473e-70
8.65811e-72
2.03701e-73
4.67619e-75
1.04723e-76
2.26272e-78
4.77635e-80
9.73228e-82
1.90441e-83
3.64831e-85
6.6874e-87
1.17113e-88
1.96493e-90
3.13755e-92
4.75746e-94
6.8341e-96
9.27796e-98
1.18722e-99
1.42779e-101
1.60913e-103
1.69491e-105
1.66523e-107
1.52522e-109
1.3046e-111
1.04729e-113
7.96005e-116
5.79897e-118
4.10554e-120
2.85311e-122
1.93406e-124
1.21487e-126
6.00037e-129
1.34109e-131
1.62896e-60
4.69309e-62
1.30025e-63
3.50537e-65
9.10678e-67
2.32303e-68
5.78216e-70
1.39789e-71
3.33853e-73
7.72403e-75
1.74419e-76
3.84373e-78
8.17459e-80
1.69732e-81
3.40235e-83
6.55352e-85
1.22944e-86
2.20839e-88
3.79361e-90
6.32544e-92
1.00372e-93
1.5125e-95
2.1656e-97
2.93364e-99
3.74526e-101
4.49312e-103
5.05078e-105
5.30654e-107
5.20234e-109
4.75885e-111
4.07242e-113
3.28068e-115
2.51425e-117
1.85985e-119
1.3496e-121
9.72378e-124
6.91714e-126
4.60437e-128
2.41363e-130
5.57527e-133
6.70853e-62
1.92448e-63
5.28717e-65
1.40943e-66
3.61418e-68
9.09009e-70
2.22947e-71
5.30945e-73
1.24894e-74
2.84603e-76
6.33044e-78
1.37435e-79
2.88e-81
5.89476e-83
1.16517e-84
2.21372e-86
4.09365e-88
7.25143e-90
1.22891e-91
2.01301e-93
3.14033e-95
4.65529e-97
6.60951e-99
8.90694e-101
1.1313e-102
1.35045e-104
1.51262e-106
1.58617e-108
1.55271e-110
1.41965e-112
1.21667e-114
9.84901e-117
7.62515e-119
5.74163e-121
4.28394e-123
3.21172e-125
2.41051e-127
1.70869e-129
9.53811e-132
2.28377e-134
2.62738e-63
7.52875e-65
2.0568e-66
5.43524e-68
1.37887e-69
3.42669e-71
8.29794e-73
1.95027e-74
4.52648e-76
1.01762e-77
2.23308e-79
4.78316e-81
9.89039e-83
1.99783e-84
3.898e-86
7.3121e-88
1.33571e-89
2.33791e-91
3.9162e-93
6.3381e-95
9.77344e-97
1.43288e-98
2.00746e-100
2.66835e-102
3.34582e-104
3.94661e-106
4.38534e-108
4.58204e-110
4.47324e-112
4.08539e-114
3.5069e-116
2.85569e-118
2.23817e-120
1.72094e-122
1.32551e-124
1.03853e-126
8.27778e-129
6.28467e-131
3.75151e-133
9.31485e-136
9.75946e-65
2.80323e-66
7.63851e-68
2.00641e-69
5.04812e-71
1.2424e-72
2.97666e-74
6.918e-76
1.58714e-77
3.52629e-79
7.64666e-81
1.61846e-82
3.30703e-84
6.60176e-86
1.27314e-87
2.36097e-89
4.26448e-91
7.38244e-93
1.22342e-94
1.95983e-96
2.99223e-98
4.34512e-100
6.02931e-102
7.93997e-104
9.86869e-106
1.15461e-107
1.27213e-109
1.31782e-111
1.278e-113
1.1627e-115
9.98271e-118
8.17797e-120
6.49907e-122
5.11786e-124
4.08453e-126
3.35725e-128
2.83473e-130
2.29673e-132
1.46187e-134
3.75895e-137
3.41776e-66
9.91139e-68
2.70267e-69
7.07702e-71
1.77054e-72
4.32568e-74
1.02767e-75
2.36659e-77
5.37726e-79
1.18282e-80
2.53888e-82
5.31846e-84
1.07551e-85
2.12488e-87
4.05579e-89
7.44496e-91
1.3313e-92
2.28208e-94
3.74566e-96
5.9443e-98
8.99351e-100
1.29457e-101
1.78142e-103
2.32739e-105
2.87107e-107
3.33557e-109
3.65119e-111
3.76063e-113
3.63131e-115
3.29682e-117
2.83431e-119
2.33665e-121
1.8819e-123
1.51568e-125
1.25088e-127
1.076e-129
9.61329e-132
8.30423e-134
5.63074e-136
1.49835e-138
1.12716e-67
3.31488e-69
9.09353e-71
2.38113e-72
5.94002e-74
1.44426e-75
3.41021e-77
7.79816e-79
1.7583e-80
3.83634e-82
8.16513e-84
1.69564e-85
3.39883e-87
6.65555e-89
1.25908e-90
2.29079e-92
4.06053e-94
6.90038e-96
1.12299e-97
1.76743e-99
2.65254e-101
3.78844e-103
5.17407e-105
6.7113e-107
8.22274e-109
9.49252e-111
1.03315e-112
1.05903e-114
1.01909e-116
9.23961e-119
7.95849e-121
6.6056e-123
5.39279e-125
4.44228e-127
3.79034e-129
3.41075e-131
3.22342e-133
2.96762e-135
2.14256e-137
5.89685e-140
3.53769e-69
1.04342e-70
2.90255e-72
7.63077e-74
1.90365e-75
4.61844e-77
1.08643e-78
2.47239e-80
5.54333e-82
1.20195e-83
2.54118e-85
5.24039e-87
1.04283e-88
2.027e-90
3.80596e-92
6.87267e-94
1.20909e-95
2.03941e-97
3.29467e-99
5.148e-101
7.67172e-103
1.08821e-104
1.47643e-106
1.90297e-108
2.31755e-110
2.66048e-112
2.8811e-114
2.94089e-116
2.82177e-118
2.55622e-120
2.20701e-122
1.84501e-124
1.52737e-126
1.28712e-128
1.13554e-130
1.06886e-132
1.06823e-134
1.04763e-136
8.04896e-139
2.2898e-141
1.04108e-70
3.13845e-72
8.7347e-74
2.32621e-75
5.82109e-77
1.41301e-78
3.3197e-80
7.53524e-82
1.6835e-83
3.6347e-85
7.64736e-87
1.5687e-88
3.10417e-90
5.99833e-92
1.11946e-93
2.00903e-95
3.51245e-97
5.88768e-99
9.45266e-101
1.46796e-102
2.17446e-104
3.06633e-106
4.13657e-108
5.30249e-110
6.42417e-112
7.3392e-114
7.9135e-116
8.04919e-118
7.70548e-120
6.97833e-122
6.04227e-124
5.08962e-126
4.27378e-128
3.68513e-130
3.36171e-132
3.30955e-134
3.49662e-136
3.6512e-138
2.98347e-140
8.7676e-143
3.05564e-72
8.88177e-74
2.51604e-75
6.70366e-77
1.69686e-78
4.13268e-80
9.72138e-82
2.20604e-83
4.92172e-85
1.06016e-86
2.22387e-88
4.54558e-90
8.95892e-92
1.72366e-93
3.20203e-95
5.71895e-97
9.94931e-99
1.65938e-100
2.6507e-102
4.09573e-104
6.03668e-106
8.47101e-108
1.13732e-109
1.45117e-111
1.75045e-113
1.99164e-115
2.13974e-117
2.17018e-119
2.07401e-121
1.87879e-123
1.63222e-125
1.3859e-127
1.18079e-129
1.04198e-131
9.82893e-134
1.01192e-135
1.12986e-137
1.25557e-139
1.09051e-141
3.30836e-144
9.29035e-74
2.40951e-75
6.84972e-77
1.85036e-78
4.69267e-80
1.1548e-81
2.72679e-83
6.20061e-85
1.38438e-86
2.98105e-88
6.24609e-90
1.27437e-91
2.50572e-93
4.80738e-95
8.90239e-97
1.58455e-98
2.74662e-100
4.56353e-102
7.26147e-104
1.11759e-105
1.6407e-107
2.29329e-109
3.06711e-111
3.89887e-113
4.68615e-115
5.31419e-117
5.69283e-119
5.76098e-121
5.49976e-123
4.9861e-125
4.34834e-127
3.72322e-129
3.21961e-131
2.90811e-133
2.8367e-135
3.05366e-137
3.60214e-139
4.25793e-141
3.92852e-143
1.22958e-145
2.567e-75
6.96885e-77
1.761e-78
4.85137e-80
1.24439e-81
3.07151e-83
7.32389e-85
1.67273e-86
3.7453e-88
8.07833e-90
1.6938e-91
3.45548e-93
6.78924e-95
1.3009e-96
2.40489e-98
4.27163e-100
7.38694e-102
1.22419e-103
1.94259e-105
2.98124e-107
4.36389e-109
6.08163e-111
8.10981e-113
1.02793e-114
1.23208e-116
1.39363e-118
1.48965e-120
1.50511e-122
1.43617e-124
1.30379e-126
1.14193e-128
9.86383e-131
8.6597e-133
8.00772e-135
8.07747e-137
9.09053e-139
1.13253e-140
1.4233e-142
1.39416e-144
4.49935e-147
6.43663e-77
1.86378e-78
4.78538e-80
1.20586e-81
3.14568e-83
7.84344e-85
1.87899e-86
4.33068e-88
9.74469e-90
2.10944e-91
4.43405e-93
9.06036e-95
1.78169e-96
3.41474e-98
6.31081e-100
1.12014e-101
1.93498e-103
3.20234e-105
5.0735e-107
7.77236e-109
1.13553e-110
1.57936e-112
2.10177e-114
2.65861e-116
3.18033e-118
3.59079e-120
3.8324e-122
3.8686e-124
3.69178e-126
3.35779e-128
2.95496e-130
2.57596e-132
2.29664e-134
2.17454e-136
2.26833e-138
2.66847e-140
3.50997e-142
4.68752e-144
4.87171e-146
1.61482e-148
1.51519e-78
4.48814e-80
1.22032e-81
2.99673e-83
7.56848e-85
1.91591e-86
4.63073e-88
1.07473e-89
2.43864e-91
5.30802e-93
1.12054e-94
2.29719e-96
4.52839e-98
8.69396e-100
1.60854e-101
2.85684e-103
4.93596e-105
8.16745e-107
1.29337e-108
1.97998e-110
2.89011e-112
4.01549e-114
5.33759e-116
6.74363e-118
8.05739e-120
9.08746e-122
9.6909e-124
9.7795e-126
9.33887e-128
8.5144e-130
7.5321e-132
6.62897e-134
6.00369e-136
5.82143e-138
6.27979e-140
7.72106e-142
1.0719e-143
1.52045e-145
1.67602e-147
5.80628e-150
3.34583e-80
1.01734e-81
2.82278e-83
7.34399e-85
1.75262e-86
4.47052e-88
1.09548e-89
2.56337e-91
5.86842e-93
1.28745e-94
2.73421e-96
5.63282e-98
1.11479e-99
2.14707e-101
3.98239e-103
7.08648e-105
1.22612e-106
2.03085e-108
3.21804e-110
4.92802e-112
7.19386e-114
9.9939e-116
1.32807e-117
1.67728e-119
2.0032e-121
2.25846e-123
2.40805e-125
2.43083e-127
2.3242e-129
2.12517e-131
1.89066e-133
1.68051e-135
1.54649e-137
1.53588e-139
1.71337e-141
2.20135e-143
3.22446e-145
4.8559e-147
5.63619e-149
6.76254e-151
6.92734e-82
2.16994e-83
6.16431e-85
1.63459e-86
4.05308e-88
9.97917e-90
2.48443e-91
5.88666e-93
1.35859e-94
3.01134e-96
6.44424e-98
1.33618e-99
2.65885e-101
5.14437e-103
9.57832e-105
1.70984e-106
2.96615e-108
4.92339e-110
7.81483e-112
1.19836e-113
1.75118e-115
2.43469e-117
3.23729e-119
4.09024e-121
4.88664e-123
5.51116e-125
5.87908e-127
5.94014e-129
5.68974e-131
5.2202e-133
4.67247e-135
4.19591e-137
3.92439e-139
3.99245e-141
4.60583e-143
6.18271e-145
9.55215e-147
1.52251e-148
1.88945e-150
1.36522e-151
1.34463e-83
4.35495e-85
1.27081e-86
3.44514e-88
8.70093e-90
2.13501e-91
5.40639e-93
1.30009e-94
3.0349e-96
6.79319e-98
1.46787e-99
3.0677e-101
6.14629e-103
1.19624e-104
2.23867e-106
4.01389e-108
6.98942e-110
1.16389e-111
1.85252e-113
2.84737e-115
4.16911e-117
5.80605e-119
7.73088e-121
9.77949e-123
1.1696e-124
1.32041e-126
1.41014e-128
1.42691e-130
1.36994e-132
1.26175e-134
1.13672e-136
1.03164e-138
9.80881e-141
1.02234e-142
1.21963e-144
1.71025e-146
2.78332e-148
4.77426e-150
4.37957e-151
6.03541e-153
2.44725e-85
8.22541e-87
2.47381e-88
6.87751e-90
1.77423e-91
4.3845e-93
1.13111e-94
2.76356e-96
6.54107e-98
1.47977e-99
3.23358e-101
6.82089e-103
1.3778e-104
2.70092e-106
5.0866e-108
9.17096e-110
1.60476e-111
2.68374e-113
4.28766e-115
6.61192e-117
9.709e-119
1.35551e-120
1.80887e-122
2.29266e-124
2.74678e-126
3.10612e-128
3.32292e-130
3.36936e-132
3.24399e-134
3.00074e-136
2.72204e-138
2.49747e-140
2.41451e-142
2.57847e-144
3.18091e-146
4.65784e-148
7.99411e-150
5.56725e-151
5.06293e-152
2.04918e-154
4.17831e-87
1.46281e-88
4.54951e-90
1.30108e-91
3.43827e-93
8.67345e-95
2.27824e-96
5.66289e-98
1.36074e-99
3.11655e-101
6.89487e-103
1.46984e-104
2.9971e-106
5.92472e-108
1.12416e-109
2.04038e-111
3.59157e-113
6.03826e-115
9.69252e-117
1.50094e-118
2.21224e-120
3.09888e-122
4.14761e-124
5.27094e-126
6.33035e-128
7.1749e-130
7.69341e-132
7.82114e-134
7.55509e-136
7.02186e-138
6.41602e-140
5.95291e-142
5.85311e-144
6.40495e-146
8.1729e-148
1.23822e-149
6.41695e-151
1.05347e-151
1.78917e-153
6.77084e-156
6.69759e-89
2.4515e-90
7.91096e-92
2.33438e-93
6.33715e-95
1.64713e-96
4.42456e-98
1.12007e-99
2.73556e-101
6.35394e-103
1.42434e-104
3.07243e-106
6.33143e-108
1.26357e-109
2.41813e-111
4.42291e-113
7.83962e-115
1.32628e-116
2.14093e-118
3.33217e-120
4.93369e-122
6.93943e-124
9.32229e-126
1.18869e-127
1.43199e-129
1.62773e-131
1.75035e-133
1.78492e-135
1.73072e-137
1.61688e-139
1.48864e-141
1.39712e-143
1.39733e-145
1.56738e-147
2.03412e-149
7.15628e-151
1.50049e-151
3.8781e-153
5.67704e-155
2.19745e-157
1.00911e-90
3.8761e-92
1.30215e-93
3.97666e-95
1.11207e-96
3.02399e-98
8.29848e-100
2.14142e-101
5.32112e-103
1.25545e-104
2.85375e-106
6.23584e-108
1.30009e-109
2.62217e-111
5.06646e-113
9.3478e-115
1.67002e-116
2.84556e-118
4.62327e-120
7.23814e-122
1.07742e-123
1.52278e-125
2.05466e-127
2.6304e-129
3.18046e-131
3.62768e-133
3.91417e-135
4.00576e-137
3.90047e-139
3.66416e-141
3.40037e-143
3.2289e-145
3.28586e-147
3.74141e-149
8.01955e-151
1.95314e-151
5.68121e-153
1.14918e-154
1.76542e-156
7.00729e-159
1.43134e-92
5.79088e-94
2.03191e-95
6.44119e-97
1.86075e-98
5.36644e-100
1.50532e-101
3.96286e-103
1.00282e-104
2.40572e-106
5.55274e-108
1.23019e-109
2.59747e-111
5.29975e-113
1.03485e-114
1.9278e-116
3.47443e-118
5.96768e-120
9.76685e-122
1.53929e-123
2.30521e-125
3.27611e-127
4.44274e-129
5.71389e-131
6.93814e-133
7.9453e-135
8.60598e-137
8.84281e-139
8.65014e-141
8.1741e-143
7.64822e-145
7.34993e-147
7.57194e-149
1.00036e-150
2.5511e-151
7.76237e-153
1.56939e-154
3.32757e-156
5.39692e-158
2.19566e-160
1.91511e-94
8.19072e-96
3.01145e-97
9.93774e-99
2.98857e-100
9.21837e-102
2.64468e-103
7.10767e-105
1.83348e-106
4.4788e-108
1.05033e-109
2.36164e-111
5.05475e-113
1.0443e-114
2.06262e-116
3.88288e-118
7.06559e-120
1.22431e-121
2.01993e-123
3.20702e-125
4.83527e-127
6.91428e-129
9.42951e-131
1.21904e-132
1.48732e-134
1.71085e-136
1.86114e-138
1.92086e-140
1.88839e-142
1.7956e-144
1.69442e-146
1.64487e-148
1.87085e-150
3.32929e-151
1.14014e-152
2.01233e-154
4.22541e-156
9.47711e-158
1.62222e-159
6.76117e-162
2.42306e-96
1.0994e-97
4.24874e-99
1.46453e-100
4.85383e-102
1.53472e-103
4.50598e-105
1.23731e-106
3.25637e-108
8.11135e-110
1.93387e-111
4.41719e-113
9.5924e-115
2.00839e-116
4.01585e-118
7.64569e-120
1.40579e-121
2.45926e-123
4.0931e-125
6.55102e-127
9.95017e-129
1.4325e-130
1.96576e-132
2.55586e-134
3.13479e-136
3.62375e-138
3.96083e-140
4.10766e-142
4.05978e-144
3.88555e-146
3.69692e-148
3.78024e-150
4.18269e-151
1.87084e-152
2.80773e-154
5.06809e-156
1.11957e-157
2.65584e-159
4.79541e-161
2.04649e-163
2.90761e-98
1.40435e-99
5.72514e-101
2.16172e-102
7.64254e-104
2.47878e-105
7.45402e-107
2.09355e-108
5.62579e-110
1.43071e-111
3.47057e-113
8.05994e-115
1.77736e-116
3.77438e-118
7.64628e-120
1.4734e-121
2.73931e-123
4.84134e-125
8.13392e-127
1.31315e-128
2.01044e-130
2.91562e-132
4.02798e-134
5.26962e-136
6.50034e-138
7.55454e-140
8.29972e-142
8.65198e-144
8.59945e-146
8.2878e-148
8.02463e-150
4.94923e-151
3.3831e-152
4.45241e-154
6.6756e-156
1.25672e-157
2.92083e-159
7.32522e-161
1.39445e-162
6.09044e-165
3.32068e-100
1.71435e-101
7.7434e-103
3.21089e-104
1.1673e-105
3.88784e-107
1.1989e-108
3.44695e-110
9.48084e-112
2.45995e-113
6.07936e-115
1.43669e-116
3.2197e-118
6.94017e-120
1.4255e-121
2.78207e-123
5.23356e-125
9.35047e-127
1.58676e-128
2.5854e-130
3.99201e-132
5.83477e-134
8.119e-136
1.06924e-137
1.32707e-139
1.55115e-141
1.71352e-143
1.79606e-145
1.79615e-147
1.72743e-149
5.63908e-151
6.42891e-152
7.9887e-154
1.00923e-155
1.56327e-157
3.07034e-159
7.50565e-161
1.98917e-162
3.99013e-164
1.78274e-166
3.6295e-102
2.16231e-103
1.08065e-104
4.62156e-106
1.73076e-107
5.92871e-109
1.877e-110
5.53275e-112
1.55959e-113
4.13002e-115
1.04095e-116
2.50531e-118
5.71025e-120
1.25027e-121
2.60549e-123
5.15349e-125
9.8152e-127
1.77376e-128
3.04193e-130
5.00482e-132
7.79735e-134
1.14913e-135
1.61122e-137
2.13686e-139
2.66943e-141
3.13917e-143
3.48793e-145
3.67742e-147
3.67289e-149
6.5261e-151
1.19553e-151
1.57111e-153
1.74228e-155
2.25363e-157
3.60912e-159
7.39402e-161
1.90051e-162
5.3202e-164
1.12394e-165
5.13458e-168
4.36083e-104
2.81178e-105
1.45785e-106
6.44902e-108
2.49346e-109
8.79933e-111
2.86436e-112
8.68711e-114
2.50498e-115
6.78209e-117
1.74486e-118
4.28016e-120
9.92912e-122
2.20977e-123
4.67511e-125
9.3771e-127
1.80915e-128
3.30867e-130
5.73712e-132
9.53572e-134
1.49966e-135
2.22934e-137
3.15089e-139
4.20977e-141
5.29503e-143
6.26668e-145
7.00546e-147
7.39947e-149
8.40214e-151
2.01959e-151
3.24325e-153
3.32338e-155
3.7428e-157
4.96447e-159
8.21927e-161
1.75607e-162
4.74418e-164
1.40211e-165
3.11791e-167
1.45577e-169
5.20895e-106
3.5167e-107
1.90085e-108
8.72936e-110
3.49299e-111
1.27288e-112
4.2795e-114
1.33167e-115
3.93698e-117
1.09084e-118
2.86713e-120
7.17381e-122
1.69496e-123
3.83672e-125
8.24552e-127
1.67801e-128
3.28113e-130
6.0756e-132
1.06563e-133
1.79003e-135
2.84279e-137
4.26429e-139
6.07743e-141
8.18253e-143
1.03656e-144
1.23499e-146
1.38632e-148
1.61162e-150
2.96383e-151
6.72304e-153
6.70175e-155
6.91847e-157
7.93704e-159
1.07959e-160
1.8476e-162
4.11554e-164
1.16815e-165
3.64296e-167
8.52215e-169
4.06491e-171
5.94645e-108
4.232e-109
2.39611e-110
1.14632e-111
4.7673e-113
1.80114e-114
6.23833e-116
1.99698e-117
6.06014e-119
1.7201e-120
4.62284e-122
1.18073e-123
2.84328e-125
6.5502e-127
1.43078e-128
2.95578e-130
5.86047e-132
1.09919e-133
1.95092e-135
3.31326e-137
5.3154e-139
8.04821e-141
1.15698e-142
1.57022e-144
2.00397e-146
2.40158e-148
2.87407e-150
3.79927e-151
1.34541e-152
1.36693e-154
1.35944e-156
1.42271e-158
1.66289e-160
2.31943e-162
4.10251e-164
9.52445e-166
2.83892e-167
9.33631e-169
2.29617e-170
1.11834e-172
6.47965e-110
4.89367e-111
2.91634e-112
1.46372e-113
6.34094e-115
2.48138e-116
8.87929e-118
2.92844e-119
9.13363e-121
2.65867e-122
7.3132e-124
1.90833e-125
4.68716e-127
1.09969e-128
2.44294e-130
5.12593e-132
1.03105e-133
1.95973e-135
3.52123e-137
6.04837e-139
9.80558e-141
1.49914e-142
2.17449e-144
2.97576e-146
3.8254e-148
4.76633e-150
4.42689e-151
2.51707e-152
2.71658e-154
2.7122e-156
2.72573e-158
2.89273e-160
3.4451e-162
4.92753e-164
9.00611e-166
2.17836e-167
6.81428e-169
2.36144e-170
6.10096e-172
3.03256e-174
6.68803e-112
5.39184e-113
3.39753e-114
1.78421e-115
8.04997e-117
3.28091e-118
1.21804e-119
4.15194e-121
1.33496e-122
3.99524e-124
1.12733e-125
3.01184e-127
7.55851e-129
1.80908e-130
4.0936e-132
8.73573e-134
1.78472e-135
3.4396e-137
6.25994e-139
1.08806e-140
1.78335e-142
2.75421e-144
4.0325e-146
5.56613e-148
7.308e-150
4.90064e-151
4.31284e-152
5.11617e-154
5.2852e-156
5.32181e-158
5.40748e-160
5.82091e-162
7.06478e-164
1.03622e-165
1.95672e-167
4.92872e-169
1.61685e-170
5.89787e-172
1.59888e-173
8.10478e-176
2.84761e-113
1.76635e-114
9.15295e-116
4.0863e-117
1.64353e-118
6.0303e-120
2.03619e-121
6.48614e-123
1.92558e-124
5.39375e-126
1.43088e-127
3.56937e-129
8.51275e-131
1.92396e-132
4.10326e-134
8.37738e-136
1.64381e-137
3.21852e-139
5.94379e-141
1.04715e-142
1.73786e-144
2.71515e-146
4.0224e-148
6.07157e-150
5.50026e-151
6.71971e-152
8.96358e-154
9.7735e-156
1.01703e-157
1.03366e-159
1.06222e-161
1.16012e-163
1.43527e-165
2.15914e-167
4.21221e-169
1.10452e-170
3.79663e-172
1.45581e-173
4.13387e-175
2.13317e-177
)
;

boundaryField
{
    leftWall
    {
        type            zeroGradient;
    }
    rightWall
    {
        type            zeroGradient;
    }
    lowerWall
    {
        type            zeroGradient;
    }
    atmosphere
    {
        type            inletOutlet;
        inletValue      uniform 0;
        value           nonuniform List<scalar> 
45
(
4.33818e-108
3.91351e-109
3.62091e-110
3.57099e-111
3.60943e-112
2.84761e-113
1.76635e-114
9.15295e-116
4.0863e-117
1.64353e-118
6.0303e-120
2.03619e-121
6.48614e-123
1.92558e-124
5.39375e-126
1.43088e-127
3.56937e-129
8.51275e-131
1.92396e-132
4.10326e-134
8.37738e-136
1.64381e-137
3.21852e-139
5.94379e-141
1.04715e-142
1.73786e-144
2.71515e-146
4.0224e-148
6.07157e-150
5.50026e-151
6.71971e-152
8.96358e-154
9.7735e-156
1.01703e-157
1.03366e-159
1.06222e-161
1.16012e-163
1.43527e-165
2.15914e-167
4.21221e-169
1.10452e-170
3.79663e-172
1.45581e-173
4.13387e-175
2.13317e-177
)
;
    }
    defaultFaces
    {
        type            empty;
    }
    procBoundary3to1
    {
        type            processor;
        value           nonuniform List<scalar> 
45
(
4.08568e-38
1.37201e-39
5.18286e-41
1.85773e-42
6.73045e-44
2.51787e-45
7.25444e-47
2.3622e-48
7.55359e-50
2.36021e-51
7.19795e-53
2.13796e-54
6.17266e-56
1.72908e-57
4.69072e-59
1.23022e-60
3.11382e-62
7.59368e-64
1.78136e-65
4.0133e-67
8.66983e-69
1.79302e-70
3.54418e-72
6.68463e-74
1.20092e-75
2.05125e-77
3.32453e-79
5.10165e-81
7.39499e-83
1.00994e-84
1.29584e-86
1.55732e-88
1.74718e-90
1.82369e-92
1.76507e-94
1.57919e-96
1.30256e-98
9.88145e-101
6.8755e-103
4.36703e-105
2.50627e-107
1.27015e-109
5.3932e-112
1.69128e-114
2.65469e-117
)
;
    }
    procBoundary3to2
    {
        type            processor;
        value           nonuniform List<scalar> 
43
(
1.10273e-37
8.79402e-39
6.09504e-40
3.97824e-41
2.59025e-42
1.63354e-43
9.86485e-45
5.68912e-46
3.11808e-47
1.61555e-48
7.86737e-50
3.57773e-51
1.50803e-52
5.83822e-54
2.05019e-55
6.41892e-57
2.21908e-58
8.03891e-60
2.71155e-61
8.49428e-63
2.46561e-64
6.62696e-66
1.64688e-67
3.70279e-69
6.89022e-71
1.16965e-72
1.80961e-74
2.54985e-76
3.27092e-78
3.81965e-80
4.06184e-82
3.93658e-84
3.48188e-86
2.81642e-88
2.08933e-90
1.4269e-92
9.0166e-95
5.30594e-97
2.93175e-99
1.53687e-101
9.91569e-104
6.74977e-106
4.6757e-107
)
;
    }
}


// ************************************************************************* //
