/*--------------------------------*- C++ -*----------------------------------*\
  =========                 |
  \\      /  F ield         | OpenFOAM: The Open Source CFD Toolbox
   \\    /   O peration     | Website:  https://openfoam.org
    \\  /    A nd           | Version:  9
     \\/     M anipulation  |
\*---------------------------------------------------------------------------*/
FoamFile
{
    format      ascii;
    class       volScalarField;
    location    "0.05";
    object      epsilon;
}
// * * * * * * * * * * * * * * * * * * * * * * * * * * * * * * * * * * * * * //

dimensions      [0 2 -3 0 0 0 0];

internalField   nonuniform List<scalar> 
1935
(
0.0917854
0.0917827
0.0917794
0.0917756
0.0917705
0.0917633
0.0917537
0.0917409
0.0917245
0.0917044
0.0916807
0.0916536
0.0916237
0.0915917
0.0915584
0.0915245
0.0914909
0.0914581
0.0914267
0.091397
0.0913692
0.0913436
0.0913201
0.0912987
0.0912794
0.091262
0.0912465
0.0912326
0.0912203
0.0912093
0.0911997
0.0911912
0.0911839
0.0911776
0.0911724
0.0911684
0.0911658
0.0911649
0.0911664
0.0911704
0.0911763
0.0911812
0.0911823
0.0917082
0.0916272
0.091549
0.0914816
0.0917022
0.0916198
0.0915405
0.0914726
0.0916961
0.0916119
0.0915318
0.0914637
0.0916893
0.0916035
0.091523
0.0914549
0.0916814
0.0915946
0.091514
0.0914462
0.0916721
0.0915847
0.0915045
0.0914373
0.0916609
0.0915736
0.0914943
0.0914282
0.0916475
0.091561
0.0914832
0.0914185
0.0916316
0.0915467
0.0914709
0.0914082
0.091613
0.0915306
0.0914576
0.0913972
0.091592
0.0915127
0.091443
0.0913854
0.0915685
0.0914933
0.0914275
0.091373
0.0915432
0.0914725
0.091411
0.09136
0.0915165
0.0914508
0.0913938
0.0913465
0.0914888
0.0914285
0.0913763
0.0913327
0.0914609
0.091406
0.0913585
0.0913188
0.0914332
0.0913837
0.0913409
0.0913048
0.0914062
0.0913618
0.0913236
0.0912911
0.0913803
0.0913408
0.0913068
0.0912776
0.0913558
0.0913208
0.0912906
0.0912646
0.0913327
0.0913019
0.0912753
0.0912522
0.0913114
0.0912842
0.0912609
0.0912403
0.0912917
0.0912679
0.0912473
0.0912291
0.0912737
0.0912528
0.0912348
0.0912186
0.0912573
0.091239
0.0912232
0.0912088
0.0912426
0.0912264
0.0912125
0.0911997
0.0912293
0.091215
0.0912027
0.0911913
0.0912173
0.0912048
0.0911938
0.0911835
0.0912067
0.0911955
0.0911858
0.0911765
0.0911972
0.0911872
0.0911785
0.0911701
0.0911888
0.0911798
0.091172
0.0911643
0.0911814
0.0911733
0.0911661
0.091159
0.0911749
0.0911675
0.091161
0.0911544
0.0911694
0.0911625
0.0911564
0.0911502
0.0911647
0.0911582
0.0911525
0.0911466
0.0911608
0.0911546
0.091149
0.0911434
0.0911579
0.0911516
0.0911461
0.0911406
0.091156
0.0911491
0.0911434
0.0911378
0.091155
0.0911468
0.0911404
0.0911346
0.0911546
0.0911441
0.0911365
0.0911302
0.0911536
0.0911397
0.0911305
0.0911236
0.0911505
0.0911327
0.0911219
0.0911145
0.0911455
0.0911251
0.0911132
0.0911057
0.0914292
0.0913937
0.091368
0.0913456
0.0913238
0.0913021
0.0912805
0.0912597
0.0912401
0.0912219
0.0912053
0.0911902
0.0911767
0.0911645
0.0911536
0.0911439
0.0911354
0.0911279
0.0911216
0.0911167
0.0911141
0.0911153
0.0911239
0.0911468
0.0911974
0.0913009
0.091503
0.0918827
0.0925726
0.0937866
0.0958595
0.099307
0.104927
0.11399
0.128646
0.152815
0.19437
0.271166
0.433022
0.948952
0.0914199
0.0913839
0.0913579
0.0913353
0.0913136
0.0912921
0.0912709
0.0912506
0.0912315
0.0912139
0.0911979
0.0911833
0.0911702
0.0911585
0.0911481
0.0911388
0.0911305
0.0911234
0.0911173
0.0911128
0.0911104
0.0911119
0.0911207
0.0911437
0.0911946
0.0912985
0.091501
0.0918813
0.0925721
0.0937874
0.0958621
0.0993119
0.104935
0.114003
0.128665
0.152841
0.194407
0.27122
0.433093
0.948984
0.0914107
0.0913744
0.091348
0.0913253
0.0913037
0.0912823
0.0912616
0.0912417
0.0912231
0.0912061
0.0911905
0.0911765
0.0911639
0.0911526
0.0911425
0.0911336
0.0911257
0.0911189
0.0911131
0.0911088
0.0911067
0.0911084
0.0911174
0.0911407
0.0911918
0.091296
0.091499
0.09188
0.0925718
0.0937883
0.0958648
0.0993171
0.104943
0.114016
0.128683
0.152868
0.194444
0.271273
0.433161
0.949
0.0914019
0.0913653
0.0913386
0.0913157
0.0912941
0.0912729
0.0912525
0.0912331
0.091215
0.0911985
0.0911834
0.0911699
0.0911577
0.0911469
0.0911372
0.0911286
0.0911211
0.0911146
0.0911091
0.091105
0.0911031
0.091105
0.0911143
0.0911378
0.0911892
0.0912937
0.0914972
0.0918788
0.0925715
0.0937894
0.0958676
0.0993223
0.104952
0.114028
0.128701
0.152894
0.194482
0.271325
0.433227
0.948996
0.0913933
0.0913565
0.0913295
0.0913065
0.0912848
0.0912639
0.0912438
0.0912249
0.0912073
0.0911912
0.0911766
0.0911636
0.0911519
0.0911414
0.0911322
0.091124
0.0911168
0.0911105
0.0911053
0.0911015
0.0910998
0.0911019
0.0911114
0.0911351
0.0911868
0.0912917
0.0914955
0.0918778
0.0925714
0.0937905
0.0958706
0.0993277
0.10496
0.114041
0.12872
0.15292
0.194518
0.271375
0.433288
0.948971
0.0913848
0.0913479
0.0913207
0.0912975
0.091276
0.0912553
0.0912355
0.091217
0.0911999
0.0911843
0.0911702
0.0911576
0.0911464
0.0911364
0.0911275
0.0911196
0.0911127
0.0911067
0.0911018
0.0910982
0.0910967
0.0910991
0.0911087
0.0911327
0.0911846
0.0912898
0.0914941
0.091877
0.0925715
0.0937919
0.0958736
0.099333
0.104969
0.114054
0.128738
0.152945
0.194554
0.271424
0.433347
0.948925
0.0913763
0.0913395
0.0913121
0.0912888
0.0912674
0.0912469
0.0912276
0.0912095
0.0911929
0.0911778
0.0911642
0.0911521
0.0911412
0.0911316
0.0911231
0.0911156
0.091109
0.0911033
0.0910986
0.0910952
0.091094
0.0910965
0.0911063
0.0911305
0.0911827
0.0912882
0.0914929
0.0918764
0.0925717
0.0937933
0.0958767
0.0993384
0.104977
0.114066
0.128756
0.15297
0.194589
0.271471
0.433401
0.948859
0.0913676
0.091331
0.0913036
0.0912803
0.091259
0.0912389
0.0912199
0.0912023
0.0911862
0.0911716
0.0911585
0.0911468
0.0911364
0.0911272
0.091119
0.0911118
0.0911055
0.0911001
0.0910957
0.0910925
0.0910915
0.0910942
0.0911042
0.0911286
0.091181
0.0912868
0.0914919
0.091876
0.0925721
0.0937949
0.0958799
0.0993438
0.104985
0.114078
0.128773
0.152994
0.194622
0.271517
0.433452
0.948773
0.0913585
0.0913224
0.0912951
0.0912719
0.0912508
0.091231
0.0912125
0.0911954
0.0911798
0.0911657
0.0911531
0.0911419
0.0911319
0.0911231
0.0911152
0.0911084
0.0911023
0.0910972
0.091093
0.09109
0.0910892
0.0910921
0.0911023
0.0911269
0.0911795
0.0912856
0.0914911
0.0918757
0.0925727
0.0937965
0.0958831
0.0993492
0.104994
0.11409
0.12879
0.153018
0.194655
0.271561
0.433499
0.94867
0.0913491
0.0913137
0.0912865
0.0912635
0.0912427
0.0912233
0.0912053
0.0911887
0.0911736
0.0911601
0.091148
0.0911372
0.0911276
0.0911192
0.0911117
0.0911051
0.0910994
0.0910945
0.0910905
0.0910878
0.0910871
0.0910902
0.0911006
0.0911254
0.0911782
0.0912846
0.0914905
0.0918756
0.0925733
0.0937983
0.0958865
0.0993546
0.105002
0.114102
0.128807
0.153041
0.194687
0.271603
0.433541
0.948549
0.0913393
0.0913047
0.0912779
0.0912552
0.0912347
0.0912158
0.0911983
0.0911822
0.0911677
0.0911547
0.091143
0.0911327
0.0911236
0.0911155
0.0911084
0.0911021
0.0910967
0.091092
0.0910882
0.0910857
0.0910852
0.0910885
0.0910991
0.091124
0.0911771
0.0912837
0.09149
0.0918757
0.0925741
0.0938002
0.0958898
0.0993601
0.10501
0.114114
0.128823
0.153064
0.194719
0.271645
0.433582
0.948411
0.091329
0.0912955
0.0912693
0.0912469
0.0912268
0.0912084
0.0911914
0.0911759
0.091162
0.0911495
0.0911384
0.0911285
0.0911198
0.091112
0.0911053
0.0910993
0.0910941
0.0910897
0.0910862
0.0910838
0.0910835
0.091087
0.0910977
0.0911228
0.0911761
0.091283
0.0914896
0.0918758
0.092575
0.0938022
0.0958934
0.0993657
0.105018
0.114126
0.12884
0.153088
0.194752
0.271689
0.43363
0.948268
0.0913184
0.0912861
0.0912605
0.0912386
0.091219
0.0912011
0.0911847
0.0911699
0.0911565
0.0911445
0.0911339
0.0911245
0.0911161
0.0911088
0.0911023
0.0910967
0.0910917
0.0910876
0.0910842
0.0910821
0.091082
0.0910856
0.0910965
0.0911218
0.0911752
0.0912824
0.0914894
0.0918761
0.0925761
0.0938044
0.0958971
0.0993716
0.105027
0.114139
0.128859
0.153115
0.194791
0.271747
0.433698
0.948181
0.0913075
0.0912766
0.0912517
0.0912304
0.0912113
0.091194
0.0911782
0.091164
0.0911512
0.0911398
0.0911296
0.0911206
0.0911127
0.0911057
0.0910996
0.0910942
0.0910896
0.0910856
0.0910825
0.0910805
0.0910806
0.0910843
0.0910954
0.0911209
0.0911745
0.091282
0.0914893
0.0918766
0.0925774
0.0938069
0.0959013
0.099378
0.105037
0.114153
0.128879
0.153144
0.194832
0.271803
0.433765
0.948084
0.0912963
0.0912669
0.0912429
0.0912222
0.0912037
0.091187
0.0911719
0.0911583
0.0911461
0.0911352
0.0911256
0.091117
0.0911095
0.0911029
0.091097
0.0910919
0.0910875
0.0910838
0.0910809
0.0910791
0.0910793
0.0910832
0.0910944
0.0911201
0.091174
0.0912817
0.0914895
0.0918773
0.092579
0.0938096
0.0959057
0.0993848
0.105047
0.114167
0.128899
0.153172
0.194871
0.271858
0.433827
0.947971
0.091285
0.0912572
0.0912341
0.0912141
0.0911963
0.0911803
0.0911658
0.0911528
0.0911412
0.0911309
0.0911217
0.0911136
0.0911065
0.0911002
0.0910947
0.0910898
0.0910856
0.0910821
0.0910794
0.0910778
0.0910782
0.0910822
0.0910936
0.0911194
0.0911735
0.0912815
0.0914897
0.0918781
0.0925806
0.0938124
0.0959102
0.0993915
0.105057
0.114181
0.128918
0.153199
0.194909
0.271908
0.433882
0.947843
0.0912738
0.0912476
0.0912255
0.0912062
0.0911891
0.0911738
0.09116
0.0911476
0.0911366
0.0911268
0.0911181
0.0911104
0.0911036
0.0910977
0.0910924
0.0910879
0.0910839
0.0910806
0.091078
0.0910766
0.0910771
0.0910813
0.0910929
0.0911189
0.0911731
0.0912814
0.09149
0.091879
0.0925823
0.0938152
0.0959146
0.0993981
0.105066
0.114194
0.128937
0.153224
0.194944
0.271955
0.43393
0.9477
0.0912626
0.091238
0.091217
0.0911985
0.0911822
0.0911675
0.0911543
0.0911426
0.0911321
0.0911229
0.0911146
0.0911074
0.091101
0.0910953
0.0910904
0.0910861
0.0910823
0.0910792
0.0910768
0.0910755
0.0910762
0.0910806
0.0910922
0.0911184
0.0911728
0.0912814
0.0914903
0.0918798
0.0925839
0.0938179
0.0959188
0.0994043
0.105075
0.114207
0.128954
0.153248
0.194976
0.271997
0.433971
0.947544
0.0912517
0.0912286
0.0912086
0.091191
0.0911754
0.0911614
0.091149
0.0911378
0.0911279
0.0911192
0.0911114
0.0911046
0.0910985
0.0910932
0.0910885
0.0910844
0.0910808
0.0910779
0.0910757
0.0910746
0.0910754
0.0910799
0.0910916
0.0911179
0.0911726
0.0912813
0.0914906
0.0918806
0.0925854
0.0938205
0.0959227
0.0994101
0.105083
0.114218
0.128969
0.153269
0.195004
0.272035
0.434005
0.947377
0.091241
0.0912195
0.0912006
0.0911838
0.0911689
0.0911557
0.0911439
0.0911333
0.091124
0.0911157
0.0911084
0.0911019
0.0910962
0.0910911
0.0910867
0.0910828
0.0910795
0.0910767
0.0910747
0.0910737
0.0910746
0.0910792
0.0910911
0.0911176
0.0911724
0.0912814
0.0914909
0.0918814
0.0925868
0.0938228
0.0959263
0.0994154
0.105091
0.114228
0.128984
0.153288
0.19503
0.272068
0.434032
0.947199
0.0912307
0.0912107
0.0911928
0.0911769
0.0911628
0.0911502
0.091139
0.0911291
0.0911202
0.0911124
0.0911055
0.0910994
0.091094
0.0910893
0.0910851
0.0910814
0.0910783
0.0910757
0.0910738
0.0910729
0.0910739
0.0910787
0.0910907
0.0911172
0.0911722
0.0912814
0.0914913
0.0918821
0.0925881
0.093825
0.0959296
0.0994201
0.105097
0.114238
0.128996
0.153305
0.195052
0.272095
0.434052
0.947013
0.0912208
0.0912022
0.0911854
0.0911703
0.0911569
0.091145
0.0911344
0.091125
0.0911167
0.0911094
0.0911029
0.0910971
0.091092
0.0910875
0.0910836
0.0910801
0.0910771
0.0910747
0.0910729
0.0910722
0.0910733
0.0910782
0.0910903
0.091117
0.0911721
0.0912814
0.0914915
0.0918828
0.0925893
0.0938269
0.0959325
0.0994243
0.105103
0.114246
0.129007
0.153319
0.195071
0.272118
0.434064
0.94682
0.0912114
0.0911942
0.0911783
0.091164
0.0911513
0.0911401
0.0911301
0.0911213
0.0911135
0.0911065
0.0911004
0.091095
0.0910902
0.0910859
0.0910822
0.0910789
0.0910761
0.0910738
0.0910721
0.0910715
0.0910728
0.0910777
0.0910899
0.0911167
0.0911719
0.0912815
0.0914918
0.0918834
0.0925903
0.0938285
0.0959349
0.0994279
0.105108
0.114252
0.129016
0.153331
0.195086
0.272136
0.434069
0.946621
0.0912025
0.0911865
0.0911716
0.0911581
0.0911461
0.0911355
0.0911261
0.0911178
0.0911104
0.0911039
0.0910981
0.091093
0.0910884
0.0910844
0.0910809
0.0910778
0.0910751
0.091073
0.0910714
0.0910709
0.0910723
0.0910773
0.0910896
0.0911165
0.0911718
0.0912815
0.091492
0.0918839
0.0925912
0.0938299
0.095937
0.0994309
0.105112
0.114258
0.129023
0.15334
0.195098
0.272148
0.434068
0.946418
0.0911942
0.0911793
0.0911652
0.0911525
0.0911412
0.0911312
0.0911223
0.0911145
0.0911075
0.0911014
0.0910959
0.0910911
0.0910868
0.091083
0.0910797
0.0910768
0.0910743
0.0910722
0.0910708
0.0910704
0.0910718
0.0910769
0.0910893
0.0911163
0.0911717
0.0912815
0.0914922
0.0918842
0.0925919
0.093831
0.0959387
0.0994332
0.105115
0.114262
0.129028
0.153347
0.195106
0.272156
0.434059
0.946213
0.0911864
0.0911725
0.0911593
0.0911473
0.0911366
0.0911271
0.0911188
0.0911114
0.0911049
0.0910991
0.0910939
0.0910894
0.0910853
0.0910817
0.0910786
0.0910758
0.0910734
0.0910715
0.0910702
0.0910699
0.0910714
0.0910766
0.0910891
0.0911161
0.0911716
0.0912815
0.0914923
0.0918845
0.0925924
0.0938318
0.0959399
0.0994349
0.105118
0.114265
0.129032
0.153351
0.195111
0.272159
0.434044
0.946006
0.0911791
0.0911662
0.0911538
0.0911424
0.0911323
0.0911234
0.0911155
0.0911086
0.0911024
0.091097
0.0910921
0.0910878
0.091084
0.0910806
0.0910776
0.0910749
0.0910727
0.0910709
0.0910697
0.0910695
0.0910711
0.0910763
0.0910888
0.0911159
0.0911715
0.0912814
0.0914923
0.0918846
0.0925927
0.0938323
0.0959407
0.099436
0.105119
0.114267
0.129034
0.153353
0.195112
0.272156
0.434023
0.9458
0.0911724
0.0911604
0.0911487
0.0911379
0.0911284
0.09112
0.0911125
0.091106
0.0911002
0.091095
0.0910904
0.0910863
0.0910827
0.0910795
0.0910766
0.0910741
0.091072
0.0910703
0.0910692
0.091069
0.0910707
0.091076
0.0910886
0.0911157
0.0911713
0.0912813
0.0914923
0.0918847
0.0925928
0.0938325
0.095941
0.0994365
0.10512
0.114267
0.129034
0.153353
0.19511
0.272149
0.433996
0.945597
0.0911663
0.091155
0.0911439
0.0911338
0.0911247
0.0911168
0.0911098
0.0911036
0.0910981
0.0910932
0.0910888
0.091085
0.0910815
0.0910785
0.0910758
0.0910734
0.0910714
0.0910698
0.0910687
0.0910686
0.0910704
0.0910757
0.0910883
0.0911155
0.0911711
0.0912812
0.0914921
0.0918846
0.0925927
0.0938325
0.0959409
0.0994363
0.105119
0.114267
0.129033
0.15335
0.195104
0.272138
0.433963
0.945398
0.0911606
0.09115
0.0911396
0.09113
0.0911214
0.0911139
0.0911072
0.0911014
0.0910962
0.0910915
0.0910874
0.0910837
0.0910805
0.0910775
0.091075
0.0910727
0.0910708
0.0910693
0.0910683
0.0910683
0.09107
0.0910754
0.0910881
0.0911153
0.091171
0.091281
0.091492
0.0918844
0.0925925
0.0938321
0.0959404
0.0994355
0.105118
0.114265
0.12903
0.153345
0.195096
0.272122
0.433926
0.945204
0.0911555
0.0911455
0.0911356
0.0911265
0.0911184
0.0911112
0.0911049
0.0910993
0.0910944
0.09109
0.0910861
0.0910826
0.0910795
0.0910767
0.0910742
0.0910721
0.0910702
0.0910688
0.0910679
0.0910679
0.0910697
0.0910752
0.0910879
0.0911151
0.0911707
0.0912808
0.0914917
0.0918841
0.092592
0.0938315
0.0959395
0.0994342
0.105116
0.114262
0.129025
0.153338
0.195084
0.272102
0.433883
0.945017
0.0911508
0.0911414
0.091132
0.0911233
0.0911156
0.0911088
0.0911028
0.0910975
0.0910928
0.0910886
0.0910849
0.0910816
0.0910786
0.0910759
0.0910736
0.0910715
0.0910697
0.0910684
0.0910675
0.0910676
0.0910695
0.0910749
0.0910876
0.0911149
0.0911705
0.0912805
0.0914914
0.0918836
0.0925914
0.0938306
0.0959382
0.0994322
0.105113
0.114257
0.129019
0.153328
0.195069
0.272078
0.433836
0.944839
0.0911467
0.0911377
0.0911288
0.0911205
0.0911131
0.0911066
0.0911009
0.0910959
0.0910914
0.0910874
0.0910838
0.0910806
0.0910778
0.0910752
0.091073
0.091071
0.0910693
0.091068
0.0910672
0.0910673
0.0910692
0.0910747
0.0910874
0.0911146
0.0911703
0.0912802
0.091491
0.0918831
0.0925906
0.0938294
0.0959365
0.0994298
0.10511
0.114252
0.129011
0.153317
0.195052
0.27205
0.433785
0.944671
0.091143
0.0911344
0.0911259
0.091118
0.0911109
0.0911047
0.0910992
0.0910944
0.0910901
0.0910862
0.0910828
0.0910798
0.091077
0.0910746
0.0910724
0.0910705
0.0910689
0.0910676
0.0910668
0.091067
0.0910689
0.0910744
0.0910872
0.0911144
0.09117
0.0912799
0.0914906
0.0918824
0.0925897
0.093828
0.0959344
0.0994268
0.105105
0.114246
0.129002
0.153303
0.195032
0.272019
0.433732
0.944514
0.0911397
0.0911315
0.0911233
0.0911157
0.0911089
0.0911029
0.0910977
0.091093
0.0910889
0.0910852
0.0910819
0.091079
0.0910763
0.091074
0.0910719
0.0910701
0.0910685
0.0910673
0.0910665
0.0910667
0.0910687
0.0910742
0.091087
0.0911142
0.0911697
0.0912795
0.09149
0.0918817
0.0925886
0.0938264
0.095932
0.0994233
0.1051
0.114239
0.128992
0.153289
0.19501
0.271986
0.433676
0.944369
0.0911367
0.0911289
0.0911209
0.0911136
0.0911071
0.0911013
0.0910963
0.0910918
0.0910878
0.0910843
0.0910811
0.0910783
0.0910757
0.0910734
0.0910714
0.0910696
0.0910681
0.0910669
0.0910663
0.0910665
0.0910685
0.091074
0.0910867
0.0911139
0.0911694
0.0912791
0.0914895
0.0918809
0.0925874
0.0938246
0.0959294
0.0994194
0.105095
0.114231
0.128981
0.153272
0.194987
0.27195
0.433618
0.944237
0.0911341
0.0911264
0.0911188
0.0911117
0.0911054
0.0910998
0.091095
0.0910906
0.0910868
0.0910834
0.0910803
0.0910776
0.0910751
0.0910729
0.091071
0.0910693
0.0910678
0.0910666
0.091066
0.0910662
0.0910682
0.0910738
0.0910865
0.0911137
0.0911691
0.0912787
0.0914889
0.09188
0.092586
0.0938226
0.0959265
0.0994152
0.105089
0.114222
0.128969
0.153255
0.194962
0.271913
0.43356
0.944117
0.0911313
0.0911239
0.0911165
0.0911097
0.0911036
0.0910982
0.0910935
0.0910894
0.0910857
0.0910824
0.0910795
0.0910769
0.0910745
0.0910724
0.0910705
0.0910688
0.0910674
0.0910663
0.0910657
0.091066
0.091068
0.0910735
0.0910863
0.0911134
0.0911688
0.0912783
0.0914883
0.091879
0.0925846
0.0938205
0.0959233
0.0994108
0.105082
0.114213
0.128956
0.153238
0.194937
0.271876
0.433504
0.94401
0.0911281
0.0911209
0.0911137
0.0911072
0.0911014
0.0910963
0.0910918
0.0910879
0.0910844
0.0910812
0.0910784
0.0910759
0.0910737
0.0910716
0.0910698
0.0910683
0.0910669
0.0910659
0.0910653
0.0910656
0.0910677
0.0910733
0.091086
0.0911131
0.0911684
0.0912778
0.0914876
0.091878
0.0925831
0.0938183
0.0959201
0.0994061
0.105076
0.114204
0.128944
0.15322
0.194912
0.271841
0.433451
0.943912
0.0911237
0.0911167
0.0911099
0.0911037
0.0910982
0.0910935
0.0910893
0.0910857
0.0910824
0.0910795
0.0910769
0.0910746
0.0910725
0.0910706
0.0910689
0.0910674
0.0910662
0.0910652
0.0910648
0.0910651
0.0910672
0.0910729
0.0910856
0.0911127
0.091168
0.0912773
0.0914869
0.091877
0.0925816
0.093816
0.0959169
0.0994015
0.10507
0.114196
0.128932
0.153204
0.194891
0.271811
0.433406
0.943818
0.0911171
0.0911104
0.0911042
0.0910986
0.0910937
0.0910894
0.0910857
0.0910824
0.0910795
0.091077
0.0910746
0.0910726
0.0910707
0.091069
0.0910675
0.0910662
0.0910651
0.0910643
0.0910639
0.0910644
0.0910666
0.0910723
0.0910851
0.0911122
0.0911675
0.0912767
0.0914861
0.091876
0.0925801
0.0938138
0.0959137
0.0993971
0.105064
0.114188
0.128921
0.153191
0.194875
0.271793
0.433382
0.943715
0.0911081
0.0911021
0.0910966
0.0910918
0.0910876
0.091084
0.0910809
0.0910781
0.0910757
0.0910735
0.0910716
0.0910699
0.0910683
0.0910669
0.0910657
0.0910646
0.0910637
0.091063
0.0910628
0.0910634
0.0910657
0.0910715
0.0910844
0.0911116
0.0911669
0.091276
0.0914853
0.0918749
0.0925787
0.0938119
0.095911
0.0993933
0.105058
0.114181
0.128912
0.15318
0.194863
0.271785
0.433382
0.943578
0.0910997
0.0910943
0.0910896
0.0910855
0.091082
0.091079
0.0910764
0.0910741
0.0910721
0.0910704
0.0910688
0.0910674
0.0910661
0.0910649
0.0910639
0.091063
0.0910623
0.0910618
0.0910617
0.0910625
0.0910649
0.0910708
0.0910837
0.091111
0.0911663
0.0912755
0.0914847
0.0918742
0.0925777
0.0938106
0.0959091
0.0993907
0.105054
0.114175
0.128904
0.153168
0.194843
0.27175
0.433323
0.943476
)
;

boundaryField
{
    leftWall
    {
        type            epsilonWallFunction;
        value           nonuniform List<scalar> 0();
    }
    rightWall
    {
        type            epsilonWallFunction;
        value           nonuniform List<scalar> 
43
(
0.948952
0.948984
0.949
0.948996
0.948971
0.948925
0.948859
0.948773
0.94867
0.948549
0.948411
0.948268
0.948181
0.948084
0.947971
0.947843
0.9477
0.947544
0.947377
0.947199
0.947013
0.94682
0.946621
0.946418
0.946213
0.946006
0.9458
0.945597
0.945398
0.945204
0.945017
0.944839
0.944671
0.944514
0.944369
0.944237
0.944117
0.94401
0.943912
0.943818
0.943715
0.943578
0.943476
)
;
    }
    lowerWall
    {
        type            epsilonWallFunction;
        value           nonuniform List<scalar> 0();
    }
    atmosphere
    {
        type            inletOutlet;
        inletValue      uniform 0.1;
        value           nonuniform List<scalar> 
45
(
0.0911823
0.0911455
0.0911251
0.0911132
0.0911057
0.0910997
0.0910943
0.0910896
0.0910855
0.091082
0.091079
0.0910764
0.0910741
0.0910721
0.0910704
0.0910688
0.0910674
0.0910661
0.0910649
0.0910639
0.091063
0.0910623
0.0910618
0.0910617
0.0910625
0.0910649
0.0910708
0.0910837
0.091111
0.0911663
0.0912755
0.0914847
0.0918742
0.0925777
0.0938106
0.0959091
0.0993907
0.105054
0.114175
0.128904
0.153168
0.194843
0.27175
0.433323
0.943476
)
;
    }
    defaultFaces
    {
        type            empty;
    }
    procBoundary3to1
    {
        type            processor;
        value           nonuniform List<scalar> 
45
(
0.0917859
0.0917124
0.0916337
0.0915568
0.0914902
0.0914383
0.0914033
0.0913779
0.0913557
0.0913339
0.0913118
0.0912899
0.0912686
0.0912484
0.0912297
0.0912125
0.0911969
0.0911828
0.0911701
0.0911587
0.0911486
0.0911397
0.0911319
0.0911253
0.0911202
0.0911173
0.0911184
0.0911267
0.0911494
0.0911997
0.0913029
0.0915046
0.0918838
0.0925729
0.0937857
0.095857
0.0993023
0.104919
0.113979
0.128629
0.15279
0.194333
0.271113
0.432949
0.948897
)
;
    }
    procBoundary3to2
    {
        type            processor;
        value           nonuniform List<scalar> 
43
(
0.091855
0.0918576
0.0918598
0.0918614
0.0918612
0.0918585
0.0918525
0.0918421
0.0918269
0.0918064
0.0917807
0.0917503
0.0917157
0.0916782
0.0916386
0.0915982
0.0915578
0.0915183
0.0914805
0.0914448
0.0914116
0.091381
0.0913531
0.0913278
0.091305
0.0912846
0.0912664
0.0912503
0.091236
0.0912235
0.0912124
0.0912028
0.0911945
0.0911874
0.0911816
0.0911774
0.0911753
0.0911763
0.091182
0.0911943
0.0912135
0.0912357
0.0912506
)
;
    }
}


// ************************************************************************* //
