/*--------------------------------*- C++ -*----------------------------------*\
  =========                 |
  \\      /  F ield         | OpenFOAM: The Open Source CFD Toolbox
   \\    /   O peration     | Website:  https://openfoam.org
    \\  /    A nd           | Version:  9
     \\/     M anipulation  |
\*---------------------------------------------------------------------------*/
FoamFile
{
    format      ascii;
    class       volScalarField;
    location    "0.05";
    object      k;
}
// * * * * * * * * * * * * * * * * * * * * * * * * * * * * * * * * * * * * * //

dimensions      [0 2 -2 0 0 0 0];

internalField   nonuniform List<scalar> 
1935
(
0.0957762
0.0957762
0.095776
0.0957753
0.0957735
0.09577
0.0957644
0.0957563
0.0957454
0.0957315
0.0957149
0.0956956
0.0956741
0.095651
0.0956267
0.0956019
0.0955772
0.0955531
0.0955299
0.0955079
0.0954874
0.0954685
0.0954511
0.0954353
0.095421
0.0954081
0.0953967
0.0953864
0.0953773
0.0953693
0.0953622
0.095356
0.0953507
0.0953463
0.0953427
0.0953403
0.0953393
0.0953402
0.0953435
0.0953493
0.0953567
0.0953633
0.0953662
0.095722
0.0956667
0.0956136
0.0955675
0.0957193
0.0956625
0.0956084
0.0955617
0.0957167
0.0956583
0.0956033
0.0955562
0.0957135
0.0956537
0.0955981
0.0955507
0.0957095
0.0956486
0.0955926
0.0955452
0.0957042
0.0956426
0.0955866
0.0955394
0.0956973
0.0956355
0.0955798
0.0955331
0.0956885
0.0956271
0.0955722
0.0955264
0.0956778
0.0956172
0.0955636
0.095519
0.095665
0.095606
0.0955541
0.095511
0.0956501
0.0955933
0.0955436
0.0955024
0.0956335
0.0955793
0.0955322
0.0954932
0.0956152
0.0955643
0.0955201
0.0954834
0.0955959
0.0955484
0.0955075
0.0954733
0.0955758
0.0955321
0.0954945
0.095463
0.0955553
0.0955155
0.0954813
0.0954525
0.095535
0.0954991
0.0954681
0.095442
0.0955152
0.0954829
0.0954552
0.0954316
0.095496
0.0954674
0.0954427
0.0954215
0.0954779
0.0954525
0.0954306
0.0954117
0.0954609
0.0954385
0.0954192
0.0954024
0.0954451
0.0954254
0.0954084
0.0953935
0.0954305
0.0954133
0.0953983
0.0953851
0.0954172
0.0954021
0.095389
0.0953772
0.0954051
0.0953918
0.0953804
0.0953699
0.0953942
0.0953825
0.0953724
0.0953631
0.0953843
0.0953741
0.0953652
0.0953569
0.0953755
0.0953665
0.0953586
0.0953512
0.0953677
0.0953597
0.0953527
0.095346
0.0953607
0.0953536
0.0953473
0.0953413
0.0953545
0.0953481
0.0953425
0.095337
0.0953491
0.0953433
0.0953382
0.0953332
0.0953444
0.0953391
0.0953344
0.0953298
0.0953404
0.0953355
0.0953311
0.0953268
0.0953371
0.0953325
0.0953283
0.0953242
0.0953347
0.0953301
0.095326
0.0953219
0.0953332
0.0953283
0.0953241
0.09532
0.0953328
0.0953271
0.0953225
0.0953181
0.0953336
0.0953264
0.0953209
0.0953162
0.0953353
0.0953258
0.0953189
0.0953135
0.095337
0.0953243
0.0953158
0.0953096
0.0953373
0.0953213
0.0953111
0.0953042
0.0953357
0.0953175
0.0953063
0.095299
0.0955305
0.095504
0.0954841
0.095467
0.0954507
0.0954348
0.0954192
0.0954042
0.0953901
0.095377
0.095365
0.095354
0.0953442
0.0953353
0.0953273
0.0953202
0.0953138
0.0953081
0.0953029
0.0952981
0.0952935
0.0952888
0.0952834
0.0952764
0.0952661
0.09525
0.0952236
0.0951802
0.0951093
0.0949954
0.0948154
0.0945357
0.0941053
0.0934424
0.0924069
0.090735
0.0878767
0.0825227
0.0708901
0.0380205
0.0955244
0.0954974
0.0954773
0.09546
0.0954438
0.095428
0.0954127
0.0953981
0.0953843
0.0953716
0.09536
0.0953494
0.0953399
0.0953314
0.0953237
0.0953169
0.0953108
0.0953053
0.0953003
0.0952957
0.0952913
0.0952867
0.0952814
0.0952745
0.0952644
0.0952483
0.095222
0.0951786
0.0951078
0.0949938
0.0948138
0.0945341
0.0941035
0.0934405
0.0924047
0.0907325
0.0878736
0.0825186
0.070885
0.0380211
0.0955185
0.0954912
0.0954708
0.0954534
0.0954372
0.0954215
0.0954065
0.0953922
0.0953788
0.0953664
0.0953552
0.095345
0.0953358
0.0953276
0.0953202
0.0953137
0.0953078
0.0953025
0.0952978
0.0952934
0.0952891
0.0952847
0.0952795
0.0952727
0.0952627
0.0952467
0.0952204
0.0951771
0.0951062
0.0949923
0.0948122
0.0945324
0.0941018
0.0934386
0.0924026
0.09073
0.0878705
0.0825145
0.0708798
0.038021
0.0955128
0.0954852
0.0954646
0.095447
0.0954308
0.0954153
0.0954005
0.0953865
0.0953734
0.0953615
0.0953506
0.0953407
0.0953319
0.095324
0.0953169
0.0953106
0.095305
0.0952999
0.0952953
0.0952911
0.095287
0.0952827
0.0952777
0.095271
0.095261
0.0952451
0.0952189
0.0951756
0.0951048
0.0949908
0.0948108
0.0945309
0.0941001
0.0934368
0.0924006
0.0907275
0.0878674
0.0825105
0.0708746
0.0380204
0.0955072
0.0954794
0.0954585
0.0954408
0.0954246
0.0954093
0.0953947
0.095381
0.0953683
0.0953566
0.0953461
0.0953366
0.0953281
0.0953205
0.0953137
0.0953076
0.0953022
0.0952974
0.095293
0.095289
0.095285
0.0952809
0.095276
0.0952694
0.0952595
0.0952437
0.0952175
0.0951743
0.0951035
0.0949895
0.0948094
0.0945295
0.0940986
0.0934351
0.0923986
0.0907252
0.0878644
0.0825064
0.0708694
0.0380191
0.0955015
0.0954736
0.0954525
0.0954348
0.0954186
0.0954034
0.0953891
0.0953757
0.0953633
0.095352
0.0953418
0.0953326
0.0953244
0.0953171
0.0953106
0.0953048
0.0952997
0.095295
0.0952908
0.0952869
0.0952832
0.0952791
0.0952744
0.0952679
0.0952581
0.0952423
0.0952162
0.095173
0.0951022
0.0949882
0.0948081
0.0945281
0.0940972
0.0934335
0.0923968
0.0907229
0.0878614
0.0825025
0.0708641
0.0380171
0.0954956
0.0954677
0.0954466
0.0954288
0.0954127
0.0953977
0.0953836
0.0953705
0.0953585
0.0953475
0.0953377
0.0953289
0.095321
0.095314
0.0953077
0.0953022
0.0952972
0.0952928
0.0952888
0.095285
0.0952814
0.0952775
0.0952728
0.0952664
0.0952567
0.095241
0.095215
0.0951718
0.0951011
0.0949871
0.0948069
0.0945269
0.0940958
0.093432
0.092395
0.0907207
0.0878585
0.0824986
0.0708589
0.0380146
0.0954894
0.0954617
0.0954406
0.0954228
0.0954069
0.095392
0.0953782
0.0953655
0.0953538
0.0953432
0.0953337
0.0953252
0.0953176
0.0953109
0.0953049
0.0952996
0.0952949
0.0952906
0.0952868
0.0952832
0.0952797
0.0952759
0.0952714
0.0952651
0.0952555
0.0952399
0.0952139
0.0951708
0.0951
0.094986
0.0948059
0.0945258
0.0940946
0.0934306
0.0923933
0.0907185
0.0878557
0.0824947
0.0708538
0.0380115
0.0954828
0.0954555
0.0954345
0.0954169
0.0954011
0.0953865
0.095373
0.0953606
0.0953493
0.0953391
0.0953299
0.0953217
0.0953145
0.095308
0.0953023
0.0952972
0.0952927
0.0952886
0.0952849
0.0952815
0.0952781
0.0952745
0.0952701
0.0952639
0.0952543
0.0952388
0.0952129
0.0951698
0.0950991
0.0949851
0.0948049
0.0945248
0.0940935
0.0934293
0.0923917
0.0907165
0.087853
0.0824909
0.0708487
0.0380078
0.0954759
0.0954491
0.0954284
0.0954109
0.0953953
0.095381
0.0953679
0.0953559
0.0953449
0.0953351
0.0953263
0.0953184
0.0953114
0.0953053
0.0952998
0.0952949
0.0952906
0.0952867
0.0952832
0.0952799
0.0952767
0.0952732
0.0952688
0.0952627
0.0952533
0.0952378
0.095212
0.0951689
0.0950982
0.0949842
0.094804
0.0945238
0.0940925
0.0934281
0.0923902
0.0907145
0.0878503
0.0824872
0.0708436
0.0380036
0.0954686
0.0954425
0.0954221
0.0954049
0.0953896
0.0953756
0.0953629
0.0953512
0.0953407
0.0953312
0.0953228
0.0953152
0.0953085
0.0953026
0.0952974
0.0952928
0.0952886
0.095285
0.0952816
0.0952785
0.0952754
0.095272
0.0952677
0.0952617
0.0952523
0.0952369
0.0952111
0.0951681
0.0950974
0.0949835
0.0948033
0.094523
0.0940915
0.093427
0.0923888
0.0907126
0.0878476
0.0824835
0.0708385
0.0379989
0.0954609
0.0954357
0.0954157
0.0953989
0.0953839
0.0953703
0.095358
0.0953467
0.0953366
0.0953275
0.0953194
0.0953122
0.0953058
0.0953001
0.0952952
0.0952907
0.0952868
0.0952833
0.0952801
0.0952771
0.0952741
0.0952708
0.0952667
0.0952608
0.0952515
0.0952361
0.0952104
0.0951674
0.0950967
0.0949828
0.0948026
0.0945223
0.0940907
0.0934259
0.0923874
0.0907106
0.0878449
0.0824796
0.0708328
0.0379942
0.0954529
0.0954287
0.0954093
0.0953928
0.0953783
0.0953651
0.0953531
0.0953423
0.0953326
0.0953239
0.0953161
0.0953093
0.0953032
0.0952978
0.095293
0.0952888
0.0952851
0.0952818
0.0952787
0.0952759
0.095273
0.0952698
0.0952658
0.0952599
0.0952507
0.0952354
0.0952097
0.0951668
0.0950961
0.0949822
0.0948019
0.0945216
0.0940899
0.0934249
0.0923859
0.0907086
0.0878418
0.0824749
0.0708262
0.0379912
0.0954447
0.0954215
0.0954028
0.0953868
0.0953727
0.09536
0.0953485
0.0953381
0.0953288
0.0953204
0.095313
0.0953065
0.0953007
0.0952956
0.0952911
0.0952871
0.0952835
0.0952804
0.0952775
0.0952747
0.095272
0.0952689
0.0952649
0.0952592
0.09525
0.0952348
0.0952091
0.0951662
0.0950956
0.0949817
0.0948014
0.0945209
0.0940891
0.0934239
0.0923845
0.0907065
0.0878386
0.0824703
0.0708198
0.0379879
0.0954363
0.0954143
0.0953963
0.0953808
0.0953672
0.0953549
0.0953439
0.095334
0.0953251
0.0953171
0.0953101
0.0953039
0.0952984
0.0952935
0.0952892
0.0952854
0.095282
0.095279
0.0952763
0.0952737
0.0952711
0.0952681
0.0952642
0.0952585
0.0952494
0.0952342
0.0952086
0.0951657
0.0950951
0.0949812
0.0948009
0.0945204
0.0940883
0.0934229
0.0923831
0.0907044
0.0878356
0.0824658
0.0708135
0.0379842
0.0954277
0.095407
0.0953898
0.0953749
0.0953618
0.0953501
0.0953395
0.09533
0.0953215
0.095314
0.0953073
0.0953014
0.0952962
0.0952916
0.0952875
0.0952839
0.0952807
0.0952778
0.0952752
0.0952727
0.0952702
0.0952673
0.0952635
0.0952579
0.0952489
0.0952337
0.0952082
0.0951653
0.0950947
0.0949808
0.0948004
0.0945198
0.0940877
0.0934219
0.0923817
0.0907024
0.0878327
0.0824615
0.0708075
0.0379799
0.0954192
0.0953998
0.0953834
0.0953691
0.0953566
0.0953453
0.0953352
0.0953262
0.0953182
0.095311
0.0953047
0.0952991
0.0952941
0.0952897
0.0952859
0.0952825
0.0952794
0.0952767
0.0952742
0.0952719
0.0952695
0.0952667
0.0952629
0.0952574
0.0952484
0.0952333
0.0952078
0.095165
0.0950944
0.0949804
0.0948001
0.0945194
0.0940871
0.0934211
0.0923805
0.0907006
0.0878299
0.0824574
0.0708019
0.0379753
0.0954108
0.0953926
0.0953771
0.0953635
0.0953515
0.0953407
0.0953311
0.0953226
0.095315
0.0953082
0.0953022
0.0952969
0.0952922
0.095288
0.0952844
0.0952811
0.0952783
0.0952757
0.0952733
0.0952711
0.0952688
0.0952661
0.0952624
0.0952569
0.095248
0.095233
0.0952075
0.0951647
0.0950941
0.0949801
0.0947997
0.094519
0.0940866
0.0934203
0.0923794
0.0906988
0.0878273
0.0824536
0.0707965
0.0379703
0.0954025
0.0953856
0.0953709
0.095358
0.0953465
0.0953363
0.0953272
0.0953191
0.0953119
0.0953055
0.0952998
0.0952948
0.0952904
0.0952864
0.095283
0.0952799
0.0952772
0.0952748
0.0952725
0.0952704
0.0952681
0.0952655
0.095262
0.0952565
0.0952476
0.0952326
0.0952072
0.0951644
0.0950939
0.0949799
0.0947995
0.0945187
0.0940861
0.0934197
0.0923783
0.0906973
0.0878249
0.0824501
0.0707915
0.0379649
0.0953945
0.0953788
0.0953649
0.0953527
0.0953418
0.0953321
0.0953235
0.0953158
0.095309
0.095303
0.0952976
0.0952929
0.0952887
0.095285
0.0952817
0.0952788
0.0952762
0.0952739
0.0952718
0.0952697
0.0952676
0.095265
0.0952615
0.0952562
0.0952473
0.0952324
0.095207
0.0951642
0.0950937
0.0949797
0.0947993
0.0945185
0.0940858
0.0934191
0.0923774
0.0906958
0.0878228
0.0824469
0.0707869
0.0379593
0.0953867
0.0953722
0.0953592
0.0953476
0.0953373
0.0953281
0.09532
0.0953127
0.0953063
0.0953006
0.0952955
0.095291
0.0952871
0.0952836
0.0952805
0.0952778
0.0952753
0.0952731
0.0952711
0.0952692
0.0952671
0.0952646
0.0952612
0.0952559
0.0952471
0.0952322
0.0952068
0.0951641
0.0950936
0.0949796
0.0947992
0.0945183
0.0940855
0.0934186
0.0923766
0.0906946
0.0878208
0.082444
0.0707827
0.0379534
0.0953793
0.0953658
0.0953537
0.0953427
0.095333
0.0953243
0.0953166
0.0953098
0.0953037
0.0952983
0.0952936
0.0952894
0.0952856
0.0952823
0.0952794
0.0952768
0.0952745
0.0952724
0.0952705
0.0952686
0.0952666
0.0952642
0.0952609
0.0952556
0.0952469
0.095232
0.0952066
0.095164
0.0950935
0.0949795
0.0947991
0.0945181
0.0940853
0.0934182
0.0923759
0.0906934
0.0878191
0.0824414
0.070779
0.0379472
0.0953723
0.0953598
0.0953484
0.0953381
0.0953289
0.0953208
0.0953135
0.095307
0.0953013
0.0952963
0.0952918
0.0952878
0.0952843
0.0952811
0.0952784
0.0952759
0.0952737
0.0952718
0.0952699
0.0952682
0.0952662
0.0952639
0.0952606
0.0952554
0.0952467
0.0952318
0.0952065
0.0951639
0.0950934
0.0949795
0.094799
0.0945181
0.0940851
0.0934179
0.0923754
0.0906925
0.0878175
0.0824391
0.0707757
0.037941
0.0953656
0.0953541
0.0953434
0.0953338
0.0953251
0.0953174
0.0953106
0.0953045
0.0952991
0.0952943
0.0952901
0.0952863
0.095283
0.09528
0.0952774
0.0952751
0.095273
0.0952712
0.0952694
0.0952677
0.0952659
0.0952636
0.0952603
0.0952552
0.0952465
0.0952317
0.0952064
0.0951638
0.0950934
0.0949795
0.094799
0.094518
0.094085
0.0934177
0.0923749
0.0906916
0.0878162
0.0824372
0.0707728
0.0379346
0.0953594
0.0953488
0.0953388
0.0953297
0.0953215
0.0953142
0.0953078
0.0953021
0.095297
0.0952925
0.0952885
0.095285
0.0952818
0.095279
0.0952766
0.0952744
0.0952724
0.0952706
0.095269
0.0952673
0.0952655
0.0952633
0.0952601
0.095255
0.0952464
0.0952316
0.0952064
0.0951638
0.0950934
0.0949795
0.094799
0.094518
0.0940849
0.0934175
0.0923745
0.090691
0.0878151
0.0824356
0.0707704
0.0379282
0.0953536
0.0953438
0.0953344
0.0953258
0.0953181
0.0953113
0.0953052
0.0952998
0.0952951
0.0952908
0.095287
0.0952837
0.0952807
0.0952781
0.0952758
0.0952737
0.0952718
0.0952701
0.0952685
0.095267
0.0952652
0.0952631
0.0952599
0.0952548
0.0952462
0.0952315
0.0952063
0.0951637
0.0950934
0.0949795
0.0947991
0.094518
0.0940849
0.0934174
0.0923742
0.0906904
0.0878143
0.0824343
0.0707684
0.0379217
0.0953483
0.0953391
0.0953304
0.0953223
0.095315
0.0953086
0.0953028
0.0952978
0.0952933
0.0952893
0.0952857
0.0952825
0.0952797
0.0952772
0.095275
0.095273
0.0952713
0.0952697
0.0952681
0.0952666
0.095265
0.0952628
0.0952597
0.0952547
0.0952461
0.0952314
0.0952062
0.0951637
0.0950934
0.0949795
0.0947991
0.0945181
0.0940849
0.0934173
0.092374
0.09069
0.0878136
0.0824334
0.0707669
0.0379153
0.0953433
0.0953348
0.0953266
0.095319
0.0953121
0.095306
0.0953006
0.0952959
0.0952916
0.0952878
0.0952845
0.0952815
0.0952788
0.0952764
0.0952743
0.0952724
0.0952708
0.0952692
0.0952678
0.0952663
0.0952647
0.0952626
0.0952595
0.0952545
0.095246
0.0952313
0.0952062
0.0951637
0.0950934
0.0949796
0.0947992
0.0945182
0.094085
0.0934173
0.0923739
0.0906898
0.0878132
0.0824327
0.0707658
0.037909
0.0953388
0.0953308
0.0953231
0.0953159
0.0953095
0.0953037
0.0952986
0.0952941
0.0952901
0.0952865
0.0952833
0.0952805
0.095278
0.0952757
0.0952737
0.0952719
0.0952703
0.0952688
0.0952674
0.095266
0.0952645
0.0952624
0.0952594
0.0952544
0.0952459
0.0952313
0.0952061
0.0951637
0.0950934
0.0949796
0.0947993
0.0945183
0.0940851
0.0934174
0.0923739
0.0906896
0.087813
0.0824324
0.0707653
0.0379028
0.0953346
0.0953272
0.0953199
0.0953131
0.095307
0.0953016
0.0952968
0.0952925
0.0952887
0.0952853
0.0952823
0.0952796
0.0952772
0.095275
0.0952731
0.0952714
0.0952699
0.0952685
0.0952671
0.0952658
0.0952642
0.0952622
0.0952592
0.0952543
0.0952458
0.0952312
0.0952061
0.0951637
0.0950934
0.0949797
0.0947994
0.0945184
0.0940852
0.0934175
0.092374
0.0906897
0.0878129
0.0824325
0.0707651
0.0378968
0.0953308
0.0953239
0.095317
0.0953106
0.0953048
0.0952996
0.0952951
0.095291
0.0952874
0.0952842
0.0952813
0.0952787
0.0952764
0.0952744
0.0952726
0.0952709
0.0952695
0.0952681
0.0952668
0.0952655
0.095264
0.095262
0.095259
0.0952541
0.0952457
0.0952311
0.0952061
0.0951637
0.0950935
0.0949797
0.0947995
0.0945186
0.0940854
0.0934177
0.0923741
0.0906898
0.0878131
0.0824328
0.0707655
0.0378911
0.0953274
0.0953209
0.0953144
0.0953083
0.0953028
0.0952979
0.0952935
0.0952897
0.0952862
0.0952832
0.0952804
0.095278
0.0952758
0.0952738
0.0952721
0.0952705
0.0952691
0.0952678
0.0952666
0.0952653
0.0952638
0.0952619
0.0952589
0.095254
0.0952456
0.0952311
0.095206
0.0951636
0.0950935
0.0949798
0.0947996
0.0945187
0.0940856
0.0934179
0.0923744
0.0906901
0.0878135
0.0824334
0.0707662
0.0378856
0.0953244
0.0953182
0.095312
0.0953062
0.0953009
0.0952963
0.0952921
0.0952884
0.0952852
0.0952822
0.0952796
0.0952773
0.0952752
0.0952733
0.0952716
0.0952701
0.0952688
0.0952675
0.0952663
0.0952651
0.0952636
0.0952617
0.0952588
0.0952539
0.0952455
0.095231
0.095206
0.0951636
0.0950935
0.0949799
0.0947997
0.0945189
0.0940858
0.0934182
0.0923747
0.0906905
0.0878141
0.0824344
0.0707674
0.0378804
0.0953217
0.0953158
0.0953099
0.0953043
0.0952993
0.0952948
0.0952909
0.0952873
0.0952842
0.0952814
0.0952789
0.0952767
0.0952746
0.0952728
0.0952712
0.0952698
0.0952685
0.0952673
0.0952661
0.0952649
0.0952635
0.0952616
0.0952586
0.0952538
0.0952454
0.0952309
0.0952059
0.0951636
0.0950935
0.09498
0.0947998
0.0945191
0.0940861
0.0934185
0.0923751
0.090691
0.0878149
0.0824356
0.070769
0.0378757
0.0953193
0.0953137
0.095308
0.0953027
0.0952978
0.0952935
0.0952897
0.0952864
0.0952833
0.0952807
0.0952782
0.0952761
0.0952742
0.0952724
0.0952709
0.0952695
0.0952682
0.095267
0.0952659
0.0952647
0.0952633
0.0952614
0.0952585
0.0952537
0.0952453
0.0952308
0.0952059
0.0951636
0.0950936
0.0949801
0.0948
0.0945193
0.0940864
0.0934189
0.0923755
0.0906916
0.0878158
0.082437
0.0707709
0.0378712
0.0953172
0.0953118
0.0953063
0.0953011
0.0952965
0.0952924
0.0952887
0.0952854
0.0952825
0.09528
0.0952776
0.0952756
0.0952737
0.095272
0.0952705
0.0952692
0.0952679
0.0952668
0.0952657
0.0952645
0.0952632
0.0952613
0.0952584
0.0952536
0.0952453
0.0952308
0.0952058
0.0951636
0.0950936
0.0949801
0.0948001
0.0945195
0.0940867
0.0934193
0.092376
0.0906923
0.0878168
0.0824386
0.0707731
0.0378672
0.0953153
0.09531
0.0953047
0.0952997
0.0952952
0.0952912
0.0952877
0.0952846
0.0952818
0.0952793
0.095277
0.095275
0.0952732
0.0952716
0.0952702
0.0952689
0.0952677
0.0952666
0.0952655
0.0952643
0.095263
0.0952611
0.0952583
0.0952535
0.0952452
0.0952307
0.0952058
0.0951636
0.0950936
0.0949802
0.0948003
0.0945198
0.094087
0.0934197
0.0923766
0.090693
0.0878179
0.0824404
0.0707755
0.0378636
0.0953134
0.0953082
0.095303
0.0952982
0.0952939
0.09529
0.0952866
0.0952836
0.0952809
0.0952785
0.0952764
0.0952745
0.0952727
0.0952712
0.0952698
0.0952685
0.0952674
0.0952663
0.0952653
0.0952642
0.0952628
0.095261
0.0952581
0.0952534
0.0952451
0.0952307
0.0952058
0.0951636
0.0950937
0.0949803
0.0948005
0.09452
0.0940873
0.0934201
0.0923771
0.0906938
0.0878191
0.0824422
0.070778
0.0378604
0.0953113
0.095306
0.095301
0.0952963
0.0952922
0.0952885
0.0952853
0.0952824
0.0952799
0.0952776
0.0952756
0.0952738
0.0952721
0.0952706
0.0952693
0.0952681
0.095267
0.095266
0.095265
0.0952639
0.0952626
0.0952608
0.095258
0.0952532
0.095245
0.0952306
0.0952057
0.0951636
0.0950937
0.0949804
0.0948006
0.0945202
0.0940876
0.0934205
0.0923776
0.0906945
0.0878201
0.0824438
0.0707803
0.0378574
0.0953084
0.0953031
0.0952982
0.0952938
0.0952899
0.0952865
0.0952835
0.0952808
0.0952785
0.0952763
0.0952745
0.0952728
0.0952712
0.0952699
0.0952686
0.0952675
0.0952665
0.0952655
0.0952646
0.0952635
0.0952623
0.0952605
0.0952578
0.095253
0.0952448
0.0952304
0.0952056
0.0951636
0.0950937
0.0949805
0.0948008
0.0945205
0.0940879
0.0934208
0.0923781
0.090695
0.0878209
0.082445
0.070782
0.0378546
0.0953042
0.095299
0.0952944
0.0952903
0.0952867
0.0952836
0.0952809
0.0952786
0.0952764
0.0952746
0.0952729
0.0952714
0.09527
0.0952688
0.0952677
0.0952667
0.0952657
0.0952649
0.095264
0.0952631
0.0952619
0.0952602
0.0952574
0.0952528
0.0952446
0.0952303
0.0952055
0.0951635
0.0950937
0.0949806
0.0948009
0.0945206
0.0940881
0.0934211
0.0923784
0.0906954
0.0878212
0.0824454
0.0707821
0.0378513
0.0952986
0.0952937
0.0952895
0.0952858
0.0952827
0.0952801
0.0952777
0.0952757
0.0952739
0.0952723
0.0952709
0.0952696
0.0952684
0.0952674
0.0952664
0.0952656
0.0952648
0.095264
0.0952632
0.0952624
0.0952613
0.0952597
0.095257
0.0952524
0.0952443
0.09523
0.0952053
0.0951633
0.0950936
0.0949805
0.0948009
0.0945207
0.0940883
0.0934213
0.0923786
0.0906956
0.0878214
0.0824452
0.0707805
0.037847
0.0952935
0.0952889
0.0952851
0.0952819
0.0952792
0.0952769
0.0952749
0.0952731
0.0952716
0.0952703
0.0952691
0.095268
0.095267
0.0952661
0.0952653
0.0952646
0.0952639
0.0952632
0.0952626
0.0952618
0.0952608
0.0952592
0.0952566
0.0952521
0.095244
0.0952298
0.0952051
0.0951632
0.0950935
0.0949804
0.0948008
0.0945207
0.0940883
0.0934214
0.0923788
0.0906959
0.087822
0.0824464
0.0707829
0.0378438
)
;

boundaryField
{
    leftWall
    {
        type            kqRWallFunction;
        value           nonuniform List<scalar> 0();
    }
    rightWall
    {
        type            kqRWallFunction;
        value           nonuniform List<scalar> 
43
(
0.0380205
0.0380211
0.038021
0.0380204
0.0380191
0.0380171
0.0380146
0.0380115
0.0380078
0.0380036
0.0379989
0.0379942
0.0379912
0.0379879
0.0379842
0.0379799
0.0379753
0.0379703
0.0379649
0.0379593
0.0379534
0.0379472
0.037941
0.0379346
0.0379282
0.0379217
0.0379153
0.037909
0.0379028
0.0378968
0.0378911
0.0378856
0.0378804
0.0378757
0.0378712
0.0378672
0.0378636
0.0378604
0.0378574
0.0378546
0.0378513
0.037847
0.0378438
)
;
    }
    lowerWall
    {
        type            kqRWallFunction;
        value           nonuniform List<scalar> 0();
    }
    atmosphere
    {
        type            inletOutlet;
        inletValue      uniform 0.1;
        value           nonuniform List<scalar> 
45
(
0.0953662
0.0953357
0.0953175
0.0953063
0.095299
0.0952935
0.0952889
0.0952851
0.0952819
0.0952792
0.0952769
0.0952749
0.0952731
0.0952716
0.0952703
0.0952691
0.095268
0.095267
0.0952661
0.0952653
0.0952646
0.0952639
0.0952632
0.0952626
0.0952618
0.0952608
0.0952592
0.0952566
0.0952521
0.095244
0.0952298
0.0952051
0.0951632
0.0950935
0.0949804
0.0948008
0.0945207
0.0940883
0.0934214
0.0923788
0.0906959
0.087822
0.0824464
0.0707829
0.0378438
)
;
    }
    defaultFaces
    {
        type            empty;
    }
    procBoundary3to1
    {
        type            processor;
        value           nonuniform List<scalar> 
45
(
0.095776
0.0957247
0.0956711
0.095619
0.0955736
0.0955371
0.095511
0.0954914
0.0954743
0.095458
0.0954418
0.095426
0.0954107
0.0953962
0.0953826
0.0953702
0.0953589
0.0953486
0.0953393
0.095331
0.0953236
0.095317
0.095311
0.0953056
0.0953006
0.0952959
0.095291
0.0952855
0.0952784
0.095268
0.0952518
0.0952253
0.0951819
0.095111
0.094997
0.0948171
0.0945375
0.0941071
0.0934444
0.0924091
0.0907375
0.0878798
0.0825267
0.0708952
0.0380195
)
;
    }
    procBoundary3to2
    {
        type            processor;
        value           nonuniform List<scalar> 
43
(
0.0958279
0.0958319
0.0958358
0.0958392
0.0958411
0.0958409
0.095838
0.0958318
0.0958218
0.0958077
0.0957896
0.0957678
0.0957429
0.0957155
0.0956865
0.0956567
0.0956269
0.0955977
0.0955697
0.0955433
0.0955186
0.0954959
0.0954753
0.0954565
0.0954397
0.0954246
0.0954112
0.0953993
0.0953888
0.0953795
0.0953714
0.0953644
0.0953584
0.0953534
0.0953496
0.0953473
0.0953471
0.09535
0.0953572
0.09537
0.0953877
0.0954066
0.0954188
)
;
    }
}


// ************************************************************************* //
