/*--------------------------------*- C++ -*----------------------------------*\
  =========                 |
  \\      /  F ield         | OpenFOAM: The Open Source CFD Toolbox
   \\    /   O peration     | Website:  https://openfoam.org
    \\  /    A nd           | Version:  9
     \\/     M anipulation  |
\*---------------------------------------------------------------------------*/
FoamFile
{
    format      ascii;
    class       volScalarField;
    location    "0.05";
    object      nut;
}
// * * * * * * * * * * * * * * * * * * * * * * * * * * * * * * * * * * * * * //

dimensions      [0 2 -1 0 0 0 0];

internalField   nonuniform List<scalar> 
1935
(
0.00899465
0.00899491
0.0089952
0.00899544
0.0089956
0.00899564
0.00899554
0.00899527
0.00899483
0.0089942
0.0089934
0.00899243
0.00899133
0.00899011
0.00898882
0.00898748
0.00898614
0.00898482
0.00898355
0.00898234
0.00898121
0.00898016
0.0089792
0.00897833
0.00897754
0.00897684
0.00897621
0.00897564
0.00897514
0.00897471
0.00897432
0.00897399
0.00897371
0.00897349
0.00897334
0.00897328
0.00897336
0.00897361
0.00897408
0.00897477
0.00897559
0.00897635
0.00897679
0.00899204
0.00898958
0.00898728
0.00898523
0.00899211
0.00898953
0.00898713
0.00898503
0.00899222
0.0089895
0.00898703
0.00898486
0.0089923
0.00898947
0.00898691
0.0089847
0.00899231
0.00898938
0.00898676
0.00898451
0.00899222
0.00898922
0.00898656
0.00898429
0.00899202
0.00898897
0.0089863
0.00898402
0.0089917
0.00898863
0.00898596
0.0089837
0.00899124
0.00898819
0.00898555
0.00898332
0.00899065
0.00898765
0.00898507
0.0089829
0.00898993
0.00898702
0.00898452
0.00898243
0.00898909
0.0089863
0.00898392
0.00898192
0.00898816
0.00898551
0.00898326
0.00898137
0.00898714
0.00898467
0.00898257
0.00898079
0.00898607
0.00898379
0.00898184
0.0089802
0.00898497
0.00898289
0.00898111
0.0089796
0.00898387
0.00898198
0.00898037
0.00897899
0.00898279
0.00898109
0.00897964
0.0089784
0.00898174
0.00898023
0.00897893
0.00897781
0.00898074
0.00897941
0.00897825
0.00897725
0.00897981
0.00897863
0.00897761
0.00897672
0.00897893
0.0089779
0.008977
0.00897621
0.00897813
0.00897722
0.00897644
0.00897574
0.00897739
0.0089766
0.00897591
0.00897529
0.00897673
0.00897604
0.00897543
0.00897488
0.00897612
0.00897552
0.00897499
0.0089745
0.00897558
0.00897505
0.00897459
0.00897416
0.0089751
0.00897464
0.00897423
0.00897384
0.00897467
0.00897426
0.0089739
0.00897356
0.00897428
0.00897393
0.0089736
0.0089733
0.00897395
0.00897363
0.00897334
0.00897307
0.00897365
0.00897337
0.00897311
0.00897286
0.00897341
0.00897315
0.00897291
0.00897268
0.0089732
0.00897296
0.00897274
0.00897252
0.00897305
0.00897281
0.0089726
0.00897239
0.00897297
0.00897271
0.00897249
0.00897228
0.00897297
0.00897267
0.00897242
0.00897219
0.00897309
0.0089727
0.00897239
0.00897212
0.00897333
0.00897279
0.00897239
0.00897207
0.00897369
0.00897294
0.0089724
0.008972
0.00897411
0.0089731
0.00897241
0.00897191
0.00897447
0.00897322
0.00897237
0.00897179
0.00897466
0.00897326
0.00897232
0.00897169
0.00898342
0.00898193
0.00898072
0.00897969
0.00897877
0.00897791
0.0089771
0.00897633
0.0089756
0.00897492
0.00897429
0.00897372
0.00897319
0.00897272
0.00897229
0.00897191
0.00897155
0.00897121
0.00897085
0.00897043
0.00896982
0.00896881
0.00896695
0.00896338
0.00895648
0.00894329
0.0089186
0.00887365
0.0087944
0.00865978
0.00844045
0.00809944
0.007596
0.00689385
0.00597384
0.00484871
0.00357571
0.00226023
0.00104449
0.000137099
0.00898318
0.00898165
0.00898043
0.00897939
0.00897847
0.00897762
0.00897682
0.00897606
0.00897535
0.0089747
0.00897409
0.00897353
0.00897303
0.00897257
0.00897216
0.00897179
0.00897145
0.00897112
0.00897077
0.00897036
0.00896976
0.00896876
0.0089669
0.00896333
0.00895642
0.00894321
0.00891849
0.00887348
0.00879415
0.00865941
0.00843993
0.00809875
0.00759512
0.00689282
0.00597272
0.00484761
0.00357477
0.00225957
0.00104417
0.000137098
0.00898297
0.00898141
0.00898017
0.00897912
0.0089782
0.00897736
0.00897657
0.00897583
0.00897514
0.00897449
0.00897391
0.00897337
0.00897288
0.00897245
0.00897205
0.00897169
0.00897136
0.00897105
0.00897071
0.00897031
0.00896972
0.00896872
0.00896686
0.00896329
0.00895637
0.00894314
0.00891839
0.00887333
0.00879391
0.00865905
0.00843941
0.00809805
0.00759424
0.00689178
0.00597159
0.00484651
0.00357382
0.0022589
0.00104385
0.000137096
0.00898277
0.00898118
0.00897992
0.00897887
0.00897795
0.00897711
0.00897633
0.0089756
0.00897493
0.0089743
0.00897373
0.00897321
0.00897275
0.00897232
0.00897194
0.0089716
0.00897128
0.00897098
0.00897065
0.00897026
0.00896968
0.00896868
0.00896683
0.00896325
0.00895632
0.00894308
0.00891829
0.00887317
0.00879367
0.00865869
0.0084389
0.00809736
0.00759336
0.00689074
0.00597047
0.00484541
0.00357289
0.00225825
0.00104354
0.000137092
0.00898256
0.00898095
0.00897968
0.00897862
0.00897769
0.00897686
0.00897609
0.00897538
0.00897472
0.00897411
0.00897356
0.00897306
0.00897261
0.0089722
0.00897184
0.00897151
0.0089712
0.00897091
0.00897059
0.00897021
0.00896963
0.00896864
0.00896679
0.00896321
0.00895627
0.00894301
0.00891819
0.00887301
0.00879343
0.00865834
0.0084384
0.00809668
0.0075925
0.00688972
0.00596936
0.00484434
0.00357197
0.00225761
0.00104324
0.000137086
0.00898232
0.0089807
0.00897942
0.00897835
0.00897743
0.00897661
0.00897585
0.00897515
0.00897451
0.00897392
0.00897338
0.0089729
0.00897246
0.00897207
0.00897172
0.0089714
0.00897111
0.00897083
0.00897052
0.00897014
0.00896958
0.00896859
0.00896674
0.00896316
0.00895622
0.00894293
0.00891808
0.00887285
0.00879319
0.00865799
0.0084379
0.00809601
0.00759165
0.00688873
0.00596829
0.00484329
0.00357107
0.00225698
0.00104294
0.000137079
0.00898205
0.00898043
0.00897915
0.00897808
0.00897717
0.00897635
0.0089756
0.00897492
0.00897429
0.00897372
0.0089732
0.00897273
0.00897232
0.00897194
0.0089716
0.0089713
0.00897102
0.00897074
0.00897045
0.00897008
0.00896951
0.00896853
0.00896669
0.0089631
0.00895615
0.00894285
0.00891797
0.00887269
0.00879296
0.00865764
0.00843742
0.00809536
0.00759083
0.00688776
0.00596724
0.00484226
0.0035702
0.00225637
0.00104266
0.00013707
0.00898174
0.00898013
0.00897886
0.0089778
0.00897689
0.00897608
0.00897535
0.00897468
0.00897407
0.00897352
0.00897302
0.00897257
0.00897216
0.0089718
0.00897148
0.00897119
0.00897092
0.00897065
0.00897037
0.00897
0.00896945
0.00896847
0.00896663
0.00896304
0.00895608
0.00894277
0.00891786
0.00887253
0.00879272
0.00865731
0.00843695
0.00809473
0.00759003
0.00688682
0.00596622
0.00484127
0.00356936
0.00225578
0.00104238
0.00013706
0.0089814
0.00897981
0.00897855
0.00897751
0.00897661
0.00897581
0.0089751
0.00897445
0.00897385
0.00897332
0.00897283
0.0089724
0.00897201
0.00897167
0.00897135
0.00897107
0.00897082
0.00897056
0.00897028
0.00896993
0.00896938
0.00896841
0.00896656
0.00896298
0.00895601
0.00894268
0.00891774
0.00887238
0.0087925
0.00865698
0.00843649
0.00809412
0.00758925
0.0068859
0.00596522
0.0048403
0.00356853
0.00225521
0.00104212
0.000137048
0.00898102
0.00897947
0.00897823
0.0089772
0.00897632
0.00897554
0.00897484
0.00897421
0.00897364
0.00897312
0.00897265
0.00897223
0.00897186
0.00897153
0.00897123
0.00897096
0.00897072
0.00897047
0.0089702
0.00896985
0.00896931
0.00896834
0.0089665
0.00896292
0.00895594
0.0089426
0.00891763
0.00887222
0.00879227
0.00865666
0.00843604
0.00809352
0.00758849
0.006885
0.00596426
0.00483935
0.00356773
0.00225466
0.00104187
0.000137035
0.00898062
0.00897911
0.0089779
0.00897689
0.00897603
0.00897527
0.00897459
0.00897398
0.00897342
0.00897292
0.00897247
0.00897207
0.00897171
0.0089714
0.00897111
0.00897086
0.00897062
0.00897038
0.00897012
0.00896978
0.00896924
0.00896828
0.00896644
0.00896285
0.00895588
0.00894252
0.00891753
0.00887207
0.00879206
0.00865635
0.00843561
0.00809293
0.00758775
0.00688412
0.0059633
0.00483842
0.00356693
0.00225411
0.00104162
0.000137021
0.00898018
0.00897873
0.00897755
0.00897658
0.00897574
0.008975
0.00897434
0.00897374
0.00897321
0.00897273
0.0089723
0.00897191
0.00897157
0.00897127
0.008971
0.00897075
0.00897052
0.0089703
0.00897005
0.00896971
0.00896918
0.00896822
0.00896639
0.0089628
0.00895581
0.00894244
0.00891742
0.00887192
0.00879184
0.00865604
0.00843517
0.00809234
0.007587
0.00688323
0.00596232
0.00483745
0.0035661
0.00225353
0.00104134
0.000137008
0.00897972
0.00897833
0.0089772
0.00897626
0.00897544
0.00897473
0.00897409
0.00897352
0.008973
0.00897254
0.00897213
0.00897176
0.00897144
0.00897115
0.00897089
0.00897065
0.00897044
0.00897022
0.00896998
0.00896965
0.00896912
0.00896817
0.00896633
0.00896274
0.00895575
0.00894236
0.00891732
0.00887178
0.00879163
0.00865573
0.00843473
0.00809175
0.00758624
0.00688231
0.00596129
0.00483638
0.00356513
0.0022528
0.00104098
0.000136999
0.00897924
0.00897793
0.00897685
0.00897594
0.00897515
0.00897446
0.00897385
0.0089733
0.0089728
0.00897236
0.00897197
0.00897162
0.00897131
0.00897103
0.00897078
0.00897056
0.00897035
0.00897015
0.00896991
0.00896959
0.00896907
0.00896812
0.00896628
0.00896269
0.00895569
0.00894229
0.00891721
0.00887162
0.00879141
0.0086554
0.00843427
0.00809112
0.00758541
0.00688131
0.00596017
0.00483526
0.00356413
0.00225208
0.00104063
0.000136989
0.00897875
0.00897751
0.00897649
0.00897562
0.00897486
0.0089742
0.00897361
0.00897308
0.00897261
0.00897219
0.00897181
0.00897148
0.00897118
0.00897092
0.00897069
0.00897047
0.00897028
0.00897008
0.00896985
0.00896953
0.00896902
0.00896807
0.00896623
0.00896264
0.00895563
0.00894221
0.00891711
0.00887147
0.00879117
0.00865506
0.00843379
0.00809046
0.00758458
0.00688031
0.00595906
0.00483415
0.00356316
0.00225138
0.0010403
0.000136978
0.00897826
0.0089771
0.00897613
0.0089753
0.00897458
0.00897394
0.00897338
0.00897288
0.00897242
0.00897202
0.00897167
0.00897135
0.00897107
0.00897082
0.00897059
0.00897039
0.0089702
0.00897001
0.00896979
0.00896948
0.00896897
0.00896802
0.00896619
0.00896259
0.00895558
0.00894214
0.008917
0.00887131
0.00879094
0.00865473
0.00843332
0.00808982
0.00758376
0.00687933
0.00595799
0.00483309
0.00356224
0.00225072
0.00103999
0.000136967
0.00897776
0.00897668
0.00897577
0.00897499
0.0089743
0.00897369
0.00897316
0.00897268
0.00897225
0.00897187
0.00897153
0.00897122
0.00897096
0.00897072
0.00897051
0.00897032
0.00897014
0.00896995
0.00896974
0.00896943
0.00896893
0.00896799
0.00896615
0.00896255
0.00895552
0.00894207
0.0089169
0.00887117
0.00879072
0.00865441
0.00843286
0.00808921
0.00758299
0.00687841
0.00595698
0.00483209
0.00356138
0.00225012
0.00103971
0.000136954
0.00897727
0.00897627
0.00897542
0.00897468
0.00897403
0.00897345
0.00897294
0.00897248
0.00897208
0.00897171
0.00897139
0.00897111
0.00897085
0.00897063
0.00897043
0.00897025
0.00897008
0.0089699
0.00896969
0.00896939
0.00896889
0.00896795
0.00896612
0.00896251
0.00895548
0.00894201
0.00891681
0.00887103
0.00879052
0.00865411
0.00843244
0.00808864
0.00758226
0.00687756
0.00595605
0.00483117
0.00356059
0.00224956
0.00103945
0.00013694
0.00897679
0.00897587
0.00897508
0.00897438
0.00897377
0.00897322
0.00897273
0.0089723
0.00897192
0.00897157
0.00897127
0.008971
0.00897076
0.00897055
0.00897036
0.00897018
0.00897002
0.00896985
0.00896965
0.00896935
0.00896885
0.00896792
0.00896609
0.00896248
0.00895544
0.00894195
0.00891673
0.0088709
0.00879033
0.00865383
0.00843205
0.00808812
0.0075816
0.00687677
0.00595519
0.00483033
0.00355987
0.00224906
0.00103923
0.000136926
0.00897633
0.00897549
0.00897475
0.00897409
0.00897351
0.008973
0.00897254
0.00897213
0.00897176
0.00897144
0.00897115
0.00897089
0.00897067
0.00897047
0.00897029
0.00897012
0.00896997
0.00896981
0.00896961
0.00896932
0.00896882
0.00896789
0.00896606
0.00896245
0.0089554
0.0089419
0.00891665
0.00887079
0.00879016
0.00865358
0.0084317
0.00808765
0.007581
0.00687607
0.00595443
0.00482958
0.00355922
0.00224861
0.00103903
0.00013691
0.00897589
0.00897511
0.00897443
0.00897382
0.00897327
0.00897278
0.00897235
0.00897196
0.00897162
0.00897131
0.00897104
0.0089708
0.00897058
0.00897039
0.00897022
0.00897007
0.00896992
0.00896976
0.00896957
0.00896929
0.0089688
0.00896786
0.00896603
0.00896242
0.00895537
0.00894185
0.00891659
0.00887069
0.00879001
0.00865336
0.00843139
0.00808723
0.00758047
0.00687544
0.00595375
0.00482892
0.00355866
0.00224822
0.00103886
0.000136895
0.00897546
0.00897476
0.00897412
0.00897355
0.00897304
0.00897258
0.00897217
0.00897181
0.00897148
0.00897119
0.00897093
0.00897071
0.00897051
0.00897033
0.00897017
0.00897002
0.00896988
0.00896973
0.00896954
0.00896926
0.00896877
0.00896784
0.00896601
0.0089624
0.00895534
0.00894182
0.00891653
0.00887061
0.00878988
0.00865317
0.00843112
0.00808687
0.00758001
0.0068749
0.00595317
0.00482835
0.00355818
0.00224789
0.00103872
0.000136879
0.00897506
0.00897442
0.00897383
0.0089733
0.00897282
0.00897239
0.008972
0.00897166
0.00897135
0.00897108
0.00897084
0.00897062
0.00897043
0.00897026
0.00897011
0.00896997
0.00896984
0.00896969
0.00896951
0.00896923
0.00896875
0.00896782
0.00896599
0.00896238
0.00895532
0.00894178
0.00891649
0.00887054
0.00878978
0.00865301
0.00843089
0.00808656
0.00757963
0.00687445
0.00595267
0.00482787
0.00355777
0.00224762
0.00103861
0.000136862
0.00897469
0.0089741
0.00897356
0.00897306
0.00897261
0.00897221
0.00897185
0.00897152
0.00897123
0.00897098
0.00897075
0.00897054
0.00897037
0.0089702
0.00897006
0.00896993
0.0089698
0.00896966
0.00896948
0.00896921
0.00896873
0.0089678
0.00896598
0.00896236
0.0089553
0.00894176
0.00891645
0.00887048
0.00878969
0.00865288
0.00843071
0.00808631
0.00757931
0.00687408
0.00595228
0.00482749
0.00355745
0.00224741
0.00103853
0.000136845
0.00897434
0.00897381
0.00897331
0.00897284
0.00897242
0.00897204
0.0089717
0.00897139
0.00897112
0.00897088
0.00897066
0.00897047
0.0089703
0.00897015
0.00897001
0.00896989
0.00896976
0.00896963
0.00896946
0.00896919
0.00896871
0.00896779
0.00896596
0.00896235
0.00895528
0.00894174
0.00891642
0.00887043
0.00878962
0.00865278
0.00843056
0.00808612
0.00757907
0.0068738
0.00595197
0.0048272
0.00355722
0.00224726
0.00103848
0.000136829
0.00897402
0.00897353
0.00897307
0.00897264
0.00897224
0.00897188
0.00897156
0.00897127
0.00897102
0.00897079
0.00897058
0.0089704
0.00897024
0.0089701
0.00896997
0.00896985
0.00896973
0.0089696
0.00896944
0.00896917
0.00896869
0.00896777
0.00896595
0.00896234
0.00895527
0.00894172
0.0089164
0.0088704
0.00878957
0.00865271
0.00843046
0.00808599
0.0075789
0.0068736
0.00595177
0.004827
0.00355706
0.00224717
0.00103845
0.000136812
0.00897372
0.00897327
0.00897285
0.00897244
0.00897207
0.00897174
0.00897143
0.00897116
0.00897092
0.0089707
0.00897051
0.00897034
0.00897019
0.00897005
0.00896993
0.00896982
0.0089697
0.00896958
0.00896941
0.00896915
0.00896868
0.00896776
0.00896594
0.00896233
0.00895526
0.00894171
0.00891638
0.00887038
0.00878954
0.00865267
0.0084304
0.00808591
0.0075788
0.00687349
0.00595165
0.0048269
0.00355699
0.00224714
0.00103846
0.000136796
0.00897345
0.00897304
0.00897264
0.00897226
0.00897192
0.0089716
0.00897131
0.00897106
0.00897083
0.00897063
0.00897045
0.00897028
0.00897014
0.00897001
0.00896989
0.00896979
0.00896968
0.00896956
0.0089694
0.00896914
0.00896867
0.00896775
0.00896593
0.00896232
0.00895525
0.00894171
0.00891638
0.00887038
0.00878953
0.00865266
0.00843039
0.00808588
0.00757878
0.00687346
0.00595163
0.00482689
0.00355699
0.00224716
0.00103849
0.000136779
0.0089732
0.00897282
0.00897245
0.0089721
0.00897177
0.00897147
0.0089712
0.00897096
0.00897075
0.00897056
0.00897038
0.00897023
0.00897009
0.00896997
0.00896986
0.00896976
0.00896965
0.00896954
0.00896938
0.00896912
0.00896865
0.00896774
0.00896592
0.00896231
0.00895525
0.00894171
0.00891638
0.00887038
0.00878954
0.00865267
0.00843041
0.00808591
0.00757882
0.00687351
0.00595169
0.00482696
0.00355707
0.00224724
0.00103856
0.000136764
0.00897297
0.00897262
0.00897228
0.00897195
0.00897164
0.00897136
0.0089711
0.00897088
0.00897067
0.00897049
0.00897033
0.00897018
0.00897005
0.00896994
0.00896983
0.00896973
0.00896963
0.00896952
0.00896936
0.00896911
0.00896864
0.00896773
0.00896592
0.00896231
0.00895525
0.00894171
0.00891639
0.0088704
0.00878957
0.00865272
0.00843047
0.008086
0.00757893
0.00687365
0.00595185
0.00482713
0.00355723
0.00224738
0.00103864
0.000136748
0.00897277
0.00897245
0.00897212
0.00897181
0.00897152
0.00897125
0.00897101
0.0089708
0.0089706
0.00897043
0.00897028
0.00897014
0.00897001
0.0089699
0.0089698
0.00896971
0.00896961
0.0089695
0.00896935
0.0089691
0.00896863
0.00896772
0.00896591
0.00896231
0.00895525
0.00894172
0.00891641
0.00887043
0.00878962
0.00865279
0.00843057
0.00808614
0.0075791
0.00687386
0.00595209
0.00482737
0.00355746
0.00224756
0.00103875
0.000136734
0.00897258
0.00897228
0.00897198
0.00897169
0.00897141
0.00897116
0.00897093
0.00897072
0.00897054
0.00897038
0.00897023
0.0089701
0.00896998
0.00896987
0.00896978
0.00896968
0.00896959
0.00896948
0.00896933
0.00896909
0.00896862
0.00896772
0.00896591
0.00896231
0.00895526
0.00894173
0.00891643
0.00887047
0.00878968
0.00865288
0.00843071
0.00808632
0.00757934
0.00687415
0.00595241
0.0048277
0.00355776
0.00224779
0.00103889
0.00013672
0.00897242
0.00897214
0.00897185
0.00897158
0.00897131
0.00897107
0.00897085
0.00897066
0.00897048
0.00897033
0.00897019
0.00897006
0.00896995
0.00896984
0.00896975
0.00896966
0.00896957
0.00896947
0.00896932
0.00896908
0.00896862
0.00896771
0.0089659
0.00896231
0.00895526
0.00894175
0.00891646
0.00887052
0.00878976
0.008653
0.00843088
0.00808655
0.00757964
0.0068745
0.0059528
0.0048281
0.00355812
0.00224807
0.00103904
0.000136707
0.00897228
0.00897201
0.00897174
0.00897147
0.00897122
0.00897099
0.00897079
0.0089706
0.00897043
0.00897028
0.00897015
0.00897003
0.00896992
0.00896982
0.00896973
0.00896964
0.00896956
0.00896945
0.00896931
0.00896907
0.00896861
0.00896771
0.0089659
0.00896231
0.00895527
0.00894177
0.0089165
0.00887058
0.00878986
0.00865314
0.00843108
0.00808683
0.00757999
0.00687492
0.00595327
0.00482857
0.00355854
0.00224839
0.00103922
0.000136696
0.00897216
0.0089719
0.00897164
0.00897138
0.00897114
0.00897092
0.00897072
0.00897054
0.00897038
0.00897024
0.00897011
0.00896999
0.00896989
0.0089698
0.00896971
0.00896963
0.00896954
0.00896944
0.0089693
0.00896906
0.0089686
0.0089677
0.0089659
0.00896231
0.00895528
0.00894179
0.00891654
0.00887065
0.00878997
0.00865331
0.00843132
0.00808715
0.00758039
0.0068754
0.0059538
0.00482911
0.00355902
0.00224875
0.00103941
0.000136685
0.00897205
0.0089718
0.00897155
0.0089713
0.00897107
0.00897086
0.00897067
0.00897049
0.00897034
0.0089702
0.00897008
0.00896996
0.00896986
0.00896977
0.00896969
0.00896961
0.00896953
0.00896943
0.00896929
0.00896905
0.0089686
0.0089677
0.0089659
0.00896232
0.0089553
0.00894181
0.00891658
0.00887073
0.00879009
0.00865349
0.00843158
0.0080875
0.00758084
0.00687594
0.00595438
0.00482969
0.00355953
0.00224913
0.00103961
0.000136675
0.00897196
0.00897171
0.00897146
0.00897122
0.008971
0.00897079
0.00897061
0.00897044
0.00897029
0.00897016
0.00897004
0.00896993
0.00896984
0.00896975
0.00896967
0.00896959
0.00896951
0.00896942
0.00896928
0.00896904
0.00896859
0.00896769
0.0089659
0.00896232
0.00895531
0.00894184
0.00891664
0.00887081
0.00879023
0.00865369
0.00843186
0.00808788
0.00758133
0.00687651
0.00595501
0.00483031
0.00356008
0.00224953
0.00103982
0.000136666
0.00897187
0.00897161
0.00897137
0.00897113
0.00897092
0.00897072
0.00897054
0.00897038
0.00897024
0.00897012
0.00897
0.0089699
0.00896981
0.00896972
0.00896965
0.00896957
0.0089695
0.0089694
0.00896926
0.00896903
0.00896858
0.00896769
0.0089659
0.00896233
0.00895533
0.00894187
0.00891669
0.0088709
0.00879037
0.00865391
0.00843217
0.00808829
0.00758184
0.00687711
0.00595565
0.00483094
0.00356063
0.00224994
0.00104003
0.000136658
0.00897178
0.00897151
0.00897126
0.00897103
0.00897082
0.00897063
0.00897047
0.00897032
0.00897018
0.00897006
0.00896995
0.00896986
0.00896977
0.00896969
0.00896962
0.00896955
0.00896947
0.00896938
0.00896925
0.00896901
0.00896857
0.00896768
0.0089659
0.00896233
0.00895534
0.0089419
0.00891675
0.008871
0.00879052
0.00865413
0.00843248
0.0080887
0.00758236
0.00687771
0.0059563
0.00483156
0.00356116
0.00225032
0.00104022
0.000136651
0.00897167
0.00897138
0.00897113
0.0089709
0.0089707
0.00897053
0.00897037
0.00897023
0.0089701
0.00896999
0.00896989
0.0089698
0.00896972
0.00896965
0.00896958
0.00896952
0.00896945
0.00896936
0.00896923
0.008969
0.00896855
0.00896767
0.00896589
0.00896233
0.00895535
0.00894193
0.0089168
0.00887109
0.00879067
0.00865435
0.00843279
0.00808912
0.00758286
0.00687829
0.0059569
0.00483212
0.00356162
0.00225063
0.00104038
0.000136644
0.00897153
0.00897122
0.00897096
0.00897074
0.00897056
0.00897039
0.00897025
0.00897012
0.00897001
0.00896991
0.00896982
0.00896974
0.00896966
0.0089696
0.00896954
0.00896948
0.00896941
0.00896933
0.0089692
0.00896897
0.00896854
0.00896766
0.00896588
0.00896233
0.00895536
0.00894196
0.00891685
0.00887118
0.0087908
0.00865456
0.00843309
0.0080895
0.00758334
0.00687881
0.00595742
0.00483258
0.00356194
0.0022508
0.00104044
0.000136636
0.00897136
0.00897103
0.00897078
0.00897057
0.0089704
0.00897025
0.00897012
0.00897
0.0089699
0.00896982
0.00896974
0.00896966
0.0089696
0.00896954
0.00896949
0.00896943
0.00896937
0.00896929
0.00896917
0.00896895
0.00896851
0.00896764
0.00896587
0.00896233
0.00895536
0.00894198
0.00891689
0.00887125
0.00879092
0.00865473
0.00843333
0.00808983
0.00758374
0.00687927
0.00595788
0.00483295
0.00356217
0.00225086
0.0010404
0.000136624
0.00897123
0.00897089
0.00897064
0.00897044
0.00897028
0.00897014
0.00897002
0.00896992
0.00896983
0.00896975
0.00896968
0.00896961
0.00896955
0.0089695
0.00896945
0.0089694
0.00896934
0.00896927
0.00896915
0.00896893
0.0089685
0.00896763
0.00896586
0.00896232
0.00895536
0.00894198
0.00891691
0.00887129
0.00879098
0.00865483
0.00843348
0.00809004
0.00758401
0.00687961
0.00595827
0.00483338
0.00356258
0.00225121
0.00104061
0.000136616
)
;

boundaryField
{
    leftWall
    {
        type            nutkWallFunction;
        Cmu             0.09;
        kappa           0.41;
        E               9.8;
        value           nonuniform List<scalar> 0();
    }
    rightWall
    {
        type            nutkWallFunction;
        Cmu             0.09;
        kappa           0.41;
        E               9.8;
        value           nonuniform List<scalar> 
43
(
1.20285e-05
1.20287e-05
1.20287e-05
1.20285e-05
1.20281e-05
1.20275e-05
1.20268e-05
1.20259e-05
1.20249e-05
1.20236e-05
1.20223e-05
1.20209e-05
1.20201e-05
1.20191e-05
1.2018e-05
1.20168e-05
1.20155e-05
1.2014e-05
1.20125e-05
1.20109e-05
1.20091e-05
1.20074e-05
1.20056e-05
1.20037e-05
1.20019e-05
1.2e-05
1.19982e-05
1.19963e-05
1.19946e-05
1.19928e-05
1.19912e-05
1.19896e-05
1.19881e-05
1.19867e-05
1.19854e-05
1.19843e-05
1.19832e-05
1.19823e-05
1.19814e-05
1.19806e-05
1.19797e-05
1.19784e-05
1.19775e-05
)
;
    }
    lowerWall
    {
        type            nutkWallFunction;
        Cmu             0.09;
        kappa           0.41;
        E               9.8;
        value           nonuniform List<scalar> 0();
    }
    atmosphere
    {
        type            calculated;
        value           nonuniform List<scalar> 
45
(
0.00897679
0.00897466
0.00897326
0.00897232
0.00897169
0.00897123
0.00897089
0.00897064
0.00897044
0.00897028
0.00897014
0.00897002
0.00896992
0.00896983
0.00896975
0.00896968
0.00896961
0.00896955
0.0089695
0.00896945
0.0089694
0.00896934
0.00896927
0.00896915
0.00896893
0.0089685
0.00896763
0.00896586
0.00896232
0.00895536
0.00894198
0.00891691
0.00887129
0.00879098
0.00865483
0.00843348
0.00809004
0.00758401
0.00687961
0.00595827
0.00483338
0.00356258
0.00225121
0.00104061
0.000136616
)
;
    }
    defaultFaces
    {
        type            empty;
    }
    procBoundary3to1
    {
        type            processor;
        value           nonuniform List<scalar> 
45
(
0.00899457
0.00899212
0.00898977
0.00898753
0.00898553
0.00898376
0.00898229
0.0089811
0.00898007
0.00897915
0.00897828
0.00897745
0.00897666
0.00897592
0.00897522
0.00897457
0.00897397
0.00897343
0.00897294
0.00897249
0.00897209
0.00897171
0.00897136
0.00897099
0.00897056
0.00896995
0.00896893
0.00896707
0.00896349
0.0089566
0.00894342
0.00891876
0.00887386
0.00879468
0.00866016
0.00844096
0.00810012
0.00759685
0.00689486
0.00597493
0.00484979
0.00357664
0.0022609
0.00104482
0.000137099
)
;
    }
    procBoundary3to2
    {
        type            processor;
        value           nonuniform List<scalar> 
43
(
0.00899754
0.00899804
0.00899855
0.00899903
0.0089994
0.00899964
0.00899969
0.00899954
0.00899915
0.00899851
0.00899763
0.00899652
0.00899522
0.00899375
0.00899219
0.00899056
0.00898892
0.00898731
0.00898575
0.00898429
0.00898292
0.00898166
0.00898051
0.00897948
0.00897855
0.00897771
0.00897697
0.00897632
0.00897574
0.00897524
0.0089748
0.00897443
0.00897412
0.00897388
0.00897373
0.00897371
0.00897388
0.00897433
0.00897513
0.00897632
0.00897776
0.00897913
0.00897997
)
;
    }
}


// ************************************************************************* //
