/*--------------------------------*- C++ -*----------------------------------*\
  =========                 |
  \\      /  F ield         | OpenFOAM: The Open Source CFD Toolbox
   \\    /   O peration     | Website:  https://openfoam.org
    \\  /    A nd           | Version:  9
     \\/     M anipulation  |
\*---------------------------------------------------------------------------*/
FoamFile
{
    format      ascii;
    class       volScalarField;
    location    "0.05";
    object      p_rgh;
}
// * * * * * * * * * * * * * * * * * * * * * * * * * * * * * * * * * * * * * //

dimensions      [1 -1 -2 0 0 0 0];

internalField   nonuniform List<scalar> 
1935
(
0.67242
0.64004
0.608143
0.576617
0.545394
0.514585
0.484283
0.454583
0.425579
0.397364
0.370019
0.343618
0.318223
0.293882
0.270631
0.248492
0.227477
0.207589
0.188826
0.171179
0.154633
0.139171
0.124771
0.111409
0.0990654
0.0877152
0.0773327
0.0678882
0.0593476
0.05167
0.0448064
0.0386982
0.0332778
0.028471
0.0241999
0.0203874
0.0169602
0.0138513
0.0110015
0.00835815
0.00585824
0.00339286
0.00100469
0.671008
0.669597
0.668071
0.666316
0.639729
0.639425
0.638893
0.638085
0.609006
0.609651
0.610014
0.610083
0.578565
0.580143
0.581387
0.582309
0.548393
0.550906
0.55303
0.554791
0.518591
0.522016
0.525001
0.52758
0.489249
0.493553
0.497367
0.50073
0.460454
0.465591
0.470194
0.474305
0.432292
0.438206
0.44355
0.448365
0.404843
0.411472
0.4175
0.422971
0.378183
0.385457
0.392109
0.398181
0.352379
0.360223
0.367433
0.374049
0.327489
0.335825
0.343525
0.350626
0.303559
0.312309
0.320432
0.327956
0.280627
0.289715
0.298192
0.306079
0.25872
0.268072
0.276838
0.285025
0.237858
0.247404
0.256393
0.264822
0.21805
0.227724
0.236876
0.245488
0.199299
0.209042
0.218297
0.227036
0.181604
0.191357
0.200661
0.209473
0.164955
0.174667
0.183967
0.192801
0.149341
0.158961
0.168209
0.177016
0.134744
0.144229
0.153377
0.16211
0.121147
0.130454
0.139458
0.148072
0.10853
0.117618
0.126435
0.134885
0.0968705
0.1057
0.114287
0.122526
0.0861435
0.0946741
0.102986
0.110969
0.0763198
0.0845099
0.0925018
0.10018
0.0673645
0.0751709
0.0827954
0.0901202
0.0592353
0.0666137
0.0738233
0.0807473
0.0518823
0.0587883
0.0655366
0.0720148
0.0452475
0.051639
0.0578833
0.0638756
0.0392662
0.0451061
0.0508103
0.0562836
0.0338699
0.039129
0.0442656
0.049196
0.0289891
0.0336485
0.0382007
0.0425743
0.0245566
0.0286088
0.0325711
0.0363841
0.0205098
0.0239587
0.0273358
0.0305931
0.0167917
0.0196502
0.0224552
0.0251683
0.0133497
0.0156372
0.0178883
0.0200728
0.0101352
0.0118736
0.0135911
0.0152642
0.00708436
0.00829383
0.00949602
0.0106717
0.00407123
0.00475932
0.00545433
0.00614149
0.00116917
0.00136367
0.00157575
0.00179633
0.664314
0.662028
0.659503
0.65672
0.653692
0.650445
0.647027
0.643503
0.639943
0.63641
0.632948
0.629583
0.626318
0.623142
0.620032
0.616967
0.613928
0.610905
0.607898
0.604914
0.60197
0.599086
0.596283
0.593584
0.591006
0.588566
0.586276
0.584147
0.582187
0.580406
0.578814
0.577424
0.576252
0.575311
0.574611
0.574149
0.573907
0.573845
0.573902
0.573989
0.637016
0.635649
0.63401
0.632094
0.629915
0.627501
0.624894
0.622153
0.619337
0.616503
0.613692
0.610926
0.608212
0.605542
0.602899
0.600268
0.597637
0.595
0.592362
0.589732
0.587129
0.584573
0.582086
0.579687
0.577396
0.575226
0.573191
0.571299
0.569558
0.567976
0.566564
0.565333
0.564296
0.563467
0.562853
0.562453
0.562248
0.562202
0.562259
0.56234
0.609891
0.609396
0.608601
0.607516
0.606157
0.60455
0.602736
0.60076
0.598675
0.596527
0.594351
0.592169
0.589989
0.587807
0.585617
0.583407
0.581174
0.578916
0.576641
0.574362
0.572098
0.569869
0.567696
0.565598
0.563593
0.561694
0.559912
0.558256
0.556732
0.555349
0.554115
0.553041
0.552138
0.551419
0.550891
0.550551
0.550382
0.550351
0.550408
0.550484
0.582966
0.583312
0.583336
0.583054
0.582486
0.581658
0.580606
0.579367
0.577986
0.5765
0.574939
0.573324
0.571666
0.569965
0.568218
0.566424
0.564582
0.562696
0.560779
0.558845
0.556914
0.555006
0.553143
0.551341
0.549618
0.547986
0.546454
0.545031
0.543722
0.542534
0.541476
0.540556
0.539786
0.539175
0.538731
0.538451
0.538319
0.538303
0.53836
0.53843
0.556278
0.557444
0.558261
0.558756
0.558951
0.558871
0.558548
0.558014
0.557305
0.556454
0.555487
0.554422
0.553273
0.552042
0.550733
0.549347
0.547889
0.54637
0.544804
0.543208
0.541603
0.540009
0.538448
0.536937
0.53549
0.534119
0.532832
0.531637
0.530539
0.529543
0.528658
0.52789
0.52725
0.526747
0.526386
0.526165
0.526068
0.526067
0.526124
0.526188
0.529872
0.531833
0.533418
0.534663
0.535592
0.536229
0.536601
0.536739
0.536672
0.536428
0.536031
0.535499
0.534842
0.53407
0.533188
0.532201
0.531121
0.529961
0.528737
0.527471
0.526185
0.524898
0.523632
0.522404
0.521226
0.52011
0.519062
0.51809
0.517198
0.516391
0.515674
0.515055
0.514543
0.514145
0.513866
0.513702
0.513639
0.513653
0.51371
0.513768
0.503798
0.506522
0.508846
0.510813
0.512445
0.513767
0.514803
0.51558
0.516125
0.516461
0.516609
0.516588
0.516408
0.516079
0.515611
0.515014
0.514301
0.51349
0.512601
0.511657
0.51068
0.509693
0.508714
0.50776
0.506843
0.505975
0.50516
0.504405
0.503713
0.503089
0.502537
0.502063
0.501676
0.50138
0.50118
0.501072
0.501043
0.501071
0.501128
0.501179
0.478111
0.481564
0.484592
0.487246
0.489548
0.491522
0.493189
0.494574
0.4957
0.496588
0.497258
0.497725
0.498002
0.498101
0.498033
0.497811
0.497454
0.496982
0.496418
0.495786
0.495109
0.494411
0.49371
0.493022
0.492359
0.49173
0.491141
0.490596
0.490098
0.489651
0.489258
0.488926
0.488659
0.488462
0.488339
0.488285
0.488289
0.48833
0.488386
0.488431
0.452868
0.45701
0.460705
0.464009
0.466944
0.469532
0.471796
0.473757
0.475433
0.476846
0.478011
0.478943
0.479657
0.480164
0.480479
0.480619
0.480605
0.48046
0.480209
0.479878
0.479491
0.479072
0.478639
0.478208
0.47779
0.477392
0.47702
0.476677
0.476366
0.47609
0.475852
0.475655
0.475504
0.475403
0.475353
0.475352
0.475387
0.475441
0.475496
0.475535
0.428124
0.432912
0.437232
0.441146
0.444676
0.447841
0.450665
0.453165
0.45536
0.457266
0.458899
0.460273
0.461401
0.462297
0.462978
0.463464
0.463778
0.463945
0.463995
0.463953
0.463845
0.463695
0.46352
0.463335
0.463151
0.462975
0.462811
0.462663
0.462532
0.462419
0.462328
0.462261
0.462222
0.462213
0.462234
0.462282
0.462347
0.462414
0.462468
0.462501
0.403935
0.409321
0.414223
0.418704
0.422787
0.42649
0.429835
0.432838
0.435517
0.437885
0.439957
0.441745
0.443263
0.444526
0.445554
0.446368
0.446994
0.44746
0.447796
0.448031
0.44819
0.448296
0.448368
0.448419
0.448459
0.448495
0.44853
0.448567
0.448607
0.448651
0.448701
0.448758
0.448825
0.448903
0.448992
0.449087
0.449181
0.449259
0.449312
0.44934
0.380351
0.386286
0.391722
0.396726
0.401318
0.405518
0.409345
0.412814
0.415941
0.418738
0.421216
0.423389
0.425271
0.426877
0.42823
0.429353
0.430274
0.431023
0.431632
0.43213
0.432543
0.432894
0.4332
0.433476
0.433729
0.433967
0.434191
0.434404
0.434607
0.434799
0.434982
0.435157
0.435324
0.435485
0.435638
0.435778
0.435898
0.435987
0.43604
0.436062
0.357421
0.363851
0.369772
0.375252
0.38031
0.384964
0.389232
0.393128
0.396666
0.399856
0.402708
0.405235
0.407452
0.409376
0.41103
0.41244
0.413638
0.414654
0.41552
0.416267
0.416921
0.417504
0.418033
0.418521
0.418976
0.419404
0.419807
0.420186
0.420542
0.420874
0.421183
0.421468
0.421731
0.421969
0.422182
0.422365
0.42251
0.422608
0.42266
0.422678
0.335186
0.342058
0.348412
0.35432
0.359798
0.364862
0.369529
0.373813
0.377723
0.381269
0.38446
0.38731
0.389831
0.392046
0.393976
0.395653
0.397106
0.39837
0.399478
0.400458
0.401339
0.40214
0.402879
0.403568
0.404213
0.404821
0.405391
0.405927
0.406426
0.406889
0.407315
0.407705
0.408056
0.408367
0.408636
0.408858
0.409026
0.409134
0.409184
0.409198
0.313685
0.320942
0.327678
0.333964
0.339815
0.345244
0.350268
0.354897
0.359139
0.363004
0.366498
0.369636
0.372432
0.374908
0.37709
0.379009
0.380698
0.382191
0.383522
0.384721
0.385813
0.386819
0.387754
0.38863
0.389454
0.390228
0.390956
0.391636
0.39227
0.392855
0.39339
0.393876
0.394309
0.394688
0.39501
0.395268
0.395457
0.395573
0.395623
0.395631
0.292949
0.300535
0.3076
0.314215
0.32039
0.326139
0.331475
0.336407
0.34094
0.345083
0.348844
0.352234
0.355272
0.357981
0.360388
0.362527
0.36443
0.366134
0.367671
0.369071
0.37036
0.371555
0.372673
0.373723
0.374711
0.375641
0.376513
0.377328
0.378085
0.378782
0.379419
0.379993
0.380502
0.380944
0.381313
0.381604
0.381813
0.381937
0.381985
0.381989
0.273005
0.280863
0.288204
0.295096
0.301549
0.307571
0.313174
0.318364
0.323147
0.327528
0.331516
0.335124
0.338372
0.341283
0.343889
0.346223
0.348319
0.350214
0.351939
0.353525
0.354993
0.356364
0.357649
0.358859
0.359999
0.361071
0.362076
0.363013
0.363883
0.364683
0.365411
0.366067
0.366645
0.367143
0.367556
0.367878
0.368104
0.368235
0.368282
0.368281
0.253873
0.261948
0.269512
0.276631
0.283311
0.289559
0.295383
0.300787
0.305775
0.310353
0.314529
0.318319
0.321744
0.324829
0.327607
0.330112
0.33238
0.334446
0.336342
0.338095
0.339728
0.341257
0.342696
0.344052
0.345329
0.34653
0.347655
0.348704
0.349675
0.350568
0.35138
0.352108
0.352749
0.353298
0.353749
0.354098
0.35434
0.354477
0.354522
0.354518
0.235567
0.243804
0.251539
0.258834
0.265693
0.272119
0.278116
0.283688
0.288837
0.29357
0.297897
0.301833
0.305402
0.308632
0.311556
0.314209
0.316627
0.318844
0.320892
0.322796
0.324576
0.32625
0.327826
0.329313
0.330714
0.332031
0.333263
0.334411
0.335473
0.336448
0.337333
0.338126
0.338822
0.339416
0.339902
0.340275
0.340531
0.340672
0.340715
0.340707
0.218096
0.226443
0.234296
0.241717
0.248705
0.255259
0.261383
0.267076
0.272343
0.27719
0.281627
0.285674
0.289356
0.292702
0.295746
0.298524
0.301072
0.303421
0.305603
0.30764
0.309552
0.311352
0.313051
0.314655
0.316165
0.317583
0.31891
0.320145
0.321287
0.322333
0.323283
0.324131
0.324875
0.325508
0.326024
0.326417
0.326684
0.326829
0.326871
0.326859
0.201465
0.209868
0.217789
0.225286
0.232352
0.238986
0.245187
0.250956
0.256297
0.261215
0.265726
0.26985
0.273614
0.277048
0.280188
0.283069
0.285725
0.288188
0.290485
0.292638
0.294665
0.296577
0.298383
0.300087
0.301692
0.303198
0.304606
0.305915
0.307125
0.308232
0.309236
0.310132
0.310916
0.311582
0.312122
0.312532
0.312808
0.312956
0.312997
0.312982
0.185671
0.194079
0.202017
0.209539
0.216634
0.223298
0.229529
0.235328
0.240698
0.245649
0.250197
0.254365
0.258182
0.261679
0.264891
0.267853
0.270598
0.273155
0.27555
0.277802
0.279926
0.281933
0.283829
0.285619
0.287304
0.288884
0.29036
0.291731
0.292996
0.294154
0.295202
0.296137
0.296954
0.297646
0.298206
0.298629
0.298912
0.299062
0.299101
0.299084
0.170707
0.179071
0.186976
0.194471
0.201545
0.208189
0.214402
0.220185
0.225543
0.230489
0.23504
0.239222
0.243064
0.246599
0.249862
0.252885
0.255699
0.258332
0.260806
0.26314
0.265345
0.26743
0.269401
0.27126
0.27301
0.274649
0.276179
0.277599
0.278908
0.280105
0.281188
0.282153
0.282995
0.283707
0.284282
0.284714
0.285003
0.285154
0.285191
0.285171
0.156564
0.164832
0.172653
0.180071
0.187073
0.193648
0.199797
0.205521
0.210828
0.215732
0.220255
0.224422
0.228264
0.231815
0.235106
0.238171
0.241036
0.243727
0.246263
0.24866
0.250929
0.253075
0.255104
0.257018
0.258816
0.260501
0.262071
0.263527
0.264868
0.266093
0.267201
0.268187
0.269046
0.269772
0.270357
0.270795
0.271086
0.271237
0.271272
0.27125
0.143222
0.151345
0.159031
0.166321
0.173201
0.17966
0.185699
0.191323
0.196542
0.201373
0.205837
0.209964
0.213784
0.217329
0.220631
0.223718
0.226616
0.229347
0.231927
0.234371
0.236685
0.238876
0.240946
0.242897
0.244729
0.246444
0.248041
0.24952
0.250881
0.252124
0.253246
0.254244
0.255113
0.255846
0.256436
0.256877
0.257168
0.257318
0.257351
0.257327
0.13066
0.138587
0.146087
0.153199
0.159908
0.166206
0.172094
0.177581
0.182678
0.187405
0.191786
0.19585
0.199627
0.203147
0.20644
0.209531
0.212444
0.215197
0.217804
0.220275
0.222618
0.224835
0.226929
0.228902
0.230753
0.232483
0.234092
0.235581
0.236951
0.2382
0.239327
0.240329
0.2412
0.241934
0.242524
0.242964
0.243254
0.243401
0.243433
0.243407
0.11885
0.126529
0.133793
0.140678
0.147171
0.153265
0.158964
0.164279
0.169225
0.173823
0.178098
0.182078
0.185793
0.18927
0.192536
0.195615
0.198524
0.201281
0.203896
0.206378
0.20873
0.210956
0.213058
0.215035
0.216889
0.218619
0.220227
0.221714
0.22308
0.224325
0.225447
0.226444
0.22731
0.228039
0.228624
0.22906
0.229346
0.22949
0.22952
0.229493
0.107759
0.11514
0.122119
0.128731
0.134964
0.140815
0.146292
0.151406
0.156175
0.160622
0.164771
0.168649
0.172284
0.175701
0.178923
0.181971
0.18486
0.187602
0.190206
0.192679
0.195023
0.19724
0.199331
0.201297
0.203138
0.204854
0.206448
0.207919
0.20927
0.2105
0.211608
0.212592
0.213446
0.214164
0.214739
0.215167
0.215447
0.215588
0.215615
0.215587
0.0973475
0.104382
0.11103
0.117326
0.123262
0.128838
0.134062
0.13895
0.143521
0.147797
0.151802
0.155562
0.1591
0.16244
0.165602
0.168601
0.17145
0.174159
0.176733
0.179178
0.181495
0.183685
0.185749
0.187687
0.189499
0.191187
0.192752
0.194196
0.195521
0.196726
0.197811
0.198773
0.199608
0.20031
0.200871
0.201288
0.20156
0.201696
0.201721
0.201692
0.0875755
0.0942178
0.100493
0.106437
0.112043
0.117314
0.122262
0.126903
0.131257
0.135346
0.139191
0.142817
0.146243
0.149489
0.152572
0.155504
0.158294
0.16095
0.163475
0.165873
0.168144
0.170289
0.172308
0.174201
0.175969
0.177615
0.179139
0.180543
0.18183
0.183001
0.184054
0.184987
0.185797
0.186476
0.18702
0.187423
0.187685
0.187815
0.187838
0.187809
0.0784004
0.0846104
0.0904773
0.0960366
0.101286
0.10623
0.110882
0.11526
0.119381
0.123268
0.126939
0.130414
0.133711
0.136847
0.139832
0.142677
0.145389
0.147971
0.150427
0.152758
0.154964
0.157045
0.159001
0.160834
0.162544
0.164133
0.165603
0.166957
0.168196
0.169322
0.170335
0.171232
0.17201
0.172662
0.173184
0.17357
0.173821
0.173945
0.173966
0.173937
0.0697811
0.0755251
0.0809543
0.0861046
0.0909759
0.095575
0.099916
0.104016
0.107891
0.111561
0.115043
0.118352
0.121504
0.124509
0.127378
0.130115
0.132727
0.135216
0.137581
0.139825
0.141947
0.143946
0.145823
0.14758
0.149216
0.150735
0.152139
0.153431
0.154613
0.155686
0.15665
0.157504
0.158245
0.158865
0.159362
0.159729
0.159967
0.160084
0.160103
0.160074
0.0616793
0.0669314
0.0719013
0.0766242
0.0811021
0.0853428
0.0893601
0.0931694
0.0967862
0.100226
0.103503
0.106629
0.109616
0.112472
0.115202
0.117811
0.120302
0.122674
0.124929
0.127066
0.129084
0.130983
0.132765
0.134429
0.135978
0.137414
0.13874
0.13996
0.141075
0.142086
0.142995
0.1438
0.144498
0.145083
0.14555
0.145896
0.14612
0.14623
0.146246
0.146218
0.0540612
0.0588038
0.0632998
0.0675831
0.0716569
0.075529
0.0792121
0.0827196
0.0860646
0.0892593
0.0923146
0.0952395
0.0980415
0.100726
0.103296
0.105754
0.108101
0.110335
0.112458
0.114467
0.116362
0.118145
0.119814
0.121371
0.12282
0.124161
0.125399
0.126536
0.127575
0.128518
0.129364
0.130114
0.130764
0.131309
0.131745
0.132068
0.132277
0.132378
0.132393
0.132366
0.0468975
0.0511211
0.0551352
0.0589718
0.0626342
0.0661294
0.0694687
0.0726628
0.0757221
0.0786555
0.0814708
0.0841738
0.0867691
0.0892595
0.0916462
0.0939296
0.0961091
0.0981838
0.100153
0.102015
0.103769
0.105417
0.106958
0.108395
0.10973
0.110965
0.112104
0.11315
0.114105
0.114971
0.11575
0.116439
0.117037
0.117539
0.117941
0.118239
0.118432
0.118525
0.118538
0.118513
0.0401624
0.0438645
0.0473941
0.0507802
0.054026
0.0571372
0.0601227
0.0629909
0.065749
0.0684033
0.0709584
0.0734177
0.0757832
0.0780557
0.0802349
0.08232
0.0843096
0.0862024
0.0879969
0.0896924
0.0912885
0.0927854
0.0941843
0.095487
0.0966959
0.0978141
0.0988446
0.0997905
0.100655
0.101439
0.102143
0.102768
0.10331
0.103766
0.104132
0.104403
0.10458
0.104665
0.104676
0.104652
0.0338308
0.0370142
0.0400602
0.0429945
0.0458194
0.0485391
0.0511602
0.0536886
0.0561288
0.0584845
0.060758
0.0629505
0.0650623
0.0670926
0.0690402
0.0709034
0.0726806
0.0743701
0.0759705
0.0774811
0.0789016
0.0802325
0.0814752
0.0826314
0.0837038
0.0846952
0.0856086
0.086447
0.0872131
0.0879086
0.0885343
0.0890898
0.0895731
0.0899809
0.0903091
0.0905539
0.0907136
0.0907912
0.0908012
0.0907787
0.0278746
0.0305455
0.0331109
0.0355929
0.0379926
0.0403128
0.0425578
0.0447312
0.0468355
0.0488723
0.050842
0.0527444
0.0545785
0.0563427
0.0580353
0.0596541
0.0611974
0.0626634
0.0640511
0.0653596
0.0665891
0.06774
0.0688138
0.0698124
0.0707381
0.0715937
0.0723821
0.0731061
0.0737681
0.0743699
0.0749124
0.0753953
0.0758171
0.0761748
0.0764647
0.0766827
0.0768261
0.0768964
0.0769055
0.0768851
0.0222597
0.0244257
0.0265141
0.0285431
0.0305129
0.0324247
0.0342811
0.0360838
0.0378339
0.0395313
0.0411755
0.0427652
0.0442989
0.0457745
0.04719
0.0485435
0.0498331
0.0510574
0.0522153
0.0533065
0.0543309
0.0552893
0.056183
0.0570138
0.057784
0.0584959
0.0591522
0.0597554
0.0603078
0.0608111
0.0612664
0.0616737
0.0620318
0.0623383
0.0625896
0.0627814
0.0629095
0.0629735
0.0629825
0.0629643
0.0169442
0.0186126
0.0202272
0.021802
0.0233365
0.0248307
0.026286
0.0277028
0.029081
0.0304199
0.0317183
0.0329747
0.0341871
0.0353538
0.0364729
0.0375425
0.0385611
0.0395277
0.0404413
0.0413017
0.042109
0.0428641
0.043568
0.0442224
0.0448291
0.0453903
0.0459082
0.0463851
0.046823
0.0472236
0.0475881
0.0479169
0.0482095
0.0484642
0.0486774
0.0488443
0.0489589
0.0490176
0.0490265
0.0490104
0.0118525
0.0130268
0.0141681
0.0152857
0.0163783
0.0174454
0.0184872
0.0195035
0.0204938
0.021457
0.0223918
0.0232967
0.0241703
0.0250109
0.025817
0.0265872
0.0273205
0.028016
0.0286732
0.0292918
0.0298722
0.0304149
0.030921
0.0313916
0.0318283
0.0322327
0.0326067
0.0329523
0.0332712
0.0335653
0.0338362
0.034085
0.0343126
0.0345182
0.0346991
0.0348493
0.0349598
0.0350212
0.0350334
0.0350194
0.00683366
0.00751426
0.00817711
0.0088306
0.00947249
0.0101017
0.0107178
0.0113203
0.0119083
0.0124811
0.0130375
0.0135764
0.0140968
0.0145977
0.0150781
0.0155371
0.015974
0.0163884
0.0167799
0.0171486
0.0174946
0.0178183
0.0181205
0.0184019
0.0186635
0.0189066
0.0191324
0.0193427
0.0195391
0.0197239
0.0198996
0.0200692
0.0202358
0.0204017
0.0205663
0.0207234
0.020859
0.0209526
0.0209903
0.0209888
0.00202307
0.00223453
0.00244056
0.00264789
0.00285471
0.00305964
0.003262
0.00346119
0.00365662
0.00384771
0.00403394
0.00421479
0.0043898
0.00455854
0.00472062
0.00487573
0.00502362
0.00516411
0.00529711
0.00542262
0.00554074
0.00565166
0.00575566
0.0058531
0.00594446
0.00603027
0.00611121
0.00618802
0.00626157
0.00633285
0.006403
0.00647326
0.00654492
0.00661893
0.00669523
0.00677165
0.00684253
0.00689812
0.00692848
0.00693565
)
;

boundaryField
{
    leftWall
    {
        type            fixedFluxPressure;
        gradient        nonuniform List<scalar> 0();
        value           nonuniform List<scalar> 0();
    }
    rightWall
    {
        type            fixedFluxPressure;
        gradient        uniform 0;
        value           nonuniform List<scalar> 
43
(
0.573989
0.56234
0.550484
0.53843
0.526188
0.513768
0.501179
0.488431
0.475535
0.462501
0.44934
0.436062
0.422678
0.409198
0.395631
0.381989
0.368281
0.354518
0.340707
0.326859
0.312982
0.299084
0.285171
0.27125
0.257327
0.243407
0.229493
0.215587
0.201692
0.187809
0.173937
0.160074
0.146218
0.132366
0.118513
0.104652
0.0907787
0.0768851
0.0629643
0.0490104
0.0350194
0.0209888
0.00693565
)
;
    }
    lowerWall
    {
        type            fixedFluxPressure;
        gradient        nonuniform List<scalar> 0();
        value           nonuniform List<scalar> 0();
    }
    atmosphere
    {
        type            totalPressure;
        rho             rho;
        psi             none;
        gamma           1;
        p0              uniform 0;
        value           uniform 0;
    }
    defaultFaces
    {
        type            empty;
    }
    procBoundary3to1
    {
        type            processor;
        value           nonuniform List<scalar> 
45
(
0.705029
0.702729
0.700235
0.697529
0.694743
0.691746
0.688487
0.685021
0.681327
0.677418
0.673321
0.669085
0.664777
0.66047
0.656229
0.652105
0.648123
0.644286
0.640581
0.636981
0.633461
0.629998
0.626578
0.623197
0.61986
0.616579
0.613373
0.610263
0.607268
0.604408
0.601699
0.599156
0.596789
0.59461
0.592628
0.590855
0.589305
0.587995
0.58694
0.586152
0.585628
0.585348
0.585269
0.585326
0.58542
)
;
    }
    procBoundary3to2
    {
        type            processor;
        value           nonuniform List<scalar> 
43
(
0.673592
0.640232
0.607079
0.574214
0.541791
0.509857
0.478493
0.447797
0.417871
0.388821
0.360741
0.333714
0.307804
0.28306
0.259514
0.237183
0.216073
0.19618
0.177488
0.159977
0.143623
0.1284
0.114281
0.101239
0.0892462
0.0782741
0.0682948
0.0592782
0.0511901
0.0439899
0.0376297
0.0320524
0.027191
0.0229703
0.0193084
0.0161208
0.0133247
0.0108425
0.00860589
0.00655601
0.00462907
0.00273274
0.000875594
)
;
    }
}


// ************************************************************************* //
