/*--------------------------------*- C++ -*----------------------------------*\
  =========                 |
  \\      /  F ield         | OpenFOAM: The Open Source CFD Toolbox
   \\    /   O peration     | Website:  https://openfoam.org
    \\  /    A nd           | Version:  9
     \\/     M anipulation  |
\*---------------------------------------------------------------------------*/
FoamFile
{
    format      ascii;
    class       volVectorField;
    location    "0.35";
    object      U;
}
// * * * * * * * * * * * * * * * * * * * * * * * * * * * * * * * * * * * * * //

dimensions      [0 1 -1 0 0 0 0];

internalField   nonuniform List<vector> 
1915
(
(0.0523994 -0.704071 0)
(0.0525929 -0.688397 0)
(0.0527958 -0.672189 0)
(0.0531779 -0.655677 0)
(0.0539174 -0.639156 0)
(0.0552068 -0.622973 0)
(0.0572517 -0.607526 0)
(0.0602677 -0.59325 0)
(0.0644791 -0.580611 0)
(0.0701194 -0.570095 0)
(0.0774325 -0.5622 0)
(0.0866768 -0.557423 0)
(0.0981306 -0.556246 0)
(0.112101 -0.55911 0)
(0.128935 -0.566362 0)
(0.149032 -0.578167 0)
(0.172864 -0.594362 0)
(0.200986 -0.614256 0)
(0.234036 -0.636354 0)
(0.272698 -0.658037 0)
(0.317623 -0.67521 0)
(0.369253 -0.681995 0)
(0.427519 -0.670593 0)
(0.49155 -0.63168 0)
(0.558695 -0.555436 0)
(-0.000376764 -0.883797 0)
(-0.00105587 -0.907615 0)
(-0.00218356 -0.902295 0)
(-0.00224045 -0.89294 0)
(-0.0017473 -0.882715 0)
(-0.000772082 -0.872375 0)
(0.000582765 -0.862175 0)
(0.00220763 -0.852195 0)
(0.00399248 -0.842429 0)
(0.00583032 -0.832816 0)
(0.0076203 -0.823258 0)
(0.00927126 -0.813631 0)
(0.0107049 -0.803796 0)
(0.0118587 -0.793608 0)
(0.0126887 -0.78293 0)
(0.013172 -0.771635 0)
(0.0133085 -0.759626 0)
(0.0131208 -0.746835 0)
(0.0126552 -0.733235 0)
(0.0119885 -0.718855 0)
(0.0112111 -0.703763 0)
(0.0104299 -0.688101 0)
(0.00978524 -0.672056 0)
(0.00943123 -0.655881 0)
(0.00953003 -0.639886 0)
(0.0102562 -0.62443 0)
(0.0117911 -0.60992 0)
(0.0143206 -0.596797 0)
(0.0180334 -0.585531 0)
(0.0231196 -0.576614 0)
(0.0297723 -0.570547 0)
(0.0381897 -0.567843 0)
(0.04858 -0.569004 0)
(0.0611695 -0.574506 0)
(0.0762139 -0.584748 0)
(0.0940156 -0.59996 0)
(0.114946 -0.620066 0)
(0.139469 -0.644465 0)
(0.168154 -0.671747 0)
(0.201676 -0.699333 0)
(0.240766 -0.72307 0)
(0.286103 -0.736811 0)
(0.338067 -0.732121 0)
(0.396376 -0.698437 0)
(0.459597 -0.624408 0)
(-0.00213387 -0.881514 0)
(-0.00502543 -0.9053 0)
(-0.00800894 -0.90064 0)
(-0.0102493 -0.891939 0)
(-0.0119514 -0.882283 0)
(-0.0131663 -0.872408 0)
(-0.0139882 -0.862563 0)
(-0.0145187 -0.852826 0)
(-0.0148589 -0.843193 0)
(-0.0151057 -0.833609 0)
(-0.0153491 -0.823984 0)
(-0.015669 -0.814206 0)
(-0.0161324 -0.804152 0)
(-0.0167904 -0.793694 0)
(-0.0176765 -0.782716 0)
(-0.0188042 -0.771114 0)
(-0.0201661 -0.758812 0)
(-0.0217329 -0.745769 0)
(-0.0234533 -0.731983 0)
(-0.0252531 -0.717498 0)
(-0.0270424 -0.702419 0)
(-0.0287124 -0.686894 0)
(-0.0301352 -0.671131 0)
(-0.0311731 -0.655399 0)
(-0.0316798 -0.640015 0)
(-0.0315034 -0.625346 0)
(-0.0304903 -0.611803 0)
(-0.0284875 -0.599828 0)
(-0.0253456 -0.589889 0)
(-0.0209196 -0.582475 0)
(-0.0150702 -0.578089 0)
(-0.00766299 -0.577243 0)
(0.00143471 -0.58045 0)
(0.0123595 -0.588205 0)
(0.0252639 -0.60094 0)
(0.0403377 -0.618947 0)
(0.0578341 -0.642233 0)
(0.0781004 -0.670312 0)
(0.101612 -0.701905 0)
(0.128999 -0.734568 0)
(0.161047 -0.764228 0)
(0.198659 -0.784676 0)
(0.2427 -0.787106 0)
(0.293712 -0.760042 0)
(0.351348 -0.690428 0)
(-0.00339075 -0.876891 0)
(-0.00834345 -0.90066 0)
(-0.0132083 -0.89671 0)
(-0.0174296 -0.888675 0)
(-0.0211442 -0.879593 0)
(-0.024376 -0.870194 0)
(-0.0272091 -0.860721 0)
(-0.0297365 -0.851253 0)
(-0.0320491 -0.841789 0)
(-0.034233 -0.832279 0)
(-0.036367 -0.822644 0)
(-0.0385191 -0.812783 0)
(-0.0407447 -0.80259 0)
(-0.0430839 -0.791954 0)
(-0.0455598 -0.780778 0)
(-0.048177 -0.768981 0)
(-0.0509205 -0.756507 0)
(-0.0537561 -0.743337 0)
(-0.0566296 -0.729491 0)
(-0.0594682 -0.715035 0)
(-0.0621835 -0.700087 0)
(-0.064673 -0.684814 0)
(-0.0668221 -0.669438 0)
(-0.068508 -0.654236 0)
(-0.0696045 -0.639531 0)
(-0.0699854 -0.625692 0)
(-0.0695273 -0.613125 0)
(-0.0681132 -0.602267 0)
(-0.0656351 -0.593578 0)
(-0.0619963 -0.587536 0)
(-0.0571132 -0.584634 0)
(-0.0509168 -0.585374 0)
(-0.0433514 -0.590267 0)
(-0.0343702 -0.599812 0)
(-0.0239246 -0.614467 0)
(-0.0119453 -0.634568 0)
(0.00168702 -0.660201 0)
(0.0171814 -0.690998 0)
(0.0348865 -0.725851 0)
(0.0553502 -0.762531 0)
(0.0793696 -0.797197 0)
(0.108023 -0.823813 0)
(0.142625 -0.833532 0)
(0.184536 -0.814363 0)
(0.234638 -0.751978 0)
(-0.00441006 -0.869963 0)
(-0.0111749 -0.893972 0)
(-0.0177727 -0.890701 0)
(-0.023783 -0.883318 0)
(-0.0293205 -0.874805 0)
(-0.0343864 -0.865884 0)
(-0.0390545 -0.856794 0)
(-0.0434086 -0.847615 0)
(-0.0475291 -0.83835 0)
(-0.051491 -0.828957 0)
(-0.0553612 -0.819366 0)
(-0.0591961 -0.809489 0)
(-0.0630395 -0.799235 0)
(-0.066921 -0.78851 0)
(-0.0708539 -0.777235 0)
(-0.0748346 -0.765348 0)
(-0.0788418 -0.752814 0)
(-0.082837 -0.739634 0)
(-0.0867648 -0.725845 0)
(-0.0905545 -0.711531 0)
(-0.0941228 -0.696824 0)
(-0.0973759 -0.681904 0)
(-0.100212 -0.667003 0)
(-0.102527 -0.652399 0)
(-0.104216 -0.638417 0)
(-0.10518 -0.625422 0)
(-0.105326 -0.613811 0)
(-0.104576 -0.604009 0)
(-0.102862 -0.59646 0)
(-0.100137 -0.591625 0)
(-0.0963738 -0.589974 0)
(-0.0915671 -0.591992 0)
(-0.0857377 -0.598172 0)
(-0.0789281 -0.609004 0)
(-0.0711947 -0.624951 0)
(-0.0625899 -0.646377 0)
(-0.0531313 -0.673436 0)
(-0.0427559 -0.705886 0)
(-0.0312575 -0.742815 0)
(-0.0182072 -0.782271 0)
(-0.00285932 -0.820777 0)
(0.0159585 -0.852694 0)
(0.0399138 -0.869496 0)
(0.0710901 -0.859168 0)
(0.111674 -0.806628 0)
(-0.00524599 -0.861125 0)
(-0.0135786 -0.885393 0)
(-0.0217205 -0.882788 0)
(-0.0293214 -0.876041 0)
(-0.0364876 -0.868086 0)
(-0.0431992 -0.859638 0)
(-0.04952 -0.850935 0)
(-0.0555239 -0.84206 0)
(-0.0612809 -0.83302 0)
(-0.0668545 -0.823781 0)
(-0.0722998 -0.814284 0)
(-0.077662 -0.804453 0)
(-0.0829739 -0.79421 0)
(-0.0882549 -0.783479 0)
(-0.0935095 -0.772197 0)
(-0.0987269 -0.76032 0)
(-0.103881 -0.747832 0)
(-0.108931 -0.734748 0)
(-0.11382 -0.721122 0)
(-0.118483 -0.707054 0)
(-0.122843 -0.692683 0)
(-0.126815 -0.6782 0)
(-0.130313 -0.66384 0)
(-0.133252 -0.64988 0)
(-0.135549 -0.636641 0)
(-0.137132 -0.624478 0)
(-0.137942 -0.613776 0)
(-0.137935 -0.604939 0)
(-0.137087 -0.598392 0)
(-0.135395 -0.594568 0)
(-0.132886 -0.593911 0)
(-0.129617 -0.596875 0)
(-0.125677 -0.603921 0)
(-0.121195 -0.615518 0)
(-0.116323 -0.632111 0)
(-0.111229 -0.654077 0)
(-0.106063 -0.681622 0)
(-0.100911 -0.714616 0)
(-0.0957274 -0.752353 0)
(-0.0902393 -0.793205 0)
(-0.0838156 -0.834162 0)
(-0.0752901 -0.87019 0)
(-0.0627742 -0.893441 0)
(-0.0435793 -0.89244 0)
(-0.0143007 -0.852044 0)
(-0.00593009 -0.850631 0)
(-0.0155972 -0.875127 0)
(-0.0250755 -0.873164 0)
(-0.0340657 -0.867029 0)
(-0.0426642 -0.859613 0)
(-0.0508313 -0.851625 0)
(-0.0586197 -0.843308 0)
(-0.0660938 -0.834745 0)
(-0.0733126 -0.82595 0)
(-0.0803283 -0.816898 0)
(-0.087185 -0.807538 0)
(-0.0939167 -0.797809 0)
(-0.100546 -0.787644 0)
(-0.107083 -0.776983 0)
(-0.113525 -0.765779 0)
(-0.119856 -0.754003 0)
(-0.126044 -0.741653 0)
(-0.132048 -0.728761 0)
(-0.137815 -0.715393 0)
(-0.143282 -0.701657 0)
(-0.14838 -0.687702 0)
(-0.153037 -0.67372 0)
(-0.157182 -0.659946 0)
(-0.160749 -0.646656 0)
(-0.163678 -0.634157 0)
(-0.165925 -0.622793 0)
(-0.167461 -0.612928 0)
(-0.168276 -0.604946 0)
(-0.168385 -0.599241 0)
(-0.167829 -0.596217 0)
(-0.166682 -0.596281 0)
(-0.165056 -0.599849 0)
(-0.163104 -0.60734 0)
(-0.161024 -0.619184 0)
(-0.159058 -0.635795 0)
(-0.157471 -0.657541 0)
(-0.156534 -0.684657 0)
(-0.156472 -0.717109 0)
(-0.157404 -0.754388 0)
(-0.159232 -0.795207 0)
(-0.161495 -0.837078 0)
(-0.163142 -0.875728 0)
(-0.162259 -0.904296 0)
(-0.155849 -0.912406 0)
(-0.13962 -0.885668 0)
(-0.00647638 -0.838736 0)
(-0.0172571 -0.863391 0)
(-0.0278647 -0.862028 0)
(-0.0380442 -0.856471 0)
(-0.0478802 -0.849567 0)
(-0.0573133 -0.842023 0)
(-0.0663852 -0.834083 0)
(-0.0751498 -0.825836 0)
(-0.0836558 -0.817302 0)
(-0.0919443 -0.808463 0)
(-0.100049 -0.799279 0)
(-0.107993 -0.7897 0)
(-0.11579 -0.779672 0)
(-0.123443 -0.769149 0)
(-0.130942 -0.758097 0)
(-0.138265 -0.746502 0)
(-0.14538 -0.734373 0)
(-0.152246 -0.721754 0)
(-0.158811 -0.70872 0)
(-0.16502 -0.695387 0)
(-0.170812 -0.681906 0)
(-0.176128 -0.668471 0)
(-0.180912 -0.655311 0)
(-0.185116 -0.642693 0)
(-0.188705 -0.630913 0)
(-0.191659 -0.620293 0)
(-0.193978 -0.611177 0)
(-0.195684 -0.603921 0)
(-0.196827 -0.598888 0)
(-0.197485 -0.596444 0)
(-0.197775 -0.596957 0)
(-0.197854 -0.600794 0)
(-0.197928 -0.608328 0)
(-0.198252 -0.619934 0)
(-0.199138 -0.635983 0)
(-0.200932 -0.656812 0)
(-0.204004 -0.682663 0)
(-0.208704 -0.713573 0)
(-0.2153 -0.749207 0)
(-0.223879 -0.788602 0)
(-0.234182 -0.829808 0)
(-0.245362 -0.869378 0)
(-0.255672 -0.901641 0)
(-0.262111 -0.917773 0)
(-0.259937 -0.904944 0)
(-0.00689607 -0.82567 0)
(-0.0185809 -0.850398 0)
(-0.0301178 -0.849582 0)
(-0.0412919 -0.844559 0)
(-0.0521749 -0.838135 0)
(-0.0626886 -0.831011 0)
(-0.0728629 -0.823435 0)
(-0.0827416 -0.815501 0)
(-0.0923629 -0.807237 0)
(-0.101758 -0.798632 0)
(-0.110949 -0.789656 0)
(-0.119952 -0.780269 0)
(-0.128771 -0.77043 0)
(-0.137402 -0.760103 0)
(-0.14583 -0.749267 0)
(-0.154031 -0.737919 0)
(-0.161972 -0.726079 0)
(-0.169611 -0.713799 0)
(-0.176903 -0.701161 0)
(-0.183797 -0.688283 0)
(-0.190244 -0.675319 0)
(-0.196197 -0.662456 0)
(-0.201614 -0.649917 0)
(-0.206467 -0.637957 0)
(-0.210741 -0.626854 0)
(-0.21444 -0.61691 0)
(-0.217589 -0.608441 0)
(-0.22024 -0.601774 0)
(-0.222471 -0.597237 0)
(-0.224395 -0.595156 0)
(-0.22616 -0.595854 0)
(-0.22796 -0.599648 0)
(-0.23004 -0.606854 0)
(-0.232701 -0.61779 0)
(-0.236302 -0.632767 0)
(-0.241252 -0.652076 0)
(-0.247995 -0.675942 0)
(-0.256979 -0.704445 0)
(-0.268606 -0.737386 0)
(-0.283137 -0.774087 0)
(-0.300534 -0.813103 0)
(-0.320223 -0.851802 0)
(-0.340775 -0.885777 0)
(-0.359493 -0.908009 0)
(-0.371735 -0.907891 0)
(-0.0071992 -0.811656 0)
(-0.0195907 -0.836358 0)
(-0.0318669 -0.836024 0)
(-0.0438492 -0.831485 0)
(-0.0555961 -0.825499 0)
(-0.0670111 -0.818766 0)
(-0.0781125 -0.811536 0)
(-0.0889339 -0.803909 0)
(-0.0995035 -0.795919 0)
(-0.109842 -0.787563 0)
(-0.119965 -0.77882 0)
(-0.129877 -0.769659 0)
(-0.139577 -0.76005 0)
(-0.149055 -0.749968 0)
(-0.158292 -0.739401 0)
(-0.167261 -0.728354 0)
(-0.17593 -0.716858 0)
(-0.184261 -0.704968 0)
(-0.192211 -0.69277 0)
(-0.199739 -0.680383 0)
(-0.206804 -0.667958 0)
(-0.213371 -0.655676 0)
(-0.219415 -0.643749 0)
(-0.224924 -0.632414 0)
(-0.229901 -0.621934 0)
(-0.234372 -0.612584 0)
(-0.238385 -0.604653 0)
(-0.242014 -0.598434 0)
(-0.245364 -0.594219 0)
(-0.248571 -0.592293 0)
(-0.251811 -0.592932 0)
(-0.255304 -0.5964 0)
(-0.259321 -0.602956 0)
(-0.264192 -0.612852 0)
(-0.270306 -0.626332 0)
(-0.278111 -0.64363 0)
(-0.288099 -0.664931 0)
(-0.300791 -0.690326 0)
(-0.316694 -0.719709 0)
(-0.336222 -0.752626 0)
(-0.359557 -0.788061 0)
(-0.386441 -0.824117 0)
(-0.415886 -0.857571 0)
(-0.445753 -0.88322 0)
(-0.47205 -0.892999 0)
(-0.00739595 -0.796902 0)
(-0.020309 -0.821471 0)
(-0.033147 -0.821546 0)
(-0.0457618 -0.817434 0)
(-0.0581985 -0.811842 0)
(-0.0703438 -0.805465 0)
(-0.0822045 -0.798558 0)
(-0.0938044 -0.791226 0)
(-0.105162 -0.783509 0)
(-0.11629 -0.775411 0)
(-0.127193 -0.766919 0)
(-0.137871 -0.758012 0)
(-0.148317 -0.748666 0)
(-0.158515 -0.738866 0)
(-0.168445 -0.728608 0)
(-0.178079 -0.717905 0)
(-0.187385 -0.706791 0)
(-0.196328 -0.695326 0)
(-0.204872 -0.683598 0)
(-0.212983 -0.671721 0)
(-0.220629 -0.659842 0)
(-0.227788 -0.648133 0)
(-0.234447 -0.636793 0)
(-0.240611 -0.626041 0)
(-0.246299 -0.616117 0)
(-0.251556 -0.607272 0)
(-0.256447 -0.599766 0)
(-0.261066 -0.593857 0)
(-0.265537 -0.589799 0)
(-0.270015 -0.587837 0)
(-0.274693 -0.588198 0)
(-0.279809 -0.591096 0)
(-0.285648 -0.596731 0)
(-0.292554 -0.605287 0)
(-0.30093 -0.616941 0)
(-0.311238 -0.631856 0)
(-0.323994 -0.650164 0)
(-0.339761 -0.671934 0)
(-0.359115 -0.697105 0)
(-0.382591 -0.725378 0)
(-0.410569 -0.756062 0)
(-0.443104 -0.787848 0)
(-0.479696 -0.818506 0)
(-0.518916 -0.844406 0)
(-0.557809 -0.859889 0)
(-0.00749696 -0.781606 0)
(-0.02076 -0.805928 0)
(-0.033996 -0.806331 0)
(-0.0470795 -0.802584 0)
(-0.0600429 -0.797336 0)
(-0.0727574 -0.791278 0)
(-0.0852187 -0.784668 0)
(-0.0974411 -0.777615 0)
(-0.109434 -0.770165 0)
(-0.121202 -0.762329 0)
(-0.132744 -0.7541 0)
(-0.144053 -0.745464 0)
(-0.155116 -0.736405 0)
(-0.165915 -0.726915 0)
(-0.176427 -0.716995 0)
(-0.186626 -0.706664 0)
(-0.196481 -0.695959 0)
(-0.205961 -0.684941 0)
(-0.215036 -0.673696 0)
(-0.223678 -0.662335 0)
(-0.231866 -0.650995 0)
(-0.239589 -0.639838 0)
(-0.246846 -0.629047 0)
(-0.253654 -0.618823 0)
(-0.260048 -0.609383 0)
(-0.266086 -0.600952 0)
(-0.271849 -0.593757 0)
(-0.277446 -0.588026 0)
(-0.283013 -0.583974 0)
(-0.288719 -0.581804 0)
(-0.294766 -0.581701 0)
(-0.3014 -0.583827 0)
(-0.308911 -0.588325 0)
(-0.317642 -0.595317 0)
(-0.327994 -0.60491 0)
(-0.340423 -0.617193 0)
(-0.355446 -0.632234 0)
(-0.373633 -0.650054 0)
(-0.395596 -0.670593 0)
(-0.421944 -0.693634 0)
(-0.453201 -0.718701 0)
(-0.489695 -0.744903 0)
(-0.531372 -0.770738 0)
(-0.577517 -0.793787 0)
(-0.626313 -0.810288 0)
(-0.00751351 -0.76595 0)
(-0.0209698 -0.789908 0)
(-0.0344546 -0.790555 0)
(-0.0478562 -0.787106 0)
(-0.0611951 -0.78215 0)
(-0.0743286 -0.776371 0)
(-0.0872418 -0.770027 0)
(-0.0999404 -0.763234 0)
(-0.112426 -0.756041 0)
(-0.124695 -0.748465 0)
(-0.136741 -0.740504 0)
(-0.148551 -0.73215 0)
(-0.160109 -0.723393 0)
(-0.171395 -0.71423 0)
(-0.182386 -0.704667 0)
(-0.193055 -0.694725 0)
(-0.203375 -0.684442 0)
(-0.213318 -0.673879 0)
(-0.22286 -0.663118 0)
(-0.231981 -0.652264 0)
(-0.240669 -0.641444 0)
(-0.24892 -0.630807 0)
(-0.256747 -0.620519 0)
(-0.264177 -0.610763 0)
(-0.271257 -0.60173 0)
(-0.278055 -0.59362 0)
(-0.284664 -0.58663 0)
(-0.291202 -0.580954 0)
(-0.297815 -0.576773 0)
(-0.304676 -0.57425 0)
(-0.311994 -0.573528 0)
(-0.320012 -0.574723 0)
(-0.329016 -0.577926 0)
(-0.339338 -0.583202 0)
(-0.351361 -0.59059 0)
(-0.365521 -0.60011 0)
(-0.382312 -0.611756 0)
(-0.402283 -0.625491 0)
(-0.426039 -0.64122 0)
(-0.454213 -0.658745 0)
(-0.487412 -0.677702 0)
(-0.526144 -0.697456 0)
(-0.570699 -0.716979 0)
(-0.620935 -0.734659 0)
(-0.676025 -0.748042 0)
(-0.00745764 -0.750101 0)
(-0.020966 -0.773578 0)
(-0.0345659 -0.774378 0)
(-0.0481488 -0.771159 0)
(-0.0617246 -0.766441 0)
(-0.0751387 -0.760898 0)
(-0.0883663 -0.75479 0)
(-0.101405 -0.748234 0)
(-0.114249 -0.741284 0)
(-0.126888 -0.73396 0)
(-0.139312 -0.726267 0)
(-0.151502 -0.718199 0)
(-0.163442 -0.709751 0)
(-0.175108 -0.700924 0)
(-0.186478 -0.691725 0)
(-0.197527 -0.682178 0)
(-0.208229 -0.67232 0)
(-0.218563 -0.662209 0)
(-0.228508 -0.651922 0)
(-0.238053 -0.641555 0)
(-0.247191 -0.631226 0)
(-0.255931 -0.621068 0)
(-0.26429 -0.611232 0)
(-0.272307 -0.601878 0)
(-0.280036 -0.593176 0)
(-0.287555 -0.585298 0)
(-0.294963 -0.578414 0)
(-0.302385 -0.572684 0)
(-0.309968 -0.568257 0)
(-0.31789 -0.565262 0)
(-0.326355 -0.563801 0)
(-0.335599 -0.56395 0)
(-0.345897 -0.565754 0)
(-0.357561 -0.569227 0)
(-0.370947 -0.574349 0)
(-0.386456 -0.581077 0)
(-0.404539 -0.589336 0)
(-0.425702 -0.599022 0)
(-0.450509 -0.609987 0)
(-0.479564 -0.622011 0)
(-0.513485 -0.634762 0)
(-0.552862 -0.647736 0)
(-0.598177 -0.660168 0)
(-0.649667 -0.670922 0)
(-0.707179 -0.678342 0)
(-0.00734201 -0.734206 0)
(-0.0207781 -0.757086 0)
(-0.0343746 -0.757951 0)
(-0.0480164 -0.754894 0)
(-0.0617038 -0.750358 0)
(-0.0752721 -0.745008 0)
(-0.0886878 -0.739102 0)
(-0.101941 -0.732758 0)
(-0.115019 -0.726034 0)
(-0.127908 -0.718952 0)
(-0.140592 -0.71152 0)
(-0.15305 -0.703735 0)
(-0.165263 -0.695596 0)
(-0.177209 -0.687104 0)
(-0.188863 -0.678269 0)
(-0.200204 -0.669114 0)
(-0.21121 -0.659673 0)
(-0.221862 -0.650001 0)
(-0.232146 -0.640168 0)
(-0.242055 -0.630262 0)
(-0.251592 -0.620387 0)
(-0.260769 -0.610663 0)
(-0.269614 -0.601222 0)
(-0.278169 -0.592205 0)
(-0.286498 -0.583759 0)
(-0.294682 -0.576031 0)
(-0.302825 -0.569162 0)
(-0.311051 -0.563286 0)
(-0.319511 -0.558518 0)
(-0.328376 -0.554956 0)
(-0.337845 -0.55267 0)
(-0.348143 -0.551698 0)
(-0.359524 -0.552048 0)
(-0.372277 -0.55369 0)
(-0.386722 -0.556558 0)
(-0.403216 -0.560553 0)
(-0.422156 -0.565541 0)
(-0.443988 -0.571356 0)
(-0.469204 -0.577792 0)
(-0.498344 -0.584586 0)
(-0.531972 -0.591397 0)
(-0.570663 -0.597764 0)
(-0.614954 -0.60305 0)
(-0.665248 -0.606376 0)
(-0.721738 -0.606518 0)
(-0.00717962 -0.718393 0)
(-0.0204364 -0.740568 0)
(-0.0339268 -0.74141 0)
(-0.0475193 -0.738445 0)
(-0.061206 -0.734038 0)
(-0.0748146 -0.728838 0)
(-0.0883036 -0.723099 0)
(-0.101656 -0.716942 0)
(-0.114856 -0.710423 0)
(-0.127883 -0.703569 0)
(-0.140718 -0.696386 0)
(-0.15334 -0.688877 0)
(-0.165726 -0.681039 0)
(-0.177855 -0.672876 0)
(-0.189705 -0.664397 0)
(-0.201255 -0.655621 0)
(-0.212486 -0.646583 0)
(-0.223384 -0.63733 0)
(-0.23394 -0.627924 0)
(-0.244152 -0.618444 0)
(-0.254028 -0.608981 0)
(-0.263586 -0.599642 0)
(-0.272859 -0.59054 0)
(-0.281895 -0.581797 0)
(-0.29076 -0.573537 0)
(-0.299538 -0.565883 0)
(-0.308334 -0.558953 0)
(-0.317272 -0.552853 0)
(-0.326496 -0.54767 0)
(-0.336173 -0.543475 0)
(-0.34649 -0.540307 0)
(-0.357656 -0.538177 0)
(-0.369905 -0.537061 0)
(-0.383494 -0.536895 0)
(-0.398707 -0.537578 0)
(-0.415851 -0.538967 0)
(-0.435264 -0.540884 0)
(-0.457318 -0.543111 0)
(-0.482423 -0.545393 0)
(-0.511024 -0.547423 0)
(-0.543592 -0.548833 0)
(-0.580618 -0.549167 0)
(-0.622582 -0.547846 0)
(-0.669893 -0.544121 0)
(-0.722834 -0.537014 0)
(-0.00698327 -0.702767 0)
(-0.0199716 -0.724141 0)
(-0.0332682 -0.724875 0)
(-0.0467173 -0.721938 0)
(-0.0603043 -0.717608 0)
(-0.0738515 -0.712514 0)
(-0.0873106 -0.706909 0)
(-0.10066 -0.700911 0)
(-0.113877 -0.694576 0)
(-0.12694 -0.687931 0)
(-0.139827 -0.680985 0)
(-0.152515 -0.673738 0)
(-0.164982 -0.66619 0)
(-0.177206 -0.658342 0)
(-0.189166 -0.650203 0)
(-0.200845 -0.64179 0)
(-0.212226 -0.633132 0)
(-0.223299 -0.62427 0)
(-0.234059 -0.615259 0)
(-0.244508 -0.606168 0)
(-0.254659 -0.597074 0)
(-0.264534 -0.588069 0)
(-0.27417 -0.57925 0)
(-0.283618 -0.57072 0)
(-0.292945 -0.562583 0)
(-0.302235 -0.55494 0)
(-0.311591 -0.547885 0)
(-0.321132 -0.541499 0)
(-0.330998 -0.535848 0)
(-0.341344 -0.530977 0)
(-0.352344 -0.526901 0)
(-0.364189 -0.523609 0)
(-0.37709 -0.521051 0)
(-0.391272 -0.519141 0)
(-0.40698 -0.517751 0)
(-0.424471 -0.516711 0)
(-0.444022 -0.515812 0)
(-0.465933 -0.514802 0)
(-0.490522 -0.513388 0)
(-0.518133 -0.511234 0)
(-0.549123 -0.507948 0)
(-0.583863 -0.503073 0)
(-0.622714 -0.496059 0)
(-0.665994 -0.486241 0)
(-0.713928 -0.472799 0)
(-0.00676503 -0.687414 0)
(-0.0194136 -0.707904 0)
(-0.0324434 -0.708454 0)
(-0.0456687 -0.705482 0)
(-0.0590698 -0.701179 0)
(-0.0724658 -0.696153 0)
(-0.0858035 -0.690649 0)
(-0.0990559 -0.684783 0)
(-0.112198 -0.678609 0)
(-0.125205 -0.672154 0)
(-0.138053 -0.665426 0)
(-0.150718 -0.658425 0)
(-0.163179 -0.651149 0)
(-0.175414 -0.643599 0)
(-0.187405 -0.63578 0)
(-0.199136 -0.627707 0)
(-0.210594 -0.619402 0)
(-0.221771 -0.610902 0)
(-0.232666 -0.602251 0)
(-0.243285 -0.593506 0)
(-0.253643 -0.584737 0)
(-0.263766 -0.576017 0)
(-0.273694 -0.567429 0)
(-0.283477 -0.559057 0)
(-0.293182 -0.550988 0)
(-0.302893 -0.543301 0)
(-0.312706 -0.53607 0)
(-0.322736 -0.529356 0)
(-0.333112 -0.523203 0)
(-0.343979 -0.517635 0)
(-0.355494 -0.512651 0)
(-0.367831 -0.508219 0)
(-0.381174 -0.504274 0)
(-0.395719 -0.500714 0)
(-0.41167 -0.497395 0)
(-0.429239 -0.494134 0)
(-0.448647 -0.490704 0)
(-0.470119 -0.486837 0)
(-0.493893 -0.482223 0)
(-0.520212 -0.476509 0)
(-0.549319 -0.469296 0)
(-0.581457 -0.460134 0)
(-0.616852 -0.448504 0)
(-0.655691 -0.43381 0)
(-0.698072 -0.415352 0)
(-0.00653571 -0.672397 0)
(-0.0187905 -0.69194 0)
(-0.0314942 -0.692237 0)
(-0.0444285 -0.689177 0)
(-0.0575698 -0.684856 0)
(-0.0707368 -0.67986 0)
(-0.0838723 -0.674425 0)
(-0.0969458 -0.668664 0)
(-0.10993 -0.662629 0)
(-0.122797 -0.656343 0)
(-0.135523 -0.649813 0)
(-0.148085 -0.643039 0)
(-0.160461 -0.636016 0)
(-0.172631 -0.628742 0)
(-0.184577 -0.62122 0)
(-0.196287 -0.61346 0)
(-0.20775 -0.605479 0)
(-0.218961 -0.597305 0)
(-0.229921 -0.588976 0)
(-0.240641 -0.580539 0)
(-0.251136 -0.572049 0)
(-0.261435 -0.563567 0)
(-0.271578 -0.555162 0)
(-0.281614 -0.546901 0)
(-0.29161 -0.538852 0)
(-0.301643 -0.531078 0)
(-0.311806 -0.523634 0)
(-0.322204 -0.516564 0)
(-0.332958 -0.509894 0)
(-0.344196 -0.503631 0)
(-0.356062 -0.497759 0)
(-0.368708 -0.492234 0)
(-0.382294 -0.48698 0)
(-0.396987 -0.481886 0)
(-0.412955 -0.476804 0)
(-0.430368 -0.471545 0)
(-0.449394 -0.46588 0)
(-0.470198 -0.459539 0)
(-0.492942 -0.452211 0)
(-0.517782 -0.443548 0)
(-0.544862 -0.433159 0)
(-0.574307 -0.420614 0)
(-0.606219 -0.405437 0)
(-0.640654 -0.3871 0)
(-0.677594 -0.365011 0)
(-0.0063044 -0.657758 0)
(-0.0181273 -0.676312 0)
(-0.0304589 -0.676303 0)
(-0.0430473 -0.673105 0)
(-0.0558668 -0.668727 0)
(-0.0687381 -0.663727 0)
(-0.0816015 -0.658334 0)
(-0.094424 -0.652653 0)
(-0.107176 -0.646733 0)
(-0.11983 -0.640595 0)
(-0.132361 -0.634243 0)
(-0.144746 -0.627674 0)
(-0.156964 -0.620882 0)
(-0.168997 -0.613861 0)
(-0.180828 -0.60661 0)
(-0.192448 -0.599134 0)
(-0.203847 -0.591445 0)
(-0.215024 -0.583564 0)
(-0.225982 -0.575519 0)
(-0.236732 -0.567348 0)
(-0.247292 -0.559095 0)
(-0.257693 -0.550808 0)
(-0.26797 -0.542542 0)
(-0.278176 -0.534349 0)
(-0.28837 -0.526283 0)
(-0.298625 -0.51839 0)
(-0.309029 -0.51071 0)
(-0.319676 -0.50327 0)
(-0.330674 -0.496084 0)
(-0.34214 -0.489145 0)
(-0.354198 -0.482426 0)
(-0.366982 -0.475874 0)
(-0.380627 -0.469407 0)
(-0.395273 -0.462913 0)
(-0.411058 -0.456243 0)
(-0.428113 -0.449214 0)
(-0.446561 -0.441604 0)
(-0.466516 -0.433154 0)
(-0.488081 -0.423569 0)
(-0.511339 -0.412517 0)
(-0.536352 -0.399631 0)
(-0.563155 -0.384518 0)
(-0.591749 -0.366748 0)
(-0.622083 -0.345868 0)
(-0.654046 -0.321392 0)
(-0.00607835 -0.643525 0)
(-0.0174454 -0.66107 0)
(-0.0293708 -0.660712 0)
(-0.04157 -0.65734 0)
(-0.0540169 -0.652871 0)
(-0.0665365 -0.647839 0)
(-0.079068 -0.642461 0)
(-0.0915772 -0.636837 0)
(-0.104034 -0.631011 0)
(-0.116409 -0.625 0)
(-0.128679 -0.618805 0)
(-0.140821 -0.61242 0)
(-0.152815 -0.605835 0)
(-0.164645 -0.599042 0)
(-0.176296 -0.592034 0)
(-0.18776 -0.584813 0)
(-0.19903 -0.577384 0)
(-0.210107 -0.56976 0)
(-0.220995 -0.561963 0)
(-0.231706 -0.554019 0)
(-0.24226 -0.545963 0)
(-0.252686 -0.537832 0)
(-0.263019 -0.529667 0)
(-0.273308 -0.521509 0)
(-0.283608 -0.513396 0)
(-0.293988 -0.505362 0)
(-0.304523 -0.497432 0)
(-0.315302 -0.489623 0)
(-0.326418 -0.481936 0)
(-0.337974 -0.474354 0)
(-0.350078 -0.466843 0)
(-0.362842 -0.459344 0)
(-0.376382 -0.451775 0)
(-0.390811 -0.444023 0)
(-0.406238 -0.435948 0)
(-0.422764 -0.427375 0)
(-0.440476 -0.4181 0)
(-0.459447 -0.407881 0)
(-0.47973 -0.396448 0)
(-0.501356 -0.383498 0)
(-0.524328 -0.368702 0)
(-0.548614 -0.351707 0)
(-0.574141 -0.332142 0)
(-0.600789 -0.309623 0)
(-0.628377 -0.283761 0)
(-0.00586299 -0.629708 0)
(-0.0167625 -0.646248 0)
(-0.0282584 -0.645516 0)
(-0.0400353 -0.641941 0)
(-0.0520692 -0.637356 0)
(-0.064191 -0.632268 0)
(-0.0763405 -0.626884 0)
(-0.0884832 -0.621295 0)
(-0.100589 -0.615543 0)
(-0.112629 -0.609639 0)
(-0.12458 -0.603581 0)
(-0.136419 -0.597358 0)
(-0.14813 -0.590958 0)
(-0.159697 -0.584367 0)
(-0.171108 -0.577576 0)
(-0.182355 -0.570579 0)
(-0.193434 -0.563377 0)
(-0.204347 -0.555977 0)
(-0.2151 -0.548391 0)
(-0.225705 -0.540639 0)
(-0.236182 -0.532744 0)
(-0.246559 -0.524734 0)
(-0.256869 -0.516638 0)
(-0.267157 -0.508486 0)
(-0.277474 -0.500304 0)
(-0.28788 -0.492116 0)
(-0.298445 -0.483936 0)
(-0.309244 -0.475768 0)
(-0.320359 -0.467606 0)
(-0.331879 -0.459426 0)
(-0.343895 -0.451189 0)
(-0.356502 -0.442834 0)
(-0.369792 -0.43428 0)
(-0.383858 -0.42542 0)
(-0.398785 -0.416122 0)
(-0.414644 -0.406226 0)
(-0.431496 -0.395546 0)
(-0.449381 -0.383867 0)
(-0.468319 -0.370948 0)
(-0.488301 -0.356522 0)
(-0.50929 -0.340301 0)
(-0.53121 -0.321982 0)
(-0.553945 -0.301251 0)
(-0.577332 -0.277791 0)
(-0.601149 -0.251295 0)
(-0.00566206 -0.616307 0)
(-0.0160917 -0.631867 0)
(-0.027144 -0.630753 0)
(-0.0384752 -0.626958 0)
(-0.0500648 -0.622238 0)
(-0.0617516 -0.617076 0)
(-0.0734779 -0.611668 0)
(-0.0852095 -0.606098 0)
(-0.0969165 -0.600402 0)
(-0.108572 -0.594586 0)
(-0.120153 -0.588645 0)
(-0.131639 -0.582564 0)
(-0.143013 -0.576326 0)
(-0.154263 -0.569913 0)
(-0.165378 -0.563311 0)
(-0.176351 -0.556511 0)
(-0.187181 -0.549505 0)
(-0.19787 -0.542296 0)
(-0.208425 -0.534889 0)
(-0.21886 -0.527294 0)
(-0.229193 -0.519528 0)
(-0.239449 -0.511608 0)
(-0.24966 -0.503555 0)
(-0.259866 -0.495387 0)
(-0.270113 -0.487123 0)
(-0.280455 -0.478775 0)
(-0.290951 -0.470349 0)
(-0.301668 -0.461842 0)
(-0.312675 -0.45324 0)
(-0.324046 -0.444516 0)
(-0.335857 -0.435627 0)
(-0.348186 -0.426513 0)
(-0.361107 -0.417096 0)
(-0.374691 -0.407276 0)
(-0.389002 -0.396933 0)
(-0.40409 -0.385923 0)
(-0.419992 -0.374082 0)
(-0.436725 -0.36122 0)
(-0.454283 -0.347129 0)
(-0.472635 -0.331581 0)
(-0.491717 -0.314331 0)
(-0.511429 -0.295125 0)
(-0.531631 -0.273705 0)
(-0.552142 -0.249818 0)
(-0.572735 -0.223223 0)
(-0.00547771 -0.603312 0)
(-0.015442 -0.617939 0)
(-0.0260442 -0.616448 0)
(-0.0369139 -0.612429 0)
(-0.0480361 -0.607564 0)
(-0.0592593 -0.602317 0)
(-0.070529 -0.596872 0)
(-0.0818127 -0.591307 0)
(-0.0930817 -0.585652 0)
(-0.104311 -0.579909 0)
(-0.115477 -0.574068 0)
(-0.126564 -0.568109 0)
(-0.137554 -0.562011 0)
(-0.148438 -0.555753 0)
(-0.159206 -0.549315 0)
(-0.169854 -0.542683 0)
(-0.180381 -0.535845 0)
(-0.19079 -0.528797 0)
(-0.20109 -0.521537 0)
(-0.211293 -0.51407 0)
(-0.221416 -0.506403 0)
(-0.231483 -0.498548 0)
(-0.241524 -0.490515 0)
(-0.251572 -0.482317 0)
(-0.261669 -0.473962 0)
(-0.271862 -0.465455 0)
(-0.2822 -0.456796 0)
(-0.292741 -0.447976 0)
(-0.303543 -0.438975 0)
(-0.314666 -0.429765 0)
(-0.326173 -0.420301 0)
(-0.338124 -0.410526 0)
(-0.350578 -0.400367 0)
(-0.363587 -0.389732 0)
(-0.377197 -0.378515 0)
(-0.39144 -0.366587 0)
(-0.406334 -0.353806 0)
(-0.42188 -0.340009 0)
(-0.438054 -0.32502 0)
(-0.454811 -0.308646 0)
(-0.472073 -0.290686 0)
(-0.48973 -0.270933 0)
(-0.507636 -0.24918 0)
(-0.525605 -0.225228 0)
(-0.543428 -0.198898 0)
(-0.00531041 -0.590709 0)
(-0.0148177 -0.604468 0)
(-0.0249688 -0.602623 0)
(-0.0353678 -0.598385 0)
(-0.0460066 -0.593374 0)
(-0.0567446 -0.588036 0)
(-0.0675318 -0.582545 0)
(-0.0783381 -0.576975 0)
(-0.0891365 -0.57135 0)
(-0.0999033 -0.565666 0)
(-0.110618 -0.559909 0)
(-0.121265 -0.554056 0)
(-0.131831 -0.548079 0)
(-0.142305 -0.541954 0)
(-0.152681 -0.535657 0)
(-0.162956 -0.529167 0)
(-0.17313 -0.52247 0)
(-0.183208 -0.515555 0)
(-0.193198 -0.508415 0)
(-0.203112 -0.501048 0)
(-0.212966 -0.493456 0)
(-0.222781 -0.485643 0)
(-0.232584 -0.477614 0)
(-0.242405 -0.469373 0)
(-0.252278 -0.460924 0)
(-0.262244 -0.452264 0)
(-0.272345 -0.443389 0)
(-0.282628 -0.434285 0)
(-0.293141 -0.424931 0)
(-0.303932 -0.415295 0)
(-0.31505 -0.405335 0)
(-0.326543 -0.394997 0)
(-0.338453 -0.384213 0)
(-0.350818 -0.372902 0)
(-0.363668 -0.360969 0)
(-0.37702 -0.348303 0)
(-0.390879 -0.334782 0)
(-0.405232 -0.320269 0)
(-0.420044 -0.304616 0)
(-0.435262 -0.287666 0)
(-0.450803 -0.269255 0)
(-0.466556 -0.249218 0)
(-0.482377 -0.227392 0)
(-0.498093 -0.203627 0)
(-0.513512 -0.177794 0)
(-0.00515871 -0.578481 0)
(-0.0142183 -0.591453 0)
(-0.0239213 -0.589289 0)
(-0.0338453 -0.584847 0)
(-0.0439908 -0.579696 0)
(-0.0542286 -0.574268 0)
(-0.0645139 -0.56873 0)
(-0.0748195 -0.56315 0)
(-0.0851207 -0.557546 0)
(-0.0953962 -0.551911 0)
(-0.105628 -0.546226 0)
(-0.115801 -0.540463 0)
(-0.125904 -0.534591 0)
(-0.13593 -0.528579 0)
(-0.145874 -0.522401 0)
(-0.155734 -0.516031 0)
(-0.165511 -0.50945 0)
(-0.175211 -0.502642 0)
(-0.184842 -0.495597 0)
(-0.194414 -0.488307 0)
(-0.203944 -0.480768 0)
(-0.21345 -0.472979 0)
(-0.222955 -0.46494 0)
(-0.232484 -0.45665 0)
(-0.242067 -0.448106 0)
(-0.251738 -0.439303 0)
(-0.261532 -0.430232 0)
(-0.271485 -0.420877 0)
(-0.281637 -0.411214 0)
(-0.292026 -0.401213 0)
(-0.302688 -0.390834 0)
(-0.313659 -0.380026 0)
(-0.324969 -0.368729 0)
(-0.336642 -0.35687 0)
(-0.348697 -0.344367 0)
(-0.361138 -0.331125 0)
(-0.373958 -0.317041 0)
(-0.387137 -0.302002 0)
(-0.400632 -0.285886 0)
(-0.414386 -0.268566 0)
(-0.428317 -0.249912 0)
(-0.442316 -0.229794 0)
(-0.456251 -0.208088 0)
(-0.469965 -0.184682 0)
(-0.483282 -0.159486 0)
(-0.00501897 -0.566615 0)
(-0.013639 -0.578894 0)
(-0.0228985 -0.576454 0)
(-0.032347 -0.571832 0)
(-0.0419941 -0.566556 0)
(-0.0517222 -0.561044 0)
(-0.0614919 -0.555461 0)
(-0.0712793 -0.549869 0)
(-0.0810626 -0.544283 0)
(-0.0908226 -0.538691 0)
(-0.100544 -0.533069 0)
(-0.110214 -0.527384 0)
(-0.119824 -0.521601 0)
(-0.129368 -0.515686 0)
(-0.138844 -0.509608 0)
(-0.148251 -0.503337 0)
(-0.157592 -0.49685 0)
(-0.166871 -0.490128 0)
(-0.176099 -0.483155 0)
(-0.185284 -0.47592 0)
(-0.19444 -0.468416 0)
(-0.203585 -0.460637 0)
(-0.212737 -0.452577 0)
(-0.221919 -0.444233 0)
(-0.231154 -0.435597 0)
(-0.24047 -0.426663 0)
(-0.249895 -0.417417 0)
(-0.259459 -0.407842 0)
(-0.269192 -0.397916 0)
(-0.279121 -0.387609 0)
(-0.289274 -0.376883 0)
(-0.299676 -0.365692 0)
(-0.310346 -0.353983 0)
(-0.321299 -0.341694 0)
(-0.332541 -0.328752 0)
(-0.344069 -0.315078 0)
(-0.355868 -0.300586 0)
(-0.367911 -0.285184 0)
(-0.380152 -0.268773 0)
(-0.392532 -0.251252 0)
(-0.404972 -0.23252 0)
(-0.417371 -0.212476 0)
(-0.429608 -0.191029 0)
(-0.441546 -0.168098 0)
(-0.453025 -0.143619 0)
(-0.00488537 -0.555103 0)
(-0.0130706 -0.566789 0)
(-0.0218918 -0.564124 0)
(-0.0308669 -0.559353 0)
(-0.0400142 -0.553969 0)
(-0.0492277 -0.548387 0)
(-0.058473 -0.542767 0)
(-0.0677297 -0.537167 0)
(-0.0769788 -0.531599 0)
(-0.0862041 -0.526048 0)
(-0.0953928 -0.520482 0)
(-0.104535 -0.514867 0)
(-0.113625 -0.509161 0)
(-0.122659 -0.503329 0)
(-0.131636 -0.497333 0)
(-0.140557 -0.491142 0)
(-0.149426 -0.48473 0)
(-0.158249 -0.478073 0)
(-0.167034 -0.471153 0)
(-0.17579 -0.463956 0)
(-0.184531 -0.456471 0)
(-0.193269 -0.448688 0)
(-0.202022 -0.4406 0)