/*--------------------------------*- C++ -*----------------------------------*\
  =========                 |
  \\      /  F ield         | OpenFOAM: The Open Source CFD Toolbox
   \\    /   O peration     | Website:  https://openfoam.org
    \\  /    A nd           | Version:  9
     \\/     M anipulation  |
\*---------------------------------------------------------------------------*/
FoamFile
{
    format      ascii;
    class       volScalarField;
    location    "130";
    object      p;
}
// * * * * * * * * * * * * * * * * * * * * * * * * * * * * * * * * * * * * * //

dimensions      [0 2 -2 0 0 0 0];

internalField   nonuniform List<scalar> 
112055
(
0.0197549
0.00528353
-0.00403184
-0.00556841
-0.00759586
0.00878938
0.0191555
-0.00543668
-0.00170026
0.0191077
0.00531714
0.0183078
-0.00152761
0.0182996
0.0288873
0.000396353
-0.0696128
0.0224274
0.00528323
-0.00161173
0.000222801
-9.96351e-06
0.0052996
0.000319099
-0.0116438
-0.00294048
0.0413697
0.00705642
0.00874953
0.000245904
0.00976755
-0.0143786
-2.71952e-05
-0.0660916
-0.00172049
-2.27038e-05
-0.00167935
0.0642251
-0.00928732
0.000199396
-0.000219961
-0.00846358
0.00106786
-0.00395244
0.0229585
-0.000623559
-0.0664502
-0.00636495
0.00258325
-0.0082823
-0.0053541
-0.0171297
0.000452955
-0.00905074
-0.00221835
0.019284
-0.00337147
-0.00618434
-0.0102666
-0.000648158
0.0157147
-0.00563345
-8.1405e-06
-6.09506e-06
0.0124632
-0.00202832
0.0667225
-0.00135049
0.00388632
-0.000459509
-0.00618035
-0.0661528
0.00043086
0.0379321
-0.0357838
-0.0423852
0.00539033
0.0196082
-0.0129966
-0.00879811
-0.00152599
-0.0458774
-0.00522321
-0.00278554
0.000426841
0.00286036
-0.00477264
-0.00218663
-0.0325546
-0.00212644
0.00030239
-2.66653e-05
-0.00510495
-0.00764151
-0.0352927
0.00535346
-0.00960692
0.0285464
0.00976153
-0.00342036
-0.00150642
-1.39201e-05
4.60622e-06
0.00616894
-0.0361379
-0.067748
0.0124471
0.00104936
2.97831e-06
0.00284232
-0.0661018
-0.0408266
-0.00216812
0.0077858
0.0038971
0.022153
0.0126766
0.000183079
-0.0303203
-0.00178025
0.00712686
0.007068
0.0190605
0.00163785
-0.000211572
0.00608572
-0.0573475
0.000357407
-0.00248993
-0.0357615
0.00165028
0.0410919
0.0010634
0.0531683
-0.00953584
0.000205834
-5.86906e-05
0.00315541
-0.00369119
-0.0109841
0.00307381
-0.00344815
-0.00936404
0.00943965
0.00110276
-0.00175194
0.0206288
0.00020343
0.00017425
-0.00348072
-0.0683832
1.14163e-05
0.0168433
0.000381163
-0.00366168
0.00751835
0.0105394
0.00786407
-0.00957737
-0.00261837
-0.00215185
-0.000889408
-0.00141304
-0.00170996
-0.000431012
0.000830359
0.0107037
-0.0147081
-0.000498283
0.0125589
0.00918207
0.00749012
-0.0014251
0.00927633
-0.0144615
-0.00179997
0.00244681
-0.00236577
-0.00342409
0.00144677
-0.0142052
-1.47897e-05
0.000983673
0.00979564
-0.0110714
0.016047
-0.000829845
-0.000441656
-0.00926141
8.20073e-05
0.00287332
-2.07506e-05
-0.00207783
0.00715024
-0.00336824
-2.78258e-05
-0.00918651
-0.0402457
0.000898599
0.0105037
0.0629979
0.0139139
0.0158156
-0.000469557
0.00165632
0.0218999
0.0657906
0.0114121
-0.0694473
-1.03954e-05
0.00172831
-0.000195261
0.0202296
-7.97392e-06
-0.00956826
0.0115363
0.00928357
-0.00526399
-0.00118321
-0.00602983
0.000445553
-0.0196176
-0.00201921
-0.00283245
-0.0313976
-0.000517479
-1.29918e-05
0.010535
0.00462967
-5.28731e-05
-2.037e-05
-0.00120937
-0.0109806
0.00617603
-0.0264561
-0.0111163
-3.36636e-05
-2.37443e-05
-0.0720644
0.0990966
-0.000590055
-0.00915857
-0.00114578
-0.000557494
-0.000615807
-0.0263484
-0.00884416
-0.00821365
0.00208522
-0.00583903
-0.000209434
-2.51329e-05
-0.0490104
-0.00126527
-0.00905475
-0.00303668
0.00284139
-0.00252858
-0.0571231
8.82772e-06
-0.0314903
0.022158
0.000773402
0.0164401
0.0535253
0.000166242
0.00177079
-0.00232366
0.0139379
-0.00154679
-0.000214009
-0.0197718
0.000997302
-0.0161155
-0.000927803
-0.00544439
-0.0308298
-0.0685358
-0.0674483
-0.0477201
3.74807e-06
0.00583139
0.0129125
0.00908733
0.00688022
-0.00359369
0.00640238
-3.85256e-05
0.000391388
0.014222
-0.000108732
-3.66527e-05
0.00642258
-0.000890971
0.00621008
0.00685974
0.0115929
-0.00183567
-0.000428283
0.00030854
0.00606579
0.00980484
0.0103868
0.00621684
-0.00662173
0.00105663
0.00103389
-0.00174652
-0.000901085
-0.000187165
-0.00164934
0.00410186
-9.98917e-07
0.00109244
-0.00968491
-0.0201384
-0.00502723
-0.0111774
-0.000793505
-0.000419137
-0.000624562
0.0542287
0.0301586
-0.00181099
-0.00871639
-0.00507758
-0.0037273
0.00113024
0.00587841
-5.22299e-05
0.00461533
-0.00856394
0.012513
-0.00485138
-0.00670574
0.000205319
-3.86679e-05
-0.00046263
0.0042002
-0.0462392
0.0629651
-0.0566817
-0.0111607
6.45644e-05
-0.000882998
-0.00835044
0.000240737
-0.00917335
0.0124813
-0.00139709
0.026404
0.0154118
0.0175248
-0.0408234
-0.00261457
-0.00262171
0.0375324
0.00138798
1.60875e-05
0.0179633
-0.043014
9.85298e-06
-0.00663568
0.107764
0.00214032
-0.0719387
-0.0477925
-0.00515307
0.00597227
-0.00240508
0.0228992
0.0233445
0.0111898
0.016099
0.14037
6.53626e-05
5.97579e-05
-0.00366066
-0.0034441
0.000699473
1.96173e-05
0.00860448
0.0179735
-0.00673755
-0.00186581
-5.85492e-06
-6.24381e-06
-0.00499233
0.0127338
0.022996
0.0044473
0.00158056
0.00248258
-0.0163154
0.037563
-0.000346417
0.00283433
-0.00769756
-0.0092256
0.00219464
0.0214632
0.00514965
-0.0210159
0.0174771
0.000616994
-0.0320362
-0.00621948
-0.000519322
-0.00203948
0.00461432
-0.00481086
8.82078e-05
-0.00105176
8.17725e-05
0.00021445
-0.00822993
0.00774077
-0.00955069
-0.00123642
0.00754632
0.0306237
-0.0021338
0.00252706
0.00778259
0.00639314
-0.00759208
0.0108116
0.000712594
-0.00526064
-0.00641353
-0.00104948
0.0110511
-0.00274835
-0.0148175
-0.00942138
0.0260723
5.72659e-05
-0.0092902
0.098439
0.0255243
-0.00744891
-0.000398781
0.00777155
-0.00725563
0.00526189
9.99813e-06
0.0370669
0.0251595
-0.00858322
-0.00742797
-0.00977428
0.0070673
-0.00212952
0.00903779
-0.00498597
-0.0730848
-0.000426964
-0.000414303
0.00972797
-0.000197025
-0.00206547
-0.00156988
-4.10614e-05
-0.00758934
-0.00881886
-0.00038708
0.00020752
0.0174814
0.00640731
0.000805954
0.0086355
-0.000190413
-0.0027053
-0.0104739
0.00889599
-0.00510135
-0.000884198
0.000438812
-0.00155422
0.000782598
-0.0418206
-0.0755101
-0.00680968
-0.0133248
-0.000329323
-0.0573398
0.014132
-0.000882067
-0.00110313
-0.000859353
5.09834e-05
-0.0301817
-0.00668368
-0.000350708
0.010586
-0.00228877
0.00851353
0.000919177
-0.000865373
0.00195925
0.00141959
0.00188112
-0.00227087
0.0115178
-0.0003511
0.00643323
-0.00065549
-0.044005
0.000164669
0.000208356
-0.00513335
0.0223771
-0.0132417
0.00456413
0.0672905
-0.000265417
-0.000239879
4.68701e-05
-0.00584935
-0.00632245
0.00899432
0.00335685
-3.01169e-05
-0.00196742
0.00481282
-0.00220316
0.000419353
0.0665236
-0.00157015
0.000367731
0.00711876
-0.00366319
-0.0660022
0.0531184
1.77537e-05
0.0148665
-0.00625969
-0.0795889
-0.00256654
-0.000539209
5.5737e-05
-0.000489803
-0.0773113
0.0263644
-0.00968483
-0.00621757
-0.00965522
0.00491906
0.00748048
-0.000105728
0.0264173
0.00675351
0.0104172
-0.0221603
0.00852028
5.24917e-05
-0.0168354
-0.000637339
-0.00037644
-0.00922842
-0.0428517
-0.000135835
0.00181053
0.00147039
0.105627
-0.00196995
-0.0034945
-0.0686827
-0.000333263
-0.0672611
0.00630879
0.0090838
-2.1574e-05
-0.0410475
-0.00137813
0.00578901
0.00709701
-0.0102603
0.0107827
-0.0299083
-0.00125681
1.46626e-05
0.0137535
0.0063239
0.00987944
0.000459488
0.00834929
0.00469328
0.00731426
0.000985319
0.00703943
0.0019247
0.000375074
0.00191111
0.000858452
0.00774718
0.00490381
-0.000584637
0.00696973
-0.00335095
2.68204e-05
-0.00985478
-0.00854446
0.00652125
-0.00123373
0.00479555
-0.00201947
0.00936112
0.0127159
5.06438e-05
-0.00227877
0.0123889
-0.000818462
-0.0038843
0.0517375
0.00678006
-0.000333779
2.64252e-05
-0.00970225
0.00528474
-0.0256103
0.0102401
0.00623713
-0.000897173
0.00647557
-0.0432058
-0.0014222
-0.00566081
-0.00236684
-0.00501305
-0.00380888
-0.0642973
0.00156963
-0.0656484
0.00314758
1.81847e-05
0.000241005
0.00217927
-0.000835128
0.00634276
0.000115298
-0.00057327
-0.00204801
-0.00347985
0.00304745
0.0248168
0.075362
0.00908444
-0.0435698
-0.00393064
-0.0751753
-0.00208744
-0.000246156
0.020348
-0.000211447
0.00150458
0.0111457
0.0157583
-0.00352497
-0.00923149
0.0109875
0.00917637
0.000840356
0.0192039
-2.23077e-06
-0.00165731
-0.0261217
-0.0401091
6.37218e-05
0.00701079
-0.00844676
-0.0216973
-0.0112121
0.0185051
-0.00150726
0.00111679
0.0067862
0.0201105
0.0792957
0.000214105
0.000127532
-0.00211568
-0.000594029
-0.0300954
-0.00196811
0.0139384
-0.00424684
4.16382e-05
-0.0554988
-0.0136623
-0.000214459
0.00851377
0.005455
0.00890977
0.0246925
0.0193474
0.0219665
0.0141535
0.00195224
-0.00433544
-0.00230643
-1.34046e-05
0.00836949
-1.96661e-05
-0.00166319
0.00567267
-0.00205511
-8.51131e-05
0.130718
0.000141242
0.00946342
-0.00118201
-0.000594268
-0.00510454
0.00158377
-0.0118715
0.0140492
0.000638022
0.00596012
-0.000422749
-0.0020089
-0.0020232
-0.000144079
-0.0108929
0.000159421
0.0110288
0.0136386
0.0162001
0.00187498
-0.00197577
-0.000854654
0.0156617
-0.0664603
-0.00204879
0.00755693
0.000111597
0.0502236
-0.00447762
-0.000653555
-0.00350953
-0.0115638
0.000834666
-0.018432
0.00873407
-0.0707045
0.0024514
-0.0103622
0.0122655
0.00499599
0.00671368
0.000254736
-0.000227743
-4.59832e-05
-0.00870037
-0.000628671
0.0119485
0.00750405
0.000129779
0.0175018
0.00138275
-4.86067e-05
-0.00192162
-0.00916321
-0.0296476
0.0397942
0.0661978
0.00738093
-0.00152797
0.000143243
0.00132358
-0.000221505
-0.00439586
-0.000648436
0.000156948
0.000155415
0.00644488
-0.0699959
-0.00114859
7.0065e-05
0.0152227
-0.0121307
0.0184458
0.00135834
-0.000613322
-0.0744523
0.000265226
0.000209616
0.000136291
-0.001682
-0.0118054
-0.00115631
-0.00245466
0.000195689
-0.0382922
-0.00270367
0.00285187
-0.0414334
-0.0019752
0.0061372
0.000212814
-0.00206671
0.0158567
-0.00162637
-0.0113822
-0.106181
0.000141997
-0.0134156
-0.0185579
-0.00825941
0.000120097
-0.022907
-0.00085772
-0.00591335
0.0141549
-0.00258171
-0.0106447
0.00163686
0.00938688
4.47437e-05
-0.0026701
-0.00166077
0.00763549
0.0010964
0.00961444
-0.000881609
-0.0145549
0.0166792
-0.00671443
-0.0106757
-8.53489e-05
4.72355e-05
0.0154509
0.0189688
-0.00086788
0.129693
0.00615793
-0.00311426
0.00685125
0.0119493
-0.00670308
-0.000879313
0.139249
0.0150518
-0.00202503
0.000179244
4.82868e-05
-0.0494627
-0.00188007
0.00919592
0.000117053
-0.00245315
-0.00909091
0.0396633
0.00011228
-0.0107055
-0.00149858
0.0192199
0.00128939
0.00905212
0.00103114
0.0794234
0.000886786
-0.00110924
-0.03809
0.00667138
-0.00284042
0.006842
0.00933787
-0.0297629
-0.00145051
-0.00640378
0.00842878
0.0156068
-0.0716654
-0.0359208
0.00646787
0.00900375
0.00184232
-0.0167476
0.0060285
-0.000382542
0.00013143
-0.000170508
-0.000815398
4.10471e-05
-0.00116581
0.00186434
0.0133174
0.000303318
0.00505155
-0.00179364
0.00667781
-0.00205741
-0.0150158
-0.0438766
0.000928486
-0.00432295
0.0862555
0.00349783
-0.07297
-0.00254416
0.00494987
-0.00812148
0.000261258
-0.00980406
-0.0430131
-0.000633392
0.00573314
-0.006594
0.00554851
0.0187776
-0.00274486
0.00368553
0.00499607
-0.0702355
0.0134003
-0.000426353
-0.0026975
-0.0011854
-0.000255561
0.00103787
-0.000157451
0.000261252
-0.00332885
-0.00757013
0.0061541
-0.000126591
0.00982534
-0.0020303
0.00084752
0.000431585
0.00223461
-0.00163455
6.84148e-05
-0.00503204
-0.000743274
-0.0070882
-0.000253485
0.00968481
0.000160337
0.0149171
0.0112178
4.39527e-05
0.00351752
-0.0294636
-4.2429e-05
-1.91133e-05
0.00234039
-0.0114415
0.0189403
-0.0644609
0.00749491
0.000133854
0.00309432
-0.00416224
0.0223287
-0.000533978
-0.00205428
-0.000619028
-0.0298112
-1.43438e-05
-0.00139574
-0.00212885
-0.00107562
-0.00347532
-0.0109151
-0.0416565
-4.57168e-05
-0.0824325
0.000175148
0.00821065
-0.00458848
0.00638457
-0.0109414
-0.0068165
-0.00247036
-0.0366263
0.0349412
-0.00174907
0.0188455
0.00470098
0.000324592
-7.21543e-05
-0.0365633
0.00988936
0.00578781
4.87125e-05
-0.0132386
0.0036251
-7.55761e-05
-0.00300415
0.0180834
-6.6437e-05
-0.00537237
0.0102283
0.00714357
-0.00114125
0.0123743
-0.00145969
0.00972972
-0.0020608
-0.00270151
-0.00928771
-0.0031839
-0.00420782
0.0413143
-0.0022975
-0.000339243
0.00404134
-0.00136179
-0.0588494
0.00224256
7.84458e-05
-0.000497686
-0.00201475
0.00515975
0.00827416
0.00975983
-0.000622016
0.00716688
-0.0219737
-0.0442637
0.00224209
-0.000715887
-0.00353297
-0.0170161
-0.00011632
0.0052225
1.35875e-05
0.000998886
0.022997
-0.00313319
-0.00458434
-0.00218575
3.5321e-05
0.0655593
0.00671008
0.00490274
-0.00187044
0.00387654
0.0070233
0.0165181
1.23881e-05
-0.0416357
0.00793338
-0.00207524
-4.72558e-05
0.00679157
-0.00392823
-0.0507093
-0.00014903
-0.0194461
0.000321889
0.000476441
0.00672091
-0.0153842
0.000335832
-0.000140968
-0.00425528
-0.000397662
0.00490479
0.0232959
-0.00290754
0.0776474
-0.0295261
-0.00553364
-0.00753084
-0.0448692
0.000174204
0.0165458
0.00975316
0.0116192
-0.0175818
0.000305791
-0.0766715
-0.00103733
-0.00410341
-0.0685536
-0.00157913
0.0102428
-0.00114322
-1.76802e-06
-8.5448e-05
0.00575784
-0.00588424
-0.00230087
-0.00149122
0.000668166
-0.00221219
0.000930254
-0.0133619
-0.00543773
-0.000950401
-0.00103976
-0.000636929
0.000163414
-0.00033437
0.0504507
0.000163588
0.0100193
-0.0372859
0.00255758
0.00637972
-1.71661e-06
0.000187192
0.003026
-0.00955899
-0.00126262
0.000171426
0.000162611
-0.0161269
-0.00775965
-6.35697e-05
-3.14799e-06
0.00063913
0.00254482
0.0203144
0.00551691
0.000205813
-0.000365059
0.00634069
-0.001676
0.0715161
-0.00243089
-0.00148077
0.111101
0.00579614
-0.0721934
0.0114889
-0.00481056
0.0074218
-0.00264532
-0.00573268
0.0146378
0.0287245
-0.0233866
1.44312e-05
0.0787535
0.0019666
-0.0145232
-0.0519621
-0.00508571
-0.00205002
-0.0110932
-0.000607334
0.00276462
-0.000863183
3.8603e-05
-0.00078675
0.016646
-0.000385
0.0102406
0.00187428
-0.00341513
-0.0212298
-0.00374757
0.00259143
-1.45459e-06
0.0158696
-0.00748801
-0.00228658
0.0165927
0.00801889
0.000169667
3.61583e-05
-2.10678e-06
-0.00266599
-0.00361237
0.00921991
0.00750689
0.0250304
0.000129698
0.00483826
-0.00236293
-0.00187322
-0.00992272
0.000694955
0.02982
0.0056561
-0.00191097
0.0356421
-1.54575e-05
-0.078667
0.0190648
0.000316906
0.00603098
-0.00311474
0.110993
-6.94772e-05
-0.0671938
0.000142073
-0.00122818
0.000133934
0.000913439
-0.00358221
0.00206444
-0.00800421
-0.0432958
-0.0163265
-0.00594945
4.91536e-05
-0.0366129
-0.0342038
-0.0637661
-7.47234e-05
0.0898105
-0.0678407
-0.00212528
0.00573132
-0.00812549
-0.000226303
0.000196862
-0.00126104
3.57443e-05
-0.000277515
6.00383e-05
0.0102604
-0.0358556
-0.00318658
0.000996272
-0.0502711
-0.0421498
0.00903607
0.00155595
-0.000894545
-0.00249418
0.00711989
-0.00219662
0.00629983
0.0129602
-0.0112775
0.0563548
0.0027834
0.0309718
0.0019109
-0.000316557
0.00767011
0.000420723
8.50193e-06
0.0144235
-0.0100259
-0.00176293
0.0143681
-0.000383373
-1.45914e-05
-0.00362179
-0.0035722
-0.0660255
-0.00942492
0.0104152
-8.22118e-05
-0.00936298
0.00277598
0.0739725
-0.0492595
0.0097719
-0.000337725
0.00285463
0.0418742
-0.000750314
-0.00276643
-1.59898e-05
0.00525861
-0.00328205
-0.00184476
0.00791061
-0.0122694
0.000325143
-0.00201547
0.000265668
-0.000226843
0.00882251
-0.00141299
0.00248327
0.00756845
0.00477287
-0.0129023
-0.00477354
0.00663471
0.0657113
0.0168455
-7.77787e-05
-0.00214848
0.00369658
0.0103925
-0.0015752
-0.00396676
0.013123
-0.000111414
0.056591
-0.0748083
0.000291297
-0.0042084
0.00856888
-0.00803062
-0.0460773
-0.00547324
-0.000757551
-0.0137593
-0.0740236
0.00976608
-0.00179682
0.0917468
6.71347e-05
-0.00159888
0.00811141
0.00603382
0.00707636
-4.60553e-05
-0.00141359
0.0110857
-0.000219203
-0.0156051
-0.0489949
-0.00912367
-0.0013437
-0.00645669
-0.0016554
-0.000771483
-0.00166878
-0.00318285
-0.00160196
-0.00239959
0.0104119
0.0166761
-0.00680722
-0.011021
-0.00173934
-0.00392299
-0.00862775
2.34517e-05
0.000849684
-0.00144604
-0.00653354
-0.0447024
0.00805991
-0.0412079
0.00347223
-0.00165925
0.0116299
0.000194938
-0.0171928
0.000694622
0.00872281
-2.4718e-05
-0.0160208
-0.00493363
0.000339959
0.0558535
0.000370644
-0.00875947
0.000192579
-0.00350517
-0.00411859
-0.00615856
0.00805187
0.00474111
0.0475045
-0.0129142
0.0106557
-0.00229282
-0.0114721
-0.00486221
-0.00229801
0.00015226
-0.00418582
-0.00937909
0.000317668
-0.00110418
0.0102189
-0.0167666
-0.0660872
-0.000227507
0.00197949
0.00352359
0.0084305
0.00373134
0.0238718
-0.00156778
5.95984e-05
-0.00577418
0.00644091
0.00462443
0.00847222
-0.0243093
-0.0189573
-0.00203924
-0.0652874
-0.00142872
0.0114682
-0.00150614
0.000180859
-1.24066e-05
0.00829465
0.0247218
-0.000385077
-0.0506836
0.0600298
0.0021246
-0.0172559
-0.00443018
0.00989262
-0.0320061
-0.0295519
-0.00516166
-0.0066852
-0.0108585
0.00774022
0.00467766
-0.0646209
-0.00414658
0.0261527
0.0115056
0.00015828
0.0132953
-0.0132546
-0.00158259
0.00601438
-0.0195816
0.00347414
-0.00196214
-1.18411e-06
-0.00124395
-0.038607
-0.000223948
-0.0660738
-0.0750056
0.00119633
-0.000149051
-0.0232343
0.012706
-0.000538385
-0.00176338
-0.0345921
0.014737
-6.47827e-05
0.00458272
0.0832361
0.00590259
-0.0169423
-0.0101431
0.00997919
-0.000533939
-0.0681815
-0.00266434
0.00341428
-0.0829466
0.108977
0.00362353
0.00858817
-0.0203878
-0.00173659
0.00996197
0.000413952
-0.00253179
-0.00197406
-0.00132489
0.0166458
0.0987757
0.00848405
-0.00128847
-0.000544592
-0.000972793
-0.00158709
-0.00118849
0.0463036
6.78675e-06
0.0498659
-2.09362e-05
-0.00187211
-0.0428185
-0.00299806
-0.00664779
-0.00068321
-0.00222095
2.79944e-05
0.0102088
2.92165e-05
-1.20586e-05
0.00147884
0.000600986
0.0456665
0.00501354
0.015209
-0.0518864
-1.07354e-05
0.0083042
-0.0729136
0.00331966
0.00952044
0.000630374
0.0229592
0.0331286
-0.0499217
-0.00638494
-0.00200616
-0.00195915
-0.00868178
-0.000138823
-0.00409769
0.0113555
-0.0038706
-0.00636219
0.0369719
-0.00395715
-0.00194776
0.0148927
-0.106421
0.00544114
-0.000696473
0.0089019
9.83951e-05
0.00802488
1.72504e-05
4.33217e-05
0.00828292
-0.000548253
-0.00245188
0.0120474
0.00205689
-0.00167505
-0.00164699
-0.00120632
0.00584885
0.00722888
-5.60778e-05
-0.00639369
-0.00306929
-0.0159288
0.00011871
-0.00264772
0.000624964
9.66665e-05
0.125006
-0.00146052
0.00678811
-0.00512712
-0.0531424
0.00643712
-1.04585e-05
-0.00114473
0.00963089
-4.51567e-05
0.0159173
-0.0640527
-0.0109557
0.0108375
0.0490095
2.0545e-05
0.0116981
0.000152249
0.00687084
-7.81341e-05
-0.0141334
-0.0140408
0.00021151
-0.0144914
0.00884308
0.00715132
0.0137192
9.9845e-06
-0.00119236
3.5136e-06
0.000636521
0.00963929
-0.000220978
0.000174012
-0.0116455
0.00019979
0.00185409
5.51839e-05
-0.0522334
0.000116421
0.00694125
0.00895861
-0.0102993
0.00953894
0.00573061
0.00608045
-0.00909692
-0.000798955
6.2328e-05
0.00771087
-0.00114993
-0.00485167
-8.58764e-05
-0.0676111
0.00403385
0.00982035
0.0187149
-0.00915715
-0.00471436
-0.00507307
-0.00127451
0.00423888
0.00844312
0.00957722
0.000794203
0.0299818
0.0078738
0.00171705
-0.000408872
0.023757
-0.000715436
0.0089881
9.70825e-05
0.00131279
-0.0171575
-0.0372328
-0.00226847
0.00692435
0.0283189
0.0651358
0.011586
0.00522571
-0.0136601
-0.0021025
-4.03506e-06
-0.00252498
-0.00536888
2.67368e-06
5.28094e-06
0.00944129
3.39366e-05
0.00284377
-0.0108314
-0.000220193
-9.56271e-05
-0.0644194
-0.0700218
0.000365724
0.000194485
-0.0293743
-0.000121767
0.0160492
-0.00324772
0.0145492
0.00703837
-0.000523352
-0.00833857
0.00561089
6.27414e-05
-9.42726e-05
-0.00147678
-0.000278591
-0.00276418
0.00870538
0.0133804
-0.0646108
-0.00512993
0.00226434
-0.00155422
6.91175e-05
0.000168794
0.000142035
-0.000298881
-0.0411784
-0.0260504
-0.000253617
-0.00224113
-0.0384967
0.000409852
0.00580256
-0.00321814
-0.00323373
-0.0013509
0.0117104
0.00819936
-0.0067175
0.00780216
-0.00065443
-0.00159771
-3.24207e-05
-1.40564e-05
0.0213858
-0.0646736
-0.068067
0.0362881
0.0037458
0.00702486
0.000579123
0.0232593
-0.0184663
0.00825783
-0.051676
0.00776694
-0.0761237
-0.00143049
-0.0159483
0.00203463
-0.00249452
-0.00778685
0.0470786
-0.0499397
0.000478813
-0.00375545
-0.0013924
-0.00669165
-0.00117566
0.00925756
-5.88e-05
0.00598769
0.00913331
-0.000845707
0.00407806
-0.029677
-0.018978
0.0074748
-0.00114463
-9.24917e-05
-0.0720542
0.00602707
-0.000456695
-2.81257e-06
-0.000184164
-0.00203312
0.00932334
0.000578123
0.018209
0.00865963
-6.56742e-05
0.000143949
-0.0123883
-0.0660619
0.00609898
0.0102344
-1.78785e-06
0.00174813
0.0074764
3.2466e-05
-0.00760704
0.0423107
-3.48616e-05
0.000884884
0.0110492
-0.00472618
-0.0274022
-0.0671287
0.00844207
-0.0482971
0.000149224
-0.0126657
-0.00306849
-0.00176555
0.000314408
0.0111017
1.25149e-05
-0.00976367
-0.00763266
-0.00186481
-0.0686238
0.0097705
0.00669331
-0.0214423
0.00543092
0.00215872
-0.00768315
0.00700992
-0.0020943
0.000267488
0.0125119
0.00475113
0.000143248
-0.00133769
0.010309
-0.00210777
-0.00705315
-0.0163499
-0.000830639
-0.0104019
0.00600743
0.000413203
-0.00988266
-0.00150257
0.00688225
-7.24982e-05
0.0118649
0.000583467
0.0118123
-0.00159355
-0.00275377
0.0064482
0.0110725
-0.00173793
-0.0081288
-0.00101371
-0.00211543
0.0112935
-0.0395407
0.000292723
-0.0455768
-0.00155902
-0.00436949
-0.00204499
-0.00935701
-0.0042354
0.00344785
-0.0054186
0.00635643
-0.0204594
1.45321e-05
0.000160595
-0.0245485
-0.0104219
-0.0023708
-0.00356384
0.00699175
-0.00779167
-0.0151243
0.0101412
-0.00209213
0.00976419
-0.00248101
0.0269928
-0.00280321
0.00169043
-0.00141191
-7.03946e-05
-0.00128457
-0.00132517
0.00120454
0.00102187
0.00786761
0.00667916
0.00879442
0.0122148
-0.00138682
0.015482
0.00544987
-0.0691513
-0.00350765
0.000215149
-0.0619086
0.00720011
-0.0494334
0.00503612
-0.00618362
0.00124272
0.00801644
-0.0149253
-0.00112868
-0.00300972
0.000123054
-4.50849e-05
-0.00210927
0.00505553
-0.00487549
-0.000214798
0.00264538
0.00691866
-0.00199025
0.00969871
1.94966e-05
0.00885092
-0.0716575
0.056594
0.00932611
-0.0223279
-9.26724e-05
0.00531802
0.00267392
-4.74112e-05
0.000861336
-6.65834e-05
-0.0131296
0.0291991
-0.000351266
-0.000145179
-0.00490467
-0.0017932
0.00221758
8.979e-05
0.000447855
0.000241062
0.00908037
0.000147987
-0.00107055
-0.000701419
-0.00234532
0.0120299
0.0117637
0.000544881
0.0381294
-0.00383525
0.000779686
0.00746655
0.000599238
9.71181e-06
0.010022
0.000147858
0.000577074
-0.00596673
-0.00481729
-0.0047441
0.00378324
0.00971784
-0.00152255
0.0282119
0.00759564
1.51001e-05
0.00230988
-0.0615525
-0.00596428
0.00467756
0.000131586
-0.000678121
-0.0149203
-0.00258137
-0.00216117
0.0195725
-2.19717e-05
-0.0137705
0.000112616
0.00988752
-0.00791714
-0.0131315
0.00322492
-0.00109367
0.00976661
-0.00198267
0.00332061
-0.00375592
0.00868016
0.00321485
5.55266e-05
-3.03313e-06
-0.0305886
-0.0550348
-0.0541221
6.84036e-06
0.00769044
0.0394974
-0.00855384
0.000140844
0.0111188
-0.00013871
-0.00317635
-0.022708
-0.00784197
-0.00107668
-0.0525347
0.000369145
-0.00215385
-0.000150594
0.0118104
-0.0551639
-0.00230955
-0.00231934
0.00396973
0.000910468
0.00025036
-0.00139445
0.000108091
-0.0147264
-0.000133786
-0.0346407
-0.00581162
0.0104536
0.0125653
0.00505696
0.00385126
-0.00216162
0.000518767
0.00529573
-0.000485043
0.0201124
0.0104946
0.0030813
0.000180277
-0.00116931
0.087982
0.0191323
-0.00200345
0.0271627
0.00641173
0.00055025
0.00912493
-0.00012423
0.00439413
-0.0101174
0.00260076
0.00586555
-0.000658509
0.024839
-0.000649428
0.000284368
0.016344
-0.000497845
-0.00652231
0.00597568
0.0178766
8.15464e-05
0.017513
-0.00465908
-0.00900236
0.000532715
0.0360886
-0.0551348
0.0073617
0.000106346
-0.00192099
-0.00224021
0.00285262
0.00650143
0.00747025
-0.0380349
0.00620211
-0.0265684
0.00147697
-0.039179
0.00336771
-0.00211044
-0.00344719
-0.000752469
0.0226946
-0.00143185
0.058454
-0.00808379
-1.09742e-05
0.000731395
3.09975e-05
0.0078633
0.00612859
0.00560741
-0.00144918
-0.00287277
-0.0515057
-0.00945257
-0.0204825
-0.000207719
0.000471433
0.00162883
0.00522827
-0.00239386
0.00983854
-0.00400099
0.00378992
0.00761616
-9.5059e-05
0.0328106
0.00814239
0.030647
-0.00131343
0.000412621
-0.0187401
0.00898666
-0.0752813
-0.00318218
-0.000106526
-0.0114699
-0.00321972
0.00893451
0.000804051
0.012265
-0.000108122
-0.00115374
9.72191e-07
-0.000677681
-0.0190891
0.0212614
-0.0148788
-0.00795779
-0.0307555
-0.00141055
-8.13504e-05
0.023231
0.0186906
-0.000728256
-9.84687e-07
0.00874483
0.00434516
-0.000227993
-0.0014875
-0.0138769
-0.0710396
-0.000707496
0.00956506
-0.00128421
-0.00397709
0.00252885
0.0306036
0.0139808
-0.0019487
-0.00236167
0.00399346
-0.00159087
-0.0748661
2.56597e-05
-0.0694414
0.00576744
0.0137436
-0.000520969
-0.00373356
-0.0665675
0.0774083
0.000163028
-0.00322978
-0.00212905
-0.000262316
0.000272443
0.000163558
0.0089317
0.0226232
-0.00202857
0.0082513
-0.0449152
0.00710531
-0.00667031
-0.0287325
-0.00300197
0.0321293
0.000156094
-0.0717642
0.00721533
-0.000145024
2.3182e-06
-0.0291014
-4.90366e-05
-0.0144836
0.00627631
-0.0263799
0.00771907
0.0142562
-0.00334664
0.00926634
-0.000744755
0.0097187
-0.0491346
0.0124348
0.00678315
3.73175e-05
0.0167808
0.0056526
-0.000158595
0.00747534
0.00501555
0.00583327
-0.0736821
-0.000249499
-0.055683
-0.00149068
0.029596
-2.91569e-06
-0.000259498
0.0148672
-0.04263
-0.005782
0.00153154
0.000477559
0.0350585
0.00596867
0.0175183
9.81267e-06
-0.000908451
-0.0729911
0.00578439
0.00474145
8.45139e-05
0.00776805
-0.00050929
-0.00214095
-0.000153462
-0.0044074
0.000101939
4.91236e-05
0.000710921
0.00953948
-0.00724245
0.00342698
-0.0263772
0.000410761
-0.00692517
0.00117864
-0.00656713
-0.00520606
-0.00116981
0.00367113
-0.00642192
0.0120733
-0.00973898
0.0228127
-0.00139222
-0.00310426
0.00700937
0.000524111
-0.00346872
0.00264501
0.022089
0.00808403
0.0802929
-0.000785102
0.00396185
0.00772264
0.0165685
0.0207969
0.00173563
0.000104316
0.000519377
4.43509e-05
-0.00155642
-0.00289608
0.0680998
0.0955345
-0.00667136
-0.00779681
0.00967331
0.0152474
-0.00473687
-0.00106557
-0.0858035
0.0100594
0.000331109
0.0074066
-0.00099545
0.00050338
-0.008674
-0.0129119
0.00110128
0.0203158
0.000160107
-0.0698356
-0.000765628
0.00739872
-0.00845259
0.000149037
-0.00597241
0.00278342
-0.00841935
-0.000632256
0.000478978
0.000343582
-0.0485521
-0.0167962
0.00910946
0.000363355
0.0179106
0.006204
-0.0420455
-0.0451782
0.0136386
-0.00485916
0.0093936
0.00732228
-0.00126685
0.00814626
-0.00335647
0.00988109
-0.00266839
-9.52792e-05
0.00185743
-0.000125871
-0.00189791
-0.0715534
-0.00467677
-0.000460314
-0.00328755
0.000538518
0.00372206
-0.0638675
-0.0690357
0.00638052
0.0286324
-0.0702072
-0.00210877
-0.0743115
0.00292414
-0.00441687
0.0098198
0.0112483
0.00744905
-0.0156592
0.00225281
-0.0685856
-0.074293
0.00325037
-0.00478248
0.00975645
-0.0499409
-0.00378593
-0.000544329
-0.0743185
-0.0674908
-0.0450792
0.00473758
-0.000261882
0.0082309
0.000672505
0.000137481
-0.0020017
-0.00135287
0.00976846
-0.00834803
0.00036669
-0.00100653
0.00544884
0.00865095
0.0108228
-0.060419
-0.00226565
7.53093e-06
-4.08978e-05
0.00608608
-0.00855873
0.0178681
-0.00559429
0.00771007
-0.00709112
-1.25464e-05
0.00643218
0.000123592
0.0089304
0.00754858
-0.00275824
-0.00851749
-0.0122431
0.0287397
-0.00148241
0.00714471
-0.00199559
-0.00724363
-0.0675647
-0.00122535
-0.00630872
-0.0428998
-0.055892
-0.00141542
-0.0719698
-0.0269494
0.00422325
0.00550732
7.94701e-05
0.00249173
0.00706122
0.0166918
0.000498569
-0.00668516
-0.000694738
-3.70267e-07
-0.00899288
-0.0077697
-1.2827e-06
0.00993038
-0.000645633
-0.00132976
-0.00209101
0.029396
0.00136624
0.00576802
-0.00953605
-1.0332e-05
-0.0124556
-8.51329e-06
0.000780862
0.000388277
-0.006578
-0.0628132
0.00214952
0.0226376
-0.0107713
-0.0451285
-0.00210185
-0.00196355
-0.00111597
-0.0512917
-0.0227252
0.00155788
9.70458e-06
-0.0730836
0.0102951
0.000961185
0.00825072
0.0398641
0.00411418
0.00654992
0.00012002
0.0465465
0.00299788
0.00641197
0.00755156
1.24602e-05
1.19672e-05
0.000652196
-0.0111058
-0.035359
-0.0374822
-0.0114643
0.0101749
-0.000447594
0.00724009
2.88669e-05
-0.000143067
0.000181164
0.000100254
-0.00135756
0.000243552
-0.00293327
-0.0701947
0.000375007
-0.0449541
0.0115685
0.000465456
-0.000145785
-0.00524552
0.00339358
-1.41997e-05
0.000352457
-0.0112468
0.00807668
0.000392314
2.14413e-07
-0.000131434
0.00513554
-0.00137842
-0.0773511
-0.00621865
-0.000834276
-0.00086505
0.00635456
0.0159698
-0.001473
3.0149e-05
-0.064612
0.000179827
0.0101671
0.00695928
0.00640762
0.00238997
0.00891748
0.00613244
0.0320789
0.00975848
-0.000727774
-0.00266938
0.00211684
0.00483877
0.00377935
-0.0251882
-0.00563229
0.00655495
-0.000419379
-0.0108472
0.00744111
0.0013113
-0.00547463
-0.000258442
-0.00345099
-0.0268398
-0.000758932
0.0448959
0.000518468
-0.00261409
-0.000245977
0.00668887
-0.0539123
0.0010969
0.0329021
0.00549868
-0.00856524
0.000112257
-8.11972e-05
-0.00209558
0.00890915
-1.02268e-06
-0.000200839
0.00928145
0.0280687
0.00535028
0.00789397
-0.0061997
-0.0294488
0.00886829
-0.00751487
-8.74265e-05
-0.0264879
-0.0110441
0.0024121
0.00466591
0.0034801
0.00985464
0.0066718
0.00478747
0.00161204
9.18015e-05
0.042004
0.00836011
1.15331e-05
0.00749593
-0.0106188
0.0057306
0.00596841
-0.0057691
-0.000583792
-3.10484e-06
0.000491998
0.00803194
-0.000144645
-0.00692127
0.0123293
-0.00380892
3.08877e-05
-0.00148284
0.0115167
-0.00611948
-0.00975195
8.85861e-05
-0.027745
0.000801919
-0.00591182
-0.000882432
0.00123707
-0.000127179
0.000123333
-0.0107879
-0.00109806
0.000153127
0.0068494
-0.0130884
-0.0632797
0.000163022
0.000446481
0.00550937
-0.00101238
-0.0151479
0.00690141
0.00325621
-0.00239868
0.000722217
-0.00362876
0.016589
-0.0016722
0.00552137
0.000157552
-0.00333702
0.0157048
-0.0265448
0.00800463
-0.0232998
-0.00113796
-0.00311217
4.04712e-05
-0.0324655
0.0002422
0.00643332
-0.000430189
0.00736323
0.000141864
0.0001413
-0.000948273
-0.0540348
0.0155692
-0.0354246
0.00559965
0.0055836
-0.0020851
0.00163391
-0.0106004
-0.000423048
4.32436e-05
-0.0011028
-0.00115166
-0.00113318
0.00680743
0.00167765
0.00751063
0.00897875
-0.0146409
4.97902e-05
-0.00939267
0.0043709
-0.01572
0.00578376
0.011203
-0.0140514
0.000474358
-0.00116632
0.0150181
-0.00150796
-0.00620139
0.0425742