/*--------------------------------*- C++ -*----------------------------------*\
  =========                 |
  \\      /  F ield         | OpenFOAM: The Open Source CFD Toolbox
   \\    /   O peration     | Website:  https://openfoam.org
    \\  /    A nd           | Version:  9
     \\/     M anipulation  |
\*---------------------------------------------------------------------------*/
FoamFile
{
    format      ascii;
    class       surfaceScalarField;
    location    "130";
    object      phi;
}
// * * * * * * * * * * * * * * * * * * * * * * * * * * * * * * * * * * * * * //

dimensions      [0 3 -1 0 0 0 0];

internalField   nonuniform List<scalar> 
167688
(
-0.0422652
0.025433
0.0168322
0.00808137
-0.0735589
0.0654775
0.0357259
0.0483572
-0.0840831
0.0391089
-0.0844353
0.0453264
0.113613
-0.0970565
-0.0165568
-0.0730736
0.0131435
0.0599302
0.0419913
-0.0247494
-0.0172419
-0.037775
0.0768839
-0.125176
0.042425
0.082751
-0.0261988
-0.0037004
0.0298992
-0.0516385
0.0597198
-0.061701
0.0350183
0.0266827
0.117285
-0.0897454
-0.0275399
-0.0465194
-0.0151816
-0.0374147
0.0169911
0.0204235
0.0413361
0.0330294
-0.0743655
0.0204887
-0.00273713
-0.0177515
0.0213055
-0.0260808
0.00477531
0.0301417
0.0388411
-0.0689828
0.108183
-0.0662332
-0.0419502
-0.0859937
-0.0216203
0.107614
0.0516481
0.0518762
-0.103524
0.0626047
-0.032463
-0.0888742
0.0646418
0.0242324
0.0900527
-0.00953279
-0.0805199
-0.081979
0.0331199
0.0488591
0.0123558
0.0104887
-0.0228445
0.0718381
-0.0801997
0.00836154
-0.091162
0.0180883
-0.00198309
-0.0840106
0.011744
0.0691919
-0.0809359
0.0613221
-0.057906
-0.00341617
0.136546
-0.122908
-0.0136382
-0.016291
0.010937
0.00535394
-0.0712322
-0.0539438
-0.118924
0.0792747
0.0396494
0.0524997
0.0556837
0.00456804
-0.0141257
0.00955762
0.0266202
0.0382107
-0.0648309
-0.0586351
-0.0370586
0.0956938
0.0339964
-0.0924368
0.0584404
-0.0636051
0.014351
0.0492541
-0.0744255
-0.0108641
0.0852896
0.0650811
-0.0293552
0.0413271
-0.0200216
0.0402943
-0.0670766
0.0267823
-0.0122177
-0.00407323
-0.0807915
-0.0181524
0.0989439
-0.0953352
0.0332874
0.0620478
-0.00228059
-0.0613245
0.0697035
-0.0290239
-0.0406796
-0.0265692
0.023441
0.00312816
0.0935402
-0.0891781
-0.00436207
-0.0550564
0.0816766
0.00641951
-0.0701158
0.0636963
0.0228588
0.0191325
-0.0836404
0.0415203
0.0421201
0.0719586
-0.00599021
-0.0659684
-0.0344697
0.00439504
0.0300747
0.0724803
-0.032186
0.00855559
0.0326631
-0.0412187
-0.0166315
-0.06416
0.118791
-0.0350751
-0.0837159
-0.000571821
0.119363
-0.00717753
-0.0295831
0.0367606
0.125941
-0.0731122
-0.0528292
0.0143733
-0.00980522
0.112127
-0.0932803
-0.0188469
-0.0612827
0.00548675
0.0557959
-0.085168
-0.0162344
0.101402
0.0680999
0.0038587
-0.00326204
0.00332717
-6.51311e-05
-0.061879
-0.0269953
-0.026934
0.0213424
0.00559158
-0.0160282
0.041593
-0.0255648
-0.0096271
0.0126835
-0.00305637
0.090325
-0.00565676
-0.0846682
-0.0194064
0.0462801
-0.0236064
-0.0226738
-0.0586707
0.00361433
0.00475516
0.0700288
-0.0747839
-0.00222228
-0.00740482
0.0472392
0.0224643
-0.0649064
-0.0170726
0.111881
-0.0705445
0.0157612
-0.0699666
0.0542055
0.0718027
-0.0509439
-0.0208589
0.0669741
-0.0605546
0.0212811
-0.00830075
-0.0129804
-0.0663524
0.0844669
-0.0181144
0.136844
-0.0593435
-0.0775002
-0.0498893
-0.0690348
0.0355654
0.0362373
0.0381947
0.0754186
0.0291819
-0.0452101
0.118435
-0.0281104
0.0763484
-0.0492607
-0.0270878
-0.0282772
-0.00913744
0.0787728
-0.0670288
-0.0573248
-0.0263156
0.0591011
0.0581842
0.113503
-0.108955
-0.00454802
-0.0932323
0.067289
0.0259433
0.0632175
-0.102645
0.0394279
-0.00599545
0.0360933
-0.0300979
-0.0172646
0.00349039
0.0137742
-0.0484648
0.0412873
-0.0624211
0.095572
-0.0331509
0.0788335
-0.118095
0.0392619
-0.0639712
0.0797324
0.000929798
-0.00419184
-0.0500646
0.0493328
0.000731755
0.0453182
0.0317587
-0.077077
-0.0724233
0.0469362
0.0254871
-0.0754415
0.0141588
-0.0577372
0.0202051
0.0375321
0.0423814
-0.00480763
-0.0375738
0.00661749
-0.0726862
0.0660687
0.0079407
0.0133404
-0.127523
0.0896685
0.0378548
0.0510526
-0.0822825
0.0312299
-0.00808678
0.0799249
-0.039987
0.0137882
0.0594605
-0.0815645
0.0221041
-0.0555964
0.0895927
-0.0200259
0.0832434
-0.00264049
-0.0171846
0.0198251
0.00113223
0.0653876
-0.0665198
-0.0852953
0.0218982
0.0633971
0.0339651
-0.0399606
-0.0252958
0.0847563
0.0303797
-0.0180239
0.0232685
0.0713384
-0.0946069
0.0210157
-0.00446312
-0.0165525
-0.0163723
0.054583
-0.105107
0.0464721
0.128985
-0.0909399
-0.0380449
0.10294
-0.0744598
-0.0284803
-0.0441974
-0.0277676
0.071965
0.0598127
0.00474264
-0.0645553
0.039877
0.0630632
-0.0787777
0.0637929
0.0149849
-0.0712987
0.000158897
0.0711398
-0.00849964
0.0134397
-0.00494003
0.0158421
-0.0782632
-0.0695476
0.0388771
0.0306705
0.02404
0.00552849
-0.0295685
-0.116093
0.0345441
0.0815492
0.0759532
-0.0693357
-0.0921542
0.085742
0.00641218
-0.0180226
0.000757956
-0.033082
0.0847301
-0.0366362
0.0514625
-0.0148263
0.00954672
0.0839935
-0.0871771
0.0429797
0.0707048
-0.0350996
-0.0356053
-0.086439
0.0749695
0.0114695
-0.0255096
-0.0469137
-0.0365722
0.00210243
0.0374131
-0.00224912
-0.035164
0.0979667
-0.0526485
-0.0985701
0.0608363
0.0377338
0.0078739
0.0454147
-0.0532886
-0.073181
0.036426
0.036755
-0.0869031
0.0943147
-0.00741159
0.0843617
-0.00547135
-0.0788903
0.0522491
0.00501438
-0.0572635
0.0227046
0.0386176
-0.0884683
0.00752291
0.0809454
-0.0564382
0.0604373
-0.00399914
0.0178434
0.0426535
-0.0604969
0.065182
0.00552287
0.089732
-0.0818581
-0.0189772
0.0104775
-0.0170097
-0.0463594
0.0633691
-0.0453013
-0.0822219
-0.0902776
-0.00505755
0.121919
-0.0304667
-0.0914521
0.0651012
-0.0502966
-0.0148046
-0.0106235
-0.0719308
0.0825543
-0.0523668
0.0353571
0.0846886
0.019907
-0.104596
-0.116079
0.014454
0.101625
0.072193
-0.102155
0.0299624
-0.0716474
0.0440076
0.0276397
-0.0456865
0.0331688
0.0125177
-0.0599534
-0.0386166
-0.00404078
-0.0828623
-0.0738681
0.00256948
-0.0693275
0.019335
0.0499925
0.0104314
0.049518
-0.0599494
0.0853844
0.0511615
-0.107015
0.0406621
-0.0199643
0.0710169
0.100829
-0.0477277
-0.0531012
-0.140453
0.0972797
0.0431729
0.0594709
-0.067346
0.00787513
-0.0069648
-0.0430998
0.1003
-0.0436096
-0.0566907
-0.029372
-0.057067
0.0014885
-0.0134545
0.0119659
-0.0179423
0.0423053
-0.024363
-0.0284477
0.0370033
0.0234912
-0.0779947
0.0545035
-0.0775918
-0.0282212
0.105813
-0.0347405
-0.0229967
-0.0196344
0.0043109
0.0153235
0.0200188
-0.0444675
0.0244487
0.0317718
-0.0112831
0.075763
0.015854
-0.091617
-0.0984471
0.0746603
0.0237868
0.114743
0.00244662
-0.11719
-0.0153965
0.0394365
-0.0174693
0.0804119
-0.0040635
-0.0202099
0.0402287
0.0554717
-0.0376283
-0.0567365
-0.00522139
0.0619579
-0.134425
0.0435436
0.0908818
0.082842
-0.0304044
-0.0524376
-0.105759
0.0212276
0.0845311
0.0188746
-0.0435129
0.0246383
0.0951961
0.0307453
-0.00809533
0.0455084
0.0633659
-0.0147863
-0.0485796
-0.112754
0.0242859
0.0174911
0.096012
-0.0184325
0.0471574
-0.0287249
-0.042007
0.0701726
-0.0281656
0.074399
-0.105791
0.0313918
-0.113917
0.0395523
0.0743649
-0.0725691
-0.0618563
-0.0419563
-0.0296911
-0.114853
0.0489447
0.0659081
0.0295483
3.93981e-05
-0.0295877
-0.0792908
0.0166205
0.0626703
-0.0861641
-0.0542885
-0.0346425
-4.95668e-05
0.000434964
-0.000385397
-0.00198642
-0.00442805
0.00641448
-0.06488
-0.0160031
0.0808831
-0.0379913
0.0489054
-0.0109141
0.112841
-0.0799984
-0.0328425
-0.111932
0.0470519
-0.0163165
-0.0672985
0.0836151
0.0399022
-0.0103539
0.0681051
0.00805505
-0.0761601
0.0296425
-0.0633529
0.0337104
0.114771
-0.0573849
-0.0573865
0.0215546
0.0612874
0.0244296
0.0354753
-0.0599049
0.103382
-0.018693
0.0211065
-0.0133944
-0.0077121
0.0924224
-0.0376547
-0.0547677
0.00361869
0.0558522
-0.010471
-0.0816831
0.0583155
-0.0478841
-0.0910122
0.00571687
0.0286319
-0.013335
-0.0152969
-0.0184621
0.0857511
0.0544973
0.00886863
0.0296647
-0.0288117
-0.000853054
0.0223609
0.0620008
-0.0160469
-0.0296396
-0.00308891
-0.0132277
0.0163166
-0.0769612
0.00763362
0.0101122
-0.087704
0.0453457
0.0765731
-0.00967808
-0.0326901
0.0423681
0.0399927
0.0721345
0.0633345
-0.0389049
-0.0332489
-0.0185651
0.051814
0.066854
0.0334463
-0.0331419
0.00657274
0.0325181
0.0426213
-0.0751394
-3.18278e-05
0.0359723
-0.0359405
0.0222959
0.0215369
-0.0438328
-0.000366951
0.00033118
3.57711e-05
-0.00033431
-3.26407e-05
0.0118016
0.00930488
-0.00260136
0.0814348
-0.0812881
0.066122
0.0151661
-0.0227636
-0.0150922
0.0378558
0.0549712
-0.0625149
0.00754369
0.101386
-0.0836747
-0.0177116
0.0323373
0.0327638
0.100962
-0.0264012
-0.0745611
0.124709
-0.0311209
-0.0935879
0.0838885
-0.0827562
-0.034982
0.0253039
-0.0929743
0.0490606
0.0439137
0.0106565
0.0609504
-0.0716069
-0.0459393
-0.0301203
0.0760596
0.110941
-0.0562225
-0.0547187
-0.0680898
-0.0467629
0.0574269
0.0439594
-0.0533678
0.0687547
-0.0153868
0.0852717
-0.0839678
-0.0013039
0.101951
-0.0598965
-0.0420547
0.104306
0.0325375
0.106402
-0.0412846
-0.0651174
0.0814698
-0.00927679
0.0242687
-0.0427012
-0.110004
0.102387
0.00761716
-0.0793845
0.0625904
0.016794
-0.0504197
0.0736883
0.00112911
-0.117209
0.0531318
-0.0745078
0.021376
0.085644
-0.0531258
-4.54787e-05
-0.0739307
0.0739762
-0.0206812
-0.0959738
0.0505802
0.0453936
-0.127679
0.0395462
0.0881331
-0.0987626
0.0125365
0.0862261
0.00201261
0.0423226
-0.0443352
0.0473256
-0.028451
-0.0221197
-0.0339374
0.0560572
-0.0850741
0.00578328
-0.104909
0.0731305
0.031779
0.0970289
0.00492219
-0.0837959
0.0674794
0.0217574
-0.000741768
0.010378
-0.0311444
0.0207663
0.105579
-0.0203071
0.0684585
-0.000353387
0.0531757
-0.0861795
0.0330039
-0.0357586
-0.0430191
-0.08251
0.00808453
-0.0586913
-0.0225967
0.0806472
0.0483376
-0.0667041
0.0246972
-0.0528107
-0.0194426
0.0722534
0.0544638
-0.0120824
0.0658287
3.43002e-07
-0.065829
0.0998164
-0.0423688
-0.0574476
-0.0173358
-0.0549794
0.0723151
-0.0219936
0.0963927
0.0418045
0.0489686
-0.0907731
-0.0126376
-0.0833362
-0.0534495
0.023283
0.0301664
-0.00979192
0.0112804
-0.0225306
0.0198902
0.114017
-0.0239644
-0.109287
0.0860406
0.023246
-0.0844022
0.0216629
0.0627394
-0.0299208
0.0595634
-0.125826
0.00973313
0.0645277
-0.0540157
-0.010512
-0.00789322
-0.048545
-0.0678284
0.0725836
0.00620004
0.0182267
-0.0244268
0.0106093
0.0261807
-0.03679
-0.000220902
-0.024046
0.0242669
0.0166576
-4.92906e-05
-0.0166083
-0.0640447
-0.0026453
0.06669
-0.0733256
0.00928088
-0.01862
-0.00783648
0.0264565
-0.0909412
0.0803178
0.125322
-0.124777
-0.000545
0.0165726
0.0229162
-0.0394887
-0.0335295
0.0110866
0.0224428
0.0543989
0.0709229
0.0827186
0.0170978
-0.00771009
0.0067136
0.000996493
0.0312911
0.0834803
0.000446438
-0.000496004
-0.0339066
-0.0195429
-0.0124888
-0.0363979
0.0488867
0.079834
0.026568
0.0483416
-0.0817347
0.0333931
-0.0278818
-0.00818428
0.036066
0.00647488
-0.0343566
-0.0307162
-0.0131448
0.043861
0.0180737
0.00618196
-0.0242557
-0.000519275
0.000397443
0.000121832
0.128688
-0.0431751
-0.0855127
0.070259
0.0584288
0.077727
-0.0802467
0.0025197
-0.0318865
-0.00858753
0.0404741
0.102987
-0.0489957
-0.0539912
-0.0595836
-0.0680957
0.0876421
-0.0969405
0.00929845
0.0371197
-0.0205471
-0.00884484
0.0633161
-0.0544713
0.00532922
0.0478026
0.105781
-0.00666234
-0.0991189
0.022404
0.0833772
0.00162886
-0.0583653
-0.0392384
0.0164748
-0.0295175
0.031088
-0.0015705
-0.035361
0.000117588
0.0352434
0.00587322
-0.0752695
0.0693963
-0.0146429
0.0737437
-0.0591008
0.0281904
0.0229193
-0.0511097
-0.0276351
0.000701072
-0.0808475
-0.0121268
-0.099148
0.0654929
0.0336551
-0.0454269
-0.0215471
0.066974
-0.0167281
0.0136417
0.00308636
-0.0671366
0.0524937
0.00450578
0.025159
-0.00756916
-0.0277918
-0.00426208
0.00463902
-0.000376939
0.052015
-0.0213216
-0.0306934
0.0164809
-0.0758765
0.0593956
-0.0243897
0.023271
0.00111875
0.0704648
-0.0358751
-0.0345896
0.00527275
-0.0904408
0.106744
-0.0216502
-0.0850935
0.111275
-0.0932621
-0.0180132
0.0687251
-0.00289645
0.0676385
-0.0917886
0.0241501
-0.0414299
-0.0444672
0.0858971
0.0946053
-0.0269668
-0.0723123
0.0549765
0.0475057
-0.0676504
0.0201446
0.0310788
0.0432342
-0.074313
0.0530851
-0.0510725
-0.100205
0.0910042
0.00920118
0.0559293
-0.0668365
0.0109072
-0.0157801
0.0261582
0.0791714
-0.110355
0.0311833
0.0628321
0.00223786
-0.0650699
0.0832074
-0.0805324
-0.00267499
0.0896221
0.0113403
0.0647196
0.0114888
-0.0762084
0.0095756
-0.0428621
0.0332865
0.0944798
-0.0255039
-0.0689758
0.0310916
-0.0532114
0.0272086
0.0432562
0.0535249
-0.0949548
-0.0583267
0.0276105
-0.0711327
0.00802788
0.0631049
0.0150249
0.00380495
-0.0188298
0.00770044
-0.0326343
0.0249338
0.0241977
-0.0179977
0.0657601
0.0247906
-0.0905507
-0.00403137
0.068559
-0.00838726
0.00640083
-0.024022
-0.00229808
0.02632
0.0619186
0.00280104
-0.028191
0.0699955
0.0738981
-0.0428192
-0.0107303
0.027216
-0.0164858
-0.0939002
0.00984709
0.0840531
-0.13303
0.119916
0.013114
-0.0249995
0.00637949
0.00833404
-0.032356
-0.0841418
0.0313311
0.0199023
-0.0653292
0.0703075
-0.0104948
-0.0379646
0.0890518
-0.0510873
0.0151197
0.0640516
-0.0138348
0.068806
-0.0114103
0.064586
0.00603127
-0.00300057
-0.0030307
0.0661514
-0.0852149
0.0190635
-0.0555663
0.0790575
0.0299565
0.0193343
-0.0492908
-0.0759992
0.0759538
0.0307199
0.0760238
-0.058592
-0.0109557
0.0673155
-0.056659
0.0814323
-0.065734
-0.0156983
-0.00598662
-0.0320047
0.0581328
0.0307491
-0.088882
0.0718133
0.0094146
-0.0812279
0.0503289
0.00168614
0.0430912
-0.0890305
0.0962512
-0.0374532
-0.058798
0.0144792
0.0731629
0.0541297
0.0606136
-0.0834088
0.0122761
-0.0712828
0.00256228
0.0687205
-0.0115943
0.0442705
-0.0326762
-0.025767
-0.0372328
0.0629998
0.132752
-0.0803271
-0.0524246
-0.0368462
-0.0689125
-0.0884151
0.0921569
-0.00374188
-0.018383
-0.0803797
0.0234827
-0.00682511
0.000604056
-0.000481782
-0.000122274
-0.0667025
0.0578576
0.0509157
-0.00463559
-0.0161876
-0.0507359
0.0669235
0.0211287
0.00750323
-0.0205453
-0.0253154
0.0458607
-0.0864133
0.00201109
0.0546598
0.0581812
0.0498097
0.082942
0.0939977
-0.0343594
-0.0596383
0.0495043
-0.054652
0.00514765
-0.0307185
-0.048666
-0.0354715
0.0936043
0.0439577
-0.0343821
-0.0880402
-0.00433416
0.0923744
-0.121397
0.0945327
0.0268647
-0.0873972
0.013335
0.0740622
0.113753
-0.00281137
0.109133
-0.0610238
-0.0481096
-0.0344294
-0.0346853
0.0691147
0.0956975
0.0134358
0.00604955
-0.0940897
-0.0031385
-0.0502293
0.129864
-0.0695672
-0.0602964
-0.0892271
-0.0128069
0.102034
0.142164
-0.0483562
-0.0938077
0.0249482
0.0126718
-0.03762
0.116546
-0.11153
-0.00501617
0.106472
-0.0346585
0.0214722
-0.00933159
0.0228546
-0.0135231
0.0160731
0.042288
-0.0583611
0.0441012
0.067174
-0.000846032
0.0102866
-0.00944057
-0.0736648
0.0844672
-0.0108024
0.047244
-0.120909
0.108417
-0.0144194
0.0122151
-0.0229454
-0.014938
-0.0354986
0.0504366
0.0904893
-0.0266865
-0.0638028
-0.0227465
-0.0369289
0.0596754
0.064267
0.0604417
-0.0903013
0.0853657
0.00493558
-0.0265963
-0.0218414
0.0484377
-0.000434835
0.0262957
-0.0258609
-0.0970351
-0.0178396
0.114875
-0.0191105
-0.000523876
-0.097191
0.00877594
0.112942
-0.0818374
-0.0311042
-0.0944208
0.0564563
0.0192843
0.0584428
-0.00233608
0.0175429
-0.0152068
-0.0193432
0.0162542
-0.125076
0.0599391
0.0651366
0.060852
-0.0276176
-0.0332345
-0.0270347
0.0761191
-0.0490845
0.00657996
-0.0121245
0.00554459
-0.0983061
0.0864866
0.0118195
0.127477
-0.0132794
-0.114198
0.112843
-0.0470825
0.0882116
0.0392657
-0.00520167
0.0117816
0.0383538
-0.0273358
-0.011018
-0.0704538
0.0157624
0.0546915
-0.057439
-0.0677062
-0.00274758
0.0379028
-0.0518845
0.0139817
0.0635233
-0.00759397
-0.0185707
-0.0620975
0.0806682
0.0291898
0.00916402
-0.0837726
0.00328903
0.0804836
0.0385212
0.0346144
-0.0731356
0.0210208
-0.0478635
0.0268426
-0.0586618
-0.0627356
-0.0363954
-0.0728912
0.0260176
0.0124486
-0.0384662
0.058368
0.0969006
0.036068
-0.0283675
-0.00199609
0.00552193
-0.00352584
-0.0980545
0.107272
-0.00921719
0.0524527
-0.0769775
0.0245248
-0.062564
0.0281346
-0.00733226
-0.000377836
0.0207517
-0.111053
-0.0801133
0.076723
0.00339028
5.3511e-05
0.000277669
-0.0832405
0.0670529
-7.04876e-05
-0.000263823
0.055682
-0.0171677
-0.0385144
0.0310314
-0.0426257
-0.0709554
-0.00122482
0.0721802
-0.0106128
-0.0230374
0.0336502
0.10954
-0.0265489
-0.0829912
-0.0583333
0.0996547
-0.0413215
0.0729467
-0.0095438
-0.0634029
-0.0667437
-0.00453914
0.0968634
-0.0446143
-0.0296989
0.00530915
-0.0136386
-0.0865668
-0.0483367
-0.084693
-0.0658184
0.0290687
0.0367497
-0.0197384
0.0826184
-0.06288
-0.0137455
0.0618653
-0.0481198
-0.0152039
-0.0818312
-0.0431407
0.0485464
-0.00540563
0.000510339
0.0373925
-0.0825091
-0.00711299
0.0896221
-0.00699293
0.0590741
-0.0520812
0.0850139
-0.0120672
0.0256653
-0.0591074
0.033442
-0.0155007
0.128442
0.068707
-0.0430417
0.0877761
0.0152109
0.0118839
0.0713235
0.075408
-0.0914731
0.0160651
0.0186946
-0.0723238
0.0536292
-0.0482276
0.0882867
-0.0400591
0.0603244
0.0405046
-0.0361855
-0.0462219
0.0824074
-0.0136573
-0.0427807
0.056438
0.0311874
0.0502449
-0.00247402
-0.0479586
0.0504326
0.0909598
0.00146257
-0.0502356
0.0236393
0.0644034
0.0163608
-0.0807642
0.0924798
-0.0223249
-0.0701549
0.0384583
-0.034117
-0.0043413
-0.144532
0.049818
0.0947144
0.00731808
-0.0589015
0.0515834
-0.0527279
-0.00527969
0.0580076
0.0165893
-0.07919
0.0626007
-0.0891942
0.037273
0.0519211
0.0136081
0.00701444
-0.0206226
-0.112634
0.028861
0.0943922
0.0918128
-0.0404957
-0.0513171
0.0466222
-0.0602795
0.0245352
-0.0468858
-0.00879514
0.055681
-0.0928793
0.0712699
0.0216094
-0.0408571
-0.0691473
-0.0611543
0.0777436
-0.0162517
-0.0729754
-0.0132852
0.0382334
0.106481
-0.0581527
-0.0483281
-0.0797953
0.0463803
0.033415
-0.0232172
0.0715588
-0.0554099
0.0429211
-0.00671541
-0.0100127
0.000304757
-0.000154465
-0.000150292
0.0896934
-0.0640509
-0.0256425
-0.00315597
-0.00019747
0.00335344
0.0536266
-0.00015417
-0.0534724
-0.100312
-0.0247634
0.11747
-0.0643905
-0.0530796
0.0920353
-0.0384087
0.0950598
-0.0986287
0.00356892
0.0583961
-0.0781345
-0.117667
0.0672362
0.0504309
0.0260112
0.0690486
-0.0984174
0.0822465
0.0161709
-0.0279781
-0.0521352
-0.0281942
0.0300152
-0.00182108
-0.026402
0.0332725
-0.00687052
-0.0155218
0.01467
0.000851784
-0.00128664
-0.0407006
0.0419872
0.00507393
-0.00707002
-0.0434554
-0.0457388
-1.0267e-05
0.000614323
-0.0525957
0.0922133
-0.0396176
0.0384951
-0.0801011
0.041606
-0.044871
0.0402881
0.00458284
-0.041987
0.080482
-0.020381
0.0728337
-0.0733472
0.0324432
0.040904
-0.042781
0.0574011
-0.0146201
-0.0702181
0.0383315
0.070071
-0.0170347
-0.0530363
0.0395209
0.0179233
-0.0574442
-0.0413529
0.0400663
0.103867
-0.00938731
0.0431376
-0.0138563
-0.0292813
0.0720273
0.00652683
-0.0785541
-0.0611718
-0.0293799
0.0905517
-0.0604069
0.0135211
0.0269729
-0.0375857
-0.0714052
-0.0731271
0.0231054
-0.071333
-0.0703392
0.0552959
0.0150433
-0.0221052
0.0431261
0.100982
-0.0623467
-0.0386349
-3.53e-05
0.0209986
-0.0209633
0.0970251
-0.0462891
-0.050736
0.11287
-0.0432397
-0.06963
0.0393566
0.0285586
-0.0679152
-0.0220818
-0.0227892
0.00986207
0.000858229
-0.0107203
0.0958498
0.0219901
0.0708582
-0.0928483
0.00742002
-0.0600157
-0.0225234
0.0786316
-0.0561082
-0.0165464
0.0388423
0.103746
-0.0232428
-0.0805028
-0.0583044
0.0403622
-0.0692253
-0.00206784
0.0712931
0.060296
-0.0964815
-0.0411022
0.0377101
0.00339211
-0.0428524
0.0589255
-0.0242182
-0.0435085
0.0677267
-0.0905813
0.0722953
0.018286
0.044981
0.0295985
-0.0745795
0.0462955
0.00726791
-0.0535634
-0.0344086
0.00800663
0.0341005
0.00903712
0.0108453
-0.0201769
-0.0586935
0.0311637
0.0275298
0.0756324
-0.00423283
-0.0713996
0.0395843
-0.0396161
-0.0652986
0.0726167
-0.0818036
0.12684
-0.0450367
0.00148672
-0.0446275
0.00841662
-0.0902203
-0.0993653
0.0381935
0.0449374
-0.00414817
-0.0407893
-0.0984174
-0.0882033
0.0696327
-0.000628839
-0.00107337
0.0017022
0.0405483
-0.0647665
0.0493382
-0.0193817
-0.0100005
-0.0478941
0.0578946
0.054223
-0.0767464
-0.0660182
0.0584733
0.00754491
-0.061507
0.0673802
-0.0185312
0.0637247
-0.0451935
-0.0452903
-0.0134032
0.0854563
-0.0689754
-0.054201
-0.0211349
0.075336
0.0471752
0.0604259
-0.107601
-0.0875046
0.0516922
0.0358124
0.0293392
0.0456875
-0.0750267
-0.038898
-0.0591565
0.0536047
0.00264991
-0.0562546
0.0338666
0.0826799
0.0816112
-0.0420903
-0.034311
-0.0315074
0.00548059
0.0134191
-0.0188997
0.00658791
-0.0876349
0.081047
-0.0393158
0.0175325
0.0217833
0.0889175
-0.0906117
0.00169424
0.00392509
0.0290477
-0.0329728
0.015031
-0.0173671
0.0354542
-0.0886023
0.0531481
0.0518262
0.025608
-0.0774342
-0.0278655
-0.0898016
-0.00349593
0.017104
0.066841
-0.0839327
0.0170917
-0.0899388
-0.00106276
0.0910016
0.0570301
0.0115145
-0.0685446
-0.0508924
0.0495993
0.00129309
-0.0136385
-0.0737587
0.0316567
-0.0109466
-0.0207101
0.0563211
-0.0100256
0.0251563
-0.0188373
-0.00631907
0.0826697
-0.0198376
0.0198912
-0.0652735
0.0453823
-0.0682172
0.0154893
0.0983799
-0.0348531
-0.0635268
-0.0254004
0.064757
-0.0581418
0.105763
-0.0476209
0.104807
0.00764981
-0.112457
-0.0674251
-0.00835135
0.0757765
0.00955009
-0.0798892
0.10052
-0.0696166
-0.0309039
-0.0387362
0.056511
-0.0177748
0.09857
-0.0467438
-0.0589854
0.0809755
0.0362914
-0.0365123
0.0175845
-0.0833532
0.0657688
-0.0927709
0.0253458
0.0188342
-0.0192691
0.0729788
-0.00290786
0.0645286
-0.0335555
-0.0309731
-0.0273994
0.0157622
0.0116372
0.00910598
-0.00995201
-0.0282044
-0.0543048
0.0948823
-0.0700828
-0.0247995
0.0119416
-0.0751133
0.0631717
-0.0996813
0.0277232
0.0719581
0.0193397
0.0854678
0.0808268
-0.0139857
0.0251724
0.0521893
-0.0773617
-0.13212
0.0608292
0.0712908
-0.0982492
-0.0338707
-0.0423079
0.0700635
-0.0277555
0.00727895
-0.00783991
0.000560955
-0.0755122
-0.0182566
0.0937689
-0.00521682
-0.0687176
0.0739344
0.0376304
-0.0270211
0.00453164
-0.0389732
0.0344416
0.0392156
-0.0392509
-0.105176
0.00549493
0.0912246
-0.07253
0.0118579
-0.0206045
0.00874661
0.0793082
-0.000406921
-0.0789013
0.039531
-0.0903917
0.0508607
-0.0349362
0.0832995
-0.0483633
-0.125383
0.0531215
0.0722616
0.0368746
-0.0323429
0.0424419
-0.117954
0.0345559
-0.06623
0.0316741
-0.102791
0.0641965
0.0385945
0.0584554
-0.0435571
-0.0148983
0.104371
-0.0522667
-0.052104
-0.000463247
-0.0644197
0.0648829
-0.0268663
-0.00666314
0.0906323
0.0131133
0.030522
-0.0628178
0.0322958
0.0860888
-0.0465577
-0.030403
-0.0562316
0.0866346
-0.0382486
0.00557923
0.0326694
-0.0708995
-0.0544836
0.0797567
0.0212249
0.00568537
0.00117068
-0.00685604
-0.0783416
0.0902832
-0.0660345
0.0189094
0.0471251
-0.0838556
0.0506067
0.0056529
0.0609463
-0.0665992
-0.0416357
-0.045105
0.0867407
-0.0366955
0.0392554
-0.0025599
0.00746377
0.0814537
-0.0508666
-0.0289287
-0.0598594
0.0393141
-0.0421238
-0.0561823
-0.0632507
0.00310416
0.0601466
0.0117625
0.0779309
0.0356904
0.0567894
0.0286396
-0.0845425
0.0559029
0.0617393
0.0426314
-0.0142114
-0.0459745
0.060186
-0.0801013
0.0312397
0.0488616
-0.100804
0.0245074
0.0762969
-0.0940348
0.0190735
0.0749612
-0.0415738
-0.0525671
0.0941409
-0.00656596
0.00230387
-0.00696699
-0.0296693
-0.077856
0.0542655
0.0235906
-0.00214679
0.0557515
0.115525
-0.104928
-0.0105979
-0.0480161
0.0766558
0.0345209
-0.0164472
-0.00511238
0.0318689
-0.0267566
-0.0309589
0.0984098
-0.0674509
0.00177247
-0.00240131
0.0610628
-0.0696178
0.00855496
-0.0913278
0.0504333
0.0408945
-0.0732518
-0.0234747
0.0967265
0.0101246
-0.0488608
-0.0685947
-0.00926139
0.0455711
-0.07653
-0.000173716
-0.000345558
-0.00707308
0.0404267
-0.0333536
0.096942
-0.0676028
-0.0610327
-0.0417584
0.0709693
-0.0951706
0.0242012
-0.00311238
-0.00534524
0.00845762
-0.0496849
-0.0378197
-0.0182481
-0.0266017
0.0448498
0.0486403
-0.0960668
0.0474266
-0.0316488
0.0662047
-0.0756461
0.081299
-0.0237101
-0.00368933
-0.0412417
0.089882
-0.0762831
0.0130324
0.0777999
-0.0621102
-0.0156897
-0.0467651
0.0312774
0.0154877
-0.0792007
0.0967851
-0.00796345
0.0637372
-0.0557738
0.092817
0.0200527
0.015289
-0.00542689
-0.0424384
0.0786731
-0.0362348
0.0989998
-0.0342734
-0.0647264
0.0485422
0.00991324
0.0127349
0.0429471
-0.0451176
-0.0462102
0.0200882
-0.09334
-0.0506027
0.0323546
0.032958
0.107422
-0.0103966
-0.00577071
0.0554848
-0.0497141
0.0704416
-0.0440456
-0.0263961
0.000820616
-0.0436016
0.00475673
0.0101093
-0.014866
-0.00605191
0.00947594
-0.00342402
-0.0666571
0.0641831
0.0517013
-0.0596647
-0.0478604
-0.0505867
0.0082956
0.0200403
-0.0283359
0.0567294
-0.0262074
-0.0884387
0.0729262
0.0155125
-0.105176
0.0702396
-0.0210646
-0.0568586
0.0779232
-0.0598318
-0.0450776
-0.0934281
0.00411869
0.0893095
0.0907055
0.00829434
-0.0516748
0.0582627
-0.0364143
0.00534383
0.0310704
-0.117478
0.068505
0.048973
0.11345
-0.0380602
-0.0753897
-0.0344326
-0.00488326
0.0760521
-0.0760521
0.0633139
-0.0937169
0.0325059
-0.017481
-0.0466355
0.0347041
0.0119314
-0.0835396
0.0765466
0.00509268
-0.0743179
-0.00757378
0.0133658
-0.00579201
-0.0856587
0.0629122
0.00463469
0.00139658
0.0746334
-0.00974145
-0.064892
0.0884013
0.00997861
0.0682097
-0.0146153
-0.0535943
-0.0963496
0.0382078
-0.0837911
0.0350397
0.0487513
-0.0178175
-0.0288179
0.0764337
-0.117056
0.0406228
-0.00854616
-0.0564303
0.0649765
0.0876559
-0.0777617
-0.00989423
0.0994172
-0.0943113
-0.00510593
-0.0261286
-0.00251844
0.028647
0.0620497
-0.0736945
0.0116448
0.0150974
-0.0572103
0.0421129
0.0483129
0.065137
-0.000813295
0.00809225
-0.0253139
0.00270027
0.0226136
0.0857857
-0.0386105
-0.0882479
0.08892
-0.000672123
0.0687466
-0.10094
0.0321934
0.0772992
0.033595
-0.110894
0.0075692
0.0760628
-0.083632
-0.107245
0.08618
0.0918917
-0.0335441
-0.0583476
0.0926075
-0.0241844
-0.0684232
-0.0631934
-0.033653
0.0968464
0.0325913
0.0591932
-0.0917845
-0.00585141
-0.0729759
0.0788273
0.0862982
0.00210852
-0.0884067
0.138365
-0.0540962
-0.0842686
-0.0625153
0.101138
-0.0386229
-0.132506
0.074151
0.0583548
-0.102777
0.0265322
0.076245
0.0809535
-0.078189
-0.0027645
-0.0699143
0.0646975
0.0229894
-0.0770769
0.0540875
-0.00317982
0.0796135
-6.90114e-05
-0.0250041
0.0250731
-0.0352212
0.11252
0.0389948
0.0356023
-0.0745971
-0.0879306
-0.0161502
0.104081
0.0418615
0.0189905
0.0833844
-0.0646735
-0.018711
0.134148
-0.0272827
-0.106866
-0.0674668
0.0340208
0.033446
0.047435
-0.0469174
-0.000517687
0.106802
-0.034372
-0.0724303
-0.0305048
0.102815
-0.0723105
-0.0336828
-0.0500069
0.0836897
0.0769476
-0.0329399
0.0171879
0.0100861
-0.027274
0.0171802
-0.000187473
-0.0169927
0.0467721
0.000164121
-0.0892727
0.018125
0.0711477
0.0679399
-0.0943604
0.0264205
0.0449572
-0.000416463
-0.0445408
-0.0260576
0.0432042
-0.0171466
0.0924192
0.00810134
0.0803114
-0.0448572
0.0878667
-0.0332848
-0.0545819
-0.0154974
-0.0237635
0.0392609
0.116513
-0.0595163
-0.0569965
0.0141653
0.0673721
-0.0815374
0.035496
0.0292757
-0.0647717
-0.125363
0.0525108
0.0728523
0.0607262
0.0300243
-0.0907505
-0.0977173
0.0345321
0.0631852
-0.00374721
0.00374721
-0.0109099
0.117712
0.000685646
-0.000581056
-0.000104591
0.0295609
0.0576805
-0.0872414
0.0600131
-0.0322777
-0.0277355
-0.0898843
0.0364507
0.0534336
-0.0531204
-0.0464692
0.0995896
-0.0518799
0.0542001
-0.00232026
-0.00657539
-0.0613289
0.0679043
0.0132619
0.0668298
-0.0800917
-0.0492888
0.0592606
-0.00997186
0.00464456
0.0228965
-0.0275411
-0.0515483
0.0898986
-0.0383503
0.00913586
-0.0338852
-0.111742
0.0488681
0.0628743
-0.00478758
0.0797818
-0.0749942
0.103371
0.000897343
-0.104268
-0.0143049
0.0226044
-0.00829951
0.0182722
0.0459791
-0.0642513
0.0489607
-0.0575069
-0.0221077
0.093077
0.0294288
-0.0529018
0.023473
-0.0508766
-0.0165902
-0.029574
-0.0539739
0.0835479
0.0815619
-0.0801564
-0.00140541
0.0265673
-0.0440755
0.0175082
0.0613528
0.042018
0.0374416
0.0491094
-0.0865509
-0.103928
0.028869
0.0750594
-0.0499075
-0.05288
0.102787
-0.0205783
0.0631916
-0.0426133
-0.000569168
0.0529182
-0.0523491
0.0967443
-0.0509768
-0.0457675
0.0234434
-0.0734992
0.0500558
0.112394
-0.0531923
-0.0592017
0.0797164
-0.0176667
0.0856162
-0.0333646
-0.0522516
-0.109816
0.0437101
0.0661063
0.0522865
-0.101752
0.0494659
-0.0189715
0.00292733
0.0160441
0.0815892
-0.00695572
0.00223678
-0.0329231
0.0306863
0.076748
-0.0994989
0.0227508
0.0596442
0.0242013
-0.0838455
-0.0107293
0.0280945
-0.0173652
0.010722
-0.052146
0.041424
-0.13757
0.079554
0.0580157
0.0729551
-0.095344
0.0223889
0.0564295
-0.0176259
-0.0388037
0.0483029
-0.0192847
-0.0290181
-0.056671
0.00379625
0.0528748
-0.0909836
0.0772601
0.0137236
-0.107637
0.0403385
-0.0831178
0.0511538
0.031964
-0.0518283
0.0664894
-0.0146611
0.0190844
0.00753303
-0.0266174
2.31576e-05
0.0461373
-0.0461605
0.131832
-0.0775979
-0.0542337
0.0677366
-0.0531217
-0.0146149
-0.00340733
-0.0371277
0.040535
-0.00738972
0.100284
-0.0928941
-0.0691117
0.0312476
0.0378642
-0.0264714
-0.0450733
0.0715447
-0.0619881
-0.0205602
0.0825483
-0.0344782
0.00496062
0.0769913
-0.0997715
0.0227801
0.0926465
-0.0639498
-0.0286968
-0.0816867
0.0883951
-0.00670838
-0.129063
0.0666799
0.0623832
0.0128666
-0.0129197
5.31757e-05
0.0303284
-0.0247373
-0.00559114
0.0472781
-0.0601089
0.0128308
0.0975378
-0.0788838
-0.0186539
-0.00887848
-0.0551913
0.0640698
0.068616
0.031384
0.0309687
0.00374241
-0.0347111
0.0227946
0.0640364
-0.086831
0.0370372
-0.0310942
-0.005943
0.0396549
0.00230647
-0.0419614
0.0856988
0.0266952
0.109925
-0.119474
0.00954892
-0.0711296
-0.000519926
0.0716495
0.102648
-0.0216844
-0.0809636
-0.0462923
0.0107619
0.0355305
0.0102022
0.0997228
0.0579282
0.00294541
-0.0608736
0.103818
0.00648922
-0.110307
0.0814128
0.0132196
-0.0946324
0.0478203
0.0245356
-0.0723559
0.0399813
0.0273593
-0.0673406
0.00475728
0.0990605
0.0950379
-0.00973248
-0.0853054
0.083053
0.019595
-0.0736714
0.0290978
0.0445736
0.0419912
-0.0456884
0.00369722
-0.0376016
0.0342152
0.00338635
0.0646611
-0.0358432
-0.0288179
-0.00850223
-0.00159978
0.010102
0.0432454
0.0212832
-0.0597943
0.0403734
0.019421
-0.036194
0.0696101
-0.0334161
0.0292647
0.0146468
-0.0439115
-0.107455
0.107839
-0.000383477
-0.0522307
0.0191885
0.0330422
-0.0156737
-0.0626826
0.0783564
0.038059
-0.0634401
0.025381
0.0390545
-0.0343348
-0.00471961
0.101961
-0.109067
0.007106
0.0220395
-0.0231515
0.00111205
-0.0166897
-0.063983
0.0806727
0.0402062
-0.0833173
0.043111
0.0443616
-0.0189964
-0.0253652
0.0317238
-0.0459352
0.0568688
-0.0886155
0.0317467
0.117832
-0.0176649
-0.100167
-0.115673
0.0131524
0.039525
0.0760005
-0.0658782