/*--------------------------------*- C++ -*----------------------------------*\
  =========                 |
  \\      /  F ield         | OpenFOAM: The Open Source CFD Toolbox
   \\    /   O peration     | Website:  https://openfoam.org
    \\  /    A nd           | Version:  9
     \\/     M anipulation  |
\*---------------------------------------------------------------------------*/
FoamFile
{
    format      ascii;
    class       volVectorField;
    location    "130";
    object      U;
}
// * * * * * * * * * * * * * * * * * * * * * * * * * * * * * * * * * * * * * //

dimensions      [0 1 -1 0 0 0 0];

internalField   nonuniform List<vector> 
112055
(
(0.479049 0.0158298 0)
(0.503416 -0.00451304 0)
(0.524065 0.000301103 -1.41943e-20)
(0.526411 -0.00428769 4.1865e-21)
(0.561348 0.0271124 -9.70555e-21)
(0.499715 0.00437222 0)
(0.48025 0.0152055 -6.66576e-20)
(0.526327 -0.00393182 0)
(0.518101 -6.41813e-05 -7.06638e-21)
(0.480748 -0.00305371 3.58605e-21)
(0.5034 -0.00460265 1.57486e-20)
(0.48181 0.0192757 -4.48867e-20)
(0.517968 -0.000258441 3.31827e-21)
(0.481841 0.0189031 4.28177e-20)
(0.459908 -0.0070368 -2.63682e-20)
(0.516346 -0.000573958 -4.57678e-22)
(0.440048 -0.0248626 8.04539e-20)
(0.470907 -0.0483367 -2.3143e-21)
(0.504024 -0.00656418 0)
(0.518083 0.00592674 -4.66875e-21)
(0.522169 -0.00365754 -1.65359e-21)
(0.530491 -0.0146046 0)
(0.504036 -0.00665973 -9.06879e-21)
(0.513918 -0.0101561 -5.53425e-22)
(0.496053 -0.0285025 0)
(0.547024 0.00382391 1.01965e-20)
(0.430728 0.0241298 -2.00936e-20)
(0.500502 0.00178011 0)
(0.499764 0.00431611 0)
(0.521928 -0.00385519 1.65138e-21)
(0.499992 -3.47606e-05 -4.41742e-20)
(0.546964 0.0214062 0)
(0.517581 0.00020323 0)
(0.148277 0.0758867 -4.00233e-20)
(0.518131 -5.64209e-05 6.53608e-21)
(0.517168 0.000732395 -4.84117e-23)
(0.518197 0.00585077 0)
(0.354842 0.116812 1.63597e-20)
(0.533703 -0.0138986 0)
(0.51512 -0.000757751 -3.38586e-22)
(0.5165 0.000393489 8.0366e-22)
(0.5322 -0.0139358 1.03425e-20)
(0.511415 -0.00491779 6.51922e-22)
(0.523894 0.00030635 2.37818e-20)
(0.469856 -0.0486066 0)
(0.515527 -0.00777425 0)
(0.156331 0.0719332 0)
(0.39305 0.114435 0)
(0.500696 0.00743789 1.78893e-20)
(0.531842 -0.0141397 2.11588e-21)
(0.526404 -0.00354713 1.18241e-20)
(0.538734 0.10741 0)
(0.522591 -0.00902859 1.73128e-21)
(0.533287 -0.0134787 2.79388e-20)
(0.518823 0.00165859 1.22038e-20)
(0.479973 0.0156716 3.26653e-20)
(0.394992 -0.102863 -7.51995e-22)
(0.367978 0.113113 0)
(0.533489 0.068347 0)
(0.515552 -0.00764684 9.63926e-22)
(0.487475 -0.0090924 2.30764e-20)
(0.391565 0.114305 -1.05454e-20)
(0.51469 0.00223733 -5.01465e-23)
(0.514628 0.00217551 5.29735e-23)
(0.494469 -0.00134811 0)
(0.518487 1.27281e-05 -8.27801e-21)
(0.349063 0.117662 0)
(0.528991 -0.0186095 0)
(0.508554 0.0141485 8.51119e-22)
(0.518212 -0.00281377 -2.17256e-21)
(0.369226 0.117702 1.48749e-20)
(-0.0657455 -0.0376921 5.7507e-22)
(0.513733 -0.0101557 0)
(0.43967 0.00551355 7.38586e-20)
(0.559212 0.0362171 -1.02115e-19)
(0.259307 -0.206733 -8.96933e-21)
(0.502671 0.000691994 -2.83404e-21)
(0.479327 0.015544 -3.45026e-20)
(0.541638 0.0475411 -2.11034e-20)
(0.532849 -0.0135512 -3.67439e-20)
(0.502814 0.0518074 -6.99252e-21)
(0.222438 -0.191725 -9.32881e-21)
(0.526225 -0.00350308 0)
(0.546438 0.00596817 8.44747e-21)
(0.516203 -0.000554829 -1.5464e-21)
(0.507258 -0.00102249 6.40637e-21)
(0.52505 -0.0334072 -1.58704e-20)
(0.518741 0.00158566 1.26654e-20)
(0.124486 -0.0956858 1.27868e-19)
(0.51858 0.00168488 0)
(0.515712 0.00183173 1.13382e-21)
(0.517174 0.000703873 5.01138e-23)
(0.525569 -0.0333156 0)
(0.565313 0.0220048 2.15115e-20)
(0.561029 0.033769 0)
(0.502755 0.000776889 4.55502e-21)
(0.545913 -0.0053597 -6.34268e-20)
(0.460561 -0.00700315 4.49325e-20)
(0.499991 -4.12214e-05 2.02682e-20)
(0.397738 -0.102711 0)
(0.51794 -0.000261611 3.01036e-21)
(0.515734 0.000510155 1.16436e-25)
(0.519034 -0.00218232 -4.45415e-24)
(0.502472 -0.00550641 -3.05764e-20)
(0.586982 0.0247086 0)
(0.349484 -0.0228385 -3.14161e-20)
(0.494499 -0.0014542 0)
(0.513316 0.0157828 0)
(0.514783 0.000108921 4.58231e-24)
(0.507284 -0.000825888 0)
(-0.0658874 -0.0370919 6.90877e-20)
(0.597115 -0.0292672 -2.95746e-20)
(0.518695 7.48722e-05 0)
(0.502091 0.0229291 1.47049e-20)
(0.508504 0.0140205 0)
(0.474282 0.00865441 6.46188e-20)
(0.492891 0.0207474 0)
(0.517089 -0.00134575 0)
(0.115557 -0.0971982 -1.5748e-19)
(0.51841 -0.000312866 -4.16663e-21)
(0.500609 -0.0026914 8.69446e-21)
(0.500507 0.00182116 0)
(0.480873 -0.0027879 0)
(0.491047 -0.0123055 -6.10194e-21)
(0.516528 0.000394552 -1.60255e-21)
(0.50258 -0.00552764 9.87918e-21)
(0.478007 0.0271276 -5.73002e-20)
(0.514853 -0.0120572 -6.02157e-22)
(0.521463 0.00238491 -7.38243e-21)
(0.58843 0.0245545 0)
(0.488669 -0.0118817 8.61992e-22)
(0.431278 0.0254679 -7.24079e-20)
(0.501127 -0.0139325 -5.957e-21)
(0.402992 0.0171603 8.4196e-20)
(0.534173 -0.0138393 1.10336e-20)
(0.51517 -0.000763861 0)
(0.520469 -0.00175417 1.04916e-22)
(0.508273 0.00661634 0)
(0.524273 0.00207681 5.77111e-21)
(0.409566 0.145597 -1.69179e-20)
(0.508404 0.0066301 0)
(0.380298 0.128967 0)
(0.55077 -0.00839703 -8.11712e-21)
(0.45064 -0.222072 0)
(0.512142 0.0165356 -2.36629e-21)
(0.520457 0.0215013 2.34186e-21)
(0.475575 -0.037348 8.00374e-21)
(0.522635 -0.0126149 0)
(0.517084 -0.00129573 -7.33828e-22)
(0.507498 -0.0460055 0)
(0.36172 -0.0242066 0)
(0.530545 -0.0134808 0)
(0.485474 0.0023935 0)
(0.523396 -0.00843844 -3.22416e-22)
(0.524147 0.00194944 0)
(0.501704 -0.0127982 2.84108e-20)
(0.498445 -0.000124725 -1.54222e-20)
(0.501951 0.0225945 0)
(0.532228 0.0680373 -9.32893e-21)
(0.522127 0.0399817 8.10416e-21)
(0.518652 7.65852e-05 2.75079e-23)
(0.395475 0.0396155 -3.21608e-21)
(0.52016 0.00160171 -9.24208e-22)
(0.518235 0.00557297 4.56762e-21)
(0.516207 0.000169802 -1.54118e-21)
(0.512748 0.00586029 2.19791e-21)
(0.497564 0.00341194 -5.02129e-21)
(0.547569 0.0209143 7.7283e-22)
(0.518318 0.00167672 2.27447e-21)
(0.494243 0.00273867 0)
(0.499056 -0.00894005 -5.78739e-20)
(0.501762 -0.0129167 1.59796e-20)
(0.520134 0.00161281 3.7076e-21)
(0.450738 -0.215545 1.88918e-21)
(0.545355 -0.0117539 -1.33498e-20)
(0.518437 -0.00031151 6.1435e-21)
(0.500565 0.00625135 -7.35756e-21)
(0.520879 -0.00094766 1.02869e-20)
(0.5237 0.0172262 1.75289e-20)
(0.521368 0.0341482 4.82213e-21)
(0.544752 -0.0109636 6.60487e-20)
(0.523247 0.000459913 -7.67907e-23)
(0.512365 -0.00255113 -7.25912e-21)
(0.499935 -7.86839e-05 -6.46644e-20)
(0.536832 -0.0157649 -4.33412e-20)
(0.483556 -0.0513685 2.62384e-20)
(0.395351 0.0429037 3.08728e-21)
(0.516228 0.00017246 1.8031e-21)
(0.550143 -0.00948962 4.10422e-21)
(0.515759 0.012926 -5.2868e-22)
(0.50881 -0.00913339 0)
(0.51761 0.000191918 -1.33863e-22)
(0.518448 0.00171384 -4.81318e-21)
(0.500611 -0.00277388 1.5777e-20)
(0.522317 -0.00043516 -7.28887e-21)
(0.515285 0.00420718 1.54049e-23)
(0.541836 -0.000285567 0)
(0.598615 -0.0261822 -3.87192e-20)
(0.509111 -0.00724539 1.22405e-21)
(0.49851 -0.00011302 4.73929e-20)
(0.377607 -0.00476632 -2.71064e-20)
(0.491528 0.00264344 3.68376e-20)
(0.48726 -0.00878224 4.76055e-20)
(0.510408 0.0264115 0)
(0.48721 0.0391577 6.66644e-22)
(0.474768 0.00845451 -5.46255e-20)
(0.36149 -0.0776336 0)
(0.495403 0.0180396 2.90545e-20)
(0.460219 -0.0245889 -8.35758e-20)
(0.519283 -0.0021397 0)
(0.510693 -0.00785724 2.32678e-21)
(0.515772 0.000111874 0)
(0.476334 -0.0376281 -3.23649e-20)
(0.519145 -0.0021094 -6.25774e-26)
(0.546093 -0.00495839 3.54289e-20)
(0.495158 0.0181649 1.72298e-21)
(0.498898 -0.00898475 3.58663e-20)
(0.525957 -0.0221152 0)
(0.51734 0.000187583 2.23679e-21)
(0.527234 -0.004529 0)
(0.515491 -0.0005406 -5.29308e-22)
(0.556696 0.0305895 0)
(0.518481 5.58924e-06 7.50991e-21)
(0.522571 0.0396266 -9.76964e-21)
(0.567123 0.00484941 1.37184e-19)
(0.518327 0.00165463 -1.56712e-21)
(0.515706 0.000504876 -1.30957e-23)
(0.496992 0.0205227 -2.33909e-20)
(0.506212 -0.0115467 -6.7805e-21)
(0.517761 -0.0012695 -3.52459e-24)
(0.517047 0.000756426 -4.50174e-23)
(0.517377 0.000190253 -2.13149e-21)
(0.536666 -0.0161185 -2.97458e-20)
(0.501194 0.00093825 -1.35442e-20)
(0.559307 -0.0986929 0)
(0.376186 0.0628617 -3.45961e-20)
(0.515442 0.00435268 -1.36197e-22)
(0.517061 0.000735135 0)
(-0.0113221 -0.0183561 9.75059e-21)
(0.256162 0.0481833 5.1794e-20)
(0.486526 0.0302988 2.05141e-21)
(0.535747 0.0275671 -2.86366e-20)
(0.519809 -0.00291526 -4.49794e-21)
(0.480206 0.0326043 2.95122e-22)
(0.517064 -0.00050154 3.02417e-21)
(0.559471 -0.0971479 2.27174e-20)
(0.54525 0.00257301 -2.2208e-20)
(0.532885 -0.00632543 3.09468e-20)
(0.485578 -0.00346489 -8.68e-21)
(0.526953 -0.00432161 7.63852e-21)
(0.516791 0.0156038 0)
(0.523179 0.000236663 9.4707e-23)
(0.219147 0.108286 0)
(0.520075 0.00177848 6.12292e-21)
(0.541745 3.12002e-05 2.11619e-21)
(0.501681 -0.0490316 9.72361e-23)
(0.50883 -0.00902979 7.71075e-21)
(0.521518 0.00237765 1.36112e-20)
(0.219412 0.00842386 1.41299e-19)
(0.518912 -0.00215038 3.52578e-23)
(0.566747 0.00600585 -1.49754e-19)
(0.468903 0.0667104 -4.74251e-21)
(0.512846 0.00582594 -4.81917e-21)
(0.483049 -0.0506644 -4.94097e-20)
(0.401111 0.0270263 0)
(0.515611 0.013017 4.59493e-22)
(0.490236 0.0373312 1.89625e-22)
(0.520812 -0.000970679 -5.28535e-21)
(0.489735 -0.0297157 -1.65492e-20)
(0.530248 -0.0170534 -3.22664e-21)
(0.516766 0.0152962 1.05887e-21)
(0.578146 0.0464082 0)
(0.508897 -0.00655635 -1.21042e-21)
(0.537069 0.106655 -2.02462e-21)
(0.519543 -0.00351713 -8.95602e-25)
(0.310073 0.148117 1.72889e-20)
(0.537406 0.045612 3.58029e-20)
(-0.00488841 -0.012829 0)
(-0.0045638 -0.0128281 -1.0298e-20)
(0.204399 0.112573 4.11555e-20)
(0.51478 0.000118611 1.95675e-24)
(0.504444 0.0101735 -1.01826e-20)
(0.491062 -0.0399776 3.92443e-20)
(0.499419 0.00526987 0)
(0.500305 0.000979446 0)
(0.523933 0.01719 -2.00889e-20)
(0.500193 -0.000322174 1.2761e-20)
(0.516022 -0.000400767 -2.51805e-22)
(0.515135 -0.0113001 -8.69651e-23)
(0.489093 -0.0297098 -3.92285e-20)
(0.505587 0.0190127 7.6993e-22)
(0.515727 0.00187128 0)
(0.5008 -0.00168639 0)
(0.517056 0.000378998 0)
(0.501131 0.00090286 0)
(0.500337 0.000996959 0)
(0.496044 0.00322768 0)
(0.518844 0.000714177 0)
(0.516605 0.000498419 0)
(0.515675 0.00162462 1.62834e-21)
(0.50398 0.00978437 -2.48546e-20)
(0.499924 -6.49324e-05 2.88517e-20)
(0.497275 0.0204129 0)
(0.500443 -0.000102212 0)
(0.529522 -0.00646398 -2.1412e-20)
(0.499831 -0.014259 6.74297e-21)
(0.512007 -0.00233042 7.32373e-21)
(0.519486 0.0121074 -1.04964e-20)
(0.519514 -0.0036281 9.96834e-23)
(0.522251 0.00118711 -4.15208e-22)
(0.518096 0.00565257 -7.34411e-22)
(0.50698 0.00845827 2.26818e-22)
(0.521434 0.000704112 -1.066e-23)
(0.444161 -0.0543614 0)
(0.538552 -0.00213572 0)
(0.55771 0.0306974 -3.65554e-24)
(0.513238 -0.0187394 0)
(0.377399 0.0742679 -2.22511e-20)
(0.517216 -0.000511719 -2.74852e-23)
(0.516574 0.000484253 -8.95625e-22)
(0.517022 -0.000477166 -2.77272e-21)
(0.400515 0.0162034 9.13136e-22)
(0.456121 -0.0267828 -2.44866e-22)
(0.518779 0.000709039 -1.86355e-21)
(0.544979 0.00335498 2.91574e-20)
(0.525549 -0.0103372 -1.53962e-20)
(0.386569 0.128571 5.15294e-21)
(0.511304 -0.00498124 -8.73155e-22)
(0.504322 0.0100503 0)
(0.520394 -0.00184988 0)
(0.50619 -0.0114298 7.46908e-21)
(0.446359 0.0398756 -3.92533e-20)
(0.493161 0.0209 1.49706e-20)
(0.526097 -0.00178054 1.15509e-22)
(0.53388 0.00296693 2.97179e-20)
(0.52524 -0.00717777 -1.07151e-21)
(0.517779 -0.00131325 -8.90036e-23)
(0.500498 -0.0526193 -1.92911e-21)
(0.506804 0.00839317 2.20966e-22)
(0.422183 -0.111002 2.14826e-19)
(0.377292 -0.00718367 -8.84696e-21)
(0.499691 0.0309093 2.92861e-20)
(0.502265 -0.0357981 -1.58724e-20)
(0.512736 0.00506683 6.5577e-23)
(0.401926 0.0617784 -3.00262e-21)
(0.533193 -0.00624566 -3.11082e-20)
(0.521452 -0.012276 0)
(0.53387 -0.0103065 0)
(0.49439 0.00273216 1.2088e-20)
(0.504501 0.0492684 0)
(0.4642 -0.0277892 -5.23177e-20)
(0.487461 -0.0181426 -1.00131e-20)
(0.484039 -7.69671e-05 5.10486e-22)
(0.280415 0.0366828 -6.77736e-20)
(0.521855 -0.00109374 1.82509e-20)
(0.521813 -0.00106326 -1.72059e-20)
(0.440233 -0.016544 0)
(0.519447 0.0379934 0)
(0.517739 6.05705e-05 0)
(0.483053 -0.00439281 -1.4991e-22)
(0.578075 0.131835 -9.14301e-22)
(0.517762 7.39131e-05 -2.76152e-23)
(0.533836 0.00329723 -1.44655e-20)
(0.223449 -0.0721889 0)
(0.486389 -0.00607832 -2.92652e-21)
(-0.0127341 -0.0211948 1.95717e-20)
(0.424371 -0.105681 -5.65205e-20)
(0.527061 0.0133362 -1.20149e-20)
(0.504129 0.00983733 7.5241e-21)
(0.526651 -0.00264396 1.80669e-21)
(0.470505 -0.0410299 -7.81698e-20)
(0.46969 -0.0405555 6.98274e-20)
(0.495478 -0.0176896 0)
(0.48307 -0.0581796 0)
(0.00893874 -0.01296 -2.12919e-20)
(0.513666 -0.00071245 1.28398e-22)
(0.513653 -0.000725173 -1.18288e-22)
(0.522444 -0.00994196 0)
(0.523097 0.0112061 2.69017e-21)
(0.507611 0.00454816 9.39333e-22)
(0.521287 0.000817958 3.87951e-23)
(0.499939 -0.00159382 4.88286e-21)
(0.483014 -0.00470685 1.87674e-22)
(0.480089 -0.0205351 4.0132e-20)
(0.519774 0.0121353 1.11903e-20)
(0.513681 0.000924166 -1.11579e-23)
(0.513675 0.000931971 0)
(0.525444 -0.0220611 -2.56604e-21)
(0.491491 -0.0392766 -1.60654e-20)
(0.47209 -0.0163387 0)
(0.50359 0.0784952 1.92392e-21)
(0.510088 -0.00324424 -1.07099e-21)
(0.436359 0.0386683 0)
(0.540984 0.00239762 -4.89551e-20)
(0.440482 0.00477214 -5.51007e-20)
(0.506251 0.0199654 -4.17875e-22)
(0.508155 -0.00604757 2.28846e-21)
(0.530565 -0.017524 -2.33681e-20)
(0.35982 -0.300663 -1.7965e-21)
(0.433583 0.0426179 0)
(0.470006 0.0673445 -6.21738e-22)
(0.502361 0.0772734 0)
(0.143996 -0.12382 0)
(0.483473 0.0190823 0)
(0.523114 -0.0133696 9.53109e-22)
(0.555932 0.148043 -3.42783e-20)
(0.529738 0.020822 -1.07089e-20)
(0.518374 -0.00286795 1.63822e-21)
(0.533487 0.00534497 4.88461e-21)
(0.505336 0.00571617 0)
(0.526041 -0.00178235 0)
(0.517705 -0.0021712 0)
(0.520589 -0.00511027 2.40391e-21)
(0.517866 -0.00228733 7.94917e-23)
(0.524811 -0.00668462 -4.90474e-22)
(0.533253 0.0044178 0)
(0.500093 0.00117588 1.83846e-20)
(0.538285 -0.00211231 -9.35523e-21)
(0.517377 7.66124e-05 -9.34977e-21)
(0.501065 -0.00669898 0)
(0.455138 -0.0262336 1.43679e-20)
(0.519054 0.000393241 0)
(0.510546 0.0112573 -1.37131e-20)
(0.500275 -0.00289222 3.87479e-20)
(0.50022 -0.000349975 -5.5238e-20)
(0.538756 0.00478409 7.30882e-21)
(0.49604 -0.0222621 2.00991e-20)
(0.459104 0.0333017 -1.24867e-21)
(0.514647 -0.0184101 0)
(0.530059 0.0207146 -3.86783e-21)
(0.520768 -0.00536719 -2.25842e-21)
(0.495724 -0.0175869 0)
(0.520295 0.00198786 2.28344e-20)
(0.531558 -0.131651 0)
(0.534707 0.0479854 1.35062e-20)
(0.464799 -0.0283112 0)
(0.516659 0.000365121 0)
(0.534069 -0.0102041 -2.45523e-21)
(0.260528 0.0529929 -5.19572e-20)
(0.465129 -0.0413349 -2.50272e-20)
(0.538415 0.0050181 0)
(0.499688 -0.0495063 2.08605e-21)
(0.50008 0.00120598 4.32243e-23)
(0.190845 -0.143427 -7.77414e-21)
(0.502934 0.000822167 0)
(0.512832 -0.000410671 5.50892e-23)
(0.441346 -0.0173282 -1.69697e-20)
(0.466063 -0.0406546 -1.08388e-20)
(0.441589 0.0335548 3.45959e-20)
(0.530075 -0.0174622 3.80832e-20)
(0.410323 0.143687 7.12726e-21)
(0.500564 -0.00238267 -2.73492e-20)
(0.519084 0.000419927 2.70114e-21)
(0.499471 0.00536757 -1.2277e-20)
(0.52539 -0.0100699 1.53807e-20)
(0.0935693 -0.0305051 -1.14696e-19)
(0.520101 0.0137271 -2.88606e-21)
(0.51077 0.0251423 1.69122e-21)
(0.497827 -0.0283706 0)
(0.522684 0.00116242 0)
(0.53434 0.00486974 4.54775e-21)
(0.520144 0.0215147 0)
(0.515766 0.00191166 0)
(0.335053 -0.145264 4.22636e-20)
(0.535121 0.0275575 2.34804e-20)
(0.519797 0.0121532 1.40124e-21)
(0.516773 -0.0016735 0)
(0.483398 0.0195016 -3.83459e-22)
(0.500804 -0.00164252 0)
(0.507863 -0.0123921 -5.21964e-21)
(0.499919 -0.00162999 1.96784e-20)
(0.515755 0.000107257 3.45146e-22)
(0.520199 0.00202956 -1.60102e-20)
(0.561382 0.000224836 -1.61371e-20)
(0.500005 0.0212571 1.04624e-20)
(0.525966 -0.00350004 9.20404e-21)
(0.518039 -0.00108155 0)
(0.515466 -0.000623444 0)
(0.518021 0.00043304 0)
(0.44618 -0.0570913 2.92581e-22)
(0.301493 0.0331757 1.35691e-19)
(0.0104415 -0.0132571 2.06112e-20)
(0.474006 -0.0176598 -2.63365e-20)
(0.542347 0.0465315 0)
(0.516622 -0.000449659 1.80448e-21)
(0.228852 -0.00162296 0)
(0.491047 0.0034675 -8.83402e-21)
(0.402545 0.0618789 3.25737e-21)
(0.519689 -0.0028691 0)
(0.518016 -0.00106588 0)
(0.513803 -0.000925947 0)
(0.54635 0.0374818 -1.18163e-20)
(0.529548 -0.00651596 2.20627e-20)
(0.519188 0.0118056 -2.25049e-21)
(0.496444 -0.0222899 6.18041e-21)
(0.518677 -0.000452944 1.05748e-20)
(0.499982 0.00154861 -3.57022e-20)
(0.51118 0.00357194 3.52145e-21)
(0.517026 0.000388311 0)
(0.48685 -0.0222372 3.42891e-23)
(0.511579 -0.00918122 0)
(0.486374 -0.0239161 4.68078e-22)
(0.518623 -0.000477032 -8.1364e-21)
(0.496195 0.00325241 5.15018e-21)
(0.520364 0.0104507 5.92889e-22)
(0.501039 -0.00226469 0)
(0.517036 -0.000469474 -2.23531e-21)
(0.589095 0.0486357 0)
(0.514816 -0.0007768 0)
(0.516683 -0.00164079 0)
(0.526105 -0.00336252 -1.25304e-20)
(0.463335 -0.100492 -2.14084e-20)
(0.573787 0.0217179 -2.52091e-20)
(0.505438 0.00575556 0)
(0.277355 0.235385 0)
(0.524096 0.000700868 0)
(0.523945 0.000478869 6.78946e-24)
(0.513808 -0.000958545 0)
(0.199754 -0.137261 0)
(0.518769 -0.0175302 -6.27299e-21)
(0.499601 -0.00305908 -2.67242e-20)
(0.48859 0.00697518 -9.47549e-21)
(0.516012 -0.00039959 -1.00136e-22)
(0.518023 0.000396617 5.8123e-22)
(0.507755 0.0240762 5.03418e-21)
(0.507702 0.122458 7.03263e-22)
(0.519373 0.00284695 0)
(0.363101 -0.0731331 0)
(0.518049 0.000427762 2.10222e-22)
(0.515964 -0.00347296 3.14277e-21)
(0.500528 -0.00238384 0)
(0.522456 -0.00967549 0)
(0.444045 -0.0349225 -3.40816e-20)
(0.402294 0.0293161 0)
(0.514841 0.000335382 3.63739e-23)
(0.488586 0.0218108 -5.1042e-21)
(0.527387 -0.00513857 -1.9481e-20)
(0.414482 0.203778 -2.2336e-20)
(0.520299 0.00041319 -7.03241e-21)
(0.528789 0.00645381 0)
(0.516739 0.000344569 0)
(0.52844 0.00670319 0)
(0.439875 0.21319 -4.80851e-20)
(0.463874 -0.0356872 0)
(0.553922 -0.00232681 3.304e-20)
(0.52746 -0.00481399 0)
(0.552651 -0.003002 -3.74971e-20)
(0.507587 0.0317013 2.01639e-20)
(0.501148 -0.00673703 0)
(0.51976 -0.000235578 -7.40513e-22)
(0.463518 -0.0367538 0)
(0.50016 -0.000704324 3.37416e-20)
(0.498551 -0.00107497 0)
(0.5593 0.044492 -2.98278e-22)
(0.49998 0.0014978 1.60167e-20)
(0.512874 0.00532526 0)
(0.552639 0.0112828 4.9133e-20)
(0.517017 -0.000473674 2.09618e-21)
(0.519341 0.0131122 1.21773e-21)
(0.534413 0.0472553 0)
(0.0680565 0.0840229 5.01244e-21)
(0.515921 -0.00023729 -2.89407e-22)
(0.405866 -0.0214758 4.68271e-21)
(0.511439 -0.00898876 -1.77266e-22)
(0.232131 -0.0706937 -3.30535e-20)
(0.518018 0.000414901 1.85243e-21)
(0.522041 -0.00880173 5.05764e-21)
(-0.0067731 -0.0156451 1.06828e-20)
(0.516588 -0.000431917 0)
(-0.00499855 -0.0158705 2.62182e-21)
(0.434888 -0.0141131 2.87683e-20)
(0.499651 0.0213292 1.06083e-20)
(0.515927 0.000555172 -1.85702e-24)
(0.51077 0.0649263 7.04103e-20)
(0.503024 0.0188378 0)
(0.502062 0.00150585 0)
(0.501209 -0.004852 -4.8978e-21)
(0.55969 -0.000528389 0)
(0.497443 0.00333839 0)
(0.552176 0.147679 3.33609e-20)
(0.517403 7.16647e-05 7.39837e-21)
(0.512851 -0.000399452 -5.30236e-24)
(0.491825 -0.00226717 -1.81136e-20)
(0.500927 0.000900017 2.50326e-24)
(0.499553 -0.000718175 4.60837e-20)
(0.519134 0.00312375 0)
(0.500165 -0.0365811 1.05946e-20)
(0.50802 0.0315752 -1.29153e-20)
(0.501386 -0.00703763 9.84302e-21)
(0.507477 0.024494 -2.47403e-21)
(0.501286 -0.00487349 0)
(0.511355 0.00954745 6.97761e-21)
(0.515841 -0.0032513 -2.2062e-21)
(0.511433 0.00964059 -1.74892e-20)
(0.507408 0.00374396 -6.64638e-22)
(0.500322 -0.00292381 -4.42631e-20)
(0.504462 0.00441939 -3.86016e-22)
(0.515077 0.00230461 1.44572e-21)
(0.500858 0.00259723 -3.17195e-20)
(0.522296 -0.000390841 7.34984e-21)
(0.518793 0.00838329 -9.70864e-24)
(0.556461 -0.000484182 -2.36907e-20)
(0.333436 -0.142608 -2.8298e-20)
(0.502188 -0.00616957 -1.2438e-20)
(0.520074 0.00171041 -4.87878e-21)
(0.50776 0.0237831 -5.07738e-22)
(0.520248 -0.00123083 1.31456e-21)
(0.499684 -0.00150565 5.67275e-20)
(0.491836 0.0385846 -4.23024e-20)
(0.518638 -0.000451276 3.25281e-22)
(0.518599 -0.00161552 -6.07225e-21)
(0.494058 0.00833265 1.62638e-20)
(0.521623 0.02819 2.86203e-21)
(0.523872 3.9929e-05 1.1798e-20)
(0.391352 0.105652 5.30157e-20)
(0.500122 -0.000675637 -1.35994e-20)
(0.519799 0.0105143 5.63401e-22)
(0.515553 -0.000190774 1.12349e-22)
(0.55514 0.000310759 7.16043e-23)
(0.502892 0.000795092 -4.3116e-21)
(0.573333 0.00936045 0)
(0.499007 0.000449336 0)
(0.500406 -0.000107021 0)
(0.52135 0.0300853 0)
(0.500986 -0.00225546 0)
(0.589049 0.0485044 -3.29607e-20)
(0.516755 -0.00425903 0)
(0.52401 -0.00781242 5.71528e-23)
(0.526895 -0.00269208 0)
(0.526743 0.0132381 1.02272e-20)
(0.357538 -0.302539 1.4317e-21)
(-0.00423327 -0.00795495 0)
(0.508104 0.00268265 -2.89775e-22)
(-0.0688796 -0.0189413 -6.9523e-20)
(0.427609 -0.0744411 -4.15091e-21)
(0.514851 0.000329447 -7.19236e-23)
(0.521081 -0.00309685 0)
(0.417049 -0.0799096 0)
(0.505911 0.0436228 2.51322e-22)
(0.500909 0.000934671 -4.0287e-20)
(0.516242 -0.000338817 0)
(0.504136 0.0416502 1.17766e-21)
(0.518256 7.79191e-07 1.8839e-21)
(0.522014 -0.00888971 0)
(0.505856 0.0822308 0)
(0.468585 0.00524002 -6.06053e-20)
(0.34264 -0.0413116 0)
(0.499197 -0.0111389 5.83596e-23)
(0.0556269 0.0875543 0)
(0.523928 8.0209e-05 1.25536e-20)
(0.0119867 -0.0147176 -1.22241e-22)
(0.531026 0.0027012 0)
(0.529624 -0.010971 -6.4387e-22)
(0.478184 -0.000228294 0)
(0.529037 -0.0108706 0)
(0.402666 -0.024053 0)
(0.496002 -0.00896323 1.91926e-20)
(0.487606 0.00674046 -6.9568e-20)
(0.523242 0.0114445 0)
(0.547693 0.00020935 9.03371e-21)
(0.497456 -0.00106792 -4.54226e-21)
(0.49905 -0.0111496 -1.96523e-20)
(0.455653 0.0328889 0)
(0.478975 0.0338704 -3.05113e-20)
(0.514309 0.00127582 -1.09288e-23)
(0.517967 0.000202378 -6.45657e-21)
(0.574216 0.010201 0)
(0.521096 0.0613635 3.68744e-20)
(0.518546 -0.000513023 4.60454e-23)
(0.500806 0.00260055 3.17141e-20)
(0.529873 -0.0113604 -3.39747e-20)
(0.558561 0.0435096 -6.63014e-20)
(0.566382 0.0139796 8.86213e-21)
(0.481884 -0.00300727 -2.82422e-20)
(0.52284 -0.00528469 -1.1693e-20)
(0.507544 -0.0104273 -7.16631e-21)
(0.502387 0.00747669 0)
(0.478632 -0.000120502 2.66882e-20)
(0.326883 0.0448166 7.82926e-20)
(0.52126 -0.0030231 -2.51469e-22)
(0.518488 -0.00136919 0)
(0.530362 0.00233245 1.04394e-22)
(0.51663 0.000390207 0)
(0.537833 0.04371 -2.84964e-20)
(0.518077 0.00100023 0)
(0.491494 0.00237655 0)
(0.524263 0.0015186 0)
(0.518921 0.00800031 -1.37597e-22)
(0.596418 0.00885969 1.45914e-20)
(0.575828 0.0224208 0)
(0.38803 -0.0156964 5.8279e-23)
(0.499916 -0.00265073 1.41378e-20)
(0.502145 -0.00125681 0)
(0.499941 0.0179599 -3.31397e-20)
(0.46889 0.00466205 5.45445e-20)
(0.478794 0.0343297 0)
(0.464442 -0.0989222 2.21524e-20)
(0.490234 0.0166201 3.75991e-20)
(0.492369 -0.00548555 1.04179e-20)
(0.316364 0.141957 -3.03162e-20)
(0.518701 -0.00166438 -2.41473e-21)
(0.520154 -0.0124119 0)
(0.500137 -0.0359375 0)
(0.520554 -0.0116407 0)
(0.517962 0.000193182 5.98177e-21)
(0.505845 0.0379902 3.81378e-21)
(0.518256 -1.31769e-06 0)
(0.519844 -0.000152159 0)
(0.0813795 0.0261839 -9.33641e-21)
(0.389296 -0.0160213 5.41833e-22)
(0.498355 -0.0284133 -2.32847e-20)
(0.517609 -0.0148406 0)
(0.516648 0.000402649 0)
(0.527142 0.0166031 1.10526e-20)
(0.510109 -0.00349673 1.10701e-21)
(0.38802 0.0745071 2.46414e-20)
(0.490435 0.0163444 0)
(0.523501 -0.014494 1.22708e-21)
(0.501484 0.000346529 1.39158e-20)
(0.51681 0.000634631 0)
(0.519001 -0.0118794 6.62859e-21)
(0.517765 -0.000174209 -4.66132e-21)
(0.51595 -0.000247711 -3.00473e-22)
(0.538426 -0.00469897 4.62466e-20)
(0.514813 -0.000779525 1.48584e-22)
(0.497382 -0.000998811 2.96247e-20)
(0.492023 -0.00225206 -4.44953e-20)
(0.461974 0.148011 4.15793e-21)
(0.510462 0.00521581 -8.98885e-22)
(0.27218 0.125251 -6.06402e-21)
(0.520667 0.00073297 0)
(0.48692 -0.0192852 -4.59339e-20)
(0.469218 -0.0373107 -3.36774e-20)
(0.519139 -0.0003692 4.37115e-21)
(0.500529 -0.00356235 -4.67479e-21)
(0.516241 -0.000338358 0)
(0.394875 0.107861 -4.06758e-20)
(0.525066 5.6708e-05 0)
(0.518762 -0.00343076 0)
(0.359821 0.114327 -1.41036e-20)
(0.537603 -0.0246735 0)
(0.51153 0.0040162 -3.15627e-21)
(0.144008 -0.168141 -7.73448e-20)
(0.500246 0.0180904 2.98573e-20)
(0.516983 -0.068367 7.98961e-20)
(0.510688 0.0111507 1.62158e-20)
(0.537811 0.00234699 4.63706e-20)
(0.494287 0.00823344 -2.91983e-21)
(0.502931 -0.000585119 1.28968e-20)
(0.502507 0.00751319 1.97537e-20)
(0.51541 -0.000938663 -4.89638e-22)
(0.516414 -0.000441859 0)
(0.516334 0.00212232 0)
(0.530348 -0.01176 3.30242e-20)
(0.519256 -0.0108674 3.43014e-21)
(0.49531 -0.00308473 -2.48153e-20)
(0.500569 -0.00358854 1.5729e-20)
(0.518469 -0.00119755 -2.22249e-22)
(0.484105 -0.000318066 -3.78296e-22)
(0.50792 0.0066601 -2.73739e-21)
(0.516449 0.00214992 -7.02484e-23)
(0.507972 0.120087 -2.66919e-21)
(0.547641 0.000886995 -1.62768e-20)
(0.568561 -0.0183167 -8.68788e-20)
(0.433644 0.035737 4.0296e-20)
(0.286496 0.231026 0)
(0.501294 -0.00697683 -1.13973e-20)
(0.519961 -0.00205438 0)
(0.514048 -0.000333603 4.30888e-22)
(0.442102 0.00106545 2.17224e-21)
(0.516387 -0.000439702 0)
(0.524911 1.18859e-05 6.23323e-21)
(0.540824 -0.0134834 0)
(0.516418 -0.000611975 6.08601e-22)
(0.516431 -0.000584105 3.17328e-22)
(0.50308 -0.0101783 1.08991e-20)
(0.182252 -0.0253925 8.53753e-20)
(0.517448 -0.000275963 -8.6135e-21)
(0.513376 -0.000402411 3.16919e-22)
(0.487816 -0.0183154 5.48465e-20)
(0.538428 -0.0406545 -3.48508e-21)
(0.48205 -0.00318736 -6.33028e-22)
(0.443553 0.00170321 5.281e-22)
(0.515149 0.0024034 -1.21337e-21)
(0.560013 0.186544 2.09004e-20)
(0.493584 0.0259817 -1.32503e-21)
(0.515096 -0.000770669 0)
(0.51644 -0.000310301 0)
(0.517575 0.00261689 -3.85059e-21)
(0.537909 -0.0400694 3.63398e-21)
(0.517445 -0.000257356 5.46892e-21)
(0.52136 -0.00110401 0)
(0.516941 0.000593283 -9.88018e-22)
(0.598467 0.00012508 0)
(0.521416 -0.000576023 7.16501e-21)
(0.480602 -0.0197609 0)
(0.575847 0.133128 2.23409e-20)
(0.518094 0.00097491 6.39392e-21)
(0.504284 0.0122575 0)
(0.515138 -0.000770813 9.00088e-22)
(0.517902 -0.000238303 -9.13656e-21)
(0.486723 0.01934 0)
(0.517487 0.00263283 -6.82917e-21)
(0.566494 0.0159694 -9.50856e-21)
(0.219685 -0.0653757 -3.58919e-21)
(0.514026 -0.000310819 3.47083e-22)
(0.565811 -0.0208749 0)
(0.579892 0.0441003 0)
(0.536001 -0.0017571 -2.19367e-20)
(0.517656 0.00294785 7.79307e-22)
(0.562733 0.0336642 0)
(0.52072 0.000759742 0)
(0.524354 -0.00810594 0)
(0.491015 0.00311834 -3.13603e-20)
(0.520315 0.000384407 6.38907e-21)
(0.540766 -0.00289123 0)
(0.50811 0.00355094 4.28174e-21)
(0.499649 -0.00154661 -3.8073e-20)
(0.51558 0.000508298 -2.09487e-22)
(0.521388 -0.000594526 0)
(0.518896 -0.0184877 -2.74152e-21)
(0.500672 -0.00466587 0)
(0.510306 0.0312805 0)
(0.499291 0.00218108 -1.40578e-20)
(0.51717 0.000503219 2.80738e-21)
(0.181396 -0.163369 4.9019e-21)
(0.485783 0.00255967 2.17485e-20)
(0.528689 -0.0178083 1.31939e-20)
(0.538196 -0.00454837 -4.93662e-20)
(0.516806 0.00419543 -8.94999e-23)
(0.515611 0.000513132 0)
(0.48428 -0.0579832 0)
(0.480375 0.0198961 0)
(0.51734 -0.000535985 0)
(0.0911143 0.0361307 1.98904e-20)
(0.502786 -0.00662556 -5.1665e-21)
(0.413414 -0.0687343 6.35582e-21)
(0.500023 0.000195305 2.70645e-20)
(0.495333 -0.00300244 0)
(0.528649 -0.0180348 -2.45768e-20)
(0.517321 -0.000523773 0)
(0.0147823 -0.0100129 6.5758e-20)
(0.488659 -0.0104502 -5.28709e-20)
(0.51777 -0.000128886 3.94085e-21)
(0.516924 0.000724568 9.01586e-22)
(0.517994 0.00183125 0)
(0.11773 0.0721771 -4.10916e-20)
(0.518768 -0.0118965 6.90344e-21)
(0.499005 -0.0170168 0)
(0.516285 0.000830987 5.85285e-22)
(0.521446 -0.00115396 0)
(0.528904 0.00202708 0)
(0.434252 0.0344622 -4.03057e-20)
(0.516261 0.000790503 -8.33684e-24)
(0.540566 -0.00280964 0)
(0.398687 0.0484496 -8.345e-22)
(0.479708 0.0238641 0)
(0.509199 0.00653641 -2.03969e-21)
(0.499566 0.00327219 -1.75629e-20)
(0.508415 -0.0109704 3.01637e-21)
(0.326463 0.0485206 -8.29504e-20)
(0.512272 0.000722525 4.2713e-21)
(0.516656 0.00452551 0)
(0.59917 -0.00144225 -2.73561e-20)
(0.435475 -0.0104397 -3.33044e-20)
(0.411185 -0.0706364 0)
(0.500016 0.000170485 0)
(0.498756 -0.0170099 2.0238e-20)
(0.542844 0.03916 3.97482e-20)
(0.52273 -0.00552415 0)
(0.364096 -0.00658988 -6.62415e-20)
(0.500485 0.0110384 -1.98086e-22)
(0.487904 0.00683567 7.73063e-20)
(0.4693 0.0532329 3.07273e-20)
(0.0945355 -0.0424271 -9.27933e-20)
(0.502226 -0.00608638 0)
(0.499616 0.00329491 -6.29801e-21)
(0.510481 -0.0078321 8.20263e-21)
(0.542431 -0.0929958 -1.45606e-20)
(0.504444 0.0122363 0)
(0.516658 -0.00042307 -1.10212e-21)
(0.516393 -0.000321765 0)
(0.5193 0.00389956 4.00208e-22)
(0.517247 -0.000508956 -3.11705e-21)
(0.515968 -0.00212178 0)
(0.516758 0.00448507 -7.93755e-22)
(0.510446 0.0050394 -3.6723e-21)
(0.489775 -0.0468884 0)
(0.516798 -0.00341396 1.50355e-22)
(0.503331 0.000340106 2.59506e-20)
(0.261567 0.124654 -2.41252e-21)
(0.500019 8.55964e-07 5.85676e-20)
(0.517864 -0.000198928 1.1795e-20)
(0.531981 -0.129337 0)
(0.592932 -0.0736008 0)
(0.502917 0.0261819 -7.30386e-22)
(0.524413 0.00154811 0)
(0.30988 -0.00593402 0)
(0.486095 0.00639227 -7.95582e-21)
(0.10219 -0.0280111 8.05598e-20)
(0.518989 -0.000528975 3.79914e-21)
(0.503021 -0.000542261 0)
(0.533098 -0.00533041 -1.80877e-20)
(0.51544 -0.00096294 5.59638e-22)
(0.53827 -0.0027822 0)
(0.591607 -0.0749394 0)
(0.525424 -0.0194397 -4.64813e-21)
(0.503757 0.0067228 0)
(0.538201 0.0163259 2.57022e-21)
(0.50263 0.00201613 -1.45296e-21)
(0.479576 0.0357837 1.40929e-20)
(0.525496 -0.00203467 0)
(0.508373 0.0112204 -1.16141e-20)
(0.503438 0.000336414 -5.49122e-21)
(0.172353 -0.0259081 -8.93602e-20)
(0.474815 0.123932 5.14495e-21)
(0.516781 0.000609399 0)
(0.520514 0.000447293 0)
(0.455202 0.0508191 0)
(0.516646 -0.000530397 -2.25712e-23)
(0.511554 0.00102223 -4.40188e-22)
(0.519089 0.00369954 -5.45796e-22)
(0.513272 -0.00584349 6.10644e-22)
(0.524068 0.00586363 -2.21672e-20)
(0.558275 0.038503 3.12915e-20)
(0.501194 0.000793002 0)
(0.529482 -0.00371409 -8.94981e-22)
(0.498993 0.00252349 4.61725e-20)
(0.538156 0.00654678 6.78409e-21)
(0.516008 0.00507236 2.75345e-21)
(0.515149 -0.00801029 -3.09843e-22)
(0.508486 -0.000162678 9.76644e-21)