/*--------------------------------*- C++ -*----------------------------------*\
  =========                 |
  \\      /  F ield         | OpenFOAM: The Open Source CFD Toolbox
   \\    /   O peration     | Website:  https://openfoam.org
    \\  /    A nd           | Version:  9
     \\/     M anipulation  |
\*---------------------------------------------------------------------------*/
FoamFile
{
    format      ascii;
    class       surfaceScalarField;
    location    "0.25";
    object      alphaPhi0.water;
}
// * * * * * * * * * * * * * * * * * * * * * * * * * * * * * * * * * * * * * //

dimensions      [0 3 -1 0 0 0 0];

internalField   nonuniform List<scalar> 
3731
(
-1.23875e-05
4.52473e-07
-1.24781e-05
-7.71244e-07
8.53917e-06
-1.41898e-05
9.54706e-06
2.14981e-05
-5.16817e-06
1.57765e-05
3.64138e-05
1.03565e-05
1.90977e-05
5.20517e-05
2.95819e-05
2.10386e-05
6.81805e-05
5.06339e-05
2.29371e-05
8.48114e-05
7.35707e-05
2.59103e-05
0.000101853
9.94805e-05
3.1523e-05
0.000118509
0.000131003
4.10908e-05
0.000133253
0.000172094
-2.72062e-29
4.68796e-30
-1.92607e-28
6.45591e-29
-3.10698e-28
1.44131e-28
-1.15999e-28
8.50054e-29
-1.43226e-29
1.07612e-29
-1.46846e-30
5.25501e-31
-8.31927e-32
9.43636e-33
-3.76956e-33
-4.22105e-33
-2.61989e-34
-4.5414e-34
-3.51605e-35
-4.94128e-35
-4.96903e-36
-6.78672e-36
-6.05663e-37
-9.40348e-37
-6.28417e-38
-1.17139e-37
-5.59246e-39
-1.27836e-38
-4.3606e-40
-1.22036e-39
-3.06796e-41
-1.03488e-40
-1.98366e-42
-7.97709e-42
-1.17731e-43
-5.73044e-43
-6.37433e-45
-3.78174e-44
-3.13115e-46
-2.28138e-45
-1.38378e-47
-1.26335e-46
-5.4608e-49
-6.3125e-48
-1.89347e-50
-2.87395e-49
-5.66199e-52
-1.16926e-50
-1.40764e-53
-4.23504e-52
-2.72085e-55
-1.32926e-53
-3.27389e-57
-3.5597e-55
9.68396e-60
-7.64796e-57
1.62301e-60
-1.11256e-58
3.8028e-62
-2.23787e-61
2.61351e-64
1.1419e-62
-9.18317e-66
4.27445e-64
-3.41926e-67
9.51026e-66
-5.88387e-69
1.47374e-67
-5.84199e-71
1.52518e-69
-3.19069e-73
9.48495e-72
-7.99343e-76
2.69004e-74
-6.35326e-79
-6.48332e-78
-1.36682e-80
-7.39463e-79
-3.11317e-80
-1.56651e-27
6.98513e-28
-1.39138e-26
1.31464e-26
-2.32874e-26
2.81463e-26
-1.73624e-26
2.27645e-26
-3.44458e-27
5.60289e-27
-3.53443e-28
4.11355e-28
-2.31338e-29
6.08468e-30
-1.49774e-30
-1.52072e-30
-1.16522e-31
-2.09824e-31
-1.04023e-32
-2.31303e-32
-9.47191e-34
-2.44658e-33
-8.19924e-35
-2.44415e-34
-6.55709e-36
-2.2549e-35
-4.79917e-37
-1.90399e-36
-3.22938e-38
-1.46956e-37
-2.021e-39
-1.04398e-38
-1.18263e-40
-6.90654e-40
-6.44881e-42
-4.28369e-41
-3.24884e-43
-2.47471e-42
-1.50056e-44
-1.32527e-43
-6.32191e-46
-6.52895e-45
-2.40726e-47
-2.94436e-46
-8.22844e-49
-1.20854e-47
-2.49432e-50
-4.48985e-49
-6.60852e-52
-1.49425e-50
-1.49345e-53
-4.39249e-52
-2.77586e-55
-1.1189e-53
-3.98907e-57
-2.36856e-55
-3.89442e-59
-3.80643e-57
-1.98651e-61
-3.28012e-59
-1.87971e-63
3.94171e-61
-1.37043e-64
2.40223e-62
-4.40578e-66
5.82864e-64
-7.71764e-68
9.22578e-66
-8.17326e-70
9.85383e-68
-5.01938e-72
6.5069e-70
-1.57925e-74
2.09543e-72
-2.23706e-77
1.07155e-76
-2.05932e-80
-1.93848e-77
-2.19219e-79
-1.01186e-25
6.69925e-26
-9.61847e-25
1.15236e-24
-1.73523e-24
2.62388e-24
-1.29511e-24
2.24691e-24
-2.53798e-25
5.69165e-25
-2.79873e-26
4.16545e-26
-2.17749e-27
6.01241e-28
-1.6547e-28
-2.10699e-28
-1.28049e-29
-3.18566e-29
-9.77589e-31
-3.37632e-30
-7.12554e-32
-3.08015e-31
-4.87877e-33
-2.50508e-32
-3.12471e-34
-1.84496e-33
-1.87361e-35
-1.24797e-34
-1.05747e-36
-7.84247e-36
-5.65513e-38
-4.62936e-37
-2.8668e-39
-2.58937e-38
-1.36924e-40
-1.37367e-39
-6.10993e-42
-6.86607e-41
-2.52912e-43
-3.21311e-42
-9.64853e-45
-1.39692e-43
-3.36878e-46
-5.60933e-45
-1.06927e-47
-2.06655e-46
-3.06153e-49
-6.94297e-48
-7.82503e-51
-2.10975e-49
-1.76053e-52
-5.73177e-51
-3.42738e-54
-1.36836e-52
-5.64659e-56
-2.78372e-54
-7.6801e-58
-4.54899e-56
-8.53106e-60
-5.08017e-58
-8.50443e-62
-7.293e-61
-1.01931e-63
1.26956e-61
-1.64764e-65
3.60251e-63
-2.46576e-67
5.98448e-65
-2.6102e-69
6.6363e-67
-1.73011e-71
4.66251e-69
-6.09635e-74
1.66392e-71
-7.9841e-77
2.5445e-75
-6.27899e-79
-1.12653e-76
-1.05476e-77
-4.00986e-24
3.5294e-24
-4.23782e-23
6.10778e-23
-8.11311e-23
1.43892e-22
-5.9231e-23
1.26275e-22
-1.19413e-23
3.13301e-23
-1.4377e-24
2.3521e-24
-1.25929e-25
2.74783e-26
-1.01157e-26
-1.70454e-26
-7.61101e-28
-2.5134e-27
-5.25107e-29
-2.53783e-28
-3.29982e-30
-2.08592e-29
-1.90294e-31
-1.46978e-30
-1.01983e-32
-9.17916e-32
-5.14286e-34
-5.21829e-33
-2.4682e-35
-2.75962e-34
-1.13499e-36
-1.38124e-35
-4.99489e-38
-6.60547e-37
-2.08943e-39
-3.01851e-38
-8.24474e-41
-1.31037e-39
-3.04706e-42
-5.3714e-41
-1.04774e-43
-2.06475e-42
-3.33029e-45
-7.39287e-44
-9.71991e-47
-2.44944e-45
-2.58627e-48
-7.45984e-47
-6.2193e-50
-2.07208e-48
-1.33726e-51
-5.19482e-50
-2.53804e-53
-1.15785e-51
-4.18423e-55
-2.23937e-53
-5.87972e-57
-3.60231e-55
-6.90369e-59
-4.38312e-57
-6.70834e-61
-2.74529e-59
-5.53442e-63
3.35475e-61
-4.35017e-65
1.3955e-62
-3.71102e-67
2.47922e-64
-3.04903e-69
2.81875e-66
-1.83569e-71
2.0282e-68
-5.82274e-74
7.41121e-71
-5.24687e-77
8.51912e-75
-1.48014e-78
-3.14247e-76
-1.31448e-76
-1.30453e-22
1.39039e-22
-1.49948e-21
2.43459e-21
-3.00645e-21
5.86958e-21
-2.1132e-21
5.17791e-21
-4.23767e-22
1.21283e-21
-5.03209e-23
8.752e-23
-4.5267e-24
2.24899e-25
-3.73585e-25
-7.91228e-25
-2.76718e-26
-1.15455e-25
-1.78313e-27
-1.14139e-26
-1.01034e-28
-8.67558e-28
-5.15214e-30
-5.46636e-29
-2.41774e-31
-3.01127e-30
-1.06467e-32
-1.50218e-31
-4.46786e-34
-6.96331e-33
-1.80055e-35
-3.05528e-34
-6.96525e-37
-1.2803e-35
-2.57339e-38
-5.1283e-37
-9.02669e-40
-1.9574e-38
-2.98833e-41
-7.08896e-40
-9.27645e-43
-2.42476e-41
-2.68309e-44
-7.78303e-43
-7.18343e-46
-2.32877e-44
-1.76753e-47
-6.45268e-46
-3.96516e-49
-1.64291e-47
-8.03269e-51
-3.8065e-49
-1.45232e-52
-7.91893e-51
-2.30909e-54
-1.44969e-52
-3.16596e-56
-2.2609e-54
-3.6407e-58
-2.82107e-56
-3.35379e-60
-2.35701e-58
-2.23003e-62
-6.99323e-62
-6.67222e-65
3.91023e-62
7.17697e-67
7.94124e-64
1.35389e-68
9.32004e-66
1.09472e-70
6.75025e-68
4.45022e-73
2.40367e-70
6.06111e-76
1.30431e-74
2.82577e-77
-8.96683e-76
-8.00622e-76
-4.24257e-21
4.9479e-21
-4.66064e-20
8.04453e-20
-8.77212e-20
1.82631e-19
-5.14116e-20
1.51532e-19
-9.34284e-21
2.75384e-20
-1.01398e-21
1.70814e-21
-9.65079e-23
-3.05581e-23
-8.53102e-24
-2.18479e-23
-6.38969e-25
-3.31862e-24
-3.95671e-26
-3.24924e-25
-2.08865e-27
-2.3543e-26
-9.76523e-29
-1.37045e-27
-4.16714e-30
-6.8535e-29
-1.66115e-31
-3.08297e-30
-6.28778e-33
-1.28679e-31
-2.27771e-34
-5.08046e-33
-7.90295e-36
-1.91306e-34
-2.62016e-37
-6.87555e-36
-8.269e-39
-2.35451e-37
-2.47386e-40
-7.66374e-39
-6.97747e-42
-2.363e-40
-1.844e-43
-6.86933e-42
-4.53827e-45
-1.87137e-43
-1.03289e-46
-4.7484e-45
-2.15694e-48
-1.11416e-46
-4.09476e-50
-2.39525e-48
-6.98529e-52
-4.6612e-50
-1.05469e-53
-8.07171e-52
-1.37935e-55
-1.21188e-53
-1.50857e-57
-1.50798e-55
-1.28431e-59
-1.40399e-57
-6.77293e-62
-6.37266e-60
1.33443e-64
7.17254e-62
8.41898e-66
2.06581e-63
1.06214e-67
2.57008e-65
7.43307e-70
1.84837e-67
2.62956e-72
6.28237e-70
3.14422e-75
1.02326e-74
2.51112e-76
-2.71932e-75
-3.30965e-75
-1.23669e-19
1.53747e-19
-9.70088e-19
1.75157e-18
-1.46744e-18
3.15834e-18
-6.03451e-19
2.263e-18
-1.02391e-19
2.56098e-19
-1.15209e-20
1.31922e-20
-1.25834e-21
-9.00208e-22
-1.20943e-22
-3.27198e-22
-9.21602e-24
-5.21552e-23
-5.6589e-25
-5.12771e-24
-2.90157e-26
-3.74309e-25
-1.29383e-27
-2.17087e-26
-5.1962e-29
-1.05519e-27
-1.93103e-30
-4.50205e-29
-6.76369e-32
-1.74938e-30
-2.25463e-33
-6.35377e-32
-7.17347e-35
-2.18945e-33
-2.17749e-36
-7.19607e-35
-6.29353e-38
-2.25564e-36
-1.72618e-39
-6.73158e-38
-4.47442e-41
-1.90583e-39
-1.09026e-42
-5.09741e-41
-2.48287e-44
-1.28164e-42
-5.25027e-46
-3.0118e-44
-1.02291e-47
-6.5719e-46
-1.81905e-49
-1.32065e-47
-2.91777e-51
-2.41748e-49
-4.15242e-53
-3.9713e-51
-5.11367e-55
-5.7297e-53
-5.21125e-57
-7.0138e-55
-3.95526e-59
-6.81274e-57
-1.38552e-61
-4.34572e-59
1.78382e-63
2.87e-63
4.16662e-65
4.31775e-63
4.42903e-67
6.06732e-65
2.73275e-69
4.33887e-67
8.39696e-72
1.41033e-69
9.01505e-75
9.84418e-74
1.23315e-75
-6.65904e-75
-1.07646e-74
-2.14962e-18
2.77488e-18
-1.16758e-17
2.01686e-17
-1.48263e-17
2.82649e-17
-3.38766e-18
1.54936e-17
-6.74422e-19
1.01298e-18
-9.52827e-20
3.56035e-20
-1.0212e-20
-1.54232e-20
-9.96278e-22
-2.60731e-21
-7.69941e-23
-3.78046e-22
-4.825e-24
-3.91583e-23
-2.52764e-25
-2.99338e-24
-1.1367e-26
-1.85031e-25
-4.51798e-28
-9.51015e-27
-1.62958e-29
-4.19082e-28
-5.44585e-31
-1.63131e-29
-1.7111e-32
-5.75752e-31
-5.09765e-34
-1.88341e-32
-1.4445e-35
-5.80236e-34
-3.89323e-37
-1.69738e-35
-9.95529e-39
-4.72454e-37
-2.40652e-40
-1.24934e-38
-5.47492e-42
-3.12751e-40
-1.16576e-43
-7.37521e-42
-2.30867e-45
-1.62913e-43
-4.22019e-47
-3.35038e-45
-7.05193e-49
-6.36563e-47
-1.06338e-50
-1.10638e-48
-1.42015e-52
-1.73611e-50
-1.62885e-54
-2.4148e-52
-1.50942e-56
-2.89554e-54
-9.48239e-59
-2.85111e-56
-2.69874e-62
-2.06469e-58
1.00014e-62
-6.98882e-61
1.61504e-64
6.41103e-63
1.47911e-66
1.25052e-64
8.0553e-69
9.36688e-67
1.97063e-71
2.93266e-69
1.8201e-74
5.16853e-73
4.59905e-75
-1.30769e-74
-2.86866e-74
-4.22014e-17
7.24363e-17
-8.33904e-17
1.62738e-16
-5.85016e-17
1.15721e-16
-1.37514e-17
2.35958e-17
-3.99893e-18
2.43662e-18
-7.00607e-19
-2.28592e-19
-6.22815e-20
-1.61508e-19
-5.21524e-21
-1.95905e-20
-3.95058e-22
-1.79432e-21
-2.4988e-23
-1.79103e-22
-1.34699e-24
-1.36743e-23
-6.27817e-26
-8.78106e-25
-2.57449e-27
-4.79756e-26
-9.44824e-29
-2.26555e-27
-3.15108e-30
-9.37442e-29
-9.68671e-32
-3.44522e-30
-2.78044e-33
-1.14132e-31
-7.51965e-35
-3.46884e-33
-1.9237e-36
-9.82526e-35
-4.65727e-38
-2.61795e-36
-1.06486e-39
-6.58927e-38
-2.29052e-41
-1.56727e-39
-4.6114e-43
-3.51435e-41
-8.63503e-45
-7.39792e-43
-1.49181e-46
-1.45337e-44
-2.35287e-48
-2.64488e-46
-3.33785e-50
-4.41711e-48
-4.1614e-52
-6.68863e-50
-4.37158e-54
-9.03499e-52
-3.50483e-56
-1.06335e-53
-1.39766e-58
-1.04909e-55
1.58847e-60
-8.04251e-58
4.39574e-62
-3.93022e-60
5.55877e-64
1.83795e-63
4.4578e-66
2.29457e-64
2.1546e-68
1.9419e-66
4.08672e-71
6.23139e-69
3.3734e-74
1.62905e-72
1.42723e-74
-2.24883e-74
-6.27537e-74
-3.27309e-16
4.94766e-16
-2.96471e-16
4.09845e-16
-9.1903e-17
1.49772e-16
-3.55498e-17
1.93267e-17
-1.43284e-17
1.2313e-18
-3.738e-18
-2.18337e-18
-4.84998e-19
-1.32681e-18
-3.20753e-20
-2.75847e-19
-1.83402e-21
-1.9726e-20
-1.05149e-22
-9.90054e-22
-5.34538e-24
-6.1532e-23
-2.43687e-25
-3.45819e-24
-1.00383e-26
-1.76737e-25
-3.75197e-28
-8.23386e-27
-1.27651e-29
-3.48781e-28
-3.96888e-31
-1.33812e-29
-1.13593e-32
-4.63645e-31
-3.01949e-34
-1.45655e-32
-7.50515e-36
-4.19015e-34
-1.75078e-37
-1.11457e-35
-3.83621e-39
-2.75988e-37
-7.88282e-41
-6.38798e-39
-1.51337e-42
-1.38484e-40
-2.69761e-44
-2.8112e-42
-4.42543e-46
-5.32757e-44
-6.59842e-48
-9.37581e-46
-8.7721e-50
-1.52015e-47
-1.00567e-51
-2.2459e-49
-9.25549e-54
-2.97802e-51
-5.38867e-56
-3.4663e-53
1.54379e-58
-3.42466e-55
1.01656e-59
-2.74817e-57
1.69044e-61
-1.55634e-59
1.80455e-63
-3.26028e-62
1.29672e-65
3.79961e-64
5.53762e-68
4.12396e-66
8.85741e-71
1.41395e-68
8.46323e-74
6.6641e-72
3.85272e-74
-2.38679e-74
-1.07589e-73
6.17435e-05
0.000138832
0.000169371
6.44659e-05
7.75859e-05
0.000139012
0.000165135
8.18224e-05
8.60573e-05
0.000137734
0.000159585
9.16074e-05
9.10579e-05
0.00013576
0.000154704
9.59387e-05
9.34525e-05
0.00013352
0.000150882
9.72745e-05
9.34194e-05
0.000131242
0.000147737
9.65646e-05
9.11432e-05
0.000128945
0.000144882
9.39976e-05
8.69265e-05
0.000126545
0.00014204
8.97689e-05
8.13931e-05
0.000123893
0.000139119
8.43142e-05
7.47191e-05
0.000135525
7.82924e-05
0.000127915
7.21902e-05
9.24884e-05
6.53223e-05
4.19684e-05
5.88895e-05
2.14169e-05
3.69077e-05
8.22105e-06
1.40992e-05
2.92669e-06
5.56622e-06
9.70554e-07
2.02939e-06
3.16686e-07
6.73133e-07
1.03618e-07
2.18077e-07
3.35599e-08
7.13015e-08
7.11234e-09
2.76978e-08
2.02353e-09
5.21916e-09
3.74867e-10
1.66631e-09
5.12358e-10
1.64426e-09
3.8223e-09
0
4.77056e-09
-1.03803e-09
3.13039e-09
0
4.68622e-10
0
6.62471e-11
0
1.54604e-11
-1.82938e-11
3.23062e-12
-6.31254e-12
5.75759e-13
-1.86195e-12
-4.12027e-13
-1.02481e-15
6.29903e-05
-1.58298e-15
7.52016e-16
-1.26609e-15
-1.25308e-16
-1.9111e-16
-8.82358e-16
1.82055e-05
0.000120213
-2.77633e-16
1.683e-05
-8.90417e-16
6.6803e-16
7.61817e-17
-9.27e-16
6.59183e-05
0.000145819
5.10208e-06
7.65258e-05
-4.42298e-15
5.10208e-06
7.9086e-15
-8.95386e-15
8.81628e-05
0.000153668
2.88753e-05
0.000121692
2.50316e-06
2.69155e-05
2.48995e-06
1.56085e-08
9.68415e-05
0.000154097
7.14267e-05
0.000146723
7.40334e-06
8.80076e-05
8.79182e-06
9.74883e-07
9.79831e-05
0.000152653
8.76144e-05
0.000157015
2.61391e-05
0.000122973
2.66199e-05
2.69221e-06
9.60896e-05
0.000150559
9.36859e-05
0.000159567
6.7381e-05
0.000149491
8.00629e-05
5.49118e-06
9.21903e-05
0.000148137
9.22701e-05
0.000159516
8.03528e-05
0.000161345
0.000120542
1.16501e-05
8.69407e-05
0.000145492
8.82693e-05
0.00015816
8.35145e-05
0.000166039
0.000151753
2.71283e-05
8.09551e-05
0.000142805
8.28328e-05
0.000156237
8.21277e-05
0.000166647
0.000155092
4.85707e-05
7.4834e-05
0.000140099
7.66849e-05
0.000154307
7.70503e-05
0.000166167
0.000163543
5.81513e-05
6.88407e-05
0.000136446
7.04304e-05
0.000152606
7.10652e-05
0.000165327
0.000169368
6.1278e-05
6.33054e-05
0.000131773
6.41547e-05
0.00015152
6.46028e-05
0.000164608
0.000171951
5.96749e-05
5.72628e-05
0.000114186
5.77532e-05
0.00015077
5.79088e-05
0.000164159
0.000172373
5.39886e-05
5.13698e-05
8.38586e-05
5.11525e-05
0.000150814
5.12505e-05
0.000163804
0.000171495
4.66858e-05
4.46608e-05
6.62943e-05
4.45498e-05
0.000150729
4.49176e-05
0.000163227
0.00016964
3.98763e-05
3.72525e-05
6.35694e-05
3.94501e-05
0.000148329
3.87079e-05
0.00015805
0.000158086
3.34754e-05
3.08295e-05
6.78609e-05
3.59917e-05
0.000143607
2.99123e-05
0.000146038
9.29663e-05
1.95682e-05
2.43762e-05
6.83494e-05
2.79105e-05
0.00014356
2.07539e-05
0.000145954
4.36741e-05
8.66966e-07
2.11595e-05
5.16025e-05
2.70928e-05
0.000142155
2.68865e-05
0.000148362
6.8398e-05
2.95959e-06
1.72169e-05
1.37845e-05
2.84861e-05
0.000129263
2.97266e-05
0.000145538
0.000128775
1.22774e-05
9.20108e-06
4.63853e-06
2.69931e-05
8.02024e-05
3.18887e-05
0.000138776
0.000125925
2.86123e-05
3.73552e-06
9.033e-07
2.39529e-05
8.52813e-06
3.32707e-05
8.88083e-05
0.000105832
3.25483e-05
7.55625e-07
1.50817e-07
7.34688e-06
1.75226e-06
2.52777e-05
7.65371e-06
3.49324e-05
2.83758e-05
1.34415e-07
7.21051e-08
1.52604e-06
3.57376e-07
4.90928e-06
1.98538e-06
3.14652e-06
6.24432e-06
0
4.52387e-08
2.5201e-07
7.72823e-08
1.18796e-06
4.4444e-07
9.72059e-07
1.70875e-06
0
7.90771e-09
-1.64873e-08
2.91252e-08
1.28243e-07
8.36443e-08
2.56494e-07
3.26663e-07
0
1.42621e-09
-1.82068e-08
3.68113e-09
-3.36426e-08
1.2466e-08
5.81985e-08
1.96679e-08
-9.81641e-11
2.95183e-10
-6.5984e-09
2.38286e-10
-1.83943e-08
2.28679e-09
1.1769e-08
-7.73306e-09
-1.09838e-10
5.47845e-11
-1.61149e-09
8.82484e-11
-4.59244e-09
4.80269e-10
2.15756e-09
-2.76504e-09
-4.96381e-11
9.83136e-12
-3.15374e-10
2.11682e-11
-8.54552e-10
9.48386e-11
3.6249e-10
-5.70694e-10
-1.07113e-11
1.70604e-12
-5.4515e-11
4.18886e-12
-1.38441e-10
1.66861e-11
5.61642e-11
-9.72442e-11
-2.00417e-12
-8.7415e-12
-2.08302e-11
-1.5192e-11
-6.75272e-16
4.62522e-16
-3.38319e-16
3.22646e-16
-1.10275e-16
1.07237e-16
-5.35503e-17
7.11224e-18
-3.14897e-17
-6.68563e-18
-1.65609e-17
-1.15583e-17
-5.49905e-18
-1.11923e-17
-6.2621e-19
-5.58385e-18
-1.72229e-20
-8.25615e-19
-7.2214e-22
-1.50161e-20
-2.73542e-23
-6.46695e-22
-1.00211e-24
-2.39412e-23
-3.59365e-26
-8.81571e-25
-1.24376e-27
-3.25496e-26
-4.08805e-29
-1.19264e-27
-1.25936e-30
-4.25109e-29
-3.60328e-32
-1.44254e-30
-9.55136e-34
-4.57042e-32
-2.35002e-35
-1.33889e-33
-5.37926e-37
-3.62471e-35
-1.1466e-38
-9.08865e-37
-2.27456e-40
-2.11316e-38
-4.18847e-42
-4.55916e-40
-7.11836e-44
-9.12883e-42
-1.10561e-45
-1.69471e-43
-1.54374e-47
-2.90865e-45
-1.88098e-49
-4.59187e-47
-1.87611e-51
-6.61394e-49
-1.25173e-53
-8.5657e-51
1.62463e-56
-9.83613e-53
2.32283e-57
-9.81034e-55
4.62801e-59
-8.06409e-57
6.08055e-61
-4.92652e-59
5.85806e-63
-1.58266e-61
3.96851e-65
5.79486e-64
1.58243e-67
9.91792e-66
2.25058e-70
3.99104e-68
2.12588e-73
2.59249e-71
9.41747e-74
3.06286e-74
-1.12448e-73
-7.47832e-16
7.95672e-16
-5.92598e-16
2.66866e-16
-3.99246e-16
7.04175e-17
-1.20043e-16
-3.25808e-17
-8.00967e-17
-3.32602e-17
-6.26764e-17
-4.99891e-17
-4.09335e-17
-5.63137e-17
-1.08924e-17
-5.12869e-17
-2.91292e-19
-1.34988e-17
-1.05475e-20
-3.16729e-19
-2.95841e-22
-1.31178e-20
-7.5905e-24
-3.68063e-22
-1.93114e-25
-9.73831e-24
-5.05144e-27
-2.50383e-25
-1.36029e-28
-6.49212e-27
-3.69715e-30
-1.7469e-28
-9.82229e-32
-4.87612e-30
-2.48544e-33
-1.36823e-31
-5.91665e-35
-3.72781e-33
-1.31808e-36
-9.68398e-35
-2.73552e-38
-2.38134e-36
-5.26271e-40
-5.51538e-38
-9.32418e-42
-1.19735e-39
-1.50663e-43
-2.42453e-41
-2.18412e-45
-4.55628e-43
-2.75508e-47
-7.89883e-45
-2.81756e-49
-1.25321e-46
-1.81452e-51
-1.79989e-48
8.09509e-54
-2.34213e-50
5.3614e-55
-2.71064e-52
1.12294e-56
-2.7159e-54
1.66641e-58
-2.25879e-56
1.93631e-60
-1.43541e-58
1.76205e-62
-5.35292e-61
1.18567e-64
8.85959e-64
5.04331e-67
2.6641e-65
8.17386e-70
1.4766e-67
5.33517e-73
1.25091e-70
2.02464e-73
2.9452e-73
3.58474e-74
-2.30084e-14
4.70345e-14
-1.65722e-14
4.83942e-15
-1.74071e-15
-2.36293e-15
-8.48805e-16
-2.40845e-17
-2.12353e-16
-5.97519e-16
-1.76024e-16
-1.45485e-16
-1.41456e-16
-1.5033e-16
-6.78567e-17
-1.76589e-16
-4.18244e-18
-7.58709e-17
-1.63816e-19
-5.55407e-18
-4.48725e-21
-2.38621e-19
-1.00225e-22
-6.70198e-21
-2.05241e-24
-1.58336e-22
-4.02998e-26
-3.49134e-24
-7.84202e-28
-7.26062e-26
-1.57252e-29
-1.46133e-27
-3.27493e-31
-2.97295e-29
-6.90671e-33
-6.25963e-31
-1.43481e-34
-1.35071e-32
-2.88046e-36
-2.92539e-34
-5.50542e-38
-6.25969e-36
-9.87198e-40
-1.30897e-37
-1.63217e-41
-2.64948e-39
-2.42724e-43
-5.14061e-41
-3.10545e-45
-9.46905e-43
-3.06026e-47
-1.63404e-44
-1.28857e-49
-2.63137e-46
3.57494e-51
-3.92929e-48
1.27199e-52
-5.32696e-50
2.60891e-54
-6.42819e-52
4.14388e-56
-6.72883e-54
5.42537e-58
-5.86466e-56
5.90397e-60
-3.89911e-58
5.23735e-62
-1.55213e-60
3.60113e-64
2.16074e-63
1.72364e-66
8.09683e-65
4.36042e-69
5.99389e-67
3.86067e-72
1.7177e-69
4.37314e-73
1.96267e-72
5.74637e-73
-5.75999e-13
1.59431e-08
-1.22592e-13
3.81795e-14
-2.68785e-14
-7.16075e-14
-1.60937e-14
-3.872e-15
-9.01794e-16
-1.59692e-14
-7.0164e-16
-5.38015e-16
-3.09694e-16
-6.59213e-16
-1.932e-16
-3.68578e-16
-4.26075e-17
-2.76713e-16
-1.86504e-18
-7.81577e-17
-5.98328e-20
-3.17851e-18
-1.31445e-21
-1.12295e-19
-2.53624e-23
-2.52416e-21
-4.56686e-25
-5.14343e-23
-7.67726e-27
-9.95427e-25
-1.23404e-28
-1.80062e-26
-1.9517e-30
-3.11147e-28
-3.08238e-32
-5.28153e-30
-4.85435e-34
-8.96245e-32
-7.55795e-36
-1.52126e-33
-1.1488e-37
-2.56475e-35
-1.66815e-39
-4.28084e-37
-2.22532e-41
-7.07055e-39
-2.5116e-43
-1.15224e-40
-1.81196e-45
-1.84854e-42
1.21544e-47
-2.89777e-44
8.75367e-49
-4.3504e-46
2.34762e-50
-6.18979e-48
4.72264e-52
-8.183e-50
7.95403e-54
-9.90562e-52
1.15402e-55
-1.08001e-53
1.44271e-57
-1.00959e-55
1.53744e-59
-7.03491e-58
1.37233e-61
-2.80612e-60
9.83616e-64
7.24661e-63
5.25714e-66
2.20381e-64
1.81977e-68
1.96323e-66
2.96092e-71
9.53756e-69
5.64092e-73
1.8665e-71
1.28856e-72
6.72761e-09
9.76492e-07
-3.57042e-12
6.87545e-09
-6.9784e-13
-1.27948e-13
-2.43847e-13
-3.2895e-13
-1.37394e-14
-2.71858e-13
-8.53276e-15
-6.07987e-15
-4.71376e-16
-8.7841e-15
-3.89025e-16
-5.3292e-16
-2.54626e-16
-7.58619e-16
-1.47546e-17
-6.27132e-16
-6.45374e-19
-2.86936e-17
-1.49965e-20
-1.56268e-18
-2.8102e-22
-3.8219e-20
-4.90876e-24
-7.44669e-22
-7.86217e-26
-1.39408e-23
-1.16041e-27
-2.40468e-25
-1.6083e-29
-3.8299e-27
-2.12935e-31
-5.76693e-29
-2.69837e-33
-8.44024e-31
-3.22875e-35
-1.22062e-32
-3.54407e-37
-1.74656e-34
-3.35955e-39
-2.45427e-36
-2.25109e-41
-3.37022e-38
4.72193e-44
-4.53287e-40
5.99022e-45
-5.86743e-42
1.63726e-46
-7.40282e-44
3.41003e-48
-9.02957e-46
6.22647e-50
-1.0668e-47
1.02782e-51
-1.21162e-49
1.54025e-53
-1.29508e-51
2.08262e-55
-1.25925e-53
2.50799e-57
-1.04748e-55
2.66084e-59
-6.76526e-58
2.41504e-61
-2.29516e-60
1.80543e-63
1.60082e-62
1.04797e-65
3.5799e-64
4.26967e-68
3.34926e-66
9.85871e-71
1.95789e-68
7.55558e-73
6.67111e-71
2.3406e-72
2.18031e-07
3.36113e-06
-1.88877e-12
2.25489e-07
-3.11186e-12
1.22531e-12
-3.74011e-12
-4.53478e-13
-6.91645e-13
-1.53291e-12
-2.41943e-13
-4.5985e-13
-4.08803e-15
-7.81494e-13
-9.83761e-16
-3.70882e-15
-7.28607e-16
-1.50792e-15
-7.58201e-17
-2.21823e-15
-4.80107e-18
-1.58394e-16
-1.36275e-19
-1.3149e-17
-2.68546e-21
-4.34616e-19
-4.75196e-23
-9.53994e-21
-7.52187e-25
-1.91126e-22
-1.05546e-26
-3.44431e-24
-1.32779e-28
-5.47396e-26
-1.51682e-30
-7.86098e-28
-1.56576e-32
-1.0469e-29
-1.39376e-34
-1.33895e-31
-8.64705e-37
-1.69664e-33
2.04398e-39
-2.14808e-35
2.02693e-40
-2.67228e-37
4.7671e-42
-3.26291e-39
8.20602e-44
-3.79861e-41
1.18963e-45
-4.11178e-43
1.52889e-47
-4.05752e-45
1.8266e-49
-3.64518e-47
2.10598e-51
-3.00361e-49
2.39162e-53
-2.28789e-51
2.67583e-55
-1.62208e-53
2.88348e-57
-1.07516e-55
2.86988e-59
-4.94237e-58
2.55054e-61
-6.13124e-61
1.91869e-63
2.30892e-62
1.13389e-65
4.12524e-64
4.78776e-68
4.00044e-66
1.20231e-70
2.5039e-68
9.94036e-73
8.97485e-71
3.94771e-72
7.27215e-07
7.85107e-06
2.6379e-08
8.95667e-07
-1.23777e-10
2.65339e-08
-1.05081e-11
-1.13884e-10
-2.45299e-12
-3.33289e-12
-1.24987e-12
-1.69613e-12
-5.46464e-14
-1.3502e-12
-4.70668e-15
-5.60746e-14
-1.76356e-15
-4.73212e-15
-2.43248e-16
-4.53964e-15
-2.01124e-17
-5.4535e-16
-7.78831e-19
-5.71755e-17
-1.83506e-20
-2.8089e-18
-3.52769e-22
-8.17393e-20
-5.82895e-24
-1.93767e-21
-8.1137e-26
-4.05211e-23
-9.37722e-28
-7.33053e-25
-8.51703e-30
-1.17358e-26
-4.55594e-32
-1.71479e-28
3.35153e-34
-2.29132e-30
1.61439e-35
-2.83486e-32
3.46709e-37
-3.29971e-34
5.89509e-39
-3.65018e-36
8.86359e-41
-3.89367e-38
1.19762e-42
-4.0118e-40
1.4295e-44
-3.87546e-42
1.50254e-46
-3.41174e-44
1.40431e-48
-2.70555e-46
1.1654e-50
-1.91496e-48
8.41263e-53
-1.18084e-50
5.25254e-55
-6.01066e-53
3.00818e-57
-2.31836e-55
1.6486e-59
-5.53942e-58
9.04511e-62
3.71161e-62
5.06739e-64
1.28418e-62
2.74041e-66
1.31413e-64
1.22433e-68
8.39448e-67
3.60578e-71
3.27746e-69
1.25954e-72
1.66189e-71
6.57014e-72
1.23559e-06
1.4625e-05
9.85245e-08
1.94157e-06
1.3285e-09
1.18045e-07
-2.9986e-11
1.27138e-09
-6.33058e-12
-2.5125e-11
-1.4156e-12
-5.97358e-12
-2.33864e-13
-9.31254e-13
-3.11841e-14
-2.56749e-13
-4.26125e-15
-4.95492e-14
-5.48685e-16
-7.43477e-15
-4.69418e-17
-1.37914e-15
-2.43883e-18
-1.49043e-16
-7.1979e-20
-1.05937e-17
-1.48228e-21
-4.2965e-19
-2.3837e-23
-1.23132e-20
-2.72551e-25
-3.05169e-22
-1.0062e-27
-6.7573e-24
5.26676e-29
-1.30947e-25
1.87492e-30
-2.24536e-27
4.08102e-32
-3.42109e-29
7.06558e-34
-4.66174e-31
1.05469e-35
-5.72683e-33
1.41629e-37
-6.40111e-35
1.75782e-39
-6.58083e-37
2.02365e-41
-6.26714e-39
2.11699e-43
-5.48451e-41
1.99759e-45
-4.34302e-43
1.7117e-47
-3.09204e-45
1.32957e-49
-1.96302e-47
9.16681e-52
-1.0856e-49
5.36493e-54
-4.92219e-52
2.47027e-56
-1.65916e-54
8.6934e-59
-2.81902e-57
2.79435e-61
6.6344e-60
8.37116e-64
7.62959e-62
2.07433e-66
3.37565e-64
4.03361e-69
9.7675e-67
8.63049e-72
2.71235e-69
2.03191e-72
1.43561e-71
1.33949e-71
1.97621e-06
3.06792e-05
2.09635e-07
3.52121e-06
8.70802e-09
2.99639e-07
0
9.6796e-09
-2.86271e-11
2.63911e-11
-5.33692e-12
-1.12896e-10
-4.36491e-13
-5.85804e-12
-9.36746e-14
-5.96617e-13
-1.30536e-14
-1.43256e-13
-1.08287e-15
-1.6463e-14
-6.88979e-17
-3.18138e-15
-4.17352e-18
-2.99748e-16
-1.33412e-19
-2.87981e-17
-1.91645e-21
-1.60787e-18
1.34158e-23
-5.60052e-20
1.88563e-24
-1.57124e-21
7.40792e-26
-3.91122e-23
2.04395e-27
-8.60939e-25
4.55745e-29
-1.67357e-26
8.63913e-31
-2.88219e-28
1.42957e-32
-4.41786e-30
2.09873e-34
-6.05167e-32
2.76737e-36
-7.43633e-34
3.30979e-38
-8.22932e-36
3.60234e-40
-8.2127e-38
3.55064e-42
-7.36495e-40
3.15429e-44
-5.89271e-42
2.52972e-46
-4.17101e-44
1.82238e-48
-2.57164e-46
1.16179e-50
-1.33886e-48
6.47171e-53
-5.6396e-51
3.14295e-55
-1.67468e-53
1.3106e-57
-1.368e-56
4.71852e-60
2.14709e-58
1.42004e-62
1.80502e-60
3.38082e-65
8.99747e-63
5.32351e-68
3.09188e-65
5.8144e-71
6.57133e-68
4.05158e-72
1.19441e-70
3.29856e-71
2.51115e-06
5.96426e-05
3.15739e-07
5.41211e-06
2.38055e-08
5.55729e-07
1.93468e-09
3.03595e-08
8.17591e-12
9.6127e-10
-2.17517e-11
-9.25488e-11
-2.52201e-12
-2.98463e-11
-4.4004e-13
-5.11256e-12
-4.5829e-14
-6.59742e-13
-2.08391e-15
-7.32527e-14
-6.67867e-17
-7.76543e-15
-2.35302e-18
-5.71854e-16
1.3141e-19
-6.73851e-17
1.86007e-20
-4.95177e-18
8.02915e-22
-2.02614e-19
2.69409e-23
-6.06903e-21
7.99884e-25
-1.6076e-22
2.04559e-26
-3.83524e-24
4.52514e-28
-8.14148e-26
8.79574e-30
-1.53499e-27
1.51912e-31
-2.57819e-29
2.34733e-33
-3.86969e-31
3.26218e-35
-5.20185e-33
4.09397e-37
-6.27136e-35
4.64588e-39
-6.78019e-37
4.76261e-41
-6.55411e-39
4.40229e-43
-5.62934e-41
3.65375e-45
-4.24857e-43
2.69754e-47
-2.76127e-45
1.75829e-49
-1.48665e-47
1.01199e-51
-6.17004e-50
5.07359e-54
-1.5114e-52
2.22548e-56
2.41138e-55
8.38204e-59
5.33171e-57
2.62933e-61
3.80389e-59
6.20835e-64
1.82222e-61
9.75039e-67
6.0608e-64
2.13572e-69
1.3574e-66
1.39992e-71
2.274e-69
1.42924e-70
2.78872e-06
8.6545e-05
3.69072e-07
7.35177e-06
2.67062e-08
8.47022e-07
0
6.75528e-08
1.53695e-12
5.10024e-09
1.33991e-12
-6.59717e-12
-5.18806e-12
-1.05773e-10
-1.06353e-12
-2.43143e-11
-7.86243e-14
-2.95851e-12
-2.17556e-15
-2.74009e-13
1.06363e-17
-1.86671e-14
8.51986e-18
-1.032e-15
2.1318e-18
-1.40941e-16
1.58657e-19
-1.26383e-17
5.5998e-21
-5.96908e-19
1.66916e-22
-1.93029e-20
4.82425e-24
-5.44931e-22
1.25413e-25
-1.39134e-23
2.8635e-27
-3.16375e-25
5.79736e-29
-6.38436e-27
1.05027e-30
-1.14664e-28
1.71149e-32
-1.83898e-30
2.51703e-34
-2.63988e-32
3.34867e-36
-3.39525e-34
4.03591e-38
-3.9108e-36
4.40511e-40
-4.02261e-38
4.34504e-42
-3.67002e-40
3.85612e-44
-2.9321e-42
3.05549e-46
-2.00257e-44
2.13945e-48
-1.11206e-46
1.31051e-50
-4.39772e-49
6.9677e-53
-5.24084e-52
3.21938e-55
8.87924e-54
1.26515e-57
9.90449e-56
4.04018e-60
6.46484e-58
9.67638e-63
3.02129e-60
1.84836e-65
1.01531e-62
4.27423e-68
2.52365e-65
1.24959e-70
4.47979e-68
1.47019e-69
3.21181e-06
9.98572e-05
2.88751e-07
8.6372e-06
3.04523e-09
1.04703e-06
0
1.00727e-07
0
1.19956e-08
0
4.77668e-10
0
-1.38579e-10
0
-4.2869e-11
0
-5.66847e-12
0
-4.88287e-13
0
-3.26925e-14
3.66324e-17
-1.77994e-15
8.64505e-18
-2.58109e-16
6.85242e-19
-2.63862e-17
2.53702e-20
-1.44979e-18
7.64579e-22
-5.27185e-20
2.25865e-23
-1.62679e-21
6.08641e-25
-4.48722e-23
1.44772e-26
-1.09507e-24
3.06059e-28
-2.36048e-26
5.79968e-30
-4.51045e-28
9.90046e-32
-7.66639e-30
1.52745e-33
-1.162e-31
2.13444e-35
-1.57228e-33
2.70519e-37
-1.89739e-35
3.11011e-39
-2.03486e-37
3.23902e-41
-1.9242e-39
3.04587e-43
-1.57926e-41
2.57197e-45
-1.0894e-43
1.93309e-47
-5.84507e-46
1.27706e-49
-1.81194e-48
7.29934e-52
5.94408e-51
3.56435e-54
1.44882e-52
1.47459e-56
1.31934e-54
4.94623e-59
8.38701e-57
1.26721e-61
3.9971e-59
3.88022e-64
1.44322e-61
7.06254e-67
3.92368e-64
1.17585e-69
7.39442e-67
1.38783e-68
4.14165e-06
0.000103015
1.97656e-07
9.01866e-06
1.3698e-08
1.10679e-06
0
1.15364e-07
0
1.67577e-08
0
1.03219e-09
0
-1.21268e-10
0
-5.10785e-11
0
-7.64397e-12
0
-7.18214e-13
0
-5.14208e-14
9.70922e-17
-2.93836e-15
2.28045e-17
-4.02885e-16
2.06773e-18
-4.50329e-17
8.955e-20
-2.97022e-18
2.92278e-21
-1.26665e-19
9.05364e-23
-4.35613e-21
2.56702e-24
-1.30997e-22
6.44453e-26
-3.45822e-24
1.43752e-27
-8.02474e-26
2.87078e-29
-1.64345e-27
5.15689e-31
-2.98052e-29
8.36011e-33
-4.79666e-31
1.22586e-34
-6.85388e-33
1.62775e-36
-8.67971e-35
1.95797e-38
-9.69003e-37
2.13185e-40
-9.43142e-39
2.09613e-42
-7.82439e-41
1.85362e-44
-5.25636e-43
1.46497e-46
-2.44315e-45
1.0276e-48
-1.28603e-48
6.34475e-51
1.26639e-49
3.36876e-53
1.70287e-51
1.49467e-55
1.45915e-53
5.34417e-58
9.38318e-56
1.48501e-60
4.68263e-58
5.28752e-63
1.81813e-60
1.01997e-65
5.34028e-63
8.41371e-69
1.06802e-65
9.0438e-68
3.74791e-06
0.000100134
1.12974e-07
9.02695e-06
1.53067e-08
1.06779e-06
0
1.19358e-07
0
2.07943e-08
0
1.74841e-09
0
-8.15961e-11
0
-5.63144e-11
0
-9.54327e-12
0
-9.83525e-13
0
-7.58072e-14
1.93613e-16
-4.64632e-15
4.46938e-17
-5.45624e-16
4.90171e-18
-6.59229e-17
2.68021e-19
-5.40468e-18
9.78308e-21
-2.77444e-19
3.18499e-22
-1.06088e-20
9.56589e-24
-3.45634e-22
2.56334e-25
-9.86781e-24
6.10241e-27
-2.47244e-25
1.29895e-28
-5.45179e-27
2.48377e-30
-1.06114e-28
4.27926e-32
-1.82585e-30
6.65716e-34
-2.77589e-32
9.36171e-36
-3.71632e-34
1.19012e-37
-4.3453e-36
1.36642e-39
-4.36174e-38
1.41385e-41
-3.62078e-40
1.3134e-43
-2.24675e-42
1.09103e-45
-6.20615e-45
8.07755e-48
7.58339e-47
5.26812e-50
1.57897e-48
2.97398e-52
1.773e-50
1.41955e-54
1.48748e-52
5.53701e-57
9.91658e-55
1.74655e-59
5.27692e-57
6.80783e-62
2.18616e-59
1.39781e-64
6.88325e-62
5.41146e-68
1.46152e-64
4.4678e-67
2.74628e-06
9.31729e-05
2.05628e-08
8.45154e-06
0
9.77839e-07
0
1.30026e-07
0
2.423e-08
0
2.71535e-09
0
-3.12836e-11
0
-6.08849e-11
0
-1.15897e-11
0
-1.29245e-12
0
-1.06251e-13
3.14328e-16
-7.0159e-15
7.27892e-17
-6.74445e-16
1.01624e-17
-9.08272e-17
7.22082e-19
-9.31429e-18
2.92986e-20
-5.6356e-19
9.87097e-22
-2.33333e-20
3.13602e-23
-8.12372e-22
9.00839e-25
-2.49502e-23
2.29965e-26
-6.73159e-25
5.24465e-28
-1.59556e-26
1.07418e-29
-3.33006e-28
1.98163e-31
-6.12396e-30
3.29903e-33
-9.90335e-32
4.96142e-35
-1.39977e-33
6.74008e-37
-1.70626e-35
8.26163e-39
-1.74217e-37
9.11582e-41
-1.38445e-39
9.02723e-43
-6.40482e-42
8.00574e-45
2.95976e-44
6.3252e-47
1.13385e-45
4.39462e-49
1.66136e-47
2.64396e-51
1.76129e-49
1.34731e-53
1.49018e-51
5.63113e-56
1.02926e-53
2.5217e-58
5.76718e-56
8.48137e-61
2.5586e-58
1.84736e-63
8.57932e-61
4.59207e-67
1.93315e-63
2.80143e-66
1.90918e-06
8.2914e-05
0
7.44761e-06
0
8.88915e-07
0
1.27366e-07
0
2.60204e-08
0
4.47103e-09
0
3.80285e-11
0
-6.5792e-11
0
-1.38837e-11
0
-1.652e-12
0
-1.43472e-13
4.23961e-16
-1.01269e-14
1.1145e-16
-7.97727e-16
2.03997e-17
-1.24906e-16
1.78083e-18
-1.53152e-17
7.67514e-20
-1.02029e-18
2.65872e-21
-4.46311e-20
8.96264e-23
-1.65628e-21
2.76056e-24
-5.45296e-23
7.55265e-26
-1.57652e-24
1.84542e-27
-3.99705e-26
4.0502e-29
-8.89884e-28
8.00834e-31
-1.7383e-29
1.42907e-32
-2.96594e-31
2.30355e-34