/*--------------------------------*- C++ -*----------------------------------*\
  =========                 |
  \\      /  F ield         | OpenFOAM: The Open Source CFD Toolbox
   \\    /   O peration     | Website:  https://openfoam.org
    \\  /    A nd           | Version:  9
     \\/     M anipulation  |
\*---------------------------------------------------------------------------*/
FoamFile
{
    format      ascii;
    class       volScalarField;
    location    "0.25";
    object      k;
}
// * * * * * * * * * * * * * * * * * * * * * * * * * * * * * * * * * * * * * //

dimensions      [0 2 -2 0 0 0 0];

internalField   nonuniform List<scalar> 
1915
(
0.0307378
0.0297184
0.0897222
0.0499136
0.13055
0.0739215
0.169037
0.0992866
0.205079
0.120535
0.240081
0.140121
0.276108
0.160677
0.315286
0.183984
0.359347
0.212169
0.408097
0.247571
0.0114719
0.0163593
0.0166589
0.0167686
0.0170805
0.0179235
0.0187695
0.0194036
0.0197392
0.0198086
0.019678
0.0194041
0.0190346
0.0186102
0.0181642
0.0177215
0.017302
0.016951
0.0168987
0.0171899
0.0169446
0.01694
0.0169026
0.0169622
0.0169211
0.0169757
0.0168893
0.0169061
0.0167662
0.0168874
0.0168807
0.0170615
0.0167732
0.0167598
0.0168888
0.0166147
0.0165448
0.0157161
0.0125257
0.0083268
0.0122474
0.023196
0.0277656
0.0312382
0.0342587
0.0364951
0.0380888
0.0391485
0.0397168
0.0398818
0.039729
0.0393386
0.0387841
0.0381302
0.0374313
0.0367298
0.036056
0.035429
0.0348622
0.0342709
0.0338756
0.0334493
0.0330803
0.0327067
0.0323793
0.0320388
0.0317031
0.0313165
0.0309141
0.0304937
0.0299002
0.0291657
0.0282934
0.0273388
0.0260673
0.0245441
0.0225756
0.0198776
0.0153621
0.00858774
0.0155276
0.0310607
0.0382492
0.0429443
0.0461998
0.0483834
0.0498195
0.0507043
0.0510886
0.0510559
0.0506957
0.0500922
0.049323
0.0484568
0.0475517
0.0466543
0.0457984
0.0450041
0.0442804
0.0436332
0.0430618
0.0425501
0.0420861
0.0416553
0.041242
0.040826
0.0403985
0.039929
0.0393986
0.0387779
0.0380346
0.0371277
0.036011
0.034642
0.0329253
0.0307643
0.0279943
0.0242937
0.0188523
0.00868657
0.0193772
0.0396534
0.0488788
0.0542318
0.057309
0.0590246
0.0599382
0.0603337
0.0602631
0.0598208
0.0590972
0.0581733
0.0571205
0.0560019
0.0548708
0.0537713
0.0527359
0.0517848
0.0509271
0.0501676
0.0494961
0.0489012
0.0483656
0.047872
0.0474008
0.0469318
0.0464454
0.0459159
0.0453157
0.0446144
0.0437756
0.042753
0.0414956
0.0399392
0.0379943
0.0355356
0.0323756
0.0281709
0.0220472
0.0101628
0.0242541
0.050286
0.0614542
0.0670865
0.0695539
0.0703629
0.0703479
0.0698845
0.0690417
0.0679359
0.0666547
0.0652653
0.0638233
0.0623764
0.0609657
0.0596262
0.0583847
0.057258
0.0562526
0.0553674
0.0545915
0.0539094
0.0533012
0.0527454
0.0522196
0.0517003
0.0511635
0.0505824
0.0499271
0.0491646
0.0482552
0.0471506
0.0457949
0.0441179
0.0420248
0.039381
0.0359805
0.0314421
0.0247718
0.0114977
0.0311619
0.0648509
0.0777351
0.083062
0.0842426
0.0835113
0.0820282
0.0801963
0.0781739
0.0760897
0.0740143
0.0719849
0.0700259
0.0681577
0.0663997
0.0647707
0.0632865
0.0619562
0.0607808
0.0597537
0.0588604
0.0580816
0.0573935
0.0567709
0.0561874
0.0556164
0.0550306
0.054401
0.0536959
0.0528799
0.0519119
0.0507421
0.0493099
0.0475425
0.0453402
0.0425614
0.0389843
0.0341887
0.0270638
0.0126222
0.0419267
0.0861925
0.099741
0.103629
0.102481
0.0993333
0.0956527
0.091813
0.0881037
0.0846602
0.0815118
0.0786412
0.0760206
0.073627
0.0714465
0.0694731
0.0677052
0.0661401
0.0647702
0.0635822
0.0625566
0.0616691
0.0608919
0.0601953
0.0595491
0.0589232
0.0582873
0.0576099
0.0568572
0.0559919
0.0549715
0.0537449
0.0522493
0.0504084
0.0481187
0.0452323
0.0415125
0.0365034
0.0289896
0.0135537
0.0596563
0.118521
0.129588
0.129945
0.125059
0.118461
0.111706
0.105112
0.0991302
0.0938901
0.089353
0.0854169
0.0819764
0.0789457
0.0762628
0.0738873
0.0717933
0.0699612
0.0683717
0.0670031
0.0658294
0.0648208
0.0639445
0.0631662
0.0624516
0.061767
0.0610788
0.0603527
0.0595531
0.0586409
0.0575718
0.0562935
0.0547423
0.0528382
0.0504747
0.0474974
0.0436562
0.0384632
0.0306129
0.014329
0.0888785
0.166194
0.168667
0.162161
0.152019
0.141114
0.130347
0.12027
0.111425
0.103931
0.0976684
0.0924269
0.0879987
0.0842137
0.0809462
0.0781101
0.0756472
0.0735161
0.0716825
0.0701138
0.0687765
0.0676344
0.0666491
0.0657814
0.0649926
0.064245
0.0635018
0.0627259
0.0618794
0.0609213
0.0598058
0.0584794
0.0568774
0.054917
0.0524887
0.0494319
0.0454842
0.0401301
0.0319874
0.0149793
0.136889
0.232516
0.215603
0.198426
0.182085
0.166465
0.151172
0.137166
0.125005
0.114847
0.106529
0.0997395
0.094152
0.0894935
0.0855588
0.0822039
0.0793306
0.0768697
0.0747684
0.0729814
0.0714658
0.0701784
0.0690746
0.06811
0.0672413
0.0664267
0.0656256
0.0647983
0.0639043
0.0629009
0.0617405
0.0603687
0.0587192
0.0567076
0.0542208
0.0510928
0.0470503
0.0415539
0.0331565
0.0155286
0.441535
0.2959
0.451944
0.346282
0.452195
0.381862
0.449029
0.401737
0.443714
0.411
0.437212
0.413667
0.431231
0.41302
0.427652
0.41188
0.427931
0.412298
0.432866
0.415393
0.421672
0.431004
0.44183
0.452697
0.464326
0.474448
0.48103
0.485605
0.489405
0.495847
0.513175
0.541234
0.554263
0.538318
0.494278
0.44037
0.390803
0.351806
0.322564
0.298826
0.277903
0.259187
0.242589
0.253584
0.311157
0.371498
0.258096
0.285477
0.509664
1.07977
0.517542
0.314171
0.457132
1.05076
0.947124
0.341173
0.412949
0.777628
1.05237
0.361693
0.388776
0.608677
0.8586
0.374843
0.377285
0.508372
0.704488
0.382127
0.372187
0.448595
0.597204
0.385927
0.369981
0.412682
0.524131
0.388474
0.369198
0.390896
0.474555
0.391301
0.369377
0.377546
0.440792
0.395239
0.370392
0.36929
0.417586
0.400548
0.372117
0.364081
0.401288
0.406704
0.374215
0.360535
0.38929
0.412932
0.37615
0.357615
0.379702
0.41899
0.377399
0.354526
0.371172
0.423398
0.377361
0.350736
0.362822
0.425592
0.376033
0.3462
0.354259
0.426308
0.37403
0.341398
0.345533
0.426734
0.372496
0.337304
0.337037
0.429438
0.37321
0.335357
0.329775
0.438895
0.378553
0.337302
0.325668
0.460094
0.391001
0.344992
0.327117
0.490853
0.411956
0.360101
0.336349
0.525246
0.443519
0.383963
0.355111
0.528721
0.478328
0.416066
0.384181
0.492303
0.490472
0.448633
0.420499
0.440233
0.470507
0.466367
0.451881
0.391535
0.43031
0.455287
0.460849
0.352648
0.386854
0.418716
0.43772
0.320988
0.346927
0.373297
0.392702
0.293207
0.310944
0.328999
0.342832
0.268767
0.279612
0.290328
0.298235
0.247813
0.253542
0.25888
0.26232
0.233957
0.291313
0.260642
0.234329
0.212846
0.19263
0.173312
0.155484
0.139824
0.126698
0.116026
0.107446
0.100522
0.0948657
0.090177
0.0862426
0.0829155
0.0800932
0.0777001
0.075676
0.0739672
0.0725223
0.0712904
0.0702213
0.0692668
0.0683805
0.0675184
0.0666376
0.0656952
0.0646462
0.0634419
0.0620262
0.0603317
0.0582721
0.0557312
0.0525379
0.0484091
0.0427853
0.0341638
0.0159997
0.372233
0.330003
0.293088
0.264324
0.240024
0.217402
0.195517
0.174617
0.155656
0.139443
0.126187
0.115595
0.107159
0.100377
0.0948448
0.0902686
0.0864435
0.0832276
0.0805188
0.0782388
0.0763219
0.0747076
0.0733378
0.0721565
0.0711099
0.0701473
0.0692208
0.0682842
0.0672919
0.0661971
0.0649493
0.0634911
0.0617532
0.059648
0.0570561
0.053802
0.0495942
0.0438556
0.035036
0.0164072
0.486713
0.369033
0.319319
0.287309
0.261956
0.239121
0.216439
0.193666
0.171995
0.152828
0.136892
0.124126
0.114028
0.106007
0.099551
0.0942769
0.0899148
0.0862774
0.083232
0.0806804
0.0785429
0.0767491
0.0752333
0.0739331
0.0727893
0.0717466
0.0707528
0.0697584
0.0687155
0.0675748
0.066284
0.0647842
0.0630046
0.0608558
0.0582159
0.0549051
0.0506249
0.0447831
0.0357893
0.0167606
0.747234
0.451936
0.354171
0.309184
0.280547
0.257668
0.235329
0.211902
0.188349
0.166588
0.148013
0.13298
0.121104
0.111746
0.104293
0.0982705
0.0933362
0.0892525
0.0858528
0.083016
0.0806473
0.0786655
0.0769967
0.075572
0.0743266
0.0732002
0.0721369
0.0710837
0.0699893
0.0688026
0.0674693
0.0659288
0.0641089
0.0619182
0.0592328
0.0558691
0.0515223
0.0455878
0.0364408
0.0170688
0.916438
0.642595
0.421558
0.339893
0.299821
0.274198
0.252071
0.228832
0.204269
0.180431
0.159392
0.142075
0.128344
0.117569
0.109059
0.102244
0.0967076
0.0921569
0.0883881
0.0852552
0.0826468
0.0804702
0.078643
0.0770892
0.0757389
0.0745268
0.0733923
0.0722789
0.0711326
0.0698998
0.0685244
0.0669441
0.065085
0.0628543
0.0601256
0.0567124
0.0523043
0.0462862
0.0370047
0.0173392
0.849252
0.817664
0.543961
0.389476
0.32463
0.290741
0.267141
0.244267
0.219415
0.194084
0.170856
0.151314
0.135692
0.123445
0.113828
0.106186
0.100024
0.0949894
0.0908402
0.0874031
0.084549
0.0821726
0.0801832
0.0784981
0.0770408
0.0757409
0.0745339
0.0733596
0.0721611
0.0708825
0.0694655
0.0678462
0.0659493
0.06368
0.0609102
0.0574504
0.0529859
0.0468927
0.0374931
0.0175783
0.756188
0.841281
0.695968
0.463951
0.359141
0.309615
0.281451
0.25832
0.233596
0.207322
0.18224
0.160592
0.143083
0.129332
0.118575
0.11008
0.103274
0.0977448
0.0932079
0.0894611
0.0863581
0.0837806
0.0816274
0.0798088
0.0782427
0.076854
0.0755738
0.0743384
0.0730879
0.0717639
0.0703061
0.0686488
0.0667152
0.0644091
0.0616001
0.0580966
0.0535801
0.0474191
0.0379161
0.017791
0.675625
0.807001
0.774338
0.564371
0.405654
0.332762
0.296086
0.271343
0.246775
0.21999
0.1934
0.169804
0.150448
0.135184
0.12327
0.113906
0.106446
0.100415
0.0954878
0.091432
0.0880793
0.0852988
0.0829805
0.0810277
0.0793526
0.077875
0.0765218
0.0752257
0.0739238
0.0725551
0.0710575
0.0693634
0.0673945
0.065053
0.0622069
0.0586624
0.0540978
0.0478758
0.0382821
0.01798
0.611452
0.75837
0.798047
0.642515
0.464293
0.361262
0.312023
0.28382
0.259044
0.232005
0.204217
0.178855
0.157719
0.140957
0.12788
0.117643
0.109529
0.102998
0.0976799
0.0933131
0.0897104
0.0867274
0.0842449
0.082159
0.0803759
0.0788105
0.0773854
0.0760298
0.0746777
0.0732657
0.0717295
0.0699999
0.067997
0.0656217
0.0627404
0.0591574
0.0545486
0.0482715
0.0385984
0.018148
0.562066
0.710352
0.790351
0.687613
0.519793
0.395512
0.329959
0.296252
0.27058
0.243344
0.214603
0.187659
0.164827
0.146608
0.132395
0.121291
0.112516
0.105482
0.099772
0.0950962
0.0912464
0.0880642
0.0854208
0.0832047
0.0813163
0.0796656
0.0781709
0.0767576
0.0753571
0.0739032
0.0723299
0.0705664
0.0685312
0.0661237
0.0632091
0.0595902
0.0549405
0.0486137
0.0388713
0.0182976
0.524636
0.668306
0.768727
0.705429
0.558032
0.428948
0.350275
0.309085
0.281603
0.254028
0.224478
0.196145
0.171789
0.152163
0.1368
0.124817
0.115381
0.107845
0.101749
0.0967708
0.0926804
0.0893053
0.0865066
0.0841654
0.0821761
0.0804439
0.0788826
0.0774145
0.0759678
0.0744743
0.0728658
0.07107
0.0690042
0.0665662
0.0636203
0.0599677
0.0552805
0.0489091
0.0391063
0.0184315
0.496071
0.632256
0.740886
0.706028
0.581585
0.45778
0.371109
0.322687
0.292356
0.264115
0.233951
0.204433
0.178578
0.157545
0.141036
0.12818
0.118091
0.110065
0.103594
0.0983243
0.0940037
0.0904452
0.0874996
0.0850405
0.0829565
0.0811478
0.0795243
0.0780048
0.0765149
0.0749842
0.0733427
0.0715167
0.0694219
0.0669553
0.06398
0.0602963
0.0555746
0.0491631
0.0393079
0.0185518
0.473454
0.600072
0.709103
0.696963
0.59371
0.478889
0.390556
0.336493
0.303038
0.273883
0.24305
0.212373
0.185067
0.162661
0.145034
0.131329
0.12061
0.112114
0.105288
0.0997428
0.0952067
0.0914775
0.088396
0.0858285
0.0836577
0.0817789
0.0800985
0.078532
0.0770024
0.0754374
0.0737654
0.0719113
0.0697895
0.0672962
0.0642936
0.0605811
0.0558279
0.0493806
0.0394801
0.0186601
0.454417
0.57011
0.674701
0.678339
0.59431
0.492661
0.407541
0.350103
0.313642
0.28327
0.251632
0.219806
0.191114
0.167402
0.148714
0.134209
0.122899
0.113965
0.106809
0.101012
0.0962791
0.0923954
0.0891919
0.0865274
0.0842792
0.0823383
0.0806071
0.0789987
0.0774335
0.0758376
0.074138
0.0722578
0.0701112
0.0675933
0.0645655
0.0608265
0.0560448
0.0495656
0.0396263
0.0187581
0.437265
0.541185
0.638327
0.650227
0.585069
0.500051
0.421667
0.36305
0.324002
0.292178
0.259558
0.226569
0.196572
0.171654
0.151995
0.136761
0.124916
0.115589
0.108138
0.102116
0.0972105
0.093192
0.0898827
0.0871349
0.0848205
0.0828263
0.0810517
0.079407
0.077811
0.0761879
0.0744634
0.0725599
0.0703907
0.0678503
0.0647995
0.0610364
0.0562289
0.0497215
0.0397491
0.018847
0.420931
0.512614
0.599736
0.61644
0.570461
0.502678
0.432908
0.374931
0.333862
0.300465
0.266686
0.232507
0.201293
0.175299
0.154791
0.138926
0.126621
0.116956
0.109254
0.103042
0.0979909
0.0938604
0.0904643
0.0876487
0.0852807
0.0832434
0.0814334
0.0797588
0.0781369
0.0764905
0.0747443
0.0728203
0.070631
0.0680703
0.0649988
0.061214
0.0563834
0.0498511
0.0398511
0.0189276
0.404952
0.484537
0.559949
0.580369
0.552757
0.502292
0.441801
0.385465
0.342928
0.307951
0.272858
0.237458
0.205133
0.178224
0.15702
0.140647
0.127974
0.11804
0.110137
0.103776
0.0986111
0.0943947
0.0909331
0.0880669
0.0856592
0.0835898
0.0817531
0.0800556
0.0784131
0.0767475
0.0749832
0.0730415
0.0708346
0.0682561
0.065166
0.0613618
0.0565107
0.0499567
0.0399339
0.0190009
0.389468
0.457949
0.520794
0.543457
0.534097
0.500854
0.448905
0.394401
0.35088
0.314412
0.277892
0.241252
0.207947
0.180316
0.158603
0.14187
0.128938
0.118814
0.110771
0.104305
0.0990633
0.0947899
0.0912862
0.0883883
0.0859558
0.0838661
0.082012
0.0802986
0.0786409
0.0769607
0.0751818
0.0732255
0.0710037
0.0684097
0.0653034
0.061482
0.056613
0.0500405
0.0399993
0.0190673
0.374979
0.435295
0.485798
0.510131
0.518173
0.499693
0.454186
0.401336
0.35738
0.319605
0.281579
0.24371
0.209591
0.181475
0.15947
0.142547
0.129482
0.119258
0.111141
0.104621
0.0993414
0.0950425
0.0915218
0.0886122
0.0861707
0.0840731
0.082211
0.0804889
0.0788219
0.0771316
0.075342
0.0733742
0.0711401
0.068533
0.0654128
0.0615766
0.056692
0.0501039
0.0400485
0.0191273
0.360893
0.417615
0.460003
0.485661
0.506395
0.497681
0.456576
0.405714
0.362154
0.323292
0.283686
0.244637
0.209929
0.18161
0.159564
0.142643
0.12958
0.119355
0.111236
0.104716
0.0994417
0.0951508
0.0916397
0.0887391
0.0863049
0.0842119
0.0823513
0.0806281
0.0789577
0.077262
0.0754654
0.0734892
0.0712454
0.0686276
0.0654957
0.061647
0.0567493
0.0501483
0.0400826
0.0191812
0.347078
0.394296
0.43571
0.466159
0.492709
0.490601
0.454389
0.407283
0.365166
0.325262
0.283938
0.243822
0.208833
0.180651
0.158845
0.142132
0.129218
0.119095
0.11105
0.104589
0.0993634
0.0951155
0.0916411
0.0887708
0.0863601
0.0842842
0.0824349
0.0807181
0.07905
0.0773535
0.0755534
0.0735718
0.0713211
0.068695
0.0655536
0.0616946
0.0567861
0.0501748
0.0401025
0.0192292
0.338521
0.371492
0.407132
0.443544
0.474615
0.47829
0.448703
0.407113
0.366673
0.325223
0.281971
0.24103
0.206195
0.178555
0.157297
0.141006
0.12839
0.118476
0.110583
0.104239
0.0991089
0.0949393
0.0915292
0.0887105
0.0863395
0.0842929
0.0824642
0.0807608
0.0791006
0.0774075
0.0756076
0.0736236
0.0713684
0.0687363
0.0655877
0.0617204
0.0568034
0.0501844
0.0401088
0.0192714
0.339405
0.362334
0.39132
0.424824
0.457766
0.466654
0.443427
0.406779
0.366562
0.322497
0.277248
0.236011
0.201938
0.175317
0.154929
0.139275
0.127105
0.117504
0.109841
0.103674
0.0986851
0.0946295
0.0913107
0.0885637
0.0862476
0.0842417
0.0824422
0.0807589
0.0791116
0.077426
0.0756296
0.0736459
0.0713887
0.0687528
0.065599
0.0617257
0.0568023
0.0501779
0.0401021
0.019308
0.352405
0.369324
0.39371
0.421489
0.449914
0.460223
0.440979
0.406147
0.3634
0.315786
0.269111
0.228569
0.196065
0.170981
0.151784
0.136973
0.125388
0.116202
0.108844
0.102911
0.0981066
0.0941975
0.0909945
0.0883375
0.08609
0.0841351
0.0823724
0.080715
0.0790852
0.0774109
0.075621
0.0736402
0.0713833
0.0687457
0.0655888
0.0617113
0.0567836
0.0501561
0.0400832
0.0193389
0.378707
0.392684
0.413465
0.434464
0.453824
0.45989
0.44006
0.402313
0.354411
0.303684
0.257312
0.218939
0.188871
0.165778
0.148016
0.1342
0.123304
0.114613
0.107623
0.101974
0.0973911
0.0936573
0.0905915
0.0880404
0.0858732
0.0839779
0.0822588
0.0806324
0.0790242
0.0773643
0.0755835
0.0736081
0.0713536
0.0687163
0.065558
0.0616784
0.0567482
0.0501197
0.0400524
0.0193643
0.415059
0.427038
0.444915
0.458703
0.465679
0.460124
0.433751
0.389355
0.33688
0.28606
0.242545
0.207751
0.180759
0.159941
0.143766
0.131043
0.120916
0.112783
0.106213
0.100888
0.0965595
0.0930249
0.0901141
0.0876819
0.0856044
0.0837759
0.0821056
0.0805144
0.078931
0.0772885
0.0755193
0.0735513
0.0713011
0.0686658
0.065508
0.0616279
0.056697
0.0500695
0.0400103
0.019384
0.448825
0.457015
0.468098
0.474208
0.467787
0.447661
0.411227
0.362094
0.310515
0.264151
0.225934
0.195708
0.172132
0.153709
0.13918
0.127602
0.118293
0.110764
0.104654
0.0996851
0.0956353
0.0923183
0.0895758
0.087272
0.0852914
0.0835348
0.0819174
0.0803646
0.0788089
0.0771859
0.0754303
0.0734715
0.0712274
0.0685958
0.06544
0.0615609
0.056631
0.0500063
0.0399575
0.0193983
0.462237
0.464609
0.463198
0.456529
0.439943
0.41094
0.370897
0.324586
0.279748
0.240866
0.209025
0.18359
0.163398
0.147314
0.134408
0.123981
0.115511
0.108613
0.102988
0.0983976
0.0946433
0.091556
0.0889904
0.0868213
0.084942
0.0832609
0.0816991
0.0801871
0.078661
0.0770593
0.075319
0.0733709
0.0711342
0.0685077
0.0653554
0.0614787
0.0565513
0.0499309
0.0398947
0.019407
0.444384
0.441491
0.430233
0.413423
0.390676
0.360399
0.324088
0.285738
0.249864
0.218831
0.193044
0.171987
0.154877
0.140954
0.129586
0.120278
0.112645
0.106387
0.10126
0.0970584
0.0936081
0.0907565
0.0883717
0.0863401
0.0845641
0.0829601
0.0814555
0.0799856
0.0784905
0.0769115
0.0751877
0.0732516
0.0710236
0.0684033
0.0652556
0.0613825
0.0564588
0.0498442
0.0398223
0.0194103
0.400936
0.39587
0.381332
0.36181
0.3385
0.311322
0.281498
0.251498
0.223692
0.19931
0.178579
0.161218
0.146772
0.134777
0.124827
0.116583
0.109766
0.104142
0.0995109
0.0956994
0.0925533
0.0899372
0.0877329
0.0858383
0.0841654
0.0826386
0.0811915
0.0797644
0.0783009
0.0767454
0.075039
0.0731159
0.0708974
0.0682843
0.0651422
0.0612738
0.0563549
0.0497472
0.0397413
0.0194082
0.348721
0.343557
0.33019
0.312548
0.292234
0.269858
0.246396
0.223262
0.201726
0.182492
0.165749
0.151393
0.139194
0.128889
0.120226
0.112976
0.106937
0.101926
0.0977797
0.0943492
0.0915004
0.0891142
0.087086
0.0853251
0.0837532
0.0823022
0.080912
0.0795274
0.0780958
0.0765641
0.0748757
0.072966
0.0707579
0.0681528
0.0650169
0.061154
0.0562407
0.0496409
0.0396522
0.019401
0.300965
0.296119
0.285194
0.27084
0.2544
0.236646
0.218346
0.200371
0.18347
0.168102
0.154449
0.142512
0.132195
0.12336
0.115854
0.109521
0.104212
0.099783
0.0960987
0.0930322
0.0904676
0.0883011
0.0864414
0.0848087
0.083334
0.0819564
0.0806215
0.0792786
0.0778785
0.0763707
0.0747004
0.0728047
0.0706073
0.0680105
0.0648816
0.0610247
0.0561176
0.0495263
0.0395559
0.0193888
0.262482
0.257807
0.248959
0.237523
0.224441
0.210382
0.195949
0.181732
0.168227
0.155764
0.144515
0.134534
0.125798
0.118239
0.111765
0.106267
0.101633
0.0977464
0.094494
0.0917682
0.0894699
0.0875095
0.0858081
0.0842964
0.0829138
0.0816061
0.0803243
0.0790219
0.0776525
0.0761683
0.074516
0.0726342
0.0704477
0.0678597
0.0647379
0.0608874
0.0559869
0.0494048
0.0394532
0.0193717
)
;

boundaryField
{
    leftWall
    {
        type            kqRWallFunction;
        value           nonuniform List<scalar> 0();
    }
    rightWall
    {
        type            kqRWallFunction;
        value           nonuniform List<scalar> 
43
(
0.0083268
0.00858774
0.00868657
0.0101628
0.0114977
0.0126222
0.0135537
0.014329
0.0149793
0.0155286
0.0159997
0.0164072
0.0167606
0.0170688
0.0173392
0.0175783
0.017791
0.01798
0.018148
0.0182976
0.0184315
0.0185518
0.0186601
0.0187581
0.018847
0.0189276
0.0190009
0.0190673
0.0191273
0.0191812
0.0192292
0.0192714
0.019308
0.0193389
0.0193643
0.019384
0.0193983
0.019407
0.0194103
0.0194082
0.019401
0.0193888
0.0193717
)
;
    }
    lowerWall
    {
        type            kqRWallFunction;
        value           nonuniform List<scalar> 
66
(
0.0307378
0.0297184
0.0297184
0.0499136
0.0739215
0.0992866
0.120535
0.140121
0.160677
0.183984
0.212169
0.247571
0.253584
0.311157
0.371498
0.258096
0.0114719
0.0122474
0.0155276
0.0193772
0.0242541
0.0311619
0.0419267
0.0596563
0.0888785
0.136889
0.0114719
0.0163593
0.0166589
0.0167686
0.0170805
0.0179235
0.0187695
0.0194036
0.0197392
0.0198086
0.019678
0.0194041
0.0190346
0.0186102
0.0181642
0.0177215
0.017302
0.016951
0.0168987
0.0171899
0.0169446
0.01694
0.0169026
0.0169622
0.0169211
0.0169757
0.0168893
0.0169061
0.0167662
0.0168874
0.0168807
0.0170615
0.0167732
0.0167598
0.0168888
0.0166147
0.0165448
0.0157161
0.0125257
0.0083268
)
;
    }
    atmosphere
    {
        type            inletOutlet;
        inletValue      nonuniform List<scalar> 0();
        value           nonuniform List<scalar> 0();
    }
    defaultFaces
    {
        type            empty;
    }
    procBoundary1to0
    {
        type            processor;
        value           nonuniform List<scalar> 
44
(
0.0331347
0.103832
0.14114
0.173816
0.208224
0.245215
0.284576
0.325585
0.366633
0.404543
0.432816
0.447913
0.452467
0.450861
0.44595
0.439811
0.434528
0.432142
0.434286
0.442042
0.443077
0.443077
0.458075
0.47422
0.487546
0.495979
0.499596
0.501445
0.5038
0.505617
0.506192
0.513317
0.512149
0.492886
0.460595
0.422366
0.383457
0.348973
0.321626
0.300259
0.282367
0.266422
0.251901
0.238602
)
;
    }
    procBoundary1to3
    {
        type            processor;
        value           nonuniform List<scalar> 
45
(
0.227892
0.230022
0.232257
0.234026
0.234504
0.232876
0.228174
0.220725
0.211385
0.200802
0.189474
0.177859
0.166379
0.155388
0.14514
0.135789
0.127408
0.120007
0.113557
0.107998
0.103253
0.0992323
0.0958411
0.0929845
0.0905718
0.0885184
0.0867481
0.0851934
0.0837942
0.0824977
0.081256
0.0800246
0.0787608
0.0774211
0.0759597
0.0743252
0.0724572
0.0702816
0.0677023
0.0645878
0.0607439
0.0558501
0.0492773
0.0393451
0.0193501
)
;
    }
}


// ************************************************************************* //
