/*--------------------------------*- C++ -*----------------------------------*\
  =========                 |
  \\      /  F ield         | OpenFOAM: The Open Source CFD Toolbox
   \\    /   O peration     | Website:  https://openfoam.org
    \\  /    A nd           | Version:  9
     \\/     M anipulation  |
\*---------------------------------------------------------------------------*/
FoamFile
{
    format      ascii;
    class       volScalarField;
    location    "0.25";
    object      nut;
}
// * * * * * * * * * * * * * * * * * * * * * * * * * * * * * * * * * * * * * //

dimensions      [0 2 -1 0 0 0 0];

internalField   nonuniform List<scalar> 
1915
(
9.43617e-05
9.26661e-05
0.000516741
0.000158664
0.000830907
0.000192983
0.00114626
0.00022367
0.0014595
0.000247526
0.00176384
0.000267168
0.0020561
0.000286207
0.0023355
0.000306304
0.00260362
0.000329001
0.00287723
0.000355588
0.000200482
0.000286391
6.8106e-05
6.84813e-05
0.000303919
7.17765e-05
7.34915e-05
7.47804e-05
7.54837e-05
7.56661e-05
7.54559e-05
7.49566e-05
7.42555e-05
7.34281e-05
7.25381e-05
7.16359e-05
7.07656e-05
7.00246e-05
6.97644e-05
7.09366e-05
6.94661e-05
6.93041e-05
6.91155e-05
6.99426e-05
6.97576e-05
6.9703e-05
6.9458e-05
6.93479e-05
6.90197e-05
0.00029907
0.000298634
0.000303044
6.83757e-05
0.000295201
0.000298121
0.000291489
0.000290189
0.000274392
0.000218384
0.000192407
8.28271e-05
0.000386196
0.000423201
0.000471409
0.000535259
0.000576523
0.000621865
0.000654129
0.000676824
0.00069262
0.000702282
0.000706519
0.000706167
0.000702171
0.000695507
0.00068712
0.000677898
0.00066862
0.000659317
0.000656377
0.000643664
0.000637142
0.000629741
0.000624936
0.00061771
0.000611703
0.000603708
0.000596928
0.000586857
0.000596161
0.000582754
0.0005769
0.000542698
0.000538033
0.000531843
0.000506662
0.000498144
0.00046246
0.000328519
6.87827e-05
9.36121e-05
0.000544768
0.000752375
0.000897622
0.00102375
0.00113555
0.00123058
0.00130651
0.00136605
0.00141081
0.00144108
0.00145753
0.00146152
0.00145503
0.00144045
0.00142034
0.00139716
0.00137325
0.00135038
0.00132938
0.00130768
0.00128831
0.00127002
0.00125287
0.00123575
0.00121904
0.00120057
0.00118107
0.00115885
0.00113573
0.00110564
0.00107061
0.00102876
0.000981445
0.000925729
0.000856976
0.000769277
0.000639405
0.000413495
6.95241e-05
0.000104807
0.000692981
0.00102235
0.00124144
0.00141982
0.00157536
0.00171223
0.00183086
0.00193192
0.00201429
0.00207591
0.00211584
0.00213482
0.00213516
0.00212032
0.00209434
0.00206134
0.00202507
0.00198846
0.00195264
0.0019185
0.00188647
0.00185635
0.00182758
0.00179936
0.00177092
0.00174079
0.00170806
0.00167144
0.0016297
0.00158058
0.00152234
0.00145384
0.0013728
0.00127543
0.00115652
0.00100499
0.000797908
0.000491576
7.51145e-05
0.000117365
0.000821998
0.00123299
0.00149685
0.00170525
0.00188887
0.00205856
0.00221615
0.00236109
0.00248842
0.00259205
0.00266776
0.00271427
0.00273318
0.00272832
0.00270493
0.00266871
0.002625
0.00257815
0.0025309
0.00248511
0.00244147
0.0024
0.00236007
0.00232071
0.00228068
0.00223842
0.00219234
0.00214068
0.00208149
0.00201256
0.0019313
0.00183534
0.0017215
0.00158501
0.00141884
0.00121028
0.000936406
0.00055747
7.99118e-05
0.000132986
0.000935865
0.00139641
0.00168228
0.00190203
0.00209851
0.00228915
0.00247856
0.00266613
0.00284249
0.00299637
0.00311877
0.00320483
0.00325413
0.00327
0.00325832
0.00322617
0.00318062
0.00312775
0.00307201
0.00301637
0.0029623
0.00291016
0.00285943
0.00280903
0.00275744
0.00270281
0.00264312
0.00257612
0.0024994
0.00241031
0.0023058
0.00218246
0.00203645
0.00186216
0.0016513
0.00139031
0.00105635
0.00061241
8.37476e-05
0.000153942
0.00104772
0.00153758
0.0018292
0.00204398
0.00223709
0.00243322
0.00264355
0.00286727
0.00309144
0.00329935
0.00347608
0.00361168
0.00370219
0.00374919
0.00375838
0.00373789
0.00369642
0.00364195
0.00358079
0.00351733
0.00345409
0.00339202
0.00333088
0.00326956
0.00320637
0.00313919
0.00306563
0.00298303
0.00288853
0.00277904
0.00265107
0.00250057
0.00232297
0.00211202
0.00185869
0.00154895
0.00116032
0.000658494
8.68027e-05
0.000182939
0.00117877
0.00168492
0.00196917
0.00216443
0.00233837
0.00252412
0.00274106
0.00298925
0.00325405
0.00351412
0.00374826
0.00394012
0.00408062
0.00416809
0.00420697
0.0042057
0.00417439
0.00412293
0.00405961
0.00399054
0.00391952
0.00384834
0.00377719
0.0037051
0.0036303
0.00355043
0.00346279
0.00336437
0.00325191
0.00312189
0.0029704
0.002793
0.00258447
0.00233809
0.0020444
0.00168922
0.0012507
0.000697433
8.927e-05
0.000222295
0.00134921
0.00185895
0.00212214
0.00228603
0.00242815
0.00259125
0.00280024
0.00305817
0.00335152
0.0036564
0.00394592
0.00419671
0.00439312
0.00452867
0.00460514
0.00463034
0.00461525
0.00457151
0.00450946
0.00443713
0.00435985
0.00428048
0.00419982
0.00411717
0.00403078
0.00393815
0.00383631
0.00372192
0.0035914
0.00344084
0.00326597
0.00306205
0.00282338
0.00254295
0.00221103
0.00181357
0.00132954
0.000730576
9.12912e-05
0.000274735
0.00157936
0.00206548
0.00229119
0.00241587
0.00252061
0.00265453
0.00284416
0.00309743
0.00340498
0.00374332
0.00408161
0.00438975
0.00464465
0.00483356
0.00495413
0.00501232
0.00501924
0.0049879
0.00493063
0.00485752
0.00477562
0.00468906
0.00459947
0.00450656
0.0044087
0.00430331
0.00418723
0.00405685
0.00390828
0.00373729
0.00353937
0.00330947
0.00304166
0.00272865
0.0023607
0.00192401
0.00139855
0.000758978
9.29677e-05
0.00329498
0.000703985
0.0037432
0.00125507
0.00421935
0.00191199
0.00471134
0.00258815
0.00519038
0.00323109
0.00563285
0.00381109
0.00602612
0.00431792
0.00636555
0.00475272
0.00665273
0.00512143
0.00689565
0.00543341
0.00569908
0.00592139
0.00608909
0.00619409
0.00624807
0.0062394
0.00616114
0.00602992
0.00586261
0.00567303
0.00548711
0.00532079
0.00513447
0.00491468
0.00465651
0.00442776
0.00431532
0.00438181
0.00465008
0.00510933
0.00574278
0.00653085
0.00743626
0.000274727
0.000303067
0.000335508
0.000278384
0.000505921
0.000702302
0.0015253
0.00137711
0.000828536
0.000791131
0.0015541
0.00191721
0.00125205
0.00090477
0.00134468
0.00192259
0.00173993
0.00108494
0.00124103
0.00172586
0.00224575
0.00132967
0.00123239
0.00158167
0.00273182
0.00162146
0.00129729
0.00150622
0.00317575
0.00193607
0.00141587
0.00148863
0.00356776
0.00224959
0.00156886
0.00151488
0.00390668
0.00254347
0.00173781
0.00157095
0.0041965
0.00280642
0.00190667
0.00164404
0.00443994
0.00303211
0.00206263
0.00172269
0.00463094
0.00321415
0.00219556
0.001797
0.00476401
0.00334725
0.00229813
0.00185931
0.00484329
0.00343079
0.00236713
0.00190508
0.00486457
0.00346743
0.0024048
0.0019336
0.00483451
0.00346922
0.00242054
0.00194859
0.00477019
0.00345467
0.00242937
0.00195775
0.00469012
0.00344473
0.00244955
0.00197235
0.00461299
0.00345862
0.00250017
0.00200811
0.00455626
0.00350869
0.0025965
0.0020844
0.00452778
0.00359587
0.00274524
0.00221852
0.00451632
0.0037088
0.00294149
0.00242057
0.00451798
0.00384254
0.00317361
0.00268915
0.00446105
0.0039851
0.00342896
0.0030126
0.00433439
0.00408082
0.00369048
0.0033721
0.00422408
0.0041305
0.00393469
0.00373767
0.00423506
0.0041853
0.00413922
0.00406704
0.00442943
0.00434269
0.00433057
0.00433936
0.00481756
0.00466222
0.00460739
0.00461777
0.00539009
0.00516455
0.00504424
0.00501338
0.00613873
0.00585936
0.00568203
0.00560562
0.00703579
0.00673167
0.00652164
0.00641422
0.000809893
0.00190725
0.00229608
0.0024654
0.0025484
0.00261912
0.00272314
0.00288741
0.00312512
0.00343334
0.00379221
0.00416972
0.0045303
0.00484333
0.00508869
0.00525846
0.00535543
0.00538985
0.00537553
0.00532662
0.00525527
0.00517046
0.00507778
0.00497987
0.00487701
0.00476778
0.00464963
0.00451925
0.00437283
0.00420618
0.00401489
0.00379419
0.00353883
0.00324272
0.00289847
0.00249641
0.00202312
0.00145969
0.000783684
9.43848e-05
0.00159601
0.00218361
0.00248753
0.00261515
0.00266786
0.0027147
0.002795
0.00293458
0.00315119
0.00344963
0.00381664
0.00422229
0.00462783
0.00499587
0.00529844
0.00552081
0.0056613
0.00572813
0.00573525
0.00569823
0.00563124
0.00554527
0.0054476
0.00534202
0.00522953
0.00510909
0.00497821
0.00483352
0.00467101
0.00448638
0.00427499
0.00403188
0.00375166
0.00342818
0.00305403
0.00261973
0.00211235
0.00151409
0.000805321
9.56003e-05
0.00186094
0.00228541
0.00257831
0.00270829
0.00275747
0.00279635
0.00286371
0.00298467
0.00318027
0.00346291
0.00382788
0.00425045
0.00469163
0.0051089
0.00546669
0.00574279
0.00592986
0.00603298
0.00606533
0.00604343
0.00598329
0.00589795
0.00579646
0.00568396
0.00556231
0.00543091
0.00528748
0.0051286
0.00495026
0.00474795
0.00451688
0.00425197
0.00394776
0.00359808
0.00319563
0.00273116
0.0021923
0.00156235
0.000824242
9.66487e-05
0.00210852
0.00223481
0.00254264
0.00273394
0.00281193
0.00285855
0.00292386
0.00303445
0.003213
0.00347808
0.00383405
0.00426379
0.00473096
0.00519016
0.00559921
0.00592822
0.00616334
0.00630547
0.00636613
0.00636219
0.0063112
0.00622817
0.00612403
0.00600538
0.00587507
0.00573305
0.00557734
0.00540461
0.00521076
0.00499118
0.00474099
0.00445504
0.00412783
0.00375326
0.00332418
0.00283164
0.00226386
0.00160517
0.000840818
9.75579e-05
0.00215302
0.00233134
0.00248352
0.00271425
0.00283789
0.0029024
0.00297313
0.0030809
0.00324812
0.00349706
0.00384033
0.00426965
0.00475386
0.0052471
0.00570204
0.00608152
0.00636466
0.00654735
0.00663857
0.00665488
0.00661502
0.00653584
0.00643015
0.0063061
0.00616766
0.00601548
0.00584789
0.00566168
0.00545274
0.00521643
0.00494779
0.00464167
0.00429257
0.00389452
0.00344055
0.00292205
0.00232781
0.00164313
0.000855347
9.83516e-05
0.00205966
0.00241047
0.0025294
0.00269369
0.00284816
0.00293275
0.00301198
0.00312222
0.00328389
0.00351998
0.00384948
0.00427317
0.0047668
0.00528632
0.00578106
0.00620733
0.00653717
0.00676082
0.00688397
0.00692223
0.00689509
0.00682106
0.00671482
0.00658615
0.00644018
0.00627832
0.00609927
0.00590003
0.00567652
0.0054241
0.00513781
0.00481248
0.00444271
0.00402265
0.00354555
0.00300318
0.00238485
0.00167677
0.000868072
9.90499e-05
0.00195479
0.00242218
0.00260835
0.00270761
0.00285565
0.00295493
0.00304233
0.00315788
0.00331887
0.00354615
0.00386266
0.00427757
0.00477455
0.0053133
0.00584153
0.00631015
0.00668435
0.00694839
0.00710399
0.00716528
0.00715202
0.00708422
0.00697834
0.00684576
0.00669282
0.00652175
0.00633173
0.00611997
0.0058825
0.00561469
0.00531161
0.00496814
0.00457896
0.00413841
0.00363997
0.00307576
0.00243562
0.00170653
0.000879205
9.96682e-05
0.00187931
0.0023842
0.00270384
0.00274558
0.00286664
0.00297252
0.00306617
0.00318815
0.00335218
0.00357464
0.00388001
0.00428461
0.00478036
0.00533214
0.00588774
0.00639391
0.00680943
0.00711254
0.00730034
0.00738511
0.00738661
0.00732594
0.00722117
0.00708528
0.00692591
0.00674612
0.00654563
0.00632193
0.00607116
0.00578875
0.00546983
0.00510933
0.00470208
0.00424258
0.00372455
0.00314049
0.00248068
0.0017328
0.000888935
0.000100216
0.00183665
0.00233962
0.00275144
0.00283414
0.00287761
0.00298582
0.00308441
0.00321347
0.00338333
0.0036046
0.00390108
0.0042949
0.00478601
0.00534548
0.0059228
0.00646156
0.00691473
0.00725486
0.00747459
0.00758328
0.00760013
0.00754716
0.00744401
0.00730529
0.00713992
0.00695189
0.00674147
0.00650643
0.00624308
0.00594693
0.00561315
0.0052368
0.00481282
0.00433589
0.00380001
0.00319799
0.00252054
0.00175594
0.000897427
0.000100703
0.00182284
0.0023044
0.00276257
0.00290969
0.00291842
0.00298964
0.00309592
0.00323377
0.00341194
0.00363519
0.00392506
0.00430807
0.00479198
0.00535409
0.00594684
0.0065136
0.00700236
0.00737859
0.00762967
0.00776205
0.00779424
0.00774908
0.00764776
0.00750648
0.00733548
0.00713966
0.00691983
0.0066741
0.00639893
0.00608991
0.00574232
0.00535129
0.00491195
0.0044191
0.00386703
0.00324885
0.00255568
0.00177625
0.000904816
0.000101137
0.00183119
0.00228312
0.00275688
0.00295384
0.00296881
0.00300127
0.00309724
0.00324786
0.00343731
0.00366541
0.00395086
0.00432256
0.00479472
0.00535539
0.00596191
0.00655509
0.00707743
0.007488
0.00776901
0.00792403
0.00797084
0.0079331
0.00783347
0.00768971
0.00751332
0.00731009
0.00708139
0.00682562
0.00653941
0.00621844
0.00585808
0.00545359
0.00500019
0.0044929
0.00392625
0.00329364
0.0025865
0.001794
0.000911219
0.000101525
0.00185335
0.00227225
0.00274248
0.00297269
0.00300498
0.00301399
0.00309441
0.00325316
0.00345785
0.00369355
0.00397445
0.00433373
0.00479581
0.00535581
0.00597487
0.00659231
0.00714559
0.00758782
0.00789636
0.00807205
0.00813204
0.00810075
0.00800229
0.00785588
0.00767422
0.00746393
0.00722688
0.00696174
0.00666528
0.0063333
0.00596123
0.00554446
0.00507829
0.00455798
0.00397828
0.00333285
0.00261341
0.00180945
0.000916734
0.000101874
0.00188062
0.00226481
0.00271947
0.00297323
0.00302278
0.00302455
0.003094
0.0032561
0.00347401
0.00371791
0.00399761
0.00434867
0.00480287
0.0053626
0.00599279
0.00663179
0.00721261
0.00768287
0.00801552
0.00820898
0.00827992
0.00825357
0.00815539
0.00800595
0.00781903
0.00760197
0.00735707
0.00708323
0.00677733
0.00643527
0.00605255
0.00562464
0.00514698
0.00461501
0.00402372
0.00336698
0.00263675
0.0018228
0.000921445
0.000102189
0.00190569
0.00225517
0.00268654
0.00295185
0.00301963
0.00303155
0.00309933
0.00326283
0.0034916
0.00374536
0.00402715
0.00437352
0.00482216
0.00538213
0.00602207
0.00667966
0.00728397
0.00777775
0.00813013
0.00833757
0.00841652
0.00839305
0.00829392
0.00814087
0.0079486
0.00772502
0.00747277
0.00719089
0.00687638
0.00652516
0.00613283
0.00569486
0.00520693
0.00466461
0.00406309
0.00339645
0.00265684
0.00183424
0.000925425
0.000102475
0.0019236
0.00223919
0.00264178
0.00290606
0.00299695
0.00303436
0.00311234
0.00327961
0.00351726
0.00378118
0.00406743
0.00441223
0.00485791
0.00541922
0.00606799
0.00674125
0.00736459
0.00787665
0.00824351
0.00846031
0.00854364
0.00852055
0.00841893
0.00826154
0.00806375
0.00783388
0.00757476
0.00728553
0.00696321
0.00660377
0.00620277
0.00575585
0.00525881
0.00470738
0.00409692
0.00342167
0.00267397
0.00184395
0.000928737
0.000102734
0.00193208
0.00221468
0.00258345
0.00284206
0.00296272
0.00303594
0.00313597
0.00331124
0.00355633
0.00382944
0.00412132
0.00446725
0.00491298
0.00547754
0.00613492
0.00682114
0.00745875
0.00798316
0.00835843
0.00857925
0.0086628
0.0086372
0.00853135
0.00836877
0.00816526
0.00792933
0.00766384
0.00736794
0.00703862
0.0066718
0.00626311
0.00580829
0.00530325
0.00474387
0.00412565
0.003443
0.00268839
0.00185206
0.000931434
0.00010297
0.00193177
0.00218251
0.00251454
0.00276783
0.00292372
0.00304265
0.00317402
0.00336121
0.00361293
0.00389356
0.00419127
0.00454064
0.00498978
0.00556026
0.00622664
0.00692327
0.00757002
0.00810018
0.00847709
0.00869595
0.00877511
0.00874385
0.00863192
0.00846328
0.00825386
0.00801211
0.00774078
0.0074389
0.00710335
0.00673
0.00631455
0.00585284
0.00534084
0.00477459
0.00414972
0.00346078
0.00270033
0.00185871
0.000933563
0.000103185
0.00192637
0.00214712
0.00244143
0.00268975
0.00288909
0.00306305
0.0032309
0.00343248
0.00369038
0.00397666
0.00427975
0.00463466
0.00509093
0.00567057
0.0063467
0.00705106
0.00770125
0.00822981
0.00860087
0.00881131
0.0088812
0.00884104
0.00872119
0.00854567
0.0083302
0.00808293
0.00780631
0.00749913
0.00715808
0.00677905
0.00635777
0.0058901
0.00537214
0.00480003
0.00416952
0.00347529
0.00270999
0.00186401
0.000935161
0.00010338
0.00192249
0.00211792
0.00237615
0.00262338
0.00287385
0.00310609
0.00331087
0.0035277
0.00379135
0.00408143
0.00438933
0.00475202
0.0052196
0.00581204
0.00649861
0.0072074
0.00785446
0.00837319
0.0087303
0.00892553
0.00898119
0.00892898
0.00879949
0.00861641
0.00839488
0.00814246
0.00786113
0.00754928
0.00720351
0.00681964
0.00639338
0.00592066
0.00539766
0.00482061
0.0041854
0.0034868
0.00271754
0.00186806
0.000936264
0.000103557
0.00192805
0.00210489
0.00233909
0.00259174
0.00289204
0.00317728
0.00341626
0.00364853
0.00391773
0.00421003
0.00452258
0.00489604
0.00537981
0.00598881
0.00668583
0.00739456
0.0080306
0.00853032
0.00886487
0.00903802
0.00907468
0.00900753
0.00886697
0.00867589
0.00844845
0.00819132
0.00790582
0.00759003
0.00724032
0.00685241
0.00642201
0.00594507
0.00541786
0.00483674
0.00419767
0.00349554
0.00272315
0.00187093
0.0009369
0.000103717
0.00195716
0.00209613
0.00232811
0.00260342
0.00294166
0.00327283
0.00354494
0.00379508
0.0040705
0.00436409
0.00468235
0.00507103
0.00557672
0.00620565
0.00691159
0.0076138
0.00822928
0.00869985
0.00900297
0.0091474
0.00916075
0.00907629
0.00892367
0.00872444
0.00849134
0.00823001
0.00794105
0.00762207
0.00726918
0.00687799
0.0064442
0.00596382
0.00543319
0.00484877
0.00420663
0.00350173
0.00272694
0.00187271
0.000937095
0.00010386
0.00203929
0.00212474
0.00234176
0.00264699
0.00302025
0.00339123
0.00369682
0.00396849
0.00425063
0.00454542
0.00487261
0.00528317
0.00581713
0.00646789
0.00717847
0.00786489
0.0084484
0.00887889
0.00914185
0.00925157
0.0092381
0.00913467
0.00896947
0.00876218
0.00852397
0.00825915
0.00796748
0.00764605
0.00729071
0.00689696
0.0064605
0.00597738
0.00544405
0.00485703
0.00421251
0.00350554
0.00272904
0.00187345
0.000936869
0.000103986
0.00220059
0.00224461
0.00244224
0.00274908
0.00314482
0.00354772
0.00388214
0.00417488
0.00446128
0.00475793
0.00510043
0.00554189
0.00610987
0.00678097
0.00748757
0.0081455
0.0086838
0.00906302
0.0092778
0.00934789
0.00930504
0.00918171
0.00900404
0.00878938
0.00854686
0.00827938
0.00798578
0.00766263
0.00730552
0.00690988
0.0064714
0.0059862
0.00545079
0.00486182
0.00421557
0.00350716
0.00272956
0.00187322
0.000936245
0.000104096
0.00245524
0.00247592
0.00265977
0.00295626
0.00334677
0.00376093
0.0041131
0.00441992
0.00470799
0.00500999
0.00537875
0.00586147
0.00646567
0.00714932
0.00783729
0.00844991
0.00892806
0.0092451
0.00940503
0.00943227
0.00935924
0.00921651
0.00902736
0.00880641
0.0085606
0.00829137
0.00799662
0.00767244
0.00731421
0.00691728
0.00647737
0.00599066
0.00545376
0.00486342
0.00421601
0.00350673
0.0027286
0.00187207
0.000935241
0.00010419
0.0028009
0.00282056
0.00299636
0.00327577
0.00363998
0.0040396
0.00439178
0.00469637
0.00498431
0.00530378
0.00571273
0.00624195
0.00687573
0.00755673
0.0082081
0.00875963
0.00916637
0.00941464
0.00951698
0.00950118
0.00939912
0.00923861
0.00903963
0.0088138
0.00856587
0.0082958
0.00800066
0.00767612
0.00731735
0.00691967
0.00647885
0.00599115
0.00545328
0.00486208
0.00421402
0.00350439
0.00272626
0.00187005
0.000933876
0.000104267
0.00321354
0.00325137
0.00342868
0.00368987
0.00401404
0.00437169
0.0047042
0.00499423
0.00528448
0.00563831
0.00610141
0.00667787
0.00732915
0.00798878
0.00858491
0.00906105
0.00938784
0.00956398
0.0096089
0.00955214
0.00942373
0.00924802
0.00904132
0.00881223
0.00856339
0.0082934
0.0079986
0.00767427
0.00731547
0.00691753
0.00647626
0.00598803
0.00544964
0.00485805
0.00420981
0.00350029
0.00272262
0.00186722
0.000932169
0.000104329
0.00364583
0.00370637
0.00388126
0.00412849
0.00441224
0.00471901
0.00501825
0.00530276
0.00562425
0.00603659
0.00655924
0.00717012
0.00781596
0.00843007
0.00895172
0.00934062
0.00958261
0.00968683
0.00967741
0.00958376
0.0094329
0.00924519
0.00903318
0.00880256
0.008554
0.00828495
0.00799111
0.0076675
0.00730912
0.00691132
0.00647
0.00598163
0.00544313
0.00485154
0.00420353
0.00349455
0.00271777
0.00186362
0.000930141
0.000104374
0.00404168
0.00411791
0.00427087
0.004487
0.00474611
0.00502792
0.00532463
0.00564503
0.00603273
0.00651586
0.00708675
0.00770619
0.00831704
0.00886067
0.00929153
0.00958582
0.00974265
0.00977885
0.00972072
0.0095958
0.00942723
0.00923107
0.00901622
0.00878573
0.00853856
0.00827118
0.00797885
0.00765639
0.0072988
0.00690148
0.00646045
0.00597228
0.00543401
0.00484279
0.00419537
0.00348731
0.00271181
0.0018593
0.000927811
0.000104404
0.00436937
0.00445861
0.00459824
0.00479362
0.0050456
0.00534218
0.00568066
0.00607244
0.00653772
0.00707812
0.00766776
0.00826125
0.0088067
0.00925877
0.00958834
0.00978649
0.00986255
0.00983795
0.00973874
0.0095892
0.00940801
0.00920698
0.00899165
0.00876279
0.00851796
0.00825288
0.00796249
0.00764152
0.00728499
0.00688844
0.00644797
0.00596029
0.00542254
0.00483199
0.0041855
0.00347868
0.00270481
0.00185433
0.000925204
0.000104418
0.0046702
0.00477811
0.00493303
0.00514547
0.00542217
0.0057612
0.00616061
0.00662167
0.00714182
0.00770316
0.00827126
0.00880308
0.00925747
0.00960422
0.00982945
0.00993605
0.00994004
0.00986441
0.00973299
0.00956585
0.00937706
0.00917449
0.00896079
0.00873483
0.00849309
0.00823079
0.00794265
0.00762341
0.00726818
0.0068726
0.00643291
0.00594595
0.00540898
0.00481937
0.00417408
0.0034688
0.00269687
0.00184874
0.000922342
0.000104416
0.00505523
0.00518003
0.00537003
0.00562324
0.00594474
0.00633343
0.0067831
0.00728291
0.00781492
0.00835147
0.00885766
0.00929821
0.00964488
0.00988176
0.0100072
0.0100323
0.0099761
0.00986072
0.00970632
0.00952836
0.00933656
0.00913535
0.00892499
0.0087029
0.00846481
0.00820561
0.00791993
0.00760259
0.0072488
0.00685435
0.00641561
0.00592956
0.00539357
0.00480513
0.00416127
0.00345779
0.00268808
0.00184262
0.000919252
0.0001044
0.00562501
0.00575733
0.0059792
0.00627133
0.00663041
0.00704962
0.00751577
0.00800944
0.0085055
0.00897464
0.00938713
0.00971797
0.00995132
0.010083
0.0101198
0.0100773
0.0099746
0.00983107
0.00966249
0.00947979
0.00928886
0.00909131
0.00888557
0.00866804
0.00843395
0.00817801
0.0078949
0.00757954
0.00722728
0.00683406
0.0063964
0.00591141
0.00537657
0.00478947
0.00414726
0.0034458
0.00267855
0.001836
0.000915961
0.000104369
0.00641247
0.00653929
0.00677191
0.00707804
0.00744445
0.00785651
0.00829515
0.00873694
0.00915598
0.00952671
0.00982728
0.0100429
0.0101682
0.0102069
0.010171
0.0100768
0.00994158
0.00978076
0.00960571
0.00942329
0.00923624
0.00904402
0.00884375
0.00863117
0.00840122
0.0081486
0.00786808
0.00755471
0.00720402
0.00681209
0.00637559
0.00589175
0.00535819
0.00477259
0.00413219
0.00343294
0.00266836
0.00182896
0.000912496
0.000104324
)
;

boundaryField
{
    leftWall
    {
        type            nutkWallFunction;
        Cmu             0.09;
        kappa           0.41;
        E               9.8;
        value           nonuniform List<scalar> 0();
    }
    rightWall
    {
        type            nutkWallFunction;
        Cmu             0.09;
        kappa           0.41;
        E               9.8;
        value           nonuniform List<scalar> 
43
(
0
0
2.51531e-08
9.73764e-07
1.76512e-06
2.39157e-06
2.88656e-06
3.28384e-06
3.60758e-06
3.87485e-06
4.09971e-06
4.29122e-06
4.45509e-06
4.59638e-06
4.71916e-06
4.82679e-06
4.92183e-06
5.00573e-06
5.07988e-06
5.14563e-06
5.20418e-06
5.25654e-06
5.30358e-06
5.34598e-06
5.38431e-06
5.41901e-06
5.45045e-06
5.4789e-06
5.50455e-06
5.52755e-06
5.54802e-06
5.566e-06
5.58155e-06
5.59469e-06
5.60545e-06
5.61383e-06
5.61985e-06
5.62355e-06
5.62494e-06
5.62408e-06
5.62102e-06
5.61583e-06
5.60861e-06
)
;
    }
    lowerWall
    {
        type            nutkWallFunction;
        Cmu             0.09;
        kappa           0.41;
        E               9.8;
        value           nonuniform List<scalar> 
66
(
1.12368e-05
1.10585e-05
1.10585e-05
1.83165e-05
2.19586e-05
2.51509e-05
2.74918e-05
2.94553e-05
3.136e-05
3.33639e-05
3.56091e-05
3.82082e-05
3.04686e-05
3.45343e-05
3.83468e-05
3.08189e-05
0
2.18649e-06
3.87436e-06
5.61091e-06
7.54659e-06
9.93846e-06
1.31233e-05
1.74763e-05
2.32634e-05
3.07682e-05
0
0
0
0
7.86074e-08
3.64205e-07
6.43127e-07
8.47431e-07
9.54038e-07
9.75922e-07
9.34676e-07
8.47591e-07
7.29012e-07
5.91172e-07
4.44312e-07
2.965e-07
1.54443e-07
3.4021e-08
1.59597e-08
1.16148e-07
3.18331e-08
3.02282e-08
1.73051e-08
3.79122e-08
2.37132e-08
4.2548e-08
1.2733e-08
1.85363e-08
0
1.20515e-08
9.76212e-09
7.20929e-08
0
0
1.25322e-08
0
0
0
0
0
)
;
    }
    atmosphere
    {
        type            calculated;
        value           nonuniform List<scalar> 0();
    }
    defaultFaces
    {
        type            empty;
    }
    procBoundary1to0
    {
        type            processor;
        value           nonuniform List<scalar> 
44
(
9.81997e-05
0.000555606
0.000977855
0.00148659
0.00207774
0.00270155
0.00331018
0.00387301
0.00437529
0.00482079
0.00525866
0.00569115
0.00611246
0.00651768
0.00689576
0.00723494
0.00752755
0.00777127
0.00797016
0.0081353
0.00710502
0.00710502
0.00728162
0.00740567
0.00745644
0.0074376
0.00734655
0.00718269
0.0069615
0.00669284
0.0063751
0.00604993
0.00572002
0.00538396
0.00505075
0.00476946
0.00458835
0.00455249
0.00469857
0.00503525
0.00555035
0.00622419
0.00702837
0.00791967
)
;
    }
    procBoundary1to3
    {
        type            processor;
        value           nonuniform List<scalar> 
45
(
0.00839764
0.00802013
0.00772257
0.00750759
0.00738793
0.00737002
0.00747815
0.00769246
0.0079779
0.00831228
0.0086757
0.00904616
0.00940032
0.00971557
0.00997259
0.0101578
0.010265
0.010296
0.0102595
0.0101689
0.0100391
0.00988423
0.00971548
0.00954017
0.00936184
0.0091808
0.00899496
0.00880063
0.00859312
0.00836731
0.00811795
0.00783994
0.00752852
0.00717938
0.00678876
0.00635347
0.00587086
0.00533867
0.00475469
0.00411624
0.00341936
0.00265761
0.00182157
0.000908885
0.000104266
)
;
    }
}


// ************************************************************************* //
