/*--------------------------------*- C++ -*----------------------------------*\
  =========                 |
  \\      /  F ield         | OpenFOAM: The Open Source CFD Toolbox
   \\    /   O peration     | Website:  https://openfoam.org
    \\  /    A nd           | Version:  9
     \\/     M anipulation  |
\*---------------------------------------------------------------------------*/
FoamFile
{
    format      ascii;
    class       volVectorField;
    location    "0.25";
    object      U;
}
// * * * * * * * * * * * * * * * * * * * * * * * * * * * * * * * * * * * * * //

dimensions      [0 1 -1 0 0 0 0];

internalField   nonuniform List<vector> 
1915
(
(-0.25346 -0.0610239 0)
(-0.0929332 -0.146774 0)
(-0.0125506 0.0530388 0)
(0.00255671 -0.194509 0)
(0.198795 0.157243 0)
(0.111451 -0.120747 0)
(0.324063 0.304816 0)
(0.16904 0.0175104 0)
(0.390138 0.468111 0)
(0.200918 0.207255 0)
(0.429059 0.637917 0)
(0.219063 0.421442 0)
(0.465348 0.813428 0)
(0.235771 0.656587 0)
(0.517212 0.994822 0)
(0.262076 0.920721 0)
(0.604006 1.17894 0)
(0.31555 1.22159 0)
(0.742261 1.35166 0)
(0.403831 1.60682 0)
(-0.0083258 0.0053618 0)
(-0.0281498 0.020436 0)
(-0.0740959 0.0230008 0)
(-0.111388 0.0191781 0)
(-0.136744 0.0108157 0)
(-0.150907 0.00379792 0)
(-0.155831 0.000408071 0)
(-0.154056 -0.00227656 0)
(-0.147856 -0.0039559 0)
(-0.138689 -0.00497871 0)
(-0.12765 -0.0055473 0)
(-0.115604 -0.00577597 0)
(-0.103206 -0.00575221 0)
(-0.0909425 -0.00555725 0)
(-0.0791423 -0.00525848 0)
(-0.068019 -0.00489668 0)
(-0.0577013 -0.0045163 0)
(-0.0481795 -0.00428972 0)
(-0.0394607 -0.00412436 0)
(-0.0317311 -0.00361989 0)
(-0.0248652 -0.00304854 0)
(-0.0188347 -0.00269499 0)
(-0.0136325 -0.00228523 0)
(-0.00926625 -0.00187367 0)
(-0.00567041 -0.00149567 0)
(-0.00282581 -0.00114614 0)
(-0.000670996 -0.000804027 0)
(0.000824712 -0.000487525 0)
(0.00169042 -0.000174814 0)
(0.00196154 0.000125032 0)
(0.00165848 0.000404526 0)
(0.00080794 0.000676547 0)
(-0.000529852 0.000940654 0)
(-0.00232977 0.00114773 0)
(-0.00447823 0.00127196 0)
(-0.00674564 0.00117038 0)
(-0.00868988 0.000789105 0)
(-0.00957897 0.00010061 0)
(-0.0085508 -0.00141404 0)
(-0.00533897 -0.00372901 0)
(-0.0261844 0.0195146 0)
(-0.0560794 0.0388716 0)
(-0.0992527 0.0405182 0)
(-0.131053 0.031425 0)
(-0.150723 0.0202801 0)
(-0.161072 0.0099703 0)
(-0.164383 0.00182727 0)
(-0.16255 -0.00417573 0)
(-0.156611 -0.00833074 0)
(-0.147711 -0.0110612 0)
(-0.136869 -0.0127035 0)
(-0.124889 -0.0135075 0)
(-0.112392 -0.0136759 0)
(-0.0998518 -0.0133894 0)
(-0.0876321 -0.0127983 0)
(-0.075992 -0.0120112 0)
(-0.0650938 -0.0110995 0)
(-0.055035 -0.010123 0)
(-0.0458943 -0.00909648 0)
(-0.0376554 -0.00807081 0)
(-0.030331 -0.00717992 0)
(-0.0238612 -0.00625103 0)
(-0.0182451 -0.00534649 0)
(-0.0134288 -0.0044639 0)
(-0.00938897 -0.0036414 0)
(-0.00608237 -0.00286021 0)
(-0.0034691 -0.00212456 0)
(-0.00149353 -0.00141595 0)
(-0.000131993 -0.000742799 0)
(0.000653351 -0.000105804 0)
(0.000910783 0.000494338 0)
(0.000661674 0.00104458 0)
(-5.79587e-05 0.00153767 0)
(-0.00115479 0.00196326 0)
(-0.00255703 0.00219712 0)
(-0.00407255 0.00211939 0)
(-0.00545269 0.00148833 0)
(-0.00619423 5.07136e-05 0)
(-0.00578749 -0.0025748 0)
(-0.00411407 -0.00645389 0)
(-0.0339087 0.054611 0)
(-0.0695063 0.0698767 0)
(-0.107712 0.0661539 0)
(-0.136238 0.0496014 0)
(-0.154599 0.0309202 0)
(-0.164764 0.0147542 0)
(-0.168098 0.00226321 0)
(-0.16609 -0.00695484 0)
(-0.160067 -0.0134872 0)
(-0.151209 -0.0178789 0)
(-0.140485 -0.020584 0)
(-0.128648 -0.0219713 0)
(-0.116276 -0.0223517 0)
(-0.103812 -0.0219953 0)
(-0.091608 -0.0211214 0)
(-0.0799355 -0.0198983 0)
(-0.0689684 -0.0184567 0)
(-0.0588181 -0.0169037 0)
(-0.0495641 -0.0153042 0)
(-0.0412128 -0.0136974 0)
(-0.0337523 -0.0121249 0)
(-0.027165 -0.0106027 0)
(-0.0214036 -0.00911941 0)
(-0.0164236 -0.00769586 0)
(-0.0121873 -0.00634667 0)
(-0.00865622 -0.00507121 0)
(-0.00578415 -0.00386503 0)
(-0.00352129 -0.00272148 0)
(-0.00182811 -0.00164135 0)
(-0.000665623 -0.000628879 0)
(4.87176e-06 0.000316071 0)
(0.00023297 0.00118671 0)
(7.92433e-05 0.00196254 0)
(-0.000373536 0.00259123 0)
(-0.00102814 0.00296014 0)
(-0.00177135 0.00287896 0)
(-0.00245601 0.00208835 0)
(-0.00287435 0.000262409 0)
(-0.00297648 -0.00311346 0)
(-0.00183204 -0.00940464 0)
(-0.0361265 0.0913392 0)
(-0.0771261 0.100624 0)
(-0.115209 0.0898452 0)
(-0.14371 0.0662609 0)
(-0.161504 0.0410904 0)
(-0.170683 0.0194231 0)
(-0.172918 0.00252635 0)
(-0.169914 -0.0100007 0)
(-0.163142 -0.018891 0)
(-0.153801 -0.0248806 0)
(-0.142813 -0.0285963 0)
(-0.130866 -0.0305429 0)
(-0.118476 -0.0311355 0)
(-0.106033 -0.0307196 0)
(-0.0938615 -0.0295764 0)
(-0.0822223 -0.0279313 0)
(-0.0712794 -0.0259632 0)
(-0.0611299 -0.0238128 0)
(-0.0518441 -0.0215791 0)
(-0.0434555 -0.0193341 0)
(-0.0359629 -0.0171371 0)
(-0.0293355 -0.0150076 0)
(-0.0235179 -0.0129531 0)
(-0.0184618 -0.0109896 0)
(-0.0141277 -0.00913252 0)
(-0.0104753 -0.00738342 0)
(-0.00745654 -0.00573933 0)
(-0.00501941 -0.00419438 0)
(-0.00311478 -0.00274637 0)
(-0.00169755 -0.00139708 0)
(-0.000722387 -0.000148926 0)
(-0.000133332 0.000987807 0)
(0.000137963 0.00198206 0)
(0.000172591 0.00276932 0)
(5.84796e-05 0.00322776 0)
(-0.000122501 0.00316732 0)
(-0.00030029 0.00232316 0)
(-0.00039277 0.000354584 0)
(-0.000589586 -0.0032657 0)
(0.000214671 -0.0103478 0)
(-0.0387994 0.130575 0)
(-0.0866087 0.132995 0)
(-0.126821 0.114305 0)
(-0.156172 0.0826963 0)
(-0.172801 0.0504647 0)
(-0.17992 0.0230241 0)
(-0.179954 0.00171537 0)
(-0.175024 -0.0139656 0)
(-0.166754 -0.0250096 0)
(-0.15635 -0.0324008 0)
(-0.144664 -0.0369632 0)
(-0.132305 -0.0393455 0)
(-0.119702 -0.0400669 0)
(-0.107169 -0.0395448 0)
(-0.094979 -0.038111 0)
(-0.0833584 -0.0360325 0)
(-0.0724513 -0.0335272 0)
(-0.0623358 -0.0307725 0)
(-0.0530713 -0.0279043 0)
(-0.0446993 -0.025024 0)
(-0.0372227 -0.0222013 0)
(-0.0306035 -0.0194686 0)
(-0.0247836 -0.0168462 0)
(-0.0197118 -0.0143534 0)
(-0.0153465 -0.0120046 0)
(-0.0116441 -0.00980145 0)
(-0.00855263 -0.00773854 0)
(-0.00601553 -0.00580841 0)
(-0.00397738 -0.00400789 0)
(-0.0023871 -0.00233961 0)
(-0.00119396 -0.00081092 0)
(-0.000339863 0.000561079 0)
(0.000241404 0.00173665 0)
(0.000622931 0.00264839 0)
(0.000877112 0.0031779 0)
(0.00105862 0.0031486 0)
(0.00118716 0.00232037 0)
(0.00125775 0.000380285 0)
(0.00101479 -0.00319227 0)
(0.00113707 -0.00981202 0)
(-0.0454634 0.176689 0)
(-0.103915 0.169271 0)
(-0.146598 0.140636 0)
(-0.176225 0.0987882 0)
(-0.190056 0.0582405 0)
(-0.193425 0.0246183 0)
(-0.189797 -0.000986458 0)
(-0.181793 -0.0194879 0)
(-0.171164 -0.032298 0)
(-0.159072 -0.0407364 0)
(-0.146249 -0.0458605 0)
(-0.133174 -0.0484684 0)
(-0.120159 -0.0491718 0)
(-0.107417 -0.0484447 0)
(-0.0951422 -0.0466579 0)
(-0.0835143 -0.044112 0)
(-0.0726432 -0.0410567 0)
(-0.0625821 -0.0376977 0)
(-0.053375 -0.0341985 0)
(-0.0450599 -0.0306839 0)
(-0.0376388 -0.0272381 0)
(-0.0310703 -0.02391 0)
(-0.0252947 -0.0207302 0)
(-0.0202582 -0.0177212 0)
(-0.0159153 -0.0148955 0)
(-0.012218 -0.0122529 0)
(-0.00911042 -0.00978661 0)
(-0.0065319 -0.00748864 0)
(-0.00442247 -0.00535622 0)
(-0.00272644 -0.00339354 0)
(-0.00139032 -0.00161201 0)
(-0.00035855 -3.36878e-05 0)
(0.000430644 0.00129935 0)
(0.00104 0.00232091 0)
(0.00152305 0.00292255 0)
(0.0019107 0.0029497 0)
(0.0021885 0.00219821 0)
(0.00229307 0.000403672 0)
(0.00195888 -0.00289533 0)
(0.00162265 -0.00880285 0)
(-0.0607066 0.235453 0)
(-0.137093 0.210966 0)
(-0.179622 0.168397 0)
(-0.207079 0.113175 0)
(-0.21504 0.062887 0)
(-0.212101 0.0228593 0)
(-0.202867 -0.00664294 0)
(-0.190384 -0.027354 0)
(-0.176424 -0.0413151 0)
(-0.161984 -0.0502738 0)
(-0.147583 -0.0555466 0)
(-0.133504 -0.0580752 0)
(-0.119895 -0.0585458 0)
(-0.106834 -0.0574703 0)
(-0.0944182 -0.0552412 0)
(-0.0827621 -0.0521763 0)
(-0.0719304 -0.0485442 0)
(-0.0619434 -0.0445695 0)
(-0.0528253 -0.0404358 0)
(-0.0446046 -0.0362868 0)
(-0.0372787 -0.032222 0)
(-0.0308031 -0.0283047 0)
(-0.0251161 -0.0245745 0)
(-0.0201605 -0.0210568 0)
(-0.015886 -0.0177632 0)
(-0.0122407 -0.0146925 0)
(-0.00916522 -0.0118366 0)
(-0.00659543 -0.00918758 0)
(-0.00446844 -0.00674312 0)
(-0.00272643 -0.00450876 0)
(-0.00131549 -0.00249792 0)
(-0.000182496 -0.000734206 0)
(0.000727355 0.000743913 0)
(0.00146413 0.00187102 0)
(0.00206512 0.00255531 0)
(0.0025422 0.00266764 0)
(0.00285862 0.00204355 0)
(0.00291886 0.00047345 0)
(0.00247288 -0.00240732 0)
(0.00182623 -0.00747578 0)
(-0.0920237 0.325602 0)
(-0.198529 0.259151 0)
(-0.232167 0.19506 0)
(-0.251966 0.122895 0)
(-0.249192 0.0619095 0)
(-0.236502 0.0158757 0)
(-0.219307 -0.0165885 0)
(-0.200758 -0.0384785 0)
(-0.182428 -0.0526698 0)
(-0.164977 -0.0614098 0)
(-0.148579 -0.066276 0)
(-0.133237 -0.0683266 0)
(-0.11888 -0.068288 0)
(-0.105416 -0.0666794 0)
(-0.0928211 -0.0638896 0)
(-0.0811285 -0.0602345 0)
(-0.0703479 -0.0559851 0)
(-0.0604608 -0.0513737 0)
(-0.0514671 -0.0465966 0)
(-0.043381 -0.0418112 0)
(-0.0361917 -0.0371299 0)
(-0.0298513 -0.0326268 0)
(-0.0242956 -0.0283498 0)
(-0.0194638 -0.024328 0)
(-0.015301 -0.0205736 0)
(-0.0117506 -0.0170848 0)
(-0.00875024 -0.0138524 0)
(-0.0062342 -0.0108684 0)
(-0.0041385 -0.00813041 0)
(-0.00240446 -0.00564375 0)
(-0.000978664 -0.00342127 0)
(0.000188695 -0.00148522 0)
(0.00114304 0.000129129 0)
(0.00192433 0.00136523 0)
(0.00255767 0.002147 0)
(0.00303909 0.00237183 0)
(0.00331917 0.00191375 0)
(0.00328962 0.000616937 0)
(0.00272736 -0.00178603 0)
(0.00187261 -0.00598735 0)
(-0.163328 0.456329 0)
(-0.308689 0.312235 0)
(-0.310452 0.213707 0)
(-0.312563 0.122677 0)
(-0.29256 0.0517876 0)
(-0.266242 0.00138421 0)
(-0.238682 -0.0323076 0)
(-0.212544 -0.0538161 0)
(-0.188885 -0.0669664 0)
(-0.167825 -0.0745207 0)
(-0.149071 -0.0782788 0)
(-0.132258 -0.0793589 0)
(-0.117038 -0.0784758 0)
(-0.103118 -0.0761107 0)
(-0.0903296 -0.0726158 0)
(-0.0786107 -0.0682815 0)
(-0.0679066 -0.0633627 0)
(-0.0581549 -0.0580868 0)
(-0.0493276 -0.0526534 0)
(-0.0414206 -0.0472271 0)
(-0.0344124 -0.0419297 0)
(-0.028251 -0.0368439 0)
(-0.0228696 -0.0320244 0)
(-0.018204 -0.027504 0)
(-0.014194 -0.023296 0)
(-0.010779 -0.0193988 0)
(-0.00789473 -0.0158032 0)
(-0.0054748 -0.0124998 0)
(-0.00345521 -0.00948477 0)
(-0.00177776 -0.00676139 0)
(-0.000390924 -0.00434046 0)
(0.0007509 -0.00224129 0)
(0.00168667 -0.000494089 0)
(0.00244665 0.00085748 0)
(0.00304493 0.00175144 0)
(0.00346817 0.00211069 0)
(0.00366104 0.0018445 0)
(0.00351503 0.000845545 0)
(0.00283732 -0.00107096 0)
(0.00184268 -0.00444099 0)
(-0.25438 0.727393 0)
(-0.46876 0.351107 0)
(-0.41635 0.21137 0)
(-0.385928 0.105182 0)
(-0.342302 0.0285521 0)
(-0.299278 -0.0228289 0)
(-0.259657 -0.0551078 0)
(-0.224911 -0.0741752 0)
(-0.195261 -0.0847094 0)
(-0.170174 -0.0899142 0)
(-0.148817 -0.0917355 0)
(-0.130399 -0.0912727 0)
(-0.114259 -0.0891583 0)
(-0.0998678 -0.0857808 0)
(-0.0868997 -0.0814159 0)
(-0.0751859 -0.0763004 0)
(-0.0645993 -0.070652 0)
(-0.0550305 -0.0646777 0)
(-0.04642 -0.0585709 0)
(-0.0387427 -0.0524979 0)
(-0.0319648 -0.0465854 0)
(-0.0260285 -0.0409218 0)
(-0.0208652 -0.035566 0)
(-0.0164073 -0.0305539 0)
(-0.0125907 -0.0259012 0)
(-0.00935141 -0.0216072 0)
(-0.00662302 -0.0176617 0)
(-0.00433922 -0.0140532 0)
(-0.00243734 -0.0107752 0)
(-0.000861097 -0.00782801 0)
(0.000438521 -0.00521891 0)
(0.00150324 -0.00296232 0)
(0.00236639 -0.00108118 0)
(0.00305042 0.000391216 0)
(0.00356125 0.00140924 0)
(0.00387985 0.0019185 0)
(0.00395017 0.00185913 0)
(0.00367073 0.00116487 0)
(0.00287817 -0.000282436 0)
(0.00178286 -0.00288952 0)
(0.944207 1.46524 0)
(0.774153 1.87216 0)
(1.09149 1.49518 0)
(1.06008 1.83383 0)
(1.17688 1.47966 0)
(1.21233 1.72808 0)
(1.22716 1.45543 0)
(1.27611 1.66181 0)
(1.24971 1.43057 0)
(1.29365 1.61945 0)
(1.24254 1.4049 0)
(1.28071 1.58297 0)
(1.20591 1.37917 0)
(1.24134 1.54996 0)
(1.14355 1.35331 0)
(1.17885 1.51922 0)
(1.06388 1.32511 0)
(1.1 1.4878 0)
(0.982692 1.29608 0)
(1.01779 1.45521 0)
(0.94615 1.42739 0)
(0.889021 1.41219 0)
(0.830498 1.4081 0)
(0.776405 1.40887 0)
(0.743413 1.42158 0)
(0.690245 1.49824 0)
(0.613609 1.5927 0)
(0.535248 1.68426 0)
(0.472115 1.76506 0)
(0.434324 1.81818 0)
(0.416405 1.8309 0)
(0.334897 1.57436 0)
(0.146025 1.35264 0)
(-0.0370033 1.14149 0)
(-0.169529 0.958708 0)
(-0.284526 0.819973 0)
(-0.409771 0.722048 0)
(-0.498546 0.67636 0)
(-0.521664 0.671792 0)
(-0.494046 0.67682 0)
(-0.445822 0.673445 0)
(-0.396862 0.659481 0)
(-0.355098 0.637788 0)
(0.691276 1.12975 0)
(-0.963793 0.304389 0)
(-3.08774 -0.103412 0)
(-1.10027 0.148272 0)
(1.09925 1.67372 0)
(0.551859 1.21568 0)
(-0.501552 -0.108643 0)
(-1.34852 -0.23218 0)
(1.26744 1.76863 0)
(1.09483 1.58324 0)
(0.665133 1.09095 0)
(-0.892264 0.220372 0)
(1.33632 1.76702 0)
(1.28861 1.72575 0)
(1.1221 1.54426 0)
(0.565704 1.07031 0)
(1.34897 1.75112 0)
(1.34531 1.78435 0)
(1.26739 1.71745 0)
(1.05698 1.5048 0)
(1.32739 1.72791 0)
(1.34211 1.80473 0)
(1.30184 1.7997 0)
(1.20885 1.7203 0)
(1.28205 1.70116 0)
(1.30629 1.8072 0)
(1.28635 1.84729 0)
(1.23615 1.8238 0)
(1.21753 1.67336 0)
(1.24788 1.79917 0)
(1.24425 1.87134 0)
(1.218 1.87915 0)
(1.13831 1.6437 0)
(1.17255 1.7829 0)
(1.18174 1.88077 0)
(1.17038 1.91689 0)
(1.05292 1.61246 0)
(1.08722 1.76068 0)
(1.10488 1.87927 0)
(1.10369 1.94166 0)
(0.972815 1.58331 0)
(1.00029 1.73674 0)
(1.02003 1.87076 0)
(1.02555 1.95511 0)
(0.904056 1.56517 0)
(0.91877 1.7178 0)
(0.933099 1.86001 0)
(0.941652 1.96076 0)
(0.841095 1.56015 0)
(0.842828 1.70849 0)
(0.846876 1.85201 0)
(0.854231 1.96291 0)
(0.777174 1.569 0)
(0.769012 1.71095 0)
(0.761755 1.84984 0)
(0.765818 1.9644 0)
(0.707415 1.59425 0)
(0.694168 1.72558 0)
(0.677582 1.85378 0)
(0.678607 1.9657 0)
(0.634213 1.63822 0)
(0.61677 1.7497 0)
(0.594967 1.86201 0)
(0.595045 1.96602 0)
(0.564183 1.69274 0)
(0.541963 1.77923 0)
(0.518363 1.87148 0)
(0.52 1.96326 0)
(0.499883 1.75056 0)
(0.47732 1.81002 0)
(0.454069 1.87937 0)
(0.458643 1.95197 0)
(0.450401 1.8017 0)
(0.430341 1.83931 0)
(0.407435 1.88968 0)
(0.409857 1.93077 0)
(0.422785 1.83744 0)
(0.405485 1.86523 0)
(0.386019 1.90243 0)
(0.376913 1.92209 0)
(0.412235 1.85284 0)
(0.402488 1.88534 0)
(0.391555 1.91348 0)
(0.392846 1.92949 0)
(0.409822 1.85942 0)
(0.4159 1.89558 0)
(0.418883 1.91441 0)
(0.432242 1.91715 0)
(0.41879 1.83346 0)
(0.431091 1.88397 0)
(0.452641 1.90267 0)
(0.478502 1.89411 0)
(0.280771 1.60933 0)
(0.434913 1.84499 0)
(0.478217 1.87457 0)
(0.516836 1.8641 0)
(0.0719319 1.33155 0)
(0.352183 1.66542 0)
(0.474616 1.81737 0)
(0.53714 1.82272 0)
(-0.122616 1.10591 0)
(0.146673 1.41987 0)
(0.345446 1.65899 0)
(0.480787 1.73477 0)
(-0.310601 0.930536 0)
(-0.122019 1.19357 0)
(0.102371 1.46633 0)
(0.289787 1.58412 0)
(-0.456718 0.812336 0)
(-0.349751 1.01482 0)
(-0.174516 1.25261 0)
(0.034498 1.41327 0)
(-0.512274 0.764084 0)
(-0.461354 0.900509 0)
(-0.347408 1.07097 0)
(-0.177241 1.21278 0)
(-0.488295 0.745865 0)
(-0.456215 0.838049 0)
(-0.379383 0.948888 0)
(-0.254282 1.04685 0)
(-0.432 0.726249 0)
(-0.400307 0.79017 0)
(-0.339491 0.860963 0)
(-0.245804 0.921918 0)
(-0.375136 0.699172 0)
(-0.340897 0.743058 0)
(-0.287988 0.788034 0)
(-0.214772 0.824908 0)
(-0.328614 0.667246 0)
(-0.293524 0.69727 0)
(-0.246461 0.725792 0)
(-0.187101 0.747831 0)
(-0.927002 0.692302 0)
(-0.683583 0.31642 0)
(-0.545324 0.168368 0)
(-0.462539 0.0626596 0)
(-0.392071 -0.0109938 0)
(-0.331736 -0.0582475 0)
(-0.280027 -0.0858507 0)
(-0.2366 -0.100164 0)
(-0.200808 -0.106351 0)
(-0.171549 -0.107918 0)
(-0.147494 -0.106875 0)
(-0.127431 -0.104226 0)
(-0.110368 -0.100445 0)
(-0.0955337 -0.0957671 0)
(-0.0824326 -0.0903452 0)
(-0.0707799 -0.0843299 0)
(-0.0603696 -0.0778792 0)
(-0.0510444 -0.0711631 0)
(-0.0427134 -0.064358 0)
(-0.0353274 -0.0576256 0)
(-0.0288367 -0.0510934 0)
(-0.0231772 -0.0448524 0)
(-0.0182788 -0.038964 0)
(-0.0140732 -0.0334667 0)
(-0.0104932 -0.0283778 0)
(-0.00747095 -0.0236968 0)
(-0.00493869 -0.019412 0)
(-0.00283115 -0.0155096 0)
(-0.00108827 -0.0119798 0)
(0.000343624 -0.0088187 0)
(0.00151087 -0.00602844 0)
(0.00245173 -0.00361737 0)
(0.00319481 -0.00160073 0)
(0.00375649 -1.36127e-06 0)
(0.00413708 0.0011504 0)
(0.00431459 0.00182059 0)
(0.00423527 0.00197577 0)
(0.00380812 0.00158347 0)
(0.00289702 0.000579932 0)
(0.00171683 -0.00133028 0)
(-0.999004 0.330827 0)
(-0.763978 0.193642 0)
(-0.628358 0.0823677 0)
(-0.518626 -0.00421052 0)
(-0.430549 -0.0657498 0)
(-0.357715 -0.10414 0)
(-0.296578 -0.124231 0)
(-0.245822 -0.131773 0)
(-0.204508 -0.132014 0)
(-0.171338 -0.128676 0)
(-0.144708 -0.123811 0)
(-0.123085 -0.118293 0)
(-0.105177 -0.112379 0)
(-0.0899782 -0.106088 0)
(-0.0768249 -0.099406 0)
(-0.0653144 -0.092362 0)
(-0.0551599 -0.0850298 0)
(-0.046155 -0.0775253 0)
(-0.0381772 -0.0699952 0)
(-0.0311525 -0.062589 0)
(-0.0250139 -0.0554312 0)
(-0.0196901 -0.0486132 0)
(-0.0151104 -0.0421976 0)
(-0.0112062 -0.0362231 0)
(-0.00790832 -0.0307074 0)
(-0.0051466 -0.0256493 0)
(-0.00285249 -0.0210356 0)
(-0.000962333 -0.0168497 0)
(0.000581092 -0.0130774 0)
(0.00182841 -0.00970958 0)
(0.00282292 -0.00674275 0)
(0.00359924 -0.00417862 0)
(0.00418163 -0.00202455 0)
(0.00458187 -0.000292886 0)
(0.00479657 0.00100019 0)
(0.00480284 0.00183854 0)
(0.00455089 0.00221072 0)
(0.00396171 0.00211151 0)
(0.00292329 0.00152148 0)
(0.00166283 0.000240749 0)
(-0.888866 0.151962 0)
(-0.751293 0.066496 0)
(-0.643686 -0.0157161 0)
(-0.537581 -0.081293 0)
(-0.447741 -0.128339 0)
(-0.371293 -0.156426 0)
(-0.30577 -0.167992 0)
(-0.25049 -0.167805 0)
(-0.205139 -0.161089 0)
(-0.168821 -0.151867 0)
(-0.140023 -0.142348 0)
(-0.117086 -0.133325 0)
(-0.0985086 -0.124828 0)
(-0.0830844 -0.116621 0)
(-0.0700013 -0.108484 0)
(-0.0587429 -0.10029 0)
(-0.0489429 -0.0920051 0)
(-0.0403478 -0.0836732 0)
(-0.0328058 -0.075399 0)
(-0.0262195 -0.0673119 0)
(-0.0205042 -0.0595293 0)
(-0.0155802 -0.0521406 0)
(-0.0113758 -0.0452078 0)
(-0.00782362 -0.0387688 0)
(-0.00485441 -0.0328401 0)
(-0.00239691 -0.0274192 0)
(-0.000382591 -0.0224906 0)
(0.00125027 -0.0180339 0)
(0.00255575 -0.0140298 0)
(0.00358096 -0.0104637 0)
(0.00436564 -0.00732593 0)
(0.00494083 -0.00461156 0)
(0.00532712 -0.00231984 0)
(0.00553288 -0.000453101 0)
(0.0055523 0.000985057 0)
(0.00536259 0.00199359 0)
(0.00491854 0.00257896 0)
(0.00415309 0.00275778 0)
(0.00297523 0.0025459 0)
(0.00162646 0.00181834 0)
(-0.497765 0.323171 0)
(-0.612241 0.0220723 0)
(-0.586084 -0.0932787 0)
(-0.511093 -0.151733 0)
(-0.43686 -0.188827 0)
(-0.367813 -0.209163 0)
(-0.30458 -0.213689 0)
(-0.2487 -0.206342 0)
(-0.201529 -0.192554 0)
(-0.163277 -0.176952 0)
(-0.132985 -0.162184 0)
(-0.109141 -0.149129 0)
(-0.0901631 -0.137648 0)
(-0.0747157 -0.127249 0)
(-0.0618668 -0.117474 0)
(-0.0509992 -0.108019 0)
(-0.0416728 -0.098718 0)
(-0.0335913 -0.0895279 0)
(-0.0265782 -0.0804997 0)
(-0.0205152 -0.0717335 0)
(-0.0153004 -0.063334 0)
(-0.0108455 -0.0553863 0)
(-0.00707784 -0.0479503 0)
(-0.0039322 -0.0410628 0)
(-0.00134077 -0.0347384 0)
(0.00076745 -0.0289718 0)
(0.00246007 -0.0237441 0)
(0.00379639 -0.0190305 0)
(0.00482674 -0.0148064 0)
(0.00559407 -0.0110513 0)
(0.0061343 -0.00774935 0)
(0.00647509 -0.00488869 0)
(0.0066339 -0.00246054 0)
(0.00661629 -0.000457982 0)
(0.00641476 0.00112623 0)
(0.00600719 0.00230371 0)
(0.005353 0.00309538 0)
(0.0043962 0.00353518 0)
(0.00306389 0.00366707 0)
(0.0016113 0.00342588 0)
(0.430377 0.990056 0)
(-0.299662 0.196011 0)
(-0.441315 -0.105595 0)
(-0.431033 -0.195291 0)
(-0.392593 -0.235223 0)
(-0.343831 -0.254938 0)
(-0.290729 -0.256882 0)
(-0.238935 -0.244813 0)
(-0.192684 -0.224963 0)
(-0.154065 -0.203129 0)
(-0.12318 -0.182857 0)
(-0.0989725 -0.165416 0)
(-0.0799547 -0.150637 0)
(-0.0647436 -0.137812 0)
(-0.0523317 -0.126246 0)
(-0.0420214 -0.115433 0)
(-0.0333083 -0.105064 0)
(-0.0258599 -0.0949962 0)
(-0.0194791 -0.0852149 0)
(-0.0140307 -0.075782 0)
(-0.00939846 -0.0667828 0)
(-0.0054861 -0.0582952 0)
(-0.00222071 -0.0503766 0)
(0.000460288 -0.0430619 0)
(0.00262245 -0.0363627 0)
(0.00433522 -0.0302704 0)
(0.00566417 -0.0247616 0)
(0.00666509 -0.0198068 0)
(0.00738393 -0.0153762 0)
(0.00785915 -0.0114432 0)
(0.00812271 -0.00798548 0)
(0.00819887 -0.00498398 0)
(0.00810206 -0.00242243 0)
(0.00783535 -0.000285658 0)
(0.00738999 0.001443 0)
(0.00674472 0.00278576 0)
(0.00586312 0.00377513 0)
(0.00469904 0.0044584 0)
(0.00319488 0.00490183 0)
(0.00162 0.00508592 0)
(0.906668 1.41049 0)
(0.267261 0.682806 0)
(-0.206803 0.0143987 0)
(-0.297012 -0.185831 0)
(-0.313569 -0.253775 0)
(-0.297938 -0.285442 0)
(-0.263087 -0.292532 0)
(-0.220305 -0.280237 0)
(-0.17793 -0.256583 0)
(-0.140704 -0.229399 0)
(-0.110275 -0.203783 0)
(-0.0863526 -0.181818 0)
(-0.0677236 -0.16354 0)
(-0.0530572 -0.148121 0)
(-0.0413192 -0.134646 0)
(-0.0317571 -0.122405 0)
(-0.0238165 -0.110933 0)
(-0.0171354 -0.0999775 0)
(-0.0115009 -0.0894536 0)
(-0.00676493 -0.079376 0)
(-0.00280115 -0.0698047 0)
(0.000491752 -0.0608061 0)
(0.00318649 -0.0524338 0)
(0.00534267 -0.0447195 0)
(0.00702284 -0.0376712 0)
(0.0082934 -0.0312764 0)
(0.00921641 -0.0255076 0)
(0.00984335 -0.0203304 0)
(0.0102153 -0.0157092 0)
(0.0103658 -0.0116113 0)
(0.0103227 -0.00800756 0)
(0.0101064 -0.00487239 0)
(0.00972844 -0.00218256 0)
(0.00918947 8.45685e-05 0)
(0.00847967 0.00195391 0)
(0.0075785 0.00345646 0)
(0.00645289 0.00463384 0)
(0.0050651 0.00554341 0)
(0.00337061 0.00626888 0)
(0.00165174 0.00682353 0)
(1.10118 1.66968 0)
(0.67062 1.12307 0)
(0.114618 0.294156 0)
(-0.124708 -0.103341 0)
(-0.205153 -0.232416 0)
(-0.231838 -0.292821 0)
(-0.222042 -0.315689 0)
(-0.19273 -0.309594 0)
(-0.157019 -0.285596 0)
(-0.122929 -0.25467 0)
(-0.09405 -0.224291 0)
(-0.071115 -0.197903 0)
(-0.0533507 -0.176059 0)
(-0.039574 -0.157954 0)
(-0.0287737 -0.142503 0)
(-0.02017 -0.128796 0)
(-0.0131757 -0.116206 0)
(-0.00740848 -0.104369 0)
(-0.00264399 -0.0931224 0)
(0.00127451 -0.0824311 0)
(0.00447945 -0.0723247 0)
(0.00707378 -0.0628537 0)
(0.00912836 -0.0540643 0)
(0.010699 -0.0459845 0)
(0.0118439 -0.0386186 0)
(0.0126251 -0.0319499 0)
(0.0131002 -0.0259465 0)
(0.0133153 -0.0205688 0)
(0.0133063 -0.0157755 0)
(0.0131014 -0.0115277 0)
(0.0127235 -0.0077899 0)
(0.0121892 -0.00453039 0)
(0.0115067 -0.00171946 0)
(0.0106745 0.000672304 0)
(0.00968162 0.00267684 0)
(0.00850775 0.00433234 0)
(0.00712222 0.0056874 0)
(0.00549435 0.00680692 0)
(0.00359094 0.00778786 0)
(0.0017071 0.00866492 0)
(1.14961 1.82336 0)
(0.882335 1.43299 0)
(0.409489 0.640588 0)
(0.066627 0.050995 0)
(-0.077681 -0.165423 0)
(-0.150324 -0.271566 0)
(-0.169592 -0.322381 0)
(-0.156973 -0.330273 0)
(-0.130155 -0.310333 0)
(-0.100717 -0.277874 0)
(-0.0744149 -0.243687 0)
(-0.0531686 -0.213201 0)
(-0.0367659 -0.187854 0)
(-0.0242479 -0.167055 0)
(-0.0146679 -0.149618 0)
(-0.00724535 -0.134447 0)
(-0.00138067 -0.120754 0)
(0.00331736 -0.108061 0)
(0.00708033 -0.0961281 0)
(0.0100707 -0.084865 0)
(0.0124232 -0.0742682 0)
(0.0142385 -0.0643702 0)
(0.015583 -0.0552081 0)
(0.016507 -0.0468042 0)
(0.0170633 -0.0391586 0)
(0.0173087 -0.0322501 0)
(0.0172948 -0.0260419 0)
(0.0170619 -0.0204891 0)
(0.0166395 -0.0155451 0)
(0.0160501 -0.0111651 0)
(0.0153114 -0.00730795 0)
(0.0144356 -0.00393577 0)
(0.0134275 -0.00101294 0)
(0.0122832 0.00149595 0)
(0.0109904 0.00362873 0)
(0.00952823 0.00542931 0)
(0.00786774 0.00695152 0)
(0.005984 0.00826573 0)
(0.00385366 0.0094784 0)
(0.00178423 0.0106326 0)
(1.12511 1.90872 0)
(0.984003 1.67081 0)
(0.605931 0.961892 0)
(0.253766 0.258157 0)
(0.0573121 -0.0554944 0)
(-0.0601899 -0.219812 0)
(-0.108962 -0.31043 0)
(-0.114487 -0.340493 0)
(-0.0979222 -0.329493 0)
(-0.0742524 -0.298085 0)
(-0.0513961 -0.261309 0)
(-0.0324936 -0.227227 0)
(-0.017949 -0.198562 0)
(-0.00707204 -0.175138 0)
(0.000992074 -0.155757 0)
(0.00700185 -0.13917 0)
(0.011549 -0.124428 0)
(0.0150202 -0.110935 0)
(0.0176481 -0.0983696 0)
(0.0195979 -0.0865902 0)
(0.0210023 -0.0755587 0)
(0.0219566 -0.0652882 0)
(0.0225203 -0.0558053 0)
(0.022737 -0.047126 0)
(0.0226526 -0.039245 0)
(0.0223172 -0.0321359 0)
(0.0217751 -0.025757 0)
(0.0210598 -0.0200585 0)
(0.0201938 -0.0149887 0)
(0.0191929 -0.0104975 0)
(0.0180694 -0.00653811 0)
(0.0168308 -0.00306721 0)
(0.0154783 -4.36967e-05 0)
(0.0140053 0.002573 0)
(0.0123973 0.00482562 0)
(0.0106329 0.00676253 0)
(0.00868358 0.00844145 0)
(0.0065293 0.00993644 0)
(0.00415527 0.01136 0)
(0.00188059 0.0127514 0)
(1.07592 1.95754 0)
(1.00182 1.83198 0)
(0.714355 1.21995 0)
(0.412105 0.488276 0)
(0.188179 0.0920841 0)
(0.0316709 -0.13963 0)
(-0.0442199 -0.279673 0)
(-0.0671497 -0.339548 0)
(-0.0611585 -0.342313 0)
(-0.0438696 -0.314615 0)
(-0.02511 -0.276582 0)
(-0.00913018 -0.239518 0)
(0.00307618 -0.207811 0)
(0.011925 -0.181907 0)
(0.0181706 -0.160683 0)
(0.0225316 -0.142766 0)
(0.0255714 -0.127059 0)
(0.0276581 -0.11285 0)
(0.0290182 -0.0997328 0)
(0.0298147 -0.0875118 0)
(0.0301757 -0.0761157 0)
(0.0301878 -0.0655385 0)
(0.0299013 -0.0557962 0)
(0.0293515 -0.0468975 0)
(0.0285766 -0.0388316 0)
(0.0276178 -0.0315666 0)
(0.0265112 -0.025056 0)
(0.0252815 -0.0192455 0)
(0.0239438 -0.0140784 0)
(0.022507 -0.00949993 0)
(0.0209773 -0.00545809 0)
(0.0193573 -0.00190453 0)
(0.017644 0.00120654 0)
(0.0158275 0.00392001 0)
(0.0138912 0.00628272 0)
(0.0118121 0.0083465 0)
(0.00956186 0.0101719 0)
(0.00712403 0.011835 0)
(0.00449135 0.0134512 0)
(0.00199382 0.015045 0)
(1.01131 1.98798 0)
(0.971142 1.94276 0)
(0.756148 1.40915 0)
(0.512326 0.697853 0)
(0.292389 0.257087 0)
(0.1173 -0.0378325 0)
(0.0201242 -0.232402 0)
(-0.0171049 -0.327963 0)
(-0.0208312 -0.348647 0)
(-0.00997469 -0.327054 0)
(0.00427311 -0.289035 0)
(0.0168344 -0.249652 0)
(0.0262527 -0.21526 0)
(0.032697 -0.187081 0)
(0.0368181 -0.164159 0)
(0.0392847 -0.145035 0)
(0.0406201 -0.128479 0)
(0.0411627 -0.113663 0)
(0.0411243 -0.100097 0)
(0.0406594 -0.0875291 0)
(0.0398857 -0.0758552 0)
(0.038878 -0.0650507 0)
(0.0376757 -0.0551207 0)
(0.0363044 -0.0460672 0)
(0.0347925 -0.0378735 0)
(0.0331714 -0.0305032 0)
(0.0314668 -0.023905 0)
(0.0296943 -0.0180204 0)
(0.0278601 -0.0127883 0)
(0.025966 -0.00814938 0)
(0.0240117 -0.0040472 0)
(0.0219943 -0.000429178 0)
(0.0199064 0.00275438 0)
(0.0177343 0.00555208 0)
(0.0154586 0.00801407 0)
(0.0130545 0.0101948 0)
(0.0104931 0.0121565 0)
(0.00776075 0.0139761 0)
(0.00485666 0.0157691 0)
(0.00212131 0.0175344 0)
(0.937511 2.00785 0)
(0.912437 2.0149 0)
(0.756067 1.54212 0)
(0.559967 0.874785 0)
(0.357605 0.419117 0)
(0.187565 0.0741718 0)
(0.081085 -0.173755 0)
(0.0337549 -0.307718 0)
(0.0221717 -0.348972 0)
(0.0270417 -0.335282 0)
(0.036571 -0.298335 0)
(0.0453061 -0.257241 0)
(0.0515086 -0.220544 0)
(0.0551685 -0.190364 0)
(0.0568503 -0.165949 0)
(0.0571697 -0.145785 0)
(0.0565998 -0.128527 0)
(0.0554395 -0.113237 0)
(0.0538765 -0.0993445 0)
(0.0520483 -0.086543 0)
(0.050056 -0.0746941 0)
(0.0479585 -0.0637547 0)
(0.0457814 -0.0537198 0)
(0.0435393 -0.0445849 0)
(0.0412495 -0.0363283 0)
(0.0389317 -0.0289092 0)
(0.0366004 -0.0222725 0)
(0.0342605 -0.0163557 0)
(0.0319091 -0.0110941 0)
(0.0295401 -0.00642433 0)
(0.0271463 -0.00228651 0)
(0.0247187 0.00137554 0)
(0.022245 0.00461468 0)
(0.0197077 0.0074827 0)
(0.0170841 0.0100322 0)
(0.0143471 0.0123195 0)
(0.0114667 0.0144075 0)
(0.00843108 0.0163727 0)
(0.00524546 0.0183285 0)
(0.00226028 0.020238 0)
(0.855008 2.02249 0)
(0.839446 2.06009 0)
(0.73256 1.65621 0)
(0.577445 1.04166 0)
(0.387714 0.565769 0)
(0.239755 0.183883 0)
(0.136546 -0.110675 0)
(0.0847375 -0.281807 0)
(0.0674815 -0.344371 0)
(0.0669576 -0.33943 0)
(0.0716557 -0.304176 0)
(0.0761613 -0.261865 0)
(0.0787006 -0.223273 0)
(0.0791895 -0.191428 0)
(0.0781222 -0.165794 0)
(0.0760493 -0.144815 0)
(0.0733808 -0.127043 0)
(0.0703666 -0.111443 0)
(0.0671617 -0.0973691 0)
(0.0638781 -0.0844627 0)
(0.0605931 -0.0725549 0)
(0.057345 -0.061585 0)
(0.0541432 -0.0515384 0)
(0.0509891 -0.0424045 0)
(0.0478875 -0.0341571 0)
(0.0448453 -0.0267518 0)
(0.0418642 -0.0201302 0)
(0.0389377 -0.0142269 0)
(0.0360531 -0.00897418 0)
(0.0331958 -0.004306 0)
(0.0303511 -0.000159515 0)
(0.0275041 0.00352403 0)
(0.024637 0.00680036 0)
(0.0217279 0.0097236 0)
(0.0187505 0.012348 0)
(0.0156754 0.0147309 0)
(0.0124707 0.0169352 0)
(0.00912594 0.019036 0)
(0.00565165 0.0211422 0)
(0.00240782 0.0231713 0)
(0.769587 2.03235 0)
(0.760905 2.08807 0)
(0.686667 1.73996 0)
(0.558895 1.18687 0)
(0.399992 0.695068 0)
(0.279146 0.282507 0)
(0.18777 -0.0492221 0)
(0.136471 -0.253097 0)
(0.115328 -0.335819 0)
(0.109795 -0.339519 0)
(0.109409 -0.306219 0)
(0.109204 -0.263088 0)
(0.1076 -0.223031 0)
(0.10453 -0.18992 0)
(0.100418 -0.163414 0)
(0.0957295 -0.141911 0)
(0.0907904 -0.123866 0)
(0.0857903 -0.108156 0)
(0.0808425 -0.09407 0)
(0.0760256 -0.0812061 0)
(0.0713867 -0.0693694 0)
(0.0669391 -0.0584847 0)
(0.0626735 -0.0485289 0)
(0.0585763 -0.0394861 0)
(0.0546382 -0.0313264 0)
(0.0508517 -0.0240025 0)
(0.0472048 -0.0174539 0)
(0.0436788 -0.0116132 0)
(0.0402504 -0.00641092 0)
(0.0368961 -0.00177912 0)
(0.0335939 0.00234693 0)
(0.0303222 0.006028 0)
(0.0270575 0.00932194 0)
(0.0237733 0.0122843 0)
(0.0204396 0.0149702 0)
(0.017024 0.0174373 0)
(0.0134925 0.0197478 0)
(0.00983581 0.0219745 0)
(0.00606896 0.02422 0)
(0.00256108 0.0263468 0)
(0.684817 2.03811 0)
(0.682284 2.105 0)
(0.629117 1.80195 0)
(0.516721 1.29201 0)
(0.408481 0.799233 0)
(0.313564 0.364127 0)
(0.23827 0.00644536 0)
(0.190273 -0.223554 0)
(0.166188 -0.323834 0)
(0.155569 -0.335375 0)
(0.149619 -0.304018 0)
(0.144144 -0.260436 0)
(0.137903 -0.219404 0)
(0.130892 -0.185507 0)
(0.123464 -0.158547 0)
(0.115963 -0.136869 0)
(0.108611 -0.118839 0)
(0.101521 -0.103256 0)
(0.0947537 -0.0893547 0)
(0.0883458 -0.0767004 0)
(0.0823089 -0.0650794 0)
(0.0766281 -0.0544066 0)
(0.0712732 -0.0446526 0)
(0.0662138 -0.0357976 0)
(0.0614251 -0.0278092 0)
(0.0568838 -0.0206387 0)
(0.0525633 -0.0142246 0)
(0.0484317 -0.00849867 0)
(0.044455 -0.00339091 0)
(0.0406009 0.00116764 0)
(0.0368394 0.0052426 0)
(0.0331423 0.0088962 0)
(0.02948 0.0121871 0)
(0.025821 0.0151715 0)
(0.0221318 0.0179049 0)
(0.0183766 0.0204444 0)
(0.0145193 0.0228511 0)
(0.0105509 0.0251944 0)
(0.0064911 0.0275692 0)
(0.00271724 0.0297738 0)
(0.603339 2.03928 0)
(0.608721 2.11374 0)
(0.575611 1.85524 0)
(0.492799 1.37035 0)
(0.422007 0.874576 0)