/*--------------------------------*- C++ -*----------------------------------*\
  =========                 |
  \\      /  F ield         | OpenFOAM: The Open Source CFD Toolbox
   \\    /   O peration     | Website:  https://openfoam.org
    \\  /    A nd           | Version:  9
     \\/     M anipulation  |
\*---------------------------------------------------------------------------*/
FoamFile
{
    format      ascii;
    class       volScalarField;
    location    "0.3";
    object      epsilon;
}
// * * * * * * * * * * * * * * * * * * * * * * * * * * * * * * * * * * * * * //

dimensions      [0 2 -3 0 0 0 0];

internalField   nonuniform List<scalar> 
12225
(
278.515
263.66
249.434
236.839
226.738
219.483
215.069
213.262
213.704
215.988
219.709
224.499
230.036
236.058
242.361
248.778
255.343
264.847
61.1159
86.6952
97.991
107.207
118.464
132.555
149.407
168.606
189.57
211.672
234.321
257.007
279.325
300.976
321.867
341.832
362.382
380.905
25.2776
36.183
43.3817
48.6211
53.386
58.3356
63.7695
69.8239
76.5236
83.8204
91.624
99.825
108.312
116.984
125.774
134.662
143.793
153.16
17.5217
21.2986
24.7144
27.6099
30.1618
32.5398
34.8663
37.2273
39.6762
42.2393
44.9241
47.7261
50.6342
53.636
56.7224
59.9009
63.1895
66.6138
15.4878
16.7519
18.1858
19.5888
20.9094
22.1489
23.3262
24.4649
25.586
26.7046
27.8305
28.9693
30.1239
31.2958
32.4864
33.7007
34.9433
36.2108
14.9084
15.2396
15.7463
16.334
16.9476
17.5589
18.1557
18.7355
19.3
19.8523
20.3958
20.933
21.4661
21.9968
22.5268
23.0585
23.5935
24.126
14.7451
14.7391
14.8342
15.0036
15.2215
15.4679
15.7285
15.9948
16.2618
16.5273
16.79
17.0496
17.3062
17.56
17.8115
18.0615
18.3104
18.5539
14.7012
14.5825
14.5116
14.4858
14.4981
14.5403
14.6043
14.6837
14.7736
14.8707
14.9724
15.0771
15.1835
15.2911
15.3993
15.508
15.617
15.7234
14.6901
14.5373
14.407
14.3009
14.2182
14.1571
14.1145
14.0875
14.0732
14.0692
14.0735
14.0844
14.1006
14.1211
14.1451
14.1721
14.2015
14.2316
14.6874
14.5252
14.3761
14.2411
14.1204
14.0137
13.9203
13.8391
13.7688
13.7083
13.6564
13.6119
13.574
13.5418
13.5147
13.4919
13.473
13.4572
14.6868
14.5221
14.3677
14.2236
14.0896
13.9656
13.8512
13.746
13.6495
13.5611
13.4801
13.4061
13.3383
13.2764
13.2197
13.1678
13.1203
13.0771
14.6866
14.5213
14.3656
14.219
14.0812
13.9518
13.8305
13.7169
13.6105
13.5111
13.4182
13.3314
13.2504
13.1747
13.104
13.038
12.9764
12.9194
14.6865
14.521
14.3648
14.2175
14.0785
13.9473
13.8234
13.7065
13.5963
13.4922
13.3941
13.3016
13.2143
13.1319
13.0543
12.9811
12.912
12.8476
14.6864
14.5208
14.3645
14.2169
14.0774
13.9456
13.8209
13.7029
13.5913
13.4855
13.3853
13.2904
13.2005
13.1153
13.0345
12.9579
12.8853
12.8172
14.6864
14.5207
14.3643
14.2165
14.0769
13.9449
13.8199
13.7016
13.5895
13.4832
13.3824
13.2868
13.196
13.1098
13.0279
12.9501
12.8763
12.8068
14.6863
14.5206
14.3641
14.2163
14.0766
13.9444
13.8194
13.7009
13.5886
13.4822
13.3812
13.2854
13.1943
13.1079
13.0257
12.9475
12.8732
12.8034
14.6863
14.5205
14.364
14.2161
14.0763
13.9441
13.8189
13.7004
13.5881
13.4815
13.3805
13.2845
13.1934
13.1068
13.0245
12.9462
12.8718
12.8018
14.6863
14.5204
14.3639
14.216
14.0761
13.9439
13.8186
13.7001
13.5877
13.4811
13.3799
13.2839
13.1927
13.1061
13.0237
12.9454
12.8709
12.8007
14.6863
14.5204
14.3639
14.2159
14.0761
13.9438
13.8185
13.6999
13.5875
13.4809
13.3797
13.2837
13.1924
13.1057
13.0233
12.9449
12.8704
12.8002
14.6863
14.5205
14.3639
14.216
14.0762
13.9439
13.8187
13.7001
13.5877
13.4811
13.38
13.284
13.1928
13.1061
13.0237
12.9453
12.8708
12.8007
14.6863
14.5205
14.364
14.2162
14.0764
13.9443
13.8192
13.7007
13.5885
13.4821
13.3812
13.2854
13.1945
13.1082
13.0262
12.9482
12.8742
12.8046
14.6863
14.5206
14.3643
14.2167
14.0773
13.9457
13.8214
13.7039
13.5928
13.4878
13.3886
13.2947
13.2059
13.1218
13.0423
12.9669
12.8956
12.8288
14.6865
14.5212
14.3659
14.2202
14.0837
13.956
13.8368
13.7255
13.6218
13.525
13.4348
13.3506
13.272
13.1986
13.13
13.0659
13.006
12.9505
14.6876
14.5264
14.3793
14.2467
14.1282
14.0231
13.9302
13.8484
13.7762
13.7126
13.6565
13.6068
13.5628
13.5237
13.489
13.4581
13.4306
13.4066
14.6976
14.5664
14.4707
14.4075
14.3715
14.3568
14.3585
14.372
14.3941
14.4224
14.4551
14.4908
14.5287
14.5681
14.6085
14.6497
14.6914
14.7334
14.7737
14.8187
14.9603
15.1591
15.3863
15.6233
15.8598
16.0905
16.3135
16.5285
16.7359
16.9366
17.1314
17.3211
17.5066
17.6884
17.867
18.0419
15.2587
16.1151
17.0712
17.9727
18.7879
19.5239
20.1945
20.8149
21.3989
21.9574
22.4988
23.0292
23.5529
24.0728
24.5906
25.1071
25.6226
26.1346
18.0414
22.0079
24.9885
27.1533
28.8884
30.405
31.8127
33.1787
34.5441
35.9315
37.3518
38.809
40.3021
41.8271
43.3785
44.9499
46.5348
48.1202
34.024
45.6879
51.377
54.9426
58.0813
61.2986
64.7517
68.4844
72.4809
76.6981
81.0858
85.5943
90.177
94.7922
99.4042
103.984
108.516
112.973
163.308
157.417
151.704
146.261
141.3
136.947
133.25
130.206
127.781
125.919
124.559
123.638
123.094
122.871
122.918
123.188
123.643
124.244
0.186115
0.233506
0.388752
0.524892
0.661726
0.825938
1.0172
1.24159
1.50587
1.8117
2.13576
2.47914
2.8395
3.21369
3.59848
3.99082
4.38784
4.78684
5.18526
5.58058
5.97031
6.35193
6.72283
7.08028
7.42139
7.7431
8.04224
8.31559
8.55984
8.77145
8.94656
9.08169
9.17716
9.24279
9.29731
9.3464
9.36861
9.39719
39.8372
9.38235
9.43604
40.3963
41.2276
41.8392
42.3842
45.3085
48.4693
51.8247
55.3567
59.0628
62.9412
66.9922
71.2166
75.6163
80.193
84.9487
89.8856
95.0054
100.31
105.801
111.48
117.347
123.404
129.651
136.087
142.712
149.526
156.527
163.712
171.081
178.629
186.355
194.253
202.32
210.552
218.942
227.486
236.177
245.009
253.975
263.067
272.279
281.601
291.025
300.543
310.145
319.821
329.562
339.358
349.196
359.068
368.959
378.86
388.758
398.64
408.497
418.321
428.109
437.871
447.637
457.382
466.996
476.479
485.822
495.013
504.036
512.877
521.519
529.946
538.144
546.097
553.79
561.209
568.339
575.168
581.681
587.867
593.713
599.21
604.345
609.111
613.498
617.498
621.105
624.312
627.114
629.507
631.488
633.053
634.203
634.936
635.253
635.156
634.649
633.733
632.415
630.7
628.594
626.105
623.242
620.012
616.428
612.499
608.236
603.653
598.761
593.575
588.108
582.374
576.389
570.167
563.724
557.075
550.237
543.224
536.052
528.741
521.303
513.755
506.116
498.385
490.616
482.778
474.943
467.187
460.346
457.124
454.467
451.828
449.178
446.517
443.845
441.154
438.424
435.609
432.606
429.182
424.732
417.781
401.867
0.721615
0.452634
0.466621
0.535264
0.636799
0.767153
0.924372
1.10974
1.32325
1.56291
1.8246
2.10563
2.40368
2.71665
3.04259
3.37975
3.72652
4.08148
4.44338
4.81116
5.18404
5.5615
5.94345
6.33031
6.72321
7.12431
7.53712
7.96714
8.4227
8.91597
9.46388
10.0873
10.8052
11.6224
12.5247
13.5139
14.6538
15.9792
17.9273
18.6026
20.1213
22.3525
23.7868
25.3435
27.1346
28.7651
30.4231
32.1251
33.8865
35.7085
37.593
39.5414
41.5552
43.6356
45.7835
47.9998
50.2852
52.6402
55.0653
57.5608
60.1269
62.7635
65.4706
68.2479
71.0951
74.0117
76.9969
80.0501
83.1701
86.356
89.6064
92.92
96.2952
99.7303
103.224
106.773
110.376
114.031
117.736
121.487
125.282
129.118
132.993
136.904
140.846
144.817
148.813
152.831
156.866
160.915
164.974
169.039
173.105
177.168
181.225
185.274
189.313
193.346
197.379
201.432
205.516
209.564
213.563
217.51
221.399
225.223
228.977
232.655
236.251
239.758
243.172
246.485
249.693
252.79
255.77
258.628
261.36
263.961
266.426
268.751
270.932
272.966
274.848
276.577
278.148
279.561
280.812
281.9
282.823
283.582
284.174
284.6
284.86
284.954
284.884
284.65
284.254
283.699
282.986
282.118
281.098
279.93
278.618
277.164
275.574
273.852
272.003
270.031
267.942
265.742
263.436
261.029
258.528
255.939
253.267
250.517
247.699
244.817
241.876
238.886
235.841
232.772
229.644
226.522
223.45
220.607
218.436
216.462
214.529
212.608
210.694
208.785
206.884
204.989
203.096
201.198
199.272
197.305
195.172
193.92
1.44901
0.765102
0.708198
0.75667
0.845999
0.966616
1.11599
1.29304
1.49638
1.72391
1.97303
2.24129
2.5266
2.82724
3.14182
3.46928
3.80881
4.15986
4.52214
4.89564
5.28068
5.67797
6.08871
6.51469
6.95842
7.42323
7.91344
8.43446
8.99286
9.59636
10.2533
10.9711
11.7527
12.5929
13.4809
14.4141
15.3987
16.4302
17.536
18.6445
19.8263
21.0786
22.3325
23.6359
24.9876
26.3475
27.7405
29.1787
30.6674
32.2076
33.7998
35.4445
37.1421
38.8928
40.6972
42.5555
44.4679
46.4346
48.4559
50.5317
52.662
54.8469
57.086
59.3793
61.7262
64.1265
66.5795
69.0848
71.6415
74.2488
76.9059
79.6117
82.365
85.1647
88.0094
90.8977
93.8279
96.7984
99.8075
102.853
105.934
109.047
112.19
115.362
118.56
121.78
125.022
128.282
131.557
134.845
138.144
141.45
144.761
148.076
151.393
154.711
158.03
161.351
164.677
168.008
171.326
174.614
177.866
181.075
184.237
187.347
190.4
193.392
196.316
199.169
201.946
204.641
207.251
209.77
212.195
214.521
216.744
218.861
220.867
222.759
224.534
226.19
227.722
229.13
230.41
231.56
232.58
233.467
234.22
234.839
235.323
235.672
235.886
235.965
235.91
235.723
235.404
234.955
234.378
233.675
232.849
231.902
230.838
229.659
228.369
226.971
225.47
223.869
222.172
220.385
218.511
216.555
214.522
212.416
210.243
208.005
205.712
203.364
200.968
198.533
196.041
193.544
191.021
188.496
185.997
183.601
181.437
179.384
177.373
175.381
173.405
171.444
169.5
167.577
165.681
163.823
162.019
160.334
158.854
158.374
2.3262
1.12953
0.987756
1.00397
1.08036
1.19506
1.3411
1.51544
1.71591
1.94034
2.18648
2.4522
2.73566
3.03536
3.35023
3.67953
4.02286
4.38015
4.75156
5.13758
5.539
5.95693
6.39286
6.8487
7.32679
7.82988
8.36111
8.9239
9.52179
10.1583
10.8363
11.5579
12.3231
13.1299
13.9754
14.8593
15.7836
16.749
17.7599
18.8159
19.9202
21.0695
22.2562
23.4827
24.7495
26.053
27.3963
28.7833
30.2169
31.6985
33.229
34.8091
36.4392
38.1198
39.8514
41.6342
43.4687
45.3551
47.2937
49.2847
51.3282
53.4244
55.5734
57.775
60.0291
62.3356
64.6942
67.1046
69.5661
72.0783
74.6405
77.2519
79.9116
82.6185
85.3716
88.1696
91.011
93.8945
96.8184
99.7809
102.78
105.814
108.882
111.979
115.105
118.258
121.434
124.631
127.847
131.079
134.325
137.583
140.85
144.125
147.405
150.689
153.976
157.265
160.552
163.829
167.083
170.307
173.494
176.64
179.739
182.786
185.776
188.704
191.565
194.354
197.066
199.696
202.241
204.694
207.053
209.312
211.468
213.516
215.454
217.278
218.984
220.57
222.033
223.371
224.581
225.662
226.612
227.43
228.114
228.665
229.082
229.364
229.513
229.528
229.411
229.162
228.784
228.277
227.644
226.888
226.01
225.015
223.904
222.681
221.35
219.914
218.377
216.745
215.019
213.206
211.31
209.335
207.284
205.166
202.984
200.737
198.441
196.091
193.695
191.272
188.811
186.334
183.839
181.339
178.855
176.427
174.105
171.854
169.641
167.453
165.287
163.143
161.025
158.94
156.898
154.919
153.034
151.322
149.894
149.219
3.21111
1.50888
1.26555
1.24867
1.31168
1.42042
1.56344
1.73576
1.93444
2.15715
2.4018
2.66648
2.94955
3.24974
3.56613
3.89816
4.24563
4.60861
4.98749
5.38287
5.79563
6.2269
6.67805
7.15072
7.64677
8.16828
8.71744
9.29649
9.90758
10.5527
11.2334
11.9511
12.7062
13.4989
14.3295
15.1987
16.1079
17.0584
18.052
19.0903
20.1735
21.3007
22.4702
23.6819
24.9362
26.2335
27.5749
28.962
30.3966
31.8799
33.413
34.9966
36.6315
38.3185
40.0582
41.8512
43.6982
45.5997
47.5563
49.5684
51.6366
53.7611
55.9423
58.1805
60.4759
62.8284
65.2382
67.705
70.2286
72.8087
75.4447
78.1362
80.8822
83.6819
86.5343
89.4381
92.392
95.3945
98.444
101.539
104.677
107.856
111.074
114.329
117.618
120.939
124.289
127.666
131.066
134.488
137.928
141.384
144.853
148.332
151.819
155.311
158.805
162.3
165.784
169.249
172.688
176.093
179.458
182.779
186.049
189.262
192.413
195.497
198.508
201.441
204.289
207.049
209.715
212.283
214.746
217.102
219.345
221.471
223.478
225.36
227.114
228.739
230.23
231.585
232.803
233.882
234.819
235.614
236.266
236.774
237.138
237.359
237.437
237.372
237.166
236.82
236.337
235.718
234.965
234.082
233.072
231.937
230.681
229.308
227.822
226.227
224.528
222.729
220.834
218.848
216.778
214.627
212.397
210.101
207.741
205.31
202.838
200.319
197.759
195.167
192.544
189.901
187.243
184.579
181.926
179.305
176.743
174.23
171.752
169.303
166.881
164.489
162.132
159.819
157.564
155.39
153.334
151.473
149.898
148.872
4.04465
1.85676
1.52316
1.47613
1.52639
1.62896
1.76845
1.93816
2.1344
2.35465
2.59686
2.85929
3.1405
3.43935
3.75504
4.08713
4.43548
4.80023
5.18178
5.58077
5.99804
6.43463
6.89177
7.37085
7.87346
8.40127
8.95604
9.53957
10.1536
10.7998
11.4796
12.1945
12.9455
13.7337
14.5603
15.4263
16.3332
17.2821
18.2743
19.3109
20.3925
21.5193
22.6911
23.9083
25.1716
26.4818
27.8398
29.2469
30.7044
32.2136
33.7757
35.3918
37.0629
38.7902
40.5746
42.4171
44.3188
46.2805
48.3031
50.3875
52.5346
54.7451
57.0195
59.3586
61.7629
64.2326
66.7681
69.3695
72.0369
74.77
77.5686
80.4322
83.3601
86.3515
89.4053
92.5204
95.6954
98.9286
102.218
105.562
108.959
112.406
115.9
119.439
123.02
126.641
130.298
133.988
137.708
141.455
145.225
149.015
152.822
156.642
160.471
164.306
168.143
171.977
175.792
179.583
183.342
187.063
190.74
194.365
197.933
201.437
204.871
208.229
211.505
214.691
217.784
220.775
223.661
226.435
229.092
231.628
234.037
236.315
238.457
240.46
242.32
244.034
245.599
247.013
248.273
249.377
250.325
251.114
251.744
252.216
252.528
252.682
252.677
252.516
252.2
251.731
251.111
250.343
249.43
248.374
247.18
245.851
244.393
242.808
241.101
239.276
237.341
235.301
233.158
230.916
228.589
226.177
223.678
221.114
218.488
215.799
213.061
210.276
207.451
204.593
201.707
198.801
195.88
192.953
190.033
187.135
184.275
181.452
178.663
175.906
173.183
170.496
167.854
165.267
162.751
160.332
158.046
155.961
154.142
152.736
4.76377
2.16577
1.75287
1.67847
1.71649
1.81251
1.94767
2.11372
2.3063
2.52265
2.76073
3.01892
3.29591
3.5907
3.90261
4.23126
4.57656
4.93867
5.31802
5.71523
6.13111
6.56665
7.02301
7.50148
8.00351
8.53062
9.08444
9.66664
10.2789
10.9228
11.6
12.312
13.0603
13.8462
14.6712
15.5367
16.4439
17.3942
18.3889
19.429
20.5155
21.6492
22.8308
24.0611
25.3412
26.672
28.0549
29.4911
30.982
32.5291
34.1339
35.7979
37.5224
39.3091
41.1592
43.0743
45.0557
47.1048
49.2231
51.4117
53.6719
56.005
58.4119
60.8938
63.4513
66.0853
68.7964
71.585
74.4513
77.3954
80.4172
83.5163
86.6922
89.944
93.2706
96.6709
100.143
103.686
107.297
110.973
114.714
118.515
122.374
126.288
130.253
134.267
138.325
142.424
146.56
150.729
154.927
159.149
163.392
167.651
171.921
176.197
180.475
184.74
188.981
193.193
197.367
201.496
205.573
209.592
213.544
217.422
221.22
224.929
228.543
232.055
235.459
238.747
241.913
244.951
247.856
250.621
253.242
255.713
258.029
260.187
262.183
264.012
265.673
267.162
268.477
269.617
270.58
271.366
271.972
272.401
272.651
272.724
272.62
272.343
271.893
271.273
270.486
269.536
268.425
267.158
265.738
264.171
262.463
260.618
258.639
256.531
254.306
251.968
249.519
246.961
244.316
241.585
238.769
235.881
232.926
229.91
226.841
223.725
220.568
217.378
214.161
210.924
207.674
204.419
201.169
197.936
194.731
191.559
188.421
185.319
182.256
179.239
176.275
173.377
170.562
167.856
165.294
162.932
160.813
159.018
5.37848
2.43466
1.95135
1.85154
1.87742
1.96625
2.09606
2.25722
2.44474
2.65561
2.88775
3.13964
3.41008
3.6982
4.00342
4.32543
4.66421
5.01996
5.39313
5.78435
6.19445
6.62441
7.07536
7.54859
8.04549
8.56756
9.11639
9.69363
10.301
10.9401
11.6126
12.3203
13.0647
13.8474
14.67
15.5341
16.4411
17.3926
18.39
19.4345
20.5276
21.6705
22.8645
24.1108
25.4109
26.7662
28.1783
29.6488
31.1794
32.772
34.4285
36.1507
37.9405
39.8
41.731
43.7355
45.8154
47.9727
50.2092
52.5267
54.927
57.4117
59.9824
62.6404
65.3871
68.2237
71.151
74.1697
77.2805
80.4835
83.7788
87.1661
90.6449
94.2144
97.8735
101.621
105.454
109.372
113.372
117.451
121.606
125.835
130.133
134.497
138.923
143.407
147.944
152.531
157.162
161.833
166.539
171.274
176.032
180.81
185.6
190.396
195.192
199.963
204.705
209.41
214.07
218.678
223.224
227.7
232.099
236.411
240.628
244.743
248.747
252.632
256.391
260.017
263.501
266.839
270.023
273.046
275.903
278.589
281.099
283.426
285.569
287.522
289.283
290.85
292.22
293.391
294.362
295.133
295.703
296.072
296.242
296.213
295.987
295.567
294.954
294.152
293.166
291.999
290.655
289.139
287.453
285.607
283.607
281.457
279.163
276.722
274.161
271.479
268.68
265.771
262.764
259.665
256.479
253.216
249.883
246.487
243.036
239.537
235.998
232.425
228.826
225.208
221.579
217.946
214.318
210.706
207.119
203.564
200.045
196.566
193.133
189.754
186.437
183.197
180.051
177.025
174.149
171.471
169.013
166.827
5.88463
2.66076
2.11642
1.9932
2.00696
2.08786
2.21125
2.36626
2.54733
2.75121
2.97579
3.21958
3.4815
3.7608
4.05699
4.36987
4.69948
5.04608
5.41016
5.79238
6.19361
6.61484
7.05722
7.52205
8.01072
8.52472
9.06566
9.63518
10.235
10.8669
11.5325
12.2337
12.9723
13.7499
14.5684
15.4295
16.335
17.2866
18.2859
19.3348
20.4348
21.5879
22.7956
24.0597
25.3822
26.765
28.2101
29.7196
31.2956
32.9407
34.657
36.447
38.3133
40.2582
42.2845
44.3945
46.5909
48.8761
51.2526
53.7229
56.289
58.9534
61.718
64.5848
67.5554
70.6315
73.8142
77.1047
80.5038
84.0118
87.629
91.3551
95.1896
99.1315
103.18
107.332
111.587
115.942
120.395
124.941
129.577
134.3
139.105
143.988
148.945
153.969
159.056
164.201
169.398
174.641
179.924
185.242
190.586
195.952
201.332
206.718
212.087
217.426
222.727
227.983
233.184
238.321
243.386
248.367
253.256
258.042
262.717
267.272
271.697
275.984
280.124
284.11
287.933
291.585
295.061
298.352
301.453
304.359
307.062
309.558
311.842
313.912
315.764
317.395
318.805
319.99
320.95
321.685
322.195
322.479
322.541
322.381
322.002
321.406
320.597
319.579
318.357
316.936
315.321
313.516
311.524
309.356
307.023
304.529
301.879
299.079
296.142
293.076
289.886
286.58
283.169
279.66
276.061
272.38
268.627
264.809
260.934
257.011
253.048
249.051
245.03
240.992
236.944
232.895
228.853
224.827
220.827
216.86
212.933
209.051
205.222
201.455
197.761
194.153
190.649
187.274
184.056
181.03
178.207
175.626
6.28188
2.84316
2.24754
2.10311
2.10484
2.17712
2.29305
2.44074
2.61411
2.80971
3.02538
3.25966
3.51157
3.78046
4.06596
4.36796
4.68656
5.0221
5.37511
5.74632
6.1366
6.54699
6.97866
7.43291
7.91116
8.41492
8.9458
9.50549
10.0957
10.7184
11.3752
12.0682
12.7992
13.5703
14.3833
15.2404
16.1435
17.0947
18.0961
19.1498
20.2579
21.4228
22.6466
23.9316
25.2804
26.6953
28.179
29.7342
31.3636
33.0702
34.857
36.7271
38.6836
40.7297
42.8685
45.1034
47.4376
49.8741
52.4162
55.0668
57.8289
60.7051
63.6982
66.8104
70.0441
73.4011
76.883
80.4912
84.2266
88.0899
92.0811
96.2002
100.446
104.818
109.315
113.934
118.672
123.528
128.497
133.575
138.759
144.042
149.421
154.889
160.441
166.072
171.774
177.542
183.37
189.249
195.173
201.135
207.127
213.141
219.169
225.194
231.185
237.137
243.042
248.889
254.669
260.372
265.986
271.5
276.904
282.187
287.338
292.347
297.205
301.902
306.428
310.776
314.935
318.899
322.66
326.21
329.543
332.653
335.533
338.178
340.584
342.746
344.663
346.332
347.752
348.921
349.838
350.503
350.918
351.082
350.998
350.669
350.099
349.289
348.244
346.967
345.469
343.754
341.827
339.695
337.362
334.84
332.136
329.259
326.216
323.014
319.664
316.175
312.556
308.815
304.962
301.007
296.958
292.824
288.615
284.34
280.008
275.626
271.205
266.753
262.278
257.788
253.291
248.795
244.31
239.844
235.406
231.005
226.648
222.343
218.099
213.924
209.831
205.834
201.952
198.206
194.621
191.226
188.021
185.04
6.57424
2.9829
2.34577
2.18247
2.17242
2.23554
2.34313
2.48248
2.64712
2.83342
3.03915
3.26292
3.50383
3.7613
4.03507
4.32512
4.63162
4.95497
5.29577
5.65476
6.03287
6.43115
6.85081
7.29317
7.75967
8.25186
8.77139
9.32
9.89952
10.5119
11.1591
11.8431
12.5662
13.3305
14.1383
14.9919
15.8937
16.8461
17.8518
18.9134
20.0334
21.2146
22.46
23.7725
25.1551
26.611
28.1434
29.7558
31.4517
33.2347
35.1086
37.0771
39.1443
41.314
43.5903
45.9771
48.4785
51.0983
53.8403
56.7082
59.7055
62.8355
66.1013
69.5058
73.0516
76.7409
80.5756
84.5573
88.6869
92.965
97.3917
101.967
106.689
111.556
116.568
121.72
127.01
132.434
137.988
143.666
149.464
155.376
161.394
167.513
173.726
180.026
186.405
192.856
199.372
205.944
212.565
219.225
225.917
232.629
239.352
246.04
252.685
259.279
265.811
272.271
278.647
284.928
291.102
297.157
303.078
308.855
314.477
319.932
325.21
330.301
335.195
339.883
344.355
348.604
352.62
356.397
359.929
363.209
366.23
368.985
371.47
373.684
375.623
377.286
378.67
379.777
380.605
381.155
381.427
381.423
381.147
380.603
379.794
378.725
377.4
375.825
374.009
371.958
369.678
367.177
364.463
361.545
358.433
355.135
351.661
348.019
344.22
340.275
336.192
331.982
327.656
323.222
318.692
314.076
309.382
304.622
299.805
294.939
290.035
285.102
280.149
275.183
270.215
265.252
260.304
255.378
250.485
245.633
240.831
236.088
231.413
226.817
222.311
217.911
213.634
209.501
205.533
201.753
198.155
194.774
6.76963
3.0827
2.41345
2.23371
2.21231
2.26592
2.36452
2.49478
2.64994
2.82621
3.02139
3.2341
3.46349
3.70909
3.97071
4.2484
4.54241
4.8532
5.18141
5.52781
5.89338
6.27921
6.68653
7.11671
7.57123
8.05173
8.55991
9.09763
9.66684
10.2696
10.9082
11.5848
12.3018
13.0618
13.8674
14.7214
15.6265
16.5857
17.6022
18.6791
19.8197
21.0275
22.306
23.6589
25.0901
26.6034
28.203
29.8931
31.678
33.5623
35.5506
37.6475
39.8579
42.1866
44.6384
47.2182
49.9307
52.7807
55.7727
58.9108
62.1992
65.6415
69.2413
73.0018
76.9258
81.0157
85.2735
89.7007
94.2981
99.0661
104.004
109.112
114.387
119.828
125.431
131.193
137.11
143.178
149.39
155.741
162.224
168.833
175.558
182.391
189.325
196.351
203.462
210.648
217.902
225.214
232.575
239.976
247.407
254.856
262.27
269.636
276.944
284.183
291.342
298.409
305.371
312.216
318.931
325.504
331.916
338.156
344.213
350.076
355.733
361.174
366.388
371.367
376.099
380.578
384.794
388.741
392.412
395.804
398.905
401.708
404.211
406.413
408.312
409.905
411.193
412.176
412.853
413.227
413.298
413.071
412.548
411.734
410.634
409.254
407.6
405.678
403.496
401.063
398.386
395.474
392.336
388.982
385.422
381.666
377.725
373.609
369.329
364.895
360.319
355.612
350.785
345.848
340.813
335.691
330.491
325.225
319.903
314.535
309.131
303.7
298.253
292.798
287.344
281.9
276.476
271.08
265.722
260.41
255.155
249.966
244.853
239.827
234.9
230.089
225.408
220.879
216.518
212.345
208.35
204.569
6.87932
3.14655
2.45385
2.26015
2.22804
2.27207
2.36133
2.48207
2.62734
2.79332
2.97776
3.17935
3.39729
3.63119
3.88092
4.1466
4.42855
4.72727
5.04345
5.37794
5.73174
6.106
6.50203
6.92128
7.36533
7.83592
8.33491
8.86433
9.42633
10.0232
10.6575
11.3318
12.0489
12.8117
13.6233
14.487
15.4062
16.3845
17.4257
18.5337
19.7126
20.9667
22.3005
23.7185
25.2254
26.8262
28.5259
30.3296
32.2427
34.2708
36.4194
38.6943
41.1011
43.6456
46.3336
49.1708
52.1627
55.3148
58.6324
62.1201
65.782
69.622
73.6436
77.8502
82.2445
86.8289
91.605
96.5737
101.736
107.09
112.636
118.371
124.294
130.4
136.685
143.145
149.774
156.567
163.515
170.613
177.853
185.226
192.72
200.324
208.031
215.831
223.715
231.675
239.701
247.783
255.91
264.072
272.261
280.411
288.504
296.528
304.474
312.327
320.076
327.706
335.206
342.561
349.762
356.796
363.633
370.267
376.686
382.88
388.837
394.547
400
405.184
410.092
414.714
419.042
423.07
426.792
430.201
433.291
436.056
438.493
440.601
442.378
443.823
444.937
445.719
446.172
446.298
446.098
445.578
444.742
443.595
442.144
440.394
438.353
436.028
433.429
430.564
427.443
424.076
420.471
416.642
412.597
408.349
403.908
399.287
394.496
389.549
384.456
379.229
373.881
368.423
362.866
357.222
351.502
345.718
339.881
334
328.087
322.152
316.204
310.254
304.31
298.382
292.478
286.609
280.784
275.013
269.304
263.669
258.117
252.661
247.314
242.089
237.004
232.076
227.32
222.754
218.363
214.189
6.91736
3.1794
2.4709
2.26572
2.22378
2.25851
2.33849
2.44976
2.58529
2.74125
2.91543
3.10654
3.31387
3.53708
3.77612
4.03116
4.30261
4.59103
4.89718
5.222
5.5666
5.93223
6.32033
6.7325
7.17051
7.6363
8.132
8.65991
9.22254
9.82257
10.4629
11.1467
11.8772
12.6581
13.493
14.3859
15.3411
16.3629
17.4561
18.6255
19.8764
21.2142
22.6443
24.1727
25.8051
27.5474
29.4058
31.3865
33.4961
35.7413
38.1286
40.6648
43.3567
46.2107
49.2335
52.4314
55.8108
59.3775
63.1375
67.0959
71.2559
75.6199
80.1913
84.9731
89.9677
95.1765
100.6
106.239
112.091
118.156
124.43
130.91
137.592
144.47
151.539
158.793
166.223
173.822
181.582
189.495
197.553
205.752
214.06
222.474
230.984
239.583
248.259
257.003
265.805
274.657
283.544
292.457
301.318
310.109
318.818
327.432
335.938
344.323
352.572
360.673
368.61
376.37
383.941
391.307
398.451
405.36
412.024
418.429
424.566
430.423
435.99
441.258
446.218
450.862
455.182
459.172
462.826
466.138
469.104
471.719
473.981
475.888
477.439
478.635
479.476
479.964
480.101
479.891
479.336
478.443
477.217
475.664
473.791
471.605
469.115
466.329
463.258
459.911
456.298
452.431
448.319
443.976
439.413
434.641
429.673
424.522
419.2
413.719
408.092
402.331
396.45
390.46
384.374
378.203
371.959
365.655
359.301
352.909
346.489
340.052
333.608
327.167
320.739
314.332
307.957
301.623
295.339
289.116
282.962
276.89
270.909
265.031
259.27
253.64
248.156
242.835
237.69
232.737
227.959
223.402
6.90017
3.18678
2.46894
2.25477
2.20427
2.2305
2.30191
2.4045
2.53125
2.67839
2.84376
3.02615
3.22493
3.43984
3.6709
3.91841
4.18286
4.46495
4.76558
5.08585
5.42706
5.79069
6.17843
6.59218
7.03404
7.50634
8.01165
8.55277
9.13276
9.75493
10.4229
11.1404
11.9119
12.7416
13.6345
14.5954
15.6297
16.7429
17.941
19.2303
20.6175
22.1093
23.7131
25.4363
27.2864
29.2697
31.3934
33.6652
36.0928
38.6841
41.4467
44.3881
47.5156
50.8363
54.3569
58.0841
62.0239
66.1824
70.5658
75.1818
80.0287
85.1026
90.4083
95.9479
101.722
107.731
113.973
120.446
127.146
134.071
141.214
148.571
156.134
163.896
171.85
179.985
188.294
196.766
205.39
214.157
223.056
232.076
241.2
250.418
259.719
269.093
278.529
288.02
297.554
307.127
316.697
326.192
335.601
344.908
354.1
363.164
372.084
380.848
389.441
397.849
406.058
414.054
421.825
429.355
436.632
443.642
450.373
456.814
462.956
468.786
474.297
479.48
484.325
488.826
492.977
496.771
500.203
503.269
505.965
508.289
510.238
511.811
513.01
513.834
514.285
514.366
514.081
513.433
512.428
511.071
509.368
507.328
504.958
502.267
499.263
495.956
492.358
488.478
484.328
479.92
475.265
470.376
465.266
459.946
454.431
448.733
442.865
436.841
430.673
424.375
417.96
411.439
404.827
398.135
391.376
384.561
377.702
370.811
363.898
356.974
350.05
343.135
336.239
329.373
322.544
315.764
309.041
302.385
295.806
289.315
282.923
276.642
270.484
264.464
258.597
252.898
247.379
242.053
236.905
231.983
6.84347
3.17416
2.45217
2.23157
2.17423
2.19348
2.25791
2.35366
2.47383
2.61477
2.77443
2.95174
3.14616
3.35759
3.58623
3.83256
4.0973
4.38142
4.68612
5.01286
5.36332
5.73947
6.14351
6.57793
7.04551
7.54932
8.09276
8.67957
9.31385
10
10.7428
11.5475
12.4197
13.3656
14.3919
15.5052
16.7118
18.0193
19.4355
20.9688
22.6279
24.4217
26.3597
28.452
30.7107
33.1377
35.7407
38.5298
41.5138
44.701
48.0993
51.7159
55.5577
59.6307
63.9406
68.4923
73.2901
78.3375
83.6376
89.1922
95.0005
101.06
107.37
113.928
120.731
127.777
135.059
142.574
150.313
158.271
166.44
174.81
183.373
192.119
201.036
210.115
219.345
228.713
238.208
247.818
257.532
267.337
277.221
287.172
297.18
307.236
317.33
327.457
337.599
347.675
357.649
367.509
377.241
386.832
396.268
405.534
414.618
423.505
432.183
440.638
448.857
456.827
464.536
471.972
479.121
485.973
492.517
498.742
504.639
510.199
515.413
520.275
524.776
528.91
532.673
536.06
539.065
541.687
543.922
545.769
547.227
548.296
548.978
549.274
549.187
548.721
547.88
546.668
545.093
543.161
540.878
538.254
535.297
532.016
528.421
524.524
520.334
515.864
511.125
506.13
500.892
495.422
489.735
483.843
477.76
471.5
465.075
458.5
451.788
444.951
438.004
430.96
423.83
416.628
409.366
402.056
394.71
387.339
379.954
372.565
365.184
357.819
350.481
343.18
335.924
328.723
321.586
314.523
307.545
300.661
293.883
287.222
280.691
274.304
268.075
262.018
256.145
250.468
244.971
239.704
6.77916
3.15126
2.42892
2.20557
2.14504
2.16126
2.22316
2.31717
2.43661
2.57803
2.73961
2.92048
3.12041
3.3396
3.57863
3.83842
4.12021
4.42558
4.75641
5.11496
5.50382
5.92594
6.3847
6.88385
7.4276
8.02061
8.66793
9.37523
10.1489
10.9958
11.9221
12.9356
14.0448
15.2593
16.59
18.0475
19.635
21.3644
23.2471
25.2939
27.5158
29.9234
32.5277
35.339
38.3672
41.6194
45.1031
48.8259
52.7946
57.0154
61.4931
66.2319
71.2347
76.5036
82.0396
87.8428
93.9124
100.247
106.843
113.698
120.805
128.16
135.756
143.586
151.642
159.916
168.401
177.086
185.962
195.02
204.249
213.638
223.176
232.852
242.654
252.571
262.592
272.704
282.897
293.159
303.48
313.849
324.256
334.695
345.152
355.629
366.107
376.507
386.779
396.92
406.916
416.754
426.422
435.906
445.195
454.276
463.137
471.765
480.15
488.278
496.14
503.723
511.016
518.01
524.693
531.056
537.089
542.784
548.133
553.127
557.76
562.026
565.918
569.432
572.564
575.31
577.666
579.632
581.205
582.385
583.173
583.569
583.575
583.195
582.432
581.289
579.773
577.89
575.645
573.047
570.103
566.822
563.214
559.289
555.056
550.528
545.715
540.629
535.283
529.69
523.861
517.811
511.553
505.099
498.464
491.662
484.705
477.607
470.382
463.043
455.603
448.075
440.471
432.805
425.088
417.332
409.549
401.749
393.943
386.143
378.357
370.596
362.869
355.186
347.554
339.985
332.486
325.068
317.739
310.511
303.393
296.398
289.538
282.825
276.274
269.899
263.709
257.717
251.907
246.333
6.72979
3.12677
2.40785
2.18707
2.1294
2.14951
2.21686
2.3183
2.44753
2.60148
2.77878
2.97911
3.20283
3.45092
3.72482
4.02652
4.35847
4.7236
5.12543
5.56805
6.05607
6.59482
7.19032
7.849
8.57846
9.38719
10.2829
11.2753
12.3762
13.6002
14.951
16.4415
18.0855
19.8967
21.889
24.0752
26.4664
29.0749
31.913
34.992
38.3224
41.9135
45.7737
49.9098
54.3267
59.0278
64.0146
69.2879
74.8468
80.6895
86.8127
93.212
99.882
106.816
114.008
121.449
129.131
137.044
145.181
153.531
162.084
170.83
179.758
188.858
198.119
207.532
217.085
226.769
236.572
246.486
256.499
266.602
276.784
287.036
297.348
307.71
318.113
328.551
339.012
349.489
359.978
370.469
380.949
391.446
401.905
412.253
422.448
432.495
442.379
452.091
461.62
470.956
480.089
489.007
497.699
506.157
514.368
522.324
530.013
537.427
544.556
551.39
557.92
564.137
570.032
575.598
580.826
585.71
590.241
594.415
598.225
601.666
604.734
607.424
609.734