/*--------------------------------*- C++ -*----------------------------------*\
  =========                 |
  \\      /  F ield         | OpenFOAM: The Open Source CFD Toolbox
   \\    /   O peration     | Website:  https://openfoam.org
    \\  /    A nd           | Version:  9
     \\/     M anipulation  |
\*---------------------------------------------------------------------------*/
FoamFile
{
    format      ascii;
    class       volScalarField;
    location    "0.3";
    object      k;
}
// * * * * * * * * * * * * * * * * * * * * * * * * * * * * * * * * * * * * * //

dimensions      [0 2 -2 0 0 0 0];

internalField   nonuniform List<scalar> 
12225
(
0.353921
0.335043
0.316966
0.300961
0.288125
0.278906
0.273297
0.271001
0.271563
0.274465
0.279194
0.28528
0.292317
0.299968
0.307978
0.316133
0.324475
0.336552
0.436864
0.448979
0.438084
0.43306
0.438785
0.453582
0.474794
0.49997
0.527124
0.554769
0.581876
0.607782
0.632106
0.654673
0.675586
0.694742
0.714202
0.729489
0.395187
0.410874
0.410631
0.405747
0.40201
0.400923
0.402613
0.406805
0.413078
0.420973
0.430056
0.439949
0.450338
0.460982
0.471739
0.482496
0.493533
0.504223
0.379641
0.38484
0.386546
0.38573
0.383905
0.382026
0.380567
0.379738
0.379605
0.380146
0.381298
0.382981
0.385111
0.387614
0.390435
0.393539
0.396944
0.400547
0.374976
0.3759
0.376239
0.375721
0.37457
0.373084
0.371496
0.369967
0.368593
0.367426
0.366484
0.365767
0.365266
0.364965
0.364852
0.364916
0.365153
0.365532
0.373488
0.372555
0.371759
0.370807
0.369631
0.368275
0.366809
0.3653
0.363804
0.362358
0.36099
0.359714
0.358537
0.357461
0.356487
0.355615
0.354843
0.354165
0.373012
0.371296
0.369813
0.368416
0.367025
0.36561
0.364169
0.362712
0.361258
0.359824
0.358426
0.357073
0.355774
0.354533
0.353354
0.35224
0.351191
0.350215
0.372865
0.370838
0.369004
0.367311
0.365711
0.364174
0.362679
0.361216
0.359783
0.358382
0.357015
0.355688
0.354402
0.353162
0.351968
0.350823
0.349729
0.348697
0.37282
0.37068
0.368692
0.366836
0.365095
0.363449
0.36188
0.360376
0.358928
0.357532
0.356183
0.35488
0.353622
0.35241
0.351242
0.350119
0.349042
0.348023
0.372806
0.370628
0.368578
0.366648
0.364829
0.36311
0.361482
0.359934
0.358457
0.357046
0.355694
0.354397
0.353153
0.351959
0.350812
0.349713
0.34866
0.347664
0.372801
0.370609
0.368537
0.366576
0.36472
0.362964
0.361299
0.359719
0.358216
0.356785
0.355421
0.354118
0.352874
0.351685
0.350548
0.34946
0.348421
0.34744
0.372799
0.370602
0.368522
0.36655
0.36468
0.362907
0.361225
0.359627
0.358109
0.356664
0.355289
0.353978
0.352729
0.351537
0.3504
0.349315
0.34828
0.347304
0.372797
0.370599
0.368514
0.366537
0.364661
0.36288
0.361188
0.359581
0.358053
0.3566
0.355216
0.353899
0.352644
0.351448
0.350308
0.349221
0.348185
0.34721
0.372796
0.370596
0.368509
0.366528
0.364649
0.362864
0.361168
0.359555
0.358022
0.356563
0.355174
0.353852
0.352592
0.351392
0.350248
0.349157
0.348119
0.347142
0.372795
0.370593
0.368505
0.366523
0.364641
0.362853
0.361154
0.359539
0.358003
0.35654
0.355148
0.353823
0.35256
0.351357
0.35021
0.349116
0.348075
0.347094
0.372794
0.370592
0.368502
0.366518
0.364634
0.362845
0.361145
0.359527
0.357989
0.356525
0.355131
0.353803
0.352539
0.351333
0.350184
0.349088
0.348044
0.347061
0.372794
0.37059
0.368499
0.366515
0.36463
0.362839
0.361137
0.359519
0.357979
0.356514
0.355118
0.353789
0.352523
0.351316
0.350165
0.349067
0.348021
0.347037
0.372794
0.370589
0.368498
0.366512
0.364627
0.362835
0.361132
0.359513
0.357972
0.356506
0.355109
0.353779
0.352511
0.351303
0.350151
0.349052
0.348005
0.347019
0.372793
0.370589
0.368497
0.366512
0.364626
0.362834
0.361131
0.359511
0.357969
0.356502
0.355105
0.353774
0.352506
0.351297
0.350144
0.349044
0.347996
0.34701
0.372794
0.37059
0.368498
0.366513
0.364628
0.362836
0.361133
0.359514
0.357973
0.356506
0.355109
0.353779
0.352511
0.351302
0.350149
0.349049
0.348001
0.347015
0.372794
0.370591
0.3685
0.366516
0.364632
0.362841
0.36114
0.359522
0.357982
0.356517
0.355122
0.353793
0.352526
0.351319
0.350167
0.349069
0.348022
0.347037
0.372795
0.370593
0.368504
0.366522
0.364641
0.362855
0.361158
0.359546
0.358012
0.356552
0.355163
0.353839
0.352578
0.351375
0.350228
0.349134
0.348091
0.347108
0.372796
0.370598
0.368518
0.366547
0.364681
0.362912
0.361235
0.359641
0.358127
0.356685
0.355311
0.354001
0.35275
0.351556
0.350415
0.349324
0.348281
0.347298
0.372804
0.370631
0.368592
0.366676
0.364872
0.363166
0.361548
0.360006
0.358532
0.35712
0.355767
0.354467
0.353219
0.352019
0.350867
0.349761
0.348701
0.347697
0.372856
0.370818
0.368973
0.367264
0.365645
0.364085
0.362567
0.361083
0.359631
0.358213
0.356832
0.355493
0.354196
0.352946
0.351743
0.35059
0.349486
0.348445
0.373166
0.37177
0.370579
0.369371
0.368049
0.366605
0.365072
0.363492
0.361905
0.360342
0.358826
0.357372
0.355991
0.354688
0.353468
0.352329
0.351272
0.350303
0.374797
0.375829
0.376175
0.375401
0.373834
0.371876
0.369792
0.36774
0.365814
0.364067
0.362524
0.361195
0.360076
0.359157
0.358425
0.357864
0.357457
0.35719
0.382729
0.39167
0.392375
0.388805
0.384384
0.380403
0.377247
0.374998
0.373621
0.373039
0.373154
0.373867
0.375085
0.376718
0.378687
0.380924
0.383367
0.385947
0.407499
0.414514
0.405423
0.395993
0.390555
0.389292
0.391457
0.396217
0.402839
0.410729
0.419438
0.428624
0.438035
0.44748
0.456825
0.465975
0.474885
0.483468
0.360554
0.347547
0.334933
0.322917
0.311965
0.302353
0.29419
0.287471
0.282116
0.278005
0.275002
0.272968
0.271768
0.271277
0.27138
0.271977
0.27298
0.274307
0.000649434
0.00371494
0.00617946
0.00833621
0.0105001
0.0130942
0.016112
0.0196484
0.0238091
0.0286183
0.0337062
0.0390888
0.0447287
0.050575
0.0565765
0.0626846
0.0688538
0.0750415
0.0812071
0.0873113
0.0933151
0.0991794
0.104864
0.110326
0.115521
0.120403
0.124922
0.129031
0.132679
0.135812
0.138372
0.140308
0.141626
0.142479
0.143158
0.143751
0.143927
0.1442
0.144685
0.143635
0.144286
0.145863
0.147798
0.149196
0.150427
0.157204
0.164364
0.171793
0.179437
0.187279
0.195307
0.203511
0.211887
0.220429
0.229134
0.237999
0.247022
0.256198
0.265526
0.275003
0.284624
0.294387
0.304287
0.31432
0.324481
0.334766
0.345169
0.355684
0.366304
0.377025
0.387838
0.398736
0.409713
0.42076
0.431869
0.443032
0.454241
0.465487
0.476761
0.488054
0.499358
0.510662
0.521958
0.533237
0.544488
0.555703
0.566872
0.577985
0.589032
0.600004
0.61089
0.62168
0.632364
0.642932
0.653374
0.663682
0.673852
0.683884
0.693792
0.70361
0.713315
0.722797
0.732058
0.741096
0.749902
0.758466
0.766777
0.774824
0.782596
0.790083
0.797275
0.804162
0.810735
0.816985
0.822902
0.828481
0.833712
0.838589
0.843106
0.847257
0.851037
0.854441
0.857465
0.860107
0.862363
0.864231
0.865711
0.866801
0.8675
0.867811
0.867734
0.867271
0.866425
0.865199
0.863597
0.861625
0.859286
0.856588
0.853537
0.850139
0.846403
0.842338
0.837951
0.833253
0.828253
0.822961
0.81739
0.811548
0.805449
0.799103
0.792524
0.785723
0.778714
0.771509
0.764121
0.756562
0.74885
0.740994
0.733009
0.724911
0.716698
0.708418
0.700045
0.691643
0.683289
0.675798
0.671835
0.66842
0.665015
0.661596
0.65816
0.654707
0.65123
0.647709
0.644099
0.640297
0.636074
0.630828
0.623086
0.606336
0.00251801
0.0107202
0.0162089
0.0205775
0.0246935
0.0287459
0.0329515
0.0374803
0.0424022
0.0477128
0.053353
0.059272
0.0654215
0.0717562
0.0782344
0.084818
0.0914721
0.0981642
0.104864
0.111542
0.118172
0.124725
0.131177
0.137501
0.143673
0.149668
0.155467
0.161055
0.166424
0.171574
0.176517
0.18128
0.185937
0.190632
0.195573
0.20094
0.206878
0.213631
0.221099
0.229657
0.239156
0.249159
0.2598
0.271177
0.283871
0.296013
0.3079
0.320247
0.333004
0.346135
0.359616
0.373434
0.38758
0.40205
0.41684
0.431948
0.447372
0.463109
0.479156
0.495513
0.512176
0.529141
0.546405
0.563965
0.581814
0.599947
0.618358
0.637041
0.655988
0.67519
0.694638
0.714324
0.734236
0.754364
0.774697
0.795221
0.815926
0.836796
0.85782
0.878983
0.900271
0.921668
0.943161
0.964733
0.986369
1.00805
1.02977
1.05151
1.07324
1.09496
1.11664
1.13828
1.15985
1.18133
1.20271
1.22397
1.24509
1.26605
1.28682
1.30733
1.32738
1.34715
1.36662
1.38579
1.40464
1.42314
1.44128
1.45904
1.47638
1.4933
1.50976
1.52575
1.54125
1.55624
1.5707
1.58461
1.59796
1.61072
1.62289
1.63444
1.64536
1.65565
1.66529
1.67426
1.68256
1.69018
1.69711
1.70335
1.70889
1.71372
1.71785
1.72127
1.72397
1.72597
1.72727
1.72786
1.72776
1.72696
1.72548
1.72332
1.72049
1.71701
1.71288
1.70813
1.70275
1.69678
1.69021
1.68308
1.6754
1.66719
1.65847
1.64925
1.63956
1.62943
1.61887
1.6079
1.59656
1.58486
1.57284
1.56051
1.54786
1.53503
1.52188
1.5086
1.49526
1.48203
1.46935
1.45676
1.44412
1.43144
1.41872
1.40599
1.39325
1.3805
1.36771
1.35486
1.34179
1.32837
1.31337
1.29395
0.00505621
0.0178229
0.0253286
0.031088
0.0361634
0.0410768
0.0460876
0.0513404
0.0569027
0.0627862
0.0689675
0.075409
0.0820699
0.0889116
0.095899
0.103002
0.110193
0.117449
0.124751
0.132081
0.139425
0.146769
0.154106
0.161428
0.168732
0.176023
0.183309
0.190611
0.197962
0.205406
0.213004
0.220827
0.228958
0.237487
0.246503
0.256101
0.26638
0.277371
0.28907
0.301576
0.314813
0.328604
0.342865
0.357591
0.372847
0.388421
0.404294
0.420586
0.437323
0.454496
0.472093
0.490106
0.508528
0.527353
0.546577
0.566194
0.586203
0.606598
0.627376
0.648534
0.670068
0.691971
0.71424
0.736869
0.759849
0.783176
0.806839
0.83083
0.85514
0.879758
0.904672
0.929871
0.955341
0.981069
1.00704
1.03324
1.05965
1.08626
1.11304
1.13999
1.16708
1.19429
1.22161
1.24902
1.27649
1.30401
1.33156
1.35912
1.38666
1.41417
1.44163
1.46901
1.4963
1.52347
1.55051
1.57739
1.6041
1.63062
1.65693
1.68286
1.70844
1.73368
1.75855
1.78304
1.80712
1.83076
1.85393
1.8766
1.89875
1.92034
1.94136
1.96177
1.98155
2.00067
2.01911
2.03684
2.05385
2.0701
2.08559
2.10029
2.11419
2.12726
2.13949
2.15088
2.16139
2.17104
2.1798
2.18767
2.19463
2.20069
2.20585
2.21009
2.21342
2.21585
2.21737
2.21798
2.2177
2.21654
2.21449
2.21158
2.20781
2.2032
2.19776
2.19151
2.18447
2.17666
2.1681
2.15882
2.14882
2.13814
2.12681
2.11485
2.10228
2.08914
2.07545
2.06123
2.04654
2.03139
2.01581
1.99986
1.98346
1.96687
1.94999
1.93291
1.91569
1.89846
1.88143
1.86443
1.84739
1.8303
1.81319
1.79608
1.77899
1.76194
1.74497
1.72808
1.71127
1.6946
1.67751
1.65963
0.00811707
0.0246256
0.0338346
0.0405498
0.0464134
0.0520062
0.057614
0.0633942
0.0694274
0.0757428
0.0823354
0.089182
0.0962519
0.103514
0.110938
0.118501
0.126183
0.133967
0.141843
0.149802
0.15784
0.165958
0.174159
0.18245
0.190844
0.199361
0.208026
0.216873
0.225945
0.235295
0.244981
0.255068
0.265618
0.276694
0.288348
0.300638
0.313607
0.327273
0.341637
0.356708
0.37245
0.38878
0.405633
0.422984
0.440829
0.459127
0.477853
0.497027
0.516663
0.536765
0.557333
0.578364
0.599854
0.621802
0.644203
0.667056
0.690358
0.714105
0.738294
0.762922
0.787985
0.813478
0.839397
0.865734
0.892483
0.919637
0.947186
0.975121
1.00343
1.03211
1.06113
1.09049
1.12018
1.15017
1.18045
1.21101
1.24182
1.27286
1.30412
1.33558
1.3672
1.39898
1.43089
1.4629
1.495
1.52715
1.55935
1.59155
1.62374
1.6559
1.68799
1.72
1.75191
1.78368
1.81531
1.84675
1.878
1.90902
1.93976
1.9701
2.00005
2.02961
2.05874
2.08741
2.11559
2.14325
2.17036
2.19687
2.22276
2.24799
2.27254
2.29636
2.31943
2.34172
2.36321
2.38385
2.40363
2.42252
2.4405
2.45755
2.47364
2.48875
2.50287
2.51599
2.52808
2.53913
2.54914
2.5581
2.56599
2.57281
2.57856
2.58324
2.58684
2.58937
2.59083
2.59123
2.59058
2.58888
2.58615
2.5824
2.57765
2.5719
2.56519
2.55753
2.54894
2.53945
2.52908
2.51786
2.5058
2.49295
2.47934
2.46499
2.44993
2.4342
2.41784
2.40085
2.38333
2.36525
2.34667
2.32771
2.30832
2.28863
2.26862
2.24836
2.22792
2.2074
2.18692
2.16642
2.14589
2.12531
2.10473
2.08417
2.06369
2.04332
2.02314
2.00322
1.98366
1.96467
1.94606
1.92802
0.0112049
0.0309679
0.0414878
0.0491069
0.0556738
0.0618432
0.067935
0.0741271
0.080518
0.0871544
0.0940487
0.101192
0.108566
0.116147
0.123914
0.131848
0.139934
0.148164
0.156532
0.165038
0.173686
0.182483
0.191443
0.200581
0.209921
0.219489
0.229318
0.239447
0.249922
0.26079
0.272105
0.283919
0.296281
0.309236
0.322821
0.337065
0.35199
0.367602
0.383898
0.400868
0.418488
0.436715
0.455511
0.474851
0.494721
0.515102
0.535983
0.557365
0.579255
0.601654
0.624567
0.647992
0.671931
0.696383
0.721347
0.746823
0.772809
0.799304
0.826306
0.853813
0.881822
0.910328
0.939327
0.968814
0.998782
1.02922
1.06013
1.09149
1.12329
1.15553
1.18818
1.22123
1.25467
1.28847
1.32263
1.35711
1.39191
1.42698
1.46232
1.4979
1.53369
1.56967
1.60581
1.64209
1.67847
1.71493
1.75145
1.78798
1.82452
1.86102
1.89746
1.93381
1.97005
2.00615
2.04207
2.07779
2.11329
2.14854
2.18339
2.21782
2.25183
2.28537
2.31843
2.35095
2.38292
2.41428
2.445
2.47503
2.50435
2.53291
2.56067
2.58761
2.61367
2.63884
2.66308
2.68635
2.70862
2.72988
2.75008
2.76921
2.78724
2.80416
2.81993
2.83454
2.84798
2.86024
2.8713
2.88115
2.88978
2.8972
2.90338
2.90834
2.91208
2.91459
2.91589
2.91598
2.91486
2.91256
2.90909
2.90446
2.89868
2.89179
2.8838
2.87473
2.86461
2.85347
2.84134
2.82824
2.81421
2.79927
2.78348
2.76686
2.74942
2.73126
2.71238
2.69275
2.67257
2.65182
2.63053
2.60877
2.58657
2.56399
2.54106
2.51785
2.49441
2.47083
2.4472
2.42352
2.3998
2.37604
2.3523
2.32862
2.30506
2.2817
2.25863
2.236
2.21397
2.19284
2.17258
2.15337
0.0141135
0.0364504
0.0482244
0.0566847
0.0638904
0.070568
0.0770717
0.0836011
0.0902723
0.0971492
0.104261
0.111613
0.119199
0.127006
0.13502
0.143229
0.151624
0.160201
0.168961
0.177908
0.187053
0.196409
0.205995
0.215833
0.22595
0.236378
0.247153
0.258313
0.269902
0.281963
0.294541
0.30768
0.321416
0.335783
0.350805
0.366502
0.382882
0.399948
0.417695
0.436112
0.455183
0.474886
0.495196
0.516097
0.537575
0.559619
0.582224
0.605388
0.629114
0.653404
0.678263
0.703693
0.729697
0.756277
0.783434
0.81117
0.839487
0.868384
0.897861
0.927918
0.958552
0.989762
1.02154
1.05389
1.0868
1.12026
1.15427
1.18881
1.22387
1.25945
1.29551
1.33206
1.36907
1.40651
1.44438
1.48264
1.52127
1.56025
1.59954
1.63913
1.67898
1.71906
1.75935
1.7998
1.84039
1.88108
1.92185
1.96266
2.00348
2.04427
2.085
2.12564
2.16616
2.20652
2.24669
2.28663
2.32631
2.36568
2.4046
2.44305
2.48101
2.51846
2.55534
2.59163
2.62728
2.66224
2.69647
2.72992
2.76256
2.79434
2.82521
2.85514
2.88409
2.91202
2.93889
2.96467
2.98933
3.01282
3.03514
3.05623
3.07609
3.09467
3.11198
3.12798
3.14266
3.156
3.168
3.17864
3.18791
3.19581
3.20234
3.20749
3.21126
3.21367
3.21472
3.21442
3.21278
3.20981
3.20553
3.19997
3.19313
3.18504
3.17574
3.16524
3.15357
3.14076
3.12685
3.11189
3.09588
3.07886
3.06092
3.04206
3.02226
3.0017
2.98037
2.95828
2.93554
2.91218
2.88823
2.86376
2.8388
2.81341
2.78765
2.76156
2.73521
2.70868
2.68204
2.65531
2.62854
2.60174
2.57498
2.54831
2.52182
2.4956
2.46979
2.44456
2.42014
2.39683
2.37462
2.35364
0.0166228
0.0411726
0.0540328
0.0632336
0.0710021
0.0781229
0.0849781
0.0917857
0.0986776
0.105733
0.112994
0.120483
0.128205
0.136156
0.144332
0.152726
0.161337
0.170166
0.179217
0.188499
0.198028
0.207821
0.2179
0.228291
0.239024
0.250132
0.261649
0.273615
0.286067
0.299045
0.312586
0.326723
0.341489
0.356906
0.372995
0.389768
0.407231
0.425387
0.444232
0.463759
0.483958
0.504818
0.526324
0.548467
0.571239
0.594633
0.618647
0.643282
0.668539
0.694424
0.72094
0.748094
0.775889
0.804332
0.833425
0.863174
0.893581
0.924648
0.956379
0.988774
1.02183
1.05555
1.08994
1.12497
1.16066
1.197
1.23397
1.27156
1.30977
1.34858
1.38797
1.42793
1.46843
1.50945
1.55097
1.59296
1.6354
1.67825
1.72148
1.76507
1.80897
1.85316
1.89759
1.94223
1.98704
2.03198
2.07703
2.12213
2.16725
2.21235
2.25739
2.30234
2.34716
2.3918
2.43624
2.48042
2.52432
2.56777
2.61074
2.6532
2.69511
2.73643
2.77713
2.81715
2.85645
2.89497
2.93267
2.9695
3.00541
3.04035
3.07427
3.10714
3.1389
3.16952
3.19896
3.22717
3.25413
3.27979
3.30413
3.3271
3.34869
3.36888
3.38762
3.40492
3.42075
3.43509
3.44794
3.45927
3.4691
3.4774
3.48418
3.48943
3.49317
3.4954
3.49613
3.49536
3.49312
3.48942
3.48428
3.47772
3.46976
3.46044
3.44977
3.4378
3.42455
3.41004
3.39435
3.37749
3.3595
3.34038
3.32028
3.2992
3.27716
3.25424
3.2305
3.20596
3.18069
3.15474
3.12816
3.10101
3.07333
3.04519
3.01663
2.98771
2.95851
2.92908
2.89949
2.8698
2.84006
2.8103
2.7806
2.75103
2.72168
2.69268
2.66419
2.6364
2.60955
2.58395
2.55957
2.53644
0.0187678
0.0451491
0.0589113
0.0687346
0.0769779
0.084471
0.0916172
0.0986484
0.105709
0.112889
0.120247
0.127814
0.135607
0.143634
0.151898
0.160401
0.169146
0.178138
0.187387
0.196907
0.206714
0.216829
0.227276
0.238084
0.249282
0.260902
0.272978
0.285546
0.29864
0.312294
0.32654
0.341406
0.356918
0.373096
0.389956
0.407511
0.425766
0.444726
0.46439
0.484757
0.505822
0.527581
0.550028
0.57316
0.596973
0.621467
0.646643
0.672504
0.699054
0.7263
0.75425
0.78291
0.812289
0.842393
0.873231
0.904808
0.93713
0.970204
1.00403
1.03862
1.07397
1.11007
1.14694
1.18456
1.22294
1.26206
1.30192
1.3425
1.3838
1.4258
1.46847
1.51181
1.55579
1.60038
1.64555
1.69128
1.73753
1.78428
1.83147
1.87908
1.92707
1.97539
2.02401
2.07287
2.12195
2.17118
2.22054
2.26997
2.31943
2.36889
2.41828
2.46757
2.51672
2.56567
2.61439
2.66282
2.71091
2.75848
2.8055
2.85196
2.8978
2.94299
2.98748
3.0312
3.07412
3.11616
3.15728
3.19743
3.23655
3.27458
3.31149
3.34722
3.38172
3.41496
3.44688
3.47744
3.50661
3.53434
3.56061
3.58537
3.6086
3.63028
3.65037
3.66886
3.68574
3.70098
3.71458
3.72653
3.73681
3.74542
3.75236
3.75764
3.76126
3.76322
3.76355
3.76225
3.75934
3.75484
3.74878
3.74117
3.73204
3.72142
3.70936
3.69589
3.68102
3.66477
3.64727
3.62852
3.60856
3.58742
3.56519
3.54191
3.51762
3.49237
3.46624
3.43925
3.41148
3.38298
3.3538
3.324
3.29365
3.26279
3.23148
3.19978
3.16776
3.13549
3.10303
3.07045
3.03781
3.00516
2.97259
2.94018
2.90804
2.87631
2.84517
2.81482
2.78551
2.75752
2.73077
2.70528
0.0205339
0.0483912
0.0628735
0.0731961
0.0818203
0.0896099
0.0969838
0.104184
0.111363
0.118622
0.126027
0.133623
0.141436
0.149482
0.157773
0.166318
0.175125
0.184205
0.193571
0.203238
0.213226
0.223558
0.234259
0.245355
0.256877
0.268856
0.281323
0.294311
0.30785
0.32197
0.3367
0.352066
0.368088
0.384788
0.402179
0.420276
0.439086
0.458617
0.478872
0.499856
0.52157
0.544015
0.567193
0.591105
0.615754
0.641145
0.667283
0.694174
0.721827
0.750251
0.779457
0.809455
0.840255
0.871869
0.904306
0.937576
0.971688
1.00665
1.04247
1.07915
1.1167
1.15511
1.19439
1.23454
1.27555
1.31742
1.36013
1.40368
1.44805
1.49323
1.5392
1.58592
1.63339
1.68156
1.73041
1.7799
1.83
1.88067
1.93186
1.98354
2.03565
2.08815
2.14099
2.19412
2.24749
2.30105
2.35475
2.40853
2.46236
2.51618
2.56993
2.62357
2.67705
2.73032
2.78333
2.83602
2.88822
2.93985
2.99089
3.0413
3.09103
3.14002
3.18823
3.23559
3.28204
3.32752
3.37197
3.41534
3.45756
3.49859
3.53837
3.57685
3.61397
3.64969
3.68397
3.71675
3.74801
3.77769
3.80576
3.83218
3.85692
3.87996
3.90127
3.92084
3.93864
3.95466
3.96889
3.98133
3.99196
4.00077
4.00777
4.01297
4.01637
4.01799
4.01784
4.01592
4.01227
4.00691
3.99986
3.99115
3.98079
3.96885
3.95535
3.94035
3.92387
3.90594
3.88664
3.86601
3.8441
3.82094
3.79662
3.77116
3.74464
3.7171
3.68861
3.65922
3.629
3.59799
3.56627
3.53389
3.50091
3.46739
3.43339
3.39898
3.36422
3.32918
3.29393
3.25854
3.22308
3.18762
3.15225
3.11708
3.08221
3.04781
3.01406
2.98117
2.94937
2.91891
2.88967
2.8617
0.0219201
0.0509278
0.0659555
0.0766555
0.085565
0.0935729
0.101109
0.108421
0.11567
0.122962
0.130373
0.137955
0.145742
0.15376
0.162027
0.170558
0.179367
0.188467
0.197876
0.207611
0.217693
0.228145
0.238991
0.250259
0.261977
0.274175
0.286881
0.300125
0.313937
0.328342
0.343368
0.359039
0.375375
0.392397
0.410121
0.428562
0.447732
0.467643
0.488303
0.509721
0.531904
0.554861
0.578597
0.603122
0.628444
0.654571
0.681514
0.709284
0.737895
0.767358
0.797689
0.8289
0.861007
0.894024
0.927964
0.962839
0.998663
1.03544
1.07319
1.11192
1.15162
1.19231
1.23398
1.27664
1.32028
1.36489
1.41046
1.45699
1.50445
1.55283
1.60211
1.65225
1.70323
1.75502
1.80759
1.86088
1.91486
1.96949
2.02471
2.08048
2.13674
2.19344
2.25052
2.30793
2.3656
2.42348
2.48151
2.53964
2.59781
2.65596
2.71403
2.77198
2.82975
2.88727
2.9445
3.00132
3.05754
3.11315
3.1681
3.22234
3.27583
3.3285
3.38029
3.43114
3.48098
3.52974
3.57736
3.62378
3.66894
3.71278
3.75525
3.79629
3.83584
3.87387
3.91031
3.94513
3.97829
4.00974
4.03943
4.06733
4.0934
4.11763
4.13999
4.16046
4.17903
4.19567
4.21039
4.22318
4.23402
4.24291
4.24985
4.25485
4.25793
4.2591
4.25837
4.25575
4.25129
4.245
4.23691
4.22706
4.21547
4.20219
4.18727
4.17074
4.15265
4.13303
4.11197
4.08949
4.06566
4.04052
4.01413
3.98656
3.95786
3.9281
3.89732
3.8656
3.83299
3.79956
3.76538
3.7305
3.69498
3.6589
3.62231
3.58527
3.54787
3.51016
3.47222
3.43413
3.39596
3.35781
3.31975
3.2819
3.2444
3.2074
3.17109
3.13568
3.1014
3.06845
3.03668
3.00618
0.0229403
0.0528054
0.0682157
0.0791766
0.0882778
0.096426
0.104058
0.111426
0.118695
0.125977
0.133353
0.140881
0.148603
0.156552
0.164751
0.17322
0.181978
0.191041
0.200428
0.210158
0.220254
0.230737
0.241632
0.252965
0.264764
0.277055
0.289866
0.303225
0.31716
0.331696
0.34686
0.362674
0.379161
0.396343
0.414238
0.432865
0.45224
0.472378
0.493295
0.515004
0.537518
0.560852
0.585018
0.610031
0.635904
0.662654
0.690294
0.718843
0.748316
0.778732
0.810109
0.842465
0.875818
0.910187
0.945587
0.982036
1.01955
1.05814
1.09781
1.13858
1.18046
1.22344
1.26753
1.31273
1.35903
1.40643
1.45491
1.50446
1.55506
1.60669
1.65933
1.71294
1.76749
1.82294
1.87925
1.93638
1.99427
2.05288
2.11214
2.17201
2.23242
2.29331
2.35461
2.41625
2.47818
2.54032
2.60261
2.665
2.72742
2.7898
2.85209
2.91423
2.97615
3.03779
3.09909
3.15979
3.21985
3.27923
3.33789
3.39576
3.45278
3.5089
3.56405
3.61815
3.67112
3.72291
3.77343
3.82264
3.87047
3.91686
3.96175
4.00508
4.0468
4.08686
4.12521
4.1618
4.1966
4.22957
4.26064
4.28977
4.31695
4.34214
4.36532
4.38648
4.40561
4.42269
4.43771
4.45068
4.46156
4.47036
4.47709
4.48177
4.48441
4.48502
4.48362
4.48024
4.4749
4.46763
4.45847
4.44746
4.43461
4.41999
4.40364
4.38561
4.36593
4.34467
4.32187
4.2976
4.2719
4.24484
4.21648
4.18687
4.15609
4.12418
4.09123
4.05728
4.0224
3.98667
3.95014
3.91289
3.87497
3.83645
3.7974
3.75788
3.71797
3.67773
3.63725
3.5966
3.55587
3.51515
3.47453
3.43414
3.39412
3.35463
3.31585
3.278
3.24127
3.20584
3.17156
3.13855
0.0236221
0.0540861
0.0697306
0.0808439
0.0900482
0.0982609
0.105923
0.113291
0.120531
0.127759
0.135061
0.142499
0.150122
0.157965
0.166057
0.174423
0.183083
0.192057
0.201364
0.211026
0.221063
0.231499
0.242357
0.253661
0.265438
0.277715
0.290518
0.303873
0.317808
0.332349
0.347522
0.363353
0.379864
0.397081
0.415026
0.43372
0.453186
0.473443
0.494513
0.516415
0.53917
0.562797
0.587315
0.612747
0.639111
0.666428
0.694721
0.72401
0.754318
0.785668
0.818083
0.851585
0.886197
0.921939
0.958833
0.996898
1.03615
1.07661
1.11828
1.16118
1.20531
1.25067
1.29727
1.3451
1.39416
1.44444
1.49591
1.54858
1.60241
1.65737
1.71344
1.77057
1.82874
1.88789
1.94798
2.00896
2.07076
2.13334
2.19662
2.26055
2.32505
2.39006
2.45549
2.52126
2.58731
2.65358
2.71997
2.78645
2.85292
2.91933
2.98562
3.05172
3.11757
3.18309
3.24804
3.31234
3.37594
3.43878
3.50081
3.56196
3.62217
3.68138
3.73952
3.79652
3.85227
3.9067
3.95975
4.01137
4.06149
4.11005
4.15698
4.20223
4.24575
4.28749
4.32738
4.3654
4.4015
4.43566
4.4678
4.49786
4.52583
4.55169
4.57542
4.59701
4.61644
4.63371
4.64881
4.66173
4.67246
4.68101
4.68739
4.6916
4.69368
4.69363
4.69148
4.68726
4.68098
4.6727
4.66244
4.65024
4.63614
4.62019
4.60243
4.58293
4.56171
4.53885
4.51439
4.4884
4.46094
4.43206
4.40183
4.37031
4.33756
4.30365
4.26866
4.23263
4.19565
4.15777
4.11907
4.0796
4.03945
3.99868
3.95734
3.91552
3.87329
3.83071
3.78787
3.74485
3.70173
3.65862
3.61563
3.57286
3.53047
3.48863
3.4475
3.40731
3.36823
3.33042
3.2937
3.25824
0.0240048
0.054843
0.0705897
0.0817572
0.0909822
0.0991879
0.106818
0.11413
0.121293
0.128425
0.135616
0.142931
0.15042
0.158125
0.166077
0.174302
0.182824
0.191663
0.200841
0.210378
0.220295
0.230616
0.241362
0.25256
0.264233
0.276408
0.289112
0.302372
0.316214
0.330668
0.345759
0.361517
0.377968
0.39514
0.41306
0.431754
0.45125
0.471574
0.492753
0.514814
0.537783
0.561688
0.586555
0.612412
0.639285
0.667202
0.696189
0.726273
0.757483
0.789846
0.82339
0.858141
0.894126
0.931368
0.969892
1.00972
1.05087
1.09336
1.13719
1.18239
1.22896
1.27688
1.32616
1.3768
1.42878
1.48209
1.53671
1.59262
1.64978
1.70818
1.76776
1.82849
1.89032
1.9532
2.01707
2.08187
2.14754
2.21401
2.28121
2.34907
2.41753
2.48649
2.55586
2.62554
2.69548
2.76559
2.8358
2.90605
2.97626
3.04636
3.11629
3.18598
3.25537
3.3242
3.39236
3.4598
3.52646
3.59228
3.6572
3.72113
3.78403
3.84582
3.90645
3.96585
4.02385
4.08041
4.13548
4.18899
4.24089
4.29111
4.3396
4.38629
4.43113
4.47407
4.51505
4.55405
4.59101
4.6259
4.65867
4.68927
4.71768
4.74388
4.76784
4.78957
4.80903
4.82623
4.84115
4.85381
4.86419
4.8723
4.87816
4.88177
4.88316
4.88234
4.87935
4.8742
4.86695
4.8576
4.84622
4.83284
4.81749
4.80024
4.78112
4.7602
4.73753
4.71315
4.68714
4.65955
4.63045
4.59989
4.56794
4.53466
4.50013
4.4644
4.42756
4.38965
4.35076
4.31095
4.27028
4.22884
4.18668
4.14387
4.10049
4.0566
4.01227
3.96759
3.92262
3.87746
3.83219
3.78692
3.74176
3.69683
3.65227
3.60825
3.56496
3.52258
3.48129
3.44122
3.4022
3.36443
0.0241376
0.055158
0.0708912
0.0820253
0.0911961
0.0993283
0.106867
0.114071
0.121111
0.128108
0.135151
0.142311
0.149638
0.157176
0.164957
0.17301
0.181359
0.190026
0.199032
0.208398
0.218147
0.228299
0.23888
0.249912
0.261422
0.273437
0.285983
0.299091
0.312788
0.327104
0.342072
0.357721
0.374084
0.391193
0.40908
0.427778
0.44732
0.467739
0.48907
0.511346
0.534603
0.558875
0.584198
0.610606
0.638132
0.666809
0.696667
0.727741
0.760062
0.793664
0.828578
0.864833
0.902457
0.941478
0.98192
1.0238
1.06715
1.11197
1.15828
1.2061
1.2554
1.30617
1.35841
1.41211
1.46725
1.5238
1.58176
1.64108
1.70172
1.76365
1.82682
1.89118
1.95667
2.02324
2.09081
2.15932
2.2287
2.29887
2.36977
2.4413
2.51341
2.58606
2.659
2.73221
2.8056
2.87911
2.95266
3.02619
3.09961
3.17287
3.24589
3.31862
3.39075
3.46222
3.53295
3.60288
3.67193
3.74005
3.80715
3.87318
3.93806
4.00172
4.06409
4.1251
4.18465
4.24266
4.29908
4.35384
4.40689
4.45815
4.50758
4.55511
4.60069
4.64428
4.68582
4.72527
4.7626
4.79775
4.8307
4.86141
4.88984
4.91598
4.93981
4.96131
4.98048
4.99731
5.0118
5.02395
5.03375
5.04122
5.04637
5.04922
5.04979
5.04809
5.04417
5.03804
5.02975
5.01933
5.00682
4.99227
4.97572
4.95722
4.93683
4.91459
4.89056
4.86481
4.83738
4.80835
4.77778
4.74573
4.71226
4.67744
4.64134
4.60403
4.56558
4.52605
4.4855
4.44402
4.40167
4.35852
4.31463
4.27008
4.22493
4.17926
4.13313
4.08662
4.03982
3.9928
3.94566
3.89851
3.85145
3.80461
3.75813
3.71218
3.66693
3.62258
3.57927
3.53713
3.49599
3.45608
0.0240776
0.0551176
0.0707371
0.0817603
0.0908096
0.0988076
0.1062
0.113248
0.120123
0.126947
0.133812
0.140788
0.147927
0.155273
0.16286
0.170716
0.178866
0.187333
0.196138
0.205304
0.214853
0.224807
0.235192
0.246033
0.257357
0.269193
0.281571
0.294522
0.30808
0.322277
0.33715
0.352736
0.369071
0.386195
0.404148
0.422968
0.442696
0.463372
0.485038
0.507739
0.531517
0.556418
0.582486
0.609765
0.638298
0.668112
0.69924
0.731722
0.765595
0.800894
0.837652
0.8759
0.915664
0.95697
0.999837
1.04428
1.09032
1.13797
1.18724
1.23816
1.29067
1.34471
1.40028
1.45737
1.51596
1.57602
1.6375
1.70038
1.7646
1.83011
1.89685
1.96477
2.0338
2.10387
2.1749
2.24683
2.31957
2.39305
2.46718
2.54187
2.61705
2.69264
2.76849
2.84454
2.9207
2.9969
3.07305
3.1491
3.22497
3.30061
3.37588
3.45054
3.52452
3.59774
3.67015
3.74165
3.81219
3.88169
3.95008
4.01729
4.08325
4.14789
4.21114
4.27292
4.33316
4.39179
4.44874
4.50395
4.55735
4.6089
4.65853
4.70619
4.75183
4.7954
4.83686
4.87616
4.91326
4.94813
4.98074
5.01104
5.03903
5.06467
5.08795
5.10885
5.12738
5.14352
5.15727
5.16864
5.17763
5.18425
5.18852
5.19045
5.19007
5.1874
5.18247
5.17532
5.16598
5.15448
5.14088
5.12521
5.10753
5.08788
5.06632
5.04291
5.01769
4.99073
4.96209
4.93183
4.90002
4.86671
4.83198
4.79589
4.75851
4.71991
4.68015
4.6393
4.59743
4.55461
4.5109
4.46638
4.42111
4.37516
4.32859
4.28148
4.2339
4.18592
4.13762
4.08909
4.04042
3.99171
3.94307
3.89463
3.84653
3.79894
3.75201
3.70594
3.66086
3.61689
3.57388
3.53207
0.0238787
0.0547992
0.0702132
0.0810524
0.0899143
0.0977175
0.104909
0.111751
0.118418
0.125033
0.131687
0.138451
0.145377
0.152508
0.159878
0.167517
0.175449
0.1837
0.192291
0.201247
0.210592
0.220351
0.230552
0.241223
0.252395
0.264102
0.276378
0.28926
0.302788
0.317001
0.331942
0.347655
0.364187
0.381589
0.39991
0.4192
0.4395
0.460859
0.483332
0.506973
0.531836
0.557974
0.585445
0.614309
0.644641
0.676409
0.709644
0.744398
0.780711
0.818616
0.858142
0.899312
0.942144
0.986652
1.03285
1.08073
1.1303
1.18157
1.23451
1.28911
1.34534
1.40316
1.46252
1.5234
1.58575
1.64954
1.71471
1.78121
1.84897
1.91795
1.98808
2.05928
2.13149
2.20462
2.27861
2.35337
2.42883
2.50489
2.58148
2.65851
2.73589
2.81353
2.89134
2.96924
3.04714
3.12497
3.20266
3.28015
3.35736
3.43407
3.51014
3.58552
3.66013
3.7339
3.80675
3.87861
3.94942
4.0191
4.08758
4.1548
4.22068
4.28516
4.34818
4.40966
4.46953
4.52772
4.58419
4.63885
4.69167
4.74257
4.79151
4.83844
4.88331
4.92607
4.96668
5.0051
5.0413
5.07523
5.10688
5.13621
5.16319
5.18782
5.21007
5.22994
5.24741
5.26249
5.27517
5.28546
5.29337
5.29891
5.30209
5.30294
5.30147
5.29772
5.29172
5.28349
5.27308
5.26053
5.24587
5.22915
5.21043
5.18975
5.16717
5.14274
5.11651
5.08855
5.05892
5.02767
4.99488
4.9606
4.9249
4.88785
4.8495
4.80993
4.76921
4.72739
4.68455
4.64075
4.59606
4.55055
4.50427
4.4573
4.4097
4.36154
4.31289
4.26382
4.2144
4.16474
4.1149
4.065
4.01514
3.96544
3.91606
3.86713
3.81883
3.77133
3.72476
3.67925
3.63463
3.59118
0.0236561
0.054344
0.0694822
0.0800788
0.0887012
0.0962642
0.103217
0.109823
0.11626
0.12265
0.129084
0.135631
0.142345
0.149267
0.156433
0.163873
0.171616
0.179686
0.188112
0.196921
0.206142
0.215806
0.225947
0.2366
0.247804
0.259602
0.272035
0.285153
0.299007
0.313651
0.329129
0.345498
0.362822
0.381169
0.400619
0.421244
0.443028
0.466054
0.490392
0.516104
0.543251
0.57189
0.602076
0.633859
0.66728
0.702357
0.739112
0.777567
0.817745
0.859659
0.903317
0.948721
0.995866
1.04474
1.09534
1.14763
1.2016
1.25721
1.31444
1.37325
1.43358