/*--------------------------------*- C++ -*----------------------------------*\
  =========                 |
  \\      /  F ield         | OpenFOAM: The Open Source CFD Toolbox
   \\    /   O peration     | Website:  https://openfoam.org
    \\  /    A nd           | Version:  9
     \\/     M anipulation  |
\*---------------------------------------------------------------------------*/
FoamFile
{
    format      ascii;
    class       surfaceScalarField;
    location    "0.3";
    object      phi;
}
// * * * * * * * * * * * * * * * * * * * * * * * * * * * * * * * * * * * * * //

dimensions      [0 3 -1 0 0 0 0];

internalField   nonuniform List<scalar> 
24170
(
3.1336e-06
5.48061e-08
3.04827e-06
8.5326e-08
2.97315e-06
7.51229e-08
2.90432e-06
6.88351e-08
2.83949e-06
6.48278e-08
2.78227e-06
5.722e-08
2.73337e-06
4.88978e-08
2.69185e-06
4.1522e-08
2.65641e-06
3.54365e-08
2.62589e-06
3.05187e-08
2.59932e-06
2.65689e-08
2.5759e-06
2.34231e-08
2.55494e-06
2.09623e-08
2.53577e-06
1.91724e-08
2.51774e-06
1.80217e-08
2.49911e-06
1.86376e-08
2.4786e-06
2.05105e-08
3.76193e-08
2.44098e-06
3.45361e-06
1.84441e-08
3.45616e-06
8.27723e-08
3.44962e-06
8.16669e-08
3.438e-06
8.04556e-08
3.42351e-06
7.9315e-08
3.40597e-06
7.47593e-08
3.38635e-06
6.85255e-08
3.36544e-06
6.24236e-08
3.34404e-06
5.68409e-08
3.32274e-06
5.18198e-08
3.30194e-06
4.73679e-08
3.28187e-06
4.34947e-08
3.26264e-06
4.0193e-08
3.24424e-06
3.75721e-08
3.22671e-06
3.55448e-08
3.20991e-06
3.54419e-08
3.19472e-06
3.56982e-08
4.58246e-08
3.18652e-06
3.66535e-06
1.56073e-08
3.67825e-06
6.98726e-08
3.68532e-06
7.46051e-08
3.6896e-06
7.61725e-08
3.69127e-06
7.76402e-08
3.69014e-06
7.58897e-08
3.68669e-06
7.19753e-08
3.6815e-06
6.7617e-08
3.67499e-06
6.33515e-08
3.66751e-06
5.92977e-08
3.65935e-06
5.55318e-08
3.65071e-06
5.21322e-08
3.64175e-06
4.91534e-08
3.63258e-06
4.67441e-08
3.62319e-06
4.49282e-08
3.61403e-06
4.46056e-08
3.60475e-06
4.49751e-08
4.95449e-08
3.60103e-06
3.92465e-06
1.63464e-08
3.9358e-06
5.87202e-08
3.94255e-06
6.78603e-08
3.94802e-06
7.0695e-08
3.95244e-06
7.32267e-08
3.95536e-06
7.29676e-08
3.95691e-06
7.04202e-08
3.9574e-06
6.7132e-08
3.957e-06
6.3748e-08
3.95587e-06
6.04275e-08
3.95414e-06
5.72642e-08
3.95191e-06
5.43584e-08
3.94928e-06
5.17929e-08
3.94631e-06
4.97101e-08
3.94305e-06
4.8187e-08
3.93993e-06
4.77235e-08
3.93696e-06
4.79477e-08
4.9804e-08
3.9367e-06
4.20777e-06
1.57058e-08
4.216e-06
5.04876e-08
4.22167e-06
6.2195e-08
4.2266e-06
6.57611e-08
4.2313e-06
6.85256e-08
4.23526e-06
6.90083e-08
4.23836e-06
6.73218e-08
4.24073e-06
6.47588e-08
4.24249e-06
6.199e-08
4.24372e-06
5.91991e-08
4.24449e-06
5.64872e-08
4.24489e-06
5.39631e-08
4.24496e-06
5.17207e-08
4.24479e-06
4.98811e-08
4.24446e-06
4.85224e-08
4.24429e-06
4.78873e-08
4.24448e-06
4.77552e-08
4.81634e-08
4.24613e-06
4.51044e-06
1.43528e-08
4.51686e-06
4.40641e-08
4.52218e-06
5.68822e-08
4.52684e-06
6.10996e-08
4.53145e-06
6.39099e-08
4.53565e-06
6.48143e-08
4.53924e-06
6.37343e-08
4.54228e-06
6.17109e-08
4.54487e-06
5.94006e-08
4.54706e-06
5.70108e-08
4.5489e-06
5.46482e-08
4.55044e-06
5.24221e-08
4.55174e-06
5.04258e-08
4.55286e-06
4.87547e-08
4.55392e-06
4.74644e-08
4.55516e-06
4.6647e-08
4.55679e-06
4.61242e-08
4.56599e-08
4.55929e-06
4.83412e-06
1.29515e-08
4.83958e-06
3.86039e-08
4.84483e-06
5.16287e-08
4.84943e-06
5.65071e-08
4.85394e-06
5.93975e-08
4.85817e-06
6.05824e-08
4.86194e-06
5.99655e-08
4.86528e-06
5.83722e-08
4.86825e-06
5.6426e-08
4.87091e-06
5.43562e-08
4.87328e-06
5.22748e-08
4.87542e-06
5.02867e-08
4.87736e-06
4.84781e-08
4.8792e-06
4.69194e-08
4.88102e-06
4.56402e-08
4.88302e-06
4.46488e-08
4.88536e-06
4.37856e-08
4.27862e-08
4.88823e-06
5.1809e-06
1.16313e-08
5.18571e-06
3.3798e-08
5.19084e-06
4.64926e-08
5.19542e-06
5.19259e-08
5.19989e-06
5.49311e-08
5.20415e-06
5.63191e-08
5.20804e-06
5.60783e-08
5.21156e-06
5.48531e-08
5.21477e-06
5.32175e-08
5.21771e-06
5.14184e-08
5.22041e-06
4.95732e-08
5.22291e-06
4.77805e-08
5.22528e-06
4.61169e-08
5.22756e-06
4.46324e-08
5.22987e-06
4.33354e-08
5.23232e-06
4.2194e-08
5.23504e-06
4.10696e-08
3.97493e-08
5.23807e-06
5.5526e-06
1.03677e-08
5.55685e-06
2.9547e-08
5.56177e-06
4.15734e-08
5.56634e-06
4.73564e-08
5.5708e-06
5.04716e-08
5.57511e-06
5.2008e-08
5.57911e-06
5.2078e-08
5.58278e-06
5.11796e-08
5.58618e-06
4.98225e-08
5.58934e-06
4.82631e-08
5.59228e-06
4.66245e-08
5.59507e-06
4.49981e-08
5.59773e-06
4.34512e-08
5.60035e-06
4.20193e-08
5.60298e-06
4.06977e-08
5.60574e-06
3.9441e-08
5.60867e-06
3.81371e-08
3.66382e-08
5.61178e-06
5.95099e-06
9.15742e-09
5.95476e-06
2.57739e-08
5.95942e-06
3.69161e-08
5.96395e-06
4.28198e-08
5.96841e-06
4.60116e-08
5.97277e-06
4.76506e-08
5.97688e-06
4.79696e-08
5.9807e-06
4.73582e-08
5.98427e-06
4.62539e-08
5.98762e-06
4.49117e-08
5.99079e-06
4.34588e-08
5.9938e-06
4.19799e-08
5.99672e-06
4.05337e-08
5.99959e-06
3.91467e-08
6.00248e-06
3.78095e-08
6.00545e-06
3.64783e-08
6.00851e-06
3.50691e-08
3.34913e-08
6.01166e-06
6.37796e-06
8.01402e-09
6.38133e-06
2.24012e-08
6.38571e-06
3.25297e-08
6.39019e-06
3.83408e-08
6.39465e-06
4.1557e-08
6.39904e-06
4.3257e-08
6.40325e-06
4.37633e-08
6.40721e-06
4.33947e-08
6.41095e-06
4.25169e-08
6.41449e-06
4.13722e-08
6.41786e-06
4.00883e-08
6.42109e-06
3.87445e-08
6.42424e-06
3.73921e-08
6.42733e-06
3.60533e-08
6.43042e-06
3.47194e-08
6.43354e-06
3.33565e-08
6.4367e-06
3.19061e-08
3.03211e-08
6.43987e-06
5.74175e-06
7.09916e-09
5.74433e-06
1.98158e-08
5.74784e-06
2.9029e-08
5.75156e-06
3.46139e-08
5.75532e-06
3.77999e-08
5.75905e-06
3.9523e-08
5.76267e-06
4.01418e-08
5.76613e-06
3.99411e-08
5.76941e-06
3.92328e-08
5.77254e-06
3.82403e-08
5.77554e-06
3.70884e-08
5.77844e-06
3.58522e-08
5.78125e-06
3.45786e-08
5.78402e-06
3.32882e-08
5.78676e-06
3.19759e-08
5.7895e-06
3.06176e-08
5.79223e-06
2.91736e-08
2.76246e-08
5.79493e-06
6.99913e-06
6.12149e-09
7.00187e-06
1.70814e-08
7.00566e-06
2.52411e-08
7.00982e-06
3.04468e-08
7.0141e-06
3.35195e-08
7.0184e-06
3.52236e-08
7.02262e-06
3.59247e-08
7.02668e-06
3.58756e-08
7.03058e-06
3.5334e-08
7.03433e-06
3.44979e-08
7.03793e-06
3.34858e-08
7.04141e-06
3.23678e-08
7.0448e-06
3.1187e-08
7.04813e-06
2.99639e-08
7.05141e-06
2.86989e-08
7.05464e-06
2.73793e-08
7.05783e-06
2.59824e-08
2.45107e-08
7.06095e-06
8.53188e-06
5.09021e-09
8.53474e-06
1.42244e-08
8.53878e-06
2.11929e-08
8.54338e-06
2.58458e-08
8.54821e-06
2.86933e-08
8.55312e-06
3.03154e-08
8.55799e-06
3.10513e-08
8.56275e-06
3.11223e-08
8.56735e-06
3.07339e-08
8.57179e-06
3.00528e-08
8.57609e-06
2.91862e-08
8.58026e-06
2.81986e-08
8.58432e-06
2.71297e-08
8.58828e-06
2.60007e-08
8.59216e-06
2.48181e-08
8.59596e-06
2.35801e-08
8.59966e-06
2.22781e-08
2.09285e-08
8.60325e-06
1.04003e-05
4.01589e-09
1.04033e-05
1.12624e-08
1.04075e-05
1.6903e-08
1.04126e-05
2.08171e-08
1.0418e-05
2.32993e-08
1.04235e-05
2.47527e-08
1.04291e-05
2.54583e-08
1.04346e-05
2.5602e-08
1.044e-05
2.53411e-08
1.04453e-05
2.48067e-08
1.04504e-05
2.40898e-08
1.04553e-05
2.32473e-08
1.04601e-05
2.2315e-08
1.04648e-05
2.13148e-08
1.04694e-05
2.02583e-08
1.04738e-05
1.91517e-08
1.04781e-05
1.7996e-08
1.68154e-08
1.04822e-05
1.26779e-05
2.90418e-09
1.2681e-05
8.18707e-09
1.26855e-05
1.23632e-08
1.2691e-05
1.53494e-08
1.2697e-05
1.73034e-08
1.27033e-05
1.84759e-08
1.27096e-05
1.90696e-08
1.2716e-05
1.92252e-08
1.27223e-05
1.90552e-08
1.27285e-05
1.86538e-08
1.27345e-05
1.80901e-08
1.27403e-05
1.74106e-08
1.2746e-05
1.66456e-08
1.27515e-05
1.58156e-08
1.27568e-05
1.49345e-08
1.27619e-05
1.40127e-08
1.27669e-05
1.30564e-08
1.20918e-08
1.27716e-05
1.54543e-05
1.74402e-09
1.54576e-05
4.94779e-09
1.54624e-05
7.50643e-09
1.54684e-05
9.37311e-09
1.54751e-05
1.0622e-08
1.54822e-05
1.13829e-08
1.54895e-05
1.17711e-08
1.54968e-05
1.18715e-08
1.55041e-05
1.17516e-08
1.55113e-05
1.14678e-08
1.55184e-05
1.10636e-08
1.55252e-05
1.05698e-08
1.55318e-05
1.00084e-08
1.55383e-05
9.39508e-09
1.55444e-05
8.7423e-09
1.55504e-05
8.06061e-09
1.55561e-05
7.35695e-09
6.65547e-09
1.55615e-05
1.88389e-05
4.94074e-10
1.88424e-05
1.41367e-09
1.88478e-05
2.14706e-09
1.88545e-05
2.68341e-09
1.8862e-05
3.04433e-09
1.88702e-05
3.25915e-09
1.88786e-05
3.35036e-09
1.88871e-05
3.33665e-09
1.88956e-05
3.23628e-09
1.8904e-05
3.06561e-09
1.89123e-05
2.83779e-09
1.89203e-05
2.5632e-09
1.8928e-05
2.25053e-09
1.89355e-05
1.90733e-09
1.89427e-05
1.54043e-09
1.89496e-05
1.1567e-09
1.89562e-05
7.60746e-10
3.71601e-10
1.89625e-05
2.29648e-05
-9.52488e-10
2.29689e-05
-2.71636e-09
2.29752e-05
-4.15142e-09
2.29831e-05
-5.21514e-09
2.29921e-05
-5.92439e-09
2.30017e-05
-6.36592e-09
2.30117e-05
-6.63305e-09
2.30218e-05
-6.78448e-09
2.30319e-05
-6.85692e-09
2.30418e-05
-6.88154e-09
2.30516e-05
-6.88346e-09
2.3061e-05
-6.87866e-09
2.30701e-05
-6.87578e-09
2.30789e-05
-6.8793e-09
2.30874e-05
-6.89112e-09
2.30954e-05
-6.91085e-09
2.31031e-05
-6.93827e-09
-6.96125e-09
2.31105e-05
1.68118e-05
-2.097e-09
1.68151e-05
-5.94858e-09
1.682e-05
-9.07548e-09
1.68261e-05
-1.13337e-08
1.6833e-05
-1.27722e-08
1.68402e-05
-1.36251e-08
1.68477e-05
-1.40964e-08
1.68552e-05
-1.42943e-08
1.68626e-05
-1.42937e-08
1.68699e-05
-1.41652e-08
1.6877e-05
-1.39634e-08
1.68838e-05
-1.37227e-08
1.68904e-05
-1.34635e-08
1.68968e-05
-1.31989e-08
1.69028e-05
-1.2937e-08
1.69086e-05
-1.26818e-08
1.69141e-05
-1.24358e-08
-1.21908e-08
1.69193e-05
1.46357e-05
-3.20494e-09
1.46388e-05
-9.10526e-09
1.46437e-05
-1.38953e-08
1.46495e-05
-1.72098e-08
1.4656e-05
-1.9195e-08
1.46627e-05
-2.03256e-08
1.46695e-05
-2.09039e-08
1.46762e-05
-2.10642e-08
1.46829e-05
-2.09261e-08
1.46893e-05
-2.0606e-08
1.46955e-05
-2.0183e-08
1.47015e-05
-1.97023e-08
1.47072e-05
-1.91928e-08
1.47127e-05
-1.86744e-08
1.47179e-05
-1.816e-08
1.47229e-05
-1.76561e-08
1.47276e-05
-1.71668e-08
-1.66867e-08
1.47321e-05
1.27412e-05
-4.2523e-09
1.27444e-05
-1.23131e-08
1.27493e-05
-1.88486e-08
1.27551e-05
-2.29979e-08
1.27612e-05
-2.53011e-08
1.27675e-05
-2.66031e-08
1.27738e-05
-2.7208e-08
1.278e-05
-2.72427e-08
1.2786e-05
-2.68989e-08
1.27917e-05
-2.63477e-08
1.27972e-05
-2.56842e-08
1.28025e-05
-2.49578e-08
1.28075e-05
-2.42027e-08
1.28122e-05
-2.34437e-08
1.28168e-05
-2.26957e-08
1.28211e-05
-2.19662e-08
1.28252e-05
-2.12592e-08
-2.05707e-08
1.28291e-05
1.10918e-05
-5.12864e-09
1.10951e-05
-1.56324e-08
1.11004e-05
-2.41396e-08
1.11062e-05
-2.87732e-08
1.1112e-05
-3.11342e-08
1.11179e-05
-3.25121e-08
1.11238e-05
-3.3055e-08
1.11294e-05
-3.2882e-08
1.11348e-05
-3.2285e-08
1.11399e-05
-3.14801e-08
1.11448e-05
-3.05645e-08
1.11494e-05
-2.95895e-08
1.11538e-05
-2.85946e-08
1.1158e-05
-2.76074e-08
1.1162e-05
-2.66428e-08
1.11657e-05
-2.57077e-08
1.11692e-05
-2.48051e-08
-2.39316e-08
1.11726e-05
9.65583e-06
-5.74179e-09
9.65935e-06
-1.91538e-08
9.66495e-06
-2.97361e-08
9.67062e-06
-3.44501e-08
9.67625e-06
-3.67649e-08
9.68188e-06
-3.81376e-08
9.6873e-06
-3.84774e-08
9.69242e-06
-3.80036e-08
9.69726e-06
-3.71235e-08
9.70184e-06
-3.60597e-08
9.70617e-06
-3.4892e-08
9.71025e-06
-3.36717e-08
9.7141e-06
-3.24436e-08
9.71773e-06
-3.1237e-08
9.72115e-06
-3.00662e-08
9.72438e-06
-2.89371e-08
9.72743e-06
-2.78508e-08
-2.68025e-08
9.7303e-06
8.40543e-06
-5.82091e-09
8.4098e-06
-2.35257e-08
8.4153e-06
-3.52345e-08
8.42049e-06
-3.96337e-08
8.42591e-06
-4.21866e-08
8.43137e-06
-4.35989e-08
8.43651e-06
-4.36161e-08
8.44125e-06
-4.27499e-08
8.44567e-06
-4.15363e-08
8.44978e-06
-4.01754e-08
8.45361e-06
-3.87243e-08
8.45718e-06
-3.72352e-08
8.46049e-06
-3.57559e-08
8.46357e-06
-3.43153e-08
8.46643e-06
-3.2927e-08
8.46909e-06
-3.1597e-08
8.47156e-06
-3.0326e-08
-2.91101e-08
8.47387e-06
7.31506e-06
-3.59284e-09
7.32194e-06
-3.04078e-08
7.32738e-06
-4.06798e-08
7.33215e-06
-4.43952e-08
7.33745e-06
-4.74903e-08
7.34281e-06
-4.89632e-08
7.34776e-06
-4.85664e-08
7.35223e-06
-4.72181e-08
7.35626e-06
-4.55653e-08
7.35987e-06
-4.37865e-08
7.36309e-06
-4.19407e-08
7.36594e-06
-4.00911e-08
7.36848e-06
-3.82874e-08
7.37072e-06
-3.65555e-08
7.3727e-06
-3.49071e-08
7.37445e-06
-3.33468e-08
7.37599e-06
-3.18716e-08
-3.04753e-08
7.37736e-06
6.36222e-06
4.25355e-09
6.37294e-06
-4.11297e-08
6.38006e-06
-4.78019e-08
6.38624e-06
-5.0569e-08
6.3922e-06
-5.34511e-08
6.39748e-06
-5.42406e-08
6.40182e-06
-5.29134e-08
6.40539e-06
-5.07814e-08
6.40828e-06
-4.84585e-08
6.41055e-06
-4.60571e-08
6.41225e-06
-4.36448e-08
6.41346e-06
-4.12991e-08
6.41424e-06
-3.90687e-08
6.41466e-06
-3.69732e-08
6.41477e-06
-3.50191e-08
6.41463e-06
-3.32077e-08
6.41429e-06
-3.15306e-08
-2.99674e-08
6.41378e-06
5.53608e-06
1.36389e-08
5.54775e-06
-5.28012e-08
5.55743e-06
-5.74842e-08
5.566e-06
-5.91324e-08
5.57276e-06
-6.02107e-08
5.57717e-06
-5.86525e-08
5.5793e-06
-5.50494e-08
5.57973e-06
-5.12037e-08
5.57886e-06
-4.75898e-08
5.57698e-06
-4.41794e-08
5.57431e-06
-4.09798e-08
5.57104e-06
-3.80289e-08
5.56732e-06
-3.534e-08
5.56325e-06
-3.29049e-08
5.55894e-06
-3.07092e-08
5.55448e-06
-2.87498e-08
5.54997e-06
-2.70177e-08
-2.5452e-08
5.54545e-06
4.85751e-06
-1.62615e-08
4.86091e-06
-5.62013e-08
4.8615e-06
-5.80743e-08
4.85883e-06
-5.64605e-08
4.85481e-06
-5.61987e-08
4.84811e-06
-5.19506e-08
4.83885e-06
-4.57881e-08
4.82759e-06
-3.99432e-08
4.81497e-06
-3.49698e-08
4.80158e-06
-3.07908e-08
4.78787e-06
-2.727e-08
4.77415e-06
-2.43045e-08
4.76061e-06
-2.18034e-08
4.74739e-06
-1.96875e-08
4.73458e-06
-1.7894e-08
4.72224e-06
-1.64128e-08
4.71049e-06
-1.52706e-08
-1.49602e-08
4.7e-06
4.18641e-06
4.13021e-06
4.07214e-06
4.01568e-06
3.95948e-06
3.90753e-06
3.86174e-06
3.8218e-06
3.78683e-06
3.75604e-06
3.72877e-06
3.70446e-06
3.68266e-06
3.66297e-06
3.64508e-06
3.62867e-06
3.61339e-06
3.59843e-06
9.05063e-09
-9.05063e-09
1.9838e-08
-1.07874e-08
2.78869e-08
-8.04887e-09
3.19427e-08
-4.05576e-09
3.16573e-08
2.85427e-10
2.7527e-08
4.13025e-09
2.01874e-08
7.33962e-09
1.03496e-08
9.83773e-09
-1.39001e-09
1.17397e-08
-1.46117e-08
1.32217e-08
-2.90516e-08
1.44398e-08
-4.45487e-08
1.54971e-08
-6.10101e-08
1.64614e-08
-7.83817e-08
1.73715e-08
-9.66294e-08
1.82478e-08
-1.15729e-07
1.90998e-08
-1.3566e-07
1.99312e-08
-1.56403e-07
2.07428e-08
-1.77937e-07
2.15341e-08
-2.00241e-07
2.23041e-08
-2.23292e-07
2.30511e-08
-2.47065e-07
2.37721e-08
-2.71527e-07
2.44626e-08
-2.96644e-07
2.51169e-08
-3.22375e-07
2.57309e-08
-3.48681e-07
2.63056e-08
-3.75529e-07
2.68483e-08
-4.02899e-07
2.73704e-08
-4.30782e-07
2.78823e-08
-4.5918e-07
2.83988e-08
-4.88136e-07
2.8956e-08
-5.17753e-07
2.9617e-08
-5.48177e-07
3.04237e-08
-5.79484e-07
3.1307e-08
-6.11556e-07
3.2072e-08
-6.44364e-07
3.28076e-08
-6.79226e-07
3.48624e-08
-7.17518e-07
3.82922e-08
-7.43037e-07
2.55184e-08
-7.70897e-07
2.78602e-08
-8.21866e-07
5.09693e-08
-8.74252e-07
5.23855e-08
-9.18928e-07
4.46766e-08
-9.62352e-07
4.34238e-08
-1.00099e-06
3.86334e-08
-1.04052e-06
3.95386e-08
-1.08307e-06
4.25467e-08
-1.12654e-06
4.34739e-08
-1.17079e-06
4.42414e-08
-1.21547e-06
4.46802e-08
-1.26037e-06
4.4905e-08
-1.30535e-06
4.49832e-08
-1.35031e-06
4.49572e-08
-1.39517e-06
4.48558e-08
-1.43986e-06
4.46972e-08
-1.48436e-06
4.44932e-08
-1.52861e-06
4.42508e-08
-1.57258e-06
4.39743e-08
-1.61625e-06
4.36662e-08
-1.65958e-06
4.33273e-08
-1.70253e-06
4.29579e-08
-1.74509e-06
4.25575e-08
-1.78722e-06
4.21254e-08
-1.82888e-06
4.16606e-08
-1.87004e-06
4.1162e-08
-1.91067e-06
4.06285e-08
-1.95073e-06
4.00591e-08
-1.99018e-06
3.94528e-08
-2.02899e-06
3.88087e-08
-2.06712e-06
3.81261e-08
-2.10452e-06
3.74046e-08
-2.14116e-06
3.66436e-08
-2.17701e-06
3.58429e-08
-2.21201e-06
3.50025e-08
-2.24613e-06
3.41225e-08
-2.27933e-06
3.32031e-08
-2.31158e-06
3.22446e-08
-2.34283e-06
3.12476e-08
-2.37304e-06
3.02127e-08
-2.40218e-06
2.91405e-08
-2.43021e-06
2.80318e-08
-2.4571e-06
2.68873e-08
-2.48281e-06
2.57079e-08
-2.5073e-06
2.44943e-08
-2.53055e-06
2.32471e-08
-2.55251e-06
2.19668e-08
-2.57317e-06
2.06537e-08
-2.59248e-06
1.93079e-08
-2.61041e-06
1.79289e-08
-2.62692e-06
1.65158e-08
-2.64199e-06
1.50669e-08
-2.65557e-06
1.35797e-08
-2.66762e-06
1.20503e-08
-2.67809e-06
1.04723e-08
-2.68693e-06
8.83723e-09
-2.69406e-06
7.13312e-09
-2.6994e-06
5.34295e-09
-2.70286e-06
3.45568e-09
-2.70433e-06
1.47474e-09
-2.7038e-06
-5.3103e-10
-2.70161e-06
-2.19296e-09
-2.69783e-06
-3.7843e-09
-2.69248e-06
-5.34553e-09
-2.68558e-06
-6.89928e-09
-2.67712e-06
-8.45723e-09
-2.6671e-06
-1.00214e-08
-2.65551e-06
-1.15912e-08
-2.64235e-06
-1.31652e-08
-2.6276e-06
-1.47412e-08
-2.61129e-06
-1.63173e-08
-2.5934e-06
-1.78914e-08
-2.57393e-06
-1.94614e-08
-2.55291e-06
-2.1025e-08
-2.53033e-06
-2.25804e-08
-2.5062e-06
-2.41253e-08
-2.48055e-06
-2.56578e-08
-2.45337e-06
-2.71758e-08
-2.42469e-06
-2.86773e-08
-2.39453e-06
-3.01602e-08
-2.36291e-06
-3.16225e-08
-2.32985e-06
-3.30622e-08
-2.29537e-06
-3.44775e-08
-2.2595e-06
-3.58664e-08
-2.22228e-06
-3.72271e-08
-2.18372e-06
-3.85579e-08
-2.14386e-06
-3.98571e-08
-2.10274e-06
-4.11229e-08
-2.06039e-06
-4.23538e-08
-2.01684e-06
-4.3548e-08
-1.97213e-06
-4.4704e-08
-1.92631e-06
-4.58204e-08
-1.87942e-06
-4.68957e-08
-1.83149e-06
-4.79288e-08
-1.78257e-06
-4.89186e-08
-1.73271e-06
-4.9864e-08
-1.68194e-06
-5.0764e-08
-1.63032e-06
-5.16177e-08
-1.5779e-06
-5.24244e-08
-1.52472e-06
-5.31834e-08
-1.47082e-06
-5.38945e-08
-1.41626e-06
-5.45573e-08
-1.36109e-06
-5.51717e-08
-1.30536e-06
-5.57375e-08
-1.2491e-06
-5.62549e-08
-1.19238e-06
-5.67244e-08
-1.13523e-06
-5.71465e-08
-1.07771e-06
-5.75217e-08
-1.01986e-06
-5.78508e-08
-9.61722e-07
-5.81348e-08
-9.03347e-07
-5.83751e-08
-8.44774e-07
-5.85729e-08
-7.86045e-07
-5.87297e-08
-7.27198e-07
-5.88471e-08
-6.6827e-07
-5.89271e-08
-6.09299e-07
-5.89714e-08
-5.50317e-07
-5.89822e-08
-4.91356e-07
-5.89613e-08
-4.32445e-07
-5.89107e-08
-3.73613e-07
-5.88317e-08
-3.14888e-07
-5.87251e-08
-2.56296e-07
-5.8592e-08
-1.97868e-07
-5.84284e-08
-1.39633e-07
-5.82344e-08
-8.16236e-08
-5.80097e-08
-2.38796e-08
-5.7744e-08
3.35635e-08
-5.74431e-08
9.06664e-08
-5.71028e-08
1.47429e-07
-5.67626e-08
2.03873e-07
-5.64441e-08
2.60015e-07
-5.61424e-08
3.15853e-07
-5.58374e-08
3.71356e-07
-5.55032e-08
4.26457e-07
-5.51005e-08
4.81019e-07
-5.45622e-08
5.34777e-07
-5.37583e-08
5.872e-07
-5.2423e-08
6.37078e-07
-4.98779e-08
6.81565e-07
-4.44875e-08
7.13133e-07
-3.15672e-08
8.31586e-09
7.04817e-07
7.06441e-09
-1.6115e-08
9.84302e-09
-1.3566e-08
8.7404e-09
-6.94625e-09
4.8827e-09
-1.9806e-10
-1.08499e-09
6.25312e-09
-9.05567e-09
1.21009e-08
-1.89405e-08
1.72245e-08
-3.06831e-08
2.15803e-08
-4.41704e-08
2.5227e-08
-5.9239e-08
2.82903e-08
-7.57157e-08
3.09166e-08
-9.34522e-08
3.32336e-08
-1.1233e-07
3.53394e-08
-1.32263e-07
3.73039e-08
-1.53188e-07
3.9173e-08
-1.75064e-07
4.09758e-08
-1.97863e-07
4.273e-08
-2.21566e-07
4.44461e-08
-2.46162e-07
4.61306e-08
-2.71646e-07
4.77872e-08
-2.98013e-07
4.94182e-08
-3.25265e-07
5.10247e-08
-3.53411e-07
5.26079e-08
-3.82465e-07
5.41707e-08
-4.12455e-07
5.5721e-08
-4.43423e-07
5.72744e-08
-4.75429e-07
5.88544e-08
-5.08549e-07
6.04897e-08
-5.42877e-07
6.2211e-08
-5.78531e-07
6.4052e-08
-6.15626e-07
6.60516e-08
-6.54246e-07
6.82372e-08
-6.94395e-07
7.05726e-08
-7.35985e-07
7.28967e-08
-7.78887e-07
7.49739e-08
-8.22897e-07
7.68174e-08
-8.6685e-07
7.88158e-08
-9.08805e-07
8.02474e-08
-9.62258e-07
7.89708e-08
-1.01529e-06
8.08933e-08
-1.05272e-06
8.83977e-08
-1.09166e-06
9.13301e-08
-1.13691e-06
8.99193e-08
-1.18155e-06
8.80659e-08
-1.22887e-06
8.59568e-08
-1.27494e-06
8.56113e-08
-1.31853e-06
8.61292e-08
-1.36133e-06
8.62815e-08
-1.40337e-06
8.62725e-08
-1.44481e-06
8.61287e-08
-1.48577e-06
8.58619e-08
-1.52628e-06
8.5496e-08
-1.56637e-06
8.50474e-08
-1.60605e-06
8.45291e-08
-1.6453e-06
8.39506e-08
-1.68413e-06
8.33179e-08
-1.72251e-06
8.26346e-08
-1.76044e-06
8.19023e-08
-1.79789e-06
8.11213e-08
-1.83486e-06
8.02906e-08
-1.87131e-06
7.9409e-08
-1.90722e-06
7.84744e-08
-1.94258e-06
7.74846e-08
-1.97736e-06
7.64376e-08
-2.01153e-06
7.5331e-08
-2.04506e-06
7.41628e-08
-2.07794e-06
7.29311e-08
-2.11012e-06
7.16342e-08
-2.14158e-06
7.02706e-08
-2.17229e-06
6.88393e-08
-2.20223e-06
6.73393e-08
-2.23135e-06
6.57699e-08
-2.25964e-06
6.4131e-08
-2.28706e-06
6.24224e-08
-2.31358e-06
6.06444e-08
-2.33918e-06
5.87974e-08
-2.36381e-06
5.68822e-08
-2.38747e-06
5.48994e-08
-2.4101e-06
5.28502e-08
-2.4317e-06
5.07358e-08
-2.45223e-06
4.85574e-08
-2.47165e-06
4.63162e-08
-2.48996e-06
4.40137e-08
-2.50712e-06
4.1651e-08
-2.5231e-06
3.92294e-08
-2.53788e-06
3.67499e-08
-2.55144e-06
3.42134e-08
-2.56375e-06
3.16203e-08
-2.5748e-06
2.8971e-08
-2.58455e-06
2.62654e-08
-2.59298e-06
2.35031e-08
-2.60009e-06
2.06833e-08
-2.60584e-06
1.78054e-08
-2.61024e-06
1.48687e-08
-2.61327e-06
1.18738e-08
-2.61496e-06
8.82371e-09
-2.61535e-06
5.72691e-09
-2.6145e-06
2.60498e-09
-2.61254e-06
-4.79282e-10
-2.60949e-06
-3.5817e-09
-2.6051e-06
-6.58917e-09
-2.59926e-06
-9.61902e-09
-2.59194e-06
-1.26705e-08
-2.5831e-06
-1.57406e-08
-2.57272e-06
-1.88286e-08
-2.56081e-06
-2.19323e-08
-2.54736e-06
-2.50482e-08
-2.53235e-06
-2.81724e-08
-2.51579e-06
-3.13008e-08
-2.49768e-06
-3.44293e-08
-2.47802e-06
-3.75535e-08
-2.45681e-06
-4.06694e-08
-2.43406e-06
-4.37726e-08
-2.40978e-06
-4.68591e-08
-2.38398e-06
-4.99248e-08
-2.35667e-06
-5.29656e-08
-2.32787e-06
-5.59775e-08
-2.29759e-06
-5.89564e-08
-2.26586e-06
-6.18982e-08
-2.23268e-06
-6.4799e-08
-2.19809e-06
-6.76548e-08
-2.1621e-06
-7.04618e-08
-2.12475e-06
-7.32163e-08
-2.08606e-06
-7.59145e-08
-2.04607e-06
-7.85531e-08
-2.0048e-06
-8.11286e-08
-1.96228e-06
-8.36377e-08
-1.91856e-06
-8.6077e-08
-1.87366e-06
-8.84435e-08
-1.82763e-06
-9.07338e-08
-1.78051e-06
-9.2945e-08
-1.73233e-06
-9.50745e-08
-1.68314e-06
-9.71198e-08
-1.63298e-06
-9.90788e-08
-1.58189e-06
-1.00949e-07
-1.52993e-06
-1.0273e-07
-1.47713e-06
-1.04417e-07
-1.42354e-06
-1.06012e-07
-1.36921e-06
-1.07511e-07
-1.31419e-06
-1.08915e-07
-1.25853e-06
-1.10222e-07
-1.20227e-06
-1.11433e-07
-1.14546e-06
-1.12548e-07
-1.08815e-06
-1.13566e-07
-1.03038e-06
-1.14488e-07
-9.72212e-07
-1.15316e-07
-9.13683e-07
-1.16051e-07
-8.54839e-07
-1.16694e-07
-7.95726e-07
-1.17248e-07
-7.36388e-07
-1.17714e-07
-6.76865e-07
-1.18096e-07
-6.17199e-07
-1.18396e-07
-5.57429e-07
-1.18617e-07
-4.97591e-07
-1.18765e-07
-4.37721e-07
-1.18841e-07
-3.77852e-07
-1.18851e-07
-3.18015e-07
-1.18798e-07
-2.5824e-07
-1.18686e-07
-1.98552e-07
-1.18519e-07
-1.3898e-07
-1.18297e-07
-7.9547e-08
-1.18025e-07
-2.02766e-08
-1.17699e-07
3.88051e-08
-1.17316e-07
9.76721e-08
-1.16877e-07
1.56308e-07
-1.16379e-07
2.14699e-07
-1.15835e-07
2.72852e-07
-1.15255e-07
3.30761e-07
-1.14672e-07
3.88422e-07
-1.14105e-07
4.45824e-07
-1.13544e-07
5.02949e-07
-1.12962e-07
5.59756e-07
-1.1231e-07
6.16167e-07
-1.11512e-07
6.7204e-07
-1.10434e-07
7.27106e-07
-1.08824e-07
7.80872e-07
-1.0619e-07
8.32374e-07
-1.0138e-07
8.80007e-07
-9.21199e-08
9.20476e-07
-7.20366e-08
-2.51148e-08
9.53907e-07
5.10984e-10
-1.6626e-08
-3.87583e-09
-9.17922e-09
-1.07751e-08
-4.69682e-11
-1.91827e-08
8.20954e-09
-2.88366e-08
1.5907e-08
-3.96786e-08
2.29429e-08
-5.17369e-08
2.92828e-08
-6.50709e-08
3.49144e-08
-7.97178e-08
3.98738e-08
-9.56701e-08
4.42426e-08
-1.12881e-07
4.81275e-08
-1.31285e-07
5.16374e-08
-1.50814e-07
5.48689e-08
-1.7141e-07
5.78997e-08
-1.93025e-07
6.07884e-08
-2.15627e-07
6.35772e-08
-2.39192e-07
6.62954e-08
-2.6371e-07
6.89638e-08
-2.89176e-07
7.15968e-08
-3.15594e-07
7.42051e-08
-3.42973e-07
7.67971e-08
-3.71328e-07
7.93801e-08
-4.00682e-07
8.19623e-08
-4.31065e-07
8.45536e-08
-4.62513e-07
8.71685e-08
-4.95064e-07
8.98257e-08
-5.28756e-07
9.25465e-08
-5.63618e-07
9.5351e-08
-5.9966e-07
9.82531e-08
-6.36863e-07
1.01256e-07
-6.75156e-07
1.04344e-07
-7.14389e-07
1.07471e-07
-7.54353e-07
1.10536e-07
-7.94845e-07
1.13389e-07
-8.35757e-07
1.15886e-07
-8.76952e-07
1.18013e-07
-9.17946e-07
1.19809e-07
-9.58826e-07
1.21127e-07
-1.00204e-06
1.22185e-07
-1.04502e-06
1.2387e-07
-1.08278e-06
1.26163e-07
-1.1188e-06
1.27349e-07
-1.156e-06
1.27123e-07
-1.19411e-06
1.26173e-07
-1.23326e-06
1.25106e-07
-1.27206e-06
1.24408e-07
-1.30987e-06
1.23937e-07
-1.34703e-06
1.2345e-07
-1.38369e-06
1.22927e-07
-1.41991e-06
1.2235e-07
-1.45576e-06
1.2171e-07
-1.49127e-06
1.21007e-07
-1.52646e-06
1.20241e-07
-1.56135e-06
1.19413e-07
-1.59592e-06
1.18525e-07
-1.63018e-06
1.17576e-07
-1.66411e-06
1.16566e-07
-1.6977e-06
1.15493e-07
-1.73093e-06
1.14354e-07
-1.76379e-06
1.13146e-07
-1.79625e-06
1.11867e-07
-1.82828e-06
1.10512e-07
-1.85988e-06
1.09078e-07
-1.891e-06
1.07562e-07
-1.92163e-06
1.0596e-07
-1.95174e-06
1.04268e-07
-1.98129e-06
1.02485e-07
-2.01026e-06
1.00608e-07
-2.03863e-06
9.86337e-08
-2.06635e-06
9.65618e-08
-2.0934e-06
9.43907e-08
-2.11975e-06
9.21193e-08
-2.14537e-06
8.97473e-08
-2.17022e-06
8.72744e-08
-2.19427e-06
8.4701e-08
-2.2175e-06
8.20277e-08
-2.23988e-06
7.92553e-08
-2.26136e-06
7.6385e-08
-2.28193e-06
7.34183e-08
-2.30155e-06
7.03568e-08
-2.3202e-06
6.72022e-08
-2.33784e-06
6.39565e-08
-2.35445e-06
6.06217e-08
-2.36999e-06
5.71998e-08
-2.38446e-06
5.36927e-08
-2.39781e-06
5.01025e-08
-2.41003e-06
4.64308e-08
-2.42109e-06
4.26794e-08
-2.43097e-06
3.88498e-08
-2.43964e-06
3.49436e-08
-2.4471e-06
3.09621e-08
-2.45333e-06
2.69072e-08
-2.4583e-06
2.27813e-08
-2.46202e-06
1.85879e-08
-2.46448e-06
1.43326e-08
-2.46568e-06
1.00233e-08
-2.46563e-06
5.67235e-09
-2.46432e-06
1.29683e-09
-2.46172e-06
-3.08189e-09
-2.45782e-06
-7.48076e-09
-2.45251e-06
-1.18979e-08
-2.44577e-06
-1.63577e-08
-2.43758e-06
-2.0859e-08
-2.42792e-06
-2.5397e-08
-2.41679e-06
-2.99662e-08
-2.40416e-06
-3.45606e-08
-2.39003e-06
-3.91742e-08
-2.3744e-06
-4.38005e-08
-2.35727e-06
-4.84334e-08
-2.33863e-06
-5.30665e-08
-2.31849e-06
-5.76935e-08
-2.29686e-06
-6.2308e-08
-2.27372e-06
-6.6904e-08
-2.24911e-06
-7.14753e-08
-2.22302e-06
-7.60158e-08
-2.19546e-06
-8.05195e-08
-2.16646e-06
-8.49803e-08
-2.13602e-06
-8.93924e-08
-2.10417e-06
-9.37496e-08
-2.07093e-06
-9.8046e-08
-2.0363e-06
-1.02276e-07
-2.00033e-06
-1.06433e-07
-1.96304e-06
-1.10513e-07
-1.92444e-06
-1.14509e-07
-1.88458e-06
-1.18416e-07
-1.84348e-06
-1.2223e-07
-1.80117e-06
-1.25946e-07
-1.75769e-06
-1.29558e-07
-1.71307e-06
-1.33061e-07
-1.66735e-06
-1.36452e-07
-1.62057e-06
-1.39726e-07
-1.57277e-06
-1.42878e-07
-1.52398e-06
-1.45905e-07
-1.47426e-06
-1.48803e-07
-1.42364e-06
-1.51571e-07
-1.37216e-06
-1.54204e-07
-1.31988e-06
-1.567e-07
-1.26684e-06
-1.59057e-07
-1.21307e-06
-1.61273e-07
-1.15864e-06
-1.63348e-07
-1.10358e-06
-1.65279e-07
-1.04795e-06
-1.67067e-07
-9.91787e-07
-1.68712e-07
-9.35139e-07
-1.70213e-07
-8.78055e-07
-1.71572e-07
-8.2058e-07
-1.72792e-07
-7.62759e-07
-1.73872e-07
-7.04636e-07
-1.74817e-07
-6.46256e-07
-1.75628e-07
-5.87659e-07
-1.7631e-07
-5.28888e-07
-1.76867e-07
-4.69981e-07
-1.77302e-07
-4.10976e-07
-1.77622e-07
-3.5191e-07
-1.77831e-07
-2.92817e-07
-1.77935e-07
-2.33727e-07
-1.7794e-07
-1.74673e-07
-1.77853e-07
-1.15681e-07
-1.77678e-07
-5.6778e-08
-1.77422e-07
2.01356e-09
-1.77089e-07
6.06692e-08
-1.76681e-07
1.19168e-07
-1.76197e-07
1.77492e-07
-1.7564e-07
2.35625e-07
-1.7501e-07
2.93563e-07
-1.74318e-07
3.51314e-07
-1.73585e-07
4.08886e-07
-1.72827e-07
4.66268e-07
-1.72054e-07
5.2344e-07
-1.71277e-07
5.80382e-07
-1.70487e-07
6.37068e-07
-1.69647e-07
6.93451e-07
-1.68694e-07
7.49455e-07
-1.67516e-07
8.04943e-07
-1.65922e-07
8.59679e-07
-1.6356e-07
9.13261e-07
-1.59772e-07
9.65062e-07
-1.53181e-07
1.01418e-06
-1.4124e-07
1.06011e-06
-1.17968e-07
-7.20086e-08
1.10701e-06
-5.74878e-09
-1.08772e-08
-1.53446e-08
4.16576e-10
-2.60969e-08
1.07054e-08
-3.77587e-08
1.98713e-08
-5.01331e-08
2.82814e-08
-6.32373e-08
3.60471e-08
-7.71435e-08
4.3189e-08
-9.19428e-08
4.97137e-08
-1.07716e-07
5.56468e-08
-1.24515e-07
6.10416e-08
-1.4236e-07
6.59726e-08
-1.61246e-07
7.05237e-08
-1.81154e-07
7.47766e-08
-2.02058e-07
7.88036e-08
-2.23934e-07
8.26642e-08
-2.46762e-07
8.64051e-08
-2.70528e-07
9.00615e-08
-2.95224e-07
9.36599e-08
-3.20847e-07
9.72201e-08
-3.47399e-07
1.00757e-07
-3.74883e-07
1.04281e-07
-4.03306e-07
1.07804e-07
-4.32676e-07
1.11332e-07
-4.62997e-07
1.14874e-07
-4.94268e-07
1.1844e-07
-5.26478e-07
1.22035e-07
-5.59596e-07
1.25664e-07
-5.93566e-07
1.29322e-07
-6.28305e-07
1.32992e-07
-6.63689e-07
1.3664e-07
-6.99559e-07
1.40213e-07
-7.35724e-07
1.43635e-07
-7.71996e-07
1.46808e-07
-8.08239e-07
1.49632e-07
-8.44393e-07
1.5204e-07
-8.80411e-07
1.54031e-07
-9.16234e-07
1.55632e-07
-9.51965e-07
1.56859e-07
-9.87663e-07
1.57883e-07
-1.02274e-06
1.58942e-07
-1.05645e-06
1.59878e-07
-1.08936e-06
1.60255e-07
-1.12224e-06
1.60005e-07
-1.15541e-06
1.59342e-07
-1.18883e-06
1.58525e-07
-1.22216e-06
1.57741e-07
-1.25521e-06
1.56993e-07
-1.288e-06
1.56237e-07
-1.32053e-06
1.5546e-07
-1.35283e-06
1.54646e-07
-1.38491e-06
1.53786e-07
-1.41677e-06
1.52872e-07
-1.44843e-06
1.51899e-07
-1.47988e-06
1.50863e-07
-1.51111e-06
1.4976e-07
-1.54212e-06
1.48585e-07
-1.57289e-06
1.47336e-07
-1.60341e-06
1.46007e-07
-1.63365e-06
1.44593e-07
-1.66359e-06
1.43089e-07
-1.69321e-06
1.41491e-07
-1.72249e-06
1.39793e-07
-1.75141e-06
1.3799e-07
-1.77992e-06
1.36077e-07
-1.80801e-06
1.34051e-07
-1.83565e-06
1.31907e-07
-1.86281e-06
1.29641e-07
-1.88945e-06
1.27251e-07
-1.91555e-06
1.24733e-07
-1.94107e-06
1.22086e-07
-1.96599e-06
1.19309e-07
-1.99027e-06
1.16399e-07
-2.01388e-06
1.13356e-07
-2.03679e-06
1.10181e-07
-2.05896e-06
1.06873e-07
-2.08036e-06
1.03433e-07
-2.10097e-06
9.98636e-08
-2.12075e-06
9.61647e-08
-2.13967e-06
9.23389e-08
-2.1577e-06
8.83882e-08
-2.17482e-06
8.43152e-08
-2.19098e-06
8.01223e-08
-2.20617e-06
7.58123e-08
-2.22036e-06
7.13882e-08
-2.23352e-06
6.68528e-08
-2.24563e-06
6.22091e-08
-2.25666e-06
5.74597e-08
-2.26659e-06
5.26078e-08
-2.27539e-06
4.76559e-08
-2.28306e-06
4.26072e-08
-2.28956e-06
3.74644e-08
-2.29488e-06
3.22313e-08
-2.29901e-06
2.69117e-08
-2.30194e-06
2.1511e-08
-2.30364e-06
1.60355e-08
-2.30411e-06
1.04931e-08
-2.30333e-06
4.8934e-09
-2.30128e-06
-7.53973e-10
-2.29792e-06
-6.44228e-09
-2.29322e-06
-1.2177e-08
-2.28715e-06
-1.79657e-08
-2.2797e-06
-2.38155e-08
-2.27083e-06
-2.97221e-08
-2.26055e-06
-3.56789e-08
-2.24884e-06
-4.16782e-08
-2.23569e-06
-4.77116e-08
-2.22109e-06
-5.37706e-08
-2.20505e-06
-5.98468e-08
-2.18755e-06
-6.59319e-08
-2.1686e-06
-7.20174e-08
-2.14819e-06
-7.80949e-08
-2.12635e-06
-8.41564e-08
-2.10306e-06
-9.01936e-08
-2.07833e-06
-9.61983e-08
-2.05219e-06
-1.02163e-07
-2.02463e-06
-1.08079e-07
-1.99567e-06
-1.13939e-07
-1.96533e-06