/*--------------------------------*- C++ -*----------------------------------*\
  =========                 |
  \\      /  F ield         | OpenFOAM: The Open Source CFD Toolbox
   \\    /   O peration     | Website:  https://openfoam.org
    \\  /    A nd           | Version:  9
     \\/     M anipulation  |
\*---------------------------------------------------------------------------*/
FoamFile
{
    format      ascii;
    class       volVectorField;
    location    "0.3";
    object      U;
}
// * * * * * * * * * * * * * * * * * * * * * * * * * * * * * * * * * * * * * //

dimensions      [0 1 -1 0 0 0 0];

internalField   nonuniform List<vector> 
12225
(
(9.86107 -0.874318 0)
(9.67248 -0.700192 0)
(9.45897 -0.387593 0)
(9.22467 -0.188479 0)
(9.0035 -0.084395 0)
(8.81041 -0.0328776 0)
(8.64514 -0.00755304 0)
(8.50415 0.00502179 0)
(8.38398 0.0113328 0)
(8.28112 0.014468 0)
(8.19217 0.015962 0)
(8.11426 0.01663 0)
(8.04501 0.0169145 0)
(7.9826 0.0171068 0)
(7.92412 0.0173989 0)
(7.87056 0.0184951 0)
(7.80135 0.0214552 0)
(7.77509 0.0298221 0)
(10.0547 0.263069 0)
(10.1201 0.36074 0)
(10.118 0.27382 0)
(10.0826 0.187085 0)
(10.0405 0.131159 0)
(9.99393 0.0969229 0)
(9.94013 0.0755521 0)
(9.88041 0.0617435 0)
(9.81785 0.0523362 0)
(9.75494 0.0455173 0)
(9.69312 0.0403434 0)
(9.63321 0.0363535 0)
(9.57558 0.0332911 0)
(9.52062 0.0311364 0)
(9.46755 0.0297226 0)
(9.41883 0.0308075 0)
(9.36751 0.0318688 0)
(9.34226 0.0521482 0)
(9.99919 0.0460863 0)
(10.0244 0.034208 0)
(10.0538 0.0149472 0)
(10.0708 0.0218065 0)
(10.0778 0.0366668 0)
(10.0783 0.0460015 0)
(10.0722 0.04994 0)
(10.0603 0.0511287 0)
(10.0439 0.0510325 0)
(10.0246 0.0503126 0)
(10.0031 0.0493399 0)
(9.98006 0.0483603 0)
(9.95593 0.0475233 0)
(9.93117 0.0470612 0)
(9.90572 0.0470465 0)
(9.88062 0.0488057 0)
(9.85511 0.0515158 0)
(9.83523 0.0628021 0)
(9.9968 0.00642723 0)
(10.0085 0.0250161 0)
(10.0342 0.038934 0)
(10.0528 0.0502964 0)
(10.0644 0.0570993 0)
(10.0731 0.0591526 0)
(10.079 0.0588375 0)
(10.0817 0.0579137 0)
(10.0816 0.0569028 0)
(10.0795 0.0558799 0)
(10.0758 0.0548976 0)
(10.0708 0.0540421 0)
(10.0645 0.0534028 0)
(10.0574 0.0531721 0)
(10.0494 0.0534823 0)
(10.0412 0.0552022 0)
(10.0333 0.0579968 0)
(10.0279 0.0643419 0)
(9.99922 0.00673647 0)
(10.0081 0.0335707 0)
(10.0271 0.0460376 0)
(10.0418 0.0508366 0)
(10.0524 0.0539019 0)
(10.0622 0.0554869 0)
(10.0709 0.0558294 0)
(10.0775 0.0556405 0)
(10.0823 0.0552661 0)
(10.0858 0.0547972 0)
(10.0881 0.0543078 0)
(10.0895 0.0539018 0)
(10.09 0.0536881 0)
(10.0899 0.0538391 0)
(10.0892 0.0545038 0)
(10.0885 0.0561673 0)
(10.0884 0.0586412 0)
(10.09 0.0624035 0)
(10.0002 0.00907275 0)
(10.0078 0.0321206 0)
(10.0225 0.041904 0)
(10.035 0.0456547 0)
(10.0448 0.0491105 0)
(10.0542 0.0516426 0)
(10.063 0.0527766 0)
(10.0705 0.0531228 0)
(10.0767 0.0531564 0)
(10.0819 0.0530411 0)
(10.0864 0.0528682 0)
(10.0901 0.0527448 0)
(10.0933 0.0527808 0)
(10.0959 0.0531175 0)
(10.0983 0.0538766 0)
(10.1007 0.0552954 0)
(10.1038 0.0572145 0)
(10.1081 0.0594788 0)
(10.0003 0.00879887 0)
(10.0068 0.027513 0)
(10.019 0.0370741 0)
(10.0303 0.0417279 0)
(10.0395 0.0456439 0)
(10.0483 0.0484634 0)
(10.0566 0.0498679 0)
(10.0641 0.0504546 0)
(10.0706 0.0507094 0)
(10.0764 0.0508041 0)
(10.0816 0.0508249 0)
(10.0862 0.050871 0)
(10.0904 0.0510428 0)
(10.0943 0.0514484 0)
(10.098 0.0521688 0)
(10.1019 0.0532938 0)
(10.1063 0.0546621 0)
(10.1116 0.0559543 0)
(10.0004 0.00783561 0)
(10.0057 0.0236892 0)
(10.016 0.033359 0)
(10.0264 0.0385722 0)
(10.0351 0.0424618 0)
(10.0433 0.0452494 0)
(10.0512 0.0467968 0)
(10.0585 0.047569 0)
(10.0649 0.0479906 0)
(10.0708 0.0482349 0)
(10.0763 0.0483885 0)
(10.0813 0.0485423 0)
(10.086 0.0487838 0)
(10.0904 0.0491908 0)
(10.0948 0.0498063 0)
(10.0994 0.0506372 0)
(10.1043 0.0515229 0)
(10.1098 0.0521557 0)
(10.0004 0.00694937 0)
(10.0049 0.0207015 0)
(10.0136 0.0300237 0)
(10.023 0.035384 0)
(10.0312 0.0391623 0)
(10.0389 0.0419158 0)
(10.0464 0.0435982 0)
(10.0534 0.0445349 0)
(10.0598 0.0450901 0)
(10.0657 0.0454447 0)
(10.0711 0.0456901 0)
(10.0763 0.0459085 0)
(10.0812 0.0461726 0)
(10.0859 0.0465355 0)
(10.0906 0.0470119 0)
(10.0954 0.0475674 0)
(10.1005 0.0480557 0)
(10.106 0.048238 0)
(10.0004 0.00616239 0)
(10.0042 0.0181154 0)
(10.0116 0.0267853 0)
(10.0199 0.0321197 0)
(10.0277 0.0358215 0)
(10.035 0.0385435 0)
(10.0421 0.0403184 0)
(10.0488 0.0413795 0)
(10.055 0.0420363 0)
(10.0608 0.0424713 0)
(10.0663 0.0427781 0)
(10.0715 0.0430291 0)
(10.0764 0.0432834 0)
(10.0813 0.0435756 0)
(10.0861 0.0439026 0)
(10.091 0.0442153 0)
(10.096 0.0443918 0)
(10.1013 0.0442673 0)
(10.0003 0.00542541 0)
(10.0036 0.0157922 0)
(10.0099 0.0236982 0)
(10.0173 0.0288889 0)
(10.0245 0.0324987 0)
(10.0314 0.0351536 0)
(10.0381 0.0369617 0)
(10.0446 0.0381033 0)
(10.0506 0.038833 0)
(10.0563 0.0393236 0)
(10.0617 0.0396674 0)
(10.0669 0.0399279 0)
(10.0719 0.0401519 0)
(10.0768 0.0403618 0)
(10.0816 0.040546 0)
(10.0865 0.0406563 0)
(10.0914 0.0405982 0)
(10.0964 0.0402687 0)
(10.0003 0.0047728 0)
(10.0031 0.0138466 0)
(10.0086 0.0210232 0)
(10.0152 0.0259806 0)
(10.0219 0.0294626 0)
(10.0285 0.0320222 0)
(10.0349 0.033816 0)
(10.0411 0.034994 0)
(10.0469 0.0357644 0)
(10.0525 0.0362842 0)
(10.0579 0.0366422 0)
(10.063 0.0368944 0)
(10.0679 0.0370789 0)
(10.0728 0.037211 0)
(10.0776 0.0372774 0)
(10.0823 0.0372377 0)
(10.0871 0.0370219 0)
(10.0919 0.036571 0)
(10.0003 0.00416619 0)
(10.0028 0.0120791 0)
(10.0075 0.0185083 0)
(10.0134 0.0231418 0)
(10.0197 0.0264535 0)
(10.0258 0.0288942 0)
(10.0319 0.0306396 0)
(10.0378 0.0318221 0)
(10.0436 0.0326102 0)
(10.049 0.0331416 0)
(10.0543 0.0334991 0)
(10.0593 0.0337328 0)
(10.0642 0.033874 0)
(10.069 0.0339341 0)
(10.0737 0.0339016 0)
(10.0784 0.0337458 0)
(10.083 0.0334169 0)
(10.0875 0.0328886 0)
(10.0003 0.00353419 0)
(10.0024 0.0102404 0)
(10.0064 0.0158152 0)
(10.0117 0.0199938 0)
(10.0174 0.0230473 0)
(10.0232 0.0253106 0)
(10.0289 0.0269561 0)
(10.0346 0.0281011 0)
(10.0401 0.028877 0)
(10.0454 0.0293972 0)
(10.0505 0.0297358 0)
(10.0555 0.0299367 0)
(10.0603 0.0300257 0)
(10.065 0.0300119 0)
(10.0696 0.0298883 0)
(10.0741 0.0296352 0)
(10.0785 0.0292218 0)
(10.0828 0.0286461 0)
(10.0002 0.0028752 0)
(10.002 0.0083296 0)
(10.0055 0.0129542 0)
(10.0101 0.0165431 0)
(10.0153 0.0192292 0)
(10.0206 0.0212376 0)
(10.026 0.022717 0)
(10.0314 0.0237676 0)
(10.0366 0.0244875 0)
(10.0418 0.0249646 0)
(10.0467 0.0252602 0)
(10.0516 0.0254118 0)
(10.0563 0.0254407 0)
(10.0608 0.0253557 0)
(10.0653 0.0251548 0)
(10.0696 0.0248294 0)
(10.0738 0.0243638 0)
(10.0779 0.0237722 0)
(10.0002 0.00218953 0)
(10.0017 0.00634752 0)
(10.0047 0.00993059 0)
(10.0088 0.0127912 0)
(10.0134 0.0149819 0)
(10.0183 0.0166377 0)
(10.0233 0.0178686 0)
(10.0284 0.0187527 0)
(10.0334 0.0193594 0)
(10.0383 0.019751 0)
(10.0431 0.019974 0)
(10.0478 0.020058 0)
(10.0523 0.0200206 0)
(10.0567 0.0198707 0)
(10.061 0.0196108 0)
(10.0651 0.0192405 0)
(10.0691 0.0187546 0)
(10.0729 0.018176 0)
(10.0002 0.00147412 0)
(10.0015 0.0042777 0)
(10.0041 0.00672219 0)
(10.0077 0.00871485 0)
(10.0119 0.01027 0)
(10.0164 0.0114569 0)
(10.0211 0.0123422 0)
(10.0258 0.0129763 0)
(10.0306 0.0134025 0)
(10.0353 0.0136592 0)
(10.0399 0.0137763 0)
(10.0444 0.0137744 0)
(10.0487 0.0136663 0)
(10.053 0.01346 0)
(10.0571 0.0131604 0)
(10.061 0.0127714 0)
(10.0648 0.0122934 0)
(10.0684 0.0117516 0)
(10.0001 0.000711393 0)
(10.0013 0.00206448 0)
(10.0037 0.00325001 0)
(10.0069 0.00422641 0)
(10.0108 0.00499585 0)
(10.015 0.0055828 0)
(10.0194 0.00601209 0)
(10.0239 0.00630374 0)
(10.0285 0.00647542 0)
(10.033 0.00654297 0)
(10.0374 0.00651899 0)
(10.0417 0.00641241 0)
(10.0459 0.0062295 0)
(10.05 0.00597495 0)
(10.0539 0.00565264 0)
(10.0576 0.00526691 0)
(10.0612 0.00481981 0)
(10.0646 0.00433411 0)
(10.0001 -0.000145206 0)
(10.0013 -0.000423833 0)
(10.0035 -0.000674342 0)
(10.0066 -0.000884346 0)
(10.0104 -0.00105142 0)
(10.0145 -0.00118945 0)
(10.0188 -0.00131773 0)
(10.0232 -0.00145012 0)
(10.0276 -0.00159534 0)
(10.032 -0.00176055 0)
(10.0363 -0.00195225 0)
(10.0405 -0.00217538 0)
(10.0445 -0.0024331 0)
(10.0484 -0.00272707 0)
(10.0522 -0.00305768 0)
(10.0558 -0.00342367 0)
(10.0592 -0.00382484 0)
(10.0625 -0.00424422 0)
(10.0001 -0.000968576 0)
(10.0014 -0.00282227 0)
(10.0037 -0.00446301 0)
(10.0071 -0.00580888 0)
(10.011 -0.00685368 0)
(10.0153 -0.00765898 0)
(10.0197 -0.00829176 0)
(10.0242 -0.00879728 0)
(10.0286 -0.00921008 0)
(10.033 -0.00956214 0)
(10.0373 -0.00987996 0)
(10.0415 -0.0101821 0)
(10.0455 -0.010481 0)
(10.0493 -0.0107851 0)
(10.053 -0.0111003 0)
(10.0565 -0.0114294 0)
(10.0599 -0.011775 0)
(10.063 -0.0121261 0)
(10.0002 -0.00168182 0)
(10.0015 -0.00492357 0)
(10.0042 -0.00778246 0)
(10.0079 -0.0100553 0)
(10.0123 -0.0117576 0)
(10.0168 -0.0130461 0)
(10.0215 -0.0140385 0)
(10.0261 -0.0147943 0)
(10.0307 -0.0153676 0)
(10.0352 -0.0158174 0)
(10.0395 -0.0161905 0)
(10.0437 -0.0165173 0)
(10.0477 -0.0168172 0)
(10.0515 -0.017104 0)
(10.0552 -0.0173875 0)
(10.0587 -0.0176733 0)
(10.062 -0.0179657 0)
(10.0651 -0.0182572 0)
(10.0002 -0.00236307 0)
(10.0017 -0.00701021 0)
(10.0048 -0.011115 0)
(10.0092 -0.0142197 0)
(10.014 -0.0164181 0)
(10.019 -0.0180479 0)
(10.0239 -0.0192894 0)
(10.0288 -0.0202068 0)
(10.0336 -0.0208723 0)
(10.0382 -0.0213685 0)
(10.0426 -0.0217567 0)
(10.0469 -0.0220751 0)
(10.0509 -0.0223498 0)
(10.0547 -0.0225999 0)
(10.0584 -0.0228385 0)
(10.0619 -0.0230735 0)
(10.0652 -0.0233098 0)
(10.0683 -0.0235426 0)
(10.0002 -0.00299801 0)
(10.0018 -0.00911716 0)
(10.0056 -0.0144936 0)
(10.0108 -0.018342 0)
(10.0163 -0.0209652 0)
(10.0217 -0.0228636 0)
(10.0269 -0.0242315 0)
(10.0321 -0.0251748 0)
(10.0371 -0.0258312 0)
(10.0419 -0.026312 0)
(10.0464 -0.0266774 0)
(10.0507 -0.0269624 0)
(10.0548 -0.0271956 0)
(10.0586 -0.0273996 0)
(10.0623 -0.0275893 0)
(10.0657 -0.0277729 0)
(10.069 -0.0279558 0)
(10.0721 -0.0281348 0)
(10.0001 -0.00357346 0)
(10.0019 -0.0115462 0)
(10.0064 -0.0179438 0)
(10.0127 -0.0220742 0)
(10.0189 -0.0250605 0)
(10.0247 -0.0273639 0)
(10.0304 -0.028909 0)
(10.0359 -0.0298251 0)
(10.0411 -0.0303891 0)
(10.0459 -0.030779 0)
(10.0506 -0.0310608 0)
(10.0549 -0.0312665 0)
(10.059 -0.0314256 0)
(10.0629 -0.0315614 0)
(10.0665 -0.0316877 0)
(10.07 -0.0318113 0)
(10.0732 -0.0319357 0)
(10.0763 -0.0320568 0)
(9.99997 -0.0036927 0)
(10.0018 -0.0151884 0)
(10.0076 -0.0226639 0)
(10.0148 -0.0259976 0)
(10.0214 -0.0285635 0)
(10.0277 -0.0310286 0)
(10.034 -0.0328099 0)
(10.0399 -0.0338521 0)
(10.0454 -0.0344562 0)
(10.0505 -0.0348312 0)
(10.0552 -0.0350602 0)
(10.0596 -0.0351922 0)
(10.0637 -0.0352693 0)
(10.0675 -0.0353211 0)
(10.071 -0.0353638 0)
(10.0743 -0.035406 0)
(10.0773 -0.035451 0)
(10.0802 -0.0354964 0)
(9.99898 -0.00131131 0)
(9.99999 -0.0179804 0)
(10.0085 -0.0290798 0)
(10.0174 -0.0327076 0)
(10.0244 -0.0341336 0)
(10.0311 -0.0353618 0)
(10.0382 -0.0363107 0)
(10.0448 -0.0369552 0)
(10.0507 -0.0374078 0)
(10.0558 -0.0377089 0)
(10.0605 -0.0378729 0)
(10.0646 -0.0379359 0)
(10.0683 -0.0379391 0)
(10.0716 -0.037912 0)
(10.0744 -0.0378726 0)
(10.077 -0.0378324 0)
(10.0792 -0.0377947 0)
(10.0812 -0.0377588 0)
(9.99528 0.00386744 0)
(9.99333 -0.0103158 0)
(10.007 -0.0271098 0)
(10.0212 -0.0389348 0)
(10.0311 -0.0448748 0)
(10.0391 -0.0464831 0)
(10.0465 -0.0460013 0)
(10.0529 -0.0450462 0)
(10.058 -0.0441727 0)
(10.062 -0.0434021 0)
(10.0651 -0.0426908 0)
(10.0673 -0.042036 0)
(10.0689 -0.0414441 0)
(10.0698 -0.0409147 0)
(10.0702 -0.0404455 0)
(10.0702 -0.0400353 0)
(10.0698 -0.0396747 0)
(10.0691 -0.0393367 0)
(9.99144 -0.0172944 0)
(9.99188 0.000362735 0)
(10.01 0.0176609 0)
(10.0295 0.0115815 0)
(10.0441 -0.00511828 0)
(10.054 -0.0188367 0)
(10.0599 -0.0271852 0)
(10.0622 -0.0320645 0)
(10.0616 -0.0349484 0)
(10.059 -0.0365562 0)
(10.0548 -0.0373357 0)
(10.0494 -0.0376117 0)
(10.043 -0.0375973 0)
(10.0359 -0.0374219 0)
(10.0284 -0.0371693 0)
(10.0204 -0.0369006 0)
(10.0123 -0.0366713 0)
(10.0041 -0.0364503 0)
(10.0236 -0.206008 0)
(10.0684 -0.312341 0)
(10.0788 -0.255596 0)
(10.0704 -0.184181 0)
(10.0605 -0.134907 0)
(10.0498 -0.102733 0)
(10.0342 -0.0811744 0)
(10.0129 -0.0666295 0)
(9.98772 -0.0566393 0)
(9.96047 -0.0494851 0)
(9.93223 -0.0441293 0)
(9.90371 -0.0399824 0)
(9.87539 -0.0366861 0)
(9.84762 -0.0340076 0)
(9.82062 -0.031799 0)
(9.79452 -0.0299968 0)
(9.76956 -0.0285706 0)
(9.74575 -0.027837 0)
(9.94226 0.671595 0)
(9.87995 0.567454 0)
(9.77443 0.338465 0)
(9.63235 0.183316 0)
(9.48759 0.0949029 0)
(9.35646 0.0470795 0)
(9.24087 0.0212939 0)
(9.13934 0.00707165 0)
(9.05037 -0.000988507 0)
(8.97234 -0.00563046 0)
(8.90355 -0.00832032 0)
(8.84244 -0.00988321 0)
(8.78777 -0.0107893 0)
(8.73855 -0.0113075 0)
(8.69396 -0.0115986 0)
(8.6533 -0.0117872 0)
(8.61571 -0.0119671 0)
(8.58081 -0.0124994 0)
(0.00371129 -0.00887817 -3.54175e-20)
(0.0132589 -0.0141601 3.50205e-20)
(0.0217757 -0.0126717 0)
(0.0273292 -0.00805246 0)
(0.0291737 -0.00243351 0)
(0.0270668 0.00283528 -3.29289e-20)
(0.0218179 0.00699374 0)
(0.0140606 0.00993477 0)
(0.00435084 0.0118943 0)
(-0.00683251 0.0132168 0)
(-0.0191834 0.0141817 3.04529e-20)
(-0.0325499 0.0149617 0)
(-0.0468196 0.0156553 0)
(-0.0619313 0.016312 0)
(-0.0778503 0.0169534 0)
(-0.0945542 0.0175869 2.71879e-20)
(-0.112025 0.018213 0)
(-0.130247 0.0188297 0)
(-0.149203 0.0194346 0)
(-0.168876 0.0200254 0)
(-0.189248 0.0205995 0)
(-0.210299 0.0211526 0)
(-0.232005 0.0216762 0)
(-0.254338 0.0221578 2.31239e-20)
(-0.277263 0.0225844 -2.273e-20)
(-0.300746 0.0229493 2.23616e-20)
(-0.324753 0.0232562 2.20187e-20)
(-0.349262 0.0235142 0)
(-0.37426 0.0237292 0)
(-0.399746 0.0239142 -2.11424e-20)
(-0.425732 0.0241317 -2.09007e-20)
(-0.452281 0.024529 0)
(-0.479509 0.0252735 0)
(-0.507465 0.0263912 -2.03035e-20)
(-0.536142 0.0278826 0)
(-0.566206 0.0310843 0)
(-0.598328 0.0400258 1.97979e-20)
(-0.629031 0.0508887 0)
(-0.657642 0.00892544 2.07812e-20)
(-0.687404 0.0181311 3.97954e-20)
(-0.717116 0.0878919 0)
(-0.764391 0.0858119 0)
(-0.813935 0.0541753 0)
(-0.852062 0.0448287 0)
(-0.890429 0.0278477 0)
(-0.925799 0.0275148 4.04994e-20)
(-0.962922 0.0330121 4.0048e-20)
(-1.00322 0.0334985 3.96011e-20)
(-1.04362 0.0342676 0)
(-1.08481 0.034582 -3.87307e-20)
(-1.12628 0.0346727 0)
(-1.16796 0.034614 3.7903e-20)
(-1.20971 0.034456 3.75063e-20)
(-1.25145 0.0342303 0)
(-1.29314 0.0339565 0)
(-1.33472 0.0336468 0)
(-1.37616 0.0333091 3.60241e-20)
(-1.41743 0.0329479 0)
(-1.45849 0.0325661 0)
(-1.49932 0.0321651 0)
(-1.5399 0.0317457 0)
(-1.58018 0.0313079 0)
(-1.62015 0.0308517 0)
(-1.65978 0.0303767 0)
(-1.69902 0.0298824 0)
(-1.73786 0.0293685 -3.31222e-20)
(-1.77627 0.0288346 0)
(-1.81419 0.0282804 0)
(-1.85161 0.0277056 3.22243e-20)
(-1.88848 0.0271101 3.19273e-20)
(-1.92478 0.026494 0)
(-1.96045 0.0258574 -3.13332e-20)
(-1.99547 0.0252005 3.10348e-20)
(-2.0298 0.0245238 0)
(-2.0634 0.0238277 -3.04328e-20)
(-2.09623 0.0231128 0)
(-2.12826 0.0223797 0)
(-2.15944 0.0216291 2.95081e-20)
(-2.18975 0.0208619 0)
(-2.21914 0.0200787 -2.88709e-20)
(-2.24757 0.0192805 0)
(-2.27502 0.0184678 2.82124e-20)
(-2.30145 0.0176415 2.7874e-20)
(-2.32682 0.0168021 2.75288e-20)
(-2.35111 0.0159501 5.43528e-20)
(-2.37427 0.0150855 -5.36328e-20)
(-2.39627 0.0142083 0)
(-2.41709 0.0133179 0)
(-2.43668 0.0124131 0)
(-2.45502 0.011492 -5.05839e-20)
(-2.47206 0.0105519 -4.97758e-20)
(-2.48777 0.00958879 4.89481e-20)
(-2.50212 0.00859817 0)
(-2.51505 0.0075746 -4.72315e-20)
(-2.52651 0.00651143 -4.63418e-20)
(-2.53643 0.00540226 -4.54306e-20)
(-2.54476 0.00424661 0)
(-2.55139 0.00306174 0)
(-2.55623 0.00189085 0)
(-2.55915 0.000789024 -4.15676e-20)
(-2.56027 -0.000191292 0)
(-2.55999 -0.00104309 0)
(-2.55823 -0.0018633 3.83992e-20)
(-2.55501 -0.00266895 0)
(-2.55032 -0.00346792 0)
(-2.54415 -0.00426158 3.49964e-20)
(-2.5365 -0.00504999 0)
(-2.52735 -0.00583258 0)
(-2.5167 -0.00660855 -3.13552e-20)
(-2.50454 -0.00737708 -3.00886e-20)
(-2.49087 -0.00813731 0)
(-2.47568 -0.00888838 2.74772e-20)
(-2.45898 -0.00962949 0)
(-2.44076 -0.0103598 -2.47633e-20)
(-2.42104 -0.0110785 0)
(-2.3998 -0.0117849 -2.19499e-20)
(-2.37708 -0.0124782 -2.0507e-20)
(-2.35286 -0.0131577 0)
(-2.32717 -0.0138226 0)
(-2.30001 -0.0144722 0)
(-2.27141 -0.015106 0)
(-2.24137 -0.0157231 0)
(-2.20993 -0.0163231 0)
(-2.17709 -0.0169054 0)
(-2.14289 -0.0174695 -8.18481e-21)
(-2.10734 -0.0180147 6.55938e-21)
(-2.07047 -0.0185407 0)
(-2.03231 -0.019047 0)
(-1.99289 -0.0195331 0)
(-1.95224 -0.0199985 0)
(-1.91039 -0.0204429 -3.56258e-21)
(-1.86737 -0.0208661 0)
(-1.82323 -0.0212677 1.03905e-20)
(-1.77799 -0.0216475 -1.38276e-20)
(-1.73169 -0.0220054 0)
(-1.68438 -0.0223412 0)
(-1.63609 -0.0226546 0)
(-1.58687 -0.0229458 2.76687e-20)
(-1.53675 -0.0232147 3.11382e-20)
(-1.48578 -0.0234615 0)
(-1.434 -0.0236862 3.80689e-20)
(-1.38146 -0.023889 4.15243e-20)
(-1.32819 -0.0240701 -4.49694e-20)
(-1.27424 -0.0242299 0)
(-1.21966 -0.0243687 0)
(-1.16448 -0.024487 -5.52147e-20)
(-1.10875 -0.0245852 0)
(-1.05252 -0.0246638 0)
(-0.995819 -0.0247236 0)
(-0.938694 -0.0247652 0)
(-0.881184 -0.0247892 7.18291e-20)
(-0.823327 -0.0247966 7.50597e-20)
(-0.76516 -0.0247881 0)
(-0.706718 -0.0247646 8.14099e-20)
(-0.648036 -0.0247271 0)
(-0.589144 -0.0246765 0)
(-0.530073 -0.0246138 9.06255e-20)
(-0.470852 -0.0245397 0)
(-0.411506 -0.024455 9.654e-20)
(-0.352061 -0.0243598 0)
(-0.292544 -0.0242543 0)
(-0.232978 -0.0241361 1.05034e-19)
(-0.173392 -0.0239986 0)
(-0.113816 -0.0238372 1.10427e-19)
(-0.0542735 -0.0236466 0)
(0.00520909 -0.0233807 0)
(0.0644862 -0.0230112 0)
(0.123655 -0.0226284 -1.173e-19)
(0.182714 -0.0222693 0)
(0.241676 -0.0219288 1.18828e-19)
(0.300547 -0.0215965 0)
(0.359314 -0.0212614 0)
(0.417934 -0.020909 0)
(0.476302 -0.0205158 0)
(0.534241 -0.020036 0)
(0.59125 -0.0193778 0)
(0.64691 -0.0182952 0)
(0.697156 -0.0161596 -2.45087e-19)
(0.746023 -0.0113627 0)
(0.748458 0.00623699 0)
(0.00384212 -0.0267836 1.05292e-19)
(0.00864285 -0.0274057 -1.01326e-19)
(0.00879414 -0.0176905 0)
(0.00648277 -0.00680184 6.15198e-20)
(0.00212062 0.00370342 0)
(-0.0040329 0.0130751 2.90432e-20)
(-0.0119833 0.0209293 -5.66818e-20)
(-0.021643 0.0272269 -5.5404e-20)
(-0.0329191 0.0321603 0)
(-0.0456812 0.0360362 -5.29376e-20)
(-0.0597797 0.0391723 -2.5872e-20)
(-0.0750716 0.0418171 0)
(-0.0914393 0.0441402 0)
(-0.108795 0.0462492 0)
(-0.127075 0.048208 0)
(-0.146236 0.0500522 -2.30258e-20)
(-0.16625 0.0518007 0)
(-0.187098 0.0534628 4.40248e-20)
(-0.208769 0.0550432 0)
(-0.231257 0.0565438 0)
(-0.25456 0.0579642 -4.13888e-20)
(-0.278677 0.0593021 0)
(-0.303615 0.0605537 3.98713e-20)
(-0.329383 0.0617165 -1.96144e-20)
(-0.356004 0.0627947 1.9297e-20)
(-0.383509 0.0638037 -1.9005e-20)
(-0.411945 0.0647717 -1.8739e-20)
(-0.441374 0.0657345 0)
(-0.471875 0.0667316 0)
(-0.503547 0.0678118 1.81082e-20)
(-0.536501 0.0690447 -1.78981e-20)
(-0.570836 0.0705011 0)
(-0.60659 0.0721605 0)
(-0.643773 0.0737785 1.76654e-20)
(-0.682448 0.0748659 0)
(-0.722144 0.075078 0)
(-0.76111 0.0749743 -1.74102e-20)
(-0.800176 0.0752438 0)
(-0.847255 0.0741466 1.73326e-20)
(-0.893196 0.0735575 -3.40948e-20)
(-0.934164 0.0802194 0)
(-0.970918 0.0859516 0)
(-1.00844 0.0879377 -6.65181e-20)
(-1.04987 0.0878635 -6.57829e-20)
(-1.09267 0.086473 -6.50679e-20)
(-1.13557 0.0869033 3.20542e-20)
(-1.17704 0.0882439 -3.18203e-20)
(-1.21697 0.0887254 -9.42046e-20)
(-1.25622 0.0887062 6.20416e-20)
(-1.29495 0.0883752 3.07514e-20)
(-1.33325 0.0877978 0)
(-1.3712 0.0870506 -3.0095e-20)
(-1.4088 0.08618 2.96346e-20)
(-1.44609 0.085219 0)
(-1.48305 0.0841896 0)
(-1.51968 0.0831059 0)
(-1.55598 0.0819771 -2.86113e-20)
(-1.59192 0.0808086 0)
(-1.62749 0.0796033 5.59856e-20)
(-1.66268 0.0783627 0)
(-1.69747 0.0770871 5.49391e-20)
(-1.73184 0.075776 0)
(-1.76577 0.0744289 -5.39262e-20)
(-1.79923 0.0730448 0)
(-1.83221 0.0716228 5.29384e-20)
(-1.86467 0.0701621 -2.61545e-20)
(-1.89659 0.0686619 0)
(-1.92795 0.067122 -5.14862e-20)
(-1.95872 0.0655419 -2.55713e-20)
(-1.98887 0.0639217 -2.53303e-20)
(-2.01837 0.0622618 0)
(-2.0472 0.0605626 -2.4718e-20)
(-2.07532 0.0588248 -2.46029e-20)
(-2.10271 0.0570496 0)
(-2.12934 0.055238 2.41101e-20)
(-2.15517 0.0533915 -4.76055e-20)
(-2.18019 0.0515116 0)
(-2.20436 0.0496001 -2.33506e-20)
(-2.22766 0.0476587 0)
(-2.25005 0.0456892 6.83809e-20)
(-2.27151 0.0436936 0)
(-2.29202 0.0416737 -6.67628e-20)
(-2.31154 0.0396313 -2.20043e-20)
(-2.33004 0.0375683 2.16432e-20)
(-2.34751 0.0354861 4.27168e-20)
(-2.36392 0.0333864 -4.2135e-20)
(-2.37924 0.0312701 0)
(-2.39345 0.0291382 0)
(-2.40652 0.0269912 0)
(-2.41842 0.0248291 1.19185e-19)
(-2.42915 0.0226512 3.90905e-20)
(-2.43867 0.0204562 -3.84108e-20)
(-2.44696 0.0182423 0)
(-2.454 0.0160071 -3.69807e-20)
(-2.4598 0.0137476 3.62741e-20)
(-2.46435 0.0114594 3.55283e-20)
(-2.46766 0.00913898 0)
(-2.4698 0.00679543 0)
(-2.47083 0.00446975 0)
(-2.47089 0.00222636 3.23616e-20)
(-2.46988 8.57641e-05 0)
(-2.4675 -0.00195847 -6.14006e-20)
(-2.46374 -0.00396364 -8.94325e-20)
(-2.45856 -0.00594323 5.78762e-20)
(-2.45194 -0.00790421 0)
(-2.44386 -0.00984708 2.71794e-20)
(-2.43432 -0.0117706 0)
(-2.4233 -0.0136729 5.03918e-20)
(-2.41079 -0.0155516 -2.43154e-20)
(-2.39679 -0.0174044 -2.3325e-20)
(-2.3813 -0.019229 0)
(-2.3643 -0.0210234 -6.33813e-20)
(-2.34582 -0.0227852 4.02368e-20)
(-2.32583 -0.0245126 1.89131e-20)
(-2.30436 -0.0262036 0)
(-2.28139 -0.0278564 1.67175e-20)
(-2.25695 -0.029469 4.71119e-20)
(-2.23104 -0.0310398 0)
(-2.20367 -0.0325672 2.69737e-20)
(-2.17486 -0.0340495 2.46615e-20)
(-2.14462 -0.0354853 2.23233e-20)
(-2.11296 -0.0368731 0)
(-2.07991 -0.0382117 0)
(-2.04549 -0.0394999 0)
(-2.00972 -0.0407367 -6.58122e-21)
(-1.97261 -0.0419211 -4.92688e-21)
(-1.93421 -0.0430522 0)
(-1.89453 -0.0441292 -5.34461e-21)
(-1.85361 -0.0451513 -2.85013e-21)
(-1.81147 -0.0461178 0)
(-1.76815 -0.0470282 2.65811e-21)
(-1.72368 -0.0478821 9.39956e-21)
(-1.6781 -0.0486794 -7.73248e-21)
(-1.63144 -0.0494198 -9.26355e-21)
(-1.58373 -0.0501035 0)
(-1.53503 -0.0507304 0)
(-1.48536 -0.0513008 0)
(-1.43477 -0.0518149 -2.04638e-20)
(-1.3833 -0.0522732 2.19357e-20)
(-1.33099 -0.0526766 4.99952e-20)
(-1.27788 -0.0530257 -2.8058e-20)
(-1.22402 -0.0533214 2.94853e-20)
(-1.16945 -0.0535647 3.30709e-20)
(-1.11421 -0.0537568 0)
(-1.05834 -0.053899 0)
(-1.00189 -0.053993 -3.93839e-20)
(-0.944904 -0.0540401 0)
(-0.887419 -0.054042 0)
(-0.829478 -0.0540006 9.43318e-20)
(-0.77112 -0.053918 0)
(-0.712386 -0.0537962 5.13296e-20)
(-0.653312 -0.0536373 -5.47256e-20)
(-0.593936 -0.0534437 0)
(-0.534292 -0.0532178 5.81916e-20)
(-0.474414 -0.0529618 0)
(-0.414333 -0.0526782 0)
(-0.354078 -0.0523694 -6.58242e-20)
(-0.293677 -0.0520374 1.3485e-19)
(-0.233157 -0.0516841 -7.00275e-20)
(-0.17254 -0.0513103 0)
(-0.111851 -0.0509153 0)
(-0.0511114 -0.0504973 7.50524e-20)
(0.00965629 -0.0500529 0)
(0.0704282 -0.0495793 7.7992e-20)
(0.131187 -0.0490826 0)
(0.191918 -0.0485641 0)
(0.252602 -0.0480106 0)
(0.313269 -0.0474457 8.29593e-20)
(0.37391 -0.0468954 0)
(0.434516 -0.0463592 -8.4717e-20)
(0.495078 -0.0458245 0)
(0.555571 -0.0452717 0)
(0.615939 -0.0446702 1.7314e-19)
(0.676075 -0.0439682 -1.74471e-19)
(0.73579 -0.0430657 0)
(0.794653 -0.0417686 0)
(0.852216 -0.0395782 0)
(0.905947 -0.0355438 5.38736e-19)
(0.958414 -0.0264406 0)
(0.989011 -0.00435813 -3.66567e-19)
(0.00135065 -0.0337237 -3.92201e-23)
(-0.000819981 -0.0236802 1.31491e-19)
(-0.0062714 -0.00841345 0)
(-0.0130096 0.00597221 -1.13788e-19)
(-0.0210145 0.0191229 0)
(-0.0301279 0.0309013 0)
(-0.040316 0.0412107 1.12948e-23)
(-0.0516198 0.0500358 4.92649e-20)
(-0.0640898 0.0574813 4.80602e-20)
(-0.0777424 0.0637481 4.69502e-20)
(-0.0925529 0.0690771 0)
(-0.10847 0.0736984 0)
(-0.125433 0.0778029 -4.38071e-20)
(-0.143386 0.0815349 -8.56607e-20)
(-0.162284 0.0849967 8.378e-20)
(-0.182092 0.0882576 0)
(-0.202788 0.0913632 8.02519e-20)
(-0.224358 0.0943436 -3.93189e-20)
(-0.246798 0.0972191 0)
(-0.270109 0.100004 7.55672e-20)
(-0.294299 0.102708 3.70994e-20)
(-0.319379 0.105342 -7.285e-20)
(-0.345369 0.107916 -3.58216e-20)
(-0.372293 0.110445 0)
(-0.400184 0.112951 6.93724e-20)
(-0.429077 0.115471 6.83702e-20)
(-0.45901 0.118047 0)
(-0.490015 0.120727 6.65933e-20)
(-0.522116 0.123555 0)
(-0.555314 0.126569 6.5099e-20)
(-0.589578 0.129788 3.22415e-20)
(-0.62481 0.133185 0)
(-0.660839 0.136631 0)
(-0.697477 0.139877 0)
(-0.734637 0.142671 0)
(-0.772133 0.144979 0)
(-0.809391 0.14685 0)
(-0.846623 0.147825 6.01351e-20)
(-0.885757 0.148 -8.92294e-20)
(-0.925538 0.150366 0)
(-0.962437 0.154521 0)
(-0.99605 0.155403 0)
(-1.02945 0.153117 6.81999e-27)
(-1.06419 0.149957 5.57241e-20)
(-1.10006 0.146933 1.10034e-19)
(-1.13625 0.145005 -1.08612e-19)
(-1.17173 0.143643 -5.35704e-20)
(-1.20647 0.142246 5.29654e-20)
(-1.24074 0.140804 -7.52162e-23)
(-1.27464 0.139285 5.15976e-20)
(-1.30824 0.13768 0)
(-1.34156 0.135997 5.03765e-20)
(-1.37464 0.134243 -8.38437e-23)
(-1.40749 0.132429 0)
(-1.44011 0.13056 0)
(-1.47249 0.128643 -4.81258e-20)
(-1.50463 0.126681 0)
(-1.53652 0.124673 0)
(-1.56814 0.122621 4.64816e-20)
(-1.59948 0.120523 9.21571e-20)
(-1.63052 0.118378 -4.56859e-20)
(-1.66123 0.116184 0)
(-1.6916 0.113939 4.47354e-20)
(-1.72161 0.111641 0)
(-1.75122 0.109288 4.36197e-20)
(-1.78042 0.10688 4.33531e-20)
(-1.80918 0.104414 -8.56141e-20)
(-1.83747 0.101891 -4.22658e-20)
(-1.86527 0.0993102 0)
(-1.89254 0.0966712 8.29339e-20)
(-1.91926 0.0939748 0)
(-1.94539 0.0912218 1.21823e-19)
(-1.97092 0.0884136 8.02676e-20)
(-1.99581 0.0855516 7.93753e-20)
(-2.02002 0.0826377 -7.84788e-20)
(-2.04353 0.0796741 1.16443e-19)
(-2.06632 0.0766631 0)
(-2.08834 0.0736073 0)
(-2.10958 0.0705094 -7.48259e-20)
(-2.12999 0.0673722 -1.109e-19)
(-2.14956 0.0641985 0)
(-2.16826 0.0609913 3.60488e-20)
(-2.18605 0.0577533 0)
(-2.20291 0.0544874 -1.05077e-19)
(-2.21881 0.0511961 -9.24497e-23)
(-2.23373 0.0478819 8.39247e-23)
(-2.24764 0.044547 6.69517e-20)
(-2.26052 0.0411934 0)
(-2.27234 0.0378229 -6.48161e-20)
(-2.28308 0.034437 -4.71406e-23)
(-2.29272 0.0310374 0)
(-2.30124 0.0276255 0)
(-2.30862 0.0242035 0)
(-2.31486 0.0207744 5.91189e-20)
(-2.31993 0.0173435 0)
(-2.32385 0.0139191 0)
(-2.3266 0.0105135 0)
(-2.3282 0.00714395 0)
(-2.32861 0.00382977 0)
(-2.32783 0.000582713 5.14634e-20)
(-2.32578 -0.0026258 0)
(-2.32239 -0.00582466 4.86061e-20)
(-2.31764 -0.00900568 4.717e-20)
(-2.31152 -0.0121652 -4.57086e-20)
(-2.304 -0.0152998 0)
(-2.29506 -0.0184059 -4.27098e-20)
(-2.2847 -0.0214796 0)
(-2.27291 -0.0245171 -3.96109e-20)
(-2.25967 -0.0275143 3.80246e-20)
(-2.24498 -0.0304675 1.09595e-19)
(-2.22885 -0.033373 0)
(-2.21126 -0.0362272 9.97677e-20)
(-2.19221 -0.0390267 3.18643e-20)
(-2.17171 -0.0417683 0)
(-2.14976 -0.0444488 5.65035e-20)
(-2.12636 -0.0470654 5.30388e-20)
(-2.10153 -0.0496151 -7.4048e-20)
(-2.07527 -0.0520953 0)
(-2.04759 -0.0545032 -2.09327e-20)
(-2.01851 -0.0568365 -1.91165e-20)
(-1.98803 -0.0590928 -5.24397e-20)
(-1.95619 -0.0612698 0)
(-1.92298 -0.0633656 0)
(-1.88844 -0.0653784 0)
(-1.85258 -0.0673066 -1.04755e-20)
(-1.81543 -0.0691487 0)
(-1.77702 -0.0709035 0)
(-1.73736 -0.0725696 4.10607e-21)
(-1.6965 -0.0741459 2.18729e-21)
(-1.65445 -0.0756316 0)
(-1.61125 -0.0770257 0)
(-1.56692 -0.0783279 -7.1907e-21)
(-1.52152 -0.0795379 0)
(-1.47506 -0.0806556 1.49181e-20)
(-1.4276 -0.0816813 1.79934e-20)
(-1.37915 -0.0826152 0)
(-1.32977 -0.0834577 0)
(-1.27949 -0.0842094 -2.95086e-20)
(-1.22835 -0.0848712 -8.14639e-22)
(-1.1764 -0.0854445 -8.19876e-22)
(-1.12366 -0.0859306 0)
(-1.0702 -0.0863313 -9.017e-20)
(-1.01604 -0.086648 0)
(-0.961228 -0.0868829 0)
(-0.90581 -0.0870382 0)
(-0.849824 -0.0871167 6.02986e-20)
(-0.793313 -0.0871208 0)
(-0.736317 -0.0870533 -1.33347e-19)
(-0.678876 -0.0869173 -7.10556e-20)
(-0.62103 -0.0867162 0)
(-0.562815 -0.0864535 -7.8031e-20)
(-0.50427 -0.0861325 0)
(-0.44543 -0.0857572 0)
(-0.386329 -0.0853314 -2.62855e-19)
(-0.326998 -0.0848589 1.81265e-19)
(-0.267468 -0.0843437 0)
(-0.207768 -0.0837896 1.94105e-19)
(-0.147924 -0.0831999 -1.00976e-19)
(-0.0879606 -0.0825775 0)
(-0.0279005 -0.081925 0)
(0.0322354 -0.0812444 0)
(0.0924267 -0.0805352 -3.33411e-19)
(0.152657 -0.0797962 0)
(0.212909 -0.0790276 -1.15507e-19)
(0.273175 -0.0782352 0)
(0.333456 -0.0774318 0)
(0.393773 -0.0766281 0)
(0.454127 -0.07583 0)
(0.514499 -0.0750443 0)
(0.574874 -0.0742664 0)
(0.635232 -0.07348 -2.52942e-19)
(0.69554 -0.072657 0)
(0.75574 -0.0717506 -1.29837e-19)
(0.815728 -0.0706808 3.92073e-19)
(0.87533 -0.0692993 0)
(0.934184 -0.0673241 0)
(0.991951 -0.064142 -2.68116e-19)
(1.04693 -0.0585843 -2.71649e-19)
(1.1018 -0.0477297 2.73647e-19)
(1.14451 -0.0253261 2.78437e-19)
(-0.00216456 -0.0277807 -2.07767e-19)
(-0.00939848 -0.00995447 -1.92727e-19)
(-0.0183616 0.00842391 -1.16143e-19)
(-0.0281425 0.0247863 -5.35042e-20)
(-0.0388054 0.03959 0)
(-0.0501451 0.0529576 9.64999e-20)
(-0.0621612 0.0649151 -4.65656e-20)
(-0.074935 0.0754916 0)
(-0.0885532 0.0847701 -4.40386e-20)
(-0.103079 0.0928931 0)
(-0.118546 0.100041 8.39316e-20)
(-0.13496 0.106402 0)
(-0.15231 0.11215 4.01159e-20)
(-0.170576 0.117429 7.84917e-20)
(-0.189737 0.122353 -7.68236e-20)
(-0.209773 0.127008 0)
(-0.230672 0.131456 -7.3703e-20)
(-0.252425 0.135742 0)
(-0.275029 0.139899 0)
(-0.298485 0.143952 -6.95543e-20)
(-0.322796 0.147921 0)
(-0.347971 0.151823 5.19588e-24)
(-0.374017 0.155675 0)
(-0.400942 0.159496 0)
(-0.428749 0.163309 -4.83829e-24)
(-0.457438 0.167135 -6.30161e-20)
(-0.486991 0.170997 -6.21202e-20)
(-0.517375 0.174905 -6.12802e-20)
(-0.548528 0.178854 0)
(-0.58036 0.18281 -1.19406e-19)
(-0.612745 0.186707 0)
(-0.645523 0.190433 -5.82301e-20)
(-0.678516 0.193831 0)
(-0.71157 0.196717 0)
(-0.744605 0.198967 5.60646e-20)
(-0.777568 0.200598 0)
(-0.810385 0.201686 -5.45679e-20)
(-0.843122 0.202154 1.44398e-24)
(-0.875978 0.202149 1.0609e-19)
(-0.90862 0.202568 -1.04531e-19)
(-0.940239 0.203257 0)
(-0.97078 0.202771 0)
(-1.00102 0.20096 -5.00365e-20)
(-1.03151 0.19846 0)
(-1.06237 0.195769 -4.86623e-20)
(-1.09336 0.193306 4.79921e-20)
(-1.12418 0.191022 4.73374e-20)
(-1.15477 0.188773 0)
(-1.18517 0.186528 -4.60863e-20)
(-1.2154 0.184264 -4.54883e-20)
(-1.24546 0.181964 8.97558e-20)
(-1.27537 0.179622 -4.4343e-20)
(-1.30514 0.177233 -4.3794e-20)
(-1.33476 0.174796 0)
(-1.36424 0.17231 0)