/*--------------------------------*- C++ -*----------------------------------*\
  =========                 |
  \\      /  F ield         | OpenFOAM: The Open Source CFD Toolbox
   \\    /   O peration     | Website:  https://openfoam.org
    \\  /    A nd           | Version:  9
     \\/     M anipulation  |
\*---------------------------------------------------------------------------*/
FoamFile
{
    format      ascii;
    class       volScalarField;
    location    "1750";
    object      alphat;
}
// * * * * * * * * * * * * * * * * * * * * * * * * * * * * * * * * * * * * * //

dimensions      [1 -1 -1 0 0 0 0];

internalField   nonuniform List<scalar> 
4000
(
0.000349323
0.000307217
0.000233339
0.00016504
0.000149658
0.000143489
0.000125152
0.000112307
0.000108944
0.000109444
0.000110089
0.00011001
0.000112882
0.000124186
0.000138292
0.000147918
0.000170472
0.00025489
0.000323305
0.000360876
0.000391389
0.000370581
0.000336136
0.000312213
0.000285247
0.000247935
0.00016368
0.000143033
0.000139276
0.000143371
0.00014371
0.000140832
0.000144975
0.000168218
0.000251144
0.000283874
0.0003077
0.000333609
0.000375528
0.000397381
0.000410619
0.000397189
0.000374231
0.000347005
0.000314429
0.000278628
0.000238424
0.000179132
0.00015158
0.00015996
0.000159355
0.00015056
0.000193097
0.000243979
0.000284842
0.000319671
0.000350719
0.000376783
0.000401261
0.00041572
0.000420527
0.000412531
0.000390892
0.000360184
0.000321601
0.000282579
0.000246652
0.000208869
0.000182256
0.000178968
0.000174964
0.000184212
0.000217835
0.000251712
0.000286803
0.000325758
0.000363309
0.000393638
0.000416527
0.000425429
0.000426899
0.000425376
0.000412073
0.000393017
0.000371585
0.000351783
0.000335203
0.000321482
0.000311194
0.000303533
0.000302998
0.000310685
0.000321572
0.000335712
0.000352721
0.00037311
0.000395108
0.000414978
0.000429359
0.000431726
0.000432056
0.000437622
0.000435623
0.000430246
0.000423342
0.000415591
0.000407808
0.00039974
0.000391471
0.000382981
0.000381232
0.000389074
0.000397825
0.000406684
0.000415387
0.000424096
0.00043198
0.000438433
0.000441532
0.000436808
0.000437384
0.000450322
0.000457965
0.000462346
0.000464559
0.000464315
0.000461667
0.000456681
0.000449146
0.000439281
0.000437185
0.000446371
0.00045437
0.000460228
0.000463893
0.000465188
0.000464039
0.000460738
0.000454142
0.000442043
0.000443682
0.000463916
0.000479659
0.000491154
0.000499657
0.000504914
0.000506569
0.000504138
0.000496927
0.000485352
0.000483131
0.000494218
0.00050191
0.000505238
0.000504624
0.000500447
0.000492993
0.000482469
0.000467658
0.000448234
0.000452283
0.000481041
0.000504078
0.000521572
0.000535115
0.00054479
0.000550271
0.000550566
0.000544267
0.000531064
0.000528729
0.000541927
0.000548823
0.000549458
0.000545012
0.000536367
0.000523743
0.000507067
0.000484789
0.00045672
0.000465014
0.000502425
0.000533027
0.000556103
0.000574474
0.000588726
0.000598593
0.000603268
0.000601318
0.000591108
0.00058931
0.00060041
0.000602985
0.000598969
0.00058977
0.000576186
0.00055847
0.000536001
0.000505998
0.000469308
0.000307217
0.000290218
0.000224647
0.000191177
0.000192057
0.000190393
0.000171212
0.000140992
0.000128093
0.000126921
0.000127583
0.000129567
0.000139383
0.000166316
0.000185557
0.000192996
0.000196955
0.000239083
0.00030545
0.000324558
0.000370581
0.000482847
0.000455839
0.000432068
0.000425119
0.000398349
0.000328243
0.000295526
0.000314848
0.000373147
0.000368946
0.000321086
0.000303727
0.000345807
0.000409391
0.000422269
0.000421338
0.000447551
0.000493169
0.00037703
0.000397189
0.000559774
0.000552667
0.000502422
0.000450415
0.000409533
0.00036999
0.000328711
0.000331637
0.000412285
0.000392069
0.00033168
0.000336102
0.00037965
0.000422165
0.000463331
0.000519118
0.000575286
0.00058112
0.000402609
0.000412531
0.000554161
0.00056459
0.00051592
0.000445646
0.000394674
0.000352294
0.000314074
0.000316369
0.000415369
0.000374377
0.000300679
0.000320187
0.000361726
0.000403901
0.000453372
0.000521851
0.000573432
0.000566457
0.000417698
0.000425376
0.000578595
0.000608208
0.000572599
0.000486631
0.00041585
0.000365123
0.000321298
0.000299582
0.000314076
0.000306327
0.000300824
0.00033111
0.000375304
0.000424
0.000492695
0.000575528
0.000614245
0.000587782
0.000430396
0.000437622
0.000602447
0.000647467
0.000641721
0.00057862
0.000485388
0.000426438
0.000382046
0.000358977
0.000356793
0.000354738
0.000361653
0.000388912
0.000434147
0.000491832
0.000581642
0.000644629
0.000654547
0.000611759
0.000442525
0.000450322
0.000618582
0.000670723
0.000698598
0.000697689
0.00065207
0.000573824
0.000502476
0.000462851
0.000445317
0.000444658
0.000463736
0.000504011
0.000576445
0.000655637
0.000700129
0.000703435
0.000679595
0.000628783
0.000455187
0.000463916
0.000627524
0.000678834
0.000732678
0.000783101
0.00080139
0.000794472
0.000772242
0.000733831
0.000696404
0.000693795
0.000726178
0.000765772
0.000791519
0.000801893
0.000786944
0.000739577
0.000688846
0.000638117
0.000468784
0.000481041
0.000614884
0.000673706
0.000721433
0.00075911
0.000781809
0.000790377
0.00077998
0.000743008
0.000686306
0.000678511
0.000730556
0.000769704
0.000785447
0.000782172
0.000764153
0.000729456
0.000683452
0.000623878
0.000485896
0.000502425
0.000541534
0.000574625
0.000601199
0.000624158
0.000643658
0.000658592
0.000667151
0.000666895
0.000655936
0.000654122
0.000666121
0.000667273
0.000659674
0.000645655
0.000627002
0.000604755
0.000578661
0.000545882
0.000507032
0.000233339
0.000224647
0.000206318
0.000214079
0.000216528
0.00021252
0.000189003
0.000162251
0.00014515
0.000139366
0.000138948
0.00014288
0.000157908
0.000186365
0.000209378
0.000217591
0.000215551
0.000212443
0.000240762
0.000257659
0.000336136
0.000455839
0.000476472
0.000482752
0.000492672
0.000468793
0.000398479
0.000365943
0.000376089
0.000434196
0.000433884
0.000382083
0.00037488
0.000421619
0.000487865
0.000494772
0.000475008
0.000464598
0.000451109
0.00033685
0.000374231
0.000552667
0.00057791
0.00054862
0.000515344
0.000484741
0.000452773
0.000418408
0.000420887
0.000485116
0.00046411
0.000420544
0.000427212
0.000464648
0.000501578
0.000531948
0.000568436
0.000602195
0.000577859
0.000378917
0.000390892
0.00056459
0.000603321
0.00057164
0.000515721
0.000472191
0.000437168
0.00041113
0.000427861
0.000492054
0.000457485
0.000406446
0.000412621
0.000446304
0.000483587
0.000526068
0.00058055
0.000613665
0.000577173
0.000395823
0.000412073
0.000608208
0.000659667
0.000630074
0.000545919
0.000474494
0.000423548
0.000380999
0.000359735
0.000386738
0.000367477
0.00035783
0.000389723
0.000434443
0.000484618
0.000554628
0.000636905
0.000668002
0.000617809
0.000416901
0.000435623
0.000647467
0.000710025
0.00069257
0.000603482
0.000502865
0.000432483
0.000376333
0.000340283
0.00034191
0.000338754
0.00034766
0.000389031
0.000444766
0.000512851
0.000611714
0.000700667
0.000720314
0.000657633
0.00044022
0.000457965
0.000670723
0.000741997
0.000742437
0.000678569
0.000586509
0.000506251
0.000441339
0.000400016
0.000389707
0.000390581
0.00040758
0.000453305
0.0005185
0.000597334
0.000688558
0.00075428
0.000755877
0.000682795
0.00046261
0.000479659
0.000678834
0.000766421
0.000808143
0.000793356
0.000744487
0.00069325
0.00064291
0.000593488
0.000556602
0.000556151
0.000596138
0.000650953
0.000705831
0.000759023
0.000807983
0.000823729
0.000783768
0.000692638
0.000484478
0.000504078
0.000673706
0.000818329
0.000955994
0.00104537
0.00108874
0.00109336
0.00107335
0.00100649
0.000899644
0.000888506
0.000991241
0.00106582
0.00109831
0.00109988
0.00106007
0.000973341
0.000836092
0.00068688
0.000509086
0.000533027
0.000574625
0.000609307
0.000638074
0.000664344
0.000688167
0.000707736
0.000720141
0.000721751
0.000709589
0.000707733
0.000721171
0.000720761
0.00070961
0.000691163
0.000668332
0.000642733
0.000614174
0.000579423
0.000537701
0.00016504
0.000191177
0.000214079
0.000224001
0.000227456
0.000219933
0.000197858
0.000175284
0.000158574
0.000151248
0.000150008
0.000154344
0.00016886
0.000193868
0.000219245
0.000229195
0.000226626
0.000215349
0.000196857
0.000169525
0.000312213
0.000432068
0.000482752
0.000514891
0.000527905
0.000494955
0.000432895
0.000408828
0.00042686
0.000487303
0.000488064
0.000431329
0.000415806
0.000453633
0.000523866
0.000539314
0.000513149
0.000475232
0.000424084
0.000311379
0.000347005
0.000502422
0.00054862
0.000551381
0.000543073
0.000526471
0.000502094
0.000470707
0.000479441
0.000546778
0.00052616
0.000476529
0.000481572
0.000516723
0.000545289
0.000561891
0.000570523
0.00057023
0.00052333
0.0003529
0.000360184
0.00051592
0.00057164
0.00056776
0.000542426
0.000517307
0.000495273
0.000481032
0.000499407
0.000555626
0.000521757
0.000480615
0.000479874
0.000503138
0.000529813
0.000555415
0.000580045
0.000584404
0.000528542
0.000365967
0.000393017
0.000572599
0.000630074
0.000619977
0.000569694
0.000521276
0.000484645
0.000456344
0.000453448
0.00051184
0.000475407
0.000442453
0.000460542
0.000493448
0.000531881
0.000581162
0.000631817
0.000642525
0.000583669
0.000397575
0.000430246
0.000641721
0.00069257
0.00068142
0.000616746
0.000542742
0.000484433
0.000435252
0.000401523
0.000408318
0.000400756
0.000407152
0.000446877
0.000496273
0.000553929
0.000628621
0.000694951
0.000706592
0.000652084
0.000434354
0.000462346
0.000698598
0.000742437
0.00073611
0.000679126
0.000601981
0.000535096
0.000478487
0.000436626
0.000428409
0.000429669
0.000447758
0.000494069
0.000550047
0.000615662
0.000693821
0.000753409
0.000759948
0.000709589
0.000466599
0.000491154
0.000732678
0.000808143
0.000836019
0.000809668
0.000756098
0.000706586
0.000661973
0.000615036
0.000575007
0.000575158
0.00062155
0.0006758
0.000724773
0.000776095
0.000831674
0.000860869
0.000829433
0.000745322
0.000495766
0.000521572
0.000721433
0.000955994
0.00114693
0.00118404
0.00121218
0.00124683
0.00125925
0.00120622
0.00108849
0.00107777
0.00119733
0.00126073
0.00126085
0.00123605
0.00121367
0.00118209
0.000978255
0.000736175
0.000526568
0.000556103
0.000601199
0.000638074
0.000669384
0.000700004
0.000729255
0.000754453
0.000771708
0.000776755
0.000766849
0.00076537
0.00077667
0.000772912
0.000756973
0.00073306
0.000704877
0.000674881
0.000643465
0.000606205
0.000560766
0.000149658
0.000192057
0.000216528
0.000227456
0.000228709
0.000218836
0.000200588
0.000182659
0.000168151
0.000162049
0.000161018
0.000163718
0.000176278
0.000195867
0.00021735
0.000229001
0.000229322
0.000217984
0.000192789
0.000147671
0.000285247
0.000425119
0.000492672
0.000527905
0.000527409
0.000488371
0.000449914
0.000437085
0.000460332
0.000538551
0.000543821
0.000466184
0.000441082
0.000462531
0.000519245
0.000551292
0.000537062
0.000492672
0.00042236
0.000286678
0.000314429
0.000450415
0.000515344
0.000543073
0.000551718
0.000547565
0.000525312
0.000498671
0.000516027
0.000602837
0.000585468
0.000512865
0.000507807
0.000539056
0.000564237
0.000571801
0.000561475
0.000532681
0.000465751
0.000321318
0.000321601
0.000445646
0.000515721
0.000542426
0.000545343
0.000539621
0.000531049
0.00052456
0.000543823
0.000618148
0.000586325
0.000528644
0.000522569
0.000535869
0.000550959
0.000559294
0.000556135
0.000529056
0.000457662
0.000327913
0.000371585
0.000486631
0.000545919
0.000569694
0.000561101
0.000542623
0.000524783
0.000512118
0.000529043
0.000605472
0.000566441
0.000511579
0.000512445
0.000530668
0.000551977
0.000572864
0.000583299
0.000560932
0.000500653
0.000375492
0.000423342
0.00057862
0.000603482
0.000616746
0.000597474
0.000562046
0.000526675
0.000495591
0.000487179
0.000538818
0.00051489
0.000484405
0.000503623
0.000536395
0.000572667
0.000610257
0.000632862
0.000621695
0.000592831
0.000426905
0.000464559
0.000697689
0.000678569
0.000679126
0.00065854
0.000617383
0.000573045
0.000532729
0.000510595
0.000537527
0.000532721
0.000518891
0.000547378
0.000587638
0.000631672
0.000674775
0.000698838
0.000698743
0.000709278
0.000468429
0.000499657
0.000783101
0.000793356
0.000809668
0.000793814
0.000754154
0.000716489
0.000682764
0.000646322
0.000618378
0.000617955
0.000653598
0.000697964
0.000735874
0.000775635
0.000817345
0.000836162
0.000818442
0.000795289
0.000503998
0.000535115
0.00075911
0.00104537
0.00118404
0.00126896
0.00134106
0.00141123
0.00144221
0.00137173
0.00120156
0.00119363
0.00136645
0.00144714
0.00142864
0.00136697
0.00129976
0.00121748
0.0010681
0.000773289
0.000539971
0.000574474
0.000624158
0.000664344
0.000700004
0.000737378
0.000772606
0.000802901
0.000824785
0.000833543
0.000826428
0.000825272
0.000833804
0.000826357
0.000805789
0.000776637
0.000742358
0.000705589
0.000669775
0.000629132
0.000579085
0.000143489
0.000190393
0.00021252
0.000219933
0.000218836
0.000210816
0.000199341
0.000186967
0.000176191
0.000172657
0.000172025
0.000171929
0.000180615
0.000193672
0.000207653
0.000217372
0.000219046
0.000210485
0.000186309
0.000136937
0.000247935
0.000398349
0.000468793
0.000494955
0.000488371
0.000472326
0.000460406
0.000458381
0.000488659
0.000573784
0.000581113
0.000494425
0.000458191
0.00046205
0.000486516
0.0005146
0.00051721
0.00048241
0.000407027
0.000253641
0.000278628
0.000409533
0.000484741
0.000526471
0.000547565
0.000546848
0.00052789
0.000513534
0.00054109
0.000629922
0.000617196
0.000537124
0.000517351
0.000536954
0.000560079
0.000562837
0.000543486
0.000500547
0.000422448
0.0002855
0.000282579
0.000394674
0.000472191
0.000517307
0.000539621
0.000548647
0.000550269
0.000546529
0.000569083
0.000642767
0.000616176
0.000555804
0.00054423
0.000550984
0.000555256
0.000550483
0.000529439
0.000483842
0.00040416
0.0002869
0.000351783
0.00041585
0.000474494
0.000521276
0.000542624
0.000547819
0.000546043
0.000546663
0.000576696
0.000645263
0.000614269
0.000557711
0.00054398
0.00054839
0.000553634
0.000551201
0.000531634
0.000485516
0.000424845
0.000354449
0.000415591
0.000485388
0.000502865
0.000542742
0.000562046
0.000559626
0.00054684
0.000535294
0.000552559
0.000618485
0.000594422
0.000543816
0.000539539
0.000553459
0.000567452
0.000571822
0.000555027
0.00051652
0.000496171
0.000418516
0.000464315
0.00065207
0.000586509
0.000601981
0.000617383
0.000609793
0.000588171
0.000566322
0.000569845
0.000630325
0.000621074
0.000573791
0.000578259
0.000600584
0.000622054
0.000630882
0.000617865
0.000603703
0.000666021
0.000467865
0.000504914
0.00080139
0.000744487
0.000756098
0.000754154
0.000735576
0.000714967
0.000693721
0.000663757
0.000645322
0.000643181
0.000669741
0.00070752
0.000732844
0.000754958
0.000774758
0.000777868
0.000765814
0.000814228
0.000509029
0.00054479
0.000781809
0.00108874
0.00121218
0.00134106
0.00146037
0.00155709
0.00158018
0.00144762
0.00116511
0.00115695
0.0014425
0.0015846
0.00157224
0.00148331
0.00136669
0.00123847
0.0011088
0.000792702
0.000549413
0.000588726
0.000643658
0.000688167
0.000729255
0.000772606
0.000813396
0.000849055
0.000875956
0.000889583
0.000887663
0.00088655
0.000889886
0.000877604
0.000851977
0.000817414
0.000777371
0.000734467
0.000693339
0.000648532
0.000593337
0.000125152
0.000171212
0.000189003
0.000197858
0.000200588
0.000199341
0.000195152
0.000189171
0.000183828
0.000185489
0.000185676
0.000179978
0.000182728
0.000188396
0.000193553
0.000196026
0.00019439
0.000186149
0.000165943
0.00012232
0.00016368
0.000328243
0.000398479
0.000432895
0.000449914
0.000460406
0.000466966
0.000477128
0.000516645
0.000597851
0.000605034
0.000521442
0.000472376
0.000458982
0.000455782
0.000452093
0.000440748
0.000409384
0.000336485
0.000167648
0.000238424
0.00036999
0.000452773
0.000502094
0.000525312
0.00052789
0.00052294
0.000524776
0.000556778
0.000598989
0.000592056
0.000551679
0.000521516
0.000522622
0.00053384
0.000535416
0.000513519
0.000461817
0.000377422
0.000241536
0.000246652
0.000352294
0.000437168
0.000495273
0.000531049
0.000550269
0.00055491
0.00055413
0.000575607
0.000572057
0.000560013
0.000563781
0.000550159
0.000552447
0.000550024
0.000534447
0.000501331
0.000443792
0.000358124
0.00024773
0.000335203
0.000365123
0.000423548
0.000484645
0.000524783
0.000546043
0.000555961
0.000565427
0.000590575
0.00055435
0.000543142
0.000574481
0.000560395
0.00055444
0.000546877
0.000527884
0.000489728
0.000430098
0.000371312
0.000336967
0.000407808
0.000426438
0.000432483
0.000484433
0.000526675
0.00054684
0.000552228
0.000556946
0.000579768
0.000544585
0.000533452
0.000570366
0.000557654
0.000555087
0.000550569
0.000531908
0.000491792
0.000441536
0.000434198
0.000410263
0.000461667
0.000573824
0.000506251
0.000535096
0.000573045
0.000588171
0.000584814
0.000580154
0.000600004
0.000611306
0.000601068
0.000600343
0.000588199
0.000593419
0.000596375
0.000581678
0.000545234
0.000518184
0.000584731
0.000464971
0.000506569
0.000794472
0.00069325
0.000706586
0.000716489
0.000714967
0.000707626
0.000689192
0.000655683
0.000632733
0.000627365
0.000658511
0.000698959
0.000721046
0.000729485
0.000730615
0.000720657
0.000708449
0.000807173
0.000510586
0.000550271
0.000790377
0.00109336
0.00124683
0.00141123
0.00155709
0.00165451
0.00162888
0.00137541
0.000988653
0.000975521
0.00136239
0.00162766
0.0016638
0.00157288
0.00142856
0.00126264
0.00111004
0.000798225
0.000554785
0.000598593
0.000658592
0.000707736
0.000754453
0.000802901
0.000849055
0.00089047
0.000923832
0.000946037
0.000958165
0.000956925
0.000946107
0.000925296
0.00089323
0.000852868
0.000807437
0.000759328
0.00071279
0.000663498
0.000603319
0.000112307
0.000140992
0.000162251
0.000175284
0.000182659
0.000186967
0.000189171
0.000190186
0.000191917
0.00019927
0.000199853
0.000188654
0.000184024
0.000182023
0.000179845
0.00017582
0.000168687
0.000155862
0.000135264
0.000109352
0.000143033
0.000295526
0.000365943
0.000408828
0.000437085
0.000458381
0.000477128
0.000500774
0.000526287
0.000474016
0.000468036
0.000526014
0.000493533
0.000464732
0.000445488
0.000425393
0.000398338
0.000356736
0.000290333
0.000138315
0.000179132
0.000328711
0.000418408
0.000470707
0.000498671
0.000513534
0.000524776
0.000538009
0.000512538
0.00034967
0.000339478
0.000502828
0.000528972
0.000517012
0.000509846
0.000499566
0.000474348
0.000421073
0.000331146
0.000181839
0.000208869
0.000314074
0.00041113
0.000481032
0.00052456
0.000546529
0.00055413
0.000555763
0.000490404
0.000324899
0.00031392
0.000478714
0.000548013
0.00054903
0.000542929
0.000521567
0.000478307
0.000409555
0.000314797
0.000209075
0.000321482
0.000321298
0.000380999
0.000456344
0.000512118
0.000546663
0.000565427
0.000570094
0.0004788
0.00036199
0.00034604
0.000467235
0.000562512
0.000559652
0.000541997
0.000509068
0.000455547
0.000383394
0.000325843
0.000323159
0.00039974
0.000382046
0.000376333
0.000435252
0.000495591
0.000535294
0.000556946
0.000563365
0.000463841
0.000409272
0.000390937
0.000455
0.000559944
0.000554711
0.000533828
0.000496036
0.000438865
0.000382691
0.000387629
0.000402061
0.000456681
0.000502476
0.000441339
0.000478487
0.000532729
0.000566322
0.000580154
0.000586229
0.000524918
0.000499977
0.000483138
0.000518356
0.000588376
0.000582685
0.000568523
0.00053577
0.00048403
0.000449913
0.000510737
0.000459914
0.000504138
0.000772242
0.00064291
0.000661973
0.000682764
0.000693721
0.000689192
0.000662882
0.000616882
0.000590299
0.000579277
0.000613422
0.000666248
0.000695133
0.000700346
0.00068897
0.000668741
0.000652971
0.000783358
0.000508207
0.000550566
0.00077998
0.00107335
0.00125925
0.00144221
0.00158018
0.00162888
0.00147796
0.00112981
0.00101726
0.0010103
0.00111246
0.00146365
0.0016283
0.00158761
0.00145134
0.00126779
0.00108507
0.000786127
0.000555192
0.000603268
0.000667151
0.000720141
0.000771708
0.000824785
0.000875956
0.000923832
0.000966802
0.00100771
0.00105348
0.00105219
0.00100785
0.000968083
0.000926392
0.000879604
0.00082917
0.000776504
0.000725264
0.000672247
0.000608223
0.000108944
0.000128093
0.00014515
0.000158574
0.000168151
0.000176191
0.000183828
0.000191917
0.000199513
0.000209936
0.00020947
0.000196575
0.000186757
0.000177729
0.000169936
0.000162115
0.00015295
0.000139887
0.000125168
0.000106664
0.000139276
0.000314848
0.000376089
0.00042686
0.000460332
0.000488659
0.000516645
0.000526287
0.000416839
0.000475631
0.000480015
0.000399291
0.000516761
0.000509345
0.000482359
0.000454984
0.000422126
0.000373887
0.000316762
0.000136714
0.00015158
0.000331637
0.000420887
0.000479441
0.000516027
0.00054109
0.000556778
0.000512538
0.000318722
0.000604792
0.00061651
0.000307422
0.000497963
0.000550741
0.000538054
0.000514285
0.000477769
0.000419656
0.000330611
0.000149147
0.000182256
0.000316369
0.000427861
0.000499407
0.000543823
0.000569083
0.000575607
0.000490404
0.000328159
0.000823852
0.000834975
0.000324571
0.000475655
0.000568836
0.000564832
0.000539574
0.000491786
0.000415979
0.000305424
0.000182033
0.000311194
0.000299582
0.000359735
0.000453448
0.000529043
0.000576695
0.000590575
0.0004788
0.000390576
0.00108655
0.00109321
0.000388551
0.000464336
0.000579066
0.000565078
0.000517885
0.000445344
0.00035639
0.000299884
0.00031379
0.000391471
0.000358977
0.000340283
0.000401523
0.000487179
0.000552559
0.000579768
0.000463841
0.000454675
0.00132502
0.00132995
0.000455986
0.000450569
0.000568452
0.000542168
0.000480483
0.000401168
0.000343347
0.000362162
0.000393971
0.000449146
0.000462851
0.000400016
0.000436626
0.000510595
0.000569845
0.000600004
0.000524918
0.000552475
0.00148602
0.00149358
0.000552458
0.000513013
0.000591328
0.000561998
0.000506088
0.000437987
0.000406013
0.000469942
0.000452493
0.000496927
0.000733831
0.000593488
0.000615036
0.000646322
0.000663757
0.000655683
0.000616882
0.000649256
0.00151476
0.00152486
0.000650484
0.000610431
0.000651232
0.00066031
0.000644352
0.000616718
0.000601116
0.000743408
0.000501199
0.000544267
0.000743008
0.00100649
0.00120622
0.00137173
0.00144762
0.00137541
0.00112981
0.00108946
0.0015142
0.00151457
0.00109254
0.00111173
0.00136275
0.00144581
0.00137529
0.00121221
0.00101716
0.000749122
0.000549225
0.000601318
0.000666895
0.000721751
0.000776755
0.000833543
0.000889583
0.000946037
0.00100771
0.00108482
0.0011745
0.00117161
0.00108596
0.0010097
0.000948751
0.000893202
0.000837943
0.00078172
0.000727219
0.000672379
0.000606642
0.000109444
0.000126921
0.000139366
0.000151248
0.000162049
0.000172657
0.000185489
0.00019927
0.000209936
0.000218429
0.000216136
0.000206161
0.000195098
0.000180894
0.000168344
0.000158285
0.000147997
0.000136366
0.000125225
0.000107408
0.000143371
0.000373147
0.000434196
0.000487303
0.000538551
0.000573784
0.000597851
0.000474016
0.000475631
0.000317873
0.000310776
0.000464213
0.000450687
0.000590645
0.000575068
0.000543535
0.000493516
0.000442222
0.000377592
0.000141326
0.00015996
0.000412285
0.000485116
0.000546778
0.000602837
0.000629922
0.000598989
0.00034967
0.000604792
0.000467781
0.000459892
0.00061826
0.000331903
0.00058669
0.00062977
0.000606008
0.000549202
0.000487131
0.000414866
0.000158092
0.000178968
0.000415369
0.000492054
0.000555626
0.000618148
0.000642767
0.000572057
0.000324899
0.000823852
0.000633752
0.000623328
0.000853831
0.000316322
0.000553696
0.000636003
0.000614834
0.000551707
0.000486114
0.000405895
0.000179983
0.000303533
0.000314076
0.000386738
0.00051184
0.000605472
0.000645263
0.00055435
0.00036199
0.00108655
0.000823192
0.000807744
0.0011277
0.000359356
0.000532019
0.000630606
0.000592029
0.000499678
0.000377426
0.000314039
0.00030709
0.000382981
0.000356793
0.00034191
0.000408318
0.000538818
0.000618485
0.000544585
0.000409272
0.00132502
0.00103106
0.00100874
0.00137489
0.000411804
0.000519295
0.000599986
0.000524404
0.000404069
0.000341557
0.000359563
0.000385722
0.000439281
0.000445317
0.000389707
0.000428409
0.000537527
0.000630325
0.000611306
0.000499977
0.00148602
0.00123693
0.00120654
0.00153527
0.000496994
0.000586248
0.000612218
0.000525006
0.000425718
0.000393592
0.000451289
0.000442869
0.000485352
0.000696404
0.000556602
0.000575007
0.000618378
0.000645322
0.000632733
0.000590299
0.00151476
0.00139954
0.00136052
0.00156871
0.000586941
0.000615514
0.000630509
0.000608502
0.000573078
0.000563022
0.000705615
0.000489986
0.000531064
0.000686306
0.000899644
0.00108849
0.00120156
0.00116511
0.000988653
0.00101726
0.0015142
0.00149907
0.00145877
0.00154482
0.00102155
0.000969537
0.00114713
0.00119725
0.00109277
0.000910524
0.00069357
0.000536546
0.000591108
0.000655936
0.000709589
0.000766849
0.000826428
0.000887663
0.000958165
0.00105348
0.0011745
0.00123358
0.00121806
0.00117772
0.00105781
0.000961847
0.000891372
0.000830837
0.000772032
0.000715504
0.000661908
0.000596951
0.000110089
0.000127583
0.000138948
0.000150008
0.000161018
0.000172025
0.000185676
0.000199853
0.00020947
0.000216136
0.000209216
0.000201026
0.00019144
0.000178374
0.000166342
0.000156788
0.000147111
0.000136356
0.000125577
0.000107945
0.00014371
0.000368946
0.000433884
0.000488064
0.000543821
0.000581113
0.000605034
0.000468036
0.000480015
0.000310776
0.00029146
0.000444517
0.00043988
0.000574273
0.000553711
0.00052043
0.00047074
0.000420325
0.000362742
0.000142138
0.000159355
0.000392069
0.00046411
0.00052616
0.000585468
0.000617196
0.000592056
0.000339478
0.00061651
0.000459892
0.000434159
0.000591658
0.000320739
0.000566889
0.000595258
0.000567909
0.000512816
0.000452823
0.000382122
0.000157863
0.000174964
0.000374377
0.000457485
0.000521757
0.000586325
0.000616176
0.000560013
0.00031392
0.000834975
0.000623328
0.000593302
0.000822811
0.00030313
0.000540135
0.000602509
0.000576486
0.000517033
0.000452953
0.000363767
0.000180694
0.000302998
0.000306327
0.000367477
0.000475407
0.000566441
0.000614269
0.000543142
0.00034604
0.00109321
0.000807744
0.000774488
0.00109665
0.000343633
0.000523725
0.000603106
0.000558663
0.000469664
0.000362843
0.000307047
0.000307151
0.000381232
0.000354738
0.000338754
0.000400756
0.00051489
0.000594422
0.000533452
0.000390937
0.00132995
0.00100874
0.000972568
0.00134561
0.000396085
0.000514519
0.000583876
0.000506989
0.000395759
0.000339088
0.000357977
0.000383975
0.000437185
0.000444658
0.000390581
0.000429669
0.000532721
0.000621074
0.000601068
0.000483138
0.00149358
0.00120654
0.00116742
0.00151383
0.000490168
0.000589478
0.00061481
0.000527122
0.00042698
0.000394047
0.000450465
0.000440626
0.000483131
0.000693795
0.000556151
0.000575158
0.000617955
0.000643181
0.000627365
0.000579277
0.00152486
0.00136052
0.00131687
0.00155337
0.000585691
0.000622383
0.000638467
0.000613737
0.000573726
0.000561421
0.000702712
0.000487537
0.000528729
0.000678511
0.000888506
0.00107777
0.00119363
0.00115695
0.000975521
0.0010103
0.00151457
0.00145877
0.00141319
0.00152778
0.00101614
0.000960582
0.00113946
0.00118898
0.00108089
0.000897709
0.000685777
0.00053388
0.00058931
0.000654122
0.000707733
0.00076537
0.000825272
0.00088655
0.000956925
0.00105219
0.00117161
0.00121806
0.00120611
0.00117245
0.00105526
0.000960055
0.00088972
0.000829033
0.000769817
0.000712824
0.000659376
0.000594666
0.00011001
0.000129567
0.00014288
0.000154344
0.000163718
0.000171929
0.000179978
0.000188654
0.000196575
0.000206161
0.000201026
0.000189754
0.000182308
0.000174978
0.000168239
0.000161302
0.000152963
0.000140763
0.0001268
0.000107351
0.000140832
0.000321086
0.000382083
0.000431329
0.000466184
0.000494425
0.000521442
0.000526014
0.000399291
0.000464213
0.000444517
0.000382724
0.000501821
0.000497823
0.000473574
0.000447849
0.000415759
0.000367267
0.000310003
0.000138757
0.00015056
0.00033168
0.000420544
0.000476529
0.000512865
0.000537124
0.000551679
0.000502828
0.000307422
0.00061826
0.000591658
0.000296618
0.000488051
0.00053577
0.000522663
0.000499766
0.0004648
0.000410714
0.00032436
0.0001489
0.000184212
0.000300679
0.000406446
0.000480615
0.000528644
0.000555804
0.000563781
0.000478714
0.000324571
0.000853831
0.000822811
0.000314659
0.000469363
0.000554041
0.000547054
0.000521029
0.000474425
0.000401183
0.000297983
0.000190773
0.000310685
0.000300824
0.00035783
0.000442453
0.000511579
0.000557712
0.000574481
0.000467235
0.000388551
0.0011277
0.00109665
0.000381998
0.000461637
0.000569151
0.000553046
0.000507601
0.000439256
0.00035636
0.000303469
0.000314935
0.000389074
0.000361653
0.00034766
0.000407152
0.000484405
0.000543816
0.000570366
0.000455
0.000455986
0.00137489
0.00134561
0.000452907
0.000452345
0.000567988
0.000541212
0.000481985
0.00040638
0.000349396
0.000365942
0.000392031
0.000446371
0.000463736
0.00040758
0.000447758
0.000518891
0.000573791
0.000600343
0.000518356
0.000552458
0.00153527
0.00151383
0.000554209
0.000522458
0.000605156
0.000576993
0.000520895
0.000450243
0.000412332
0.000470652
0.000449909
0.000494218
0.000726178
0.000596138
0.00062155
0.000653598
0.000669741
0.000658511
0.000613422
0.000650484
0.00156871
0.00155337
0.000655621
0.000620653
0.000666726
0.000677507
0.000660095
0.000627208
0.000603467
0.000735533
0.000498607
0.000541927
0.000730556
0.000991241
0.00119733
0.00136645
0.0014425
0.00136239
0.00111246
0.00109254
0.00154482
0.00152778
0.00109584
0.00110195
0.00135409
0.00144518
0.001375
0.00120773
0.00100371
0.000739526
0.000546982
0.00060041
0.000666121
0.000721171
0.00077667
0.000833804
0.000889886
0.000946107
0.00100785
0.00108596
0.00117772
0.00117245
0.00108578
0.00100924
0.00094831
0.000892957
0.000837657
0.000781119
0.000726082
0.000671166
0.000605559
0.000112882
0.000139383
0.000157908
0.00016886
0.000176278
0.000180615
0.000182728
0.000184024
0.000186757
0.000195098
0.00019144
0.000182308
0.000180768
0.000180901
0.000180272
0.000177328
0.000170705
0.000157952
0.000139793
0.000110637
0.000144975
0.000303727
0.00037488
0.000415806
0.000441082
0.000458191
0.000472376
0.000493533
0.000516761
0.000450687
0.00043988
0.000501821
0.000480079
0.000460715
0.000447076
0.000430642
0.000406465
0.000365627
0.000295821
0.000142228
0.000193097
0.000336102
0.000427212
0.000481572
0.000507807
0.000517351
0.000521516
0.000528972
0.000497963
0.000331903
0.000320739
0.000488051
0.000520518
0.000514458
0.000510191
0.000500198
0.00047356
0.000420783
0.000332082
0.000191959
0.000217835
0.000320187
0.000412621
0.000479874
0.000522569
0.00054423
0.000550159
0.000548014
0.000475655
0.000316322
0.00030313
0.000469363
0.000542488
0.000545334
0.000539559
0.000518668
0.000476962
0.000411053
0.00032069
0.000221215
0.000321572
0.00033111