/*--------------------------------*- C++ -*----------------------------------*\
  =========                 |
  \\      /  F ield         | OpenFOAM: The Open Source CFD Toolbox
   \\    /   O peration     | Website:  https://openfoam.org
    \\  /    A nd           | Version:  9
     \\/     M anipulation  |
\*---------------------------------------------------------------------------*/
FoamFile
{
    format      ascii;
    class       volScalarField;
    location    "1750";
    object      nut;
}
// * * * * * * * * * * * * * * * * * * * * * * * * * * * * * * * * * * * * * //

dimensions      [0 2 -1 0 0 0 0];

internalField   nonuniform List<scalar> 
4000
(
0.000301432
0.000265083
0.000201309
0.000142375
0.000129108
0.00012379
0.000107972
9.68898e-05
9.39884e-05
9.44195e-05
9.49761e-05
9.49079e-05
9.73848e-05
0.000107138
0.000119305
0.000127606
0.000147062
0.000219911
0.000278972
0.000311403
0.000337758
0.0003198
0.000290062
0.000269412
0.000246139
0.00021394
0.000141238
0.000123423
0.000120181
0.000123715
0.000124007
0.000121524
0.000125098
0.000145153
0.000216709
0.000244952
0.000265515
0.00028788
0.00032407
0.000342929
0.000354368
0.000342781
0.00032297
0.000299473
0.000271355
0.000240453
0.000205755
0.000154587
0.00013081
0.000138042
0.00013752
0.00012993
0.000166638
0.000210549
0.000245815
0.000275879
0.000302678
0.000325172
0.000346296
0.000358771
0.000362934
0.000356036
0.000337364
0.000310863
0.000277563
0.000243881
0.000212871
0.000180262
0.000157293
0.000154455
0.000150999
0.000158981
0.000187999
0.000217238
0.000247527
0.000281151
0.00031356
0.000339735
0.000359485
0.000367165
0.000368447
0.000367138
0.00035566
0.000339215
0.000320718
0.000303626
0.000289316
0.000277473
0.000268594
0.000261981
0.00026152
0.000268154
0.000277551
0.000289756
0.000304436
0.000322034
0.00034102
0.000358168
0.000370576
0.000372614
0.000372913
0.000377722
0.000376001
0.000371363
0.000365405
0.000358716
0.000351998
0.000345035
0.000337898
0.00033057
0.00032906
0.00033583
0.000343382
0.000351029
0.00035854
0.000366056
0.000372859
0.000378427
0.000381097
0.000377015
0.000377526
0.000388698
0.000395299
0.000399085
0.000400997
0.000400788
0.000398503
0.0003942
0.000387696
0.000379181
0.000377372
0.000385302
0.000392206
0.000397262
0.000400424
0.00040154
0.000400546
0.000397694
0.000391996
0.000381548
0.000382977
0.000400447
0.000414041
0.000423967
0.000431309
0.000435849
0.000437279
0.000435182
0.000428958
0.000418966
0.000417049
0.00042662
0.000433259
0.000436131
0.0004356
0.000431991
0.000425555
0.000416467
0.000403677
0.000386906
0.000390414
0.000415243
0.000435133
0.000450238
0.000461933
0.000470288
0.000475022
0.000475278
0.000469841
0.000458443
0.000456428
0.000467822
0.000473774
0.00047432
0.00047048
0.000463015
0.000452114
0.000437714
0.000418479
0.000394245
0.000401415
0.000433713
0.000460134
0.000480059
0.000495922
0.000508229
0.00051675
0.000520788
0.000519106
0.000510291
0.00050874
0.000518323
0.000520545
0.000517076
0.000509132
0.000497401
0.000482103
0.000462703
0.000436798
0.000405122
0.000265083
0.000250404
0.000193802
0.000164921
0.000165685
0.000164255
0.000147709
0.000121637
0.000110508
0.000109497
0.000110068
0.000111779
0.000120248
0.000143484
0.000160081
0.000166494
0.000169907
0.000206262
0.000263555
0.000280054
0.0003198
0.00041667
0.000393351
0.000372834
0.000366833
0.000343731
0.000283237
0.000255008
0.000271682
0.000321988
0.000318363
0.000277065
0.000262085
0.000298392
0.000353257
0.000364371
0.00036357
0.000386195
0.00042558
0.000325367
0.000342781
0.000483096
0.000476963
0.000433601
0.000388711
0.000353422
0.000319294
0.00028367
0.000286195
0.000355793
0.000338347
0.000286232
0.000290047
0.000327629
0.000364323
0.000399857
0.000448009
0.000496484
0.000501518
0.000347459
0.000356036
0.000478273
0.000487278
0.000445274
0.000384621
0.000340624
0.000304044
0.000271057
0.000273037
0.000358477
0.000323099
0.000259496
0.000276333
0.000312184
0.000348587
0.000391289
0.000450392
0.000494909
0.000488886
0.000360496
0.000367138
0.000499382
0.000524946
0.000494215
0.000420015
0.000358922
0.000315137
0.000277311
0.000258568
0.000271077
0.000264389
0.00025964
0.000285779
0.000323924
0.000365956
0.000425249
0.000496743
0.000530156
0.000507312
0.000371471
0.000377722
0.00051999
0.000558854
0.000553898
0.000499434
0.000418961
0.000368078
0.00032976
0.000309849
0.000307963
0.00030619
0.000312158
0.000335687
0.000374732
0.000424523
0.000502043
0.000556408
0.000564965
0.000528028
0.000381954
0.000388698
0.000533938
0.000578951
0.000603016
0.000602233
0.000562857
0.000495317
0.000433731
0.000399527
0.000384391
0.000383823
0.000400291
0.000435056
0.00049758
0.000565936
0.00060434
0.000607192
0.00058661
0.000542744
0.000392898
0.000400447
0.000541677
0.000585975
0.00063246
0.000675989
0.000691778
0.000685808
0.000666619
0.000633461
0.000601153
0.000598901
0.000626856
0.000661034
0.000683259
0.000692213
0.000679307
0.000638416
0.000594619
0.000550822
0.00040465
0.000415243
0.000530785
0.00058157
0.000622776
0.000655306
0.000674905
0.000682305
0.000673332
0.000641417
0.000592468
0.000585739
0.000630668
0.000664462
0.000678049
0.000675219
0.00065966
0.000629703
0.000589984
0.000538551
0.000419435
0.000433713
0.000467477
0.000496048
0.000518994
0.000538819
0.000555658
0.000568555
0.000575948
0.000575729
0.000566268
0.000564703
0.000575062
0.000576054
0.000569491
0.000557383
0.000541275
0.000522065
0.000499533
0.000471232
0.000437691
0.000201309
0.000193802
0.000177983
0.00018468
0.000186797
0.000183344
0.000163059
0.000139978
0.000125224
0.000120233
0.000119873
0.000123265
0.00013623
0.000160781
0.000180631
0.000187714
0.00018595
0.000183268
0.000207711
0.000222301
0.000290063
0.000393351
0.000411153
0.000416566
0.000425123
0.000404514
0.000343842
0.000315771
0.000324527
0.000374667
0.000374398
0.000329699
0.000323482
0.000363809
0.000420971
0.000426932
0.000409881
0.000400901
0.000389266
0.000290678
0.00032297
0.000476963
0.000498749
0.000473468
0.000444742
0.000418324
0.000390733
0.000361076
0.000363217
0.000418645
0.000400517
0.00036292
0.000368673
0.000400981
0.000432854
0.000459071
0.000490568
0.000519706
0.000498704
0.000327014
0.000337364
0.000487278
0.000520706
0.000493363
0.000445098
0.000407524
0.000377294
0.00035482
0.000369259
0.000424661
0.000394826
0.000350776
0.000356106
0.000385178
0.000417359
0.000454028
0.000501053
0.000529634
0.000498137
0.00034162
0.00035566
0.000524946
0.000569362
0.000543822
0.000471186
0.000409536
0.000365561
0.000328836
0.000310483
0.000333789
0.000317165
0.000308838
0.000336365
0.000374964
0.000418274
0.000478703
0.000549718
0.000576556
0.000533233
0.000359827
0.000376001
0.000558854
0.000612853
0.000597789
0.000520893
0.000434045
0.000373293
0.000324826
0.00029371
0.000295114
0.00029239
0.000300077
0.000335787
0.000383895
0.000442664
0.000527999
0.000604778
0.000621734
0.000567629
0.000379969
0.000395299
0.000578951
0.000640477
0.00064086
0.000585731
0.000506265
0.000436987
0.000380956
0.000345286
0.000336387
0.000337142
0.000351815
0.000391284
0.00044756
0.000515609
0.000594353
0.000651082
0.000652458
0.000589371
0.00039931
0.000414041
0.000585975
0.000661587
0.000697605
0.000684842
0.000642658
0.000598427
0.000554972
0.00051231
0.000480469
0.000480079
0.000514597
0.000561915
0.000609287
0.000655205
0.000697469
0.000711059
0.000676562
0.000597892
0.000418201
0.000435133
0.00058157
0.000706423
0.00082527
0.000902434
0.000939876
0.000943864
0.000926593
0.000868874
0.000776637
0.000767022
0.000855712
0.000920096
0.000948136
0.000949491
0.000915121
0.000840246
0.000721758
0.000592944
0.000439458
0.000460134
0.000496048
0.000525994
0.000550834
0.000573518
0.000594091
0.000610991
0.000621705
0.000623098
0.0006126
0.000610998
0.0006226
0.000622242
0.00061261
0.000596679
0.000576963
0.000554857
0.000530197
0.000500191
0.00046417
0.000142375
0.000164921
0.00018468
0.000193243
0.000196228
0.000189741
0.000170698
0.000151222
0.000136805
0.000130484
0.000129415
0.000133156
0.000145679
0.000167254
0.000189145
0.000197726
0.000195506
0.000185775
0.000169823
0.000146245
0.000269412
0.000372834
0.000416566
0.000444296
0.000455522
0.000427089
0.00037354
0.000352777
0.000368338
0.000420494
0.00042115
0.000372194
0.000358798
0.000391434
0.000452036
0.000465366
0.00044279
0.000410074
0.000365941
0.000268691
0.000299473
0.000433601
0.000473468
0.000475844
0.000468667
0.000454334
0.000433295
0.000406209
0.000413748
0.000471859
0.000454066
0.000411234
0.000415584
0.000445919
0.000470573
0.000484907
0.000492364
0.000492117
0.000451644
0.000304561
0.000310863
0.000445274
0.000493363
0.000490013
0.000468143
0.000446459
0.000427439
0.000415148
0.000431007
0.000479526
0.000450295
0.000414787
0.000414147
0.000434226
0.000457252
0.000479354
0.000500615
0.000504379
0.000456167
0.000315854
0.000339215
0.000494215
0.000543822
0.000535107
0.000491705
0.000449912
0.000418292
0.000393864
0.000391364
0.000441762
0.000410317
0.000381874
0.000397487
0.000425889
0.000459064
0.000501603
0.000545326
0.000554569
0.000503769
0.00034315
0.000371363
0.000553898
0.000597789
0.000588166
0.000532342
0.000468462
0.000418132
0.00037568
0.000346566
0.000352431
0.000345904
0.000351425
0.000385714
0.000428351
0.000478119
0.000542591
0.000599845
0.000609893
0.000562843
0.000374909
0.000399085
0.000603016
0.00064086
0.000635399
0.000586211
0.000519619
0.000461884
0.000413018
0.000376885
0.000369792
0.00037088
0.000386493
0.000426469
0.000474788
0.000531428
0.000598895
0.000650331
0.000655975
0.000612505
0.000402757
0.000423967
0.00063246
0.000697605
0.000721669
0.000698923
0.000652679
0.000609938
0.000571426
0.000530908
0.000496353
0.000496484
0.000536531
0.000583361
0.000625637
0.00066994
0.000717918
0.00074312
0.000715983
0.000643375
0.000427949
0.000450238
0.000622776
0.00082527
0.000990107
0.00102214
0.00104643
0.00107635
0.00108707
0.0010413
0.000939659
0.00093041
0.00103363
0.00108835
0.00108845
0.00106704
0.00104772
0.00102045
0.000844488
0.000635504
0.000454553
0.000480059
0.000518994
0.000550834
0.000577871
0.000604312
0.000629572
0.000651333
0.000666237
0.000670599
0.000662047
0.000660771
0.000670527
0.000667278
0.00065351
0.000632858
0.000608521
0.000582618
0.00055549
0.000523317
0.000484086
0.000129108
0.000165685
0.000186797
0.000196228
0.000197311
0.000188796
0.000173054
0.000157585
0.000145068
0.000139804
0.000138914
0.000141243
0.000152079
0.000168979
0.000187512
0.000197561
0.000197836
0.000188053
0.000166316
0.000127393
0.000246139
0.000366833
0.000425123
0.000455522
0.000455093
0.000421407
0.000388227
0.00037716
0.000397221
0.000464717
0.000469264
0.000402271
0.000380608
0.000399113
0.000448049
0.000475701
0.000463423
0.00042512
0.000364451
0.000247373
0.000271355
0.000388711
0.000444742
0.000468667
0.000476123
0.000472536
0.000453331
0.000430342
0.000445321
0.000520238
0.000505248
0.000442592
0.000438224
0.000465191
0.000486923
0.000493454
0.000484549
0.000459704
0.000401946
0.0002773
0.000277563
0.000384621
0.000445098
0.000468143
0.000470657
0.000465714
0.000458314
0.000452714
0.00046934
0.000533485
0.00050602
0.000456238
0.000450995
0.000462473
0.000475499
0.000482697
0.000479975
0.000456607
0.000394992
0.000283011
0.000320718
0.000420015
0.000471186
0.000491705
0.000484285
0.000468334
0.000452934
0.000442002
0.000456609
0.000522575
0.000488887
0.000441536
0.000442283
0.000458012
0.000476407
0.000494438
0.000503448
0.000484144
0.000432117
0.000324091
0.000365405
0.000499434
0.000520893
0.000532342
0.000515705
0.000485123
0.00045459
0.000427759
0.000420498
0.000465069
0.000444416
0.000418103
0.000434691
0.00046298
0.000494291
0.000526738
0.000546251
0.000536614
0.0005117
0.000368481
0.000400997
0.000602233
0.000585731
0.000586211
0.00056844
0.000532912
0.000494639
0.000459838
0.000440732
0.000463978
0.00045983
0.000447893
0.000472482
0.000507235
0.000545246
0.000582454
0.000603226
0.000603144
0.000612238
0.000404339
0.000431309
0.000675989
0.000684842
0.000698923
0.000685236
0.000651
0.000618485
0.000589372
0.000557914
0.00053379
0.000533425
0.000564194
0.000602492
0.000635218
0.000669542
0.000705549
0.000721792
0.000706497
0.00068651
0.000435057
0.000461933
0.000655306
0.000902434
0.00102214
0.00109545
0.0011577
0.00121827
0.00124502
0.00118418
0.00103727
0.00103043
0.00117963
0.00124928
0.00123331
0.00118006
0.00112204
0.00105101
0.000922056
0.000667547
0.000466126
0.000495922
0.000538819
0.000573518
0.000604312
0.000636586
0.000667008
0.000693173
0.000712075
0.000719643
0.000713503
0.000712506
0.000719871
0.000713434
0.000695668
0.00067049
0.000640887
0.000609136
0.000578209
0.000543115
0.000499904
0.00012379
0.000164255
0.000183344
0.000189741
0.000188796
0.000181878
0.000171979
0.000161302
0.000152005
0.000148956
0.00014841
0.000148328
0.000155821
0.000167086
0.000179148
0.000187531
0.000188973
0.000181587
0.00016073
0.000118136
0.00021394
0.000343731
0.000404514
0.000427089
0.000421407
0.000407565
0.000397283
0.000395538
0.000421666
0.00049512
0.000501444
0.000426641
0.000395373
0.000398701
0.000419808
0.000444041
0.000446293
0.000416265
0.000351218
0.000218864
0.000240453
0.000353422
0.000418324
0.000454334
0.000472536
0.000471916
0.000455556
0.000443169
0.000466951
0.000543612
0.000532629
0.000463528
0.000446462
0.000463377
0.000483333
0.000485715
0.000469018
0.000431965
0.000364568
0.000246384
0.000243881
0.000340624
0.000407524
0.000446459
0.000465714
0.000473502
0.000474901
0.000471674
0.00049114
0.000554733
0.000531783
0.000479678
0.000469689
0.000475517
0.000479205
0.000475089
0.000456929
0.000417579
0.000348811
0.00024761
0.000303626
0.000358922
0.000409536
0.000449912
0.000468334
0.000472816
0.000471282
0.000471816
0.000497737
0.000556918
0.000530167
0.000481352
0.000469499
0.000473307
0.000477835
0.000475737
0.000458851
0.000419049
0.000366685
0.000305928
0.000358716
0.000418961
0.000434045
0.000468462
0.000485123
0.000483032
0.000471995
0.000462027
0.000476928
0.00053383
0.000513061
0.000469382
0.000465691
0.000477707
0.000489787
0.000493561
0.000479067
0.000445831
0.000428268
0.000361241
0.000400788
0.000562857
0.000506265
0.000519619
0.000532912
0.000526359
0.000507694
0.000488833
0.000491874
0.000544078
0.000536093
0.00049528
0.000499137
0.000518408
0.000536943
0.000544564
0.00053333
0.000521107
0.0005749
0.000403853
0.000435849
0.000691778
0.000642658
0.000652679
0.000651
0.000634961
0.00061717
0.000598829
0.000572962
0.000557047
0.000555199
0.000578128
0.00061074
0.000632601
0.000651692
0.000668785
0.000671471
0.000661068
0.000702862
0.000439402
0.000470288
0.000674905
0.000939876
0.00104643
0.0011577
0.0012607
0.00134419
0.00136413
0.0012497
0.00100581
0.000998767
0.00124528
0.00136795
0.00135727
0.0012805
0.00117982
0.00106913
0.000957196
0.00068431
0.00047428
0.000508229
0.000555658
0.000594091
0.000629572
0.000667008
0.000702236
0.000733034
0.000756272
0.000768048
0.000766394
0.000765435
0.000768312
0.000757697
0.00073556
0.000705707
0.000671124
0.000634074
0.000598558
0.000559868
0.000512211
0.000107972
0.000147709
0.000163059
0.000170698
0.000173054
0.000171979
0.000168364
0.000163204
0.000158595
0.000160027
0.000160189
0.000155273
0.000157645
0.000162535
0.000166983
0.000169116
0.000167704
0.000160594
0.000143162
0.000105528
0.000141238
0.000283237
0.000343842
0.00037354
0.000388227
0.000397283
0.000402945
0.000411716
0.000445816
0.000515888
0.000522086
0.000449955
0.000407615
0.000396055
0.000393292
0.000390106
0.000380316
0.000353252
0.000290349
0.000144662
0.000205755
0.000319294
0.000390733
0.000433295
0.000453331
0.000455556
0.000451286
0.000452872
0.00048049
0.000516918
0.000510934
0.000476089
0.000450057
0.00045101
0.00046069
0.000462051
0.000443154
0.000398538
0.000325707
0.000208441
0.000212871
0.000304044
0.000377294
0.000427439
0.000458314
0.000474901
0.000478907
0.000478234
0.000496771
0.000493708
0.000483313
0.000486564
0.000474806
0.00047678
0.000474688
0.000461246
0.000432667
0.000383009
0.000309075
0.000213801
0.000289316
0.000315137
0.000365561
0.000418292
0.000452934
0.000471282
0.000479841
0.000488011
0.000509717
0.000478452
0.000468779
0.000495825
0.000483667
0.000478527
0.000472
0.000455609
0.000422678
0.000371214
0.000320478
0.000290839
0.000351998
0.000368078
0.000373293
0.000418132
0.00045459
0.000471995
0.000476643
0.000480714
0.000500412
0.000470045
0.000460436
0.000492297
0.000481325
0.00047911
0.000475213
0.000459107
0.000424483
0.000381107
0.000374776
0.000354119
0.000398503
0.000495317
0.000436987
0.000461884
0.000494639
0.000507694
0.000504795
0.000500772
0.000517906
0.00052766
0.000518823
0.000518198
0.000507716
0.000512223
0.000514775
0.00050209
0.000470634
0.000447287
0.000504732
0.000401356
0.000437279
0.000685808
0.000598427
0.000609938
0.000618485
0.00061717
0.000610833
0.000594919
0.000565992
0.000546179
0.000541546
0.000568433
0.000603349
0.000622416
0.000629702
0.000630678
0.000622084
0.000611548
0.000696773
0.000440748
0.000475022
0.000682305
0.000943864
0.00107635
0.00121827
0.00134419
0.00142831
0.00140619
0.00118738
0.000853491
0.000842155
0.00117614
0.00140513
0.00143633
0.00135783
0.00123323
0.00109
0.000958264
0.000689081
0.00047892
0.00051675
0.000568555
0.00061099
0.000651333
0.000693173
0.000733034
0.000768807
0.000797628
0.000816816
0.000827298
0.00082623
0.000816879
0.000798895
0.000771193
0.000736329
0.000697091
0.000655544
0.000615356
0.000572793
0.000520832
9.68898e-05
0.000121637
0.000139978
0.000151222
0.000157585
0.000161302
0.000163204
0.000164081
0.000165574
0.000171918
0.000172421
0.000162759
0.000158764
0.000157036
0.000155157
0.000151684
0.00014553
0.000134465
0.000116695
9.434e-05
0.000123423
0.000255008
0.000315771
0.000352777
0.00037716
0.000395538
0.000411716
0.000432121
0.000454137
0.000409032
0.000403872
0.0004539
0.000425872
0.000401018
0.000384412
0.000367071
0.000343725
0.000307826
0.000250527
0.000119351
0.000154587
0.00028367
0.000361076
0.000406209
0.000430342
0.000443169
0.000452872
0.000464293
0.000442312
0.00030176
0.000292964
0.000433932
0.000456493
0.00044617
0.000439986
0.000431113
0.000409351
0.000363376
0.000285772
0.000156923
0.000180262
0.000271057
0.00035482
0.000415148
0.000452714
0.000471674
0.000478234
0.000479645
0.000423238
0.000280401
0.000270926
0.000413148
0.000472955
0.000473832
0.000468566
0.00045013
0.000412795
0.000353459
0.000271681
0.00018044
0.000277473
0.000277311
0.000328836
0.000393864
0.000442002
0.000471816
0.000488011
0.000492039
0.000413245
0.000312429
0.000298663
0.000403263
0.000485494
0.000483026
0.000467788
0.000439368
0.000393176
0.000330903
0.000281233
0.000278921
0.000345035
0.00032976
0.000324826
0.00037568
0.000427759
0.000462027
0.000480714
0.000486254
0.000400352
0.000353254
0.000337429
0.000392721
0.000483302
0.000478785
0.000460761
0.000428143
0.000378798
0.000330314
0.00033458
0.000347039
0.0003942
0.000433731
0.000380956
0.000413018
0.000459838
0.000488833
0.000500772
0.000506015
0.000453092
0.000431565
0.00041703
0.000447428
0.000507868
0.000502956
0.000490733
0.000462462
0.000417803
0.000388356
0.000440862
0.000396992
0.000435182
0.000666619
0.000554972
0.000571426
0.000589372
0.000598829
0.000594919
0.000572207
0.000532498
0.000509553
0.000500038
0.000529512
0.000575112
0.000600047
0.000604548
0.000594728
0.000577267
0.000563657
0.000676215
0.000438696
0.000475278
0.000673332
0.000926593
0.00108707
0.00124502
0.00136413
0.00140619
0.00127591
0.000975365
0.000878219
0.000872212
0.000960387
0.00126356
0.00140569
0.00137055
0.00125291
0.00109445
0.000936711
0.00067864
0.000479273
0.000520788
0.000575948
0.000621705
0.000666237
0.000712075
0.000756272
0.000797628
0.000834753
0.000870103
0.000909642
0.000908538
0.000870226
0.000835862
0.000799842
0.000759425
0.000715864
0.000670379
0.00062613
0.00058035
0.000525068
9.39884e-05
0.000110508
0.000125224
0.000136805
0.000145068
0.000152005
0.000158595
0.000165574
0.000172129
0.000181123
0.000180721
0.000169593
0.000161121
0.000153332
0.000146608
0.00013986
0.000131953
0.000120684
0.000107985
9.20217e-05
0.000120181
0.000271682
0.000324527
0.000368338
0.000397221
0.000421666
0.000445816
0.000454137
0.000359695
0.000410438
0.000414221
0.000344551
0.000445916
0.000439515
0.000416229
0.000392607
0.000364253
0.000322628
0.000273334
0.000117971
0.00013081
0.000286195
0.000363217
0.000413748
0.000445321
0.000466951
0.00048049
0.000442312
0.000275052
0.000521939
0.000532052
0.0002653
0.000429734
0.00047528
0.00046433
0.000443817
0.000412304
0.000362154
0.00028531
0.000128711
0.000157293
0.000273037
0.000369259
0.000431007
0.00046934
0.00049114
0.000496771
0.000423238
0.000283215
0.000711039
0.000720639
0.000280118
0.000410508
0.000490927
0.000487471
0.000465671
0.000424428
0.000359003
0.000263591
0.000157101
0.000268594
0.000258568
0.000310483
0.000391364
0.000456609
0.000497737
0.000509717
0.000413245
0.000337102
0.000937819
0.00094357
0.000335354
0.000400761
0.000499782
0.000487709
0.000446977
0.000384369
0.000307595
0.000258828
0.000270834
0.000337898
0.000309849
0.00029371
0.000346566
0.000420498
0.000476928
0.000500412
0.000400352
0.000392443
0.00114372
0.00114797
0.000393575
0.000388896
0.000490645
0.000467959
0.000414718
0.00034626
0.000296354
0.000312598
0.000340057
0.000387696
0.000399527
0.000345286
0.000376885
0.000440732
0.000491874
0.000517906
0.000453092
0.00047688
0.00128275
0.00128927
0.000476865
0.000442816
0.000510416
0.0004851
0.000436841
0.000378059
0.000350462
0.000405647
0.000390587
0.000428958
0.000633461
0.00051231
0.000530908
0.000557913
0.000572962
0.000565992
0.000532498
0.000560447
0.00130764
0.00131636
0.000561508
0.000526929
0.000562149
0.000569987
0.000556212
0.00053236
0.000518895
0.000641729
0.000432647
0.000469841
0.000641417
0.000868874
0.0010413
0.00118418
0.0012497
0.00118738
0.000975365
0.000940564
0.00130736
0.00130768
0.000943217
0.000959756
0.00117645
0.00124814
0.00118726
0.00104646
0.000878091
0.000646696
0.000474123
0.000519106
0.000575729
0.000623098
0.000670599
0.000719643
0.000768048
0.000816816
0.000870103
0.000936727
0.00101422
0.00101173
0.000937717
0.00087182
0.000819162
0.000771175
0.000723444
0.000674887
0.000627821
0.000580465
0.000523704
9.44195e-05
0.000109497
0.000120233
0.000130484
0.000139804
0.000148956
0.000160027
0.000171918
0.000181123
0.000188737
0.000186754
0.000177865
0.000168318
0.000156063
0.000145235
0.000136556
0.00012768
0.000117646
0.000108034
9.26634e-05
0.000123715
0.000321988
0.000374667
0.000420494
0.000464717
0.00049512
0.000515888
0.000409032
0.000410438
0.000274573
0.000268443
0.000400584
0.000388901
0.00050967
0.000496227
0.000469017
0.000425856
0.000381594
0.000325824
0.00012195
0.000138042
0.000355793
0.000418645
0.000471858
0.000520238
0.000543612
0.000516918
0.00030176
0.000521939
0.000404007
0.000397195
0.000533561
0.000286427
0.000506304
0.00054348
0.000522974
0.00047395
0.000420384
0.000358021
0.00013643
0.000154455
0.000358477
0.000424661
0.000479526
0.000533485
0.000554733
0.000493708
0.000280401
0.000711039
0.000547317
0.000538319
0.000736912
0.000272999
0.000477861
0.000548895
0.000530625
0.000476143
0.000419534
0.000350301
0.000155331
0.000261981
0.000271077
0.000333789
0.000441762
0.000522575
0.000556918
0.000478452
0.000312429
0.000937819
0.000710902
0.000697567
0.000973337
0.000310155
0.000459178
0.000544267
0.000510972
0.000431265
0.000325751
0.000271045
0.000265051
0.00033057
0.000307963
0.000295114
0.000352431
0.000465069
0.00053383
0.000470045
0.000353254
0.00114372
0.000890405
0.00087114
0.00118676
0.000355439
0.000448216
0.000517863
0.000452627
0.000348763
0.000294809
0.000310354
0.000332936
0.000379181
0.000384391
0.000336387
0.000369792
0.000463978
0.000544078
0.00052766
0.000431565
0.00128275
0.0010682
0.00104196
0.00132526
0.00042899
0.000506031
0.000528448
0.00045317
0.000367468
0.00033974
0.000389547
0.000382279
0.000418966
0.000601153
0.000480469
0.000496353
0.00053379
0.000557047
0.000546179
0.000509553
0.00130764
0.00120865
0.00117497
0.00135422
0.000506654
0.000531316
0.00054426
0.000525265
0.000494688
0.00048601
0.000609105
0.000422968
0.000458443
0.000592468
0.000776637
0.000939659
0.00103727
0.00100581
0.000853491
0.000878219
0.00130736
0.00129466
0.00125987
0.00133381
0.000881927
0.00083699
0.000990295
0.00103355
0.000943355
0.00078603
0.00059874
0.000463177
0.000510291
0.000566268
0.0006126
0.000662047
0.000713503
0.000766394
0.000827298
0.000909642
0.00101422
0.00106538
0.001052
0.00101701
0.000913386
0.00083048
0.000769599
0.000717312
0.000666524
0.000617708
0.000571426
0.000515338
9.49761e-05
0.000110068
0.000119873
0.000129415
0.000138914
0.00014841
0.000160189
0.000172421
0.000180721
0.000186754
0.00018077
0.000173435
0.000165162
0.000153888
0.000143507
0.000135264
0.000126915
0.000117637
0.000108338
9.31266e-05
0.000124007
0.000318363
0.000374398
0.000421151
0.000469264
0.000501444
0.000522086
0.000403872
0.000414221
0.000268444
0.000251755
0.000383586
0.000379575
0.000495542
0.000477799
0.00044908
0.000406202
0.000362698
0.00031301
0.00012265
0.00013752
0.000338347
0.000400517
0.000454066
0.000505248
0.000532629
0.000510934
0.000292964
0.000532052
0.000397196
0.000374968
0.000510603
0.000276793
0.000489216
0.000513697
0.000490095
0.00044255
0.000390777
0.000329763
0.000136232
0.000150999
0.000323099
0.000394826
0.000450295
0.00050602
0.000531783
0.000483313
0.000270926
0.000720639
0.000538319
0.000512387
0.000710139
0.000261613
0.000466157
0.000519988
0.000497529
0.000446218
0.000390914
0.000313943
0.000155945
0.00026152
0.000264389
0.000317165
0.000410317
0.000488887
0.000530167
0.000468779
0.000298663
0.00094357
0.000697568
0.000668848
0.000946539
0.000296585
0.00045202
0.000520532
0.000482174
0.00040536
0.000313165
0.000265011
0.000265104
0.00032906
0.00030619
0.00029239
0.000345904
0.000444416
0.000513061
0.000460436
0.000337429
0.00114797
0.00087114
0.000839905
0.00116149
0.000341871
0.000444094
0.000503958
0.000437596
0.000341591
0.000292678
0.000308985
0.000331428
0.000377372
0.000383823
0.000337142
0.00037088
0.00045983
0.000536093
0.000518823
0.00041703
0.00128927
0.00104196
0.00100819
0.00130676
0.000423098
0.000508819
0.000530685
0.000454997
0.000368559
0.000340133
0.000388836
0.000380344
0.000417049
0.000598901
0.000480079
0.000496484
0.000533425
0.000555199
0.000541546
0.000500038
0.00131636
0.00117497
0.00113728
0.00134098
0.000505575
0.000537245
0.000551129
0.000529784
0.000495247
0.000484628
0.000606599
0.000420854
0.000456428
0.000585739
0.000767022
0.00093041
0.00103043
0.000998767
0.000842155
0.000872212
0.00130768
0.00125987
0.0012205
0.00131909
0.000877253
0.000829259
0.000983667
0.00102641
0.000933098
0.000774967
0.000592012
0.000460876
0.00050874
0.000564703
0.000610998
0.000660771
0.000712506
0.000765435
0.00082623
0.000908538
0.00101173
0.001052
0.00104168
0.00101246
0.000911191
0.000828936
0.000768176
0.000715756
0.000664613
0.000615395
0.000569241
0.000513366
9.49079e-05
0.000111779
0.000123265
0.000133156
0.000141243
0.000148328
0.000155273
0.000162759
0.000169593
0.000177866
0.000173435
0.000163707
0.000157282
0.000150958
0.000145144
0.000139158
0.000131964
0.000121438
0.000109393
9.26139e-05
0.000121524
0.000277065
0.000329699
0.000372194
0.000402271
0.000426641
0.000449955
0.0004539
0.000344551
0.000400584
0.000383586
0.000330255
0.000433024
0.000429573
0.000408648
0.000386449
0.000358759
0.000316914
0.000267502
0.000119733
0.00012993
0.000286232
0.00036292
0.000411234
0.000442592
0.000463528
0.000476089
0.000433932
0.0002653
0.000533561
0.000510603
0.000255977
0.00042118
0.000462359
0.000451047
0.000431287
0.000401112
0.000354436
0.000279915
0.000128498
0.000158981
0.000259496
0.000350776
0.000414787
0.000456238
0.000479678
0.000486564
0.000413148
0.000280118
0.000736912
0.000710139
0.000271563
0.000405078
0.000478158
0.000472127
0.000449666
0.000409445
0.000346235
0.00025717
0.000164644
0.000268154
0.00025964
0.000308838
0.000381874
0.000441536
0.000481352
0.000495825
0.000403263
0.000335354
0.000973337
0.000946539
0.000329698
0.000398432
0.000491225
0.000477325
0.000438102
0.000379115
0.00030757
0.000261923
0.000271823
0.00033583
0.000312158
0.000300077
0.000351425
0.000418103
0.000469382
0.000492297
0.000392721
0.000393575
0.00118676
0.00116149
0.000390917
0.000390429
0.000490244
0.000467134
0.000416014
0.000350758
0.000301576
0.000315861
0.000338382
0.000385302
0.000400291
0.000351815
0.000386493
0.000447893
0.00049528
0.000518198
0.000447428
0.000476865
0.00132526
0.00130676
0.000478377
0.000450969
0.000522352
0.000498043
0.000449622
0.000388639
0.000355917
0.000406261
0.000388357
0.00042662
0.000626856
0.000514597
0.000536531
0.000564194
0.000578128
0.000568433
0.000529512
0.000561508
0.00135422
0.00134098
0.000565942
0.000535753
0.000575524
0.000584831
0.000569802
0.000541415
0.000520923
0.000634932
0.00043041
0.000467822
0.000630668
0.000855712
0.00103363
0.00117963
0.00124528
0.00117614
0.000960387
0.000943217
0.00133381
0.00131909
0.000946071
0.000951316
0.00116897
0.0012476
0.00118701
0.0010426
0.000866477
0.000638413
0.000472187
0.000518323
0.000575062
0.0006226
0.000670527
0.000719871
0.000768312
0.000816879
0.000870226
0.000937717
0.00101701
0.00101246
0.000937567
0.000871425
0.000818784
0.000770967
0.0007232
0.000674371
0.000626842
0.00057942
0.000522771
9.73848e-05
0.000120248
0.00013623
0.000145679
0.000152079
0.000155821
0.000157645
0.000158764
0.000161121
0.000168318
0.000165162
0.000157282
0.000155953
0.000156067
0.000155525
0.000152985
0.00014727
0.000136268
0.000120602
9.5448e-05
0.000125098
0.000262085
0.000323482
0.000358798
0.000380608
0.000395373
0.000407615
0.000425872
0.000445916
0.000388901
0.000379575
0.000433024
0.000414262
0.000397552
0.000385782
0.0003716
0.000350737
0.000315498
0.000255262
0.000122728
0.000166638
0.000290047
0.000368673
0.000415584
0.000438224
0.000446462
0.000450057
0.000456493
0.000429734
0.000286427
0.000276793
0.00042118
0.000449197
0.000443966
0.000440283
0.000431658
0.00040867
0.000363125
0.000286579
0.000165656
0.000187999
0.000276333
0.000356106
0.000414147
0.000450995
0.000469689
0.000474806
0.000472955
0.000410508
0.000272999
0.000261613
0.000405078
0.000468187
0.000470641
0.000465657
0.000447628
0.000411634
0.000354753