/*--------------------------------*- C++ -*----------------------------------*\
  =========                 |
  \\      /  F ield         | OpenFOAM: The Open Source CFD Toolbox
   \\    /   O peration     | Website:  https://openfoam.org
    \\  /    A nd           | Version:  9
     \\/     M anipulation  |
\*---------------------------------------------------------------------------*/
FoamFile
{
    format      ascii;
    class       surfaceScalarField;
    location    "1750";
    object      phi;
}
// * * * * * * * * * * * * * * * * * * * * * * * * * * * * * * * * * * * * * //

dimensions      [1 0 -1 0 0 0 0];

internalField   nonuniform List<scalar> 
11200
(
0.00177125
-0.00354252
0.00177125
0.000461836
0.000178288
0.00113107
-0.000914192
0.00127422
0.00010172
-0.00123232
0.000283074
3.50585e-05
-0.00124191
0.00013575
-0.000126141
-0.00110991
-0.000111702
-2.02964e-05
-0.000799267
-0.000344409
3.37793e-05
-0.000549926
-0.000245981
-3.35357e-06
-0.0002778
-0.000248093
-2.40255e-05
6.87097e-05
-0.000275292
-7.12069e-05
0.000446862
-0.000302826
-7.53119e-05
0.000793196
-0.000289147
-5.71724e-05
0.0011269
-0.000263648
-7.00402e-05
0.00149226
-0.00030522
-6.01323e-05
0.00168975
-8.04201e-05
-0.000117056
0.00168906
0.000145833
-0.000145122
0.00113898
0.000507586
4.24904e-05
-0.000905979
0.00193159
0.000113245
-0.00202486
-0.000270631
0.00138945
-0.00406265
0.00203778
0.00227687
-0.00809627
0.00227687
0.00438569
-0.00422273
0.00229218
0.00512602
-0.00179947
0.00233339
0.00399972
-0.000412734
0.00182216
0.00219868
0.000682509
0.0012543
0.000226561
0.000868512
0.000991916
-0.000717473
0.000157678
0.000441953
-0.000666327
-0.000263564
-3.35546e-05
-0.000359594
-0.000270933
-0.000283885
8.26258e-05
-0.000252802
-0.000464701
0.000517463
-0.000258762
-0.000478891
0.000815782
-0.000282196
-0.00030526
0.000830752
-0.000201701
-7.69086e-05
-0.000222311
0.000281112
0.000466734
-0.00223217
0.000907099
0.00102233
-0.00395237
0.000624357
0.00124169
-0.0050236
-0.000212765
0.0017916
-0.00400311
-0.00125152
0.00216261
-0.00215196
-0.00425789
0.00213609
-0.00835104
0.00213642
0.001461
-0.0110183
0.001461
0.00303284
-0.00766713
0.00187255
0.00384349
-0.00460154
0.00199141
0.00377254
-0.00215141
0.00180963
0.0031244
-0.000181784
0.00151244
0.00204191
0.000703404
0.00124761
0.00064949
0.000551148
0.000998951
-0.00027574
0.00012352
0.000538153
-0.000337628
-1.66984e-05
-0.000192341
5.2451e-05
1.4184e-05
-0.000657061
0.000357417
4.31543e-05
-0.000606878
9.42974e-05
5.8562e-05
-7.76336e-05
-0.000963482
0.000229223
0.000626859
-0.00227469
0.000609542
0.00098278
-0.00336738
0.000726807
0.00127299
-0.0040393
-0.000261463
0.00155775
-0.00403163
-0.00207914
0.0018587
-0.00295595
-0.00434013
0.00201292
-0.00138633
-0.0076198
0.00179229
-0.0111263
0.00138891
0.000750357
-0.012519
0.000750358
0.00113464
-0.0094435
0.00139207
0.00119171
-0.00634612
0.00168749
0.00108426
-0.00389237
0.00184841
0.00103296
-0.00195236
0.00182187
0.000942562
-0.000827556
0.00162135
0.00050705
-0.000414742
0.0014014
-0.000115157
-0.000310506
0.00105624
-0.000286146
-0.000303471
0.00045777
7.94872e-05
-0.000222683
-0.000128761
0.000255777
-0.000184834
5.1702e-05
-0.000104179
-0.000236322
0.000654845
-0.000704276
-0.000280174
0.0011095
-0.00104602
-0.000417599
0.00136888
-0.00109837
-0.000831685
0.00161084
-0.00120659
-0.00199934
0.00184609
-0.00130942
-0.00386949
0.00189318
-0.00113075
-0.00624338
0.00172457
-0.000722223
-0.00941427
0.00138594
-0.0125856
0.00073709
0.000222878
-0.0129648
0.000222878
-0.00019069
-0.0101599
0.00113
-0.000686172
-0.00740399
0.00155334
-0.00102374
-0.00537529
0.00182048
-0.00105651
-0.00390509
0.0019855
-0.000865032
-0.0029723
0.00195326
-0.000642192
-0.00243271
0.00179512
-0.000443894
-0.00211904
0.00161023
-0.000207255
-0.00195628
0.00141617
0.000173889
-0.00184413
0.0012403
0.000470674
-0.00178669
0.00130507
0.00064792
-0.00188852
0.00147495
0.000791375
-0.00205783
0.0016342
0.000966944
-0.00238455
0.00179138
0.0011187
-0.00293404
0.00195059
0.00101349
-0.00388287
0.00198873
0.000647314
-0.00534338
0.00184007
0.000186913
-0.00736256
0.00157958
-0.000213056
-0.0101567
0.00114237
-0.0130236
0.000224911
-0.000168922
-0.0126269
-0.000168922
-0.00102527
-0.010251
0.000947383
-0.00173618
-0.00806519
0.0013721
-0.00212701
-0.00656973
0.00158526
-0.0021452
-0.0055564
0.00166949
-0.0018877
-0.00489106
0.00166125
-0.00145452
-0.00445081
0.00158492
-0.000939191
-0.00414868
0.0015143
-0.000403785
-0.00395514
0.00146345
0.000151576
-0.00382031
0.00142082
0.000647339
-0.00373416
0.0014517
0.00112257
-0.00385427
0.00149051
0.00158423
-0.00404952
0.00153003
0.00197149
-0.0043627
0.00159089
0.00219115
-0.00481959
0.0016659
0.00213384
-0.0055054
0.00167984
0.00172045
-0.00653173
0.00160174
0.00101378
-0.00804397
0.00138807
0.000166282
-0.0102643
0.000955083
-0.0126833
-0.000174
-0.000485741
-0.0116555
-0.000485741
-0.00163916
-0.0097921
0.000694537
-0.00251582
-0.00820158
0.00101304
-0.00294473
-0.00723759
0.00109677
-0.00292376
-0.00662228
0.0010449
-0.00256642
-0.00622881
0.000980398
-0.00198662
-0.00596914
0.000938525
-0.00129398
-0.00577052
0.000929206
-0.000585675
-0.00560309
0.000939637
8.25494e-05
-0.00544824
0.000959707
0.000725474
-0.00536392
0.000986833
0.0013969
-0.00549509
0.000969387
0.00205487
-0.0056659
0.000958411
0.00260669
-0.00587896
0.00096443
0.00294104
-0.00615727
0.00100332
0.00294012
-0.00657142
0.00106693
0.00249561
-0.00720081
0.00111358
0.00161917
-0.00818829
0.00102076
0.000473853
-0.00981025
0.000691296
-0.0117054
-0.000504071
-0.000931254
-0.00979297
-0.000931254
-0.00234843
-0.00840048
2.55472e-05
-0.00337014
-0.00740435
0.000224481
-0.00381309
-0.00688382
8.91712e-05
-0.00372972
-0.0066009
-0.000104751
-0.00325885
-0.00645099
-0.00024869
-0.00251108
-0.00635193
-0.000364982
-0.00161349
-0.00625265
-0.00041546
-0.000719395
-0.00613128
-0.000365901
4.17064e-05
-0.00597341
-0.000235936
0.000783389
-0.00590299
-0.00020262
0.00165035
-0.00604376
-0.00031829
0.00252853
-0.00617012
-0.000373958
0.00326087
-0.00628243
-0.000328866
0.00371922
-0.00639648
-0.000219141
0.0037906
-0.00656393
-7.88748e-05
0.00333442
-0.00686247
0.000117842
0.00231714
-0.00739803
0.000227018
0.000910666
-0.00841748
1.36915e-05
-0.00983436
-0.000960372
-0.00172239
-0.0063482
-0.00172239
-0.00342899
-0.0055718
-0.00112208
-0.00450011
-0.0051808
-0.00115244
-0.00490834
-0.00509792
-0.00137767
-0.00474754
-0.00513206
-0.00162964
-0.00414907
-0.0052197
-0.00182976
-0.00322555
-0.00530009
-0.00197535
-0.00210333
-0.00534015
-0.00203473
-0.000952525
-0.00530488
-0.0019772
8.32847e-06
-0.00518605
-0.00174821
0.000942739
-0.00514405
-0.00169335
0.00208096
-0.00526092
-0.00192107
0.00320018
-0.00530514
-0.00198419
0.00412058
-0.00527395
-0.00192889
0.00471406
-0.00520044
-0.00178952
0.00486906
-0.00511901
-0.00159992
0.00445737
-0.00509204
-0.00135874
0.00339102
-0.00518168
-0.00115
0.00169741
-0.00558466
-0.0011392
-0.00637744
-0.00175951
-0.0031741
-0.0031741
-0.00528057
-0.00346533
-0.00633216
-0.00412921
-0.00664384
-0.00478623
-0.00636278
-0.00541312
-0.00561167
-0.00597081
-0.0044858
-0.00642596
-0.00306851
-0.00675743
-0.00148559
-0.0068878
-5.24456e-05
-0.00661919
0.00137824
-0.00657473
0.00298377
-0.00686645
0.00442084
-0.00674221
0.00555963
-0.00641274
0.0063154
-0.00595621
0.00659664
-0.00540025
0.00628758
-0.00478297
0.00524487
-0.00413897
0.00315398
-0.00349377
-0.00322347
0.00113107
0.000178288
0.000461836
3.16273e-05
0.00219882
3.16271e-05
-0.000562938
0.000800185
-0.000103958
-0.000529099
-3.38172e-05
3.50526e-05
-0.000473365
-0.000116434
-6.54216e-05
-0.000365742
-0.000234386
0.000106475
-0.00018924
-0.000384698
0.000241984
-0.000127802
-0.000262328
0.000197541
-6.19219e-05
-0.000243901
0.000154004
6.10354e-05
-0.000252779
5.86268e-05
0.000231259
-0.000276737
3.12168e-05
0.000397357
-0.000286696
6.34415e-05
0.000544909
-0.000293986
7.64048e-05
0.000748358
-0.000357588
9.40219e-05
0.000856727
-0.000220771
-4.63691e-06
0.000922937
-0.000111306
-0.000100001
0.000831676
0.000148382
-1.4623e-05
-0.000230016
0.0014744
-0.000299557
-0.00140643
0.0022708
0.00029501
-0.000384845
0.00101613
0.00229218
-0.00422273
0.00438569
0.0043676
-0.00195202
0.0043676
0.00484024
-0.00110523
0.0037662
0.00394544
-6.68639e-05
0.00275006
0.00243989
0.000772103
0.00187134
0.00103595
0.000806371
0.00135511
0.000185636
0.00011754
0.000790034
-2.66176e-05
-0.000293967
0.000210343
-3.00428e-05
-0.000313196
-0.000211159
4.88904e-05
-0.000264388
-0.000532021
0.000146593
-0.000302468
-0.000550857
0.00017715
-0.000360655
-0.00026185
-8.03568e-05
-0.000257166
0.000143785
-0.0010398
0.000238422
0.000830164
-0.00246076
0.000828046
0.00139446
-0.00388863
0.00068732
0.00187094
-0.00475154
5.82089e-05
0.00274471
-0.00414031
-0.000691441
0.00371726
-0.00214826
-0.00171343
0.00412824
-0.00441622
0.00401953
0.00187255
-0.00766714
0.00303284
0.00367583
-0.00555859
0.00367583
0.00443165
-0.00339978
0.00353014
0.00432762
-0.00117693
0.00302373
0.00357834
0.00061508
0.00241874
0.0025358
0.00116486
0.00193166
0.00135856
0.000825357
0.00146838
0.000507338
0.000271813
0.000823601
6.81364e-05
-2.0136e-05
-4.61958e-05
-3.16151e-05
-5.29484e-05
-0.000768747
-0.000218531
-5.17368e-05
-0.00067069
-0.000765736
1.99359e-05
8.89842e-05
-0.00162619
0.00034498
0.000885169
-0.00276807
0.000877207
0.00148588
-0.00381712
0.00117903
0.00197107
-0.00457561
0.000509908
0.00249365
-0.00459843
-0.00118255
0.00312229
-0.00367063
-0.00321552
0.0036092
-0.00178224
-0.00545893
0.00364939
-0.00772669
0.00291714
0.00139207
-0.0094435
0.00113464
0.00233578
-0.00744603
0.00233578
0.0026624
-0.00481389
0.00277497
0.0026579
-0.00209377
0.00276975
0.00241287
0.000161849
0.00252013
0.0019167
0.00108408
0.0021983
0.00125085
0.00107535
0.00181726
0.000509872
0.000805563
0.00126347
3.11007e-05
0.000580575
0.00033583
-7.28757e-05
0.000524864
-0.000602596
-0.000278227
0.00051999
-0.000314674
-0.000810175
0.000588628
0.000618101
-0.00147561
0.000786098
0.00133381
-0.00207615
0.00103971
0.00180692
-0.00251968
0.00103585
0.00219755
-0.00278223
7.06707e-05
0.00254788
-0.00276404
-0.00214185
0.00283429
-0.00234237
-0.0047577
0.00284507
-0.00135653
-0.00742236
0.00236353
-0.00947616
0.00113002
0.00113
-0.0101599
-0.00019069
0.00147913
-0.00814431
0.00147913
0.00129672
-0.00536054
0.0022824
0.000973387
-0.00252771
0.00257774
0.00080912
-0.000333383
0.00264499
0.000632469
0.000778179
0.0024358
0.000357292
0.00104439
0.00210125
4.56128e-05
0.00106996
0.00165751
-9.08756e-05
0.00104288
0.00109034
8.37538e-05
0.00104665
0.000543876
0.000165677
0.00101786
0.000725276
-3.79458e-05
0.000998418
0.00126878
-0.00036114
0.00101445
0.00172903
-0.000620993
0.000978514
0.00211243
-0.00077796
0.000704945
0.00243846
-0.000961892
-0.000420447
0.00266378
-0.00130745
-0.00257178
0.00261555
-0.00146273
-0.00535162
0.00232877
-0.00110698
-0.00814797
0.00151221
-0.0101813
-0.000176889
0.000947383
-0.010251
-0.00102527
0.000923603
-0.00809676
0.000923603
0.0004448
-0.00540068
0.00189104
-1.90808e-05
-0.00276482
0.00228624
-0.000239322
-0.000876777
0.00243311
-0.000263576
0.000128947
0.00233473
-0.000315344
0.000603267
0.0020778
-0.000324423
0.000808487
0.00178485
-0.000191686
0.000889434
0.00148416
0.000137398
0.000926672
0.00121171
0.000407461
0.000913269
0.00128622
0.000474861
0.000855727
0.0015658
0.00042634
0.00076655
0.00182645
0.000351387
0.000550984
0.00209336
0.000322222
5.1802e-05
0.0023482
7.6661e-05
-0.000945229
0.00245017
-0.000411007
-0.00280593
0.00232355
-0.000896569
-0.00540507
0.00192708
-0.000929791
-0.00810621
0.000946535
-0.0102629
-0.00102225
0.000694537
-0.0097921
-0.00163916
0.000373704
-0.0074551
0.000373704
-0.000286222
-0.00509358
0.00136585
-0.00073058
-0.00300404
0.00178034
-0.000893132
-0.0015549
0.00188558
-0.00081756
-0.000781498
0.00181526
-0.00062645
-0.000345273
0.00169595
-0.000410782
-5.57221e-05
0.00157774
-0.000148621
0.000122334
0.00144457
0.000151502
0.000287803
0.00129845
0.000413927
0.000315308
0.00132236
0.000620411
0.000150697
0.00146793
0.000784495
-3.14558e-05
0.00159233
0.000944898
-0.000352476
0.00170748
0.000988679
-0.000818831
0.00183016
0.000792126
-0.00159777
0.00191602
0.000323947
-0.00304306
0.00181889
-0.000349266
-0.0051018
0.00139069
-0.000683072
-0.00746091
0.000379796
-0.00979434
-0.00165569
2.55472e-05
-0.00840048
-0.00234843
-0.000516477
-0.00637106
-0.000516477
-0.00125378
-0.00452389
0.000392095
-0.00167058
-0.00319018
0.000692101
-0.00176766
-0.00226952
0.000706942
-0.00160528
-0.0017743
0.00058173
-0.00124792
-0.00151485
0.000447221
-0.000766847
-0.00134188
0.000389624
-0.000282253
-0.00116563
0.000437464
0.000122386
-0.000915308
0.000562532
0.000507833
-0.000873699
0.000600937
0.000947861
-0.00110426
0.000496639
0.00139667
-0.00129354
0.000439308
0.00171854
-0.00149037
0.000487157
0.00184388
-0.00177789
0.000614579
0.00171909
-0.00229155
0.000739701
0.00128047
-0.0032137
0.000727088
0.000531332
-0.0045316
0.000405954
-2.16649e-05
-0.00637141
-0.000522808
-0.00839715
-0.00237923
-0.00112208
-0.0055718
-0.00342899
-0.00225029
-0.00411465
-0.00225029
-0.00303904
-0.00314732
-0.00174025
-0.00330828
-0.00261734
-0.00168128
-0.00313081
-0.00232386
-0.00175278
-0.00269611
-0.00219247
-0.00184629
-0.00205897
-0.00210614
-0.00202121
-0.00132931
-0.00201365
-0.00209262
-0.000594288
-0.00186794
-0.00200991
6.07858e-05
-0.00157855
-0.00174005
0.000696385
-0.00153716
-0.00166548
0.00141687
-0.00182797
-0.00191785
0.00213267
-0.00198675
-0.00200677
0.00275168
-0.00209364
-0.00194463
0.00316819
-0.00219181
-0.00179211
0.00333213
-0.0023304
-0.00172501
0.00304186
-0.00262876
-0.00165341
0.00224615
-0.00315349
-0.0017324
0.00111675
-0.00411425
-0.00226698
-0.00556879
-0.00347112
-0.00346533
-0.00528057
-0.00552266
-0.00552266
-0.00651483
-0.00628435
-0.00678234
-0.00713606
-0.00650217
-0.00801715
-0.00580815
-0.00885729
-0.00478005
-0.0095602
-0.0034612
-0.0100899
-0.00189143
-0.0103255
-6.46532e-05
-0.0100245
0.00179494
-0.00997148
0.0034017
-0.0103012
0.00474803
-0.0100753
0.0057928
-0.00955115
0.00649063
-0.00884584
0.0067671
-0.00800713
0.00649634
-0.00714097
0.00550564
-0.00630175
0.0034563
-0.00555868
-0.00533595
0.000101721
0.00127422
-0.000914192
-0.000103958
0.000800185
-0.000562938
-8.34758e-05
-4.09594e-05
-8.34759e-05
4.58918e-05
-0.0002476
0.000153324
5.70332e-05
-0.000222859
0.000146311
0.000145263
-0.000327307
0.000345562
0.000289835
-0.000401924
0.000499341
0.000251882
-0.000274559
0.000510054
0.000143224
-0.000229514
0.000492181
5.11655e-05
-0.000236002
0.000386696
1.34293e-05
-0.000258772
0.000327737
8.47491e-06
-0.000285036
0.000353445
6.36995e-05
-0.000329495
0.000350688
0.000220132
-0.000401265
0.000338871
0.000309822
-0.00030387
0.000209563
0.000348416
-0.000214031
7.54558e-05
0.000505677
-0.000202072
3.02257e-05
0.00038944
0.000161221
-0.000344547
-0.000131231
0.00149815
-0.000682564
0.00185104
-0.000966246
0.00233339
-0.00179947
0.00512602
0.0037662
-0.00110523
0.00484024
0.00399292
-0.000494323
0.00399292
0.00328216
0.000326817
0.00288643
0.00210365
0.000865567
0.00196144
0.0010584
0.000689236
0.00138382
0.00049188
5.35004e-05
0.000901138
0.000331359
-0.000357563
0.000453873
0.000196151
-0.000361577
5.61154e-05
2.92031e-05
-0.000284816
-0.000316255
-9.82584e-05
-0.000333947
-0.000348216
-0.000199014
-0.000426566
-1.95583e-05
-0.000429348
-0.000335784
0.000380413
-0.00107338
0.000163212
0.000909718
-0.0021618
0.000744499
0.0014345
-0.00330121
0.000779924
0.00201638
-0.00396396
0.000296949
0.00290846
-0.00374516
-0.00032229
0.00398202
-0.00218109
-0.000744377
0.00480673
-0.00142195
0.00511142
0.00199141
-0.00460154
0.00384349
0.00353014
-0.00339978
0.00443165
0.00425424
-0.00194253
0.00425424
0.00420253
-0.000239135
0.00364139
0.00350085
0.00109917
0.00288683
0.00252415
0.00134088
0.00225672
0.00149026
0.000883683
0.00167208
0.000731147
0.000224277
0.00100088
0.000259901
-0.000128288
0.000191764
-9.69334e-05
-0.000163182
-0.000533544
-0.000474174
-0.000192778
-0.000434616
-0.000972453
-0.000122353
0.000283054
-0.00175566
0.000286707
0.00104589
-0.00276532
0.000940483
0.00171827
-0.00372354
0.00136171
0.00231208
-0.00442934
0.000996172
0.00298321
-0.00443653
-0.000351326
0.00377776
-0.00363021
-0.00191894
0.00439952
-0.00199949
-0.00328596
0.00456024
-0.00447102
0.00396671
0.00168749
-0.00634612
0.00119171
0.00277497
-0.00481389
0.0026624
0.00329806
-0.00298872
0.00329806
0.0033691
-0.000820825
0.00328039
0.00306305
0.000980214
0.00294514
0.00242363
0.00165661
0.00252198
0.00166015
0.00141087
0.00205355
0.000860615
0.000874776
0.0014125
0.000232668
0.000437493
0.000397997
-0.000165167
0.000220017
-0.00058796
-0.000592165
0.000244058
-0.000324511
-0.00119974
0.000443475
0.000659854
-0.00191901
0.000858892
0.0014809
-0.00261459
0.0013937
0.00204927
-0.00319717
0.00161505
0.0025268
-0.00348652
0.000860098
0.0029733
-0.00340273
-0.00094636
0.00334552
-0.00282807
-0.00304147
0.00339295
-0.00168671
-0.00482921
0.00276542
-0.00631638
0.00128867
0.00155334
-0.00740399
-0.000686172
0.0022824
-0.00536054
0.00129672
0.00245284
-0.00332961
0.00245284
0.0023492
-0.00104114
0.00290169
0.00211504
0.000926657
0.0029327
0.00169265
0.00182852
0.00268628
0.00112818
0.00178775
0.00228885
0.000516278
0.00143018
0.00171401
6.64714e-05
0.00111103
0.000866609
-1.86419e-05
0.000898088
-4.90839e-05
-0.000188983
0.000905075
0.000234599
-0.000678956
0.00107273
0.0011295
-0.00126026
0.00136344
0.00180579
-0.00176974
0.00171233
0.00230328
-0.00214264
0.00174166
0.00268475
-0.00236083
0.000798122
0.00294394
-0.00246426
-0.00116264
0.00293525
-0.00227606
-0.00341279
0.00251188
-0.00153667
-0.00541643
0.00136004
-0.0073916
-0.000638345
0.0013721
-0.00806519
-0.00173618
0.00189104
-0.00540068
0.0004448
0.00182517
-0.0031979
0.00182517
0.0015016
-0.000899488
0.00246815
0.00122688
0.000932346
0.00270214
0.00093866
0.00185218
0.00259928
0.000575614
0.00192892
0.00229967
0.000204122
0.00171945
0.00186706
-1.6696e-06
0.00151446
0.00128652
6.85021e-05
0.00136882
0.000670796
7.80426e-05
0.00135423
0.000827526
-0.000185862
0.00145801
0.00144442
-0.00056755
0.00163456
0.00193701
-0.00091572
0.00183097
0.00232288
-0.00117933
0.00174296
0.0026105
-0.00145351
0.000799975
0.0027225
-0.00178758
-0.00101229
0.00250727
-0.00185955
-0.00328969
0.00187594
-0.00135465
-0.00545935
0.00048455
-0.00804391
-0.0017246
0.00101304
-0.00820158
-0.00251582
0.00136585
-0.00509358
-0.000286222
0.00119378
-0.00285376
0.00119378
0.000809913
-0.000620948
0.00188566
0.000529296
0.000945855
0.00215268
0.000374195
0.00168063
0.00214191
0.000236598
0.00178377
0.00197869
0.000102933
0.00167746
0.00175339
4.11236e-05
0.00155568
0.00146515
0.000111995
0.00146814
0.00112826
0.000147005
0.00145716
0.00118442
3.86795e-05
0.00150555
0.00152872
-0.000125891
0.00160089
0.00179056
-0.000276925
0.00168746
0.00200203
-0.000433873
0.00156352
0.00216655
-0.000729516
0.000819656
0.00219197
-0.00113762
-0.000723174
0.00193787
-0.00132843
-0.00294278
0.00123459
-0.00100253
-0.00513203
-0.000273425
-0.00817219
-0.00252994
0.000224481
-0.00740435
-0.00337014
0.000392095
-0.00452389
-0.00125378
9.42089e-05
-0.00225799
9.42087e-05
-5.23849e-05
-0.00059322
0.00081096
-0.000107045
0.000572565
0.00113489
-8.40283e-05
0.00111543
0.0011239
-3.05723e-05
0.00116733
0.00101021
2.94119e-05
0.00110563
0.000901467
0.000108207
0.00108497
0.000829381
0.000128649
0.00124603
0.000764192
0.000129025
0.00125717
0.000800554
0.000175444
0.00107505
0.00088071
0.000202199
0.00106814
0.000945307
0.000229106
0.00110076
0.00104695
0.000230494
0.001014
0.0011627
0.000169108
0.000438606
0.00118213
-1.52173e-05
-0.000673348
0.000861583
-0.000365156
-0.00231593
0.000129042
-0.000225071
-0.0045386
-0.00125632
-0.00737803
-0.00339847
-0.00115244
-0.0051808
-0.00450011
-0.00174025
-0.00314732
-0.00303904
-0.00197226
-0.00179399
-0.00197226
-0.00183637
-0.000949612
-0.00146077
-0.00132893
-0.000343553
-0.0013441
-0.000793557
-1.87144e-05
-0.00124751
-0.000380233
6.99537e-05
-0.00133716
-0.000104025
0.000153263
-0.00141647
5.58944e-05
0.000292165
-0.00137703
0.000118103
0.000638855
-0.00119508
0.000168325
0.000671832
-0.00113038
0.00030791
0.000315801
-0.00129818
0.000558698
0.000160054
-0.00134948
0.000952039
5.53601e-05
-0.00129257
0.00146012
-5.92472e-05
-0.00122695
0.0019176
-0.000412694
-0.00133119
0.00200555
-0.00100302
-0.0014117
0.00174316
-0.00182311
-0.00196283
0.00114109
-0.00315145
-0.00305207
-0.00516645
-0.0045416
-0.00412921
-0.00633216
-0.00628435
-0.00651483
-0.00718135
-0.00718135
-0.00731507
-0.00795194
-0.00692243
-0.00875333
-0.00616025
-0.00963818
-0.00513436
-0.0105161
-0.00381093
-0.0112601
-0.00215389
-0.0116904
-6.00968e-05
-0.0114794
0.00207677
-0.0114365
0.00377645
-0.0116851
0.00513437
-0.0112732
0.00618059
-0.010542
0.0069463
-0.0096708
0.00732142
-0.00879494
0.00717508
-0.00799765
0.00626617
-0.00721595
0.00411364
-0.00655759
-0.00638877
3.50586e-05
0.000283074
-0.00123232
3.50527e-05
-3.38172e-05
-0.000529099
0.000153324
-0.0002476
4.58916e-05
0.000279315
-0.000251959
0.000279315
0.000353009
-0.000300257
0.000372885
0.000526206
-0.000432936
0.000605309
0.00064862
-0.000426429
0.00080336
0.000555995
-0.000280885
0.000883564
0.000333534
-0.000210719
0.000925361
5.44096e-05
-0.000207617
0.00087344
-0.000181166
-0.000237932
0.000801252
-0.000315558
-0.000287783
0.000775632
-0.000325523
-0.000350071
0.000710738
-0.0001819
-0.000439917
0.000635181
-4.9771e-05
-0.000393337
0.00047079
4.37103e-05
-0.000302067
0.000284062
0.000150724
-0.00023322
0.000156455
0.000132052
-0.000195502
-0.000130338
5.77129e-06
0.000159353
-0.000715632
0.000509963
-0.00147044
0.00182216
-0.000412734
0.00399972
0.00275006
-6.68639e-05
0.00394544
0.00288643
0.000326817
0.00328216
0.002378
0.000764923
0.002378
0.00155557
0.000861576
0.00162205
0.000892061
0.000436274
0.00117812
0.00059423
-0.000138541
0.000911083
0.000538205
-0.000446859
0.000675876
0.000358322
-0.000392459
0.000417741
2.94738e-05
-0.000312797
0.000117776
-0.000261865
-0.000373725
7.89213e-05
-0.00041369
-0.000479682
0.000324171
-0.000502528
-0.0004517
0.000570885
-0.000878778
-2.20656e-05
0.000868116
-0.00162104
0.000553209
0.00123021
-0.00244602
0.000831233
0.00170806
-0.00290965
0.000665816
0.00247306
-0.00277306
0.000292762
0.00335719
-0.00182416
2.91481e-05
0.00398806
-0.000296464
0.00409371
0.00180963
-0.00215141
0.00377254
0.00302373
-0.00117693
0.00432762
0.00364139
-0.000239135
0.00420253
0.00359574
0.000856227
0.00359574
0.00303709
0.001431
0.00287606
0.00219637
0.00129273
0.002241
0.00135838
0.000707799
0.00166373
0.000755419
5.90411e-05
0.00109795
0.000330318
-0.000246484
0.000470892
-0.000122011
-0.000266447
-0.000127563
-0.0005615
-0.00031191
-5.69402e-05
-0.000993363
-0.000272903
0.000508141
-0.00162555
0.000115316
0.00111107
-0.00244872
0.000808482
0.0017109
-0.00324101
0.00135275
0.00230483
-0.00379717
0.00138697
0.00298364
-0.00381736
0.000706928
0.00375684
-0.00314566
-0.000372762
0.00439334
-0.00184859
-0.00124475
0.00453709
-0.00215659
0.00397824
0.00184841
-0.00389237
0.00108426
0.00276975
-0.00209377
0.0026579
0.00328039
-0.000820825
0.0033691
0.00342848
0.000560055
0.00342848
0.00313619
0.00157875
0.00308968
0.00252385
0.00178795
0.00263909
0.00177574
0.00134673
0.00216274
0.00100626
0.000706934
0.00153409
0.000337645
0.000183982
0.000636142
-0.000207566
-9.61664e-05
-0.000213029
-0.000751093
-8.52768e-05
-7.61647e-06
-0.00136731
0.000186563
0.000816603
-0.00206359
0.000704534
0.00158796
-0.00272812
0.00135879
0.0021635
-0.00328557
0.00178548
0.00265152
-0.00354136
0.00149151
0.00312455
-0.00337727
0.000399559
0.0034888
-0.00282796
-0.000989201
0.00346008
-0.00185643
-0.00222321
0.00277234
-0.00391873
0.00119438
0.00182048
-0.00537529
-0.00102374
0.00257774
-0.00252771
0.000973387
0.00290169
-0.00104114
0.0023492
0.00296138
0.000440677
0.00296138
0.00275714
0.00168003
0.00303565
0.00228888
0.00213497
0.00280752
0.00165067
0.00185601
0.00241777
0.000949411
0.00128112
0.00184108
0.00030197
0.000738912
0.000959118
-0.000145806
0.000324887
-2.23621e-05
-0.000601787
0.000359801
0.000245503
-0.00121311
0.000728498
0.00119888
-0.00185792
0.00123017
0.00192497
-0.00242837
0.00179795
0.00243457
-0.00283445
0.00206575
0.00281055
-0.00299989
0.00155312
0.00304777
-0.00291736
0.000261476
0.00299081
-0.0025728
-0.00121479
0.0023929
-0.00179398
-0.00265088
0.00100887
-0.00536085
-0.000990215
0.00158526
-0.00656973
-0.00212701
0.00228624
-0.00276482
-1.9081e-05
0.00246815
-0.000899488
0.0015016
0.00237641
0.000624165
0.00237641
0.00217477
0.00184347
0.00274033
0.00183371
0.00235586
0.00271945
0.00135391
0.00217658
0.00245889
0.00079207
0.00171015
0.00199986
0.000277851
0.00124376
0.00129589
-3.72067e-05
0.000849971
0.000460769
-0.000370795
0.00086576
0.000655154
-0.000884973
0.00121345
0.00147365
-0.00143036
0.00163694
0.00207563
-0.00187728
0.00208337
0.00248437
-0.00217748
0.00224533
0.00273112
-0.00235367
0.00169292
0.00275888
-0.00243662
0.00044058
0.00241112
-0.00225665
-0.00106596
0.00154714
-0.00156755
-0.00286872
1.32865e-05
-0.00652748
-0.00212552
0.00109677
-0.00723759
-0.00294473
0.00178034
-0.00300404
-0.00073058
0.00188566
-0.000620948
0.000809913
0.00171186
0.000971761
0.00171186
0.00156296
0.00193915
0.0022059
0.00139718
0.00232154
0.00234201
0.0011486
0.00215561
0.00224823
0.00080381
0.00180015
0.00200818
0.000411085
0.00147873
0.0016229
4.17944e-05
0.00123085
0.00111667
-0.000334775
0.00122965
0.00119709
-0.000745605
0.00144319
0.0017098
-0.00110446
0.00173183
0.00205452
-0.0013515
0.00205954
0.00227289
-0.00150469
0.00220143
0.00236363
-0.00164787
0.00178915
0.00223892
-0.00183853
0.00081256
0.00175654
-0.00174491
-0.000783036
0.000858036
-0.00109415
-0.00307766
-0.000715242
-0.00718567
-0.00296591
8.91712e-05
-0.00688382
-0.00381309
0.000692101
-0.00319018
-0.00167058
0.00081096
-0.00059322
-5.23852e-05
0.000797031
0.000999615
0.00079703
0.000846523
0.00172835
0.00129618
0.000919925
0.00190137
0.00147066
0.000918883
0.00171543
0.00145143
0.000800792
0.00147588
0.00134382
0.000566864
0.0013397
0.00120234
0.000102656
0.0014388
0.00102045
-0.000375531
0.00144712
0.00106127
-0.000635155
0.00132945
0.00125407
-0.000782044
0.00144542
0.00137861
-0.000807125
0.00165698
0.00147459
-0.000750151
0.00181242
0.00149474
-0.000720041
0.00160883
0.00133234
-0.000738884
0.000847195
0.000845786
-0.000666267
-0.000708607
-1.80077e-05
-0.000112671
-0.00322502
-0.00166257
-0.00684643
-0.00385038
-0.00137767
-0.00509792
-0.00490834
-0.00168128
-0.00261734
-0.00330828
-0.00146077
-0.000949612
-0.00183637
-0.00103862
0.000155307
-0.00103862
-0.000536398
0.000557473
-0.000675449
-1.95784e-05
0.000676853
-0.000539817
0.000322806
0.000678108
-0.000642228
0.000446757
0.000731831
-0.000796369
0.000384664
0.000902504
-0.000877742
0.000122228
0.00134483
-0.000838679
-0.000167027
0.00137954
-0.00077355
-0.000253227
0.000924675
-0.000807208
-0.000145768
0.000739928
-0.00075145
0.000166286
0.000672476
-0.000620122
0.000655391
0.000645744
-0.000549378
0.00111211
0.000503606
-0.000682683
0.00147706
9.51042e-05
-0.00102456
0.00167065
-0.00100801
-0.00185702
0.00135159
-0.00262928
-0.00332874
-0.00508157
-0.00495486
-0.00478623
-0.00664384
-0.00713606
-0.00678234
-0.00795194
-0.00731507
-0.00787429
-0.00787429
-0.0073937
-0.00867644
-0.00667014
-0.00968489
-0.0057083
-0.0107999
-0.00438564
-0.0118509
-0.00257415
-0.0125994
-6.43734e-05
-0.0126444
0.00250081
-0.0126221
0.00436278
-0.0126223
0.00572524
-0.0118957
0.00671573
-0.01086
0.00744997
-0.00975928
0.00791743
-0.00875879
0.00796844
-0.00795356
0.00711426
-0.00736977
0.0047634
-0.00683601
-0.00670694
-0.000126141
0.00013575
-0.00124191
-6.54216e-05
-0.000116434
-0.000473365
0.000146311
-0.000222859
5.70331e-05
0.000372885
-0.000300257
0.000353009
0.000584896
-0.000424014
0.000584896
0.000829991
-0.000522215
0.000882436
0.000934899
-0.000417595
0.00111605
0.000810284
-0.000281204
0.00128938
0.000500033
-0.000212902
0.00144851
5.13705e-05
-0.000202617
0.00152472
-0.000364311
-0.000241022
0.00145796
-0.000590122
-0.000306174
0.00130763
-0.000638637
-0.000370614
0.00112988
-0.000506496
-0.000453422
0.000956478
-0.000297074
-0.000472149
0.000733535
-0.000103538
-0.000392453
0.000482999
0.000101701
-0.000304165
0.000255401
0.000244488
-0.000207981
-6.51274e-05
0.00022677
-8.70618e-05
-0.000610835
0.000192203
-0.00143586
0.0012543
0.000682509
0.00219868
0.00187134
0.000772103
0.00243989
0.00196144
0.000865567
0.00210365
0.00162205
0.000861576
0.00155557
0.00112441
0.000571265
0.00112441
0.000770891
6.88258e-05
0.0009406
0.000705222
-0.000374738
0.000933897
0.000688417
-0.000513333
0.000924814
0.000461393
-0.000408997
0.000840863
3.73609e-05
-0.000343293
0.000682486
-0.000358403
-0.000409656
0.000643325
-0.000571167
-0.00051215
0.000742917
-0.00061842
-0.000559156
0.000806687
-0.000766253
-0.000295312
0.000857841
-0.00117144
0.000215012
0.000948237
-0.00169849
0.000657408
0.00118523
-0.00202162
0.000836783
0.00165523
-0.00189236
0.000794844
0.00222511
-0.00126643
0.000708961
0.0025661
0.000645199
0.00237429
0.00151244
-0.000181784
0.0031244
0.00241874
0.00061508
0.00357834
0.00288683
0.00109917
0.00350085
0.00287606
0.001431
0.00303709
0.00245407
0.00141525
0.00245407
0.00180303
0.00103313
0.00192775
0.00118633
0.000394429
0.00151127
0.000747699
-0.000145394
0.00116864
0.000376645
-0.000352698
0.000785649
-0.000114206
-0.000359861
0.00037986
-0.00058035
-0.000410723
0.000410274
-0.00095396
-0.000402817
0.000772422
-0.00142112
-0.000118683
0.00113776
-0.00202682
0.000489074
0.00153221
-0.00263263
0.00112309
0.00200258
-0.0030301
0.00147121
0.00256731
-0.00302319
0.00139591
0.00319082
-0.00251973
0.00100289
0.00368183
-0.00156173
0.000515021
0.00377304
-0.000243087
0.00330479
0.00182187
-0.00195236
0.00103296
0.00252013
0.000161849
0.00241287
0.00294514
0.000980214
0.00306305
0.00308968
0.00157875
0.00313619
0.00286588
0.00186285
0.00286588
0.0023701
0.00167204
0.00249596
0.00170712
0.00112778
0.00209237
0.00102346
0.000492909
0.00157944
0.000392923
-3.94877e-06
0.000917931
-0.00021425
-0.00023369
0.000267976
-0.000786748
-0.000240525
0.000394686
-0.00137322
-9.05077e-06
0.00100931
-0.0019924
0.000488233