/*--------------------------------*- C++ -*----------------------------------*\
  =========                 |
  \\      /  F ield         | OpenFOAM: The Open Source CFD Toolbox
   \\    /   O peration     | Website:  https://openfoam.org
    \\  /    A nd           | Version:  9
     \\/     M anipulation  |
\*---------------------------------------------------------------------------*/
FoamFile
{
    format      ascii;
    class       volVectorField;
    location    "1750";
    object      U;
}
// * * * * * * * * * * * * * * * * * * * * * * * * * * * * * * * * * * * * * //

dimensions      [0 1 -1 0 0 0 0];

internalField   nonuniform List<vector> 
4000
(
(0.00502128 -0.00659519 0.00502128)
(0.00571497 0.0085262 0.00413246)
(-0.00168123 0.00866255 0.00103976)
(-0.00494716 -0.000340664 0.000215864)
(-0.00414084 -0.00265081 -0.000309586)
(-0.00402698 -0.00292396 -0.000133061)
(-0.00351416 -0.00132418 -0.000202708)
(-0.00221454 -0.000760835 -0.000259094)
(-0.00154778 -0.00101313 -0.000294212)
(-0.000375346 -0.00108196 -0.000382301)
(0.000898902 -0.00115906 -0.00038173)
(0.00220995 -0.00103883 -0.000335575)
(0.00328215 -0.00073611 -0.000363344)
(0.00465744 -0.00120945 -0.000350814)
(0.00556779 -0.00301312 -0.000385648)
(0.00557355 -0.00310582 -0.000364796)
(0.00701809 -0.000463351 0.000266449)
(0.000263145 0.00900865 0.00139346)
(-0.00743026 0.00482667 0.00439305)
(-0.00505 -0.0094817 0.00504357)
(0.00406383 -0.0216655 0.00406383)
(0.0122293 -0.00805203 0.00507481)
(0.0161279 -0.000108942 0.00514732)
(0.0172887 0.0027118 0.00443942)
(0.0121166 0.00387925 0.00333405)
(0.00449316 0.0024775 0.00269665)
(-0.00318151 -0.00105347 0.000444094)
(-0.00227023 -0.00113845 -0.000599265)
(-0.00203629 -0.000783393 -0.00119251)
(-0.000488694 -0.000772234 -0.00161048)
(0.00107826 -0.000865497 -0.00164597)
(0.00253889 -0.00103113 -0.00122157)
(0.00277038 -0.00132438 -0.00063302)
(0.00349412 -0.000699323 0.000491889)
(-0.00477401 0.00276597 0.00277483)
(-0.0122234 0.00442729 0.0032529)
(-0.0168097 0.00447661 0.00422761)
(-0.015269 0.0031117 0.0047873)
(-0.0113558 -0.00782841 0.00455944)
(-0.00377135 -0.0226713 0.00379999)
(0.00251073 -0.0346043 0.00251073)
(0.00777592 -0.0225432 0.00365992)
(0.0117564 -0.0132831 0.00420373)
(0.0136914 -0.00586185 0.00422067)
(0.0132676 0.000712968 0.00379627)
(0.00927086 0.00302971 0.00326619)
(0.00497226 0.00212003 0.00264365)
(-0.000283291 -0.000560907 0.00109453)
(-0.00179793 -0.00129792 -0.001128)
(-0.000424696 -0.00120622 -0.00222072)
(0.000732112 -0.00115354 -0.00212065)
(0.00189452 -0.0010784 -0.000811749)
(-0.00120405 9.62956e-05 0.0015432)
(-0.00562588 0.00246285 0.00257501)
(-0.0101818 0.00295304 0.00333856)
(-0.0141674 0.000194881 0.00390156)
(-0.0144917 -0.00577647 0.00432377)
(-0.01193 -0.0122378 0.00425373)
(-0.00737585 -0.0224216 0.00348212)
(-0.00233831 -0.0351026 0.00238947)
(0.00133127 -0.0415485 0.00133127)
(0.00362969 -0.0304745 0.00271234)
(0.00364221 -0.0194631 0.00337254)
(0.00403807 -0.0101821 0.00408497)
(0.00364845 -0.00237312 0.00455696)
(0.00400024 0.0015921 0.00433701)
(0.00286138 0.00208023 0.00388507)
(0.000505294 0.00164065 0.00295329)
(-0.00129847 0.00126829 0.00144757)
(-0.000500475 0.00139783 0.000414772)
(0.000963613 0.00161282 0.000777644)
(0.000789387 0.0016538 0.00186703)
(-0.0015253 0.00178414 0.00318782)
(-0.00325218 0.00215029 0.00378675)
(-0.00431076 0.00167211 0.00430136)
(-0.00386164 -0.00257567 0.0045964)
(-0.00453345 -0.0100436 0.00418438)
(-0.0038271 -0.0188795 0.00345936)
(-0.00352214 -0.0303357 0.00269365)
(-0.00125009 -0.0418211 0.00129651)
(0.000461752 -0.0446721 0.000461752)
(0.000764132 -0.0343937 0.00202778)
(-0.00210576 -0.0239047 0.00256963)
(-0.00301712 -0.0160416 0.00321475)
(-0.00377492 -0.0103403 0.00377847)
(-0.00333808 -0.00684307 0.00407411)
(-0.00258987 -0.00475062 0.00400717)
(-0.00188487 -0.00360102 0.00389543)
(-0.00115439 -0.00313408 0.00382437)
(-0.000161742 -0.00275181 0.0037518)
(0.00126938 -0.00269928 0.00383647)
(0.00193192 -0.00305774 0.00389122)
(0.00248163 -0.00354115 0.00393805)
(0.00302498 -0.00477254 0.00401438)
(0.0036272 -0.00685484 0.00408302)
(0.0038696 -0.0103581 0.00379075)
(0.00288349 -0.0159574 0.00325785)
(0.00200914 -0.0237057 0.00261812)
(-0.000749653 -0.034344 0.0020322)
(-0.000419125 -0.0448877 0.000436745)
(-0.000290777 -0.0448696 -0.000290777)
(-0.0012662 -0.0357679 0.00131526)
(-0.00548783 -0.0272494 0.00138547)
(-0.00691027 -0.0212257 0.00144114)
(-0.00763585 -0.0170445 0.00134801)
(-0.00710041 -0.0143179 0.00128779)
(-0.00585127 -0.0125908 0.00125279)
(-0.00417648 -0.0114525 0.00128128)
(-0.00224653 -0.0107634 0.00138607)
(-0.000527414 -0.0103199 0.00154772)
(0.00152436 -0.0100169 0.00164789)
(0.0029755 -0.0104075 0.00149163)
(0.00470629 -0.0111063 0.00136639)
(0.00621397 -0.0122817 0.00132001)
(0.00732082 -0.01407 0.00134443)
(0.00772639 -0.0168758 0.00140651)
(0.00688168 -0.0210895 0.00148357)
(0.00543294 -0.0271486 0.00140867)
(0.00122957 -0.0357976 0.00130237)
(0.000307056 -0.0450721 -0.000339637)
(-0.00120826 -0.0425759 -0.00120826)
(-0.0029093 -0.0353401 0.000282164)
(-0.00795993 -0.0289353 -0.000252927)
(-0.00978683 -0.0248377 -0.000813871)
(-0.0104381 -0.0221832 -0.00146213)
(-0.00966915 -0.0204868 -0.00197595)
(-0.00798408 -0.0193768 -0.00235646)
(-0.00572498 -0.0185738 -0.00256077)
(-0.00310308 -0.0179625 -0.00253415)
(-0.000993737 -0.017432 -0.00230805)
(0.00155556 -0.0170955 -0.00217179)
(0.00351306 -0.0175423 -0.00237907)
(0.0060108 -0.0181698 -0.00241991)
(0.00816783 -0.0190277 -0.00223043)
(0.00976666 -0.0202092 -0.00186335)
(0.0104614 -0.0219856 -0.00137844)
(0.00973698 -0.0246998 -0.000764824)
(0.00788724 -0.0288764 -0.000243338)
(0.0028319 -0.0354009 0.000246695)
(0.00119994 -0.0427625 -0.00129225)
(-0.0026444 -0.037083 -0.0026444)
(-0.00505289 -0.0318548 -0.00147045)
(-0.0106963 -0.0277743 -0.00246258)
(-0.0128412 -0.0255537 -0.00348108)
(-0.0133574 -0.0242482 -0.00445071)
(-0.0122808 -0.0234838 -0.0052314)
(-0.0101039 -0.0230086 -0.00583402)
(-0.00719303 -0.0226413 -0.00624093)
(-0.00384222 -0.0223035 -0.00639446)
(-0.0013548 -0.0219041 -0.00623043)
(0.00163587 -0.0216498 -0.00611679)
(0.0040045 -0.0219866 -0.00629736)
(0.00728143 -0.0223391 -0.00615306)
(0.0101374 -0.0227532 -0.00574032)
(0.012266 -0.0232839 -0.00513577)
(0.0133032 -0.0241114 -0.00437757)
(0.0127353 -0.0254568 -0.00343609)
(0.010578 -0.0277436 -0.00245971)
(0.00493599 -0.03192 -0.00152322)
(0.00261687 -0.0372408 -0.0027578)
(-0.00511962 -0.02759 -0.00511962)
(-0.00865152 -0.024011 -0.00474267)
(-0.014531 -0.0219666 -0.00598383)
(-0.0167059 -0.0212389 -0.00731882)
(-0.0170026 -0.021115 -0.00851868)
(-0.0155848 -0.0213167 -0.00948137)
(-0.0128946 -0.0215719 -0.0102276)
(-0.00929325 -0.0217324 -0.0107097)
(-0.00509279 -0.0216734 -0.0108167)
(-0.00196719 -0.0213176 -0.0103169)
(0.00199886 -0.0211712 -0.010169)
(0.00502846 -0.0214986 -0.0106965)
(0.00921227 -0.0215811 -0.0106007)
(0.0128046 -0.021454 -0.0101215)
(0.0154811 -0.0212297 -0.00938366)
(0.0168787 -0.0210566 -0.008442)
(0.0165628 -0.0212126 -0.00727189)
(0.0143882 -0.0219664 -0.00598388)
(0.00851695 -0.0240611 -0.00480648)
(0.00508354 -0.0277077 -0.00525579)
(-0.00911849 -0.0169747 -0.00911849)
(-0.0150062 -0.0136097 -0.0105002)
(-0.0208787 -0.0119621 -0.0128112)
(-0.0228694 -0.0113153 -0.0149916)
(-0.0227847 -0.0109859 -0.0170347)
(-0.0209014 -0.0107373 -0.0188289)
(-0.017604 -0.0104002 -0.0202922)
(-0.0131437 -0.00990955 -0.0213685)
(-0.00775874 -0.00923274 -0.0218331)
(-0.00339826 -0.00848533 -0.0210749)
(0.00299428 -0.00832989 -0.0209224)
(0.00743091 -0.00907243 -0.0217627)
(0.0128918 -0.00977856 -0.0213103)
(0.0174068 -0.0102968 -0.0202335)
(0.0207356 -0.0106567 -0.0187652)
(0.022625 -0.0109259 -0.016977)
(0.0227108 -0.0112772 -0.0149662)
(0.0207372 -0.0119448 -0.0128338)
(0.014894 -0.0136244 -0.010588)
(0.0090911 -0.0170456 -0.00928434)
(0.00413246 0.0085262 0.00571497)
(0.00293894 0.0125271 0.00293894)
(-0.0025004 0.00425849 -0.000145539)
(-0.00217211 -0.00302213 -3.53536e-05)
(-0.00152809 -0.00382835 -0.000524414)
(-0.00148575 -0.00320534 2.7255e-05)
(-0.0010202 -0.00179753 0.000466989)
(-0.000416987 -0.000529745 0.000244597)
(-0.000412678 -0.000663529 0.000128111)
(-1.74094e-05 -0.000729694 -0.000135032)
(0.000479173 -0.000784973 -0.000171855)
(0.00113514 -0.0007443 -8.34949e-05)
(0.00160949 -0.000610011 -0.000111308)
(0.00234663 -0.00174502 -1.18401e-05)
(0.00285234 -0.00335664 -0.000339731)
(0.0026735 -0.00427567 -0.00057886)
(0.00408125 -0.00293371 -1.87502e-05)
(0.00228552 0.00574974 -0.000379907)
(-0.00444047 0.0108987 0.00445414)
(-0.00449639 0.00449263 0.00755533)
(0.00507481 -0.00805203 0.0122293)
(0.0116827 0.00149506 0.0116827)
(0.0160921 0.00209644 0.0105332)
(0.016692 0.00300589 0.00817662)
(0.0120147 0.00338792 0.00566205)
(0.00580272 0.00200185 0.00420147)
(0.000930115 -0.00101533 0.00245852)
(0.000160906 -0.00150728 0.000318971)
(-0.000299097 -0.00107358 -0.000948166)
(5.94345e-05 -0.000959816 -0.00186371)
(0.000323801 -0.00107198 -0.00191124)
(0.000732255 -0.00135482 -0.00106516)
(0.000365896 -0.00168492 3.24599e-05)
(-0.000789231 -0.00051153 0.00258338)
(-0.00597646 0.00228082 0.00430283)
(-0.0121082 0.00384875 0.00561106)
(-0.0163444 0.00435414 0.00799708)
(-0.0150898 0.00477484 0.0100658)
(-0.0113841 0.0028459 0.0112916)
(-0.00454802 -0.00848219 0.01127)
(0.00365992 -0.0225432 0.00777592)
(0.00981139 -0.0157871 0.00981139)
(0.0140879 -0.00995249 0.00978549)
(0.0158823 -0.00352701 0.00856958)
(0.0146372 0.00178522 0.00694368)
(0.0107537 0.00337517 0.00558251)
(0.00682532 0.00199389 0.00433296)
(0.00279652 -0.000342406 0.00248336)
(0.000494873 -0.0013059 -0.000381976)
(-9.44031e-06 -0.00100105 -0.00263528)
(-0.000213341 -0.00117404 -0.0023485)
(-0.00126816 -0.0013094 0.000151785)
(-0.00386197 0.000104831 0.00267418)
(-0.00753323 0.00230199 0.00434245)
(-0.0116127 0.00323729 0.00569594)
(-0.0155516 0.00121672 0.00714231)
(-0.0165865 -0.00372451 0.00880115)
(-0.0143288 -0.00924184 0.00992113)
(-0.00956946 -0.0152064 0.00957205)
(-0.0034186 -0.0228614 0.00734738)
(0.00271234 -0.0304745 0.00362969)
(0.00700092 -0.0234902 0.00700092)
(0.00849298 -0.0148309 0.00824033)
(0.00923953 -0.00564186 0.00832481)
(0.00934227 0.00184104 0.00763048)
(0.00787204 0.00457655 0.00664569)
(0.00561888 0.00398309 0.00557482)
(0.0029523 0.00250855 0.00403898)
(0.000459711 0.00127123 0.00139935)
(-0.000201164 0.000763121 -0.00150549)
(-0.000373718 0.000944653 -0.000531726)
(-0.00157225 0.00154235 0.00231051)
(-0.00393597 0.00259885 0.00422469)
(-0.00621491 0.00405339 0.00550804)
(-0.00833781 0.00458408 0.00663528)
(-0.00971288 0.00157198 0.00773134)
(-0.00966178 -0.00571095 0.00851232)
(-0.00865646 -0.0144591 0.00841668)
(-0.00691811 -0.023316 0.00702965)
(-0.00261443 -0.0306218 0.0035717)
(0.00202778 -0.0343937 0.000764132)
(0.00549901 -0.0275063 0.005499)
(0.00454272 -0.0180115 0.00762312)
(0.00392411 -0.00824385 0.00845829)
(0.00300707 -0.000493624 0.00876407)
(0.00275212 0.00316948 0.00818874)
(0.00180637 0.00375364 0.00724537)
(0.000648528 0.00347484 0.00613774)
(-0.000363324 0.00317803 0.00491602)
(-0.000165652 0.00328221 0.00384853)
(0.000675825 0.0030887 0.00420445)
(0.000416483 0.00297548 0.00527034)
(-0.000669374 0.00324713 0.00628885)
(-0.00179473 0.00348949 0.00724636)
(-0.00269623 0.00292649 0.00818257)
(-0.00285916 -0.000884168 0.00879992)
(-0.00397935 -0.008441 0.00855601)
(-0.00452072 -0.0179384 0.00774765)
(-0.00542435 -0.0274918 0.00558232)
(-0.00196775 -0.034495 0.000797875)
(0.00131526 -0.0357679 -0.0012662)
(0.00462906 -0.028592 0.00462906)
(0.00194691 -0.0190213 0.0071465)
(0.000752068 -0.0094128 0.0081815)
(-0.000837096 -0.00204275 0.0086377)
(-0.000743235 0.00181097 0.00852028)
(-0.000996012 0.00299182 0.0079705)
(-0.00116599 0.00345766 0.00743076)
(-0.00101095 0.0036575 0.00698376)
(-0.000219868 0.00381131 0.00656419)
(0.0011255 0.00375245 0.00667927)
(0.00160063 0.00355572 0.0070828)
(0.00160171 0.00332596 0.00747949)
(0.00132157 0.0028183 0.00797406)
(0.00103532 0.00158995 0.00852642)
(0.00107242 -0.00228679 0.00866307)
(-0.000631579 -0.00953018 0.00826369)
(-0.00183839 -0.0190219 0.00723146)
(-0.00455703 -0.0286225 0.00468909)
(-0.00127819 -0.0358223 -0.00125946)
(0.000282164 -0.0353401 -0.0029093)
(0.0035557 -0.027651 0.0035557)
(-0.000551904 -0.0186228 0.0060303)
(-0.00177499 -0.0102285 0.00691551)
(-0.00299893 -0.00449245 0.00713523)
(-0.00303945 -0.00120225 0.00715848)
(-0.00248754 0.000552094 0.00722268)
(-0.0018016 0.00132924 0.00732038)
(-0.000978691 0.00155762 0.00730643)
(-7.26435e-05 0.00156612 0.00717392)
(0.00110214 0.00153493 0.00720438)
(0.0017853 0.00142995 0.00733238)
(0.00242058 0.00116693 0.00735561)
(0.00296708 0.000371806 0.00725643)
(0.00343606 -0.00142605 0.00719127)
(0.00326647 -0.00471402 0.00720062)
(0.00194238 -0.0103777 0.0069898)
(0.000669302 -0.0186263 0.00607688)
(-0.00350076 -0.0276753 0.00356714)
(-0.000265461 -0.0353577 -0.00296524)
(-0.00147045 -0.0318548 -0.00505289)
(0.00110783 -0.0242187 0.00110783)
(-0.00401177 -0.0170595 0.00311906)
(-0.00518179 -0.0110975 0.00346418)
(-0.00604697 -0.00666647 0.00304091)
(-0.00591155 -0.00413128 0.00248723)
(-0.00498848 -0.00263616 0.00210527)
(-0.00351607 -0.00151853 0.00211268)
(-0.00173201 -0.000349773 0.00269837)
(-0.000300468 0.0010395 0.00368082)
(0.00116487 0.00129803 0.00386345)
(0.00242465 2.68156e-05 0.00300852)
(0.00407296 -0.00122585 0.00237571)
(0.00543611 -0.00247026 0.00231861)
(0.00623815 -0.00410743 0.00265286)
(0.00626277 -0.00673679 0.00316695)
(0.00531887 -0.0112 0.00353944)
(0.00407289 -0.0170968 0.00313242)
(-0.00108346 -0.0242208 0.00107949)
(0.00147277 -0.0318488 -0.00515767)
(-0.00474267 -0.024011 -0.00865152)
(-0.00486777 -0.0183201 -0.00486777)
(-0.00988959 -0.0140899 -0.00397829)
(-0.0112597 -0.0117425 -0.00449284)
(-0.011317 -0.0104306 -0.00540189)
(-0.0101612 -0.00997545 -0.00617781)
(-0.00826706 -0.00995222 -0.00669556)
(-0.00587706 -0.01008 -0.00677854)
(-0.0032105 -0.0101168 -0.00631845)
(-0.00116998 -0.00962451 -0.0050888)
(0.00156742 -0.00955905 -0.00480304)
(0.00353617 -0.0100329 -0.00599744)
(0.00615419 -0.0100347 -0.00649039)
(0.00849333 -0.00996578 -0.00643308)
(0.010327 -0.0100442 -0.00594732)
(0.0114279 -0.0105278 -0.00523006)
(0.0113067 -0.0118381 -0.00438641)
(0.00988443 -0.014144 -0.00395487)
(0.00483551 -0.0183342 -0.00493225)
(0.00473513 -0.0240024 -0.00879295)
(-0.0105002 -0.0136097 -0.0150062)
(-0.0158316 -0.0084091 -0.0158316)
(-0.021667 -0.00553311 -0.0184418)
(-0.0234061 -0.00397853 -0.0212708)
(-0.0232458 -0.00297945 -0.0240708)
(-0.0214764 -0.00218607 -0.0266123)
(-0.0184801 -0.00131026 -0.0286856)
(-0.0144029 -0.000283316 -0.0302124)
(-0.00923105 0.000914175 -0.0308603)
(-0.00447912 0.00227692 -0.0298901)
(0.00404911 0.00246075 -0.0297208)
(0.00897445 0.00108265 -0.0307793)
(0.0142523 -0.000146571 -0.0301533)
(0.018407 -0.0012038 -0.0286332)
(0.0214408 -0.00210853 -0.0265489)
(0.0232062 -0.00292632 -0.0240091)
(0.0233505 -0.0039516 -0.0212541)
(0.0216017 -0.00551637 -0.0184798)
(0.0157739 -0.00839308 -0.0159458)
(0.0104903 -0.0136009 -0.0151953)
(0.00103976 0.00866255 -0.00168123)
(-0.000145538 0.00425849 -0.0025004)
(-0.000787306 -0.00240947 -0.000787307)
(0.000122674 -0.00407051 0.000301983)
(0.00022212 -0.00384524 0.000137308)
(0.000217067 -0.00308933 0.000764084)
(0.000724549 -0.00175548 0.00127494)
(0.00112267 -0.000539576 0.00117969)
(0.000692237 -0.00044249 0.000995011)
(0.000333127 -0.000565877 0.000583509)
(4.96711e-05 -0.000632537 0.00041942)
(4.71812e-05 -0.000581552 0.000567383)
(-1.57434e-05 -0.000688585 0.000676028)
(0.000565741 -0.00187639 0.000719231)
(0.00101628 -0.00324513 0.000329385)
(0.000922706 -0.004132 -4.68682e-05)
(0.00145863 -0.00461924 -0.000109827)
(0.00234901 -0.00247236 -0.00184072)
(0.00039864 0.00608685 -0.00181807)
(-0.0015657 0.0092507 0.000316198)
(0.00514732 -0.000108944 0.0161279)
(0.0105332 0.00209644 0.0160921)
(0.0142337 0.002344 0.0142337)
(0.0136533 0.00289145 0.0104249)
(0.0098253 0.00278346 0.0071018)
(0.00517701 0.0012279 0.00503264)
(0.00184276 -0.00128994 0.00306712)
(0.00134905 -0.00163776 0.00121449)
(0.000869458 -0.00124466 -0.000406954)
(0.000428284 -0.00101787 -0.00164346)
(-0.00018697 -0.00116392 -0.00172857)
(-0.000454386 -0.00155827 -0.000620485)
(-0.000994192 -0.00187798 0.00102503)
(-0.0017383 -0.000850668 0.00321217)
(-0.00540825 0.001595 0.00519612)
(-0.0100197 0.00311516 0.00719866)
(-0.0137324 0.0036576 0.0104622)
(-0.0140439 0.00401308 0.0140108)
(-0.0101742 0.00458054 0.0151559)
(-0.00486556 0.00231431 0.015472)
(0.00420373 -0.0132831 0.0117564)
(0.00978549 -0.00995249 0.0140879)
(0.0137266 -0.0057279 0.0137266)
(0.0153764 -0.000527893 0.0119168)
(0.0139362 0.00309459 0.00953316)
(0.0105544 0.00361275 0.00750479)
(0.00701979 0.00179772 0.00564048)
(0.00350013 -0.000552557 0.00328249)
(0.00140696 -0.00122746 0.00015477)
(0.000270449 -0.00095153 -0.00240934)
(-0.000909048 -0.0011735 -0.00203986)
(-0.00222282 -0.00135348 0.000568056)
(-0.00451107 -0.000178486 0.00347675)
(-0.00778929 0.00216036 0.00574425)
(-0.0113459 0.00355482 0.00768274)
(-0.0147931 0.00249989 0.0098395)
(-0.0160891 -0.00119737 0.0123107)
(-0.0141962 -0.00581271 0.014091)
(-0.00992796 -0.0094448 0.0142186)
(-0.00417296 -0.0127161 0.0117341)
(0.00337254 -0.0194631 0.00364221)
(0.00824033 -0.0148309 0.00849298)
(0.010536 -0.00885929 0.010536)
(0.0117344 -0.00165746 0.01062)
(0.0116633 0.00386811 0.0096641)
(0.00978504 0.00546453 0.00834481)
(0.00715695 0.00425063 0.00682638)
(0.00431772 0.00218768 0.00470243)
(0.00166786 0.0004268 0.00109318)
(-1.62601e-05 -0.000258247 -0.00239474)
(-0.00118049 -0.000188705 -0.00143379)
(-0.00294893 0.000613642 0.00214691)
(-0.00537561 0.00227836 0.00494285)
(-0.00788265 0.00437624 0.00680886)
(-0.0103312 0.00551512 0.00835752)
(-0.0121058 0.00360337 0.00976808)
(-0.0121293 -0.00197039 0.010848)
(-0.0107926 -0.00888388 0.0108273)
(-0.00831489 -0.0147204 0.00870988)
(-0.00334234 -0.0192359 0.00378156)
(0.00256963 -0.0239047 -0.00210576)
(0.00762312 -0.0180115 0.00454272)
(0.0082144 -0.0113828 0.0082144)
(0.00832891 -0.00364821 0.00967343)
(0.00789554 0.00305755 0.00992112)
(0.00685367 0.00595655 0.00910827)
(0.00500747 0.0055764 0.00777238)
(0.00283714 0.00407185 0.00588258)
(0.000671213 0.0027815 0.00318146)
(-0.000138303 0.00189714 0.000351131)
(-3.54333e-05 0.00200222 0.00128116)
(-0.00131623 0.00266418 0.00405754)
(-0.00336865 0.00387366 0.00619485)
(-0.00536381 0.00536655 0.00781937)
(-0.00703058 0.00572059 0.00911181)
(-0.00792534 0.00259266 0.00997938)
(-0.00838154 -0.00411551 0.00980715)
(-0.00820322 -0.0116612 0.00841029)
(-0.00758119 -0.0181778 0.00471339)
(-0.00252139 -0.0238688 -0.00198548)
(0.00138547 -0.0272494 -0.00548783)
(0.0071465 -0.0190213 0.00194691)
(0.00639845 -0.0116312 0.00639845)
(0.00582762 -0.00355569 0.00848132)
(0.00464126 0.0032668 0.00924487)
(0.00390663 0.00653784 0.00881048)
(0.00269655 0.00667927 0.00769669)
(0.00130738 0.00583659 0.00624831)
(7.83433e-05 0.00510769 0.00455302)
(-7.44777e-05 0.00462011 0.00298341)
(0.000508086 0.00456732 0.00339241)
(-1.48584e-06 0.00492835 0.00502017)
(-0.00128515 0.0055645 0.0064695)
(-0.00266169 0.00637094 0.00777323)
(-0.00378396 0.00620375 0.00886083)
(-0.00444432 0.00284973 0.00932148)
(-0.00568484 -0.00395935 0.00862735)
(-0.00625571 -0.0119449 0.00656018)
(-0.00706658 -0.0192265 0.0020579)
(-0.00136551 -0.0271836 -0.00545873)
(-0.000252928 -0.0289353 -0.00795993)
(0.0060303 -0.0186228 -0.000551904)
(0.00417504 -0.0107556 0.00417504)
(0.00361757 -0.00306954 0.00653657)
(0.00221864 0.00266714 0.00726872)
(0.0015799 0.00565356 0.00694191)
(0.00107375 0.00595363 0.00616975)
(0.000550322 0.00526869 0.00533029)
(0.000130933 0.00452893 0.00444773)
(0.000172306 0.00401566 0.00353735)
(0.000585029 0.00395926 0.00367971)
(0.000412742 0.00430505 0.00459393)
(-0.000131856 0.00493807 0.00541007)
(-0.000737248 0.00556935 0.00622332)
(-0.00124515 0.00522037 0.00701368)
(-0.00188915 0.00218193 0.00740445)
(-0.00338698 -0.00345478 0.00670664)
(-0.00398848 -0.0110557 0.00430035)
(-0.00595826 -0.01879 -0.000511601)
(0.000238526 -0.0288334 -0.0080092)
(-0.00246258 -0.0277743 -0.0106963)
(0.00311906 -0.0170595 -0.00401177)
(0.000265915 -0.00884069 0.000265915)
(0.000186344 -0.000751265 0.00237587)
(-0.00040168 0.00470319 0.00310981)
(-0.000320421 0.00705401 0.00275425)
(-0.000200555 0.00765832 0.00210811)
(-1.90479e-05 0.00777865 0.0016498)
(0.000248936 0.00777656 0.00146213)
(0.000415728 0.00764994 0.00145752)
(0.00047263 0.00763051 0.00157225)
(0.000502249 0.00765588 0.00162025)
(0.000659851 0.00759632 0.0017842)
(0.000726902 0.00740945 0.00221209)
(0.000769652 0.00672007 0.00284729)
(0.000804413 0.00431458 0.003234)
(9.175e-05 -0.00103574 0.0025415)
(-0.000100524 -0.00909248 0.00036811)
(-0.00308922 -0.0171463 -0.0040223)
(0.00242598 -0.0276702 -0.0107943)
(-0.00598383 -0.0219666 -0.014531)
(-0.00397829 -0.0140899 -0.00988959)
(-0.0071154 -0.00819522 -0.0071154)
(-0.00669708 -0.00452102 -0.00606902)
(-0.00543282 -0.00211359 -0.00533199)
(-0.00342822 -0.0013449 -0.00477624)
(-0.00195331 -0.00181653 -0.00514292)
(-0.000791464 -0.00250182 -0.00538111)
(4.43133e-05 -0.00274532 -0.00518829)
(0.000290069 -0.0015969 -0.00459008)
(0.000533033 -0.0015143 -0.004404)
(0.000697275 -0.00269498 -0.00492773)
(0.00145216 -0.00256814 -0.00513467)
(0.00252033 -0.00201007 -0.00494873)
(0.00393042 -0.00167377 -0.00470651)
(0.00584593 -0.00251558 -0.00536081)
(0.00688484 -0.00485687 -0.00597785)
(0.00717389 -0.00837915 -0.00707532)
(0.00393313 -0.0141298 -0.00993387)
(0.00593892 -0.0219058 -0.0146696)
(-0.0128112 -0.0119621 -0.0208787)
(-0.0184418 -0.00553311 -0.021667)
(-0.0242081 -0.00215327 -0.0242081)
(-0.025424 -0.000282228 -0.0270866)
(-0.0247926 0.000975363 -0.0300175)
(-0.0227659 0.00202391 -0.0329367)
(-0.0197198 0.0032007 -0.0355564)
(-0.0156822 0.00459086 -0.0376305)
(-0.0103847 0.00619666 -0.0386225)
(-0.00514807 0.0079786 -0.0374925)
(0.00476595 0.0081695 -0.0373071)
(0.0102002 0.00636554 -0.0385547)
(0.0156283 0.00472985 -0.0376223)
(0.0197668 0.00330873 -0.0355916)
(0.0228536 0.00208931 -0.0329718)
(0.0248585 0.00100776 -0.0300645)
(0.0254402 -0.000280203 -0.0271579)
(0.0241599 -0.00215967 -0.0242864)
(0.0183636 -0.00552656 -0.0217955)
(0.0127671 -0.0119344 -0.021067)
(0.000215864 -0.000340665 -0.00494716)
(-3.53532e-05 -0.00302213 -0.00217211)
(0.000301984 -0.00407051 0.000122674)
(0.000800833 -0.00396509 0.000800833)
(0.00111556 -0.00352218 0.000912334)
(0.0014474 -0.00277052 0.00166979)
(0.00202567 -0.00162596 0.00223993)
(0.00225329 -0.000578552 0.002391)
(0.00164586 -0.000357351 0.00241448)
(0.00073283 -0.000453214 0.00209806)
(-0.000330229 -0.000538341 0.00185228)
(-0.000945228 -0.000549384 0.00190452)
(-0.00125486 -0.000706722 0.00181025)
(-0.000832797 -0.00171433 0.00167949)
(-0.000353787 -0.00290373 0.00118619)
(-3.69277e-05 -0.00379149 0.000603752)
(0.000296898 -0.00428874 0.000343844)
(0.00063541 -0.00458878 -0.000785301)
(0.000263127 -0.00275745 -0.00343263)
(-0.000201746 -7.50551e-05 -0.00636941)
(0.00443942 0.0027118 0.0172887)
(0.00817662 0.00300589 0.016692)
(0.0104249 0.00289145 0.0136533)
(0.00974917 0.00274329 0.00974917)
(0.00702021 0.00192131 0.00656743)
(0.00387667 3.17035e-06 0.0046201)
(0.00209841 -0.00170108 0.00318725)
(0.00191484 -0.00167357 0.00197351)
(0.00164466 -0.00122643 0.000815801)
(0.000782266 -0.00101002 -0.000496816)
(-0.000537173 -0.00118519 -0.000637797)
(-0.0012402 -0.00162819 0.000503787)
(-0.0015775 -0.00202769 0.00165354)
(-0.00175179 -0.00157985 0.00310527)
(-0.00411556 0.00055017 0.00483236)
(-0.00729685 0.00220668 0.00683037)
(-0.00993785 0.00315117 0.00998367)
(-0.0105258 0.0036651 0.0138566)
(-0.00811995 0.00426127 0.0166078)
(-0.00433626 0.00407301 0.0172147)
(0.00422067 -0.00586185 0.0136914)
(0.00856958 -0.00352701 0.0158823)
(0.0119168 -0.000527893 0.0153764)
(0.0130775 0.00252415 0.0130775)
(0.0118433 0.00401942 0.0103536)
(0.00921028 0.00325928 0.00805925)
(0.00618442 0.00100527 0.00596877)
(0.00335093 -0.00111221 0.003692)
(0.00172666 -0.00144038 0.00114998)
(0.000430913 -0.00116227 -0.0012584)
(-0.00122914 -0.00139437 -0.000953122)
(-0.00251338 -0.00164508 0.00137584)
(-0.00431909 -0.000808459 0.0038186)
(-0.00708372 0.00152059 0.00615612)
(-0.00991315 0.00343868 0.00827581)
(-0.0125971 0.00365499 0.0107427)
(-0.0137686 0.00177533 0.0136197)
(-0.0124258 -0.00124205 0.0159389)
(-0.0088272 -0.00389808 0.0164164)
(-0.00425092 -0.00601627 0.0142291)
(0.00408497 -0.0101821 0.00403807)
(0.00832481 -0.00564186 0.00923953)
(0.01062 -0.00165746 0.0117344)
(0.0119257 0.00271691 0.0119257)
(0.0117316 0.00546713 0.0107279)
(0.0100223 0.00555462 0.00915235)
(0.00753822 0.00378674 0.00744123)
(0.00481569 0.00153672 0.0051797)
(0.00219876 -0.000200748 0.00176258)
(0.000145635 -0.000628344 -0.00152033)
(-0.00162565 -0.000719188 -0.000704317)
(-0.00357486 -0.000145694 0.0025394)
(-0.00596241 0.00165389 0.00540276)
(-0.00834008 0.00399338 0.00744365)
(-0.0105968 0.00573092 0.00918596)
(-0.0121932 0.00535444 0.0108428)
(-0.0123004 0.00232713 0.0121452)
(-0.0108771 -0.0020919 0.0120535)
(-0.00843632 -0.00598285 0.00963244)
(-0.00404315 -0.0102915 0.00445177)
(0.00321475 -0.0160416 -0.00301712)
(0.00845829 -0.00824385 0.00392411)
(0.00967343 -0.00364821 0.00832891)
(0.010274 0.00130368 0.010274)
(0.010118 0.00540726 0.0104828)
(0.00896075 0.00672664 0.00963064)
(0.00694607 0.0055746 0.00821339)
(0.00451969 0.00345154 0.00613056)
(0.00203387 0.00144184 0.00296878)
(0.000156298 -0.000166311 -0.000649987)
(-0.00123428 3.18161e-05 0.000438691)
(-0.00302171 0.00146611 0.00390364)
(-0.00535354 0.00333865 0.0064517)
(-0.00753449 0.00546943 0.0082684)
(-0.00931593 0.00658666 0.00963021)
(-0.0103008 0.00501609 0.0105206)
(-0.0103621 0.000662765 0.0103833)
(-0.00966659 -0.00428463 0.00853033)
(-0.00839945 -0.00871922 0.00416006)
(-0.00313586 -0.0160601 -0.0028381)
(0.00144114 -0.0212257 -0.00691027)
(0.0081815 -0.0094128 0.000752068)
(0.00848132 -0.00355568 0.00582762)
(0.00845709 0.001707 0.00845709)
(0.00794673 0.00609124 0.00950476)
(0.00709484 0.00791796 0.0092512)
(0.00561624 0.0072397 0.00820782)
(0.00372953 0.00556515 0.00655048)
(0.00171381 0.00396949 0.004163)
(0.000299726 0.00268187 0.00143568)
(-0.000584908 0.0027489 0.00211406)
(-0.00205995 0.00387941 0.00479505)
(-0.00404332 0.00533414 0.00682157)
(-0.00583712 0.00696259 0.00829651)
(-0.0071694 0.00759999 0.00929006)
(-0.00788974 0.00562149 0.00957147)
(-0.00834995 0.00109994 0.00859027)
(-0.00834077 -0.00416596 0.00601133)
(-0.0080945 -0.00981048 0.000899459)
(-0.00143578 -0.0210997 -0.00688056)
(-0.000813871 -0.0248377 -0.00978683)
(0.00691551 -0.0102285 -0.00177499)
(0.00653657 -0.00306954 0.00361757)
(0.00631503 0.00224002 0.00631502)
(0.00567455 0.00620126 0.00760955)
(0.00518216 0.00788954 0.00775871)
(0.00445448 0.00724766 0.00721507)
(0.00339954 0.00559786 0.00630492)
(0.0020708 0.00391527 0.00505582)
(0.000805958 0.00253625 0.00357066)
(-0.000514373 0.00255197 0.00381334)
(-0.00184155 0.00377167 0.00534054)
(-0.00323813 0.00530529 0.00646232)
(-0.00432031 0.00686919 0.00730266)
(-0.00500404 0.00744139 0.00784067)
(-0.00544454 0.005633 0.0077388)
(-0.00612047 0.00160559 0.00649287)
(-0.0063324 -0.00359634 0.00377392)
(-0.00686119 -0.0105241 -0.0017209)
(0.000762229 -0.024653 -0.00984448)
(-0.00348108 -0.0255537 -0.0128412)
(0.00346418 -0.0110975 -0.00518179)
(0.00237587 -0.000751265 0.000186344)
(0.00300977 0.00518081 0.00300977)
(0.00281688 0.00797537 0.00435071)
(0.00309569 0.00904629 0.00460745)
(0.003226 0.00879904 0.00436047)
(0.00302343 0.00820798 0.00397398)
(0.00245679 0.00776712 0.00358992)
(0.00134543 0.00738308 0.00312789)
(-0.000631927 0.00736938 0.00325284)
(-0.00185391 0.0076829 0.00376811)
(-0.00250783 0.00805405 0.00411632)
(-0.00281178 0.00854757 0.00447315)
(-0.00274299 0.00872564 0.00472796)
(-0.00250274 0.00757274 0.00450842)
(-0.0027646 0.00473231 0.00319739)
(-0.00213259 -0.00131064 0.000271369)
(-0.00348905 -0.0112922 -0.00518031)
(0.00340533 -0.0253927 -0.0129505)
(-0.00731882 -0.0212389 -0.0167059)
(-0.00449284 -0.0117425 -0.0112597)
(-0.00606902 -0.00452102 -0.00669708)
(-0.0036895 0.000133129 -0.00368951)
(-0.00278468 0.00209761 -0.00309917)
(-0.000848995 0.0019645 -0.00298311)
(0.000671255 0.000703015 -0.0033456)
(0.00140915 -0.000488101 -0.0037447)
(0.00157729 -0.00107097 -0.00381074)
(0.000968687 -3.55686e-05 -0.00341668)
(-0.00014939 8.27282e-06 -0.0031858)
(-0.000899738 -0.00108567 -0.00354562)
(-0.000788806 -0.000573296 -0.00354799)
(-9.08321e-05 0.000536046 -0.00322827)
(0.00133251 0.00164738 -0.00292969)
(0.00311344 0.00165433 -0.00303253)
(0.00384894 -0.000416813 -0.00356945)
(0.00612501 -0.00485819 -0.00669882)
(0.00437086 -0.011822 -0.011315)
(0.00723321 -0.0211658 -0.0168555)
(-0.0149916 -0.0113153 -0.0228694)
(-0.0212708 -0.00397853 -0.0234061)
(-0.0270866 -0.000282228 -0.025424)
(-0.0276037 0.00173402 -0.0276037)
(-0.0264412 0.00306793 -0.0301459)
(-0.0244183 0.00424231 -0.0333347)
(-0.0216509 0.00567042 -0.0367924)
(-0.017761 0.00744159 -0.0398866)
(-0.0122395 0.00950927 -0.0418522)
(-0.00623575 0.011837 -0.04146)
(0.0058393 0.0120778 -0.0413444)
(0.0120806 0.0097186 -0.0418815)
(0.0177579 0.00761384 -0.0399906)
(0.0217626 0.00581001 -0.0369492)
(0.0246062 0.0043375 -0.0335476)
(0.0266327 0.00311187 -0.0304004)
(0.0277473 0.00172302 -0.0278596)
(0.0270683 -0.000303882 -0.0255932)
(0.021165 -0.00398045 -0.0235735)
(0.0149143 -0.011287 -0.0230751)
(-0.000309586 -0.00265081 -0.00414084)
(-0.000524413 -0.00382835 -0.00152809)
(0.000137308 -0.00384524 0.000222119)
(0.000912334 -0.00352218 0.00111556)
(0.00170227 -0.00302515 0.00170227)
(0.00240727 -0.00244117 0.00256369)
(0.00309806 -0.00135454 0.00329798)
(0.00318906 -0.000581606 0.00374584)
(0.00243185 -0.000379329 0.00406885)
(0.00110675 -0.000430699 0.00406245)
(-0.000722432 -0.000540021 0.00381404)
(-0.00181768 -0.000622877 0.00355762)
(-0.0022606 -0.000768406 0.00316514)
(-0.00198657 -0.00147046 0.00273673)
(-0.001368 -0.00247352 0.00209508)
(-0.000756178 -0.00319741 0.00138345)