/*--------------------------------*- C++ -*----------------------------------*\
  =========                 |
  \\      /  F ield         | OpenFOAM: The Open Source CFD Toolbox
   \\    /   O peration     | Website:  https://openfoam.org
    \\  /    A nd           | Version:  9
     \\/     M anipulation  |
\*---------------------------------------------------------------------------*/
FoamFile
{
    format      ascii;
    class       volScalarField;
    location    "1450";
    object      epsilon;
}
// * * * * * * * * * * * * * * * * * * * * * * * * * * * * * * * * * * * * * //

dimensions      [0 2 -3 0 0 0 0];

internalField   nonuniform List<scalar> 
4000
(
1.1335e-07
6.50317e-08
3.78928e-08
2.80745e-08
2.31493e-08
1.90132e-08
1.33768e-08
1.1091e-08
1.01088e-08
9.8525e-09
9.63021e-09
9.34456e-09
9.85633e-09
1.17254e-08
2.02315e-08
2.02298e-08
2.49481e-08
4.47792e-08
8.65137e-08
1.27303e-07
2.89814e-07
2.61645e-07
2.1579e-07
1.55712e-07
1.10837e-07
5.85981e-08
2.49969e-08
2.1912e-08
2.01965e-08
2.06478e-08
2.075e-08
1.95177e-08
2.15969e-08
2.42889e-08
8.33989e-08
1.49907e-07
2.11634e-07
2.78838e-07
3.30996e-07
3.66461e-07
4.19769e-07
3.89678e-07
3.35321e-07
2.71697e-07
2.01848e-07
1.42169e-07
9.41476e-08
5.03332e-08
2.4948e-08
2.85761e-08
2.90549e-08
2.62831e-08
4.79987e-08
9.07603e-08
1.39209e-07
1.98786e-07
2.69967e-07
3.44462e-07
4.09861e-07
4.44941e-07
4.66106e-07
4.45676e-07
3.86839e-07
3.07634e-07
2.27173e-07
1.58252e-07
1.05924e-07
6.53236e-08
3.73495e-08
3.46877e-08
3.62186e-08
4.89541e-08
7.86728e-08
1.143e-07
1.59942e-07
2.24971e-07
3.10005e-07
3.96631e-07
4.6246e-07
4.84965e-07
4.95552e-07
4.95626e-07
4.55098e-07
3.95064e-07
3.31931e-07
2.76578e-07
2.32901e-07
1.99085e-07
1.75282e-07
1.6292e-07
1.75133e-07
1.9683e-07
2.2356e-07
2.56254e-07
2.96073e-07
3.46955e-07
4.07629e-07
4.6737e-07
5.10324e-07
5.11596e-07
5.19209e-07
5.45124e-07
5.41339e-07
5.22367e-07
4.96775e-07
4.67833e-07
4.39285e-07
4.11397e-07
3.84871e-07
3.61972e-07
3.7188e-07
3.99371e-07
4.28506e-07
4.57342e-07
4.85299e-07
5.12734e-07
5.37306e-07
5.56036e-07
5.60216e-07
5.34346e-07
5.4358e-07
5.9968e-07
6.34809e-07
6.54368e-07
6.63111e-07
6.60494e-07
6.4731e-07
6.25039e-07
5.93951e-07
5.57132e-07
5.66476e-07
6.05607e-07
6.39286e-07
6.6338e-07
6.77255e-07
6.79634e-07
6.70333e-07
6.50318e-07
6.14987e-07
5.58468e-07
5.72203e-07
6.61453e-07
7.35537e-07
7.91056e-07
8.32027e-07
8.5637e-07
8.62663e-07
8.48911e-07
8.12629e-07
7.57818e-07
7.68419e-07
8.24104e-07
8.62936e-07
8.79298e-07
8.74564e-07
8.50352e-07
8.08622e-07
7.5212e-07
6.77207e-07
5.87216e-07
6.10879e-07
7.43635e-07
8.60555e-07
9.54799e-07
1.0297e-06
1.08302e-06
1.1128e-06
1.11326e-06
1.07534e-06
9.97616e-07
1.01159e-06
1.08879e-06
1.13076e-06
1.13425e-06
1.10614e-06
1.05213e-06
9.75267e-07
8.79008e-07
7.60468e-07
6.26497e-07
6.68283e-07
8.51468e-07
1.02029e-06
1.15904e-06
1.27604e-06
1.37086e-06
1.43923e-06
1.47388e-06
1.4608e-06
1.38485e-06
1.40518e-06
1.48073e-06
1.49812e-06
1.46733e-06
1.40015e-06
1.30442e-06
1.18521e-06
1.04339e-06
8.71118e-07
6.85258e-07
6.50317e-08
5.61017e-08
4.68592e-08
4.46249e-08
4.79172e-08
4.34655e-08
2.77848e-08
1.86315e-08
1.58687e-08
1.53577e-08
1.54433e-08
1.59055e-08
1.92267e-08
2.9455e-08
4.21283e-08
3.92202e-08
3.86888e-08
5.396e-08
9.08996e-08
9.3836e-08
2.61645e-07
3.37764e-07
2.81032e-07
2.14321e-07
1.71216e-07
1.21663e-07
5.84611e-08
3.32709e-08
2.3483e-08
1.89169e-08
1.91316e-08
2.27963e-08
3.33735e-08
6.73532e-08
1.394e-07
2.10553e-07
2.74943e-07
3.61491e-07
4.26291e-07
3.37497e-07
3.89678e-07
4.18432e-07
3.71385e-07
2.95128e-07
2.21073e-07
1.67723e-07
1.25114e-07
7.99529e-08
4.49662e-08
2.69295e-08
2.77194e-08
4.23389e-08
7.25053e-08
1.12188e-07
1.52123e-07
2.04311e-07
2.73954e-07
3.4965e-07
4.01446e-07
4.12566e-07
4.45676e-07
4.04047e-07
3.57928e-07
2.88627e-07
2.12366e-07
1.58031e-07
1.15991e-07
7.91491e-08
5.18245e-08
4.00484e-08
4.26499e-08
5.49094e-08
7.9916e-08
1.13315e-07
1.54588e-07
2.12742e-07
3.00187e-07
3.75661e-07
4.2149e-07
4.65043e-07
4.95626e-07
4.41087e-07
4.08245e-07
3.52037e-07
2.72445e-07
2.02757e-07
1.54808e-07
1.16428e-07
9.12541e-08
8.51949e-08
9.12645e-08
1.04541e-07
1.32479e-07
1.70793e-07
2.18112e-07
2.88443e-07
3.70296e-07
4.29177e-07
4.61053e-07
5.12451e-07
5.45124e-07
4.89675e-07
4.69372e-07
4.37647e-07
3.8314e-07
3.05329e-07
2.52529e-07
2.12507e-07
1.88029e-07
1.78102e-07
1.84433e-07
1.99813e-07
2.28038e-07
2.70563e-07
3.26542e-07
4.01244e-07
4.54617e-07
4.87854e-07
5.08908e-07
5.61982e-07
5.9968e-07
5.44211e-07
5.26487e-07
5.08466e-07
4.92035e-07
4.53087e-07
3.80509e-07
3.16895e-07
2.82085e-07
2.63825e-07
2.69737e-07
2.92194e-07
3.37416e-07
4.02572e-07
4.71353e-07
5.08412e-07
5.23428e-07
5.41446e-07
5.61776e-07
6.16756e-07
6.61453e-07
6.24106e-07
6.13903e-07
6.06378e-07
6.2204e-07
6.32298e-07
6.2241e-07
5.91715e-07
5.34922e-07
4.66881e-07
4.78474e-07
5.48492e-07
6.02725e-07
6.34748e-07
6.47268e-07
6.38498e-07
6.21874e-07
6.28624e-07
6.41507e-07
6.7951e-07
7.43635e-07
7.93826e-07
8.45088e-07
8.83433e-07
9.26759e-07
9.6493e-07
9.89078e-07
9.79987e-07
9.13799e-07
7.85747e-07
8.00562e-07
9.27077e-07
9.9971e-07
1.01522e-06
9.93799e-07
9.53416e-07
9.06056e-07
8.65448e-07
8.14198e-07
7.63506e-07
8.51468e-07
1.07563e-06
1.28831e-06
1.47424e-06
1.64482e-06
1.79704e-06
1.91946e-06
1.99461e-06
1.99379e-06
1.89548e-06
1.92599e-06
2.02457e-06
2.03204e-06
1.96286e-06
1.84145e-06
1.68681e-06
1.51198e-06
1.32079e-06
1.10282e-06
8.74723e-07
3.78928e-08
4.68592e-08
5.224e-08
5.98893e-08
6.64339e-08
6.00968e-08
3.9117e-08
2.45743e-08
1.99218e-08
1.92629e-08
1.99759e-08
2.18739e-08
2.78338e-08
4.03241e-08
5.67139e-08
5.55116e-08
4.67688e-08
4.68361e-08
5.12892e-08
3.92619e-08
2.1579e-07
2.81032e-07
2.48769e-07
2.12632e-07
1.81537e-07
1.32001e-07
7.25924e-08
4.36756e-08
2.96917e-08
2.31836e-08
2.36969e-08
2.9795e-08
4.44571e-08
7.66022e-08
1.46647e-07
2.17508e-07
2.69362e-07
3.22895e-07
3.63523e-07
2.84819e-07
3.35321e-07
3.71385e-07
3.3897e-07
2.76584e-07
2.20427e-07
1.77268e-07
1.38548e-07
9.29375e-08
5.57757e-08
3.40803e-08
3.38569e-08
5.21771e-08
8.37102e-08
1.22298e-07
1.57605e-07
2.00627e-07
2.53918e-07
3.15125e-07
3.52512e-07
3.43743e-07
3.86839e-07
3.57928e-07
3.10827e-07
2.51015e-07
1.95707e-07
1.55933e-07
1.22738e-07
9.04032e-08
6.44551e-08
4.53763e-08
4.7462e-08
6.57329e-08
8.82276e-08
1.16516e-07
1.50471e-07
1.96855e-07
2.65304e-07
3.33584e-07
3.8044e-07
3.98276e-07
4.55098e-07
4.08245e-07
3.48545e-07
2.84807e-07
2.16427e-07
1.64027e-07
1.2685e-07
9.46235e-08
6.90456e-08
5.5227e-08
5.95596e-08
7.64206e-08
1.02505e-07
1.339e-07
1.71869e-07
2.2812e-07
3.0342e-07
3.71969e-07
4.32227e-07
4.6995e-07
5.41339e-07
4.69372e-07
3.97426e-07
3.31046e-07
2.6378e-07
1.98997e-07
1.5511e-07
1.21324e-07
9.73554e-08
8.60019e-08
8.98423e-08
1.05165e-07
1.32068e-07
1.67672e-07
2.12625e-07
2.77011e-07
3.46688e-07
4.16061e-07
4.89207e-07
5.58831e-07
6.34809e-07
5.26487e-07
4.44804e-07
3.60577e-07
2.98926e-07
2.44464e-07
1.96594e-07
1.59345e-07
1.35021e-07
1.21997e-07
1.25477e-07
1.41793e-07
1.71006e-07
2.11182e-07
2.58583e-07
3.10777e-07
3.72489e-07
4.59253e-07
5.42911e-07
6.53509e-07
7.35537e-07
6.13903e-07
5.43366e-07
4.30358e-07
3.4695e-07
3.19648e-07
2.91461e-07
2.62549e-07
2.30629e-07
1.98546e-07
2.01302e-07
2.36408e-07
2.72447e-07
3.04879e-07
3.33744e-07
3.58844e-07
4.43984e-07
5.59048e-07
6.31553e-07
7.56256e-07
8.60555e-07
8.45088e-07
9.03555e-07
9.60036e-07
1.0003e-06
1.02059e-06
1.0655e-06
1.06585e-06
9.59594e-07
7.58079e-07
7.72849e-07
9.82719e-07
1.10447e-06
1.11553e-06
1.07649e-06
1.04656e-06
9.92902e-07
9.30913e-07
8.70156e-07
8.84615e-07
1.02029e-06
1.28831e-06
1.53988e-06
1.76754e-06
1.98859e-06
2.19962e-06
2.38272e-06
2.50787e-06
2.52619e-06
2.40011e-06
2.44082e-06
2.56817e-06
2.55914e-06
2.44257e-06
2.26022e-06
2.04539e-06
1.81835e-06
1.58346e-06
1.32467e-06
1.05056e-06
2.80745e-08
4.46249e-08
5.98893e-08
7.24673e-08
7.76686e-08
6.64874e-08
4.5133e-08
3.04098e-08
2.37216e-08
2.31407e-08
2.45379e-08
2.7105e-08
3.3768e-08
4.58224e-08
6.36993e-08
7.00704e-08
5.85438e-08
4.78119e-08
4.00441e-08
2.40819e-08
1.55712e-07
2.14321e-07
2.12632e-07
1.98158e-07
1.69236e-07
1.19568e-07
7.19329e-08
4.76771e-08
3.41918e-08
2.88375e-08
2.9151e-08
3.42047e-08
4.70487e-08
7.13834e-08
1.25151e-07
1.94291e-07
2.42918e-07
2.69032e-07
2.73042e-07
2.0698e-07
2.71697e-07
2.95128e-07
2.76584e-07
2.40279e-07
2.05634e-07
1.74195e-07
1.36944e-07
9.1848e-08
5.70036e-08
3.8973e-08
3.8147e-08
5.31848e-08
8.15301e-08
1.19613e-07
1.52329e-07
1.83338e-07
2.18038e-07
2.52552e-07
2.72718e-07
2.63722e-07
3.07634e-07
2.88627e-07
2.51015e-07
2.11643e-07
1.77103e-07
1.49227e-07
1.22257e-07
9.41575e-08
6.93901e-08
4.93328e-08
4.94429e-08
6.99141e-08
9.19937e-08
1.15182e-07
1.41468e-07
1.73798e-07
2.17071e-07
2.64928e-07
3.02388e-07
3.07677e-07
3.95064e-07
3.52037e-07
2.84807e-07
2.28193e-07
1.8046e-07
1.44882e-07
1.17328e-07
9.16213e-08
6.87966e-08
5.08426e-08
5.35897e-08
7.35051e-08
9.5611e-08
1.19636e-07
1.47782e-07
1.87122e-07
2.41239e-07
3.03146e-07
3.72325e-07
4.09475e-07
5.22367e-07
4.37647e-07
3.31046e-07
2.59215e-07
2.025e-07
1.57247e-07
1.24555e-07
9.71684e-08
7.38737e-08
5.74462e-08
6.0279e-08
7.93907e-08
1.0445e-07
1.32401e-07
1.65455e-07
2.11364e-07
2.70631e-07
3.45941e-07
4.55419e-07
5.40769e-07
6.54368e-07
5.08466e-07
3.60577e-07
2.74542e-07
2.18945e-07
1.77131e-07
1.44647e-07
1.17921e-07
9.6016e-08
8.11098e-08
8.36786e-08
1.0203e-07
1.27167e-07
1.55179e-07
1.86786e-07
2.26665e-07
2.81886e-07
3.70809e-07
5.22486e-07
6.74848e-07
7.91056e-07
6.06378e-07
4.30358e-07
3.28991e-07
2.99137e-07
2.87573e-07
2.80303e-07
2.6863e-07
2.40253e-07
1.98353e-07
2.01747e-07
2.508e-07
2.8466e-07
2.97513e-07
3.01819e-07
3.07591e-07
3.34152e-07
4.44178e-07
6.2289e-07
8.14586e-07
9.54799e-07
8.83433e-07
9.60036e-07
1.04471e-06
1.19927e-06
1.37809e-06
1.54804e-06
1.62961e-06
1.52536e-06
1.25248e-06
1.26141e-06
1.56631e-06
1.70032e-06
1.6271e-06
1.45174e-06
1.25247e-06
1.08414e-06
9.95716e-07
9.13518e-07
9.83173e-07
1.15904e-06
1.47424e-06
1.76754e-06
2.04157e-06
2.32799e-06
2.6193e-06
2.88939e-06
3.08911e-06
3.15516e-06
3.0434e-06
3.09012e-06
3.20487e-06
3.15154e-06
2.96255e-06
2.69548e-06
2.39958e-06
2.10626e-06
1.82338e-06
1.52064e-06
1.19642e-06
2.31493e-08
4.79172e-08
6.64339e-08
7.76686e-08
7.70962e-08
6.37501e-08
4.72556e-08
3.4966e-08
2.80223e-08
2.7618e-08
2.95641e-08
3.17812e-08
3.77036e-08
4.73966e-08
6.08978e-08
7.35523e-08
7.14175e-08
5.6379e-08
3.90649e-08
1.95666e-08
1.10837e-07
1.71216e-07
1.81537e-07
1.69236e-07
1.37287e-07
9.63198e-08
6.58109e-08
4.7272e-08
3.62382e-08
3.46639e-08
3.50893e-08
3.64195e-08
4.57054e-08
6.24649e-08
9.28686e-08
1.45085e-07
1.94827e-07
2.1949e-07
2.10673e-07
1.42825e-07
2.01848e-07
2.21073e-07
2.20427e-07
2.05634e-07
1.86147e-07
1.60609e-07
1.22605e-07
8.17748e-08
5.35024e-08
4.17443e-08
4.13544e-08
5.03806e-08
7.18114e-08
1.04818e-07
1.37838e-07
1.61234e-07
1.81638e-07
1.97793e-07
2.00275e-07
1.87412e-07
2.27173e-07
2.12366e-07
1.95707e-07
1.77103e-07
1.57812e-07
1.37989e-07
1.15396e-07
9.12592e-08
6.80235e-08
5.12398e-08
5.10177e-08
6.74114e-08
8.87609e-08
1.08628e-07
1.2804e-07
1.48845e-07
1.7162e-07
1.9338e-07
2.09295e-07
2.20954e-07
3.31931e-07
2.72445e-07
2.16427e-07
1.8046e-07
1.52331e-07
1.29478e-07
1.0905e-07
8.89026e-08
7.03937e-08
5.62524e-08
5.81294e-08
7.44006e-08
9.14015e-08
1.08863e-07
1.28415e-07
1.52802e-07
1.83978e-07
2.23207e-07
2.84937e-07
3.4817e-07
4.96775e-07
3.8314e-07
2.6378e-07
2.025e-07
1.63031e-07
1.33483e-07
1.10092e-07
8.93082e-08
7.08705e-08
5.77741e-08
5.98703e-08
7.50227e-08
9.39913e-08
1.14196e-07
1.37147e-07
1.66945e-07
2.07894e-07
2.72485e-07
3.99378e-07
5.17022e-07
6.63111e-07
4.92035e-07
2.98926e-07
2.18945e-07
1.77398e-07
1.49269e-07
1.27409e-07
1.08971e-07
9.34979e-08
8.56358e-08
8.80094e-08
9.88818e-08
1.16046e-07
1.34251e-07
1.54642e-07
1.81089e-07
2.22463e-07
3.05571e-07
5.06285e-07
6.85691e-07
8.32027e-07
6.2204e-07
3.4695e-07
2.99137e-07
2.98873e-07
3.08348e-07
3.20277e-07
3.23968e-07
3.00668e-07
2.54926e-07
2.58033e-07
3.12755e-07
3.43015e-07
3.39305e-07
3.21894e-07
3.0524e-07
3.00524e-07
3.49183e-07
6.40001e-07
8.58349e-07
1.0297e-06
9.26759e-07
1.0003e-06
1.19927e-06
1.54808e-06
1.89192e-06
2.19141e-06
2.34534e-06
2.19243e-06
1.75874e-06
1.7576e-06
2.23912e-06
2.45283e-06
2.31922e-06
1.9991e-06
1.6293e-06
1.25383e-06
1.05958e-06
9.64583e-07
1.06292e-06
1.27604e-06
1.64482e-06
1.98859e-06
2.32799e-06
2.71438e-06
3.11051e-06
3.48315e-06
3.77512e-06
3.9083e-06
3.82849e-06
3.8871e-06
3.96409e-06
3.84497e-06
3.56707e-06
3.19901e-06
2.79968e-06
2.40621e-06
2.05743e-06
1.70153e-06
1.32007e-06
1.90132e-08
4.34655e-08
6.00968e-08
6.64874e-08
6.37501e-08
5.5846e-08
4.65213e-08
3.81649e-08
3.26264e-08
3.31341e-08
3.54664e-08
3.63552e-08
4.03298e-08
4.65588e-08
5.38627e-08
6.09794e-08
6.42742e-08
5.76405e-08
4.10581e-08
1.66146e-08
5.85981e-08
1.21663e-07
1.32001e-07
1.19568e-07
9.63198e-08
7.51375e-08
5.81733e-08
4.52012e-08
3.80725e-08
4.08872e-08
4.17717e-08
3.84799e-08
4.33698e-08
5.38297e-08
6.83941e-08
9.03562e-08
1.20344e-07
1.41306e-07
1.33282e-07
6.68846e-08
1.42169e-07
1.67723e-07
1.77268e-07
1.74195e-07
1.60609e-07
1.34191e-07
9.9919e-08
6.8823e-08
4.95402e-08
4.40697e-08
4.48869e-08
4.77108e-08
6.09881e-08
8.36242e-08
1.12043e-07
1.35885e-07
1.48862e-07
1.52685e-07
1.45665e-07
1.25656e-07
1.58252e-07
1.58031e-07
1.55933e-07
1.49227e-07
1.37989e-07
1.22496e-07
1.03827e-07
8.30482e-08
6.30971e-08
5.22659e-08
5.32004e-08
6.20447e-08
7.92224e-08
9.7251e-08
1.12248e-07
1.25802e-07
1.3735e-07
1.44901e-07
1.48403e-07
1.54676e-07
2.76578e-07
2.02757e-07
1.64027e-07
1.44882e-07
1.29478e-07
1.14393e-07
9.89306e-08
8.34068e-08
6.962e-08
6.14127e-08
6.39957e-08
7.34347e-08
8.54315e-08
9.76208e-08
1.10958e-07
1.25762e-07
1.42448e-07
1.64642e-07
2.11264e-07
2.97468e-07
4.67833e-07
3.05329e-07
1.98997e-07
1.57247e-07
1.33483e-07
1.14775e-07
9.8244e-08
8.32757e-08
7.11482e-08
6.73746e-08
7.06468e-08
7.50369e-08
8.6239e-08
9.97414e-08
1.15172e-07
1.33747e-07
1.58882e-07
2.04849e-07
3.21984e-07
4.90569e-07
6.60494e-07
4.53087e-07
2.44464e-07
1.77131e-07
1.49269e-07
1.31803e-07
1.17938e-07
1.0683e-07
9.98154e-08
1.0728e-07
1.11412e-07
1.05218e-07
1.12227e-07
1.21988e-07
1.3403e-07
1.50256e-07
1.78711e-07
2.50003e-07
4.67339e-07
6.84868e-07
8.5637e-07
6.32298e-07
3.19648e-07
2.87573e-07
3.08348e-07
3.40814e-07
3.72933e-07
3.89372e-07
3.62135e-07
3.06004e-07
3.07389e-07
3.71575e-07
4.09771e-07
3.95115e-07
3.57149e-07
3.17626e-07
2.91366e-07
3.21317e-07
6.49187e-07
8.84665e-07
1.08302e-06
9.6493e-07
1.02059e-06
1.37809e-06
1.89192e-06
2.41928e-06
2.86322e-06
3.08516e-06
2.79886e-06
2.09536e-06
2.06556e-06
2.78766e-06
3.19269e-06
3.02465e-06
2.56594e-06
2.0196e-06
1.46713e-06
1.09996e-06
1.01e-06
1.12053e-06
1.37086e-06
1.79704e-06
2.19962e-06
2.6193e-06
3.11051e-06
3.62276e-06
4.11592e-06
4.52489e-06
4.75837e-06
4.75847e-06
4.84161e-06
4.81791e-06
4.59317e-06
4.20156e-06
3.71772e-06
3.20707e-06
2.71046e-06
2.28048e-06
1.86272e-06
1.41996e-06
1.33768e-08
2.77848e-08
3.9117e-08
4.5133e-08
4.72556e-08
4.65213e-08
4.3769e-08
4.0173e-08
3.76479e-08
4.08919e-08
4.37378e-08
4.14406e-08
4.21852e-08
4.43193e-08
4.61698e-08
4.66738e-08
4.45596e-08
3.794e-08
2.58204e-08
1.16234e-08
2.49969e-08
5.84611e-08
7.25924e-08
7.19329e-08
6.58109e-08
5.81733e-08
4.99414e-08
4.30112e-08
4.17535e-08
5.54125e-08
5.72278e-08
4.28083e-08
4.16432e-08
4.6375e-08
5.27009e-08
5.92664e-08
6.52704e-08
6.72285e-08
5.52194e-08
2.23528e-08
9.41476e-08
1.25114e-07
1.38548e-07
1.36944e-07
1.22605e-07
9.9919e-08
7.62083e-08
5.77536e-08
4.8429e-08
5.63707e-08
5.99747e-08
4.85536e-08
5.26612e-08
6.46675e-08
8.13674e-08
9.9984e-08
1.13203e-07
1.15252e-07
1.04465e-07
7.93347e-08
1.05924e-07
1.15991e-07
1.22738e-07
1.22257e-07
1.15396e-07
1.03827e-07
8.88248e-08
7.1811e-08
5.93358e-08
6.8058e-08
7.4327e-08
6.0107e-08
6.74849e-08
8.15592e-08
9.46375e-08
1.04032e-07
1.09305e-07
1.09708e-07
1.06226e-07
1.0891e-07
2.32901e-07
1.54808e-07
1.2685e-07
1.17328e-07
1.0905e-07
9.89306e-08
8.74595e-08
7.61652e-08
6.90444e-08
8.64701e-08
9.69785e-08
7.37095e-08
7.77462e-08
8.6186e-08
9.52058e-08
1.04325e-07
1.13309e-07
1.26247e-07
1.63741e-07
2.58624e-07
4.39285e-07
2.52529e-07
1.5511e-07
1.24555e-07
1.10092e-07
9.8244e-08
8.68693e-08
7.69206e-08
7.3472e-08
1.06172e-07
1.20378e-07
7.92261e-08
7.89947e-08
8.69243e-08
9.69996e-08
1.08659e-07
1.24526e-07
1.58769e-07
2.63799e-07
4.63527e-07
6.4731e-07
3.80509e-07
1.96594e-07
1.44647e-07
1.27409e-07
1.17938e-07
1.10696e-07
1.06138e-07
1.10221e-07
1.66736e-07
1.84205e-07
1.18069e-07
1.10778e-07
1.13312e-07
1.18679e-07
1.27275e-07
1.45545e-07
2.01989e-07
4.00333e-07
6.72328e-07
8.62663e-07
6.2241e-07
2.91461e-07
2.80303e-07
3.20277e-07
3.72933e-07
4.23489e-07
4.44055e-07
3.97009e-07
3.5938e-07
3.68857e-07
3.98163e-07
4.5687e-07
4.45889e-07
3.93454e-07
3.35041e-07
2.88769e-07
2.9328e-07
6.38497e-07
8.91199e-07
1.1128e-06
9.89078e-07
1.0655e-06
1.54804e-06
2.19141e-06
2.86322e-06
3.47828e-06
3.73001e-06
3.11867e-06
2.41254e-06
2.4171e-06
2.96993e-06
3.70412e-06
3.60907e-06
3.02983e-06
2.35204e-06
1.66363e-06
1.14776e-06
1.03657e-06
1.152e-06
1.43923e-06
1.91946e-06
2.38272e-06
2.88939e-06
3.48315e-06
4.11592e-06
4.74947e-06
5.31419e-06
5.72927e-06
5.99008e-06
6.13258e-06
5.80328e-06
5.37075e-06
4.82172e-06
4.20386e-06
3.579e-06
2.98351e-06
2.47014e-06
1.98898e-06
1.48969e-06
1.1091e-08
1.86315e-08
2.45743e-08
3.04098e-08
3.4966e-08
3.81649e-08
4.0173e-08
4.1503e-08
4.34066e-08
5.06074e-08
5.43842e-08
4.75783e-08
4.39205e-08
4.17167e-08
3.95627e-08
3.66282e-08
3.236e-08
2.61854e-08
1.81416e-08
9.64411e-09
2.1912e-08
3.3271e-08
4.36756e-08
4.76771e-08
4.7272e-08
4.52012e-08
4.30112e-08
4.3134e-08
5.1036e-08
8.27974e-08
8.74819e-08
5.30259e-08
4.26578e-08
4.11008e-08
4.21868e-08
4.3343e-08
4.31184e-08
3.94714e-08
3.01066e-08
1.89422e-08
5.03333e-08
7.99529e-08
9.29375e-08
9.1848e-08
8.17748e-08
6.8823e-08
5.77536e-08
5.16116e-08
5.90649e-08
1.56585e-07
1.67103e-07
6.19917e-08
4.91722e-08
5.1427e-08
5.79782e-08
6.60608e-08
7.2729e-08
7.30488e-08
6.21518e-08
3.36815e-08
6.53236e-08
7.91491e-08
9.04032e-08
9.41575e-08
9.12592e-08
8.30482e-08
7.1811e-08
6.27377e-08
7.64774e-08
2.90624e-07
3.18419e-07
8.2877e-08
6.01923e-08
6.53165e-08
7.46313e-08
8.24035e-08
8.5294e-08
8.19542e-08
7.43583e-08
7.45277e-08
1.99085e-07
1.16428e-07
9.46235e-08
9.16213e-08
8.89026e-08
8.34068e-08
7.61652e-08
7.1279e-08
1.00854e-07
5.00987e-07
5.64307e-07
1.13847e-07
7.26488e-08
7.53492e-08
8.13497e-08
8.63014e-08
9.00136e-08
9.66094e-08
1.27819e-07
2.28518e-07
4.11397e-07
2.12507e-07
1.21324e-07
9.71684e-08
8.93082e-08
8.32757e-08
7.69206e-08
7.4531e-08
1.2304e-07
7.34556e-07
8.29822e-07
1.41689e-07
7.72573e-08
7.66179e-08
8.18139e-08
8.78151e-08
9.71036e-08
1.24632e-07
2.23325e-07
4.35695e-07
6.25039e-07
3.16895e-07
1.59345e-07
1.17921e-07
1.08971e-07
1.0683e-07
1.06138e-07
1.11186e-07
1.84835e-07
9.68781e-07
1.08423e-06
2.09069e-07
1.17042e-07
1.08603e-07
1.07519e-07
1.08719e-07
1.18275e-07
1.63392e-07
3.36671e-07
6.48918e-07
8.48911e-07
5.91715e-07
2.62549e-07
2.6863e-07
3.23968e-07
3.89372e-07
4.44055e-07
4.46857e-07
4.28137e-07
1.04686e-06
1.15199e-06
4.40334e-07
4.44532e-07
4.55149e-07
4.0799e-07
3.40563e-07
2.79243e-07
2.6397e-07
6.08566e-07
8.75446e-07
1.11326e-06
9.79987e-07
1.06585e-06
1.62961e-06
2.34534e-06
3.08516e-06
3.73001e-06
3.71459e-06
3.02647e-06
4.04922e-06
4.08711e-06
2.99374e-06
3.48611e-06
3.68953e-06
3.19473e-06
2.48653e-06
1.7458e-06
1.14452e-06
1.02246e-06
1.14937e-06
1.47388e-06
1.99461e-06
2.50787e-06
3.08911e-06
3.77512e-06
4.52489e-06
5.31419e-06
6.10404e-06
6.92712e-06
7.94498e-06
8.18359e-06
7.06416e-06
6.16158e-06
5.36161e-06
4.58826e-06
3.85197e-06
3.17015e-06
2.58477e-06
2.05672e-06
1.51955e-06
1.01088e-08
1.58687e-08
1.99218e-08
2.37216e-08
2.80223e-08
3.26264e-08
3.76479e-08
4.34066e-08
4.93642e-08
6.04616e-08
6.47354e-08
5.40154e-08
4.64959e-08
4.01932e-08
3.51981e-08
3.06963e-08
2.61066e-08
2.09042e-08
1.53418e-08
9.08858e-09
2.01965e-08
2.3483e-08
2.96917e-08
3.41918e-08
3.62382e-08
3.80725e-08
4.17535e-08
5.1036e-08
7.84584e-08
5.43727e-07
5.61117e-07
8.22247e-08
5.13078e-08
4.12112e-08
3.73046e-08
3.52113e-08
3.2789e-08
2.80276e-08
2.08329e-08
1.83115e-08
2.4948e-08
4.49662e-08
5.57757e-08
5.70036e-08
5.35024e-08
4.95402e-08
4.8429e-08
5.90649e-08
1.9679e-07
2.2949e-06
2.29836e-06
1.98795e-07
5.93539e-08
4.62405e-08
4.54614e-08
4.69946e-08
4.76762e-08
4.42708e-08
3.32465e-08
2.39631e-08
3.73496e-08
5.18245e-08
6.44551e-08
6.93901e-08
6.80235e-08
6.30971e-08
5.93358e-08
7.64774e-08
4.06572e-07
4.59529e-06
4.56175e-06
4.18834e-07
7.83161e-08
5.63893e-08
5.79079e-08
6.17436e-08
6.35045e-08
6.00047e-08
5.06004e-08
5.05523e-08
1.75282e-07
9.12541e-08
6.90456e-08
6.87966e-08
7.03937e-08
6.962e-08
6.90444e-08
1.00854e-07
7.32656e-07
7.56336e-06
7.49777e-06
7.76748e-07
1.07076e-07
6.89766e-08
6.90742e-08
7.01445e-08
6.95449e-08
7.33226e-08
1.05285e-07
2.07339e-07
3.84871e-07
1.88029e-07
9.73554e-08
7.38737e-08
7.08705e-08
7.11482e-08
7.3472e-08
1.2304e-07
1.09819e-06
1.05273e-05
1.04113e-05
1.16411e-06
1.34496e-07
7.50247e-08
7.08604e-08
6.98756e-08
7.35481e-08
1.00503e-07
1.99152e-07
4.08165e-07
5.93951e-07
2.82085e-07
1.35021e-07
9.6016e-08
9.34979e-08
9.98154e-08
1.10221e-07
1.84835e-07
1.45149e-06
1.23059e-05
1.21645e-05
1.52965e-06
2.02861e-07
1.16055e-07
1.02667e-07
9.41388e-08
9.58354e-08
1.37404e-07
2.89883e-07
6.15403e-07
8.12629e-07
5.34923e-07
2.30629e-07
2.40253e-07
3.00668e-07
3.62135e-07
3.97009e-07
4.28137e-07
1.50273e-06
1.14726e-05
1.14882e-05
1.58255e-06
4.36169e-07
3.97367e-07
3.70412e-07
3.11375e-07
2.4736e-07
2.30758e-07
5.56748e-07
8.35875e-07
1.07534e-06
9.13799e-07
9.59594e-07
1.52536e-06
2.19243e-06
2.79886e-06
3.11867e-06
3.02647e-06
4.30949e-06
9.64267e-06
9.63226e-06
4.36579e-06
2.96663e-06
2.96598e-06
2.77338e-06
2.24951e-06
1.59977e-06
1.01986e-06
9.45846e-07
1.1052e-06
1.4608e-06
1.99379e-06
2.52619e-06
3.15516e-06
3.9083e-06
4.75837e-06
5.72927e-06
6.92712e-06
8.63493e-06
1.09093e-05
1.12764e-05
8.8407e-06
7.02733e-06
5.76992e-06
4.79198e-06
3.95293e-06
3.21002e-06
2.5847e-06
2.04315e-06
1.49876e-06
9.8525e-09
1.53577e-08
1.92629e-08
2.31407e-08
2.7618e-08
3.31341e-08
4.08919e-08
5.06074e-08
6.04616e-08
6.93556e-08
7.3309e-08
6.37488e-08
5.31175e-08
4.27322e-08
3.48868e-08
2.92526e-08
2.43492e-08
1.96368e-08
1.51734e-08
9.11375e-09
2.06478e-08
1.89169e-08
2.31836e-08
2.88375e-08
3.46639e-08
4.08872e-08
5.54125e-08
8.27974e-08
5.43727e-07
8.14564e-07
8.22614e-07
5.212e-07
8.13662e-08
5.39423e-08
4.00667e-08
3.41552e-08
2.89459e-08
2.29535e-08
1.83137e-08
1.9397e-08
2.85761e-08
2.69295e-08
3.40803e-08
3.8973e-08
4.17443e-08
4.40696e-08
5.63707e-08
1.56585e-07
2.2949e-06
1.85272e-06
1.88089e-06
2.19061e-06
1.52245e-07
5.7014e-08
4.38498e-08
4.05547e-08
3.65178e-08
3.08812e-08
2.46051e-08
2.70479e-08
3.46877e-08
4.00484e-08
4.53763e-08
4.93328e-08
5.12398e-08
5.22659e-08
6.8058e-08
2.90624e-07
4.59529e-06
3.23381e-06
3.31247e-06
4.36346e-06
2.87375e-07
7.07951e-08
5.2446e-08
4.96851e-08
4.59526e-08
4.25098e-08
4.05251e-08
4.42179e-08
1.6292e-07
8.51949e-08
5.5227e-08
5.08426e-08
5.62524e-08
6.14127e-08
8.64701e-08
5.00987e-07
7.56336e-06
4.99547e-06
5.16116e-06
7.19148e-06
5.1374e-07
9.26523e-08
6.34488e-08
5.69029e-08
5.03002e-08
5.92764e-08
9.97995e-08
1.93072e-07
3.61972e-07
1.78102e-07
8.60019e-08
5.74462e-08
5.77741e-08
6.73746e-08
1.06172e-07
7.34556e-07
1.05273e-05
7.0426e-06
7.31491e-06
9.94386e-06
7.55132e-07
1.16851e-07
7.029e-08
5.74554e-08
5.70331e-08
9.0939e-08
1.88486e-07
3.8294e-07
5.57132e-07
2.63825e-07
1.21997e-07
8.11098e-08
8.56358e-08
1.0728e-07
1.66736e-07
9.68781e-07
1.23059e-05
9.03232e-06
9.40334e-06
1.15291e-05
9.92569e-07
1.84955e-07
1.14753e-07
8.77457e-08
8.15003e-08
1.25836e-07
2.69716e-07
5.75944e-07
7.57818e-07
4.66881e-07
1.98546e-07
1.98353e-07
2.54926e-07
3.06004e-07
3.5938e-07
1.04686e-06
1.14726e-05
1.02488e-05
1.06781e-05
1.08067e-05
1.07707e-06
3.72325e-07
3.0859e-07
2.56849e-07
1.99445e-07
1.97657e-07
4.84714e-07
7.77264e-07
9.97616e-07
7.85747e-07
7.58079e-07
1.25248e-06
1.75874e-06
2.09536e-06
2.41254e-06
4.04922e-06
9.64267e-06
1.05507e-05
1.09844e-05
9.22504e-06
3.99182e-06
2.38495e-06
2.02481e-06
1.73209e-06
1.27097e-06
7.95389e-07
8.08057e-07
1.0216e-06
1.38485e-06
1.89548e-06
2.40011e-06
3.0434e-06
3.82849e-06
4.75847e-06
5.99008e-06
7.94498e-06
1.09093e-05
1.17575e-05
1.24035e-05
1.10554e-05
8.0446e-06
6.04134e-06
4.77257e-06
3.84047e-06
3.06863e-06
2.43868e-06
1.93156e-06
1.41488e-06
9.63021e-09
1.54433e-08
1.99759e-08
2.45379e-08
2.95641e-08
3.54664e-08
4.37378e-08
5.43842e-08
6.47354e-08
7.3309e-08
7.40387e-08
6.54215e-08
5.58564e-08
4.44264e-08
3.58128e-08
2.98524e-08
2.47049e-08
1.99636e-08
1.54768e-08
9.27166e-09
2.075e-08
1.91316e-08
2.36969e-08
2.9151e-08
3.50893e-08
4.17717e-08
5.72278e-08
8.74819e-08
5.61117e-07
8.22613e-07
8.61879e-07
5.68031e-07
9.13259e-08
5.78472e-08
4.12143e-08
3.42164e-08
2.81968e-08
2.23909e-08
1.82319e-08
1.96963e-08
2.90549e-08
2.77194e-08
3.38569e-08
3.8147e-08
4.13544e-08
4.48869e-08
5.99747e-08
1.67103e-07
2.29836e-06
1.88089e-06
1.97406e-06
2.23494e-06
1.65654e-07
6.04989e-08
4.4716e-08
4.0706e-08
3.64489e-08
3.13271e-08
2.52423e-08
2.75781e-08
3.62186e-08
4.26499e-08
4.7462e-08
4.94429e-08
5.10177e-08
5.32004e-08
7.4327e-08
3.18419e-07
4.56174e-06
3.31247e-06
3.4608e-06
4.29591e-06
3.04536e-07
7.41231e-08
5.36361e-08
5.1204e-08
4.87427e-08
4.61803e-08
4.29582e-08
4.24961e-08
1.75133e-07
9.12644e-08
5.95596e-08
5.35897e-08
5.81294e-08
6.39957e-08
9.69785e-08
5.64307e-07
7.49777e-06
5.16116e-06
5.36332e-06
6.92103e-06
5.2404e-07
9.53402e-08
6.43908e-08
5.86214e-08
5.42826e-08
6.27871e-08
1.01321e-07
1.95415e-07
3.7188e-07
1.84433e-07
8.98423e-08
6.0279e-08
5.98703e-08
7.06468e-08
1.20378e-07
8.29821e-07
1.04113e-05
7.31491e-06
7.56741e-06
9.50132e-06
7.58952e-07
1.15765e-07
6.92362e-08
5.91178e-08
6.07001e-08
9.30121e-08
1.9072e-07
3.85622e-07
5.66476e-07
2.69737e-07
1.25477e-07
8.36786e-08
8.80094e-08
1.11412e-07
1.84205e-07
1.08423e-06
1.21645e-05
9.40334e-06
9.69942e-06
1.10096e-05
9.82931e-07
1.73902e-07
1.06877e-07
8.5602e-08
8.34049e-08
1.2758e-07
2.73117e-07
5.78507e-07
7.68419e-07
4.78474e-07
2.01302e-07
2.01747e-07
2.58033e-07
3.07389e-07
3.68857e-07
1.15199e-06
1.14882e-05
1.06781e-05
1.10023e-05
1.04357e-05
1.07362e-06
3.61202e-07
3.00831e-07
2.54829e-07
2.02274e-07
1.99488e-07
4.90367e-07
7.79444e-07
1.01159e-06
8.00562e-07
7.72849e-07
1.26141e-06
1.7576e-06
2.06556e-06
2.4171e-06
4.08711e-06
9.63226e-06
1.09844e-05
1.12715e-05
8.98625e-06
3.9272e-06
2.36889e-06
2.01861e-06
1.73514e-06
1.27725e-06
7.98037e-07
8.12159e-07
1.02245e-06
1.40518e-06
1.92599e-06
2.44082e-06
3.09012e-06
3.8871e-06
4.84161e-06
6.13258e-06
8.18359e-06
1.12764e-05
1.24035e-05
1.27743e-05
1.11128e-05
8.06407e-06
6.04866e-06
4.7738e-06
3.84009e-06
3.06851e-06
2.43844e-06
1.92928e-06
1.41236e-06
9.34456e-09
1.59055e-08
2.18739e-08
2.7105e-08
3.17812e-08
3.63552e-08
4.14406e-08
4.75783e-08
5.40154e-08
6.37488e-08
6.54215e-08
5.50946e-08
4.62771e-08
3.89902e-08
3.37376e-08
2.93939e-08
2.52006e-08
2.053e-08
1.55679e-08
9.27491e-09
1.95177e-08
2.27963e-08
2.9795e-08
3.42047e-08
3.64195e-08
3.84799e-08
4.28083e-08
5.30259e-08
8.22247e-08
5.212e-07
5.68031e-07
8.85846e-08
5.38898e-08
4.06978e-08
3.56533e-08
3.33086e-08
3.10951e-08
2.64972e-08
2.06062e-08
1.8785e-08
2.62831e-08
4.23389e-08
5.21771e-08
5.31848e-08
5.03806e-08
4.77108e-08
4.85536e-08
6.19917e-08
1.98795e-07
2.1906e-06
2.23494e-06
2.01571e-07
6.05048e-08
4.60276e-08
4.53221e-08
4.79057e-08
5.01261e-08
4.84174e-08
3.81176e-08
2.49117e-08
4.89541e-08
5.49094e-08
6.57329e-08
6.99141e-08
6.74113e-08
6.20446e-08
6.0107e-08
8.2877e-08
4.18834e-07
4.36345e-06
4.29591e-06
4.13493e-07
7.91936e-08
5.78153e-08
6.07531e-08
6.61894e-08
6.81361e-08
6.38185e-08
5.41164e-08
5.06645e-08
1.9683e-07
1.04541e-07
7.64206e-08
7.35051e-08
7.44006e-08
7.34347e-08
7.37095e-08
1.13847e-07
7.76748e-07
7.19147e-06
6.92103e-06
7.41418e-07
1.06852e-07
6.98817e-08
7.03861e-08
7.19847e-08
7.26294e-08
7.86066e-08
1.1183e-07
2.1191e-07
3.99371e-07
1.99813e-07
1.05165e-07
7.93907e-08
7.50227e-08
7.50369e-08
7.92261e-08
1.41689e-07
1.16411e-06
9.94386e-06
9.50132e-06
1.10344e-06
1.30924e-07
7.38646e-08
7.12254e-08
7.25579e-08
7.89283e-08
1.07368e-07
2.05604e-07
4.1236e-07
6.05607e-07
2.92194e-07
1.41793e-07
1.0203e-07
9.88818e-08
1.05218e-07
1.18069e-07
2.09069e-07
1.52965e-06
1.15291e-05
1.10096e-05
1.43867e-06
1.90921e-07
1.08735e-07
9.83587e-08
9.41913e-08
1.00186e-07
1.43706e-07
2.98224e-07
6.18628e-07
8.24104e-07
5.48492e-07
2.36408e-07
2.508e-07
3.12755e-07
3.71575e-07
3.98163e-07
4.40334e-07
1.58255e-06
1.08067e-05
1.04357e-05
1.5186e-06
4.21007e-07
3.83107e-07
3.591e-07
3.0529e-07
2.4816e-07
2.35643e-07
5.64557e-07
8.37059e-07
1.08879e-06
9.27077e-07
9.82719e-07
1.56631e-06
2.23912e-06
2.78766e-06
2.96993e-06
2.99374e-06
4.36578e-06
9.22503e-06
8.98625e-06
4.23506e-06
2.91978e-06
2.90541e-06
2.74144e-06
2.22453e-06
1.57961e-06
1.01042e-06
9.43048e-07
1.10124e-06
1.48073e-06
2.02457e-06
2.56817e-06
3.20487e-06
3.96409e-06
4.81791e-06
5.80328e-06
7.06416e-06
8.8407e-06
1.10554e-05
1.11128e-05
8.78418e-06
6.99705e-06
5.74027e-06
4.76296e-06
3.92472e-06
3.18465e-06
2.56394e-06
2.02668e-06
1.48759e-06
9.85633e-09
1.92267e-08
2.78338e-08
3.3768e-08
3.77036e-08
4.03298e-08
4.21852e-08
4.39205e-08
4.64959e-08
5.31175e-08
5.58564e-08
4.62771e-08
4.01509e-08
3.67649e-08
3.42613e-08
3.15604e-08
2.81512e-08
2.34083e-08
1.71117e-08
9.50169e-09
2.15969e-08
3.33735e-08
4.44571e-08
4.70487e-08
4.57054e-08
4.33698e-08
4.16432e-08
4.26578e-08
5.13078e-08
8.13662e-08
9.13259e-08
5.38898e-08
4.00782e-08
3.71734e-08
3.83245e-08
4.03226e-08
4.15348e-08
3.88681e-08
2.83879e-08
1.87285e-08
4.79987e-08
7.25052e-08
8.37102e-08
8.15301e-08
7.18114e-08
6.09881e-08
5.26612e-08
4.91722e-08
5.93539e-08
1.52245e-07
1.65654e-07
6.05048e-08
4.644e-08
4.9413e-08
5.79814e-08
6.88142e-08
7.80582e-08
7.9819e-08
6.77165e-08
3.77727e-08
7.86728e-08
7.9916e-08
8.82276e-08
9.19937e-08
8.87609e-08
7.92224e-08
6.74849e-08