/*--------------------------------*- C++ -*----------------------------------*\
  =========                 |
  \\      /  F ield         | OpenFOAM: The Open Source CFD Toolbox
   \\    /   O peration     | Website:  https://openfoam.org
    \\  /    A nd           | Version:  9
     \\/     M anipulation  |
\*---------------------------------------------------------------------------*/
FoamFile
{
    format      ascii;
    class       volScalarField;
    location    "1450";
    object      nut;
}
// * * * * * * * * * * * * * * * * * * * * * * * * * * * * * * * * * * * * * //

dimensions      [0 2 -1 0 0 0 0];

internalField   nonuniform List<scalar> 
4000
(
0.000227746
0.000190483
0.000159663
0.000144771
0.00013585
0.000127341
0.000112969
0.000106193
0.000103083
0.000102312
0.000101578
0.000100585
0.000102522
0.000108934
0.000131699
0.000130619
0.00014097
0.000174698
0.00021862
0.000248138
0.000319617
0.000311647
0.000292788
0.000262416
0.000232749
0.000187825
0.00013965
0.000133386
0.000129836
0.000130852
0.000131114
0.000128517
0.000133234
0.000139792
0.000212232
0.000257876
0.000288859
0.000316282
0.000334685
0.000345956
0.00036037
0.000351712
0.00033416
0.000311043
0.000281352
0.00025005
0.000217638
0.000176593
0.00013928
0.000145927
0.00014679
0.000141889
0.000174312
0.000215562
0.00024846
0.000279754
0.000310095
0.000336947
0.000357444
0.000367438
0.000372974
0.000367636
0.000350558
0.000324545
0.000292921
0.000259393
0.000226923
0.000193423
0.000160764
0.000156505
0.000159335
0.000176884
0.000206449
0.000233192
0.0002606
0.000292012
0.000325303
0.000353364
0.000372001
0.000377913
0.000380642
0.000380795
0.00037012
0.000353225
0.000333455
0.000313996
0.000296836
0.00028221
0.000270941
0.00026449
0.000270532
0.000280855
0.000292635
0.000305972
0.00032087
0.000338122
0.00035668
0.00037327
0.000384344
0.000384652
0.000386637
0.00039306
0.000392168
0.000387519
0.000381051
0.000373512
0.000365784
0.000357921
0.0003501
0.000343024
0.000346068
0.000354308
0.00036263
0.000370517
0.000377882
0.000384856
0.000390937
0.000395466
0.000396478
0.00039028
0.000392625
0.000405717
0.000413407
0.000417481
0.000419199
0.000418557
0.000415689
0.000410829
0.000403883
0.000395386
0.000397635
0.000406543
0.000413913
0.000419045
0.000421975
0.000422528
0.00042069
0.000416567
0.000408967
0.000396082
0.000399407
0.000419124
0.000434051
0.00044451
0.000451872
0.000456091
0.000457102
0.000454604
0.000448004
0.000437732
0.00043986
0.000450196
0.000457155
0.000460065
0.000459313
0.000455141
0.000447706
0.000437172
0.000422279
0.000402769
0.000408188
0.000435702
0.000457192
0.000473054
0.000484892
0.000492954
0.000497318
0.000497325
0.000491591
0.000479501
0.000481847
0.000493741
0.000500029
0.000500609
0.000496538
0.000488456
0.000476429
0.000460394
0.000438863
0.000411538
0.000420533
0.000455662
0.000483704
0.000504455
0.000520679
0.000533106
0.00054171
0.000545958
0.000544307
0.000534728
0.00053743
0.000546822
0.000548992
0.0005453
0.000536976
0.000524604
0.000508287
0.000487338
0.000459085
0.000423974
0.000190483
0.000183896
0.000172395
0.00016926
0.00017323
0.000168145
0.000144432
0.00012633
0.000119939
0.000118869
0.000119126
0.000120441
0.000128841
0.000148886
0.000167392
0.000162089
0.000162853
0.000184476
0.000222542
0.000226639
0.000311647
0.000394796
0.000386473
0.000364128
0.000361843
0.000350198
0.000317525
0.000298138
0.00030987
0.000346875
0.000347397
0.00030413
0.000278359
0.000298253
0.000347884
0.000381096
0.000402205
0.000436999
0.000440667
0.000336132
0.000351712
0.00045898
0.000469065
0.000436028
0.000395383
0.000368047
0.000344565
0.000313011
0.000316793
0.000375949
0.000372684
0.00031671
0.00031161
0.00033832
0.000363168
0.000395333
0.000438862
0.000473241
0.000462467
0.000358215
0.000367636
0.000476748
0.000491275
0.000455262
0.000400042
0.000360797
0.000329954
0.000298629
0.000291002
0.000363449
0.000347334
0.00028827
0.00029991
0.000329987
0.000363514
0.000408447
0.000472312
0.000510683
0.000491713
0.000372715
0.000380795
0.000508568
0.000535547
0.000506402
0.000436982
0.000376322
0.000335039
0.000296485
0.000271389
0.000281385
0.000282463
0.00027964
0.000307957
0.000346817
0.000389815
0.000452197
0.000523259
0.000551497
0.000520372
0.000384939
0.00039306
0.00053666
0.000577271
0.000571982
0.000517168
0.000434505
0.000383741
0.000343921
0.000320352
0.000317375
0.00032241
0.000331541
0.000358851
0.000400625
0.000454842
0.000534157
0.000585495
0.000587911
0.00054463
0.000396987
0.000405717
0.000557107
0.000605863
0.000630278
0.000627655
0.000588347
0.000515015
0.000450659
0.000415913
0.00040168
0.000408283
0.00042935
0.000476776
0.000542768
0.000609859
0.000642786
0.000640195
0.000611926
0.000562007
0.000409462
0.000419124
0.000570592
0.000621078
0.000669999
0.000711892
0.000727743
0.000720721
0.000698877
0.000663196
0.000633331
0.000639065
0.000671744
0.000704207
0.000726905
0.000735461
0.000719955
0.000675275
0.000623503
0.00057348
0.000422852
0.000435702
0.000562282
0.000621192
0.000667589
0.000701524
0.000717753
0.00071987
0.000706698
0.000671888
0.000620661
0.000622956
0.000673671
0.000711388
0.000727395
0.000725206
0.00070656
0.00066951
0.000622134
0.000564688
0.000439509
0.000455662
0.000492224
0.000522403
0.000546137
0.000566227
0.000583024
0.000595868
0.00060348
0.000603352
0.000593253
0.000596461
0.000606441
0.000607255
0.000600406
0.000587917
0.00057116
0.000550918
0.000526879
0.000496389
0.000459746
0.000159663
0.000172395
0.000178836
0.000186455
0.000193478
0.000187481
0.000162272
0.00013881
0.000129481
0.000128297
0.000129887
0.000134118
0.000145871
0.000165385
0.000184806
0.000182102
0.000172354
0.000173807
0.000181003
0.000168107
0.000292788
0.000386473
0.00039896
0.00040978
0.000429601
0.000423618
0.000386415
0.000361198
0.000370233
0.000413671
0.000412071
0.000363507
0.000344252
0.000362322
0.000414232
0.000441868
0.000444034
0.000449518
0.000436756
0.000317378
0.00033416
0.000469065
0.000497539
0.000475164
0.00045256
0.000438791
0.000424231
0.000397179
0.000395831
0.000445194
0.000447597
0.000399086
0.00039672
0.000416751
0.000431448
0.00045069
0.000477559
0.000503511
0.000473386
0.000336799
0.000350558
0.000491275
0.000524982
0.000499855
0.000456826
0.000427681
0.000406001
0.000383896
0.00038623
0.000438489
0.000436739
0.000389486
0.000385695
0.000405033
0.000430557
0.000468157
0.000522634
0.000551636
0.000511424
0.000353982
0.00037012
0.000535547
0.000578713
0.000552238
0.000484635
0.000429005
0.0003914
0.000357272
0.000336468
0.000353554
0.000352187
0.000339749
0.000363424
0.000399161
0.000441038
0.000501773
0.000574001
0.000599125
0.000550588
0.000374111
0.000392168
0.000577271
0.000631952
0.000615095
0.000539203
0.000453251
0.000395304
0.000348339
0.000314574
0.000310147
0.00031402
0.00032446
0.000362331
0.000412005
0.000472361
0.00055672
0.000630235
0.000642815
0.000584908
0.000396278
0.000413407
0.000605863
0.000672037
0.000673032
0.000615495
0.000532996
0.000460736
0.000404206
0.00036585
0.000351955
0.000357881
0.000379496
0.000426298
0.000487411
0.000557313
0.000631531
0.000681113
0.00067418
0.000607367
0.000417385
0.000434051
0.000621078
0.000706775
0.000749373
0.000738147
0.00069162
0.000640946
0.000592988
0.00054542
0.000509254
0.000515759
0.000560782
0.000615131
0.000667095
0.000714257
0.000750782
0.000750007
0.000702699
0.000619406
0.000438083
0.000457192
0.000621192
0.000762529
0.000893192
0.000974743
0.00100714
0.000994803
0.000966204
0.000900804
0.000804194
0.0008109
0.000912145
0.000984367
0.00101771
0.00102153
0.000980038
0.000890394
0.000757506
0.000620734
0.00046144
0.000483704
0.000522403
0.000554053
0.000579826
0.000602846
0.000623312
0.000640052
0.000650994
0.000652504
0.000641406
0.000645011
0.000656057
0.000655394
0.00064544
0.000629133
0.000608736
0.000585561
0.000559429
0.000527387
0.000488451
0.000144771
0.00016926
0.000186455
0.000198992
0.000204171
0.000194206
0.000170559
0.000149156
0.000137312
0.000136401
0.000139052
0.000143984
0.000155491
0.000172626
0.000192463
0.000197473
0.000184665
0.000173617
0.000164508
0.000139562
0.000262416
0.000364128
0.00040978
0.000447966
0.000472657
0.000458813
0.000419751
0.000396789
0.000409831
0.000463435
0.000466377
0.00041315
0.000388051
0.000397206
0.000439717
0.000473311
0.000468303
0.000442614
0.000397714
0.000285228
0.000311043
0.000436028
0.000475164
0.000480931
0.000483489
0.000485215
0.000474718
0.000447284
0.000445092
0.000499162
0.000508882
0.000455032
0.000446643
0.000466002
0.000474556
0.000476141
0.000477902
0.000473832
0.000433964
0.000307904
0.000324545
0.000455262
0.000499855
0.000496323
0.000480787
0.00046955
0.00045866
0.000445018
0.000449806
0.000494874
0.000501473
0.000461221
0.000450522
0.000457276
0.000468642
0.000485419
0.000508728
0.000517304
0.000468904
0.000324837
0.000353225
0.000506402
0.000552238
0.000541975
0.000504253
0.000470495
0.000445903
0.000423411
0.000414204
0.000445768
0.000447119
0.000419482
0.000428684
0.00045049
0.00047739
0.000514947
0.000556542
0.000567429
0.000518394
0.000357503
0.000387519
0.000571982
0.000615095
0.000604578
0.000551294
0.000491054
0.000445328
0.000406252
0.000376493
0.000376546
0.000379399
0.000384104
0.000416932
0.000457494
0.00050386
0.000562117
0.000612765
0.000621683
0.000577813
0.000391962
0.000417481
0.000630278
0.000673032
0.000669132
0.000620057
0.0005528
0.000495196
0.000447514
0.000409818
0.000396943
0.000402335
0.000423171
0.000466745
0.000516099
0.000569803
0.000627829
0.000668035
0.000668625
0.00062783
0.00042177
0.00044451
0.000669999
0.000749373
0.000783512
0.000760705
0.000710813
0.00066327
0.000620061
0.000574381
0.000535734
0.00054221
0.000590521
0.00064243
0.000686709
0.000727694
0.000764217
0.00077316
0.000733023
0.000661758
0.000448904
0.000473054
0.000667589
0.000893192
0.00107273
0.00110426
0.0011217
0.00113774
0.00113473
0.00107942
0.000975314
0.000977744
0.00109336
0.00115897
0.00116568
0.00114396
0.00111411
0.00107312
0.000879948
0.000664045
0.000477774
0.000504455
0.000546137
0.000579826
0.00060806
0.000635038
0.000660349
0.000682215
0.000697489
0.000702318
0.000693814
0.000697291
0.000705898
0.000702112
0.000687971
0.000666834
0.000641711
0.000614689
0.000586096
0.00055194
0.000509837
0.00013585
0.00017323
0.000193478
0.000204171
0.000204114
0.000191801
0.000173266
0.000156243
0.000144982
0.000144516
0.000147778
0.000151635
0.000161076
0.000174363
0.000189797
0.000201485
0.000198328
0.000182206
0.000162139
0.000128842
0.000232749
0.000361843
0.000429601
0.000472657
0.000485135
0.000464521
0.000433845
0.000418572
0.000437975
0.000507564
0.000518479
0.000452704
0.000418463
0.000418203
0.000438311
0.000469162
0.000473862
0.000443053
0.000378481
0.000252193
0.000281352
0.000395383
0.00045256
0.000483489
0.000504585
0.000514151
0.000500117
0.00047271
0.000476149
0.000546004
0.000565373
0.00049386
0.000473145
0.000489247
0.000500137
0.000490994
0.000473028
0.000444789
0.000388189
0.000274581
0.000292921
0.000400042
0.000456826
0.000480787
0.000490557
0.000495086
0.000492564
0.000484791
0.000489928
0.000542486
0.000561693
0.000507309
0.000492697
0.000491398
0.000489385
0.000486021
0.000479378
0.000457521
0.000399565
0.000290857
0.000333455
0.000436982
0.000484635
0.000504253
0.000501648
0.000492801
0.000482677
0.000471475
0.000473202
0.000519515
0.000531645
0.000485321
0.000478091
0.00048423
0.000492416
0.000501519
0.000505143
0.000486541
0.000441724
0.000338901
0.000381051
0.000517168
0.000539203
0.000551294
0.000538144
0.000512259
0.000486362
0.000461899
0.000448401
0.000474001
0.000479288
0.000456412
0.0004695
0.000492092
0.000515408
0.000537737
0.000548418
0.000537998
0.00052241
0.000386113
0.000419199
0.000627655
0.000615495
0.000620057
0.000605889
0.00057288
0.000536703
0.000503162
0.000480233
0.000492347
0.000497409
0.000491156
0.00051627
0.000547725
0.000577635
0.000601419
0.000609012
0.000606111
0.000625321
0.000423886
0.000451872
0.000711892
0.000738147
0.000760705
0.000750295
0.000716874
0.000681731
0.000648402
0.000611472
0.000583314
0.00058787
0.000623806
0.000664685
0.000695523
0.000721607
0.000741444
0.000740456
0.000714994
0.000699036
0.000456627
0.000484892
0.000701524
0.000974743
0.00110426
0.00118112
0.00123808
0.0012864
0.00129944
0.00123258
0.00108969
0.00108554
0.00124203
0.00132548
0.00131873
0.00126271
0.001191
0.00110226
0.000958921
0.000698161
0.000490152
0.000520679
0.000566227
0.000602846
0.000635038
0.000668161
0.000699041
0.000725793
0.000745399
0.000753916
0.000748585
0.000752283
0.000757327
0.000749845
0.000731542
0.000705679
0.000675259
0.000642307
0.000609909
0.000572754
0.000526593
0.000127341
0.000168145
0.000187481
0.000194206
0.000191801
0.000183445
0.000172208
0.000160773
0.000152356
0.000153327
0.000156802
0.000158347
0.000164422
0.000172934
0.000181903
0.000189635
0.000192451
0.000184862
0.000164751
0.000121886
0.000187825
0.000350198
0.000423618
0.000458813
0.000464521
0.000453366
0.000438555
0.000433581
0.000461406
0.000538611
0.00055412
0.000484429
0.000441519
0.000431877
0.000432801
0.000436566
0.000435386
0.000408946
0.000341646
0.000198132
0.00025005
0.000368047
0.000438791
0.000485215
0.000514151
0.000519941
0.000503368
0.000483142
0.000496846
0.000567429
0.000590911
0.000521729
0.000487945
0.000492141
0.000502493
0.00049649
0.000468359
0.000423015
0.00035418
0.000240254
0.000259394
0.000360797
0.000427681
0.00046955
0.000495086
0.000508585
0.000511249
0.000505862
0.000512293
0.000562143
0.000584524
0.00053386
0.000513561
0.000510043
0.000500423
0.000483787
0.000458137
0.000416804
0.000351752
0.000258247
0.000313996
0.000376322
0.000429005
0.000470495
0.000492801
0.00050207
0.000503228
0.000501265
0.000512227
0.000558189
0.000576301
0.000531874
0.000510199
0.000503071
0.000496236
0.000484339
0.000461649
0.000422379
0.000376957
0.000321731
0.000373512
0.000434505
0.000453251
0.000491054
0.000512259
0.000515012
0.000507849
0.000498524
0.000502924
0.000543323
0.000553244
0.000514673
0.000504358
0.000508017
0.000510027
0.000503253
0.000481342
0.000449156
0.000442527
0.000379378
0.000418557
0.000588347
0.000532996
0.0005528
0.00057288
0.000571378
0.000555912
0.000537651
0.000534016
0.000572465
0.000579553
0.000544138
0.000544882
0.000557796
0.000566042
0.000560463
0.000538495
0.000525888
0.000591403
0.0004236
0.000456091
0.000727743
0.00069162
0.000710813
0.000716874
0.00070437
0.000686102
0.000663757
0.0006326
0.000612415
0.000615577
0.000640693
0.000674537
0.000693547
0.000702506
0.000703472
0.000690971
0.000671834
0.0007126
0.00046108
0.000492954
0.000717753
0.00100714
0.0011217
0.00123808
0.00133681
0.0014099
0.00142073
0.00130634
0.00107091
0.0010547
0.00129582
0.00143854
0.00144464
0.00136894
0.00125831
0.00112902
0.000997613
0.000717642
0.000498652
0.000533106
0.000583024
0.000623312
0.000660349
0.000699041
0.000735295
0.000767093
0.000791526
0.000804715
0.000804503
0.000809036
0.000807835
0.000795264
0.00077222
0.000741608
0.000706247
0.00066803
0.000630932
0.000590049
0.000539335
0.000112969
0.000144432
0.000162272
0.000170559
0.000173266
0.000172208
0.000168459
0.000163382
0.000159647
0.000164227
0.000167882
0.000165128
0.000166556
0.000169664
0.000172275
0.0001731
0.000170469
0.000161389
0.000141614
0.00010802
0.00013965
0.000317525
0.000386415
0.000419751
0.000433845
0.000438555
0.000439645
0.000447387
0.000483569
0.00055303
0.000567216
0.00051045
0.000462663
0.000442562
0.000431082
0.00041666
0.000393973
0.00035638
0.000290979
0.00013459
0.000217638
0.000344565
0.000424231
0.000474718
0.000500117
0.000503368
0.00049403
0.000489038
0.000508683
0.000532317
0.000547382
0.000535805
0.000500184
0.000489266
0.000487089
0.000479718
0.000454339
0.000404609
0.000326862
0.000205992
0.000226923
0.000329954
0.000406001
0.00045866
0.000492564
0.000511249
0.00051617
0.000512318
0.00051747
0.00049961
0.000508696
0.00053999
0.000520402
0.000513939
0.000503543
0.000480258
0.000443099
0.000389265
0.000316543
0.000229744
0.000296836
0.000335039
0.0003914
0.000445903
0.000482677
0.000503228
0.000512414
0.000517459
0.000526008
0.000486089
0.000492611
0.000547866
0.000528604
0.000513175
0.000496298
0.000471236
0.000432826
0.000380532
0.000333821
0.000307096
0.000365784
0.000383741
0.000395304
0.000445328
0.000486362
0.000507849
0.000515321
0.000518816
0.000527109
0.000484521
0.000489462
0.000541668
0.000524783
0.000512864
0.000498964
0.000473553
0.000432829
0.000389168
0.000387921
0.000372194
0.000415689
0.000515015
0.000460736
0.000495196
0.000536703
0.000555912
0.000556367
0.000552083
0.000560014
0.000552393
0.000559347
0.000571793
0.000556477
0.000552989
0.000545684
0.00052202
0.000482094
0.000457917
0.000529798
0.000420886
0.000457102
0.000720721
0.000640946
0.00066327
0.000681731
0.000686102
0.000679851
0.000660965
0.000627512
0.0005996
0.000605314
0.000632752
0.000666955
0.000684442
0.000684119
0.000671494
0.000650188
0.000629601
0.00070674
0.000462068
0.000497318
0.00071987
0.000994803
0.00113774
0.0012864
0.0014099
0.00148866
0.00146459
0.00125105
0.000924143
0.000923477
0.00120539
0.00144909
0.00151007
0.00144355
0.00131746
0.00115906
0.00100961
0.000725099
0.000503104
0.00054171
0.000595868
0.000640052
0.000682215
0.000725793
0.000767093
0.000804382
0.000834843
0.000855778
0.000868296
0.000875008
0.000859204
0.000837498
0.000808171
0.000772332
0.000732286
0.000689484
0.000647707
0.000602865
0.000547833
0.000106193
0.00012633
0.00013881
0.000149156
0.000156243
0.000160773
0.000163382
0.000164933
0.000167245
0.000176148
0.000180319
0.0001726
0.000168418
0.000165815
0.000163081
0.000159056
0.000152641
0.00014209
0.000125324
0.000101298
0.000133386
0.000298138
0.000361198
0.000396789
0.000418572
0.000433581
0.000447387
0.000467289
0.00048675
0.000441728
0.000452408
0.00050795
0.000486771
0.000459351
0.000438389
0.00041639
0.000387354
0.000345783
0.000283234
0.000126955
0.000176593
0.000313011
0.000397179
0.000447284
0.00047271
0.000483142
0.000489038
0.000496505
0.000463615
0.000315673
0.000331777
0.000478857
0.000511114
0.000494657
0.000478947
0.000459964
0.000429736
0.000379342
0.000297781
0.000155078
0.000193423
0.000298629
0.000383896
0.000445018
0.000484791
0.000505862
0.000512318
0.000509564
0.000440311
0.000300912
0.000323539
0.000449794
0.000518431
0.00051313
0.000501369
0.000477932
0.000435721
0.000371672
0.000288116
0.00020241
0.00028221
0.000296485
0.000357272
0.000423411
0.000471475
0.000501265
0.000517459
0.000519791
0.000429066
0.000337064
0.000374286
0.000441383
0.000530335
0.000522281
0.000499976
0.000465321
0.000414379
0.000348744
0.000297231
0.000294628
0.000357921
0.000343921
0.000348339
0.000406252
0.000461899
0.000498524
0.000518816
0.000522853
0.000422377
0.000385896
0.000433815
0.000434315
0.00052891
0.000518254
0.00049163
0.000451007
0.000395418
0.000343722
0.000349758
0.00036449
0.000410829
0.000450659
0.000404206
0.000447514
0.000503162
0.000537651
0.000552083
0.000555074
0.000484006
0.000469833
0.000520684
0.000498061
0.000560125
0.000549066
0.000528223
0.000490429
0.00043663
0.000402416
0.000468881
0.000415834
0.000454604
0.000698877
0.000592988
0.000620061
0.000648402
0.000663757
0.000660965
0.000637319
0.000590549
0.00056657
0.000607258
0.000598815
0.000639092
0.000661863
0.000661951
0.000642215
0.000612036
0.000585539
0.000688475
0.000459215
0.000497325
0.000706698
0.000966204
0.00113473
0.00129944
0.00142073
0.00146459
0.00134246
0.00104656
0.000960872
0.000997802
0.00102966
0.00128718
0.00144457
0.00143277
0.00132418
0.00115879
0.000984608
0.000713553
0.000502585
0.000545958
0.00060348
0.000650994
0.000697489
0.000745399
0.000791526
0.000834843
0.000874025
0.000911347
0.000953625
0.000962929
0.000917083
0.000876474
0.000837011
0.000794925
0.000750191
0.000703334
0.000657359
0.000609453
0.000551323
0.000103083
0.000119939
0.000129481
0.000137312
0.000144982
0.000152356
0.000159647
0.000167245
0.000174441
0.000186814
0.000191142
0.000179812
0.000171275
0.000163321
0.000156355
0.000149436
0.000141581
0.000131388
0.00011826
9.93311e-05
0.000129836
0.00030987
0.000370233
0.000409831
0.000437975
0.000461406
0.000483569
0.00048675
0.000390149
0.000422353
0.000439042
0.000402204
0.000502342
0.000499508
0.000474169
0.000446276
0.000413491
0.000369805
0.000307974
0.000125685
0.00013928
0.000316793
0.000395831
0.000445092
0.000476149
0.000496846
0.000508683
0.000463615
0.000296418
0.000561537
0.000580472
0.000310331
0.000473168
0.000522291
0.000508083
0.000481848
0.000444684
0.000391261
0.000311143
0.000137363
0.000160764
0.000291002
0.00038623
0.000449806
0.000489928
0.000512293
0.00051747
0.000440311
0.000313493
0.000778793
0.000804773
0.000332019
0.000444266
0.000526333
0.00052024
0.000495528
0.00045439
0.000388445
0.000288332
0.000178331
0.000270941
0.00027139
0.000336468
0.000414204
0.000473202
0.000512227
0.000526008
0.000429066
0.000373005
0.0010265
0.00106535
0.000405832
0.000436078
0.000538289
0.000526499
0.000484326
0.000418608
0.000334275
0.000275695
0.000285103
0.0003501
0.000320352
0.000314574
0.000376493
0.000448401
0.000502924
0.000527108
0.000422377
0.000439088
0.00125382
0.00130414
0.000481047
0.000429801
0.000534524
0.000508943
0.000448442
0.000371515
0.00031335
0.000328292
0.000356535
0.000403883
0.000415913
0.00036585
0.000409818
0.000480233
0.000534016
0.000560014
0.000484006
0.000529556
0.00140788
0.0014687
0.000577779
0.000495909
0.000565519
0.000534843
0.00047566
0.000403064
0.000365025
0.00042288
0.000408455
0.000448004
0.000663196
0.00054542
0.000574381
0.000611472
0.0006326
0.000627512
0.000590549
0.00063183
0.00144975
0.00152495
0.000676305
0.000595982
0.000626311
0.00062963
0.000606455
0.00056786
0.000540121
0.000661603
0.000452111
0.000491591
0.000671888
0.000900804
0.00107942
0.00123258
0.00130634
0.00125105
0.00104656
0.00103246
0.00143365
0.00148944
0.00107049
0.00102737
0.00120222
0.00128302
0.00123331
0.00109176
0.000915174
0.000677523
0.000495984
0.000544307
0.000603352
0.000652504
0.000702318
0.000753916
0.000804715
0.000855778
0.000911347
0.000980442
0.00105947
0.00107104
0.000987891
0.000915447
0.000857516
0.000806318
0.000756497
0.000706095
0.000657213
0.000608007
0.000548722
0.000102312
0.000118869
0.000128297
0.000136401
0.000144516
0.000153327
0.000164227
0.000176148
0.000186814
0.0001956
0.000199339
0.000190205
0.000178933
0.000166498
0.000155671
0.000146847
0.000138174
0.000128584
0.000117932
9.95098e-05
0.000130852
0.000346875
0.000413671
0.000463435
0.000507564
0.000538611
0.00055303
0.000441728
0.000422353
0.000280669
0.000293669
0.000436989
0.000448398
0.000560881
0.000545825
0.000512931
0.00046937
0.000417722
0.000353896
0.000128213
0.000145927
0.000375949
0.000445194
0.000499162
0.000546004
0.000567428
0.000532317
0.000315673
0.000561537
0.000414509
0.000432868
0.000562998
0.000329176
0.000545395
0.000584315
0.000561776
0.000511703
0.000454067
0.000383167
0.000143304
0.000156505
0.000363449
0.000438489
0.000494874
0.000542486
0.000562143
0.00049961
0.000300912
0.000778793
0.000561851
0.000587811
0.000775712
0.000315364
0.000514503
0.000586872
0.000568997
0.000516504
0.00045708
0.000379734
0.000170201
0.00026449
0.000281385
0.000353554
0.000445768
0.000519515
0.000558189
0.000486089
0.000337064
0.0010265
0.000727931
0.000764315
0.00102669
0.000360891
0.000504001
0.000592229
0.000559204
0.000479452
0.000362571
0.000287323
0.000278228
0.000343024
0.000317375
0.000310147
0.000376546
0.000474001
0.000543323
0.000484521
0.000385896
0.00125382
0.000909401
0.000957401
0.00125475
0.000416275
0.000501291
0.000571082
0.00049904
0.000385471
0.000316024
0.00032592
0.000348925
0.000395386
0.00040168
0.000351955
0.000396943
0.000492347
0.000572465
0.000552393
0.000469833
0.00140788
0.00108898
0.00114754
0.00140939
0.000505317
0.000570458
0.000589383
0.000502638
0.000399082
0.000356562
0.000408115
0.00039945
0.000437732
0.000633331
0.000509254
0.000535734
0.000583314
0.000612415
0.0005996
0.00056657
0.00144975
0.00122967
0.00129562
0.00146275
0.000598254
0.000606703
0.000610596
0.000577994
0.000529601
0.000505592
0.000633173
0.000441224
0.000479501
0.000620661
0.000804194
0.000975314
0.00108969
0.00107091
0.000924143
0.000960872
0.00143365
0.00132477
0.001393
0.00145016
0.000985452
0.000912029
0.00102811
0.00106237
0.000969
0.000811729
0.000625057
0.00048311
0.000534728
0.000593253
0.000641406
0.000693814
0.000748585
0.000804503
0.000868296
0.000953625
0.00105947
0.00108566
0.0011047
0.00106384
0.00095728
0.000870516
0.000805076
0.000749144
0.000695489
0.000644538
0.000596692
0.000538265
0.000101578
0.000119126
0.000129887
0.000139052
0.000147778
0.000156802
0.000167882
0.000180319
0.000191142
0.000199339
0.000200621
0.000192465
0.000182449
0.000169064
0.000157385
0.000148136
0.000139083
0.00012948
0.000118873
0.000100186
0.000131114
0.000347397
0.000412071
0.000466377
0.000518479
0.00055412
0.000567216
0.000452408
0.000439042
0.000293669
0.000306809
0.000462542
0.000460884
0.000581824
0.00057056
0.000536427
0.000486822
0.000429724
0.00035838
0.000128944
0.00014679
0.000372684
0.000447597
0.000508882
0.000565373
0.000590911
0.000547382
0.000331777
0.000580472
0.000432868
0.000454418
0.000590414
0.000341181
0.000562426
0.000610799
0.000587079
0.000528457
0.000465424
0.000390935
0.000144346
0.000159335
0.000347334
0.000436739
0.000501473
0.000561693
0.000584524
0.000508696
0.000323539
0.000804773
0.000587811
0.000616571
0.000801562
0.000329835
0.000523578
0.000601569
0.000578299
0.000515873
0.000448771
0.000354977
0.000167593
0.000270532
0.000282463
0.000352187
0.000447119
0.000531645
0.000576301
0.000492611
0.000374285
0.00106535
0.000764315
0.000799496
0.00104708
0.000376964
0.000506557
0.000590155
0.000546991
0.000460627
0.000355864
0.000286849
0.000279055
0.000346068
0.00032241
0.00031402
0.000379399
0.000479288
0.000553244
0.000489462
0.000433815
0.00130414
0.000957401
0.000998197
0.00127256
0.00043099
0.000495586
0.000559128
0.000487044
0.000384109
0.000318368
0.000328052
0.000349594
0.000397635
0.000408283
0.000357881
0.000402335
0.000497409
0.000579553
0.000559347
0.000520684
0.0014687
0.00114754
0.00119269
0.00142682
0.000513055
0.000553599
0.000572422
0.00049346
0.000401237
0.000360758
0.000412688
0.000399978
0.00043986
0.000639065
0.000515759
0.00054221
0.00058787
0.000615577
0.000605314
0.000607258
0.00152495
0.00129562
0.00134417
0.00148822
0.00060562
0.00059582
0.000600858
0.000575328
0.00053461
0.000511454
0.00063952
0.000441622
0.000481847
0.000622956
0.0008109
0.000977744
0.00108554
0.0010547
0.000923477
0.000997802
0.00148944
0.001393
0.00144041
0.00146922
0.000997678
0.000912662
0.00102398
0.00106103
0.000970804
0.000813803
0.000627092
0.000483287
0.00053743
0.000596461
0.000645011
0.000697291
0.000752283
0.000809036
0.000875008
0.000962929
0.00107104
0.0011047
0.00111695
0.00106659
0.000958656
0.000871289
0.000805473
0.000749418
0.000695767
0.000644801
0.000596683
0.000538073
0.000100585
0.000120441
0.000134118
0.000143984
0.000151635
0.000158347
0.000165128
0.0001726
0.000179812
0.000190205
0.000192465
0.000181773
0.000171638
0.000162237
0.000154671
0.000147758
0.000140353
0.000130976
0.000119193
0.000100222
0.000128517
0.00030413
0.000363507
0.00041315
0.000452704
0.000484429
0.00051045
0.00050795
0.000402204
0.000436989
0.000462542
0.000408741
0.000519543
0.000518649
0.000491952
0.000461153
0.000424847
0.000377458
0.000315536
0.000126939
0.000141889
0.00031671
0.000399086
0.000455032
0.00049386
0.000521729
0.000535805
0.000478857
0.000310331
0.000562998
0.000590414
0.000315899
0.000482823
0.000540844
0.000527965
0.000499985
0.000460485
0.00040519
0.00032451
0.000139437
0.000176884
0.00028827
0.000389486
0.000461221
0.000507309
0.00053386
0.00053999
0.000449794
0.000332019
0.000775712
0.000801562
0.00033753
0.000448577
0.000538809
0.000533893
0.000505872
0.00045733
0.000384756
0.000284299
0.000177822
0.000280855
0.00027964
0.000339749
0.000419482
0.000485321
0.000531874
0.000547866
0.000441383
0.000405832
0.00102669
0.00104708
0.000407641
0.000435517
0.000538501
0.000523587
0.000478102
0.000413109
0.000335453
0.0002811
0.000286637
0.000354308
0.000331541
0.00032446
0.000384104
0.000456412
0.000514673
0.000541668
0.000434315
0.000481047
0.00125475
0.00127256
0.000480829
0.000423415
0.000526041
0.000501372
0.000446021
0.000377399
0.000323429
0.000334787
0.000357437
0.000406543
0.00042935
0.000379496
0.000423171
0.000491156
0.000544138
0.000571793
0.000498061
0.000577779
0.00140939
0.00142682
0.000572615
0.000479412
0.00054823
0.000522785
0.00047373
0.000412145
0.000377674
0.000433735
0.000408954
0.000450196
0.000671744
0.000560782
0.000590521
0.000623806
0.000640693
0.000632752
0.000598815
0.000676305
0.00146275
0.00148822
0.000676348
0.000582185
0.000611615
0.000618991
0.000604132
0.000575688
0.000553372
0.000674057
0.000452167
0.000493741
0.000673671
0.000912145
0.00109336
0.00124203
0.00129582
0.00120539
0.00102966
0.00107049
0.00145016
0.00146922
0.00107354
0.00102178
0.00118554
0.00127055
0.00122254
0.00108447
0.000913926
0.000678792
0.0004953
0.000546822
0.000606441
0.000656057
0.000705898
0.000757327
0.000807835
0.000859204
0.000917083
0.000987891
0.00106384
0.00106659
0.000986371
0.000914573
0.000856403
0.000805035
0.000755039
0.000704547
0.000655722
0.000606542
0.000547391
0.000102522
0.000128841
0.000145871
0.000155491
0.000161076
0.000164423
0.000166556
0.000168418
0.000171275
0.000178933
0.000182449
0.000171638
0.000163995
0.000159477
0.000155939
0.000151846
0.000146194
0.000137342
0.000123254
0.000101122
0.000133234
0.000278359
0.000344252
0.000388051
0.000418463
0.000441519
0.000462663
0.000486771
0.000502342
0.000448398
0.000460884
0.000519543
0.00049038
0.000455772
0.000431908
0.000409163
0.000380813
0.000341007
0.000281948
0.000126822
0.000174312
0.00031161
0.00039672
0.000446643
0.000473145
0.000487945
0.000500184
0.000511114
0.000473168
0.000329176
0.000341181
0.000482823
0.000510759
0.000493075
0.000480053
0.000465546
0.000438888
0.000389111
0.000305201
0.000161411
0.000206449
0.00029991
0.000385695
0.000450522
0.000492697
0.000513561
0.000520402
0.000518431
0.000444266
0.000315364
0.000329835
0.000448577
0.000515201
0.000513007
0.00050346
0.000479593
0.000436177
0.000372735
0.000290814
0.00020373
0.000292635