/*--------------------------------*- C++ -*----------------------------------*\
  =========                 |
  \\      /  F ield         | OpenFOAM: The Open Source CFD Toolbox
   \\    /   O peration     | Website:  https://openfoam.org
    \\  /    A nd           | Version:  9
     \\/     M anipulation  |
\*---------------------------------------------------------------------------*/
FoamFile
{
    format      ascii;
    class       volScalarField;
    location    "100";
    object      epsilon;
}
// * * * * * * * * * * * * * * * * * * * * * * * * * * * * * * * * * * * * * //

dimensions      [0 2 -3 0 0 0 0];

internalField   nonuniform List<scalar> 
12225
(
285.523
270.712
257.907
243.825
232.441
223.117
216.773
212.721
212.757
213.999
217.27
221
228.219
232.933
241.769
246.442
256.842
258.554
52.4869
91.9002
106.961
114.779
124.832
136.843
152.703
170.012
191.239
211.133
235.586
255.88
281.874
300.143
326.486
341.396
367.806
385.96
20.526
34.8808
44.6666
50.4826
55.3854
59.6309
64.6567
69.6813
76.3369
83.2661
91.5225
99.5031
108.378
117.37
126
136.366
143.643
156.997
16.003
19.4888
24.0765
27.5698
30.4915
32.8792
35.1518
37.3087
39.5046
41.9471
44.3546
47.2652
49.7349
53.1739
55.5568
59.5394
61.7794
66.4858
15.0386
15.7133
17.3969
19.0814
20.6368
22.0303
23.2445
24.4379
25.4447
26.6068
27.5298
28.7817
29.6532
31.0325
31.8685
33.372
34.1838
35.914
14.7897
14.8258
15.2493
15.8686
16.5663
17.2889
17.9229
18.5873
19.1196
19.7394
20.1966
20.8089
21.2183
21.8422
22.222
22.8698
23.2176
23.9587
14.7657
14.6147
14.6409
14.726
14.9345
15.2207
15.4912
15.8102
16.0712
16.385
16.6198
16.9247
17.1357
17.436
17.6268
17.9326
18.0961
18.4497
14.7686
14.5867
14.4659
14.3802
14.3676
14.3895
14.4395
14.5338
14.6185
14.7375
14.8316
14.9583
15.0498
15.1802
15.2659
15.4016
15.4739
15.6407
14.768
14.591
14.4349
14.2963
14.185
14.1044
14.0398
14.0067
13.9814
13.9787
13.9811
13.9922
14.0044
14.0313
14.0482
14.0846
14.1015
14.1601
14.7665
14.594
14.432
14.2821
14.1429
14.0219
13.9114
13.8193
13.7369
13.6697
13.6101
13.5633
13.5181
13.4874
13.4521
13.4354
13.4036
13.4043
14.7659
14.5945
14.4322
14.2803
14.1361
14.0032
13.8781
13.7643
13.658
13.5627
13.4733
13.3949
13.3195
13.2558
13.1914
13.1408
13.0841
13.0461
14.7657
14.5943
14.4321
14.2798
14.1353
13.9998
13.8714
13.7517
13.6384
13.5335
13.4338
13.3427
13.2554
13.1767
13.0999
13.0326
12.9646
12.9076
14.7657
14.5941
14.432
14.2794
14.135
13.9989
13.8698
13.7484
13.6331
13.5248
13.4218
13.3255
13.2335
13.1481
13.066
12.9903
12.917
12.8502
14.7657
14.594
14.4318
14.2791
14.1346
13.9983
13.8691
13.7472
13.6315
13.5222
13.4183
13.3202
13.2269
13.1388
13.0549
12.9758
12.9002
12.8292
14.7657
14.5938
14.4317
14.2787
14.1342
13.9977
13.8686
13.7464
13.6307
13.5211
13.4171
13.3185
13.2249
13.1361
13.0516
12.9715
12.8953
12.823
14.7657
14.5938
14.4316
14.2785
14.1339
13.9973
13.8681
13.7458
13.63
13.5203
13.4162
13.3175
13.2237
13.1348
13.0502
12.9699
12.8935
12.8208
14.7657
14.5937
14.4315
14.2783
14.1337
13.997
13.8677
13.7453
13.6295
13.5196
13.4155
13.3167
13.2229
13.1338
13.0492
12.9687
12.8922
12.8195
14.7657
14.5937
14.4314
14.2782
14.1335
13.9968
13.8674
13.745
13.6291
13.5192
13.415
13.3161
13.2222
13.1331
13.0484
12.9679
12.8913
12.8185
14.7657
14.5937
14.4314
14.2782
14.1335
13.9967
13.8673
13.7449
13.6289
13.519
13.4147
13.3158
13.2219
13.1327
13.048
12.9674
12.8908
12.8179
14.7657
14.5937
14.4314
14.2782
14.1336
13.9968
13.8675
13.745
13.6291
13.5191
13.4149
13.316
13.2222
13.1329
13.0483
12.9676
12.8911
12.8181
14.7657
14.5937
14.4315
14.2784
14.1338
13.9971
13.8678
13.7454
13.6295
13.5197
13.4155
13.3168
13.2231
13.1341
13.0496
12.9693
12.893
12.8204
14.7657
14.5937
14.4316
14.2785
14.1341
13.9975
13.8685
13.7465
13.6312
13.5221
13.4192
13.3215
13.2295
13.1421
13.0597
12.9813
12.9077
12.8372
14.7659
14.5937
14.4318
14.2788
14.1353
14.0002
13.8742
13.756
13.6464
13.5436
13.4486
13.3593
13.2772
13.1994
13.1284
13.0603
12.9991
12.9389
14.7661
14.5928
14.4329
14.2844
14.1515
14.0322
13.929
13.8376
13.7593
13.6894
13.6307
13.577
13.5328
13.4905
13.4574
13.4229
13.3987
13.3691
14.7641
14.5937
14.461
14.3604
14.3029
14.2767
14.2796
14.2939
14.3201
14.3529
14.3957
14.4343
14.4821
14.5213
14.5714
14.6082
14.6606
14.6927
14.757
14.6921
14.7579
14.9173
15.1827
15.4611
15.7473
16.012
16.2719
16.5034
16.7354
16.9378
17.1495
17.3295
17.5291
17.6914
17.8859
18.0325
14.9575
15.4344
16.5692
17.6885
18.705
19.5677
20.3366
20.9965
21.6182
22.1651
22.7168
23.2088
23.7365
24.2006
24.7274
25.1765
25.7168
26.1564
16.258
20.939
25.0148
27.7589
29.7837
31.3584
32.775
34.0573
35.3558
36.6134
37.969
39.2911
40.7506
42.1347
43.7001
45.1541
46.8558
48.3269
29.9427
47.2248
54.87
58.6728
61.6118
64.4298
67.5741
70.9729
74.7264
78.7005
82.963
87.3185
91.8672
96.4062
101.04
105.555
110.087
114.478
165.79
160.073
154.9
149.564
144.48
139.677
135.614
132.109
129.269
126.971
125.317
124.039
123.332
122.818
122.815
122.965
123.245
123.801
3.65871
2.27528
3.38413
4.36197
5.2383
6.02215
6.70955
7.26949
7.65269
7.79998
7.60774
7.53985
7.69976
7.79732
7.35485
5.59559
5.73717
6.27986
6.99235
7.67691
8.9043
42.162
49.4601
55.8588
63.0951
71.0685
79.8369
89.3365
99.5782
110.474
122.015
134.102
146.724
159.771
173.235
187.01
201.098
215.402
229.934
244.607
259.445
274.368
289.414
304.513
319.703
334.921
350.207
365.504
380.853
396.199
411.585
426.958
442.355
457.73
473.111
488.457
503.792
519.078
534.333
549.524
564.66
579.72
594.7
609.59
624.373
639.053
653.599
668.023
682.284
696.418
710.37
724.204
737.85
751.4
764.765
778.061
791.186
804.28
817.239
830.226
843.109
856.079
868.99
882.05
895.062
908.23
921.293
934.337
946.901
958.494
967.658
968.774
980.692
1006.97
1011.5
1037.16
1042.88
1071.99
1084.61
1103.98
1116.88
1129.22
1138.6
1145.9
1175.47
1179.91
1180.73
1207.24
1214.57
1226.13
1235.64
1243.79
1245.06
1261.09
1254.44
1261.65
1266.7
1277.13
1272.76
1280.25
1274.45
1270.61
1263.4
1254.21
1243.01
1229.91
1214.82
1197.79
1178.7
1157.69
1134.79
1110.18
1083.97
1056.35
1027.02
996.437
964.849
932.474
899.556
866.307
832.755
799.404
766.914
733.808
703.613
681.778
661.937
642.478
623.237
604.311
585.744
567.608
549.992
532.552
515.431
499.116
483.425
468.136
453.31
439.034
425.401
412.442
400.1
388.335
377.163
366.569
356.528
347.018
338.025
329.513
321.465
313.816
306.591
299.563
293.087
286.075
280.439
271.792
266.783
244.038
8.05599
4.91781
4.64303
4.87275
5.29961
5.82888
6.42465
7.06184
7.72176
8.40582
9.15083
10.0049
10.9878
12.0967
13.3875
15.0705
17.1144
19.3885
22.102
25.6165
30.475
37.4766
42.1146
46.5561
51.2127
56.0991
61.2125
66.5174
71.9843
77.5865
83.3089
89.1301
95.0405
101.024
107.075
113.181
119.34
125.544
131.794
138.082
144.412
150.779
157.189
163.64
170.123
176.632
183.17
189.73
196.315
202.92
209.544
216.183
222.836
229.498
236.167
242.839
249.511
256.177
262.836
269.481
276.11
282.717
289.298
295.849
302.365
308.843
315.276
321.663
327.997
334.277
340.497
346.663
352.767
358.817
364.806
370.744
376.625
382.462
388.249
394.001
399.708
405.388
411.024
416.631
422.181
427.675
433.066
438.326
443.37
448.137
452.559
456.829
462.631
469.151
473.941
480.395
485.322
491.998
496.831
502.015
506.342
510.443
514.257
518.177
523.015
524.989
526.424
534.498
537.295
541.176
543.851
545.765
545.743
548.881
550.048
554.128
555.489
555.529
555.71
557.849
556.049
554.646
552.333
549.257
545.53
541.124
536.026
530.228
523.691
516.442
508.439
499.709
490.286
480.21
469.47
458.166
446.377
434.177
421.642
408.849
395.842
382.724
369.644
356.425
343.503
332.04
321.241
310.736
300.432
290.345
280.498
270.913
261.625
252.534
243.491
234.747
226.327
218.184
210.324
202.76
195.519
188.619
182.049
175.797
169.859
164.229
158.898
153.855
149.091
144.592
140.352
136.347
132.592
129.008
125.734
122.458
119.794
116.682
116.793
117.222
14.4823
7.93843
6.85366
6.74931
7.00919
7.47617
8.10114
8.87486
9.80655
10.9095
12.1872
13.6495
15.3094
17.1795
19.2803
21.6209
24.1356
26.8089
29.7061
32.9177
36.4966
40.3644
44.2232
48.1456
52.1923
56.3726
60.6218
64.9269
69.3182
73.7969
78.3586
82.9948
87.7005
92.4716
97.3079
102.201
107.148
112.145
117.19
122.28
127.416
132.593
137.811
143.069
148.362
153.689
159.049
164.44
169.859
175.306
180.779
186.275
191.793
197.329
202.882
208.448
214.025
219.61
225.198
230.788
236.375
241.955
247.523
253.077
258.611
264.121
269.602
275.05
280.461
285.829
291.152
296.426
301.646
306.812
311.919
316.965
321.948
326.866
331.717
336.499
341.208
345.843
350.397
354.866
359.238
363.505
367.652
371.668
375.546
379.3
382.983
386.721
390.704
394.666
398.33
402.142
405.667
409.293
412.477
415.576
418.413
421.127
423.737
426.308
428.847
430.894
433.202
436.376
438.435
440.527
442.213
443.59
444.689
446.22
447.412
448.971
449.743
449.852
449.747
449.869
448.916
447.751
446.077
443.876
441.174
437.942
434.154
429.793
424.841
419.294
413.146
406.409
399.103
391.256
382.891
374.063
364.826
355.234
345.344
335.208
324.87
314.391
303.849
293.284
282.906
273.077
263.649
254.481
245.523
236.775
228.256
219.979
211.962
204.177
196.587
189.248
182.143
175.234
168.565
162.135
155.96
150.056
144.421
139.048
133.938
129.086
124.485
120.127
116.007
112.114
108.444
104.984
101.736
98.6689
95.8354
93.1254
90.7899
88.4058
87.4591
87.3064
21.7659
11.3661
9.47691
9.08389
9.23105
9.6841
10.3622
11.2405
12.3163
13.5947
15.0817
16.7823
18.6941
20.8084
23.1118
25.5836
28.1949
30.9346
33.8202
36.8809
40.1325
43.5485
47.0812
50.7188
54.4555
58.2777
62.2043
66.2415
70.3733
74.5956
78.9052
83.2873
87.7328
92.2299
96.7923
101.42
106.111
110.863
115.675
120.543
125.467
130.443
135.469
140.544
145.665
150.83
156.038
161.286
166.574
171.899
177.26
182.654
188.081
193.536
199.02
204.528
210.058
215.607
221.172
226.75
232.336
237.927
243.518
249.104
254.681
260.244
265.786
271.303
276.788
282.236
287.641
292.997
298.299
303.54
308.715
313.818
318.843
323.785
328.639
333.398
338.057
342.61
347.049
351.368
355.558
359.612
363.522
367.286
370.908
374.406
377.814
381.171
384.499
387.725
390.8
393.784
396.615
399.332
401.85
404.23
406.457
408.567
410.578
412.501
414.327
416.026
417.779
419.608
421.123
422.514
423.698
424.708
425.585
426.368
427.002
427.689
427.903
427.613
427.288
426.765
425.758
424.426
422.681
420.492
417.844
414.709
411.04
406.833
402.073
396.752
390.868
384.43
377.455
369.966
361.994
353.583
344.78
335.634
326.195
316.513
306.642
296.653
286.627
276.638
266.807
257.276
248.032
239.03
230.251
221.698
213.385
205.325
197.528
189.988
182.694
175.663
168.89
162.363
156.084
150.012
144.159
138.547
133.171
128.034
123.137
118.476
114.048
109.847
105.87
102.107
98.5567
95.2098
92.0653
89.1072
86.3577
83.7769
81.4748
79.3218
77.7776
77.1746
29.3935
15.1148
12.3478
11.6536
11.677
12.0966
12.7906
13.7138
14.8512
16.1997
17.7599
19.5302
21.5033
23.6657
25.9995
28.4851
31.1048
33.8497
36.7221
39.7305
42.8797
46.1632
49.5691
53.0888
56.7163
60.4474
64.2828
68.2213
72.2576
76.3855
80.6005
84.9037
89.2941
93.7721
98.3362
102.982
107.705
112.505
117.377
122.321
127.333
132.411
137.553
142.757
148.02
153.34
158.716
164.145
169.626
175.157
180.736
186.362
192.032
197.744
203.496
209.286
215.11
220.967
226.852
232.762
238.693
244.64
250.598
256.563
262.527
268.486
274.432
280.358
286.257
292.121
297.942
303.713
309.424
315.068
320.636
326.118
331.508
336.795
341.972
347.03
351.961
356.756
361.407
365.906
370.245
374.416
378.415
382.24
385.895
389.391
392.748
395.98
399.087
402.048
404.851
407.502
409.995
412.331
414.5
416.517
418.386
420.122
421.734
423.226
424.599
425.867
427.068
428.192
429.158
429.993
430.655
431.187
431.592
431.748
431.691
431.633
431.274
430.674
429.876
428.829
427.441
425.724
423.63
421.131
418.196
414.802
410.9
406.48
401.523
396.022
389.971
383.378
376.257
368.631
360.53
351.994
343.067
333.797
324.234
314.439
304.48
294.431
284.367
274.364
264.505
254.869
245.473
236.312
227.384
218.699
210.269
202.105
194.217
186.606
179.269
172.211
165.43
158.919
152.673
146.674
140.917
135.39
130.071
124.975
120.104
115.458
111.033
106.827
102.839
99.0549
95.482
92.1134
88.9455
85.9698
83.1954
80.6099
78.2651
76.1358
74.3924
73.3276
36.9221
18.9464
15.3024
14.2939
14.1866
14.5505
15.2309
16.16
17.3099
18.6695
20.2333
21.9965
23.951
26.085
28.3842
30.8338
33.4212
36.1382
38.9824
41.9541
45.0543
48.2812
51.6312
55.1006
58.6867
62.3873
66.2013
70.1274
74.1634
78.3069
82.5562
86.9106
91.3692
95.9311
100.595
105.357
110.216
115.168
120.212
125.344
130.562
135.863
141.246
146.706
152.242
157.851
163.532
169.283
175.1
180.983
186.93
192.938
199.006
205.131
211.312
217.546
223.83
230.161
236.535
242.949
249.398
255.877
262.381
268.903
275.436
281.973
288.507
295.028
301.527
307.994
314.42
320.794
327.105
333.341
339.491
345.544
351.488
357.312
363.003
368.551
373.944
379.173
384.226
389.093
393.767
398.24
402.505
406.56
410.407
414.053
417.506
420.774
423.858
426.75
429.447
431.952
434.266
436.392
438.331
440.092
441.681
443.105
444.373
445.488
446.456
447.295
448.003
448.566
448.995
449.311
449.406
449.268
449.042
448.616
448.051
447.346
446.428
445.291
443.93
442.315
440.4
438.165
435.574
432.595
429.197
425.348
421.016
416.179
410.817
404.92
398.481
391.504
384.003
375.998
367.518
358.601
349.291
339.641
329.713
319.574
309.296
298.951
288.611
278.345
268.219
258.289
248.582
239.111
229.887
220.922
212.229
203.82
195.703
187.882
180.358
173.131
166.2
159.559
153.201
147.114
141.29
135.717
130.381
125.259
120.345
115.642
111.152
106.875
102.812
98.9536
95.308
91.868
88.6303
85.5898
82.7503
80.1098
77.696
75.5159
73.6492
72.2346
44.1098
22.7012
18.2014
16.8732
16.6283
16.9227
17.5699
18.4808
19.6153
20.9545
22.4887
24.2109
26.1139
28.1887
30.4254
32.8134
35.344
38.0104
40.809
43.7381
46.797
49.9851
53.3014
56.7446
60.3141
64.009
67.8291
71.7739
75.8429
80.0354
84.3507
88.7884
93.3479
98.0282
102.828
107.745
112.778
117.923
123.18
128.544
134.013
139.585
145.257
151.026
156.89
162.846
168.892
175.026
181.245
187.548
193.933
200.398
206.941
213.56
220.252
227.016
233.847
240.744
247.702
254.717
261.785
268.899
276.053
283.241
290.455
297.685
304.923
312.157
319.378
326.573
333.73
340.835
347.876
354.837
361.704
368.463
375.099
381.597
387.943
394.121
400.118
405.922
411.518
416.896
422.044
426.954
431.619
436.034
440.198
444.114
447.788
451.221
454.416
457.371
460.087
462.567
464.812
466.83
468.625
470.203
471.571
472.735
473.702
474.472
475.054
475.489
475.738
475.748
475.554
475.251
474.738
474.05
473.195
472.154
470.946
469.562
467.976
466.171
464.135
461.842
459.263
456.371
453.138
449.531
445.519
441.069
436.154
430.747
424.83
418.387
411.413
403.908
395.884
387.359
378.363
368.935
359.125
348.993
338.605
328.029
317.338
306.601
295.888
285.259
274.774
264.479
254.406
244.576
235.005
225.71
216.705
208
199.604
191.521
183.753
176.299
169.158
162.324
155.789
149.544
143.578
137.882
132.441
127.239
122.257
117.47
112.884
108.504
104.337
100.38
96.6334
93.0955
89.7631
86.6328
83.7064
80.9854
78.4861
76.2228
74.2439
72.5648
50.7527
26.2464
20.9323
19.2874
18.9007
19.1168
19.719
20.5978
21.702
23.0058
24.4959
26.1641
28.0038
30.0088
32.1724
34.488
36.9496
39.5527
42.2941
45.1721
48.1859
51.3352
54.62
58.0405
61.597
65.29
69.1201
73.0878
77.1937
81.4381
85.8216
90.3441
95.0056
99.8058
104.744
109.818
115.028
120.37
125.844
131.446
137.174
143.026
148.998
155.089
161.296
167.616
174.046
180.586
187.233
193.985
200.839
207.795
214.85
222.003
229.25
236.59
244.019
251.535
259.133
266.81
274.558
282.374
290.249
298.176
306.146
314.149
322.174
330.209
338.241
346.256
354.24
362.175
370.047
377.838
385.53
393.105
400.544
407.831
414.946
421.872
428.592
435.09
441.349
447.355
453.096
458.56
463.738
468.623
473.212
477.506
481.504
485.208
488.621
491.742
494.574
497.119
499.382
501.369
503.085
504.539
505.737
506.686
507.391
507.847
508.03
507.971
507.713
507.217
506.513
505.607
504.483
503.15
501.612
499.87
497.926
495.777
493.411
490.814
487.973
484.869
481.481
477.785
473.756
469.364
464.581
459.379
453.729
447.607
440.993
433.872
426.236
418.086
409.431
400.292
390.7
380.699
370.343
359.691
348.811
337.771
326.64
315.486
304.373
293.36
282.498
271.83
261.388
251.2
241.286
231.662
222.344
213.341
204.662
196.31
188.287
180.593
173.226
166.18
159.447
153.019
146.884
141.031
135.449
130.124
125.037
120.159
115.465
110.973
106.69
102.621
98.7644
95.1198
91.6844
88.4558
85.4345
82.6228
80.0307
77.6713
75.5789
73.6927
56.6869
29.4727
23.4064
21.4575
20.9294
21.0636
21.6148
22.4552
23.5232
24.787
26.23
27.8426
29.619
31.5545
33.6451
35.8868
38.2765
40.8113
43.4894
46.3098
49.2722
52.3769
55.6245
59.016
62.5526
66.2356
70.0667
74.0472
78.1788
82.4629
86.9006
91.4931
96.2411
101.145
106.205
111.42
116.789
122.312
127.987
133.812
139.785
145.903
152.165
158.568
165.11
171.789
178.602
185.548
192.625
199.83
207.163
214.621
222.203
229.906
237.729
245.669
253.724
261.889
270.161
278.535
287.006
295.567
304.21
312.926
321.707
330.54
339.413
348.312
357.224
366.13
375.015
383.859
392.643
401.347
409.95
418.43
426.766
434.936
442.917
450.69
458.231
465.523
472.546
479.282
485.715
491.832
497.621
503.072
508.181
512.942
517.356
521.422
525.141
528.513
531.541
534.228
536.58
538.601
540.299
541.681
542.757
543.537
543.983
544.102
543.902
543.453
542.731
541.736
540.476
538.958
537.179
535.148
532.866
530.34
527.571
524.559
521.299
517.784
514.003
509.945
505.593
500.932
495.941
490.597
484.876
478.754
472.208
465.216
457.759
449.825
441.405
432.503
423.13
413.31
403.078
392.476
381.557
370.38
359.011
347.515
335.959
324.405
312.913
301.538
290.326
279.318
268.545
258.036
247.815
237.899
228.3
219.03
210.095
201.498
193.242
185.325
177.745
170.498
163.574
156.965
150.661
144.649
138.918
133.454
128.244
123.26
118.459
113.853
109.457
105.276
101.311
97.561
94.0236
90.6969
87.5805
84.6763
81.9902
79.532
77.3268
75.273
61.7934
32.2985
25.5621
23.3314
22.6673
22.721
23.2202
24.021
25.0528
26.2785
27.6783
29.2411
30.9611
32.8344
34.8586
37.0318
39.3526
41.8199
44.4333
47.1926
50.0985
53.1519
56.3541
59.7069
63.2123
66.8726
70.6902
74.6675
78.8071
83.1114
87.5826
92.2228
97.0338
102.017
107.173
112.503
118.007
123.685
129.535
135.557
141.751
148.113
154.643
161.338
168.198
175.22
182.402
189.742
197.24
204.893
212.7
220.66
228.771
237.03
245.437
253.989
262.682
271.514
280.48
289.575
298.794
308.129
317.572
327.113
336.742
346.446
356.212
366.023
375.863
385.714
395.556
405.367
415.125
424.807
434.388
443.843
453.147
462.274
471.197
479.892
488.334
496.499
504.365
511.911
519.117
525.966
532.444
538.539
544.241
549.546
554.449
558.948
563.044
566.736
570.026
572.919
575.418
577.528
579.257
580.614
581.61
582.215
582.427
582.265
581.765
580.93
579.761
578.26
576.433
574.285
571.819
569.041
565.958
562.574
558.894
554.922
550.657
546.097
541.239
536.076
530.602
524.807
518.679
512.203
505.364
498.145
490.53
482.502
474.05
465.164
455.843
446.092
435.928
425.377
414.473
403.257
391.777
380.09
368.256
356.339
344.398
332.491
320.673
308.993
297.492
286.207
275.165
264.401
253.938
243.791
233.973
224.492
215.353
206.559
198.113
190.012
182.255
174.837
167.75
160.984
154.529
148.373
142.504
136.911
131.577
126.482
121.575
116.864
112.364
108.082
104.018
100.172
96.5408
93.1229
89.9173
86.925
84.149
81.5954
79.2821
77.0894
66.0017
34.673
27.3639
24.8832
24.0934
24.074
24.5204
25.2836
26.2831
27.4766
28.8411
30.3641
32.0386
33.8613
35.8303
37.9449
40.2049
42.6105
45.1623
47.8613
50.709
53.7071
56.8578
60.1638
63.628
67.2535
71.0438
75.0024
79.1327
83.4383
87.9225
92.5885
97.4392
102.477
107.705
113.124
118.736
124.541
130.541
136.736
143.125
149.708
156.484
163.451
170.61
177.958
185.494
193.217
201.126
209.219
217.496
225.955
234.594
243.412
252.408
261.578
270.92
280.43
290.104
299.937
309.922
320.051
330.316
340.707
351.211
361.815
372.503
383.258
394.061
404.893
415.729
426.547
437.321
448.023
458.627
469.103
479.422
489.555
499.47
509.139
518.533
527.625
536.387
544.795
552.827
560.461
567.681
574.47
580.818
586.716
592.158
597.14
601.66
605.72
609.318
612.46
615.148
617.387
619.184
620.546
621.474
621.944
621.974
621.584
620.783
619.575
617.966
615.957
613.552
610.755
607.572
604.006
600.066
595.756
591.085
586.057
580.679
574.951
568.879
562.463
555.705
548.605
541.161
533.369
525.225
516.723
507.858
498.625
489.022
479.05
468.715
458.025
447.002
435.673
424.078
412.244
400.216
388.047
375.792
363.506
351.244
339.056
326.99
315.087
303.384
291.91
280.687
269.756
259.138
248.846
238.889
229.274
220.004
211.081
202.507
194.279
186.398
178.858
171.651
164.767
158.196
151.925
145.945
140.243
134.803
129.604
124.6
119.799
115.213
110.847
106.701
102.774
99.0638
95.5673
92.2835
89.2126
86.355
83.7141
81.3018
78.994
69.2803
36.5684
28.7944
26.1005
25.196
25.1127
25.5155
26.2475
27.2216
28.3915
29.7314
31.2268
32.8698
34.6565
36.5852
38.6552
40.8673
43.2222
45.7214
48.3668
51.1608
54.1059
57.2054
60.4629
63.8824
67.4681
71.2247
75.1564
79.268
83.5637
88.0483
92.7259
97.601
102.678
107.959
113.45
119.152
125.068
131.2
137.551
144.121
150.911
157.92
165.15
172.598
180.266
188.152
196.255
204.574
213.109
221.859
230.822
239.997
249.383
258.978
268.778
278.782
288.985
299.382
309.968
320.736
331.677
342.782
354.039
365.436
376.957
388.586
400.303
412.088
423.918
435.768
447.61
459.417
471.159
482.803
494.319
505.671
516.827
527.752
538.413
548.778
558.814
568.491
577.78
586.656
595.093
603.072
610.574
617.585
624.094
630.092
635.574
640.538
644.981
648.906
652.314
655.207
657.592
659.471
660.851
661.728
662.097
661.969
661.348
660.246
658.667
656.613
654.086
651.087
647.618
643.683
639.287
634.435
629.135
623.394
617.22
610.622
603.608
596.189
588.373
580.172
571.597
562.657
553.362
543.724
533.753
523.46
512.857
501.954
490.766
479.308
467.592
455.645
443.497
431.17
418.697
406.129
393.512
380.893
368.316
355.825
343.459
331.257
319.25
307.466
295.927
284.638
273.649
262.985
252.653
242.658
233.003
223.692
214.724
206.1
197.817
189.878
182.278
175.009
168.06
161.419
155.076
149.021
143.243
137.725
132.441
127.361
122.494
117.847
113.421
109.217
105.23
101.46
97.9019
94.5554
91.4194
88.4927
85.7764
83.2774
80.8767
71.629
37.9786
29.8556
26.9921
25.9925
25.8564
26.2247
26.9338
27.8917
29.0488
30.3768
31.8595
33.4877
35.2566
37.1637
39.2086
41.3915
43.714
46.1778
48.7855
51.5402
54.4456
57.5057
60.7254
64.1098
67.6647
71.3967
75.31
79.4096
83.701
88.1899
92.882
97.7832
102.899
108.235
113.797
119.59
125.618
131.885
138.396
145.153
152.157
159.41
166.913
174.666
182.669
190.922
199.424
208.175
217.174
226.419
235.911
245.648
255.627
265.847
276.304
286.994
297.914
309.058
320.419
331.99
343.761
355.722
367.86
380.161
392.608
405.183
417.865
430.631
443.456
456.313
469.172
482.001
494.767
507.436
519.972
532.337
544.495
556.406
568.035
579.344
590.298
600.862
611.005
620.696
629.91
638.621
646.808
654.456
661.55
668.081
674.04
679.424
684.232
688.463
692.119
695.203
697.717
699.665
701.053
701.879
702.14
701.841
700.965
699.542
697.572
695.051
691.978
688.352
684.173
679.441
674.16
668.334
661.971
655.076
647.661
639.736
631.316
622.415
613.054
603.251
593.033
582.42
571.442
560.13
548.514
536.625
524.499
512.154
499.595
486.817
473.913
460.92
447.889
434.875
421.879
408.889
395.941
383.072
370.317
357.707
345.273
333.042
321.039
309.282
297.786
286.525
275.619
265.05
254.812
244.907
235.334
226.096
217.191
208.616
200.361
192.444
184.86
177.597
170.645
163.993
157.628
151.545
145.731
140.17
134.832
129.714
124.815
120.139
115.684
111.448
107.428
103.62
100.023
96.6332
93.4496
90.4696
87.6932
85.1228
82.6505
73.0769
38.9146
30.5632
27.5798
26.5105
26.3361
26.6824
27.3801
28.3343
29.493
30.826
32.3154
33.9507
35.7257
37.6374
39.6845
41.8672
44.1867
46.645
49.2453
51.9911
54.8871
57.9385
61.1519
64.5325
68.086
71.8187
75.7372
79.849
84.1612
88.6813
93.4167
98.375
103.564
108.991
114.664
120.588
126.771
133.217
139.932
146.918
154.181
161.724
169.55
177.658
186.049
194.724
203.681
212.919
222.439
232.238
242.315
252.668
263.294
274.19
285.352
296.775
308.454
320.382
332.551
344.952
357.575
370.407
383.435
396.642
410.01
423.52
437.148
450.87
464.658
478.483
492.312
506.112
519.847
533.478
546.966
560.272
573.355
586.173
598.686
610.855
622.64
634.004
644.913
655.333
665.235
674.592
683.38
691.581
699.181
706.164
712.524
718.256
723.357
727.827
731.667
734.88
737.466
739.43
740.777
741.51
741.613
741.085
739.907
738.116
735.703
732.663
728.988
724.675
719.72
714.122
707.88
700.996
693.477
685.329
676.563
667.192
657.236
646.717
635.663
624.107
612.086
599.637
586.806
573.661
560.242
546.543
532.612
518.573
504.515
490.564
476.641
462.774
449.013
435.437
421.904
408.503
395.266
382.215
369.371
356.752
344.372
332.246
320.387
308.803
297.496
286.422
275.699
265.307
255.243
245.505
236.092
227.004
218.239
209.791
201.655
193.856
186.377
179.205
172.327
165.732
159.406
153.348
147.548
141.983
136.648
131.538
126.649
121.982
117.532
113.298
109.274
105.457
101.845
98.4341
95.2234
92.2093
89.3907
86.7665
84.2443
73.651
39.3934
30.9414
27.8953
26.7886
26.5971
26.94
27.6449
28.6156
29.7984
31.162
32.6872
34.3623
36.1799
38.1361
40.2286
42.4572
44.8227
47.3272
49.9739
52.7673
55.7127
58.8145
62.0782
65.5109
69.1203
72.9144
76.9018
81.0915
85.4929
90.1155
94.9689
100.063
105.407
111.012
116.884
123.034
129.468
136.194
143.217
150.543
158.176
166.119
174.377
182.952
191.843
201.05
210.573
220.409
230.558
241.015
251.78
262.847
274.212
285.871
297.818
310.046
322.547
335.313
348.333
361.597
375.092
388.804
402.718
416.815
431.076
445.478
459.999
474.61
489.283
503.987
518.686
533.345
547.926
562.389
576.692
590.792
604.648
618.215
631.452
644.315
656.763
668.759
680.264
691.245
701.669
711.507
720.736
729.335
737.285
744.573
751.19
757.13
762.39
766.969
770.87
774.092
776.637
778.508
779.711
780.242
780.096
779.236
777.668
775.416
772.467
768.811
764.437
759.338
753.505
746.934
739.621
731.566
722.772
713.247
703
692.051
680.42
668.139
655.241
641.785
627.814
613.382
598.481
583.192
567.663
552.08
536.567
521.097
505.814
490.546
475.448
460.581
445.985
431.69
417.678
403.962
390.553
377.454
364.667
352.192
340.028
328.172
316.624
305.379
294.432
283.768
273.414
263.374
253.646
244.227
235.117
226.311
217.808
209.601
201.666
194.051
186.737
179.711
172.963
166.48
160.241
154.269
148.539
143.045
137.779
132.735
127.904
123.287
118.883
114.686
110.691
106.895
103.295
99.889
96.6745
93.6475
90.8071
88.1488
85.5984
73.5124
39.4786
31.0487
28.0021
26.8942
26.7151
27.0856
27.8313
28.8556
30.1049
31.5469
33.1613
34.9354
36.861
38.9331
41.1489
43.5075
46.0092
48.6556
51.4496
54.3949
57.4958
60.7589
64.1909
67.7998
71.5946
75.585
79.7815
84.1952
88.8374
93.72
98.8546
104.253
109.928
115.889
122.148
128.714
135.596
142.803
150.341
158.217
166.433
174.993
183.898
193.153
202.757
212.709
223.005
233.643
244.617
255.924
267.557
279.511
291.777
304.347
317.212
330.362
343.785
357.47
371.405
385.574
399.963
414.555
429.333
444.277
459.366
474.577
489.884
505.259
520.672
536.09
551.479
566.802
582.018
597.087
611.968
626.616
640.989
655.042
668.732
682.017
694.855
707.205
719.032
730.3
740.976
751.031
760.44
769.18
777.234
784.586
791.225
797.145
802.342
806.817
810.571
813.602
815.912
817.504
818.39
818.535
817.967
816.594
814.473
811.591
807.936
803.493
798.246
792.184
785.296
777.57
769.003
759.589
749.33
738.235
726.315
713.588
700.089
685.852
670.914
655.252
638.955
622.164
605.123
587.926
570.602
553.359
536.025
518.826
501.881
485.239
468.979
453.159
437.817
422.969
408.608
394.725
381.305
368.332
355.786
343.644
331.887
320.494
309.446
298.728
288.322
278.212
268.399
258.878
249.648
240.704
232.041
223.656
215.545
207.704
200.126
192.818
185.778
178.997
172.466
166.176
160.099
154.269
148.674
143.307
138.16
133.226
128.495
123.978
119.663
115.545
111.616
107.874
104.316
100.942
97.7487
94.7321
91.8915
89.2197
86.6631
72.8871
39.3136
30.9796
27.9889
26.9392
26.8329
27.2943
28.149
29.3021
30.7002
32.3111
34.1148
36.0985
38.2534
40.5741
43.0572
45.7013
48.5061
51.473
54.6044
57.9043
61.3775
65.0304
68.8707
72.9072
77.1497
81.6092
86.2974
91.2268
96.4104
101.862
107.594
113.621
119.957
126.614
133.603
140.934
148.616
156.658
165.068
173.848
183
192.525
202.423
212.69
223.323
234.32
245.675
257.383
269.433
281.818
294.526
307.546
320.866
334.473
348.351
362.487
376.865
391.468
406.281
421.285
436.464
451.798
467.268
482.854
498.534
514.285
530.082
545.898
561.703
577.467
593.154
608.729
624.155
639.392
654.4
669.138
683.563
697.634
711.309
724.548
737.311
749.559
761.257
772.371
782.87
792.725
801.91
810.404
818.188
825.244
831.561
837.13
841.949
846.016
849.332
851.896
853.706
854.763
855.069
854.64
853.377
851.296
848.402
844.678
840.107
834.666
828.341
821.111
812.962
803.88
793.858
782.889
770.972
758.117
744.34
729.65
714.017
697.5
680.206
662.345
643.996
625.211
606.223
586.886
567.454
548.094
528.9
510.018
491.577
473.676
456.395
439.791
423.895
408.711
394.221
380.393
367.19
354.569
342.487
330.9
319.765
309.043
298.699
288.701
279.022
269.637
260.532
251.696
243.122
234.802
226.73
218.9
211.309
203.955
196.831
189.936
183.273
176.831
170.604
164.594
158.795
153.211
147.842
142.682
137.725
132.966
128.393
124.015
119.825
115.817
111.986
108.327
104.845
101.534
98.3906
95.4112
92.5959
89.9341
87.395
71.5362
38.8075
30.7447
27.9309
27.04
27.0894
27.7339
28.8003
30.198
31.8756
33.8024
35.9589
38.3328
40.9158
43.7024
46.6892
49.8744
53.2576
56.8393
60.6219
64.6089
68.8051
73.2164
77.8499
82.7137
87.8176
93.1722
98.7889
104.68
110.859
117.338
124.131
131.254
138.722
146.548
154.738
163.298
172.232
181.544
191.235
201.309
211.764
222.6
233.81
245.39
257.331
269.623
282.256
295.217
308.492
322.066
335.921
350.041
364.408
379.002
393.805
408.795
423.955
439.264
454.703
470.253
485.894
501.607
517.374
533.176
548.992
564.803
580.587
596.32
611.976
627.528
642.946
658.197
673.248
688.065
702.612
716.852
730.748
744.264
757.36
770
782.147
793.768
804.83
815.3
825.151
834.354
842.887
850.727
857.854
864.248
869.896
874.787
878.917
882.284
884.887
886.725
887.785
888.078
887.636
886.356
884.227
881.247
877.397
872.656
866.998
860.4
852.839
844.292
834.74
824.166
812.562
799.918
786.226
771.442
755.593
738.735
721.02
702.495