/*--------------------------------*- C++ -*----------------------------------*\
  =========                 |
  \\      /  F ield         | OpenFOAM: The Open Source CFD Toolbox
   \\    /   O peration     | Website:  https://openfoam.org
    \\  /    A nd           | Version:  9
     \\/     M anipulation  |
\*---------------------------------------------------------------------------*/
FoamFile
{
    format      ascii;
    class       volScalarField;
    location    "100";
    object      k;
}
// * * * * * * * * * * * * * * * * * * * * * * * * * * * * * * * * * * * * * //

dimensions      [0 2 -2 0 0 0 0];

internalField   nonuniform List<scalar> 
12225
(
0.362814
0.344001
0.327732
0.309838
0.295373
0.283524
0.275462
0.270313
0.270359
0.27192
0.276111
0.280772
0.290039
0.295998
0.306972
0.314254
0.323573
0.33782
0.440192
0.468696
0.461605
0.448377
0.450365
0.458341
0.474463
0.498846
0.524373
0.552604
0.580945
0.606926
0.634506
0.655116
0.681285
0.696177
0.72183
0.736624
0.390545
0.417868
0.42023
0.416824
0.411632
0.407808
0.408017
0.410057
0.414547
0.42152
0.430826
0.439905
0.4515
0.461557
0.473576
0.484652
0.495169
0.509745
0.377546
0.38698
0.391407
0.391342
0.390222
0.387897
0.385663
0.384085
0.382886
0.382908
0.383415
0.384364
0.386407
0.388585
0.39115
0.394636
0.397115
0.402267
0.374562
0.376089
0.378413
0.378665
0.378263
0.377204
0.375489
0.373735
0.372011
0.370452
0.369264
0.368112
0.367401
0.366853
0.366492
0.366494
0.366551
0.3671
0.373815
0.372709
0.372645
0.372383
0.371761
0.370814
0.369553
0.368079
0.366569
0.364971
0.363524
0.362059
0.360749
0.359536
0.358399
0.35746
0.356493
0.355902
0.373783
0.371742
0.370386
0.369286
0.368234
0.367112
0.365913
0.364583
0.363234
0.361802
0.360414
0.359015
0.357665
0.356372
0.355106
0.353959
0.352792
0.351824
0.37382
0.37156
0.369635
0.367976
0.3665
0.365106
0.363774
0.362426
0.361103
0.35976
0.358441
0.357133
0.355848
0.354606
0.353381
0.352229
0.35108
0.350041
0.373832
0.371553
0.369449
0.367525
0.365776
0.364152
0.362643
0.361196
0.359813
0.358467
0.357161
0.355892
0.354653
0.353458
0.352287
0.351174
0.350075
0.349054
0.373831
0.37156
0.369418
0.367405
0.365528
0.363772
0.362131
0.360583
0.359118
0.357722
0.356387
0.355108
0.353876
0.352695
0.351552
0.350462
0.349401
0.348403
0.373829
0.371561
0.369413
0.367378
0.365458
0.363645
0.361936
0.360322
0.358795
0.357348
0.355973
0.354664
0.353414
0.352223
0.351081
0.349994
0.348945
0.347956
0.373828
0.371559
0.369409
0.367371
0.365439
0.363608
0.361875
0.360232
0.358675
0.357198
0.355795
0.354462
0.353193
0.351986
0.350832
0.349737
0.348686
0.347692
0.373827
0.371557
0.369405
0.367365
0.36543
0.363593
0.36185
0.360196
0.358624
0.357132
0.355712
0.354363
0.353079
0.351859
0.350694
0.349588
0.34853
0.347528
0.373827
0.371555
0.369402
0.36736
0.365423
0.363583
0.361837
0.360177
0.3586
0.3571
0.355672
0.354315
0.353022
0.351792
0.350619
0.349504
0.348439
0.347427
0.373826
0.371553
0.369399
0.367355
0.365416
0.363575
0.361826
0.360164
0.358584
0.357081
0.355651
0.354289
0.352993
0.351758
0.350581
0.34946
0.348391
0.347372
0.373826
0.371552
0.369396
0.367351
0.36541
0.363568
0.361818
0.360154
0.358572
0.357068
0.355635
0.354272
0.352973
0.351736
0.350557
0.349434
0.348362
0.34734
0.373825
0.371551
0.369394
0.367348
0.365406
0.363562
0.361811
0.360146
0.358563
0.357057
0.355623
0.354258
0.352958
0.35172
0.350539
0.349414
0.34834
0.347317
0.373825
0.371551
0.369393
0.367346
0.365404
0.363559
0.361806
0.36014
0.358556
0.357049
0.355614
0.354248
0.352947
0.351707
0.350526
0.349399
0.348324
0.347299
0.373825
0.37155
0.369393
0.367346
0.365403
0.363557
0.361804
0.360138
0.358553
0.357045
0.35561
0.354243
0.352942
0.351701
0.350519
0.349391
0.348315
0.347289
0.373825
0.371551
0.369394
0.367346
0.365404
0.363559
0.361807
0.36014
0.358556
0.357048
0.355614
0.354247
0.352946
0.351704
0.350522
0.349394
0.348319
0.347293
0.373825
0.371552
0.369395
0.367349
0.365407
0.363564
0.361811
0.360147
0.358563
0.357057
0.355623
0.354259
0.352958
0.35172
0.350539
0.349413
0.348339
0.347315
0.373826
0.371553
0.369397
0.367352
0.365413
0.363571
0.361823
0.360162
0.358585
0.357085
0.355659
0.354301
0.35301
0.351779
0.350607
0.349489
0.348424
0.347406
0.373826
0.371554
0.369399
0.36736
0.365429
0.363603
0.361876
0.360241
0.358692
0.357222
0.355826
0.354496
0.353231
0.352023
0.350871
0.349768
0.348718
0.347708
0.373828
0.371551
0.369412
0.367417
0.365556
0.36382
0.36219
0.360652
0.359191
0.357796
0.356459
0.355175
0.353939
0.35275
0.351605
0.350501
0.349443
0.348418
0.373823
0.371554
0.369605
0.367893
0.36634
0.364893
0.363496
0.362123
0.360763
0.359416
0.358083
0.356773
0.355492
0.354242
0.353034
0.351861
0.35074
0.349652
0.373788
0.371991
0.371113
0.370266
0.369361
0.368312
0.367049
0.365631
0.364122
0.362577
0.361032
0.359525
0.358076
0.356685
0.355385
0.354145
0.353013
0.351928
0.374355
0.375572
0.377776
0.377858
0.377288
0.375886
0.373836
0.371642
0.369506
0.367483
0.365664
0.364083
0.36271
0.361533
0.360607
0.359814
0.359284
0.358792
0.379125
0.394297
0.39825
0.396574
0.392539
0.387604
0.383646
0.380448
0.378266
0.376849
0.37649
0.376732
0.377404
0.378673
0.380415
0.382391
0.384783
0.387087
0.408394
0.42754
0.422415
0.411054
0.402225
0.397919
0.398619
0.400951
0.40605
0.413026
0.420956
0.429773
0.438761
0.448102
0.457191
0.466421
0.475156
0.483998
0.36605
0.353414
0.341989
0.330208
0.318984
0.30838
0.299412
0.291669
0.285403
0.28033
0.276677
0.273857
0.272298
0.271154
0.271183
0.271438
0.272152
0.273338
0.0123476
0.0352706
0.0526039
0.0678491
0.0815178
0.0938399
0.104957
0.114721
0.122983
0.129716
0.134877
0.139943
0.144855
0.148644
0.150411
0.149631
0.164071
0.173696
0.178306
0.176978
0.17182
0.150175
0.167494
0.181673
0.197264
0.213523
0.230581
0.248292
0.266628
0.285417
0.304617
0.324062
0.343722
0.363447
0.383226
0.402932
0.422577
0.442055
0.461398
0.480519
0.499461
0.518154
0.536651
0.554895
0.572942
0.590739
0.608341
0.625704
0.642875
0.659818
0.676576
0.693115
0.709471
0.725614
0.741572
0.757317
0.772873
0.788215
0.803358
0.818284
0.832998
0.847491
0.861758
0.875799
0.889596
0.903165
0.916473
0.929548
0.942348
0.95491
0.967183
0.979223
0.99097
1.0025
1.01375
1.02481
1.0356
1.04624
1.05664
1.06693
1.07702
1.08705
1.09692
1.10678
1.11647
1.12612
1.13551
1.14458
1.15277
1.15919
1.15978
1.17764
1.18456
1.19034
1.20819
1.21293
1.23282
1.2439
1.25524
1.2666
1.27492
1.28351
1.29037
1.29607
1.29874
1.30816
1.31676
1.33166
1.34384
1.34832
1.35182
1.34913
1.3547
1.36067
1.36495
1.37536
1.37401
1.37222
1.37323
1.37451
1.37856
1.37324
1.36942
1.36263
1.35493
1.34574
1.33516
1.32321
1.30975
1.29481
1.27839
1.26055
1.24133
1.22085
1.19909
1.17594
1.1517
1.12648
1.10041
1.07367
1.04635
1.01845
0.990495
0.962785
0.934044
0.908873
0.889943
0.872034
0.854217
0.836433
0.818765
0.801253
0.784006
0.766945
0.749925
0.733111
0.716948
0.701181
0.685613
0.670365
0.655552
0.641275
0.627538
0.614288
0.601535
0.589296
0.577562
0.566317
0.55556
0.545267
0.535425
0.525981
0.516959
0.508124
0.499879
0.490948
0.483751
0.472489
0.466066
0.438594
0.0275852
0.0635989
0.0878748
0.106324
0.121992
0.135908
0.14849
0.160048
0.170856
0.18126
0.191706
0.202463
0.213573
0.225283
0.238702
0.256202
0.275587
0.293658
0.310558
0.326998
0.343894
0.362279
0.386984
0.413836
0.442256
0.471844
0.502533
0.534248
0.56688
0.600299
0.634395
0.669038
0.704123
0.739522
0.775142
0.810878
0.846658
0.882401
0.918057
0.953567
0.988901
1.02402
1.05891
1.09354
1.12792
1.16202
1.19586
1.22941
1.2627
1.29569
1.32842
1.36085
1.393
1.42486
1.45642
1.48768
1.51862
1.54923
1.5795
1.60941
1.63894
1.66808
1.6968
1.72509
1.75293
1.78029
1.80715
1.83351
1.85933
1.88462
1.90935
1.93348
1.95698
1.97986
2.00211
2.02374
2.04473
2.06513
2.08493
2.10417
2.12287
2.14107
2.15879
2.17608
2.19296
2.20948
2.22563
2.24144
2.25691
2.27212
2.28729
2.30375
2.31861
2.33389
2.3508
2.36639
2.38376
2.39965
2.41616
2.43245
2.44868
2.46493
2.48101
2.49694
2.51214
2.52835
2.54386
2.55798
2.57238
2.58565
2.59867
2.61102
2.62409
2.63546
2.64617
2.65545
2.66129
2.6746
2.68131
2.68338
2.69068
2.69025
2.69234
2.68962
2.68477
2.67742
2.6675
2.65496
2.63973
2.62139
2.59993
2.57536
2.54771
2.51706
2.4835
2.44714
2.40826
2.36707
2.32381
2.27871
2.23203
2.18398
2.13475
2.08495
2.03468
1.98385
1.93337
1.883
1.83284
1.78314
1.73412
1.68597
1.63879
1.59238
1.54636
1.50144
1.4579
1.41588
1.37508
1.33541
1.2971
1.2603
1.22496
1.19094
1.15828
1.127
1.09706
1.06842
1.04107
1.01494
0.99
0.96618
0.94343
0.92162
0.900853
0.880509
0.861992
0.841314
0.826692
0.786236
0.0496423
0.0971523
0.12633
0.148303
0.167032
0.18396
0.199826
0.215141
0.230362
0.245931
0.262212
0.27943
0.297806
0.317639
0.339369
0.363235
0.388402
0.414211
0.440611
0.467904
0.496576
0.527234
0.560443
0.595602
0.632328
0.670397
0.709661
0.749974
0.791209
0.833248
0.87598
0.919284
0.963047
1.00715
1.0515
1.09598
1.14054
1.18508
1.22957
1.27394
1.31816
1.3622
1.40603
1.44965
1.49302
1.53615
1.57902
1.62162
1.66397
1.70604
1.74784
1.78936
1.8306
1.87155
1.91219
1.95253
1.99254
2.03222
2.07153
2.11048
2.14902
2.18715
2.22482
2.26203
2.29872
2.33489
2.37049
2.4055
2.43988
2.47362
2.50667
2.539
2.57059
2.60143
2.63148
2.66074
2.6892
2.71685
2.7437
2.76974
2.795
2.81947
2.84319
2.86616
2.88841
2.90996
2.93082
2.95102
2.9706
2.98964
3.00823
3.02653
3.04421
3.06187
3.07954
3.09661
3.11375
3.13025
3.14674
3.16283
3.17876
3.19445
3.2099
3.22514
3.23997
3.25492
3.26933
3.28316
3.2974
3.31086
3.32404
3.3368
3.3492
3.3605
3.37114
3.38091
3.38955
3.39843
3.40483
3.40803
3.41016
3.40956
3.40799
3.40328
3.39572
3.38508
3.37119
3.35387
3.33298
3.30831
3.27982
3.2475
3.21138
3.17154
3.12814
3.08134
3.03141
2.97859
2.92317
2.86543
2.80564
2.74408
2.68106
2.61715
2.553
2.48879
2.4248
2.36106
2.29773
2.23505
2.17327
2.11257
2.05311
1.9949
1.93796
1.88248
1.82863
1.77652
1.72585
1.67634
1.62846
1.58238
1.53806
1.49526
1.45408
1.41462
1.37677
1.3405
1.30581
1.27264
1.24095
1.21066
1.18173
1.15405
1.12767
1.10226
1.0786
1.05461
1.03676
1.00432
0.0745582
0.13218
0.166569
0.192492
0.214617
0.234743
0.253833
0.272541
0.291387
0.310805
0.331145
0.352682
0.37563
0.400161
0.426412
0.454406
0.483943
0.514825
0.547025
0.580666
0.615974
0.653157
0.692251
0.733081
0.77546
0.819218
0.864204
0.910285
0.957355
1.0053
1.054
1.10334
1.15321
1.20349
1.25408
1.3049
1.35587
1.40692
1.45799
1.50904
1.56002
1.61089
1.66164
1.71223
1.76264
1.81287
1.86289
1.91271
1.9623
2.01166
2.06079
2.10967
2.15831
2.20668
2.25478
2.3026
2.35012
2.39732
2.44418
2.49068
2.53679
2.58249
2.62774
2.6725
2.71675
2.76045
2.80354
2.846
2.88778
2.92883
2.96913
3.00861
3.04725
3.085
3.12184
3.15772
3.19263
3.22653
3.25941
3.29126
3.32205
3.3518
3.3805
3.40815
3.43476
3.46033
3.48488
3.50843
3.53102
3.55271
3.57357
3.59367
3.61304
3.63183
3.65003
3.66753
3.6845
3.70082
3.71666
3.73196
3.74682
3.76122
3.77521
3.7888
3.80197
3.81484
3.82725
3.83925
3.85112
3.86244
3.87337
3.88379
3.89359
3.90251
3.91065
3.91792
3.92412
3.92924
3.93179
3.93217
3.93127
3.9282
3.9229
3.91468
3.90337
3.88871
3.87047
3.84844
3.82243
3.79229
3.75793
3.71933
3.67652
3.62958
3.57868
3.52401
3.46583
3.40441
3.34004
3.27303
3.20373
3.13256
3.06001
2.98662
2.91295
2.8393
2.7659
2.6929
2.6205
2.54893
2.47845
2.40925
2.34149
2.27526
2.21065
2.14778
2.08675
2.02763
1.97036
1.91482
1.86115
1.80944
1.75965
1.71127
1.66469
1.61999
1.57703
1.53579
1.49629
1.45847
1.42229
1.38769
1.35462
1.32301
1.29289
1.26411
1.23712
1.21092
1.18997
1.1605
0.100514
0.166975
0.206964
0.237094
0.262724
0.285981
0.30801
0.329563
0.351216
0.373435
0.396608
0.421043
0.446964
0.474521
0.503805
0.534844
0.567602
0.602033
0.638134
0.675948
0.715544
0.75695
0.800139
0.845017
0.891465
0.939357
0.98857
1.03899
1.09049
1.14296
1.19629
1.25035
1.30504
1.36026
1.41591
1.47192
1.52821
1.5847
1.64135
1.69809
1.75488
1.81168
1.86846
1.92518
1.98181
2.03835
2.09476
2.15104
2.20717
2.26313
2.31893
2.37454
2.42996
2.48518
2.54018
2.59494
2.64946
2.7037
2.75764
2.81127
2.86454
2.91743
2.96989
3.02189
3.07337
3.12431
3.17463
3.22429
3.27323
3.3214
3.36875
3.4152
3.4607
3.50521
3.54866
3.59099
3.63217
3.67215
3.71088
3.74833
3.78448
3.81929
3.85274
3.88483
3.91554
3.94487
3.97283
3.99942
4.0247
4.04869
4.07147
4.09309
4.11362
4.1331
4.15157
4.16902
4.18553
4.20113
4.21589
4.22983
4.24302
4.25549
4.26727
4.27841
4.28893
4.2989
4.30827
4.31708
4.32539
4.33316
4.34041
4.34711
4.35299
4.3579
4.36194
4.36521
4.36683
4.36688
4.3654
4.36224
4.35727
4.35013
4.34053
4.32806
4.31243
4.29336
4.27059
4.24389
4.21302
4.17785
4.13824
4.09417
4.04565
3.99275
3.93563
3.87448
3.80956
3.74113
3.66954
3.59516
3.51844
3.43989
3.36001
3.27931
3.1983
3.11733
3.03666
2.9565
2.87709
2.79867
2.72146
2.6457
2.57154
2.4991
2.42851
2.35987
2.29324
2.2287
2.16621
2.10575
2.04734
1.99104
1.93681
1.88449
1.83413
1.78577
1.73916
1.69428
1.65127
1.60999
1.57045
1.53259
1.49638
1.46178
1.42881
1.39744
1.36795
1.33995
1.31638
1.2862
0.126066
0.200564
0.246042
0.280359
0.309432
0.335673
0.360379
0.384395
0.408351
0.432753
0.458021
0.484492
0.512424
0.541998
0.573335
0.606496
0.641508
0.678374
0.717099
0.75769
0.800151
0.844464
0.89058
0.938424
0.987901
1.0389
1.09133
1.14505
1.19998
1.25599
1.31298
1.37084
1.42948
1.48879
1.54869
1.6091
1.66995
1.73116
1.79267
1.85442
1.91637
1.97846
2.04066
2.10292
2.16523
2.22754
2.28984
2.3521
2.41431
2.47645
2.53852
2.60049
2.66234
2.72408
2.78568
2.84712
2.90838
2.96945
3.03029
3.09087
3.15116
3.21113
3.27071
3.32988
3.38856
3.44671
3.50427
3.56116
3.61732
3.67267
3.72714
3.78066
3.83314
3.88451
3.9347
3.98362
4.03121
4.07739
4.12211
4.1653
4.20691
4.2469
4.28521
4.32184
4.35673
4.38989
4.4213
4.45096
4.47891
4.50518
4.52983
4.55289
4.57443
4.59449
4.61311
4.63032
4.6462
4.66078
4.67415
4.68634
4.69743
4.70746
4.71647
4.72451
4.73167
4.73801
4.74348
4.7481
4.75191
4.75503
4.75752
4.75943
4.76034
4.75989
4.75821
4.75585
4.75214
4.74711
4.74057
4.73237
4.72231
4.71012
4.69547
4.67805
4.65754
4.63364
4.60607
4.57456
4.53889
4.49886
4.45435
4.40528
4.35165
4.29351
4.23101
4.16431
4.09368
4.01942
3.94193
3.86164
3.77905
3.69467
3.60899
3.52253
3.43574
3.349
3.26259
3.17678
3.09181
3.00794
2.92541
2.84442
2.76516
2.68777
2.61237
2.53906
2.46792
2.39899
2.33228
2.26777
2.20548
2.1454
2.08752
2.03176
1.97811
1.92659
1.87707
1.82951
1.78391
1.74002
1.69789
1.65752
1.61885
1.58189
1.54667
1.51322
1.48173
1.45214
1.42633
1.39581
0.150421
0.231933
0.282522
0.320814
0.353158
0.382201
0.409362
0.435564
0.461486
0.48767
0.514566
0.542544
0.571901
0.602861
0.635584
0.670175
0.706697
0.74518
0.785639
0.828068
0.872453
0.918757
0.966927
1.01689
1.06856
1.12185
1.17666
1.23289
1.29043
1.34919
1.40907
1.46996
1.53179
1.59446
1.65789
1.722
1.78672
1.85197
1.91769
1.98382
2.0503
2.11709
2.18413
2.25139
2.31883
2.38642
2.45412
2.52192
2.58979
2.65771
2.72567
2.79365
2.86163
2.9296
2.99753
3.06542
3.13323
3.20095
3.26853
3.33596
3.40318
3.47015
3.53683
3.60316
3.66906
3.73449
3.79935
3.86358
3.92708
3.98976
4.05154
4.11232
4.17199
4.23046
4.28762
4.34339
4.39765
4.45032
4.5013
4.55051
4.59788
4.64332
4.68679
4.72821
4.76756
4.80478
4.83988
4.87283
4.90364
4.93235
4.95899
4.9836
5.00623
5.02692
5.04572
5.06268
5.07786
5.09133
5.10315
5.11338
5.1221
5.12937
5.13521
5.13969
5.14295
5.14516
5.14616
5.14584
5.14429
5.14193
5.13867
5.13445
5.12911
5.12254
5.11488
5.10615
5.09618
5.08489
5.07216
5.05782
5.0417
5.02352
5.00303
4.97992
4.95389
4.92463
4.89187
4.8553
4.81468
4.76981
4.72052
4.66672
4.60836
4.54549
4.47821
4.40671
4.33126
4.25222
4.17
4.08504
3.99784
3.9089
3.81871
3.72776
3.63648
3.54524
3.45437
3.36414
3.27484
3.18671
3.09999
3.01489
2.9316
2.85026
2.77103
2.69398
2.6192
2.54674
2.4766
2.40879
2.34331
2.28014
2.21926
2.16063
2.10421
2.05
1.99795
1.948
1.90011
1.85415
1.81007
1.76778
1.7272
1.68839
1.65137
1.61623
1.58311
1.55209
1.52438
1.49337
0.172907
0.260322
0.315463
0.357368
0.392721
0.424348
0.453763
0.481947
0.509616
0.537341
0.565597
0.594782
0.625224
0.657185
0.690865
0.726405
0.763901
0.803408
0.844951
0.88853
0.934127
0.981705
1.03121
1.08258
1.13573
1.19058
1.24705
1.30505
1.36448
1.42526
1.48729
1.5505
1.6148
1.68011
1.74636
1.81345
1.88134
1.94994
2.01919
2.08903
2.1594
2.23025
2.30153
2.37319
2.4452
2.51751
2.59009
2.66293
2.73598
2.80923
2.88267
2.95626
3.03
3.10386
3.17784
3.25189
3.32601
3.40016
3.47431
3.54842
3.62246
3.69636
3.77007
3.84353
3.91667
3.9894
4.06164
4.13329
4.20426
4.27444
4.34371
4.41195
4.47905
4.54488
4.60931
4.67221
4.73347
4.79296
4.85055
4.90615
4.95963
5.0109
5.05988
5.10648
5.15064
5.1923
5.23142
5.26798
5.30197
5.33341
5.36231
5.38872
5.41266
5.43418
5.45332
5.47015
5.48473
5.49712
5.5074
5.51563
5.52187
5.52629
5.52876
5.5294
5.52834
5.52581
5.52171
5.51604
5.50893
5.50054
5.49087
5.47995
5.46775
5.45425
5.43952
5.42357
5.40636
5.38781
5.36786
5.34636
5.32318
5.29809
5.27088
5.24127
5.20898
5.17373
5.13523
5.09319
5.04734
4.99746
4.94336
4.88491
4.82206
4.75481
4.68329
4.60768
4.52828
4.44542
4.3595
4.27097
4.18029
4.08795
3.99442
3.90014
3.80555
3.71101
3.61684
3.52336
3.43083
3.33953
3.24968
3.16149
3.07515
2.99082
2.90863
2.8287
2.7511
2.67587
2.60303
2.53259
2.46455
2.3989
2.33561
2.27464
2.21596
2.15954
2.10537
2.05339
2.00355
1.95575
1.90994
1.86605
1.82401
1.78378
1.74536
1.70885
1.67438
1.64211
1.61277
1.58112
0.192988
0.28518
0.344218
0.389286
0.427322
0.461285
0.492755
0.522753
0.552019
0.581142
0.610613
0.640846
0.672192
0.704938
0.739314
0.775491
0.813591
0.853692
0.895838
0.94004
0.986286
1.03455
1.08478
1.13692
1.1909
1.24666
1.30412
1.3632
1.42383
1.48592
1.54941
1.61421
1.68026
1.74748
1.81581
1.88517
1.95549
2.02672
2.09878
2.17163
2.24519
2.31941
2.39426
2.46967
2.5456
2.62203
2.69891
2.77621
2.8539
2.93197
3.01039
3.08914
3.16821
3.24757
3.3272
3.40709
3.4872
3.5675
3.64797
3.72856
3.80922
3.88989
3.97052
4.05103
4.13135
4.21137
4.29101
4.37014
4.44867
4.52645
4.60336
4.67925
4.75399
4.82742
4.89938
4.96972
5.0383
5.10494
5.16951
5.23186
5.29185
5.34936
5.40426
5.45645
5.50583
5.55233
5.59589
5.63646
5.67401
5.70854
5.74006
5.76859
5.79415
5.81679
5.83656
5.85349
5.86768
5.87917
5.88805
5.8944
5.89817
5.89955
5.89858
5.89538
5.89004
5.88267
5.87329
5.862
5.84886
5.83401
5.8175
5.7994
5.77974
5.75859
5.73601
5.71204
5.6867
5.65998
5.63183
5.6022
5.57097
5.53801
5.50314
5.46613
5.42676
5.38475
5.33985
5.29177
5.24024
5.18503
5.12593
5.06281
4.99559
4.9243
4.84903
4.76997
4.68737
4.60156
4.5129
4.42181
4.32872
4.23407
4.13831
4.04185
3.94509
3.84838
3.75205
3.65642
3.56178
3.46837
3.37642
3.28614
3.19771
3.1113
3.02704
2.94506
2.86542
2.78818
2.71335
2.64094
2.57098
2.50344
2.43829
2.37552
2.31506
2.25691
2.20103
2.1474
2.09596
2.04663
1.99935
1.95408
1.91076
1.86936
1.82989
1.79231
1.75674
1.72336
1.69263
1.66032
0.210284
0.306171
0.368412
0.416153
0.456507
0.492528
0.525842
0.557493
0.588233
0.618657
0.64926
0.680462
0.712622
0.74604
0.780964
0.817583
0.856041
0.896436
0.938828
0.983245
1.02969
1.07814
1.12857
1.18093
1.23517
1.29123
1.34905
1.40857
1.46973
1.53246
1.5967
1.66238
1.72946
1.79786
1.86753
1.9384
2.01042
2.08352
2.15765
2.23275
2.30876
2.38564
2.46334
2.5418
2.62098
2.70086
2.78138
2.86253
2.94426
3.02657
3.10943
3.19281
3.2767
3.36108
3.44594
3.53124
3.61696
3.70307
3.78953
3.8763
3.96332
4.05055
4.1379
4.2253
4.31267
4.3999
4.48687
4.57347
4.65956
4.745
4.82964
4.9133
4.99583
5.07705
5.15676
5.23479
5.31095
5.38506
5.45693
5.52639
5.59325
5.65737
5.7186
5.77678
5.83181
5.88357
5.93198
5.97697
6.01849
6.05652
6.09105
6.12208
6.14963
6.17374
6.19444
6.2118
6.22587
6.23673
6.24446
6.24897
6.2505
6.24911
6.2449
6.23792
6.22828
6.21608
6.2014
6.18432
6.16494
6.14338
6.11973
6.09408
6.06653
6.03718
6.00611
5.97343
5.93919
5.90345
5.86623
5.82753
5.7873
5.74549
5.70198
5.65663
5.60924
5.55962
5.50753
5.45274
5.39496
5.33398
5.26961
5.20172
5.13024
5.05516
4.97656
4.8946
4.8095
4.72153
4.63101
4.53831
4.44382
4.34792
4.25102
4.15349
4.05569
3.95796
3.86059
3.76393
3.66826
3.57383
3.48083
3.38946
3.29991
3.21234
3.1269
3.04371
2.96285
2.88435
2.80824
2.73455
2.66329
2.59446
2.52803
2.46397
2.40224
2.34282
2.28568
2.2308
2.17812
2.12759
2.07915
2.03275
1.98838
1.94599
1.9056
1.86721
1.83077
1.79645
1.76455
1.7316
0.224564
0.323148
0.387908
0.437815
0.480097
0.517877
0.552805
0.585934
0.61802
0.649654
0.681324
0.713444
0.74637
0.780402
0.815791
0.852736
0.891393
0.931874
0.974255
1.01858
1.06486
1.11311
1.1633
1.2154
1.26938
1.32519
1.38281
1.44216
1.50323
1.56594
1.63027
1.69616
1.76356
1.83242
1.9027
1.97435
2.04731
2.12154
2.19698
2.27359
2.35131
2.4301
2.50992
2.59071
2.67244
2.75506
2.83856
2.92289
3.00803
3.09396
3.18064
3.26808
3.35624
3.44512
3.53469
3.62493
3.71581
3.80729
3.89935
3.99193
4.08499
4.17845
4.27225
4.3663
4.46051
4.55475
4.64892
4.74287
4.83646
4.92951
5.02187
5.11334
5.20373
5.29283
5.38043
5.46631
5.55027
5.63207
5.71149
5.78833
5.86238
5.93345
6.00133
6.06587
6.12691
6.18432
6.23797
6.28777
6.33365
6.37556
6.41348
6.44739
6.4773
6.50324
6.52523
6.54334
6.55762
6.56815
6.57491
6.57801
6.5776
6.57371
6.56643
6.55585
6.54205
6.52514
6.50521
6.48235
6.45668
6.4283
6.39734
6.36391
6.32815
6.29018
6.25015
6.20818
6.1644
6.11891
6.07181
6.02316
5.97303
5.92142
5.86831
5.81363
5.75728
5.69912
5.63899
5.57674
5.51209
5.44486
5.3749
5.30209
5.22635
5.14766
5.06607
4.98168
4.89467
4.80526
4.71371
4.62031
4.52539
4.42928
4.33232
4.23483
4.13714
4.03952
3.94223
3.84566
3.75011
3.65574
3.56276
3.47134
3.38165
3.29387
3.20816
3.12464
3.04337
2.96441
2.88777
2.81349
2.7416
2.67209
2.60495
2.54015
2.47767
2.41746
2.35951
2.30379
2.25027
2.19889
2.1496
2.10238
2.0572
2.01404
1.97291
1.93383
1.89672
1.86162
1.82876
1.79529
0.23573
0.336123
0.402751
0.454326
0.498139
0.537354
0.573638
0.608046
0.641328
0.674062
0.706721
0.739704
0.773354
0.807958
0.843761
0.880961
0.919717
0.960146
1.00234
1.04634
1.0922
1.13993
1.18952
1.24097
1.29426
1.34937
1.40627
1.46494
1.52535
1.58747
1.65128
1.71674
1.78382
1.85247
1.92268
1.99439
2.06759
2.14223
2.21826
2.29566
2.37437
2.45435
2.53557
2.61798
2.70156
2.78626
2.87205
2.9589
3.04679
3.13569
3.22559
3.31647
3.40832
3.50112
3.59486
3.68951
3.78504
3.88141
3.9786
4.07655
4.17522
4.27453
4.3744
4.47476
4.57548
4.67647
4.77757
4.87865
4.97954
5.08006
5.18001
5.2792
5.37739
5.47436
5.56987
5.66367
5.75549
5.8451
5.93224
6.01664
6.09808
6.17631
6.25111
6.32228
6.38962
6.45297
6.51217
6.56711
6.61768
6.66381
6.70546
6.74259
6.77519
6.80329
6.8269
6.84608
6.86087
6.87134
6.87752
6.87953
6.87746
6.87134
6.86126
6.8473
6.82955
6.80811
6.78306
6.75451
6.72258
6.68738
6.64904
6.60772
6.56355
6.5167
6.46734
6.41564
6.36179
6.30594
6.24827
6.18892
6.12804
6.06574
6.00209
5.93713
5.87088
5.80327
5.7342
5.6635
5.59082
5.51638
5.44009
5.36186
5.28162
5.19932
5.11497
5.02861
4.94034
4.8503
4.75866
4.66563
4.57144
4.47635
4.38063
4.28451
4.18827
4.09213
3.99623
3.90101
3.80672
3.71355
3.62168
3.53127
3.44247
3.35543
3.27039
3.18744
3.10664
3.02802
2.95162
2.87748
2.80564
2.73611
2.66887
2.6039
2.54118
2.48069
2.4224
2.36629
2.31232
2.26047
2.21069
2.16295
2.11724
2.07356
2.0319
1.99229
1.95465
1.91894
1.88532
1.85146
0.243787
0.345215
0.413109
0.465875
0.510823
0.55114
0.588504
0.623964
0.658259
0.69195
0.72549
0.759257
0.793571
0.828701
0.864875
0.902282
0.941072
0.981365
1.02325
1.0668
1.11205
1.15904
1.20778
1.25829
1.31056
1.3646
1.42039
1.47794
1.53723
1.59827
1.66106
1.72559
1.79178
1.85964
1.92916
2.00033
2.07312
2.14753
2.22351
2.30103
2.38007
2.46059
2.54256
2.62594
2.71071
2.79683
2.88428
2.97302
3.06304
3.1543
3.24676
3.34046
3.4354
3.53156
3.62889
3.72739
3.82701
3.92773
4.02951
4.13232
4.23609
4.34075
4.44624
4.55244
4.65926
4.76657
4.87423
4.98208
5.08995
5.19763
5.30491
5.41158
5.51738
5.62205
5.72533
5.82693
5.92657
6.02395
6.11879
6.2108
6.29968
6.38517
6.46701
6.54495
6.61876
6.68824
6.7532
6.81349
6.86898
6.91957
6.9652
7.0058
7.04137
7.07189
7.09739
7.1179
7.13347
7.14417
7.15005
7.15121
7.14779
7.13972
7.12709
7.11
7.08852
7.06274
7.03274
6.99864
6.96054
6.91856
6.87285
6.82357
6.77087
6.71495
6.65601
6.59425
6.52989
6.46318
6.39435
6.32363
6.25125
6.17748
6.10241
6.02621
5.94848
5.86982
5.79038
5.71013
5.62976
5.54859
5.46649
5.38337
5.29915
5.21375
5.12713
5.03929
4.95025
4.86008
4.76887
4.67676
4.58389
4.49044
4.39661
4.30257
4.20852
4.11462
4.02086
3.92821
3.83653
3.74588
3.65642
3.56826
3.48153
3.39636
3.31298
3.23154
3.15208
3.07466
2.9993
2.92604
2.85496
2.78608
2.71938
2.65484
2.59245
2.53218
2.47404
2.41799
2.36402
2.31209
2.26218
2.21427
2.16834
2.1244
2.08245
2.0425
2.00447
1.96833
1.93416
1.90008
0.24882
0.350623
0.419239
0.472748
0.518448
0.559535
0.597688
0.63395
0.669045
0.703516
0.737792
0.77223
0.807125
0.842721
0.879223
0.9168
0.95559
0.995707
1.03724
1.08026
1.12481
1.17095
1.21871
1.2681
1.31915
1.3719
1.42635
1.48248
1.54031
1.59989
1.66125
1.72447
1.7894
1.85608
1.92452
1.99471
2.06665
2.14033
2.21575
2.29287
2.37168
2.45216
2.53428
2.61803
2.70338
2.79031
2.87879
2.9688
3.06032
3.15333
3.24778
3.34377
3.44124
3.54017
3.64053
3.74228
3.84541
3.94985
4.05563
4.16269
4.27097
4.3804
4.4909
4.60237
4.71472
4.8278
4.94147
5.05556
5.16989
5.28425
5.39842
5.51214
5.62514
5.73715
5.84787
5.95698
6.06417
6.16911
6.27146
6.3709
6.46712
6.55978
6.6486
6.73327
6.81355
6.88919
6.95996
7.02567
7.08618
7.14135
7.19108
7.2353
7.27396
7.30707
7.33462
7.35664
7.37318
7.38429
7.39004
7.39057
7.38603
7.37623
7.36128
7.34126
7.31623
7.28628
7.25148
7.21193
7.16775
7.11905
7.06597
7.00869
6.94737
6.88224
6.8135
6.7414
6.6662
6.58821
6.50774
6.42509
6.34043
6.2538
6.16585
6.07696
5.9882
5.89937
5.81052
5.7221
5.63321
5.54436
5.45559
5.36691
5.27825
5.18952
5.10064
5.01156
4.92221
4.83257
4.74262
4.6524
4.56195
4.47133
4.38064
4.28997
4.19945
4.10914
4.01896
3.92962
3.84114
3.75363
3.6672
3.58195
3.49799
3.41541
3.33475
3.25589
3.17881
3.10356
3.03015
2.95859
2.88903
2.8215
2.756
2.6925
2.63101
2.57152
2.51403
2.45853
2.405
2.35342
2.30376
2.25603
2.2102
2.1663
2.12431
2.08424
2.04601
2.00965
1.97515
1.94104
0.251026
0.352596
0.421447
0.475294
0.52139
0.562923
0.601575
0.638381
0.67405
0.709098
0.743917
0.778883
0.814262
0.85026
0.887055
0.924788
0.963582
1.00353
1.04473
1.08723
1.13111
1.17642
1.22321
1.27146
1.32123
1.37259
1.42564
1.48031
1.53665
1.59469
1.65445
1.71592
1.77917
1.84425
1.91117
1.97997
2.05065
2.12322
2.19768
2.27403
2.35225
2.43234
2.51428
2.59805
2.68364
2.77102
2.86019
2.95111
3.04376
3.13813
3.23419
3.33192
3.43132
3.53239
3.63512
3.73948
3.84544
3.95298
4.0621
4.17274
4.28483
4.39828
4.51305
4.62905
4.74616
4.86425
4.98318
5.10278
5.22285
5.34317
5.46352
5.58362
5.70318
5.82192
5.93949
6.05557
6.16979
6.2818
6.39123
6.49772
6.60089
6.7004
6.79591
6.88708
6.97361
7.05521
7.13164
7.20267
7.2681
7.32777
7.38155
7.42936
7.47112
7.50682
7.53643
7.55999
7.57753
7.5891
7.59477
7.59476
7.58924
7.57782
7.56067
7.53782
7.50934
7.47528
7.43575
7.3908
7.34056
7.28513
7.22465
7.1593
7.08929
7.01481
6.93612
6.85348
6.76715
6.67714
6.58404
6.48836
6.39075
6.29216
6.19258
6.09236
5.99245
5.8922
5.7924
5.69346
5.5954
5.49847
5.40281
5.30846
5.21539
5.1235
5.03268
4.9428
4.85372
4.7653
4.67744
4.59002
4.50298
4.41626
4.32985
4.24372
4.15791
4.07245
3.98733
3.90282
3.81902
3.73604
3.65398
3.57292
3.49294
3.41406
3.33675
3.26101
3.18686
3.11433
3.04346
2.97426
2.90702
2.84164
2.77808
2.71635
2.65642
2.59826
2.54195
2.4875
2.43488
2.38407
2.33508
2.28788
2.2425
2.19894
2.15719
2.11724
2.07905
2.0427
2.00812
1.9742
0.250665
0.35166
0.420284
0.474042
0.520138
0.56175
0.600562
0.637608
0.673589
0.709009
0.744251
0.779686
0.815513
0.851909
0.889019
0.926961
0.965834
1.00572
1.04668
1.0888
1.13213
1.17673
1.2227
1.26999
1.31867
1.36877
1.42032
1.47337
1.52802
1.58435
1.64245
1.70232
1.76402
1.82758
1.89306
1.9605
2.0299
2.10131
2.17473
2.25018
2.32767
2.40718
2.48873
2.57229
2.65784
2.74539
2.8349
2.92636
3.01975
3.11505
3.21224
3.31131
3.41224
3.51504
3.6197
3.72618
3.83445
3.94447
4.0562
4.16962
4.2847
4.40136
4.51956
4.6392
4.76016
4.88234
5.0056
5.12977
5.25465
5.38002
5.50565
5.63126
5.75654
5.88118
6.00483
6.12713
6.24768
6.3661
6.48199
6.59494
6.70454
6.8104
6.91214
7.00938
7.10178
7.18902
7.2708
7.34685
7.41695
7.4809
7.53853
7.58973
7.63441
7.67252
7.70403
7.72896
7.74733
7.75919
7.76459
7.76398
7.75737
7.74425
7.72476
7.69896
7.66687
7.62855
7.58407
7.53352
7.47697
7.41456
7.3464
7.27266
7.19341
7.10887
7.01935
6.9252
6.82687
6.72519
6.62029
6.51276
6.4035
6.29205
6.17944
6.0663
5.95335
5.84096
5.72974
5.62021
5.51269
5.40752
5.30491
5.20496
5.10767
5.01296
4.92068
4.83063
4.74256
4.65624
4.57142
4.48786
4.40536
4.32373
4.24282
4.16251
4.0827
4.00335
3.92442
3.846
3.76816
3.69097
3.61449
3.53881
3.464
3.39015
3.31746
3.24603
3.17592
3.10715
3.03977
2.97374
2.90936
2.84661
2.78547
2.72596
2.66807
2.61181
2.55728
2.50443
2.45324
2.4037
2.35581
2.30955
2.26496
2.22205
2.1808
2.14126
2.10342
2.06734
2.03292
1.99941
0.248326
0.348147
0.416079
0.469366
0.515154
0.556603
0.595393
0.632552
0.668767
0.70452
0.740159
0.775969
0.812177
0.84895
0.886417
0.924677
0.963809
1.00388
1.04493
1.08702
1.1302
1.17451
1.21999
1.26669
1.31468
1.36402
1.41477
1.46697
1.52072
1.57609
1.63316
1.69199
1.75263
1.81518
1.87967
1.94616
2.01469
2.08528
2.15792
2.23273
2.3097
2.38882
2.47009
2.55349
2.63903
2.72667
2.8164
2.90821
3.00206
3.09793
3.19582
3.29568
3.39752
3.50131
3.60703
3.71467
3.82421
3.9356
4.04882
4.16386
4.28067
4.39921
4.5194
4.64117
4.76444
4.88913
5.01508
5.14216
5.27017
5.39893
5.52817
5.65762
5.78699
5.91594
6.0441
6.17109
6.29651
6.41992
6.54091
6.65901
6.7738
6.88483
6.99169
7.09396
7.19125
7.2832
7.36947
7.44975
7.52378
7.59133
7.65219
7.7062
7.75326
7.79329
7.82624
7.85212
7.87093
7.8827
7.88745
7.88606
7.87815
7.86312
7.84112
7.81217
7.77629
7.73354
7.68391
7.62749
7.56435
7.4946
7.41836
7.33586
7.24743
7.15333
7.05378
6.94923
6.84034
6.7269
6.60969
6.48942
6.36675
6.24217
6.11647
5.99045
5.86493
5.74062
5.61825
5.49851
5.38192
5.26893
5.15986
5.05489
4.95405
4.85727
4.76434
4.675
4.5889
4.50568
4.42496
4.34637
4.26955
4.19416
4.11993
4.04661
3.97399
3.90192
3.83031
3.75914
3.6884
3.61812
3.54835
3.47914
3.41055
3.34266
3.27561
3.20949
3.14436
3.08027
3.01727
2.95542
2.89484
2.83558
2.77766
2.72111
2.66593
2.6121
2.55977