/*--------------------------------*- C++ -*----------------------------------*\
  =========                 |
  \\      /  F ield         | OpenFOAM: The Open Source CFD Toolbox
   \\    /   O peration     | Website:  https://openfoam.org
    \\  /    A nd           | Version:  9
     \\/     M anipulation  |
\*---------------------------------------------------------------------------*/
FoamFile
{
    format      ascii;
    class       volScalarField;
    location    "100";
    object      nut;
}
// * * * * * * * * * * * * * * * * * * * * * * * * * * * * * * * * * * * * * //

dimensions      [0 2 -1 0 0 0 0];

internalField   nonuniform List<scalar> 
12225
(
4.14924e-05
3.93417e-05
3.74815e-05
3.54351e-05
3.37808e-05
3.24256e-05
3.15037e-05
3.09147e-05
3.09201e-05
3.10966e-05
3.15799e-05
3.2104e-05
3.31744e-05
3.38524e-05
3.50785e-05
3.60652e-05
3.66878e-05
3.97247e-05
0.000332259
0.000215134
0.000179291
0.000157641
0.000146234
0.000138164
0.000132678
0.000131734
0.000129404
0.000130171
0.000128933
0.000129562
0.000128546
0.000128692
0.000127949
0.000127768
0.000127495
0.000126529
0.000668776
0.000450541
0.000355823
0.000309746
0.000275337
0.000251005
0.000231732
0.000217178
0.000202607
0.000192049
0.000182523
0.000175034
0.000169285
0.000163356
0.000160196
0.000155023
0.000153626
0.000148955
0.000801645
0.00069157
0.000572672
0.000499945
0.000449456
0.000411863
0.000380813
0.000355866
0.000333989
0.000314578
0.000298292
0.000281312
0.000270191
0.000255574
0.000247851
0.000235414
0.000229737
0.000219049
0.000839616
0.000810134
0.000740802
0.000676305
0.000624005
0.000581266
0.000545907
0.000514407
0.000489506
0.00046421
0.000445773
0.000423728
0.000409685
0.000390309
0.000379323
0.000362238
0.000353744
0.000337712
0.000850345
0.000843264
0.000819563
0.000786476
0.000750836
0.000715795
0.000685784
0.000656007
0.000632524
0.000607332
0.000588884
0.00056696
0.000552002
0.000532636
0.000520228
0.000502847
0.000492638
0.000475817
0.000851581
0.000851014
0.000843301
0.000833456
0.000817146
0.000796902
0.000777882
0.000756654
0.000738871
0.000719017
0.000703427
0.000685404
0.000671881
0.000655544
0.000643851
0.00062879
0.000619005
0.000603814
0.000851584
0.000851811
0.000850043
0.000847451
0.000841408
0.000833746
0.000824806
0.000813396
0.000802789
0.000790396
0.000779636
0.000767396
0.000757252
0.000745514
0.00073622
0.000724983
0.00071689
0.000705058
0.000851675
0.000851527
0.000851019
0.000850338
0.000848877
0.000846165
0.000843025
0.000838285
0.000833387
0.000827323
0.000821164
0.00081469
0.000808323
0.000801345
0.000795088
0.000788029
0.000782167
0.000774393
0.000851756
0.000851384
0.000851045
0.000850631
0.000850248
0.000849364
0.000848404
0.000846772
0.000844946
0.000842512
0.000839897
0.000836757
0.000833738
0.000830067
0.000826861
0.000822765
0.000819728
0.000815009
0.000851785
0.000851357
0.000851013
0.000850613
0.00085033
0.000849903
0.000849525
0.000848925
0.000848298
0.000847384
0.000846453
0.000845156
0.000843962
0.000842311
0.000840943
0.000838958
0.000837552
0.000835241
0.000851789
0.000851359
0.000850996
0.000850605
0.000850292
0.000849938
0.000849645
0.000849278
0.000848952
0.000848499
0.000848091
0.000847496
0.000846983
0.000846223
0.000845616
0.000844687
0.000844019
0.000842925
0.000851786
0.000851363
0.000850986
0.000850604
0.000850269
0.000849926
0.000849629
0.000849312
0.00084904
0.000848725
0.000848458
0.00084812
0.000847836
0.000847455
0.000847145
0.000846711
0.000846372
0.000845884
0.000851783
0.000851364
0.000850978
0.000850602
0.000850256
0.000849917
0.000849607
0.000849299
0.000849021
0.000848739
0.000848486
0.000848221
0.000847985
0.000847731
0.000847504
0.000847253
0.00084703
0.00084678
0.000851781
0.000851364
0.000850973
0.000850598
0.000850247
0.000849909
0.000849592
0.000849287
0.000849
0.000848723
0.000848463
0.000848211
0.000847975
0.000847744
0.000847528
0.000847317
0.000847118
0.000846923
0.00085178
0.000851363
0.000850969
0.000850594
0.000850239
0.000849901
0.000849581
0.000849275
0.000848985
0.000848708
0.000848445
0.000848193
0.000847953
0.000847724
0.000847506
0.000847297
0.000847099
0.000846909
0.000851779
0.000851363
0.000850967
0.000850591
0.000850234
0.000849895
0.000849573
0.000849266
0.000848974
0.000848696
0.000848431
0.000848178
0.000847936
0.000847706
0.000847486
0.000847276
0.000847075
0.000846883
0.000851779
0.000851362
0.000850965
0.000850589
0.000850231
0.000849891
0.000849568
0.00084926
0.000848967
0.000848687
0.000848421
0.000848167
0.000847924
0.000847692
0.000847471
0.000847259
0.000847057
0.000846864
0.000851779
0.000851362
0.000850965
0.000850588
0.00085023
0.00084989
0.000849566
0.000849257
0.000848963
0.000848683
0.000848416
0.000848161
0.000847918
0.000847685
0.000847463
0.00084725
0.000847047
0.000846852
0.000851779
0.000851362
0.000850966
0.000850589
0.000850232
0.000849892
0.000849568
0.00084926
0.000848967
0.000848687
0.00084842
0.000848165
0.000847921
0.000847688
0.000847465
0.000847252
0.000847048
0.000846853
0.000851779
0.000851363
0.000850967
0.000850592
0.000850235
0.000849897
0.000849574
0.000849268
0.000848974
0.000848696
0.000848426
0.000848172
0.000847923
0.000847688
0.000847456
0.000847238
0.00084702
0.000846815
0.000851778
0.000851366
0.000850968
0.000850599
0.00085024
0.000849908
0.000849581
0.000849275
0.000848966
0.000848673
0.000848367
0.000848075
0.00084776
0.000847461
0.000847129
0.000846819
0.000846466
0.000846146
0.000851773
0.000851376
0.000850971
0.000850615
0.000850241
0.00084989
0.000849479
0.000849055
0.000848531
0.000847981
0.000847305
0.000846609
0.000845773
0.000844947
0.000843965
0.000843042
0.000841934
0.000840959
0.000851768
0.000851415
0.000850964
0.000850548
0.000849861
0.000848967
0.000847612
0.000845978
0.000843909
0.000841642
0.000838963
0.000836225
0.000833131
0.000830132
0.000826787
0.000823709
0.000820221
0.000817222
0.000851859
0.000851379
0.000850196
0.000848243
0.000844471
0.000839356
0.000832769
0.000825665
0.000817972
0.000810024
0.000801637
0.000793651
0.000785364
0.000777746
0.000769793
0.00076276
0.000755196
0.000748882
0.000852108
0.000847667
0.000839903
0.000827144
0.000808715
0.000789647
0.000769988
0.000751422
0.000733327
0.000716917
0.00070097
0.000686819
0.000672884
0.000660732
0.000648457
0.000638032
0.000627065
0.000618149
0.000843241
0.000822505
0.000775192
0.000726454
0.000684908
0.000649852
0.000618482
0.00059203
0.000568414
0.000548336
0.000529737
0.000514034
0.000498821
0.000486086
0.000473297
0.00046281
0.000451754
0.000442947
0.000795683
0.00066824
0.000570633
0.000509904
0.000465618
0.000431186
0.000404167
0.000382492
0.000364231
0.00034909
0.000335986
0.000325096
0.000314573
0.000306289
0.00029804
0.000291448
0.000284389
0.000279043
0.000501314
0.000348357
0.000292675
0.000259181
0.000236329
0.000221179
0.00021163
0.000203861
0.000198576
0.000195083
0.000192235
0.000190377
0.000188598
0.000187453
0.000186185
0.00018549
0.000184577
0.000184166
7.27386e-05
7.02253e-05
6.79544e-05
6.56135e-05
6.3383e-05
6.1276e-05
5.94945e-05
5.79549e-05
5.67108e-05
5.57026e-05
5.49767e-05
5.44165e-05
5.41073e-05
5.38779e-05
5.3891e-05
5.39266e-05
5.40875e-05
5.4315e-05
3.75044e-06
4.92077e-05
7.35921e-05
9.49834e-05
0.000114171
0.000131603
0.000147765
0.000162937
0.000177875
0.00019415
0.00021521
0.000233768
0.000245263
0.00025503
0.000276838
0.000360114
0.000422285
0.000432386
0.000409213
0.000367192
0.000298394
4.81411e-05
5.10486e-05
5.31777e-05
5.55066e-05
5.77372e-05
5.99357e-05
6.21068e-05
6.42525e-05
6.63658e-05
6.84443e-05
7.04794e-05
7.24699e-05
7.44095e-05
7.62987e-05
7.81343e-05
7.9918e-05
8.16482e-05
8.33278e-05
8.49561e-05
8.65368e-05
8.80696e-05
8.95584e-05
9.10036e-05
9.24094e-05
9.37762e-05
9.51069e-05
9.64024e-05
9.7665e-05
9.88957e-05
0.000100096
0.000101267
0.00010241
0.000103525
0.000104613
0.000105675
0.00010671
0.000107721
0.000108705
0.000109664
0.000110597
0.000111505
0.000112387
0.000113244
0.000114073
0.000114879
0.000115657
0.000116411
0.000117139
0.000117841
0.000118516
0.000119164
0.000119783
0.000120377
0.000120942
0.000121483
0.000121997
0.000122489
0.000122955
0.000123401
0.000123825
0.000124231
0.000124618
0.000124988
0.000125338
0.000125667
0.000125959
0.000126192
0.000126306
0.000126172
0.000125104
0.000128837
0.000128773
0.000126638
0.000129882
0.000127664
0.000131161
0.000129903
0.000130744
0.000130786
0.000130979
0.000131299
0.000131614
0.000131934
0.000129144
0.000130532
0.000132162
0.000132202
0.000133817
0.000133441
0.000133103
0.000131705
0.000132659
0.00013213
0.000133668
0.000134939
0.000134138
0.000132695
0.000133347
0.000132813
0.000134206
0.000133573
0.00013359
0.000133238
0.000132924
0.000132523
0.000132067
0.000131558
0.000130984
0.000130336
0.000129613
0.000128816
0.00012794
0.000126987
0.000125999
0.0001249
0.000123727
0.000122477
0.00012115
0.000119761
0.000118326
0.000116777
0.000115133
0.000113689
0.000111595
0.000109045
0.000107684
0.000106525
0.000105372
0.000104194
0.000103004
0.000101797
0.000100583
9.94051e-05
9.8199e-05
9.69128e-05
9.56948e-05
9.45215e-05
9.33265e-05
9.21227e-05
9.09198e-05
8.97365e-05
8.85838e-05
8.74541e-05
8.63444e-05
8.52617e-05
8.42067e-05
8.31784e-05
8.21781e-05
8.1206e-05
8.02615e-05
7.93426e-05
7.84503e-05
7.75701e-05
7.67317e-05
7.58288e-05
7.51012e-05
7.39245e-05
7.32791e-05
7.09432e-05
8.50112e-06
7.40236e-05
0.000149682
0.0002088
0.000252733
0.000285198
0.000308878
0.000326455
0.000340242
0.000351776
0.000361453
0.000368741
0.000373615
0.000377599
0.000383048
0.000391994
0.000399391
0.000400297
0.000392733
0.000375675
0.000349259
0.000315187
0.000320033
0.000331072
0.000343726
0.000357177
0.000371306
0.000386182
0.000401779
0.000418014
0.000434781
0.000451981
0.000469495
0.000487217
0.000505031
0.000522855
0.000540595
0.000558186
0.000575557
0.000592664
0.00060946
0.000625917
0.000641999
0.00065769
0.000673029
0.000688022
0.000702666
0.000716973
0.000730947
0.000744601
0.000757941
0.00077098
0.000783721
0.000796177
0.000808349
0.000820244
0.000831862
0.000843205
0.000854271
0.000865058
0.000875561
0.000885776
0.000895695
0.000905311
0.000914617
0.000923605
0.000932268
0.000940602
0.000948605
0.00095628
0.00096361
0.000970541
0.000977074
0.000983195
0.000988909
0.000994205
0.000999095
0.00100357
0.00100766
0.00101136
0.00101472
0.00101773
0.00102045
0.00102292
0.00102519
0.00102733
0.00102942
0.00103157
0.00103396
0.0010368
0.00104042
0.00104559
0.00104584
0.00104494
0.00104943
0.0010491
0.00105375
0.00105336
0.00105751
0.00106075
0.00106577
0.00107129
0.00107726
0.00108288
0.00108597
0.00109589
0.00110635
0.00110177
0.00110841
0.00111184
0.00111755
0.00112424
0.00113557
0.00113887
0.00114572
0.00114527
0.0011475
0.00115892
0.00116437
0.00116169
0.0011718
0.00117439
0.00118114
0.00118536
0.00118916
0.00119228
0.00119472
0.00119646
0.00119753
0.00119752
0.00119654
0.00119454
0.0011915
0.0011874
0.00118239
0.00117635
0.00116936
0.00116145
0.00115266
0.00114303
0.00113272
0.00112164
0.00110956
0.00109766
0.00108468
0.00106677
0.00104723
0.00102695
0.00100634
0.000985593
0.000964877
0.000944304
0.00092387
0.000903681
0.000883856
0.000864283
0.000845208
0.000826932
0.000809109
0.000791569
0.000774469
0.000757889
0.000741815
0.000726124
0.000710852
0.000696051
0.000681689
0.000667757
0.000654257
0.000641179
0.000628483
0.000616187
0.00060415
0.000592555
0.000580896
0.0005698
0.00055823
0.000545951
0.000526638
0.000474613
1.53147e-05
0.000107008
0.000209573
0.000293279
0.000358239
0.00040739
0.000443607
0.000469383
0.000487023
0.000498959
0.000507745
0.000514839
0.000521377
0.000528569
0.000537615
0.000549216
0.000562532
0.000575979
0.000588176
0.000598586
0.000608081
0.000619799
0.000639228
0.00066313
0.000689479
0.000717527
0.00074768
0.00077967
0.000812788
0.000846745
0.000881342
0.000916412
0.000951777
0.000987243
0.00102261
0.00105778
0.00109264
0.0011271
0.00116107
0.00119449
0.00122731
0.00125951
0.00129107
0.00132197
0.00135223
0.00138186
0.00141086
0.00143925
0.00146704
0.00149425
0.00152089
0.00154698
0.00157252
0.00159754
0.00162205
0.00164604
0.00166953
0.00169251
0.00171499
0.00173696
0.00175842
0.00177936
0.00179977
0.00181964
0.00183895
0.00185769
0.00187584
0.00189339
0.00191033
0.00192664
0.0019423
0.00195728
0.00197156
0.00198515
0.00199803
0.00201019
0.00202164
0.00203238
0.00204243
0.00205182
0.00206056
0.00206871
0.00207631
0.00208343
0.00209015
0.00209655
0.00210273
0.00210878
0.0021148
0.00212078
0.0021266
0.00213174
0.00213474
0.00213789
0.00214276
0.00214604
0.002151
0.0021546
0.00216055
0.00216643
0.00217346
0.00218083
0.00218841
0.00219592
0.00220304
0.00221285
0.0022206
0.00222314
0.00223193
0.0022395
0.00224876
0.00225902
0.00227022
0.00227772
0.00228607
0.00229135
0.00229912
0.00231063
0.00231987
0.00232361
0.00233145
0.0023367
0.00234331
0.00234842
0.00235232
0.00235486
0.00235595
0.00235546
0.00235332
0.00234929
0.00234337
0.00233549
0.00232563
0.00231378
0.00230006
0.00228443
0.00226696
0.00224775
0.00222689
0.00220449
0.00218071
0.00215559
0.0021291
0.00210189
0.00207349
0.00204143
0.00200711
0.00197153
0.00193531
0.00189881
0.00186228
0.00182593
0.00178982
0.00175421
0.0017194
0.00168528
0.00165228
0.00162094
0.00159031
0.00155987
0.00153032
0.00150179
0.00147422
0.00144713
0.00142075
0.00139521
0.0013704
0.00134628
0.00132288
0.00130015
0.00127803
0.00125651
0.00123538
0.00121482
0.00119421
0.00117421
0.00115326
0.00113225
0.0011061
0.00103977
2.29856e-05
0.000138345
0.000263489
0.00036711
0.000449077
0.000512118
0.000559614
0.000594732
0.000620441
0.000639512
0.000654375
0.000667049
0.000679298
0.000692583
0.000708055
0.000726388
0.000747585
0.000771113
0.000796306
0.000822801
0.000850887
0.000881667
0.000916055
0.000953625
0.000993847
0.00103643
0.00108057
0.00112582
0.00117214
0.00121932
0.00126712
0.00131547
0.00136425
0.00141336
0.00146235
0.00151104
0.00155926
0.00160691
0.00165391
0.0017002
0.00174571
0.00179042
0.00183432
0.00187739
0.00191963
0.00196105
0.00200165
0.00204146
0.00208049
0.00211874
0.00215625
0.00219302
0.00222908
0.00226443
0.00229909
0.00233307
0.00236637
0.002399
0.00243096
0.00246224
0.00249285
0.00252276
0.00255197
0.00258047
0.00260823
0.00263524
0.00266149
0.00268694
0.00271158
0.00273539
0.00275835
0.00278042
0.0028016
0.00282187
0.00284123
0.00285965
0.00287715
0.00289372
0.00290939
0.00292417
0.0029381
0.00295121
0.00296356
0.00297521
0.00298623
0.0029967
0.00300668
0.00301623
0.00302536
0.00303402
0.00304207
0.00304929
0.00305557
0.00306175
0.00306818
0.00307419
0.00308056
0.00308676
0.00309374
0.00310091
0.00310851
0.00311629
0.00312414
0.003132
0.0031399
0.00314829
0.0031555
0.0031615
0.00316963
0.00317779
0.00318686
0.00319643
0.00320594
0.00321474
0.00322338
0.00323017
0.00323877
0.00324944
0.00325613
0.00326077
0.00326698
0.00327211
0.00327676
0.00328003
0.00328177
0.00328179
0.00328009
0.00327639
0.00327052
0.00326232
0.00325169
0.00323857
0.00322293
0.00320476
0.00318411
0.00316102
0.00313556
0.00310785
0.003078
0.00304615
0.00301247
0.0029771
0.00294016
0.00290195
0.00286228
0.0028201
0.00277592
0.00273042
0.00268416
0.00263754
0.00259083
0.00254428
0.00249803
0.00245233
0.00240745
0.00236343
0.00232048
0.00227894
0.00223859
0.00219974
0.00216253
0.00212683
0.00209258
0.00205852
0.00202545
0.00199359
0.00196262
0.00193248
0.00190328
0.00187492
0.00184727
0.0018203
0.00179382
0.00176789
0.00174206
0.00171668
0.0016906
0.00166373
0.00163856
0.00157059
3.09344e-05
0.000166013
0.000312207
0.000434134
0.000532001
0.000608491
0.000667543
0.00071279
0.000747534
0.000774758
0.000797124
0.000816938
0.000836146
0.000856315
0.000878623
0.000903814
0.000932186
0.000963672
0.00099802
0.00103501
0.00107464
0.00111707
0.00116242
0.00121052
0.00126108
0.00131379
0.00136824
0.0014241
0.00148116
0.0015392
0.00159799
0.00165721
0.0017166
0.00177588
0.00183486
0.00189344
0.00195151
0.00200895
0.00206567
0.0021216
0.0021767
0.00223091
0.00228422
0.00233661
0.00238808
0.00243862
0.00248823
0.00253694
0.00258476
0.00263169
0.00267776
0.00272299
0.00276739
0.00281097
0.00285375
0.00289574
0.00293694
0.00297736
0.00301701
0.00305587
0.00309395
0.00313123
0.00316771
0.00320336
0.00323817
0.00327211
0.00330517
0.00333732
0.00336853
0.00339879
0.00342805
0.0034563
0.00348351
0.00350967
0.00353475
0.00355874
0.00358164
0.00360344
0.00362415
0.00364378
0.00366235
0.0036799
0.00369646
0.00371208
0.00372681
0.00374071
0.00375382
0.00376618
0.00377781
0.00378866
0.00379866
0.00380779
0.00381612
0.00382398
0.00383152
0.00383866
0.00384562
0.00385238
0.00385919
0.00386595
0.00387271
0.00387941
0.00388602
0.00389256
0.00389908
0.00390557
0.00391157
0.00391727
0.00392352
0.00392997
0.00393708
0.00394438
0.00395134
0.00395884
0.00396669
0.00397319
0.00397943
0.00398507
0.00398977
0.00399372
0.00399757
0.00400055
0.00400259
0.00400324
0.00400227
0.00399942
0.00399469
0.00398778
0.0039785
0.00396669
0.00395223
0.00393502
0.00391502
0.0038922
0.0038666
0.00383826
0.00380726
0.0037737
0.00373772
0.00369948
0.00365919
0.003617
0.00357308
0.00352761
0.00348055
0.00343156
0.00338089
0.003329
0.00327634
0.00322328
0.0031701
0.00311706
0.00306436
0.00301221
0.00296086
0.00291043
0.00286106
0.00281299
0.00276619
0.00272083
0.00267706
0.0026352
0.0025956
0.00255744
0.00252083
0.00248581
0.0024517
0.00241842
0.00238627
0.00235513
0.0023247
0.00229494
0.00226569
0.00223697
0.00220848
0.00218033
0.00215187
0.00212242
0.00209641
0.00203044
3.87394e-05
0.000191083
0.00035604
0.000494905
0.000607428
0.000696945
0.000767427
0.000822919
0.00086699
0.000902799
0.000933137
0.00096042
0.000986681
0.00101356
0.00104227
0.00107367
0.00110822
0.00114608
0.00118722
0.00123155
0.00127894
0.00132931
0.00138254
0.00143842
0.00149668
0.00155703
0.00161914
0.0016827
0.00174744
0.00181308
0.00187936
0.00194601
0.00201278
0.00207945
0.00214584
0.0022118
0.00227722
0.00234198
0.002406
0.00246921
0.00253154
0.00259296
0.00265344
0.00271296
0.0027715
0.00282907
0.00288567
0.00294131
0.002996
0.00304976
0.00310259
0.00315452
0.00320557
0.00325575
0.00330506
0.00335354
0.00340117
0.00344797
0.00349394
0.00353907
0.00358337
0.00362682
0.0036694
0.00371111
0.00375191
0.0037918
0.00383073
0.00386868
0.00390562
0.00394152
0.00397635
0.00401007
0.00404265
0.00407406
0.00410428
0.00413328
0.00416104
0.00418755
0.0042128
0.00423679
0.00425953
0.00428103
0.00430132
0.00432041
0.00433835
0.00435517
0.0043709
0.00438557
0.00439919
0.00441176
0.00442326
0.00443372
0.00444321
0.00445188
0.00445984
0.00446714
0.00447386
0.00448006
0.00448585
0.00449125
0.0044963
0.004501
0.00450535
0.00450942
0.00451327
0.00451689
0.00452019
0.0045233
0.00452623
0.004529
0.00453277
0.00453782
0.00454183
0.00454528
0.00454781
0.00455046
0.00455271
0.00455468
0.00455605
0.00455688
0.00455727
0.00455689
0.00455553
0.00455292
0.00454881
0.004543
0.00453528
0.00452545
0.00451328
0.00449862
0.00448129
0.00446121
0.00443828
0.00441248
0.00438381
0.00435229
0.00431799
0.00428103
0.00424153
0.00419967
0.00415561
0.00410954
0.00406164
0.00401207
0.0039609
0.0039081
0.00385387
0.00379853
0.00374243
0.0036859
0.0036292
0.00357259
0.00351629
0.00346051
0.00340546
0.00335129
0.00329816
0.00324622
0.00319553
0.00314621
0.0030984
0.00305228
0.00300807
0.00296605
0.00292629
0.00288871
0.00285291
0.00281863
0.00278576
0.00275373
0.00272228
0.00269149
0.00266117
0.00263132
0.00260177
0.00257252
0.0025432
0.00251316
0.00248608
0.00242745
4.6166e-05
0.000213265
0.000394678
0.000548974
0.000675047
0.000776883
0.000858394
0.000923898
0.000977155
0.00102145
0.00105965
0.00109421
0.00112723
0.00116038
0.00119496
0.00123188
0.00127172
0.00131481
0.00136123
0.00141096
0.00146389
0.00151986
0.00157867
0.00164008
0.00170383
0.0017696
0.00183709
0.001906
0.00197605
0.00204695
0.00211844
0.00219028
0.00226223
0.0023341
0.00240571
0.00247692
0.0025476
0.00261764
0.00268695
0.00275547
0.00282313
0.00288989
0.00295572
0.0030206
0.00308451
0.00314745
0.00320941
0.00327042
0.00333047
0.00338957
0.00344776
0.00350503
0.00356141
0.00361692
0.00367156
0.00372534
0.00377829
0.0038304
0.00388167
0.0039321
0.00398169
0.00403043
0.00407829
0.00412527
0.00417134
0.00421646
0.00426061
0.00430376
0.00434587
0.00438689
0.00442678
0.00446551
0.00450303
0.0045393
0.00457428
0.00460793
0.00464021
0.00467111
0.00470058
0.00472862
0.0047552
0.00478033
0.00480401
0.00482624
0.00484703
0.00486641
0.00488439
0.00490099
0.00491622
0.00493009
0.00494261
0.00495381
0.00496376
0.00497254
0.00498023
0.00498689
0.0049926
0.00499742
0.00500142
0.00500465
0.00500715
0.00500901
0.00501017
0.00501078
0.00501099
0.00501071
0.00501003
0.00500931
0.00500833
0.00500694
0.00500598
0.00500503
0.00500365
0.00500184
0.00499968
0.00499731
0.00499469
0.00499184
0.00498866
0.00498513
0.0049812
0.00497669
0.00497139
0.0049651
0.00495758
0.00494862
0.00493801
0.00492551
0.00491092
0.00489403
0.00487467
0.0048527
0.00482801
0.00480054
0.00477027
0.0047372
0.00470138
0.00466291
0.0046219
0.00457849
0.00453285
0.00448515
0.00443557
0.00438428
0.00433139
0.00427702
0.00422136
0.00416465
0.00410719
0.00404926
0.00399111
0.00393297
0.00387508
0.00381765
0.00376088
0.00370494
0.00364997
0.00359609
0.00354339
0.00349199
0.00344201
0.00339358
0.00334686
0.00330203
0.00325946
0.00321976
0.0031826
0.00314757
0.00311432
0.00308238
0.00305145
0.00302115
0.0029911
0.00296145
0.00293207
0.00290295
0.00287389
0.00284442
0.00281689
0.00276598
5.30161e-05
0.000232377
0.000427882
0.000595935
0.000734398
0.000847754
0.000939757
0.00101489
0.00107703
0.00112955
0.00117534
0.00121689
0.00125631
0.0012953
0.0013352
0.001377
0.00142137
0.00146872
0.00151924
0.00157296
0.0016298
0.00168962
0.00175221
0.00181731
0.00188466
0.00195396
0.00202492
0.00209725
0.00217067
0.00224492
0.00231974
0.0023949
0.0024702
0.00254545
0.00262047
0.00269514
0.00276933
0.00284293
0.00291585
0.00298804
0.00305942
0.00312995
0.0031996
0.00326834
0.00333617
0.00340306
0.00346903
0.00353407
0.0035982
0.00366143
0.00372377
0.00378523
0.00384585
0.00390562
0.00396457
0.00402271
0.00408005
0.00413659
0.00419234
0.00424729
0.00430144
0.00435477
0.00440728
0.00445893
0.00450969
0.00455955
0.00460845
0.00465636
0.00470323
0.00474901
0.00479365
0.0048371
0.00487929
0.00492018
0.0049597
0.00499781
0.00503444
0.00506955
0.00510309
0.00513502
0.00516531
0.00519392
0.00522085
0.00524606
0.00526956
0.00529134
0.00531141
0.00532975
0.0053464
0.00536134
0.00537461
0.00538623
0.00539624
0.00540471
0.0054117
0.00541728
0.00542152
0.00542446
0.00542618
0.00542673
0.00542614
0.00542465
0.00542195
0.00541833
0.0054143
0.00540997
0.00540469
0.00539887
0.00539246
0.00538567
0.00537872
0.00537154
0.00536403
0.00535619
0.00534809
0.00533982
0.00533142
0.00532293
0.00531433
0.0053056
0.00529669
0.00528748
0.00527781
0.00526751
0.00525638
0.00524421
0.00523078
0.00521585
0.0051992
0.0051806
0.00515984
0.00513677
0.00511124
0.00508315
0.00505244
0.0050191
0.00498316
0.00494467
0.00490372
0.00486041
0.00481489
0.00476731
0.00471784
0.00466663
0.00461384
0.00455963
0.00450417
0.0044477
0.00439046
0.00433269
0.00427463
0.0042165
0.00415852
0.00410092
0.0040439
0.00398764
0.00393226
0.00387787
0.00382457
0.00377249
0.00372173
0.00367241
0.00362466
0.00357861
0.00353451
0.00349309
0.003455
0.00341955
0.00338622
0.00335454
0.00332416
0.00329471
0.00326591
0.00323742
0.00320908
0.0031809
0.00315279
0.00312453
0.00309732
0.00305315
5.91318e-05
0.000248349
0.000455589
0.000635624
0.000785231
0.000909176
0.001011
0.00109526
0.00116588
0.00122626
0.00127931
0.00132752
0.00137296
0.00141737
0.00146211
0.0015082
0.0015564
0.00160718
0.0016608
0.00171736
0.00177683
0.00183909
0.00190396
0.0019712
0.00204057
0.00211178
0.00218458
0.00225868
0.00233382
0.00240977
0.00248629
0.00256316
0.0026402
0.00271722
0.00279409
0.00287065
0.00294681
0.00302245
0.0030975
0.00317189
0.00324555
0.00331845
0.00339054
0.00346181
0.00353224
0.00360182
0.00367055
0.00373843
0.00380547
0.00387169
0.0039371
0.00400172
0.00406556
0.00412866
0.00419101
0.00425264
0.00431355
0.00437375
0.00443325
0.00449204
0.00455012
0.00460747
0.00466407
0.0047199
0.00477492
0.0048291
0.00488239
0.00493475
0.00498612
0.00503643
0.00508562
0.00513363
0.00518038
0.00522579
0.0052698
0.00531232
0.00535328
0.00539261
0.00543023
0.00546609
0.00550013
0.00553228
0.00556251
0.00559077
0.00561703
0.00564127
0.00566347
0.00568361
0.00570171
0.00571774
0.00573174
0.00574371
0.0057537
0.00576175
0.00576792
0.00577226
0.00577485
0.00577574
0.005775
0.00577269
0.00576862
0.00576303
0.00575642
0.00574892
0.00574061
0.00573098
0.00572033
0.00570881
0.00569651
0.00568357
0.00567016
0.00565633
0.00564211
0.00562757
0.00561282
0.00559797
0.00558311
0.00556831
0.00555362
0.00553906
0.00552463
0.00551025
0.00549583
0.00548123
0.00546629
0.00545082
0.00543459
0.00541739
0.00539894
0.005379
0.00535735
0.00533379
0.00530814
0.00528026
0.00525005
0.00521748
0.00518254
0.00514523
0.0051056
0.00506371
0.00501968
0.00497361
0.00492566
0.00487597
0.00482469
0.00477199
0.00471806
0.0046631
0.00460732
0.00455094
0.00449417
0.00443722
0.00438032
0.00432369
0.00426755
0.00421209
0.0041574
0.00410359
0.00405077
0.00399906
0.00394857
0.00389943
0.00385174
0.00380562
0.00376126
0.00371917
0.00368068
0.00364523
0.00361213
0.00358088
0.00355112
0.0035225
0.00349477
0.00346767
0.00344101
0.00341433
0.00338763
0.00336088
0.00333456
0.00329598
6.44043e-05
0.000261209
0.000477875
0.000668048
0.000827441
0.000960896
0.00107174
0.00116447
0.00124304
0.00131082
0.00137069
0.00142513
0.0014762
0.00152559
0.00157469
0.00162454
0.00167594
0.00172941
0.00178528
0.00184371
0.00190471
0.00196823
0.00203411
0.00210217
0.00217218
0.00224389
0.00231708
0.00239149
0.00246689
0.00254307
0.0026198
0.00269691
0.00277421
0.00285156
0.0029288
0.00300583
0.00308252
0.0031588
0.00323457
0.00330978
0.00338436
0.00345828
0.00353151
0.00360402
0.00367579
0.00374682
0.00381711
0.00388667
0.0039555
0.00402362
0.00409105
0.00415781
0.00422392
0.00428941
0.00435429
0.00441857
0.00448228
0.00454541
0.00460798
0.00466997
0.00473139
0.00479222
0.00485244
0.00491202
0.00497093
0.00502911
0.00508653
0.00514311
0.0051988
0.00525351
0.00530718
0.00535971
0.00541102
0.00546101
0.00550958
0.00555663
0.00560207
0.00564579
0.00568771
0.00572771
0.00576573
0.00580168
0.00583547
0.00586705
0.00589636
0.00592334
0.00594796
0.00597019
0.00599
0.00600738
0.00602234
0.00603488
0.00604503
0.00605283
0.00605832
0.00606155
0.00606261
0.00606155
0.00605845
0.00605302
0.00604561
0.00603665
0.00602631
0.00601452
0.00600111
0.00598621
0.00596998
0.00595255
0.00593406
0.00591466
0.00589452
0.00587375
0.00585248
0.00583084
0.00580898
0.00578707
0.00576523
0.00574361
0.00572232
0.00570144
0.00568101
0.00566105
0.00564151
0.00562231
0.00560333
0.0055844
0.00556533
0.0055459
0.0055258
0.00550478
0.00548258
0.00545899
0.00543378
0.00540677
0.0053778
0.00534682
0.00531378
0.00527864
0.00524136
0.00520198
0.00516054
0.00511713
0.00507184
0.00502482
0.00497619
0.00492612
0.00487478
0.00482237
0.00476909
0.0047151
0.0046606
0.00460579
0.00455089
0.00449614
0.00444179
0.00438803
0.00433492
0.00428256
0.00423106
0.00418054
0.00413115
0.00408303
0.00403626
0.00399094
0.00394725
0.00390564
0.0038675
0.00383251
0.00379995
0.00376933
0.00374028
0.0037125
0.00368577
0.00365988
0.00363465
0.00360981
0.00358476
0.00355964
0.00353455
0.00350062
6.87649e-05
0.000271053
0.000494905
0.000693293
0.000860998
0.00100264
0.00112165
0.00122208
0.00130789
0.00138243
0.00144856
0.0015087
0.00156486
0.00161874
0.00167167
0.00172472
0.0017787
0.00183418
0.00189152
0.00195095
0.00201255
0.00207628
0.00214207
0.00220976
0.00227917
0.0023501
0.00242236
0.00249573
0.00257001
0.00264502
0.00272058
0.00279652
0.00287269
0.00294894
0.00302516
0.00310124
0.00317708
0.00325259
0.00332771
0.00340238
0.00347654
0.00355015
0.0036232
0.00369565
0.0037675
0.00383875
0.0039094
0.00397945
0.00404893
0.00411784
0.00418622
0.00425409
0.00432148
0.00438843
0.00445495
0.00452106
0.00458678
0.00465212
0.00471708
0.00478167
0.00484587
0.00490969
0.00497309
0.00503604
0.0050985
0.00516043
0.00522177
0.00528243
0.00534236
0.00540146
0.00545963
0.00551677
0.00557277
0.00562752
0.00568089
0.00573275
0.00578298
0.00583145
0.00587804
0.00592261
0.00596506
0.00600525
0.0060431
0.00607849
0.00611135
0.00614158
0.00616914
0.00619395
0.00621599
0.00623522
0.00625162
0.00626519
0.00627595
0.00628392
0.00628913
0.00629164
0.00629152
0.00628884
0.00628352
0.00627562
0.00626547
0.00625334
0.0062392
0.00622301
0.00620485
0.00618484
0.00616312
0.00613984
0.00611518
0.0060893
0.00606238
0.00603461
0.00600616
0.00597724
0.00594803
0.00591876
0.00588963
0.00586083
0.00583255
0.00580495
0.00577813
0.0057522
0.00572719
0.00570307
0.00567979
0.00565719
0.00563511
0.00561344
0.00559174
0.00556975
0.00554722
0.00552392
0.00549959
0.00547396
0.00544677
0.00541802
0.00538761
0.0053554
0.00532133
0.00528533
0.00524741
0.00520759
0.00516593
0.00512253
0.0050775
0.00503098
0.00498315
0.00493418
0.00488426
0.00483351
0.0047821
0.00473023
0.00467811
0.00462599
0.0045742
0.00452289
0.00447211
0.00442192
0.00437242
0.00432378
0.00427618
0.00422976
0.00418459
0.00414079
0.00409852
0.00405829
0.00402133
0.00398729
0.00395559
0.00392577
0.00389754
0.00387063
0.00384485
0.00382004
0.00379606
0.0037727
0.00374939
0.00372587
0.00370217
0.00367211
7.21873e-05
0.000278056
0.000506998
0.000711751
0.000886365
0.00103483
0.00116068
0.00126773
0.00135984
0.0014403
0.0015119
0.001577
0.00163757
0.00169525
0.00175136
0.00180696
0.00186284
0.0019196
0.00197765
0.00203725
0.00209852
0.00216149
0.00222613
0.00229233
0.00235996
0.00242887
0.0024989
0.00256989
0.00264169
0.00271416
0.00278717
0.00286056
0.00293419
0.00300795
0.00308173
0.00315545
0.00322903
0.00330239
0.00337547
0.0034482
0.00352055
0.00359249
0.003664
0.00373507
0.0038057
0.00387588
0.00394564
0.00401498
0.00408392
0.00415248
0.0042207
0.00428861
0.00435629
0.00442375
0.00449102
0.00455812
0.00462507
0.00469189
0.00475858
0.00482516
0.00489163
0.00495796
0.00502414
0.00509014
0.0051559
0.00522138
0.00528652
0.00535122
0.0054154
0.00547896
0.00554178
0.00560375
0.00566473
0.00572457
0.00578312
0.00584024
0.00589576
0.00594952
0.00600136
0.00605111
0.00609862
0.00614375
0.00618634
0.00622626