/*--------------------------------*- C++ -*----------------------------------*\
  =========                 |
  \\      /  F ield         | OpenFOAM: The Open Source CFD Toolbox
   \\    /   O peration     | Website:  https://openfoam.org
    \\  /    A nd           | Version:  9
     \\/     M anipulation  |
\*---------------------------------------------------------------------------*/
FoamFile
{
    format      ascii;
    class       volScalarField;
    location    "0.1";
    object      epsilon;
}
// * * * * * * * * * * * * * * * * * * * * * * * * * * * * * * * * * * * * * //

dimensions      [0 2 -3 0 0 0 0];

internalField   nonuniform List<scalar> 
1935
(
0.0875899
0.0875783
0.0875678
0.0875532
0.0875313
0.0874975
0.087448
0.0873793
0.0872888
0.0871753
0.0870389
0.086881
0.0867047
0.0865138
0.0863131
0.0861074
0.0859015
0.0856996
0.0855053
0.0853213
0.0851494
0.0849905
0.0848452
0.0847134
0.0845945
0.084488
0.084393
0.0843085
0.0842338
0.084168
0.0841105
0.0840607
0.0840185
0.0839837
0.0839569
0.0839391
0.0839316
0.0839361
0.0839533
0.0839816
0.0840146
0.0840405
0.0840485
0.0871573
0.0867436
0.0863536
0.0860074
0.0871241
0.0866954
0.086297
0.0859459
0.0870912
0.0866495
0.0862433
0.085888
0.0870562
0.0866026
0.0861899
0.0858316
0.0870158
0.0865521
0.0861348
0.0857749
0.0869668
0.0864956
0.0860761
0.0857165
0.0869062
0.0864312
0.0860122
0.0856549
0.0868318
0.0863571
0.0859417
0.0855893
0.0867418
0.086272
0.0858639
0.0855188
0.0866355
0.0861755
0.0857782
0.0854433
0.0865129
0.0860676
0.0856849
0.0853625
0.0863754
0.0859494
0.0855843
0.085277
0.0862251
0.0858223
0.0854777
0.0851873
0.0860647
0.0856882
0.0853664
0.0850945
0.0858978
0.0855497
0.085252
0.0849997
0.0857277
0.0854092
0.0851363
0.084904
0.0855578
0.0852692
0.0850211
0.0848088
0.0853914
0.0851318
0.084908
0.0847153
0.0852309
0.0849991
0.0847984
0.0846243
0.0850784
0.0848725
0.0846934
0.0845369
0.0849353
0.0847532
0.084594
0.0844537
0.0848024
0.0846418
0.0845006
0.0843751
0.0846802
0.0845388
0.0844137
0.0843015
0.0845687
0.0844442
0.0843334
0.0842331
0.0844676
0.0843578
0.0842596
0.0841698
0.0843763
0.0842794
0.0841922
0.0841117
0.0842945
0.0842087
0.0841309
0.0840585
0.0842213
0.0841451
0.0840755
0.0840101
0.0841563
0.0840881
0.0840256
0.0839663
0.0840987
0.0840374
0.0839809
0.0839268
0.084048
0.0839926
0.0839411
0.0838914
0.0840039
0.0839532
0.0839059
0.0838599
0.083966
0.0839191
0.083875
0.0838321
0.0839342
0.0838899
0.0838483
0.0838076
0.0839087
0.0838657
0.0838255
0.0837862
0.0838897
0.0838462
0.0838061
0.0837673
0.0838776
0.0838312
0.0837894
0.08375
0.0838724
0.0838198
0.0837741
0.0837327
0.0838733
0.0838102
0.0837581
0.0837132
0.0838774
0.0837995
0.0837385
0.0836888
0.0838799
0.0837839
0.0837127
0.0836577
0.0838747
0.0837614
0.0836809
0.0836216
0.0838622
0.0837383
0.0836524
0.0835909
0.0857033
0.0854524
0.0852503
0.085079
0.0849263
0.0847853
0.0846526
0.0845272
0.084409
0.0842985
0.084196
0.0841019
0.0840163
0.0839391
0.0838705
0.0838107
0.0837603
0.083721
0.0836955
0.0836891
0.0837102
0.0837721
0.0838954
0.0841102
0.0844601
0.0850056
0.0858299
0.0870445
0.0887973
0.091284
0.0947647
0.0995911
0.106249
0.115434
0.128178
0.146104
0.172018
0.211818
0.285026
0.56234
0.0856389
0.0853859
0.0851829
0.0850116
0.0848599
0.0847208
0.0845909
0.0844688
0.0843543
0.0842476
0.0841489
0.0840586
0.0839766
0.0839028
0.0838373
0.0837804
0.0837326
0.0836957
0.0836724
0.0836681
0.0836911
0.0837551
0.0838804
0.0840973
0.0844495
0.0849978
0.0858253
0.0870437
0.088801
0.0912931
0.0947802
0.0996141
0.106281
0.115476
0.128231
0.14617
0.172095
0.211899
0.285074
0.562088
0.0855783
0.0853235
0.0851194
0.084948
0.0847972
0.0846599
0.0845325
0.0844134
0.0843022
0.084199
0.084104
0.0840171
0.0839385
0.0838679
0.0838054
0.0837511
0.0837059
0.0836712
0.0836501
0.0836477
0.0836727
0.0837386
0.0838658
0.084085
0.0844395
0.0849906
0.0858214
0.0870436
0.0888055
0.091303
0.0947965
0.0996379
0.106314
0.115518
0.128285
0.146236
0.172172
0.211977
0.285116
0.561797
0.0855203
0.0852641
0.0850592
0.0848877
0.0847376
0.0846019
0.0844768
0.0843605
0.0842525
0.0841526
0.084061
0.0839775
0.083902
0.0838344
0.0837747
0.083723
0.0836801
0.0836477
0.0836286
0.0836282
0.0836551
0.0837228
0.083852
0.0840732
0.0844302
0.084984
0.0858181
0.0870442
0.0888108
0.0913137
0.0948136
0.0996625
0.106347
0.115562
0.128339
0.146302
0.172248
0.212054
0.285151
0.561472
0.0854631
0.0852064
0.0850011
0.0848298
0.0846807
0.0845465
0.0844235
0.0843099
0.0842049
0.0841083
0.0840198
0.0839394
0.083867
0.0838023
0.0837452
0.083696
0.0836555
0.0836251
0.083608
0.0836095
0.0836382
0.0837077
0.0838389
0.0840622
0.0844216
0.0849782
0.0858155
0.0870456
0.0888167
0.0913251
0.0948315
0.0996878
0.106381
0.115605
0.128394
0.146367
0.172323
0.212129
0.28518
0.561116
0.0854055
0.0851494
0.0849444
0.0847736
0.0846256
0.0844932
0.0843725
0.0842615
0.0841594
0.0840658
0.0839804
0.0839031
0.0838335
0.0837715
0.0837171
0.0836703
0.0836319
0.0836035
0.0835884
0.0835916
0.0836221
0.0836935
0.0838265
0.084052
0.0844137
0.0849731
0.0858137
0.0870476
0.0888234
0.0913373
0.09485
0.0997137
0.106415
0.115649
0.128448
0.146433
0.172396
0.2122
0.285202
0.560729
0.0853465
0.085092
0.0848882
0.0847185
0.084572
0.0844415
0.0843231
0.0842149
0.0841157
0.0840251
0.0839427
0.0838683
0.0838016
0.0837422
0.0836902
0.0836457
0.0836094
0.0835831
0.0835697
0.0835748
0.083607
0.0836801
0.083815
0.0840425
0.0844066
0.0849687
0.0858126
0.0870504
0.0888308
0.0913501
0.0948692
0.0997402
0.10645
0.115694
0.128503
0.146497
0.172469
0.212269
0.285218
0.560312
0.0852853
0.0850338
0.0848319
0.0846641
0.0845194
0.0843911
0.0842753
0.0841698
0.0840736
0.083986
0.0839067
0.0838351
0.0837711
0.0837143
0.0836647
0.0836224
0.0835882
0.0835637
0.0835521
0.0835589
0.0835928
0.0836676
0.0838043
0.0840339
0.0844003
0.0849651
0.0858123
0.087054
0.0888389
0.0913636
0.0948889
0.0997671
0.106485
0.115738
0.128557
0.146561
0.172539
0.212334
0.285227
0.559867
0.0852212
0.0849742
0.0847754
0.0846099
0.0844675
0.0843418
0.0842287
0.0841262
0.084033
0.0839485
0.0838721
0.0838034
0.0837421
0.0836879
0.0836405
0.0836004
0.0835681
0.0835455
0.0835356
0.083544
0.0835795
0.083656
0.0837945
0.0840261
0.0843948
0.0849624
0.0858127
0.0870582
0.0888477
0.0913777
0.0949091
0.0997944
0.10652
0.115782
0.12861
0.146623
0.172608
0.212397
0.285229
0.559395
0.085154
0.0849129
0.0847181
0.0845558
0.0844163
0.0842934
0.0841833
0.0840839
0.0839939
0.0839124
0.083839
0.0837732
0.0837145
0.0836627
0.0836177
0.0835796
0.0835492
0.0835284
0.0835202
0.0835302
0.0835672
0.0836454
0.0837856
0.0840191
0.0843901
0.0849603
0.0858139
0.0870632
0.0888571
0.0913923
0.0949299
0.0998221
0.106556
0.115826
0.128663
0.146685
0.172675
0.212457
0.285226
0.558896
0.0850836
0.0848499
0.0846602
0.0845018
0.0843657
0.084246
0.0841391
0.0840429
0.083956
0.0838777
0.0838073
0.0837443
0.0836883
0.0836389
0.0835961
0.08356
0.0835315
0.0835124
0.0835058
0.0835173
0.0835559
0.0836356
0.0837777
0.0840131
0.0843863
0.0849591
0.0858158
0.0870688
0.0888672
0.0914076
0.0949512
0.0998502
0.106592
0.11587
0.128717
0.146748
0.172743
0.212518
0.285221
0.558368
0.0850102
0.0847853
0.0846017
0.0844479
0.0843156
0.0841995
0.084096
0.0840032
0.0839196
0.0838444
0.083777
0.0837168
0.0836633
0.0836163
0.0835757
0.0835416
0.0835149
0.0834975
0.0834925
0.0835055
0.0835456
0.0836269
0.0837706
0.0840079
0.0843833
0.0849587
0.0858185
0.0870753
0.0888781
0.0914237
0.0949732
0.0998791
0.106628
0.115916
0.128772
0.146813
0.172817
0.21259
0.285256
0.557962
0.0849342
0.0847192
0.0845426
0.084394
0.0842661
0.0841539
0.0840541
0.0839647
0.0838845
0.0838125
0.083748
0.0836906
0.0836397
0.083595
0.0835565
0.0835243
0.0834994
0.0834836
0.0834802
0.0834947
0.0835363
0.0836191
0.0837644
0.0840036
0.0843812
0.0849593
0.0858222
0.0870827
0.0888899
0.0914407
0.0949963
0.0999093
0.106667
0.115963
0.128829
0.146879
0.172891
0.212665
0.285298
0.557597
0.0848563
0.0846522
0.0844833
0.0843406
0.0842174
0.0841093
0.0840133
0.0839276
0.0838507
0.0837819
0.0837204
0.0836657
0.0836173
0.0835749
0.0835385
0.0835082
0.083485
0.0834708
0.0834688
0.0834848
0.0835278
0.0836121
0.0837592
0.0840002
0.08438
0.0849607
0.0858267
0.0870909
0.0889026
0.0914586
0.0950202
0.09994
0.106705
0.11601
0.128885
0.146945
0.172965
0.212739
0.285337
0.557227
0.0847771
0.0845847
0.0844241
0.0842876
0.0841695
0.0840658
0.0839738
0.0838918
0.0838183
0.0837527
0.0836942
0.0836422
0.0835962
0.0835561
0.0835216
0.0834931
0.0834716
0.0834589
0.0834584
0.0834757
0.0835202
0.083606
0.0837546
0.0839975
0.0843795
0.0849628
0.0858319
0.0870998
0.0889158
0.0914768
0.0950443
0.0999708
0.106743
0.116057
0.128941
0.147009
0.173035
0.212809
0.28537
0.556839
0.0846976
0.0845173
0.0843654
0.0842355
0.0841227
0.0840236
0.0839357
0.0838573
0.0837874
0.0837249
0.0836693
0.0836199
0.0835764
0.0835383
0.0835058
0.0834791
0.0834592
0.083448
0.0834488
0.0834675
0.0835133
0.0836005
0.0837507
0.0839954
0.0843795
0.0849653
0.0858374
0.0871089
0.0889291
0.0914951
0.0950682
0.100001
0.106781
0.116102
0.128994
0.14707
0.173102
0.212873
0.285393
0.556433
0.0846186
0.0844505
0.0843076
0.0841845
0.0840772
0.0839828
0.083899
0.0838244
0.0837578
0.0836985
0.0836457
0.0835989
0.0835577
0.0835218
0.0834911
0.0834661
0.0834477
0.0834379
0.0834401
0.0834601
0.0835072
0.0835957
0.0837474
0.0839939
0.08438
0.0849682
0.0858432
0.0871181
0.0889424
0.091513
0.0950914
0.10003
0.106817
0.116145
0.129044
0.147127
0.173164
0.21293
0.285407
0.556011
0.0845409
0.084385
0.084251
0.0841348
0.0840331
0.0839434
0.0838638
0.0837929
0.0837298
0.0836735
0.0836235
0.0835792
0.0835402
0.0835063
0.0834775
0.0834541
0.0834372
0.0834287
0.0834321
0.0834533
0.0835017
0.0835915
0.0837447
0.0839927
0.0843808
0.0849713
0.085849
0.0871272
0.0889552
0.0915302
0.0951136
0.100058
0.10685
0.116185
0.129091
0.14718
0.17322
0.21298
0.285411
0.555576
0.0844652
0.0843212
0.0841961
0.0840867
0.0839906
0.0839056
0.0838302
0.083763
0.0837032
0.0836499
0.0836026
0.0835607
0.0835239
0.0834919
0.0834648
0.083443
0.0834275
0.0834202
0.0834249
0.0834473
0.0834967
0.0835878
0.0837423
0.0839919
0.0843818
0.0849744
0.0858547
0.0871359
0.0889675
0.0915465
0.0951345
0.100084
0.106882
0.116222
0.129133
0.147228
0.173269
0.213023
0.285406
0.555132
0.0843923
0.0842596
0.0841431
0.0840405
0.0839499
0.0838696
0.0837982
0.0837346
0.083678
0.0836277
0.083583
0.0835434
0.0835087
0.0834786
0.0834531
0.0834327
0.0834185
0.0834125
0.0834183
0.0834417
0.0834923
0.0835845
0.0837403
0.0839913
0.0843828
0.0849775
0.0858602
0.0871441
0.088979
0.0915617
0.0951538
0.100108
0.10691
0.116255
0.129172
0.14727
0.173313
0.213058
0.285392
0.554681
0.0843226
0.0842007
0.0840924
0.0839964
0.0839111
0.0838354
0.0837679
0.0837079
0.0836544
0.0836068
0.0835646
0.0835273
0.0834946
0.0834662
0.0834423
0.0834233
0.0834104
0.0834055
0.0834123
0.0834368
0.0834884
0.0835816
0.0837385
0.0839909
0.084384
0.0849804
0.0858653
0.0871518
0.0889896
0.0915756
0.0951714
0.100129
0.106936
0.116285
0.129206
0.147307
0.173349
0.213084
0.285368
0.554226
0.0842564
0.0841446
0.0840442
0.0839544
0.0838743
0.083803
0.0837393
0.0836827
0.0836322
0.0835873
0.0835475
0.0835123
0.0834814
0.0834547
0.0834323
0.0834146
0.0834029
0.0833991
0.0834069
0.0834323
0.0834848
0.0835791
0.083737
0.0839906
0.084385
0.0849832
0.0858699
0.0871587
0.0889991
0.0915881
0.0951871
0.100148
0.106959
0.116311
0.129235
0.147338
0.173379
0.213103
0.285336
0.553771
0.0841942
0.0840917
0.0839986
0.0839148
0.0838396
0.0837725
0.0837125
0.0836591
0.0836115
0.0835691
0.0835316
0.0834984
0.0834693
0.0834442
0.0834231
0.0834067
0.083396
0.0833932
0.0834019
0.0834282
0.0834816
0.0835767
0.0837356
0.0839903
0.084386
0.0849856
0.0858741
0.0871648
0.0890075
0.091599
0.0952007
0.100165
0.106978
0.116334
0.129259
0.147362
0.173401
0.213114
0.285295
0.553318
0.084136
0.084042
0.0839558
0.0838775
0.083807
0.0837439
0.0836874
0.083637
0.0835921
0.0835522
0.0835168
0.0834855
0.0834581
0.0834344
0.0834147
0.0833994
0.0833898
0.0833879
0.0833974
0.0834245
0.0834787
0.0835746
0.0837344
0.08399
0.0843868
0.0849876
0.0858776
0.08717
0.0890146
0.0916082
0.0952122
0.100179
0.106994
0.116351
0.129278
0.147381
0.173417
0.213117
0.285247
0.55287
0.0840819
0.0839957
0.0839157
0.0838427
0.0837766
0.0837172
0.083664
0.0836165
0.0835742
0.0835366
0.0835031
0.0834736
0.0834477
0.0834255
0.0834069
0.0833927
0.083384
0.083383
0.0833933
0.0834211
0.083476
0.0835726
0.0837331
0.0839896
0.0843873
0.0849892
0.0858804
0.0871743
0.0890204
0.0916158
0.0952215
0.10019
0.107007
0.116365
0.129292
0.147394
0.173425
0.213112
0.285191
0.552431
0.0840319
0.0839527
0.0838785
0.0838103
0.0837483
0.0836924
0.0836423
0.0835975
0.0835576
0.0835221
0.0834905
0.0834626
0.0834382
0.0834172
0.0833998
0.0833866
0.0833788
0.0833785
0.0833896
0.083418
0.0834735
0.0835708
0.0837319
0.083989
0.0843875
0.0849903
0.0858825
0.0871775
0.0890249
0.0916215
0.0952285
0.100198
0.107016
0.116374
0.129301
0.147401
0.173427
0.213099
0.285129
0.552004
0.0839859
0.083913
0.0838441
0.0837803
0.083722
0.0836694
0.0836222
0.08358
0.0835423
0.0835087
0.0834789
0.0834526
0.0834295
0.0834097
0.0833933
0.083381
0.083374
0.0833744
0.0833861
0.0834152
0.0834712
0.083569
0.0837307
0.0839884
0.0843875
0.084991
0.0858839
0.0871797
0.089028
0.0916254
0.0952332
0.100203
0.107021
0.11638
0.129305
0.147402
0.173421
0.213079
0.28506
0.551591
0.0839438
0.0838765
0.0838123
0.0837526
0.0836979
0.0836483
0.0836037
0.0835638
0.0835282
0.0834964
0.0834682
0.0834433
0.0834215
0.0834027
0.0833873
0.0833759
0.0833696
0.0833707
0.083383
0.0834125
0.083469
0.0835673
0.0837294
0.0839875
0.0843871
0.084991
0.0858845
0.0871809
0.0890296
0.0916275
0.0952356
0.100206
0.107023
0.11638
0.129303
0.147397
0.173409
0.213052
0.284986
0.551194
0.0839055
0.0838432
0.0837833
0.0837272
0.0836757
0.0836289
0.0835868
0.083549
0.0835153
0.0834852
0.0834585
0.0834348
0.0834141
0.0833964
0.0833819
0.0833712
0.0833655
0.0833672
0.08338
0.08341
0.0834669
0.0835655
0.083728
0.0839864
0.0843863
0.0849905
0.0858843
0.0871809
0.0890298
0.0916278
0.0952357
0.100205
0.107022
0.116377
0.129297
0.147386
0.173391
0.213018
0.284907
0.550818
0.0838709
0.0838129
0.0837568
0.0837041
0.0836554
0.0836112
0.0835713
0.0835355
0.0835035
0.0834749
0.0834495
0.0834271
0.0834074
0.0833906
0.0833769
0.0833669
0.0833619
0.0833641
0.0833773
0.0834077
0.0834649
0.0835638
0.0837265
0.0839851
0.0843851
0.0849895
0.0858833
0.0871799
0.0890287
0.0916263
0.0952335
0.100202
0.107017
0.11637
0.129286
0.14737
0.173366
0.212978
0.284824
0.550463
0.0838396
0.0837855
0.0837328
0.0836831
0.083637
0.0835951
0.0835572
0.0835232
0.0834927
0.0834656
0.0834414
0.0834201
0.0834014
0.0833854
0.0833723
0.083363
0.0833585
0.0833612
0.0833748
0.0834055
0.083463
0.0835621
0.0837249
0.0839836
0.0843836
0.0849879
0.0858815
0.0871778
0.0890261
0.091623
0.0952292
0.100196
0.107009
0.116358
0.129271
0.147348
0.173335
0.212932
0.284737
0.550133
0.0838116
0.0837608
0.0837111
0.083664
0.0836203
0.0835805
0.0835444
0.083512
0.083483
0.0834571
0.0834341
0.0834137
0.0833958
0.0833806
0.0833682
0.0833594
0.0833554
0.0833585
0.0833724
0.0834034
0.0834611
0.0835603
0.0837231
0.0839818
0.0843817
0.0849858
0.085879
0.0871747
0.0890222
0.091618
0.0952227
0.100187
0.106997
0.116343
0.12925
0.147321
0.173299
0.21288
0.284648
0.54983
0.0837867
0.0837388
0.0836917
0.0836469
0.0836053
0.0835672
0.0835328
0.0835018
0.0834741
0.0834494
0.0834273
0.0834078
0.0833908
0.0833762
0.0833644
0.0833561
0.0833525
0.083356
0.0833702
0.0834014
0.0834592
0.0835585
0.0837213
0.0839798
0.0843795
0.0849831
0.0858758
0.0871707
0.0890171
0.0916114
0.0952142
0.100176
0.106983
0.116325
0.129226
0.14729
0.173258
0.212824
0.284557
0.549556
0.0837646
0.083719
0.0836741
0.0836313
0.0835915
0.0835551
0.0835222
0.0834926
0.083466
0.0834423
0.0834212
0.0834025
0.0833861
0.0833722
0.0833609
0.0833531
0.0833499
0.0833536
0.0833681
0.0833995
0.0834574
0.0835566
0.0837193
0.0839776
0.0843769
0.0849799
0.0858718
0.0871657
0.0890107
0.0916033
0.0952038
0.100163
0.106966
0.116303
0.129198
0.147254
0.173212
0.212764
0.284465
0.549311
0.0837449
0.0837011
0.083658
0.083617
0.0835788
0.0835439
0.0835123
0.0834839
0.0834584
0.0834357
0.0834154
0.0833974
0.0833817
0.0833684
0.0833576
0.0833502
0.0833474
0.0833514
0.0833661
0.0833976
0.0834555
0.0835547
0.0837173
0.0839752
0.084374
0.0849763
0.0858673
0.0871599
0.0890033
0.0915938
0.0951917
0.100148
0.106946
0.116278
0.129167
0.147214
0.173163
0.2127
0.284373
0.549096
0.0837269
0.0836845
0.0836429
0.0836034
0.0835667
0.0835331
0.0835027
0.0834755
0.083451
0.0834292
0.0834097
0.0833925
0.0833774
0.0833646
0.0833544
0.0833473
0.0833449
0.0833492
0.0833641
0.0833957
0.0834536
0.0835527
0.083715
0.0839726
0.0843707
0.0849723
0.0858621
0.0871533
0.0889949
0.0915831
0.0951781
0.10013
0.106925
0.116251
0.129133
0.147172
0.17311
0.212634
0.284282
0.548911
0.0837097
0.083668
0.0836276
0.0835894
0.0835541
0.0835219
0.0834928
0.0834667
0.0834433
0.0834224
0.0834038
0.0833873
0.0833729
0.0833607
0.0833509
0.0833443
0.0833422
0.0833468
0.0833619
0.0833936
0.0834515
0.0835505
0.0837126
0.0839697
0.0843672
0.0849678
0.0858564
0.087146
0.0889856
0.0915713
0.0951631
0.100112
0.106901
0.116222
0.129096
0.147127
0.173055
0.212566
0.284193
0.548754
0.0836916
0.0836503
0.0836108
0.083574
0.08354
0.0835093
0.0834815
0.0834566
0.0834344
0.0834146
0.0833969
0.0833813
0.0833676
0.083356
0.0833469
0.0833408
0.083339
0.083344
0.0833593
0.0833912
0.0834492
0.0835481
0.0837098
0.0839665
0.0843633
0.084963
0.0858503
0.0871382
0.0889756
0.0915586
0.0951472
0.100092
0.106876
0.116191
0.129059
0.147081
0.172999
0.212499
0.284108
0.548619
0.0836705
0.0836292
0.0835907
0.0835552
0.0835229
0.0834938
0.0834677
0.0834444
0.0834235
0.0834049
0.0833884
0.0833738
0.083361
0.0833503
0.0833418
0.0833363
0.0833351
0.0833404
0.0833561
0.0833882
0.0834463
0.0835451
0.0837067
0.0839629
0.0843591
0.0849577
0.0858437
0.0871299
0.0889651
0.0915454
0.0951307
0.100071
0.106851
0.116159
0.129021
0.147035
0.172944
0.212434
0.284028
0.548497
0.083644
0.0836026
0.0835652
0.0835316
0.0835014
0.0834744
0.0834503
0.0834288
0.0834097
0.0833927
0.0833776
0.0833642
0.0833526
0.0833428
0.0833352
0.0833305
0.0833299
0.0833358
0.083352
0.0833844
0.0834427
0.0835416
0.083703
0.0839589
0.0843544
0.0849522
0.0858369
0.0871214
0.0889545
0.0915321
0.0951141
0.100051
0.106826
0.116129
0.128984
0.146991
0.172893
0.212375
0.283956
0.548369
0.0836107
0.0835696
0.083534
0.0835027
0.083475
0.0834506
0.083429
0.0834098
0.0833928
0.0833776
0.0833642
0.0833524
0.0833421
0.0833335
0.083327
0.0833232
0.0833235
0.0833301
0.0833468
0.0833797
0.0834384
0.0835374
0.0836988
0.0839545
0.0843495
0.0849465
0.0858301
0.087113
0.0889442
0.0915194
0.0950985
0.100031
0.106802
0.116101
0.12895
0.146953
0.17285
0.212328
0.283899
0.548202
0.0835734
0.0835332
0.0834998
0.0834712
0.0834465
0.0834249
0.0834059
0.0833892
0.0833743
0.0833612
0.0833496
0.0833394
0.0833306
0.0833233
0.0833179
0.0833152
0.0833164
0.0833238
0.0833412
0.0833746
0.0834336
0.083533
0.0836945
0.08395
0.0843448
0.0849412
0.0858239
0.0871056
0.0889352
0.0915085
0.0950851
0.100015
0.106782
0.116077
0.128923
0.146921
0.172816
0.212295
0.283865
0.547952
0.0835426
0.0835038
0.0834724
0.0834462
0.0834238
0.0834044
0.0833875
0.0833727
0.0833596
0.0833481
0.0833379
0.0833289
0.0833212
0.083315
0.0833105
0.0833086
0.0833105
0.0833186
0.0833365
0.0833704
0.0834298
0.0835294
0.0836911
0.0839467
0.0843413
0.0849374
0.0858196
0.0871007
0.0889293
0.0915013
0.0950763
0.100004
0.106769
0.116061
0.128902
0.146896
0.172785
0.212256
0.283808
0.547677
)
;

boundaryField
{
    leftWall
    {
        type            epsilonWallFunction;
        value           nonuniform List<scalar> 0();
    }
    rightWall
    {
        type            epsilonWallFunction;
        value           nonuniform List<scalar> 
43
(
0.56234
0.562088
0.561797
0.561472
0.561116
0.560729
0.560312
0.559867
0.559395
0.558896
0.558368
0.557962
0.557597
0.557227
0.556839
0.556433
0.556011
0.555576
0.555132
0.554681
0.554226
0.553771
0.553318
0.55287
0.552431
0.552004
0.551591
0.551194
0.550818
0.550463
0.550133
0.54983
0.549556
0.549311
0.549096
0.548911
0.548754
0.548619
0.548497
0.548369
0.548202
0.547952
0.547677
)
;
    }
    lowerWall
    {
        type            epsilonWallFunction;
        value           nonuniform List<scalar> 0();
    }
    atmosphere
    {
        type            inletOutlet;
        inletValue      uniform 0.1;
        value           nonuniform List<scalar> 
45
(
0.0840485
0.0838622
0.0837383
0.0836524
0.0835909
0.0835426
0.0835038
0.0834724
0.0834462
0.0834238
0.0834044
0.0833875
0.0833727
0.0833596
0.0833481
0.0833379
0.0833289
0.0833212
0.083315
0.0833105
0.0833086
0.0833105
0.0833186
0.0833365
0.0833704
0.0834298
0.0835294
0.0836911
0.0839467
0.0843413
0.0849374
0.0858196
0.0871007
0.0889293
0.0915013
0.0950763
0.100004
0.106769
0.116061
0.128902
0.146896
0.172785
0.212256
0.283808
0.547677
)
;
    }
    defaultFaces
    {
        type            empty;
    }
    procBoundary3to1
    {
        type            processor;
        value           nonuniform List<scalar> 
45
(
0.0876064
0.0871952
0.0867959
0.0864147
0.0860736
0.0857728
0.0855239
0.0853228
0.0851512
0.0849971
0.0848538
0.0847181
0.084589
0.0844668
0.084352
0.0842453
0.0841471
0.0840576
0.0839769
0.083905
0.0838421
0.0837889
0.083747
0.0837192
0.0837106
0.0837297
0.0837897
0.083911
0.0841237
0.0844711
0.0850139
0.085835
0.0870458
0.0887942
0.0912756
0.0947501
0.099569
0.106219
0.115393
0.128125
0.146039
0.171941
0.211736
0.284971
0.562541
)
;
    }
    procBoundary3to2
    {
        type            processor;
        value           nonuniform List<scalar> 
43
(
0.0880395
0.0880597
0.0880812
0.0880983
0.0881059
0.0880983
0.0880697
0.0880151
0.0879307
0.087814
0.0876651
0.0874857
0.0872799
0.087053
0.0868116
0.0865624
0.0863123
0.0860669
0.0858311
0.0856085
0.0854012
0.0852109
0.0850377
0.0848815
0.0847415
0.0846168
0.0845061
0.0844082
0.0843221
0.0842467
0.0841811
0.0841248
0.0840774
0.0840392
0.0840112
0.0839955
0.083995
0.0840139
0.0840562
0.084123
0.0842074
0.084289
0.0843362
)
;
    }
}


// ************************************************************************* //
