/*--------------------------------*- C++ -*----------------------------------*\
  =========                 |
  \\      /  F ield         | OpenFOAM: The Open Source CFD Toolbox
   \\    /   O peration     | Website:  https://openfoam.org
    \\  /    A nd           | Version:  9
     \\/     M anipulation  |
\*---------------------------------------------------------------------------*/
FoamFile
{
    format      ascii;
    class       surfaceScalarField;
    location    "0.4";
    object      alphaPhi0.water;
}
// * * * * * * * * * * * * * * * * * * * * * * * * * * * * * * * * * * * * * //

dimensions      [0 3 -1 0 0 0 0];

internalField   nonuniform List<scalar> 
4432
(
-5.43528e-06
5.43528e-06
-6.41608e-06
9.80796e-07
-3.81997e-06
-2.59611e-06
1.83961e-07
-4.00393e-06
4.62273e-06
-4.43877e-06
9.1235e-06
-4.50077e-06
1.34999e-05
-4.37636e-06
1.76881e-05
-4.18826e-06
2.1664e-05
-3.97585e-06
2.54058e-05
-3.74184e-06
2.88782e-05
-3.47235e-06
3.20196e-05
-3.14145e-06
3.47296e-05
-2.70994e-06
3.68413e-05
-2.11178e-06
3.80866e-05
-1.24523e-06
3.79105e-05
1.76108e-07
3.54846e-05
2.4259e-06
3.01848e-05
5.29973e-06
2.15067e-05
8.67815e-06
9.7216e-06
1.17851e-05
-3.67891e-06
1.35306e-05
-1.13913e-05
7.59715e-06
-1.15054e-05
-3.53691e-06
8.97219e-06
-2.58958e-06
3.34681e-08
2.80318e-07
-5.46601e-06
4.0858e-06
-7.80941e-06
8.31659e-06
-8.66956e-06
1.26031e-05
-8.78728e-06
1.67968e-05
-8.57005e-06
2.0828e-05
-8.21943e-06
2.46607e-05
-7.80862e-06
2.82648e-05
-7.34593e-06
3.15989e-05
-6.80642e-06
3.45992e-05
-6.14177e-06
3.71678e-05
-5.27849e-06
3.91607e-05
-4.10469e-06
4.03788e-05
-2.46339e-06
4.06237e-05
-6.87582e-08
3.96218e-05
3.42778e-06
3.66407e-05
8.28086e-06
3.07965e-05
1.45223e-05
2.13832e-05
2.11984e-05
9.11062e-06
2.58032e-05
-2.76299e-07
1.7219e-05
-1.22474e-05
-1.43471e-06
1.04069e-05
2.33375e-07
-1.63461e-06
3.16228e-06
-8.39491e-06
6.87898e-06
-1.15261e-05
1.08905e-05
-1.26811e-05
1.49413e-05
-1.28381e-05
1.89077e-05
-1.25365e-05
2.2728e-05
-1.20397e-05
2.63652e-05
-1.14458e-05
2.97854e-05
-1.07662e-05
3.29448e-05
-9.96582e-06
3.578e-05
-8.97701e-06
3.8199e-05
-7.6975e-06
4.00729e-05
-5.97855e-06
4.12258e-05
-3.6163e-06
4.14793e-05
-3.22262e-07
4.06292e-05
4.27786e-06
3.83564e-05
1.05537e-05
3.42127e-05
1.86661e-05
2.76433e-05
2.77678e-05
1.85202e-05
3.49262e-05
7.96127e-06
2.80819e-05
-4.24876e-06
3.92843e-07
1.00141e-05
2.46698e-06
-3.70875e-06
5.59922e-06
-1.15272e-05
9.25019e-06
-1.51771e-05
1.30788e-05
-1.65097e-05
1.69048e-05
-1.66641e-05
2.0642e-05
-1.62737e-05
2.42445e-05
-1.56422e-05
2.76793e-05
-1.48806e-05
3.09119e-05
-1.39988e-05
3.38978e-05
-1.29517e-05
3.65756e-05
-1.16549e-05
3.88605e-05
-9.98242e-06
4.0638e-05
-7.75606e-06
4.17621e-05
-4.74038e-06
4.20779e-05
-6.38089e-07
4.14353e-05
4.92053e-06
3.96705e-05
1.23185e-05
3.65746e-05
2.1762e-05
3.17714e-05
3.2571e-05
2.46809e-05
4.20167e-05
1.42857e-05
3.84737e-05
9.99267e-06
1.76534e-06
8.24871e-06
4.36514e-06
-6.30854e-06
7.72101e-06
-1.4883e-05
1.13575e-05
-1.88136e-05
1.50324e-05
-2.01846e-05
1.86454e-05
-2.0277e-05
2.21565e-05
-1.97848e-05
2.55412e-05
-1.90269e-05
2.87734e-05
-1.81128e-05
3.18201e-05
-1.70455e-05
3.46375e-05
-1.5769e-05
3.71676e-05
-1.4185e-05
3.9334e-05
-1.21488e-05
4.10375e-05
-9.45951e-06
4.21576e-05
-5.86046e-06
4.25704e-05
-1.05093e-06
4.21736e-05
5.31729e-06
4.0886e-05
1.36061e-05
3.86132e-05
2.40348e-05
3.50599e-05
3.61243e-05
2.94151e-05
4.76615e-05
1.92111e-05
4.86764e-05
2.9155e-05
2.66266e-06
5.58605e-06
5.95302e-06
-9.59891e-06
9.60157e-06
-1.85316e-05
1.32571e-05
-2.24692e-05
1.6792e-05
-2.37194e-05
2.01968e-05
-2.36818e-05
2.34845e-05
-2.30725e-05
2.66541e-05
-2.21965e-05
2.96872e-05
-2.11459e-05
3.25526e-05
-1.99109e-05
3.52081e-05
-1.84246e-05
3.76005e-05
-1.65773e-05
3.96626e-05
-1.42109e-05
4.13105e-05
-1.11075e-05
4.24469e-05
-6.99687e-06
4.29789e-05
-1.58292e-06
4.28468e-05
5.44941e-06
4.20294e-05
1.44235e-05
4.05075e-05
2.55566e-05
3.80416e-05
3.85903e-05
3.37052e-05
5.19979e-05
2.39637e-05
5.84179e-05
5.30682e-05
3.32671e-06
2.25935e-06
7.33293e-06
-1.36051e-05
1.13113e-05
-2.251e-05
1.49896e-05
-2.61474e-05
1.83762e-05
-2.7106e-05
2.15677e-05
-2.68734e-05
2.46327e-05
-2.61375e-05
2.75913e-05
-2.5155e-05
3.04308e-05
-2.39855e-05
3.31214e-05
-2.26014e-05
3.56226e-05
-2.09258e-05
3.78865e-05
-1.88412e-05
3.98562e-05
-1.61807e-05
4.14634e-05
-1.27147e-05
4.26317e-05
-8.16516e-06
4.3297e-05
-2.24814e-06
4.34388e-05
5.30752e-06
4.30914e-05
1.47709e-05
4.23131e-05
2.63349e-05
4.09642e-05
3.99392e-05
3.8215e-05
5.47471e-05
2.94704e-05
6.71625e-05
8.24887e-05
3.90587e-06
-1.64652e-06
8.63313e-06
-1.83324e-05
1.29316e-05
-2.68085e-05
1.65901e-05
-2.98059e-05
1.97936e-05
-3.03096e-05
2.27579e-05
-2.98377e-05
2.56008e-05
-2.89804e-05
2.83552e-05
-2.79094e-05
3.10096e-05
-2.66399e-05
3.35337e-05
-2.51255e-05
3.58887e-05
-2.32808e-05
3.80326e-05
-2.0985e-05
3.99196e-05
-1.80677e-05
4.14971e-05
-1.42922e-05
4.27076e-05
-9.37567e-06
4.35127e-05
-3.05325e-06
4.39289e-05
4.89132e-06
4.40453e-05
1.46546e-05
4.40167e-05
2.63634e-05
4.38963e-05
4.00596e-05
4.31961e-05
5.54473e-05
3.65601e-05
7.37985e-05
0.000119
-2.07047e-24
4.63099e-24
-3.44642e-23
1.31972e-23
-1.47954e-22
2.52511e-23
-2.53409e-21
1.89367e-22
-1.74858e-20
-6.28989e-22
-5.80635e-20
-1.89485e-20
-1.2313e-19
-8.02334e-20
-7.74444e-20
-2.66234e-19
2.89381e-20
-1.1315e-18
2.99893e-20
-2.80279e-19
7.7226e-21
-4.17397e-20
1.08391e-21
-3.00266e-21
4.66566e-23
-3.0112e-22
3.22717e-25
-1.61971e-24
2.33434e-26
2.12156e-26
7.3363e-28
2.30156e-27
7.68798e-30
9.23974e-29
2.03054e-30
1.505e-30
1.01661e-31
-3.14256e-23
1.1416e-22
-2.88113e-22
2.03536e-22
-2.03487e-20
8.96024e-21
-3.37296e-19
6.7388e-20
-1.64436e-18
-1.30297e-19
-2.72437e-18
-1.36659e-18
-3.58659e-18
-3.11783e-18
-3.41396e-18
-6.76951e-18
1.46586e-18
-1.09521e-17
2.72578e-18
-1.00199e-17
7.66124e-19
-4.30843e-18
1.04245e-19
-5.13452e-19
5.48564e-21
-3.23081e-20
1.92557e-23
-3.20187e-22
1.25804e-24
6.0943e-24
8.83788e-26
5.62154e-25
7.44859e-28
2.64218e-26
5.81884e-30
5.02289e-28
3.99162e-30
-6.1838e-22
2.47387e-21
-1.11643e-20
8.8897e-21
-8.16332e-19
4.97529e-19
-1.2639e-17
3.34393e-18
-5.17705e-17
-3.02131e-18
-5.81045e-17
-1.55363e-17
-9.55801e-17
-2.36528e-17
-1.044e-16
-2.75679e-17
7.20979e-17
-3.13336e-16
7.97984e-17
-1.84713e-17
2.60273e-17
-1.53805e-17
4.71616e-18
-1.20263e-17
3.43448e-19
-2.34749e-18
2.81813e-21
-2.97074e-20
2.59644e-23
2.44679e-22
1.41777e-24
1.64705e-23
1.69915e-26
7.76053e-25
1.82237e-28
1.57553e-26
1.49347e-28
-6.73708e-21
3.20627e-20
-2.23335e-19
2.30357e-19
-1.21435e-17
1.36946e-17
-3.4675e-16
3.01695e-16
-1.55095e-15
-1.22859e-18
-1.69269e-15
0
-3.06527e-15
0
-1.99445e-15
-2.41156e-15
3.4085e-15
-1.12214e-14
2.45667e-15
-2.77465e-15
8.52818e-16
-2.8016e-17
1.4855e-16
-3.44063e-16
1.46241e-17
-1.03003e-16
1.55989e-19
-1.84322e-18
7.87336e-22
1.01823e-20
2.7527e-23
6.027e-22
6.68523e-25
2.71495e-23
7.39313e-27
6.36742e-25
6.52093e-27
-3.12696e-20
2.01267e-19
-1.31832e-18
2.70553e-18
-5.74979e-16
2.98894e-16
-3.33284e-14
8.46495e-15
-5.56569e-14
-2.55074e-14
-4.05409e-14
0
-4.85007e-14
0
1.53942e-14
-1.164e-13
1.36437e-13
-3.0552e-13
6.85599e-14
-5.49558e-14
2.18085e-14
-1.13409e-14
4.2513e-15
-8.63998e-15
4.82393e-16
-2.6105e-15
7.01341e-18
-7.14686e-17
3.26252e-20
4.91332e-19
1.51741e-21
2.8786e-20
3.66059e-23
1.34977e-21
4.16601e-25
3.47522e-23
3.83259e-25
-5.57914e-20
4.63088e-19
0
1.49103e-17
-3.00679e-14
5.06083e-15
-1.60066e-12
6.39983e-14
-3.36308e-13
-2.13377e-12
3.2901e-13
-4.31981e-13
7.01471e-13
-8.19426e-13
2.80002e-12
-3.79681e-12
4.72499e-12
-6.58916e-12
1.57379e-12
0
4.74613e-13
-2.26867e-13
9.08848e-14
-1.45311e-13
1.24823e-14
-5.72849e-14
2.61466e-16
-2.12241e-15
1.60888e-18
2.56643e-17
7.45373e-20
1.34397e-18
1.94149e-21
6.66525e-20
2.38584e-23
1.85756e-21
2.23584e-23
3.53854e-20
6.42872e-19
4.71141e-18
2.96337e-18
1.09855e-15
9.91823e-15
2.76053e-15
5.63893e-14
2.42213e-10
-2.3314e-10
1.09802e-10
0
9.01637e-11
-1.68468e-11
1.41627e-10
-1.01477e-10
1.26874e-10
-7.85834e-11
3.61951e-11
0
9.08477e-12
0
1.75405e-12
-1.13156e-12
2.46067e-13
-7.81792e-13
8.5667e-15
-4.73105e-14
8.79082e-17
2.42691e-15
3.52922e-18
7.90758e-17
9.95591e-20
3.28873e-18
1.32932e-21
9.79997e-20
1.28988e-21
4.04395e-19
4.44174e-19
5.49948e-19
3.22568e-18
1.38078e-16
9.78095e-15
2.38026e-08
-2.38025e-08
2.99762e-08
-8.86115e-09
9.67851e-09
0
5.45761e-09
0
5.42842e-09
-1.12647e-09
3.01735e-09
0
7.04206e-10
0
1.28689e-10
0
2.61385e-11
0
3.90961e-12
-7.51852e-12
2.05252e-13
-7.49927e-13
7.36592e-15
8.58519e-14
2.02213e-16
7.12557e-15
4.79341e-18
1.96305e-16
6.88194e-20
4.8094e-18
6.82683e-20
1.04384e-05
-1.20849e-05
2.30599e-05
-3.09537e-05
3.28452e-05
-3.65936e-05
4.01273e-05
-3.70883e-05
4.61411e-05
-3.63236e-05
5.16591e-05
-3.53557e-05
5.70043e-05
-3.43254e-05
6.22389e-05
-3.31438e-05
6.73216e-05
-3.17224e-05
7.21814e-05
-2.9985e-05
7.67415e-05
-2.78407e-05
8.09336e-05
-2.51768e-05
8.47016e-05
-2.18355e-05
8.79866e-05
-1.75768e-05
9.07232e-05
-1.2112e-05
9.28973e-05
-5.22718e-06
9.46644e-05
3.12419e-06
9.63547e-05
1.29643e-05
9.86674e-05
2.40508e-05
0.000102539
3.61876e-05
0.000109213
4.87734e-05
0.000122318
6.06934e-05
7.75164e-05
0.000163732
1.51737e-05
-2.72566e-05
3.11238e-05
-4.6894e-05
3.96873e-05
-4.51466e-05
4.50585e-05
-4.24532e-05
4.95789e-05
-4.08435e-05
5.40601e-05
-3.98324e-05
5.86307e-05
-3.88887e-05
6.32105e-05
-3.77148e-05
6.76969e-05
-3.61988e-05
7.20035e-05
-3.42797e-05
7.6059e-05
-3.18824e-05
7.98244e-05
-2.89262e-05
8.33065e-05
-2.52987e-05
8.65267e-05
-2.07747e-05
8.94826e-05
-1.50466e-05
9.21861e-05
-7.91608e-06
9.49626e-05
3.52595e-07
9.80326e-05
9.89916e-06
0.000102266
1.98194e-05
0.000108632
2.98215e-05
0.000118666
3.87395e-05
0.000134332
4.50274e-05
5.04264e-05
0.000161422
2.08487e-05
-2.31972e-05
2.63639e-05
-2.05333e-05
2.75908e-05
-1.12943e-05
3.0558e-05
-1.07916e-05
3.45104e-05
-1.13446e-05
3.90407e-05
-1.23587e-05
4.3752e-05
-1.34547e-05
4.84244e-05
-1.43618e-05
5.30629e-05
-1.50019e-05
5.77017e-05
-1.53805e-05
6.23671e-05
-1.54488e-05
6.72372e-05
-1.52468e-05
7.2542e-05
-1.49031e-05
7.81306e-05
-1.41958e-05
8.35745e-05
-1.23465e-05
8.87141e-05
-8.67483e-06
9.30251e-05
-2.76116e-06
9.7711e-05
5.21438e-06
0.000103136
1.43943e-05
0.000110035
2.29224e-05
0.000119169
2.96053e-05
0.000131732
3.24647e-05
3.22892e-05
0.000149869
4.21419e-06
1.72771e-13
1.0411e-06
1.21739e-13
3.65897e-07
9.31205e-14
5.35035e-07
1.20431e-13
1.04656e-06
1.42855e-12
1.81602e-06
8.78393e-12
2.78368e-06
1.23946e-11
3.87208e-06
1.04341e-11
5.09518e-06
6.47017e-12
6.51467e-06
3.36272e-12
8.22409e-06
1.50215e-12
1.05705e-05
5.84959e-13
1.42277e-05
2.06254e-13
1.97097e-05
6.60778e-14
2.73098e-05
1.85405e-14
3.8586e-05
4.26242e-15
5.61808e-05
6.10685e-16
7.8253e-05
4.45088e-08
9.90184e-05
3.84609e-06
0.000110424
1.15168e-05
0.000120211
1.98185e-05
0.000131963
2.07123e-05
1.84947e-05
0.000145758
-5.15754e-14
2.69086e-13
-5.3025e-14
2.1051e-13
-8.00141e-14
2.49127e-13
-1.09267e-13
2.94542e-13
-1.42348e-12
2.5153e-12
-9.68476e-12
1.18799e-11
-1.50017e-11
1.52679e-11
-1.38255e-11
1.25075e-11
-9.40961e-12
7.93579e-12
-5.40135e-12
4.23319e-12
-2.69515e-12
1.98477e-12
-1.19136e-12
8.40924e-13
-4.86805e-13
3.28003e-13
-1.87009e-13
1.19011e-13
-6.74583e-14
4.01685e-14
-2.28461e-14
1.25943e-14
-6.53558e-15
3.63156e-15
1.75465e-06
7.89359e-16
9.9704e-06
6.94257e-17
2.85275e-05
2.62856e-08
7.14444e-05
0
0.000127551
2.80955e-06
5.4983e-06
0.000147264
4.58962e-14
1.78385e-13
-2.84974e-15
2.16594e-13
-9.5567e-14
3.32721e-13
-1.80528e-13
3.60371e-13
-2.03082e-12
3.58874e-13
-1.19907e-11
3.28239e-13
-1.84673e-11
2.82562e-13
-1.76184e-11
2.32376e-13
-1.28335e-11
1.83388e-13
-7.83493e-12
1.38612e-13
-4.22653e-12
9.95677e-14
-2.08522e-12
6.71109e-14
-9.63712e-13
4.16584e-14
-4.24036e-13
2.33113e-14
-1.79122e-13
1.13739e-14
-7.25314e-14
4.71947e-15
-2.78705e-14
1.58288e-15
-1.01589e-14
3.68717e-16
-3.68479e-15
1.27775e-16
2.62856e-08
1.12331e-16
4.41889e-07
4.3158e-17
7.12273e-06
2.68185e-18
-7.75555e-13
1.78771e-05
2.87662e-14
8.1009e-14
-3.74231e-15
1.37624e-13
-8.66765e-14
2.31702e-13
-1.73585e-13
2.59572e-13
-2.416e-13
2.58836e-13
-2.85099e-13
2.38557e-13
-3.03175e-13
2.07449e-13
-2.98995e-13
1.72388e-13
-2.78078e-13
1.375e-13
-2.46071e-13
1.04921e-13
-2.07505e-13
7.56774e-14
-1.66038e-13
5.05958e-14
-1.24754e-13
3.00688e-14
-8.70214e-14
1.52184e-14
-5.54254e-14
5.24742e-15
-3.24269e-14
4.50898e-16
-1.7309e-14
-1.17435e-15
-8.70495e-15
-1.1673e-15
-4.20123e-15
-8.63652e-16
-2.03558e-15
-4.16255e-16
-7.79517e-16
-5.43076e-17
-1.65563e-16
-2.95667e-18
-8.15462e-13
3.97419e-14
-4.85036e-16
3.09483e-14
-1.24623e-14
5.66422e-14
-5.54059e-14
9.98977e-14
-1.04369e-13
1.20222e-13
-1.46168e-13
1.24163e-13
-1.75269e-13
1.1701e-13
-1.90143e-13
1.03394e-13
-1.91825e-13
8.68887e-14
-1.82657e-13
6.96121e-14
-1.65097e-13
5.2557e-14
-1.411e-13
3.63177e-14
-1.12686e-13
2.15924e-14
-8.12903e-14
8.45563e-15
-5.12322e-14
4.28011e-17
-2.28792e-14
-7.55582e-15
-2.70762e-15
-1.21414e-14
1.48323e-14
-1.09214e-14
1.79051e-14
-8.17708e-15
1.18789e-14
-4.34829e-15
2.13459e-15
-1.06335e-15
7.93712e-16
-1.5943e-16
1.8171e-15
-1.02628e-15
-3.95644e-15
6.41852e-11
-1.05527e-15
9.36318e-15
-6.40864e-15
1.67044e-14
-2.19662e-14
3.01185e-14
-4.10943e-14
3.91592e-14
-5.87141e-14
4.26467e-14
-7.18767e-14
4.15158e-14
-7.94402e-14
3.73498e-14
-8.14492e-14
3.15199e-14
-7.83485e-14
2.47621e-14
-7.04085e-14
1.73333e-14
-5.77881e-14
9.74343e-15
-4.09739e-14
1.80385e-15
-1.93302e-14
-4.95145e-15
-1.19838e-16
-1.72793e-14
3.9497e-14
-2.01142e-14
5.51733e-14
-1.813e-14
6.64548e-14
-1.59742e-14
6.25207e-14
-1.23804e-14
4.72142e-14
-1.37401e-14
2.58224e-14
-1.62598e-14
1.56456e-14
-2.26422e-14
1.90124e-14
-2.00321e-14
-1.27527e-14
1.78461e-14
-4.6101e-16
2.30151e-15
-1.86996e-15
3.68145e-15
-5.83345e-15
6.66103e-15
-1.12964e-14
9.76595e-15
-1.67914e-14
1.15671e-14
-2.11577e-14
1.17558e-14
-2.38082e-14
1.07093e-14
-2.45533e-14
8.84115e-15
-2.32057e-14
6.32089e-15
-1.93553e-14
3.25985e-15
-1.29076e-14
7.2971e-17
-2.83583e-15
-4.45895e-15
1.77383e-14
-1.18282e-14
4.59091e-14
-1.78527e-14
5.54095e-14
-1.83494e-14
6.10901e-14
-1.40178e-14
6.65838e-14
-1.31478e-14
5.21289e-14
-5.2125e-15
1.08169e-13
-2.0463e-14
2.33361e-13
-7.35749e-14
2.68503e-13
-8.48962e-14
2.34763e-13
-7.57071e-14
-4.00989e-14
5.53114e-14
-1.22662e-16
5.63835e-16
-3.71766e-16
7.53981e-16
-1.09985e-15
1.31061e-15
-2.34891e-15
2.32481e-15
-3.76653e-15
3.04621e-15
-4.94233e-15
3.17778e-15
-5.62965e-15
2.8249e-15
-5.68221e-15
2.10892e-15
-4.88916e-15
1.07416e-15
-3.00265e-15
1.28892e-18
-7.95355e-17
-2.32067e-15
9.48696e-15
-4.24542e-15
2.09692e-14
-5.02023e-15
2.55627e-14
-4.78344e-15
2.95156e-14
-4.08597e-15
3.23764e-14
-2.78186e-15
2.44315e-14
-2.18045e-15
1.32834e-14
-2.11142e-15
1.47531e-13
-1.6862e-15
3.29534e-13
-2.44894e-15
4.19769e-13
-9.46463e-16
3.55289e-13
-2.54841e-15
-2.10822e-15
1.06754e-13
-2.79705e-17
1.73646e-16
-6.53462e-17
2.13868e-16
-1.80894e-16
3.54886e-16
-4.62456e-16
6.91618e-16
-8.17165e-16
9.21211e-16
-1.09944e-15
9.18703e-16
-1.22203e-15
7.40491e-16
-1.11561e-15
4.28675e-16
-6.83737e-16
1.23682e-17
-9.759e-19
-6.53988e-16
2.69221e-15
-1.00433e-15
3.31433e-15
-9.27044e-16
3.54081e-15
-7.90225e-16
3.69881e-15
-5.93473e-16
3.28278e-15
-3.53916e-16
2.48774e-15
-2.58458e-16
2.59854e-15
-2.68915e-16
3.33322e-15
-3.68764e-16
2.27169e-15
-6.1394e-16
1.84359e-15
-7.58736e-16
3.47665e-15
-1.18324e-15
3.69782e-15
-1.37491e-15
-1.719e-15
5.87501e-15
-7.50216e-18
5.68571e-17
-1.55916e-17
7.23979e-17
-4.06976e-17
1.199e-16
-1.13721e-16
2.21922e-16
-2.03889e-16
2.77967e-16
-2.62139e-16
2.5111e-16
-2.64205e-16
1.71446e-16
-1.87043e-16
5.86553e-17
-6.49122e-18
-5.71343e-17
4.07833e-16
-1.95015e-16
4.35824e-16
-2.17028e-16
4.32321e-16
-1.66139e-16
4.04595e-16
-1.31934e-16
3.10105e-16
-7.96381e-17
2.13483e-16
-4.99159e-17
2.20357e-16
-5.15593e-17
3.00056e-16
-7.3277e-17
5.46937e-16
-1.25298e-16
1.13126e-15
-2.16462e-16
1.9891e-15
-3.50572e-16
2.99838e-15
-5.17701e-16
4.30147e-15
-6.96495e-16
-9.13827e-16
5.69524e-15
-2.07744e-18
1.59659e-17
-4.43365e-18
2.09317e-17
-1.14896e-17
3.46571e-17
-3.0391e-17
6.03791e-17
-5.11534e-17
7.02562e-17
-5.9532e-17
5.6061e-17
-5.08075e-17
3.00182e-17
-2.12498e-17
4.00867e-18
5.23067e-17
-6.38461e-18
1.01282e-16
-1.72513e-17
6.44843e-17
-2.7359e-17
6.04118e-17
-2.75976e-17
5.30003e-17
-2.17375e-17
3.27391e-17
-1.12618e-17
3.09293e-17
-9.38605e-18
4.0318e-17
-1.11785e-17
7.6339e-17
-1.70916e-17
1.52177e-16
-2.51305e-17
2.80983e-16
-3.28406e-17
4.83992e-16
-4.53577e-17
7.75225e-16
-8.14893e-17
1.17747e-15
-1.72016e-16
-4.09034e-16
1.88156e-15
-4.90461e-19
3.70489e-18
-1.09094e-18
4.95491e-18
-2.8188e-18
8.15247e-18
-6.99063e-18
1.32674e-17
-1.08993e-17
1.41568e-17
-1.11827e-17
9.69086e-18
-7.47499e-18
3.67424e-18
-1.21902e-18
5.60653e-19
2.5395e-18
-1.00678e-18
5.4854e-18
-3.08843e-18
8.12372e-18
-4.17575e-18
9.27021e-18
-3.89995e-18
6.92668e-18
-2.4902e-18
4.34813e-18
-1.27433e-18
4.76779e-18
-1.30196e-18
7.4351e-18
-1.76862e-18
1.33687e-17
-2.39993e-18
2.06771e-17
-3.0364e-18
2.99769e-17
-4.86557e-18
5.34908e-17
-1.34362e-17
1.3978e-16
-5.02575e-17
3.8707e-16
-1.52997e-16
-4.69638e-16
1.09059e-15
-9.70235e-20
6.66453e-19
-2.25074e-19
8.98738e-19
-5.75911e-19
1.4528e-18
-1.32612e-18
2.18191e-18
-1.88659e-18
2.10755e-18
-1.65438e-18
1.19564e-18
-7.80892e-19
3.10122e-19
-1.45203e-19
-1.37446e-20
3.65491e-19
-2.02038e-19
7.98234e-19
-3.92625e-19
1.0063e-18
-4.57479e-19
1.02156e-18
-4.00928e-19
5.74949e-19
-2.11988e-19
4.55917e-19
-1.22149e-19
5.57464e-19
-1.40321e-19
9.54472e-19
-2.01516e-19
1.41045e-18
-2.67027e-19
2.06134e-18
-4.26929e-19
4.72852e-18
-1.52702e-18
2.00594e-17
-8.60513e-18
9.28816e-17
-4.27266e-17
3.26431e-16
-1.52754e-16
-5.55427e-16
1.10503e-15
-1.53085e-20
8.24242e-20
-3.66526e-20
1.10656e-19
-9.15782e-20
1.72776e-19
-1.92913e-19
2.35453e-19
-2.46611e-19
2.04181e-19
-1.782e-19
9.19154e-20
-5.72906e-20
2.0407e-20
2.04869e-20
-1.54097e-22
4.4695e-20
-1.95449e-20
7.69523e-20
-3.65042e-20
9.22037e-20
-4.03076e-20
8.32866e-20
-3.34988e-20
3.99216e-20
-1.58287e-20
3.67196e-20
-9.44581e-21
5.29403e-20
-1.09904e-20
8.94956e-20
-1.49951e-20
1.35996e-19
-2.3501e-20
3.01208e-19
-9.07289e-20
1.7433e-18
-7.77906e-19
1.26749e-17
-6.23855e-18
7.12237e-17
-3.64744e-17
2.93878e-16
-1.64061e-16
-7.83976e-16
1.20829e-15
-1.71947e-21
5.23249e-21
-4.17403e-21
6.89193e-21
-9.98229e-21
1.02101e-20
-1.88718e-20
1.26072e-20
-2.14558e-20
9.80031e-21
-1.22098e-20
3.22396e-21
-3.33999e-21
3.32281e-22
1.40045e-21
-2.51105e-22
3.63945e-21
-1.45339e-21
5.93384e-21
-2.58357e-21
6.98083e-21
-2.88922e-21
5.70543e-21
-2.32122e-21
2.52534e-21
-1.05906e-21
2.42143e-21
-5.86986e-22
3.4861e-21
-6.22636e-22
5.7533e-21
-8.96595e-22
1.21366e-20
-3.56115e-21
7.83173e-20
-3.86598e-20
8.82137e-19
-4.65964e-19
8.26188e-18
-4.69445e-18
5.60323e-17
-3.50264e-17
2.8545e-16
-2.00153e-16
-1.62903e-15
1.84313e-15
-1.02432e-22
9.83589e-27
-2.46505e-22
6.35956e-26
-5.53209e-22
1.90362e-25
-9.36126e-22
2.33044e-25
-9.43959e-22
3.07061e-26
-3.89097e-22
-1.10121e-26
-4.90532e-23
-5.11757e-24
9.34971e-23
-2.9038e-23
2.21133e-22
-8.31069e-23
3.68927e-22
-1.3881e-22
4.36014e-22
-1.52405e-22
3.34014e-22
-1.17433e-22
1.40588e-22
-5.07562e-23
1.30298e-22
-2.99449e-23
1.63352e-22
-3.56749e-23
3.4819e-22
-1.34377e-22
2.4681e-21
-1.61036e-21
3.49547e-20
-2.24981e-20
4.86638e-19
-3.12245e-19
5.63962e-18
-3.80764e-18
5.08905e-17
-3.75033e-17
3.86315e-16
-3.36745e-16
-3.22625e-15
3.43668e-15
-1.85206e-28
1.86265e-27
-2.19406e-27
1.24588e-26
-9.83517e-27
3.98907e-26
-1.63006e-26
5.50805e-26
-2.75578e-27
6.73176e-27
5.79797e-27
-7.19753e-27
1.15326e-24
-4.34304e-25
3.7268e-24
-2.16553e-24
1.10431e-23
-4.51306e-24
1.72924e-23
-5.99382e-24
2.02481e-23
-5.2368e-24
1.42522e-23
-3.23575e-24
5.981e-24
-1.28513e-24
5.81003e-24
-1.03292e-24
9.68431e-24
-4.01805e-24
7.42147e-23
-6.23675e-23
1.19498e-21
-1.0071e-21
1.9056e-20
-1.52207e-20
2.95975e-19
-2.27101e-19
4.10407e-18
-3.1585e-18
4.90815e-17
-4.11243e-17
5.76376e-16
-5.35972e-16
-5.09665e-15
5.25256e-15
-3.42333e-29
1.78269e-28
-4.18317e-28
1.23449e-27
-1.98431e-27
4.19753e-27
-3.66815e-27
6.26607e-27
-5.69286e-28
7.18008e-28
1.63109e-27
-1.46585e-27
5.19723e-26
-4.14867e-26
2.51664e-25
-1.8542e-25
4.94473e-25
-3.0354e-25
6.28355e-25
-2.89984e-25
5.5118e-25
-1.59591e-25
2.97858e-25
-4.35344e-26
1.65627e-25
-2.39473e-26
1.8334e-25
-9.18209e-26
1.75788e-24
-1.82755e-24
3.68368e-23
-3.66957e-23
6.83027e-22
-6.45528e-22
1.15311e-20
-1.04893e-20
1.89995e-19
-1.63255e-19
2.96803e-18
-2.47868e-18
4.76559e-17
-4.31524e-17
7.386e-16
-7.2875e-16
-6.75243e-15
6.45616e-15
-3.21573e-30
7.02642e-34
-4.04105e-29
2.25724e-35
-2.01681e-28
6.92328e-37
-3.99217e-28
2.13871e-38
-5.75529e-29
2.86853e-37
2.218e-28
-1.39623e-28
4.51855e-27
-1.57752e-27
1.81972e-26
-8.48297e-27
2.55469e-26
-1.53268e-26
2.64194e-26
-1.48332e-26
1.0524e-26
-7.53603e-27
3.27622e-27
-1.29722e-27
3.34892e-27
-1.84505e-27
3.09165e-26
-3.64755e-26
8.43716e-25
-9.08297e-25
1.92276e-23
-1.92635e-23
3.77493e-22
-3.70594e-22
6.82807e-21
-6.4966e-21
1.16516e-19
-1.05918e-19
1.96918e-18
-1.71653e-18
4.31408e-17
-3.94138e-17
8.08432e-16
-8.43439e-16
-7.55261e-15
6.70879e-15
-1.24218e-35
1.26137e-47
-7.17699e-37
1.56056e-44
-3.20633e-38
1.84656e-44
-1.30312e-39
6.87041e-42
-2.18163e-38
8.99277e-38
1.28149e-29
-3.7688e-35
1.53434e-28
-5.75849e-32
7.7478e-28
-9.55986e-31
1.15207e-27
-3.09234e-30
1.23104e-27
-4.57649e-30
4.03208e-28
-4.48114e-30
1.41617e-28
-1.63811e-29
3.66224e-28
-4.96843e-28
1.29665e-26
-1.48161e-26
3.6254e-25
-3.75034e-25
8.51465e-24
-8.63286e-24
1.82109e-22
-1.78332e-22
3.52577e-21
-3.37315e-21
6.27877e-20
-5.79744e-20
1.12308e-18
-9.90095e-19
3.1072e-17
-3.08741e-17
7.7544e-16
-8.68403e-16
-7.34164e-15
6.16017e-15
-2.17149e-49
3.46601e-48
-4.7825e-46
4.49167e-45
-8.19248e-46
5.57227e-45
-3.98564e-43
2.09429e-42
-6.46967e-39
1.42666e-39
3.31374e-36
-1.14262e-36
5.74445e-33
-1.35622e-33
9.45831e-32
-2.08605e-32
2.70539e-31
-7.08304e-32
3.55233e-31
-1.14009e-31
3.97227e-31
-2.22019e-31
3.28662e-30
-4.87422e-30
1.35014e-28
-1.69877e-28
4.54681e-27
-4.88002e-27
1.26775e-25
-1.33993e-25
3.2253e-24
-3.25556e-24
7.31155e-23
-7.15314e-23
1.51197e-21
-1.44179e-21
2.80905e-20
-2.5569e-20
5.25229e-19
-4.51235e-19
2.01551e-17
-2.0823e-17
6.49715e-16
-7.06619e-16
-6.04386e-15
4.67667e-15
-5.75357e-50
-1.25873e-49
-1.313e-46
-2.98961e-50
-2.34685e-46
-1.1065e-50
-1.14799e-43
1.01023e-48
-9.64863e-41
2.27194e-45
9.3841e-38
-1.06056e-39
1.25739e-34
-7.66921e-36
1.93303e-33
-3.31084e-34
5.9382e-33
-1.40025e-33
1.04499e-32
-2.86481e-33
2.91146e-32
-3.33509e-32
1.05853e-30
-1.39545e-30
4.08443e-29
-4.65991e-29
1.28264e-27
-1.46475e-27
3.87654e-26
-4.15581e-26
1.02678e-24
-1.05686e-24
2.45107e-23
-2.43155e-23
5.32212e-22
-5.05995e-22
1.00224e-20
-8.79966e-21
1.91366e-19
-1.53798e-19
1.07929e-17
-1.1011e-17
3.92325e-16
-4.76719e-16
-4.64169e-15
3.22095e-15
1.99104e-51
-4.82793e-50
3.85884e-52
-8.6715e-51
4.3608e-52
-2.59866e-51
-5.18094e-50
6.15765e-49
-1.43194e-46
1.4006e-45
7.99927e-41
-1.11154e-41
6.63542e-37
-1.51384e-38
2.92144e-35
-1.52589e-36
1.16285e-34
-1.00881e-35
2.85618e-34
-1.82672e-34
5.46628e-33
-9.20072e-33
2.64619e-31
-3.46868e-31
9.64801e-30
-1.22492e-29
3.3329e-28
-3.94362e-28
1.02484e-26
-1.15238e-26
2.81542e-25
-3.0283e-25
6.9449e-24
-7.09809e-24
1.52843e-22
-1.4569e-22
2.76707e-21
-2.33552e-21
5.15446e-20
-3.7653e-20
4.43021e-18
-4.37366e-18
2.12224e-16
-2.67677e-16
-3.15852e-15
2.05317e-15
7.19668e-52
-2.49874e-51
4.10414e-53
-7.35981e-52
5.14801e-53
9.09015e-53
-2.92071e-50
1.93479e-49
-8.1409e-47
4.45545e-46
8.65417e-43
-2.41871e-42
1.21088e-39
-1.89589e-40
1.28969e-37
-1.31071e-38
9.81743e-37
-7.83662e-37
2.35252e-35
-4.49366e-35
1.40381e-33
-2.01209e-33
5.69486e-32
-7.75174e-32
2.2016e-30
-2.8504e-30
7.65938e-29
-9.44135e-29
2.40554e-27
-2.82336e-27
6.75131e-26
-7.57325e-26
1.6705e-24
-1.75229e-24
3.55664e-23
-3.39509e-23
5.84114e-22
-4.86817e-22
9.90385e-21
-6.7686e-21
1.34828e-18
-1.26874e-18
9.20693e-17
-1.23752e-16
-1.93714e-15
1.11832e-15
1.77709e-53
-5.78296e-53
9.5053e-54
-2.69102e-53
-3.04981e-54
2.84991e-52
-8.38037e-51
2.2801e-51
-2.3601e-47
-8.66821e-49
1.77077e-43
-3.19921e-43
1.50316e-41
-3.58164e-41
1.18256e-39
-2.61253e-39
8.12192e-38
-1.60382e-37
5.40373e-36
-7.71433e-36
2.592e-34
-3.50017e-34
1.09423e-32
-1.49788e-32
4.34225e-31
-5.57071e-31
1.53925e-29
-1.86989e-29
4.89078e-28
-5.67324e-28
1.38345e-26
-1.54131e-26
3.32231e-25
-3.40734e-25
6.56369e-24
-6.07891e-24
9.57502e-23
-8.36146e-23
1.3995e-21
-1.11098e-21
2.93824e-19
-2.61699e-19
3.23318e-17
-4.91138e-17
-1.06521e-15
5.25794e-16
3.88228e-55
-3.48904e-54
2.88578e-55
1.73819e-54
-8.62792e-54
2.91806e-52
-8.89409e-53
6.32092e-51
8.26535e-50
-6.08714e-50
1.99784e-44
-3.52143e-44
2.63286e-42
-3.72371e-42
2.17709e-40
-2.83612e-40
1.4855e-38
-1.82809e-38
7.74882e-37
-1.04856e-36
3.84657e-35
-5.16802e-35
1.78056e-33
-2.20154e-33
7.04864e-32
-8.2307e-32
2.49745e-30
-2.74459e-30
7.93845e-29
-8.27545e-29
2.24033e-27
-2.26199e-27
5.04992e-26
-4.67299e-26
9.08556e-25
-7.8386e-25
1.27845e-23
-1.25735e-23
1.8214e-22
-2.2761e-22
4.40729e-20
-3.75486e-20
9.29932e-18
-1.64596e-17
-5.18832e-16
2.05693e-16
2.27668e-56
-1.31946e-55
-3.32886e-56
1.84405e-54
-7.84582e-54
2.29454e-52
-2.18627e-52
7.12824e-51
3.25599e-51
-1.6003e-50
1.90522e-45
-2.70028e-45
2.30744e-43
-3.42826e-43
1.98338e-41
-2.80642e-41
1.42025e-39
-1.91069e-39
8.9709e-38
-1.10235e-37
4.77502e-36
-5.39085e-36
2.15943e-34
-2.29254e-34
8.47834e-33
-8.32654e-33
2.93677e-31
-2.66857e-31
9.1123e-30
-7.65252e-30
2.53975e-28
-2.11732e-28
5.26351e-27
-4.33468e-27
8.8954e-26
-8.31945e-26
1.46373e-24
-1.7226e-24
2.80377e-23
-4.29532e-23
4.34973e-21
-3.97478e-21
2.06043e-18
-4.56814e-18
-2.19352e-16
6.29982e-17
7.94457e-58
-3.07595e-57
-3.10651e-56
7.07266e-55
-5.37166e-54
1.61848e-52
-2.14665e-52
6.49467e-51
9.36358e-52
1.41177e-52
1.24681e-46
-1.50823e-46
1.82592e-44
-2.12798e-44
1.68177e-42
-1.84074e-42
1.26397e-40
-1.2973e-40
7.89449e-39
-7.71154e-39
4.11128e-37
-3.77043e-37
1.83477e-35
-1.56577e-35
6.88446e-34
-5.41357e-34
2.25202e-32
-1.69385e-32
6.50988e-31
-4.55235e-31
1.79754e-29
-1.3378e-29
3.65226e-28
-3.61522e-28
7.01615e-27
-1.02046e-26
1.41392e-25
-1.93702e-25
3.40763e-24
-3.87967e-24
2.85091e-22
-4.14462e-22
3.14714e-19
-1.02237e-18
-7.71282e-17
1.25435e-17
1.72283e-59
-4.72611e-59
-1.01687e-56
3.78893e-55
-3.21137e-54
9.21747e-53
-1.66487e-52
4.20167e-51
-4.45737e-54
1.17262e-52
5.89852e-48
-6.41481e-48
9.55004e-46
-9.21905e-46
9.26168e-44
-8.36523e-44
7.16221e-42
-6.03961e-42
4.57913e-40
-3.64817e-40
2.36173e-38
-1.81452e-38
1.01538e-36
-7.69402e-37
3.57396e-35
-2.82933e-35
1.12444e-33
-1.10708e-33
2.99158e-32
-3.62991e-32
8.54245e-31
-1.15676e-30
2.20333e-29
-3.16613e-29
5.71997e-28
-6.52276e-28
9.43899e-27
-8.85496e-27
1.59634e-25
-1.35428e-25
1.35581e-23
-2.5404e-23
2.07545e-20
-1.95419e-19
-2.12578e-17
1.22963e-19
2.41885e-61
-3.16434e-61
-4.41458e-57
1.05392e-55
-1.49211e-54
2.71619e-53
-8.90684e-53
1.42533e-51
-3.1006e-54
3.27287e-53
2.09002e-49
-1.71735e-49
3.45854e-47
-2.82659e-47
3.51493e-45
-2.59797e-45
2.77428e-43
-1.97155e-43
1.78813e-41
-1.18703e-41
9.29212e-40
-6.39536e-40
4.03495e-38
-3.29182e-38
1.48727e-36
-1.34389e-36
5.6991e-35
-5.48531e-35
1.77641e-33
-1.92072e-33
5.16312e-32
-6.08981e-32
1.21966e-30
-1.70402e-30
1.95923e-29
-2.18223e-29
1.86586e-28
-1.08865e-28
1.96084e-27
-5.08743e-26
-2.3491e-24
-3.63876e-23
-2.43288e-20
-3.15677e-20
-4.26603e-18
-2.27472e-18
1.26141e-63
3.65626e-62
-9.12401e-58
1.01688e-57
-3.39741e-55
2.89222e-55
-2.4069e-53
2.14864e-53
-7.05465e-55
3.33646e-55
4.57182e-51
-2.79853e-51
8.73905e-49
-5.45667e-49
9.01354e-47
-5.33063e-47
7.45825e-45
-4.1029e-45
4.77087e-43
-3.056e-43
2.66317e-41
-1.91174e-41
1.37776e-39
-9.74258e-40
5.47351e-38
-4.30662e-38
2.08863e-36
-1.93434e-36
6.49718e-35
-8.08025e-35
1.68849e-33
-2.52721e-33
3.31307e-32
-4.34025e-32
2.09063e-31
-1.88988e-31
-1.11153e-31
-5.64136e-29
-6.00893e-27
-4.07417e-26
-1.96074e-23
-1.48307e-23
-1.16121e-20
-4.02393e-21
-6.25739e-19
-8.87296e-19
-2.49027e-64
3.87895e-62
-5.59779e-60
1.95101e-59
-2.58129e-57
1.48867e-57
-2.74962e-55
4.34514e-56
-5.66782e-57
7.40012e-57
5.96927e-53
-3.6994e-53
1.36483e-50
-5.76074e-51
1.50452e-48
-6.4837e-49
1.26489e-46
-6.5091e-47
9.96171e-45
-4.91361e-45
6.36274e-43
-3.43783e-43
3.17948e-41
-1.82043e-41
1.3231e-39
-9.76492e-40
5.26568e-38
-5.2749e-38
1.75964e-36
-1.92058e-36
3.60278e-35
-5.26178e-35
2.04217e-34
-4.26837e-34
-1.27056e-33
-4.84788e-32
-1.8981e-29
-3.02807e-29
-2.84395e-26
-1.06932e-26
-1.21164e-23
-2.36567e-24
-2.27165e-21
-4.00841e-22
-7.10142e-20
-1.92527e-19
-1.75185e-64
1.87721e-62
-4.82038e-62
7.49507e-60
-8.20832e-60
4.95664e-58
-3.89797e-58
1.5848e-56
-9.45985e-59
6.83892e-57
6.11596e-55
-1.16147e-55
1.13838e-52
-2.49691e-53
1.46222e-50
-3.47423e-51
1.60529e-48
-3.52146e-49
1.2723e-46
-3.55002e-47
8.96398e-45
-2.68106e-45
4.56079e-43
-1.88908e-43
2.21686e-41
-1.42293e-41
9.78018e-40
-7.34882e-40
2.3914e-38
-3.00843e-38
2.25966e-37
-6.1546e-37
-1.55469e-36
-1.36351e-35
-3.04452e-32
-1.03168e-32
-2.43659e-29
-4.53923e-30
-9.19242e-27
-1.22451e-27
-2.0955e-24
-2.25532e-25
-2.77368e-22
-3.15262e-23
-5.53101e-21
-2.91984e-20
-2.30925e-66
5.68286e-64
1.81785e-61
5.28458e-62
-9.32333e-61
2.8858e-60
-8.60112e-59
1.26481e-58
-6.14809e-59
3.41508e-57
1.50976e-57
4.53883e-60
3.78688e-55
-1.8288e-56
6.09291e-53
-3.29846e-54
6.78178e-51
-4.52967e-52
7.16243e-49
-6.33664e-50
5.38681e-47
-6.99166e-48
3.57223e-45
-8.5303e-46
2.31919e-43
-7.53728e-44
8.82808e-42
-4.98202e-42
1.76753e-40
-2.26886e-40
-7.12178e-40
-2.47835e-39
-7.77875e-36
-1.34481e-36
-8.72764e-33
-9.34548e-34
-4.03784e-30
-3.65341e-31
-1.10647e-27
-9.21687e-29
-2.05591e-25
-1.62918e-26
-2.4953e-23
-2.62235e-24
-2.44046e-22
-2.66273e-21
2.74952e-64
9.80417e-70
1.2788e-62
2.10815e-68
1.80886e-61
4.81721e-67
-2.97163e-61
7.41983e-66
-1.93491e-59
7.37652e-75
-3.91369e-62
-1.5074e-63
2.04185e-58
-1.83348e-60
4.34739e-56
-4.4195e-58
6.62049e-54
-8.2646e-56
9.70141e-52
-1.79326e-53
1.0577e-49
-3.30562e-51
1.18512e-47
-4.66472e-49
8.57581e-46
-5.14173e-47
3.68354e-44