/*--------------------------------*- C++ -*----------------------------------*\
  =========                 |
  \\      /  F ield         | OpenFOAM: The Open Source CFD Toolbox
   \\    /   O peration     | Website:  https://openfoam.org
    \\  /    A nd           | Version:  9
     \\/     M anipulation  |
\*---------------------------------------------------------------------------*/
FoamFile
{
    format      ascii;
    class       volScalarField;
    location    "0.4";
    object      alpha.water;
}
// * * * * * * * * * * * * * * * * * * * * * * * * * * * * * * * * * * * * * //

dimensions      [0 0 0 0 0 0 0];

internalField   nonuniform List<scalar> 
2268
(
4.80984e-06
-3.09776e-10
-1.05888e-10
-2.13058e-11
-1.55311e-12
-2.12563e-14
2.44614e-16
1.16434e-17
8.97059e-20
-1.85884e-22
-3.07085e-22
6.07829e-24
6.68042e-24
5.50973e-24
3.87037e-24
2.66938e-24
1.95181e-24
1.46183e-24
1.12779e-24
9.71832e-25
8.43775e-25
6.57004e-25
3.21891e-25
3.51205e-06
-1.28132e-10
-2.7903e-11
-6.28533e-12
-4.63393e-13
-4.33893e-15
1.95125e-16
4.32745e-19
-2.35445e-21
-7.13227e-21
-4.03448e-21
4.10408e-23
1.38231e-23
8.12733e-24
3.87054e-24
1.64831e-24
7.26396e-25
3.31873e-25
1.88139e-25
1.38695e-25
2.85816e-25
4.7616e-25
3.22034e-25
1.26816e-07
-9.69461e-11
-1.51969e-11
-2.53782e-12
-1.75284e-13
-6.29865e-16
4.90458e-17
3.65412e-20
-4.03816e-20
-5.17592e-20
-2.12288e-20
1.22402e-22
9.94764e-24
3.50008e-24
9.16706e-25
1.92013e-25
4.4142e-26
1.15214e-26
4.51491e-27
4.47784e-27
3.70233e-26
2.72285e-25
2.76631e-25
-7.83962e-17
-9.22315e-11
-1.24213e-11
-1.35172e-12
-7.48531e-14
6.35453e-16
1.06776e-18
-5.22607e-20
-2.35789e-19
-1.97279e-19
-6.56064e-20
1.86166e-22
7.44929e-24
1.3569e-24
1.88573e-25
1.95328e-26
2.9558e-27
6.89299e-28
7.01151e-28
1.11987e-27
3.97075e-27
1.52918e-25
2.2695e-25
0
-3.21722e-10
-1.1695e-11
-8.82239e-13
-2.70564e-14
2.78837e-15
8.87696e-19
-3.79707e-19
-7.05189e-19
-4.92158e-19
-1.38985e-19
2.13295e-22
1.22532e-23
9.68886e-25
7.23986e-26
2.45621e-27
4.15631e-28
2.96497e-28
9.72472e-28
4.20521e-27
7.92808e-27
1.20943e-25
1.85967e-25
-5.10741e-20
-8.9258e-10
-1.16294e-11
-6.65878e-13
-2.79754e-15
4.26672e-15
7.79934e-17
-7.97309e-19
-1.43359e-18
-9.00732e-19
-2.20582e-19
2.16836e-22
1.98005e-23
8.91679e-25
5.05945e-26
7.99338e-28
2.0868e-28
2.59803e-28
1.97942e-27
1.12669e-26
3.89726e-26
1.05859e-25
1.47845e-25
0.010065
-1.83939e-09
-1.18188e-11
-5.53678e-13
5.40068e-15
1.20091e-15
1.57065e-17
-6.55764e-19
-2.27017e-18
-1.27347e-18
-2.75861e-19
2.13153e-22
1.23369e-23
7.78958e-25
4.53194e-26
7.26446e-28
1.82741e-28
1.98918e-28
2.38104e-27
1.42985e-26
4.44136e-26
8.37955e-26
1.06676e-25
0.0145749
-3.15247e-09
-1.2115e-11
-4.80004e-13
1.49904e-14
4.05363e-16
2.87654e-17
-6.39278e-19
-2.80448e-18
-1.39889e-18
-2.79867e-19
3.20077e-22
1.00588e-23
7.20042e-25
5.34597e-26
2.54781e-27
1.70471e-28
1.08267e-28
9.16292e-28
6.53097e-27
2.33321e-26
4.50036e-26
5.40105e-26
2.51011e-66
2.50789e-66
2.35746e-64
1.18079e-63
1.52155e-63
1.06902e-63
5.36572e-64
5.64705e-64
1.81112e-63
6.59101e-63
1.35406e-62
3.85218e-63
6.96435e-64
7.38004e-65
3.78137e-66
4.56757e-68
2.87289e-70
2.77741e-73
1.60251e-73
3.72084e-65
1.46818e-63
2.62825e-62
8.49741e-62
1.14164e-61
9.12134e-62
3.90855e-62
1.39766e-61
3.24055e-61
1.28906e-61
4.08647e-62
1.35406e-62
3.75672e-63
6.09414e-64
7.53549e-65
4.73278e-66
1.44138e-67
4.33519e-71
4.27605e-74
1.5931e-62
4.50432e-61
3.36665e-60
8.54248e-60
1.10706e-59
8.58712e-60
7.75077e-60
4.30143e-59
6.90999e-59
3.18093e-59
1.14817e-59
3.78227e-60
1.09681e-60
1.90098e-61
1.98419e-62
1.29552e-63
3.30571e-65
2.38927e-68
2.41765e-74
3.32705e-60
7.14755e-59
4.25557e-58
9.48486e-58
1.10993e-57
6.63394e-58
1.72413e-57
8.55123e-57
9.84967e-57
5.45367e-57
1.65493e-57
6.00527e-58
1.60387e-58
2.63253e-59
2.68499e-60
1.91023e-61
4.98299e-63
6.73053e-66
1.9051e-76
3.50437e-58
8.53359e-57
4.90817e-56
1.07172e-55
1.24574e-55
7.32234e-56
3.43236e-55
1.25238e-54
1.06471e-54
6.4529e-55
1.78623e-55
6.39768e-56
1.57706e-56
2.45713e-57
2.48428e-58
1.91666e-59
5.47836e-61
1.32538e-63
4.58678e-73
2.68785e-56
8.6324e-55
5.08237e-54
1.14791e-53
1.41413e-53
1.16224e-53
6.12724e-53
1.54024e-52
1.10413e-52
6.2831e-53
1.66867e-53
5.49533e-54
1.26043e-54
1.90058e-55
2.18101e-56
1.61325e-57
5.81634e-59
5.6654e-61
2.78872e-68
2.18172e-54
6.6334e-53
3.39613e-52
7.58702e-52
1.08784e-51
2.02296e-51
9.63872e-51
1.30985e-50
1.10008e-50
6.19429e-51
2.13956e-51
5.99739e-52
1.28336e-52
1.96351e-53
2.09253e-54
1.43766e-55
4.70682e-57
2.49953e-59
2.69571e-65
1.26569e-51
1.80208e-50
4.66901e-50
6.66835e-50
7.63376e-50
3.30277e-49
8.8509e-49
2.02219e-49
1.65749e-49
1.38248e-49
6.42551e-50
1.86276e-50
3.65534e-51
4.93069e-52
4.67566e-53
2.98826e-54
3.93413e-56
2.43666e-61
1.43962e-63
0.0146229
-3.48968e-09
-1.30427e-11
-2.84361e-13
3.76007e-14
4.87735e-16
4.00962e-17
-8.15647e-19
-2.47273e-18
-1.18115e-18
-2.3482e-19
1.44551e-21
1.07033e-23
1.39078e-24
9.72579e-26
8.04967e-27
4.07848e-28
5.90204e-29
2.03491e-28
9.29197e-28
2.26456e-27
3.50688e-27
2.86552e-27
0.0146169
-2.22998e-09
-1.40919e-11
-2.90699e-14
9.93387e-14
9.06526e-16
9.5417e-17
5.49035e-18
-1.9172e-19
-4.27116e-19
-1.19523e-19
2.45226e-21
5.89074e-23
2.87392e-24
1.7441e-25
1.54521e-26
6.93582e-28
6.58591e-30
5.55002e-31
5.19071e-31
1.57703e-30
2.23981e-30
2.73225e-31
0.010105
-9.57524e-10
-1.54626e-11
1.73649e-13
2.28652e-13
3.55062e-15
6.43755e-16
6.37174e-17
2.89567e-18
6.43939e-20
6.05777e-21
1.1353e-21
1.56129e-22
2.04925e-23
1.59928e-24
1.7025e-25
6.92017e-27
1.47591e-28
4.92777e-30
1.79407e-34
2.29371e-35
2.82622e-36
1.43765e-37
0.000305199
-2.90092e-10
-1.76014e-11
7.56076e-13
3.57003e-13
9.43394e-15
1.39084e-15
8.56468e-17
2.52691e-18
1.10416e-19
1.85653e-20
4.43604e-21
1.33907e-21
2.14861e-22
2.33792e-23
2.75448e-24
1.61575e-25
5.46378e-27
1.16557e-28
3.94506e-33
1.84134e-34
2.38668e-35
2.81501e-36
0.000100504
6.14786e-05
-2.0972e-11
1.59237e-12
6.21107e-13
1.8659e-14
2.13e-15
1.12121e-16
6.12557e-18
8.54665e-19
1.00124e-19
1.65614e-20
5.90808e-21
1.17124e-21
1.42523e-22
1.61692e-23
1.1994e-24
4.35107e-26
3.9947e-28
1.75302e-31
9.8193e-33
1.91866e-33
4.17134e-34
0.000258078
0.000978485
-2.48011e-11
2.64683e-12
1.07107e-12
3.21935e-14
3.20555e-15
2.69386e-16
5.36633e-17
1.09664e-17
9.42304e-19
4.84579e-20
1.121e-20
2.35318e-21
2.9521e-22
3.2591e-23
2.7174e-24
1.08281e-25
3.1852e-28
7.94968e-30
5.34636e-31
1.33844e-31
3.84475e-32
0.0275729
0.00191863
-2.66678e-11
4.02737e-12
1.68393e-12
5.35829e-14
6.33549e-15
1.45661e-15
5.38778e-16
1.13505e-16
1.10835e-17
5.3216e-19
1.03033e-20
7.76148e-22
9.23264e-23
1.27746e-23
1.6617e-24
1.53911e-25
4.47004e-27
3.49211e-28
2.58377e-29
7.48899e-30
2.53646e-30
0.16881
0.000128396
-2.55487e-11
5.92878e-12
2.35421e-12
9.41014e-14
1.94894e-14
9.61098e-15
4.36727e-15
9.57857e-16
1.24663e-16
1.06907e-17
3.73127e-20
4.47373e-21
7.3875e-22
9.49079e-23
1.33243e-23
1.74967e-24
1.69164e-25
1.44712e-26
1.11534e-27
3.50862e-28
1.3161e-28
0.184588
-2.34441e-11
-2.22918e-11
8.65981e-12
3.04218e-12
1.82086e-13
7.40782e-14
5.87019e-14
3.45976e-14
1.11034e-14
3.40439e-15
8.91636e-16
1.36742e-16
6.58825e-18
8.7734e-20
3.73403e-21
4.78608e-22
6.52427e-23
6.62521e-24
5.6458e-25
4.34278e-26
1.41239e-26
5.66311e-27
0.185725
-2.06538e-13
-1.75905e-11
1.25482e-11
3.88899e-12
3.92131e-13
2.82238e-13
3.45705e-13
3.59191e-13
2.04179e-13
8.21753e-14
2.88248e-14
7.07433e-15
1.13333e-15
9.65564e-17
7.62183e-19
2.27018e-20
2.53036e-21
2.51055e-22
2.07057e-23
1.53846e-24
4.90891e-25
2.00821e-25
0.18676
-2.06219e-15
-1.08471e-11
1.70893e-11
5.20422e-12
9.4838e-13
1.00402e-12
1.81088e-12
2.14689e-12
1.69238e-12
6.49642e-13
2.41947e-13
8.0828e-14
2.00117e-14
3.31846e-15
3.19279e-16
8.83918e-18
1.49326e-19
8.80469e-21
6.85525e-22
4.88653e-23
1.95656e-23
9.45806e-24
0.189781
-8.7006e-17
-2.7118e-12
2.30361e-11
7.50601e-12
2.10943e-12
3.36728e-12
6.67271e-12
7.95902e-12
6.4217e-12
2.56174e-12
1.10774e-12
4.58507e-13
1.46729e-13
3.61949e-14
7.11108e-15
9.76371e-16
6.33181e-17
7.87251e-19
3.24064e-20
2.00978e-21
2.97957e-21
2.2524e-21
0.190792
1.56849e-13
-2.39612e-19
3.29929e-11
1.14707e-11
4.42099e-12
9.3471e-12
1.80652e-11
2.09802e-11
1.59461e-11
7.08093e-12
3.81219e-12
1.96502e-12
8.11237e-13
2.75934e-13
7.72373e-14
1.66124e-14
2.40949e-15
1.97699e-16
8.16098e-18
3.01759e-19
1.32959e-19
5.79676e-20
0.191027
1.45652e-12
1.56851e-13
4.92515e-11
1.76489e-11
8.66359e-12
2.1762e-11
3.92833e-11
4.36116e-11
3.07298e-11
1.7886e-11
1.29143e-11
8.26929e-12
3.94066e-12
1.46242e-12
4.3733e-13
1.09959e-13
2.19624e-14
3.03194e-15
2.25601e-16
1.14544e-17
2.11096e-18
4.3791e-19
0.191015
4.67187e-09
8.4289e-13
7.34526e-11
2.65402e-11
1.62558e-11
4.26727e-11
6.74413e-11
7.112e-11
5.59559e-11
4.70649e-11
4.44855e-11
3.00263e-11
1.36426e-11
4.93212e-12
1.49008e-12
4.20555e-13
1.05643e-13
1.89589e-14
1.77216e-15
1.20502e-16
1.67657e-17
2.0939e-18
0.189368
5.74468e-12
3.55253e-12
1.01425e-10
3.84917e-11
2.71763e-11
6.87916e-11
1.11831e-10
1.35126e-10
1.45602e-10
1.48328e-10
1.08045e-10
6.57064e-11
3.12361e-11
1.18063e-11
3.85003e-12
1.27849e-12
4.19813e-13
9.73836e-14
1.24123e-14
1.06495e-15
7.88278e-17
8.48358e-18
0.0364396
1.53235e-11
2.00951e-11
1.3319e-10
5.37441e-11
3.94236e-11
1.03059e-10
2.09299e-10
3.18986e-10
4.13026e-10
4.61652e-10
2.32684e-10
1.10761e-10
5.52229e-11
2.49776e-11
9.6663e-12
3.60505e-12
1.4724e-12
4.08218e-13
7.05449e-14
7.20894e-15
3.15284e-16
4.33666e-17
1.46233e-05
1.64361e-05
2.46963e-11
1.74399e-10
7.68124e-11
5.64678e-11
1.58897e-10
4.19457e-10
7.33255e-10
9.11123e-10
9.25214e-10
8.42955e-10
3.47862e-10
1.05223e-10
5.65953e-11
2.61326e-11
9.35357e-12
3.97009e-12
1.1819e-12
2.60851e-13
3.16611e-14
1.51319e-15
3.40705e-16
0.0187644
0.000179036
2.47786e-11
2.57357e-10
1.29048e-10
9.51217e-11
2.71649e-10
6.67632e-10
8.73792e-10
9.25042e-10
9.25214e-10
9.14948e-10
5.83495e-10
2.78532e-10
1.78678e-10
6.1241e-11
2.30263e-11
8.74217e-12
2.69048e-12
7.60034e-13
1.23477e-13
1.22061e-14
3.41795e-15
0.319117
1.02244e-11
3.13055e-11
3.10694e-10
2.23165e-10
1.85558e-10
4.17398e-10
7.26338e-10
7.91615e-10
7.31118e-10
7.47468e-10
8.6887e-10
9.111e-10
8.10327e-10
5.43863e-10
1.43202e-10
5.45996e-11
1.96701e-11
6.64293e-12
2.61463e-12
7.27297e-13
1.6261e-13
3.98607e-14
0.409933
3.61869e-11
3.58361e-11
3.10604e-10
2.22144e-10
2.37189e-10
5.3209e-10
6.66887e-10
6.6021e-10
6.61857e-10
6.64533e-10
1.61328e-09
1.22779e-09
1.70919e-09
1.19228e-09
3.14889e-10
1.25699e-10
5.229e-11
2.35138e-11
1.30186e-11
6.04826e-12
2.16519e-12
5.364e-13
0.412619
4.10129e-11
3.86975e-11
2.00561e-10
1.49435e-10
1.6523e-10
5.04894e-10
5.10821e-10
1.17789e-09
8.01493e-09
3.3783e-08
1.18214e-09
1.2121e-09
2.08686e-09
1.97773e-09
8.02538e-10
2.70036e-10
1.48757e-10
9.3184e-11
6.35651e-11
3.96332e-11
1.92192e-11
6.21808e-12
0.412773
2.05782e-06
4.10379e-11
4.19627e-11
5.98302e-11
8.70483e-11
4.80694e-10
4.96224e-10
1.08268e-08
1.06882e-07
4.32091e-08
1.18716e-09
1.18292e-09
1.65115e-09
1.62626e-09
9.11473e-10
5.71671e-10
3.62221e-10
2.81897e-10
2.23202e-10
1.61214e-10
9.69925e-11
4.34997e-11
0.400469
7.58306e-11
4.19622e-11
2.9821e-09
3.42049e-08
2.03194e-08
4.96386e-10
5.30121e-10
4.01617e-08
1.16605e-07
5.69405e-08
1.18212e-09
1.46316e-09
3.21431e-09
1.04801e-09
8.72366e-10
8.21986e-10
6.32408e-10
5.71271e-10
5.26573e-10
4.09789e-10
2.83577e-10
1.65816e-10
0.328936
2.87521e-10
7.58315e-11
2.67993e-08
4.63981e-08
4.63755e-08
5.44372e-10
4.2163e-09
1.16605e-07
1.16785e-07
1.13123e-07
1.18716e-09
1.19223e-09
1.67412e-09
8.71277e-10
8.32188e-10
8.41658e-10
7.65905e-10
7.79877e-10
8.3622e-10
7.07845e-10
5.39162e-10
3.74952e-10
0.371154
6.09199e-10
3.74625e-10
1.79418e-08
2.98234e-08
3.32225e-08
6.09114e-10
2.15498e-08
8.00904e-08
1.1669e-07
9.87163e-08
9.60327e-08
1.84884e-08
8.34764e-10
8.33138e-10
8.30959e-10
8.30858e-10
7.8047e-10
8.19061e-10
9.62666e-10
9.0732e-10
7.58407e-10
5.83476e-10
0.526734
5.143e-09
2.89086e-09
6.3558e-09
3.99356e-09
1.87668e-09
7.94101e-10
3.97358e-08
3.49103e-08
5.16143e-08
3.43714e-08
9.85932e-08
2.55482e-06
1.60507e-07
1.01765e-09
4.35527e-08
7.90793e-10
7.81963e-10
7.9379e-10
9.65942e-10
9.57063e-10
8.73231e-10
7.21512e-10
0.681601
1.04426e-08
5.13077e-09
9.53407e-09
2.84907e-05
2.84311e-09
1.71063e-07
4.30556e-08
3.46402e-08
3.43699e-08
3.4388e-08
5.50497e-07
2.58767e-06
1.54822e-06
3.13987e-09
1.31903e-07
1.48687e-09
4.77795e-09
1.08044e-08
8.95839e-10
8.91758e-10
8.96199e-10
7.85569e-10
0.780743
0.00179828
2.41635e-08
2.77694e-05
8.15326e-05
3.37611e-05
1.09949e-06
3.58195e-08
3.49103e-08
7.67905e-07
3.43753e-08
1.02311e-06
2.58767e-06
2.58344e-06
4.52352e-07
6.24661e-08
5.05254e-08
1.96338e-07
1.8357e-07
4.20972e-09
8.55538e-10
8.38918e-10
7.95973e-10
0.861843
0.0134957
4.56452e-07
3.33722e-05
7.95623e-05
6.42452e-05
3.20363e-06
6.55437e-08
3.50341e-06
7.25313e-06
5.41507e-06
2.53502e-06
2.23587e-06
2.00891e-06
1.28328e-06
5.89212e-08
5.27572e-08
5.89222e-08
4.3326e-07
5.91257e-08
8.96181e-10
8.53955e-10
7.81992e-10
0.953533
0.024418
-7.06661e-05
9.60772e-06
1.44719e-05
1.07131e-05
9.90958e-07
2.21964e-07
5.45103e-06
7.28825e-06
7.28825e-06
6.10369e-06
9.08925e-07
7.05012e-07
6.7743e-07
3.7066e-06
3.53356e-05
2.50664e-05
8.76462e-07
9.73179e-09
3.81448e-09
6.51223e-09
4.07691e-09
0.997454
0.160762
0.000734542
8.47527e-05
9.36645e-06
1.0773e-06
5.0146e-07
3.84598e-07
8.50176e-07
5.15579e-06
7.28825e-06
3.99148e-06
6.99371e-07
6.76672e-07
6.67954e-07
1.08435e-05
5.16372e-05
5.22543e-05
4.81326e-05
8.60638e-06
9.73179e-09
2.30072e-08
3.19947e-08
0.999483
0.747304
0.0757381
0.000641107
5.58042e-05
6.27114e-06
1.17875e-06
5.49412e-07
9.35127e-07
1.04962e-06
1.36213e-06
7.34394e-07
6.75365e-07
6.70162e-07
6.67422e-07
6.64598e-07
3.18395e-05
5.315e-05
5.315e-05
5.31503e-05
1.55591e-05
8.72795e-08
5.01158e-08
0.999915
0.999544
0.653138
0.248319
0.0475064
6.18474e-05
6.69688e-06
1.17806e-06
7.95546e-07
8.42755e-07
7.14016e-07
6.75781e-07
6.6784e-07
6.68109e-07
6.63596e-07
6.59152e-07
6.76623e-07
3.10097e-05
5.315e-05
5.29353e-05
1.62484e-05
5.94511e-07
2.29067e-07
0.999989
0.999922
0.991877
0.894692
0.72799
0.5282
0.352746
0.211218
0.0957706
9.81976e-07
8.58679e-07
7.0468e-07
6.41137e-07
5.01803e-07
6.56761e-07
6.7899e-07
8.45882e-07
1.00046e-06
7.43959e-06
8.57286e-06
3.96237e-06
1.09973e-06
2.9556e-06
0.999999
0.99999
0.998243
0.996377
0.994927
0.990122
0.965646
0.914229
0.833995
0.710151
0.518549
0.335373
0.197443
0.00899038
9.68448e-07
7.92296e-07
9.89538e-07
1.70976e-06
2.64614e-06
9.4564e-07
1.54263e-06
1.51777e-06
1.54448e-06
1
0.999999
0.999722
0.999453
0.999298
0.999228
0.999162
0.999024
0.998772
0.998426
0.994942
0.971679
0.930096
0.829407
0.688569
0.57556
0.424701
0.1572
0.00211923
-6.92483e-06
1.52236e-07
1.28204e-06
1.51756e-06
1
1
0.999963
0.99993
0.999916
0.999915
0.999918
0.999914
0.999905
0.999889
0.99987
0.99984
0.9998
0.999718
0.999624
0.999148
0.988593
0.938408
0.857356
0.818359
0.796993
0.693029
0.423645
1
1
0.999997
0.999994
0.999992
0.999992
0.999993
0.999993
0.999993
0.999993
0.999993
0.999992
0.999991
0.999989
0.999985
0.99998
0.999976
0.999963
0.999939
0.999624
0.99774
0.997787
0.999365
1
1
1
0.999999
0.999999
0.999999
0.999999
0.999998
0.999998
0.999998
0.999998
0.999998
0.999998
0.999997
0.999991
0.999983
0.999981
0.999977
0.999966
0.999938
0.999922
0.99986
0.999687
1
1
1
0.999999
0.999999
0.999999
0.999999
0.999999
0.999998
0.999998
0.999998
0.999998
0.999998
0.999998
0.999995
0.999986
0.999069
0.999758
0.999797
0.999663
0.999134
0.997446
0.990945
0.899588
0.894451
0.921397
0.911875
0.903619
0.931227
0.936675
0.930807
0.933452
0.903177
0.870149
0.809234
0.789273
0.762438
0.76098
0.73773
0.717435
0.669147
0.652002
0.648322
0.597472
0.493864
0.394494
2.92722e-45
4.85487e-47
5.02366e-47
3.45497e-47
5.54334e-43
3.68772e-43
2.35582e-43
1.75357e-43
3.4189e-42
3.27887e-41
3.52064e-40
5.39237e-40
1.32983e-37
2.14907e-38
9.26681e-40
5.70318e-40
4.41277e-35
1.60397e-35
4.88659e-36
1.47827e-36
5.4679e-33
2.3977e-33
9.12029e-34
3.56953e-34
4.23278e-31
2.0295e-31
8.47688e-32
3.60983e-32
2.41419e-29
1.21815e-29
5.36314e-30
2.36777e-30
1.09985e-27
5.7253e-28
2.60781e-28
1.16077e-28
4.05128e-26
2.1457e-26
1.00158e-26
4.40632e-27
1.43468e-24
7.9229e-25
3.64561e-25
1.66143e-25
2.4137e-22
1.41977e-22
6.18428e-23
3.3007e-23
1.39911e-20
7.44865e-21
3.54134e-21
1.77291e-21
1.4763e-19
7.47178e-20
3.63059e-20
1.81503e-20
7.7565e-19
3.91979e-19
1.94947e-19
9.99411e-20
3.51737e-18
1.83188e-18
9.58062e-19
5.25999e-19
2.22068e-17
1.23536e-17
7.008e-18
4.23649e-18
2.11423e-16
1.2767e-16
7.66186e-17
4.87501e-17
2.18785e-15
1.43878e-15
8.92258e-16
5.79593e-16
2.1637e-14
1.50466e-14
9.56829e-15
6.30101e-15
2.19699e-13
1.49475e-13
9.52232e-14
6.28227e-14
2.30463e-12
1.4576e-12
9.04153e-13
5.87736e-13
1.91651e-11
1.19432e-11
7.39224e-12
4.79056e-12
9.57607e-11
6.41507e-11
4.20007e-11
2.82955e-11
2.73704e-10
2.06196e-10
1.47927e-10
1.06756e-10
4.94302e-10
4.21434e-10
3.35539e-10
2.60644e-10
6.5197e-10
6.11551e-10
5.42213e-10
4.51598e-10
7.23674e-10
7.09024e-10
6.87162e-10
6.16248e-10
7.46103e-10
7.37298e-10
7.39799e-10
7.09309e-10
7.47281e-10
7.39932e-10
7.30418e-10
7.19619e-10
1.07552e-09
7.93793e-10
7.63615e-10
7.59059e-10
3.32519e-08
2.59198e-08
1.19107e-08
7.4064e-09
8.62557e-08
1.64852e-07
1.65518e-07
1.03547e-07
3.93559e-07
7.17314e-07
1.15698e-06
1.11506e-06
7.59668e-06
7.94139e-06
8.04308e-06
7.95698e-06
1.55538e-06
1.82407e-06
1.97037e-06
3.4814e-06
1.66459e-06
1.89089e-06
3.02736e-06
5.12564e-06
0.195866
0.158763
0.173173
0.193733
0.999221
0.999235
0.999231
0.999231
0.999386
0.999223
0.999231
0.999118
0.978244
0.976689
0.977118
0.988597
0.364995
0.364995
0.364995
0.391516
2.85235e-47
5.06272e-47
5.09861e-47
2.61249e-47
2.53605e-47
9.04525e-47
6.26688e-47
2.94477e-47
1.31184e-47
8.64697e-48
3.49577e-48
9.184e-49
1.68091e-49
2.1665e-50
2.0131e-51
1.30685e-52
2.95076e-54
3.83304e-56
4.89766e-61
1.11903e-43
5.48955e-44
1.83596e-44
9.16969e-45
1.6703e-44
1.4835e-44
5.11123e-45
2.18235e-45
8.70452e-46
4.74125e-46
1.6652e-46
3.9689e-47
6.78136e-48
8.35025e-49
7.57886e-50
5.11516e-51
2.90251e-52
4.18845e-54
9.37242e-59
3.25716e-40
6.00886e-41
2.07649e-42
4.35968e-42
2.1503e-42
9.69042e-43
3.22619e-43
1.4914e-43
9.3707e-44
4.2169e-44
1.30524e-44
2.83998e-45
4.53952e-46
5.33061e-47
4.70051e-48
3.83294e-49
2.0444e-50
3.18096e-52
1.11757e-56
3.41691e-40
6.88232e-41
3.64053e-41
7.72034e-41
6.54359e-41
3.32613e-41
2.42731e-41
1.55982e-41
7.80941e-42
3.02191e-42
8.381e-43
1.6787e-43
2.51838e-44
2.81302e-45
2.54123e-46
2.15595e-47
1.10618e-48
1.81946e-50
9.55496e-55
3.79985e-37
8.43339e-39
6.08077e-39
5.76836e-39
5.17469e-39
3.90861e-39
2.41594e-39
1.22573e-39
5.19689e-40
1.77981e-40
4.49467e-41
8.36021e-42
1.18166e-42
1.25895e-43
1.2521e-44
9.76257e-46
4.82631e-47
8.29599e-49
6.33799e-53
1.23725e-34
2.939e-36
1.54039e-36
9.60321e-37
6.06101e-37
3.49619e-37
1.75225e-37
7.55632e-38
2.82571e-38
8.78055e-39
2.04849e-39
3.56796e-40
4.75582e-41
5.18103e-42
5.08237e-43
3.69131e-44
1.75891e-45
3.13656e-47
3.42545e-51
1.32568e-32
3.22738e-34
1.56168e-34
8.39045e-35
4.51506e-35
2.22957e-35
9.77143e-36
3.7677e-36
1.28236e-36
3.68294e-37
8.04429e-38
1.31854e-38
1.68597e-39
1.95496e-40
1.75669e-41
1.19682e-42
5.49816e-44
1.01183e-45
1.55862e-49
8.53443e-31
2.15798e-32
1.01066e-32
5.18758e-33
2.61962e-33
1.12477e-33
4.45916e-34
1.60455e-34
5.08977e-35
1.33632e-35
2.754e-36
4.32517e-37
5.87292e-38
6.33454e-39
5.28748e-40
3.39609e-41
1.50472e-42
2.84556e-44
6.11014e-48
3.75188e-29
1.06852e-30
6.20371e-31
3.79604e-31
1.65324e-31
6.21665e-32
2.09136e-32
6.51617e-33
1.88454e-33
4.49374e-34
8.63786e-35
1.39214e-35
1.8005e-36
1.80259e-37
1.4097e-38
8.57165e-40
3.66469e-41
7.09388e-43
2.09926e-46
1.16353e-27
4.26666e-29
3.56702e-29
1.75468e-29
7.2718e-30
2.62616e-30
8.45986e-31
2.46667e-31
6.4628e-32
1.44794e-32
2.6742e-33
4.0326e-34
4.86855e-35
4.57434e-36
3.37473e-37
1.94985e-38
8.04837e-40
1.58875e-41
6.40437e-45
3.61062e-26
1.46415e-27
1.38245e-27
6.29774e-28
2.53747e-28
8.8776e-29
2.7619e-29
7.73103e-30
1.93354e-30
4.14126e-31
7.25658e-32
1.03325e-32
1.1786e-33
1.0479e-34
7.33574e-36
4.04131e-37
1.61151e-38
3.23181e-40
1.75307e-43
8.75429e-24
6.45216e-26
4.17361e-26
1.88164e-26
7.41845e-27
2.53253e-27
7.64219e-28
2.07572e-28
5.02209e-29
1.03997e-29
1.74986e-30
2.37796e-31
2.58379e-32
2.18897e-33
1.46149e-34
7.70207e-36
2.96917e-37
6.0265e-39
4.34229e-42
5.44325e-22
2.69991e-24
1.10031e-24
4.78388e-25
1.85206e-25
6.23973e-26
1.84687e-26
4.89208e-27
1.15572e-27
2.33421e-28
3.80236e-29
4.96745e-30
5.17848e-31
4.20489e-32
2.68987e-33
1.36033e-34
5.07397e-36
1.03836e-37
9.80223e-41
5.68515e-21
6.33642e-23
2.54628e-23
1.05284e-23
4.02368e-24
1.34934e-24
3.95929e-25
1.03111e-25
2.39298e-26
4.74143e-27
7.52025e-28
9.50501e-29
9.56434e-30
7.4814e-31
4.60465e-32
2.24147e-33
8.09721e-35
1.66453e-36
2.02898e-39
3.22901e-20
1.12691e-21
5.05037e-22
2.03166e-22
7.71309e-23
2.59217e-23
7.59622e-24
1.96314e-24
4.50191e-25
8.79139e-26
1.36477e-26
1.67873e-27
1.6389e-28
1.24053e-29
7.37442e-31
3.46567e-32
1.21388e-33
2.49768e-35
3.87193e-38
1.85612e-19
1.999e-20
8.75016e-21
3.47331e-21
1.31927e-21
4.46402e-22
1.31463e-22
3.39357e-23
7.73976e-24
1.49841e-24
2.28941e-25
2.7543e-26
2.62068e-27
1.92731e-28
1.11054e-29
5.05342e-31
1.71844e-32
3.52735e-34
6.84547e-37
1.69995e-18
3.27906e-19
1.34504e-19
5.31843e-20
2.03126e-20
6.95071e-21
2.06728e-21
5.36391e-22
1.22453e-22
2.36362e-23
3.57163e-24
4.22122e-25
3.93032e-26
2.81869e-27
1.57958e-28
6.97967e-30
2.30781e-31
4.71159e-33
1.12635e-35
2.10636e-17
4.74129e-18
1.85653e-18
7.35138e-19
2.83613e-19
9.85455e-20
2.97383e-20
7.80039e-21
1.79349e-21
3.46996e-22
5.20875e-23
6.07187e-24
5.55267e-25
3.89656e-26
2.13036e-27
9.16672e-29
2.95218e-30
5.97924e-32
1.73216e-34
2.59709e-16
6.05823e-17
2.31329e-17
9.22429e-18
3.6113e-18
1.27927e-18
3.93457e-19
1.04905e-19
2.44365e-20
4.76328e-21
7.13251e-22
8.23103e-23
7.41856e-24
5.11024e-25
2.73396e-26
1.14874e-27
3.61031e-29
7.23901e-31
2.49987e-33
2.8983e-15
6.8943e-16
2.60604e-16
1.05364e-16
4.20857e-17
1.52661e-17
4.8074e-18
1.31003e-18
3.10984e-19
6.13821e-20
9.20533e-21
1.05535e-21
9.40522e-23
6.37902e-24
3.34911e-25
1.3779e-26
4.2348e-28
8.39324e-30
3.39922e-32
2.93978e-14
7.06953e-15
2.66051e-15
1.09631e-15
4.49316e-16
1.67805e-16
5.43887e-17
1.52381e-17
3.70884e-18
7.45054e-19
1.12342e-19
1.28386e-20
1.13495e-21
7.60166e-23
3.92758e-24
1.58651e-25
4.77878e-27
9.35274e-29
4.37167e-31
2.76778e-13
6.68096e-14
2.4966e-14
1.04736e-14
4.40423e-15
1.70034e-15
5.70213e-16
1.6542e-16
4.15611e-17
8.54234e-18
1.30007e-18
1.48596e-19
1.30714e-20
8.67121e-22
4.42128e-23
1.75819e-24
5.20252e-26
1.00498e-27
5.33787e-30
2.30176e-12
5.83951e-13
2.20264e-13
9.44272e-14
4.03752e-14
1.60123e-14
5.55566e-15
1.6772e-15
4.38354e-16
9.27321e-17
1.43008e-17
1.64024e-18
1.44031e-19
9.49162e-21
4.78946e-22
1.88014e-23
5.47883e-25
1.04466e-26
6.21089e-29
1.45682e-11
4.35307e-12
1.76951e-12
8.07703e-13
3.56118e-13
1.43758e-13
5.12716e-14
1.59683e-14
4.35727e-15
9.54659e-16
1.49829e-16
1.73028e-17
1.52168e-18
9.9925e-20
5.00454e-21
1.94485e-22
5.59617e-24
1.05387e-25
6.9115e-28
6.16609e-11
2.38235e-11
1.11955e-11
5.77439e-12
2.83233e-12
1.22156e-12
4.58216e-13
1.4615e-13
4.12032e-14
9.33926e-15
1.49728e-15
1.74748e-16
1.54442e-17
1.01389e-18
5.05542e-20
1.95072e-21
5.55883e-23
1.03527e-24
7.38128e-27
1.7078e-10
8.64408e-11
4.79295e-11
2.82119e-11
1.64213e-11
8.40437e-12
3.61021e-12
1.29049e-12
3.81309e-13
8.79123e-14
1.43008e-14
1.69205e-15
1.50851e-16
9.93473e-18
4.94772e-19
1.90164e-20
5.38419e-22
9.93882e-24
7.59137e-26
3.27029e-10
2.06672e-10
1.34571e-10
8.86717e-11
6.04932e-11
3.79674e-11
1.97227e-11
9.2433e-12
3.34515e-12
8.19119e-13
1.32422e-13
1.57335e-14
1.42012e-15
9.41884e-17
4.70196e-18
1.80615e-19
5.09909e-21
9.36097e-23
7.54748e-25
4.72548e-10
3.45041e-10
2.62408e-10
1.94783e-10
1.48896e-10
1.05466e-10
6.38714e-11
3.69071e-11
1.73268e-11
5.95239e-12
1.2169e-12
1.42128e-13
1.29029e-14
8.65658e-16
4.35268e-17
1.67858e-18
4.74401e-20
8.70051e-22
7.30374e-24
5.66735e-10
4.31861e-10
3.68635e-10
3.1188e-10
2.68027e-10
2.00733e-10
1.40651e-10
9.19938e-11
5.31191e-11
2.76004e-11
7.96592e-12
1.32542e-12
1.14113e-13
7.73302e-15
3.93682e-16
1.53968e-17
4.41158e-19
8.18918e-21
7.07979e-23
6.17583e-10
4.45871e-10
4.01208e-10
3.93885e-10
4.28502e-10
3.66211e-10
3.6021e-10
3.68434e-10
2.84399e-10
1.28095e-10
3.36029e-11
8.3273e-12
1.02719e-12
6.78239e-14
3.50314e-15
1.37025e-16
3.88884e-18
7.1923e-20
6.34178e-22
1.85289e-09
3.22696e-09
4.2791e-09
4.71142e-09
4.52697e-09
3.4139e-09
2.49668e-09
2.26287e-09
1.85589e-09
7.95067e-10
1.95241e-10
3.01724e-11
7.19101e-12
5.97917e-13
2.88414e-14
1.01906e-15
2.47771e-17
3.95419e-19
3.75354e-21
1.39872e-08
2.07027e-08
2.56512e-08
2.9539e-08
2.98427e-08
2.41128e-08
1.76188e-08
1.52264e-08
1.30217e-08
5.80633e-09
1.26795e-09
1.66677e-10
2.83874e-11
3.84222e-12
1.86392e-13
5.13445e-15
1.26124e-16
1.9824e-18
2.25431e-20
5.67321e-08
9.48256e-08
1.32946e-07
1.64735e-07
1.75303e-07
1.60811e-07
1.16199e-07
9.85692e-08
8.52311e-08
3.98035e-08
9.17933e-09
1.08043e-09
9.59055e-11
1.14054e-11
8.79266e-13
3.02414e-14
6.38172e-16
7.42769e-18
1.94943e-19
3.98789e-07
2.49995e-07
5.33731e-07
8.68571e-07
9.37688e-07
9.816e-07
7.17406e-07
5.94093e-07
5.20284e-07
2.56683e-07
6.31905e-08
7.70892e-09
5.84934e-10
3.8984e-11
2.99918e-12
1.58294e-13
2.5311e-15
1.52238e-17
1.7458e-18
2.99465e-06
5.42107e-07
8.27797e-07
2.34159e-06
4.37207e-06
5.3435e-06
4.39406e-06
3.53797e-06
2.97485e-06
1.55383e-06
4.0865e-07
5.03683e-08
4.10559e-09
2.76994e-10
1.37613e-11
4.81595e-13
1.18177e-14
1.26455e-16
1.52167e-17
8.78125e-06
8.11221e-06
5.66328e-06
4.53982e-06
8.10617e-06
1.91591e-05
2.58983e-05
2.30118e-05
1.64041e-05
8.82292e-06
2.50057e-06
3.10393e-07
2.66171e-08
1.89808e-09
9.84052e-11
3.56939e-12
1.01477e-13
9.75195e-16
1.27339e-16
1.89148e-05
0.000191242
0.0006737
0.000863731
0.000719461
0.000516876
0.000441814
0.000341927
0.000194177
6.3732e-05
1.37435e-05
1.77686e-06
1.56662e-07
1.16756e-08
6.28518e-10
2.40301e-11
1.49228e-12
4.96657e-14
9.92341e-16
0.211774
0.198621
0.147735
0.0760432
0.0326837
0.0173482
0.0106846
0.00580737
0.00235851
0.000494167
7.11048e-05
9.84341e-06
1.01746e-06
9.76978e-08
9.16898e-09
4.75469e-10
1.51992e-11
3.31685e-13
6.77069e-15
0.998142
0.984531
0.932654
0.775805
0.488235
0.238964
0.111431
0.0463577
0.0121891
0.00222955
0.00036357
4.19521e-05
4.83811e-06
4.78893e-07
3.42232e-08
1.76341e-09
4.71301e-11
6.30004e-13
3.81219e-14
0.998703
0.998428
0.997982
0.997048
0.995569
0.989629
0.877658
0.3733
0.0194662
0.00460777
0.000936155
0.000132681
1.27084e-05
8.11725e-07
3.35263e-08
9.00207e-10
1.50167e-11
1.94068e-13
7.02156e-14
0.988261
0.958012
0.891398
0.849844
0.863672
0.904291
0.899647
0.655817
0.0970065
0.00495058
0.0015035
0.000249893
2.25288e-05
1.18442e-06
3.65309e-08
6.84845e-10
8.16849e-12
5.46113e-14
3.3169e-16
0.360693
0.175797
0.0716309
0.0649855
0.0694932
0.0722694
0.0672499
0.0450603
0.0201003
0.00349997
0.000547885
9.69658e-05
5.36716e-06
1.42099e-07
-7.01011e-15
-4.09535e-17
-2.96161e-16
-1.43274e-31
9.30995e-32
)
;

boundaryField
{
    leftWall
    {
        type            zeroGradient;
    }
    rightWall
    {
        type            zeroGradient;
    }
    lowerWall
    {
        type            zeroGradient;
    }
    atmosphere
    {
        type            inletOutlet;
        inletValue      uniform 0;
        value           nonuniform List<scalar> 
46
(
0.899588
0.894451
0
0.911875
0
0.931227
0
0
0.933452
0.903177
0
0
0.789273
0.762438
0
0
0.717435
0
0
0
0
0
0
0.364995
0.364995
0.364995
0
0
0.175797
0
0
0
0
0.0672499
0
0
0
0.000547885
9.69658e-05
5.36716e-06
1.42099e-07
0
0
0
0
0
)
;
    }
    defaultFaces
    {
        type            empty;
    }
}


// ************************************************************************* //
