/*--------------------------------*- C++ -*----------------------------------*\
  =========                 |
  \\      /  F ield         | OpenFOAM: The Open Source CFD Toolbox
   \\    /   O peration     | Website:  https://openfoam.org
    \\  /    A nd           | Version:  9
     \\/     M anipulation  |
\*---------------------------------------------------------------------------*/
FoamFile
{
    format      ascii;
    class       volScalarField;
    location    "0.4";
    object      epsilon;
}
// * * * * * * * * * * * * * * * * * * * * * * * * * * * * * * * * * * * * * //

dimensions      [0 2 -3 0 0 0 0];

internalField   nonuniform List<scalar> 
2268
(
0.624629
1.17304
1.18823
1.18439
1.24671
1.3276
1.4167
1.5193
1.61257
1.70256
1.79499
1.8933
1.99899
2.11236
2.23445
2.43745
2.59735
2.58591
2.34969
1.90262
1.41721
0.908721
0.388484
0.835944
0.776137
0.700854
0.665039
0.662288
0.67321
0.693742
0.727967
0.767429
0.812389
0.864008
0.923536
0.992033
1.06968
1.15564
1.25659
1.3338
1.33094
1.22819
1.06144
0.897927
0.719748
0.406272
1.18767
0.790715
0.6481
0.581338
0.55647
0.551734
0.56057
0.581267
0.610219
0.646953
0.691824
0.745529
0.808759
0.881308
0.961197
1.0437
1.10659
1.10676
1.02347
0.882075
0.751553
0.63029
0.49043
1.48831
0.890127
0.677531
0.57492
0.529657
0.512026
0.511289
0.523239
0.544802
0.575083
0.61397
0.661697
0.718452
0.783502
0.854014
0.922767
0.971828
0.972294
0.899446
0.769532
0.644028
0.549009
0.49259
1.72511
1.02412
0.740717
0.597252
0.530265
0.499304
0.488733
0.492105
0.505942
0.528844
0.560255
0.599921
0.647467
0.70162
0.759101
0.812663
0.847935
0.844821
0.786669
0.676971
0.556993
0.475675
0.4454
1.90319
1.16656
0.823457
0.635304
0.545199
0.500146
0.479172
0.473491
0.478943
0.493558
0.516333
0.546548
0.583304
0.624904
0.668005
0.706349
0.729379
0.723974
0.68001
0.596836
0.494598
0.425292
0.396736
2.08047
1.3004
0.917406
0.683534
0.569571
0.509858
0.47798
0.462828
0.459465
0.465343
0.479054
0.499489
0.52536
0.554751
0.584604
0.610137
0.624611
0.621041
0.595225
0.545879
0.474608
0.416093
0.3563
2.28491
1.42931
1.01474
0.738873
0.601069
0.526416
0.483277
0.458384
0.446031
0.443131
0.447949
0.459101
0.475083
0.493992
0.513328
0.529985
0.540741
0.543925
0.541128
0.535319
0.521236
0.485541
0.392334
0.150024
0.196452
0.272598
0.324842
0.355988
0.374089
0.38202
0.384611
0.37998
0.368365
0.351046
0.328472
0.300762
0.267873
0.229573
0.185389
0.152174
0.0354111
0.0248392
0.104192
0.156601
0.185853
0.186904
0.180435
0.173975
0.168861
0.165556
0.162258
0.157702
0.151707
0.144127
0.134809
0.123568
0.110143
0.0940562
0.0733504
0.0466385
0.0338007
0.197141
0.167547
0.170598
0.158817
0.145506
0.135678
0.129268
0.125383
0.122406
0.119307
0.115651
0.111165
0.105633
0.0988405
0.0905239
0.0803038
0.0674582
0.0516859
0.042394
0.316941
0.189284
0.170337
0.151596
0.135029
0.123389
0.115972
0.111475
0.108378
0.105699
0.102903
0.0996478
0.0956849
0.0907858
0.084702
0.0771279
0.067706
0.0565068
0.0523664
0.443629
0.218877
0.177784
0.152428
0.132954
0.119616
0.111108
0.105881
0.102436
0.0997882
0.0973373
0.0946943
0.0915835
0.0877695
0.0830208
0.0770897
0.0697774
0.0614129
0.0615064
0.589967
0.256721
0.190502
0.157464
0.134831
0.119716
0.110043
0.104002
0.100078
0.0972604
0.0949024
0.0925762
0.0899829
0.0868822
0.0830563
0.0782994
0.0724934
0.0661167
0.0695918
0.775755
0.301822
0.206531
0.164728
0.138752
0.12183
0.110974
0.104081
0.0996049
0.096505
0.0940952
0.0919168
0.0896505
0.0870506
0.0839071
0.0800385
0.07536
0.0704209
0.0763945
1.08464
0.347837
0.222806
0.172669
0.143585
0.124977
0.112992
0.105265
0.100211
0.0967673
0.0942187
0.0920824
0.0900209
0.0877816
0.0851551
0.0819676
0.0781385
0.0742664
0.0824196
2.72936
1.64044
1.17083
0.833726
0.659453
0.561336
0.500204
0.459851
0.433802
0.418361
0.411339
0.411085
0.416027
0.424557
0.435141
0.446702
0.459407
0.475933
0.502783
0.550647
0.630364
0.744472
0.944095
3.30886
1.86362
1.33906
0.953628
0.747834
0.625393
0.542445
0.481652
0.436581
0.404345
0.382482
0.369138
0.36269
0.361739
0.365286
0.372979
0.385365
0.403932
0.430836
0.468177
0.516637
0.574787
0.640008
4.13359
2.1133
1.48138
1.07178
0.846647
0.704773
0.601136
0.519677
0.455239
0.406046
0.370035
0.345075
0.329245
0.320892
0.318761
0.322074
0.330488
0.343863
0.361837
0.383294
0.405783
0.425376
0.437497
5.02857
2.38607
1.62455
1.19985
0.961469
0.801413
0.676206
0.57278
0.488012
0.420971
0.370642
0.334479
0.309986
0.294916
0.287424
0.286096
0.289851
0.297721
0.308571
0.320794
0.332105
0.339684
0.34083
5.1837
2.69029
1.83033
1.37204
1.10786
0.920986
0.769121
0.640782
0.53384
0.448006
0.38241
0.33471
0.301554
0.279883
0.267134
0.261272
0.260688
0.264005
0.269864
0.276724
0.282777
0.286081
0.284958
4.68328
2.97546
2.15789
1.61468
1.29265
1.06375
0.878778
0.722694
0.591978
0.486239
0.404485
0.344509
0.30229
0.273841
0.255813
0.24556
0.241031
0.240573
0.242733
0.246084
0.249155
0.250513
0.248964
4.43628
2.85229
2.52003
1.87193
1.48641
1.21502
0.998322
0.815518
0.661244
0.535199
0.436803
0.363545
0.311577
0.275931
0.252418
0.237759
0.229468
0.225638
0.224717
0.225339
0.22623
0.226228
0.224369
4.63697
2.7353
2.60805
2.03069
1.64223
1.35466
1.11908
0.915641
0.740338
0.594595
0.479167
0.392106
0.329455
0.285957
0.25653
0.237228
0.225104
0.217972
0.214152
0.212275
0.211164
0.2098
0.207337
4.97545
2.67821
2.58739
2.09905
1.75249
1.47705
1.2376
1.02123
0.828591
0.664518
0.532105
0.430671
0.356384
0.304178
0.268181
0.243767
0.227499
0.216875
0.210047
0.205592
0.202362
0.199407
0.195947
5.22929
2.66424
2.53602
2.1342
1.84132
1.59029
1.35587
1.13244
0.925961
0.745218
0.596151
0.479838
0.393211
0.331183
0.287746
0.257536
0.236595
0.222073
0.211914
0.204599
0.198962
0.194076
0.189191
5.40521
2.68112
2.51762
2.17781
1.92943
1.70286
1.47671
1.24989
1.0325
0.836878
0.671815
0.540395
0.44068
0.367732
0.315847
0.278979
0.252647
0.233634
0.219646
0.209034
0.200573
0.193329
0.186561
5.52515
2.7093
2.53359
2.23649
2.02238
1.81777
1.60109
1.37346
1.14781
0.939321
0.759296
0.612851
0.499407
0.414661
0.353263
0.308743
0.276152
0.251899
0.233436
0.218952
0.207141
0.19703
0.187867
5.60747
2.73571
2.56615
2.30288
2.11817
1.93437
1.72822
1.50208
1.27088
1.05187
0.85843
0.697562
0.570204
0.473043
0.400889
0.34763
0.307797
0.277434
0.253726
0.234684
0.21889
0.205317
0.193182
5.68318
2.75528
2.60514
2.3707
2.21392
2.05069
1.8561
1.63376
1.39996
1.17328
0.968578
0.79449
0.653483
0.543412
0.459572
0.396524
0.348428
0.311011
0.281202
0.256821
0.236324
0.218603
0.202833
5.78688
2.77037
2.64987
2.4372
2.30719
2.16377
1.98159
1.76555
1.53257
1.30167
1.08856
0.903128
0.749284
0.626193
0.530089
0.456356
0.399019
0.353594
0.316793
0.286243
0.260252
0.237617
0.217454
5.92623
2.80192
2.71443
2.50137
2.39423
2.2688
2.10012
1.8936
1.66557
1.43463
1.2167
1.02255
0.857388
0.721793
0.613194
0.528101
0.460672
0.406354
0.361699
0.324151
0.291853
0.263475
0.238062
6.2164
2.90195
2.77763
2.54867
2.46391
2.35751
2.20585
2.01354
1.79547
1.56934
1.35087
1.15137
0.977211
0.830359
0.709644
0.612762
0.534611
0.470676
0.417421
0.372124
0.332742
0.297781
0.266176
6.54353
3.00726
2.73407
2.55364
2.50222
2.42268
2.29436
2.12185
1.91908
1.70289
1.48861
1.28782
1.10776
0.951758
0.820151
0.711342
0.622174
0.548174
0.485795
0.432178
0.385064
0.342738
0.303966
6.2826
3.01601
2.67555
2.53758
2.51872
2.46783
2.36598
2.21702
2.03389
1.83242
1.6272
1.42967
1.24755
1.08522
0.944366
0.824646
0.724784
0.640716
0.569042
0.50683
0.451584
0.401284
0.354426
6.20931
2.98572
2.6251
2.5201
2.52577
2.49905
2.42249
2.29822
2.13761
1.95496
1.76362
1.57428
1.39464
1.22971
1.08231
0.95347
0.843981
0.750454
0.669824
0.599178
0.535783
0.477221
0.421557
6.22152
2.93622
2.58042
2.5007
2.52436
2.51755
2.4638
2.3639
2.22761
2.06733
1.8946
1.71873
1.54678
1.38393
1.23378
1.09865
0.98147
0.879878
0.791313
0.712993
0.641969
0.575338
0.510543
6.22239
2.86936
2.52825
2.47624
2.51341
2.52272
2.48873
2.41202
2.30112
2.16634
2.01686
1.85999
1.70156
1.54637
1.3985
1.26134
1.13917
1.03185
0.937265
0.852817
0.77539
0.701542
0.627892
6.1981
2.80889
2.48224
2.44937
2.49446
2.51476
2.49643
2.44094
2.35588
2.24929
2.12749
1.99521
1.85649
1.71533
1.57595
1.44258
1.31907
1.20952
1.11198
1.02402
0.942345
0.862978
0.78157
6.15642
2.76118
2.44779
2.42401
2.47029
2.49519
2.48753
2.45051
2.39106
2.31468
2.22441
2.12195
2.00908
1.88861
1.76445
1.64103
1.52247
1.41589
1.32004
1.23264
1.1502
1.06816
0.981169
6.10526
2.72692
2.43036
2.40763
2.44688
2.46858
2.46558
2.44338
2.40822
2.36285
2.30675
2.23825
2.15662
2.06323
1.96147
1.85568
1.75002
1.65312
1.5655
1.4848
1.40706
1.32697
1.23813
6.0471
2.70859
2.44795
2.41858
2.43677
2.44456
2.43854
2.42592
2.41188
2.3962
2.37465
2.34216
2.29547
2.23452
2.16215
2.08269
2.00076
1.9209
1.85025
1.78521
1.72067
1.65008
1.56581
5.98391
2.72328
2.53368
2.48708
2.45708
2.43664
2.41789
2.40751
2.40878
2.41821
2.42816
2.43058
2.41996
2.39473
2.35745
2.31223
2.26329
2.21317
2.17116
2.13431
2.09585
2.04711
1.97859
5.87599
2.84138
2.63823
2.60628
2.50696
2.45052
2.41177
2.39554
2.40399
2.43086
2.46565
2.49799
2.52087
2.53208
2.53348
2.52893
2.52266
2.51772
2.51691
2.52418
2.52998
2.5223
2.48866
5.54304
2.98989
2.613
2.625
2.53326
2.46211
2.40786
2.38213
2.39151
2.42878
2.48117
2.53692
2.58843
2.63329
2.67318
2.7121
2.75507
2.80598
2.8645
2.93404
3.00714
3.06738
3.09887
5.0577
2.80714
2.51171
2.39796
2.43997
2.40926
2.35698
2.33108
2.34671
2.39545
2.46276
2.53724
2.61244
2.68671
2.76194
2.84266
2.93575
3.04826
3.18234
3.33134
3.49342
3.6528
3.79095
4.53589
2.85356
2.57445
2.30191
2.27558
2.246
2.20286
2.19934
2.24178
2.31441
2.40105
2.49335
2.58879
2.68779
2.79265
2.90865
3.0462
3.21802
3.42995
3.6769
3.94696
4.23263
4.515
3.95676
2.90383
3.0069
2.70832
2.27578
2.07593
2.00658
2.02751
2.10248
2.2027
2.30963
2.41826
2.52983
2.64702
2.77255
2.91352
3.08568
3.30698
3.58705
3.92529
4.31627
4.7459
5.20222
3.34777
2.68078
2.74154
2.77025
2.34581
1.99541
1.89521
1.93099
2.02371
2.12939
2.23878
2.35225
2.4693
2.59169
2.7246
2.87816
3.073
3.33016
3.65911
4.0626
4.55179
5.12528
5.76267
2.76491
2.47387
2.35161
2.26285
1.99741
1.79067
1.74202
1.80344
1.92107
2.07331
2.2242
2.35269
2.46388
2.56114
2.68244
2.83832
3.04359
3.31665
3.66467
4.09719
4.64285
5.31647
6.10304
2.24615
2.33527
2.11136
1.94273
1.73636
1.60431
1.58503
1.65024
1.76926
1.93366
2.11806
2.27617
2.42339
2.57912
2.72623
2.87262
3.05368
3.29369
3.61144
4.04009
4.60036
5.31007
6.15363
1.81107
2.20035
1.98259
1.80207
1.62843
1.52353
1.51079
1.57137
1.67918
1.81688
1.97282
2.13066
2.29491
2.49713
2.71236
2.88245
3.07121
3.33102
3.6609
4.03353
4.52732
5.17573
5.94069
1.46179
2.01908
1.87909
1.73842
1.60557
1.52443
1.51581
1.57094
1.67034
1.79684
1.94017
2.09381
2.25787
2.43816
2.63088
2.82626
3.04447
3.32009
3.69004
4.06061
4.46237
4.96365
5.55639
1.18758
1.79062
1.765
1.7051
1.63358
1.58833
1.59345
1.64981
1.74719
1.87374
2.02266
2.19081
2.3758
2.57521
2.78765
3.01291
3.25891
3.53731
3.85266
4.19129
4.56333
4.98136
5.4311
0.975931
1.54502
1.65163
1.7057
1.71356
1.71505
1.74661
1.82114
1.93914
2.09361
2.284
2.50965
2.76574
3.04172
3.32908
3.62832
3.94806
4.2881
4.64612
5.02026
5.42108
5.85059
6.26197
0.822292
1.31316
1.57524
1.78107
1.87485
1.92945
2.00672
2.13693
2.33655
2.59036
2.91557
3.31638
3.78695
4.28651
4.77831
5.26247
5.78232
6.30312
6.80998
7.30452
7.81539
8.31032
8.70436
0.779251
1.24132
1.66063
2.06731
2.20662
2.34097
2.5253
2.81443
3.29671
3.85197
4.57193
5.4781
6.66056
7.90907
9.01279
9.93772
11.2466
12.2408
12.9374
13.4183
13.9386
14.4267
14.5168
1.06284
0.950374
1.41444
1.92279
2.26689
2.94622
3.55787
4.30285
6.15796
7.55649
9.15326
11.4726
16.4358
18.9109
23.2539
24.1221
28.6866
31.2764
32.6708
30.9139
30.3935
31.3438
29.1572
1.43768
1.60134
1.81503
2.0706
0.697288
0.712957
0.710318
0.665789
0.438382
0.433265
0.421068
0.399445
0.334533
0.327994
0.318876
0.307166
0.279299
0.274314
0.267964
0.260312
0.24454
0.240826
0.236224
0.230784
0.220688
0.217726
0.214137
0.209955
0.20384
0.201196
0.198111
0.194602
0.192141
0.189466
0.186507
0.183265
0.184634
0.181633
0.178494
0.175204
0.180828
0.177231
0.173642
0.170035
0.180522
0.17606
0.171759
0.167582
0.183747
0.17813
0.172843
0.167835
0.190764
0.183665
0.177084
0.170954
0.202112
0.193146
0.184909
0.177314
0.218693
0.207398
0.197061
0.18758
0.241893
0.227708
0.214722
0.202821
0.27375
0.256002
0.239686
0.224685
0.31716
0.29507
0.27459
0.255628
0.376128
0.348837
0.323217
0.299228
0.456007
0.422667
0.390837
0.360569
0.56372
0.523636
0.484552
0.446651
0.707936
0.660756
0.613597
0.566782
0.899243
0.845188
0.7896
0.732911
1.15046
1.09059
1.02698
0.960069
1.47702
1.41372
1.34369
1.26723
1.89695
1.8349
1.76224
1.67868
2.4287
2.37684
2.30949
2.22502
3.08461
3.0589
3.0123
2.94052
3.85764
3.88347
3.88442
3.85144
4.70281
4.81488
4.90261
4.95032
5.54062
5.77253
5.98778
6.16529
6.26055
6.63374
7.00818
7.36114
6.73211
7.23342
7.76254
8.30814
6.84134
7.42952
8.07765
8.78855
6.52096
7.02347
7.59398
8.25998
5.97661
6.33391
6.71925
7.1566
5.72536
5.97567
6.23169
6.50798
6.48908
6.67519
6.85302
7.02901
8.86712
8.9698
9.03398
9.06601
14.3972
14.1551
13.83
13.4426
28.257
27.0628
25.0188
22.8304
0.741042
0.368247
0.241239
0.183951
0.151303
0.130539
0.116976
0.10802
0.10208
0.0980658
0.0952262
0.0930422
0.0911465
0.0892653
0.0871714
0.0846676
0.0816363
0.078712
0.0893019
0.501284
0.328017
0.24011
0.190317
0.15861
0.137268
0.122593
0.112523
0.105635
0.100912
0.0976166
0.0952201
0.0933329
0.0916531
0.0899209
0.0878975
0.0854409
0.0833647
0.0969876
0.359105
0.284523
0.228865
0.189891
0.16192
0.141625
0.126936
0.116422
0.108978
0.103744
0.100059
0.0974162
0.0954249
0.0937664
0.0921563
0.0903341
0.0881841
0.0868053
0.103206
0.288267
0.250258
0.214584
0.185135
0.161697
0.14344
0.129526
0.119139
0.111522
0.106011
0.10205
0.0991847
0.0970424
0.0953061
0.093688
0.0919387
0.0900223
0.0893912
0.108397
0.248322
0.224988
0.200672
0.178325
0.159045
0.143114
0.130392
0.120516
0.113023
0.107439
0.103322
0.100285
0.0979905
0.0961427
0.0944752
0.0927811
0.0911443
0.0914085
0.112952
0.222269
0.206024
0.188227
0.170815
0.154943
0.141209
0.1298
0.120629
0.113448
0.107941
0.103771
0.100622
0.098206
0.0962628
0.0945668
0.0929771
0.0917219
0.0930584
0.117175
0.203411
0.191114
0.177325
0.163336
0.150108
0.138258
0.128093
0.119674
0.112895
0.107555
0.10341
0.100212
0.0977229
0.0957304
0.0940613
0.0926542
0.0918941
0.0944681
0.121281
0.189167
0.179184
0.167926
0.156293
0.145036
0.134699
0.12561
0.117895
0.111533
0.106405
0.102339
0.0991449
0.0966379
0.0946539
0.0930777
0.0919327
0.0917664
0.0957101
0.125414
0.178358
0.169676
0.159981
0.149919
0.140069
0.130882
0.122658
0.115545
0.109567
0.104658
0.100701
0.097554
0.0950787
0.0931584
0.0917349
0.0909175
0.0914166
0.0968214
0.129658
0.170383
0.162286
0.153454
0.144361
0.135447
0.127074
0.119497
0.11286
0.107203
0.102496
0.098657
0.0955851
0.0931796
0.0913664
0.0901412
0.0896958
0.0909027
0.0978191
0.134061
0.164927
0.156848
0.148326
0.139713
0.131339
0.123479
0.116339
0.110041
0.104629
0.100087
0.096361
0.0933766
0.0910649
0.0893878
0.0883896
0.0883402
0.0902704
0.0987134
0.138645
0.161845
0.153283
0.144599
0.136047
0.127865
0.120249
0.113348
0.107254
0.102002
0.0975799
0.0939472
0.09105
0.0888426
0.0873166
0.0865587
0.0869114
0.0895597
0.0995148
0.143424
0.16112
0.151594
0.142301
0.133424
0.125116
0.117495
0.11065
0.104629
0.0994498
0.0950947
0.0915277
0.0887069
0.0866031
0.0852316
0.0847153
0.0854633
0.088809
0.10024
0.148409
0.162879
0.151871
0.14151
0.131921
0.123176
0.11531
0.108341
0.102267
0.0970737
0.092729
0.0891939
0.086431
0.0844222
0.0832002
0.0829187
0.0840469
0.0880602
0.100917
0.15362
0.167429
0.15434
0.142388
0.131658
0.122142
0.11378
0.106505
0.100251
0.0949549
0.0905618
0.0870208
0.0842925
0.0823643
0.0812819
0.0812239
0.0827139
0.0873616
0.101589
0.159093
0.175328
0.159414
0.145227
0.132838
0.122155
0.113011
0.10523
0.0986554
0.0931642
0.0886603
0.085072
0.0823514
0.0804863
0.0795306
0.0796842
0.0815187
0.0867703
0.102318
0.164892
0.187495
0.167787
0.150523
0.135799
0.123442
0.113154
0.10462
0.0975628
0.0917697
0.0870855
0.083404
0.0806608
0.0788387
0.0779967
0.0783517
0.0805184
0.0863526
0.103185
0.171115
0.20537
0.180566
0.159074
0.141087
0.126361
0.11444
0.104824
0.0970746
0.0908468
0.0858982
0.0820697
0.079269
0.0774678
0.0767265
0.0772765
0.079772
0.0861814
0.104288
0.177897
0.231137
0.199468
0.17214
0.149575
0.131487
0.117232
0.106071
0.0973332
0.0904893
0.0851658
0.0811221
0.0782215
0.0764158
0.0757623
0.0765054
0.0793363
0.0863324
0.105735
0.185413
0.268049
0.227114
0.191683
0.162639
0.139735
0.122112
0.108716
0.0985533
0.0908282
0.0849721
0.0806195
0.0775628
0.0757204
0.0751408
0.0760788
0.0792628
0.0868777
0.107637
0.193867
0.320841
0.267452
0.220748
0.182462
0.15257
0.130015
0.11333
0.101074
0.0920608
0.085433
0.0806325
0.0773395
0.0754162
0.0748915
0.076028
0.079592
0.0878785
0.110098
0.203481
0.396214
0.326335
0.264042
0.212525
0.172381
0.142478
0.120855
0.105447
0.094502
0.0867241
0.0812588
0.0776069
0.075536
0.0750369
0.0763734
0.0803504
0.089379
0.113203
0.214478
0.503334
0.412203
0.328748
0.258402
0.203114
0.162079
0.132873
0.112601
0.098674
0.0891294
0.0826479
0.078441
0.0761168
0.075594
0.0771235
0.0815478
0.0914014
0.117007
0.227063
0.654261
0.536802
0.425554
0.328948
0.251358
0.193252
0.152132
0.124137
0.105471
0.0931286
0.0850466
0.0799618
0.077211
0.0765798
0.0782779
0.0831779
0.0939448
0.121527
0.241409
0.864415
0.715822
0.569743
0.437869
0.328079
0.243741
0.18353
0.142912
0.116468
0.0995562
0.0888787
0.0823722
0.0789053
0.0780206
0.0798315
0.0852207
0.0969869
0.126739
0.257637
1.15347
0.96965
0.782162
0.605435
0.451038
0.327081
0.236017
0.174197
0.134538
0.109905
0.0948914
0.0860282
0.0813546
0.0799685
0.0817831
0.087648
0.100489
0.132584
0.275805
1.54715
1.32485
1.09026
0.859921
0.647498
0.466267
0.325999
0.228001
0.165124
0.126939
0.104435
0.0915664
0.0848403
0.0825294
0.0841504
0.0904309
0.104404
0.138991
0.295883
2.07978
1.81725
1.53032
1.23894
0.956354
0.698016
0.482749
0.323538
0.218901
0.155979
0.120025
0.100144
0.0898753
0.0859103
0.0869929
0.0935543
0.108683
0.145914
0.31775
2.79527
2.49664
2.15269
1.79274
1.42972
1.07592
0.754995
0.496789
0.317185
0.20768
0.146522
0.113913
0.0973964
0.0905006
0.0904496
0.0970376
0.113292
0.153359
0.341227
3.74086
3.42929
3.03073
2.59368
2.13799
1.67204
1.21552
0.81032
0.501764
0.303905
0.193685
0.136988
0.10913
0.0970164
0.094799
0.100963
0.118222
0.161362
0.366168
4.94415
4.6877
4.26691
3.75417
3.18785
2.58485
1.96218
1.36005
0.848729
0.4891
0.281696
0.17752
0.128319
0.10676
0.100557
0.105519
0.123517
0.170004
0.392627
6.36746
6.30857
5.97179
5.43652
4.75599
3.97216
3.12918
2.27449
1.47884
0.848003
0.452386
0.252189
0.161255
0.122113
0.108634
0.110994
0.129191
0.179065
0.419921
7.8756
8.20072
8.17238
7.79431
7.08876
6.10317
4.93855
3.72573
2.55341
1.52182
0.788534
0.395635
0.220687
0.147659
0.120526
0.117853
0.135363
0.188474
0.44824
9.2226
10.1068
10.6323
10.726
10.3101
9.29658
7.75228
5.99134
4.27135
2.70348
1.43611
0.679613
0.333092
0.191407
0.13866
0.126795
0.14219
0.198314
0.478291
10.0824
11.5408
12.7463
13.554
13.8131
13.3057
11.8216
9.48067
6.91134
4.60948
2.61314
1.24009
0.548254
0.268159
0.16696
0.138735
0.149782
0.208643
0.511187
9.57926
11.1975
12.7682
14.2401
15.517
16.2721
15.8781
13.8354
10.6698
7.48057
4.58314
2.27188
0.954262
0.404004
0.211464
0.154712
0.158065
0.219402
0.548629
8.03062
9.09718
10.2323
11.4661
12.8453
14.3309
15.5463
15.661
14.0328
11.0013
7.40762
3.97911
1.67965
0.640113
0.280599
0.175585
0.166558
0.23028
0.593422
7.05099
7.68971
8.37891
9.13715
9.99192
10.9655
12.0459
13.1279
13.9386
13.4666
10.6589
6.43227
2.85982
1.02864
0.383466
0.201249
0.174091
0.240505
0.650695
7.34759
7.68073
8.04217
8.46688
8.9875
9.63423
10.4292
11.4296
12.74
14.0108
13.3677
9.4414
4.57635
1.61308
0.523189
0.228985
0.178576
0.248619
0.730554
9.06251
9.04829
9.08752
9.23955
9.55683
10.0813
10.8523
11.8985
13.2842
14.9201
15.7535
12.9559
6.9294
2.4143
0.683938
0.250553
0.176919
0.251968
0.85452
12.7447
12.3259
12.05
12.086
12.4842
13.3035
14.7096
16.5461
18.4735
19.7522
21.1853
19.577
11.1678
3.53979
0.809162
0.248239
0.164733
0.243478
1.07494
21.1535
22.6354
21.2746
23.5545
25.4819
26.8117
33.7585
39.2597
43.4649
37.3933
30.503
23.089
11.6365
3.25761
0.631094
0.189046
0.134727
0.19587
1.54773
)
;

boundaryField
{
    leftWall
    {
        type            epsilonWallFunction;
        value           nonuniform List<scalar> 
50
(
0.624629
0.835944
1.18767
1.48831
1.72511
1.90319
2.08047
2.28491
2.72936
3.30886
4.13359
5.02857
5.1837
4.68328
4.43628
4.63697
4.97545
5.22929
5.40521
5.52515
5.60747
5.68318
5.78688
5.92623
6.2164
6.54353
6.2826
6.20931
6.22152
6.22239
6.1981
6.15642
6.10526
6.0471
5.98391
5.87599
5.54304
5.0577
4.53589
3.95676
3.34777
2.76491
2.24615
1.81107
1.46179
1.18758
0.975931
0.822292
0.779251
1.06284
)
;
    }
    rightWall
    {
        type            epsilonWallFunction;
        value           nonuniform List<scalar> 
50
(
0.0248392
0.0338007
0.042394
0.0523664
0.0615064
0.0695918
0.0763945
0.0824196
0.0893019
0.0969876
0.103206
0.108397
0.112952
0.117175
0.121281
0.125414
0.129658
0.134061
0.138645
0.143424
0.148409
0.15362
0.159093
0.164892
0.171115
0.177897
0.185413
0.193867
0.203481
0.214478
0.227063
0.241409
0.257637
0.275805
0.295883
0.31775
0.341227
0.366168
0.392627
0.419921
0.44824
0.478291
0.511187
0.548629
0.593422
0.650695
0.730554
0.85452
1.07494
1.54773
)
;
    }
    lowerWall
    {
        type            epsilonWallFunction;
        value           nonuniform List<scalar> 
62
(
0.624629
1.17304
1.18823
1.18439
1.24671
1.3276
1.4167
1.5193
1.61257
1.70256
1.79499
1.8933
1.99899
2.11236
2.23445
2.43745
2.59735
2.58591
2.34969
1.90262
1.41721
0.908721
0.388484
0.388484
0.406272
0.49043
0.49259
0.4454
0.396736
0.3563
0.392334
1.43768
1.60134
1.81503
2.0706
0.150024
0.104192
0.197141
0.316941
0.443629
0.589967
0.775755
1.08464
0.150024
0.196452
0.272598
0.324842
0.355988
0.374089
0.38202
0.384611
0.37998
0.368365
0.351046
0.328472
0.300762
0.267873
0.229573
0.185389
0.152174
0.0354111
0.0248392
)
;
    }
    atmosphere
    {
        type            inletOutlet;
        inletValue      uniform 0.1;
        value           nonuniform List<scalar> 
46
(
0.1
0.1
1.41444
0.1
2.26689
0.1
3.55787
4.30285
0.1
0.1
9.15326
11.4726
0.1
0.1
0.1
24.1221
0.1
0.1
0.1
30.9139
30.3935
0.1
0.1
0.1
0.1
0.1
22.8304
21.1535
0.1
21.2746
0.1
0.1
26.8117
0.1
0.1
0.1
37.3933
30.503
23.089
11.6365
3.25761
0.631094
0.1
0.1
0.1
0.1
)
;
    }
    defaultFaces
    {
        type            empty;
    }
}


// ************************************************************************* //
