/*--------------------------------*- C++ -*----------------------------------*\
  =========                 |
  \\      /  F ield         | OpenFOAM: The Open Source CFD Toolbox
   \\    /   O peration     | Website:  https://openfoam.org
    \\  /    A nd           | Version:  9
     \\/     M anipulation  |
\*---------------------------------------------------------------------------*/
FoamFile
{
    format      ascii;
    class       volScalarField;
    location    "0.4";
    object      k;
}
// * * * * * * * * * * * * * * * * * * * * * * * * * * * * * * * * * * * * * //

dimensions      [0 2 -2 0 0 0 0];

internalField   nonuniform List<scalar> 
2268
(
0.0338361
0.0420261
0.0425869
0.0426352
0.0441459
0.046042
0.0480809
0.0503711
0.052406
0.054334
0.0562784
0.0583078
0.0604473
0.0626941
0.0650794
0.0689609
0.0718783
0.0716171
0.067157
0.058326
0.0479239
0.0356263
0.020213
0.0554569
0.0866989
0.0890581
0.0872853
0.0885321
0.0909959
0.0942129
0.0976678
0.101342
0.105354
0.109796
0.11474
0.120195
0.126025
0.131832
0.137015
0.138829
0.134095
0.121557
0.103527
0.0785691
0.0569833
0.0343617
0.070257
0.11589
0.117573
0.114868
0.114858
0.116381
0.118824
0.121828
0.125363
0.129453
0.134133
0.139416
0.145235
0.151329
0.157092
0.161402
0.16172
0.154577
0.138686
0.116847
0.0910477
0.0658878
0.0389801
0.0819223
0.14105
0.141424
0.136987
0.135201
0.135225
0.136397
0.138366
0.141091
0.144502
0.148571
0.153233
0.158322
0.163454
0.167868
0.170227
0.168232
0.159054
0.140902
0.117189
0.0914578
0.0665992
0.0391168
0.0907447
0.164645
0.163717
0.156811
0.1529
0.151128
0.150738
0.151305
0.152775
0.155003
0.157891
0.161295
0.164948
0.168353
0.170643
0.170431
0.165672
0.154238
0.135292
0.111248
0.0862217
0.0628602
0.0365955
0.0970754
0.186387
0.185446
0.175541
0.169264
0.165498
0.163331
0.162245
0.162154
0.162854
0.16419
0.165947
0.167771
0.169079
0.168957
0.166072
0.158699
0.14533
0.125835
0.102399
0.078783
0.0579835
0.0338893
0.102646
0.205505
0.206732
0.193677
0.184922
0.179049
0.174963
0.172052
0.170208
0.169177
0.168766
0.16871
0.168601
0.167815
0.165454
0.160331
0.151087
0.136759
0.117671
0.09579
0.0738804
0.0551611
0.0315556
0.109043
0.222904
0.227124
0.211423
0.20021
0.192194
0.186105
0.181263
0.177561
0.174707
0.17249
0.170631
0.168706
0.166107
0.16203
0.155509
0.145602
0.131836
0.114775
0.0960436
0.0771296
0.0589874
0.0336481
0.0106437
0.0129167
0.0160711
0.0180686
0.0192062
0.0198494
0.0201253
0.0202115
0.0200451
0.0196304
0.0190063
0.0181787
0.0171378
0.015861
0.0143073
0.0124027
0.0108847
0.0107824
0.00633553
0.0149583
0.0319374
0.0376383
0.0397645
0.0404689
0.0407103
0.0406561
0.0403462
0.039725
0.0388464
0.0376899
0.0362118
0.0343557
0.0320461
0.0291729
0.025566
0.0209015
0.0151878
0.00704628
0.0228777
0.0446653
0.0513959
0.0533004
0.0532891
0.0527157
0.0519409
0.051041
0.0499534
0.048658
0.0470903
0.0451728
0.0428209
0.0399303
0.036362
0.031915
0.0262795
0.0189845
0.00818672
0.0313877
0.0558671
0.0626381
0.0640656
0.0632175
0.0617661
0.060238
0.0587342
0.0571703
0.0554724
0.0535384
0.0512611
0.0485318
0.045225
0.0411832
0.0361896
0.0299216
0.0217666
0.00942368
0.0392703
0.0669871
0.0730609
0.0736597
0.0718644
0.0695126
0.0672235
0.0650942
0.0630293
0.0609153
0.0586178
0.0560032
0.052941
0.0492884
0.0448746
0.0394723
0.0327415
0.0239722
0.0104918
0.0474811
0.0788192
0.0833529
0.082673
0.0797989
0.0765187
0.0734633
0.0706863
0.068098
0.0655505
0.0628823
0.0599363
0.0565627
0.0526037
0.0478778
0.0421483
0.0350535
0.0257938
0.0113951
0.0569782
0.0917571
0.0937405
0.0913
0.0872306
0.0830025
0.0791745
0.0757493
0.0726256
0.069633
0.0665878
0.0633132
0.059642
0.0554035
0.0504056
0.0444017
0.0370037
0.0273275
0.0121282
0.0712298
0.105746
0.104012
0.0995097
0.0942027
0.089039
0.0844546
0.0803943
0.0767361
0.0732958
0.0698728
0.0662741
0.0623172
0.0578195
0.0525784
0.0463351
0.0386729
0.0286349
0.0127598
0.122451
0.249361
0.257926
0.238724
0.223834
0.2125
0.203207
0.195171
0.188335
0.182551
0.177598
0.173207
0.168986
0.164422
0.158914
0.151871
0.142877
0.131947
0.119714
0.107279
0.0953063
0.0832723
0.0752341
0.138638
0.276318
0.290444
0.270023
0.252905
0.238764
0.226056
0.214181
0.203228
0.193617
0.18529
0.178102
0.171798
0.16606
0.160586
0.155178
0.149819
0.144702
0.140157
0.136508
0.133888
0.132281
0.131599
0.160394
0.304743
0.317674
0.298469
0.280973
0.265128
0.249488
0.233939
0.219077
0.205712
0.194209
0.184558
0.176605
0.170127
0.164912
0.160818
0.15779
0.155824
0.154884
0.15482
0.155313
0.155923
0.156282
0.184272
0.334677
0.342835
0.326073
0.30956
0.292623
0.27419
0.254943
0.236154
0.218956
0.204244
0.192135
0.182508
0.175121
0.16971
0.166039
0.163907
0.16312
0.163434
0.164508
0.165878
0.167019
0.167492
0.192698
0.365293
0.373041
0.358228
0.341875
0.322845
0.300917
0.277557
0.254573
0.233484
0.215335
0.200584
0.189063
0.180444
0.174345
0.170396
0.168259
0.167601
0.168062
0.169217
0.170564
0.171571
0.171775
0.180494
0.385069
0.415445
0.399397
0.379532
0.35616
0.329683
0.30178
0.274394
0.249258
0.227549
0.209923
0.196253
0.186093
0.178923
0.174236
0.171567
0.170484
0.170551
0.171303
0.17224
0.172852
0.172686
0.172058
0.368035
0.462979
0.442623
0.417919
0.389914
0.359145
0.327031
0.29546
0.266338
0.241078
0.220361
0.204298
0.192334
0.183806
0.178072
0.174552
0.172724
0.172099
0.172192
0.17251
0.172576
0.171958
0.17459
0.371172
0.481382
0.472165
0.44934
0.42039
0.387568
0.352568
0.317549
0.284778
0.256024
0.232215
0.213543
0.199546
0.189427
0.182414
0.177817
0.175034
0.173526
0.172793
0.172354
0.171759
0.170602
0.183283
0.376131
0.487332
0.488533
0.472492
0.446653
0.41438
0.378099
0.340601
0.304711
0.272679
0.245792
0.224374
0.208145
0.196228
0.187735
0.181874
0.177966
0.175426
0.173734
0.172422
0.171061
0.16927
0.189991
0.381391
0.488207
0.499283
0.491329
0.470375
0.440177
0.403817
0.36472
0.326292
0.291284
0.261391
0.237207
0.218547
0.20463
0.194464
0.187162
0.18197
0.178256
0.175483
0.173184
0.170952
0.168424
0.19459
0.386922
0.491457
0.510348
0.509378
0.4933
0.465717
0.430006
0.390022
0.349628
0.312021
0.279292
0.252344
0.231116
0.21502
0.20299
0.194064
0.187422
0.182388
0.178403
0.174999
0.171779
0.1684
0.197692
0.392209
0.497807
0.52291
0.52771
0.516125
0.491335
0.45676
0.416495
0.374711
0.334946
0.299636
0.269986
0.246153
0.227726
0.213649
0.202913
0.194648
0.188136
0.182795
0.178152
0.173816
0.169458
0.199772
0.396682
0.505463
0.536075
0.546103
0.538836
0.51698
0.483944
0.44396
0.401383
0.359981
0.322456
0.290298
0.263919
0.243012
0.226721
0.213995
0.203927
0.195768
0.188913
0.182882
0.177287
0.171806
0.201494
0.400013
0.513283
0.548995
0.564143
0.561145
0.542348
0.511218
0.472073
0.429343
0.386904
0.347639
0.31327
0.284454
0.261039
0.242416
0.227541
0.215499
0.205521
0.196987
0.189406
0.182391
0.175625
0.203769
0.402257
0.521091
0.561298
0.581482
0.582608
0.566928
0.538059
0.500338
0.458148
0.415358
0.374931
0.338759
0.30772
0.281879
0.260878
0.24374
0.229575
0.217617
0.207237
0.197938
0.189329
0.181096
0.206776
0.404545
0.530513
0.572934
0.597624
0.60249
0.589969
0.563779
0.528136
0.487252
0.44488
0.403975
0.366533
0.333624
0.305539
0.282196
0.262741
0.246347
0.232273
0.219895
0.208711
0.198326
0.188429
0.211871
0.411633
0.539647
0.582218
0.61101
0.61951
0.610493
0.5876
0.554795
0.516049
0.474933
0.434326
0.396271
0.361986
0.331984
0.306415
0.284667
0.265998
0.249718
0.235219
0.221999
0.209659
0.197888
0.221296
0.422366
0.536593
0.585648
0.619475
0.632467
0.627734
0.608892
0.579713
0.54394
0.504944
0.465477
0.42757
0.392548
0.361125
0.333536
0.30962
0.288718
0.270206
0.253511
0.238136
0.223677
0.209818
0.217183
0.423535
0.531373
0.58578
0.624277
0.641837
0.641715
0.627385
0.602432
0.570365
0.534318
0.496862
0.459946
0.424925
0.392638
0.36349
0.337684
0.314705
0.294028
0.275132
0.257536
0.240828
0.224679
0.214089
0.420318
0.526604
0.585206
0.627183
0.648533
0.652712
0.642943
0.622556
0.594777
0.562445
0.527878
0.492862
0.458703
0.426296
0.396196
0.368943
0.34419
0.321532
0.300524
0.280712
0.261678
0.243069
0.214032
0.415935
0.52233
0.583861
0.628303
0.652715
0.6607
0.655311
0.639644
0.616612
0.588702
0.557905
0.52576
0.493442
0.461833
0.431575
0.403495
0.37744
0.353137
0.330228
0.308301
0.286937
0.265752
0.214089
0.409792
0.5167
0.581284
0.627458
0.65427
0.66548
0.664155
0.653237
0.635322
0.612492
0.58634
0.558083
0.528693
0.498975
0.469599
0.441456
0.414766
0.38934
0.364901
0.341087
0.317487
0.293686
0.213623
0.404055
0.511464
0.577917
0.62492
0.653248
0.666931
0.669221
0.662978
0.650467
0.633314
0.612645
0.589299
0.56399
0.537394
0.510163
0.482911
0.456482
0.430694
0.405309
0.380008
0.354397
0.328043
0.212748
0.399755
0.507597
0.574497
0.621201
0.649935
0.665176
0.670514
0.668763
0.661831
0.650835
0.636385
0.618897
0.59879
0.576558
0.552726
0.52776
0.502799
0.47771
0.452255
0.426118
0.398917
0.370222
0.211699
0.397381
0.506179
0.572315
0.617333
0.645114
0.660831
0.6685
0.670891
0.669518
0.664943
0.65723
0.646356
0.632444
0.6158
0.596796
0.575718
0.55367
0.530677
0.50641
0.480462
0.452409
0.421829
0.210646
0.397659
0.509942
0.574204
0.615317
0.640345
0.655199
0.664249
0.670149
0.673974
0.675709
0.674873
0.671031
0.664042
0.65406
0.641345
0.6261
0.608486
0.589336
0.567995
0.543795
0.516144
0.484576
0.209764
0.403225
0.523246
0.584335
0.617611
0.637639
0.650047
0.659255
0.667634
0.675796
0.683186
0.68884
0.691972
0.692227
0.689644
0.684394
0.676491
0.665579
0.652438
0.636305
0.616113
0.590894
0.559991
0.208586
0.420971
0.5387
0.600465
0.623214
0.637313
0.646336
0.654364
0.66395
0.675238
0.687157
0.698359
0.707827
0.715113
0.720208
0.723219
0.724075
0.722305
0.717365
0.70917
0.695997
0.676253
0.648816
0.202558
0.43643
0.532387
0.598299
0.622056
0.634295
0.64086
0.647615
0.657768
0.671258
0.686619
0.702281
0.717166
0.730831
0.743281
0.754642
0.764925
0.773708
0.77981
0.782521
0.779951
0.76975
0.750028
0.191288
0.399868
0.503696
0.552666
0.597105
0.616415
0.624527
0.632494
0.644744
0.661027
0.679618
0.699062
0.718531
0.737765
0.75684
0.775989
0.795491
0.815306
0.834427
0.850504
0.862019
0.866031
0.859611
0.178295
0.377624
0.478473
0.512111
0.551353
0.574969
0.587864
0.601959
0.620443
0.642
0.664789
0.687995
0.711516
0.735489
0.760116
0.785803
0.813369
0.843533
0.875614
0.907199
0.935065
0.956911
0.96944
0.163236
0.357528
0.498477
0.534268
0.523626
0.528488
0.54227
0.563696
0.589786
0.617443
0.644723
0.671515
0.698409
0.725972
0.754565
0.784957
0.818811
0.857546
0.900819
0.946538
0.992019
1.0337
1.06868
0.145955
0.316047
0.445252
0.522349
0.516968
0.502519
0.513564
0.539131
0.569529
0.599266
0.628097
0.656561
0.684953
0.713803
0.744004
0.776857
0.814781
0.859609
0.91084
0.966663
1.02633
1.08743
1.14555
0.128084
0.280786
0.378598
0.438526
0.45251
0.459102
0.479306
0.510316
0.546167
0.584805
0.621109
0.652408
0.680121
0.705231
0.73377
0.766953
0.806344
0.853503
0.907693
0.968059
1.03602
1.11085
1.18827
0.111034
0.258101
0.332766
0.379392
0.399802
0.417214
0.443005
0.476167
0.513919
0.556221
0.599114
0.635764
0.669564
0.703855
0.735758
0.766313
0.800758
0.841991
0.891247
0.950888
1.02105
1.10138
1.18759
0.0957478
0.242742
0.306566
0.348222
0.372375
0.393957
0.421457
0.454951
0.491982
0.530786
0.569978
0.607319
0.644034
0.685156
0.726088
0.75806
0.791174
0.832597
0.881049
0.930929
0.991202
1.06408
1.14327
0.0826745
0.22899
0.290798
0.333506
0.362273
0.387311
0.415632
0.448557
0.484491
0.521499
0.558371
0.594315
0.629548
0.664996
0.699866
0.732574
0.766228
0.805587
0.854968
0.900293
0.945343
0.998249
1.05752
0.0717772
0.214432
0.280098
0.328918
0.36459
0.394288
0.424217
0.456622
0.491138
0.526472
0.561785
0.596634
0.630665
0.663512
0.695012
0.725205
0.755313
0.787012
0.82089
0.854377
0.888206
0.92388
0.960446
0.0628758
0.199916
0.274167
0.333677
0.377979
0.412828
0.445021
0.477834
0.512051
0.546702
0.581574
0.616378
0.650351
0.682159
0.711107
0.737791
0.763437
0.788263
0.812228
0.834794
0.856126
0.87633
0.894747
0.056115
0.188233
0.276048
0.350523
0.402404
0.44117
0.47577
0.510848
0.548359
0.585295
0.623128
0.661733
0.69995
0.733631
0.760631
0.782992
0.80377
0.821026
0.834581
0.844485
0.851329
0.855008
0.855122
0.0544919
0.19325
0.294692
0.387724
0.439085
0.481745
0.521524
0.564053
0.616313
0.662587
0.710979
0.760788
0.815569
0.859266
0.884018
0.899046
0.918654
0.919981
0.911009
0.897157
0.881211
0.860332
0.832943
0.0662848
0.169547
0.265885
0.355086
0.421299
0.50356
0.580162
0.645129
0.767751
0.829106
0.900374
0.972508
1.11872
1.14188
1.17877
1.17368
1.21699
1.15473
1.08856
1.02467
0.970842
0.909218
0.837754
0.0802702
0.0862808
0.0938234
0.102463
0.132644
0.134259
0.137
0.140374
0.156436
0.156595
0.156798
0.156791
0.167145
0.166659
0.165852
0.164634
0.171013
0.170204
0.169038
0.167482
0.171622
0.170625
0.169286
0.167594
0.170603
0.169454
0.168
0.166237
0.168917
0.167602
0.166028
0.164193
0.16719
0.165672
0.163944
0.162004
0.165866
0.164093
0.162161
0.160068
0.165269
0.163182
0.160989
0.158685
0.165647
0.163179
0.160659
0.158079
0.167193
0.164269
0.161347
0.158419
0.170073
0.166606
0.1632
0.159842
0.174449
0.170341
0.166354
0.162473
0.180508
0.175646
0.170966
0.166453
0.188489
0.182743
0.17724
0.171965
0.19872
0.19194
0.185462
0.179271
0.211646
0.203666
0.196035
0.188745
0.227865
0.218508
0.209525
0.200921
0.248167
0.237255
0.226707
0.216545
0.273561
0.260937
0.248609
0.236627
0.305309
0.290853
0.276554
0.262492
0.344937
0.3286
0.312191
0.295817
0.394247
0.376089
0.357521
0.33867
0.455272
0.435541
0.414928
0.393558
0.530097
0.509385
0.487147
0.463469
0.620364
0.599852
0.576986
0.551727
0.726271
0.708027
0.686473
0.661313
0.845061
0.832192
0.815142
0.793184
0.969396
0.965809
0.957609
0.943431
1.08688
1.09624
1.10122
1.09999
1.18316
1.20767
1.22882
1.24447
1.24251
1.2811
1.31809
1.35211
1.25108
1.30009
1.34995
1.40013
1.19881
1.24238
1.2885
1.33853
1.09778
1.12906
1.16069
1.19426
0.984194
1.0032
1.02203
1.04183
0.905252
0.913785
0.922353
0.931587
0.853916
0.852124
0.850018
0.848259
0.816361
0.799582
0.782455
0.765877
0.822276
0.786713
0.730384
0.67246
0.111946
0.125349
0.118808
0.111436
0.104321
0.0977854
0.0920396
0.0869666
0.0824556
0.0783034
0.0742845
0.0701815
0.0657886
0.0609041
0.0553072
0.0487165
0.0406747
0.0301488
0.0134633
0.143134
0.140058
0.132187
0.123637
0.115271
0.107545
0.100548
0.0943601
0.0888685
0.0838703
0.0791316
0.0744184
0.0695051
0.0641674
0.0581597
0.0511684
0.0426942
0.0316513
0.014228
0.155865
0.150061
0.141645
0.132584
0.123579
0.115028
0.107218
0.100238
0.0940026
0.0883308
0.0829987
0.0777707
0.0724114
0.0666805
0.0603118
0.0529678
0.0441273
0.0327023
0.014832
0.162254
0.155891
0.147579
0.13847
0.129213
0.120323
0.112098
0.104645
0.0979148
0.0917592
0.0859762
0.0803398
0.0746139
0.0685507
0.0618722
0.0542285
0.0450959
0.0334191
0.0153268
0.164705
0.158399
0.150442
0.141613
0.132529
0.123672
0.115349
0.107693
0.100691
0.0942298
0.0881351
0.0821971
0.0761872
0.0698585
0.0629302
0.0550515
0.0457094
0.0338991
0.0157544
0.164687
0.158616
0.151107
0.142733
0.134025
0.125419
0.117212
0.109552
0.102455
0.0958389
0.0895562
0.083417
0.0772056
0.0706828
0.0635732
0.0555321
0.0460633
0.0342196
0.0161454
0.163284
0.157448
0.150357
0.142457
0.13419
0.125934
0.117965
0.110429
0.103363
0.096708
0.090339
0.0840871
0.0777526
0.0711082
0.0638879
0.055757
0.0462372
0.0344385
0.0165212
0.161192
0.155528
0.148778
0.141298
0.133454
0.12557
0.117887
0.110546
0.10359
0.0969755
0.0905983
0.0843075
0.0779196
0.0712208
0.0639563
0.0558017
0.0462941
0.0345964
0.0168952
0.158911
0.153326
0.146813
0.139664
0.132182
0.124638
0.11724
0.110117
0.103309
0.0967855
0.0904545
0.0841816
0.077798
0.0711026
0.0638512
0.055728
0.0462814
0.0347206
0.0172752
0.156815
0.151199
0.144806
0.137879
0.130668
0.123401
0.116254
0.109336
0.102686
0.0962752
0.0900237
0.0838084
0.0774729
0.0708265
0.0636338
0.0555851
0.0462346
0.0348295
0.0176653
0.155192
0.149419
0.143018
0.136191
0.129147
0.122074
0.115118
0.10837
0.101862
0.0955669
0.0894096
0.083276
0.0770186
0.0704546
0.0633544
0.0554113
0.0461805
0.0349365
0.0180674
0.154254
0.148188
0.141642
0.134787
0.127795
0.12082
0.113982
0.107353
0.100957
0.094763
0.0887003
0.0826593
0.0764979
0.0700384
0.063054
0.0552379
0.0461411
0.0350534
0.0184823
0.154161
0.147654
0.140819
0.1338
0.12674
0.119762
0.11296
0.10639
0.100064
0.093947
0.0879683
0.0820202
0.0759629
0.0696207
0.0627668
0.0550912
0.0461356
0.0351923
0.0189109
0.155036
0.147926
0.140646
0.133323
0.126072
0.118986
0.112137
0.10556
0.0992561
0.0931853
0.0872729
0.0814105
0.0754581
0.0692387
0.0625232
0.0549953
0.0461827
0.0353662
0.0193546
0.156989
0.149093
0.141199
0.133423
0.125853
0.118556
0.111573
0.104923
0.0985919
0.0925319
0.0866632
0.0808743
0.0750219
0.0689258
0.0623513
0.0549736
0.0463019
0.0355905
0.0198162
0.160138
0.151247
0.142551
0.134158
0.126136
0.118518
0.111318
0.104528
0.0981183
0.0920318
0.0861815
0.0804502
0.0746894
0.0687129
0.0622787
0.0550501
0.0465139
0.0358834
0.0203007
0.164642
0.154508
0.144786
0.135593
0.12697
0.118918
0.111412
0.104415
0.0978763
0.0917251
0.0858655
0.0801733
0.0744927
0.0686295
0.062332
0.0552493
0.0468412
0.0362653
0.0208157
0.170726
0.159048
0.14803
0.137813
0.128419
0.119804
0.111899
0.104625
0.097905
0.0916491
0.0857505
0.0800763
0.074462
0.0687036
0.0625374
0.0555958
0.0473068
0.0367586
0.0213713
0.178721
0.165123
0.15247
0.140949
0.13057
0.12124
0.112828
0.105203
0.0982447
0.0918412
0.0858707
0.0801902
0.0746254
0.068961
0.0629194
0.056113
0.0479337
0.0373861
0.02198
0.189111
0.173122
0.158394
0.145203
0.13356
0.123318
0.114267
0.1062
0.0989407
0.0923413
0.0862609
0.080545
0.075009
0.0694251
0.0634997
0.0568223
0.0487432
0.0381696
0.0226559
0.202586
0.183619
0.166244
0.150892
0.137606
0.126182
0.116313
0.107688
0.100049
0.093195
0.0869583
0.0811706
0.0756368
0.0701159
0.0642964
0.0577413
0.0497534
0.0391287
0.0234131
0.220106
0.197449
0.176693
0.158515
0.143052
0.130061
0.119117
0.10977
0.101644
0.0944595
0.0880064
0.082099
0.0765317
0.07105
0.0653226
0.0588824
0.0509779
0.0402791
0.0242645
0.242958
0.215786
0.190737
0.16885
0.150456
0.135328
0.12292
0.112603
0.103834
0.0962114
0.0894606
0.0833683
0.0777175
0.0722411
0.0665863
0.0602518
0.0524245
0.0416326
0.0252202
0.272798
0.240212
0.209807
0.183082
0.160707
0.142592
0.128115
0.116437
0.10678
0.0985609
0.0913969
0.0850284
0.0792232
0.0737027
0.0680914
0.0618497
0.0540949
0.0431974
0.0262866
0.311694
0.272768
0.235856
0.202959
0.175212
0.152865
0.135363
0.121681
0.110737
0.101673
0.0939253
0.0871507
0.0810901
0.0754528
0.0698404
0.0636704
0.0559839
0.0449763
0.0274656
0.362192
0.316003
0.271425
0.230923
0.196116
0.167796
0.145781
0.129027
0.116119
0.105801
0.0972095
0.0898414
0.083381
0.0775208
0.0718389
0.0657055
0.0580788
0.0469642
0.0287531
0.427435
0.373085
0.319691
0.270185
0.226502
0.190003
0.161264
0.139667
0.123623
0.111351
0.101498
0.0932591
0.0861936
0.0799579
0.0741031
0.0679476
0.0603596
0.0491419
0.0301395
0.511242
0.448025
0.384632
0.324763
0.270475
0.223369
0.184935
0.155695
0.134468
0.119
0.107179
0.0976428
0.0896782
0.0828499
0.0766704
0.0703992
0.0628049
0.0514748
0.031609
0.617833
0.545904
0.471452
0.39974
0.33318
0.273155
0.221608
0.180705
0.150848
0.129925
0.114878
0.103354
0.0940596
0.0863336
0.0796117
0.0730831
0.065402
0.0539236
0.0331442
0.75058
0.67258
0.587114
0.502047
0.421192
0.345943
0.277936
0.220466
0.17667
0.146265
0.125662
0.11095
0.0996678
0.090615
0.0830452
0.0760534
0.0681597
0.0564643
0.0347326
0.909147
0.83279
0.740041
0.641597
0.54399
0.450251
0.362222
0.283157
0.218487
0.171933
0.141431
0.121327
0.106982
0.0959869
0.0871502
0.0794029
0.0711168
0.0590984
0.0363781
1.08514
1.02553
0.936657
0.830515
0.715847
0.599027
0.485252
0.378976
0.285946
0.213773
0.165675
0.136011
0.116716
0.102848
0.0921848
0.0832872
0.0743514
0.0618581
0.0380513
1.25814
1.23453
1.17218
1.07547
0.952593
0.811751
0.663677
0.520765
0.391029
0.28239
0.204706
0.15775
0.130028
0.111801
0.0984578
0.0878581
0.0779336
0.0647796
0.0397547
1.40133
1.42762
1.4124
1.35431
1.2524
1.10442
0.920116
0.727338
0.547282
0.391161
0.268884
0.191816
0.148998
0.123508
0.10626
0.0932697
0.0819352
0.0678966
0.041529
1.48287
1.55928
1.60015
1.59842
1.54766
1.43744
1.25803
1.02036
0.771105
0.553266
0.372616
0.247565
0.176941
0.138948
0.115873
0.0996175
0.0863858
0.0712285
0.043432
1.4295
1.52791
1.60586
1.66052
1.68681
1.6662
1.56368
1.35149
1.06409
0.780081
0.531056
0.336832
0.219338
0.15961
0.127511
0.10685
0.0912167
0.0747603
0.045546
1.25623
1.32563
1.39035
1.45071
1.50727
1.55402
1.56504
1.49249
1.30574
1.03383
0.738201
0.468847
0.28338
0.18766
0.141314
0.114697
0.0962018
0.0784237
0.0479999
1.07924
1.12256
1.16637
1.20995
1.25238
1.29122
1.32137
1.33137
1.30395
1.19123
0.949843
0.638105
0.374424
0.225514
0.157303
0.12265
0.100941
0.0820976
0.0510233
0.949944
0.972908
0.999616
1.03017
1.0636
1.09787
1.1295
1.15806
1.18491
1.192
1.09005
0.816314
0.490224
0.274129
0.175054
0.130002
0.104954
0.0856851
0.055058
0.847057
0.851239
0.862775
0.882924
0.911915
0.948711
0.991238
1.03807
1.09143
1.14804
1.15552
0.978672
0.623813
0.33162
0.192895
0.135688
0.107865
0.0893232
0.0610089
0.744611
0.735876
0.736688
0.749564
0.778596
0.826805
0.895707
0.980058
1.07463
1.17334
1.26744
1.20482
0.81091
0.397849
0.205748
0.137298
0.109324
0.0935766
0.0709474
0.62172
0.65597
0.651502
0.668757
0.703667
0.78121
0.974428
1.13543
1.30943
1.38158
1.35924
1.21024
0.783987
0.379397
0.19167
0.127754
0.107526
0.0985864
0.0904864
)
;

boundaryField
{
    leftWall
    {
        type            kqRWallFunction;
        value           nonuniform List<scalar> 
50
(
0.0338361
0.0554569
0.070257
0.0819223
0.0907447
0.0970754
0.102646
0.109043
0.122451
0.138638
0.160394
0.184272
0.192698
0.180494
0.172058
0.17459
0.183283
0.189991
0.19459
0.197692
0.199772
0.201494
0.203769
0.206776
0.211871
0.221296
0.217183
0.214089
0.214032
0.214089
0.213623
0.212748
0.211699
0.210646
0.209764
0.208586
0.202558
0.191288
0.178295
0.163236
0.145955
0.128084
0.111034
0.0957478
0.0826745
0.0717772
0.0628758
0.056115
0.0544919
0.0662848
)
;
    }
    rightWall
    {
        type            kqRWallFunction;
        value           nonuniform List<scalar> 
50
(
0.00633553
0.00704628
0.00818672
0.00942368
0.0104918
0.0113951
0.0121282
0.0127598
0.0134633
0.014228
0.014832
0.0153268
0.0157544
0.0161454
0.0165212
0.0168952
0.0172752
0.0176653
0.0180674
0.0184823
0.0189109
0.0193546
0.0198162
0.0203007
0.0208157
0.0213713
0.02198
0.0226559
0.0234131
0.0242645
0.0252202
0.0262866
0.0274656
0.0287531
0.0301395
0.031609
0.0331442
0.0347326
0.0363781
0.0380513
0.0397547
0.041529
0.043432
0.045546
0.0479999
0.0510233
0.055058
0.0610089
0.0709474
0.0904864
)
;
    }
    lowerWall
    {
        type            kqRWallFunction;
        value           nonuniform List<scalar> 
62
(
0.0338361
0.0420261
0.0425869
0.0426352
0.0441459
0.046042
0.0480809
0.0503711
0.052406
0.054334
0.0562784
0.0583078
0.0604473
0.0626941
0.0650794
0.0689609
0.0718783
0.0716171
0.067157
0.058326
0.0479239
0.0356263
0.020213
0.020213
0.0343617
0.0389801
0.0391168
0.0365955
0.0338893
0.0315556
0.0336481
0.0802702
0.0862808
0.0938234
0.102463
0.0106437
0.0149583
0.0228777
0.0313877
0.0392703
0.0474811
0.0569782
0.0712298
0.0106437
0.0129167
0.0160711
0.0180686
0.0192062
0.0198494
0.0201253
0.0202115
0.0200451
0.0196304
0.0190063
0.0181787
0.0171378
0.015861
0.0143073
0.0124027
0.0108847
0.0107824
0.00633553
)
;
    }
    atmosphere
    {
        type            inletOutlet;
        inletValue      uniform 0.1;
        value           nonuniform List<scalar> 
46
(
0.1
0.1
0.265885
0.1
0.421299
0.1
0.580162
0.645129
0.1
0.1
0.900374
0.972508
0.1
0.1
0.1
1.17368
0.1
0.1
0.1
1.02467
0.970842
0.1
0.1
0.1
0.1
0.1
0.67246
0.62172
0.1
0.651502
0.1
0.1
0.78121
0.1
0.1
0.1
1.38158
1.35924
1.21024
0.783987
0.379397
0.19167
0.1
0.1
0.1
0.1
)
;
    }
    defaultFaces
    {
        type            empty;
    }
}


// ************************************************************************* //
