/*--------------------------------*- C++ -*----------------------------------*\
  =========                 |
  \\      /  F ield         | OpenFOAM: The Open Source CFD Toolbox
   \\    /   O peration     | Website:  https://openfoam.org
    \\  /    A nd           | Version:  9
     \\/     M anipulation  |
\*---------------------------------------------------------------------------*/
FoamFile
{
    format      ascii;
    class       volScalarField;
    location    "0.4";
    object      nut;
}
// * * * * * * * * * * * * * * * * * * * * * * * * * * * * * * * * * * * * * //

dimensions      [0 2 -1 0 0 0 0];

internalField   nonuniform List<scalar> 
2268
(
0.000164961
0.000135509
0.000137371
0.000138129
0.000140689
0.000143709
0.000146862
0.000150301
0.00015328
0.000156057
0.000158805
0.000161613
0.000164508
0.000167466
0.000170592
0.000175596
0.000179022
0.00017851
0.000172748
0.000160922
0.000145852
0.000125705
9.46521e-05
0.000331113
0.000871628
0.0010185
0.00103105
0.00106512
0.00110697
0.0011515
0.00117933
0.00120444
0.00122964
0.00125574
0.00128297
0.00131065
0.0013363
0.00135351
0.00134458
0.0013005
0.00121592
0.00108277
0.000908769
0.000618735
0.000406029
0.000261563
0.000374046
0.00152868
0.00191963
0.00204272
0.00213364
0.00220942
0.00226683
0.00229805
0.00231791
0.00233127
0.00234055
0.00234641
0.00234729
0.00233861
0.00231067
0.0022464
0.00212708
0.00194301
0.00169135
0.00139307
0.000992707
0.000619886
0.000278838
0.000405838
0.00201157
0.00265679
0.00293759
0.00310604
0.00321413
0.00327482
0.00329309
0.00328851
0.00326785
0.00323568
0.00319364
0.00313999
0.00306897
0.00296971
0.00282622
0.00262101
0.00234172
0.00198655
0.00160616
0.0011689
0.000727113
0.000279565
0.000429605
0.00238226
0.00325668
0.00370542
0.00396795
0.00411685
0.00418422
0.0041869
0.0041519
0.00408878
0.00400472
0.00390293
0.00378199
0.00363563
0.00345239
0.00321684
0.00291324
0.0025343
0.00209409
0.00164533
0.00120123
0.000747626
0.000270613
0.000445633
0.00268019
0.00375868
0.00436537
0.00472952
0.00492866
0.00501056
0.00500349
0.00494099
0.00483617
0.00469903
0.00453477
0.00434294
0.00411727
0.00384603
0.00351409
0.00310769
0.00262561
0.0020957
0.00158118
0.00112942
0.000711483
0.000260536
0.000455789
0.00292289
0.00419274
0.00493899
0.00540344
0.00565895
0.00576402
0.0057563
0.00567477
0.00553545
0.00535088
0.00512859
0.00486973
0.00456881
0.00421441
0.00379183
0.00328916
0.0027104
0.00209362
0.00151282
0.00103506
0.00065814
0.000251524
0.000468351
0.0031286
0.00457527
0.00544474
0.0060019
0.00631531
0.00645004
0.00645103
0.00636169
0.00619913
0.00597779
0.00570753
0.00539179
0.00502691
0.00460294
0.00410668
0.00352849
0.00287587
0.00219097
0.00155084
0.00102719
0.000644964
0.000259721
6.79617e-05
7.64344e-05
8.52727e-05
9.04525e-05
9.32589e-05
9.47897e-05
9.54202e-05
9.5591e-05
9.51698e-05
9.41507e-05
9.26132e-05
9.05457e-05
8.78878e-05
8.45234e-05
8.02482e-05
7.46778e-05
7.00709e-05
0.000295483
0.000145436
0.000193273
0.000586203
0.000686015
0.000761405
0.000816893
0.000857362
0.00088098
0.00088492
0.000875316
0.000861204
0.00084273
0.000818837
0.000787994
0.000747972
0.000695415
0.000625432
0.000536036
0.000445131
0.000132202
0.000238941
0.00107164
0.00139356
0.00160993
0.00175646
0.00184338
0.00187833
0.00187001
0.00183473
0.00178601
0.00172566
0.00165207
0.00156226
0.00145182
0.00131454
0.00114155
0.00092139
0.000627578
0.000142285
0.000279759
0.00148403
0.00207306
0.00243672
0.00266373
0.0027827
0.00281598
0.00278513
0.00271421
0.00262014
0.00250695
0.00237329
0.0022154
0.0020276
0.00180214
0.00152826
0.0011901
0.000754612
0.000152627
0.000312861
0.00184512
0.00270222
0.00320359
0.00349598
0.00363564
0.00366049
0.00360171
0.0034904
0.0033467
0.00317704
0.00298088
0.00275429
0.00249108
0.00218301
0.00181899
0.00138269
0.000842166
0.000161072
0.00034392
0.00217793
0.00328235
0.00390652
0.00425055
0.00440174
0.00441387
0.00432384
0.00417036
0.00397612
0.00374992
0.00349239
0.00319995
0.00286645
0.00248392
0.00204195
0.00152548
0.000905653
0.000167927
0.000376648
0.00251056
0.00382923
0.00455424
0.0049356
0.00508943
0.00508384
0.00496165
0.00476586
0.00452192
0.00424096
0.00392497
0.00357104
0.00317354
0.00272522
0.00221689
0.00163528
0.000954424
0.00017329
0.000420997
0.00289331
0.00436997
0.0051613
0.00556237
0.00570917
0.0056812
0.00552595
0.00528842
0.00499657
0.0046636
0.00429293
0.00388253
0.00342758
0.00292177
0.00235733
0.00172263
0.000993669
0.000177787
0.000494434
0.00341145
0.00511375
0.00615193
0.00683774
0.00723998
0.0074297
0.00745513
0.00735892
0.00716899
0.00690109
0.0065681
0.00617766
0.00573096
0.00522323
0.004647
0.00399915
0.00329225
0.00256539
0.00188106
0.00129686
0.000838292
0.00053958
0.000522789
0.00368725
0.0056698
0.00688123
0.00769753
0.00820405
0.0084785
0.00857179
0.0085142
0.00834401
0.00807862
0.00773378
0.00732388
0.00686082
0.00635369
0.00581053
0.00524208
0.00466532
0.00410357
0.00358221
0.00312279
0.00273986
0.00243535
0.000560136
0.00395502
0.00613111
0.00748061
0.00839206
0.00897645
0.00931897
0.00947795
0.00948844
0.00937962
0.00917361
0.00888375
0.00852571
0.00811767
0.00767861
0.00722694
0.00678022
0.00635514
0.00596681
0.00562814
0.00535014
0.00514384
0.00502442
0.000607737
0.00422486
0.00651147
0.00797524
0.00897007
0.00961617
0.0100062
0.0102127
0.010285
0.0102496
0.0101295
0.00993312
0.00967078
0.0093588
0.0090185
0.00867259
0.00834189
0.00804358
0.00779066
0.00759256
0.00745667
0.00739093
0.00740783
0.0006447
0.00446401
0.00684265
0.00841775
0.0094949
0.0101854
0.010596
0.0108202
0.0109259
0.0109514
0.010913
0.0108184
0.0106682
0.0104701
0.0102408
0.0100016
0.00977409
0.00957594
0.00941966
0.00931282
0.0092592
0.00926069
0.00931928
0.000626061
0.00448503
0.00719845
0.00889127
0.010029
0.0107323
0.0111316
0.0113415
0.0114468
0.0114998
0.011521
0.0115123
0.011467
0.0113816
0.0112629
0.0111265
0.0109911
0.0108733
0.010785
0.0107322
0.0107162
0.0107339
0.0107801
0.000600582
0.00427391
0.00765526
0.00941937
0.0105752
0.0112616
0.0116282
0.0118029
0.0118817
0.0119287
0.0119749
0.0120213
0.0120561
0.0120657
0.0120459
0.0120031
0.01195
0.0118997
0.0118622
0.0118422
0.0118392
0.0118483
0.0118611
0.000591628
0.00453303
0.00799664
0.00988068
0.0110652
0.0117413
0.0120803
0.0122181
0.0122584
0.0122754
0.0123117
0.0123771
0.0124571
0.0125322
0.012589
0.0126239
0.0126417
0.0126499
0.0126547
0.0126588
0.0126609
0.0126554
0.0126337
0.000607654
0.0047542
0.00826095
0.0102331
0.011465
0.012156
0.012487
0.0125988
0.0126007
0.0125752
0.0125762
0.012625
0.0127136
0.0128188
0.0129222
0.0130124
0.013086
0.0131435
0.013186
0.0132132
0.0132221
0.013207
0.0131603
0.000621248
0.00491371
0.00845861
0.0105124
0.0117994
0.0125215
0.0128611
0.0129597
0.0129292
0.0128579
0.0128091
0.0128153
0.0128787
0.0129797
0.013097
0.0132155
0.0133251
0.0134198
0.0134949
0.0135459
0.0135672
0.0135525
0.0134942
0.000630479
0.00502544
0.00863421
0.0107635
0.012103
0.0128613
0.0132187
0.0133143
0.0132597
0.013146
0.0130425
0.0129912
0.0130048
0.0130729
0.0131741
0.0132929
0.0134158
0.0135316
0.0136305
0.0137035
0.0137417
0.0137368
0.0136806
0.000636618
0.00510999
0.00880295
0.0110035
0.0123928
0.0131891
0.01357
0.0136711
0.0136016
0.013453
0.0132978
0.0131848
0.0131362
0.013151
0.013212
0.013306
0.0134189
0.0135368
0.0136465
0.0137348
0.0137898
0.0138004
0.0137567
0.000640536
0.00517675
0.00896065
0.0112311
0.0126716
0.0135088
0.0139184
0.0140326
0.013958
0.0137847
0.0135862
0.0134153
0.0133015
0.0132521
0.0132579
0.0133078
0.0133901
0.0134906
0.0135944
0.0136863
0.0137518
0.0137776
0.0137515
0.000642948
0.00522667
0.00910175
0.011442
0.0129378
0.0138195
0.0142626
0.0143968
0.0143266
0.01414
0.0139096
0.0136902
0.0135159
0.013401
0.0133445
0.0133381
0.0133736
0.0134387
0.0135187
0.0135984
0.0136623
0.013696
0.0136859
0.000645762
0.0052567
0.00922242
0.0116342
0.0131896
0.0141183
0.0145977
0.0147578
0.0147011
0.0145128
0.0142638
0.0140086
0.0137841
0.0136096
0.0134903
0.0134219
0.0133999
0.0134148
0.013454
0.0135034
0.013549
0.0135769
0.0135736
0.000649326
0.00525679
0.00933158
0.0118107
0.0134256
0.0143995
0.0149161
0.0151068
0.015072
0.0148939
0.0146402
0.0143638
0.0141024
0.0138785
0.0137018
0.0135715
0.0134867
0.013441
0.0134243
0.0134254
0.0134329
0.0134357
0.013423
0.000649898
0.005255
0.00943601
0.0119702
0.0136369
0.0146516
0.0152064
0.0154329
0.0154287
0.0152724
0.0150278
0.0147455
0.0144623
0.0142023
0.0139777
0.0137902
0.013642
0.0135294
0.0134452
0.0133813
0.0133302
0.0132853
0.0132407
0.000673561
0.00533887
0.00947813
0.0120881
0.0138027
0.0148601
0.0154573
0.0157257
0.0157607
0.0156371
0.0154151
0.015142
0.0148529
0.0145714
0.0143108
0.0140751
0.0138672
0.0136858
0.0135263
0.0133836
0.0132544
0.0131378
0.0130348
0.000675699
0.00535289
0.00949793
0.01217
0.0139257
0.0150237
0.0156645
0.0159787
0.0160595
0.0159781
0.0157907
0.015541
0.0152616
0.0149744
0.0146922
0.0144198
0.0141597
0.0139119
0.0136734
0.013442
0.0132185
0.0130078
0.0128187
0.000664336
0.00532537
0.00950747
0.0122304
0.0140164
0.0151472
0.0158279
0.0161881
0.0163182
0.016286
0.0161435
0.0159305
0.0156759
0.0153993
0.0151117
0.0148168
0.0145154
0.0142074
0.0138909
0.0135658
0.0132366
0.0129139
0.0126138
0.000662677
0.0053028
0.00951572
0.0122688
0.0140744
0.0152304
0.0159458
0.0163496
0.0165303
0.0165522
0.0164632
0.0162988
0.0160838
0.0158344
0.0155587
0.015258
0.0149294
0.0145719
0.0141834
0.0137653
0.0133254
0.0128793
0.0124498
0.000662937
0.00526726
0.00950384
0.0122808
0.0140977
0.0152717
0.0160153
0.0164588
0.0166895
0.0167688
0.0167405
0.0166353
0.0164738
0.0162681
0.0160227
0.0157349
0.0153967
0.0150048
0.0145559
0.014052
0.0135037
0.0129313
0.012363
0.000662643
0.00523104
0.00948481
0.0122721
0.0140901
0.0152722
0.0160355
0.016513
0.0167914
0.0169297
0.0169673
0.0169306
0.0168353
0.0166892
0.0164924
0.0162375
0.0159113
0.0155051
0.0150135
0.0144381
0.0137917
0.0130985
0.0123918
0.000661675
0.00520877
0.00947338
0.0122542
0.0140592
0.0152363
0.0160084
0.0165121
0.0168343
0.0170313
0.0171384
0.017177
0.0171586
0.0170863
0.0169559
0.0167551
0.0164651
0.0160695
0.0155591
0.014934
0.0142079
0.0134082
0.0125725
0.000660658
0.00521178
0.00948813
0.012244
0.0140174
0.0151729
0.0159406
0.0164609
0.0168209
0.0170738
0.0172508
0.0173688
0.0174346
0.0174477
0.0173997
0.0172739
0.0170459
0.0166894
0.0161901
0.0155446
0.0147655
0.0138818
0.0129345
0.00066039
0.00525436
0.00956051
0.0122692
0.0139838
0.0150963
0.0158438
0.0163692
0.0167582
0.017061
0.0173046
0.0175013
0.0176545
0.0177603
0.017807
0.0177747
0.0176334
0.0173476
0.0168942
0.0162645
0.0154673
0.0145304
0.0134967
0.000661791
0.00537336
0.00972532
0.012356
0.0139718
0.0150176
0.0157288
0.0162473
0.0166541
0.0169973
0.0172998
0.0175699
0.0178078
0.0180087
0.0181572
0.0182316
0.0181981
0.0180147
0.0176453
0.0170732
0.0163006
0.0153505
0.0142642
0.000666393
0.0056133
0.00989972
0.0124508
0.0139434
0.0149173
0.0155892
0.0160871
0.0165037
0.016881
0.0172355
0.0175715
0.0178873
0.0181767
0.0184265
0.0186143
0.0187047
0.0186499
0.0184016
0.0179318
0.0172322
0.0163179
0.0152237
0.000666184
0.00573347
0.00976241
0.012273
0.0137474
0.0147068
0.015351
0.0158457
0.0162823
0.0166968
0.0171008
0.0174968
0.0178832
0.0182549
0.0186003
0.0188981
0.0191138
0.0192005
0.019106
0.0187832
0.0182064
0.017385
0.0163378
0.000651128
0.0051264
0.00909096
0.0114637
0.013151
0.014194
0.0148932
0.0154454
0.0159426
0.016417
0.0168791
0.0173346
0.0177864
0.018233
0.0186653
0.0190647
0.0193996
0.019626
0.0196912
0.0195423
0.0191437
0.0184792
0.0175427
0.000630754
0.00449754
0.00800338
0.0102537
0.0120229
0.0132472
0.0141192
0.0148281
0.0154544
0.0160277
0.0165656
0.0170856
0.0176001
0.0181134
0.0186203
0.0191064
0.0195461
0.0199002
0.0201178
0.0201449
0.0199372
0.0194704
0.0187338
0.000606083
0.00396179
0.00743726
0.00948549
0.0108431
0.0121088
0.0131892
0.0141049
0.0148901
0.0155769
0.0161974
0.0167823
0.0173528
0.0179194
0.0184823
0.0190334
0.019555
0.0200136
0.0203601
0.0205422
0.0205198
0.0202634
0.0197582
0.000572695
0.00335338
0.00650819
0.00886431
0.0102536
0.0113898
0.0125249
0.0135472
0.0144253
0.0151785
0.0158593
0.0164933
0.0170998
0.0176936
0.0182848
0.0188717
0.0194429
0.01997
0.0204057
0.0207009
0.0208272
0.0207646
0.0204951
0.000534015
0.00286823
0.00548572
0.00764853
0.00922641
0.0105936
0.011869
0.0129963
0.0139749
0.0148457
0.0156101
0.0162823
0.0168965
0.0174772
0.0180648
0.0186517
0.0192264
0.0197676
0.0202342
0.0205854
0.0208063
0.0208894
0.0208221
0.000493983
0.00256736
0.00472017
0.00666816
0.00828501
0.00976498
0.0111435
0.0123656
0.0134351
0.0143998
0.0152519
0.015982
0.0166496
0.0172877
0.017871
0.0183982
0.0188983
0.019372
0.0197951
0.0201423
0.020396
0.0205597
0.0206272
0.00045558
0.00241014
0.00426637
0.00605596
0.00766363
0.00916834
0.0105814
0.0118548
0.0129731
0.0139558
0.0148207
0.0155798
0.0162665
0.0169192
0.0174934
0.0179427
0.0183433
0.0187299
0.0190833
0.019337
0.019531
0.0196888
0.0198018
0.000420824
0.00233734
0.00405021
0.00575832
0.00735673
0.00885636
0.0102569
0.011527
0.0126477
0.013622
0.0144627
0.0151823
0.015798
0.0163237
0.016756
0.0170897
0.0173559
0.0175921
0.0178283
0.0179646
0.0180242
0.0180684
0.0181146
0.000390437
0.0023111
0.00400055
0.00571042
0.0073234
0.00880905
0.0101644
0.0113742
0.0124254
0.0133133
0.014043
0.0146236
0.0150671
0.0153861
0.0155952
0.0157101
0.0157552
0.0157591
0.0157417
0.0156745
0.0155592
0.0154215
0.0152862
0.000364578
0.00232811
0.00409599
0.0058748
0.00750377
0.00894341
0.0102049
0.0112838
0.0121691
0.0128484
0.0133278
0.0136246
0.0137634
0.0137688
0.0136706
0.0135022
0.0132863
0.0130413
0.0127793
0.0124932
0.0121684
0.0118135
0.0115062
0.000344646
0.00242837
0.00435376
0.00620861
0.00777322
0.00907868
0.010152
0.010991
0.0115823
0.0119023
0.011986
0.0118835
0.0116436
0.0113004
0.0108972
0.010485
0.0100555
0.009625
0.0092052
0.00878688
0.00834616
0.00791708
0.0075607
0.000342948
0.0027077
0.00470661
0.0065446
0.00786343
0.00892238
0.00969345
0.010174
0.0103697
0.0102576
0.00995077
0.00950912
0.0089878
0.00840179
0.00780379
0.00732014
0.00675344
0.00622288
0.00577351
0.00539861
0.00501398
0.0046175
0.00430132
0.000372052
0.00272226
0.00449827
0.00590172
0.00704681
0.00774603
0.00851434
0.00870521
0.00861483
0.00818733
0.007971
0.00741936
0.00685321
0.00620547
0.00537783
0.00513953
0.00464663
0.00383693
0.00326428
0.00305673
0.00279099
0.00237371
0.00216635
0.000403357
0.000418396
0.000436498
0.000456331
0.00227093
0.00227545
0.0023781
0.00266364
0.00502413
0.00509382
0.00525501
0.00553899
0.00751604
0.00762137
0.00776354
0.00794158
0.00942395
0.00950461
0.00959697
0.00969804
0.0108402
0.0108799
0.0109185
0.0109536
0.0118696
0.0118696
0.0118623
0.011846
0.0125979
0.0125656
0.0125227
0.0124682
0.0130931
0.013038
0.01297
0.0128888
0.0134105
0.0133422
0.0132591
0.0131615
0.0135944
0.0135222
0.0134333
0.0133283
0.0136798
0.0136117
0.0135248
0.0134203
0.0136918
0.0136338
0.0135554
0.0134578
0.0136465
0.0136019
0.0135363
0.0134507
0.0135515
0.0135206
0.0134694
0.0133987
0.0134091
0.0133879
0.0133493
0.0132935
0.0132188
0.0131991
0.0131671
0.0131223
0.012983
0.0129518
0.0129154
0.0128733
0.0127111
0.0126518
0.0125958
0.0125425
0.012424
0.0123184
0.0122242
0.0121421
0.0121551
0.011986
0.0118352
0.0117045
0.0119478
0.0117026
0.0114798
0.0112825
0.0118502
0.0115225
0.0112181
0.0109411
0.0119082
0.011498
0.011109
0.0107458
0.0121593
0.0116724
0.0112017
0.0107521
0.0126298
0.0120764
0.0115315
0.0110003
0.0133321
0.0127269
0.0121199
0.0115164
0.0142614
0.0136248
0.0129735
0.0123128
0.01539
0.0147495
0.0140796
0.0133854
0.0166609
0.0160498
0.0153951
0.0147017
0.0179841
0.0174357
0.0168342
0.0161819
0.0191888
0.0187364
0.0182276
0.0176631
0.020124
0.0197871
0.0193915
0.0189351
0.0206392
0.0204206
0.0201431
0.0198044
0.0205908
0.0204751
0.0203045
0.0200752
0.0198351
0.0197789
0.0196762
0.0195218
0.0181474
0.0181137
0.0180449
0.0179364
0.0152265
0.0151577
0.0150858
0.0150103
0.0113658
0.0112582
0.0111726
0.0111121
0.00740101
0.0072856
0.00719812
0.00714305
0.00416611
0.00406496
0.00398419
0.00392714
0.00215353
0.00205827
0.00191902
0.00178263
0.00152199
0.00384011
0.00526605
0.00607559
0.00647354
0.00659249
0.00651771
0.00630149
0.00599437
0.00562712
0.00521534
0.00476439
0.0042737
0.00373984
0.00315815
0.00252277
0.00182392
0.0010393
0.000182678
0.00367828
0.00538221
0.00654949
0.00722871
0.00753967
0.00758329
0.0074221
0.00712162
0.00672867
0.00627362
0.00577323
0.00523449
0.00465844
0.00404319
0.00338552
0.00268083
0.00192006
0.00108154
0.000187852
0.00608858
0.00712298
0.00788979
0.00833144
0.00848845
0.00840831
0.00815059
0.00776729
0.00729765
0.00676865
0.00619624
0.00558783
0.00494532
0.00426769
0.0035524
0.00279521
0.00198731
0.0011088
0.00019184
0.00821935
0.00873974
0.00913465
0.00932101
0.00929303
0.00908381
0.00873135
0.00827229
0.00773712
0.00714811
0.00651907
0.00585678
0.00516322
0.00443758
0.00367748
0.00287872
0.00203314
0.00112444
0.000195043
0.00983192
0.0100367
0.0101507
0.0101213
0.00993894
0.00961838
0.00918377
0.00866108
0.00807334
0.00743801
0.00676621
0.00606345
0.00533118
0.0045684
0.00377262
0.00293983
0.00206312
0.00113144
0.000197765
0.0109821
0.0109906
0.0109176
0.0107341
0.0104337
0.0100255
0.00952605
0.00895428
0.00832735
0.00765846
0.00695598
0.00622382
0.00546263
0.00467102
0.00384638
0.00298507
0.00208199
0.0011325
0.00020022
0.0117966
0.0116741
0.0114742
0.0111823
0.0107963
0.0103239
0.00977737
0.00917093
0.00851726
0.00782595
0.00710279
0.00635012
0.0055677
0.0047537
0.00390543
0.00301979
0.00209381
0.00112991
0.00020255
0.0123619
0.0121496
0.0118632
0.0114968
0.0110518
0.0105353
0.00995752
0.00932901
0.00865908
0.00795436
0.00721842
0.00645215
0.00565443
0.004823
0.00395516
0.00304837
0.00210189
0.0011255
0.000204844
0.0127425
0.0124696
0.0121256
0.01171
0.0112265
0.0106822
0.0100856
0.00944493
0.0087668
0.00805543
0.00731257
0.0065378
0.00572923
0.00488418
0.00399987
0.00307428
0.00210878
0.00112059
0.000207152
0.0129895
0.0126782
0.0122981
0.0118519
0.0113452
0.0107851
0.0101789
0.00953305
0.00885228
0.0081389
0.00739312
0.00661344
0.00579724
0.00494138
0.00404292
0.00310018
0.00211641
0.00111612
0.0002095
0.0131428
0.0128107
0.0124109
0.0119482
0.0114293
0.0108616
0.0102518
0.00960524
0.00892518
0.00821256
0.00746636
0.00668412
0.00586249
0.00499785
0.00408691
0.00312811
0.00212625
0.00111282
0.000211899
0.0132317
0.0128936
0.0124872
0.0120185
0.0114954
0.0109255
0.0103157
0.00967074
0.00899301
0.00828248
0.00753717
0.00675376
0.00592816
0.00505612
0.00413387
0.00315966
0.00213947
0.00111126
0.000214355
0.0132752
0.0129435
0.0125417
0.0120759
0.0115547
0.0109865
0.0103787
0.0097363
0.0090613
0.00835319
0.00760926
0.00682538
0.0059967
0.00511821
0.00418544
0.00319616
0.00215704
0.00111198
0.000216873
0.0132814
0.0129674
0.0125808
0.0121265
0.0116132
0.0110502
0.010446
0.00980634
0.00913388
0.00842795
0.00768539
0.00690134
0.00607012
0.0051858
0.00424299
0.00323871
0.00217983
0.00111546
0.000219463
0.013248
0.0129621
0.0126018
0.012169
0.011671
0.0111178
0.0105194
0.00988326
0.00921314
0.00850902
0.00776763
0.00698351
0.00615006
0.00526032
0.00430775
0.00328831
0.00220861
0.00112219
0.000222142
0.0131638
0.0129149
0.0125931
0.0121942
0.0117222
0.0111864
0.0105983
0.00996749
0.00930022
0.00859783
0.00785749
0.00707335
0.00623791
0.00534299
0.00438075
0.00334582
0.00224408
0.0011326
0.00022494
0.0130117
0.0128052
0.0125342
0.0121848
0.011754
0.0112479
0.0106781
0.0100574
0.00939503
0.00869506
0.00795597
0.00717199
0.00633477
0.00543486
0.0044629
0.00341194
0.00228677
0.00114711
0.000227897
0.0127734
0.0126084
0.0123978
0.0121153
0.0117458
0.0112878
0.0107505
0.0101487
0.00949605
0.00880065
0.00806369
0.00728027
0.00644156
0.00553676
0.00455486
0.00348719
0.00233709
0.00116607
0.000231066
0.0124373
0.0123023
0.0121543
0.0119538
0.0116692
0.0112846
0.0108014
0.0102338
0.00959984
0.00891359
0.00818076
0.00739877
0.00655893
0.00564932
0.00465714
0.00357188
0.00239525
0.00118972
0.00023451
0.0120077
0.0118769
0.0117797
0.0116672
0.0114892
0.0112082
0.0108091
0.0102996
0.00970001
0.00903145
0.00830673
0.00752776
0.00668738
0.00577298
0.00477005
0.00366616
0.00246129
0.0012182
0.000238289
0.0115126
0.0113457
0.0112677
0.0112306
0.0111698
0.0110216
0.0107437
0.0103262
0.00978573
0.0091496
0.00844023
0.00766723
0.00682723
0.00590804
0.00489375
0.00377005
0.00253516
0.00125157
0.000242459
0.0110047
0.0107521
0.0106416
0.0106408
0.0106842
0.0106854
0.0105664
0.0102843
0.00983937
0.00925963
0.00857829
0.00781661
0.00697865
0.00605475
0.00502837
0.00388352
0.0026168
0.00128986
0.00024706
0.0105548
0.0101667
0.00995982
0.00992999
0.0100304
0.0101692
0.010234
0.0101345
0.0098337
0.00934705
0.00871514
0.00797445
0.00714166
0.00621332
0.00517398
0.00400655
0.00270618
0.00133321
0.000252111
0.010237
0.00967426
0.00930952
0.0091708
0.00924736
0.00946917
0.00971013
0.00982931
0.00972947
0.0093879
0.00883992
0.00813743
0.00731592
0.00638403
0.00533075
0.00413913
0.00280338
0.00138193
0.000257608
0.0101153
0.00935457
0.00878736
0.0084667
0.00842156
0.00862836
0.00898541
0.00932442
0.00947596
0.00934509
0.00893327
0.00829859
0.00750019
0.00656726
0.00549898
0.00428127
0.00290841
0.00143648
0.000263518
0.0102356
0.00926851
0.00847708
0.00792703
0.00767463
0.00774733
0.00810408
0.00860124
0.00901996
0.00916652
0.00896259
0.00844412
0.00769121
0.00676333
0.00567934
0.00443306
0.00302105
0.00149722
0.000269781
0.0106279
0.00945567
0.00843666
0.00764023
0.00713098
0.00696834
0.00717958
0.00770004
0.00832969
0.00879103
0.00887794
0.00854848
0.00788117
0.00697198
0.00587298
0.00459488
0.00314066
0.00156372
0.000276309
0.0113104
0.00994103
0.00870064
0.00766171
0.0068846
0.00643314
0.00637613
0.00674319
0.00743422
0.00817086
0.00861362
0.00856833
0.00805334
0.00719086
0.00608155
0.00476776
0.0032664
0.0016343
0.000282995
0.0122903
0.0107429
0.00929258
0.00802196
0.00698794
0.00624139
0.00585425
0.00591578
0.00645667
0.00731529
0.00810614
0.00843958
0.00817535
0.00741227
0.00630652
0.00495378
0.00339802
0.00170644
0.000289744
0.0135539
0.0118721
0.0102362
0.00874611
0.00746788
0.00644178
0.00571967
0.00539845
0.00559849
0.00633561
0.00733762
0.00808749
0.00819233
0.00761723
0.00654739
0.00515604
0.0035367
0.00177823
0.000296509
0.0150459
0.0133154
0.0115516
0.00986854
0.00835462
0.00705857
0.00601804
0.00530571
0.00506203
0.00543957
0.0063907
0.00746302
0.00802733
0.00776712
0.00679779
0.00537754
0.00368519
0.001849
0.000303348
0.0166435
0.015004
0.0132221
0.0114187
0.00969712
0.00813034
0.00677248
0.00568304
0.00497611
0.00485011
0.00546068
0.00660187
0.00760307
0.00779601
0.00704034
0.0056247
0.00385114
0.0019232
0.000310323
0.0180891
0.0167262
0.0151315
0.0133554
0.0115209
0.00971702
0.00802705
0.00655111
0.00538939
0.00471603
0.0047828
0.00566094
0.00689506
0.00761858
0.00723874
0.00589473
0.00403825
0.00200386
0.000317329
0.0191632
0.0181492
0.0168862
0.01539
0.0136921
0.0118083
0.00982875
0.00794678
0.00631103
0.00509365
0.00453088
0.00487249
0.00599845
0.00717255
0.00732879
0.00617478
0.00424927
0.00209211
0.000324528
0.0196283
0.0189608
0.0180792
0.0169651
0.0156064
0.0139761
0.0120489
0.00988353
0.00774296
0.00597665
0.00478192
0.00444802
0.00513944
0.00647971
0.00723759
0.00643767
0.00448402
0.0021885
0.00033211
0.0191989
0.0187637
0.0181771
0.0174269
0.0165031
0.015355
0.0138593
0.0118816
0.00955098
0.00732128
0.00553808
0.00449453
0.00453734
0.00567514
0.00691991
0.00664154
0.00473758
0.00229268
0.000340302
0.017686
0.0173853
0.0170026
0.0165192
0.0159178
0.0151665
0.0141797
0.012801
0.0109349
0.00874363
0.00662084
0.00497186
0.00430291
0.0049514
0.00640513
0.00674304
0.00500083
0.0024037
0.00034943
0.0148671
0.0147486
0.0146126
0.0144201
0.0141275
0.0136842
0.0130453
0.0121519
0.0109786
0.00948368
0.00761788
0.00569722
0.00441196
0.00444966
0.00580751
0.00672729
0.00526743
0.0025222
0.000360083
0.0110533
0.0110913
0.0111824
0.0112806
0.0113282
0.0112597
0.0110093
0.0105603
0.00991853
0.00912703
0.0079998
0.00635215
0.0047262
0.00419275
0.00527146
0.00664252
0.00555162
0.00265778
0.000373449
0.00712556
0.0072074
0.00737211
0.00759343
0.00783136
0.00803514
0.00814849
0.00815091
0.00807045
0.00795032
0.00762823
0.00665351
0.00505424
0.00409951
0.00489627
0.00661343
0.00591875
0.00284988
0.000392018
0.00391535
0.00395395
0.00405343
0.00418386
0.00437025
0.00462467
0.00490877
0.00522455
0.00562613
0.00627304
0.00682438
0.00667335
0.00529933
0.0040244
0.00470846
0.00683443
0.00652971
0.00323681
0.000421434
0.00164456
0.00171089
0.00179561
0.00170886
0.00174882
0.00204859
0.00253139
0.0029554
0.00355032
0.00459412
0.00545119
0.00570923
0.00475375
0.00397678
0.00523908
0.00777008
0.0077236
0.00446591
0.000476116
)
;

boundaryField
{
    leftWall
    {
        type            nutkWallFunction;
        Cmu             0.09;
        kappa           0.41;
        E               9.8;
        value           nonuniform List<scalar> 
50
(
2.85861e-05
3.85434e-05
4.41117e-05
4.80612e-05
5.08423e-05
5.27453e-05
5.15362e-05
5.22313e-05
5.50749e-05
5.82964e-05
6.32497e-05
7.41079e-05
7.57613e-05
7.33547e-05
6.3005e-05
6.16428e-05
6.29842e-05
6.40204e-05
6.47187e-05
6.51798e-05
6.54887e-05
6.57445e-05
6.60812e-05
6.65266e-05
6.87748e-05
8.11831e-05
7.09141e-05
6.74156e-05
6.73509e-05
6.73577e-05
6.7291e-05
6.71715e-05
6.70647e-05
6.68847e-05
6.66925e-05
6.64865e-05
6.55903e-05
6.38945e-05
6.18734e-05
5.94347e-05
5.64836e-05
5.32234e-05
4.98716e-05
4.6618e-05
4.36013e-05
4.08801e-05
3.84839e-05
3.65366e-05
3.60502e-05
3.94276e-05
)
;
    }
    rightWall
    {
        type            nutkWallFunction;
        Cmu             0.09;
        kappa           0.41;
        E               9.8;
        value           nonuniform List<scalar> 
50
(
8.91329e-06
9.96048e-06
1.15214e-05
1.30797e-05
1.43336e-05
1.53384e-05
1.61209e-05
1.67738e-05
1.74797e-05
1.82235e-05
1.87951e-05
1.92535e-05
1.96429e-05
1.99939e-05
2.03266e-05
2.06535e-05
2.09815e-05
2.13139e-05
2.16522e-05
2.19968e-05
2.23482e-05
2.27073e-05
2.3076e-05
2.34578e-05
2.38579e-05
2.42833e-05
2.47423e-05
2.52436e-05
2.57951e-05
2.64033e-05
2.70719e-05
2.78011e-05
2.8588e-05
2.9426e-05
3.03047e-05
3.12116e-05
3.21338e-05
3.30629e-05
3.40004e-05
3.49294e-05
3.58519e-05
3.67892e-05
3.77697e-05
3.88309e-05
4.00284e-05
4.14573e-05
4.32917e-05
4.58639e-05
4.98621e-05
5.68887e-05
)
;
    }
    lowerWall
    {
        type            nutkWallFunction;
        Cmu             0.09;
        kappa           0.41;
        E               9.8;
        value           nonuniform List<scalar> 
62
(
8.63214e-06
1.07405e-05
1.08788e-05
1.08907e-05
1.12581e-05
1.17092e-05
1.21826e-05
1.27009e-05
1.31502e-05
1.35668e-05
1.39785e-05
1.43997e-05
1.48347e-05
1.52822e-05
1.57475e-05
1.64842e-05
1.70225e-05
1.69748e-05
1.61448e-05
1.44034e-05
1.21466e-05
9.08031e-06
4.19855e-06
4.19855e-06
2.8832e-05
3.11928e-05
3.12602e-05
2.99949e-05
2.85806e-05
2.73086e-05
2.84514e-05
4.7797e-05
4.9739e-05
5.20713e-05
5.46166e-05
0
1.89129e-05
2.54062e-05
3.10765e-05
3.55919e-05
3.97782e-05
4.41381e-05
4.99709e-05
0
1.09317e-06
2.53478e-06
3.36458e-06
3.81368e-06
4.06085e-06
4.16546e-06
4.19798e-06
4.13515e-06
3.97722e-06
3.73589e-06
3.40871e-06
2.98484e-06
2.44416e-06
1.75117e-06
8.39653e-07
5.34656e-08
0
0
)
;
    }
    atmosphere
    {
        type            calculated;
        value           nonuniform List<scalar> 
46
(
0.009
0.009
0.00449827
0.009
0.00704681
0.009
0.00851434
0.00870521
0.009
0.009
0.007971
0.00741936
0.009
0.009
0.009
0.00513953
0.009
0.009
0.009
0.00305673
0.00279099
0.009
0.009
0.009
0.009
0.009
0.00178263
0.00164456
0.009
0.00179561
0.009
0.009
0.00204859
0.009
0.009
0.009
0.00459412
0.00545119
0.00570923
0.00475375
0.00397678
0.00523908
0.009
0.009
0.009
0.009
)
;
    }
    defaultFaces
    {
        type            empty;
    }
}


// ************************************************************************* //
