/*--------------------------------*- C++ -*----------------------------------*\
  =========                 |
  \\      /  F ield         | OpenFOAM: The Open Source CFD Toolbox
   \\    /   O peration     | Website:  https://openfoam.org
    \\  /    A nd           | Version:  9
     \\/     M anipulation  |
\*---------------------------------------------------------------------------*/
FoamFile
{
    format      ascii;
    class       volScalarField;
    location    "0.4";
    object      p;
}
// * * * * * * * * * * * * * * * * * * * * * * * * * * * * * * * * * * * * * //

dimensions      [1 -1 -2 0 0 0 0];

internalField   nonuniform List<scalar> 
2268
(
-1.19269
-1.28539
-1.35568
-1.40752
-1.45478
-1.49832
-1.53884
-1.57644
-1.61142
-1.64505
-1.67847
-1.71298
-1.75018
-1.79255
-1.84351
-1.90744
-1.98809
-2.08465
-2.1859
-2.26104
-2.27914
-2.23616
-2.18499
-1.12219
-1.22734
-1.29629
-1.34531
-1.39407
-1.43959
-1.4823
-1.52153
-1.55847
-1.59416
-1.62978
-1.66668
-1.70656
-1.75182
-1.8057
-1.87202
-1.95406
-2.05039
-2.14973
-2.22773
-2.24009
-2.18459
-2.11961
-1.07781
-1.17682
-1.23944
-1.28475
-1.33362
-1.38081
-1.42538
-1.4668
-1.50588
-1.54371
-1.58152
-1.62073
-1.66303
-1.71071
-1.76664
-1.83413
-1.91598
-2.01054
-2.10683
-2.18132
-2.19831
-2.1449
-2.07115
-1.06272
-1.13157
-1.18379
-1.22611
-1.27426
-1.32266
-1.36869
-1.41184
-1.45268
-1.49224
-1.53178
-1.57268
-1.61659
-1.66562
-1.72235
-1.78971
-1.87027
-1.96261
-2.05708
-2.13056
-2.15212
-2.10546
-2.03011
-1.07094
-1.08272
-1.1249
-1.1675
-1.21538
-1.26486
-1.31209
-1.35659
-1.39882
-1.43977
-1.48065
-1.52281
-1.56777
-1.61745
-1.67416
-1.74048
-1.81873
-1.90812
-2.00029
-2.07296
-2.0967
-2.05519
-1.98086
-1.09127
-1.01973
-1.05832
-1.10724
-1.15641
-1.20722
-1.25553
-1.30113
-1.3445
-1.3866
-1.42859
-1.47173
-1.51744
-1.56739
-1.62359
-1.68821
-1.76316
-1.84806
-1.93622
-2.00643
-2.02802
-1.98764
-1.92043
-0.863401
-0.945464
-0.983469
-1.04467
-1.09713
-1.14961
-1.19897
-1.24547
-1.28979
-1.33287
-1.3758
-1.41975
-1.46599
-1.51597
-1.57135
-1.63383
-1.7047
-1.78362
-1.86551
-1.93098
-1.94737
-1.90445
-1.85257
-0.736454
-0.866318
-0.907667
-0.98082
-1.038
-1.09225
-1.14253
-1.18972
-1.23476
-1.27862
-1.32233
-1.36694
-1.41355
-1.46339
-1.51776
-1.57786
-1.64434
-1.71664
-1.79088
-1.84995
-1.86084
-1.81953
-1.7868
-1.9538
-1.96923
-1.982
-2.00087
-2.0189
-2.03382
-2.04513
-2.05323
-2.05897
-2.06318
-2.06653
-2.06955
-2.07263
-2.07613
-2.08029
-2.08503
-2.09033
-2.09516
-2.09787
-1.89449
-1.90788
-1.91812
-1.93822
-1.95808
-1.97455
-1.98689
-1.99575
-2.00204
-2.00668
-2.01033
-2.01353
-2.01668
-2.02013
-2.02409
-2.02856
-2.03325
-2.03719
-2.0393
-1.83223
-1.8461
-1.85669
-1.87745
-1.89833
-1.91588
-1.92921
-1.93885
-1.94576
-1.95082
-1.95473
-1.95804
-1.96115
-1.96439
-1.96796
-1.97185
-1.97571
-1.97891
-1.98107
-1.76778
-1.78554
-1.79875
-1.81949
-1.8406
-1.85853
-1.87235
-1.88249
-1.88981
-1.89515
-1.89918
-1.90246
-1.90541
-1.90835
-1.91146
-1.91475
-1.91799
-1.9207
-1.92306
-1.70392
-1.72651
-1.74405
-1.76415
-1.78482
-1.80249
-1.81633
-1.82662
-1.83411
-1.83953
-1.84355
-1.84671
-1.84942
-1.852
-1.85465
-1.85741
-1.86017
-1.86262
-1.86529
-1.64412
-1.66958
-1.69242
-1.71111
-1.73074
-1.74766
-1.76113
-1.77129
-1.77873
-1.78408
-1.78797
-1.79092
-1.79334
-1.79554
-1.79775
-1.80006
-1.80244
-1.80475
-1.80775
-1.59417
-1.61736
-1.6443
-1.66038
-1.67823
-1.69396
-1.70674
-1.71652
-1.72372
-1.72887
-1.73254
-1.73521
-1.7373
-1.73912
-1.74092
-1.74282
-1.74489
-1.74712
-1.75043
-1.56403
-1.57962
-1.60054
-1.61226
-1.62731
-1.64133
-1.65309
-1.66225
-1.66903
-1.67385
-1.67721
-1.67955
-1.68129
-1.68273
-1.68414
-1.68569
-1.68751
-1.68973
-1.6933
-0.614078
-0.744752
-0.798555
-0.882417
-0.947811
-1.00437
-1.05547
-1.10314
-1.14875
-1.19336
-1.23786
-1.28311
-1.32992
-1.37914
-1.4316
-1.48783
-1.54771
-1.61044
-1.67288
-1.72167
-1.73035
-1.69294
-1.66243
-0.40444
-0.615335
-0.678974
-0.77078
-0.838451
-0.893445
-0.942378
-0.988483
-1.03337
-1.078
-1.12297
-1.16874
-1.21573
-1.26431
-1.31478
-1.36708
-1.42046
-1.47329
-1.52193
-1.55768
-1.56884
-1.55621
-1.53757
-0.268479
-0.544702
-0.6131
-0.692354
-0.746537
-0.791308
-0.833549
-0.875718
-0.918659
-0.962652
-1.00775
-1.05389
-1.10103
-1.14908
-1.1979
-1.24704
-1.29549
-1.34151
-1.38181
-1.41068
-1.42289
-1.42081
-1.41342
-0.334905
-0.593723
-0.633888
-0.651966
-0.669078
-0.69387
-0.72575
-0.762873
-0.803712
-0.847181
-0.892537
-0.939189
-0.986613
-1.03434
-1.0819
-1.1286
-1.17336
-1.21455
-1.24963
-1.27515
-1.28865
-1.29159
-1.28815
-0.679676
-0.773413
-0.682391
-0.605097
-0.579945
-0.586698
-0.61132
-0.64613
-0.686866
-0.731141
-0.777553
-0.825179
-0.873219
-0.920948
-0.967677
-1.01264
-1.05481
-1.09279
-1.12472
-1.14856
-1.1631
-1.16917
-1.16881
-1.10617
-0.711593
-0.545231
-0.451817
-0.436538
-0.451627
-0.482744
-0.52261
-0.567282
-0.61462
-0.663342
-0.712598
-0.761641
-0.809687
-0.855984
-0.899769
-0.940154
-0.976016
-1.00602
-1.0289
-1.04404
-1.05196
-1.05388
-0.282853
-0.0580565
-0.0838489
-0.166847
-0.237288
-0.291878
-0.343452
-0.395033
-0.446999
-0.499202
-0.55124
-0.60265
-0.652956
-0.701518
-0.747637
-0.790626
-0.829755
-0.864165
-0.892913
-0.915202
-0.930707
-0.939825
-0.943516
-0.849361
0.547771
0.249801
0.057001
-0.0594208
-0.141139
-0.209413
-0.271584
-0.330607
-0.387724
-0.443211
-0.496898
-0.548503
-0.597602
-0.64362
-0.685988
-0.724137
-0.757444
-0.785262
-0.807091
-0.822778
-0.832704
-0.837768
-0.044811
0.348082
0.308407
0.164826
0.0625365
-0.0192408
-0.0917601
-0.158748
-0.22212
-0.282846
-0.341145
-0.396833
-0.449601
-0.499134
-0.545003
-0.586764
-0.624012
-0.656329
-0.683296
-0.704623
-0.720273
-0.730654
-0.736667
0.261822
0.24755
0.332409
0.230982
0.152159
0.0797778
0.00971103
-0.0579614
-0.123233
-0.186123
-0.246386
-0.303609
-0.357317
-0.407141
-0.452761
-0.493853
-0.530165
-0.561456
-0.587495
-0.608148
-0.623471
-0.633915
-0.640398
0.62389
0.301902
0.393803
0.301113
0.232164
0.16609
0.098939
0.0318815
-0.0340687
-0.0981801
-0.159732
-0.218038
-0.272434
-0.322405
-0.367664
-0.408003
-0.443298
-0.473463
-0.49842
-0.518157
-0.532814
-0.542884
-0.549315
0.93027
0.382399
0.45992
0.372143
0.307126
0.243849
0.178443
0.111972
0.045723
-0.0191478
-0.0815743
-0.14063
-0.195482
-0.245451
-0.29023
-0.329724
-0.363911
-0.392835
-0.416537
-0.435106
-0.44875
-0.458008
-0.463866
1.1872
0.459762
0.522242
0.441045
0.377542
0.314611
0.24955
0.183163
0.116577
0.0511023
-0.0119851
-0.0715832
-0.126708
-0.176539
-0.220728
-0.259267
-0.292243
-0.319803
-0.342089
-0.35926
-0.371583
-0.379641
-0.384459
1.52144
0.535673
0.583111
0.509107
0.444929
0.379897
0.313418
0.246197
0.178935
0.112806
0.0491314
-0.0108854
-0.0661422
-0.115721
-0.159213
-0.196674
-0.22831
-0.254367
-0.275071
-0.290641
-0.301388
-0.307932
-0.311333
2.20942
0.595577
0.641541
0.57688
0.509836
0.440543
0.370919
0.301709
0.233204
0.166224
0.101945
0.0415776
-0.0137076
-0.0629322
-0.105629
-0.141884
-0.172031
-0.196409
-0.215338
-0.229099
-0.238043
-0.24282
-0.2445
3.25599
0.678359
0.716142
0.648601
0.571643
0.49579
0.421882
0.349902
0.279734
0.211718
0.146779
0.0860774
0.0308119
-0.0180091
-0.059856
-0.094828
-0.123351
-0.145858
-0.162777
-0.174482
-0.181378
-0.184135
-0.183807
2.62159
0.642469
0.882945
0.725555
0.624219
0.541885
0.464557
0.3904
0.318856
0.249892
0.184284
0.123217
0.0679272
0.0194486
-0.0216197
-0.0553585
-0.082222
-0.102719
-0.117401
-0.126772
-0.13133
-0.131769
-0.129099
1.97969
0.572798
0.876572
0.727724
0.64539
0.571884
0.497151
0.423507
0.351647
0.282031
0.215741
0.154172
0.0986678
0.0503011
0.00973722
-0.0230246
-0.048389
-0.0669087
-0.0792421
-0.0860538
-0.0879833
-0.0857725
-0.0803848
0.457888
0.559075
0.804472
0.709461
0.657013
0.595545
0.525383
0.453118
0.381114
0.31068
0.243388
0.180928
0.124782
0.0760665
0.0355054
0.00321774
-0.0210807
-0.0379349
-0.0480637
-0.0522837
-0.0514117
-0.0462829
-0.0378455
-0.539388
0.753381
0.871681
0.740929
0.685898
0.626169
0.557101
0.484619
0.411484
0.339431
0.270396
0.206313
0.148782
0.0989714
0.0576576
0.025104
0.00115571
-0.0146686
-0.0230796
-0.0250005
-0.0214213
-0.0133106
-0.00165163
-1.73358
0.622158
0.931482
0.777427
0.723589
0.665222
0.596133
0.5224
0.44711
0.372418
0.300616
0.233853
0.173851
0.12186
0.0787414
0.0449156
0.020329
0.0045918
-0.00294091
-0.00322998
0.00260229
0.0134451
0.0282553
-1.05863
0.703276
0.979509
0.824072
0.77401
0.716541
0.646879
0.57116
0.492738
0.41427
0.338443
0.267635
0.203715
0.148073
0.101719
0.065262
0.0387275
0.0218361
0.0140173
0.0143323
0.021587
0.034567
0.0522006
0.0343265
0.850376
1.04777
0.896866
0.844407
0.785657
0.714707
0.636292
0.553747
0.470222
0.388833
0.312265
0.242602
0.181435
0.129974
0.0890469
0.0588355
0.0391775
0.0295622
0.0291024
0.0365809
0.0507539
0.0706042
0.749721
0.968129
1.1174
0.97984
0.930897
0.874823
0.804401
0.723565
0.636207
0.546248
0.457444
0.372972
0.295295
0.226302
0.167427
0.119708
0.0835814
0.0590478
0.0456804
0.0426528
0.0487503
0.0627781
0.0838658
0.482815
1.02547
1.18182
1.06334
1.03131
0.987388
0.921863
0.839925
0.747262
0.649263
0.550781
0.455766
0.367262
0.287637
0.218574
0.161294
0.116541
0.0844731
0.0648713
0.0569831
0.0596109
0.0716718
0.092512
0.0174231
1.00336
1.24342
1.1468
1.15073
1.13127
1.07612
0.994363
0.895373
0.78704
0.675984
0.56724
0.46455
0.370928
0.288389
0.218311
0.161696
0.118998
0.0901812
0.0746174
0.0711632
0.0789014
0.0974368
-0.43892
0.893158
1.27146
1.22625
1.29709
1.31868
1.27961
1.19807
1.08997
0.967524
0.840022
0.713805
0.593224
0.481736
0.381946
0.295357
0.223234
0.166383
0.124943
0.0984121
0.0857614
0.0863036
0.0999056
-0.703876
0.402399
1.12651
1.2651
1.47344
1.56527
1.54725
1.46382
1.34093
1.19815
1.04887
0.900806
0.758287
0.624797
0.50354
0.396366
0.304767
0.230082
0.172407
0.131286
0.105912
0.0959159
0.101356
0.807847
-1.497
0.576596
1.30233
1.74057
1.91318
1.9064
1.80575
1.65701
1.48464
1.30666
1.13203
0.963606
0.803944
0.656674
0.524375
0.40896
0.312665
0.235149
0.175724
0.133928
0.109722
0.103266
21.4499
-1.5315
0.744823
1.75263
2.29958
2.45878
2.38691
2.23071
2.03809
1.82501
1.61153
1.40675
1.2099
1.02074
0.843397
0.681507
0.538165
0.416807
0.315603
0.233804
0.171432
0.128995
0.106796
90.9733
16.0433
4.83377
3.07301
3.27708
3.2417
2.99519
2.72807
2.4649
2.1988
1.94801
1.71451
1.48979
1.27049
1.06234
0.870481
0.695915
0.542711
0.413454
0.306722
0.220075
0.154762
0.111961
259.496
86.2912
16.9934
5.90665
4.45927
4.07096
3.65918
3.27075
2.92005
2.57419
2.29302
2.04044
1.79078
1.5389
1.30014
1.08387
0.880473
0.691264
0.525681
0.389497
0.278385
0.186515
0.117249
514.998
337.496
78.3042
15.1367
5.68405
4.39419
4.06319
3.74164
3.38124
2.95122
2.67405
2.42072
2.14736
1.83766
1.54599
1.30596
1.08028
0.85893
0.650107
0.476819
0.337618
0.217501
0.116881
804.985
704.242
348.173
89.1562
15.418
5.2599
3.95567
3.45759
3.04934
3.13451
3.08437
2.92876
2.65207
2.26501
1.87518
1.59291
1.34043
1.08723
0.799672
0.56547
0.393603
0.245426
0.108131
1113.57
1087.15
802.775
450.266
190.195
65.4034
27.1974
10.9043
3.04118
2.62135
2.56828
2.51965
2.13116
2.1453
2.18103
2.03636
1.77001
1.5067
1.08544
0.738863
0.516935
0.334871
0.137749
1435.07
1454.15
1267.66
985.425
710.691
482.53
307.141
178.531
89.3591
32.0908
8.69894
-1.02711
-4.79306
-0.278418
1.11389
1.39857
1.03023
0.891472
1.09037
1.04886
0.886535
0.713055
0.574273
1767.27
1804.34
1681.71
1454.7
1206.07
974.275
773.687
609.631
473.548
346.605
228.702
132.99
61.7106
9.58418
-6.17823
-8.60776
-10.0108
-10.2778
-1.17465
-0.184614
-0.00216719
-0.274147
-0.824454
2113.09
2141.01
2042.26
1846.21
1608.98
1378.84
1175.61
1018.63
899.743
777.501
639.298
515.197
415.182
311.293
208.502
125.509
57.7966
-2.30447
-21.573
-19.803
-16.8794
-15.5594
-18.3505
2488.59
2477.16
2354.21
2174.53
1936.91
1713.73
1498.46
1359.89
1299.44
1201.09
1033.24
897.287
827.106
732.217
575.564
431.162
326.174
195.49
69.8773
-6.06991
-33.5226
-29.404
-0.0229593
2937.25
2835.63
2595.08
2441.07
2172.86
1991.7
1723.74
1607.45
1710.57
1673.3
1388.61
1209.13
1252.26
1204.7
930.516
706.945
640.549
447.52
214.173
75.2122
35.3834
73.5096
185.548
3557.89
3273.01
2658.83
2699.74
2244.78
2307.22
1769.87
1641.39
2232.15
2347.27
1643.99
1348.51
1798.75
1890.02
1239.33
859.957
1068.8
700.228
279.204
69.7026
27.4043
99.0465
330.237
4511.9
3931.62
1834.7
3344.81
1510.23
3175.34
1049.54
1009.1
3476.21
3496.34
1008.1
878.588
2977.07
2973.11
832.868
618.319
2149.15
623.392
210.944
135.963
137.69
166.188
246.412
-1.70302
-1.74552
-1.80731
-1.82446
-1.53244
-1.53161
-1.52986
-1.51839
-1.41431
-1.41568
-1.41209
-1.40033
-1.28898
-1.29171
-1.29338
-1.2914
-1.17204
-1.17657
-1.18075
-1.18288
-1.05945
-1.06601
-1.0726
-1.07747
-0.951338
-0.959812
-0.968488
-0.975453
-0.847528
-0.85767
-0.868109
-0.876763
-0.747962
-0.75949
-0.771401
-0.781449
-0.65275
-0.665339
-0.678429
-0.689614
-0.562194
-0.575465
-0.589397
-0.601436
-0.476721
-0.490256
-0.504634
-0.517181
-0.396781
-0.410154
-0.424535
-0.43718
-0.322701
-0.335528
-0.349469
-0.361767
-0.254588
-0.266556
-0.279669
-0.291203
-0.192334
-0.203201
-0.215188
-0.22563
-0.135764
-0.14532
-0.155967
-0.1651
-0.0848442
-0.0928659
-0.101995
-0.10968
-0.0397744
-0.0460317
-0.0534563
-0.0595625
-0.000847387
-0.00516517
-0.0107046
-0.0150795
0.031813
0.0294838
0.0259306
0.0234046
0.0583644
0.0579149
0.0562826
0.0555712
0.0790616
0.0802251
0.080245
0.08109
0.09404
0.0963569
0.0975567
0.0994994
0.103415
0.106154
0.107835
0.110264
0.107611
0.109712
0.110886
0.113015
0.107436
0.107516
0.106845
0.107652
0.103808
0.100127
0.0958663
0.0940558
0.09753
0.0878475
0.0776943
0.0715735
0.0893467
0.0709227
0.051838
0.0389643
0.0790019
0.0490563
0.0178057
-0.00514214
0.0647463
0.0206646
-0.0261785
-0.0634752
0.0404001
-0.0204219
-0.0842382
-0.136934
0.0102212
-0.061271
-0.136585
-0.20721
-0.0741419
-0.18915
-0.279087
-0.337397
0.516066
0.447181
0.350296
0.222203
-1.35248
-1.36337
-1.18326
-0.991788
-15.5878
-13.2709
-10.0583
-6.8857
10.6585
24.3605
39.0477
45.4376
278.184
321.329
332.454
305.527
601.834
724.22
724.829
598.581
1082.64
1265.02
1167.61
696.448
-1.62763
-1.55062
-1.5375
-1.54025
-1.54968
-1.56034
-1.57
-1.57779
-1.58364
-1.58775
-1.5905
-1.59227
-1.59344
-1.59433
-1.59523
-1.59637
-1.59796
-1.60032
-1.60425
-1.48078
-1.46017
-1.44478
-1.44177
-1.44581
-1.45227
-1.45877
-1.46429
-1.46845
-1.47126
-1.47294
-1.4738
-1.47417
-1.47437
-1.4747
-1.47547
-1.47694
-1.47953
-1.48391
-1.3755
-1.36021
-1.34801
-1.34307
-1.34339
-1.34621
-1.34968
-1.35278
-1.35503
-1.35632
-1.35677
-1.35659
-1.35609
-1.35557
-1.35535
-1.35577
-1.35714
-1.35985
-1.3645
-1.27985
-1.2635
-1.25129
-1.24465
-1.24211
-1.24187
-1.24255
-1.24326
-1.24351
-1.24315
-1.24221
-1.24088
-1.23941
-1.23811
-1.23729
-1.23731
-1.2385
-1.24123
-1.24601
-1.17917
-1.16546
-1.15404
-1.1464
-1.14178
-1.13906
-1.13727
-1.13569
-1.13392
-1.13179
-1.12935
-1.12674
-1.1242
-1.12202
-1.12052
-1.12006
-1.12098
-1.1236
-1.12842
-1.07807
-1.06711
-1.05683
-1.04871
-1.04258
-1.03782
-1.03381
-1.03004
-1.02624
-1.02228
-1.01821
-1.0142
-1.01046
-1.00729
-1.00499
-1.00394
-1.00447
-1.00687
-1.01163
-0.978934
-0.970011
-0.96062
-0.952178
-0.944818
-0.938277
-0.932208
-0.926326
-0.920463
-0.914586
-0.908781
-0.903223
-0.89815
-0.893844
-0.890625
-0.888856
-0.888855
-0.890907
-0.895544
-0.88244
-0.874942
-0.866095
-0.857267
-0.84876
-0.840547
-0.8325
-0.824511
-0.816541
-0.808647
-0.80097
-0.79372
-0.787155
-0.781566
-0.777277
-0.774649
-0.773988
-0.775565
-0.779991
-0.78885
-0.782284
-0.773642
-0.764274
-0.754587
-0.744708
-0.734679
-0.724541
-0.714381
-0.704346
-0.694647
-0.68554
-0.677314
-0.670275
-0.664755
-0.661119
-0.659659
-0.660634
-0.664771
-0.69835
-0.692276
-0.683501
-0.673384
-0.662398
-0.650777
-0.638691
-0.626311
-0.613838
-0.601513
-0.589622
-0.578474
-0.568399
-0.559728
-0.552809
-0.548007
-0.545605
-0.545859
-0.549626
-0.611114
-0.605097
-0.595834
-0.584706
-0.572232
-0.558719
-0.544439
-0.529673
-0.514724
-0.499929
-0.48565
-0.472258
-0.460129
-0.449629
-0.441126
-0.434993
-0.431508
-0.430926
-0.434244
-0.527344
-0.520919
-0.510772
-0.498313
-0.484094
-0.468472
-0.4518
-0.43445
-0.416822
-0.399341
-0.382449
-0.366584
-0.352174
-0.339629
-0.329343
-0.321705
-0.316995
-0.315473
-0.318262
-0.447284
-0.439938
-0.428462
-0.414292
-0.398001
-0.379983
-0.360654
-0.340467
-0.319906
-0.299483
-0.279716
-0.261115
-0.244171
-0.22934
-0.217055
-0.207727
-0.201653
-0.199092
-0.201277
-0.371213
-0.362396
-0.349101
-0.332781
-0.314025
-0.293253
-0.270934
-0.247589
-0.223782
-0.200103
-0.177152
-0.155512
-0.135742
-0.118357
-0.103833
-0.0926198
-0.0850378
-0.0813522
-0.0828619
-0.299411
-0.288571
-0.272948
-0.254001
-0.232327
-0.208373
-0.182653
-0.155754
-0.128312
-0.100998
-0.0744907
-0.0494547
-0.0265214
-0.00627372
0.0107542
0.024065
0.0333021
0.0381932
0.0374262
-0.232121
-0.218765
-0.200325
-0.178259
-0.153174
-0.125544
-0.0959353
-0.0649987
-0.0334464
-0.00203054
0.0284832
0.0573436
0.0838371
0.107303
0.127134
0.142776
0.153825
0.159999
0.160045
-0.169549
-0.153277
-0.131585
-0.105926
-0.0769177
-0.04507
-0.011007
0.0245444
0.060786
0.0968723
0.13194
0.165142
0.195669
0.222765
0.24574
0.26397
0.277003
0.284541
0.28548
-0.111887
-0.0924005
-0.0670934
-0.037405
-0.00396318
0.0326832
0.0718383
0.112681
0.154305
0.195751
0.236038
0.274203
0.309321
0.340527
0.367029
0.388137
0.403344
0.412341
0.414269
-0.059368
-0.0364333
-0.00721175
0.0268974
0.0652749
0.107333
0.152292
0.199208
0.247033
0.29466
0.34096
0.384826
0.42519
0.461056
0.491523
0.515831
0.533431
0.544008
0.547049
-0.0122985
0.0142894
0.0476824
0.0865726
0.130385
0.178507
0.230057
0.283942
0.338926
0.393703
0.446953
0.49738
0.543746
0.5849
0.619829
0.647705
0.667955
0.680276
0.684581
0.0289276
0.0593461
0.0971369
0.141152
0.190911
0.245798
0.304826
0.366708
0.429967
0.493031
0.554322
0.612308
0.665538
0.712696
0.752649
0.784516
0.807733
0.822011
0.827747
0.0638152
0.0981625
0.140531
0.190002
0.246246
0.308672
0.376184
0.44726
0.520104
0.592793
0.663404
0.730096
0.791176
0.845146
0.890759
0.92711
0.953679
0.970178
0.977512
0.0917421
0.129959
0.176989
0.232216
0.295512
0.366344
0.443502
0.525181
0.609171
0.693077
0.774513
0.851252
0.921311
0.983006
1.035
1.0764
1.10677
1.12579
1.13488
0.111968
0.153764
0.20537
0.266572
0.337502
0.417711
0.505872
0.599832
0.696845
0.793885
0.887954
0.976322
1.05667
1.12713
1.18631
1.23339
1.26806
1.28988
1.30089
0.123753
0.168523
0.224331
0.291549
0.370662
0.461335
0.562096
0.670358
0.78268
0.895199
1.0041
1.10599
1.19816
1.27855
1.34581
1.39923
1.43864
1.46352
1.47665
0.126526
0.173236
0.232404
0.305317
0.393022
0.495349
0.610627
0.735688
0.866162
0.997066
1.1235
1.24122
1.34701
1.43866
1.51492
1.5753
1.61982
1.64793
1.66339
0.119944
0.166983
0.227967
0.305635
0.402006
0.517237
0.649374
0.794409
0.946678
1.09965
1.24698
1.38333
1.50485
1.60923
1.69541
1.76326
1.8131
1.84454
1.86245
0.103636
0.14873
0.209075
0.289665
0.394189
0.523506
0.675366
0.844538
1.02344
1.20329
1.37575
1.53409
1.67377
1.79242
1.88936
1.96499
2.02017
2.05498
2.07524
0.0766478
0.116783
0.172969
0.253489
0.364792
0.509133
0.68417
0.883053
1.09529
1.30859
1.51163
1.69597
1.85646
1.99085
2.09912
2.18251
2.24279
2.28086
2.30309
0.0370241
0.0681969
0.11544
0.191392
0.306763
0.466445
0.668661
0.904796
1.16012
1.41644
1.65751
1.87264
2.05651
2.2077
2.3273
2.41791
2.48267
2.52363
2.54706
-0.0181695
-0.00127957
0.0310517
0.0964103
0.211306
0.385145
0.61837
0.901342
1.21389
1.52775
1.81772
2.06962
2.27905
2.44704
2.57688
2.6732
2.74112
2.78406
2.80813
-0.0929489
-0.0967522
-0.086142
-0.0376462
0.0719047
0.257314
0.523579
0.862833
1.25051
1.64318
1.99821
2.29503
2.53148
2.71419
2.85127
2.95037
3.01902
3.06238
3.08648
-0.186719
-0.220702
-0.242322
-0.217444
-0.115819
0.0804929
0.379674
0.779967
1.26098
1.76193
2.20641
2.55977
2.82416
3.01643
3.15435
3.25093
3.31649
3.35764
3.38117
-0.290628
-0.367533
-0.432964
-0.444128
-0.360074
-0.156845
0.170868
0.628891
1.22281
1.87855
2.45098
2.87847
3.17061
3.36296
3.49039
3.57559
3.63222
3.66758
3.68923
-0.379626
-0.494515
-0.611142
-0.670661
-0.630165
-0.452092
-0.122054
0.379357
1.10545
1.98989
2.74745
3.27143
3.58731
3.76422
3.86333
3.92339
3.9627
3.98755
4.0055
-0.0180575
-0.337687
-0.642265
-0.784223
-0.773571
-0.633906
-0.323881
0.189615
1.01779
2.13464
3.13577
3.76934
4.09229
4.2287
4.27475
4.29057
4.30132
4.30996
4.3222
-0.827231
-1.01856
-1.2726
-1.24298
-0.865748
-0.360924
0.186334
0.641861
1.34808
2.53445
3.70993
4.41051
4.69712
4.75598
4.71915
4.66837
4.63749
4.6239
4.62904
-3.85497
-1.91535
-1.44196
-1.162
-0.0701846
1.2777
2.04275
1.77441
1.9993
3.27654
4.53792
5.21469
5.39319
5.32726
5.1778
5.04019
4.95609
4.91547
4.9133
44.4208
35.9841
20.1076
10.0813
7.9967
9.83275
8.95265
4.0655
2.65997
3.99755
5.4332
6.12275
6.13604
5.89674
5.61301
5.37956
5.23845
5.16954
5.16117
219.985
189.494
104.594
26.6133
6.24076
25.1165
46.171
12.6035
1.75053
3.87835
6.02063
6.93191
6.79688
6.37558
5.96663
5.65095
5.46483
5.37252
5.36313
327.231
348.89
155.715
9.37011
-17.2893
0.860038
96.6771
45.4167
1.85087
1.98819
5.75573
7.2037
7.0798
6.62687
6.17374
5.81356
5.61658
5.51356
5.5222
324.274
582.815
101.744
23.5018
12.3478
44.742
211.23
25.5602
9.14692
4.42109
7.64928
7.55784
7.02122
6.55912
6.1467
5.81874
5.68219
5.5924
5.6507
)
;

boundaryField
{
    leftWall
    {
        type            calculated;
        value           nonuniform List<scalar> 
50
(
-1.19269
-1.12219
-1.07781
-1.06272
-1.07094
-1.09127
-0.863401
-0.736454
-0.614078
-0.40444
-0.268479
-0.334905
-0.679676
-1.10617
-0.282853
-0.849361
-0.044811
0.261822
0.62389
0.93027
1.1872
1.52144
2.20942
3.25599
2.62159
1.97969
0.457888
-0.539388
-1.73358
-1.05863
0.0343265
0.749721
0.482815
0.0174231
-0.43892
-0.703876
0.807847
21.4499
90.9733
259.496
514.998
804.985
1113.57
1435.07
1767.27
2113.09
2488.59
2937.25
3557.89
4511.9
)
;
    }
    rightWall
    {
        type            calculated;
        value           nonuniform List<scalar> 
50
(
-2.09787
-2.0393
-1.98107
-1.92306
-1.86529
-1.80775
-1.75043
-1.6933
-1.60425
-1.48391
-1.3645
-1.24601
-1.12842
-1.01163
-0.895544
-0.779991
-0.664771
-0.549626
-0.434244
-0.318262
-0.201277
-0.0828619
0.0374262
0.160045
0.28548
0.414269
0.547049
0.684581
0.827747
0.977512
1.13488
1.30089
1.47665
1.66339
1.86245
2.07524
2.30309
2.54706
2.80813
3.08648
3.38117
3.68923
4.0055
4.3222
4.62904
4.9133
5.16117
5.36313
5.5222
5.6507
)
;
    }
    lowerWall
    {
        type            calculated;
        value           nonuniform List<scalar> 
62
(
-1.22226
-1.31482
-1.38511
-1.43695
-1.48421
-1.52775
-1.56827
-1.60587
-1.64085
-1.67448
-1.7079
-1.7424
-1.77961
-1.82198
-1.87294
-1.93687
-2.01752
-2.11408
-2.21533
-2.29047
-2.30857
-2.26559
-2.21442
-2.18499
-2.11961
-2.07115
-2.03011
-1.98086
-1.92043
-1.85257
-1.7868
-1.76562
-1.80812
-1.86991
-1.88706
-1.9538
-1.89449
-1.83223
-1.76778
-1.70392
-1.64412
-1.59417
-1.56403
-1.98323
-1.99866
-2.01143
-2.0303
-2.04833
-2.06325
-2.07456
-2.08266
-2.0884
-2.09261
-2.09596
-2.09898
-2.10206
-2.10556
-2.10972
-2.11446
-2.11976
-2.12459
-2.1273
)
;
    }
    atmosphere
    {
        type            calculated;
        value           nonuniform List<scalar> 
46
(
5152.14
5123.69
5.72904
5224.52
5.72904
5333.93
5.72904
5.72904
5346.46
5169.13
5.72904
5.72904
4514.36
4335.04
5.72904
5.72904
4069.83
5.72125
5.72843
5.72904
5.72904
5.72002
5.68739
2064.63
2063.03
2072.74
5.72904
5.72904
1006.5
5.72904
5.72855
5.72799
5.72904
388.985
5.72275
5.72787
5.72904
8.86476
6.28401
5.75976
5.72985
5.72904
5.70185
5.67065
5.64408
5.68205
)
;
    }
    defaultFaces
    {
        type            empty;
    }
}


// ************************************************************************* //
