/*--------------------------------*- C++ -*----------------------------------*\
  =========                 |
  \\      /  F ield         | OpenFOAM: The Open Source CFD Toolbox
   \\    /   O peration     | Website:  https://openfoam.org
    \\  /    A nd           | Version:  9
     \\/     M anipulation  |
\*---------------------------------------------------------------------------*/
FoamFile
{
    format      ascii;
    class       surfaceScalarField;
    location    "0.4";
    object      phi;
}
// * * * * * * * * * * * * * * * * * * * * * * * * * * * * * * * * * * * * * //

dimensions      [0 3 -1 0 0 0 0];

internalField   nonuniform List<scalar> 
4432
(
-1.69021e-05
1.69021e-05
-2.38559e-05
6.95376e-06
-2.82806e-05
4.42472e-06
-3.26393e-05
4.35867e-06
-3.56273e-05
2.98805e-06
-3.72334e-05
1.60611e-06
-3.71658e-05
-6.76806e-08
-3.5741e-05
-1.42472e-06
-3.32233e-05
-2.51765e-06
-2.97244e-05
-3.49895e-06
-2.52572e-05
-4.46718e-06
-1.97673e-05
-5.48988e-06
-1.31481e-05
-6.61919e-06
-5.23436e-06
-7.91376e-06
4.07219e-06
-9.30659e-06
1.46421e-05
-1.057e-05
2.60559e-05
-1.14137e-05
3.69587e-05
-1.09027e-05
4.50353e-05
-8.07674e-06
4.59243e-05
-8.88831e-07
3.40375e-05
1.18867e-05
1.38805e-05
2.0157e-05
1.38806e-05
-2.30565e-05
3.99586e-05
-3.11169e-05
1.50142e-05
-3.5613e-05
8.92087e-06
-3.91951e-05
7.94072e-06
-4.14672e-05
5.26019e-06
-4.23694e-05
2.50828e-06
-4.21526e-05
-2.84504e-07
-4.08606e-05
-2.7167e-06
-3.85444e-05
-4.83375e-06
-3.52729e-05
-6.7705e-06
-3.10755e-05
-8.66455e-06
-2.59262e-05
-1.06391e-05
-1.97582e-05
-1.27873e-05
-1.2503e-05
-1.5169e-05
-4.12149e-06
-1.76881e-05
5.31328e-06
-2.00047e-05
1.53464e-05
-2.1447e-05
2.50202e-05
-2.05762e-05
3.25744e-05
-1.56312e-05
3.6466e-05
-4.78025e-06
3.38943e-05
1.44582e-05
1.94949e-05
3.45563e-05
3.33755e-05
-2.45117e-05
6.44703e-05
-3.28412e-05
2.33436e-05
-3.73766e-05
1.34563e-05
-4.07808e-05
1.1345e-05
-4.31607e-05
7.6401e-06
-4.43519e-05
3.69942e-06
-4.44512e-05
-1.85192e-07
-4.35023e-05
-3.66554e-06
-4.15717e-05
-6.76441e-06
-3.8735e-05
-9.60711e-06
-3.50391e-05
-1.23605e-05
-3.04899e-05
-1.51883e-05
-2.50606e-05
-1.82166e-05
-1.87246e-05
-2.1505e-05
-1.14782e-05
-2.49345e-05
-3.40429e-06
-2.80785e-05
5.15573e-06
-3.00071e-05
1.34799e-05
-2.89002e-05
2.01233e-05
-2.22748e-05
2.36414e-05
-8.2983e-06
2.3314e-05
1.47856e-05
1.55582e-05
4.2312e-05
4.89337e-05
-2.43509e-05
8.88212e-05
-3.29921e-05
3.19849e-05
-3.78116e-05
1.82758e-05
-4.14228e-05
1.49561e-05
-4.40627e-05
1.028e-05
-4.55867e-05
5.22339e-06
-4.60476e-05
2.75778e-07
-4.55016e-05
-4.21159e-06
-4.40312e-05
-8.23479e-06
-4.17207e-05
-1.19176e-05
-3.8636e-05
-1.54452e-05
-3.48159e-05
-1.90083e-05
-3.02754e-05
-2.27572e-05
-2.50269e-05
-2.67534e-05
-1.90923e-05
-3.08691e-05
-1.25404e-05
-3.46304e-05
-5.59159e-06
-3.6956e-05
1.23256e-06
-3.57242e-05
7.06366e-06
-2.81061e-05
1.05399e-05
-1.17745e-05
1.15178e-05
1.38077e-05
8.77278e-06
4.50569e-05
5.77065e-05
-2.16829e-05
0.000110504
-3.18381e-05
4.21401e-05
-3.74877e-05
2.39254e-05
-4.15793e-05
1.90477e-05
-4.45771e-05
1.32777e-05
-4.64552e-05
7.10156e-06
-4.72962e-05
1.11674e-06
-4.71802e-05
-4.32757e-06
-4.62046e-05
-9.21038e-06
-4.44659e-05
-1.36562e-05
-4.205e-05
-1.78611e-05
-3.90282e-05
-2.20301e-05
-3.5458e-05
-2.63275e-05
-3.13952e-05
-3.08161e-05
-2.68958e-05
-3.53686e-05
-2.20217e-05
-3.95044e-05
-1.68733e-05
-4.21047e-05
-1.16342e-05
-4.09631e-05
-6.817e-06
-3.29235e-05
-3.17489e-06
-1.54166e-05
-5.1708e-07
1.11499e-05
1.33403e-06
4.32056e-05
5.90406e-05
-1.65024e-05
0.000127006
-2.95919e-05
5.52296e-05
-3.66203e-05
3.09539e-05
-4.14016e-05
2.38289e-05
-4.48294e-05
1.67055e-05
-4.70744e-05
9.3466e-06
-4.8297e-05
2.33933e-06
-4.86139e-05
-4.01068e-06
-4.81386e-05
-9.68567e-06
-4.69809e-05
-1.48139e-05
-4.52458e-05
-1.95962e-05
-4.30337e-05
-2.42422e-05
-4.04424e-05
-2.89188e-05
-3.75737e-05
-3.36848e-05
-3.45291e-05
-3.84133e-05
-3.13914e-05
-4.26421e-05
-2.8189e-05
-4.53072e-05
-2.48338e-05
-4.43182e-05
-2.12144e-05
-3.65431e-05
-1.73746e-05
-1.92565e-05
-1.32419e-05
7.01724e-06
-7.31582e-06
3.72795e-05
5.17248e-05
-1.22916e-05
0.000139298
-2.66638e-05
6.96018e-05
-3.5449e-05
3.97392e-05
-4.10119e-05
2.93917e-05
-4.4893e-05
2.05867e-05
-4.7501e-05
1.19546e-05
-4.9094e-05
3.9323e-06
-4.98301e-05
-3.27456e-06
-4.98396e-05
-9.67615e-06
-4.9244e-05
-1.54094e-05
-4.81642e-05
-2.0676e-05
-4.67234e-05
-2.56829e-05
-4.50522e-05
-3.05899e-05
-4.32923e-05
-3.54447e-05
-4.1591e-05
-4.01146e-05
-4.00716e-05
-4.41614e-05
-3.87533e-05
-4.66256e-05
-3.73734e-05
-4.56981e-05
-3.52445e-05
-3.86721e-05
-3.14343e-05
-2.30667e-05
-2.52542e-05
8.37195e-07
-1.45804e-05
2.66057e-05
3.71444e-05
-1.07753e-05
0.000150073
-2.4435e-05
8.32615e-05
-3.43127e-05
4.96169e-05
-4.05333e-05
3.56123e-05
-4.48247e-05
2.48781e-05
-4.7775e-05
1.49049e-05
-4.97187e-05
5.87593e-06
-5.08508e-05
-2.14239e-06
-5.13165e-05
-9.21053e-06
-5.12454e-05
-1.54805e-05
-5.07686e-05
-2.11528e-05
-5.00239e-05
-2.64276e-05
-4.91621e-05
-3.14517e-05
-4.83491e-05
-3.62576e-05
-4.77603e-05
-4.07034e-05
-4.75474e-05
-4.43743e-05
-4.77452e-05
-4.64279e-05
-4.80376e-05
-4.54057e-05
-4.74124e-05
-3.92974e-05
-4.41548e-05
-2.63243e-05
-3.63818e-05
-6.93577e-06
-2.15421e-05
1.1766e-05
1.56023e-05
5.17297e-06
-5.17297e-06
6.30269e-07
4.54272e-06
-6.35005e-06
6.98035e-06
-1.18575e-05
5.50751e-06
-1.55213e-05
3.66374e-06
-1.74223e-05
1.90107e-06
-1.79239e-05
5.01701e-07
-1.74269e-05
-4.96953e-07
-1.628e-05
-1.14696e-06
-1.46901e-05
-1.58983e-06
-1.27701e-05
-1.92005e-06
-1.05994e-05
-2.17072e-06
-8.23609e-06
-2.3633e-06
-5.73588e-06
-2.50025e-06
-3.17834e-06
-2.55754e-06
-7.59053e-07
-2.41935e-06
1.08545e-06
-1.84455e-06
1.6868e-06
-6.01372e-07
1.68678e-06
1.26144e-07
-5.29908e-06
-5.27489e-06
9.9438e-06
-1.12778e-05
1.29833e-05
-1.56918e-05
9.92157e-06
-1.82721e-05
6.24412e-06
-1.94031e-05
3.03215e-06
-1.95044e-05
6.03046e-07
-1.88859e-05
-1.11547e-06
-1.77124e-05
-2.32047e-06
-1.61196e-05
-3.18263e-06
-1.42095e-05
-3.83019e-06
-1.20607e-05
-4.31956e-06
-9.7332e-06
-4.69083e-06
-7.28889e-06
-4.94465e-06
-4.80959e-06
-5.0369e-06
-2.41762e-06
-4.81139e-06
-3.59978e-07
-3.90222e-06
7.9085e-07
-1.75216e-06
2.4776e-06
-4.24105e-06
-1.058e-06
-9.59337e-06
1.52961e-05
-1.42898e-05
1.76798e-05
-1.75719e-05
1.32037e-05
-1.9484e-05
8.15626e-06
-2.0305e-05
3.8532e-06
-2.02858e-05
5.83857e-07
-1.96196e-05
-1.78173e-06
-1.84441e-05
-3.49602e-06
-1.6879e-05
-4.74773e-06
-1.50164e-05
-5.69282e-06
-1.293e-05
-6.40601e-06
-1.06786e-05
-6.94223e-06
-8.32379e-06
-7.29953e-06
-5.94102e-06
-7.41969e-06
-3.64113e-06
-7.11128e-06
-1.58993e-06
-5.95343e-06
-1.84845e-07
-3.15723e-06
2.29272e-06
-7.78096e-06
6.72298e-06
-1.311e-05
2.06252e-05
-1.68332e-05
2.1403e-05
-1.92654e-05
1.56359e-05
-2.06361e-05
9.52699e-06
-2.11567e-05
4.37379e-06
-2.09838e-05
4.10955e-07
-2.02469e-05
-2.51864e-06
-1.90552e-05
-4.68774e-06
-1.7508e-05
-6.29506e-06
-1.56855e-05
-7.5153e-06
-1.36547e-05
-8.4368e-06
-1.14711e-05
-9.12583e-06
-9.19207e-06
-9.57865e-06
-6.88279e-06
-9.72896e-06
-4.63285e-06
-9.3612e-06
-2.56207e-06
-8.02423e-06
-9.09515e-07
-4.80977e-06
1.38319e-06
-1.10335e-05
1.77565e-05
-1.6381e-05
2.59727e-05
-1.93038e-05
2.43258e-05
-2.10061e-05
1.73383e-05
-2.18664e-05
1.03872e-05
-2.20687e-05
4.57612e-06
-2.17122e-05
5.43858e-08
-2.08797e-05
-3.35112e-06
-1.96516e-05
-5.91591e-06
-1.81051e-05
-7.84152e-06
-1.63082e-05
-9.31226e-06
-1.43187e-05
-1.04263e-05
-1.21867e-05
-1.12578e-05
-9.96208e-06
-1.18033e-05
-7.6977e-06
-1.19933e-05
-5.45876e-06
-1.16001e-05
-3.32162e-06
-1.01614e-05
-1.41967e-06
-6.71172e-06
-3.6474e-08
-1.45325e-05
3.22889e-05
-1.97678e-05
3.1208e-05
-2.1866e-05
2.6424e-05
-2.28529e-05
1.83251e-05
-2.31987e-05
1.0733e-05
-2.30622e-05
4.43965e-06
-2.2497e-05
-5.10864e-07
-2.15455e-05
-4.30262e-06
-2.026e-05
-7.20142e-06
-1.86959e-05
-9.40559e-06
-1.69075e-05
-1.11007e-05
-1.49423e-05
-1.23915e-05
-1.28431e-05
-1.33571e-05
-1.06502e-05
-1.39962e-05
-8.40291e-06
-1.42406e-05
-6.14202e-06
-1.3861e-05
-3.9071e-06
-1.23964e-05
-1.76772e-06
-8.85108e-06
-1.80418e-06
-1.86689e-05
5.09579e-05
-2.35462e-05
3.60853e-05
-2.46e-05
2.74779e-05
-2.48182e-05
1.85433e-05
-2.46294e-05
1.05442e-05
-2.41355e-05
3.94569e-06
-2.33408e-05
-1.30548e-06
-2.22499e-05
-5.39358e-06
-2.08872e-05
-8.56403e-06
-1.92871e-05
-1.10057e-05
-1.74895e-05
-1.28983e-05
-1.55308e-05
-1.43502e-05
-1.3445e-05
-1.54429e-05
-1.12617e-05
-1.61795e-05
-9.00688e-06
-1.64954e-05
-6.69895e-06
-1.6169e-05
-4.35085e-06
-1.47445e-05
-2.00664e-06
-1.11953e-05
-3.81081e-06
-2.43712e-05
7.5329e-05
-2.77914e-05
3.95056e-05
-2.75094e-05
2.71959e-05
-2.68759e-05
1.79099e-05
-2.61354e-05
9.80371e-06
-2.52729e-05
3.08319e-06
-2.4235e-05
-2.34333e-06
-2.29883e-05
-6.64024e-06
-2.15312e-05
-1.00211e-05
-1.9878e-05
-1.26589e-05
-1.80541e-05
-1.47222e-05
-1.60843e-05
-1.632e-05
-1.39932e-05
-1.7534e-05
-1.17995e-05
-1.83732e-05
-9.51643e-06
-1.87785e-05
-7.1444e-06
-1.8541e-05
-4.68006e-06
-1.72088e-05
-2.16346e-06
-1.37118e-05
-5.97425e-06
-1.95767e-05
0.00016965
-4.76974e-05
0.000111382
-6.97277e-05
7.16473e-05
-8.47498e-05
5.06344e-05
-9.49795e-05
3.51079e-05
-0.000102241
2.21666e-05
-0.000107432
1.10667e-05
-0.000111044
1.46975e-06
-0.000113411
-6.8433e-06
-0.000114819
-1.40728e-05
-0.000115553
-2.04187e-05
-0.000115917
-2.60633e-05
-0.000116242
-3.11271e-05
-0.00011688
-3.56197e-05
-0.000118187
-3.93964e-05
-0.000120449
-4.21125e-05
-0.000123685
-4.31915e-05
-0.000127236
-4.18552e-05
-0.000129283
-3.72497e-05
-0.00012688
-2.87271e-05
-0.000117123
-1.6693e-05
-0.000100914
-4.44326e-06
3.44554e-06
-8.87572e-05
-1.93113e-05
0.000188961
-4.69618e-05
0.000139033
-6.94591e-05
9.41446e-05
-8.46134e-05
6.57886e-05
-9.51901e-05
4.56846e-05
-0.000103122
3.00989e-05
-0.000109313
1.72575e-05
-0.000114192
6.34901e-06
-0.000118027
-3.00893e-06
-0.000121048
-1.10517e-05
-0.000123494
-1.79727e-05
-0.000125618
-2.39388e-05
-0.000127684
-2.90612e-05
-0.000129947
-3.33564e-05
-0.000132627
-3.67167e-05
-0.000135844
-3.88951e-05
-0.000139517
-3.95189e-05
-0.000143231
-3.81411e-05
-0.000146171
-3.43103e-05
-0.000147159
-2.77383e-05
-0.000144945
-1.89078e-05
-0.000139638
-9.74966e-06
-2.19736e-06
-0.000133995
-2.78721e-05
0.000216834
-5.48688e-05
0.000166029
-7.40355e-05
0.000113311
-8.65384e-05
7.82915e-05
-9.59867e-05
5.51329e-05
-0.000103896
3.80082e-05
-0.000110715
2.40763e-05
-0.00011657
1.2204e-05
-0.000121547
1.96781e-06
-0.000125767
-6.83137e-06
-0.000129392
-1.43473e-05
-0.000132608
-2.07234e-05
-0.000135599
-2.60701e-05
-0.000138528
-3.04274e-05
-0.000141505
-3.37397e-05
-0.000144547
-3.58525e-05
-0.00014753
-3.6536e-05
-0.000150138
-3.55336e-05
-0.000151821
-3.26268e-05
-0.000151783
-2.77768e-05
-0.000149246
-2.14443e-05
-0.000144262
-1.47338e-05
-8.67704e-06
-0.000137782
-4.5726e-05
0.00026256
-6.93758e-05
0.000189679
-8.04538e-05
0.000124389
-8.81773e-05
8.6015e-05
-9.58933e-05
6.28488e-05
-0.000103704
4.58193e-05
-0.000111176
3.15478e-05
-0.000117978
1.90061e-05
-0.00012397
7.96023e-06
-0.000129162
-1.64014e-06
-0.000133649
-9.86019e-06
-0.000137567
-1.68047e-05
-0.000141055
-2.2582e-05
-0.000144224
-2.72589e-05
-0.000147132
-3.08314e-05
-0.000149762
-3.32223e-05
-0.000151994
-3.43047e-05
-0.000153581
-3.39458e-05
-0.000154142
-3.20665e-05
-0.000153175
-2.87437e-05
-0.000150265
-2.43546e-05
-0.000145432
-1.95662e-05
-1.49541e-05
-0.000139155
-4.84133e-05
0.000310973
-7.26373e-05
0.000213903
-7.89019e-05
0.000130654
-8.46362e-05
9.17493e-05
-9.26152e-05
7.08278e-05
-0.000101514
5.47178e-05
-0.000110259
4.02929e-05
-0.00011828
2.70272e-05
-0.000125349
1.50296e-05
-0.000131443
4.45312e-06
-0.000136643
-4.66015e-06
-0.000141075
-1.23727e-05
-0.000144863
-1.87932e-05
-0.000148105
-2.40166e-05
-0.000150849
-2.80876e-05
-0.000153078
-3.09939e-05
-0.000154697
-3.26859e-05
-0.000155528
-3.31142e-05
-0.000155316
-3.2279e-05
-0.000153763
-3.02964e-05
-0.000150659
-2.74582e-05
-0.000146033
-2.4193e-05
-2.08668e-05
-0.00014012
3.19522e-06
0.000307778
-4.49461e-05
0.000262044
-6.02035e-05
0.000145911
-7.26979e-05
0.000104244
-8.52393e-05
8.33692e-05
-9.71824e-05
6.6661e-05
-0.000108045
5.11557e-05
-0.000117619
3.66012e-05
-0.000125865
2.32756e-05
-0.000132849
1.14366e-05
-0.000138695
1.18618e-06
-0.000143552
-7.51594e-06
-0.000147557
-1.47879e-05
-0.000150817
-2.07567e-05
-0.000153391
-2.55139e-05
-0.000155281
-2.91039e-05
-0.000156429
-3.15379e-05
-0.000156718
-3.28248e-05
-0.000155987
-3.30097e-05
-0.000154067
-3.22164e-05
-0.000150853
-3.06722e-05
-0.000146372
-2.86739e-05
-2.64806e-05
-0.000140759
2.6391e-05
0.000281387
-5.39161e-06
0.000293827
-3.44227e-05
0.000174943
-5.80468e-05
0.000127868
-7.68184e-05
0.000102141
-9.23075e-05
8.21501e-05
-0.000105381
6.42293e-05
-0.000116475
4.76953e-05
-0.000125835
3.26352e-05
-0.000133643
1.92452e-05
-0.000140076
7.61882e-06
-0.000145306
-2.28642e-06
-0.00014949
-1.06036e-05
-0.000152754
-1.74929e-05
-0.000155178
-2.30903e-05
-0.000156791
-2.74904e-05
-0.000157574
-3.07548e-05
-0.000157463
-3.2936e-05
-0.000156365
-3.41074e-05
-0.00015419
-3.4392e-05
-0.000150888
-3.39736e-05
-0.000146488
-3.30742e-05
-3.18907e-05
-0.000141078
-1.20566e-07
0.000281507
-6.25595e-07
0.000294332
-2.62215e-05
0.000200538
-5.13064e-05
0.000152953
-7.19207e-05
0.000122755
-8.89365e-05
9.91659e-05
-0.000103246
7.85387e-05
-0.000115364
5.98136e-05
-0.000125573
4.28441e-05
-0.000134061
2.77335e-05
-0.000140999
1.45566e-05
-0.000146557
3.2721e-06
-0.000150901
-6.25975e-06
-0.000154171
-1.42228e-05
-0.00015647
-2.07913e-05
-0.000157858
-2.61032e-05
-0.000158349
-3.02632e-05
-0.000157926
-3.33594e-05
-0.000156546
-3.54869e-05
-0.00015417
-3.67684e-05
-0.000150783
-3.7361e-05
-0.000146414
-3.74426e-05
-3.71688e-05
-0.000141136
-1.31033e-05
0.000294611
-1.42381e-05
0.000295467
-3.17486e-05
0.000218049
-5.2038e-05
0.000173242
-7.07712e-05
0.000141488
-8.73547e-05
0.000115749
-0.000101882
9.30659e-05
-0.00011448
7.24117e-05
-0.000125239
5.36034e-05
-0.000134244
3.67386e-05
-0.000141603
2.19155e-05
-0.000147454
9.12299e-06
-0.00015195
-1.76429e-06
-0.000155237
-1.09352e-05
-0.000157439
-1.85902e-05
-0.00015864
-2.4902e-05
-0.000158891
-3.0012e-05
-0.000158211
-3.40395e-05
-0.000156598
-3.70996e-05
-0.000154048
-3.93183e-05
-0.00015057
-4.08389e-05
-0.0001462
-4.1813e-05
-4.23662e-05
-0.000141002
-1.50831e-05
0.000309694
-2.33834e-05
0.000303767
-3.76332e-05
0.000232299
-5.41946e-05
0.000189804
-7.08399e-05
0.000158134
-8.65601e-05
0.00013147
-0.000100923
0.000107428
-0.000113717
8.52059e-05
-0.000124834
6.4721e-05
-0.000134238
4.6142e-05
-0.000141956
2.96338e-05
-0.000148077
1.52442e-05
-0.00015273
2.88785e-06
-0.000156055
-7.60923e-06
-0.00015819
-1.64561e-05
-0.000159241
-2.38501e-05
-0.000159292
-2.99616e-05
-0.000158393
-3.49384e-05
-0.000156577
-3.89155e-05
-0.000153868
-4.20275e-05
-0.000150294
-4.44129e-05
-0.000145897
-4.62094e-05
-4.75206e-05
-0.000140743
-1.44234e-05
0.000324117
-2.57222e-05
0.000315066
-3.962e-05
0.000246197
-5.49007e-05
0.000205084
-7.05369e-05
0.00017377
-8.57358e-05
0.000146669
-9.99688e-05
0.000121662
-0.000112891
9.81286e-05
-0.000124283
7.61127e-05
-0.00013402
5.58788e-05
-0.000142063
3.7677e-05
-0.00014845
2.1631e-05
-0.000153277
7.71457e-06
-0.000156673
-4.21318e-06
-0.000158778
-1.43508e-05
-0.000159721
-2.29074e-05
-0.000159608
-3.00745e-05
-0.000158522
-3.60242e-05
-0.000156525
-4.09123e-05
-0.000153667
-4.48861e-05
-0.000149992
-4.80875e-05
-0.000145552
-5.06492e-05
-5.266e-05
-0.000140413
-1.29501e-05
0.000337067
-2.53233e-05
0.000327439
-3.93751e-05
0.000260248
-5.43222e-05
0.000220031
-6.95921e-05
0.00018904
-8.45857e-05
0.000161662
-9.88014e-05
0.000135877
-0.000111861
0.000111188
-0.000123497
8.7748e-05
-0.000133534
6.59159e-05
-0.000141885
4.60286e-05
-0.000148544
2.82902e-05
-0.000153573
1.27434e-05
-0.000157082
-7.04378e-07
-0.000159208
-1.22253e-05
-0.000160089
-2.20255e-05
-0.000159856
-3.03076e-05
-0.000158618
-3.72626e-05
-0.000156463
-4.30667e-05
-0.000153466
-4.78834e-05
-0.000149689
-5.18643e-05
-0.000145194
-5.51444e-05
-5.78051e-05
-0.000140049
-1.11019e-05
0.000348169
-2.41069e-05
0.000340444
-3.81836e-05
0.000274325
-5.29534e-05
0.000234801
-6.80886e-05
0.000204175
-8.30441e-05
0.000176618
-9.73195e-05
0.000150153
-0.000110528
0.000124397
-0.000122387
9.96064e-05
-0.000132699
7.62276e-05
-0.000141346
5.46761e-05
-0.000148287
3.52315e-05
-0.000153551
1.8007e-05
-0.000157223
2.96784e-06
-0.000159429
-1.00199e-05
-0.00016031
-2.11439e-05
-0.000160011
-3.06064e-05
-0.000158664
-3.86098e-05
-0.000156383
-4.5348e-05
-0.000153264
-5.10024e-05
-0.000149389
-5.5739e-05
-0.000144832
-5.97018e-05
-6.2971e-05
-0.000139666
-9.40305e-06
0.000357572
-2.28366e-05
0.000353877
-3.6448e-05
0.000287937
-5.09751e-05
0.000249328
-6.6091e-05
0.000219291
-8.11064e-05
0.000191633
-9.54774e-05
0.000164524
-0.000108823
0.000137743
-0.000120869
0.000111653
-0.000131419
8.67777e-05
-0.000140342
6.35983e-05
-0.000147569
4.24584e-05
-0.000153098
2.35362e-05
-0.000156987
6.85745e-06
-0.000159342
-7.66533e-06
-0.000160298
-2.01883e-05
-0.000160003
-3.09006e-05
-0.000158607
-4.00063e-05
-0.000156244
-4.77114e-05
-0.000153032
-5.42143e-05
-0.000149073
-5.96981e-05
-0.000144454
-6.43207e-05
-6.81672e-05
-0.000139258
-9.65137e-06
0.000367224
-2.21709e-05
0.000366397
-3.40918e-05
0.000299857
-4.83923e-05
0.000263629
-6.36583e-05
0.000234557
-7.88076e-05
0.000206782
-9.32661e-05
0.000178982
-0.000106695
0.000151172
-0.000118861
0.000123818
-0.000129587
9.75043e-05
-0.000138744
7.27547e-05
-0.000146246
4.99604e-05
-0.000152063
2.93537e-05
-0.000156223
1.10171e-05
-0.000158802
-5.08583e-06
-0.00015992
-1.9071e-05
-0.000159719
-3.11017e-05
-0.000158353
-4.13723e-05
-0.000155972
-5.00922e-05
-0.000152714
-5.74727e-05
-0.000148698
-6.37138e-05
-0.000144029
-6.899e-05
-7.33956e-05
-0.0001388
-1.03388e-05
0.000377562
-1.96358e-05
0.000375694
-3.02031e-05
0.000310425
-4.51983e-05
0.000278624
-6.0947e-05
0.000250305
-7.62503e-05
0.000222086
-9.07073e-05
0.000193439
-0.000104099
0.000164564
-0.000116268
0.000135987
-0.000127076
0.000108312
-0.000136401
8.20798e-05
-0.000144149
5.77082e-05
-0.000150264
3.54691e-05
-0.000154741
1.54941e-05
-0.000157625
-2.20262e-06
-0.000159003
-1.76923e-05
-0.000159003
-3.11021e-05
-0.000157771
-4.2604e-05
-0.000155463
-5.24006e-05
-0.000152228
-6.07077e-05
-0.000148203
-6.77382e-05
-0.000143511
-7.36828e-05
-7.86471e-05
-0.000138259
-2.99195e-06
0.000380554
-6.75758e-06
0.00037946
-2.54049e-05
0.000329072
-4.25815e-05
0.000295801
-5.86166e-05
0.000266341
-7.37181e-05
0.000237187
-8.78695e-05
0.000207591
-0.000100988
0.000177682
-0.000112979
0.000147978
-0.000123733
0.000119066
-0.000133135
9.14819e-05
-0.00014108
6.56532e-05
-0.000147489
4.18782e-05
-0.000152323
2.03277e-05
-0.000155588
1.06252e-06
-0.000157337
-1.59438e-05
-0.000157663
-3.07758e-05
-0.000156695
-4.35724e-05
-0.000154578
-5.45168e-05
-0.000151467
-6.38188e-05
-0.00014751
-7.1696e-05
-0.000142842
-7.83503e-05
-8.38965e-05
-0.000137593
-1.74056e-05
0.00039796
-1.96677e-05
0.000381722
-2.96791e-05
0.000339083
-4.32111e-05
0.000309333
-5.74067e-05
0.000280536
-7.13698e-05
0.00025115
-8.47058e-05
0.000220927
-9.72342e-05
0.000190211
-0.000108828
0.000159572
-0.00011937
0.000129607
-0.000128737
0.000100849
-0.000136813
7.37296e-05
-0.000143498
4.85622e-05
-0.000148717
2.55473e-05
-0.000152439
4.78433e-06
-0.000154671
-1.37115e-05
-0.000155466
-2.99809e-05
-0.000154917
-4.4122e-05
-0.000153146
-5.62873e-05
-0.000150297
-6.66683e-05
-0.000146517
-7.54756e-05
-0.000141955
-8.29123e-05
-8.90943e-05
-0.000136757
-8.94151e-06
0.000406902
-2.23796e-05
0.00039516
-3.15166e-05
0.00034822
-4.31939e-05
0.00032101
-5.58257e-05
0.000293168
-6.85167e-05
0.000263841
-8.08345e-05
0.000233244
-9.25671e-05
0.000201943
-0.000103578
0.000170583
-0.000113749
0.000139778
-0.000122961
0.000110061
-0.00013109
8.18584e-05
-0.000138016
5.54889e-05
-0.000143639
3.11703e-05
-0.000147885
9.03042e-06
-0.000150717
-1.08803e-05
-0.000152134
-2.85633e-05
-0.000152183
-4.4073e-05
-0.000150947
-5.75232e-05
-0.000148541
-6.90751e-05
-0.000145097
-7.89191e-05
-0.000140764
-8.72451e-05
-9.41562e-05
-0.000135702
-1.47598e-06
0.000408378
-1.442e-05
0.000408104
-2.85428e-05
0.000362343
-4.09902e-05
0.000333457
-5.29759e-05
0.000305154
-6.46418e-05
0.000275507
-7.59139e-05
0.000244516
-8.6713e-05
0.000212742
-9.69714e-05
0.000180841
-0.000106612
0.000149419
-0.000115535
0.000118984
-0.000123621
8.99447e-05
-0.000130741
6.26091e-05
-0.000136769
3.71986e-05
-0.000141596
1.38567e-05
-0.000145136
-7.34028e-06
-0.000147335
-2.63637e-05
-0.000148182
-4.32267e-05
-0.000147703
-5.80016e-05
-0.000145967
-7.08111e-05
-0.000143074
-8.18129e-05
-0.000139151
-9.11679e-05
-9.89468e-05
-0.00013436
-6.34052e-06
0.000414718
-1.50256e-05
0.000416789
-2.7151e-05
0.000374468
-3.85053e-05
0.000344811
-4.93755e-05
0.000316024
-5.98123e-05
0.000285944
-6.98392e-05
0.000254543
-7.94874e-05
0.000222391
-8.87776e-05
0.000190131
-9.76921e-05
0.000158333
-0.000106166
0.000127458
-0.000114092
9.78706e-05
-0.000121335
6.98526e-05
-0.00012775
4.36135e-05
-0.000133193
1.93003e-05
-0.000137538
-2.99604e-06
-0.000140674
-2.32277e-05
-0.000142525
-4.13757e-05
-0.000143053
-5.74733e-05
-0.000142261
-7.1603e-05
-0.000140192
-8.3882e-05
-0.000136931
-9.44289e-05
-0.00010326
-0.000132618
-8.20048e-06
0.000422918
-1.57302e-05
0.000424319
-2.58958e-05
0.000384634
-3.577e-05
0.000354686
-4.51954e-05
0.000325449
-5.40924e-05
0.000294841
-6.25514e-05
0.000263002
-7.07333e-05
0.000230572
-7.87676e-05
0.000198166
-8.67111e-05
0.000166277
-9.4539e-05
0.000135286
-0.000102159
0.00010549
-0.00010943
7.71238e-05
-0.000116187
5.03709e-05
-0.000122259
2.5372e-05
-0.000127477
2.22228e-06
-0.000131685
-1.90203e-05
-0.000134741
-3.83197e-05
-0.000136536
-5.5678e-05
-0.000136996
-7.11428e-05
-0.000136086
-8.47924e-05
-0.000133818
-9.66965e-05
-0.000106799
-0.000130279
-8.544e-06
0.000431462
-1.48961e-05
0.000430671
-2.38729e-05
0.000393611
-3.26701e-05
0.000363483
-4.05513e-05
0.00033333
-4.75438e-05
0.000301833
-5.39947e-05
0.000269453
-6.02844e-05
0.000236862
-6.66934e-05
0.000204575
-7.33653e-05
0.000172949
-8.03149e-05
0.000142235
-8.74556e-05
0.000112631
-9.46346e-05
8.43028e-05
-0.000101663
5.73993e-05
-0.000108341
3.20495e-05
-0.000114468
8.34948e-06
-0.000119845
-1.36433e-05
-0.000124277
-3.38874e-05
-0.000127587
-5.23675e-05
-0.000129621
-6.91094e-05
-0.000130249
-8.41645e-05
-0.000129384
-9.7561e-05
-0.000109161
-0.000127022
-8.22189e-06
0.000439684
-1.46326e-05
0.000437082
-2.27373e-05
0.000401715
-3.0197e-05
0.000370943
-3.59528e-05
0.000339086
-4.03459e-05
0.000306226
-4.41191e-05
0.000273226
-4.79413e-05
0.000240684
-5.22664e-05
0.0002089
-5.73186e-05
0.000178001
-6.31319e-05
0.000148049
-6.96044e-05
0.000119104
-7.65532e-05
9.12517e-05
-8.37553e-05
6.46014e-05
-9.09813e-05
3.92755e-05
-9.8004e-05
1.53722e-05
-0.000104596
-7.05138e-06
-0.000110522
-2.7961e-05
-0.000115552
-4.73375e-05
-0.000119459
-6.52027e-05
-0.000122019
-8.16042e-05
-0.000123027
-9.6553e-05
-0.000109842
-0.000122346
-7.9451e-06
0.000447629
-1.59811e-05
0.000445118
-2.37928e-05
0.000409527
-2.93282e-05
0.000376478
-3.1889e-05
0.000341647
-3.26003e-05
0.000306937
-3.27669e-05
0.000273393
-3.34033e-05
0.000241321
-3.5125e-05
0.000210621
-3.8196e-05
0.000181072
-4.26211e-05
0.000152474
-4.82426e-05
0.000124725
-5.48199e-05
9.7829e-05
-6.20793e-05
7.18609e-05
-6.97594e-05
4.69556e-05
-7.76131e-05
2.3226e-05
-8.53964e-05
7.31927e-07
-9.28564e-05
-2.05011e-05
-9.97299e-05
-4.0464e-05
-0.000105743
-5.91897e-05
-0.000110595
-7.67523e-05
-0.00011396
-9.31878e-05
-0.000108261
-0.000115541
-8.24916e-06
0.000455879
-1.86482e-05
0.000455517
-2.79322e-05
0.000418811
-3.07854e-05
0.000379331
-2.85857e-05
0.000339447
-2.41159e-05
0.000302468
-1.9519e-05
0.000268796
-1.61856e-05
0.000237987
-1.48082e-05
0.000209244
-1.55971e-05
0.000181861
-1.84453e-05
0.000155322
-2.30776e-05
0.000129358
-2.91593e-05
0.000103911
-3.635e-05
7.90516e-05
-4.43558e-05
5.49614e-05
-5.29181e-05
3.17882e-05
-6.17911e-05
9.6049e-06
-7.07219e-05
-1.15703e-05
-7.94463e-05
-3.17396e-05
-8.76793e-05
-5.09567e-05
-9.50818e-05
-6.93497e-05
-0.000101235
-8.70342e-05
-0.000103821
-0.000105675
-9.06367e-06
0.000464942
-2.45148e-05
0.000470968
-3.76116e-05
0.000431908
-3.56156e-05
0.000377335
-2.59804e-05
0.000329812
-1.41942e-05
0.000290681
-3.54273e-06
0.000258144
4.45988e-06
0.000229985
9.24305e-06
0.000204461
1.08473e-05
0.000180257
9.61767e-06
0.000156552
6.02099e-06
0.000132954
5.25945e-07
0.000109406
-6.46647e-06
8.6044e-05
-1.46364e-05
6.31314e-05
-2.37249e-05
4.08767e-05
-3.34967e-05
1.93767e-05
-4.37163e-05
-1.35074e-06
-5.41493e-05
-2.13066e-05
-6.45446e-05
-4.05615e-05
-7.45808e-05
-5.93136e-05
-8.38051e-05
-7.78099e-05
-9.6008e-05
-9.16178e-05
-9.1786e-06
0.000474121
-4.41963e-05
0.000505985
-5.92137e-05
0.000446925
-4.42629e-05
0.000362385
-2.23873e-05
0.000307936
-8.57413e-07
0.000269152
1.68879e-05
0.000240399
2.96582e-05
0.000217214
3.76342e-05
0.000196485
4.13654e-05
0.000176525
4.15544e-05
0.000156363
3.89108e-05
0.000135598
3.40413e-05
0.000114275
2.73821e-05
9.27032e-05
1.92534e-05
7.12601e-05
9.89363e-06
5.02365e-05
-4.90321e-07
2.97607e-05
-1.16833e-05
9.84223e-06
-2.35094e-05
-9.48047e-06
-3.57951e-05
-2.82758e-05
-4.82987e-05
-4.681e-05
-6.06171e-05
-6.54914e-05
-8.45319e-05
-7.20932e-05
-2.06055e-06
0.000476181
-6.74176e-05
0.000571342
-7.77214e-05
0.000457229
-4.53992e-05
0.000330062
-9.23965e-06
0.000271777
2.16013e-05
0.000238311
4.48844e-05
0.000217116
6.08695e-05
0.000201229
7.07879e-05
0.000186567
7.57874e-05
0.000171526
7.68934e-05
0.000155257
7.50098e-05
0.000137482
7.0799e-05
0.000118486
6.46554e-05
9.88469e-05
5.68377e-05
7.90778e-05
4.75417e-05
5.95325e-05
3.69328e-05
4.03695e-05
2.52203e-05
2.15547e-05
1.24992e-05
3.24058e-06
-1.17102e-06
-1.46055e-05
-1.56756e-05
-3.23054e-05
-3.07536e-05
-5.04134e-05
-6.94861e-05
-4.57994e-05
1.4679e-05
0.000461502
-2.68457e-05
0.000612867
-3.96685e-05
0.000470052
-1.16588e-05
0.000302053
2.85026e-05
0.000231615
6.10622e-05
0.000205751
8.37988e-05
0.000194379
9.88224e-05
0.000186206
0.000108139
0.00017725
0.000113002
0.000166663
0.000114354
0.000153905
0.00011306
0.000138776
0.000109653
0.000121893
0.000104321
0.000104179
9.72019e-05
8.61968e-05
8.84608e-05
6.82736e-05
7.82083e-05
5.0622e-05
6.65924e-05
3.31706e-05
5.36082e-05
1.62248e-05
3.92529e-05
-2.50177e-07
2.35118e-05
-1.65642e-05
6.43535e-06
-3.3337e-05
-5.14563e-05
-1.15945e-05
3.49884e-05
0.000426514
8.38735e-05
0.000563982
7.90364e-05
0.000474889
7.97488e-05
0.00030134
0.000100976
0.000210388
0.000119405
0.000187322
0.0001316
0.000182184
0.000140245
0.000177561
0.000146507
0.000170988
0.000150194
0.000162975
0.000151484
0.000152615
0.000150988
0.000139272
0.000148845
0.000124036
0.00014481
0.000108213
0.000138817
9.21902e-05
0.000131181
7.59093e-05
0.000122144
5.96589e-05
0.000111609
4.37062e-05
9.92697e-05
2.85636e-05
8.51233e-05
1.38962e-05
6.91434e-05
-5.84293e-07
5.11554e-05
-1.5349e-05
-3.15882e-05
3.12872e-05
4.98598e-05
0.000376654
0.000123949
0.000489893
0.000181388
0.00041745
0.000192849
0.000289879
0.000184336
0.000218901
0.000175446
0.000196212
0.000171995
0.000185635
0.000173931
0.000175624
0.000178617
0.000166302
0.000182082
0.00015951
0.000184202
0.000150495
0.000185722
0.000137752
0.000186136
0.000123622
0.000184345
0.000110005
0.00018007
9.64649e-05
0.000174226
8.17534e-05
0.000167204
6.66803e-05
0.000158745
5.21651e-05
0.000148277
3.90314e-05
0.000135605
2.65691e-05
0.00012074
1.42802e-05
0.000103366
2.02565e-06
-1.14723e-05
8.32497e-05
5.98432e-05
0.000316811
0.000113379
0.000436357
0.000150766
0.000380063
0.000156183
0.000284462
0.000157142
0.000217942
0.000164241
0.000189114
0.000171742
0.000178134
0.000181679
0.000165688
0.00019334
0.00015464
0.000200825
0.000152026
0.000206959
0.000144361
0.000213296
0.000131415
0.000218909
0.00011801
0.000221052
0.000107861
0.000219243
9.82739e-05
0.000216183
8.48143e-05
0.000212293
7.05695e-05
0.000207029
5.74295e-05
0.000199203
4.68576e-05
0.000189117
3.66545e-05
0.000177025
2.63728e-05
0.000162287
1.67631e-05
6.6543e-06
0.000144161
6.4578e-05
0.000252233
0.000116104
0.000384831
0.000143409
0.000352758
0.000145487
0.000282384
0.000140209
0.00022322
0.000142805
0.000186517
0.0001543
0.000166639
0.000166966
0.000153021
0.000179018
0.000142588
0.00019533
0.000135713
0.000212543
0.000127148
0.000228978
0.00011498
0.000243075
0.000103913
0.000251671
9.9265e-05
0.000253336
9.66089e-05
0.000254826
8.33244e-05
0.000255892
6.9503e-05
0.000255949
5.73727e-05
0.000251163
5.16441e-05
0.000244065
4.37522e-05
0.00023605
3.43873e-05
0.000226225
2.65887e-05
2.02131e-05
0.000212666
6.18337e-05
0.000190399
0.000118825
0.000327839
0.000150689
0.000320894
0.000162738
0.000270335
0.000165178
0.00022078
0.000167112
0.000184583
0.000173081
0.000160671
0.000181842
0.00014426
0.000192778
0.000131652
0.000208246
0.000120246
0.000224546
0.000110848
0.000238007
0.00010152
0.000249473
9.24476e-05
0.000259843
8.88951e-05
0.000273637
8.28149e-05
0.000286177
7.0784e-05
0.000294595
6.10852e-05
0.000303128
4.88391e-05
0.00030147
5.33023e-05
0.000297631
4.75911e-05
0.0002949
3.71183e-05
0.000292097
2.93917e-05
2.48542e-05
0.000287456
5.34752e-05
0.000136924
0.000112469
0.000268845
0.00015157
0.000281794
0.000172933
0.000248972
0.000184026
0.000209687
0.00019128
0.000177329
0.0001984
0.000153551
0.000206562
0.000136097
0.000215876
0.000122339
0.000225953
0.000110169
0.000237754
9.90469e-05
0.000250275
8.8998e-05
0.000263004
7.97191e-05
0.000281771
7.01277e-05
0.000301178
6.34086e-05
0.000315005
5.69563e-05
0.000325773
5.03181e-05
0.000329812
4.47992e-05
0.000334703
4.84119e-05
0.000340947
4.13468e-05
0.000346626
3.1439e-05
0.00035129
2.47281e-05
2.15773e-05
0.000354567
4.38607e-05
9.30634e-05
9.99356e-05
0.00021277
0.000143435
0.000238294
0.000172472
0.000219935
0.000191568
0.000190591
0.000205332
0.000163565
0.000216953
0.00014193
0.000228184
0.000124867
0.000239699
0.000110823
0.000251243
9.86255e-05
0.000262727
8.75626e-05
0.000274343
7.73825e-05
0.000286315
6.77465e-05
0.000298445
5.79979e-05
0.00031153
5.03234e-05
0.000323903
4.45834e-05
0.000335573
3.86489e-05
0.000348223
3.21492e-05