/*--------------------------------*- C++ -*----------------------------------*\
  =========                 |
  \\      /  F ield         | OpenFOAM: The Open Source CFD Toolbox
   \\    /   O peration     | Website:  https://openfoam.org
    \\  /    A nd           | Version:  9
     \\/     M anipulation  |
\*---------------------------------------------------------------------------*/
FoamFile
{
    format      ascii;
    class       volScalarField;
    location    "0.16";
    object      k;
}
// * * * * * * * * * * * * * * * * * * * * * * * * * * * * * * * * * * * * * //

dimensions      [0 2 -2 0 0 0 0];

internalField   nonuniform List<scalar> 
12225
(
0.353921
0.335043
0.316966
0.300961
0.288126
0.278907
0.273299
0.271004
0.271568
0.274473
0.279206
0.285296
0.292339
0.299998
0.308018
0.316185
0.324547
0.33666
0.436864
0.448979
0.438085
0.433062
0.43879
0.45359
0.474807
0.49999
0.527152
0.554808
0.581929
0.607851
0.632197
0.654789
0.675739
0.694943
0.714509
0.729847
0.395187
0.410874
0.410631
0.405747
0.402011
0.400925
0.402616
0.40681
0.413086
0.420984
0.430073
0.439972
0.450371
0.461027
0.471801
0.482583
0.493665
0.504411
0.379641
0.38484
0.386546
0.38573
0.383905
0.382026
0.380567
0.37974
0.379607
0.380149
0.381304
0.382989
0.385123
0.38763
0.390459
0.393576
0.397
0.400631
0.374976
0.3759
0.376239
0.375721
0.37457
0.373084
0.371496
0.369967
0.368593
0.367426
0.366485
0.365769
0.365269
0.36497
0.36486
0.364929
0.365174
0.365563
0.373488
0.372555
0.371759
0.370807
0.369631
0.368275
0.366809
0.3653
0.363803
0.362358
0.36099
0.359713
0.358537
0.357462
0.356489
0.355618
0.354849
0.354175
0.373012
0.371296
0.369813
0.368416
0.367025
0.36561
0.364168
0.362711
0.361257
0.359823
0.358425
0.357072
0.355773
0.354532
0.353353
0.352239
0.351191
0.350216
0.372865
0.370838
0.369004
0.36731
0.365711
0.364174
0.362679
0.361216
0.359782
0.358381
0.357014
0.355686
0.354401
0.35316
0.351965
0.35082
0.349726
0.348694
0.37282
0.37068
0.368691
0.366836
0.365095
0.363448
0.36188
0.360375
0.358928
0.35753
0.356181
0.354878
0.35362
0.352407
0.351239
0.350116
0.349039
0.34802
0.372806
0.370628
0.368578
0.366648
0.364829
0.36311
0.361482
0.359934
0.358457
0.357045
0.355692
0.354396
0.353151
0.351957
0.35081
0.34971
0.348657
0.347661
0.372801
0.370609
0.368537
0.366576
0.36472
0.362964
0.361299
0.359718
0.358215
0.356784
0.35542
0.354117
0.352873
0.351683
0.350545
0.349457
0.348418
0.347437
0.372799
0.370602
0.368522
0.36655
0.36468
0.362907
0.361224
0.359627
0.358108
0.356663
0.355288
0.353977
0.352728
0.351536
0.350398
0.349313
0.348277
0.347302
0.372797
0.370599
0.368514
0.366537
0.36466
0.362879
0.361188
0.359581
0.358053
0.356599
0.355216
0.353898
0.352643
0.351447
0.350307
0.349219
0.348183
0.347208
0.372796
0.370596
0.368509
0.366528
0.364649
0.362864
0.361167
0.359555
0.358021
0.356562
0.355173
0.353851
0.352591
0.351391
0.350247
0.349156
0.348117
0.34714
0.372795
0.370593
0.368505
0.366523
0.364641
0.362853
0.361154
0.359539
0.358002
0.35654
0.355148
0.353822
0.352559
0.351356
0.350209
0.349115
0.348074
0.347093
0.372794
0.370592
0.368502
0.366518
0.364634
0.362845
0.361145
0.359527
0.357989
0.356525
0.355131
0.353803
0.352538
0.351333
0.350183
0.349088
0.348044
0.347061
0.372794
0.37059
0.368499
0.366515
0.36463
0.362839
0.361137
0.359519
0.357979
0.356513
0.355118
0.353789
0.352523
0.351316
0.350165
0.349067
0.348021
0.347037
0.372794
0.370589
0.368498
0.366512
0.364627
0.362835
0.361132
0.359513
0.357972
0.356506
0.355109
0.353779
0.352512
0.351303
0.350151
0.349052
0.348005
0.34702
0.372793
0.370589
0.368497
0.366512
0.364626
0.362834
0.361131
0.359511
0.35797
0.356503
0.355106
0.353775
0.352507
0.351298
0.350145
0.349045
0.347997
0.347011
0.372794
0.37059
0.368498
0.366513
0.364628
0.362836
0.361133
0.359514
0.357973
0.356506
0.35511
0.353779
0.352511
0.351302
0.35015
0.34905
0.348002
0.347016
0.372794
0.370591
0.3685
0.366516
0.364632
0.362841
0.36114
0.359522
0.357983
0.356517
0.355122
0.353793
0.352527
0.351319
0.350168
0.34907
0.348024
0.347038
0.372795
0.370593
0.368504
0.366522
0.364641
0.362855
0.361159
0.359546
0.358012
0.356552
0.355163
0.35384
0.352578
0.351376
0.350229
0.349135
0.348092
0.347109
0.372796
0.370598
0.368518
0.366547
0.364681
0.362913
0.361235
0.359642
0.358127
0.356685
0.355312
0.354001
0.352751
0.351557
0.350416
0.349325
0.348283
0.347299
0.372804
0.370631
0.368592
0.366676
0.364872
0.363166
0.361548
0.360006
0.358532
0.357121
0.355767
0.354468
0.353219
0.35202
0.350868
0.349762
0.348702
0.347698
0.372856
0.370818
0.368973
0.367264
0.365645
0.364085
0.362567
0.361083
0.359631
0.358213
0.356833
0.355493
0.354197
0.352947
0.351744
0.350591
0.349487
0.348446
0.373166
0.37177
0.370579
0.369371
0.368049
0.366605
0.365072
0.363492
0.361906
0.360343
0.358826
0.357372
0.355991
0.354689
0.353468
0.352329
0.351272
0.350303
0.374797
0.375829
0.376175
0.375401
0.373834
0.371876
0.369792
0.36774
0.365814
0.364066
0.362524
0.361194
0.360075
0.359156
0.358423
0.357862
0.357455
0.357188
0.382729
0.39167
0.392375
0.388805
0.384384
0.380403
0.377247
0.374997
0.37362
0.373037
0.373151
0.373863
0.37508
0.376711
0.378679
0.380915
0.383356
0.385935
0.407499
0.414514
0.405423
0.395992
0.390554
0.38929
0.391453
0.396211
0.40283
0.410718
0.419423
0.428606
0.438012
0.447452
0.456793
0.465938
0.474843
0.483421
0.360554
0.347547
0.334933
0.322917
0.311965
0.302353
0.29419
0.28747
0.282114
0.278003
0.275
0.272965
0.271764
0.271271
0.271373
0.271968
0.272969
0.274295
0.00137647
0.00676402
0.0108966
0.0147499
0.0190082
0.0237696
0.0291137
0.0351217
0.0414507
0.0478627
0.0543228
0.0607772
0.0671765
0.0734815
0.079662
0.085694
0.091557
0.0972323
0.102701
0.107944
0.112939
0.117665
0.122097
0.126205
0.129956
0.133306
0.136202
0.138588
0.140424
0.141737
0.142652
0.143302
0.143608
0.143419
0.143384
0.143215
0.142778
0.143777
0.144163
0.143915
0.144089
0.147743
0.150184
0.156659
0.163443
0.170459
0.17768
0.185093
0.192689
0.200463
0.208409
0.216525
0.22481
0.23326
0.241874
0.25065
0.259585
0.268677
0.277923
0.28732
0.296864
0.306552
0.316379
0.32634
0.336431
0.346646
0.356979
0.367425
0.377976
0.388627
0.39937
0.410197
0.421102
0.432076
0.443111
0.454199
0.465331
0.476498
0.487692
0.498904
0.510125
0.521345
0.532555
0.543746
0.554908
0.566032
0.577108
0.588127
0.599077
0.609951
0.620736
0.631423
0.642002
0.652463
0.662795
0.672994
0.683054
0.692982
0.702795
0.712542
0.722111
0.731458
0.740586
0.749488
0.758155
0.766576
0.77474
0.782636
0.790253
0.797581
0.80461
0.811329
0.817731
0.823805
0.829543
0.834938
0.839982
0.844668
0.848991
0.852944
0.856522
0.859721
0.862538
0.864968
0.86701
0.868661
0.869921
0.870789
0.871264
0.871348
0.871042
0.870348
0.86927
0.867811
0.865975
0.863767
0.861193
0.858258
0.85497
0.851336
0.847365
0.843064
0.838443
0.833511
0.828279
0.822758
0.816958
0.81089
0.804567
0.798001
0.791203
0.784188
0.776966
0.769553
0.76196
0.754203
0.746292
0.738238
0.730066
0.721776
0.713396
0.704934
0.69639
0.687865
0.679555
0.67412
0.670515
0.666983
0.663437
0.659871
0.656289
0.652689
0.649063
0.645391
0.641628
0.637672
0.633291
0.627884
0.61995
0.603177
0.00460037
0.0167584
0.0246578
0.0310904
0.0369895
0.0428263
0.0488789
0.0552299
0.0618318
0.0685965
0.075445
0.0823124
0.0891486
0.0959173
0.102593
0.109158
0.115598
0.121905
0.12807
0.134085
0.139946
0.145647
0.151182
0.156546
0.161731
0.166727
0.171528
0.176143
0.180625
0.185101
0.189724
0.194566
0.199659
0.205175
0.211261
0.21792
0.225319
0.233029
0.241469
0.250219
0.261015
0.271843
0.284074
0.295402
0.306807
0.318591
0.33075
0.343258
0.356102
0.369271
0.38276
0.396568
0.410692
0.425132
0.439887
0.454957
0.470341
0.486037
0.502043
0.518358
0.534979
0.551903
0.569124
0.58664
0.604445
0.622533
0.640897
0.659531
0.678425
0.697573
0.716964
0.736588
0.756436
0.776495
0.796755
0.817203
0.837826
0.858611
0.879545
0.900614
0.921803
0.943097
0.964482
0.985942
1.00746
1.02903
1.05062
1.07223
1.09383
1.11541
1.13695
1.15844
1.17986
1.20119
1.22241
1.24351
1.26445
1.28523
1.30582
1.32601
1.34584
1.36539
1.38464
1.40359
1.4222
1.44047
1.45836
1.47586
1.49294
1.50959
1.52577
1.54147
1.55668
1.57136
1.58551
1.5991
1.61211
1.62454
1.63636
1.64756
1.65812
1.66804
1.6773
1.68589
1.6938
1.70102
1.70755
1.71338
1.7185
1.72292
1.72661
1.7296
1.73187
1.73343
1.73428
1.73443
1.73387
1.73262
1.73068
1.72807
1.72478
1.72084
1.71626
1.71104
1.70521
1.69877
1.69175
1.68417
1.67604
1.66738
1.65821
1.64855
1.63843
1.62786
1.61687
1.60549
1.59373
1.58161
1.56919
1.55644
1.54344
1.53019
1.51665
1.50308
1.48948
1.47631
1.46343
1.45052
1.43756
1.42455
1.41151
1.39845
1.38539
1.37232
1.35922
1.34605
1.33268
1.31897
1.30371
1.28402
0.00880129
0.0265995
0.0368207
0.04452
0.051349
0.0579431
0.0645899
0.0714082
0.0784149
0.0855738
0.0928303
0.100131
0.107432
0.114701
0.121917
0.12907
0.136153
0.143167
0.150115
0.157003
0.163841
0.170642
0.177422
0.184199
0.190996
0.197842
0.204775
0.211851
0.219148
0.226764
0.234786
0.243254
0.252192
0.261656
0.271673
0.282262
0.293447
0.305242
0.317693
0.330757
0.344475
0.358657
0.373215
0.387991
0.403095
0.418602
0.434527
0.450868
0.467621
0.48478
0.50234
0.520301
0.538658
0.557411
0.576558
0.596096
0.616024
0.636338
0.657037
0.678116
0.699571
0.721397
0.743589
0.766141
0.789045
0.812293
0.835877
0.859787
0.884014
0.908545
0.93337
0.958476
0.983849
1.00947
1.03534
1.06143
1.08772
1.11421
1.14086
1.16768
1.19463
1.2217
1.24887
1.27612
1.30344
1.33079
1.35817
1.38555
1.41292
1.44024
1.4675
1.49469
1.52178
1.54874
1.57557
1.60224
1.62872
1.65501
1.68104
1.70669
1.732
1.75695
1.78154
1.80574
1.82951
1.85284
1.87568
1.89802
1.91982
1.94106
1.96171
1.98175
2.00114
2.01986
2.03789
2.05521
2.07179
2.08761
2.10265
2.11689
2.13032
2.14291
2.15466
2.16555
2.17556
2.1847
2.19294
2.20028
2.20671
2.21223
2.21683
2.22052
2.2233
2.22516
2.2261
2.22615
2.22529
2.22354
2.22091
2.21741
2.21306
2.20786
2.20184
2.195
2.18738
2.17899
2.16985
2.15998
2.14941
2.13816
2.12626
2.11374
2.10061
2.08692
2.07269
2.05795
2.04273
2.02703
2.01096
1.99445
1.97764
1.96057
1.94323
1.92573
1.90814
1.89069
1.87333
1.85594
1.83849
1.82099
1.80347
1.78595
1.76846
1.75102
1.73365
1.71638
1.69919
1.68218
1.6648
1.64673
0.0134013
0.0355446
0.0475341
0.0562968
0.063907
0.0710936
0.0781948
0.0853722
0.0926869
0.100141
0.107709
0.115353
0.12304
0.130745
0.13845
0.146149
0.153843
0.161537
0.169245
0.176982
0.184768
0.192628
0.20059
0.208685
0.216951
0.225427
0.234163
0.243213
0.252641
0.26251
0.272872
0.283758
0.295185
0.307179
0.319757
0.33293
0.346705
0.361083
0.376058
0.391605
0.407691
0.424261
0.441258
0.458652
0.476456
0.494691
0.513372
0.532505
0.552093
0.572135
0.592632
0.613583
0.634988
0.656846
0.679155
0.701915
0.725123
0.748778
0.772877
0.797417
0.822392
0.847799
0.873632
0.899883
0.926547
0.953614
0.981075
1.00892
1.03714
1.06571
1.09464
1.12389
1.15347
1.18334
1.2135
1.24393
1.2746
1.3055
1.33661
1.36791
1.39937
1.43098
1.46271
1.49454
1.52644
1.5584
1.59038
1.62237
1.65435
1.68628
1.71814
1.74992
1.78158
1.81311
1.84448
1.87566
1.90665
1.93741
1.9678
1.99781
2.02744
2.05666
2.08545
2.11377
2.14159
2.16887
2.19559
2.2217
2.24718
2.27198
2.29609
2.31947
2.34208
2.36389
2.38489
2.40504
2.42431
2.44268
2.46013
2.47663
2.49217
2.50672
2.52026
2.53279
2.54429
2.55474
2.56414
2.57247
2.57973
2.58592
2.59102
2.59505
2.59799
2.59986
2.60066
2.60038
2.59906
2.59668
2.59327
2.58883
2.58339
2.57697
2.56957
2.56123
2.55196
2.54179
2.53074
2.51885
2.50613
2.49262
2.47835
2.46334
2.44764
2.43129
2.41429
2.3967
2.37857
2.35983
2.34072
2.32118
2.30127
2.28104
2.26051
2.23976
2.21887
2.19797
2.17708
2.15613
2.13513
2.11409
2.09305
2.07204
2.0511
2.03029
2.00966
1.98931
1.96933
1.94995
1.93103
1.91277
0.0177608
0.0433607
0.0568924
0.0666532
0.0749735
0.0826807
0.0901668
0.0976353
0.105186
0.112855
0.120644
0.128538
0.136517
0.144563
0.152665
0.160823
0.169039
0.177326
0.185701
0.194185
0.202806
0.211593
0.22058
0.229805
0.239307
0.249129
0.259317
0.269919
0.280982
0.29255
0.30466
0.317333
0.330585
0.344427
0.358867
0.373907
0.389547
0.405777
0.422588
0.439961
0.457874
0.476302
0.495219
0.514609
0.534473
0.554818
0.575651
0.59698
0.618809
0.641142
0.663981
0.687328
0.711184
0.735552
0.760431
0.785821
0.811722
0.838134
0.865054
0.89248
0.920409
0.948836
0.977756
1.00716
1.03705
1.06741
1.09823
1.1295
1.16121
1.19335
1.2259
1.25884
1.29216
1.32584
1.35986
1.39421
1.42885
1.46377
1.49894
1.53435
1.56995
1.60574
1.64167
1.67774
1.7139
1.75013
1.78641
1.8227
1.85898
1.89522
1.9314
1.96748
2.00343
2.03924
2.07487
2.11029
2.14547
2.18037
2.21486
2.24892
2.28254
2.3157
2.34836
2.38048
2.41202
2.44294
2.47321
2.50279
2.53163
2.55969
2.58695
2.61337
2.63891
2.66353
2.68721
2.70991
2.7316
2.75226
2.77185
2.79036
2.80776
2.82403
2.83914
2.85309
2.86586
2.87742
2.88779
2.89693
2.90485
2.91153
2.91699
2.92121
2.9242
2.92596
2.9265
2.92583
2.92395
2.92089
2.91664
2.91124
2.9047
2.89703
2.88827
2.87844
2.86755
2.85565
2.84276
2.82891
2.81413
2.79846
2.78193
2.76457
2.74643
2.72756
2.70795
2.68768
2.66684
2.64541
2.6235
2.60112
2.57831
2.55514
2.53163
2.50787
2.48391
2.45986
2.43575
2.41157
2.38734
2.36307
2.33883
2.31465
2.2906
2.26676
2.24321
2.22012
2.19764
2.1761
2.15549
2.13602
0.0215981
0.0499929
0.0649133
0.0755827
0.0845522
0.0927326
0.100563
0.108282
0.116021
0.123849
0.131792
0.139857
0.14804
0.156334
0.164736
0.17325
0.181883
0.190651
0.199575
0.208678
0.217991
0.227547
0.23738
0.247529
0.258032
0.268931
0.280265
0.292073
0.304392
0.317255
0.330686
0.344704
0.359319
0.374539
0.390366
0.4068
0.423837
0.441471
0.459692
0.47849
0.497852
0.517765
0.538218
0.559203
0.580718
0.602767
0.625356
0.648491
0.672178
0.696423
0.72123
0.746605
0.772549
0.799069
0.826164
0.853839
0.882094
0.910931
0.940348
0.970346
1.00092
1.03207
1.06379
1.09608
1.12892
1.16232
1.19625
1.23071
1.26569
1.30118
1.33715
1.37359
1.41047
1.44779
1.48552
1.52364
1.56211
1.60092
1.64003
1.67943
1.71908
1.75894
1.799
1.83921
1.87955
1.91999
1.96049
2.00102
2.04155
2.08205
2.12247
2.1628
2.203
2.24303
2.28286
2.32246
2.3618
2.40074
2.43923
2.47726
2.5148
2.5518
2.58824
2.62406
2.65922
2.69369
2.72741
2.76034
2.79243
2.82366
2.85396
2.88331
2.91165
2.93897
2.96521
2.99035
3.01435
3.03718
3.0588
3.0792
3.09834
3.11621
3.13278
3.14803
3.16195
3.17453
3.18574
3.19559
3.20406
3.21116
3.21687
3.22119
3.22414
3.22572
3.22593
3.22478
3.22229
3.21847
3.21334
3.20692
3.19923
3.19029
3.18014
3.16879
3.15627
3.14263
3.1279
3.1121
3.09526
3.07745
3.0587
3.03902
3.01846
2.99714
2.97505
2.95224
2.92878
2.9047
2.88007
2.85492
2.8293
2.80327
2.77688
2.75019
2.72327
2.69619
2.66901
2.64174
2.61441
2.58708
2.55978
2.53258
2.50557
2.47884
2.45253
2.42681
2.40191
2.37817
2.35559
2.33431
0.0248002
0.0555318
0.071627
0.0830836
0.092625
0.101226
0.109362
0.117299
0.125194
0.13314
0.141188
0.149363
0.157678
0.16614
0.174753
0.183526
0.192473
0.201612
0.210964
0.220556
0.23042
0.240586
0.251091
0.261969
0.273258
0.284993
0.297209
0.309937
0.323207
0.337044
0.351467
0.36649
0.382122
0.39837
0.415236
0.432719
0.450819
0.46953
0.488849
0.50877
0.529287
0.550395
0.57209
0.59437
0.617236
0.640691
0.664741
0.689395
0.714659
0.740541
0.767047
0.794186
0.821963
0.850385
0.879455
0.90918
0.939563
0.970606
1.00231
1.03468
1.06771
1.1014
1.13575
1.17076
1.20641
1.2427
1.27962
1.31715
1.35529
1.39403
1.43333
1.47319
1.51358
1.55448
1.59586
1.6377
1.67998
1.72265
1.76569
1.80907
1.85275
1.8967
1.94088
1.98526
2.02979
2.07445
2.11919
2.16398
2.20878
2.25355
2.29825
2.34285
2.38731
2.43158
2.47563
2.51941
2.56288
2.60588
2.64838
2.69036
2.73179
2.77262
2.81281
2.85231
2.89106
2.92903
2.96616
3.0024
3.0377
3.07202
3.10531
3.13752
3.16862
3.19856
3.22729
3.25479
3.28102
3.30593
3.32951
3.35171
3.37251
3.39189
3.40982
3.42629
3.44128
3.45477
3.46676
3.47722
3.48617
3.49358
3.49946
3.50381
3.50664
3.50795
3.50775
3.50606
3.5029
3.49826
3.49219
3.4847
3.4758
3.46555
3.45397
3.44107
3.42689
3.41148
3.39489
3.37713
3.35822
3.33826
3.3173
3.29536
3.27248
3.24875
3.22419
3.19886
3.17282
3.14611
3.11879
3.09092
3.06253
3.0337
3.00447
2.97491
2.94508
2.91505
2.88488
2.85461
2.82428
2.79395
2.76368
2.73356
2.70367
2.67414
2.64512
2.61682
2.58949
2.56343
2.53865
2.5152
0.0274292
0.0600299
0.0770752
0.0891813
0.0992026
0.108162
0.116559
0.12468
0.132701
0.140733
0.148848
0.157087
0.165479
0.174042
0.182791
0.19174
0.200907
0.210314
0.219983
0.229941
0.24022
0.250849
0.261861
0.27329
0.285168
0.297526
0.310395
0.3238
0.337766
0.352314
0.367459
0.383215
0.399591
0.416592
0.434224
0.452488
0.471385
0.490917
0.511081
0.531879
0.55331
0.575374
0.598072
0.621407
0.645384
0.670008
0.695289
0.721233
0.747853
0.775157
0.803155
0.831857
0.861272
0.891409
0.922276
0.95388
0.986228
1.01932
1.05317
1.08778
1.12314
1.15926
1.19613
1.23375
1.27212
1.31123
1.35106
1.39162
1.43287
1.47481
1.51742
1.56067
1.60455
1.64902
1.69406
1.73964
1.78573
1.83228
1.87928
1.92667
1.97442
2.02248
2.07083
2.1194
2.16817
2.21709
2.26612
2.3152
2.36431
2.41339
2.4624
2.5113
2.56004
2.60858
2.65687
2.70488
2.75245
2.7995
2.846
2.89193
2.93724
2.98188
3.0258
3.06894
3.11125
3.15268
3.19317
3.23266
3.27111
3.30846
3.34467
3.37967
3.41344
3.44592
3.47707
3.50684
3.53521
3.56212
3.58755
3.61146
3.63382
3.65462
3.67382
3.6914
3.70736
3.72167
3.73433
3.74532
3.75464
3.76228
3.76824
3.77253
3.77516
3.77613
3.77545
3.77315
3.76923
3.76372
3.75665
3.74803
3.73788
3.72627
3.71321
3.69874
3.68286
3.66565
3.64719
3.62748
3.60655
3.58449
3.56135
3.53715
3.51197
3.48585
3.45885
3.43103
3.40243
3.37312
3.34316
3.3126
3.28149
3.2499
3.21788
3.18549
3.15281
3.11989
3.08681
3.05361
3.02036
2.98711
2.95395
2.92097
2.88827
2.85599
2.82431
2.79344
2.76363
2.73517
2.70801
2.68217
0.0294911
0.0635397
0.0813181
0.0939322
0.104333
0.113579
0.122186
0.130453
0.138568
0.146658
0.154808
0.163075
0.1715
0.180111
0.188932
0.197985
0.20729
0.216873
0.226756
0.236967
0.247535
0.258489
0.269858
0.281674
0.293964
0.306757
0.320079
0.333952
0.348398
0.363435
0.379079
0.395341
0.412234
0.429763
0.447937
0.466761
0.48624
0.506378
0.527179
0.548647
0.570789
0.593608
0.61711
0.641304
0.666197
0.691799
0.718121
0.745175
0.772974
0.80153
0.830856
0.860966
0.891872
0.923585
0.956116
0.989476
1.02367
1.05872
1.09461
1.13137
1.16898
1.20745
1.24679
1.28698
1.32802
1.36991
1.41264
1.45618
1.50054
1.54568
1.5916
1.63826
1.68563
1.7337
1.78242
1.83177
1.8817
1.93217
1.98315
2.0346
2.08645
2.13867
2.19122
2.24403
2.29707
2.35028
2.40361
2.45702
2.51045
2.56386
2.61719
2.6704
2.72343
2.77623
2.82876
2.88094
2.93258
2.98365
3.03412
3.08395
3.13308
3.18147
3.22905
3.27576
3.32155
3.36635
3.41011
3.45276
3.49425
3.53452
3.57353
3.61122
3.64753
3.68243
3.71586
3.74779
3.77816
3.80695
3.8341
3.85959
3.88339
3.90547
3.92581
3.94439
3.96119
3.97621
3.98942
4.00082
4.0104
4.01816
4.0241
4.02824
4.03057
4.03111
4.02987
4.02687
4.02214
4.01569
4.00756
3.99776
3.98631
3.97329
3.95874
3.94267
3.92512
3.90616
3.88583
3.86418
3.84126
3.81711
3.79181
3.76539
3.73792
3.70946
3.68006
3.64978
3.61869
3.58683
3.55428
3.52109
3.48732
3.45304
3.41829
3.38316
3.34769
3.31197
3.27606
3.24002
3.20393
3.16786
3.13189
3.09612
3.06068
3.02572
2.99142
2.95799
2.92569
2.89476
2.86509
2.83675
0.0310072
0.0661295
0.0844382
0.0974231
0.108103
0.117559
0.126318
0.134687
0.142864
0.150982
0.159138
0.167401
0.17582
0.184434
0.193275
0.202368
0.21174
0.221415
0.231419
0.241779
0.252521
0.263673
0.275263
0.287317
0.299863
0.312924
0.326524
0.340684
0.355426
0.370764
0.386717
0.403297
0.420516
0.438386
0.456917
0.476117
0.495996
0.516562
0.537825
0.559793
0.582477
0.605886
0.630031
0.654924
0.680577
0.707006
0.734223
0.762246
0.79109
0.820772
0.851307
0.882713
0.915006
0.9482
0.982309
1.01735
1.05333
1.09026
1.12815
1.16701
1.20684
1.24764
1.28942
1.33217
1.37588
1.42056
1.46618
1.51274
1.56022
1.60859
1.65784
1.70793
1.75884
1.81053
1.86297
1.91612
1.96993
2.02436
2.07936
2.13488
2.19087
2.24727
2.30403
2.36109
2.41839
2.47589
2.53352
2.59123
2.64897
2.70667
2.76428
2.82176
2.87903
2.93605
2.99277
3.04896
3.10458
3.15957
3.21389
3.2675
3.32034
3.37235
3.42345
3.4736
3.52271
3.57072
3.61758
3.66322
3.70758
3.7506
3.79223
3.83241
3.87109
3.90822
3.94375
3.97764
4.00984
4.04032
4.06902
4.09591
4.12096
4.14416
4.16546
4.18487
4.20236
4.21792
4.23154
4.24322
4.25293
4.26068
4.26648
4.27034
4.27227
4.27228
4.27039
4.26661
4.26099
4.25354
4.2443
4.23329
4.22054
4.20612
4.19007
4.17241
4.1532
4.13249
4.11033
4.08677
4.06187
4.03568
4.00827
3.97969
3.94999
3.91925
3.88752
3.85487
3.82135
3.78703
3.75198
3.71625
3.67992
3.64303
3.60566
3.56787
3.52973
3.49132
3.45269
3.41393
3.37511
3.33632
3.29765
3.2592
3.22111
3.18354
3.14668
3.11074
3.07595
3.04251
3.01031
2.97942
0.0320144
0.0678829
0.0865382
0.0997654
0.110626
0.120216
0.129067
0.137492
0.145691
0.153805
0.161938
0.170166
0.178546
0.187124
0.195936
0.205014
0.214387
0.22408
0.234121
0.244534
0.255347
0.266584
0.278271
0.290433
0.303094
0.316278
0.330007
0.344301
0.35918
0.374663
0.390765
0.407504
0.424894
0.44295
0.461684
0.481111
0.501243
0.522095
0.543681
0.566013
0.589108
0.61298
0.637645
0.66312
0.689423
0.716571
0.744585
0.773484
0.803288
0.834018
0.865695
0.898338
0.931967
0.9666
1.00226
1.03895
1.0767
1.11551
1.1554
1.19638
1.23844
1.2816
1.32585
1.37119
1.41762
1.46512
1.51369
1.56331
1.61395
1.66561
1.71824
1.77181
1.8263
1.88166
1.93785
1.99483
2.05255
2.11095
2.16998
2.22958
2.2897
2.35026
2.41121
2.47248
2.534
2.59573
2.65759
2.71952
2.78146
2.84336
2.90514
2.96676
3.02815
3.08926
3.14991
3.20996
3.26936
3.32808
3.38606
3.44324
3.49956
3.55496
3.60936
3.66269
3.71488
3.76585
3.81555
3.86392
3.91088
3.95638
4.00036
4.04277
4.08354
4.12264
4.16
4.1956
4.22937
4.2613
4.2913
4.31935
4.34542
4.3695
4.39156
4.41158
4.42955
4.44547
4.45931
4.47109
4.48077
4.48836
4.49387
4.49733
4.49874
4.49812
4.49549
4.49088
4.48431
4.47581
4.46543
4.45319
4.43913
4.4233
4.40576
4.38653
4.36568
4.34325
4.3193
4.2939
4.26708
4.23892
4.20948
4.17881
4.14699
4.11406
4.08011
4.04519
4.00937
3.97271
3.93528
3.89714
3.85837
3.81902
3.77916
3.73887
3.6982
3.65723
3.61604
3.5747
3.53331
3.49194
3.45069
3.4097
3.36908
3.32902
3.28968
3.2513
3.21406
3.17816
3.14344
3.11003
0.0325629
0.0688954
0.0877345
0.101088
0.112038
0.121687
0.13057
0.139
0.147181
0.155257
0.163336
0.171497
0.179805
0.188309
0.19705
0.206063
0.215378
0.225023
0.235024
0.245407
0.256197
0.267418
0.279095
0.29125
0.303909
0.317093
0.330824
0.345123
0.360012
0.375509
0.391635
0.408407
0.425844
0.443965
0.462786
0.482327
0.502606
0.523642
0.545453
0.568059
0.59148
0.615737
0.640851
0.666845
0.693741
0.721562
0.750333
0.780078
0.810823
0.842591
0.875408
0.909297
0.944282
0.980385
1.01763
1.05603
1.0956
1.13636
1.17833
1.2215
1.26588
1.31148
1.35829
1.40632
1.45555
1.50598
1.55758
1.61034
1.66424
1.71924
1.77532
1.83244
1.89055
1.94962
2.00959
2.07041
2.13203
2.19439
2.25742
2.32107
2.38525
2.4499
2.51495
2.58031
2.64593
2.71174
2.77766
2.84364
2.9096
2.97549
3.04124
3.10678
3.17205
3.23693
3.30119
3.36479
3.42768
3.48981
3.55111
3.61152
3.67098
3.72941
3.78676
3.84292
3.89781
3.95137
4.00354
4.05425
4.10344
4.15104
4.19701
4.24127
4.28378
4.32448
4.36332
4.40027
4.43529
4.46835
4.49933
4.52823
4.55502
4.5797
4.60223
4.62261
4.64081
4.65684
4.67069
4.68235
4.6918
4.69907
4.70416
4.70709
4.70787
4.70652
4.70307
4.69754
4.68997
4.68039
4.66884
4.65536
4.63998
4.62276
4.60375
4.58299
4.56055
4.53646
4.51081
4.48363
4.455
4.42497
4.39361
4.36099
4.32716
4.2922
4.25616
4.21913
4.18116
4.14232
4.10269
4.06232
4.02129
3.97966
3.9375
3.89488
3.85186
3.80853
3.76497
3.72125
3.67746
3.63369
3.59006
3.54669
3.50371
3.46129
3.41961
3.37889
3.33931
3.30102
3.26386
3.228
0.0327132
0.0692699
0.0881518
0.101529
0.112484
0.122122
0.130978
0.139364
0.147485
0.155486
0.163476
0.17154
0.179743
0.188138
0.196768
0.20567
0.214875
0.224412
0.234307
0.244587
0.255274
0.266394
0.27797
0.290026
0.302585
0.31567
0.329304
0.343511
0.358311
0.373728
0.389785
0.406503
0.423905
0.442014
0.460852
0.480444
0.500812
0.521983
0.54398
0.56683
0.590558
0.615192
0.640757
0.667282
0.694794
0.723324
0.752899
0.78355
0.815307
0.848197
0.88225
0.917493
0.953953
0.991655
1.03062
1.07087
1.11243
1.15531
1.19952
1.24506
1.29193
1.34014
1.38969
1.44056
1.49275
1.54625
1.60102
1.65705
1.71431
1.77276
1.83236
1.89307
1.95485
2.01764
2.08138
2.14602
2.21148
2.27772
2.34465
2.41221
2.48033
2.5489
2.61785
2.68709
2.75655
2.82617
2.89587
2.96559
3.03525
3.10479
3.17414
3.24325
3.31197
3.38008
3.44751
3.51422
3.58013
3.64519
3.70932
3.77247
3.83455
3.89552
3.95533
4.01382
4.0709
4.12653
4.18065
4.2332
4.28411
4.33332
4.38078
4.42641
4.47018
4.51202
4.55189
4.58975
4.62556
4.65928
4.69084
4.72022
4.74739
4.77233
4.79503
4.81547
4.83363
4.84952
4.86313
4.87446
4.8835
4.89026
4.89476
4.89701
4.89704
4.89486
4.8905
4.884
4.87538
4.86468
4.85194
4.83721
4.82054
4.80196
4.78153
4.75931
4.73535
4.70971
4.68245
4.65363
4.62331
4.59156
4.55844
4.52402
4.48837
4.45155
4.41364
4.37469
4.33479
4.29399
4.25237
4.21
4.16693
4.12325
4.07902
4.03431
3.98919
3.94374
3.89804
3.85217
3.80622
3.76029
3.7145
3.66895
3.62381
3.57922
3.53538
3.49249
3.4507
3.41016
3.3707
3.33253
0.032534
0.0691138
0.0879179
0.101229
0.112116
0.121679
0.130451
0.138744
0.146761
0.15465
0.162519
0.170453
0.17852
0.186772
0.195255
0.204005
0.213055
0.222434
0.232169
0.242285
0.252807
0.26376
0.275167
0.287054
0.299444
0.312363
0.325835
0.339887
0.354543
0.369831
0.385775
0.402404
0.419745
0.437826
0.456676
0.476324
0.496801
0.518139
0.54037
0.563526
0.58764
0.612745
0.638874
0.666058
0.694332
0.723731
0.754289
0.786041
0.81902
0.853258
0.888788
0.925638
0.963838
1.00341
1.04439
1.08678
1.13062
1.17591
1.22267
1.27088
1.32053
1.37163
1.42416
1.47813
1.5335
1.59026
1.64838
1.70783
1.76857
1.83055
1.89374
1.95807
2.0235
2.08996
2.15739
2.22572
2.29488
2.36479
2.43539
2.50661
2.57839
2.65057
2.72306
2.79578
2.86867
2.94166
3.01467
3.08763
3.16048
3.23315
3.30558
3.37761
3.44901
3.51973
3.5897
3.65886
3.72712
3.79444
3.86072
3.92591
3.98993
4.05272
4.1142
4.17427
4.23286
4.2899
4.34532
4.39907
4.45107
4.50127
4.54961
4.59603
4.64049
4.68292
4.72329
4.76154
4.79765
4.83157
4.86326
4.89268
4.91981
4.94464
4.96714
4.9873
5.00511
5.02057
5.03368
5.04443
5.05283
5.05889
5.06263
5.06406
5.0632
5.06009
5.05474
5.04719
5.03749
5.02566
5.01174
4.9958
4.97786
4.95799
4.93623
4.91265
4.88729
4.86022
4.83151
4.80121
4.76938
4.7361
4.70143
4.66544
4.62819
4.58976
4.55021
4.50961
4.46803
4.42554
4.38221
4.33811
4.2933
4.24786
4.20185
4.15535
4.10842
4.06114
4.01359
3.96586
3.91804
3.87022
3.82253
3.77508
3.72802
3.68151
3.63573
3.59086
3.54706
3.50447
3.46291
3.4226
0.0321001
0.0685337
0.0871577
0.100326
0.111079
0.120509
0.129146
0.137299
0.145173
0.152913
0.160629
0.168404
0.176304
0.184385
0.192689
0.201255
0.210115
0.219298
0.228833
0.238746
0.249062
0.259808
0.271009
0.282693
0.294886
0.307616
0.320912
0.334803
0.349321
0.364497
0.380362
0.396949
0.414292
0.432425
0.451385
0.471208
0.491935
0.513603
0.536254
0.55993
0.584671
0.61052
0.637508
0.665672
0.695051
0.725686
0.757617
0.79088
0.825513
0.861548
0.899019
0.937953
0.978377
1.02032
1.06379
1.10881
1.15541
1.20359
1.2534
1.30472
1.35757
1.41194
1.46781
1.52517
1.584
1.64425
1.7059
1.76889
1.83319
1.89874
1.96548
2.03335
2.10229
2.17223
2.2431
2.31482
2.38732
2.46051
2.53432
2.60866
2.68346
2.75859
2.83398
2.90953
2.98516
3.06082
3.13641
3.21188
3.28715
3.36219
3.43675
3.51068
3.58391
3.65637
3.72799
3.7987
3.86842
3.93708
4.00462
4.07096
4.13603
4.19975
4.26206
4.32288
4.38213
4.43975
4.49566
4.54981
4.60213
4.65257
4.70107
4.74758
4.79204
4.83441
4.87464
4.91269
4.94853
4.98211
5.01341
5.04238
5.06901
5.09328
5.11518
5.13469
5.1518
5.16651
5.17883
5.18875
5.19629
5.20144
5.20424
5.20471
5.20285
5.19871
5.19231
5.18369
5.17288
5.15992
5.14487
5.12777
5.10865
5.08759
5.06463
5.03983
5.01324
4.98493
4.95497
4.9234
4.89031
4.85575
4.81979
4.78249
4.74394
4.70419
4.66331
4.62137
4.57844
4.5346
4.4899
4.44441
4.39821
4.35136
4.30392
4.25597
4.20758
4.15883
4.10978
4.06054
4.01118
3.96182
3.91255
3.86351
3.81484
3.7667
3.71925
3.67268
3.62713
3.58272
3.5393
3.49709
0.0314627
0.0676015
0.0859526
0.0989067
0.109464
0.118705
0.127155
0.135123
0.142812
0.150366
0.157894
0.165478
0.173184
0.181064
0.189163
0.197518
0.206163
0.215129
0.224444
0.234138
0.24424
0.254777
0.26578
0.277281
0.28931
0.301901
0.315087
0.328907
0.343398
0.358601
0.374556
0.391302
0.408878
0.427329
0.446701
0.467041
0.488398
0.510822
0.534363
0.559074
0.585011
0.612242
0.640765
0.670613
0.701839
0.734488
0.768601
0.804215
0.841363
0.880075
0.920376
0.962287
1.00583
1.051
1.09783
1.14631
1.19645
1.24824
1.30166
1.35669
1.41328
1.47142
1.53106
1.59219
1.65475
1.7187
1.784
1.85059
1.9184
1.98739
2.05748
2.12861
2.2007
2.27369
2.34749
2.42203
2.49722
2.57298
2.64923
2.72589
2.80287
2.88007
2.95742
3.03482
3.1122
3.18949
3.26662
3.34356
3.42014
3.49614
3.5715
3.64614
3.72
3.793
3.86506
3.93612
4.0061
4.07493
4.14254
4.20887
4.27384
4.33739
4.39944
4.45993
4.51879
4.57595
4.63135
4.68493
4.73663
4.78639
4.83417
4.87991
4.92356
4.96508
5.00443
5.04156
5.07645
5.10905
5.13935
5.1673
5.19289
5.21611
5.23693
5.25535
5.27136
5.28497
5.29617
5.30497
5.31138
5.31541
5.31708
5.31642
5.31343
5.30817
5.30065
5.29091
5.279
5.26495
5.2488
5.23061
5.21043
5.1883
5.16428
5.13843
5.11081
5.08147
5.05049
5.01791
4.98381
4.94825
4.9113
4.87302
4.83348
4.79275
4.75089
4.70797
4.66406
4.61923
4.57353
4.52705
4.47983
4.43195
4.38348
4.33448
4.28502
4.23517
4.18502
4.13464
4.08413
4.03357
3.9831
3.93281
3.88287
3.83341
3.7846
3.73662
3.6896
3.64366
3.59865
3.55482
0.0308135
0.0665454
0.0845534
0.097236
0.107547
0.116555
0.124781
0.132532
0.14001
0.147359
0.154684
0.162066
0.169571
0.177252
0.185151
0.19331
0.201764
0.210546
0.219691
0.229231
0.2392
0.249634
0.260569
0.272046
0.284105
0.296785
0.310129
0.324186
0.339008
0.354652
0.371185
0.388643
0.407057
0.426493
0.447013
0.468678
0.491548
0.51568
0.541134
0.567964
0.596227
0.625971
0.65723
0.690037
0.724429
0.760439
0.798097
0.837423
0.878436
0.921146
0.96556
1.01168
1.0595
1.109
1.16019
1.21302
1.2675
1.32357
1.38122
1.44039
1.50104
1.56312
1.62659
1.6914
1.75749
1.82481
1.8933
1.9629
2.03355
2.10517
2.17772
2.2511