/*--------------------------------*- C++ -*----------------------------------*\
  =========                 |
  \\      /  F ield         | OpenFOAM: The Open Source CFD Toolbox
   \\    /   O peration     | Website:  https://openfoam.org
    \\  /    A nd           | Version:  9
     \\/     M anipulation  |
\*---------------------------------------------------------------------------*/
FoamFile
{
    format      ascii;
    class       volScalarField;
    location    "1600";
    object      epsilon;
}
// * * * * * * * * * * * * * * * * * * * * * * * * * * * * * * * * * * * * * //

dimensions      [0 2 -3 0 0 0 0];

internalField   nonuniform List<scalar> 
4000
(
3.07445e-07
2.34839e-07
1.34646e-07
5.08934e-08
1.88983e-08
1.49427e-08
1.21576e-08
8.85589e-09
7.91532e-09
7.84201e-09
7.76841e-09
7.67762e-09
8.49527e-09
1.20656e-08
1.59852e-08
2.4014e-08
8.72516e-08
1.8306e-07
2.72965e-07
3.37413e-07
4.12958e-07
3.60445e-07
2.83831e-07
2.04943e-07
1.48453e-07
1.00228e-07
3.11241e-08
1.83091e-08
1.63926e-08
1.73459e-08
1.74917e-08
1.66125e-08
1.8305e-08
3.6757e-08
1.11377e-07
1.63871e-07
2.1427e-07
2.92911e-07
3.71929e-07
4.26804e-07
4.64449e-07
4.1865e-07
3.38723e-07
2.58461e-07
1.85667e-07
1.28876e-07
8.29249e-08
4.06518e-08
2.07071e-08
2.4707e-08
2.49975e-08
2.16807e-08
4.54457e-08
8.3079e-08
1.32531e-07
1.91348e-07
2.64066e-07
3.4632e-07
4.30109e-07
4.76902e-07
4.93063e-07
4.62205e-07
3.86972e-07
2.95281e-07
2.07498e-07
1.43267e-07
9.95655e-08
6.51472e-08
4.51207e-08
4.26893e-08
4.73726e-08
5.41352e-08
7.49572e-08
1.05485e-07
1.48173e-07
2.14414e-07
3.0469e-07
3.97751e-07
4.74871e-07
5.0596e-07
5.12105e-07
5.0125e-07
4.50129e-07
3.86019e-07
3.24932e-07
2.7653e-07
2.39995e-07
2.11891e-07
1.92136e-07
1.81701e-07
1.91421e-07
2.06181e-07
2.26265e-07
2.54e-07
2.90512e-07
3.3921e-07
4.00428e-07
4.64822e-07
5.16008e-07
5.2612e-07
5.27883e-07
5.41947e-07
5.26692e-07
5.00155e-07
4.71471e-07
4.42968e-07
4.15978e-07
3.89766e-07
3.65169e-07
3.45202e-07
3.55714e-07
3.79613e-07
4.05704e-07
4.32809e-07
4.60655e-07
4.8986e-07
5.18753e-07
5.45135e-07
5.5947e-07
5.43298e-07
5.44475e-07
5.85698e-07
6.06176e-07
6.14619e-07
6.16262e-07
6.10159e-07
5.95787e-07
5.74125e-07
5.4542e-07
5.12892e-07
5.22963e-07
5.58371e-07
5.90034e-07
6.14425e-07
6.31036e-07
6.38675e-07
6.37575e-07
6.28572e-07
6.06119e-07
5.61424e-07
5.64585e-07
6.34897e-07
6.9049e-07
7.3111e-07
7.60675e-07
7.7783e-07
7.80402e-07
7.6632e-07
7.33316e-07
6.84267e-07
6.94425e-07
7.4508e-07
7.82412e-07
8.01172e-07
8.02412e-07
7.87691e-07
7.5884e-07
7.17146e-07
6.58445e-07
5.83217e-07
5.93494e-07
7.00982e-07
7.93988e-07
8.68095e-07
9.27206e-07
9.69621e-07
9.92653e-07
9.90082e-07
9.53949e-07
8.83278e-07
8.94501e-07
9.65353e-07
1.00716e-06
1.01656e-06
9.99181e-07
9.60131e-07
9.01645e-07
8.25691e-07
7.28226e-07
6.14076e-07
6.39371e-07
7.89673e-07
9.27954e-07
1.04073e-06
1.13598e-06
1.21321e-06
1.26768e-06
1.29097e-06
1.27205e-06
1.19924e-06
1.21357e-06
1.28697e-06
1.31096e-06
1.29409e-06
1.24554e-06
1.17222e-06
1.07831e-06
9.63778e-07
8.2037e-07
6.62211e-07
2.34839e-07
1.86009e-07
1.16668e-07
5.79829e-08
3.3625e-08
3.0838e-08
2.90377e-08
1.79222e-08
1.34844e-08
1.28929e-08
1.28826e-08
1.34476e-08
1.79099e-08
2.7405e-08
3.22543e-08
3.75424e-08
8.30212e-08
1.60233e-07
2.31252e-07
2.7196e-07
3.60445e-07
4.54127e-07
3.62553e-07
2.60563e-07
2.00148e-07
1.50199e-07
8.01476e-08
3.57444e-08
2.04518e-08
1.66397e-08
1.7152e-08
2.11308e-08
3.69193e-08
9.14311e-08
1.67529e-07
2.10143e-07
2.63548e-07
3.68128e-07
4.62707e-07
3.71982e-07
4.1865e-07
4.26031e-07
3.6345e-07
2.70978e-07
1.95875e-07
1.42526e-07
1.01423e-07
6.58005e-08
3.71878e-08
2.39779e-08
2.53633e-08
3.94245e-08
6.6191e-08
1.00915e-07
1.4735e-07
2.01039e-07
2.80746e-07
3.81116e-07
4.44146e-07
4.31409e-07
4.62205e-07
4.27062e-07
3.77431e-07
2.94058e-07
2.03131e-07
1.43163e-07
1.02193e-07
6.8436e-08
4.34931e-08
3.57235e-08
3.89102e-08
5.09517e-08
7.34227e-08
1.04361e-07
1.46196e-07
2.07777e-07
3.01151e-07
3.87513e-07
4.39898e-07
4.76928e-07
5.0125e-07
4.5745e-07
4.21997e-07
3.54664e-07
2.64987e-07
1.97265e-07
1.52443e-07
1.17454e-07
9.80777e-08
9.44847e-08
9.81275e-08
1.07503e-07
1.30064e-07
1.64157e-07
2.09384e-07
2.78817e-07
3.67173e-07
4.34705e-07
4.70979e-07
5.1832e-07
5.41947e-07
4.94132e-07
4.68067e-07
4.25431e-07
3.66817e-07
2.91711e-07
2.40187e-07
2.0216e-07
1.79641e-07
1.70761e-07
1.76239e-07
1.90296e-07
2.1641e-07
2.56609e-07
3.09987e-07
3.84511e-07
4.40626e-07
4.83208e-07
5.09575e-07
5.61165e-07
5.85698e-07
5.313e-07
5.05785e-07
4.80138e-07
4.60259e-07
4.22678e-07
3.56501e-07
2.98042e-07
2.61617e-07
2.44651e-07
2.5044e-07
2.73335e-07
3.15367e-07
3.7605e-07
4.42505e-07
4.79207e-07
4.99563e-07
5.25165e-07
5.50631e-07
6.07183e-07
6.34897e-07
5.87273e-07
5.68146e-07
5.56245e-07
5.6596e-07
5.72245e-07
5.6029e-07
5.32678e-07
4.85469e-07
4.25839e-07
4.3574e-07
4.98319e-07
5.48598e-07
5.79595e-07
5.94247e-07
5.90752e-07
5.83037e-07
5.95517e-07
6.13273e-07
6.5914e-07
7.00982e-07
7.25089e-07
7.59588e-07
7.88006e-07
8.23899e-07
8.58403e-07
8.8042e-07
8.7183e-07
8.11022e-07
6.93505e-07
6.98531e-07
8.13985e-07
8.82661e-07
9.01792e-07
8.89476e-07
8.61704e-07
8.2842e-07
7.9975e-07
7.60433e-07
7.28736e-07
7.89673e-07
9.71228e-07
1.14428e-06
1.29548e-06
1.43533e-06
1.56132e-06
1.66186e-06
1.71695e-06
1.70405e-06
1.60836e-06
1.62373e-06
1.72221e-06
1.74265e-06
1.69747e-06
1.60622e-06
1.48604e-06
1.34781e-06
1.19345e-06
1.01276e-06
8.20363e-07
1.34646e-07
1.16668e-07
7.80068e-08
4.97962e-08
4.23392e-08
4.53614e-08
3.98445e-08
2.61678e-08
1.91212e-08
1.71049e-08
1.70484e-08
1.89015e-08
2.60221e-08
3.89329e-08
4.56345e-08
4.32938e-08
6.08799e-08
1.07761e-07
1.58872e-07
1.80573e-07
2.83831e-07
3.62553e-07
3.09088e-07
2.48049e-07
2.07324e-07
1.56415e-07
8.75288e-08
4.73187e-08
2.93004e-08
2.17415e-08
2.23324e-08
2.9682e-08
4.87762e-08
1.00794e-07
1.79002e-07
2.22002e-07
2.51016e-07
3.10837e-07
3.66462e-07
2.9078e-07
3.38723e-07
3.6345e-07
3.19719e-07
2.49085e-07
1.91821e-07
1.45917e-07
1.10415e-07
7.80007e-08
4.86481e-08
3.10484e-08
3.24667e-08
4.99112e-08
7.71359e-08
1.09863e-07
1.52601e-07
1.98005e-07
2.56582e-07
3.34372e-07
3.82919e-07
3.47993e-07
3.86972e-07
3.77431e-07
3.30954e-07
2.62507e-07
1.91324e-07
1.41721e-07
1.07198e-07
7.78659e-08
5.36794e-08
3.75471e-08
4.14926e-08
5.80047e-08
7.94463e-08
1.07299e-07
1.44395e-07
1.95915e-07
2.68667e-07
3.39004e-07
3.89502e-07
4.01246e-07
4.50129e-07
4.21997e-07
3.64361e-07
2.94806e-07
2.1616e-07
1.58011e-07
1.19852e-07
8.88801e-08
6.4495e-08
5.14422e-08
5.63352e-08
7.28415e-08
9.63103e-08
1.25946e-07
1.65173e-07
2.25814e-07
3.05969e-07
3.76278e-07
4.36033e-07
4.6875e-07
5.26692e-07
4.68067e-07
3.99694e-07
3.30347e-07
2.58005e-07
1.91471e-07
1.47045e-07
1.13654e-07
9.02579e-08
8.1039e-08
8.4169e-08
9.84497e-08
1.23201e-07
1.57246e-07
2.0276e-07
2.69915e-07
3.4268e-07
4.13852e-07
4.84046e-07
5.48118e-07
6.06176e-07
5.05785e-07
4.29197e-07
3.47003e-07
2.85481e-07
2.32076e-07
1.85836e-07
1.4978e-07
1.25919e-07
1.14821e-07
1.17232e-07
1.32093e-07
1.59382e-07
1.9714e-07
2.44129e-07
2.98039e-07
3.62757e-07
4.49129e-07
5.26716e-07
6.30726e-07
6.9049e-07
5.68146e-07
5.0127e-07
3.95032e-07
3.18742e-07
2.91408e-07
2.62951e-07
2.35315e-07
2.05786e-07
1.76433e-07
1.78001e-07
2.10565e-07
2.45547e-07
2.78033e-07
3.08957e-07
3.38033e-07
4.24174e-07
5.33851e-07
5.97751e-07
7.18834e-07
7.93988e-07
7.59588e-07
8.04759e-07
8.5159e-07
8.82275e-07
9.05289e-07
9.48309e-07
9.54487e-07
8.56444e-07
6.67063e-07
6.69899e-07
8.61e-07
9.73431e-07
9.88476e-07
9.64189e-07
9.513e-07
9.15764e-07
8.61713e-07
8.03249e-07
8.27559e-07
9.27954e-07
1.14428e-06
1.34858e-06
1.53336e-06
1.71398e-06
1.88872e-06
2.04084e-06
2.13543e-06
2.13413e-06
2.01079e-06
2.02649e-06
2.15562e-06
2.16749e-06
2.08684e-06
1.94758e-06
1.78013e-06
1.60051e-06
1.41011e-06
1.19513e-06
9.64956e-07
5.08933e-08
5.79829e-08
4.97962e-08
4.60625e-08
4.94786e-08
5.5826e-08
4.60581e-08
3.25787e-08
2.43234e-08
2.18554e-08
2.15337e-08
2.36641e-08
3.17698e-08
4.54067e-08
5.47259e-08
5.24514e-08
4.88637e-08
6.0678e-08
8.08489e-08
8.10877e-08
2.04943e-07
2.60563e-07
2.48049e-07
2.23664e-07
1.93335e-07
1.37184e-07
7.97185e-08
4.93611e-08
3.39152e-08
2.78077e-08
2.80202e-08
3.38919e-08
4.93855e-08
8.8472e-08
1.59848e-07
2.14265e-07
2.33462e-07
2.48542e-07
2.59966e-07
2.10267e-07
2.58461e-07
2.70978e-07
2.49085e-07
2.10585e-07
1.72724e-07
1.36754e-07
1.0872e-07
7.89452e-08
5.18174e-08
3.68657e-08
3.74091e-08
5.2049e-08
7.73687e-08
1.07495e-07
1.42873e-07
1.80641e-07
2.16348e-07
2.56546e-07
2.82087e-07
2.65559e-07
2.95281e-07
2.94058e-07
2.62507e-07
2.16017e-07
1.69103e-07
1.32962e-07
1.06223e-07
8.18711e-08
5.96721e-08
4.31659e-08
4.59932e-08
6.24994e-08
8.21636e-08
1.05406e-07
1.35277e-07
1.74031e-07
2.2197e-07
2.69641e-07
3.0405e-07
3.09291e-07
3.86019e-07
3.54664e-07
2.94806e-07
2.36604e-07
1.80642e-07
1.38218e-07
1.08533e-07
8.32367e-08
6.03329e-08
4.19529e-08
4.70522e-08
6.62157e-08
8.74824e-08
1.11711e-07
1.42955e-07
1.8815e-07
2.46701e-07
3.06789e-07
3.69738e-07
4.05068e-07
5.00155e-07
4.25431e-07
3.30347e-07
2.60641e-07
2.00248e-07
1.50935e-07
1.16159e-07
8.82172e-08
6.43976e-08
4.70463e-08
5.1608e-08
7.12252e-08
9.50441e-08
1.22861e-07
1.58444e-07
2.08897e-07
2.70949e-07
3.4315e-07
4.42164e-07
5.22216e-07
6.14619e-07
4.80138e-07
3.47003e-07
2.66231e-07
2.10022e-07
1.66202e-07
1.32736e-07
1.0596e-07
8.41892e-08
6.87814e-08
7.15564e-08
8.97291e-08
1.1362e-07
1.41368e-07
1.75317e-07
2.19646e-07
2.78132e-07
3.63507e-07
4.99566e-07
6.40456e-07
7.3111e-07
5.56245e-07
3.95032e-07
3.00652e-07
2.67262e-07
2.51374e-07
2.42167e-07
2.31189e-07
2.04894e-07
1.64692e-07
1.67128e-07
2.1242e-07
2.45242e-07
2.61091e-07
2.72078e-07
2.8761e-07
3.24162e-07
4.30604e-07
5.84293e-07
7.61788e-07
8.68095e-07
7.88006e-07
8.5159e-07
9.13488e-07
1.03489e-06
1.19053e-06
1.35304e-06
1.4312e-06
1.32882e-06
1.05887e-06
1.05297e-06
1.33903e-06
1.47168e-06
1.42029e-06
1.27892e-06
1.12463e-06
1.00323e-06
9.23038e-07
8.3576e-07
9.05525e-07
1.04073e-06
1.29548e-06
1.53336e-06
1.75458e-06
1.98646e-06
2.22495e-06
2.44443e-06
2.59707e-06
2.62817e-06
2.50683e-06
2.52551e-06
2.65647e-06
2.63989e-06
2.50409e-06
2.29895e-06
2.06768e-06
1.83503e-06
1.60453e-06
1.35269e-06
1.08162e-06
1.88983e-08
3.3625e-08
4.23392e-08
4.94786e-08
5.9674e-08
5.98226e-08
4.85875e-08
3.6578e-08
2.8518e-08
2.64488e-08
2.59832e-08
2.74039e-08
3.50388e-08
4.69116e-08
5.76572e-08
5.90903e-08
5.27151e-08
4.31351e-08
3.67106e-08
2.13038e-08
1.48453e-07
2.00148e-07
2.07324e-07
1.93335e-07
1.54954e-07
1.04776e-07
6.81179e-08
4.76052e-08
3.53086e-08
3.21435e-08
3.23708e-08
3.50065e-08
4.64045e-08
7.01302e-08
1.18619e-07
1.76016e-07
2.09552e-07
2.15479e-07
2.033e-07
1.57557e-07
1.85667e-07
1.95875e-07
1.91821e-07
1.72724e-07
1.47001e-07
1.2263e-07
9.97307e-08
7.28603e-08
5.0267e-08
3.97353e-08
3.97376e-08
4.94781e-08
6.99435e-08
9.6401e-08
1.23794e-07
1.53795e-07
1.78887e-07
1.9601e-07
1.99868e-07
1.90285e-07
2.07498e-07
2.03131e-07
1.91324e-07
1.69103e-07
1.42675e-07
1.1959e-07
1.00036e-07
7.98777e-08
6.01744e-08
4.70161e-08
4.85703e-08
6.21859e-08
7.97636e-08
9.81456e-08
1.19959e-07
1.4603e-07
1.73525e-07
1.96092e-07
2.09932e-07
2.20513e-07
3.24932e-07
2.64987e-07
2.1616e-07
1.80642e-07
1.47762e-07
1.20727e-07
9.93856e-08
7.99214e-08
6.19924e-08
4.89273e-08
5.16826e-08
6.56599e-08
8.23051e-08
1.0089e-07
1.23537e-07
1.52917e-07
1.88235e-07
2.26869e-07
2.81777e-07
3.432e-07
4.71471e-07
3.66817e-07
2.58005e-07
2.00248e-07
1.58736e-07
1.25902e-07
1.00694e-07
7.94041e-08
6.10945e-08
4.87142e-08
5.15809e-08
6.58388e-08
8.41641e-08
1.05254e-07
1.31218e-07
1.65373e-07
2.08995e-07
2.70314e-07
3.84755e-07
4.92937e-07
6.16262e-07
4.60259e-07
2.85481e-07
2.10022e-07
1.67169e-07
1.36378e-07
1.12941e-07
9.42197e-08
7.92886e-08
7.05825e-08
7.25444e-08
8.41277e-08
1.0091e-07
1.20276e-07
1.44093e-07
1.75368e-07
2.19616e-07
2.97915e-07
4.78743e-07
6.41959e-07
7.60675e-07
5.6596e-07
3.18742e-07
2.67262e-07
2.57558e-07
2.59151e-07
2.66444e-07
2.69182e-07
2.47264e-07
2.03047e-07
2.05562e-07
2.56729e-07
2.87203e-07
2.90188e-07
2.84016e-07
2.80887e-07
2.88247e-07
3.37685e-07
5.94193e-07
7.92108e-07
9.27206e-07
8.23899e-07
8.82275e-07
1.03489e-06
1.31939e-06
1.62186e-06
1.88457e-06
2.02271e-06
1.858e-06
1.42789e-06
1.41568e-06
1.86834e-06
2.08178e-06
1.9897e-06
1.73887e-06
1.44051e-06
1.13837e-06
9.71864e-07
8.73351e-07
9.66432e-07
1.13598e-06
1.43533e-06
1.71398e-06
1.98646e-06
2.29727e-06
2.61856e-06
2.91692e-06
3.13939e-06
3.21747e-06
3.11316e-06
3.14048e-06
3.25412e-06
3.19192e-06
2.98754e-06
2.70266e-06
2.3883e-06
2.07491e-06
1.79014e-06
1.49523e-06
1.17832e-06
1.49427e-08
3.0838e-08
4.53614e-08
5.5826e-08
5.98226e-08
5.61679e-08
4.77245e-08
3.86737e-08
3.22001e-08
3.14267e-08
3.08662e-08
3.061e-08
3.6448e-08
4.50273e-08
5.29717e-08
5.63635e-08
5.33271e-08
4.47584e-08
3.17156e-08
1.31487e-08
1.00228e-07
1.50199e-07
1.56415e-07
1.37185e-07
1.04776e-07
7.6799e-08
5.79613e-08
4.45735e-08
3.61261e-08
3.71141e-08
3.76108e-08
3.56414e-08
4.25471e-08
5.57502e-08
7.836e-08
1.14053e-07
1.50003e-07
1.65815e-07
1.5457e-07
1.0459e-07
1.28876e-07
1.42526e-07
1.45917e-07
1.36754e-07
1.2263e-07
1.06035e-07
8.5479e-08
6.36891e-08
4.71535e-08
4.17938e-08
4.15177e-08
4.56578e-08
5.95983e-08
7.96096e-08
1.01496e-07
1.21646e-07
1.38795e-07
1.47661e-07
1.42828e-07
1.28595e-07
1.43267e-07
1.43163e-07
1.41721e-07
1.32962e-07
1.1959e-07
1.05366e-07
9.05254e-08
7.33489e-08
5.70707e-08
4.83473e-08
4.90915e-08
5.78134e-08
7.25037e-08
8.76676e-08
1.02879e-07
1.18993e-07
1.33716e-07
1.43046e-07
1.46217e-07
1.51862e-07
2.7653e-07
1.97265e-07
1.58011e-07
1.38218e-07
1.20727e-07
1.04372e-07
8.92983e-08
7.47428e-08
6.17472e-08
5.42747e-08
5.60664e-08
6.40868e-08
7.5863e-08
8.95037e-08
1.05171e-07
1.23015e-07
1.42197e-07
1.64336e-07
2.08068e-07
2.92225e-07
4.42968e-07
2.91711e-07
1.91471e-07
1.50935e-07
1.25902e-07
1.05526e-07
8.81792e-08
7.31059e-08
6.1535e-08
5.78598e-08
5.95014e-08
6.47098e-08
7.62988e-08
9.11301e-08
1.0906e-07
1.30702e-07
1.57769e-07
2.01901e-07
3.08622e-07
4.62684e-07
6.10159e-07
4.22678e-07
2.32076e-07
1.66202e-07
1.36378e-07
1.1674e-07
1.01668e-07
9.03882e-08
8.38015e-08
8.756e-08
8.90023e-08
8.79406e-08
9.61227e-08
1.0788e-07
1.23297e-07
1.43536e-07
1.74507e-07
2.4275e-07
4.41292e-07
6.34558e-07
7.7783e-07
5.72245e-07
2.91408e-07
2.51374e-07
2.59151e-07
2.80705e-07
3.05694e-07
3.19063e-07
2.92658e-07
2.38406e-07
2.40596e-07
3.01068e-07
3.37718e-07
3.31586e-07
3.08326e-07
2.84964e-07
2.72724e-07
3.07967e-07
5.99001e-07
8.08163e-07
9.69621e-07
8.58403e-07
9.05289e-07
1.19053e-06
1.62186e-06
2.07845e-06
2.46461e-06
2.64585e-06
2.34066e-06
1.6754e-06
1.65422e-06
2.32511e-06
2.69789e-06
2.5767e-06
2.21244e-06
1.76018e-06
1.30336e-06
9.90639e-07
9.04307e-07
1.00788e-06
1.21321e-06
1.56132e-06
1.88872e-06
2.22495e-06
2.61856e-06
3.03055e-06
3.42218e-06
3.73393e-06
3.88879e-06
3.84634e-06
3.8911e-06
3.93543e-06
3.79378e-06
3.49788e-06
3.11817e-06
2.71196e-06
2.31401e-06
1.96378e-06
1.62004e-06
1.25476e-06
1.21576e-08
2.90377e-08
3.98445e-08
4.60581e-08
4.85875e-08
4.77245e-08
4.40624e-08
3.93075e-08
3.58732e-08
3.82415e-08
3.76126e-08
3.38017e-08
3.65732e-08
4.08636e-08
4.40151e-08
4.45454e-08
4.19027e-08
3.49248e-08
2.35921e-08
1.00907e-08
3.11241e-08
8.01476e-08
8.75288e-08
7.97186e-08
6.81179e-08
5.79613e-08
4.90099e-08
4.13465e-08
3.80853e-08
4.88431e-08
5.012e-08
3.74317e-08
3.86654e-08
4.50147e-08
5.36796e-08
6.51223e-08
7.91285e-08
8.82971e-08
7.88506e-08
3.07512e-08
8.29249e-08
1.01423e-07
1.10415e-07
1.0872e-07
9.97308e-08
8.5479e-08
6.93028e-08
5.45877e-08
4.52786e-08
5.14376e-08
5.11727e-08
4.33934e-08
4.98857e-08
6.21479e-08
7.72681e-08
9.20942e-08
1.02386e-07
1.04225e-07
9.53266e-08
7.70149e-08
9.95655e-08
1.02193e-07
1.07198e-07
1.06223e-07
1.00036e-07
9.05254e-08
7.82385e-08
6.43103e-08
5.40677e-08
6.05822e-08
6.09184e-08
5.35955e-08
6.22276e-08
7.47e-08
8.63768e-08
9.60281e-08
1.0274e-07
1.04394e-07
1.01566e-07
1.0451e-07
2.39995e-07
1.52443e-07
1.19852e-07
1.08533e-07
9.93856e-08
8.92983e-08
7.85691e-08
6.79346e-08
6.10428e-08
7.45145e-08
7.61447e-08
6.26356e-08
6.80997e-08
7.77628e-08
8.85472e-08
9.93312e-08
1.09527e-07
1.22781e-07
1.5952e-07
2.52024e-07
4.15978e-07
2.40187e-07
1.47045e-07
1.16159e-07
1.00694e-07
8.81792e-08
7.66337e-08
6.67598e-08
6.32449e-08
8.8218e-08
9.0608e-08
6.57624e-08
6.87252e-08
7.82213e-08
9.00311e-08
1.03397e-07
1.20215e-07
1.53397e-07
2.51431e-07
4.32935e-07
5.95787e-07
3.56501e-07
1.85836e-07
1.32736e-07
1.12941e-07
1.01668e-07
9.35426e-08
8.86994e-08
9.16081e-08
1.31604e-07
1.36427e-07
9.57125e-08
9.32839e-08
9.84245e-08
1.06728e-07
1.1838e-07
1.38886e-07
1.9409e-07
3.73547e-07
6.1801e-07
7.80402e-07
5.6029e-07
2.62951e-07
2.42167e-07
2.66444e-07
3.05694e-07
3.46531e-07
3.61542e-07
3.16908e-07
2.75691e-07
2.82263e-07
3.21119e-07
3.7501e-07
3.69241e-07
3.31846e-07
2.91279e-07
2.6151e-07
2.7718e-07
5.85461e-07
8.08414e-07
9.92653e-07
8.80419e-07
9.48309e-07
1.35304e-06
1.88457e-06
2.46461e-06
2.99377e-06
3.16986e-06
2.56454e-06
1.91077e-06
1.92204e-06
2.50265e-06
3.1787e-06
3.08009e-06
2.58634e-06
2.02096e-06
1.45288e-06
1.0143e-06
9.19092e-07
1.02782e-06
1.26768e-06
1.66186e-06
2.04084e-06
2.44443e-06
2.91692e-06
3.42218e-06
3.92305e-06
4.35696e-06
4.66075e-06
4.83187e-06
4.91407e-06
4.7277e-06
4.42706e-06
4.00153e-06
3.50837e-06
3.00618e-06
2.52673e-06
2.10951e-06
1.71607e-06
1.30656e-06
8.8559e-09
1.79222e-08
2.61678e-08
3.25787e-08
3.6578e-08
3.86737e-08
3.93075e-08
3.92312e-08
4.02175e-08
4.69117e-08
4.60738e-08
3.76136e-08
3.62675e-08
3.60926e-08
3.52478e-08
3.30046e-08
2.9023e-08
2.28807e-08
1.50203e-08
7.47801e-09
1.83091e-08
3.57444e-08
4.73187e-08
4.93611e-08
4.76052e-08
4.45735e-08
4.13465e-08
3.96645e-08
4.4497e-08
7.23245e-08
7.37842e-08
4.35998e-08
3.65745e-08
3.70602e-08
3.95591e-08
4.22472e-08
4.40995e-08
4.2827e-08
3.19243e-08
1.5563e-08
4.06518e-08
6.58005e-08
7.80007e-08
7.89452e-08
7.28603e-08
6.36891e-08
5.45877e-08
4.8071e-08
5.12025e-08
1.23539e-07
1.26372e-07
4.91659e-08
4.32462e-08
4.79459e-08
5.5767e-08
6.42905e-08
7.03991e-08
6.98221e-08
5.90107e-08
3.48643e-08
6.51472e-08
6.8436e-08
7.78659e-08
8.18711e-08
7.98777e-08
7.33489e-08
6.43103e-08
5.66427e-08
6.47443e-08
2.14985e-07
2.22143e-07
6.40517e-08
5.33934e-08
6.03007e-08
6.92074e-08
7.58217e-08
7.80326e-08
7.4586e-08
6.68941e-08
6.46909e-08
2.11891e-07
1.17454e-07
8.88801e-08
8.32367e-08
7.99214e-08
7.47428e-08
6.79346e-08
6.27541e-08
8.23769e-08
3.56567e-07
3.71822e-07
8.49596e-08
6.22414e-08
6.66473e-08
7.34169e-08
7.90599e-08
8.31863e-08
9.04432e-08
1.22322e-07
2.1976e-07
3.89766e-07
2.0216e-07
1.13654e-07
8.82172e-08
7.94042e-08
7.31059e-08
6.67598e-08
6.37375e-08
9.77979e-08
5.18897e-07
5.49281e-07
1.02589e-07
6.47757e-08
6.72388e-08
7.36269e-08
8.04363e-08
9.02104e-08
1.17465e-07
2.10291e-07
4.03695e-07
5.74125e-07
2.98042e-07
1.4978e-07
1.0596e-07
9.42197e-08
9.03882e-08
8.86994e-08
9.20476e-08
1.44812e-07
6.87443e-07
7.4292e-07
1.53649e-07
9.54937e-08
9.1838e-08
9.34772e-08
9.72938e-08
1.09311e-07
1.54966e-07
3.10422e-07
5.93604e-07
7.6632e-07
5.32678e-07
2.35315e-07
2.31189e-07
2.69182e-07
3.19063e-07
3.61542e-07
3.5846e-07
3.32698e-07
7.49907e-07
8.15639e-07
3.41954e-07
3.64068e-07
3.74579e-07
3.3768e-07
2.87368e-07
2.44499e-07
2.45596e-07
5.56149e-07
7.91284e-07
9.90082e-07
8.7183e-07
9.54487e-07
1.4312e-06
2.02271e-06
2.64585e-06
3.16986e-06
3.07566e-06
2.44602e-06
3.13091e-06
3.27459e-06
2.47862e-06
3.04075e-06
3.19165e-06
2.72978e-06
2.1221e-06
1.50434e-06
9.98131e-07
9.01929e-07
1.02083e-06
1.29097e-06
1.71695e-06
2.13543e-06
2.59707e-06
3.13939e-06
3.73393e-06
4.35696e-06
4.9745e-06
5.62021e-06
6.40184e-06
6.54827e-06
5.73991e-06
5.07106e-06
4.44384e-06
3.81932e-06
3.22198e-06
2.67033e-06
2.19551e-06
1.76533e-06
1.32644e-06
7.91532e-09
1.34845e-08
1.91212e-08
2.43234e-08
2.8518e-08
3.22001e-08
3.58732e-08
4.02175e-08
4.52559e-08
5.58287e-08
5.19059e-08
4.1997e-08
3.71393e-08
3.30683e-08
2.9556e-08
2.59989e-08
2.19402e-08
1.70198e-08
1.17017e-08
7.03468e-09
1.63926e-08
2.04518e-08
2.93004e-08
3.39152e-08
3.53086e-08
3.61261e-08
3.80853e-08
4.4497e-08
6.79705e-08
4.5675e-07
4.82833e-07
6.65608e-08
4.14911e-08
3.47174e-08
3.25382e-08
3.15573e-08
3.01379e-08
2.58994e-08
1.75407e-08
1.50443e-08
2.07071e-08
3.71878e-08
4.86481e-08
5.18174e-08
5.0267e-08
4.71535e-08
4.52786e-08
5.12025e-08
1.46915e-07
1.80797e-06
1.92887e-06
1.54693e-07
4.73239e-08
4.04554e-08
4.17455e-08
4.45331e-08
4.61025e-08
4.32122e-08
3.22787e-08
1.9538e-08
4.51207e-08
4.34931e-08
5.36794e-08
5.96721e-08
6.01744e-08
5.70707e-08
5.40677e-08
6.47443e-08
2.8742e-07
3.39731e-06
3.67982e-06
3.07929e-07
6.22972e-08
5.05201e-08
5.36734e-08
5.74051e-08
5.75866e-08
5.23553e-08
4.26759e-08
3.87501e-08
1.92136e-07
9.80777e-08
6.4495e-08
6.03329e-08
6.19924e-08
6.17472e-08
6.10428e-08
8.23769e-08
5.02119e-07
5.42467e-06
5.91759e-06
5.4685e-07
8.37602e-08
6.01345e-08
6.07536e-08
6.14671e-08
6.07757e-08
6.62993e-08
1.00342e-07
1.9644e-07
3.65169e-07
1.79641e-07
9.02579e-08
6.43976e-08
6.10945e-08
6.1535e-08
6.32449e-08
9.77979e-08
7.50587e-07
7.47304e-06
8.20637e-06
8.27521e-07
1.01537e-07
6.33387e-08
6.12993e-08
6.12203e-08
6.55796e-08
9.32056e-08
1.85809e-07
3.76552e-07
5.4542e-07
2.61617e-07
1.25919e-07
8.41892e-08
7.92886e-08
8.38015e-08
9.16081e-08
1.44812e-07
1.00552e-06
8.68952e-06
9.60943e-06
1.11379e-06
1.52236e-07
9.33023e-08
8.46785e-08
7.98923e-08
8.53857e-08
1.29543e-07
2.72562e-07
5.62543e-07
7.33316e-07
4.85469e-07
2.05786e-07
2.04894e-07
2.47264e-07
2.92658e-07
3.16908e-07
3.32698e-07
1.05237e-06
8.09802e-06
8.97887e-06
1.1633e-06
3.41583e-07
3.22239e-07
3.00918e-07
2.55978e-07
2.11194e-07
2.12884e-07
5.05861e-07
7.5553e-07
9.53949e-07
8.11022e-07
8.56444e-07
1.32882e-06
1.858e-06
2.34066e-06
2.56454e-06
2.44602e-06
3.32584e-06
7.22374e-06
7.74599e-06
3.53669e-06
2.48583e-06
2.57366e-06
2.37858e-06
1.9139e-06
1.37169e-06
8.82973e-07
8.35371e-07
9.81275e-07
1.27205e-06
1.70405e-06
2.13413e-06
2.62817e-06
3.21747e-06
3.88879e-06
4.66075e-06
5.62021e-06
6.98891e-06
8.83847e-06
9.04013e-06
7.18897e-06
5.77218e-06
4.77578e-06
3.98326e-06
3.29905e-06
2.69655e-06
2.1897e-06
1.74936e-06
1.30556e-06
7.84201e-09
1.28929e-08
1.71049e-08
2.18554e-08
2.64488e-08
3.14267e-08
3.82415e-08
4.69117e-08
5.58287e-08
6.12105e-08
5.75513e-08
5.04309e-08
4.39856e-08
3.59252e-08
2.95541e-08
2.47817e-08
2.03166e-08
1.56562e-08
1.15989e-08
7.06558e-09
1.73459e-08
1.66397e-08
2.17415e-08
2.78077e-08
3.21435e-08
3.71141e-08
4.88431e-08
7.23245e-08
4.5675e-07
7.24613e-07
7.37595e-07
5.07352e-07
7.14684e-08
4.64429e-08
3.52522e-08
3.04033e-08
2.60929e-08
2.01825e-08
1.53005e-08
1.63103e-08
2.4707e-08
2.39779e-08
3.10484e-08
3.68657e-08
3.97353e-08
4.17938e-08
5.14376e-08
1.23539e-07
1.80797e-06
1.67406e-06
1.68104e-06
2.01713e-06
1.30156e-07
4.88435e-08
3.93138e-08
3.72225e-08
3.41114e-08
2.84381e-08
2.16354e-08
2.32058e-08
4.26893e-08
3.57235e-08
3.75471e-08
4.31659e-08
4.70161e-08
4.83473e-08
6.05822e-08
2.14985e-07
3.39731e-06
2.95249e-06
2.92823e-06
3.84781e-06
2.32111e-07
5.92378e-08
4.64648e-08
4.53155e-08
4.19197e-08
3.73599e-08
3.52732e-08
3.5298e-08
1.81701e-07
9.44847e-08
5.14422e-08
4.19529e-08
4.89273e-08
5.42747e-08
7.45145e-08
3.56567e-07
5.42467e-06
4.59962e-06
4.51531e-06
6.17339e-06
3.92302e-07
7.54454e-08
5.34954e-08
4.80803e-08
4.21334e-08
5.33589e-08
9.59496e-08
1.83602e-07
3.45202e-07
1.70761e-07
8.1039e-08
4.70463e-08
4.87142e-08
5.78598e-08
8.8218e-08
5.18897e-07
7.47304e-06
6.52857e-06
6.36313e-06
8.53191e-06
5.79116e-07
9.08694e-08
5.73061e-08
4.79918e-08
4.79344e-08
8.33813e-08
1.7598e-07
3.54572e-07
5.12892e-07
2.44651e-07
1.14821e-07
6.87814e-08
7.05825e-08
8.756e-08
1.31604e-07
6.87443e-07
8.68951e-06
8.42067e-06
8.16835e-06
9.95381e-06
7.67714e-07
1.36607e-07
8.73199e-08
6.96564e-08
6.95226e-08
1.17968e-07
2.54078e-07
5.2782e-07
6.84267e-07
4.25839e-07
1.76433e-07
1.64692e-07
2.03047e-07
2.38406e-07
2.75691e-07
7.49907e-07
8.09802e-06
9.64353e-06
9.30402e-06
9.33329e-06
8.3099e-07
2.83914e-07
2.41632e-07
2.05981e-07
1.68121e-07
1.82948e-07
4.43241e-07
7.03962e-07
8.83278e-07
6.93505e-07
6.67063e-07
1.05887e-06
1.42789e-06
1.6754e-06
1.91077e-06
3.13091e-06
7.22374e-06
9.77781e-06
9.51253e-06
7.98201e-06
3.35729e-06
1.9822e-06
1.70711e-06
1.46528e-06
1.09129e-06
6.89184e-07
7.14839e-07
9.08106e-07
1.19924e-06
1.60836e-06
2.01079e-06
2.50683e-06
3.11316e-06
3.84634e-06
4.83187e-06
6.40184e-06
8.83847e-06
1.0446e-05
1.02464e-05
9.15192e-06
6.63751e-06
4.99271e-06
3.96154e-06
3.20288e-06
2.57787e-06
2.06691e-06
1.65337e-06
1.23187e-06
7.76841e-09
1.28826e-08
1.70484e-08
2.15337e-08
2.59832e-08
3.08662e-08
3.76126e-08
4.60738e-08
5.1906e-08
5.75513e-08
5.85026e-08
5.16065e-08
4.42487e-08
3.6255e-08
2.98653e-08
2.50516e-08
2.05483e-08
1.59476e-08
1.19354e-08
7.19957e-09
1.74917e-08
1.7152e-08
2.23324e-08
2.80202e-08
3.23708e-08
3.76108e-08
5.012e-08
7.37842e-08
4.82833e-07
7.37595e-07
7.45344e-07
5.26486e-07
7.22744e-08
4.7476e-08
3.61602e-08
3.15145e-08
2.73211e-08
2.16321e-08
1.63231e-08
1.69244e-08
2.49975e-08
2.53633e-08
3.24667e-08
3.74091e-08
3.97376e-08
4.15177e-08
5.11728e-08
1.26372e-07
1.92887e-06
1.68104e-06
1.68764e-06
2.18931e-06
1.37229e-07
5.05518e-08
4.09169e-08
3.93549e-08
3.6965e-08
3.19144e-08
2.45391e-08
2.41089e-08
4.73726e-08
3.89102e-08
4.14926e-08
4.59932e-08
4.85703e-08
4.90915e-08
6.09184e-08
2.22143e-07
3.67982e-06
2.92823e-06
2.92044e-06
4.27477e-06
2.50217e-07
6.11164e-08
4.83266e-08
4.76977e-08
4.53764e-08
4.12865e-08
3.7508e-08
4.09364e-08
1.91421e-07
9.81275e-08
5.63351e-08
4.70521e-08
5.16826e-08
5.60664e-08
7.61447e-08
3.71822e-07
5.91759e-06
4.51531e-06
4.47159e-06
6.93738e-06
4.28393e-07
7.71277e-08
5.4974e-08
5.04947e-08
4.67861e-08
5.75386e-08
9.96162e-08
1.94686e-07
3.55714e-07
1.76239e-07
8.4169e-08
5.1608e-08
5.15809e-08
5.95014e-08
9.0608e-08
5.49281e-07
8.20637e-06
6.36313e-06
6.2574e-06
9.64627e-06
6.39678e-07
9.25624e-08
5.807e-08
5.03521e-08
5.23501e-08
8.69791e-08
1.8209e-07
3.66407e-07
5.22963e-07
2.5044e-07
1.17232e-07
7.15564e-08
7.25444e-08
8.90023e-08
1.36427e-07
7.4292e-07
9.60943e-06
8.16835e-06
7.97216e-06
1.13075e-05
8.57817e-07
1.40811e-07
8.83847e-08
7.20478e-08
7.31987e-08
1.21576e-07
2.60387e-07
5.39518e-07
6.94425e-07
4.3574e-07
1.78001e-07
1.67128e-07
2.05562e-07
2.40596e-07
2.82263e-07
8.15639e-07
8.97887e-06
9.30402e-06
8.98991e-06
1.06078e-05
9.25705e-07
2.90168e-07
2.44222e-07
2.09818e-07
1.71941e-07
1.85994e-07
4.55062e-07
7.16605e-07
8.94501e-07
6.98531e-07
6.69899e-07
1.05297e-06
1.41568e-06
1.65422e-06
1.92204e-06
3.27459e-06
7.74599e-06
9.51253e-06
9.26228e-06
8.74564e-06
3.57884e-06
2.02497e-06
1.71069e-06
1.47591e-06
1.09852e-06
7.00914e-07
7.25882e-07
9.23889e-07
1.21357e-06
1.62373e-06
2.02649e-06
2.52551e-06
3.14048e-06
3.8911e-06
4.91407e-06
6.54827e-06
9.04013e-06
1.02464e-05
1.01135e-05
9.52557e-06
6.89823e-06
5.14834e-06
4.05929e-06
3.27113e-06
2.6275e-06
2.10632e-06
1.68475e-06
1.25501e-06
7.67762e-09
1.34476e-08
1.89015e-08
2.36641e-08
2.74039e-08
3.061e-08
3.38017e-08
3.76136e-08
4.1997e-08
5.04309e-08
5.16065e-08
4.13163e-08
3.67665e-08
3.2954e-08
2.9729e-08
2.64451e-08
2.26044e-08
1.76852e-08
1.24551e-08
7.34351e-09
1.66125e-08
2.11308e-08
2.9682e-08
3.38919e-08
3.50065e-08
3.56414e-08
3.74317e-08
4.35998e-08
6.65609e-08
5.07352e-07
5.26486e-07
6.74186e-08
4.18101e-08
3.5993e-08
3.46344e-08
3.44794e-08
3.38212e-08
2.96396e-08
2.06974e-08
1.61341e-08
2.16807e-08
3.94245e-08
4.99111e-08
5.20489e-08
4.94781e-08
4.56578e-08
4.33934e-08
4.91659e-08
1.54693e-07
2.01713e-06
2.18931e-06
1.71616e-07
4.99919e-08
4.32572e-08
4.55342e-08
4.94514e-08
5.1952e-08
4.96157e-08
3.86436e-08
2.09425e-08
5.41352e-08
5.09517e-08
5.80047e-08
6.24994e-08
6.21859e-08
5.78134e-08
5.35955e-08
6.40517e-08
3.07929e-07
3.84781e-06
4.27477e-06
3.49947e-07
6.61669e-08
5.3416e-08
5.72707e-08
6.14959e-08
6.19356e-08
5.72995e-08
4.92623e-08
5.11065e-08
2.06181e-07
1.07503e-07
7.28415e-08
6.62157e-08
6.56599e-08
6.40868e-08
6.26356e-08
8.49596e-08
5.4685e-07
6.17339e-06
6.93738e-06
6.31077e-07
8.86384e-08
6.28077e-08
6.41088e-08
6.5767e-08
6.66359e-08
7.37666e-08
1.09686e-07
2.12371e-07
3.79613e-07
1.90296e-07
9.84497e-08
7.12252e-08
6.58388e-08
6.47098e-08
6.57624e-08
1.02589e-07
8.27521e-07
8.53191e-06
9.64627e-06
9.62374e-07
1.0872e-07
6.61041e-08
6.47326e-08
6.61034e-08
7.24096e-08
1.01255e-07
1.97294e-07
3.92772e-07
5.58371e-07
2.73335e-07
1.32093e-07
8.97291e-08
8.41277e-08
8.79406e-08
9.57125e-08
1.53649e-07
1.11379e-06
9.95381e-06
1.13075e-05
1.29205e-06
1.6399e-07
9.76995e-08
8.94109e-08
8.58005e-08
9.24831e-08
1.37155e-07
2.84532e-07
5.77286e-07
7.4508e-07
4.98319e-07
2.10565e-07
2.1242e-07
2.56729e-07
3.01068e-07
3.21119e-07
3.41954e-07
1.1633e-06
9.33329e-06
1.06078e-05
1.33318e-06
3.53754e-07
3.28837e-07
3.12075e-07
2.68223e-07
2.21912e-07
2.2005e-07
5.20267e-07
7.6997e-07
9.65353e-07
8.13985e-07
8.61e-07
1.33903e-06
1.86833e-06
2.32511e-06
2.50265e-06
2.47862e-06
3.53669e-06
7.98201e-06
8.74564e-06
3.87232e-06
2.56949e-06
2.56e-06
2.42177e-06
1.97206e-06
1.41273e-06
9.0735e-07
8.47628e-07
9.98277e-07
1.28697e-06
1.72221e-06
2.15562e-06
2.65647e-06
3.25412e-06
3.93543e-06
4.7277e-06
5.73991e-06
7.18897e-06
9.15192e-06
9.52557e-06
7.52529e-06
5.98846e-06
4.91922e-06
4.09419e-06
3.38811e-06
2.76586e-06
2.24296e-06
1.78843e-06
1.33161e-06
8.49527e-09
1.79099e-08
2.60221e-08
3.17698e-08
3.50388e-08
3.6448e-08
3.65732e-08
3.62675e-08
3.71393e-08
4.39856e-08
4.42487e-08
3.67665e-08
3.5483e-08
3.56584e-08
3.54041e-08
3.37852e-08
3.0263e-08
2.42116e-08
1.61865e-08
8.01415e-09
1.8305e-08
3.69193e-08
4.87761e-08
4.93855e-08
4.64044e-08
4.25471e-08
3.86654e-08
3.65745e-08
4.14911e-08
7.14684e-08
7.22744e-08
4.18101e-08
3.63776e-08
3.85401e-08
4.28639e-08
4.75652e-08
5.16572e-08
5.1868e-08
3.96388e-08
1.75969e-08
4.54457e-08
6.6191e-08
7.71359e-08
7.73687e-08
6.99435e-08
5.95983e-08
4.98857e-08
4.32462e-08
4.73239e-08
1.30156e-07
1.37229e-07
4.99919e-08
4.45217e-08
5.08583e-08
6.05061e-08
7.07807e-08
7.7789e-08
7.69107e-08
6.53581e-08
4.39264e-08
7.49572e-08
7.34227e-08
7.94463e-08
8.21636e-08
7.97636e-08
7.25037e-08