/*--------------------------------*- C++ -*----------------------------------*\
  =========                 |
  \\      /  F ield         | OpenFOAM: The Open Source CFD Toolbox
   \\    /   O peration     | Website:  https://openfoam.org
    \\  /    A nd           | Version:  9
     \\/     M anipulation  |
\*---------------------------------------------------------------------------*/
FoamFile
{
    format      ascii;
    class       volScalarField;
    location    "1600";
    object      k;
}
// * * * * * * * * * * * * * * * * * * * * * * * * * * * * * * * * * * * * * //

dimensions      [0 2 -2 0 0 0 0];

internalField   nonuniform List<scalar> 
4000
(
3.3289e-05
2.78368e-05
1.92949e-05
1.00456e-05
5.17405e-06
4.42221e-06
3.86271e-06
3.12396e-06
2.89805e-06
2.87989e-06
2.86163e-06
2.83915e-06
3.03599e-06
3.83487e-06
4.62033e-06
6.05987e-06
1.43359e-05
2.3581e-05
3.07206e-05
3.53779e-05
4.04412e-05
3.69205e-05
3.14367e-05
2.531e-05
2.04405e-05
1.57476e-05
7.22979e-06
5.07294e-06
4.7111e-06
4.89288e-06
4.91908e-06
4.75225e-06
5.06489e-06
8.06505e-06
1.68862e-05
2.18257e-05
2.6057e-05
3.21155e-05
3.77091e-05
4.13471e-05
4.37299e-05
4.07967e-05
3.54174e-05
2.95858e-05
2.37385e-05
1.86088e-05
1.38665e-05
8.61206e-06
5.50703e-06
6.19366e-06
6.24006e-06
5.67388e-06
9.2854e-06
1.38872e-05
1.89746e-05
2.42354e-05
3.00218e-05
3.59518e-05
4.15475e-05
4.45185e-05
4.55043e-05
4.35771e-05
3.87004e-05
3.23131e-05
2.55401e-05
1.99525e-05
1.56489e-05
1.1782e-05
9.21113e-06
8.87841e-06
9.5112e-06
1.03854e-05
1.29269e-05
1.62601e-05
2.04117e-05
2.61167e-05
3.30054e-05
3.94251e-05
4.43809e-05
4.63066e-05
4.66656e-05
4.59965e-05
4.28054e-05
3.86312e-05
3.44347e-05
3.09212e-05
2.81303e-05
2.58846e-05
2.42462e-05
2.33597e-05
2.41839e-05
2.54117e-05
2.70406e-05
2.92142e-05
3.19577e-05
3.54423e-05
3.9595e-05
4.37424e-05
4.6907e-05
4.75259e-05
4.76163e-05
4.84513e-05
4.75323e-05
4.59188e-05
4.41444e-05
4.23453e-05
4.06057e-05
3.88793e-05
3.72241e-05
3.5853e-05
3.65734e-05
3.8195e-05
3.99291e-05
4.16929e-05
4.3467e-05
4.52898e-05
4.70582e-05
4.86463e-05
4.9503e-05
4.85517e-05
4.86061e-05
5.10238e-05
5.22036e-05
5.26874e-05
5.27826e-05
5.24343e-05
5.16082e-05
5.03493e-05
4.86562e-05
4.66994e-05
4.73016e-05
4.94149e-05
5.12684e-05
5.26748e-05
5.36229e-05
5.40575e-05
5.39979e-05
5.3492e-05
5.22159e-05
4.96225e-05
4.97932e-05
5.38415e-05
5.694e-05
5.91539e-05
6.07408e-05
6.16532e-05
6.17907e-05
6.10455e-05
5.92789e-05
5.66018e-05
5.71508e-05
5.99001e-05
6.18875e-05
6.2875e-05
6.29415e-05
6.21708e-05
6.06452e-05
5.84053e-05
5.51771e-05
5.08953e-05
5.14766e-05
5.75145e-05
6.24966e-05
6.63304e-05
6.93124e-05
7.14141e-05
7.2543e-05
7.24178e-05
7.06431e-05
6.71058e-05
6.766e-05
7.11923e-05
7.32358e-05
7.36925e-05
7.28511e-05
7.09414e-05
6.80318e-05
6.41573e-05
5.90068e-05
5.2672e-05
5.40947e-05
6.2269e-05
6.93427e-05
7.48554e-05
7.93587e-05
8.2919e-05
8.5384e-05
8.64258e-05
8.55773e-05
8.22797e-05
8.29197e-05
8.62368e-05
8.73074e-05
8.65577e-05
8.43796e-05
8.10352e-05
7.66486e-05
7.1122e-05
6.38822e-05
5.53868e-05
2.78368e-05
2.37983e-05
1.75101e-05
1.0958e-05
7.58945e-06
7.18161e-06
6.90199e-06
5.00452e-06
4.13427e-06
4.01021e-06
4.00678e-06
4.12246e-06
4.98725e-06
6.61881e-06
7.40503e-06
8.16494e-06
1.38864e-05
2.15703e-05
2.74797e-05
3.06461e-05
3.69205e-05
4.87245e-05
4.23117e-05
3.36034e-05
2.8365e-05
2.39576e-05
1.62057e-05
1.03032e-05
8.0063e-06
7.79235e-06
7.83844e-06
8.09657e-06
1.03602e-05
1.75888e-05
2.59866e-05
2.96179e-05
3.40294e-05
4.28963e-05
4.96331e-05
3.77164e-05
4.07967e-05
4.80758e-05
4.4674e-05
3.66121e-05
2.9204e-05
2.36296e-05
1.90313e-05
1.4619e-05
1.09959e-05
9.75999e-06
9.84092e-06
1.13631e-05
1.47552e-05
1.90511e-05
2.43018e-05
2.98571e-05
3.76107e-05
4.62733e-05
4.96089e-05
4.16354e-05
4.35771e-05
4.89363e-05
4.68102e-05
3.94291e-05
3.01626e-05
2.36323e-05
1.88824e-05
1.46029e-05
1.14738e-05
1.17963e-05
1.16652e-05
1.2343e-05
1.52631e-05
1.91899e-05
2.40616e-05
3.07016e-05
4.00814e-05
4.76368e-05
4.99336e-05
4.45128e-05
4.59965e-05
5.17818e-05
5.11249e-05
4.52849e-05
3.58687e-05
2.85119e-05
2.35284e-05
1.93496e-05
1.70155e-05
1.70268e-05
1.73113e-05
1.80762e-05
2.08042e-05
2.47817e-05
2.97714e-05
3.72109e-05
4.63458e-05
5.2083e-05
5.27572e-05
4.70498e-05
4.84513e-05
5.48179e-05
5.52946e-05
5.21712e-05
4.58661e-05
3.74372e-05
3.18466e-05
2.76471e-05
2.52062e-05
2.45117e-05
2.50508e-05
2.63409e-05
2.91672e-05
3.35139e-05
3.9233e-05
4.7483e-05
5.33669e-05
5.63789e-05
5.58883e-05
4.9604e-05
5.10238e-05
5.74786e-05
5.83183e-05
5.7639e-05
5.61759e-05
5.21788e-05
4.50291e-05
3.86099e-05
3.45484e-05
3.28738e-05
3.35264e-05
3.58824e-05
4.05216e-05
4.70631e-05
5.40919e-05
5.78019e-05
5.91235e-05
5.9698e-05
5.88006e-05
5.22771e-05
5.38415e-05
6.06564e-05
6.1959e-05
6.33512e-05
6.57036e-05
6.65845e-05
6.54311e-05
6.28495e-05
5.86472e-05
5.37526e-05
5.46135e-05
5.98279e-05
6.43011e-05
6.71675e-05
6.84713e-05
6.77028e-05
6.53496e-05
6.38768e-05
6.23948e-05
5.52156e-05
5.75145e-05
6.62905e-05
7.09401e-05
7.45361e-05
7.78758e-05
8.03395e-05
8.15823e-05
8.05606e-05
7.58136e-05
6.7332e-05
6.77431e-05
7.61023e-05
8.14611e-05
8.32886e-05
8.26775e-05
8.05585e-05
7.72375e-05
7.35053e-05
6.84808e-05
5.90344e-05
6.2269e-05
7.14809e-05
7.97415e-05
8.66242e-05
9.27561e-05
9.81126e-05
0.000102285
0.000104534
0.00010401
0.000100085
0.000100702
0.000104737
0.000105564
0.000103729
9.99759e-05
9.49236e-05
8.89414e-05
8.2014e-05
7.35131e-05
6.3882e-05
1.92949e-05
1.75101e-05
1.33785e-05
9.87849e-06
8.8475e-06
9.28464e-06
8.52093e-06
6.44139e-06
5.22356e-06
4.84453e-06
4.82998e-06
5.16939e-06
6.39329e-06
8.36484e-06
9.33471e-06
8.99691e-06
1.12741e-05
1.65508e-05
2.14469e-05
2.33653e-05
3.14367e-05
4.23117e-05
3.89813e-05
3.39988e-05
3.085e-05
2.63739e-05
1.85607e-05
1.31598e-05
1.05019e-05
9.6913e-06
9.73431e-06
1.05156e-05
1.32544e-05
2.02494e-05
2.91695e-05
3.27931e-05
3.459e-05
3.92725e-05
4.27295e-05
3.19672e-05
3.54174e-05
4.4674e-05
4.3101e-05
3.66281e-05
3.07755e-05
2.58698e-05
2.19122e-05
1.79462e-05
1.41557e-05
1.21128e-05
1.22173e-05
1.44212e-05
1.79402e-05
2.19468e-05
2.68767e-05
3.17046e-05
3.75722e-05
4.45412e-05
4.64018e-05
3.60742e-05
3.87004e-05
4.68102e-05
4.55813e-05
3.94117e-05
3.15141e-05
2.56432e-05
2.14372e-05
1.7698e-05
1.47995e-05
1.34093e-05
1.37241e-05
1.52921e-05
1.79514e-05
2.15425e-05
2.61305e-05
3.21887e-05
4.0121e-05
4.63209e-05
4.77932e-05
3.96618e-05
4.28054e-05
5.11249e-05
4.96244e-05
4.3513e-05
3.4459e-05
2.72566e-05
2.23925e-05
1.82673e-05
1.50273e-05
1.39442e-05
1.44328e-05
1.61521e-05
1.92839e-05
2.32054e-05
2.82013e-05
3.5596e-05
4.46336e-05
5.06362e-05
5.2189e-05
4.39925e-05
4.75323e-05
5.52946e-05
5.36259e-05
4.80428e-05
3.95186e-05
3.09276e-05
2.50943e-05
2.05844e-05
1.74005e-05
1.65471e-05
1.69298e-05
1.8557e-05
2.19088e-05
2.64175e-05
3.23187e-05
4.08292e-05
4.91778e-05
5.47404e-05
5.64455e-05
4.8826e-05
5.22036e-05
5.83183e-05
5.66413e-05
5.08647e-05
4.40028e-05
3.68146e-05
3.05798e-05
2.56659e-05
2.23646e-05
2.10911e-05
2.14315e-05
2.32834e-05
2.70539e-05
3.21188e-05
3.83373e-05
4.53626e-05
5.22582e-05
5.81702e-05
5.98121e-05
5.36155e-05
5.694e-05
6.1959e-05
6.1972e-05
5.63497e-05
5.00287e-05
4.6155e-05
4.21476e-05
3.83356e-05
3.4386e-05
3.0771e-05
3.10286e-05
3.5129e-05
3.97648e-05
4.41425e-05
4.83207e-05
5.213e-05
5.88424e-05
6.44203e-05
6.40599e-05
5.84982e-05
6.24966e-05
7.09401e-05
8.04179e-05
8.90411e-05
9.43107e-05
9.71048e-05
9.94111e-05
9.85796e-05
9.01876e-05
7.4965e-05
7.52114e-05
9.06085e-05
0.000100173
0.000102743
0.000101727
9.93749e-05
9.35755e-05
8.42522e-05
7.3762e-05
6.42559e-05
6.93427e-05
7.97415e-05
8.89756e-05
9.69339e-05
0.000104411
0.000111399
0.00011731
0.000120911
0.000120867
0.000116175
0.000116756
0.000121663
0.000122105
0.000119052
0.000113691
0.000107074
9.97413e-05
9.16639e-05
8.2093e-05
7.11822e-05
1.00456e-05
1.0958e-05
9.87849e-06
9.35906e-06
9.83828e-06
1.06557e-05
9.38042e-06
7.45462e-06
6.13562e-06
5.70768e-06
5.64601e-06
6.00509e-06
7.30445e-06
9.27203e-06
1.05194e-05
1.02587e-05
9.74295e-06
1.12487e-05
1.36354e-05
1.36343e-05
2.531e-05
3.36034e-05
3.39988e-05
3.27519e-05
3.08255e-05
2.54117e-05
1.84755e-05
1.41984e-05
1.1971e-05
1.16391e-05
1.16329e-05
1.19689e-05
1.41102e-05
1.95746e-05
2.83175e-05
3.34903e-05
3.42044e-05
3.43099e-05
3.36513e-05
2.57427e-05
2.95858e-05
3.66121e-05
3.66281e-05
3.34174e-05
2.97155e-05
2.59635e-05
2.2922e-05
1.91894e-05
1.55632e-05
1.40649e-05
1.40378e-05
1.56892e-05
1.90862e-05
2.28626e-05
2.69369e-05
3.09269e-05
3.43012e-05
3.75266e-05
3.76809e-05
3.01411e-05
3.23131e-05
3.9429e-05
3.94117e-05
3.53616e-05
3.0145e-05
2.58492e-05
2.26276e-05
1.95803e-05
1.69358e-05
1.53594e-05
1.55802e-05
1.7312e-05
1.96819e-05
2.26164e-05
2.63204e-05
3.09403e-05
3.61765e-05
4.01908e-05
4.03245e-05
3.33428e-05
3.86312e-05
4.52849e-05
4.3513e-05
3.85877e-05
3.20908e-05
2.6628e-05
2.26926e-05
1.92667e-05
1.62928e-05
1.45134e-05
1.50307e-05
1.71217e-05
1.9925e-05
2.32107e-05
2.7367e-05
3.311e-05
3.97604e-05
4.47059e-05
4.65806e-05
3.99044e-05
4.59188e-05
5.21712e-05
4.80428e-05
4.23395e-05
3.51763e-05
2.84431e-05
2.34903e-05
1.94197e-05
1.59806e-05
1.39816e-05
1.45905e-05
1.70801e-05
2.05183e-05
2.45186e-05
2.9525e-05
3.6268e-05
4.34362e-05
4.92208e-05
5.35089e-05
4.72705e-05
5.26874e-05
5.7639e-05
5.08647e-05
4.44194e-05
3.77758e-05
3.14399e-05
2.63917e-05
2.23208e-05
1.90321e-05
1.70828e-05
1.75156e-05
2.00008e-05
2.36103e-05
2.77654e-05
3.27784e-05
3.89764e-05
4.56212e-05
5.22923e-05
5.90915e-05
5.41633e-05
5.91539e-05
6.33512e-05
5.63497e-05
5.00876e-05
4.63025e-05
4.31112e-05
4.06788e-05
3.83573e-05
3.4678e-05
2.98978e-05
3.03131e-05
3.57987e-05
4.02636e-05
4.31514e-05
4.57074e-05
4.8681e-05
5.24958e-05
5.92491e-05
6.53895e-05
6.08054e-05
6.63304e-05
7.45361e-05
8.90411e-05
0.000100986
0.000108665
0.000117272
0.000126202
0.000130047
0.000122096
0.00010278
0.000102387
0.000122867
0.000132979
0.000131293
0.000123886
0.000115431
0.000107842
9.39785e-05
7.7737e-05
6.8231e-05
7.48554e-05
8.66242e-05
9.69339e-05
0.000106054
0.000115213
0.000124268
0.000132319
0.000137778
0.000138884
0.00013459
0.000135237
0.000139869
0.000139278
0.000134451
0.000126997
0.000118324
0.000109267
9.99107e-05
8.91599e-05
7.68102e-05
5.17405e-06
7.58945e-06
8.8475e-06
9.83828e-06
1.11398e-05
1.11564e-05
9.72063e-06
8.05334e-06
6.82343e-06
6.48391e-06
6.40214e-06
6.62537e-06
7.80004e-06
9.47598e-06
1.08785e-05
1.10805e-05
1.02907e-05
8.97636e-06
8.04357e-06
5.59455e-06
2.04405e-05
2.8365e-05
3.085e-05
3.08255e-05
2.77061e-05
2.22387e-05
1.74752e-05
1.44137e-05
1.26579e-05
1.30466e-05
1.31133e-05
1.26593e-05
1.41639e-05
1.76042e-05
2.40378e-05
3.03847e-05
3.29153e-05
3.20269e-05
2.88572e-05
2.12745e-05
2.37385e-05
2.9204e-05
3.07755e-05
2.97155e-05
2.74614e-05
2.51103e-05
2.26062e-05
1.90273e-05
1.59151e-05
1.52987e-05
1.52597e-05
1.59024e-05
1.86925e-05
2.22067e-05
2.53806e-05
2.85191e-05
3.06699e-05
3.13951e-05
2.96455e-05
2.41526e-05
2.55401e-05
3.01626e-05
3.15141e-05
3.0145e-05
2.7485e-05
2.49405e-05
2.27127e-05
2.02203e-05
1.78298e-05
1.68771e-05
1.69634e-05
1.8174e-05
2.02755e-05
2.25114e-05
2.51088e-05
2.80788e-05
3.08268e-05
3.21263e-05
3.08506e-05
2.66118e-05
3.44347e-05
3.58687e-05
3.4459e-05
3.20908e-05
2.86064e-05
2.52793e-05
2.25348e-05
1.99721e-05
1.78229e-05
1.69537e-05
1.71495e-05
1.83489e-05
2.03787e-05
2.28188e-05
2.57605e-05
2.93712e-05
3.30723e-05
3.56656e-05
3.7498e-05
3.57218e-05
4.41444e-05
4.58661e-05
3.95186e-05
3.51763e-05
3.06732e-05
2.6322e-05
2.27285e-05
1.96158e-05
1.71126e-05
1.61635e-05
1.64633e-05
1.79057e-05
2.04469e-05
2.34967e-05
2.71543e-05
3.15939e-05
3.62427e-05
4.08553e-05
4.75136e-05
4.54827e-05
5.27826e-05
5.61759e-05
4.40028e-05
3.77758e-05
3.3037e-05
2.87068e-05
2.50922e-05
2.21369e-05
1.99316e-05
1.93152e-05
1.95968e-05
2.08172e-05
2.33227e-05
2.63282e-05
2.99156e-05
3.41715e-05
3.89252e-05
4.52912e-05
5.76629e-05
5.42472e-05
6.07408e-05
6.57036e-05
5.00287e-05
4.63025e-05
4.47987e-05
4.35423e-05
4.28014e-05
4.18525e-05
3.88653e-05
3.42502e-05
3.47061e-05
4.02095e-05
4.41169e-05
4.56626e-05
4.65047e-05
4.75033e-05
4.86599e-05
5.19919e-05
6.77322e-05
6.24087e-05
6.93124e-05
7.78758e-05
9.43107e-05
0.000108665
0.000126279
0.000143162
0.000157636
0.000164503
0.000152987
0.000124558
0.000123748
0.000153672
0.000168315
0.000164612
0.000151358
0.000134778
0.000116258
0.000100457
8.13084e-05
7.12583e-05
7.93587e-05
9.27561e-05
0.000104411
0.000115213
0.000126947
0.000138533
0.000148874
0.000156361
0.000158954
0.000155517
0.000156408
0.000160156
0.000158097
0.000151262
0.000141476
0.000130272
0.000118602
0.00010748
9.53216e-05
8.13241e-05
4.42221e-06
7.18161e-06
9.28464e-06
1.06557e-05
1.11564e-05
1.07012e-05
9.60881e-06
8.35982e-06
7.40054e-06
7.27649e-06
7.18536e-06
7.13618e-06
8.01102e-06
9.22175e-06
1.02782e-05
1.07189e-05
1.03453e-05
9.2183e-06
7.32742e-06
4.06374e-06
1.57476e-05
2.39576e-05
2.63739e-05
2.54117e-05
2.22387e-05
1.89324e-05
1.63252e-05
1.42482e-05
1.3168e-05
1.4463e-05
1.46413e-05
1.31729e-05
1.3872e-05
1.58022e-05
1.89212e-05
2.33426e-05
2.69793e-05
2.75084e-05
2.44485e-05
1.62107e-05
1.86088e-05
2.36296e-05
2.58698e-05
2.59635e-05
2.51103e-05
2.36316e-05
2.11653e-05
1.80604e-05
1.57872e-05
1.60653e-05
1.60395e-05
1.56699e-05
1.74792e-05
2.02896e-05
2.29972e-05
2.50244e-05
2.63115e-05
2.61525e-05
2.36734e-05
1.86093e-05
1.99525e-05
2.36323e-05
2.56432e-05
2.58492e-05
2.49405e-05
2.36395e-05
2.20348e-05
1.98498e-05
1.78192e-05
1.74309e-05
1.74838e-05
1.80078e-05
1.97758e-05
2.16217e-05
2.33063e-05
2.4911e-05
2.60069e-05
2.58308e-05
2.39433e-05
2.07443e-05
3.09212e-05
2.85119e-05
2.72566e-05
2.6628e-05
2.52793e-05
2.35655e-05
2.17844e-05
1.99686e-05
1.85746e-05
1.84122e-05
1.85682e-05
1.89378e-05
2.01676e-05
2.18268e-05
2.36966e-05
2.56124e-05
2.71477e-05
2.79829e-05
2.95637e-05
3.20837e-05
4.23453e-05
3.74372e-05
3.09276e-05
2.84431e-05
2.6322e-05
2.39618e-05
2.16511e-05
1.95594e-05
1.82379e-05
1.86698e-05
1.88238e-05
1.87866e-05
2.01346e-05
2.21516e-05
2.451e-05
2.69944e-05
2.93156e-05
3.21284e-05
3.90613e-05
4.35989e-05
5.24343e-05
5.21788e-05
3.68146e-05
3.14399e-05
2.87068e-05
2.62979e-05
2.40907e-05
2.23435e-05
2.15853e-05
2.30421e-05
2.32483e-05
2.23509e-05
2.33581e-05
2.513e-05
2.73264e-05
2.97382e-05
3.25383e-05
3.8063e-05
5.38526e-05
5.38294e-05
6.16532e-05
6.65845e-05
4.6155e-05
4.31112e-05
4.35423e-05
4.45535e-05
4.56789e-05
4.58287e-05
4.27699e-05
3.78366e-05
3.8296e-05
4.40162e-05
4.80589e-05
4.8605e-05
4.76661e-05
4.64494e-05
4.5565e-05
4.80043e-05
6.85979e-05
6.32509e-05
7.14141e-05
8.03394e-05
9.71048e-05
0.000117272
0.000143162
0.000168389
0.000188748
0.00019639
0.000176048
0.000132927
0.000131455
0.000175062
0.000199388
0.000195637
0.000177205
0.000152452
0.000125264
0.000103121
8.36026e-05
7.32838e-05
8.2919e-05
9.81126e-05
0.000111399
0.000124268
0.000138533
0.000152718
0.000165618
0.000175542
0.000180377
0.000179082
0.000180452
0.000181823
0.000177423
0.000168057
0.000155649
0.000141806
0.000127558
0.00011433
0.00010056
8.48067e-05
3.86271e-06
6.90199e-06
8.52093e-06
9.38042e-06
9.72063e-06
9.60881e-06
9.11658e-06
8.45335e-06
7.95512e-06
8.2972e-06
8.20325e-06
7.62808e-06
8.0334e-06
8.647e-06
9.08498e-06
9.15895e-06
8.79714e-06
7.79383e-06
6.00562e-06
3.4122e-06
7.22979e-06
1.62057e-05
1.85607e-05
1.84755e-05
1.74752e-05
1.63252e-05
1.50834e-05
1.39438e-05
1.38763e-05
1.69753e-05
1.73467e-05
1.38669e-05
1.34367e-05
1.4252e-05
1.53806e-05
1.66957e-05
1.80524e-05
1.83699e-05
1.57775e-05
7.17225e-06
1.38665e-05
1.90313e-05
2.19122e-05
2.2922e-05
2.26062e-05
2.11653e-05
1.90308e-05
1.68535e-05
1.57004e-05
1.75424e-05
1.7566e-05
1.55094e-05
1.6097e-05
1.78277e-05
1.98264e-05
2.14164e-05
2.19789e-05
2.10213e-05
1.81959e-05
1.32211e-05
1.56489e-05
1.88824e-05
2.14372e-05
2.26276e-05
2.27127e-05
2.20348e-05
2.06625e-05
1.87851e-05
1.74888e-05
1.85907e-05
1.86576e-05
1.74827e-05
1.84585e-05
2.00595e-05
2.1336e-05
2.20549e-05
2.20652e-05
2.09702e-05
1.86962e-05
1.61611e-05
2.81302e-05
2.35284e-05
2.23925e-05
2.26926e-05
2.25348e-05
2.17844e-05
2.06565e-05
1.94e-05
1.8733e-05
2.01744e-05
2.04305e-05
1.90176e-05
1.94139e-05
2.04686e-05
2.1583e-05
2.24207e-05
2.26993e-05
2.26029e-05
2.41382e-05
2.90653e-05
4.06057e-05
3.18466e-05
2.50943e-05
2.34903e-05
2.27286e-05
2.16511e-05
2.03161e-05
1.90946e-05
1.89224e-05
2.16347e-05
2.19652e-05
1.93806e-05
1.94375e-05
2.05397e-05
2.18659e-05
2.30222e-05
2.39225e-05
2.57419e-05
3.28391e-05
4.17084e-05
5.16082e-05
4.50291e-05
3.05798e-05
2.63917e-05
2.50922e-05
2.40907e-05
2.30682e-05
2.24164e-05
2.30858e-05
2.7501e-05
2.80677e-05
2.38251e-05
2.32063e-05
2.3836e-05
2.48257e-05
2.58269e-05
2.71729e-05
3.15289e-05
4.66318e-05
5.289e-05
6.17907e-05
6.54311e-05
4.21476e-05
4.06788e-05
4.28014e-05
4.56789e-05
4.82657e-05
4.8561e-05
4.4233e-05
4.02351e-05
4.10403e-05
4.50999e-05
5.02301e-05
5.07338e-05
4.84797e-05
4.54778e-05
4.28627e-05
4.37867e-05
6.74598e-05
6.32663e-05
7.2543e-05
8.15823e-05
9.94111e-05
0.000126202
0.000157636
0.000188748
0.000213997
0.000217916
0.000179677
0.000131928
0.000131838
0.00017575
0.000218146
0.000218724
0.000196159
0.000166254
0.00013312
0.0001044
8.44083e-05
7.42502e-05
8.5384e-05
0.000102285
0.00011731
0.000132319
0.000148874
0.000165618
0.000181421
0.000194579
0.000203544
0.000208521
0.000210854
0.000205502
0.000196688
0.000183856
0.000168403
0.000151905
0.000135276
0.00011993
0.000104503
8.7129e-05
3.12396e-06
5.00452e-06
6.44139e-06
7.45462e-06
8.05334e-06
8.35982e-06
8.45335e-06
8.44518e-06
8.58699e-06
9.51064e-06
9.39468e-06
8.19618e-06
7.99337e-06
7.96478e-06
7.83823e-06
7.50138e-06
6.88556e-06
5.87686e-06
4.44461e-06
2.7923e-06
5.07294e-06
1.03032e-05
1.31598e-05
1.41984e-05
1.44137e-05
1.42482e-05
1.39438e-05
1.39407e-05
1.51739e-05
1.87534e-05
1.91417e-05
1.51332e-05
1.33369e-05
1.30466e-05
1.31901e-05
1.32792e-05
1.30703e-05
1.21607e-05
9.4621e-06
4.55449e-06
8.61206e-06
1.4619e-05
1.79462e-05
1.91894e-05
1.90273e-05
1.80604e-05
1.68535e-05
1.59501e-05
1.61714e-05
2.11522e-05
2.13217e-05
1.58829e-05
1.50994e-05
1.56484e-05
1.66535e-05
1.75636e-05
1.77893e-05
1.66551e-05
1.35959e-05
7.78841e-06
1.1782e-05
1.46029e-05
1.7698e-05
1.95803e-05
2.02203e-05
1.98498e-05
1.87851e-05
1.76839e-05
1.79354e-05
2.6482e-05
2.68689e-05
1.77943e-05
1.70907e-05
1.80377e-05
1.90773e-05
1.94594e-05
1.88473e-05
1.70503e-05
1.42473e-05
1.17296e-05
2.58846e-05
1.93496e-05
1.82673e-05
1.92667e-05
1.99721e-05
1.99686e-05
1.94e-05
1.87772e-05
1.99234e-05
3.51716e-05
3.5988e-05
2.02338e-05
1.86411e-05
1.90851e-05
1.96069e-05
1.96484e-05
1.90332e-05
1.82434e-05
1.97425e-05
2.65275e-05
3.88793e-05
2.76471e-05
2.05844e-05
1.94197e-05
1.96158e-05
1.95594e-05
1.90946e-05
1.8806e-05
2.12812e-05
4.48453e-05
4.63509e-05
2.18529e-05
1.89484e-05
1.90843e-05
1.94964e-05
1.95872e-05
1.95069e-05
2.0892e-05
2.83275e-05
3.98094e-05
5.03493e-05
3.86099e-05
2.56659e-05
2.23208e-05
2.21369e-05
2.23435e-05
2.24164e-05
2.29547e-05
2.71513e-05
5.65302e-05
5.93025e-05
2.81372e-05
2.35062e-05
2.28535e-05
2.27035e-05
2.24493e-05
2.26443e-05
2.61769e-05
3.97154e-05
5.14901e-05
6.10455e-05
6.28495e-05
3.83356e-05
3.83573e-05
4.18525e-05
4.58287e-05
4.8561e-05
4.7419e-05
4.40463e-05
6.43948e-05
6.7802e-05
4.50782e-05
4.83118e-05
5.00305e-05
4.77443e-05
4.37161e-05
3.97577e-05
3.94284e-05
6.48178e-05
6.23722e-05
7.24178e-05
8.05606e-05
9.85796e-05
0.000130047
0.000164503
0.00019639
0.000217916
0.000204257
0.000160151
0.000172672
0.00017749
0.000160434
0.000201914
0.000218649
0.000200814
0.000170326
0.000134762
0.000101764
8.27293e-05
7.39171e-05
8.64258e-05
0.000104534
0.000120911
0.000137778
0.000156361
0.000175542
0.000194579
0.000212579
0.00023063
0.000251579
0.000255366
0.000233902
0.000215359
0.000197199
0.000178242
0.000159116
0.000140375
0.000123184
0.000106503
8.80155e-05
2.89805e-06
4.13427e-06
5.22356e-06
6.13562e-06
6.82343e-06
7.40054e-06
7.95512e-06
8.58699e-06
9.2913e-06
1.07032e-05
1.01685e-05
8.8257e-06
8.12707e-06
7.51946e-06
6.97585e-06
6.40363e-06
5.71838e-06
4.82796e-06
3.764e-06
2.68134e-06
4.7111e-06
8.0063e-06
1.05019e-05
1.1971e-05
1.26579e-05
1.3168e-05
1.38763e-05
1.51739e-05
1.68099e-05
4.67327e-05
4.82817e-05
1.66921e-05
1.46233e-05
1.31894e-05
1.24268e-05
1.18836e-05
1.11893e-05
9.78873e-06
7.41615e-06
4.44925e-06
5.50703e-06
1.09959e-05
1.41557e-05
1.55632e-05
1.59151e-05
1.57872e-05
1.57004e-05
1.61714e-05
2.17983e-05
0.000102512
0.00010666
2.20385e-05
1.54462e-05
1.48306e-05
1.48284e-05
1.49258e-05
1.46055e-05
1.32654e-05
1.01843e-05
5.2963e-06
9.21113e-06
1.14738e-05
1.47995e-05
1.69358e-05
1.78298e-05
1.78192e-05
1.74888e-05
1.79354e-05
3.07154e-05
0.000161678
0.000169688
3.15421e-05
1.73983e-05
1.68489e-05
1.72219e-05
1.73353e-05
1.65156e-05
1.44461e-05
1.11754e-05
8.31962e-06
2.42462e-05
1.70155e-05
1.50273e-05
1.62928e-05
1.78229e-05
1.85746e-05
1.8733e-05
1.99234e-05
4.32952e-05
0.000232062
0.00024469
4.53675e-05
1.99314e-05
1.85298e-05
1.83383e-05
1.76258e-05
1.62127e-05
1.51272e-05
1.71685e-05
2.46171e-05
3.72241e-05
2.52062e-05
1.74005e-05
1.59806e-05
1.71126e-05
1.82379e-05
1.89224e-05
2.12812e-05
5.68121e-05
0.000300067
0.000317991
6.02834e-05
2.15653e-05
1.88699e-05
1.80996e-05
1.70031e-05
1.6035e-05
1.76835e-05
2.5714e-05
3.80068e-05
4.86562e-05
3.45484e-05
2.23646e-05
1.90321e-05
1.99316e-05
2.15853e-05
2.30858e-05
2.71513e-05
7.21765e-05
0.000342817
0.000365511
7.69548e-05
2.78315e-05
2.32814e-05
2.16054e-05
1.98711e-05
1.90507e-05
2.2672e-05
3.54937e-05
4.96805e-05
5.92789e-05
5.86472e-05
3.4386e-05
3.4678e-05
3.88653e-05
4.27699e-05
4.4233e-05
4.40463e-05
8.04833e-05
0.000336158
0.000359479
8.55977e-05
4.49247e-05
4.48997e-05
4.3616e-05
3.96984e-05
3.52572e-05
3.506e-05
6.03637e-05
6.0481e-05
7.06431e-05
7.58136e-05
9.01875e-05
0.000122096
0.000152987
0.000176048
0.000179677
0.000160151
0.000184559
0.000318681
0.000333459
0.000191873
0.000161046
0.000179406
0.000177585
0.000155921
0.000124614
9.20218e-05
7.75142e-05
7.19981e-05
8.55773e-05
0.00010401
0.000120866
0.000138884
0.000158954
0.000180377
0.000203544
0.00023063
0.000266745
0.000312013
0.000316683
0.000271829
0.000234812
0.000206933
0.000183339
0.000161672
0.000141316
0.000122984
0.000105871
8.70942e-05
2.87989e-06
4.01021e-06
4.84453e-06
5.70768e-06
6.48391e-06
7.27649e-06
8.2972e-06
9.51064e-06
1.07032e-05
1.13794e-05
1.08886e-05
9.9693e-06
9.10357e-06
7.95292e-06
6.98101e-06
6.20687e-06
5.43612e-06
4.5687e-06
3.74131e-06
2.68914e-06
4.89288e-06
7.79236e-06
9.6913e-06
1.16391e-05
1.30466e-05
1.4463e-05
1.69753e-05
1.87534e-05
4.67327e-05
4.78726e-05
4.75535e-05
4.9338e-05
1.85734e-05
1.65592e-05
1.41406e-05
1.27443e-05
1.13261e-05
9.39503e-06
7.51238e-06
4.69665e-06
6.19366e-06
9.75999e-06
1.21128e-05
1.40649e-05
1.52987e-05
1.60653e-05
1.75424e-05
2.11522e-05
0.000102512
8.7945e-05
8.71048e-05
0.000110606
2.13063e-05
1.71074e-05
1.57065e-05
1.49572e-05
1.36556e-05
1.17125e-05
9.38955e-06
5.93975e-06
8.87841e-06
1.17963e-05
1.34093e-05
1.53594e-05
1.68771e-05
1.74309e-05
1.85907e-05
2.6482e-05
0.000161678
0.00013538
0.000133278
0.000176676
2.72402e-05
1.83293e-05
1.71833e-05
1.66786e-05
1.52177e-05
1.34155e-05
1.16565e-05
7.82806e-06
2.33597e-05
1.70268e-05
1.39442e-05
1.45134e-05
1.69537e-05
1.84122e-05
2.01744e-05
3.51716e-05
0.000232062
0.000191729
0.000187647
0.000254551
3.69717e-05
2.02254e-05
1.83252e-05
1.68539e-05
1.45617e-05
1.42447e-05
1.7177e-05
2.35361e-05
3.5853e-05
2.45117e-05
1.65471e-05
1.39816e-05
1.61635e-05
1.86698e-05
2.16347e-05
4.48453e-05
0.000300067
0.000254674
0.000248216
0.000329736
4.7839e-05
2.18611e-05
1.85695e-05
1.6026e-05
1.41155e-05
1.68648e-05
2.49649e-05
3.65161e-05
4.66994e-05
3.28738e-05
2.10911e-05
1.70828e-05
1.93152e-05
2.30421e-05
2.7501e-05
5.65302e-05
0.000342817
0.000315842
0.000307047
0.000376973
6.03998e-05
2.79569e-05
2.29329e-05
1.9064e-05
1.70842e-05
2.13866e-05
3.36714e-05
4.76159e-05
5.66018e-05
5.37526e-05
3.0771e-05
2.98978e-05
3.42502e-05
3.78366e-05
4.02351e-05
6.43948e-05
0.000336158
0.000358814
0.000347769
0.000370709
6.84189e-05
4.10039e-05
3.81508e-05
3.44794e-05
3.01975e-05
3.14258e-05
5.52379e-05
5.76973e-05
6.71058e-05
6.7332e-05
7.4965e-05
0.00010278
0.000124558
0.000132927
0.000131928
0.000172672
0.000318681
0.000373063
0.000363928
0.000341295
0.000180395
0.000134364
0.000133886
0.000126348
0.00010467
7.65834e-05
6.88238e-05
6.83746e-05
8.22797e-05
0.000100085
0.000116175
0.00013459
0.000155517
0.000179082
0.000208521
0.000251579
0.000312013
0.000349129
0.000344493
0.000319424
0.000257793
0.00021319
0.000182704
0.000158547
0.000137167
0.000118363
0.000101975
8.37908e-05
2.86163e-06
4.00678e-06
4.82998e-06
5.64601e-06
6.40214e-06
7.18536e-06
8.20325e-06
9.39468e-06
1.01685e-05
1.08886e-05
1.0988e-05
1.01067e-05
9.12494e-06
7.99068e-06
7.02149e-06
6.24497e-06
5.47224e-06
4.62177e-06
3.81148e-06
2.72208e-06
4.91908e-06
7.83844e-06
9.73431e-06
1.16329e-05
1.31133e-05
1.46413e-05
1.73467e-05
1.91417e-05
4.82817e-05
4.75535e-05
4.71919e-05
4.99016e-05
1.86426e-05
1.6799e-05
1.43804e-05
1.30093e-05
1.15704e-05
9.67998e-06
7.75955e-06
4.81362e-06
6.24006e-06
9.84092e-06
1.22173e-05
1.40378e-05
1.52597e-05
1.60395e-05
1.7566e-05
2.13217e-05
0.00010666
8.71048e-05
8.6389e-05
0.000116233
2.18745e-05
1.73788e-05
1.59535e-05
1.52438e-05
1.40152e-05
1.21848e-05
9.78123e-06
6.09175e-06
9.5112e-06
1.16652e-05
1.37241e-05
1.55802e-05
1.69634e-05
1.74838e-05
1.86576e-05
2.68689e-05
0.000169688
0.000133278
0.000131922
0.000189082
2.83673e-05
1.85526e-05
1.73239e-05
1.67861e-05
1.54681e-05
1.3693e-05
1.13573e-05
8.65973e-06
2.41839e-05
1.73113e-05
1.44328e-05
1.50307e-05
1.71495e-05
1.85682e-05
2.04305e-05
3.5988e-05
0.00024469
0.000187647
0.000185132
0.000274891
3.87809e-05
2.03083e-05
1.82659e-05
1.68127e-05
1.48456e-05
1.44839e-05
1.73781e-05
2.44885e-05
3.65734e-05
2.50508e-05
1.69298e-05
1.45905e-05
1.64633e-05
1.88238e-05
2.19652e-05
4.63509e-05
0.000317991
0.000248216
0.000243984
0.000357927
5.05763e-05
2.18568e-05
1.83919e-05
1.60329e-05
1.45037e-05
1.71543e-05
2.54989e-05
3.73288e-05
4.73016e-05
3.35264e-05
2.14315e-05
1.75156e-05
1.95968e-05
2.32483e-05
2.80677e-05
5.93025e-05
0.000365511
0.000307047
0.00030051
0.000410985
6.43902e-05
2.82109e-05
2.29166e-05
1.92478e-05
1.75185e-05
2.17901e-05
3.43203e-05
4.83172e-05
5.71508e-05
5.46135e-05
3.10286e-05
3.03131e-05
3.47061e-05
3.8296e-05
4.10403e-05
6.7802e-05
0.000359479
0.000347769
0.000338311
0.000404552
7.27225e-05
4.13779e-05
3.83458e-05
3.48921e-05
3.06965e-05
3.18268e-05
5.6198e-05
5.83847e-05
6.766e-05
6.77431e-05
7.52114e-05
0.000102387
0.000123748
0.000131455
0.000131838
0.00017749
0.000333459
0.000363928
0.000356154
0.000362984
0.000187657
0.000135171
0.00013341
0.000126743
0.000105108
7.75156e-05
6.95409e-05
6.91618e-05
8.29197e-05
0.000100702
0.000116756
0.000135237
0.000156408
0.000180452
0.000210854
0.000255366
0.000316683
0.000344493
0.000341101
0.000327969
0.000264468
0.000217577
0.000185681
0.000160776
0.000138907
0.000119849
0.000103254
8.4836e-05
2.83915e-06
4.12245e-06
5.16939e-06
6.00509e-06
6.62537e-06
7.13618e-06
7.62808e-06
8.19618e-06
8.8257e-06
9.9693e-06
1.01067e-05
8.7097e-06
8.05945e-06
7.49356e-06
6.99679e-06
6.47167e-06
5.82869e-06
4.94837e-06
3.9201e-06
2.75716e-06
4.75225e-06
8.09657e-06
1.05156e-05
1.19689e-05
1.26593e-05
1.31729e-05
1.38669e-05
1.51332e-05
1.66921e-05
4.9338e-05
4.99016e-05
1.66596e-05
1.46731e-05
1.3509e-05
1.29178e-05
1.25118e-05
1.19194e-05
1.04784e-05
8.03361e-06
4.66127e-06
5.67388e-06
1.13631e-05
1.44212e-05
1.56892e-05
1.59024e-05
1.56698e-05
1.55094e-05
1.58829e-05
2.20385e-05
0.000110606
0.000116233
2.31842e-05
1.58593e-05
1.53946e-05
1.55559e-05
1.57989e-05
1.55709e-05
1.42864e-05
1.12066e-05
5.54479e-06
1.03854e-05
1.2343e-05
1.52921e-05
1.7312e-05
1.8174e-05
1.80078e-05
1.74827e-05
1.77943e-05
3.15421e-05
0.000176676
0.000189082
3.38918e-05
1.78666e-05
1.73175e-05
1.77598e-05
1.78837e-05
1.70391e-05
1.50214e-05
1.20035e-05
1.00476e-05
2.54117e-05
1.80762e-05
1.61521e-05
1.71217e-05
1.83489e-05
1.89378e-05
1.90176e-05
2.02338e-05
4.53675e-05
0.000254551
0.000274891
4.94744e-05
2.03653e-05
1.88581e-05
1.87172e-05
1.81018e-05
1.69119e-05
1.60423e-05
1.81881e-05
2.59536e-05
3.8195e-05
2.63409e-05
1.8557e-05
1.70801e-05
1.79057e-05
1.87866e-05
1.93806e-05
2.18529e-05
6.02834e-05
0.000329736
0.000357927
6.636e-05
2.21399e-05
1.92147e-05
1.85243e-05
1.76438e-05
1.69592e-05
1.86786e-05
2.68811e-05
3.91016e-05
4.94149e-05
3.58824e-05
2.32834e-05
2.00008e-05
2.08172e-05
2.23509e-05
2.38251e-05
2.81372e-05
7.69548e-05
0.000376973
0.000410985
8.45878e-05
2.87992e-05
2.39015e-05
2.23084e-05
2.07727e-05
2.01145e-05
2.36945e-05
3.68057e-05
5.05496e-05
5.99001e-05
5.98279e-05
3.5129e-05
3.57987e-05
4.02095e-05
4.40162e-05
4.50999e-05
4.50782e-05
8.55977e-05
0.000370709
0.000404552
9.29903e-05
4.57143e-05
4.55713e-05
4.4794e-05
4.11131e-05
3.66393e-05
3.60629e-05
6.15153e-05
6.12527e-05
7.11923e-05
7.61023e-05
9.06085e-05
0.000122867
0.000153672
0.000175062
0.00017575
0.000160434
0.000191873
0.000341295
0.000362984
0.00020338
0.000162798
0.000177327
0.000179432
0.000159205
0.000127342
9.39281e-05
7.8227e-05
7.28325e-05
8.62368e-05
0.000104737
0.000121663
0.000139869
0.000160156
0.000181823
0.000205502
0.000233902
0.000271829
0.000319424
0.000327969
0.000280257
0.000240647
0.000211061
0.000186733
0.000164576
0.000143734
0.000124976
0.000107451
8.82608e-05
3.03599e-06
4.98725e-06
6.39329e-06
7.30445e-06
7.80004e-06
8.01103e-06
8.0334e-06
7.99337e-06
8.12707e-06
9.10357e-06
9.12494e-06
8.05945e-06
7.87343e-06
7.90146e-06
7.8645e-06
7.62252e-06
7.08214e-06
6.10208e-06
4.66898e-06
2.92201e-06
5.06489e-06
1.03602e-05
1.32544e-05
1.41102e-05
1.41639e-05
1.3872e-05
1.34367e-05
1.33369e-05
1.46233e-05
1.85734e-05
1.86426e-05
1.46731e-05
1.32285e-05
1.32771e-05
1.37483e-05
1.41523e-05
1.42514e-05
1.35122e-05
1.0607e-05
4.94109e-06
9.2854e-06
1.47552e-05
1.79402e-05
1.90862e-05
1.86925e-05
1.74792e-05
1.6097e-05
1.50994e-05
1.54462e-05
2.13063e-05
2.18745e-05
1.58593e-05
1.52685e-05
1.61429e-05
1.74579e-05
1.86192e-05
1.89334e-05
1.77122e-05
1.4512e-05
9.09153e-06
1.29269e-05
1.52631e-05
1.79514e-05
1.96819e-05
2.02755e-05
1.97758e-05