/*--------------------------------*- C++ -*----------------------------------*\
  =========                 |
  \\      /  F ield         | OpenFOAM: The Open Source CFD Toolbox
   \\    /   O peration     | Website:  https://openfoam.org
    \\  /    A nd           | Version:  9
     \\/     M anipulation  |
\*---------------------------------------------------------------------------*/
FoamFile
{
    format      ascii;
    class       volScalarField;
    location    "1650";
    object      epsilon;
}
// * * * * * * * * * * * * * * * * * * * * * * * * * * * * * * * * * * * * * //

dimensions      [0 2 -3 0 0 0 0];

internalField   nonuniform List<scalar> 
4000
(
3.00214e-07
2.29658e-07
1.43945e-07
4.15543e-08
1.84336e-08
1.56511e-08
1.22644e-08
8.76698e-09
7.85244e-09
7.77265e-09
7.69952e-09
7.59836e-09
8.28797e-09
1.15372e-08
1.48088e-08
2.13775e-08
6.42226e-08
1.81679e-07
2.61016e-07
3.25389e-07
3.89778e-07
3.35026e-07
2.50354e-07
1.84799e-07
1.40354e-07
9.58361e-08
3.01517e-08
1.84008e-08
1.64935e-08
1.75762e-08
1.75808e-08
1.66205e-08
1.79232e-08
3.4123e-08
1.05583e-07
1.5093e-07
1.89099e-07
2.62458e-07
3.49691e-07
4.06872e-07
4.38654e-07
3.93043e-07
3.18074e-07
2.46815e-07
1.80927e-07
1.2527e-07
7.96089e-08
3.72352e-08
2.1049e-08
2.48571e-08
2.48572e-08
2.14117e-08
4.33247e-08
8.15039e-08
1.32114e-07
1.89025e-07
2.5337e-07
3.26966e-07
4.07362e-07
4.55015e-07
4.65793e-07
4.34712e-07
3.61977e-07
2.76669e-07
1.95623e-07
1.34798e-07
9.15135e-08
5.64906e-08
3.70548e-08
3.62449e-08
3.80642e-08
4.27102e-08
6.47882e-08
9.73759e-08
1.40647e-07
2.0447e-07
2.87518e-07
3.74467e-07
4.50401e-07
4.82794e-07
4.83657e-07
4.72032e-07
4.2208e-07
3.60426e-07
3.01929e-07
2.55739e-07
2.20483e-07
1.93163e-07
1.73514e-07
1.6273e-07
1.70686e-07
1.84596e-07
2.05385e-07
2.32872e-07
2.6855e-07
3.15916e-07
3.75479e-07
4.38527e-07
4.89761e-07
5.01691e-07
4.98201e-07
5.10232e-07
4.95116e-07
4.7003e-07
4.43132e-07
4.16158e-07
3.90539e-07
3.65482e-07
3.42067e-07
3.22615e-07
3.29785e-07
3.52265e-07
3.77564e-07
4.04168e-07
4.3147e-07
4.60255e-07
4.88683e-07
5.15053e-07
5.30664e-07
5.17408e-07
5.13502e-07
5.51764e-07
5.71492e-07
5.80664e-07
5.83629e-07
5.78754e-07
5.65878e-07
5.45682e-07
5.18499e-07
4.86559e-07
4.91889e-07
5.25383e-07
5.55779e-07
5.79439e-07
5.95671e-07
6.03448e-07
6.02715e-07
5.94763e-07
5.74732e-07
5.33936e-07
5.32231e-07
5.98533e-07
6.52318e-07
6.92813e-07
7.23068e-07
7.41357e-07
7.45282e-07
7.32633e-07
7.01116e-07
6.53313e-07
6.57241e-07
7.05536e-07
7.4135e-07
7.59192e-07
7.602e-07
7.45964e-07
7.18433e-07
6.78968e-07
6.2405e-07
5.53965e-07
5.59397e-07
6.61338e-07
7.51126e-07
8.2401e-07
8.83197e-07
9.26468e-07
9.50649e-07
9.4933e-07
9.14994e-07
8.47263e-07
8.50075e-07
9.18064e-07
9.57557e-07
9.65801e-07
9.48394e-07
9.10411e-07
8.54213e-07
7.8189e-07
6.89869e-07
5.82647e-07
6.02808e-07
7.46049e-07
8.79238e-07
9.89008e-07
1.08256e-06
1.15906e-06
1.21354e-06
1.23751e-06
1.22083e-06
1.15446e-06
1.15861e-06
1.22896e-06
1.25053e-06
1.23258e-06
1.18443e-06
1.11302e-06
1.02253e-06
9.13131e-07
7.77089e-07
6.27833e-07
2.29658e-07
1.82121e-07
1.20577e-07
5.1436e-08
3.24122e-08
3.41069e-08
2.9644e-08
1.80487e-08
1.32077e-08
1.25286e-08
1.24142e-08
1.28767e-08
1.67573e-08
2.5964e-08
3.42748e-08
3.57457e-08
6.69351e-08
1.55861e-07
2.1411e-07
2.60779e-07
3.35026e-07
4.3099e-07
3.27464e-07
2.38911e-07
1.92254e-07
1.43967e-07
7.57831e-08
3.46357e-08
2.00805e-08
1.65803e-08
1.69219e-08
2.0489e-08
3.41913e-08
8.75625e-08
1.62153e-07
2.02017e-07
2.42231e-07
3.409e-07
4.61479e-07
3.5156e-07
3.93043e-07
4.29767e-07
3.6554e-07
2.67454e-07
1.93461e-07
1.39906e-07
9.72519e-08
6.13218e-08
3.43141e-08
2.31872e-08
2.46033e-08
3.79367e-08
6.40695e-08
1.00734e-07
1.49489e-07
2.0445e-07
2.85161e-07
3.9382e-07
4.52448e-07
4.10619e-07
4.34712e-07
4.09539e-07
3.57534e-07
2.75594e-07
1.92248e-07
1.3639e-07
9.63581e-08
6.40633e-08
4.05216e-08
3.40694e-08
3.65943e-08
4.66658e-08
6.8622e-08
1.00162e-07
1.41742e-07
1.99209e-07
2.84969e-07
3.71773e-07
4.27137e-07
4.5415e-07
4.72032e-07
4.33153e-07
3.9795e-07
3.33383e-07
2.48189e-07
1.8579e-07
1.42832e-07
1.09711e-07
9.18954e-08
8.92505e-08
9.16254e-08
9.94277e-08
1.21042e-07
1.54071e-07
1.97469e-07
2.61378e-07
3.45726e-07
4.12457e-07
4.50178e-07
4.93307e-07
5.10232e-07
4.66065e-07
4.4245e-07
4.0447e-07
3.48208e-07
2.76193e-07
2.27583e-07
1.91764e-07
1.70891e-07
1.62666e-07
1.66781e-07
1.79607e-07
2.04189e-07
2.424e-07
2.92585e-07
3.64291e-07
4.19045e-07
4.59081e-07
4.84803e-07
5.33079e-07
5.51764e-07
5.00659e-07
4.79366e-07
4.59054e-07
4.41749e-07
4.02673e-07
3.39257e-07
2.83732e-07
2.52356e-07
2.35684e-07
2.39848e-07
2.61027e-07
2.96394e-07
3.54634e-07
4.19657e-07
4.58106e-07
4.77059e-07
4.99366e-07
5.22744e-07
5.76305e-07
5.98533e-07
5.542e-07
5.38947e-07
5.32543e-07
5.45862e-07
5.53252e-07
5.42398e-07
5.15826e-07
4.67921e-07
4.07334e-07
4.11188e-07
4.70996e-07
5.22361e-07
5.53522e-07
5.68471e-07
5.65142e-07
5.56042e-07
5.65131e-07
5.81479e-07
6.25254e-07
6.61338e-07
6.85916e-07
7.21682e-07
7.5322e-07
7.92703e-07
8.31144e-07
8.56166e-07
8.49963e-07
7.92051e-07
6.78702e-07
6.72382e-07
7.82238e-07
8.4687e-07
8.63873e-07
8.50082e-07
8.21031e-07
7.87323e-07
7.58471e-07
7.20867e-07
6.9107e-07
7.46049e-07
9.20181e-07
1.08789e-06
1.23605e-06
1.37434e-06
1.5e-06
1.60127e-06
1.65835e-06
1.64993e-06
1.56441e-06
1.56596e-06
1.65883e-06
1.67469e-06
1.62702e-06
1.53551e-06
1.41709e-06
1.28243e-06
1.13361e-06
9.60872e-07
7.78012e-07
1.43945e-07
1.20577e-07
7.44423e-08
4.5751e-08
4.29486e-08
4.86467e-08
4.04636e-08
2.65636e-08
1.92616e-08
1.68519e-08
1.64246e-08
1.77385e-08
2.38745e-08
3.61961e-08
4.85306e-08
4.96613e-08
5.30933e-08
9.23159e-08
1.54008e-07
1.79062e-07
2.50354e-07
3.27464e-07
2.7661e-07
2.31867e-07
2.02105e-07
1.51205e-07
8.37177e-08
4.61299e-08
2.89125e-08
2.17414e-08
2.19075e-08
2.86763e-08
4.72889e-08
9.77299e-08
1.74479e-07
2.15405e-07
2.35815e-07
2.82044e-07
3.42062e-07
2.63383e-07
3.18074e-07
3.6554e-07
3.17799e-07
2.45428e-07
1.89557e-07
1.43419e-07
1.05413e-07
7.23918e-08
4.54856e-08
2.98225e-08
3.16158e-08
4.81779e-08
7.46062e-08
1.09694e-07
1.55431e-07
2.02229e-07
2.62085e-07
3.44248e-07
3.96415e-07
3.31413e-07
3.61977e-07
3.57534e-07
3.12109e-07
2.46596e-07
1.82627e-07
1.36396e-07
1.0221e-07
7.41241e-08
5.12018e-08
3.54472e-08
3.9459e-08
5.49962e-08
7.60408e-08
1.04582e-07
1.41516e-07
1.89103e-07
2.54667e-07
3.23979e-07
3.7494e-07
3.80491e-07
4.2208e-07
3.9795e-07
3.44312e-07
2.79063e-07
2.0555e-07
1.51644e-07
1.14922e-07
8.52735e-08
6.22721e-08
5.02589e-08
5.48544e-08
6.9753e-08
9.21871e-08
1.21186e-07
1.5878e-07
2.14917e-07
2.90098e-07
3.57421e-07
4.15137e-07
4.44249e-07
4.95116e-07
4.4245e-07
3.79248e-07
3.15519e-07
2.47235e-07
1.84592e-07
1.4217e-07
1.10031e-07
8.80666e-08
8.02815e-08
8.2751e-08
9.55681e-08
1.1906e-07
1.51738e-07
1.94705e-07
2.58392e-07
3.27755e-07
3.94625e-07
4.61261e-07
5.19415e-07
5.71492e-07
4.79366e-07
4.08122e-07
3.33301e-07
2.76646e-07
2.25799e-07
1.81497e-07
1.46833e-07
1.24554e-07
1.14432e-07
1.16335e-07
1.29928e-07
1.55001e-07
1.91242e-07
2.36308e-07
2.87962e-07
3.48381e-07
4.28615e-07
5.02288e-07
5.98228e-07
6.52317e-07
5.38947e-07
4.77298e-07
3.82029e-07
3.13209e-07
2.88029e-07
2.62121e-07
2.36379e-07
2.07404e-07
1.78196e-07
1.78504e-07
2.09577e-07
2.42693e-07
2.73054e-07
3.01847e-07
3.28843e-07
4.06662e-07
5.08406e-07
5.68995e-07
6.82238e-07
7.51126e-07
7.21682e-07
7.69324e-07
8.21016e-07
8.57518e-07
8.90199e-07
9.38534e-07
9.47767e-07
8.51762e-07
6.66566e-07
6.56056e-07
8.35306e-07
9.41216e-07
9.53792e-07
9.2642e-07
9.09286e-07
8.74563e-07
8.2028e-07
7.63449e-07
7.85691e-07
8.79238e-07
1.08789e-06
1.28688e-06
1.4689e-06
1.64858e-06
1.82384e-06
1.97783e-06
2.0764e-06
2.08243e-06
1.9733e-06
1.97217e-06
2.09276e-06
2.09739e-06
2.01221e-06
1.87138e-06
1.70482e-06
1.52826e-06
1.34336e-06
1.13656e-06
9.16554e-07
4.15543e-08
5.1436e-08
4.5751e-08
4.47511e-08
5.57122e-08
5.70062e-08
4.58988e-08
3.31506e-08
2.49264e-08
2.18673e-08
2.09815e-08
2.2148e-08
2.90577e-08
4.23157e-08
5.56106e-08
5.94202e-08
5.30083e-08
5.28778e-08
6.46052e-08
5.74746e-08
1.84799e-07
2.38911e-07
2.31867e-07
2.17796e-07
1.89107e-07
1.325e-07
7.6602e-08
4.80641e-08
3.3725e-08
2.76126e-08
2.75292e-08
3.30792e-08
4.78832e-08
8.65956e-08
1.57542e-07
2.10012e-07
2.27153e-07
2.34979e-07
2.42594e-07
1.89086e-07
2.46815e-07
2.67454e-07
2.45428e-07
2.07715e-07
1.70959e-07
1.33963e-07
1.0243e-07
7.26713e-08
4.87031e-08
3.55848e-08
3.66949e-08
5.0442e-08
7.46063e-08
1.06719e-07
1.45907e-07
1.85211e-07
2.21633e-07
2.62902e-07
2.88236e-07
2.58058e-07
2.76669e-07
2.75594e-07
2.46596e-07
2.04853e-07
1.62893e-07
1.2856e-07
1.01584e-07
7.79904e-08
5.68423e-08
4.08055e-08
4.40651e-08
5.94684e-08
7.88805e-08
1.03051e-07
1.33499e-07
1.69879e-07
2.1269e-07
2.56578e-07
2.89873e-07
2.94366e-07
3.60426e-07
3.33383e-07
2.79063e-07
2.25655e-07
1.73861e-07
1.34081e-07
1.0521e-07
8.07729e-08
5.86731e-08
4.00925e-08
4.57245e-08
6.40991e-08
8.46826e-08
1.08691e-07
1.38999e-07
1.81355e-07
2.35988e-07
2.92302e-07
3.50956e-07
3.81944e-07
4.7003e-07
4.0447e-07
3.15519e-07
2.50549e-07
1.93908e-07
1.47447e-07
1.13822e-07
8.64242e-08
6.31518e-08
4.63886e-08
5.12246e-08
6.9937e-08
9.29562e-08
1.20077e-07
1.54146e-07
2.02115e-07
2.6122e-07
3.29516e-07
4.22858e-07
4.93968e-07
5.80664e-07
4.59054e-07
3.33301e-07
2.58093e-07
2.05636e-07
1.64236e-07
1.3188e-07
1.05682e-07
8.4803e-08
7.09058e-08
7.32028e-08
8.97385e-08
1.12397e-07
1.39318e-07
1.72004e-07
2.14367e-07
2.69814e-07
3.50195e-07
4.79507e-07
6.07697e-07
6.92813e-07
5.32543e-07
3.82029e-07
2.94689e-07
2.636e-07
2.49629e-07
2.41745e-07
2.31661e-07
2.06278e-07
1.67338e-07
1.67492e-07
2.09279e-07
2.40037e-07
2.55291e-07
2.65953e-07
2.80897e-07
3.1548e-07
4.13655e-07
5.59744e-07
7.2404e-07
8.2401e-07
7.5322e-07
8.21016e-07
8.87494e-07
1.01577e-06
1.18091e-06
1.34707e-06
1.43032e-06
1.33459e-06
1.07304e-06
1.05315e-06
1.31763e-06
1.43482e-06
1.38085e-06
1.23937e-06
1.08479e-06
9.62065e-07
8.82635e-07
7.97197e-07
8.61356e-07
9.89008e-07
1.23605e-06
1.4689e-06
1.6881e-06
1.9203e-06
2.16044e-06
2.38249e-06
2.54084e-06
2.58203e-06
2.4773e-06
2.47952e-06
2.59993e-06
2.57285e-06
2.43001e-06
2.22178e-06
1.99007e-06
1.75919e-06
1.53375e-06
1.29008e-06
1.02957e-06
1.84336e-08
3.24122e-08
4.29486e-08
5.57122e-08
6.21129e-08
5.91903e-08
4.82933e-08
3.73658e-08
2.94481e-08
2.67809e-08
2.57439e-08
2.61139e-08
3.25395e-08
4.37757e-08
5.584e-08
6.16745e-08
5.90984e-08
4.92981e-08
3.49994e-08
1.92103e-08
1.40354e-07
1.92254e-07
2.02105e-07
1.89107e-07
1.50638e-07
1.00594e-07
6.55808e-08
4.64924e-08
3.51355e-08
3.20379e-08
3.21243e-08
3.42483e-08
4.50044e-08
6.87409e-08
1.1819e-07
1.74432e-07
2.06749e-07
2.11613e-07
1.99205e-07
1.48831e-07
1.80927e-07
1.93461e-07
1.89557e-07
1.70959e-07
1.45003e-07
1.18233e-07
9.24093e-08
6.70154e-08
4.75651e-08
3.89433e-08
3.92909e-08
4.81276e-08
6.74324e-08
9.46672e-08
1.25784e-07
1.5838e-07
1.84286e-07
2.01774e-07
2.05263e-07
1.90485e-07
1.95623e-07
1.92248e-07
1.82627e-07
1.62893e-07
1.3842e-07
1.15441e-07
9.56016e-08
7.58763e-08
5.71642e-08
4.54143e-08
4.70826e-08
5.92654e-08
7.63679e-08
9.57024e-08
1.18752e-07
1.44564e-07
1.69931e-07
1.90384e-07
2.02648e-07
2.10757e-07
3.01929e-07
2.48189e-07
2.0555e-07
1.73861e-07
1.43552e-07
1.17704e-07
9.66683e-08
7.7804e-08
6.05511e-08
4.78492e-08
5.03353e-08
6.35163e-08
7.9861e-08
9.85648e-08
1.2099e-07
1.49037e-07
1.8192e-07
2.1718e-07
2.66122e-07
3.21073e-07
4.43132e-07
3.48208e-07
2.47235e-07
1.93908e-07
1.55201e-07
1.23935e-07
9.91932e-08
7.80824e-08
5.99998e-08
4.77535e-08
5.05474e-08
6.44444e-08
8.25327e-08
1.03454e-07
1.28733e-07
1.61422e-07
2.02841e-07
2.60714e-07
3.68753e-07
4.65529e-07
5.83629e-07
4.41749e-07
2.76646e-07
2.05636e-07
1.65249e-07
1.35785e-07
1.12729e-07
9.41485e-08
7.98313e-08
7.24742e-08
7.33985e-08
8.35398e-08
9.97872e-08
1.1898e-07
1.42331e-07
1.72518e-07
2.149e-07
2.89712e-07
4.61912e-07
6.09799e-07
7.23068e-07
5.45862e-07
3.13209e-07
2.636e-07
2.55226e-07
2.58381e-07
2.66291e-07
2.69909e-07
2.48855e-07
2.05717e-07
2.05552e-07
2.52523e-07
2.8049e-07
2.83054e-07
2.7759e-07
2.74576e-07
2.82026e-07
3.31043e-07
5.72714e-07
7.5433e-07
8.83197e-07
7.92703e-07
8.57518e-07
1.01577e-06
1.31142e-06
1.6288e-06
1.88923e-06
2.03524e-06
1.87676e-06
1.45156e-06
1.43148e-06
1.86149e-06
2.04946e-06
1.94655e-06
1.70426e-06
1.39888e-06
1.09745e-06
9.30192e-07
8.36477e-07
9.21469e-07
1.08256e-06
1.37434e-06
1.64858e-06
1.9203e-06
2.23184e-06
2.55522e-06
2.85753e-06
3.08836e-06
3.17923e-06
3.09287e-06
3.1039e-06
3.20867e-06
3.13333e-06
2.91835e-06
2.62826e-06
2.31148e-06
1.99889e-06
1.71809e-06
1.43094e-06
1.12456e-06
1.56511e-08
3.41069e-08
4.86467e-08
5.70062e-08
5.91903e-08
5.52074e-08
4.7882e-08
3.98671e-08
3.35376e-08
3.21592e-08
3.11631e-08
2.97804e-08
3.4444e-08
4.2208e-08
5.02788e-08
5.51731e-08
5.46832e-08
4.76638e-08
3.35639e-08
1.33934e-08
9.5836e-08
1.43967e-07
1.51206e-07
1.325e-07
1.00594e-07
7.38467e-08
5.63409e-08
4.39928e-08
3.61191e-08
3.66211e-08
3.7093e-08
3.50086e-08
4.14632e-08
5.45798e-08
7.79092e-08
1.14432e-07
1.50033e-07
1.65655e-07
1.54873e-07
1.0243e-07
1.2527e-07
1.39906e-07
1.43419e-07
1.33963e-07
1.18233e-07
9.91512e-08
7.84963e-08
5.92181e-08
4.5233e-08
4.11288e-08
4.10092e-08
4.46395e-08
5.76132e-08
7.74146e-08
1.01374e-07
1.24458e-07
1.43383e-07
1.52867e-07
1.47792e-07
1.31019e-07
1.34798e-07
1.3639e-07
1.36396e-07
1.2856e-07
1.15441e-07
1.01004e-07
8.62189e-08
6.94857e-08
5.44618e-08
4.74121e-08
4.79228e-08
5.54609e-08
6.9411e-08
8.50783e-08
1.01383e-07
1.18303e-07
1.32839e-07
1.4127e-07
1.42323e-07
1.4263e-07
2.55739e-07
1.8579e-07
1.51644e-07
1.34081e-07
1.17704e-07
1.01728e-07
8.68635e-08
7.28731e-08
6.05455e-08
5.36573e-08
5.45107e-08
6.18466e-08
7.36689e-08
8.75652e-08
1.03354e-07
1.20765e-07
1.38718e-07
1.58519e-07
1.96961e-07
2.71021e-07
4.16158e-07
2.76193e-07
1.84592e-07
1.47447e-07
1.23935e-07
1.04147e-07
8.68929e-08
7.18861e-08
6.06944e-08
5.7534e-08
5.80281e-08
6.30231e-08
7.47764e-08
8.9787e-08
1.07555e-07
1.28418e-07
1.53822e-07
1.94471e-07
2.93009e-07
4.36217e-07
5.78754e-07
4.02673e-07
2.25799e-07
1.64236e-07
1.35785e-07
1.16521e-07
1.01414e-07
9.01861e-08
8.44902e-08
9.01792e-08
8.92279e-08
8.67129e-08
9.47256e-08
1.06703e-07
1.22183e-07
1.41988e-07
1.71732e-07
2.36724e-07
4.2459e-07
6.03464e-07
7.41357e-07
5.53252e-07
2.88029e-07
2.49629e-07
2.58381e-07
2.80298e-07
3.06004e-07
3.19964e-07
2.94168e-07
2.41023e-07
2.40648e-07
2.97566e-07
3.30941e-07
3.24002e-07
3.01347e-07
2.78543e-07
2.67141e-07
3.03367e-07
5.80285e-07
7.71518e-07
9.26468e-07
8.31144e-07
8.90199e-07
1.18091e-06
1.6288e-06
2.08404e-06
2.48354e-06
2.66703e-06
2.36317e-06
1.69391e-06
1.67616e-06
2.34765e-06
2.68371e-06
2.54748e-06
2.18078e-06
1.72162e-06
1.2624e-06
9.53351e-07
8.70864e-07
9.63705e-07
1.15906e-06
1.5e-06
1.82384e-06
2.16044e-06
2.55522e-06
2.96976e-06
3.3686e-06
3.69171e-06
3.86243e-06
3.83886e-06
3.86432e-06
3.9068e-06
3.75102e-06
3.44109e-06
3.05204e-06
2.64041e-06
2.24133e-06
1.89374e-06
1.55668e-06
1.20118e-06
1.22644e-08
2.9644e-08
4.04636e-08
4.58988e-08
4.82934e-08
4.7882e-08
4.50792e-08
4.09888e-08
3.7739e-08
3.96564e-08
3.8853e-08
3.3605e-08
3.52954e-08
3.87947e-08
4.1654e-08
4.24694e-08
4.06291e-08
3.46239e-08
2.44366e-08
1.04724e-08
3.01517e-08
7.57831e-08
8.37177e-08
7.6602e-08
6.55808e-08
5.63409e-08
4.83289e-08
4.13395e-08
3.82826e-08
4.81223e-08
4.98334e-08
3.70464e-08
3.79489e-08
4.40972e-08
5.27809e-08
6.4456e-08
7.87645e-08
8.8094e-08
7.88376e-08
3.01246e-08
7.96089e-08
9.72519e-08
1.05413e-07
1.0243e-07
9.24093e-08
7.84963e-08
6.42609e-08
5.17912e-08
4.42177e-08
5.12315e-08
5.08114e-08
4.25997e-08
4.85242e-08
6.03315e-08
7.57891e-08
9.21126e-08
1.04185e-07
1.0703e-07
9.8424e-08
7.87333e-08
9.15135e-08
9.63581e-08
1.0221e-07
1.01584e-07
9.56016e-08
8.62189e-08
7.42541e-08
6.10812e-08
5.22365e-08
6.04656e-08
5.95309e-08
5.1719e-08
5.98645e-08
7.23454e-08
8.4601e-08
9.49001e-08
1.01968e-07
1.03327e-07
9.86645e-08
9.56326e-08
2.20483e-07
1.42832e-07
1.14922e-07
1.0521e-07
9.66683e-08
8.68635e-08
7.64896e-08
6.62796e-08
6.00362e-08
7.44155e-08
7.3194e-08
6.01864e-08
6.62319e-08
7.62236e-08
8.71942e-08
9.78572e-08
1.07381e-07
1.18819e-07
1.50498e-07
2.32618e-07
3.90539e-07
2.27583e-07
1.4217e-07
1.13822e-07
9.91932e-08
8.68929e-08
7.53645e-08
6.55822e-08
6.25941e-08
8.82297e-08
8.67557e-08
6.35301e-08
6.72579e-08
7.7158e-08
8.91043e-08
1.02192e-07
1.18046e-07
1.48751e-07
2.39859e-07
4.08283e-07
5.65878e-07
3.39257e-07
1.81497e-07
1.3188e-07
1.12729e-07
1.01414e-07
9.31607e-08
8.8498e-08
9.25958e-08
1.34519e-07
1.335e-07
9.3787e-08
9.17462e-08
9.72177e-08
1.05841e-07
1.17518e-07
1.37353e-07
1.89461e-07
3.57214e-07
5.88711e-07
7.45282e-07
5.42398e-07
2.62121e-07
2.41745e-07
2.66291e-07
3.06004e-07
3.46939e-07
3.62046e-07
3.17498e-07
2.769e-07
2.79021e-07
3.19562e-07
3.70664e-07
3.62371e-07
3.24824e-07
2.8458e-07
2.56337e-07
2.74373e-07
5.69165e-07
7.73833e-07
9.50649e-07
8.56166e-07
9.38534e-07
1.34707e-06
1.88923e-06
2.48354e-06
3.01211e-06
3.19206e-06
2.58132e-06
1.91185e-06
1.92079e-06
2.56383e-06
3.20794e-06
3.06837e-06
2.56657e-06
1.98443e-06
1.4182e-06
9.85032e-07
8.90524e-07
9.85879e-07
1.21354e-06
1.60127e-06
1.97783e-06
2.38249e-06
2.85753e-06
3.3686e-06
3.87918e-06
4.32883e-06
4.65322e-06
4.84561e-06
4.89696e-06
4.71986e-06
4.40714e-06
3.96446e-06
3.45779e-06
2.94601e-06
2.46274e-06
2.04582e-06
1.65687e-06
1.25522e-06
8.76698e-09
1.80487e-08
2.65636e-08
3.31506e-08
3.73658e-08
3.98671e-08
4.09888e-08
4.14226e-08
4.2679e-08
4.90224e-08
4.80844e-08
3.8238e-08
3.57981e-08
3.50562e-08
3.39165e-08
3.16651e-08
2.79027e-08
2.22936e-08
1.52288e-08
7.60661e-09
1.84008e-08
3.46357e-08
4.61299e-08
4.80641e-08
4.64924e-08
4.39928e-08
4.13395e-08
4.0068e-08
4.50164e-08
7.25476e-08
7.52411e-08
4.39952e-08
3.62132e-08
3.64078e-08
3.87454e-08
4.13619e-08
4.32968e-08
4.21818e-08
3.04157e-08
1.60532e-08
3.72353e-08
6.13218e-08
7.23918e-08
7.26713e-08
6.70154e-08
5.92181e-08
5.17912e-08
4.67589e-08
5.1167e-08
1.27324e-07
1.29661e-07
4.89648e-08
4.24501e-08
4.6863e-08
5.453e-08
6.32569e-08
6.99961e-08
7.00143e-08
5.94607e-08
3.43208e-08
5.64906e-08
6.40633e-08
7.41241e-08
7.79904e-08
7.58763e-08
6.94857e-08
6.10812e-08
5.43575e-08
6.37624e-08
2.18148e-07
2.22723e-07
6.24969e-08
5.18268e-08
5.85973e-08
6.75894e-08
7.45172e-08
7.70605e-08
7.3507e-08
6.45163e-08
5.8121e-08
1.93163e-07
1.09711e-07
8.52735e-08
8.07729e-08
7.7804e-08
7.28731e-08
6.62796e-08
6.12484e-08
8.13721e-08
3.68772e-07
3.71089e-07
8.15672e-08
6.04328e-08
6.54623e-08
7.24664e-08
7.81376e-08
8.19712e-08
8.80078e-08
1.15876e-07
2.02999e-07
3.65482e-07
1.91764e-07
1.10031e-07
8.64242e-08
7.80824e-08
7.18861e-08
6.55822e-08
6.25792e-08
9.65405e-08
5.25827e-07
5.37479e-07
9.81876e-08
6.31084e-08
6.62795e-08
7.29713e-08
7.98415e-08
8.91762e-08
1.14529e-07
2.0093e-07
3.81524e-07
5.45682e-07
2.83732e-07
1.46833e-07
1.05682e-07
9.41485e-08
9.01861e-08
8.8498e-08
9.20567e-08
1.44763e-07
6.912e-07
7.23055e-07
1.48427e-07
9.36976e-08
9.06273e-08
9.26238e-08
9.68074e-08
1.08754e-07
1.51875e-07
2.97143e-07
5.66861e-07
7.32633e-07
5.15826e-07
2.36379e-07
2.31661e-07
2.69909e-07
3.19964e-07
3.62046e-07
3.57851e-07
3.29827e-07
7.37891e-07
7.8332e-07
3.35885e-07
3.62489e-07
3.71277e-07
3.32578e-07
2.82079e-07
2.4057e-07
2.44478e-07
5.40953e-07
7.59519e-07
9.4933e-07
8.49963e-07
9.47767e-07
1.43032e-06
2.03524e-06
2.66703e-06
3.19206e-06
3.09051e-06
2.44445e-06
3.12557e-06
3.26734e-06
2.49343e-06
3.10497e-06
3.23287e-06
2.7362e-06
2.10898e-06
1.48277e-06
9.79742e-07
8.79843e-07
9.82582e-07
1.23751e-06
1.65835e-06
2.0764e-06
2.54084e-06
3.08836e-06
3.69171e-06
4.32883e-06
4.96761e-06
5.64288e-06
6.45887e-06
6.55689e-06
5.75186e-06
5.07623e-06
4.43327e-06
3.79156e-06
3.1809e-06
2.62137e-06
2.14361e-06
1.71385e-06
1.27932e-06
7.85244e-09
1.32077e-08
1.92616e-08
2.49264e-08
2.94481e-08
3.35376e-08
3.7739e-08
4.2679e-08
4.82479e-08
6.04878e-08
5.5281e-08
4.33818e-08
3.75698e-08
3.29841e-08
2.92327e-08
2.56017e-08
2.16157e-08
1.68049e-08
1.19818e-08
7.20113e-09
1.64935e-08
2.00805e-08
2.89125e-08
3.3725e-08
3.51355e-08
3.61191e-08
3.82826e-08
4.50164e-08
7.01331e-08
4.72152e-07
5.06988e-07
6.98753e-08
4.15435e-08
3.41505e-08
3.18946e-08
3.0958e-08
2.97017e-08
2.54158e-08
1.76799e-08
1.52039e-08
2.1049e-08
3.43141e-08
4.54856e-08
4.87031e-08
4.75651e-08
4.5233e-08
4.42177e-08
5.1167e-08
1.53179e-07
1.90441e-06
2.0264e-06
1.60195e-07
4.74045e-08
4.0061e-08
4.12715e-08
4.4036e-08
4.57324e-08
4.28605e-08
3.19817e-08
1.97213e-08
3.70548e-08
4.05216e-08
5.12018e-08
5.68423e-08
5.71642e-08
5.44618e-08
5.22365e-08
6.37624e-08
2.92438e-07
3.57011e-06
3.81289e-06
3.19952e-07
6.18444e-08
4.97291e-08
5.27184e-08
5.63102e-08
5.65488e-08
5.11193e-08
4.05598e-08
3.34949e-08
1.73514e-07
9.18954e-08
6.22721e-08
5.86731e-08
6.05511e-08
6.05455e-08
6.00362e-08
8.13721e-08
5.19018e-07
5.68868e-06
6.09109e-06
5.6356e-07
8.21964e-08
5.90439e-08
5.99046e-08
6.06774e-08
5.97522e-08
6.43853e-08
9.49458e-08
1.82387e-07
3.42067e-07
1.70891e-07
8.80666e-08
6.31518e-08
5.99998e-08
6.06944e-08
6.25941e-08
9.65405e-08
7.59869e-07
7.7442e-06
8.36833e-06
8.39736e-07
9.92772e-08
6.21703e-08
6.05352e-08
6.06704e-08
6.49888e-08
9.1272e-08
1.78006e-07
3.57101e-07
5.18499e-07
2.52356e-07
1.24554e-07
8.4803e-08
7.98313e-08
8.44902e-08
9.25958e-08
1.44763e-07
1.0066e-06
8.89507e-06
9.72516e-06
1.11828e-06
1.49297e-07
9.19936e-08
8.38509e-08
7.97171e-08
8.57379e-08
1.28006e-07
2.6372e-07
5.38597e-07
7.01116e-07
4.67921e-07
2.07404e-07
2.06278e-07
2.48855e-07
2.94168e-07
3.17498e-07
3.29827e-07
1.02686e-06
8.13973e-06
8.94237e-06
1.1467e-06
3.37026e-07
3.20926e-07
2.99038e-07
2.53759e-07
2.09941e-07
2.13098e-07
4.9081e-07
7.26757e-07
9.14994e-07
7.92051e-07
8.51762e-07
1.33459e-06
1.87676e-06
2.36317e-06
2.58132e-06
2.44445e-06
3.30992e-06
7.27688e-06
7.76056e-06
3.55462e-06
2.50615e-06
2.62488e-06
2.41633e-06
1.93051e-06
1.3714e-06
8.73781e-07
8.19497e-07
9.47309e-07
1.22083e-06
1.64993e-06
2.08243e-06
2.58203e-06
3.17923e-06
3.86243e-06
4.65322e-06
5.64288e-06
7.06193e-06
8.99853e-06
9.12038e-06
7.25095e-06
5.80629e-06
4.79077e-06
3.9805e-06
3.28105e-06
2.6672e-06
2.15289e-06
1.70788e-06
1.26405e-06
7.77265e-09
1.25286e-08
1.68519e-08
2.18673e-08
2.67809e-08
3.21592e-08
3.96564e-08
4.90224e-08
6.04878e-08
6.71184e-08
5.98297e-08
5.15618e-08
4.50277e-08
3.64693e-08
2.97664e-08
2.487e-08
2.03495e-08
1.57539e-08
1.18376e-08
7.27772e-09
1.75762e-08
1.65803e-08
2.17414e-08
2.76126e-08
3.20379e-08
3.66211e-08
4.81223e-08
7.25476e-08
4.72152e-07
7.51134e-07
7.63207e-07
5.30791e-07
7.2914e-08
4.56284e-08
3.44857e-08
3.00164e-08
2.56913e-08
2.01047e-08
1.54191e-08
1.66378e-08
2.48571e-08
2.31872e-08
2.98225e-08
3.55848e-08
3.89433e-08
4.11288e-08
5.12315e-08
1.27324e-07
1.90441e-06
1.72829e-06
1.74929e-06
2.12902e-06
1.35384e-07
4.89137e-08
3.90279e-08
3.70918e-08
3.38587e-08
2.82706e-08
2.17238e-08
2.33944e-08
3.62449e-08
3.40694e-08
3.54472e-08
4.08056e-08
4.54143e-08
4.74121e-08
6.04656e-08
2.18148e-07
3.57011e-06
3.04166e-06
3.04933e-06
4.04096e-06
2.44316e-07
5.89334e-08
4.57852e-08
4.44962e-08
4.07323e-08
3.59064e-08
3.39935e-08
3.19822e-08
1.6273e-07
8.92505e-08
5.02589e-08
4.00925e-08
4.78492e-08
5.36573e-08
7.44155e-08
3.68772e-07
5.68868e-06
4.73804e-06
4.70187e-06
6.46604e-06
4.11602e-07
7.44443e-08
5.24429e-08
4.71565e-08
4.07298e-08
5.17642e-08
9.18433e-08
1.71811e-07
3.22615e-07
1.62666e-07
8.02815e-08
4.63886e-08
4.77535e-08
5.7534e-08
8.82297e-08
5.25827e-07
7.7442e-06
6.72729e-06
6.61927e-06
8.87949e-06
5.99802e-07
8.92212e-08
5.61161e-08
4.71014e-08
4.73075e-08
8.18332e-08
1.6907e-07
3.3704e-07
4.86559e-07
2.35684e-07
1.14432e-07
7.09058e-08
7.24742e-08
9.01792e-08
1.34519e-07
6.912e-07
8.89507e-06
8.68117e-06
8.48614e-06
1.02957e-05
7.84538e-07
1.35282e-07
8.70282e-08
7.01208e-08
7.06337e-08
1.16808e-07
2.45653e-07
5.05747e-07
6.53313e-07
4.07334e-07
1.78196e-07
1.67338e-07
2.05717e-07
2.41023e-07
2.769e-07
7.37891e-07
8.13973e-06
9.96618e-06
9.65785e-06
9.58791e-06
8.34324e-07
2.80781e-07
2.41033e-07
2.0637e-07
1.69261e-07
1.83638e-07
4.27804e-07
6.7789e-07
8.47263e-07
6.78702e-07
6.66566e-07
1.07304e-06
1.45156e-06
1.69391e-06
1.91185e-06
3.12557e-06
7.27688e-06
1.01129e-05
9.84435e-06
8.17496e-06
3.40858e-06
2.00355e-06
1.74047e-06
1.49805e-06
1.10811e-06
6.89371e-07
7.04213e-07
8.79053e-07
1.15446e-06
1.56441e-06
1.9733e-06
2.4773e-06
3.09287e-06
3.83886e-06
4.84561e-06
6.45887e-06
8.99853e-06
1.08486e-05
1.0544e-05
9.33973e-06
6.72573e-06
5.03281e-06
3.98085e-06
3.20812e-06
2.57064e-06
2.04866e-06
1.62534e-06
1.19898e-06
7.69952e-09
1.24142e-08
1.64246e-08
2.09815e-08
2.57439e-08
3.11631e-08
3.8853e-08
4.80844e-08
5.5281e-08
5.98297e-08
5.65026e-08
4.98038e-08
4.32051e-08
3.54052e-08
2.90416e-08
2.43579e-08
2.00284e-08
1.57213e-08
1.19801e-08
7.3433e-09
1.75808e-08
1.69219e-08
2.19075e-08
2.75292e-08
3.21243e-08
3.7093e-08
4.98334e-08
7.52411e-08
5.06988e-07
7.63207e-07
7.34934e-07
5.23622e-07
7.02331e-08
4.54752e-08
3.50376e-08
3.11036e-08
2.72534e-08
2.19603e-08
1.66257e-08
1.71777e-08
2.48572e-08
2.46033e-08
3.16158e-08
3.66949e-08
3.92909e-08
4.10092e-08
5.08114e-08
1.29661e-07
2.0264e-06
1.74929e-06
1.685e-06
2.23327e-06
1.34838e-07
4.87835e-08
3.99162e-08
3.88202e-08
3.6683e-08
3.185e-08
2.46774e-08
2.40335e-08
3.80642e-08
3.65943e-08
3.9459e-08
4.40651e-08
4.70826e-08
4.79228e-08
5.95309e-08
2.22723e-07
3.81289e-06
3.04933e-06
2.93422e-06
4.39159e-06
2.51525e-07
5.92104e-08
4.69845e-08
4.6413e-08
4.39986e-08
3.98002e-08
3.62375e-08
3.86355e-08
1.70686e-07
9.16254e-08
5.48544e-08
4.57245e-08
5.03353e-08
5.45107e-08
7.3194e-08
3.71089e-07
6.09109e-06
4.70187e-06
4.50889e-06
7.17946e-06
4.3689e-07
7.47734e-08
5.35793e-08
4.94247e-08
4.55436e-08
5.63529e-08
9.61834e-08
1.83599e-07
3.29785e-07
1.66781e-07
8.2751e-08
5.12246e-08
5.05474e-08
5.80281e-08
8.67557e-08
5.37479e-07
8.36833e-06
6.61927e-06
6.31594e-06
9.97887e-06
6.49934e-07
9.07014e-08
5.71282e-08
4.95254e-08
5.15733e-08
8.54634e-08
1.74852e-07
3.47436e-07
4.91889e-07
2.39848e-07
1.16335e-07
7.32028e-08
7.33985e-08
8.92279e-08
1.335e-07
7.23055e-07
9.72516e-06
8.48614e-06
8.04194e-06
1.16905e-05
8.72395e-07
1.41759e-07
8.97227e-08
7.30665e-08
7.38874e-08
1.19969e-07
2.50743e-07
5.14573e-07
6.57241e-07
4.11188e-07
1.78504e-07
1.67492e-07
2.05552e-07
2.40648e-07
2.7902e-07
7.8332e-07
8.94237e-06
9.65785e-06
9.03813e-06
1.08929e-05
9.29643e-07
2.89958e-07
2.44915e-07
2.09444e-07
1.7078e-07
1.84741e-07
4.34431e-07
6.86423e-07
8.50075e-07
6.72382e-07
6.56056e-07
1.05315e-06
1.43148e-06
1.67616e-06
1.92079e-06
3.26734e-06
7.76056e-06
9.84435e-06
9.2714e-06
8.93586e-06
3.64264e-06
2.04287e-06
1.73488e-06
1.49093e-06
1.09596e-06
6.85759e-07
7.02995e-07
8.8885e-07
1.15861e-06
1.56596e-06
1.97217e-06
2.47952e-06
3.1039e-06
3.86432e-06
4.89696e-06
6.55689e-06
9.12038e-06
1.0544e-05
9.9971e-06
9.52681e-06
6.8951e-06
5.13581e-06
4.04472e-06
3.25046e-06
2.59818e-06
2.06868e-06
1.64356e-06
1.21471e-06
7.59835e-09
1.28767e-08
1.77385e-08
2.2148e-08
2.61139e-08
2.97804e-08
3.3605e-08
3.8238e-08
4.33818e-08
5.15618e-08
4.98038e-08
3.94958e-08
3.51375e-08
3.14824e-08
2.83297e-08
2.51574e-08
2.15051e-08
1.69384e-08
1.23126e-08
7.31498e-09
1.66205e-08
2.0489e-08
2.86763e-08
3.30792e-08
3.42483e-08
3.50086e-08
3.70464e-08
4.39952e-08
6.98753e-08
5.30791e-07
5.23622e-07
6.65563e-08
4.07473e-08
3.53953e-08
3.43193e-08
3.43731e-08
3.39779e-08
2.9979e-08
2.10152e-08
1.61624e-08
2.14117e-08
3.79367e-08
4.81779e-08
5.0442e-08
4.81276e-08
4.46395e-08
4.25997e-08
4.89648e-08
1.60195e-07
2.12902e-06
2.23327e-06
1.70321e-07
4.87813e-08
4.23671e-08
4.46946e-08
4.84645e-08
5.08026e-08
4.85285e-08
3.77911e-08
2.06205e-08
4.27102e-08
4.66658e-08
5.49962e-08
5.94684e-08
5.92653e-08
5.54609e-08
5.1719e-08
6.24969e-08
3.19952e-07
4.04096e-06
4.39159e-06
3.54447e-07
6.43637e-08
5.17647e-08
5.54533e-08
5.94942e-08
6.00175e-08
5.5639e-08
4.781e-08
4.90513e-08
1.84596e-07
9.94277e-08
6.9753e-08
6.40991e-08
6.35163e-08
6.18466e-08
6.01864e-08
8.15672e-08
5.6356e-07
6.46604e-06
7.17946e-06
6.46525e-07
8.62854e-08
6.11335e-08
6.27401e-08
6.46808e-08
6.57361e-08
7.23185e-08
1.05572e-07
2.00869e-07
3.52265e-07
1.79607e-07
9.55681e-08
6.9937e-08
6.44444e-08
6.30231e-08
6.35301e-08
9.81876e-08
8.39736e-07
8.87949e-06
9.97887e-06
9.81781e-07
1.06797e-07
6.50105e-08
6.39646e-08
6.54814e-08
7.1555e-08
9.88518e-08
1.89301e-07
3.72875e-07
5.25383e-07
2.61027e-07
1.29928e-07
8.97385e-08
8.35398e-08
8.67129e-08
9.3787e-08
1.48427e-07
1.11828e-06
1.02957e-05
1.16905e-05
1.31672e-06
1.63801e-07
9.79522e-08
8.97149e-08
8.6076e-08
9.22848e-08
1.3418e-07
2.72976e-07
5.51048e-07
7.05536e-07
4.70996e-07
2.09577e-07
2.09279e-07
2.52523e-07
2.97566e-07
3.19562e-07
3.35885e-07
1.1467e-06
9.58791e-06
1.08929e-05
1.34093e-06
3.53987e-07
3.30474e-07
3.11431e-07
2.65673e-07
2.18859e-07
2.16823e-07
4.97037e-07
7.38221e-07
9.18064e-07
7.82238e-07
8.35306e-07
1.31763e-06
1.86149e-06
2.34765e-06
2.56383e-06
2.49343e-06
3.55462e-06
8.17496e-06
8.93586e-06
3.93986e-06
2.60238e-06
2.61927e-06
2.44546e-06
1.96362e-06
1.39059e-06
8.81331e-07
8.19877e-07
9.61212e-07
1.22896e-06
1.65883e-06
2.09276e-06
2.59993e-06
3.20867e-06
3.9068e-06
4.71986e-06
5.75186e-06
7.25095e-06
9.33973e-06
9.52681e-06
7.51845e-06
5.97515e-06
4.9053e-06
4.0716e-06
3.35478e-06
2.72412e-06
2.19593e-06
1.74131e-06
1.28866e-06
8.28797e-09
1.67573e-08
2.38745e-08
2.90577e-08
3.25395e-08
3.4444e-08
3.52954e-08
3.57982e-08
3.75698e-08
4.50277e-08
4.32051e-08
3.51375e-08
3.40071e-08
3.42256e-08
3.39372e-08
3.22769e-08
2.87676e-08
2.29289e-08
1.58654e-08
7.87101e-09
1.79232e-08
3.41913e-08
4.72888e-08
4.78832e-08
4.50044e-08
4.14632e-08
3.79489e-08
3.62132e-08
4.15435e-08
7.2914e-08
7.02331e-08
4.07473e-08
3.60936e-08
3.84083e-08
4.2653e-08
4.73633e-08
5.17613e-08
5.2032e-08
3.96294e-08
1.76846e-08
4.33246e-08
6.40695e-08
7.46062e-08
7.46063e-08
6.74324e-08
5.76132e-08
4.85242e-08
4.24501e-08
4.74045e-08
1.35384e-07
1.34838e-07
4.87813e-08
4.36784e-08
4.9739e-08
5.89429e-08
6.87572e-08
7.54422e-08
7.48288e-08
6.3805e-08
4.3797e-08
6.47882e-08
6.8622e-08
7.60408e-08
7.88805e-08
7.63679e-08
6.9411e-08
5.98645e-08
5.18268e-08