/*--------------------------------*- C++ -*----------------------------------*\
  =========                 |
  \\      /  F ield         | OpenFOAM: The Open Source CFD Toolbox
   \\    /   O peration     | Website:  https://openfoam.org
    \\  /    A nd           | Version:  9
     \\/     M anipulation  |
\*---------------------------------------------------------------------------*/
FoamFile
{
    format      ascii;
    class       volScalarField;
    location    "1650";
    object      k;
}
// * * * * * * * * * * * * * * * * * * * * * * * * * * * * * * * * * * * * * //

dimensions      [0 2 -2 0 0 0 0];

internalField   nonuniform List<scalar> 
4000
(
3.26719e-05
2.73107e-05
1.99795e-05
8.67757e-06
5.09497e-06
4.58253e-06
3.88174e-06
3.10308e-06
2.88406e-06
2.86472e-06
2.84712e-06
2.82223e-06
2.9897e-06
3.72487e-06
4.39697e-06
5.60545e-06
1.15431e-05
2.33726e-05
2.97526e-05
3.44819e-05
3.88835e-05
3.51372e-05
2.88935e-05
2.36317e-05
1.96904e-05
1.52617e-05
7.05537e-06
5.08784e-06
4.73118e-06
4.93713e-06
4.93732e-06
4.75537e-06
5.00003e-06
7.65701e-06
1.62767e-05
2.06444e-05
2.39756e-05
2.98329e-05
3.61667e-05
4.0025e-05
4.20776e-05
3.91047e-05
3.39658e-05
2.86981e-05
2.33447e-05
1.82696e-05
1.3499e-05
8.12158e-06
5.56759e-06
6.21872e-06
6.2171e-06
5.62742e-06
8.99523e-06
1.37228e-05
1.89369e-05
2.40388e-05
2.92052e-05
3.45988e-05
4.00566e-05
4.31289e-05
4.37996e-05
4.18276e-05
3.70208e-05
3.09547e-05
2.45747e-05
1.91688e-05
1.47959e-05
1.07072e-05
8.07599e-06
7.96726e-06
8.21757e-06
8.87128e-06
1.17381e-05
1.54256e-05
1.97218e-05
2.53136e-05
3.17616e-05
3.78706e-05
4.2835e-05
4.48696e-05
4.49145e-05
4.41926e-05
4.10166e-05
3.69175e-05
3.28038e-05
2.93626e-05
2.65932e-05
2.43435e-05
2.26561e-05
2.17012e-05
2.23944e-05
2.36009e-05
2.53538e-05
2.75753e-05
3.03303e-05
3.38061e-05
3.79378e-05
4.20777e-05
4.52984e-05
4.60339e-05
4.58116e-05
4.65474e-05
4.56257e-05
4.40744e-05
4.23789e-05
4.06422e-05
3.89575e-05
3.72732e-05
3.5664e-05
3.42962e-05
3.47908e-05
3.63543e-05
3.80763e-05
3.98467e-05
4.16234e-05
4.34568e-05
4.52297e-05
4.68434e-05
4.77871e-05
4.69902e-05
4.67458e-05
4.90429e-05
5.021e-05
5.07517e-05
5.09297e-05
5.06495e-05
4.98989e-05
4.87068e-05
4.70768e-05
4.51209e-05
4.54358e-05
4.74746e-05
4.92882e-05
5.06771e-05
5.16185e-05
5.20663e-05
5.20227e-05
5.15628e-05
5.03983e-05
4.79854e-05
4.78769e-05
5.17793e-05
5.48433e-05
5.70976e-05
5.87552e-05
5.9748e-05
5.99635e-05
5.92863e-05
5.75751e-05
5.49272e-05
5.51309e-05
5.7798e-05
5.97365e-05
6.06891e-05
6.07402e-05
5.99764e-05
5.84884e-05
5.63237e-05
5.32426e-05
4.91779e-05
4.94943e-05
5.53444e-05
6.02546e-05
6.41005e-05
6.7143e-05
6.93264e-05
7.05339e-05
7.04732e-05
6.87666e-05
6.53338e-05
6.54586e-05
6.89014e-05
7.08599e-05
7.12618e-05
7.03981e-05
6.85006e-05
6.56471e-05
6.18835e-05
5.6925e-05
5.08614e-05
5.20252e-05
5.99795e-05
6.69302e-05
7.24002e-05
7.69058e-05
8.04958e-05
8.30061e-05
8.41028e-05
8.33521e-05
8.03144e-05
8.04853e-05
8.37067e-05
8.46771e-05
8.38577e-05
8.16518e-05
7.83286e-05
7.40164e-05
6.86326e-05
6.163e-05
5.34591e-05
2.73107e-05
2.34174e-05
1.77572e-05
1.0037e-05
7.42461e-06
7.70969e-06
6.99624e-06
5.02046e-06
4.07622e-06
3.93582e-06
3.91181e-06
4.00783e-06
4.77423e-06
6.39889e-06
7.71404e-06
7.92755e-06
1.19267e-05
2.10681e-05
2.60701e-05
2.97373e-05
3.51372e-05
4.66484e-05
3.89535e-05
3.15766e-05
2.78509e-05
2.34639e-05
1.56543e-05
1.00423e-05
7.87414e-06
7.76821e-06
7.78023e-06
7.9799e-06
9.96946e-06
1.72128e-05
2.55477e-05
2.88729e-05
3.17835e-05
4.00543e-05
4.93793e-05
3.63013e-05
3.91047e-05
4.84092e-05
4.47704e-05
3.61862e-05
2.89962e-05
2.34205e-05
1.85671e-05
1.4033e-05
1.05054e-05
9.58443e-06
9.65593e-06
1.10947e-05
1.44501e-05
1.90486e-05
2.45512e-05
3.01353e-05
3.78635e-05
4.72843e-05
5.03334e-05
4.02755e-05
4.18276e-05
4.75491e-05
4.5036e-05
3.76717e-05
2.91064e-05
2.29571e-05
1.82187e-05
1.40469e-05
1.11009e-05
1.1546e-05
1.13503e-05
1.17321e-05
1.46464e-05
1.8725e-05
2.36059e-05
2.982e-05
3.85076e-05
4.62547e-05
4.897e-05
4.30769e-05
4.41926e-05
4.98601e-05
4.90323e-05
4.33353e-05
3.43333e-05
2.74627e-05
2.25722e-05
1.85287e-05
1.63451e-05
1.64323e-05
1.65633e-05
1.71889e-05
1.98594e-05
2.38063e-05
2.86819e-05
3.55991e-05
4.4391e-05
5.02042e-05
5.11774e-05
4.55201e-05
4.65474e-05
5.26356e-05
5.31131e-05
5.02838e-05
4.41648e-05
3.60394e-05
3.06663e-05
2.66317e-05
2.43335e-05
2.36779e-05
2.40769e-05
2.52804e-05
2.79824e-05
3.21939e-05
3.76522e-05
4.56464e-05
5.14873e-05
5.44319e-05
5.40567e-05
4.79344e-05
4.90429e-05
5.51456e-05
5.61144e-05
5.57531e-05
5.44547e-05
5.0202e-05
4.325e-05
3.70387e-05
3.35068e-05
3.18465e-05
3.23338e-05
3.45406e-05
3.84803e-05
4.48879e-05
5.1904e-05
5.5943e-05
5.72545e-05
5.7707e-05
5.68019e-05
5.04926e-05
5.17793e-05
5.82506e-05
5.96852e-05
6.14111e-05
6.41763e-05
6.5159e-05
6.41035e-05
6.15797e-05
5.72058e-05
5.21496e-05
5.2577e-05
5.76598e-05
6.23463e-05
6.52678e-05
6.66153e-05
6.58703e-05
6.3345e-05
6.17048e-05
6.02314e-05
5.33138e-05
5.53444e-05
6.38297e-05
6.84876e-05
7.22682e-05
7.58811e-05
7.86718e-05
8.01906e-05
7.9347e-05
7.47302e-05
6.64169e-05
6.60834e-05
7.41044e-05
7.92277e-05
8.09197e-05
8.02135e-05
7.80187e-05
7.4696e-05
7.09871e-05
6.61022e-05
5.69943e-05
5.99795e-05
6.89931e-05
7.71515e-05
8.40179e-05
9.01857e-05
9.56141e-05
9.98821e-05
0.000102253
0.000101918
9.83797e-05
9.84201e-05
0.000102266
0.000102906
0.000100933
9.71002e-05
9.20304e-05
8.60936e-05
7.9289e-05
7.10085e-05
6.16824e-05
1.99795e-05
1.77572e-05
1.2824e-05
9.3174e-06
9.00172e-06
9.75846e-06
8.60715e-06
6.4982e-06
5.24425e-06
4.79634e-06
4.71359e-06
4.95977e-06
6.0435e-06
7.98041e-06
9.72784e-06
9.91501e-06
1.02861e-05
1.47611e-05
2.08936e-05
2.31343e-05
2.88935e-05
3.89535e-05
3.5778e-05
3.25962e-05
3.06998e-05
2.59997e-05
1.80368e-05
1.29011e-05
1.03402e-05
9.63246e-06
9.62937e-06
1.03066e-05
1.30476e-05
1.99865e-05
2.88753e-05
3.22123e-05
3.29432e-05
3.60977e-05
4.01477e-05
2.99117e-05
3.39658e-05
4.47704e-05
4.27162e-05
3.62116e-05
3.06468e-05
2.57111e-05
2.13305e-05
1.71718e-05
1.36387e-05
1.18357e-05
1.19785e-05
1.40831e-05
1.75423e-05
2.19529e-05
2.72656e-05
3.21178e-05
3.79314e-05
4.51806e-05
4.74867e-05
3.49202e-05
3.70208e-05
4.5036e-05
4.36754e-05
3.77191e-05
3.06226e-05
2.51171e-05
2.08584e-05
1.7209e-05
1.44698e-05
1.29661e-05
1.32642e-05
1.47794e-05
1.74607e-05
2.12255e-05
2.58279e-05
3.14044e-05
3.85619e-05
4.47825e-05
4.65277e-05
3.82832e-05
4.10166e-05
4.90323e-05
4.76364e-05
4.18582e-05
3.33757e-05
2.66347e-05
2.18524e-05
1.78114e-05
1.46967e-05
1.36994e-05
1.40831e-05
1.5683e-05
1.87548e-05
2.26845e-05
2.75416e-05
3.44364e-05
4.29672e-05
4.88247e-05
5.04465e-05
4.24484e-05
4.56257e-05
5.31131e-05
5.16211e-05
4.64545e-05
3.83816e-05
3.0253e-05
2.45831e-05
2.01487e-05
1.7096e-05
1.63799e-05
1.6664e-05
1.8162e-05
2.14029e-05
2.582e-05
3.14784e-05
3.9606e-05
4.76512e-05
5.29882e-05
5.46307e-05
4.71122e-05
5.021e-05
5.61144e-05
5.46056e-05
4.93301e-05
4.2971e-05
3.61186e-05
3.00852e-05
2.52845e-05
2.2142e-05
2.09797e-05
2.12492e-05
2.29594e-05
2.64744e-05
3.14078e-05
3.74459e-05
4.42487e-05
5.08185e-05
5.64075e-05
5.79472e-05
5.17678e-05
5.48433e-05
5.96852e-05
5.98385e-05
5.49345e-05
4.92679e-05
4.5703e-05
4.20273e-05
3.84334e-05
3.45581e-05
3.10013e-05
3.10954e-05
3.4973e-05
3.93842e-05
4.35329e-05
4.74932e-05
5.11069e-05
5.72909e-05
6.2456e-05
6.20199e-05
5.65103e-05
6.02546e-05
6.84876e-05
7.7974e-05
8.69125e-05
9.26428e-05
9.61676e-05
9.91024e-05
9.86137e-05
9.03543e-05
7.53544e-05
7.45245e-05
8.90842e-05
9.82081e-05
0.000100538
9.92815e-05
9.66803e-05
9.0953e-05
8.1669e-05
7.13483e-05
6.20905e-05
6.69302e-05
7.71515e-05
8.63062e-05
9.42778e-05
0.000101832
0.000108942
0.000115006
0.000118811
0.000119056
0.000114878
0.000114808
0.00011943
0.000119592
0.000116316
0.000110808
0.000104117
9.67854e-05
8.88025e-05
7.94299e-05
6.88109e-05
8.67756e-06
1.0037e-05
9.3174e-06
9.244e-06
1.07008e-05
1.08301e-05
9.35781e-06
7.53329e-06
6.23005e-06
5.70734e-06
5.55018e-06
5.75041e-06
6.88707e-06
8.85268e-06
1.06455e-05
1.11532e-05
1.03602e-05
1.02575e-05
1.16528e-05
1.07225e-05
2.36317e-05
3.15766e-05
3.25962e-05
3.25642e-05
3.07113e-05
2.49529e-05
1.79648e-05
1.39105e-05
1.18723e-05
1.15039e-05
1.14804e-05
1.178e-05
1.38468e-05
1.94011e-05
2.82711e-05
3.32505e-05
3.36102e-05
3.28373e-05
3.18027e-05
2.3991e-05
2.86981e-05
3.61862e-05
3.62116e-05
3.32142e-05
2.97047e-05
2.57541e-05
2.21029e-05
1.82485e-05
1.50382e-05
1.37524e-05
1.37886e-05
1.53446e-05
1.86064e-05
2.27636e-05
2.74109e-05
3.15106e-05
3.48015e-05
3.7998e-05
3.81341e-05
2.95744e-05
3.09547e-05
3.76717e-05
3.77191e-05
3.41666e-05
2.95403e-05
2.54194e-05
2.20584e-05
1.90299e-05
1.64857e-05
1.48562e-05
1.50781e-05
1.67264e-05
1.91492e-05
2.23149e-05
2.61591e-05
3.04742e-05
3.50939e-05
3.87502e-05
3.89685e-05
3.22709e-05
3.69175e-05
4.33353e-05
4.18582e-05
3.73834e-05
3.13857e-05
2.62252e-05
2.23069e-05
1.89079e-05
1.60113e-05
1.41478e-05
1.46675e-05
1.66909e-05
1.94905e-05
2.28422e-05
2.69376e-05
3.23438e-05
3.85593e-05
4.32083e-05
4.4911e-05
3.83784e-05
4.40744e-05
5.02838e-05
4.64545e-05
4.11691e-05
3.4472e-05
2.81057e-05
2.3234e-05
1.91455e-05
1.57091e-05
1.37203e-05
1.43473e-05
1.67863e-05
2.01872e-05
2.41774e-05
2.90433e-05
3.54932e-05
4.2358e-05
4.78647e-05
5.18829e-05
4.55616e-05
5.07516e-05
5.57531e-05
4.93301e-05
4.3365e-05
3.72091e-05
3.12371e-05
2.63103e-05
2.22561e-05
1.90463e-05
1.72886e-05
1.76335e-05
1.99062e-05
2.33823e-05
2.74794e-05
3.2365e-05
3.83305e-05
4.46868e-05
5.10143e-05
5.74895e-05
5.23163e-05
5.70976e-05
6.14111e-05
5.49345e-05
4.92194e-05
4.58064e-05
4.29492e-05
4.07169e-05
3.85008e-05
3.4922e-05
3.02887e-05
3.04154e-05
3.54929e-05
3.97379e-05
4.2551e-05
4.50494e-05
4.7924e-05
5.15594e-05
5.78243e-05
6.36093e-05
5.88011e-05
6.41005e-05
7.22682e-05
8.69125e-05
9.92647e-05
0.000107685
0.000117113
0.000126494
0.000130766
0.000123243
0.000104415
0.000102998
0.000122027
0.00013115
0.000129164
0.000121626
0.000113
0.000105127
9.14692e-05
7.53839e-05
6.60224e-05
7.24002e-05
8.40179e-05
9.42778e-05
0.000103454
0.000112754
0.000121987
0.000130226
0.000135952
0.000137437
0.000133716
0.000133772
0.000138053
0.000137073
0.000131932
0.000124264
0.000115449
0.000106321
9.70203e-05
8.6442e-05
7.43657e-05
5.09497e-06
7.42461e-06
9.00172e-06
1.07008e-05
1.14771e-05
1.10921e-05
9.6795e-06
8.16007e-06
6.96392e-06
6.53502e-06
6.36366e-06
6.42054e-06
7.43002e-06
9.0556e-06
1.06638e-05
1.14132e-05
1.1111e-05
9.86537e-06
7.81844e-06
5.225e-06
1.96904e-05
2.78509e-05
3.06998e-05
3.07113e-05
2.73631e-05
2.16387e-05
1.6988e-05
1.41506e-05
1.2565e-05
1.29556e-05
1.30374e-05
1.24659e-05
1.3867e-05
1.73928e-05
2.41347e-05
3.04475e-05
3.28338e-05
3.17395e-05
2.85334e-05
2.04685e-05
2.33447e-05
2.89962e-05
3.06468e-05
2.97047e-05
2.73904e-05
2.46031e-05
2.15401e-05
1.80773e-05
1.54239e-05
1.5098e-05
1.50585e-05
1.5565e-05
1.82035e-05
2.19143e-05
2.57155e-05
2.92029e-05
3.13598e-05
3.20068e-05
3.01634e-05
2.41723e-05
2.45747e-05
2.91064e-05
3.06226e-05
2.95403e-05
2.71015e-05
2.44883e-05
2.21104e-05
1.95921e-05
1.73017e-05
1.65458e-05
1.65344e-05
1.75501e-05
1.96644e-05
2.21497e-05
2.50117e-05
2.79762e-05
3.0444e-05
3.1498e-05
3.01333e-05
2.58305e-05
3.28038e-05
3.43333e-05
3.33757e-05
3.13857e-05
2.82029e-05
2.49805e-05
2.21859e-05
1.96255e-05
1.75703e-05
1.67777e-05
1.67733e-05
1.78606e-05
1.99393e-05
2.24992e-05
2.54871e-05
2.89588e-05
3.23858e-05
3.4674e-05
3.60863e-05
3.41787e-05
4.23789e-05
4.41648e-05
3.83816e-05
3.4472e-05
3.03139e-05
2.61501e-05
2.25474e-05
1.93726e-05
1.68564e-05
1.59411e-05
1.61243e-05
1.7547e-05
2.0135e-05
2.32495e-05
2.6878e-05
3.11576e-05
3.55728e-05
3.98893e-05
4.61261e-05
4.37962e-05
5.09297e-05
5.44547e-05
4.2971e-05
3.72091e-05
3.28146e-05
2.86834e-05
2.50849e-05
2.20892e-05
1.99427e-05
1.95459e-05
1.96121e-05
2.06191e-05
2.30941e-05
2.6135e-05
2.97033e-05
3.38372e-05
3.83921e-05
4.44562e-05
5.62696e-05
5.2441e-05
5.87552e-05
6.41763e-05
4.92679e-05
4.58064e-05
4.45767e-05
4.35513e-05
4.29089e-05
4.20388e-05
3.91262e-05
3.4606e-05
3.47247e-05
3.98022e-05
4.34991e-05
4.50212e-05
4.59143e-05
4.69041e-05
4.80211e-05
5.13253e-05
6.63102e-05
6.04359e-05
6.7143e-05
7.58811e-05
9.26428e-05
0.000107685
0.000126307
0.000144182
0.00015881
0.000166222
0.00015504
0.000126796
0.000125441
0.00015397
0.000167127
0.000162657
0.000149625
0.000132557
0.000113814
9.79263e-05
7.90487e-05
6.90673e-05
7.69058e-05
9.01857e-05
0.000101832
0.000112754
0.000124663
0.000136452
0.000147033
0.00015487
0.000157914
0.000155062
0.000155408
0.000158872
0.000156353
0.000149093
0.00013902
0.00012759
0.000115792
0.000104663
9.26385e-05
7.88819e-05
4.58253e-06
7.70969e-06
9.75846e-06
1.08301e-05
1.10921e-05
1.05823e-05
9.62526e-06
8.5222e-06
7.59627e-06
7.3846e-06
7.23044e-06
7.01189e-06
7.72095e-06
8.83936e-06
9.93721e-06
1.05808e-05
1.05274e-05
9.61259e-06
7.6066e-06
4.12397e-06
1.52617e-05
2.34639e-05
2.59997e-05
2.49529e-05
2.16387e-05
1.83872e-05
1.59704e-05
1.40833e-05
1.31087e-05
1.42831e-05
1.4493e-05
1.29872e-05
1.35983e-05
1.55471e-05
1.88722e-05
2.35353e-05
2.71999e-05
2.77031e-05
2.46378e-05
1.59631e-05
1.82696e-05
2.34205e-05
2.57111e-05
2.57541e-05
2.46031e-05
2.26445e-05
2.00507e-05
1.72759e-05
1.54074e-05
1.58697e-05
1.58134e-05
1.53624e-05
1.70365e-05
1.98659e-05
2.29723e-05
2.54771e-05
2.69909e-05
2.68423e-05
2.4262e-05
1.88417e-05
1.91688e-05
2.29571e-05
2.51171e-05
2.54194e-05
2.44883e-05
2.30663e-05
2.13729e-05
1.91787e-05
1.73272e-05
1.72382e-05
1.71193e-05
1.74396e-05
1.91581e-05
2.11792e-05
2.31214e-05
2.4902e-05
2.59893e-05
2.56964e-05
2.35818e-05
1.99022e-05
2.93626e-05
2.74627e-05
2.66347e-05
2.62252e-05
2.49805e-05
2.32524e-05
2.14177e-05
1.96253e-05
1.83548e-05
1.83372e-05
1.81714e-05
1.84039e-05
1.97213e-05
2.15179e-05
2.34916e-05
2.54063e-05
2.68229e-05
2.74361e-05
2.85788e-05
3.05207e-05
4.06422e-05
3.60394e-05
3.0253e-05
2.81057e-05
2.61501e-05
2.38254e-05
2.1455e-05
1.93044e-05
1.80386e-05
1.86206e-05
1.84538e-05
1.8358e-05
1.98069e-05
2.19401e-05
2.43502e-05
2.67801e-05
2.89332e-05
3.14055e-05
3.76561e-05
4.19378e-05
5.06495e-05
5.0202e-05
3.61186e-05
3.12371e-05
2.86834e-05
2.6311e-05
2.4053e-05
2.22655e-05
2.16402e-05
2.34543e-05
2.32155e-05
2.2055e-05
2.30845e-05
2.49507e-05
2.72092e-05
2.95955e-05
3.22594e-05
3.74328e-05
5.22991e-05
5.20807e-05
5.9748e-05
6.51589e-05
4.5703e-05
4.29492e-05
4.35513e-05
4.46338e-05
4.58168e-05
4.60105e-05
4.29927e-05
3.8151e-05
3.82524e-05
4.36336e-05
4.74476e-05
4.79517e-05
4.70776e-05
4.59151e-05
4.50589e-05
4.75332e-05
6.73901e-05
6.1357e-05
6.93264e-05
7.86718e-05
9.61676e-05
0.000117113
0.000144182
0.000169583
0.000190781
0.000198649
0.000178261
0.000134702
0.000133405
0.000177076
0.000199448
0.000194606
0.000175774
0.000150525
0.000122976
0.000100878
8.15494e-05
7.11704e-05
8.04958e-05
9.56141e-05
0.000108942
0.000121987
0.000136452
0.00015086
0.000164105
0.000174461
0.000179821
0.000179107
0.000179873
0.000181183
0.000176313
0.000166437
0.000153618
0.000139451
0.000124997
0.000111699
9.80045e-05
8.24363e-05
3.88174e-06
6.99624e-06
8.60715e-06
9.35781e-06
9.6795e-06
9.62526e-06
9.24886e-06
8.68374e-06
8.22001e-06
8.49383e-06
8.37951e-06
7.60418e-06
7.85183e-06
8.35883e-06
8.76402e-06
8.8797e-06
8.62432e-06
7.75843e-06
6.15715e-06
3.49728e-06
7.05537e-06
1.56543e-05
1.80368e-05
1.79648e-05
1.6988e-05
1.59704e-05
1.4901e-05
1.38949e-05
1.38581e-05
1.67314e-05
1.72063e-05
1.37237e-05
1.32152e-05
1.39998e-05
1.51619e-05
1.65741e-05
1.80535e-05
1.84425e-05
1.58658e-05
7.05538e-06
1.3499e-05
1.85671e-05
2.13305e-05
2.21029e-05
2.15401e-05
2.00507e-05
1.81575e-05
1.63236e-05
1.54636e-05
1.7402e-05
1.7355e-05
1.52275e-05
1.57342e-05
1.7424e-05
1.95304e-05
2.14098e-05
2.22669e-05
2.1443e-05
1.86224e-05
1.34198e-05
1.47959e-05
1.82187e-05
2.08584e-05
2.20584e-05
2.21104e-05
2.13729e-05
1.9975e-05
1.81684e-05
1.71189e-05
1.85397e-05
1.83177e-05
1.69882e-05
1.79246e-05
1.95991e-05
2.10483e-05
2.1933e-05
2.20368e-05
2.0919e-05
1.84226e-05
1.52337e-05
2.65932e-05
2.25722e-05
2.18524e-05
2.23069e-05
2.21859e-05
2.14177e-05
2.02851e-05
1.90626e-05
1.85447e-05
2.0203e-05
1.99447e-05
1.84485e-05
1.89858e-05
2.01742e-05
2.13968e-05
2.22836e-05
2.25231e-05
2.22508e-05
2.33137e-05
2.75618e-05
3.89574e-05
3.06663e-05
2.45831e-05
2.3234e-05
2.25474e-05
2.1455e-05
2.00675e-05
1.88217e-05
1.87747e-05
2.17005e-05
2.14244e-05
1.88696e-05
1.90885e-05
2.0333e-05
2.17529e-05
2.29281e-05
2.37464e-05
2.53145e-05
3.18065e-05
4.01297e-05
4.98989e-05
4.325e-05
3.00852e-05
2.63103e-05
2.50849e-05
2.4053e-05
2.29766e-05
2.23281e-05
2.32157e-05
2.80393e-05
2.78015e-05
2.34406e-05
2.28993e-05
2.36365e-05
2.47237e-05
2.57635e-05
2.70351e-05
3.10181e-05
4.49756e-05
5.12327e-05
5.99635e-05
6.41035e-05
4.20273e-05
4.07169e-05
4.29089e-05
4.58168e-05
4.84058e-05
4.8691e-05
4.43528e-05
4.04605e-05
4.06993e-05
4.48178e-05
4.97962e-05
5.01514e-05
4.79033e-05
4.49413e-05
4.24086e-05
4.34625e-05
6.63836e-05
6.14863e-05
7.05339e-05
8.01905e-05
9.91024e-05
0.000126494
0.00015881
0.000190781
0.000216136
0.000220169
0.000181397
0.000132486
0.000131935
0.000179716
0.000220458
0.000218889
0.000195597
0.00016463
0.000131275
0.000102608
8.26278e-05
7.22671e-05
8.30061e-05
9.98821e-05
0.000115006
0.000130226
0.000147033
0.000164105
0.000180319
0.000194023
0.000203621
0.000209211
0.000210649
0.000205545
0.000196347
0.000182944
0.00016698
0.000150042
0.000133126
0.000117623
0.000102183
8.49021e-05
3.10308e-06
5.02046e-06
6.4982e-06
7.53329e-06
8.16007e-06
8.5222e-06
8.68374e-06
8.74726e-06
8.92442e-06
9.7848e-06
9.66105e-06
8.29212e-06
7.93018e-06
7.8168e-06
7.64458e-06
7.30179e-06
6.71146e-06
5.78162e-06
4.48709e-06
2.82544e-06
5.08784e-06
1.00423e-05
1.29011e-05
1.39106e-05
1.41506e-05
1.40833e-05
1.38949e-05
1.39735e-05
1.51784e-05
1.84053e-05
1.88628e-05
1.50855e-05
1.31803e-05
1.28271e-05
1.2947e-05
1.30447e-05
1.28846e-05
1.2031e-05
9.20442e-06
4.64869e-06
8.12158e-06
1.4033e-05
1.71718e-05
1.82485e-05
1.80773e-05
1.72759e-05
1.63236e-05
1.56731e-05
1.60796e-05
2.12109e-05
2.12225e-05
1.56734e-05
1.48283e-05
1.53506e-05
1.63644e-05
1.73502e-05
1.77154e-05
1.66956e-05
1.36783e-05
7.70725e-06
1.07072e-05
1.40469e-05
1.7209e-05
1.90299e-05
1.95921e-05
1.91787e-05
1.81684e-05
1.72112e-05
1.76898e-05
2.65854e-05
2.65343e-05
1.73588e-05
1.66827e-05
1.76497e-05
1.8759e-05
1.92502e-05
1.87403e-05
1.69599e-05
1.39856e-05
1.09267e-05
2.43435e-05
1.85287e-05
1.78114e-05
1.89079e-05
1.96255e-05
1.96253e-05
1.90626e-05
1.84602e-05
1.97456e-05
3.58526e-05
3.54594e-05
1.95926e-05
1.82115e-05
1.88048e-05
1.94196e-05
1.95201e-05
1.89142e-05
1.80129e-05
1.91261e-05
2.51716e-05
3.72732e-05
2.66317e-05
2.01487e-05
1.91455e-05
1.93726e-05
1.93044e-05
1.88217e-05
1.85395e-05
2.11163e-05
4.51938e-05
4.50631e-05
2.11528e-05
1.85562e-05
1.88469e-05
1.93604e-05
1.95088e-05
1.94097e-05
2.06018e-05
2.74587e-05
3.83603e-05
4.87068e-05
3.70387e-05
2.52845e-05
2.22561e-05
2.20892e-05
2.22655e-05
2.23281e-05
2.29145e-05
2.72731e-05
5.69238e-05
5.76839e-05
2.74874e-05
2.31556e-05
2.26166e-05
2.25575e-05
2.2383e-05
2.25833e-05
2.58079e-05
3.83031e-05
4.99618e-05
5.92863e-05
6.15797e-05
3.84334e-05
3.85008e-05
4.20388e-05
4.60104e-05
4.8691e-05
4.743e-05
4.3912e-05
6.38885e-05
6.56045e-05
4.44025e-05
4.80296e-05
4.96905e-05
4.73026e-05
4.32746e-05
3.94156e-05
3.92747e-05
6.37226e-05
6.07317e-05
7.04732e-05
7.93469e-05
9.86137e-05
0.000130766
0.000166222
0.000198649
0.000220169
0.000205879
0.000160582
0.000172602
0.000176356
0.000161227
0.000205616
0.000221503
0.0002019
0.000170166
0.000133855
0.000100777
8.13297e-05
7.2115e-05
8.41028e-05
0.000102253
0.000118811
0.000135952
0.00015487
0.000174461
0.000194023
0.000212694
0.00023158
0.000253423
0.000255919
0.000234521
0.000215771
0.000197128
0.000177591
0.000157946
0.000138811
0.000121367
0.000104531
8.59977e-05
2.88406e-06
4.07622e-06
5.24425e-06
6.23005e-06
6.96392e-06
7.59627e-06
8.22001e-06
8.92442e-06
9.68545e-06
1.12528e-05
1.06106e-05
9.02243e-06
8.19331e-06
7.50923e-06
6.92674e-06
6.33967e-06
5.66345e-06
4.78869e-06
3.82515e-06
2.72431e-06
4.73119e-06
7.87414e-06
1.03402e-05
1.18723e-05
1.2565e-05
1.31087e-05
1.38581e-05
1.51784e-05
1.68521e-05
4.74666e-05
4.94461e-05
1.66851e-05
1.44924e-05
1.29927e-05
1.22222e-05
1.16994e-05
1.1049e-05
9.62871e-06
7.39641e-06
4.48225e-06
5.56759e-06
1.05054e-05
1.36387e-05
1.50382e-05
1.54239e-05
1.54074e-05
1.54636e-05
1.60796e-05
2.20807e-05
0.000106047
0.000110025
2.21128e-05
1.5291e-05
1.46711e-05
1.46798e-05
1.47976e-05
1.45221e-05
1.31795e-05
1.01377e-05
5.3307e-06
8.07598e-06
1.11009e-05
1.44698e-05
1.64857e-05
1.73017e-05
1.73272e-05
1.71189e-05
1.76898e-05
3.08408e-05
0.000167525
0.000173803
3.19116e-05
1.7146e-05
1.66257e-05
1.69937e-05
1.71151e-05
1.63434e-05
1.42815e-05
1.09e-05
7.56756e-06
2.26561e-05
1.63451e-05
1.46967e-05
1.60113e-05
1.75703e-05
1.83548e-05
1.85447e-05
1.97456e-05
4.41328e-05
0.000240508
0.000249453
4.58194e-05
1.95395e-05
1.82559e-05
1.81169e-05
1.7429e-05
1.60058e-05
1.4854e-05
1.65888e-05
2.3443e-05
3.5664e-05
2.43335e-05
1.7096e-05
1.57091e-05
1.68564e-05
1.80386e-05
1.87747e-05
2.11163e-05
5.71764e-05
0.000308316
0.000321709
6.0319e-05
2.11088e-05
1.85728e-05
1.78726e-05
1.68251e-05
1.58795e-05
1.74231e-05
2.49588e-05
3.67096e-05
4.70768e-05
3.35068e-05
2.2142e-05
1.90463e-05
1.99427e-05
2.16402e-05
2.32157e-05
2.72731e-05
7.23129e-05
0.000349093
0.000367422
7.65185e-05
2.73888e-05
2.29994e-05
2.13928e-05
1.97668e-05
1.90437e-05
2.24621e-05
3.45786e-05
4.82909e-05
5.75751e-05
5.72058e-05
3.45581e-05
3.4922e-05
3.91262e-05
4.29927e-05
4.43528e-05
4.3912e-05
7.92364e-05
0.000337532
0.000356701
8.41185e-05
4.43485e-05
4.46295e-05
4.33654e-05
3.9476e-05
3.51599e-05
3.50666e-05
5.91439e-05
5.89771e-05
6.87666e-05
7.47302e-05
9.03543e-05
0.000123243
0.00015504
0.000178261
0.000181397
0.000160582
0.000183978
0.000320575
0.000332613
0.000191673
0.000161872
0.000182497
0.000180277
0.000157507
0.000125094
9.16766e-05
7.64475e-05
7.03862e-05
8.33521e-05
0.000101918
0.000119056
0.000137437
0.000157914
0.000179821
0.000203621
0.00023158
0.000268969
0.000316174
0.000318931
0.000273703
0.000236008
0.000207607
0.000183469
0.000161273
0.000140452
0.00012174
0.000104306
8.53233e-05
2.86472e-06
3.93582e-06
4.79634e-06
5.70734e-06
6.53502e-06
7.3846e-06
8.49383e-06
9.7848e-06
1.12528e-05
1.20675e-05
1.11806e-05
1.01197e-05
9.24342e-06
8.02951e-06
7.01114e-06
6.21916e-06
5.44086e-06
4.58864e-06
3.79443e-06
2.74435e-06
4.93713e-06
7.76821e-06
9.63246e-06
1.15039e-05
1.29556e-05
1.42831e-05
1.67314e-05
1.84053e-05
4.74666e-05
4.93397e-05
4.85804e-05
5.0156e-05
1.82303e-05
1.62818e-05
1.39264e-05
1.26302e-05
1.11896e-05
9.35528e-06
7.53682e-06
4.76087e-06
6.21872e-06
9.58443e-06
1.18357e-05
1.37524e-05
1.5098e-05
1.58697e-05
1.7402e-05
2.12109e-05
0.000106047
9.03647e-05
8.94267e-05
0.000114535
2.1383e-05
1.69722e-05
1.55838e-05
1.4882e-05
1.35428e-05
1.16373e-05
9.3867e-06
5.9734e-06
7.96726e-06
1.1546e-05
1.29661e-05
1.48562e-05
1.65458e-05
1.72382e-05
1.85397e-05
2.65854e-05
0.000167525
0.000138948
0.000137095
0.000183297
2.77075e-05
1.814e-05
1.69835e-05
1.64461e-05
1.49052e-05
1.30867e-05
1.14951e-05
7.34579e-06
2.17012e-05
1.64323e-05
1.36994e-05
1.41478e-05
1.67777e-05
1.83372e-05
2.0203e-05
3.58526e-05
0.000240508
0.000196825
0.000193176
0.000263954
3.77333e-05
1.99155e-05
1.80499e-05
1.65916e-05
1.42045e-05
1.3898e-05
1.67126e-05
2.25324e-05
3.42962e-05
2.36779e-05
1.63799e-05
1.37203e-05
1.59411e-05
1.86206e-05
2.17005e-05
4.51938e-05
0.000308316
0.000261509
0.000255424
0.000340222
4.85175e-05
2.1467e-05
1.82521e-05
1.57261e-05
1.38409e-05
1.65842e-05
2.42792e-05
3.53225e-05
4.51209e-05
3.18465e-05
2.09796e-05
1.72886e-05
1.95459e-05
2.34543e-05
2.80393e-05
5.69238e-05
0.000349093
0.000324389
0.000315645
0.000386624
6.07605e-05
2.76908e-05
2.27887e-05
1.90015e-05
1.71243e-05
2.11989e-05
3.27988e-05
4.63075e-05
5.49272e-05
5.21496e-05
3.10013e-05
3.02887e-05
3.4606e-05
3.8151e-05
4.04605e-05
6.38885e-05
0.000337532
0.000369064
0.000357211
0.000377615
6.8007e-05
4.04677e-05
3.79064e-05
3.4429e-05
3.03183e-05
3.15117e-05
5.39207e-05
5.63056e-05
6.53338e-05
6.64169e-05
7.53544e-05
0.000104415
0.000126796
0.000134702
0.000132486
0.000172602
0.000320575
0.000383795
0.000372881
0.000346647
0.000181538
0.000134986
0.000135989
0.000128786
0.000106207
7.68612e-05
6.80502e-05
6.69711e-05
8.03144e-05
9.83797e-05
0.000114878
0.000133716
0.000155062
0.000179107
0.000209211
0.000253423
0.000316174
0.000358147
0.000351406
0.000324072
0.000260332
0.000214552
0.000183493
0.000158895
0.000137065
0.000117802
0.000100937
8.23849e-05
2.84712e-06
3.91181e-06
4.71359e-06
5.55018e-06
6.36366e-06
7.23044e-06
8.37951e-06
9.66105e-06
1.06106e-05
1.11806e-05
1.07429e-05
9.87568e-06
8.98471e-06
7.86729e-06
6.89278e-06
6.13038e-06
5.38112e-06
4.581e-06
3.8236e-06
2.76037e-06
4.93732e-06
7.78023e-06
9.62937e-06
1.14804e-05
1.30374e-05
1.4493e-05
1.72063e-05
1.88628e-05
4.94461e-05
4.85804e-05
4.61937e-05
4.88181e-05
1.78015e-05
1.61819e-05
1.3948e-05
1.27453e-05
1.13813e-05
9.62695e-06
7.75578e-06
4.86225e-06
6.2171e-06
9.65593e-06
1.19785e-05
1.37886e-05
1.50585e-05
1.58134e-05
1.7355e-05
2.12225e-05
0.000110025
8.94267e-05
8.52737e-05
0.000116352
2.11042e-05
1.67677e-05
1.5485e-05
1.48853e-05
1.37301e-05
1.19858e-05
9.65521e-06
6.07933e-06
8.21757e-06
1.13503e-05
1.32642e-05
1.50781e-05
1.65344e-05
1.71193e-05
1.83177e-05
2.65343e-05
0.000173803
0.000137095
0.000130955
0.000191169
2.78069e-05
1.7985e-05
1.6843e-05
1.63326e-05
1.50255e-05
1.33023e-05
1.11611e-05
8.32992e-06
2.23944e-05
1.65633e-05
1.40831e-05
1.46675e-05
1.67733e-05
1.81714e-05
1.99447e-05
3.54594e-05
0.000249453
0.000193176
0.000184466
0.000279983
3.85148e-05
1.97622e-05
1.78657e-05
1.64825e-05
1.45063e-05
1.41754e-05
1.69683e-05
2.35466e-05
3.47908e-05
2.40769e-05
1.6664e-05
1.43473e-05
1.61243e-05
1.84538e-05
2.14244e-05
4.50631e-05
0.000321709
0.000255424
0.000243506
0.000364563
5.02265e-05
2.14125e-05
1.81029e-05
1.57509e-05
1.4222e-05
1.68848e-05
2.47967e-05
3.60352e-05
4.54358e-05
3.23338e-05
2.12492e-05
1.76335e-05
1.96121e-05
2.32155e-05
2.78015e-05
5.76839e-05
0.000367422
0.000315645
0.000299966
0.000418122
6.42123e-05
2.82218e-05
2.30513e-05
1.93173e-05
1.75239e-05
2.1563e-05
3.33528e-05
4.68322e-05
5.51309e-05
5.2577e-05
3.10954e-05
3.04154e-05
3.47247e-05
3.82524e-05
4.06993e-05
6.56045e-05
0.000356701
0.000357211
0.000337004
0.000409018
7.204e-05
4.11866e-05
3.83454e-05
3.48352e-05
3.05748e-05
3.16927e-05
5.45298e-05
5.6762e-05
6.54586e-05
6.60834e-05
7.45245e-05
0.000102998
0.000125441
0.000133405
0.000131935
0.000176356
0.000332613
0.000372881
0.000353781
0.000365851
0.00018835
0.000135362
0.000135052
0.000128129
0.000105318
7.65915e-05
6.80281e-05
6.74481e-05
8.04853e-05
9.84201e-05
0.000114808
0.000133772
0.000155408
0.000179873
0.000210649
0.000255919
0.000318931
0.000351406
0.000338877
0.000328143
0.000264529
0.000217368
0.000185381
0.000160237
0.000137997
0.000118527
0.000101657
8.30801e-05
2.82223e-06
4.00783e-06
4.95977e-06
5.75041e-06
6.42054e-06
7.01189e-06
7.60418e-06
8.29212e-06
9.02243e-06
1.01197e-05
9.87568e-06
8.46184e-06
7.82611e-06
7.27231e-06
6.77711e-06
6.26065e-06
5.63919e-06
4.81132e-06
3.89243e-06
2.75134e-06
4.75537e-06
7.97989e-06
1.03066e-05
1.178e-05
1.24659e-05
1.29872e-05
1.37237e-05
1.50855e-05
1.66851e-05
5.0156e-05
4.88181e-05
1.6071e-05
1.4247e-05
1.32057e-05
1.26885e-05
1.23441e-05
1.18182e-05
1.04248e-05
8.00962e-06
4.667e-06
5.62742e-06
1.10947e-05
1.40831e-05
1.53446e-05
1.5565e-05
1.53624e-05
1.52275e-05
1.56734e-05
2.21128e-05
0.000114535
0.000116352
2.25472e-05
1.54124e-05
1.50243e-05
1.52134e-05
1.54594e-05
1.52388e-05
1.39936e-05
1.09647e-05
5.48662e-06
8.87128e-06
1.17321e-05
1.47794e-05
1.67264e-05
1.75501e-05
1.74396e-05
1.69882e-05
1.73588e-05
3.19116e-05
0.000183297
0.000191169
3.34974e-05
1.73436e-05
1.68457e-05
1.72832e-05
1.74241e-05
1.66573e-05
1.4731e-05
1.17758e-05
9.76709e-06
2.36009e-05
1.71889e-05
1.5683e-05
1.66909e-05
1.78606e-05
1.84039e-05
1.84485e-05
1.95926e-05
4.58194e-05
0.000263954
0.000279983
4.94824e-05
1.98291e-05
1.84539e-05
1.83871e-05
1.78541e-05
1.67259e-05
1.58276e-05
1.77571e-05
2.50007e-05
3.63543e-05
2.52804e-05
1.8162e-05
1.67863e-05
1.7547e-05
1.8358e-05
1.88696e-05
2.11528e-05
6.0319e-05
0.000340222
0.000364563
6.63255e-05
2.17055e-05
1.89472e-05
1.83253e-05
1.74882e-05
1.67978e-05
1.8391e-05
2.61542e-05
3.77724e-05
4.74746e-05
3.45406e-05
2.29594e-05
1.99062e-05
2.0619e-05
2.2055e-05
2.34406e-05
2.74874e-05
7.65185e-05
0.000386624
0.000418122
8.4653e-05
2.86591e-05
2.39086e-05
2.23337e-05
2.07933e-05
2.00741e-05
2.33493e-05
3.56845e-05
4.90186e-05
5.7798e-05
5.76598e-05
3.4973e-05
3.54929e-05
3.98022e-05
4.36336e-05
4.48178e-05
4.44025e-05
8.41185e-05
0.000377615
0.000409018
9.2315e-05
4.56036e-05
4.56976e-05
4.47827e-05
4.09361e-05
3.63726e-05
3.57146e-05
5.97315e-05
5.95809e-05
6.89014e-05
7.41044e-05
8.90842e-05
0.000122027
0.00015397
0.000177076
0.000179716
0.000161227
0.000191673
0.000346647
0.000365851
0.000204194
0.00016375
0.000180787
0.000181337
0.000159302
0.000126351
9.22866e-05
7.64736e-05
7.10572e-05
8.37067e-05
0.000102266
0.00011943
0.000138053
0.000158872
0.000181183
0.000205545
0.000234521
0.000273703
0.000324072
0.000328143
0.000280237
0.000240449
0.000210825
0.000186198
0.000163632
0.000142403
0.000123324
0.000105637
8.6412e-05
2.9897e-06
4.77423e-06
6.0435e-06
6.88707e-06
7.43002e-06
7.72095e-06
7.85183e-06
7.93018e-06
8.19331e-06
9.24342e-06
8.98471e-06
7.82611e-06
7.65656e-06
7.68822e-06
7.64413e-06
7.39206e-06
6.84528e-06
5.88499e-06
4.6079e-06
2.88791e-06
5.00003e-06
9.96945e-06
1.30476e-05
1.38468e-05
1.3867e-05
1.35983e-05
1.32152e-05
1.31803e-05
1.44924e-05
1.82303e-05
1.78015e-05
1.4247e-05
1.30217e-05
1.3133e-05
1.36084e-05
1.4035e-05
1.42148e-05
1.35139e-05
1.05984e-05
4.9548e-06
8.99523e-06
1.44501e-05
1.75423e-05
1.86064e-05
1.82035e-05
1.70365e-05
1.57342e-05
1.48283e-05
1.5291e-05
2.1383e-05
2.11042e-05
1.54124e-05
1.49596e-05
1.58231e-05
1.70949e-05
1.82216e-05
1.85308e-05
1.73922e-05
1.42876e-05
9.06755e-06
1.17381e-05
1.46464e-05
1.74607e-05
1.91492e-05
1.96644e-05
1.91581e-05