/*--------------------------------*- C++ -*----------------------------------*\
  =========                 |
  \\      /  F ield         | OpenFOAM: The Open Source CFD Toolbox
   \\    /   O peration     | Website:  https://openfoam.org
    \\  /    A nd           | Version:  9
     \\/     M anipulation  |
\*---------------------------------------------------------------------------*/
FoamFile
{
    format      ascii;
    class       volScalarField;
    location    "1650";
    object      nut;
}
// * * * * * * * * * * * * * * * * * * * * * * * * * * * * * * * * * * * * * //

dimensions      [0 2 -1 0 0 0 0];

internalField   nonuniform List<scalar> 
4000
(
0.000320008
0.000292299
0.000249584
0.000163088
0.000126741
0.000120756
0.000110573
9.88507e-05
9.53337e-05
9.50247e-05
9.47521e-05
9.43424e-05
9.70622e-05
0.000108235
0.000117498
0.000132284
0.000186724
0.000270616
0.000305228
0.000328868
0.000349106
0.000331663
0.000300116
0.000271976
0.000248615
0.000218736
0.000148583
0.000126612
0.000122143
0.000124815
0.000124792
0.000122453
0.000125537
0.000154637
0.000225831
0.000254138
0.000273585
0.000305192
0.000336649
0.000354363
0.000363264
0.000350156
0.000326436
0.000300315
0.000271092
0.000239802
0.000206009
0.00015943
0.00013254
0.000140022
0.000139948
0.00013311
0.000168086
0.000207945
0.000244294
0.000275137
0.000302976
0.000329505
0.000354495
0.00036792
0.000370673
0.000362216
0.000340763
0.0003117
0.000277841
0.000245327
0.000215299
0.00018265
0.000158412
0.000157621
0.000159666
0.000165838
0.0001914
0.000219926
0.000248889
0.000282046
0.000315778
0.000344693
0.000366641
0.000375305
0.000375387
0.000372366
0.000358729
0.000340324
0.000320764
0.000303413
0.000288676
0.000276111
0.000266243
0.000260461
0.000264438
0.000271567
0.000281681
0.000293876
0.000308298
0.000325584
0.000344986
0.000363371
0.000377072
0.000380155
0.00037913
0.000382178
0.000378404
0.000371954
0.000364761
0.000357222
0.000349751
0.000342113
0.000334651
0.000328134
0.000330323
0.000337663
0.000345591
0.000353561
0.000361382
0.000369283
0.000376758
0.000383431
0.000387296
0.000384082
0.000382988
0.000392321
0.00039702
0.000399225
0.000399989
0.000398932
0.000396005
0.000391275
0.000384687
0.000376585
0.000377722
0.00038609
0.000393393
0.000398894
0.000402575
0.000404311
0.000404125
0.000402319
0.000397748
0.000388125
0.00038761
0.000403151
0.000414983
0.000423509
0.000429691
0.000433373
0.000434206
0.000431783
0.000425522
0.00041562
0.000416206
0.000426137
0.00043321
0.000436629
0.000436785
0.000433997
0.000428545
0.000420509
0.000408829
0.000392917
0.000394123
0.000416837
0.000435021
0.000448779
0.000459395
0.000466884
0.000470997
0.00047084
0.000465136
0.000453419
0.000453647
0.000465399
0.000471932
0.000473226
0.0004703
0.000463867
0.000454054
0.000440805
0.000422748
0.000399589
0.000404103
0.000433991
0.000458543
0.000477004
0.000491708
0.000503133
0.000510987
0.000514415
0.000512177
0.000502863
0.000503196
0.000513128
0.000516035
0.000513466
0.000506597
0.000496111
0.000482196
0.00046427
0.000439902
0.000409676
0.000292299
0.000270995
0.000235358
0.000176272
0.000153067
0.000156846
0.000148606
0.000125685
0.000113222
0.000111278
0.000110938
0.000112268
0.000122418
0.000141932
0.000156254
0.000158233
0.000191263
0.000256305
0.000285688
0.000305191
0.000331663
0.00045441
0.000417034
0.00037561
0.000363117
0.000344177
0.000291028
0.000262052
0.000277891
0.000327561
0.000321943
0.000279716
0.000261619
0.000304527
0.000362261
0.000371393
0.000375332
0.000423558
0.000475533
0.000337356
0.000350156
0.000490755
0.000493501
0.000440636
0.000391139
0.000352856
0.000319029
0.000289019
0.000289466
0.000356556
0.000341065
0.000292019
0.000293314
0.000324184
0.000362892
0.000399767
0.000452473
0.00051095
0.000503949
0.000355538
0.000362216
0.000496859
0.000510558
0.000463451
0.000396605
0.000347771
0.000310021
0.000277199
0.0002737
0.000352163
0.000316842
0.000265456
0.000281347
0.000315054
0.000353822
0.000401744
0.000468316
0.000517936
0.000505284
0.000367733
0.000372366
0.000516543
0.000543723
0.00050697
0.000427455
0.000365349
0.000321043
0.000281633
0.000261651
0.000272287
0.000269476
0.000267444
0.00029325
0.000331059
0.00037494
0.000436368
0.000512979
0.000549976
0.000523617
0.000378034
0.000382178
0.000535002
0.000573828
0.000562617
0.000504146
0.000423239
0.0003719
0.00033287
0.000311841
0.000310193
0.000312821
0.000320251
0.000345127
0.00038482
0.000436084
0.000514763
0.000569353
0.000580844
0.000542471
0.000387923
0.000392321
0.000546666
0.000591186
0.00060942
0.00060414
0.00056329
0.000496234
0.000435157
0.000400401
0.000387291
0.0003923
0.000411356
0.000449625
0.000511354
0.000577763
0.000614848
0.000618429
0.00060018
0.000555493
0.000398149
0.000403151
0.000551032
0.00059488
0.000637355
0.000679061
0.000690665
0.000681849
0.000661628
0.000629435
0.00060089
0.000605053
0.000635289
0.00066972
0.000692636
0.000702557
0.000690978
0.00064947
0.00060636
0.000561505
0.000409134
0.000416837
0.000534585
0.000584952
0.000624045
0.000653732
0.0006702
0.000675975
0.000666658
0.000634573
0.000584953
0.000584536
0.000631817
0.000667083
0.000682183
0.000681204
0.000667237
0.0006378
0.000597947
0.000545531
0.000423041
0.000433991
0.000465565
0.00049243
0.000513985
0.000532626
0.000548525
0.000560729
0.000567437
0.000566601
0.000556806
0.000556711
0.000567421
0.000569105
0.000563526
0.000552624
0.000537907
0.000520178
0.000499121
0.000472278
0.000440128
0.000249584
0.000235358
0.000198824
0.000170778
0.000169803
0.000176178
0.000164777
0.000143068
0.000128504
0.000122861
0.000121745
0.00012481
0.000137685
0.000158355
0.000175493
0.00017816
0.000179351
0.000212424
0.000255108
0.000268998
0.000300116
0.000417034
0.000416492
0.000412416
0.000419698
0.000402359
0.000349739
0.000324725
0.000332826
0.000384087
0.00038093
0.000333389
0.000323999
0.000367864
0.000430083
0.000433542
0.000414193
0.000415801
0.000424089
0.000305729
0.000326436
0.000493501
0.000516743
0.000480853
0.000445936
0.000414839
0.000388465
0.000366594
0.000368054
0.000422751
0.000408456
0.000370502
0.000371229
0.000395406
0.00043046
0.000459085
0.000494082
0.000533673
0.000511961
0.000331151
0.000340763
0.000510558
0.000550059
0.000519253
0.000462127
0.000416274
0.000383098
0.00035958
0.000368027
0.000426856
0.000401291
0.000357456
0.000360846
0.000387702
0.000424242
0.000469379
0.000525517
0.000557112
0.000519642
0.000346669
0.000358729
0.000543723
0.000593155
0.000565071
0.000487738
0.000421028
0.00037397
0.000334832
0.000312168
0.000336072
0.000325409
0.00031735
0.000343396
0.000382163
0.000429957
0.000496602
0.000572759
0.000600261
0.000551712
0.000365038
0.000378404
0.000573828
0.000632373
0.000615564
0.000536264
0.000446237
0.000382568
0.000332063
0.000298689
0.000300781
0.000302013
0.000310639
0.000346274
0.000395424
0.000458028
0.000546366
0.000623507
0.000640349
0.00058233
0.000384587
0.00039702
0.000591186
0.000657546
0.000657098
0.000600714
0.000519976
0.000448827
0.000391857
0.000354257
0.000346173
0.000349318
0.000365141
0.000406969
0.000464232
0.000534038
0.00061194
0.000667163
0.000668111
0.000601665
0.000403176
0.000414983
0.00059488
0.000675173
0.000710945
0.00069749
0.000652672
0.000606463
0.000562407
0.000518234
0.000485404
0.000487515
0.000525247
0.000575213
0.000624638
0.00067254
0.000714848
0.000726407
0.000690525
0.000608409
0.000421271
0.000435021
0.000584952
0.000711268
0.000828048
0.000900789
0.000935002
0.000941806
0.000923454
0.000862625
0.000766683
0.000761904
0.000855064
0.000922248
0.000953789
0.000957571
0.000925163
0.000851307
0.000731804
0.000600109
0.000441612
0.000458543
0.00049243
0.000520941
0.000544587
0.000566111
0.000585665
0.000601858
0.000611848
0.000612598
0.0006019
0.000601512
0.000613411
0.000613713
0.000605129
0.000590505
0.000572278
0.000551653
0.000528324
0.000499595
0.000464942
0.000163088
0.000176272
0.000170778
0.000171854
0.00018498
0.000185178
0.000171708
0.000154071
0.000140141
0.000134065
0.000132136
0.000134371
0.00014691
0.000166683
0.000183408
0.000188413
0.000182237
0.000179082
0.000189162
0.000180036
0.000271976
0.00037561
0.000412416
0.0004382
0.00044888
0.000422929
0.000379182
0.000362335
0.000376152
0.000431342
0.000430889
0.000377551
0.000360379
0.000391199
0.000456593
0.000473799
0.000447577
0.000412999
0.000375224
0.000273957
0.000300315
0.000440636
0.000480853
0.000477995
0.000464517
0.000445603
0.000429252
0.000412412
0.000417903
0.000478339
0.000466309
0.000420106
0.000417631
0.000437001
0.000463462
0.00048249
0.000491818
0.000494275
0.000454068
0.00030504
0.0003117
0.000463451
0.000519253
0.000512864
0.000482136
0.000452343
0.000431087
0.000417904
0.000430315
0.000486785
0.000464345
0.000423409
0.000418382
0.00043489
0.000461329
0.000492003
0.000521144
0.000526709
0.000471479
0.000318404
0.000340324
0.00050697
0.000565071
0.000557385
0.000509922
0.000461651
0.000425661
0.00039835
0.000393237
0.000449319
0.000423454
0.000391157
0.000403734
0.00043204
0.000469838
0.000519151
0.000567036
0.000574837
0.000517244
0.00034707
0.000371954
0.000562617
0.000615564
0.000608825
0.000551544
0.000482163
0.000426839
0.000381717
0.000351687
0.000365222
0.000361663
0.000362614
0.000394564
0.000438129
0.000492495
0.000560962
0.00061817
0.000625744
0.000572924
0.000378218
0.000399225
0.00060942
0.000657098
0.000655761
0.000605958
0.000534707
0.000472404
0.000421832
0.000384993
0.000379386
0.000382287
0.000397411
0.000437787
0.000487807
0.000548092
0.000616843
0.000666094
0.000668829
0.000620333
0.00040535
0.000423509
0.000637355
0.000710945
0.000739861
0.00071639
0.000665055
0.00061721
0.000575875
0.000532092
0.000493411
0.000497089
0.00054175
0.00059207
0.000638302
0.000686777
0.000735872
0.00075838
0.000727486
0.00065057
0.000429785
0.000448779
0.000624045
0.000828048
0.000999234
0.00102745
0.00104529
0.00106904
0.00107597
0.00102428
0.00091443
0.000906592
0.00101709
0.0010789
0.00108737
0.00107422
0.00105938
0.00103388
0.000853121
0.000641556
0.000455452
0.000477004
0.000513985
0.000544587
0.000570606
0.000595852
0.00061991
0.000640632
0.000654696
0.000658397
0.000649577
0.000649541
0.000659741
0.000657255
0.000644665
0.000625509
0.00060277
0.00057832
0.000552347
0.000521286
0.000483429
0.000126741
0.000153067
0.000169803
0.00018498
0.000190865
0.000187078
0.000174607
0.000160382
0.000148215
0.00014352
0.000141574
0.000142074
0.00015269
0.000168595
0.000183282
0.000190088
0.000188006
0.00017768
0.000157189
0.000127903
0.000248615
0.000363117
0.000419698
0.00044888
0.00044734
0.00041892
0.000396052
0.000387621
0.000404409
0.000471516
0.000476202
0.000408365
0.000384548
0.000396064
0.000443554
0.000478322
0.000469289
0.000428449
0.000367831
0.000253349
0.000271092
0.000391139
0.000445936
0.000464517
0.000465651
0.000460768
0.00045188
0.000438871
0.000450134
0.000526803
0.000519415
0.000453053
0.000442265
0.00045656
0.000473157
0.000484614
0.000480282
0.000456941
0.000398927
0.000276069
0.000277841
0.000396605
0.000462127
0.000482136
0.000477563
0.000467521
0.000460226
0.000455299
0.000471296
0.000542534
0.000522587
0.000467738
0.000455713
0.000461377
0.000474118
0.000487262
0.000490877
0.000469007
0.00040327
0.000284922
0.000320764
0.000427455
0.000487738
0.000509922
0.000498677
0.000477152
0.000458259
0.000445533
0.000458859
0.000529459
0.000503048
0.000452011
0.000448053
0.000462226
0.000483209
0.000506421
0.000518886
0.000498231
0.0004404
0.000327454
0.000364761
0.000504146
0.000536263
0.000551544
0.000532884
0.000496585
0.000461269
0.000432579
0.00042621
0.000478932
0.000462919
0.000429993
0.000442098
0.000470243
0.000505064
0.000541261
0.000561467
0.000549276
0.000519278
0.000370826
0.000399989
0.00060414
0.000600714
0.000605958
0.000586458
0.000545322
0.00050238
0.000466431
0.000448372
0.00047443
0.000471632
0.000458022
0.000481026
0.000516671
0.000557894
0.000597307
0.000617289
0.000613961
0.000616922
0.00040588
0.000429691
0.000679061
0.00069749
0.00071639
0.000700701
0.00066067
0.000622273
0.000589286
0.000553644
0.000523932
0.000527956
0.000564619
0.000607137
0.000644476
0.000683493
0.000721111
0.000735899
0.000716179
0.000690981
0.000435784
0.000459395
0.000653732
0.000900789
0.00102745
0.00109486
0.00114868
0.00120147
0.00122181
0.00115272
0.000996823
0.000989313
0.00114619
0.00122658
0.00122326
0.00118226
0.0011305
0.0010623
0.000927831
0.000672324
0.000465914
0.000491708
0.000532626
0.000566111
0.000595852
0.000626692
0.000655803
0.000680898
0.00069895
0.00070593
0.000699667
0.000700296
0.000707964
0.000702178
0.000685518
0.000661801
0.000633851
0.000603684
0.000573824
0.000539765
0.000497984
0.000120756
0.000156846
0.000176178
0.000185178
0.000187078
0.000182561
0.000174139
0.000163957
0.00015485
0.000152613
0.000150984
0.000148588
0.000155765
0.000166606
0.000176761
0.000182621
0.000182404
0.000174475
0.00015515
0.000114283
0.000218736
0.000344177
0.000402359
0.000422929
0.00041892
0.000412043
0.000407428
0.000405759
0.000428178
0.000501367
0.00050964
0.000433607
0.000401375
0.000398572
0.000411432
0.000435646
0.000443801
0.000416961
0.000352754
0.000223898
0.000239802
0.000352856
0.000414839
0.000445603
0.000460768
0.000465447
0.000460947
0.000453596
0.000472331
0.000551105
0.000548795
0.000475819
0.0004534
0.000458814
0.000468517
0.000469374
0.000457278
0.000424198
0.000358465
0.000243866
0.000245327
0.000347771
0.000416274
0.000452343
0.000467521
0.000474088
0.000476835
0.000476414
0.000496142
0.000564073
0.000550391
0.000493549
0.000475903
0.000474508
0.000474576
0.000471754
0.00045762
0.000420664
0.000351657
0.000249939
0.000303413
0.000365349
0.000421028
0.000461651
0.000477152
0.000478338
0.000475283
0.000475671
0.000500794
0.000563998
0.000545174
0.000492884
0.000475151
0.000475896
0.00048055
0.000481042
0.000466789
0.000427371
0.000373207
0.000309334
0.000357222
0.000423239
0.000446237
0.000482163
0.000496585
0.000490541
0.000476778
0.000466563
0.0004825
0.000542382
0.000528175
0.000481274
0.000472184
0.000482511
0.000496155
0.000502618
0.0004898
0.000456456
0.000435544
0.000362871
0.000398932
0.00056329
0.000519976
0.000534706
0.000545322
0.000534706
0.000513431
0.000494728
0.000498836
0.00054901
0.000543624
0.000504864
0.000506308
0.000525091
0.000545333
0.000555193
0.000545385
0.000532727
0.000579776
0.000404525
0.000433373
0.000690665
0.000652672
0.000665055
0.00066067
0.000639662
0.000617397
0.000595462
0.000565506
0.000543495
0.000547239
0.000575839
0.000612239
0.00063871
0.000661919
0.000681177
0.00068401
0.000670298
0.000704358
0.000439162
0.000466884
0.0006702
0.000935002
0.00104529
0.00114868
0.00124194
0.00131899
0.00133164
0.00121021
0.000964047
0.000955597
0.00120207
0.00133403
0.00133796
0.00127508
0.00118446
0.00107817
0.000960682
0.00068728
0.00047304
0.000503133
0.000548525
0.000585665
0.00061991
0.000655803
0.000689712
0.00071951
0.000742015
0.000753465
0.000752081
0.00075353
0.000756235
0.000745866
0.000724509
0.000695879
0.000662844
0.000627392
0.00059295
0.000555308
0.000509179
0.000110573
0.000148606
0.000164777
0.000171708
0.000174607
0.000174139
0.000170782
0.000165574
0.000161137
0.000163733
0.000162651
0.000154861
0.000157205
0.000162092
0.000165956
0.000167095
0.000164761
0.000156464
0.000139625
0.000105113
0.000148583
0.000291028
0.000349739
0.000379182
0.000396052
0.000407428
0.000413489
0.000420325
0.000451491
0.000523555
0.000534686
0.000457549
0.000414182
0.000400017
0.00039199
0.000383567
0.000372422
0.000347486
0.000287364
0.000148717
0.000206009
0.000319029
0.000388465
0.000429252
0.00045188
0.000460947
0.000461749
0.000463038
0.000486708
0.000531993
0.000533494
0.000489883
0.000459169
0.000452889
0.000452959
0.000447868
0.000428307
0.00038664
0.000317114
0.000205863
0.000215299
0.000310021
0.000383098
0.000431087
0.000460226
0.000476835
0.000483611
0.000486374
0.000504915
0.000511609
0.000507271
0.000502212
0.000483025
0.000477865
0.000471304
0.00045622
0.000428621
0.000381163
0.000309587
0.000218399
0.000288676
0.000321043
0.00037397
0.000425661
0.000458259
0.000475283
0.000484168
0.00049343
0.00051555
0.000493638
0.000489126
0.000508938
0.000489815
0.000480558
0.000472555
0.000456687
0.00042518
0.000375016
0.000325038
0.00029391
0.000349751
0.0003719
0.000382568
0.000426839
0.000461269
0.000476778
0.000480906
0.000486156
0.000506821
0.000480359
0.000476172
0.000504417
0.000487578
0.00048224
0.000477944
0.000462981
0.000429919
0.000387722
0.000379592
0.000354987
0.000396005
0.000496234
0.000448827
0.000472404
0.00050238
0.000513431
0.000510015
0.000507005
0.000523858
0.000526006
0.000521072
0.000527275
0.000514399
0.000517206
0.000519772
0.000508331
0.000478916
0.000457038
0.000509645
0.000401268
0.000434206
0.000681849
0.000606463
0.00061721
0.000622273
0.000617397
0.000607833
0.000589354
0.000557627
0.000532086
0.000534293
0.000565704
0.000602081
0.000624677
0.000635807
0.000638748
0.000631448
0.000619628
0.000696828
0.000439695
0.000470997
0.000675975
0.000941806
0.00106904
0.00120147
0.00131899
0.00139581
0.00136674
0.00114726
0.000826281
0.000815608
0.00113378
0.00136355
0.00140534
0.00134157
0.0012292
0.00109362
0.000961949
0.000690001
0.00047676
0.000510987
0.000560729
0.000601858
0.000640632
0.000680898
0.00071951
0.000754375
0.000782667
0.000801922
0.000812948
0.000815518
0.000805614
0.000787291
0.000759796
0.000725724
0.000687756
0.00064766
0.000608642
0.000567164
0.000516844
9.88507e-05
0.000125685
0.000143068
0.000154071
0.000160382
0.000163957
0.000165574
0.000166245
0.000167953
0.000175773
0.000174697
0.000161837
0.000158106
0.000156868
0.000155074
0.000151537
0.000145289
0.000134947
0.000118989
9.44544e-05
0.000126612
0.000262052
0.000324725
0.000362335
0.000387621
0.000405759
0.000420325
0.000438589
0.000460597
0.000420249
0.000425599
0.00046554
0.000431744
0.000406726
0.000389368
0.000370261
0.000345086
0.000308831
0.00025069
0.000121155
0.00015943
0.000289019
0.000366594
0.000412412
0.000438871
0.000453596
0.000463038
0.000472809
0.000454784
0.000318018
0.000312628
0.000451529
0.000466175
0.000452547
0.000441982
0.000428296
0.000403526
0.00035831
0.000283191
0.00015577
0.00018265
0.000277199
0.00035958
0.000417904
0.000455299
0.000476414
0.000486374
0.00049046
0.000441694
0.000291594
0.000284506
0.000433933
0.000483302
0.000478453
0.000468581
0.000447567
0.00041017
0.000352176
0.000272857
0.000184881
0.000276111
0.000281633
0.000334832
0.00039835
0.000445533
0.000475671
0.00049343
0.00050075
0.000431231
0.000313708
0.000304949
0.000423554
0.000493927
0.000486169
0.000468368
0.000438882
0.000392786
0.000331811
0.000284121
0.000280912
0.000342113
0.00033287
0.000332063
0.000381717
0.000432579
0.000466563
0.000486156
0.000494322
0.000415687
0.000349588
0.000340035
0.000410131
0.000491059
0.00048233
0.000462294
0.000429019
0.000380217
0.000333532
0.000337721
0.000347124
0.000391275
0.000435157
0.000391857
0.000421832
0.000466431
0.000494728
0.000507005
0.000513343
0.000462439
0.000421916
0.000414172
0.000458137
0.000515024
0.000507968
0.000494425
0.00046577
0.000422059
0.000394697
0.00044437
0.000396316
0.000431783
0.000661628
0.000562407
0.000575875
0.000589286
0.000595462
0.000589354
0.000565779
0.000526166
0.000497847
0.000494505
0.000528285
0.00057275
0.000598536
0.000605506
0.0005975
0.000581217
0.000567844
0.000675569
0.000437054
0.00047084
0.000666658
0.000923454
0.00107597
0.00122181
0.00133164
0.00136674
0.00123435
0.000949407
0.000857836
0.000856697
0.000938257
0.00122546
0.00136588
0.00134081
0.00123571
0.00108751
0.000932935
0.000676605
0.000476348
0.000514415
0.000567437
0.000611848
0.000654696
0.00069895
0.000742015
0.000782667
0.000819607
0.000855349
0.000894907
0.000898976
0.000860595
0.000825447
0.000788884
0.00074863
0.000705848
0.000661546
0.000618436
0.000573795
0.000520278
9.53337e-05
0.000113222
0.000128504
0.000140141
0.000148215
0.00015485
0.000161137
0.000167953
0.000174986
0.000188406
0.000183292
0.000168882
0.000160814
0.000153861
0.000147717
0.000141288
0.000133547
0.000122812
0.000109905
9.27587e-05
0.000122143
0.000277891
0.000332826
0.000376152
0.000404409
0.000428178
0.000451491
0.000460597
0.00036444
0.000429474
0.000434019
0.000358573
0.000455007
0.000444883
0.000421527
0.000397924
0.000369916
0.000328303
0.000278486
0.000118927
0.00013254
0.000289466
0.000368054
0.000417903
0.000450134
0.000472331
0.000486708
0.000454784
0.000286464
0.000531466
0.000537647
0.000274712
0.000443912
0.000483553
0.000469929
0.000447526
0.000415026
0.000364739
0.000289214
0.000129681
0.000158412
0.0002737
0.000368027
0.000430315
0.000471296
0.000496142
0.000504915
0.000441694
0.000292725
0.000707489
0.000713019
0.000286454
0.000427826
0.000500255
0.000493009
0.000468184
0.000425111
0.000359092
0.000263633
0.000153877
0.000266243
0.000261651
0.000312168
0.000393237
0.000458859
0.000500794
0.00051555
0.000431231
0.000337741
0.000915144
0.000919444
0.000335275
0.000418038
0.00050801
0.000493117
0.00045057
0.000385873
0.000308419
0.000260855
0.000271191
0.000334651
0.000311841
0.000298689
0.000351687
0.00042621
0.0004825
0.000506821
0.000415687
0.000387202
0.00110474
0.00111309
0.000389949
0.000403945
0.00049936
0.000474907
0.000419933
0.000349202
0.000299333
0.000314961
0.000339633
0.000384687
0.000400401
0.000354257
0.000384993
0.000448372
0.000498836
0.000523858
0.000462439
0.000467537
0.00123304
0.00124933
0.000471222
0.000452207
0.000517508
0.000491215
0.000441126
0.00038069
0.000354742
0.000408051
0.000389681
0.000425522
0.000629435
0.000518234
0.000532092
0.000553644
0.000565506
0.000557627
0.000526166
0.000550275
0.00125969
0.00128055
0.000555364
0.000525214
0.000558574
0.000565982
0.000552697
0.000529957
0.000519339
0.000641429
0.000430745
0.000465136
0.000634572
0.000862625
0.00102428
0.00115272
0.00121021
0.00114726
0.000949407
0.000920355
0.00127103
0.001283
0.000930186
0.000940982
0.00114194
0.0012105
0.00115657
0.00102695
0.00086568
0.000641833
0.00047068
0.000512177
0.000566601
0.000612598
0.000658397
0.00070593
0.000753465
0.000801922
0.000855349
0.000921987
0.000999825
0.00100375
0.000929838
0.000863371
0.000809696
0.000761076
0.000713431
0.000665641
0.000619567
0.000573327
0.00051834
9.50247e-05
0.000111278
0.000122861
0.000134065
0.00014352
0.000152613
0.000163733
0.000175773
0.000188406
0.00019527
0.000188041
0.000178751
0.000170777
0.000159108
0.000148626
0.000139969
0.000130925
0.000120288
0.000109464
9.31377e-05
0.000124815
0.000327561
0.000384087
0.000431342
0.000471516
0.000501366
0.000523555
0.000420249
0.000429474
0.000291688
0.000278306
0.000426544
0.000410222
0.00052289
0.000506152
0.000478308
0.000438613
0.000391795
0.000331558
0.000122608
0.000140022
0.000356556
0.000422751
0.000478339
0.000526803
0.000551105
0.000531993
0.000318018
0.000531465
0.00042523
0.000411447
0.000554549
0.000303957
0.000530016
0.000560036
0.000537387
0.000487512
0.000431133
0.000365034
0.000137269
0.000157621
0.000352163
0.000426856
0.000486785
0.000542534
0.000564073
0.000511609
0.000291594
0.000707489
0.000571264
0.000554727
0.000748287
0.000282803
0.000502523
0.000566984
0.000547072
0.000490882
0.000429272
0.000349843
0.000151848
0.000260461
0.000272287
0.000336072
0.000449319
0.000529459
0.000563998
0.000493638
0.000313708
0.000915144
0.000735878
0.000714297
0.000969752
0.000311325
0.000479508
0.000559123
0.000525384
0.000445844
0.00033583
0.000273705
0.000265955
0.000328134
0.000310193
0.000300781
0.000365222
0.000478932
0.000542382
0.000480359
0.000349588
0.00110474
0.000914902
0.00088707
0.00117322
0.000353208
0.000464856
0.000534292
0.000472554
0.000364454
0.000302484
0.000313794
0.000333169
0.000376585
0.000387291
0.000346173
0.000379386
0.00047443
0.00054901
0.000526006
0.000421916
0.00123304
0.00109093
0.00105665
0.00130667
0.000423518
0.000510119
0.000537058
0.000463418
0.000373644
0.000346257
0.000394127
0.000381603
0.00041562
0.00060089
0.000485404
0.000493411
0.000523932
0.000543495
0.000532086
0.000497847
0.00125969
0.00123003
0.00118908
0.0013385
0.000498903
0.000524919
0.000536527
0.000516946
0.000488758
0.00048666
0.000611659
0.000420907
0.000453419
0.000584953
0.000766683
0.00091443
0.000996823
0.000964047
0.000826281
0.000857836
0.00127103
0.00131089
0.00127114
0.00132291
0.000870167
0.000818498
0.000956269
0.000996442
0.000916141
0.000771266
0.000591831
0.0004592
0.000502863
0.000556806
0.0006019
0.000649577
0.000699667
0.000752081
0.000812948
0.000894907
0.000999825
0.00106412
0.00105404
0.00101203
0.000906898
0.000823184
0.000761212
0.000708292
0.000657743
0.000609645
0.000564159
0.000509478
9.47521e-05
0.000110938
0.000121745
0.000132136
0.000141574
0.000150984
0.000162651
0.000174697
0.000183292
0.000188041
0.000183829
0.000176244
0.000168157
0.000157335
0.000147235
0.00013886
0.000130119
0.000120137
0.000109831
9.33867e-05
0.000124792
0.000321943
0.00038093
0.000430889
0.000476202
0.00050964
0.000534686
0.000425599
0.000434019
0.000278306
0.000261312
0.000409625
0.000406082
0.000518234
0.000499725
0.000470038
0.000427766
0.000379823
0.000325621
0.000123866
0.000139948
0.000341065
0.000408456
0.000466309
0.000519415
0.000548795
0.000533494
0.000312628
0.000537647
0.000411447
0.000388395
0.000545565
0.000297282
0.000518697
0.000540648
0.000513686
0.000462516
0.000405944
0.000339991
0.0001384
0.000159666
0.000316842
0.000401291
0.000464345
0.000522587
0.000550391
0.000507271
0.000284506
0.000713019
0.000554727
0.000526008
0.000748957
0.000276672
0.000491663
0.00054341
0.000517263
0.000461807
0.00040014
0.000309387
0.000161636
0.000264438
0.000269476
0.000325409
0.000423454
0.000503048
0.000545175
0.000489126
0.000304949
0.000919444
0.000714297
0.000679211
0.000982685
0.00030558
0.000470076
0.000536149
0.000494704
0.000415841
0.000320918
0.000269414
0.000271787
0.000330323
0.000312821
0.000302013
0.000361663
0.00046292
0.000528175
0.000476172
0.000340035
0.00111309
0.00088707
0.000844935
0.00119869
0.000349333
0.000454949
0.000516284
0.000450846
0.00035297
0.000300231
0.00031649
0.000336374
0.000377722
0.0003923
0.000349318
0.000382287
0.000471632
0.000543624
0.000521072
0.000414172
0.00124933
0.00105665
0.00100699
0.00134591
0.000425369
0.000505663
0.000533005
0.000459639
0.000374054
0.000348813
0.00039928
0.000383605
0.000416206
0.000605053
0.000487515
0.000497089
0.000527956
0.000547239
0.000534293
0.000494505
0.00128055
0.00118908
0.00113092
0.00138224
0.000502428
0.000526525
0.000540323
0.000521447
0.000492642
0.000489326
0.000616013
0.000422441
0.000453647
0.000584536
0.000761904
0.000906592
0.000989313
0.000955597
0.000815608
0.000856697
0.001283
0.00127114
0.00121497
0.00134807
0.00087651
0.000807228
0.000946181
0.00099102
0.000910863
0.000769897
0.000592471
0.000460631
0.000503196
0.000556711
0.000601512
0.000649541
0.000700296
0.00075353
0.000815518
0.000898976
0.00100375
0.00105404
0.00103384
0.00101723
0.000913375
0.000827992
0.000764689
0.000710921
0.000659652
0.000611196
0.000565888
0.000511404
9.43424e-05
0.000112268
0.00012481
0.000134371
0.000142074
0.000148588
0.000154861
0.000161837
0.000168882
0.000178751
0.000176244
0.000163163
0.000156879
0.000151189
0.000145911
0.000140222
0.000133086
0.000122998
0.000110748
9.31358e-05
0.000122453
0.000279716
0.000333389
0.000377551
0.000408365
0.000433607
0.000457549
0.00046554
0.000358573
0.000426544
0.000409625
0.000349251
0.00044832
0.000443425
0.000422206
0.000398972
0.000369954
0.000326259
0.000274746
0.000121286
0.00013311
0.000292019
0.000370502
0.000420106
0.000453053
0.000475819
0.000489883
0.000451529
0.000274712
0.000554549
0.000545565
0.000268633
0.000438258
0.000479518
0.000466061
0.000443814
0.000411394
0.000363163
0.000286319
0.000131387
0.000165838
0.000265456
0.000357456
0.000423409
0.000467738
0.000493549
0.000502212
0.000433933
0.000286454
0.000748287
0.000748957
0.000284913
0.000420609
0.000493388
0.0004848
0.00045927
0.000416078
0.000351015
0.000261036
0.000175034
0.000271567
0.000267444
0.00031735
0.000391157
0.000452011
0.000492884
0.000508938
0.000423554
0.000335275
0.000969752
0.000982685
0.000340846
0.000410119
0.000501346
0.000484978
0.000443552
0.000383018
0.000311763
0.000268803
0.000280048
0.000337663
0.000320251
0.000310639
0.000362614
0.000429993
0.000481274
0.000504417
0.000410131
0.000389949
0.00117322
0.00119869
0.000403264
0.000397033
0.000496993
0.000472503
0.000420354
0.000354901
0.000307941
0.000325218
0.000344372
0.00038609
0.000411356
0.000365141
0.000397411
0.000458022
0.000504864
0.000527275
0.000458137
0.000471222
0.00130667
0.00134591
0.000489815
0.000451284
0.000525216
0.000500378
0.000452072
0.000392992
0.000365682
0.000419834
0.000392441
0.000426137
0.000635289
0.000525247
0.00054175
0.000564619
0.000575839
0.000565704
0.000528285
0.000555364
0.0013385
0.00138224
0.000571982
0.000528753
0.000568711
0.000579563
0.000567685
0.000544036
0.000529454
0.000646042
0.000432783
0.000465399
0.000631817
0.000855064
0.00101709
0.00114619
0.00120207
0.00113378
0.000938257
0.000930186
0.00132291
0.00134807
0.000952458
0.000927334
0.00112304
0.0012102
0.00116312
0.00103324
0.000869722
0.000641974
0.000472759
0.000513128
0.000567421
0.000613411
0.000659741
0.000707964
0.000756235
0.000805614
0.000860596
0.000929838
0.00101203
0.00101723
0.000940083
0.000870841
0.000815492
0.00076635
0.000718316
0.000669971
0.000623328
0.000576769
0.000521498
9.70622e-05
0.000122418
0.000137685
0.00014691
0.00015269
0.000155765
0.000157205
0.000158106
0.000160814
0.000170777
0.000168157
0.000156879
0.000155146
0.000155433
0.000154961
0.000152364
0.000146596
0.000135941
0.000120448
9.5363e-05
0.000125537
0.000261619
0.000323999
0.000360379
0.000384548
0.000401375
0.000414182
0.000431744
0.000455007
0.000410222
0.000406083
0.00044832
0.000422812
0.000404151
0.000390756
0.000374303
0.000351331
0.000315887
0.000255098
0.00012494
0.000168086
0.000293314
0.000371229
0.000417631
0.000442265
0.0004534
0.000459169
0.000466175
0.000443912
0.000303957
0.000297282
0.000438258
0.00046112
0.000453029
0.000446213
0.000434607
0.000409654
0.000363818
0.000287943
0.000168958
0.0001914
0.000281347
0.000360846
0.000418382
0.000455713
0.000475903
0.000483025
0.000483302
0.000427826
0.000282803
0.000276672
0.000420609
0.00047907
0.000478705
0.000471122
0.000451158