/*--------------------------------*- C++ -*----------------------------------*\
  =========                 |
  \\      /  F ield         | OpenFOAM: The Open Source CFD Toolbox
   \\    /   O peration     | Website:  https://openfoam.org
    \\  /    A nd           | Version:  9
     \\/     M anipulation  |
\*---------------------------------------------------------------------------*/
FoamFile
{
    format      ascii;
    class       volScalarField;
    location    "0.9";
    object      alpha.water;
}
// * * * * * * * * * * * * * * * * * * * * * * * * * * * * * * * * * * * * * //

dimensions      [0 0 0 0 0 0 0];

internalField   nonuniform List<scalar> 
2268
(
2.05564e-06
2.05564e-06
2.05505e-06
1.10037e-06
1.13948e-08
1.5292e-11
1.03147e-12
2.1867e-12
7.60552e-13
7.50651e-14
6.25741e-15
7.09996e-16
9.77513e-17
1.50372e-17
2.53702e-18
4.66082e-19
9.19506e-20
1.91583e-20
3.83029e-21
6.48284e-22
7.56738e-23
5.39035e-24
1.40459e-24
5.03116e-07
4.73083e-07
1.87343e-07
-1.31415e-15
1.45077e-15
6.06793e-13
4.88254e-13
8.69498e-14
4.95968e-15
3.49894e-16
3.26415e-17
3.52907e-18
4.25687e-19
5.71626e-20
8.51637e-21
1.38205e-21
2.40125e-22
2.18059e-23
1.53496e-22
1.2283e-22
4.37229e-23
5.37625e-24
1.22033e-24
-2.74627e-12
-1.05003e-12
-2.72349e-13
-6.00659e-14
4.439e-16
5.46093e-13
2.90985e-13
3.41875e-14
9.0636e-16
3.29626e-17
2.40336e-18
1.94338e-19
1.36136e-20
4.89148e-22
-3.34675e-24
7.35632e-41
5.22442e-40
-9.4672e-24
-5.20019e-24
2.12034e-26
1.89055e-24
1.05017e-24
8.66133e-25
-6.48949e-12
-2.77504e-12
-7.21779e-13
-1.65573e-13
-3.47614e-14
-6.73771e-15
-1.24419e-15
-2.25396e-16
-4.08238e-17
-7.47663e-18
-1.397e-18
-2.68896e-19
-5.39205e-20
-1.13958e-20
-2.54185e-21
-5.75222e-22
-1.21328e-22
-2.41941e-23
-5.28974e-24
-1.20953e-24
-2.18033e-26
0
5.79951e-25
-1.28919e-11
-5.82664e-12
-1.46172e-12
-3.38918e-13
-7.55212e-14
-1.57767e-14
-3.05167e-15
-5.50131e-16
-9.40097e-17
-1.55444e-17
-2.53824e-18
-4.16972e-19
-7.00182e-20
-1.21111e-20
-2.01334e-21
-6.21585e-23
4.50438e-23
8.89012e-23
5.22291e-23
1.02789e-23
9.92475e-26
4.54479e-26
5.33186e-25
-2.23432e-11
-9.58329e-12
-2.06002e-12
-3.94038e-13
-6.92861e-14
-1.1148e-14
-1.65071e-15
-2.28405e-16
-3.01322e-17
-3.8731e-18
-4.95502e-19
-6.43464e-20
-8.55248e-21
-7.27314e-22
0
1.07137e-21
2.76151e-21
2.0899e-21
8.14746e-22
1.11181e-22
2.11809e-24
9.08958e-26
5.33937e-25
-3.39743e-11
-1.306e-11
-2.02547e-12
-2.7773e-13
-3.5442e-14
-4.19888e-15
-4.63497e-16
-4.82996e-17
-4.84511e-18
-4.79029e-19
-4.78732e-20
-4.87725e-21
-2.77837e-23
0
2.65782e-21
1.45127e-20
1.88658e-20
1.52987e-20
5.26615e-21
5.28174e-22
5.86377e-24
3.94194e-25
5.50434e-25
-4.55003e-11
-1.64266e-11
-1.73157e-12
-1.62685e-13
-1.45192e-14
-1.22395e-15
-9.73782e-17
-7.40128e-18
-5.51209e-19
-4.1759e-20
-3.28344e-21
-7.12371e-24
-2.48254e-37
1.77416e-21
1.23954e-20
3.46878e-20
3.6889e-20
7.5443e-20
2.69169e-20
1.91902e-21
1.26284e-23
7.24773e-25
6.00086e-25
7.96506e-18
6.88726e-18
2.25441e-15
3.24376e-13
6.22452e-12
4.15624e-11
1.96347e-10
1.65176e-09
8.04319e-09
9.99856e-09
2.10477e-08
1.17199e-07
4.62124e-07
1.27763e-06
1.62926e-06
1.02927e-06
1.31413e-07
7.00692e-08
7.0501e-08
3.93491e-16
1.80192e-15
4.1904e-13
9.25873e-12
5.36857e-11
1.42262e-10
2.30627e-10
5.0882e-10
1.00324e-08
3.29393e-08
1.3607e-07
4.67251e-07
1.1107e-06
2.06902e-06
6.00777e-06
5.46819e-06
3.93967e-07
8.51566e-08
6.99483e-08
4.49142e-15
7.76939e-14
3.97297e-12
4.19377e-11
1.50042e-10
2.77178e-10
4.64513e-10
2.97187e-09
2.80308e-08
2.2029e-07
2.0202e-06
7.3441e-06
2.12825e-05
9.40549e-05
0.000132076
1.42942e-05
8.97346e-07
1.16902e-07
9.17487e-08
2.28687e-14
7.93108e-13
1.71634e-11
7.39176e-11
1.19061e-10
3.33576e-10
2.20128e-09
2.34253e-08
2.28626e-07
1.50249e-06
9.59829e-05
0.00033824
0.000470089
0.000984324
0.00125268
0.000622632
1.93491e-05
6.35311e-07
1.86874e-07
9.71551e-14
3.34214e-12
2.30963e-11
4.74598e-11
1.75246e-10
1.42861e-09
1.44821e-08
1.55365e-07
1.5347e-06
0.000152019
0.000450103
0.000679915
0.000734014
0.000919254
0.00128342
0.00125268
0.000306387
2.28548e-06
8.8064e-07
2.71165e-13
2.76192e-12
1.11637e-11
7.47369e-11
6.76704e-10
7.7911e-09
9.41212e-08
8.51444e-07
7.26865e-05
0.000422975
0.000449731
1.9012e-06
4.72799e-07
3.43782e-07
0.000545314
0.000304484
5.79356e-05
3.80351e-06
2.69531e-06
5.38185e-13
2.24608e-12
2.41637e-11
2.52879e-10
3.09752e-09
3.47426e-08
4.89827e-07
3.6647e-05
0.000324759
0.000426681
0.00018545
6.32244e-07
3.43782e-07
3.07923e-07
3.06294e-07
0.00252154
0.000440552
5.50382e-06
4.04461e-06
1.53962e-12
6.5367e-12
8.23629e-11
9.7679e-10
1.2143e-08
1.29644e-07
3.21694e-06
0.00016211
0.000328088
0.000239655
8.39385e-07
3.76188e-07
3.1827e-07
3.0598e-07
3.07923e-07
0.00326137
0.00206727
2.22582e-05
5.71709e-06
-5.48432e-11
-1.87838e-11
-1.15532e-12
-6.35462e-14
-3.25974e-15
-1.55283e-16
-6.97377e-18
-3.15387e-19
-1.7169e-20
-1.25653e-21
0
4.83209e-22
1.08198e-20
1.30206e-19
9.47656e-19
3.40931e-18
3.62404e-18
1.97618e-18
2.34018e-19
3.22921e-21
1.28545e-23
9.61762e-25
7.24773e-25
-6.93458e-11
-2.07918e-11
-3.77294e-13
-7.42202e-15
-1.06015e-16
-1.23765e-18
-3.30092e-20
-4.21666e-21
-3.59682e-22
3.17586e-23
2.65631e-21
5.32736e-20
7.31573e-19
7.05614e-18
4.01964e-17
1.05589e-16
1.1559e-16
4.74257e-17
1.1365e-17
7.05466e-18
2.21342e-18
2.00413e-18
4.76195e-15
-7.85002e-11
-2.07968e-11
-8.03509e-14
-1.16714e-15
1.15065e-17
-4.73778e-21
-5.44694e-21
-6.08995e-22
8.39184e-23
5.70226e-21
1.1006e-19
1.62645e-18
1.84209e-17
1.45231e-16
6.84852e-16
1.70558e-15
2.31173e-15
2.15264e-15
1.73781e-15
1.37194e-15
1.31615e-15
1.73775e-14
6.63501e-13
-8.32379e-11
-1.97626e-11
-5.45415e-14
-4.62606e-16
2.13616e-17
-1.09655e-21
-1.23498e-21
7.47736e-23
6.28138e-21
1.24779e-19
1.84896e-18
2.19081e-17
1.99057e-16
1.28025e-15
5.3342e-15
1.39113e-14
2.39819e-14
3.10031e-14
3.53886e-14
4.54471e-14
1.10907e-13
8.2313e-13
7.33423e-12
-8.499e-11
-1.82125e-11
-3.90104e-14
-1.77289e-16
1.78147e-17
3.71776e-21
6.15349e-23
4.05767e-21
8.92845e-20
1.30949e-18
1.56505e-17
1.49963e-16
1.11389e-15
6.09958e-15
2.35875e-14
6.40155e-14
1.27441e-13
2.04845e-13
3.09051e-13
5.50936e-13
1.53997e-12
6.9076e-12
3.12494e-11
-8.47621e-11
-1.65544e-11
-2.91354e-14
-5.95705e-17
1.3881e-17
3.00822e-21
1.35819e-21
4.35201e-20
6.48039e-19
7.85511e-18
7.77981e-17
6.21753e-16
3.92484e-15
1.90875e-14
7.03567e-14
1.97014e-13
4.34729e-13
8.17649e-13
1.4771e-12
3.02016e-12
7.97622e-12
2.58497e-11
7.95006e-11
-8.3341e-11
-1.49957e-11
-2.25976e-14
-1.31046e-17
1.05736e-17
3.4814e-21
1.18864e-20
2.38741e-19
3.00437e-18
3.1115e-17
2.63862e-16
1.82136e-15
1.01357e-14
4.50911e-14
1.60186e-13
4.59643e-13
1.09546e-12
2.28722e-12
4.55714e-12
9.65473e-12
2.32397e-11
6.04853e-11
1.45958e-10
-8.12509e-11
-1.36177e-11
-1.81367e-14
1.54934e-18
7.68632e-18
4.96187e-21
6.01125e-20
8.87774e-19
9.90815e-18
9.0614e-17
6.80131e-16
4.19068e-15
2.11997e-14
8.83529e-14
3.06034e-13
8.932e-13
2.24146e-12
5.00075e-12
1.0462e-11
2.19061e-11
4.75413e-11
1.03279e-10
2.04274e-10
-7.88603e-11
-1.24469e-11
-1.50401e-14
4.82637e-18
3.83186e-18
1.20251e-20
1.95399e-19
2.55063e-18
2.57829e-17
2.13511e-16
1.45627e-15
8.22654e-15
3.87439e-14
1.53674e-13
5.20666e-13
1.53041e-12
3.95972e-12
9.17377e-12
1.95394e-11
3.95583e-11
7.74372e-11
1.43627e-10
2.39618e-10
-7.64006e-11
-1.1495e-11
-1.2832e-14
7.2722e-18
9.39056e-19
3.51879e-20
5.00644e-19
6.08581e-18
5.6797e-17
4.34563e-16
2.74916e-15
1.45172e-14
6.46695e-14
2.46402e-13
8.16625e-13
2.39195e-12
6.25596e-12
1.4688e-11
3.11878e-11
6.06914e-11
1.09239e-10
1.80881e-10
2.7053e-10
-7.40821e-11
-1.07045e-11
-1.11937e-14
8.1036e-18
1.68548e-19
9.35655e-20
1.0891e-18
1.26207e-17
1.10454e-16
7.93702e-16
4.73372e-15
2.37167e-14
1.01105e-13
3.72413e-13
1.206e-12
3.48589e-12
9.06004e-12
2.11501e-11
4.42219e-11
8.30695e-11
1.41281e-10
2.19303e-10
3.12099e-10
-7.18732e-11
-1.00399e-11
-9.97183e-15
9.0575e-18
1.72516e-19
1.45947e-19
2.12585e-18
2.34328e-17
1.94797e-16
1.33195e-15
7.58452e-15
3.64605e-14
1.50049e-13
5.37044e-13
1.69963e-12
4.81935e-12
1.23054e-11
2.81963e-11
5.76466e-11
1.05116e-10
1.72191e-10
2.5684e-10
3.5371e-10
-6.97665e-11
-9.48e-12
-9.06829e-15
1.04356e-17
1.72516e-19
2.14732e-19
3.90506e-18
3.96891e-17
3.17082e-16
2.0844e-15
1.14417e-14
5.32081e-14
2.12709e-13
7.4268e-13
2.29983e-12
6.38317e-12
1.59161e-11
3.55057e-11
7.05651e-11
1.2516e-10
1.99867e-10
2.9153e-10
3.94344e-10
-6.77625e-11
-9.00761e-12
-8.41985e-15
1.25047e-17
1.82026e-19
3.99789e-19
6.43589e-18
6.2293e-17
4.82326e-16
3.0741e-15
1.63923e-14
7.42228e-14
2.89677e-13
9.8993e-13
3.00382e-12
8.15706e-12
1.98226e-11
4.29324e-11
8.27822e-11
1.42968e-10
2.2367e-10
3.20937e-10
4.26208e-10
-6.58579e-11
-8.60919e-12
-7.98647e-15
1.55729e-17
2.11277e-19
7.59855e-19
9.70963e-18
9.16165e-17
6.92718e-16
4.31498e-15
2.25227e-14
9.99747e-14
3.83056e-13
1.28604e-12
3.82921e-12
1.01659e-11
2.40279e-11
5.0397e-11
9.39107e-11
1.56675e-10
2.36755e-10
3.28187e-10
4.22167e-10
-6.40487e-11
-8.27448e-12
-7.74395e-15
2.00669e-17
3.71571e-19
1.25533e-18
1.37059e-17
1.27462e-16
9.48952e-16
5.82807e-15
3.00299e-14
1.31632e-13
4.9776e-13
1.64617e-12
4.80988e-12
1.24613e-11
2.85763e-11
5.79119e-11
1.04092e-10
1.67575e-10
2.44734e-10
3.2813e-10
4.07209e-10
-6.23314e-11
-7.996e-12
-7.67934e-15
2.6667e-17
9.20256e-19
1.93471e-18
1.83408e-17
1.69169e-16
1.25085e-15
7.63359e-15
3.90683e-14
1.69915e-13
6.37086e-13
2.08863e-12
6.04242e-12
1.5446e-11
3.47617e-11
6.87411e-11
1.19952e-10
1.86647e-10
2.6271e-10
3.40319e-10
4.1376e-10
-6.07038e-11
-7.76862e-12
-7.78763e-15
3.66642e-17
2.32468e-18
3.17839e-18
2.35183e-17
2.15236e-16
1.59132e-15
9.69099e-15
4.94013e-14
2.14239e-13
8.05726e-13
2.67168e-12
7.85174e-12
2.02854e-11
4.54389e-11
8.75068e-11
1.45561e-10
2.13573e-10
2.85626e-10
3.56992e-10
4.23296e-10
-5.91649e-11
-7.58921e-12
-8.06922e-15
5.27845e-17
5.74831e-18
5.90369e-18
2.93818e-17
2.6309e-16
1.9477e-15
1.18414e-14
6.02532e-14
2.62565e-13
1.00473e-12
3.41351e-12
1.01476e-11
2.55842e-11
5.35232e-11
9.43853e-11
1.47135e-10
2.09842e-10
2.762e-10
3.33282e-10
3.61803e-10
-5.77148e-11
-7.45642e-12
-8.52692e-15
8.091e-17
1.39661e-17
1.24549e-17
3.69566e-17
3.14805e-16
2.34394e-15
1.39156e-14
6.87474e-14
2.98148e-13
1.15572e-12
3.93005e-12
1.12785e-11
2.65949e-11
5.20912e-11
8.76059e-11
1.29541e-10
1.70841e-10
2.02265e-10
2.20448e-10
2.3308e-10
-5.6354e-11
-7.37052e-12
-9.16155e-15
1.33615e-16
3.37837e-17
2.81597e-17
4.90547e-17
3.33451e-16
2.34565e-15
1.38136e-14
7.09259e-14
3.27494e-13
1.35117e-12
4.73186e-12
1.29729e-11
2.78537e-11
4.93844e-11
7.50888e-11
1.00542e-10
1.23949e-10
1.48931e-10
1.82005e-10
2.22829e-10
-5.50834e-11
-7.33334e-12
-9.96405e-15
2.37328e-16
8.245e-17
6.49311e-17
7.52993e-17
3.40872e-16
2.2298e-15
1.29805e-14
6.77194e-14
3.27605e-13
1.4078e-12
4.78305e-12
1.25996e-11
2.62589e-11
4.5025e-11
6.75039e-11
9.38444e-11
1.24783e-10
1.59121e-10
1.92164e-10
2.13513e-10
-5.39033e-11
-7.34839e-12
-1.09014e-14
4.45674e-16
2.04049e-16
1.54136e-16
1.48441e-16
3.86293e-16
2.1906e-15
1.21312e-14
6.17888e-14
3.00431e-13
1.26852e-12
4.21564e-12
1.07252e-11
2.1632e-11
3.65799e-11
5.52289e-11
7.82825e-11
1.05519e-10
1.34948e-10
1.60893e-10
1.72244e-10
-5.28137e-11
-7.42114e-12
-1.1891e-14
8.62658e-16
5.07724e-16
3.87668e-16
3.65614e-16
6.43666e-16
3.02278e-15
1.50619e-14
6.78026e-14
2.84788e-13
1.02604e-12
2.99268e-12
6.96786e-12
1.3187e-11
2.13691e-11
3.10537e-11
4.16509e-11
5.33787e-11
6.74309e-11
8.29361e-11
9.69071e-11
-5.18137e-11
-7.55949e-12
-1.27576e-14
1.68022e-15
1.253e-15
1.01911e-15
9.97686e-16
1.74009e-15
7.94487e-15
3.54326e-14
1.26689e-13
4.01086e-13
1.15689e-12
2.89823e-12
6.01642e-12
1.05845e-11
1.61613e-11
2.19916e-11
2.79803e-11
3.56897e-11
4.79964e-11
6.4948e-11
8.39111e-11
-5.09019e-11
-7.77457e-12
-1.31847e-14
3.26397e-15
3.01433e-15
2.67893e-15
2.7826e-15
5.36615e-15
2.50639e-14
1.12151e-13
3.7803e-13
1.03423e-12
2.43688e-12
5.14135e-12
1.00292e-11
1.83462e-11
3.11676e-11
4.77238e-11
6.92995e-11
1.00297e-10
1.53025e-10
2.00927e-10
2.39969e-10
-5.00772e-11
-8.08199e-12
-1.27512e-14
6.33369e-15
6.9625e-15
6.86897e-15
7.72207e-15
1.54472e-14
6.71697e-14
3.00455e-13
1.02853e-12
2.81039e-12
6.49276e-12
1.33462e-11
2.56443e-11
4.77553e-11
8.80093e-11
1.66155e-10
2.64471e-10
3.12116e-10
3.46697e-10
3.9467e-10
4.39632e-10
-4.93409e-11
-8.50355e-12
-1.12387e-14
1.2063e-14
1.55098e-14
1.71914e-14
2.09989e-14
4.05681e-14
1.4767e-13
6.10547e-13
2.05993e-12
5.61911e-12
1.306e-11
2.71445e-11
5.23655e-11
9.72688e-11
1.84209e-10
3.2516e-10
4.17941e-10
4.37029e-10
4.77263e-10
5.59618e-10
6.25834e-10
-4.86316e-11
-9.09685e-12
-4.23304e-14
2.26806e-14
3.34594e-14
4.15671e-14
5.5261e-14
1.00415e-13
2.89836e-13
1.02018e-12
3.23958e-12
8.58817e-12
1.96237e-11
4.0154e-11
7.52103e-11
1.29671e-10
2.1189e-10
3.17034e-10
3.83264e-10
4.23635e-10
5.46874e-10
7.89997e-10
9.84975e-10
-4.76352e-11
-1.01083e-11
-2.72728e-13
3.48598e-14
6.97619e-14
9.66323e-14
1.40195e-13
2.45566e-13
5.70151e-13
1.62069e-12
4.64695e-12
1.19087e-11
2.69876e-11
5.51018e-11
1.02533e-10
1.71367e-10
2.59287e-10
3.66876e-10
4.56675e-10
5.28587e-10
6.88889e-10
1.16435e-09
1.80825e-09
-4.63443e-11
-1.14656e-11
-7.61513e-13
2.25775e-14
1.43094e-13
2.16848e-13
3.38179e-13
5.87333e-13
1.17249e-12
2.70903e-12
6.79208e-12
1.67586e-11
3.87123e-11
8.1965e-11
1.55237e-10
2.53356e-10
3.51645e-10
4.2815e-10
4.92321e-10
6.09585e-10
1.01629e-09
2.19328e-09
3.57563e-09
-4.47303e-11
-1.30944e-11
-1.57876e-12
-7.59128e-14
2.38104e-13
4.48922e-13
7.45252e-13
1.31227e-12
2.47977e-12
5.12232e-12
1.15482e-11
2.70589e-11
6.10518e-11
1.21291e-10
2.05286e-10
2.96292e-10
3.70127e-10
4.11855e-10
4.19026e-10
4.1672e-10
4.3739e-10
6.6025e-10
1.60547e-09
-4.27572e-11
-1.48807e-11
-2.7866e-12
-3.30703e-13
3.38105e-13
8.51037e-13
1.55747e-12
3.00233e-12
6.1143e-12
1.24391e-11
2.42537e-11
4.38948e-11
7.33618e-11
1.16351e-10
1.74653e-10
2.25788e-10
2.33438e-10
2.29057e-10
2.16062e-10
2.11819e-10
2.11819e-10
2.11819e-10
3.05884e-10
-4.03751e-11
-1.66743e-11
-4.44706e-12
-9.0317e-13
3.41506e-13
1.97492e-12
4.12511e-12
7.20571e-12
1.09887e-11
1.68916e-11
2.66256e-11
4.11181e-11
6.20275e-11
8.83089e-11
1.0034e-10
1.00209e-10
1.61637e-10
2.80133e-10
2.68408e-10
2.28565e-10
2.1449e-10
6.65668e-10
6.58414e-09
-7.0407e-11
-3.38066e-11
-1.55668e-11
-8.1039e-12
-4.63474e-12
-2.30831e-12
-5.75737e-14
2.64529e-13
2.68704e-13
6.2504e-13
1.08478e-12
1.73168e-12
2.49534e-12
3.96605e-12
4.31698e-12
5.33944e-11
2.09143e-08
1.45118e-08
2.66025e-10
2.2977e-10
2.26423e-10
7.53095e-07
1.1391e-06
-4.38931e-10
-2.34185e-10
-1.57436e-10
-1.23234e-10
-1.10308e-10
-1.11136e-10
0
2.32123e-13
2.87133e-08
1.01084e-07
1.28183e-12
4.18268e-11
3.05094e-12
4.30941e-12
1.21305e-08
1.05443e-09
1.40808e-08
1.55192e-08
4.69545e-06
6.38273e-05
8.61766e-05
1.92662e-05
9.44e-07
-2.26007e-09
-1.27785e-09
-9.48872e-10
-8.10749e-10
-7.60926e-10
0
8.81373e-09
2.26835e-07
1.2962e-06
6.46743e-06
1.90523e-05
2.80053e-05
2.04629e-05
9.74981e-07
2.40747e-06
1.21003e-05
3.90322e-05
0.000472991
0.000911143
0.000485149
2.32142e-05
5.24209e-06
1.96645e-06
2.77062e-05
3.48678e-06
-5.86732e-11
-3.73667e-09
-5.64331e-12
1.57867e-07
7.07604e-07
0.000397601
0.000510106
0.000410061
8.61236e-05
5.06003e-06
2.05732e-06
9.40374e-07
1.85447e-06
0.00122688
0.00513311
0.00455249
0.000873409
4.41542e-05
9.30117e-06
2.5135e-06
9.85463e-07
0.00044059
4.18606e-05
1.43721e-07
1.27346e-06
0.000121016
0.000440996
0.000137084
0.000914829
0.00163953
0.00142901
0.00104642
0.000545445
5.06321e-06
2.05787e-06
1.80716e-06
0.00154504
0.012834
0.0090718
0.000684627
3.99555e-05
8.2466e-06
2.20849e-06
9.18892e-07
0.000487302
0.000819817
0.000697827
0.00132399
0.00176942
0.00177033
0.000486148
0.000498874
0.0115768
0.00245658
0.00303428
0.00329061
0.00880459
0.0148538
0.0157248
0.0103508
0.0144497
0.079209
0.0611834
0.035146
0.0225399
0.0133902
0.0229149
0.000484227
0.00173967
0.00174099
0.00175607
0.00176942
0.000816885
0.000471779
0.000494506
0.0557848
0.128416
0.128714
0.128619
0.129584
0.130271
0.129816
0.0711133
0.00241618
0.085539
0.396225
0.460057
0.460057
0.438227
0.471214
0.000199055
0.000239657
0.000234544
0.000232872
0.000292886
0.000223096
0.000413881
0.00122744
0.00072758
0.00466312
0.00519334
0.00642976
0.00590004
0.00732794
0.00586998
0.00266121
0.0021953
0.00477125
0.0135378
0.0265203
0.021401
0.022999
0.0204753
2.41731e-17
8.67203e-14
1.56672e-12
1.87296e-12
1.85265e-13
2.4503e-12
6.34033e-12
7.28184e-12
4.55595e-12
1.68362e-11
3.05391e-11
4.05788e-11
2.62466e-11
5.75011e-11
8.22468e-11
9.93902e-11
7.6704e-11
1.27697e-10
1.62527e-10
1.84887e-10
1.55132e-10
2.24627e-10
2.70989e-10
2.99837e-10
2.45208e-10
3.21063e-10
3.64588e-10
3.7486e-10
3.00508e-10
3.60485e-10
3.93375e-10
4.05571e-10
3.1577e-10
3.58771e-10
3.84007e-10
3.94305e-10
3.36153e-10
3.73036e-10
3.95317e-10
4.01507e-10
3.82062e-10
4.25936e-10
4.57368e-10
4.69006e-10
4.25626e-10
4.69436e-10
5.06403e-10
5.37328e-10
4.70495e-10
5.20322e-10
5.69805e-10
6.13735e-10
4.9991e-10
5.44048e-10
5.78305e-10
5.95918e-10
4.84326e-10
5.10483e-10
5.22753e-10
5.26267e-10
4.53569e-10
4.75668e-10
4.97226e-10
5.22239e-10
4.61416e-10
4.90555e-10
5.17997e-10
5.39465e-10
4.63515e-10
4.75659e-10
4.75316e-10
4.53489e-10
3.62263e-10
3.45662e-10
3.20915e-10
2.92683e-10
2.4029e-10
2.41532e-10
2.40856e-10
2.36357e-10
2.42391e-10
2.42391e-10
2.40079e-10
2.29304e-10
2.17848e-10
2.12554e-10
1.98878e-10
1.96577e-10
1.68969e-10
1.59483e-10
1.55863e-10
1.62142e-10
1.06621e-10
1.14363e-10
1.2347e-10
1.36271e-10
1.03023e-10
1.25435e-10
1.62819e-10
1.93922e-10
2.6863e-10
2.91535e-10
3.18878e-10
3.02941e-10
4.59173e-10
4.54365e-10
4.14389e-10
3.16231e-10
6.47952e-10
6.31659e-10
4.87845e-10
3.27689e-10
1.0855e-09
1.10657e-09
8.92007e-10
3.85095e-10
2.16025e-09
2.38903e-09
2.37102e-09
1.84026e-09
3.731e-09
3.74631e-09
3.74631e-09
3.74631e-09
2.73737e-09
3.23172e-09
3.63866e-09
3.45675e-09
5.03523e-10
7.23988e-10
9.57832e-10
8.84111e-10
7.52486e-09
3.82113e-09
2.31602e-09
1.10141e-09
7.52225e-07
9.32747e-08
2.7921e-09
1.54374e-09
4.86457e-07
1.77206e-07
4.71852e-08
7.53111e-09
6.98813e-07
2.49632e-07
6.53291e-08
1.76738e-08
3.79337e-07
1.29996e-07
5.64006e-08
2.4866e-08
3.88996e-07
1.66334e-07
6.83909e-08
3.19175e-08
0.0311133
0.0347432
0.04182
0.0649859
0.471214
0.466641
0.458533
0.462377
0.022286
0.0271746
0.0249061
0.0215641
7.08024e-12
4.62425e-11
4.47637e-10
4.89744e-09
5.17813e-08
1.66109e-06
6.00274e-05
0.000240812
0.000242426
3.62068e-06
1.83754e-06
4.30888e-07
3.33114e-07
3.11928e-07
3.32311e-07
0.00329445
0.000606535
1.30033e-05
1.10184e-05
4.75512e-11
2.21333e-10
2.13487e-09
2.09763e-08
2.0972e-07
2.04618e-05
0.000159547
0.00018565
6.65763e-06
4.12003e-06
3.82124e-06
1.32618e-06
5.76234e-07
3.22374e-07
3.18053e-07
0.000734395
0.00216265
0.000171416
1.34254e-05
1.26732e-10
4.36332e-10
3.47404e-09
3.05468e-08
2.79584e-07
3.80267e-05
0.000154772
6.78567e-05
8.51647e-06
8.27254e-06
2.43627e-05
3.76041e-06
1.45886e-06
3.72949e-07
3.22344e-07
3.75231e-07
0.018635
2.30357e-05
1.73588e-05
2.24932e-10
6.21013e-10
4.50757e-09
3.92751e-08
4.14696e-07
4.08052e-05
9.50418e-05
4.22025e-07
7.91977e-06
8.39447e-05
0.00071303
0.000140919
1.34081e-06
4.54508e-07
8.0328e-07
1.52824e-05
0.0197639
0.00565064
2.19281e-05
3.5554e-10
8.83213e-10
5.78781e-09
5.5498e-08
6.74004e-06
4.2413e-05
3.06145e-05
2.3072e-07
7.99452e-06
0.00033027
0.00124471
0.0010422
7.23131e-07
4.9319e-07
1.14212e-06
4.84391e-06
0.016427
0.0511831
2.99156e-05
5.35355e-10
1.30251e-09
8.71362e-09
8.23809e-08
1.29011e-05
4.2413e-05
8.92586e-06
1.86579e-07
1.65172e-06
0.000670999
0.00124519
0.00124554
0.000219906
7.18811e-07
1.01822e-06
5.44503e-06
0.00459145
0.0533263
0.192014
5.84444e-10
1.62776e-09
1.09836e-08
1.91913e-07
1.21853e-05
1.92479e-05
7.42416e-09
7.34277e-09
7.42415e-09
0.00117211
0.00124567
0.00124534
0.000956821
3.02483e-06
5.02001e-07
4.84953e-06
5.60728e-06
0.0265323
0.601001
5.60954e-10
1.6241e-09
1.14536e-08
1.11945e-06
4.31469e-06
9.07973e-09
7.34248e-09
7.34276e-09
7.34273e-09
0.00106657
0.00124345
0.00124564
0.00124284
2.81371e-05
4.16669e-07
4.39851e-07
-4.36572e-07
0.00620811
0.646424
4.72256e-10
1.60297e-09
6.22271e-08
7.60173e-07
2.21824e-07
2.20864e-08
2.27589e-08
7.34263e-09
7.47399e-09
0.000166003
0.00123781
0.00124331
0.000410604
5.52098e-06
1.95168e-07
1.35862e-07
-8.1517e-08
0.00108002
0.652699
4.88721e-10
1.52526e-09
5.74087e-08
1.11127e-07
1.51289e-08
3.16758e-08
3.16783e-08
7.6688e-09
5.98395e-09
8.67662e-07
0.000981603
0.00120354
0.000103637
4.17054e-07
1.37809e-07
1.29791e-07
1.32423e-07
0.00117842
0.653996
5.75499e-10
2.30258e-09
1.17267e-08
5.9849e-09
1.44107e-08
1.55203e-08
1.46051e-08
6.26796e-09
-3.83872e-09
1.35863e-05
0.000156642
0.000119424
2.75492e-05
2.21877e-07
1.28952e-07
1.26065e-07
1.2953e-07
0.000969765
0.653835
6.20158e-10
8.20864e-10
1.84031e-09
5.7303e-09
1.35141e-08
2.71496e-09
2.71763e-09
2.71763e-09
3.95921e-05
0.000190214
9.06791e-06
5.65394e-07
1.84295e-07
1.51658e-07
1.26064e-07
1.25851e-07
1.25851e-07
0.00033784
0.648843
6.63581e-10
6.93166e-10
7.17195e-10
3.39633e-09
3.33267e-09
2.81647e-09
2.71489e-09
2.76662e-09
0.000125569
0.000195866
0.000138547
5.97355e-06
2.17009e-07
1.32435e-07
1.26156e-07
1.26071e-07
1.2594e-07
0.00380887
0.438496
6.00386e-10
6.02843e-10
7.85242e-10
1.73209e-09
1.89285e-09
2.83952e-09
2.76671e-09
3.04821e-09
5.9242e-05
0.000195866
0.000183189
2.31168e-05
2.47518e-07
1.35174e-07
1.26328e-07
1.26159e-07
1.01708e-06
0.00618767
0.412916
5.47894e-10
6.2921e-10
8.25766e-10
9.13132e-10
2.04356e-09
3.38652e-09
3.04326e-09
1.12428e-06
5.87671e-07
4.92913e-05
2.24712e-05
1.59073e-06
1.71048e-07
1.34689e-07
1.26651e-07
1.26342e-07
9.85993e-06
0.00337241
0.595249
5.82254e-10
6.81832e-10
6.86165e-10
1.0599e-09
1.20566e-07
2.47234e-08
9.36751e-09
3.47036e-06
5.36089e-07
8.20805e-08
1.28291e-07
1.52434e-07
4.01058e-07
4.24896e-07
1.31135e-07
1.26651e-07
3.50984e-06
5.75879e-06
0.743646
5.76195e-10
7.36791e-10
4.12006e-09
5.1774e-08
2.50067e-07
1.79993e-07
1.61354e-08
3.49287e-06
1.42328e-06
2.49767e-08
8.2092e-08
8.20408e-07
6.32428e-07
5.7534e-07
1.36475e-07
1.27748e-07
1.33068e-07
1.33851e-06
0.777893
4.0229e-10
8.45794e-10
3.41057e-08
2.23483e-07
2.50768e-07
2.39191e-07
1.36318e-08
1.84252e-06
4.42356e-07
3.48343e-09
7.03741e-07
6.61812e-06
5.49297e-06
8.80433e-07
6.42244e-07
1.83741e-07
2.32729e-07
0.00099662
0.813272
2.51516e-10
6.06917e-10
6.54664e-08
2.36203e-07
2.44152e-07
4.03038e-08
1.18014e-08
1.78382e-09
2.1019e-09
2.7173e-09
1.31605e-06
7.56032e-06
7.56032e-06
2.13024e-06
2.24543e-06
7.15451e-07
1.48311e-06
0.00549541
0.868028
2.37062e-10
3.87135e-10
4.99208e-08
1.19854e-07
2.89597e-08
2.81716e-10
2.3304e-09
1.12996e-09
1.78329e-09
3.09964e-09
1.14526e-07
6.28794e-06
7.56032e-06
2.82682e-06
1.01097e-05
1.41618e-05
0.00978768
0.0262519
0.919566
2.49117e-10
6.7233e-10
8.56323e-10
1.87402e-10
1.9381e-10
2.03306e-10
2.81629e-10
3.78361e-10
1.75704e-09
5.53886e-09
1.44262e-08
4.06714e-07
3.63275e-06
8.52732e-06
8.4458e-06
1.81061e-05
0.0354938
0.205041
0.957441
2.61376e-10
3.36812e-10
1.8311e-10
1.8311e-10
1.88974e-10
6.51477e-10
4.54772e-10
7.08163e-10
5.52257e-09
1.52907e-08
2.83985e-08
7.01391e-08
1.18128e-07
4.64197e-05
0.00012912
4.61685e-05
0.06272
0.691663
0.980502
1.95819e-10
2.24378e-10
1.8311e-10
1.94287e-10
5.63058e-10
1.26777e-09
9.01653e-10
2.54682e-08
2.42531e-08
4.84456e-08
8.43775e-08
1.17565e-07
1.33235e-07
9.31128e-05
0.00037009
0.000159264
0.0925287
0.918866
0.990377
1.56964e-10
1.93413e-10
2.12152e-10
4.01961e-10
7.99217e-10
1.46939e-09
1.67524e-09
6.88144e-08
7.57221e-08
1.86724e-07
4.18611e-07
2.78249e-07
1.64151e-07
0.000134246
0.000272407
0.000291831
0.1054
0.934841
0.991217
1.70779e-10
1.95502e-10
3.24807e-10
6.59439e-10
8.98493e-10
2.34972e-09
4.42909e-09
5.51306e-08
8.7795e-07
4.71616e-07
3.63823e-06
1.55365e-06
3.18403e-07
8.37495e-05
8.93142e-05
0.000351028
0.0933889
0.959086
0.991257
4.04186e-10
1.99501e-09
8.74791e-10
9.93284e-10
6.88287e-09
1.03097e-08
1.28427e-08
3.87779e-08
2.36236e-06
1.55866e-06
4.97955e-06
3.59857e-05
8.09271e-05
7.85776e-05
8.71378e-05
0.000833822
0.12561
0.992448
0.993422
1.94152e-09
2.23565e-08
1.55661e-08
2.22447e-09
3.51307e-08
3.18347e-08
3.32254e-08
1.11623e-07
2.22707e-06
3.64997e-06
6.85763e-06
7.87768e-05
0.000205564
8.77847e-05
0.000208111
0.00810135
0.460707
0.996131
0.99659
4.1066e-09
4.14888e-08
4.60792e-08
1.21309e-08
5.39018e-08
4.91872e-08
6.74644e-08
3.07958e-07
1.89115e-06
7.69047e-06
1.38546e-05
0.000142979
0.000150005
0.000191965
0.0045796
0.244322
0.942479
0.996622
0.996735
4.8318e-09
2.22048e-08
4.96579e-08
8.09916e-08
6.15725e-08
7.27139e-08
1.86966e-07
1.31402e-06
6.60554e-06
2.10535e-05
5.1447e-05
0.00021624
0.000184577
0.000590106
0.0880792
0.878902
0.996943
0.996638
0.996475
2.93189e-09
1.30781e-09
2.67363e-08
2.23394e-07
1.12649e-07
1.49703e-07
8.8057e-07
8.24232e-06
2.52087e-05
7.71216e-05
0.000194105
0.000330347
0.000581203
0.00504953
0.391254
0.992072
0.997011
0.996785
0.996511
1.32358e-09
1.2733e-09
1.14618e-07
2.7884e-07
2.65992e-07
6.43302e-07
4.06177e-06
3.03828e-05
0.000108267
0.000243265
0.000563223
0.000617482
0.00213997
0.132812
0.918837
0.996127
0.997027
0.996893
0.996693
1.04817e-09
1.09426e-09
1.99658e-07
2.77695e-07
2.96644e-07
2.52832e-06
2.02158e-05
7.54839e-05
0.000304715
0.000636626
0.00109933
0.00210526
0.0137536
0.459474
0.995453
0.996729
0.996947
0.996747
0.996678
8.80891e-10
1.53469e-09
7.18842e-08
1.17996e-07
1.92012e-07
6.4336e-06
3.98335e-05
0.000128707
0.000559023
0.00153488
0.00233182
0.00549715
0.128228
0.823931
0.996643
0.996659
0.996722
0.996707
0.996096
8.92726e-10
9.31953e-10
9.59344e-10
8.35786e-09
7.74968e-08
8.55915e-06
3.78909e-05
0.000129931
0.000572367
0.00211448
0.00467106
0.0151643
0.402981
0.996279
0.996673
0.996658
0.996641
0.996267
0.995763
1.2007e-09
1.18626e-09
1.4091e-09
1.93515e-08
3.30753e-07
7.703e-06
2.43499e-05
0.000123226
0.000573341
0.00233867
0.00776021
0.0691282
0.668208
0.996674
0.996659
0.996662
0.996371
0.995763
0.995757
2.09248e-09
1.4091e-09
4.28701e-07
6.36782e-06
6.47263e-06
8.80203e-06
2.16055e-05
0.000130827
0.000677822
0.00274677
0.00961883
0.0826222
0.676021
0.996711
0.996677
0.99666
0.996518
0.995757
0.995757
7.84455e-09
5.15287e-06
5.22237e-05
5.25478e-05
5.02496e-05
2.28136e-05
2.74456e-05
0.000158094
0.000912519
0.00312894
0.00890451
0.04532
0.550612
0.982667
0.996699
0.99666
0.996692
0.996303
0.995757
1.76845e-08
2.48763e-08
2.16791e-05
5.25478e-05
3.76795e-05
2.74456e-05
4.20704e-05
0.000807673
0.00338994
0.00785199
0.0145064
0.0463895
0.410919
0.894088
0.99667
0.996667
0.996659
0.99666
0.996559
2.48764e-08
3.11419e-08
3.52775e-08
3.65811e-07
7.99377e-07
0.000621873
0.0158655
0.0390062
0.0225414
0.0270257
0.135303
0.438017
0.73657
0.911954
0.996667
0.996671
0.99664
0.996474
0.996573
0.0556123
0.052737
0.0747329
0.11809
0.198368
0.292739
0.335789
0.365429
0.419742
0.51844
0.671549
0.849793
0.989411
0.995232
0.99667
0.996665
0.996666
0.996624
0.996599
0.464001
0.465059
0.465059
0.465059
0.464906
0.463845
0.162602
0.202711
0.67305
0.974626
0.988946
0.996364
0.996508
0.996627
0.996666
0.996664
0.996674
0.99665
0.996621
0.0178548
0.0244306
0.0257464
0.0257679
0.0287019
0.0358812
0.0321516
0.0334916
0.0518422
0.0976959
0.116801
0.172837
0.20353
0.26973
0.263901
0.317144
0.298052
0.33643
0.291277
)
;

boundaryField
{
    leftWall
    {
        type            zeroGradient;
    }
    rightWall
    {
        type            zeroGradient;
    }
    lowerWall
    {
        type            zeroGradient;
    }
    atmosphere
    {
        type            inletOutlet;
        inletValue      uniform 0;
        value           nonuniform List<scalar> 
46
(
0
0.000239657
0
0
0
0.000223096
0.000413881
0
0
0.00466312
0
0.00642976
0
0.00732794
0
0.00266121
0
0.00477125
0
0.0265203
0
0.022999
0
0.022286
0.0271746
0.0249061
0
0
0.0244306
0.0257464
0
0
0.0358812
0.0321516
0
0
0.0976959
0
0.172837
0
0.26973
0
0.317144
0
0.33643
0
)
;
    }
    defaultFaces
    {
        type            empty;
    }
}


// ************************************************************************* //
