/*--------------------------------*- C++ -*----------------------------------*\
  =========                 |
  \\      /  F ield         | OpenFOAM: The Open Source CFD Toolbox
   \\    /   O peration     | Website:  https://openfoam.org
    \\  /    A nd           | Version:  9
     \\/     M anipulation  |
\*---------------------------------------------------------------------------*/
FoamFile
{
    format      ascii;
    class       volScalarField;
    location    "0.9";
    object      alpha.water;
}
// * * * * * * * * * * * * * * * * * * * * * * * * * * * * * * * * * * * * * //

dimensions      [0 0 0 0 0 0 0];

internalField   nonuniform List<scalar> 
2268
(
1
1
1
1
1
1
1
1
1
1
1
1
0.999998
0.999988
0.999408
0.980521
0.96773
0.96773
0.96773
0.967757
0.967884
0.988357
0.999741
1
1
1
1
1
1
1
1
1
1
1
1
1
0.999998
0.999976
0.999518
0.994265
0.985579
0.982817
0.987233
0.995263
0.996697
0.999746
1
1
1
1
1
1
1
1
1
1
1
1
1
1
1
1
1
1
1
1
1
0.999999
0.999771
1
1
1
1
1
1
1
1
1
1
1
1
1
1
1
1
1
1
1
1
0.999996
0.99989
0.999671
1
1
1
1
1
1
1
1
1
1
1
1
1
1
1
1
1
0.999999
0.999999
0.999997
0.99995
0.999769
0.999671
1
1
1
1
1
1
1
1
1
1
1
1
1
1
1
0.999999
0.999996
0.999986
0.999979
0.999976
0.999931
0.999817
0.999743
1
1
1
0.999998
0.999996
0.999996
0.999998
1
1
1
1
1
1
1
1
0.999996
0.999955
0.999859
0.999816
0.999826
0.999813
0.999757
0.999749
1
1
1
0.999998
0.999996
0.999996
0.999999
0.999997
0.999992
0.999992
0.999994
1
1
0.999999
0.999998
0.999975
0.999646
0.998941
0.998744
0.998772
0.999048
0.999252
0.99971
0.995598
0.986127
0.988971
0.996484
0.996524
0.996448
0.994803
0.99288
0.990407
0.987226
0.98462
0.981215
0.915863
0.915667
0.91544
0.937489
0.937934
0.938247
0.937385
0.986066
0.986066
0.995904
0.996523
0.996468
0.993457
0.971209
0.951005
0.936265
0.92642
0.936589
0.950723
0.950039
0.931011
0.912564
0.912564
0.912564
0.921958
0.955558
0.989759
0.988856
0.995882
0.996327
0.99524
0.973682
0.937001
0.890829
0.863236
0.849529
0.840879
0.891306
0.941161
0.940265
0.93372
0.913565
0.912595
0.91282
0.929806
0.994078
0.994767
0.99566
0.995467
0.969562
0.712486
0.592792
0.653862
0.81139
0.846372
0.820572
0.79064
0.862602
0.928139
0.9358
0.9358
0.934648
0.926572
0.901032
0.994081
0.994174
0.994513
0.95154
0.443048
0.202247
0.239838
0.604875
0.813656
0.829799
0.783994
0.786801
0.787488
0.865956
0.935805
0.935362
0.933381
0.927582
0.91901
0.994075
0.993935
0.991836
0.669818
0.0947258
0.124415
0.404964
0.764251
0.795397
0.49569
0.392004
0.679169
0.831497
0.920241
0.935056
0.932617
0.897745
0.880786
0.917058
0.99393
0.993976
0.864246
0.104567
0.0854967
0.10937
0.532597
0.734734
0.746611
0.287982
0.089683
0.226425
0.698491
0.817422
0.778367
0.56395
0.346896
0.331696
0.564968
0.993558
0.992651
0.744301
0.0813567
0.0821755
0.0854967
0.229567
0.630579
0.723099
0.444731
0.0752573
0.0715218
0.143725
0.286834
0.261193
0.126848
0.0845912
0.0845291
0.0853036
1
1
1
1
1
0.999999
1
0.999999
0.999998
0.999997
0.999998
0.999994
0.999964
0.99995
0.999951
0.999687
0.997223
0.991375
0.978574
0.97616
0.994558
0.995571
0.999014
1
1
1
1
1
1
1
1
1
1
1
0.999999
0.999994
0.999892
0.998425
0.995436
0.94508
0.728808
0.561375
0.645679
0.722483
0.63433
0.838371
0.957251
0.891737
0.807452
0.730162
0.670379
0.632963
0.616155
0.614623
0.616912
0.620589
0.643272
0.701247
0.756005
0.7744
0.768828
0.656617
0.365532
0.209412
0.278626
0.360189
0.12783
0.0315914
0.541472
0.32988
0.211997
0.123319
0.0709274
0.0430812
0.0295224
0.0237215
0.021962
0.0218773
0.0231661
0.027653
0.0331631
0.0358471
0.0389781
0.058515
0.0681682
0.0712919
0.157973
0.275405
0.169948
0.0160644
0.0150861
0.16286
0.00427822
0.0024327
0.00170525
0.00108619
0.000658864
0.000394234
0.0002376
0.000147271
9.70556e-05
7.65837e-05
9.12995e-05
0.000234356
0.000839542
0.00252672
0.00509819
0.0427113
0.238696
0.268793
0.27178
0.121709
0.0150214
0.0131531
0.0133371
0.000597629
0.000317063
0.00022434
0.000138255
7.75346e-05
4.17342e-05
2.23456e-05
1.23337e-05
7.86718e-06
6.92804e-06
1.58941e-05
6.45898e-05
0.00019989
0.000671286
0.00226551
0.00726596
0.077925
0.259332
0.261709
0.195863
0.0131034
0.0116499
0.0101219
8.44828e-05
4.39048e-05
3.11968e-05
1.86094e-05
9.82978e-06
4.89907e-06
2.42148e-06
1.25825e-06
8.18795e-07
1.03954e-06
4.25464e-06
1.61043e-05
6.35622e-05
0.000262438
0.00099558
0.00283753
0.00660819
0.089123
0.254349
0.243928
0.132442
0.0101466
0.00933676
1.18238e-05
6.30841e-06
4.4567e-06
2.59752e-06
1.31803e-06
6.24815e-07
2.94477e-07
1.49922e-07
1.01262e-07
1.97988e-07
1.04366e-06
4.21136e-06
2.15798e-05
0.000100406
0.000335693
0.000991913
0.00279424
0.025237
0.181336
0.228761
0.223786
0.0814427
0.00854413
1.62954e-06
9.12736e-07
6.41717e-07
3.69274e-07
1.8343e-07
8.45485e-08
3.89646e-08
1.9805e-08
1.40547e-08
3.36731e-08
1.93841e-07
1.04376e-06
6.29605e-06
2.89252e-05
8.49382e-05
0.000211883
0.00060985
0.00236565
0.0593952
0.223786
0.220734
0.222412
0.0253894
2.20248e-07
1.30941e-07
9.1768e-08
5.26242e-08
2.59818e-08
1.19185e-08
5.49078e-09
2.80648e-09
1.9883e-09
4.79668e-09
3.00567e-08
2.0328e-07
1.35361e-06
6.15995e-06
1.84859e-05
4.18557e-05
9.05692e-05
0.00023586
0.00159233
0.0850133
0.223549
0.227073
0.218274
2.90952e-08
1.84306e-08
1.29394e-08
7.45344e-09
3.71517e-09
1.70696e-09
7.98078e-10
4.43889e-10
3.3222e-10
7.41493e-10
4.78996e-09
3.38573e-08
2.50086e-07
1.2217e-06
3.73054e-06
8.09338e-06
1.51143e-05
2.51079e-05
6.07818e-05
0.000518831
0.0662262
0.231612
0.232994
3.75976e-09
2.53606e-09
1.78256e-09
1.03383e-09
5.40007e-10
2.9664e-10
1.58853e-10
9.95056e-11
7.63772e-11
1.35815e-10
7.41493e-10
5.29342e-09
4.0247e-08
2.13391e-07
6.8235e-07
1.46064e-06
2.60564e-06
6.81547e-06
3.61852e-06
-1.24422e-05
1.19117e-05
0.00179985
0.150041
4.73621e-10
3.58981e-10
2.75814e-10
1.78473e-10
1.06405e-10
8.7176e-11
6.23171e-11
4.10175e-11
2.71246e-11
2.92024e-11
1.44795e-10
8.47094e-10
6.31787e-09
3.52864e-08
1.17948e-07
2.57028e-07
4.06555e-07
6.82165e-07
1.78135e-06
4.26952e-07
-1.17595e-06
-6.88634e-08
-1.35255e-05
7.53435e-11
6.44704e-11
6.0869e-11
5.62657e-11
4.20541e-11
2.97625e-11
1.87663e-11
1.05521e-11
5.22536e-12
5.21239e-12
2.33108e-11
1.52183e-10
1.02556e-09
5.53547e-09
1.89592e-08
4.22141e-08
6.64078e-08
9.41058e-08
1.71557e-07
4.05917e-07
1.4276e-07
1.28115e-07
7.68822e-08
2.31053e-11
2.25509e-11
1.95714e-11
1.54605e-11
1.06906e-11
6.1958e-12
3.19616e-12
1.29761e-12
1.84859e-13
1.62344e-13
2.71677e-12
2.43425e-11
1.81342e-10
8.07256e-10
2.83218e-09
6.41578e-09
1.01999e-08
1.34748e-08
2.11557e-08
5.36119e-08
9.16175e-08
1.46702e-07
1.00134e-07
4.82448e-12
4.73728e-12
3.72909e-12
2.53155e-12
1.54144e-12
8.29609e-13
3.53544e-13
4.31886e-14
-1.82261e-14
-3.63853e-13
5.12906e-28
2.7791e-12
2.69418e-11
1.36109e-10
4.00919e-10
8.81824e-10
1.4298e-09
1.87568e-09
2.75378e-09
4.6109e-09
8.74151e-09
1.93394e-08
2.67976e-08
6.01874e-13
5.82083e-13
4.55765e-13
3.11328e-13
1.85807e-13
8.90612e-14
1.23251e-14
-1.95981e-14
-3.90608e-13
-9.08065e-13
-3.52807e-13
4.39498e-14
3.06569e-12
1.82005e-11
6.1743e-11
1.34002e-10
2.08301e-10
2.5845e-10
3.12734e-10
4.90338e-10
7.88218e-10
1.27245e-09
1.88099e-09
6.60878e-14
6.68494e-14
5.31689e-14
3.58359e-14
1.93311e-14
4.80965e-15
0
-8.85975e-14
-2.736e-13
-5.58179e-13
-6.97792e-13
-3.62572e-17
1.78359e-13
1.9556e-12
7.25672e-12
1.76747e-11
3.37706e-11
5.51049e-11
7.57471e-11
1.04713e-10
1.18985e-10
1.36023e-10
1.79137e-10
7.10172e-15
7.47095e-15
5.88234e-15
3.6443e-15
1.25284e-15
0
-1.50071e-14
-5.40561e-14
-1.26815e-13
-2.42028e-13
-3.61648e-13
-2.30352e-13
-3.20566e-29
1.72239e-13
9.19709e-13
3.11504e-12
7.6858e-12
1.49388e-11
2.33338e-11
3.23178e-11
4.12197e-11
5.13097e-11
6.10987e-11
7.11926e-16
7.79609e-16
5.82829e-16
2.54867e-16
4.06074e-17
-2.01049e-15
-8.78086e-15
-2.21561e-14
-4.59865e-14
-8.41141e-14
-1.33075e-13
-1.42325e-13
-2.85008e-15
-1.22126e-30
8.2174e-14
3.50424e-13
1.01752e-12
2.27838e-12
4.10396e-12
6.30166e-12
9.21381e-12
1.23815e-11
1.57279e-11
6.17252e-17
7.21532e-17
4.4251e-17
7.12872e-18
-2.22956e-16
-1.23213e-15
-3.30825e-15
-7.13431e-15
-1.3776e-14
-2.44336e-14
-3.94308e-14
-5.0389e-14
-3.09486e-14
-1.20531e-30
4.08557e-15
2.32889e-14
7.32777e-14
1.78383e-13
3.5915e-13
6.29231e-13
1.0309e-12
1.57315e-12
2.34369e-12
3.44338e-18
4.95206e-18
1.15156e-18
-1.81775e-17
-1.54999e-16
-4.4098e-16
-9.71213e-16
-1.90486e-15
-3.49635e-15
-6.04558e-15
-9.79567e-15
-1.3584e-14
-1.24588e-14
-2.42544e-15
-1.59018e-32
1.3638e-15
4.31577e-15
1.05005e-14
2.15837e-14
3.89512e-14
6.58149e-14
1.06572e-13
1.77415e-13
-1.23451e-34
1.25645e-19
-4.9533e-19
-1.6537e-17
-5.38301e-17
-1.20809e-16
-2.36348e-16
-4.32822e-16
-7.6248e-16
-1.28728e-15
-2.07553e-15
-2.99277e-15
-3.27187e-15
-1.7967e-15
-1.34253e-17
3.60434e-17
2.14225e-16
5.58861e-16
1.12567e-15
1.97037e-15
3.1954e-15
4.82497e-15
8.30015e-15
-6.22704e-19
-1.80588e-19
-1.45269e-18
-5.732e-18
-1.39871e-17
-2.73401e-17
-4.90869e-17
-8.49523e-17
-1.44156e-16
-2.37371e-16
-3.78259e-16
-5.53722e-16
-6.62652e-16
-5.05376e-16
-1.32489e-16
0
8.44868e-18
2.58626e-17
5.23922e-17
9.04682e-17
1.3272e-16
2.23413e-16
1.26527e-15
-3.41576e-19
-2.08483e-19
-5.27023e-19
-1.43878e-18
-2.98762e-18
-5.28772e-18
-8.84618e-18
-1.45428e-17
-2.37735e-17
-3.80682e-17
-5.95714e-17
-8.71157e-17
-1.09069e-16
-9.79921e-17
-4.5628e-17
-5.54143e-18
-2.44572e-34
9.82174e-19
2.15748e-18
3.31998e-18
6.18106e-18
6.44576e-17
1.32903e-15
-9.84908e-20
-6.7514e-20
-1.30449e-19
-2.94349e-19
-5.45624e-19
-8.9056e-19
-1.39819e-18
-2.1862e-18
-3.4356e-18
-5.32661e-18
-8.13022e-18
-1.17265e-17
-1.49162e-17
-1.46289e-17
-8.75866e-18
-2.43401e-18
-9.07029e-20
0
6.42565e-20
1.14376e-19
1.9573e-18
6.94807e-17
1.55773e-15
-2.17045e-20
-1.55313e-20
-2.59192e-20
-5.14015e-20
-8.70126e-20
-1.32178e-19
-1.95296e-19
-2.90115e-19
-4.3669e-19
-6.51949e-19
-9.63438e-19
-1.35487e-18
-1.71273e-18
-1.74981e-18
-1.19755e-18
-4.47492e-19
-8.09335e-20
-9.13441e-22
4.78428e-22
2.13771e-20
1.86096e-18
7.44349e-17
1.69878e-15
-4.00057e-21
-2.90941e-21
-4.37585e-21
-7.84729e-21
-1.22772e-20
-1.74344e-20
-2.42486e-20
-3.41336e-20
-4.89805e-20
-6.99624e-20
-9.92839e-20
-1.34595e-19
-1.65943e-19
-1.70636e-19
-1.2485e-19
-5.41617e-20
-1.35523e-20
-1.80082e-21
-1.89564e-40
2.02887e-20
1.83382e-18
7.45761e-17
1.74316e-15
-6.4033e-22
-4.66807e-22
-6.45436e-22
-1.06278e-21
-1.54681e-21
-2.05696e-21
-2.6896e-21
-3.5746e-21
-4.86302e-21
-6.5981e-21
-8.91097e-21
-1.15085e-20
-1.35968e-20
-1.36702e-20
-1.01866e-20
-4.73842e-21
-1.36041e-21
-2.5091e-22
1.97729e-22
2.00851e-20
1.81568e-18
7.17863e-17
1.65345e-15
-9.07809e-23
-6.57976e-23
-8.45518e-23
-1.28977e-22
-1.7525e-22
-2.18264e-22
-2.67697e-22
-3.3447e-22
-4.28763e-22
-5.48259e-22
-6.97778e-22
-8.47771e-22
-9.42935e-22
-9.02159e-22
-6.56728e-22
-3.08651e-22
-9.26532e-23
-1.67855e-23
1.7824e-22
1.79808e-20
1.68527e-18
6.04392e-17
1.23882e-15
-1.154e-23
-8.2719e-24
-9.94628e-24
-1.41335e-23
-1.79608e-23
-2.09325e-23
-2.40124e-23
-2.80719e-23
-3.36881e-23
-4.02584e-23
-4.77763e-23
-5.38684e-23
-5.53639e-23
-4.90465e-23
-3.34971e-23
-1.50539e-23
-4.36678e-24
0
9.21153e-23
1.29471e-20
1.23662e-18
3.83363e-17
6.36502e-16
-1.3268e-24
-9.37187e-25
-1.0594e-24
-1.4074e-24
-1.67398e-24
-1.8231e-24
-1.94982e-24
-2.12226e-24
-2.36812e-24
-2.62169e-24
-2.86859e-24
-2.95789e-24
-2.75327e-24
-2.19358e-24
-1.34653e-24
-5.45276e-25
-1.36523e-25
2.77198e-25
3.31165e-23
6.68264e-21
6.27578e-19
1.70587e-17
2.29431e-16
-1.38943e-25
-9.64617e-26
-1.02872e-25
-1.28089e-25
-1.42615e-25
-1.44894e-25
-1.43999e-25
-1.45197e-25
-1.49617e-25
-1.52068e-25
-1.5161e-25
-1.40742e-25
-1.16092e-25
-8.05586e-26
-4.23431e-26
-1.43725e-26
-2.29325e-27
4.5975e-26
7.53622e-24
2.02343e-21
1.88597e-19
4.88595e-18
5.95776e-17
-1.33369e-26
-9.08248e-27
-9.16433e-27
-1.0714e-26
-1.11643e-26
-1.05621e-26
-9.72193e-27
-9.03653e-27
-8.54066e-27
-7.89741e-27
-7.08767e-27
-5.82621e-27
-4.15939e-27
-2.42553e-27
-1.03112e-27
-2.65605e-28
1.83656e-29
5.00434e-27
8.63281e-25
2.35472e-22
2.50634e-20
8.68826e-19
1.44217e-17
-1.18084e-27
-7.87486e-28
-7.53595e-28
-8.28352e-28
-8.0748e-28
-7.10034e-28
-6.03374e-28
-5.14563e-28
-4.4314e-28
-3.6948e-28
-2.94864e-28
-2.10976e-28
-1.27104e-28
-5.98457e-29
-1.92109e-29
-3.19448e-30
4.93685e-30
4.36784e-28
5.86897e-26
1.31926e-23
1.96339e-21
1.46784e-19
5.67652e-18
-9.70831e-29
-6.32976e-29
-5.7566e-29
-5.95517e-29
-5.4274e-29
-4.4277e-29
-3.46333e-29
-2.69797e-29
-2.10411e-29
-1.56838e-29
-1.09969e-29
-6.73055e-30
-3.33199e-30
-1.21188e-30
-2.70353e-31
-2.06777e-32
3.2021e-31
2.95225e-29
3.48234e-27
6.59721e-25
1.4936e-22
2.53717e-20
2.00587e-18
-7.46673e-30
-4.75023e-30
-4.11219e-30
-4.00615e-30
-3.41109e-30
-2.57728e-30
-1.85055e-30
-1.31164e-30
-9.21148e-31
-6.08957e-31
-3.70871e-31
-1.90865e-31
-7.55556e-32
-2.02374e-32
-2.84503e-33
-6.40749e-35
1.03105e-32
1.17836e-30
1.62047e-28
3.10355e-26
9.53923e-24
2.81162e-21
3.18085e-19
-5.4172e-31
-3.35341e-31
-2.76605e-31
-2.53834e-31
-2.01755e-31
-1.40954e-31
-9.26844e-32
-5.9566e-32
-3.74858e-32
-2.18236e-32
-1.14249e-32
-4.86469e-33
-1.49903e-33
-2.81403e-34
-2.24683e-35
-8.43592e-37
9.81611e-37
4.60166e-33
2.90769e-30
9.47346e-28
4.58771e-25
2.27697e-22
3.46847e-20
-3.74188e-32
-2.24433e-32
-1.76422e-32
-1.52481e-32
-1.13038e-32
-7.2921e-33
-4.3824e-33
-2.54664e-33
-1.4304e-33
-7.29075e-34
-3.25209e-34
-1.12952e-34
-2.64298e-35
-3.31593e-36
-1.38851e-37
-4.38075e-39
3.52543e-40
1.92031e-37
6.82921e-35
7.41503e-30
5.14242e-27
2.39842e-24
4.85751e-22
-2.48485e-33
-1.43501e-33
-1.07414e-33
-8.73972e-34
-6.03803e-34
-3.59257e-34
-1.97034e-34
-1.03315e-34
-5.16426e-35
-2.29473e-35
-8.66566e-36
-2.42896e-36
-4.23195e-37
-3.41469e-38
-8.02596e-40
-1.83428e-41
-3.11992e-43
9.93909e-41
7.32134e-37
1.82044e-31
5.24119e-29
6.94332e-27
1.26602e-24
-1.60114e-34
-8.82704e-35
-6.28093e-35
-4.80801e-35
-3.09374e-35
-1.6964e-35
-8.48204e-36
-4.00793e-36
-1.7799e-36
-6.87971e-37
-2.19296e-37
-4.93784e-38
-6.35253e-39
-3.25039e-40
-4.93258e-42
-7.23121e-44
-1.00846e-45
-1.2094e-47
1.76243e-40
2.97464e-34
1.88667e-31
1.28733e-29
9.22907e-28
-1.07462e-35
-5.57472e-36
-3.75029e-36
-2.69001e-36
-1.6053e-36
-8.07544e-37
-3.66381e-37
-1.55274e-37
-6.09842e-38
-2.04207e-38
-5.47924e-39
-9.91571e-40
-9.51509e-41
-3.23736e-42
-3.28965e-44
-2.56755e-46
-1.46376e-48
-6.79285e-51
-2.81064e-53
5.37889e-49
2.99736e-41
2.08404e-34
2.43205e-31
0.999129
0.999159
0.999161
0.99908
0.999044
0.999159
0.99905
0.998106
0.998999
0.998994
0.998618
0.997499
0.93246
0.998574
0.998281
0.997627
0.283557
0.860136
0.997034
0.995993
0.0110937
0.16385
0.507849
0.685933
0.00850317
0.0123381
0.0289659
0.0459279
0.00854413
0.00852947
0.00872213
0.00908707
0.00853232
0.00873013
0.00936728
0.0100793
0.0206923
0.0237308
0.0186157
0.00614426
0.23486
0.232821
0.216583
0.0343554
0.235525
0.229217
0.230569
0.231329
6.18343e-06
0.00124893
0.0255154
0.165473
-4.12276e-09
-9.77931e-07
-2.24955e-07
2.83043e-08
2.15732e-08
2.03132e-08
2.2712e-08
2.57659e-08
2.11806e-08
1.86355e-08
3.38322e-08
4.56741e-08
2.47454e-09
2.94499e-09
3.80515e-09
4.27747e-09
2.17941e-10
2.51796e-10
2.72632e-10
2.63019e-10
6.75492e-11
7.22167e-11
7.52061e-11
7.52877e-11
1.85222e-11
2.03673e-11
2.22886e-11
2.40962e-11
3.10503e-12
3.67835e-12
4.36678e-12
5.17406e-12
2.58141e-13
3.28809e-13
4.27495e-13
5.5508e-13
1.31677e-14
1.8486e-14
2.79998e-14
4.32802e-14
3.57753e-15
7.14059e-15
1.4808e-14
2.81896e-14
4.17079e-15
8.48022e-15
1.7852e-14
3.3153e-14
4.92922e-15
1.00237e-14
2.14708e-14
3.86798e-14
5.35015e-15
1.08236e-14
2.33604e-14
4.12398e-14
5.49069e-15
1.11213e-14
2.41814e-14
4.33838e-14
5.20329e-15
1.05762e-14
2.32445e-14
4.34026e-14
3.86475e-15
7.88203e-15
1.74383e-14
3.51941e-14
1.93934e-15
3.9123e-15
8.78471e-15
1.75841e-14
6.73499e-16
1.32346e-15
2.95847e-15
5.41841e-15
1.70762e-16
3.32851e-16
7.26222e-16
1.28344e-15
4.43898e-17
9.49462e-17
2.35607e-16
5.63944e-16
2.26617e-17
6.66098e-17
2.17686e-16
6.43212e-16
1.12585e-17
4.85461e-17
1.97715e-16
5.54016e-16
2.47837e-18
1.51025e-17
8.46593e-17
2.06458e-16
3.21758e-19
2.65683e-18
1.84075e-17
4.72831e-17
6.10585e-21
1.00563e-19
9.7649e-19
4.43277e-18
1.51268e-23
5.45125e-22
1.11099e-20
1.92492e-19
9.84145e-27
9.55884e-25
5.36678e-23
2.52395e-21
3.13107e-30
7.10604e-28
1.28482e-25
6.84562e-24
0.995634
0.957504
0.30846
0.0798895
0.0810459
0.0821116
0.143515
0.362327
0.628615
0.556412
0.151879
0.0708741
0.0716749
0.0724296
0.0897357
0.0855299
0.0845554
0.0844596
0.0845579
0.993473
0.653524
0.0798076
0.0798584
0.0798895
0.323428
0.46936
0.326014
0.366552
0.55244
0.194059
0.0700542
0.0708742
0.0777849
0.0997689
0.116334
0.10114
0.0841211
0.084489
0.991173
0.59453
0.0798584
0.079874
0.111529
0.649855
0.636741
0.331982
0.569656
0.549138
0.11427
0.0681049
0.086715
0.189703
0.189746
0.189105
0.186736
0.106165
0.0848547
0.994669
0.872305
0.507326
0.329474
0.575179
0.746872
0.746872
0.631763
0.593683
0.560581
0.206776
0.0655631
0.134447
0.189758
0.189703
0.170841
0.126024
0.126236
0.0912242
0.9955
0.993503
0.98232
0.90594
0.845038
0.743762
0.745626
0.470959
0.333506
0.549264
0.34454
0.0646142
0.118402
0.189703
0.172532
0.00486478
0.00157156
0.0402194
0.088975
0.748547
0.70822
0.585789
0.525058
0.499835
0.56646
0.600736
0.143198
0.0555508
0.430066
0.287975
0.0651739
0.121668
0.189511
0.0381863
0.000384554
0.000491309
0.00365268
0.0388904
0.0704219
0.0866089
0.0895873
0.100207
0.225255
0.258442
0.107669
0.00684995
0.0493724
0.352953
0.0806796
0.0500623
0.144744
0.189288
0.00685297
0.00012536
0.00019641
0.00123
0.00151219
0.0115917
0.0266858
0.0751084
0.0679892
0.0316124
0.00368135
0.00419359
0.00483304
0.194258
0.428797
0.0829837
0.0362222
0.134817
0.0980339
0.0051394
3.21147e-05
8.23772e-05
0.00242764
0.0108875
0.0357413
0.0374925
0.0316722
0.00602176
0.00331256
0.00345536
0.00368251
0.0268979
0.270834
0.42343
0.086365
0.0362236
0.061697
0.00840343
0.000346777
1.19604e-05
6.13237e-05
0.00131366
0.0166887
0.00501506
0.00412932
0.0034393
0.00331257
0.00331256
0.00331233
0.0038195
0.179362
0.262179
0.0350119
0.0360382
0.0376883
0.0124334
5.30195e-05
1.77302e-05
5.93809e-06
5.40746e-06
0.000225389
0.0167398
0.0389445
0.027759
0.00406202
0.00343929
0.00431496
0.00930643
0.10222
0.196977
0.142562
0.017242
0.0158614
0.0301176
0.0135215
0.000174944
4.73243e-06
2.78135e-06
1.90228e-06
3.37724e-07
0.016602
0.231329
0.231329
0.0684657
0.0932093
0.127799
0.145449
0.161753
0.106689
0.00308299
0.0180638
0.0122431
0.00824592
0.00392976
4.18796e-06
2.79255e-06
2.15794e-06
1.89851e-06
3.16911e-07
0.0161149
0.213157
0.179933
0.184909
0.185054
0.184909
0.168767
0.0798917
0.000644385
0.00275197
0.0111391
0.00557257
0.000147187
7.35687e-05
3.50457e-06
2.87465e-06
2.58343e-06
8.20535e-07
3.13721e-07
0.0134807
9.99163e-09
-3.80869e-08
0.0518914
0.051087
0.00489651
5.58087e-06
8.01254e-06
0.000763255
0.00350206
0.000781124
0.000118688
2.04678e-05
4.23084e-05
5.03491e-05
1.64468e-05
3.30977e-07
3.97997e-07
3.14055e-07
0.00227337
3.04668e-08
3.42498e-08
6.39207e-08
1.0972e-07
1.2798e-07
8.69529e-07
0.000229957
0.0019958
0.00189346
2.36855e-06
1.55722e-06
3.25791e-05
8.20422e-05
8.31546e-05
7.1843e-05
3.19417e-07
3.14055e-07
3.13941e-07
0.000384006
8.28165e-08
4.11987e-07
4.49682e-07
1.21393e-07
5.26231e-09
2.94451e-06
6.24455e-05
6.46893e-05
2.53197e-06
1.55725e-06
7.68466e-07
1.22278e-05
4.1117e-05
4.35144e-05
1.12036e-05
2.21081e-06
3.19393e-07
3.14055e-07
3.36845e-07
6.07501e-09
3.65027e-10
1.1291e-07
1.0606e-07
2.20885e-10
5.26231e-09
4.11992e-08
6.89961e-06
4.43113e-05
1.69816e-05
7.62212e-07
7.68529e-07
1.74931e-06
3.0499e-06
4.22231e-06
8.17612e-07
1.07084e-06
3.36963e-07
4.2222e-07
7.64466e-11
3.26112e-10
4.34535e-11
2.80946e-11
2.6088e-11
6.67897e-09
3.11057e-08
6.68038e-05
0.000156912
5.68928e-05
7.65975e-07
7.62212e-07
7.67416e-07
1.16047e-06
4.85195e-07
2.77527e-08
3.10192e-06
5.77469e-07
7.24038e-07
7.59229e-11
9.99369e-11
2.88428e-10
2.99977e-10
1.92634e-11
3.3239e-08
1.95124e-07
9.98781e-06
0.000145852
2.31238e-05
7.62233e-07
2.53477e-06
2.75239e-09
2.44656e-09
2.32107e-09
4.19588e-08
3.10031e-06
1.15806e-06
1.31076e-06
2.6147e-11
3.13282e-11
4.99409e-11
4.3119e-11
1.76851e-11
6.03421e-08
1.29444e-07
4.99944e-09
1.42e-08
3.00016e-05
1.16113e-05
5.51981e-06
1.90363e-07
3.95273e-09
2.07794e-09
7.36836e-08
3.10953e-06
3.10922e-06
2.08893e-06
6.14412e-12
7.57158e-12
1.58922e-11
1.78371e-11
1.73644e-11
1.0811e-08
1.92686e-11
3.56693e-09
1.66566e-07
2.72938e-07
6.40512e-06
2.72607e-06
7.0689e-08
3.29871e-08
1.5809e-09
1.80434e-07
2.14189e-06
3.35749e-06
3.74199e-06
7.86482e-13
1.27006e-12
2.91755e-12
8.49078e-12
1.74877e-11
1.74428e-11
1.83244e-11
1.92654e-11
2.1688e-07
1.16136e-06
8.61726e-07
3.33465e-07
8.89603e-08
1.20929e-08
1.32967e-09
3.33465e-07
2.40079e-07
5.32696e-07
6.31277e-06
1.02728e-13
4.09551e-13
2.0535e-12
4.80456e-12
3.41209e-11
1.11136e-10
9.74753e-11
1.94076e-11
1.76484e-07
6.90721e-07
4.06946e-07
4.08678e-08
3.0754e-09
2.93603e-09
1.21082e-09
7.85024e-08
4.74361e-08
8.18759e-08
0.000158155
9.51658e-14
5.11005e-13
3.2502e-12
6.164e-12
4.83166e-11
3.15317e-10
9.96944e-11
1.20568e-09
7.86865e-08
7.57246e-08
3.85138e-08
8.30109e-09
1.10611e-09
1.1627e-09
1.21082e-09
1.21082e-09
1.21325e-09
8.43911e-05
0.000312943
1.28063e-13
1.05784e-12
7.65668e-12
1.17441e-11
3.67895e-11
3.00781e-10
4.78471e-10
5.1852e-09
4.88306e-09
3.6303e-09
2.41122e-09
9.42181e-10
1.09129e-09
1.2777e-09
1.21082e-09
1.21326e-09
1.23093e-09
0.000293726
0.000312943
2.02953e-13
2.27864e-12
1.52135e-11
2.62428e-11
3.71555e-11
1.8135e-10
8.08093e-10
1.65025e-09
1.08993e-09
5.75018e-10
5.84731e-10
6.6272e-10
1.28947e-09
1.561e-09
1.21424e-09
1.22747e-09
2.64988e-07
0.000314619
0.000313816
3.5031e-13
4.79931e-12
2.08162e-11
4.18131e-11
6.05579e-11
1.13055e-10
4.71562e-10
5.63161e-10
5.21777e-10
5.04217e-10
5.35782e-10
7.17825e-10
1.32535e-09
1.55336e-09
1.23005e-09
1.24833e-09
1.50223e-06
0.000311129
0.000312466
4.34433e-13
6.12704e-12
2.47185e-11
4.51633e-11
7.78546e-11
2.10354e-10
3.87872e-10
4.03405e-10
4.21069e-10
4.63448e-10
5.47255e-10
7.35383e-10
1.24378e-09
1.28223e-09
1.24834e-09
1.2573e-09
0.000154315
0.000313449
0.000215274
3.75862e-13
4.90025e-12
2.2946e-11
4.41455e-11
6.80453e-11
1.54731e-10
8.82785e-10
2.21572e-09
1.95061e-09
1.2832e-09
8.75734e-10
9.05369e-10
1.67561e-09
1.71985e-09
1.25737e-09
1.29305e-09
0.000269246
0.000313449
5.71537e-05
1.90405e-13
2.66791e-12
1.92978e-11
5.07469e-11
5.32917e-11
1.64259e-10
3.09765e-09
5.70298e-09
5.54309e-09
3.22589e-09
1.10002e-09
1.04662e-09
2.4089e-09
2.15747e-09
1.29305e-09
1.46476e-09
0.000256824
0.000313449
5.4273e-05
1.16261e-13
1.00774e-12
1.18279e-11
4.10802e-11
5.0561e-11
2.55689e-10
1.33924e-09
4.77749e-09
1.17154e-08
1.09359e-08
5.84973e-09
4.81295e-09
4.45176e-09
2.28498e-09
1.45395e-09
3.01313e-09
0.000240693
0.000312439
4.48747e-05
1.41583e-13
5.64706e-13
2.46153e-12
2.18521e-11
1.40258e-10
6.46307e-10
8.26461e-10
2.72273e-09
1.50289e-08
1.9346e-08
1.92873e-08
1.92115e-08
1.07862e-08
2.44117e-09
2.12679e-09
0.000102824
0.000288903
0.000215504
8.76663e-06
7.14739e-14
3.4946e-13
3.99916e-13
3.37211e-11
8.60721e-11
1.41097e-09
2.02282e-09
4.76644e-09
1.80056e-08
1.9346e-08
1.59106e-08
8.31411e-09
2.72046e-08
2.93247e-09
4.20373e-09
0.000252642
0.000288903
5.52642e-05
1.04187e-06
2.74848e-14
1.72991e-13
5.93514e-13
1.19145e-10
7.88442e-11
4.30491e-11
6.06113e-09
3.20429e-08
2.75964e-08
9.94066e-09
7.61904e-09
7.63157e-09
5.54342e-08
4.21963e-09
5.93925e-06
0.000284332
0.000288903
6.02136e-05
1.5933e-07
3.87626e-14
2.42546e-13
8.21929e-13
1.04165e-10
4.87679e-11
4.34037e-11
2.58947e-08
3.48332e-08
2.36787e-08
7.76835e-09
7.73502e-09
8.90088e-07
7.64074e-07
8.15624e-09
7.44347e-05
0.000275305
0.000160295
3.25258e-06
6.45532e-09
5.12249e-14
4.13053e-13
1.35863e-12
3.93709e-11
2.81501e-11
1.45866e-10
5.66368e-09
1.99144e-08
1.72262e-08
8.27581e-09
4.20403e-06
5.67023e-06
1.83501e-06
4.62463e-08
5.56959e-05
9.07575e-05
2.2608e-06
3.4328e-11
8.16983e-12
4.58892e-14
4.71071e-13
1.68865e-12
9.64819e-12
2.53476e-11
6.29746e-11
5.51831e-11
5.89218e-11
2.40625e-10
5.49558e-06
6.37403e-06
5.82117e-06
2.54481e-06
7.94372e-06
2.9218e-08
8.07605e-10
3.28384e-11
5.59166e-12
7.65364e-12
1.7945e-14
4.19142e-13
2.52854e-12
1.09956e-11
4.15568e-11
5.48812e-11
5.46904e-11
5.54612e-11
5.89224e-11
4.47859e-06
5.44788e-06
2.62518e-06
5.31763e-06
4.26972e-06
1.89176e-07
1.96903e-11
3.48319e-12
2.8725e-12
7.13847e-12
3.06796e-15
3.13895e-13
3.57362e-12
1.77621e-11
8.97933e-11
1.51111e-10
1.07501e-10
6.03066e-11
6.224e-11
3.55667e-07
2.55846e-07
1.7584e-07
2.6175e-07
2.75047e-12
-6.45727e-12
3.46354e-12
4.11507e-12
2.3412e-12
2.35175e-12
1.52588e-16
9.18974e-14
2.64955e-12
2.03932e-11
9.01877e-11
2.49799e-10
4.76707e-10
7.31267e-10
8.40002e-10
8.51097e-10
1.04061e-08
1.58977e-10
2.74133e-12
1.97834e-12
1.9329e-12
1.83308e-11
3.01083e-11
6.36432e-13
5.1939e-07
1.37772e-18
4.40767e-15
6.05341e-13
1.12671e-11
6.72689e-11
2.10759e-10
1.01512e-09
1.72615e-09
1.73862e-09
1.42536e-09
1.37967e-09
4.05768e-10
1.18798e-11
2.55088e-12
1.92429e-12
1.18115e-11
1.46012e-11
4.61513e-13
1.06202e-05
2.64462e-21
1.1399e-17
1.51364e-14
1.27095e-12
1.55351e-11
8.39088e-11
5.14145e-10
1.19051e-09
1.22341e-09
9.90897e-10
5.04903e-10
1.15859e-10
1.11473e-11
4.49047e-12
3.98999e-13
2.24668e-13
1.08459e-14
4.64644e-13
1.15113e-05
)
;

boundaryField
{
    leftWall
    {
        type            zeroGradient;
    }
    rightWall
    {
        type            zeroGradient;
    }
    lowerWall
    {
        type            zeroGradient;
    }
    atmosphere
    {
        type            inletOutlet;
        inletValue      uniform 0;
        value           nonuniform List<scalar> 
46
(
-1.07462e-35
-5.57472e-36
-3.75029e-36
-2.69001e-36
-1.6053e-36
-8.07544e-37
-3.66381e-37
-1.55274e-37
-6.09842e-38
-2.04207e-38
-5.47924e-39
-9.91571e-40
-9.51509e-41
-3.23736e-42
0
0
0
0
0
0
0
0
0
0
0
0
0
0
0
0
0
0
0
0
0
1.22341e-09
9.90897e-10
5.04903e-10
1.15859e-10
0
0
0
0
0
0
1.15113e-05
)
;
    }
    defaultFaces
    {
        type            empty;
    }
}


// ************************************************************************* //
