/*--------------------------------*- C++ -*----------------------------------*\
  =========                 |
  \\      /  F ield         | OpenFOAM: The Open Source CFD Toolbox
   \\    /   O peration     | Website:  https://openfoam.org
    \\  /    A nd           | Version:  9
     \\/     M anipulation  |
\*---------------------------------------------------------------------------*/
FoamFile
{
    format      ascii;
    class       volScalarField;
    location    "0.9";
    object      epsilon;
}
// * * * * * * * * * * * * * * * * * * * * * * * * * * * * * * * * * * * * * //

dimensions      [0 2 -3 0 0 0 0];

internalField   nonuniform List<scalar> 
2268
(
0.0311962
0.149785
0.183126
0.237035
0.288893
0.338139
0.384582
0.427679
0.467204
0.503121
0.535282
0.563089
0.585183
0.599175
0.601652
0.588573
0.556042
0.500566
0.430955
0.346568
0.251691
0.152843
0.0329158
0.0552363
0.0719896
0.0945998
0.116644
0.137806
0.157841
0.176469
0.193506
0.208947
0.222873
0.235323
0.246152
0.254912
0.260766
0.262527
0.258884
0.248798
0.232331
0.215391
0.196315
0.174682
0.145405
0.0919743
0.0818264
0.0780541
0.0894937
0.103187
0.117236
0.130905
0.143789
0.155712
0.166667
0.176722
0.1859
0.194069
0.200837
0.205493
0.207046
0.204467
0.197129
0.185478
0.172655
0.160222
0.14936
0.138962
0.12609
0.108963
0.0896934
0.0944761
0.103697
0.114191
0.124862
0.135186
0.144942
0.154089
0.162657
0.170634
0.177851
0.183885
0.187999
0.189195
0.18647
0.17932
0.16838
0.156145
0.144966
0.136543
0.132497
0.150703
0.135599
0.101947
0.101934
0.108076
0.116212
0.124974
0.133736
0.142218
0.150337
0.158082
0.165398
0.172075
0.177643
0.181311
0.182033
0.178781
0.1711
0.159772
0.147205
0.136089
0.128205
0.12618
0.166638
0.161825
0.114013
0.110079
0.113848
0.120214
0.127578
0.135221
0.14281
0.150215
0.157383
0.164221
0.170475
0.175629
0.17884
0.179002
0.17505
0.166552
0.15441
0.141106
0.129548
0.121594
0.120106
0.175504
0.187992
0.125752
0.118332
0.120141
0.125084
0.131337
0.138098
0.144983
0.151818
0.15851
0.164928
0.170782
0.175512
0.178228
0.177773
0.173036
0.16359
0.150438
0.136171
0.12386
0.115475
0.114002
0.178595
0.214633
0.13714
0.126484
0.126598
0.130339
0.135658
0.141675
0.147956
0.154287
0.160539
0.166545
0.171985
0.176263
0.178451
0.177344
0.171789
0.161352
0.14711
0.131741
0.118438
0.109283
0.107466
0.177018
0.0332892
0.0354174
0.155199
0.172168
0.303668
0.597406
1.11529
1.88158
2.77513
3.9344
5.27289
6.5402
7.48292
7.64601
6.62646
5.07889
3.4381
1.86611
0.43274
0.0754421
0.0962227
0.129689
0.157056
0.218877
0.34223
0.544196
0.834157
1.18451
1.63744
2.11302
2.54823
2.85353
2.88762
2.64588
2.42276
2.13531
1.72241
0.788347
0.120081
0.117693
0.139619
0.165171
0.225618
0.335815
0.50039
0.714679
0.970834
1.2889
1.61252
1.90128
2.08363
2.06885
1.89581
1.74801
1.65369
1.52608
1.12742
0.173641
0.134504
0.150633
0.18395
0.255336
0.370676
0.526318
0.713936
0.9307
1.18871
1.44664
1.66736
1.79053
1.75483
1.61352
1.47413
1.39679
1.35885
1.33398
0.23215
0.151611
0.166077
0.210802
0.295209
0.418481
0.570469
0.742885
0.934314
1.15304
1.37192
1.55859
1.65587
1.62327
1.51183
1.37518
1.2743
1.23264
1.45808
0.28944
0.170372
0.186435
0.243424
0.33998
0.469807
0.618815
0.779384
0.951013
1.14146
1.33639
1.50801
1.60014
1.58514
1.50799
1.36487
1.23564
1.15034
1.53553
0.354631
0.191115
0.211143
0.279995
0.38674
0.520893
0.666153
0.816082
0.971826
1.14227
1.31876
1.47471
1.57157
1.58998
1.55664
1.39571
1.23436
1.10478
1.59137
0.446354
0.212923
0.239552
0.319276
0.433791
0.570097
0.710629
0.850918
0.994077
1.14851
1.30708
1.44952
1.55779
1.62192
1.64134
1.47095
1.26405
1.08264
1.62632
0.245747
0.151891
0.137933
0.136137
0.138426
0.142557
0.147583
0.153023
0.158618
0.164194
0.169544
0.174307
0.177854
0.179216
0.177138
0.170403
0.158523
0.142563
0.125301
0.110127
0.0990687
0.0946989
0.127687
0.293219
0.172362
0.1533
0.148964
0.149446
0.152092
0.155818
0.160074
0.164547
0.169016
0.173236
0.176824
0.179147
0.17924
0.175855
0.167777
0.154529
0.137253
0.119137
0.104181
0.094941
0.0962303
0.138071
0.342429
0.192853
0.168449
0.161498
0.160106
0.161152
0.163395
0.166216
0.169259
0.172273
0.174999
0.177065
0.177883
0.176581
0.172058
0.163301
0.150128
0.134131
0.119136
0.109159
0.108147
0.124259
0.175972
0.393219
0.213548
0.183395
0.173667
0.170231
0.169456
0.169944
0.171014
0.172284
0.173494
0.174405
0.174705
0.173927
0.171411
0.166365
0.158163
0.147001
0.134763
0.124993
0.121303
0.127512
0.148676
0.188124
0.442584
0.23372
0.197905
0.185323
0.179683
0.176873
0.175354
0.174402
0.173628
0.172796
0.171718
0.17019
0.167937
0.164596
0.159776
0.153258
0.145413
0.137732
0.132609
0.132972
0.141659
0.160884
0.190363
0.489759
0.253175
0.211866
0.196379
0.188401
0.183387
0.179677
0.176528
0.173569
0.17061
0.167546
0.16431
0.160841
0.157082
0.153008
0.148699
0.144561
0.141342
0.14033
0.143535
0.153152
0.170884
0.197407
0.534244
0.271809
0.225193
0.206771
0.196368
0.189049
0.183062
0.17766
0.172516
0.167505
0.162619
0.157924
0.153545
0.149658
0.146505
0.144377
0.143495
0.144114
0.146828
0.152819
0.163775
0.181585
0.208301
0.576108
0.2896
0.237821
0.216465
0.203595
0.193941
0.185692
0.178117
0.170927
0.164069
0.157628
0.15179
0.14682
0.143041
0.140788
0.140332
0.141818
0.145314
0.151043
0.159667
0.172516
0.191672
0.220108
0.616177
0.306614
0.249666
0.225317
0.210018
0.198138
0.187781
0.178229
0.169246
0.160847
0.153191
0.146539
0.141222
0.137603
0.136025
0.136737
0.139844
0.145354
0.153352
0.164287
0.179315
0.200564
0.231282
0.656329
0.322599
0.260453
0.233317
0.215775
0.201844
0.189576
0.178282
0.167782
0.158142
0.149573
0.142368
0.136873
0.13344
0.132386
0.133929
0.138165
0.145108
0.154835
0.167757
0.184941
0.208423
0.241309
0.695396
0.337286
0.270314
0.240601
0.221003
0.205225
0.191279
0.178505
0.166767
0.156174
0.146957
0.139415
0.133875
0.130657
0.130039
0.132217
0.137293
0.145319
0.156423
0.17103
0.19015
0.21565
0.250355
0.732136
0.350844
0.279345
0.247264
0.225819
0.208424
0.193055
0.179074
0.16638
0.155101
0.145473
0.137779
0.132312
0.129349
0.129131
0.131837
0.137588
0.146487
0.158723
0.174753
0.195537
0.222781
0.259053
0.766327
0.363313
0.28761
0.253384
0.230323
0.211564
0.19504
0.180131
0.166754
0.155044
0.145226
0.137551
0.132272
0.129623
0.129809
0.133
0.139339
0.148983
0.162182
0.179433
0.201677
0.230515
0.26836
0.797945
0.374742
0.295169
0.259036
0.234603
0.214741
0.19734
0.181783
0.167994
0.1561
0.146304
0.138822
0.133862
0.131616
0.132257
0.135949
0.142857
0.153186
0.167257
0.185623
0.209252
0.239726
0.279429
0.827032
0.385184
0.302077
0.26428
0.238726
0.218031
0.200034
0.184111
0.170178
0.15835
0.148799
0.141702
0.137223
0.135515
0.136722
0.140999
0.148529
0.15957
0.174514
0.194
0.219072
0.251377
0.293356
0.853614
0.394684
0.308381
0.269166
0.242745
0.221489
0.203178
0.18717
0.173369
0.161865
0.152801
0.146313
0.142525
0.141551
0.143506
0.148533
0.156832
0.168702
0.184612
0.205302
0.231928
0.266233
0.310706
0.877672
0.403276
0.314115
0.273728
0.246694
0.225148
0.206806
0.191
0.177614
0.166713
0.158405
0.152792
0.149958
0.14998
0.152943
0.158972
0.168267
0.181157
0.198174
0.220142
0.248308
0.284467
0.331036
0.899131
0.410977
0.319306
0.277991
0.250595
0.22903
0.210941
0.19563
0.182955
0.172955
0.165706
0.161276
0.159715
0.161059
0.165357
0.172701
0.18327
0.197393
0.215618
0.2388
0.268202
0.305573
0.353078
0.917855
0.417795
0.323972
0.281975
0.254468
0.233153
0.215605
0.201089
0.189435
0.180656
0.174799
0.171902
0.171975
0.175012
0.18101
0.190006
0.202127
0.21765
0.237079
0.26122
0.291266
0.328789
0.375165
0.933664
0.423729
0.328136
0.285706
0.258339
0.237548
0.220832
0.207418
0.19711
0.189892
0.185786
0.184797
0.186893
0.192011
0.200079
0.211049
0.224953
0.241968
0.262489
0.287212
0.317215
0.353388
0.397228
0.946345
0.428786
0.331831
0.289228
0.262261
0.24227
0.226685
0.214692
0.206065
0.200764
0.198783
0.200089
0.204599
0.212179
0.222661
0.235881
0.251738
0.270269
0.291723
0.316678
0.345738
0.379696
0.420091
0.955674
0.432983
0.335118
0.292622
0.266325
0.247425
0.233281
0.223038
0.21644
0.213419
0.213938
0.217921
0.22522
0.235609
0.2488
0.264487
0.282412
0.302446
0.32468
0.349521
0.377108
0.408355
0.444838
0.961443
0.436369
0.338098
0.296017
0.270685
0.253184
0.240809
0.23266
0.228446
0.228071
0.23146
0.238482
0.248909
0.262403
0.278538
0.296848
0.316907
0.338422
0.361355
0.385735
0.411636
0.439965
0.472391
0.963473
0.439035
0.340933
0.299619
0.27558
0.259818
0.249562
0.243868
0.242407
0.245043
0.251655
0.262046
0.275889
0.292721
0.311964
0.332986
0.355194
0.378144
0.401683
0.42542
0.449535
0.474907
0.503335
0.961631
0.441124
0.343857
0.303724
0.28136
0.267719
0.259973
0.257125
0.258798
0.264809
0.274976
0.289021
0.306507
0.326833
0.349263
0.373
0.397298
0.421579
0.445545
0.468556
0.490839
0.513303
0.537915
0.955817
0.44285
0.347201
0.308751
0.288518
0.277452
0.272667
0.273103
0.27832
0.28807
0.302095
0.320025
0.341299
0.365169
0.390744
0.417079
0.443296
0.468771
0.492884
0.515005
0.535402
0.555032
0.575894
0.945928
0.444504
0.351417
0.315277
0.297747
0.289819
0.288548
0.292788
0.302008
0.315862
0.334009
0.355984
0.381058
0.408354
0.436848
0.465465
0.493225
0.519435
0.543222
0.564203
0.582656
0.599579
0.617042
0.931787
0.446508
0.35713
0.324104
0.310024
0.305982
0.308955
0.31766
0.331417
0.349727
0.372102
0.397947
0.426483
0.456743
0.48762
0.517959
0.546712
0.573132
0.596216
0.615781
0.632203
0.646554
0.660978
0.914829
0.45013
0.365361
0.336421
0.326792
0.327609
0.335716
0.349621
0.3684
0.391339
0.417792
0.447079
0.47841
0.510832
0.543241
0.574465
0.603429
0.629312
0.651155
0.668962
0.683254
0.695198
0.706999
0.900295
0.457618
0.377627
0.353758
0.349788
0.356742
0.371179
0.391212
0.415504
0.443027
0.47299
0.504736
0.537608
0.570827
0.603425
0.634299
0.662434
0.686729
0.706629
0.722296
0.734407
0.744206
0.753913
0.885946
0.468844
0.394998
0.377702
0.381118
0.396028
0.418472
0.445834
0.476052
0.507661
0.539815
0.572115
0.604332
0.636127
0.666864
0.695607
0.721365
0.742932
0.760125
0.773328
0.783356
0.791462
0.79978
0.870415
0.483979
0.418529
0.409942
0.423173
0.448637
0.481458
0.517664
0.553914
0.588192
0.619913
0.649435
0.677458
0.704492
0.730489
0.754777
0.776271
0.793917
0.807756
0.818386
0.826708
0.833847
0.841668
0.852322
0.503023
0.448983
0.451868
0.478116
0.517676
0.564099
0.610873
0.6524
0.686212
0.712849
0.734398
0.753247
0.771215
0.789042
0.806328
0.821693
0.834417
0.844568
0.852878
0.860216
0.867368
0.875656
0.829529
0.525355
0.48626
0.503669
0.546583
0.60456
0.668581
0.727346
0.771366
0.798715
0.813164
0.820154
0.824567
0.829642
0.836621
0.844776
0.852774
0.859931
0.866285
0.872683
0.879937
0.888103
0.897494
0.798565
0.549035
0.528474
0.562786
0.62529
0.705881
0.791716
0.862202
0.901633
0.912747
0.906914
0.894726
0.883398
0.876288
0.873438
0.872477
0.871874
0.871971
0.873312
0.877129
0.884459
0.894207
0.904414
0.754505
0.569972
0.570827
0.621977
0.704077
0.809981
0.92189
0.999382
1.01846
1.00106
0.972678
0.947333
0.930684
0.922407
0.917634
0.909991
0.89715
0.88364
0.874316
0.872028
0.878403
0.889372
0.898352
0.691026
0.580514
0.603942
0.66781
0.765416
0.899022
1.03308
1.09122
1.07074
1.02976
0.998638
0.984977
0.985218
0.993108
0.998185
0.983056
0.949236
0.911049
0.882242
0.868518
0.872357
0.883012
0.887634
0.598946
0.56701
0.611496
0.683055
0.794505
0.959962
1.1044
1.10734
1.04685
1.01233
1.01047
1.02648
1.05133
1.07847
1.10169
1.07003
1.00689
0.938374
0.888673
0.862529
0.855727
0.855869
0.854767
0.471339
0.501959
0.570009
0.657849
0.798445
1.0074
1.15288
1.07007
0.988819
0.97198
0.98167
1.00327
1.02373
1.04399
1.07947
1.08818
1.02838
0.935803
0.873984
0.844448
0.83778
0.845063
0.852131
0.469739
0.456641
0.54395
0.649948
0.812203
1.0468
1.16749
0.989825
0.895456
0.892085
0.904574
0.914361
0.913155
0.921346
0.949806
1.00761
1.03712
0.929163
0.85649
0.824789
0.818955
0.829895
0.847159
0.704427
0.479924
0.529111
0.601161
0.760042
1.01355
1.09184
0.839075
0.776763
0.808189
0.796987
0.814349
0.813543
0.862792
0.908863
1.05996
1.2411
0.964689
0.8546
0.828187
0.798133
0.821573
0.865424
0.990257
0.345174
0.277471
0.280795
0.391608
0.578936
0.555843
0.460196
0.590575
0.520556
0.523201
0.476905
0.56146
0.626991
0.788996
1.16673
1.37174
0.667591
0.642826
0.579431
0.639499
0.689112
0.848166
0.153369
0.188997
0.348282
0.558115
0.238192
0.29156
0.312734
0.315331
0.245222
0.262553
0.265679
0.26696
0.22603
0.240311
0.2526
0.267837
0.22131
0.239945
0.260532
0.285198
0.229303
0.251611
0.277423
0.307654
0.242546
0.267497
0.296472
0.329784
0.25667
0.283404
0.314128
0.348857
0.269594
0.297381
0.328878
0.363938
0.280712
0.309013
0.340678
0.375455
0.29039
0.318924
0.350514
0.384822
0.29961
0.328387
0.360006
0.394054
0.309709
0.339009
0.371059
0.405383
0.322121
0.352396
0.385435
0.420688
0.337947
0.36958
0.404011
0.440572
0.357302
0.390289
0.425914
0.463182
0.378894
0.412395
0.448157
0.485323
0.4003
0.433178
0.46813
0.50432
0.420246
0.451596
0.484907
0.519412
0.439088
0.468262
0.499368
0.53174
0.458108
0.484748
0.513361
0.543399
0.478774
0.50276
0.528809
0.556505
0.502276
0.523653
0.547225
0.572708
0.529365
0.54829
0.569584
0.593101
0.560365
0.577087
0.596386
0.618272
0.595041
0.609828
0.627397
0.647942
0.633277
0.646354
0.662454
0.681966
0.674692
0.686294
0.701197
0.720004
0.718621
0.729009
0.743008
0.761446
0.763938
0.773418
0.786813
0.805193
0.808783
0.817694
0.83076
0.849288
0.850262
0.858928
0.871823
0.890454
0.884337
0.892938
0.905526
0.923737
0.906305
0.914612
0.926209
0.942785
0.912412
0.919439
0.92869
0.941847
0.902647
0.906067
0.911081
0.919487
0.885393
0.883763
0.884329
0.889351
0.853248
0.85383
0.857035
0.864099
0.857093
0.861687
0.867506
0.875229
0.866196
0.883162
0.9013
0.920345
0.95509
1.02514
1.08072
1.12884
1.24926
1.38036
1.34662
1.67925
0.298659
0.241088
0.289149
0.38375
0.505996
0.639556
0.769808
0.896754
1.02421
1.15715
1.2935
1.43156
1.56443
1.70164
1.81882
1.66453
1.37153
1.07616
1.63433
0.263046
0.278666
0.353766
0.465199
0.593436
0.718574
0.835303
0.946467
1.05173
1.15737
1.28303
1.44148
1.62885
1.88236
2.17416
2.08083
1.51208
1.10013
1.61346
0.269862
0.323194
0.418208
0.538593
0.664647
0.779804
0.883673
0.977678
1.06105
1.15155
1.28321
1.47265
1.72251
2.09215
2.58948
2.53952
1.68207
1.14629
1.53152
0.294078
0.369877
0.476968
0.599406
0.718919
0.823994
0.915566
0.992787
1.06038
1.14767
1.29006
1.51126
1.82882
2.32159
3.05431
3.08706
1.98398
1.25426
1.54106
0.324108
0.413351
0.526151
0.646374
0.757332
0.852533
0.932205
0.996125
1.05681
1.14726
1.29794
1.5442
1.93511
2.56605
3.53579
3.80329
2.46524
1.49636
1.78016
0.35403
0.450211
0.563884
0.678972
0.781231
0.867018
0.93631
0.992507
1.05361
1.14868
1.30323
1.56143
2.00533
2.74713
3.84176
4.4705
3.18019
1.88135
2.36121
0.380425
0.478874
0.58999
0.698252
0.792379
0.869762
0.931298
0.985288
1.05113
1.15135
1.30704
1.56581
2.02036
2.81156
3.94339
4.77551
3.88878
2.37467
3.2068
0.401613
0.499177
0.605695
0.706658
0.793514
0.864064
0.921107
0.97639
1.04931
1.15583
1.3125
1.56882
2.01138
2.78388
3.89315
4.80188
4.32009
2.87082
3.96985
0.417406
0.512239
0.613335
0.707862
0.788979
0.855015
0.91036
0.968417
1.04865
1.16284
1.32208
1.57741
2.01187
2.74015
3.76876
4.73094
4.58339
3.31066
4.62716
0.428874
0.520362
0.616588
0.706675
0.784509
0.848315
0.903469
0.964756
1.05042
1.17169
1.3373
1.5954
2.02735
2.72297
3.6799
4.65829
4.80357
3.67635
5.22811
0.438052
0.526845
0.619961
0.708272
0.785045
0.847871
0.904309
0.968243
1.05686
1.18304
1.35888
1.62531
2.06072
2.73912
3.64583
4.61486
4.96456
3.94921
5.71724
0.447538
0.535217
0.627536
0.716494
0.792621
0.856272
0.914553
0.980384
1.07037
1.19973
1.38588
1.66687
2.11669
2.79749
3.67905
4.62078
5.02928
4.10809
5.95051
0.460057
0.548345
0.64193
0.731323
0.808057
0.873243
0.93345
1.0009
1.09211
1.22436
1.41972
1.7204
2.19718
2.90378
3.79565
4.71909
5.05079
4.16822
6.05543
0.477513
0.567159
0.66217
0.75163
0.829278
0.896108
0.958325
1.02792
1.12162
1.25805
1.46378
1.78703
2.29833
3.04702
3.97419
4.85854
5.01986
4.1964
6.16398
0.499337
0.58995
0.68507
0.774178
0.852535
0.921094
0.985829
1.05868
1.15676
1.30014
1.51897
1.86581
2.41149
3.1998
4.15272
4.94625
4.94902
4.18093
6.25438
0.522992
0.613114
0.706642
0.794976
0.874032
0.944838
1.01313
1.09069
1.19515
1.34875
1.5844
1.95627
2.53135
3.34146
4.28007
4.94027
4.79296
4.08536
6.25581
0.544863
0.632906
0.723701
0.811164
0.891391
0.965417
1.03864
1.12263
1.23585
1.40342
1.66109
2.06112
2.66141
3.47832
4.37717
4.87276
4.54814
3.91095
6.08454
0.562342
0.647274
0.735108
0.82205
0.904337
0.982821
1.06244
1.15474
1.27961
1.46584
1.7518
2.18501
2.80992
3.62795
4.48748
4.80294
4.26909
3.68531
5.78912
0.575044
0.656524
0.741908
0.829046
0.914518
0.998794
1.08626
1.1887
1.32833
1.53835
1.85957
2.33257
2.9842
3.79934
4.62654
4.7266
3.96465
3.44771
5.46037
0.584528
0.662723
0.746563
0.834858
0.924773
1.01623
1.11294
1.22719
1.38437
1.62313
1.98664
2.50628
3.18605
3.98835
4.77278
4.58228
3.65709
3.21731
5.12811
0.59322
0.668602
0.751953
0.842529
0.938303
1.03844
1.14577
1.27316
1.45003
1.72168
2.13354
2.70405
3.40519
4.15995
4.795
4.36606
3.39684
2.99936
4.80845
0.603482
0.676745
0.760583
0.854807
0.958126
1.06868
1.188
1.32941
1.52713
1.83455
2.29918
2.92114
3.62732
4.28192
4.66796
4.09344
3.1628
2.79842
4.50607
0.617151
0.68913
0.774277
0.873913
0.986893
1.11001
1.24279
1.39854
1.61703
1.96132
2.48065
3.15149
3.84249
4.34476
4.4344
3.78959
2.93977
2.61075
4.21795
0.635522
0.706627
0.794457
0.901636
1.02698
1.16541
1.31332
1.48311
1.72078
2.10037
2.67127
3.38194
4.03993
4.36371
4.15326
3.48818
2.72766
2.43306
3.93821
0.658809
0.729888
0.822153
0.939495
1.08068
1.23803
1.4031
1.58595
1.83949
2.24966
2.86063
3.58542
4.18818
4.3378
3.88039
3.21402
2.53013
2.26195
3.65712
0.687151
0.759401
0.858131
0.988879
1.15044
1.33151
1.51634
1.71042
1.97505
2.40953
3.04258
3.73312
4.21212
4.18975
3.6076
2.94328
2.3294
2.09189
3.36161
0.720485
0.795326
0.902924
1.0511
1.23895
1.45022
1.65816
1.86055
2.13009
2.58366
3.22225
3.82132
4.08357
3.85437
3.24313
2.60897
2.10572
1.92056
3.04585
0.758535
0.837523
0.956742
1.12726
1.34906
1.59924
1.83467
2.04074
2.30656
2.77528
3.40925
3.87935
3.87452
3.42572
2.81746
2.27639
1.88637
1.75323
2.71756
0.800693
0.885367
1.01915
1.21777
1.48329
1.78391
2.05249
2.25536
2.50474
2.9813
3.59675
3.90616
3.60387
3.01478
2.44905
1.99958
1.69252
1.59758
2.39276
0.84575
0.937338
1.08845
1.32149
1.64285
2.00848
2.31741
2.50862
2.72443
3.19061
3.7455
3.83758
3.29944
2.66838
2.1588
1.78061
1.53243
1.45984
2.0892
0.891426
0.990371
1.16069
1.43425
1.82594
2.2734
2.63109
2.80448
2.96877
3.39112
3.80565
3.61854
2.97134
2.37886
1.93373
1.61553
1.40992
1.34564
1.82327
0.933784
1.03907
1.22848
1.54679
2.02392
2.5656
2.98761
3.14772
3.24846
3.57152
3.7882
3.36351
2.69511
2.16296
1.77395
1.50291
1.32681
1.26051
1.60973
0.966765
1.07521
1.28014
1.6431
2.20605
2.85828
3.37
3.54124
3.58098
3.77282
3.76594
3.19864
2.52825
2.03365
1.68391
1.44403
1.28428
1.20885
1.46205
0.982649
1.08863
1.30018
1.69374
2.33075
3.10089
3.74228
3.99189
4.01539
4.09717
3.91134
3.21339
2.50508
2.00916
1.67062
1.43995
1.28125
1.19222
1.39122
0.974885
1.07173
1.27607
1.66846
2.34068
3.21236
4.03641
4.49846
4.63048
4.68508
4.39089
3.50056
2.67196
2.11224
1.74069
1.48804
1.31129
1.20623
1.40178
0.944416
1.0283
1.21008
1.55886
2.18286
3.0905
4.15988
5.06868
5.52732
5.61416
5.284
4.16852
3.06936
2.3499
1.88472
1.57298
1.35837
1.2372
1.48354
0.909919
0.98207
1.13137
1.40565
1.87465
2.66104
3.97982
5.70118
6.81161
6.92125
6.40367
5.11842
3.61676
2.65068
2.04614
1.65371
1.39444
1.26293
1.60389
0.885816
0.94834
1.06103
1.2442
1.54405
2.06535
3.08449
5.0509
7.45833
7.98005
6.93159
5.2603
3.81676
2.78101
2.10403
1.66598
1.38677
1.26198
1.71517
0.89506
0.93827
1.00534
1.10224
1.2526
1.52829
2.04362
3.09921
4.93663
6.16729
5.46341
4.27196
3.30898
2.53866
1.96271
1.5701
1.32024
1.22674
1.76839
0.953706
0.994125
1.03446
1.08708
1.16512
1.30837
1.57518
2.06258
2.80585
3.4591
3.52718
3.09979
2.56378
2.07085
1.6748
1.39301
1.21111
1.17039
1.70327
1.18412
1.24789
1.2744
1.32304
1.37935
1.51969
1.71677
2.01968
2.09813
2.17542
2.35866
2.15135
1.9171
1.58583
1.3543
1.19116
1.0909
1.16005
1.47902
1.62768
1.75935
1.58511
1.77809
1.7376
2.09561
1.97964
2.1174
1.69397
1.12799
1.31048
1.0418
1.04814
0.776058
0.772501
0.618982
0.691836
0.756177
1.48213
)
;

boundaryField
{
    leftWall
    {
        type            epsilonWallFunction;
        value           nonuniform List<scalar> 
50
(
0.0311962
0.0552363
0.0818264
0.108963
0.135599
0.161825
0.187992
0.214633
0.245747
0.293219
0.342429
0.393219
0.442584
0.489759
0.534244
0.576108
0.616177
0.656329
0.695396
0.732136
0.766327
0.797945
0.827032
0.853614
0.877672
0.899131
0.917855
0.933664
0.946345
0.955674
0.961443
0.963473
0.961631
0.955817
0.945928
0.931787
0.914829
0.900295
0.885946
0.870415
0.852322
0.829529
0.798565
0.754505
0.691026
0.598946
0.471339
0.469739
0.704427
0.990257
)
;
    }
    rightWall
    {
        type            epsilonWallFunction;
        value           nonuniform List<scalar> 
50
(
0.43274
0.788347
1.12742
1.33398
1.45808
1.53553
1.59137
1.62632
1.63433
1.61346
1.53152
1.54106
1.78016
2.36121
3.2068
3.96985
4.62716
5.22811
5.71724
5.95051
6.05543
6.16398
6.25438
6.25581
6.08454
5.78912
5.46037
5.12811
4.80845
4.50607
4.21795
3.93821
3.65712
3.36161
3.04585
2.71756
2.39276
2.0892
1.82327
1.60973
1.46205
1.39122
1.40178
1.48354
1.60389
1.71517
1.76839
1.70327
1.47902
1.48213
)
;
    }
    lowerWall
    {
        type            epsilonWallFunction;
        value           nonuniform List<scalar> 
62
(
0.0311962
0.149785
0.183126
0.237035
0.288893
0.338139
0.384582
0.427679
0.467204
0.503121
0.535282
0.563089
0.585183
0.599175
0.601652
0.588573
0.556042
0.500566
0.430955
0.346568
0.251691
0.152843
0.0329158
0.0329158
0.0919743
0.12609
0.150703
0.166638
0.175504
0.178595
0.177018
0.153369
0.188997
0.348282
0.558115
0.0332892
0.0754421
0.120081
0.173641
0.23215
0.28944
0.354631
0.446354
0.0332892
0.0354174
0.155199
0.172168
0.303668
0.597406
1.11529
1.88158
2.77513
3.9344
5.27289
6.5402
7.48292
7.64601
6.62646
5.07889
3.4381
1.86611
0.43274
)
;
    }
    atmosphere
    {
        type            inletOutlet;
        inletValue      uniform 0.1;
        value           nonuniform List<scalar> 
46
(
0.990257
0.1
0.1
0.1
0.1
0.1
0.1
0.1
0.590575
0.1
0.523201
0.1
0.56146
0.1
0.788996
0.1
1.37174
0.1
0.642826
0.1
0.639499
0.1
0.848166
0.1
0.1
0.1
1.67925
1.62768
0.1
0.1
1.77809
1.7376
0.1
0.1
2.1174
1.69397
0.1
1.31048
0.1
1.04814
0.1
0.772501
0.1
0.691836
0.1
1.48213
)
;
    }
    defaultFaces
    {
        type            empty;
    }
}


// ************************************************************************* //
