/*--------------------------------*- C++ -*----------------------------------*\
  =========                 |
  \\      /  F ield         | OpenFOAM: The Open Source CFD Toolbox
   \\    /   O peration     | Website:  https://openfoam.org
    \\  /    A nd           | Version:  9
     \\/     M anipulation  |
\*---------------------------------------------------------------------------*/
FoamFile
{
    format      ascii;
    class       volScalarField;
    location    "0.9";
    object      epsilon;
}
// * * * * * * * * * * * * * * * * * * * * * * * * * * * * * * * * * * * * * //

dimensions      [0 2 -3 0 0 0 0];

internalField   nonuniform List<scalar> 
2268
(
0.0158396
0.0480441
0.0854474
0.12389
0.160223
0.19386
0.225179
0.254514
0.282099
0.308197
0.333233
0.357817
0.382839
0.410519
0.440145
0.469535
0.498335
0.524485
0.537931
0.515412
0.420496
0.225772
0.0432333
0.0247636
0.0395743
0.058748
0.0770134
0.0934525
0.10784
0.120376
0.131344
0.14103
0.149697
0.157626
0.165192
0.173029
0.18245
0.193969
0.207392
0.223093
0.240655
0.2567
0.261586
0.237925
0.165106
0.0699909
0.0368115
0.0403174
0.0555732
0.0696835
0.0817407
0.0918516
0.100386
0.107722
0.114199
0.120124
0.125848
0.131877
0.138982
0.148306
0.160729
0.177092
0.198449
0.225076
0.25416
0.276142
0.272809
0.219527
0.1194
0.0476409
0.0426431
0.056221
0.06859
0.0786815
0.0868676
0.0936793
0.0995897
0.105001
0.110292
0.115917
0.122539
0.13112
0.142997
0.159526
0.18228
0.213028
0.252587
0.297902
0.338039
0.353147
0.314826
0.194063
0.0577528
0.045654
0.0581745
0.0695156
0.0784137
0.0854462
0.0912932
0.0965246
0.101621
0.107056
0.113425
0.121591
0.132797
0.148771
0.17147
0.20323
0.246578
0.302627
0.367277
0.427426
0.463487
0.451698
0.336401
0.0675228
0.0490991
0.060774
0.0713683
0.0794148
0.0856552
0.09091
0.0958515
0.10106
0.107136
0.114866
0.125389
0.140343
0.162032
0.193185
0.236963
0.296549
0.37272
0.458939
0.538937
0.596816
0.631784
0.632689
0.077246
0.0528751
0.0637672
0.0737374
0.081114
0.0867742
0.0916735
0.0965975
0.102253
0.109421
0.119148
0.132953
0.153027
0.182483
0.225016
0.284572
0.364592
0.464298
0.572523
0.668396
0.742806
0.84091
1.19711
0.0871488
0.0569359
0.0670087
0.0764009
0.0832227
0.0884578
0.0931916
0.09834
0.104778
0.113535
0.126026
0.144304
0.171311
0.211295
0.2691
0.34915
0.45429
0.580266
0.708424
0.811741
0.887889
1.03103
2.31918
0.705242
1.60691
2.52379
3.44861
4.41476
5.37344
6.37936
7.18005
7.30688
6.35964
4.51736
2.80056
1.91042
1.51473
1.38771
1.26067
1.02299
0.600515
0.152365
1.30421
1.96309
2.26761
2.38351
2.53758
2.71132
2.93087
3.12189
3.10909
2.74335
2.08964
1.45837
1.05094
0.818531
0.713206
0.63893
0.541466
0.388205
0.153285
2.04509
2.05966
2.11095
2.11865
2.1932
2.29595
2.43404
2.54902
2.51424
2.23247
1.74727
1.26655
0.937536
0.747402
0.651883
0.58451
0.50244
0.386916
0.223968
2.59722
2.10466
2.06128
2.07512
2.1452
2.22591
2.33228
2.40821
2.34931
2.10773
1.6935
1.25469
0.945362
0.772903
0.686155
0.62254
0.540594
0.434257
0.316419
3.01219
2.12734
2.05971
2.11214
2.19894
2.26429
2.34596
2.37727
2.30219
2.10185
1.74244
1.31405
1.00325
0.841611
0.768206
0.714393
0.631338
0.520043
0.429645
3.31754
2.13153
2.07754
2.18124
2.28398
2.34167
2.39635
2.39102
2.31144
2.15925
1.85953
1.42036
1.09197
0.939353
0.887805
0.854936
0.775301
0.648147
0.589491
3.53798
2.12237
2.09671
2.2528
2.356
2.42523
2.46468
2.43951
2.35198
2.23843
2.014
1.56041
1.19902
1.05827
1.03965
1.04193
0.974131
0.820024
0.804072
3.71513
2.1104
2.10847
2.29077
2.40785
2.50087
2.54791
2.51266
2.40572
2.29523
2.12183
1.68672
1.31152
1.19056
1.21552
1.2642
1.20952
1.01355
1.07916
0.104772
0.0637147
0.0722354
0.0807353
0.0868396
0.0916381
0.0964111
0.102313
0.110573
0.12277
0.141146
0.168932
0.210599
0.272089
0.359798
0.47714
0.623107
0.784149
0.927829
1.02025
1.06805
1.12684
1.30745
0.123334
0.0707677
0.077857
0.0858022
0.0916431
0.0966041
0.10233
0.110539
0.123382
0.143964
0.176965
0.229188
0.309303
0.42547
0.583055
0.776368
0.991635
1.19473
1.32635
1.35995
1.35413
1.37528
1.45074
0.141383
0.0774526
0.083728
0.0916664
0.09773
0.10338
0.110915
0.123092
0.143802
0.179186
0.239158
0.33859
0.495003
0.716434
0.98215
1.26308
1.53722
1.73248
1.76675
1.7147
1.69003
1.74596
1.85749
0.160012
0.0840786
0.090899
0.0994952
0.106337
0.113171
0.123458
0.141862
0.175469
0.236257
0.344772
0.532775
0.834656
1.2448
1.64057
1.89155
2.06893
2.13206
2.05149
2.00324
2.05268
2.16603
2.31348
0.178992
0.0883057
0.0947264
0.102865
0.110867
0.120354
0.13603
0.165136
0.219899
0.322566
0.512358
0.845488
1.34561
1.86555
2.12728
2.18602
2.18267
2.14092
2.10374
2.15254
2.34793
2.58738
2.81341
0.172285
0.088122
0.0913561
0.0978144
0.106823
0.119952
0.143041
0.18641
0.268304
0.418951
0.676408
1.05603
1.49101
1.82358
2.00591
2.1558
2.15389
2.08844
2.08366
2.18404
2.41927
2.77195
3.19712
0.161991
0.0872051
0.0869136
0.0924644
0.102046
0.117847
0.146284
0.199319
0.297477
0.469616
0.738039
1.08235
1.4164
1.64983
1.81829
2.01301
2.11826
2.09214
2.10769
2.21214
2.41815
2.73739
3.18867
0.158057
0.0871956
0.0840893
0.0887094
0.098177
0.114765
0.144766
0.199924
0.299574
0.468367
0.720204
1.0274
1.31049
1.51381
1.70655
1.95268
2.14046
2.19263
2.21828
2.29213
2.43734
2.66577
2.97465
0.159936
0.0879258
0.0822853
0.0855676
0.0938432
0.109074
0.136778
0.187086
0.276171
0.424013
0.641744
0.907933
1.16063
1.35881
1.58382
1.9417
2.30769
2.44488
2.44724
2.45629
2.51785
2.65455
2.86883
0.163953
0.0892835
0.0815067
0.0831716
0.0896349
0.102269
0.125473
0.167232
0.240016
0.359285
0.535045
0.75508
0.976247
1.16378
1.38074
1.77729
2.36714
2.81463
2.83146
2.73579
2.68261
2.70094
2.80215
0.168133
0.0907468
0.0812948
0.08152
0.0861908
0.0959668
0.114098
0.146606
0.202489
0.293186
0.427475
0.600562
0.785645
0.953604
1.13617
1.46551
2.06993
2.84249
3.28565
3.17558
2.97479
2.84984
2.80592
0.171649
0.0917721
0.0810798
0.0802377
0.0835125
0.0909366
0.104722
0.129078
0.170394
0.236877
0.335783
0.466644
0.614441
0.757959
0.906963
1.13827
1.5698
2.28422
3.12154
3.60205
3.43129
3.15696
2.92988
0.174101
0.0921431
0.0805677
0.0790184
0.0813338
0.0870328
0.0975166
0.115661
0.145855
0.193745
0.26472
0.360097
0.472622
0.589154
0.709359
0.86995
1.14441
1.61144
2.28999
3.1019
3.59018
3.53494
3.19922
0.175286
0.0918325
0.0796483
0.077665
0.079383
0.0839233
0.0920717
0.10573
0.127839
0.162181
0.212524
0.280581
0.363401
0.453821
0.548855
0.663152
0.834283
1.11262
1.53666
2.10312
2.72491
3.14521
3.1664
0.17513
0.0908893
0.0783128
0.0760775
0.0774483
0.0812562
0.0878375
0.098395
0.114859
0.139718
0.175519
0.223792
0.283641
0.351579
0.424962
0.508586
0.619075
0.782464
1.0246
1.35609
1.75458
2.16831
2.52244
0.173644
0.0893961
0.0766064
0.0742306
0.0754033
0.0787587
0.0843178
0.0927959
0.10543
0.123839
0.149714
0.18425
0.2274
0.277646
0.333314
0.39554
0.470845
0.570872
0.708602
0.891693
1.11563
1.36616
1.63928
0.170921
0.0874459
0.0745972
0.0721474
0.0731988
0.0762641
0.0811527
0.0882494
0.0983254
0.112421
0.131653
0.156897
0.188395
0.225579
0.267552
0.314343
0.368208
0.433795
0.516662
0.620499
0.744717
0.885765
1.0423
0.167127
0.0851358
0.0723638
0.0698807
0.0708433
0.0737007
0.0781271
0.0842898
0.0926532
0.103878
0.118698
0.137737
0.161291
0.189215
0.221078
0.25668
0.296647
0.342608
0.39662
0.460046
0.532685
0.613482
0.702406
0.162483
0.0825662
0.069989
0.0675002
0.0683834
0.0710669
0.0751445
0.0806449
0.0878345
0.097128
0.109005
0.123903
0.14209
0.163586
0.188209
0.215767
0.246325
0.280305
0.318281
0.360534
0.406748
0.456436
0.51009
0.157236
0.0798397
0.0675561
0.0650828
0.065886
0.0684052
0.0721908
0.0771866
0.0835341
0.0914909
0.101371
0.113476
0.128023
0.145089
0.164605
0.186436
0.210475
0.236704
0.265122
0.29558
0.327707
0.361224
0.396756
0.151638
0.0770583
0.0651453
0.0627047
0.063425
0.0657792
0.0692994
0.0738803
0.0795864
0.0865764
0.0950571
0.105238
0.117286
0.131282
0.147214
0.164987
0.184464
0.205491
0.227876
0.251342
0.27555
0.30035
0.326374
0.145924
0.0743192
0.0628303
0.0604356
0.0610707
0.0632571
0.066525
0.0707428
0.0759294
0.082183
0.0896427
0.0984559
0.108748
0.120594
0.133999
0.148901
0.165174
0.182645
0.201085
0.220219
0.239775
0.2597
0.280578
0.140302
0.0717109
0.0606757
0.0583353
0.0588844
0.0609013
0.0639252
0.0678127
0.0725571
0.0782205
0.0849003
0.0927046
0.101729
0.112039
0.123648
0.136514
0.150538
0.165563
0.181385
0.197774
0.214533
0.231672
0.249716
0.134948
0.0693091
0.0587343
0.0564516
0.0569147
0.0587629
0.0615505
0.0651317
0.0694864
0.0746566
0.0807151
0.0877459
0.0958272
0.105015
0.11533
0.126748
0.139192
0.15254
0.166627
0.181276
0.196356
0.211918
0.228422
0.130003
0.0671738
0.0570463
0.0548196
0.0551969
0.0568788
0.0594386
0.0627335
0.0667378
0.0714829
0.0770283
0.083445
0.0908012
0.0991502
0.108519
0.118897
0.130235
0.142441
0.155393
0.168961
0.183066
0.197785
0.213515
0.125579
0.0653481
0.0556389
0.0534616
0.0537527
0.055272
0.0576132
0.0606395
0.0643247
0.0686954
0.0738049
0.0797182
0.0864998
0.0942041
0.102866
0.11249
0.123051
0.134486
0.14671
0.159636
0.173222
0.187555
0.202981
0.12176
0.0638581
0.0545264
0.0523884
0.052592
0.0539529
0.0560848
0.0588587
0.0622503
0.0662856
0.0710158
0.0765041
0.0828156
0.0900089
0.0981276
0.107193
0.117201
0.128116
0.139886
0.152456
0.16581
0.180043
0.195447
0.118608
0.0627163
0.053713
0.0516012
0.0517155
0.0529218
0.0548533
0.057389
0.0605084
0.0642385
0.0686309
0.0737497
0.0796629
0.086435
0.0941201
0.102755
0.112355
0.122912
0.134399
0.146789
0.160086
0.174381
0.189923
0.116167
0.0619247
0.0531949
0.0510947
0.0511171
0.0521725
0.0539114
0.0562213
0.0590857
0.0625337
0.0666183
0.0714057
0.0769677
0.0833757
0.0906944
0.0989758
0.108254
0.118544
0.129843
0.142146
0.155472
0.169906
0.185658
0.114466
0.0614803
0.0529648
0.0508607
0.0507885
0.051696
0.0532494
0.0553438
0.0579667
0.0611494
0.0649468
0.0694271
0.0746661
0.0807417
0.0877286
0.095693
0.104687
0.114746
0.125891
0.138136
0.151509
0.166093
0.182064
0.11353
0.0613817
0.0530176
0.0508932
0.0507232
0.0514853
0.0528589
0.0547461
0.0571378
0.0600671
0.06359
0.0677767
0.0727059
0.0784609
0.0851252
0.0927774
0.101487
0.111308
0.122282
0.134439
0.147829
0.162531
0.178683
0.113397
0.0616384
0.0533575
0.0511943
0.0509218
0.0515394
0.0527374
0.0544233
0.0565909
0.0592743
0.0625299
0.0664282
0.0710497
0.0764811
0.0828126
0.0901334
0.098527
0.108066
0.118809
0.130822
0.144165
0.158908
0.175165
0.114146
0.0622816
0.0540058
0.0517799
0.0513961
0.0518669
0.0528904
0.0543781
0.0563257
0.0587673
0.0617583
0.0653683
0.0696771
0.0747726
0.0807484
0.0877011
0.0957255
0.104909
0.115346
0.12712
0.140303
0.154974
0.171226
0.115924
0.0633773
0.0550085
0.0526841
0.0521714
0.0524861
0.0533305
0.0546191
0.0563476
0.058549
0.0612763
0.0645959
0.0685849
0.0733287
0.0789205
0.0854599
0.0930486
0.101797
0.11182
0.12322
0.136096
0.150539
0.166641
0.118968
0.0650366
0.0564407
0.053959
0.0532829
0.0534199
0.0540725
0.0551553
0.0566626
0.058624
0.0610885
0.0641177
0.0677828
0.0721635
0.0773473
0.0834309
0.0905189
0.0987387
0.108216
0.119081
0.13146
0.145472
0.161219
0.123601
0.067418
0.0584021
0.0556661
0.0547654
0.054685
0.0551217
0.0559858
0.0572668
0.0589888
0.0611949
0.0639399
0.0672874
0.0713073
0.0760754
0.0816759
0.0882114
0.0958046
0.104594
0.114731
0.126379
0.139692
0.154808
0.130162
0.0707044
0.060994
0.0578526
0.0566314
0.0562731
0.056458
0.057085
0.0581336
0.0596194
0.0615776
0.0640563
0.0671108
0.0707991
0.0751777
0.0803046
0.0862553
0.0931352
0.101086
0.110281
0.120916
0.133193
0.147297
0.138868
0.0750379
0.0642691
0.0605126
0.0588412
0.0581271
0.0580171
0.0583871
0.0591997
0.0604579
0.0621887
0.0644353
0.0672495
0.0706794
0.0747547
0.0794795
0.0848564
0.0909568
0.0979208
0.105941
0.115243
0.126074
0.138673
0.149577
0.0804007
0.0681518
0.0635338
0.0612687
0.06012
0.0596765
0.0597765
0.0603568
0.0614045
0.06294
0.0650085
0.0676712
0.0709842
0.0749533
0.0794582
0.084333
0.0896057
0.0954343
0.102039
0.109672
0.118605
0.129118
0.161539
0.0864592
0.072343
0.0666455
0.063676
0.0620441
0.0612532
0.0610887
0.0614546
0.0623205
0.0637033
0.0656633
0.0683028
0.071748
0.0760448
0.0807026
0.0851877
0.0895607
0.0940836
0.0990374
0.104688
0.111299
0.119144
0.173235
0.0923946
0.0762293
0.0693845
0.0657095
0.0636212
0.0625193
0.0621292
0.0623207
0.0630467
0.0643259
0.0662495
0.0690189
0.0730302
0.0788241
0.0841832
0.088226
0.0914607
0.0944365
0.0975191
0.100955
0.104948
0.1097
0.182191
0.0966753
0.0788205
0.0711054
0.0669326
0.0645399
0.0632394
0.0627105
0.0627979
0.0634437
0.0646703
0.0666056
0.0696142
0.0748556
0.0866318
0.0920844
0.094613
0.0960317
0.0971156
0.0981603
0.0992943
0.100598
0.102147
2.36194
1.51642
1.76918
3.19435
1.65487
1.83901
2.06514
2.27878
1.98591
2.07464
2.12257
2.10622
2.34197
2.35458
2.33446
2.24857
2.76966
2.69957
2.60946
2.49485
3.26244
3.16218
3.0394
2.91229
3.57357
3.66586
3.64439
3.57043
3.30014
3.50289
3.65787
3.7242
3.07956
3.20279
3.32061
3.4054
2.95714
3.06182
3.18236
3.3093
2.8499
2.89791
2.97127
3.07299
2.85485
2.82216
2.79887
2.7939
3.05734
2.95831
2.81296
2.6901
3.12913
3.11956
2.96811
2.73463
2.70477
2.69634
2.56234
2.41513
1.81076
1.89152
1.92771
1.9412
1.16241
1.24296
1.31203
1.37069
0.773163
0.82865
0.885226
0.940692
0.553637
0.588929
0.627141
0.668363
0.425895
0.449807
0.476228
0.505219
0.347816
0.365384
0.384934
0.406488
0.297807
0.311792
0.327331
0.344421
0.264598
0.276531
0.289716
0.304141
0.242013
0.252774
0.264582
0.277426
0.226444
0.236557
0.247581
0.25951
0.21563
0.225414
0.236016
0.247432
0.208049
0.217693
0.228087
0.239226
0.202607
0.212216
0.222517
0.233509
0.198483
0.208103
0.218365
0.229265
0.195044
0.204685
0.21492
0.225744
0.191793
0.201441
0.211641
0.222381
0.188358
0.197979
0.208116
0.218751
0.184435
0.19399
0.204029
0.214534
0.179773
0.189205
0.199101
0.209439
0.174144
0.183373
0.193058
0.203174
0.167329
0.176233
0.185598
0.195399
0.159126
0.16752
0.176387
0.185705
0.149401
0.157011
0.165102
0.173663
0.138217
0.144675
0.1516
0.15899
0.126036
0.13093
0.136222
0.141921
0.113918
0.116908
0.120162
0.123687
0.103527
0.104501
0.105562
0.10671
2.66627
2.06664
2.11407
2.30418
2.46382
2.60182
2.67642
2.63431
2.48865
2.34511
2.19302
1.81079
1.46218
1.38586
1.46782
1.56159
1.4947
1.24297
1.51177
2.1779
1.99325
2.07836
2.26616
2.46646
2.69562
2.86516
2.85534
2.65736
2.45674
2.3043
1.95993
1.6674
1.68173
1.82627
1.97262
1.92899
1.61882
1.9544
2.00944
1.91774
2.00464
2.18646
2.43532
2.77691
3.04383
3.06591
2.83995
2.61157
2.50227
2.19026
1.88097
1.92326
2.15281
2.42192
2.43518
2.12438
1.62228
2.07972
1.92747
1.96146
2.14476
2.46613
2.88869
3.19314
3.22485
2.99335
2.75136
2.68081
2.44965
2.12074
2.18593
2.60132
3.22355
3.32041
2.99457
1.81125
2.30774
2.10149
2.07765
2.25575
2.60682
3.03444
3.32725
3.36796
3.11726
2.8486
2.79058
2.65278
2.37499
2.53632
3.38695
5.27256
5.43888
5.08107
3.55376
2.72642
2.47634
2.38225
2.52239
2.85404
3.23044
3.49908
3.54461
3.2169
2.89645
2.85271
2.76868
2.60519
3.00002
4.77466
10.27
9.22736
8.26792
6.30744
3.40382
3.03101
2.82784
2.90957
3.18888
3.51827
3.77286
3.72787
3.24336
2.87679
2.85208
2.81056
2.79192
3.49752
6.30808
11.2049
10.6273
11.3079
9.10802
3.67572
3.36287
3.2243
3.35338
3.63166
3.92563
4.06186
3.77828
3.14405
2.77297
2.73317
2.76671
2.92109
3.86693
6.92735
9.4336
10.7652
13.2572
11.1436
3.47275
3.51766
3.58367
3.76087
3.89826
4.04763
4.15624
3.55257
2.93304
2.61181
2.56823
2.67936
3.0257
4.29246
7.57965
8.51219
12.8353
15.5172
12.7114
3.47503
3.74728
3.92526
4.06931
4.10471
4.09392
3.75352
3.11439
2.66539
2.44519
2.43546
2.61295
3.12632
4.70626
7.11033
8.49115
14.6598
16.6695
13.5546
3.22204
3.47895
3.76284
3.83608
3.79671
3.59741
3.12881
2.70655
2.42801
2.31265
2.35509
2.59801
3.20253
4.68
6.37413
8.64146
14.7919
15.9199
13.4815
2.81503
2.9314
3.08626
3.10483
3.02586
2.88064
2.62218
2.39263
2.26752
2.2248
2.3394
2.67061
3.32942
4.50064
5.95732
8.60225
13.6149
14.0678
12.7001
2.58337
2.55104
2.53258
2.51419
2.48208
2.41036
2.27241
2.18696
2.14212
2.17549
2.38072
2.81102
3.47665
4.37696
5.77954
8.17456
11.4688
11.8271
11.4967
2.52163
2.37418
2.20179
2.14656
2.16926
2.17161
2.05357
2.02384
2.03515
2.17033
2.4439
2.87039
3.43912
4.24936
5.52444
7.31892
9.19401
9.67988
10.3913
2.26317
2.16032
1.99476
1.89679
1.8827
1.88012
1.85531
1.8804
1.97469
2.1683
2.43878
2.78626
3.28111
4.00577
5.01056
6.18182
7.21073
7.83438
9.56934
1.95418
1.8735
1.74471
1.69033
1.71139
1.75657
1.76003
1.81247
1.93657
2.12276
2.34819
2.63647
3.04356
3.60554
4.28755
4.93028
5.56635
6.26738
8.9046
1.45228
1.48603
1.47738
1.49782
1.55476
1.62807
1.68755
1.77034
1.89463
2.04593
2.2149
2.42483
2.71479
3.08995
3.49248
3.87719
4.31001
5.02552
8.14678
1.02876
1.11041
1.17581
1.25753
1.36275
1.48189
1.59139
1.69839
1.81223
1.92746
2.0367
2.16311
2.33589
2.55536
2.80234
3.06756
3.40561
4.09414
7.34832
0.739923
0.825605
0.916469
1.02624
1.1579
1.30276
1.44461
1.57181
1.67939
1.76519
1.82828
1.89358
1.98751
2.11863
2.28426
2.48991
2.78451
3.42732
6.59328
0.558436
0.63086
0.717492
0.826271
0.958966
1.10825
1.25912
1.39663
1.50624
1.57574
1.61484
1.64891
1.70347
1.79222
1.92168
2.09772
2.36872
2.95896
5.926
0.446059
0.503377
0.575585
0.66932
0.787049
0.924004
1.06774
1.20213
1.31046
1.37911
1.41564
1.44342
1.48742
1.56276
1.67694
1.83952
2.0907
2.62557
5.37606
0.375634
0.421077
0.479102
0.555444
0.653212
0.770093
0.897024
1.02001
1.1237
1.19665
1.24255
1.27979
1.32929
1.40531
1.51551
1.66893
1.89887
2.37723
4.91486
0.330347
0.367891
0.415333
0.477304
0.556936
0.653546
0.761186
0.869407
0.966489
1.04378
1.10223
1.15433
1.21571
1.29774
1.40674
1.54996
1.75576
2.17639
4.51788
0.300644
0.333496
0.3739
0.425661
0.491454
0.57146
0.662251
0.756919
0.846787
0.925808
0.994741
1.06045
1.13329
1.22087
1.32717
1.45747
1.6367
2.00155
4.17034
0.280981
0.311165
0.34733
0.392444
0.448794
0.516955
0.594952
0.678271
0.761268
0.839977
0.914929
0.989861
1.07037
1.16024
1.26091
1.37597
1.52797
1.84471
3.8686
0.267907
0.296591
0.33027
0.371213
0.421236
0.480987
0.549418
0.62381
0.700726
0.777729
0.854953
0.934361
1.01785
1.10614
1.19855
1.29742
1.42359
1.70297
3.59785
0.259136
0.286975
0.319124
0.357327
0.402993
0.456736
0.518067
0.58546
0.656941
0.731059
0.807599
0.887262
0.969464
1.05284
1.13537
1.21867
1.32156
1.57187
3.34909
0.253079
0.280408
0.311526
0.347786
0.390279
0.439546
0.495423
0.55711
0.623519
0.693753
0.767344
0.84392
0.921551
0.997634
1.06968
1.13903
1.22264
1.44979
3.11516
0.248596
0.275556
0.305876
0.340612
0.380607
0.426321
0.477755
0.534516
0.595992
0.661536
0.730449
0.801672
0.872593
0.940076
1.00171
1.05913
1.12902
1.33688
2.88278
0.244859
0.271489
0.301102
0.33452
0.372393
0.415092
0.462685
0.514971
0.57155
0.631836
0.694937
0.759421
0.822501
0.880991
0.932723
0.979758
1.04041
1.23304
2.6504
0.241271
0.267567
0.296503
0.328711
0.36468
0.404693
0.448817
0.496915
0.548639
0.603359
0.66003
0.717057
0.77186
0.821495
0.864095
0.901748
0.955993
1.13826
2.43191
0.23739
0.263344
0.291625
0.322702
0.356924
0.394486
0.435417
0.47957
0.526563
0.575675
0.625734
0.675078
0.721642
0.762865
0.797321
0.827
0.877088
1.05141
2.22608
0.232887
0.258486
0.286155
0.316191
0.348821
0.384148
0.42215
0.462632
0.505143
0.548856
0.59251
0.634482
0.673085
0.706488
0.733842
0.757744
0.804861
0.968625
2.03016
0.227467
0.252708
0.279819
0.308937
0.340156
0.373492
0.40886
0.446011
0.484414
0.523142
0.560859
0.596003
0.627193
0.653352
0.674331
0.694331
0.738477
0.886941
1.84229
0.220809
0.245675
0.272279
0.30064
0.330674
0.36231
0.395398
0.429632
0.464399
0.49867
0.531032
0.559969
0.584344
0.603688
0.618588
0.635113
0.675374
0.805978
1.64997
0.21251
0.23692
0.263055
0.29081
0.319927
0.350218
0.381461
0.413277
0.444943
0.475287
0.50279
0.525959
0.543898
0.556541
0.565334
0.577236
0.610991
0.72402
1.46464
0.20204
0.225766
0.251347
0.278567
0.307076
0.336459
0.366419
0.396462
0.425628
0.452473
0.475315
0.492662
0.504037
0.509609
0.511488
0.516767
0.542302
0.641035
1.29112
0.188771
0.211283
0.235947
0.262515
0.290595
0.319571
0.349032
0.378279
0.405761
0.429417
0.447291
0.458059
0.462001
0.459813
0.453801
0.451261
0.469233
0.557404
1.12872
0.172151
0.192429
0.215247
0.240482
0.267824
0.296833
0.326911
0.357113
0.384408
0.405177
0.417011
0.419196
0.414073
0.403476
0.389528
0.379578
0.391319
0.472564
0.973436
0.15217
0.168579
0.187729
0.209826
0.234993
0.263482
0.295392
0.329843
0.360489
0.37908
0.382727
0.372083
0.354828
0.335711
0.31548
0.300451
0.307973
0.387223
0.851128
0.13007
0.140644
0.153462
0.169049
0.188172
0.212429
0.245212
0.288807
0.333277
0.3521
0.344618
0.31294
0.276432
0.250964
0.22992
0.215329
0.22074
0.296885
0.784962
0.108782
0.112256
0.116537
0.121929
0.129039
0.139643
0.159714
0.206631
0.305727
0.330827
0.3117
0.250355
0.170681
0.150073
0.139945
0.133803
0.136258
0.181731
0.806556
)
;

boundaryField
{
    leftWall
    {
        type            epsilonWallFunction;
        value           nonuniform List<scalar> 
50
(
0.0158396
0.0247636
0.0368115
0.0476409
0.0577528
0.0675228
0.077246
0.0871488
0.104772
0.123334
0.141383
0.160012
0.178992
0.172285
0.161991
0.158057
0.159936
0.163953
0.168133
0.171649
0.174101
0.175286
0.17513
0.173644
0.170921
0.167127
0.162483
0.157236
0.151638
0.145924
0.140302
0.134948
0.130003
0.125579
0.12176
0.118608
0.116167
0.114466
0.11353
0.113397
0.114146
0.115924
0.118968
0.123601
0.130162
0.138868
0.149577
0.161539
0.173235
0.182191
)
;
    }
    rightWall
    {
        type            epsilonWallFunction;
        value           nonuniform List<scalar> 
50
(
0.152365
0.153285
0.223968
0.316419
0.429645
0.589491
0.804072
1.07916
1.51177
1.9544
1.62228
1.81125
3.55376
6.30744
9.10802
11.1436
12.7114
13.5546
13.4815
12.7001
11.4967
10.3913
9.56934
8.9046
8.14678
7.34832
6.59328
5.926
5.37606
4.91486
4.51788
4.17034
3.8686
3.59785
3.34909
3.11516
2.88278
2.6504
2.43191
2.22608
2.03016
1.84229
1.64997
1.46464
1.29112
1.12872
0.973436
0.851128
0.784962
0.806556
)
;
    }
    lowerWall
    {
        type            epsilonWallFunction;
        value           nonuniform List<scalar> 
62
(
0.0158396
0.0480441
0.0854474
0.12389
0.160223
0.19386
0.225179
0.254514
0.282099
0.308197
0.333233
0.357817
0.382839
0.410519
0.440145
0.469535
0.498335
0.524485
0.537931
0.515412
0.420496
0.225772
0.0432333
0.0432333
0.0699909
0.1194
0.194063
0.336401
0.632689
1.19711
2.31918
2.36194
1.51642
1.76918
3.19435
0.705242
1.30421
2.04509
2.59722
3.01219
3.31754
3.53798
3.71513
0.705242
1.60691
2.52379
3.44861
4.41476
5.37344
6.37936
7.18005
7.30688
6.35964
4.51736
2.80056
1.91042
1.51473
1.38771
1.26067
1.02299
0.600515
0.152365
)
;
    }
    atmosphere
    {
        type            inletOutlet;
        inletValue      uniform 0.1;
        value           nonuniform List<scalar> 
46
(
0.182191
0.0966753
0.0788205
0.0711054
0.0669326
0.0645399
0.0632394
0.0627105
0.0627979
0.0634437
0.0646703
0.0666056
0.0696142
0.0748556
0.1
0.1
0.1
0.1
0.1
0.1
0.1
0.1
0.1
0.1
0.1
0.1
0.1
0.1
0.1
0.1
0.1
0.1
0.1
0.1
0.1
0.305727
0.330827
0.3117
0.250355
0.1
0.1
0.1
0.1
0.1
0.1
0.806556
)
;
    }
    defaultFaces
    {
        type            empty;
    }
}


// ************************************************************************* //
