/*--------------------------------*- C++ -*----------------------------------*\
  =========                 |
  \\      /  F ield         | OpenFOAM: The Open Source CFD Toolbox
   \\    /   O peration     | Website:  https://openfoam.org
    \\  /    A nd           | Version:  9
     \\/     M anipulation  |
\*---------------------------------------------------------------------------*/
FoamFile
{
    format      ascii;
    class       volScalarField;
    location    "0.9";
    object      nut;
}
// * * * * * * * * * * * * * * * * * * * * * * * * * * * * * * * * * * * * * //

dimensions      [0 2 -1 0 0 0 0];

internalField   nonuniform List<scalar> 
2268
(
4.89971e-05
4.76945e-05
5.80033e-05
6.5637e-05
7.14314e-05
7.60368e-05
7.98774e-05
8.3196e-05
8.61431e-05
8.88306e-05
9.13577e-05
9.38183e-05
9.63239e-05
9.9148e-05
0.00010196
0.000104744
0.000107539
0.000110132
0.000111617
0.000110054
0.000101862
8.09808e-05
4.70396e-05
0.00010417
0.000285951
0.00040654
0.000493821
0.000556233
0.000604598
0.000646045
0.000684432
0.000721737
0.000759265
0.000798286
0.000839825
0.000883389
0.00092435
0.000959527
0.000992895
0.00102354
0.00104672
0.00104856
0.00100104
0.000865213
0.000601315
0.000147459
0.000119957
0.000530123
0.000784952
0.00096929
0.00110639
0.00121577
0.00131048
0.00139812
0.00148273
0.00156665
0.00165111
0.00173555
0.00181598
0.00188419
0.00193521
0.00196882
0.00198183
0.00196561
0.00189732
0.00173375
0.00141982
0.000915299
0.000174178
0.000131726
0.000748793
0.00113074
0.00140427
0.0016126
0.00178151
0.00192817
0.00206294
0.00219132
0.0023156
0.00243535
0.00254662
0.00264117
0.00270807
0.00274144
0.00274065
0.00270622
0.00263314
0.00249736
0.00224625
0.00180833
0.00112925
0.000205411
0.000141419
0.000942935
0.00144352
0.00179786
0.00207149
0.00229564
0.00249049
0.00266827
0.00283493
0.00299151
0.00313458
0.00325597
0.00334392
0.00338721
0.00338365
0.00333902
0.00326246
0.00315428
0.00298724
0.00269463
0.00217932
0.00135145
0.000245255
0.000149911
0.00111613
0.00172714
0.00215515
0.00248838
0.00276337
0.00300255
0.00321911
0.00341838
0.0035989
0.00375322
0.00386923
0.00393404
0.00394061
0.00389599
0.00381686
0.00372084
0.00360939
0.0034467
0.00314897
0.00259074
0.0016255
0.000300807
0.000157649
0.00127129
0.00198487
0.00248052
0.0028684
0.00319029
0.00347031
0.00372163
0.00394773
0.00414341
0.00429682
0.00439351
0.00442358
0.00438963
0.00431197
0.00421825
0.00412959
0.00404176
0.00390613
0.00362478
0.0030537
0.00197609
0.000369606
0.000164886
0.00141
0.00221894
0.00277721
0.00321564
0.00358115
0.00389891
0.00418102
0.00442775
0.00462913
0.00476937
0.00483493
0.00482449
0.00475536
0.00466159
0.00457735
0.00451936
0.00447102
0.00436952
0.00411054
0.00355508
0.00243688
0.000460649
0.000113735
0.000145749
0.00017283
0.000193983
0.000212523
0.000228514
0.000243643
0.000251955
0.000249052
0.000230517
0.000198171
0.000168674
0.000152596
0.000145432
0.000143256
0.000138328
0.000127895
0.00010627
0.000106246
0.000424941
0.000760039
0.000896994
0.00109433
0.00136326
0.00165389
0.0018943
0.00205619
0.00211831
0.00202185
0.00178025
0.00150909
0.00131813
0.00125517
0.00119296
0.00109568
0.000932502
0.000681478
0.000211821
0.000496567
0.00127798
0.00162669
0.00208508
0.00259119
0.00305582
0.00343266
0.00371185
0.00382355
0.00368801
0.00330686
0.00284738
0.00250261
0.00232392
0.00214976
0.00189492
0.00151013
0.000975725
0.000241054
0.000537602
0.0017151
0.002277
0.00290931
0.0035251
0.00405573
0.00449279
0.00482369
0.00496806
0.00484785
0.00443759
0.00389753
0.00345272
0.00316042
0.00286481
0.00246325
0.00189406
0.00114083
0.000274302
0.000564195
0.00206229
0.00279772
0.00352142
0.00417661
0.00472853
0.00519169
0.00554545
0.00572421
0.00565324
0.0052733
0.00470836
0.00420082
0.00381143
0.00341001
0.0029
0.00221028
0.00130108
0.000309135
0.000582138
0.00231939
0.00318273
0.00394693
0.00460573
0.00516439
0.00564139
0.00601424
0.00623291
0.0062291
0.0059088
0.00534006
0.00478807
0.00431935
0.00383655
0.003262
0.00251799
0.00151061
0.000348118
0.000594805
0.00249943
0.00344868
0.00422608
0.00487246
0.00543783
0.00593041
0.00632653
0.00658578
0.00665107
0.0064044
0.00583884
0.00524774
0.00471757
0.0041768
0.00357282
0.00282588
0.0017866
0.000388539
0.00060586
0.00262989
0.00362524
0.0043914
0.00503025
0.0056059
0.00612177
0.00654485
0.00684113
0.006961
0.00677931
0.00623006
0.00561055
0.00503083
0.00444785
0.00382964
0.00309733
0.00209055
0.000430399
0.000176292
0.00160127
0.00255109
0.00320205
0.00371552
0.00414603
0.00451896
0.00484251
0.00510946
0.00530171
0.00540127
0.00540572
0.00533788
0.00523976
0.00515916
0.00512413
0.00512936
0.0051326
0.00505338
0.00479288
0.00426913
0.00341003
0.00210585
0.00018515
0.00174569
0.00284502
0.00360547
0.00421307
0.00472835
0.0051726
0.00554209
0.00581357
0.00595996
0.00597742
0.00590612
0.00582028
0.00578592
0.00582688
0.0059231
0.00602833
0.00607414
0.00596331
0.00561759
0.00502751
0.00419463
0.00306057
0.000191348
0.00181467
0.00304133
0.00390528
0.00460569
0.00520457
0.00571343
0.00610915
0.00635096
0.0064195
0.0063592
0.00627928
0.0062959
0.00645212
0.00668158
0.00689338
0.00704551
0.0070483
0.00680258
0.00632384
0.00566806
0.00487008
0.00386067
0.000195652
0.0018207
0.00315138
0.0041103
0.00490336
0.0055874
0.00615716
0.00656412
0.00675838
0.00676017
0.00669441
0.00673525
0.00699642
0.00742324
0.00777368
0.00791688
0.0079565
0.0078198
0.0074321
0.00689818
0.0062965
0.0056456
0.00486608
0.000206119
0.0018026
0.00319336
0.00422374
0.00509975
0.00586783
0.00649989
0.00692
0.00708828
0.00709594
0.00714692
0.00742806
0.00794913
0.00844143
0.00862498
0.008625
0.00852643
0.00827351
0.00785145
0.0073509
0.00689256
0.00643967
0.00591022
0.000205511
0.00174661
0.00315005
0.00422599
0.00517152
0.00602042
0.00671989
0.00717683
0.00738273
0.00749405
0.00772012
0.00812775
0.00857116
0.008833
0.00893817
0.00904182
0.00894464
0.00865538
0.00824157
0.00779143
0.00741061
0.0071087
0.00683936
0.000200918
0.00164536
0.00304573
0.00417053
0.00518102
0.00610606
0.00687969
0.00740889
0.00770951
0.0079429
0.00825595
0.00862679
0.00891196
0.00904292
0.00915022
0.00932646
0.00933126
0.00908306
0.00872386
0.00833236
0.00797736
0.00770682
0.00753431
0.000196004
0.00154175
0.00293162
0.00409745
0.0051645
0.00615664
0.00700453
0.00761619
0.00800558
0.00831106
0.00864423
0.00897049
0.00917495
0.00925501
0.00938004
0.00960411
0.00970201
0.00956361
0.0092998
0.00898129
0.00865141
0.00836043
0.00814586
0.000194226
0.0014682
0.00283833
0.00402432
0.00512378
0.0061593
0.00706516
0.00774777
0.00820303
0.00854079
0.00886127
0.00914927
0.00932134
0.00938551
0.00951329
0.00981284
0.0100845
0.0100892
0.0099189
0.00967541
0.0093831
0.00907975
0.00881905
0.000194563
0.00144095
0.00278712
0.00397462
0.00508139
0.00613301
0.00707455
0.00781249
0.0083178
0.00866874
0.00896134
0.00921012
0.00936346
0.00942145
0.00951641
0.00981118
0.010267
0.0105708
0.0105277
0.0103429
0.0101048
0.0098224
0.00952465
0.000195745
0.00144397
0.00278247
0.00396667
0.00506221
0.00610421
0.00705868
0.00783832
0.00838761
0.00875038
0.00901405
0.0092211
0.0093537
0.00940677
0.00946143
0.00966384
0.0101158
0.0106744
0.0109886
0.0109313
0.0107442
0.0105246
0.0102595
0.000197074
0.00146214
0.00281092
0.00399654
0.00507871
0.00609958
0.00704513
0.00784627
0.00843638
0.00882072
0.0090663
0.00923359
0.00933841
0.00938137
0.00939963
0.00948879
0.00978892
0.0103308
0.0109094
0.0112674
0.0112528
0.0111045
0.0109067
0.00019819
0.001487
0.00285859
0.00405302
0.00512566
0.00612379
0.00705091
0.00785934
0.00848342
0.00889991
0.00914869
0.00929262
0.00937178
0.00939934
0.00938824
0.00938308
0.00949055
0.00982615
0.0103728
0.0109419
0.0113291
0.0114479
0.0113644
0.000198909
0.00151277
0.00291392
0.00412385
0.0051934
0.00617288
0.00707928
0.0078862
0.00853895
0.0089987
0.00927696
0.00942404
0.00949047
0.00950334
0.00947039
0.00940461
0.00936371
0.00945737
0.00976718
0.0102539
0.0107796
0.011177
0.0113733
0.000199147
0.00153568
0.00296838
0.00419825
0.00527104
0.00623816
0.00712592
0.00792604
0.00860022
0.00910733
0.00943695
0.00961802
0.00969666
0.00970817
0.00966553
0.00957084
0.00944691
0.00936404
0.00941759
0.00965821
0.0100514
0.0104902
0.0108897
0.000198874
0.00155353
0.00301621
0.00426788
0.00534862
0.00630956
0.00718275
0.00797354
0.00866047
0.00920966
0.00959982
0.00983906
0.00995889
0.00999316
0.0099608
0.00986555
0.009715
0.00954564
0.00942765
0.00943379
0.00959639
0.00988768
0.0102364
0.000198091
0.00156534
0.00305396
0.00432687
0.0054182
0.00637782
0.0072408
0.00802175
0.00871338
0.00929316
0.00973908
0.0100456
0.0102278
0.0103101
0.0103124
0.0102432
0.0101074
0.00992398
0.00973634
0.00960478
0.00958137
0.00968558
0.00989769
0.000196833
0.00157102
0.00307995
0.00437159
0.00547412
0.00643547
0.00729191
0.00806373
0.00875405
0.00935161
0.0098396
0.0102074
0.0104577
0.0106039
0.0106612
0.0106402
0.0105475
0.0103956
0.010211
0.0100356
0.00991509
0.00988296
0.00995181
0.00019516
0.00157106
0.00309384
0.00440023
0.00551285
0.00647726
0.00732968
0.0080935
0.00877873
0.00938319
0.00989723
0.0103111
0.0106213
0.0108326
0.0109539
0.0109941
0.0109608
0.0108642
0.0107221
0.010562
0.0104175
0.0103198
0.0102924
0.000193149
0.00156626
0.00309613
0.00441234
0.00553263
0.00649998
0.00734972
0.00810654
0.00878457
0.00938812
0.0099141
0.0103564
0.0107105
0.0109763
0.0111576
0.0112602
0.0112907
0.0112574
0.0111731
0.0110562
0.0109301
0.0108191
0.0107473
0.000190887
0.00155752
0.00308785
0.00440844
0.00553308
0.00650215
0.00734951
0.00809995
0.00876972
0.00936725
0.00989458
0.0103498
0.01073
0.0110337
0.0112619
0.0114178
0.0115058
0.0115322
0.0115062
0.0114403
0.0113504
0.0112546
0.0111735
0.000188466
0.00154566
0.00307027
0.0043897
0.00551492
0.00648377
0.00732826
0.00807247
0.0087334
0.00932183
0.00984329
0.0102995
0.0106901
0.0110145
0.0112728
0.0114667
0.011599
0.0116738
0.0116976
0.0116786
0.0116277
0.0115581
0.0114863
0.000185975
0.0015314
0.00304475
0.00435777
0.00547971
0.00644602
0.00728666
0.00802444
0.00867615
0.00925365
0.00976463
0.0102135
0.0106024
0.0109325
0.0112045
0.0114197
0.01158
0.0116882
0.0117485
0.0117665
0.0117494
0.011707
0.0116518
0.000183498
0.00151539
0.00301275
0.00431469
0.00542977
0.00639118
0.00722672
0.00795759
0.00859978
0.00916533
0.00966304
0.0100992
0.0104779
0.0108021
0.011074
0.0112953
0.011468
0.0115942
0.0116769
0.0117198
0.0117282
0.0117089
0.0116715
0.00018111
0.00149827
0.00297592
0.00426294
0.00536804
0.00632237
0.00715155
0.00787494
0.00850736
0.00906042
0.00954333
0.00996339
0.0103264
0.0106368
0.0108983
0.0111137
0.0112857
0.0114165
0.0115088
0.0115655
0.0115906
0.0115892
0.0115683
0.000178882
0.00148079
0.00293611
0.00420537
0.00529806
0.00624352
0.00706521
0.00778058
0.00840303
0.0089434
0.00941081
0.00981311
0.0101571
0.0104486
0.0106928
0.0108939
0.0110556
0.0111809
0.0112729
0.0113344
0.0113689
0.0113806
0.0113747
0.000176876
0.00146382
0.00289542
0.00414515
0.00522379
0.00615909
0.00697243
0.00767936
0.00829177
0.00881953
0.00927134
0.00965521
0.00997862
0.0102486
0.0104714
0.0106528
0.0107979
0.010911
0.0109958
0.0110558
0.0110946
0.0111159
0.0111239
0.000175147
0.00144834
0.00285613
0.00408569
0.00514946
0.00607385
0.00687831
0.00757657
0.00817903
0.00869446
0.00913099
0.00949655
0.00979904
0.0100463
0.0102459
0.0104049
0.0105299
0.0106265
0.0106999
0.0107545
0.0107942
0.0108228
0.0108438
0.000173741
0.00143534
0.00282055
0.00403041
0.00507934
0.00599263
0.00678803
0.0074776
0.00807031
0.00857388
0.00899575
0.00934364
0.00962568
0.00985034
0.0100262
0.0101618
0.010265
0.0103431
0.0104027
0.0104492
0.0104875
0.0105216
0.0105545
0.000172695
0.00142579
0.00279092
0.00398262
0.00501751
0.00592003
0.00670649
0.00738749
0.00797076
0.00846302
0.00887106
0.00920229
0.00946491
0.00966787
0.00982063
0.00993279
0.0100138
0.0100723
0.0101165
0.010153
0.0101877
0.0102251
0.0102684
0.000172041
0.00142053
0.00276932
0.0039454
0.00496773
0.00586022
0.00663803
0.00731064
0.00788476
0.00836629
0.00876141
0.0090772
0.00932182
0.00950453
0.0096354
0.00972501
0.00978397
0.00982249
0.00984991
0.00987435
0.00990304
0.00994126
0.00999198
0.000171808
0.00142037
0.00275766
0.00392148
0.00493326
0.00581667
0.00658617
0.00725046
0.00781557
0.00828681
0.0086699
0.00897159
0.00919993
0.00936427
0.00947506
0.00954353
0.00958124
0.00959956
0.00960909
0.00961991
0.00963999
0.00967523
0.00972905
0.000172037
0.00142609
0.00275764
0.00391315
0.00491661
0.00579191
0.00655324
0.00720901
0.00776495
0.0082261
0.00859791
0.00888689
0.00910089
0.00924917
0.00934224
0.00939164
0.0094095
0.00940802
0.00939937
0.00939436
0.00940213
0.00942962
0.00948102
0.000172792
0.00143844
0.00277053
0.00392184
0.00491913
0.00578703
0.00654
0.00718665
0.00773287
0.0081838
0.00854488
0.00882251
0.00902431
0.00915927
0.00923766
0.00927091
0.00927124
0.00925148
0.00922424
0.00920123
0.00919279
0.00920709
0.00924947
0.000174158
0.00145786
0.00279659
0.00394747
0.00494038
0.00580122
0.00654526
0.00718181
0.00771739
0.00815765
0.00850834
0.00877591
0.00896779
0.00909258
0.00916004
0.00918103
0.00916741
0.00913171
0.00908652
0.00904416
0.00901597
0.0090115
0.00903757
0.000176235
0.00148384
0.00283417
0.00398758
0.00497748
0.00583135
0.00656571
0.00719101
0.00771486
0.00814381
0.00848426
0.00874295
0.00892725
0.0090453
0.00910616
0.00911975
0.00909696
0.00904922
0.00898852
0.00892711
0.00887694
0.00884879
0.0088512
0.000179087
0.00151421
0.00287885
0.00403686
0.00502489
0.00587205
0.00659622
0.00720935
0.00772052
0.00813758
0.00846791
0.0087188
0.00889771
0.00901242
0.0090712
0.00908287
0.00905682
0.00900286
0.00893148
0.008854
0.00878219
0.00872753
0.0087001
0.000182686
0.00154489
0.00292368
0.00408762
0.00507522
0.0059165
0.00663069
0.0072314
0.00772951
0.00813449
0.00845497
0.00869903
0.00887441
0.00898868
0.00904943
0.00906432
0.00904153
0.00898878
0.00891425
0.00882727
0.00873833
0.00865849
0.00859856
0.000186842
0.0015707
0.00296085
0.00413168
0.00512076
0.00595787
0.00666326
0.00725233
0.00773792
0.00813132
0.00844261
0.0086808
0.00885406
0.00896993
0.00903536
0.00905668
0.00904274
0.00899913
0.00893106
0.00884505
0.00874908
0.00865227
0.00856436
0.000191178
0.00158724
0.00298452
0.00416293
0.0051556
0.00599077
0.00668944
0.00726873
0.00774347
0.00812678
0.00843016
0.0086636
0.0088359
0.00895482
0.00902611
0.00905204
0.0090492
0.00902093
0.00896906
0.00889708
0.00880981
0.00871297
0.00861308
0.000195147
0.00159277
0.00299339
0.00417941
0.00517703
0.0060123
0.00670676
0.00727906
0.00774577
0.00812154
0.00841906
0.00864929
0.008822
0.00894602
0.00902407
0.00904359
0.00904823
0.00903676
0.00900743
0.00896145
0.00890086
0.0088278
0.00874448
0.000198023
0.00159047
0.00299239
0.00418422
0.00518597
0.00602217
0.00671478
0.00728349
0.00774592
0.00811764
0.00841209
0.00864094
0.00881523
0.00894479
0.00902686
0.00902693
0.00902967
0.00902876
0.00902088
0.00900608
0.00898485
0.00895731
0.00892324
0.000467166
0.00040154
0.000430801
0.00051648
0.00192386
0.00141771
0.00109876
0.00104071
0.00285088
0.00229037
0.00187083
0.00169934
0.00402833
0.00351239
0.00306419
0.00276765
0.00528249
0.00488147
0.00450362
0.00419704
0.00640894
0.00613524
0.00587368
0.00564424
0.00733878
0.00719178
0.00703647
0.00689622
0.0080045
0.00795386
0.00790511
0.00784022
0.00863354
0.00855703
0.0085072
0.00846342
0.00928772
0.00916603
0.00907422
0.00900544
0.0100167
0.00987169
0.00974496
0.00964359
0.0107337
0.010615
0.0104905
0.0103679
0.0112887
0.0112188
0.0111172
0.0110111
0.0114489
0.0114894
0.0114676
0.0114006
0.011104
0.011195
0.0112414
0.0112766
0.0104829
0.0106385
0.0107863
0.0109253
0.0100937
0.010234
0.010386
0.0105441
0.0100686
0.0101576
0.0102647
0.0103881
0.0103333
0.0103707
0.0104279
0.0104997
0.0107381
0.0107359
0.0107499
0.0107775
0.011139
0.0111133
0.0110973
0.0110896
0.0114432
0.0114064
0.0113731
0.0113422
0.0116096
0.0115699
0.0115289
0.0114855
0.0116353
0.0115978
0.0115558
0.0115083
0.0115409
0.0115087
0.0114706
0.0114257
0.0113579
0.0113334
0.0113027
0.0112651
0.0111189
0.0111037
0.0110831
0.0110563
0.0108515
0.0108467
0.0108378
0.0108242
0.0105752
0.0105813
0.0105849
0.0105852
0.0103013
0.0103179
0.0103337
0.0103479
0.010035
0.0100608
0.0100875
0.0101144
0.00977889
0.00981136
0.0098465
0.0098836
0.00953329
0.00956946
0.00960994
0.00965403
0.00929877
0.0093349
0.00937688
0.00942404
0.0090776
0.00910933
0.00914828
0.00919387
0.00887507
0.00889757
0.00892834
0.00896699
0.00870104
0.00870933
0.0087264
0.00875211
0.00857152
0.0085614
0.0085596
0.00856635
0.00850922
0.00847926
0.00845575
0.00843926
0.0085395
0.00849453
0.00845259
0.00841439
0.00867593
0.00863086
0.00858503
0.00853887
0.00889275
0.00887151
0.00884859
0.00882398
0.000986651
0.00283356
0.00380663
0.00453172
0.00516852
0.00577094
0.00632457
0.00678201
0.00711561
0.00728611
0.00718384
0.00669356
0.00604966
0.00540014
0.00475545
0.00408913
0.00333123
0.00236322
0.000483735
0.00143198
0.00298673
0.00387854
0.0045708
0.00524516
0.00592723
0.00654808
0.00705901
0.00743362
0.00763839
0.00756913
0.00709104
0.00638167
0.00562723
0.00486083
0.00409264
0.00325834
0.00230927
0.000498804
0.00190031
0.00312496
0.00394011
0.0046357
0.00537542
0.00613741
0.00681144
0.00736235
0.00777066
0.008006
0.0079633
0.00746213
0.00664548
0.00573807
0.00481316
0.00389763
0.00298363
0.00204305
0.000455383
0.00267107
0.00348606
0.00420013
0.0048965
0.0056691
0.00645207
0.00713724
0.00769934
0.00812914
0.00839458
0.00837949
0.0078933
0.00701751
0.00598298
0.00490423
0.00383801
0.00277263
0.00175931
0.000516946
0.0039285
0.0043067
0.00483214
0.0054433
0.00614787
0.00687568
0.007528
0.00806682
0.00849566
0.00878633
0.00880358
0.0083721
0.00753857
0.00648123
0.00534442
0.0042687
0.00299744
0.00193169
0.000697541
0.00538532
0.00545506
0.00574487
0.00619349
0.0067709
0.00739457
0.00797154
0.00845248
0.00885752
0.00916541
0.0092283
0.00885997
0.00811725
0.00710287
0.00604601
0.00522428
0.00368025
0.00251656
0.000842153
0.00671549
0.00663676
0.00674056
0.0070304
0.00746813
0.00796989
0.00844537
0.00884339
0.00920488
0.00951429
0.00962204
0.00931865
0.00866204
0.00770822
0.00687007
0.00569075
0.00433018
0.00344737
0.000934738
0.00773324
0.00761861
0.00764268
0.00784249
0.0081723
0.008554
0.00891428
0.009224
0.00952494
0.00983463
0.00995833
0.00972413
0.00915864
0.00830138
0.00752863
0.00600822
0.00526622
0.00470138
0.000992997
0.0084147
0.00835756
0.0083887
0.00855114
0.0087785
0.00904614
0.00932237
0.00955873
0.00984191
0.0101522
0.0102721
0.0100828
0.00958499
0.00886006
0.00813666
0.00663684
0.00664136
0.00585103
0.00103469
0.00896279
0.00896145
0.00898937
0.00910782
0.00925675
0.00943668
0.00963982
0.00986064
0.0101904
0.0104823
0.0105768
0.0103907
0.00992685
0.00934465
0.00855911
0.00753294
0.00782843
0.00668199
0.00104807
0.00954856
0.00946804
0.00947381
0.00953522
0.00964044
0.00977232
0.00996269
0.0102505
0.0105746
0.0108091
0.0108409
0.0106255
0.010177
0.00963378
0.00888483
0.0083925
0.00857477
0.00705323
0.00103865
0.0102091
0.0100407
0.0099611
0.0099503
0.0100243
0.010174
0.0104002
0.0106874
0.0109493
0.0110873
0.0110302
0.0107661
0.0103243
0.00980459
0.00922808
0.00902911
0.00894051
0.00705932
0.00101015
0.0108547
0.0106766
0.0105226
0.01047
0.0105376
0.0106736
0.0108496
0.0110716
0.0112404
0.0112784
0.0111548
0.0108712
0.0104517
0.0099705
0.00959307
0.00944598
0.00902751
0.00688846
0.000981689
0.0113036
0.011186
0.011014
0.0109548
0.0110293
0.0111299
0.0112073
0.0113424
0.0114237
0.0114097
0.0112512
0.010953
0.0105606
0.0101779
0.00991789
0.0096789
0.00893568
0.00662489
0.000962878
0.0113308
0.0113677
0.0113028
0.0112679
0.0113123
0.0113748
0.0114282
0.0115038
0.0115474
0.0115101
0.0113395
0.0110414
0.010702
0.0104043
0.0101573
0.009775
0.0087368
0.00628949
0.000935815
0.011136
0.0113051
0.0113662
0.0114154
0.0114869
0.0115527
0.011578
0.0116186
0.0116457
0.0116048
0.011448
0.011188
0.0108938
0.0106205
0.010323
0.00978501
0.00847105
0.00588502
0.000881463
0.0108068
0.0110931
0.0112957
0.0114394
0.0115423
0.0116121
0.0116504
0.0116925
0.0117264
0.0117021
0.0115777
0.0113591
0.0110898
0.0108018
0.0104249
0.0096893
0.00817851
0.0054673
0.000814577
0.0106156
0.0109199
0.0111771
0.0113706
0.0115022
0.0115843
0.0116395
0.0116943
0.011743
0.0117459
0.0116619
0.0114877
0.0112449
0.0109344
0.0104533
0.00954636
0.00789761
0.00509461
0.000759477
0.0106478
0.0108877
0.0111119
0.0112874
0.0114068
0.0114844
0.0115422
0.0116038
0.0116658
0.0116947
0.0116526
0.0115258
0.0113124
0.0109828
0.0104235
0.00940264
0.0076637
0.00480385
0.000718027
0.0108438
0.0109816
0.0111168
0.0112211
0.0112884
0.0113336
0.0113777
0.0114358
0.0115025
0.0115525
0.0115517
0.0114753
0.0112986
0.0109684
0.0103584
0.0092892
0.00749389
0.00460216
0.000687858
0.0110924
0.011132
0.0111673
0.0111817
0.0111769
0.0111708
0.0111835
0.0112257
0.0112912
0.0113571
0.0113935
0.0113656
0.0112283
0.0109116
0.0102971
0.00920821
0.00738617
0.00447458
0.000665183
0.0112988
0.0112657
0.0112202
0.0111567
0.0110844
0.0110251
0.011
0.0110196
0.0110781
0.0111553
0.011221
0.0112341
0.0111369
0.0108475
0.0102458
0.00915718
0.00732718
0.00439928
0.000647151
0.0114142
0.0113346
0.0112366
0.0111218
0.0110034
0.0109048
0.0108491
0.0108484
0.0108992
0.0109834
0.011071
0.0111157
0.011052
0.0107906
0.0102078
0.00912889
0.00729939
0.00435476
0.000632054
0.0114258
0.0113222
0.0111989
0.0110604
0.0109214
0.0108043
0.0107321
0.0107193
0.0107665
0.0108576
0.0109604
0.0110269
0.0109872
0.0107474
0.0101812
0.00911299
0.00728655
0.00432646
0.000619857
0.0113452
0.0112381
0.0111115
0.0109721
0.0108344
0.0107186
0.0106465
0.0106334
0.0106822
0.0107791
0.0108918
0.0109706
0.0109438
0.010716
0.0101596
0.00909886
0.00727618
0.00430685
0.000608916
0.0111969
0.0111034
0.0109917
0.0108695
0.0107502
0.0106515
0.0105927
0.0105883
0.0106425
0.0107434
0.0108598
0.010941
0.0109162
0.0106898
0.010135
0.00907717
0.00725784
0.00428757
0.00059798
0.0110075
0.0109402
0.0108567
0.0107647
0.0106754
0.0106039
0.0105666
0.0105766
0.010638
0.0107403
0.0108539
0.0109285
0.0108953
0.0106605
0.0100998
0.00904093
0.00722353
0.00425917
0.000586916
0.0107993
0.0107657
0.0107188
0.0106645
0.0106119
0.010573
0.0105614
0.0105882
0.0106569
0.0107574
0.010862
0.0109223
0.010872
0.0106209
0.0100485
0.00898594
0.00717094
0.00421828
0.000575132
0.0105862
0.01059
0.0105835
0.0105703
0.0105569
0.0105526
0.0105679
0.0106118
0.0106864
0.0107821
0.0108724
0.0109123
0.0108384
0.0105651
0.00997726
0.00890973
0.00710051
0.00416574
0.000561694
0.0103745
0.0104159
0.0104501
0.0104782
0.0105041
0.0105341
0.0105758
0.0106356
0.0107144
0.0108022
0.0108746
0.0108895
0.0107877
0.0104891
0.00988355
0.00881025
0.00701065
0.00410567
0.000547541
0.0101645
0.0102413
0.010314
0.0103816
0.0104449
0.0105074
0.0105739
0.0106481
0.0107293
0.0108072
0.0108591
0.0108466
0.0107147
0.0103891
0.00976543
0.00868626
0.00690048
0.00404049
0.000533487
0.00995327
0.0100612
0.0101686
0.0102721
0.0103699
0.0104625
0.0105518
0.0106389
0.010721
0.0107879
0.0108182
0.0107772
0.0106145
0.0102622
0.00962163
0.0085387
0.00677213
0.00396927
0.000519212
0.00973788
0.00987024
0.010007
0.0101418
0.0102703
0.0103901
0.0105
0.0105985
0.0106808
0.0107362
0.0107448
0.0106755
0.0104828
0.0101053
0.00945036
0.00836849
0.0066265
0.00388516
0.000504536
0.00951551
0.00966428
0.00982316
0.00998351
0.0101383
0.010282
0.0104105
0.0105192
0.0106014
0.0106454
0.0106328
0.0105359
0.0103147
0.00991405
0.00924793
0.0081732
0.00646234
0.00378455
0.00048906
0.00928518
0.00944043
0.00961242
0.0097914
0.00996714
0.0101313
0.0102764
0.0103947
0.0104768
0.01051
0.0104767
0.0103528
0.0101043
0.00968292
0.00900939
0.00794779
0.00627568
0.00366926
0.000471752
0.00904902
0.00919849
0.00937248
0.00956075
0.00975089
0.00993151
0.0100917
0.0102199
0.010303
0.0103257
0.0102714
0.0101201
0.00984492
0.0094053
0.00872886
0.00768599
0.00605876
0.00353732
0.000454009
0.00881435
0.00894272
0.00910401
0.00928853
0.00948413
0.00967616
0.00985043
0.00999055
0.0100772
0.0100906
0.0100139
0.00983285
0.00953087
0.00907589
0.00840211
0.00738461
0.0058105
0.00338933
0.000436211
0.00859746
0.00868604
0.00881504
0.00897764
0.00916381
0.00935885
0.00954585
0.00970244
0.00979905
0.00980562
0.00970416
0.00948917
0.00915944
0.00869475
0.00803425
0.00705398
0.00554255
0.00322706
0.000417998
0.00842954
0.00845807
0.00852999
0.00864406
0.00879578
0.0089769
0.00917101
0.00935099
0.00947148
0.00947785
0.00934825
0.00909225
0.00873382
0.00827258
0.00764842
0.00672851
0.0052874
0.00306401
0.000398878
0.00836249
0.0083178
0.00830814
0.00833979
0.00841802
0.00854684
0.00872426
0.00892933
0.00910454
0.00912663
0.00896715
0.00866265
0.00827504
0.00784869
0.00731135
0.00650282
0.00514738
0.00295331
0.000383501
0.0084646
0.00836409
0.00827356
0.00820178
0.00816066
0.00816608
0.00824158
0.00842229
0.00872534
0.00879774
0.00861841
0.00828151
0.00787296
0.00756211
0.00721735
0.00663437
0.00543889
0.00312756
0.000374898
0.00878034
0.0087092
0.00862649
0.00853119
0.00842078
0.00828282
0.00808448
0.00788602
0.00841118
0.00857859
0.00841105
0.00815376
0.00794697
0.00796409
0.00793622
0.00774906
0.00705952
0.0047518
0.00038032
)
;

boundaryField
{
    leftWall
    {
        type            nutkWallFunction;
        Cmu             0.09;
        kappa           0.41;
        E               9.8;
        value           nonuniform List<scalar> 
50
(
9.27098e-06
1.23358e-05
1.39963e-05
1.51948e-05
1.61569e-05
1.69836e-05
1.77282e-05
1.84215e-05
1.95234e-05
2.0504e-05
2.13228e-05
2.20992e-05
2.45509e-05
2.26897e-05
1.99599e-05
1.90767e-05
1.90121e-05
1.91862e-05
1.94046e-05
1.9599e-05
1.97403e-05
1.98147e-05
1.98169e-05
1.97461e-05
1.96054e-05
1.94011e-05
1.91427e-05
1.88413e-05
1.85094e-05
1.81595e-05
1.7804e-05
1.74543e-05
1.71209e-05
1.68134e-05
1.65402e-05
1.63086e-05
1.61245e-05
1.59926e-05
1.59166e-05
1.59007e-05
1.59507e-05
1.60763e-05
1.62918e-05
1.66137e-05
1.70552e-05
1.76156e-05
1.8269e-05
1.89578e-05
1.95945e-05
2.00601e-05
)
;
    }
    rightWall
    {
        type            nutkWallFunction;
        Cmu             0.09;
        kappa           0.41;
        E               9.8;
        value           nonuniform List<scalar> 
50
(
2.08738e-05
2.45014e-05
2.75354e-05
3.06998e-05
3.38356e-05
3.73702e-05
4.11642e-05
4.5562e-05
5.05351e-05
5.39564e-05
5.065e-05
5.34137e-05
6.66866e-05
8.04364e-05
0.00010219
9.92125e-05
0.000101407
0.00010319
0.000102883
0.000100968
9.87591e-05
0.00010442
0.000106543
0.000104126
9.99034e-05
9.5708e-05
9.18681e-05
8.84957e-05
8.56359e-05
8.31469e-05
8.09592e-05
7.89105e-05
7.71199e-05
7.54071e-05
7.37355e-05
7.20488e-05
7.00818e-05
6.81298e-05
6.61665e-05
6.41161e-05
6.2091e-05
6.00186e-05
5.77275e-05
5.53422e-05
5.29141e-05
5.04207e-05
4.77866e-05
4.5535e-05
4.42816e-05
4.48046e-05
)
;
    }
    lowerWall
    {
        type            nutkWallFunction;
        Cmu             0.09;
        kappa           0.41;
        E               9.8;
        value           nonuniform List<scalar> 
62
(
4.39126e-06
5.79544e-06
7.02129e-06
7.92555e-06
8.61013e-06
9.15146e-06
9.59911e-06
9.98113e-06
1.03145e-05
1.06114e-05
1.08825e-05
1.11379e-05
1.13887e-05
1.16578e-05
1.193e-05
1.21908e-05
1.24402e-05
1.26618e-05
1.27776e-05
1.26078e-05
1.17996e-05
9.63683e-06
5.62377e-06
5.62377e-06
1.70603e-05
2.0066e-05
2.3313e-05
2.75515e-05
3.33603e-05
4.04458e-05
4.94434e-05
5.00454e-05
4.37069e-05
4.60009e-05
5.48445e-05
1.36766e-05
4.6866e-05
5.37952e-05
5.78377e-05
6.04824e-05
6.22677e-05
6.34959e-05
6.44752e-05
1.36766e-05
1.75586e-05
2.02767e-05
2.23783e-05
2.41895e-05
2.57318e-05
2.71617e-05
2.81235e-05
2.81618e-05
2.68002e-05
2.39302e-05
2.06535e-05
1.84741e-05
1.73121e-05
1.69043e-05
1.63967e-05
1.53353e-05
1.29625e-05
9.36004e-06
)
;
    }
    atmosphere
    {
        type            calculated;
        value           nonuniform List<scalar> 
46
(
0.000198023
0.00159047
0.00299239
0.00418422
0.00518597
0.00602217
0.00671478
0.00728349
0.00774592
0.00811764
0.00841209
0.00864094
0.00881523
0.00894479
0.009
0.009
0.009
0.009
0.009
0.009
0.009
0.009
0.009
0.009
0.009
0.009
0.009
0.009
0.009
0.009
0.009
0.009
0.009
0.009
0.009
0.00841118
0.00857859
0.00841105
0.00815376
0.009
0.009
0.009
0.009
0.009
0.009
0.00038032
)
;
    }
    defaultFaces
    {
        type            empty;
    }
}


// ************************************************************************* //
