/*--------------------------------*- C++ -*----------------------------------*\
  =========                 |
  \\      /  F ield         | OpenFOAM: The Open Source CFD Toolbox
   \\    /   O peration     | Website:  https://openfoam.org
    \\  /    A nd           | Version:  9
     \\/     M anipulation  |
\*---------------------------------------------------------------------------*/
FoamFile
{
    format      ascii;
    class       volScalarField;
    location    "0.9";
    object      p;
}
// * * * * * * * * * * * * * * * * * * * * * * * * * * * * * * * * * * * * * //

dimensions      [1 -1 -2 0 0 0 0];

internalField   nonuniform List<scalar> 
2268
(
871.012
863.767
855.371
846.452
838.065
830.597
824.348
819.549
816.349
814.782
814.746
815.941
817.86
820.028
821.949
822.967
822.766
820.708
815.263
803.504
784.808
761.168
748.573
813.878
806.41
797.981
789.25
781.002
773.524
767.149
762.156
758.726
756.892
756.514
757.272
758.709
760.268
761.38
761.594
760.216
756.513
749.308
736.577
718.197
698.125
687.107
756.327
748.605
740.349
731.919
723.817
716.342
709.871
704.725
701.113
699.067
698.417
698.81
699.753
700.628
700.785
699.667
696.709
691.292
682.52
669.193
651.662
634.288
623.64
698.429
690.232
682.018
673.796
665.761
658.267
651.727
646.492
642.789
640.647
639.883
640.12
640.821
641.304
640.808
638.684
634.426
627.618
617.744
603.965
586.704
569.707
558.656
640.158
631.382
622.958
614.774
606.716
599.18
592.601
587.349
583.659
581.562
580.874
581.207
581.972
582.395
581.577
578.754
573.46
565.444
554.383
539.579
521.821
504.826
492.002
581.383
572.051
563.225
554.935
546.782
539.185
532.595
527.39
523.806
521.881
521.451
522.131
523.265
523.944
523.069
519.706
513.374
503.882
491.081
474.501
455.617
439.101
425.245
521.985
512.195
502.868
494.368
486.069
478.399
471.821
466.716
463.315
461.676
461.676
462.95
464.752
465.994
465.29
461.434
453.782
442.201
427.076
408.073
386.747
369.097
354.776
461.896
451.847
442.012
433.239
424.789
417.053
410.509
405.541
402.379
401.107
401.67
403.738
406.475
408.561
408.165
403.487
393.635
379.358
362.364
340.764
314.562
290.741
273.979
1080.14
1022.83
922.426
773.383
642.735
570.596
577.663
645.494
697.222
671.303
600.3
551.927
531.424
523.016
518.23
512.098
496.937
471.377
462.04
1036.11
980.377
873.256
706.841
566.545
486.346
482.32
539.305
590.03
576.309
522.639
488.451
475.92
465.17
456.109
445.966
430.613
408.467
405.473
1002.68
922.845
793.997
621.711
484.829
402.254
392.208
444.235
494.043
487.924
445.351
422.503
415.681
405.644
393.805
381.629
367.359
351.19
348.544
956.465
841.196
689.599
520.944
391.673
324.323
328.588
380.341
424.864
416.815
371.899
355.699
353.96
344.943
332.417
318.815
305.586
295.141
293.047
885.471
743.216
575.434
413.101
310.744
279.831
298.692
336.168
374.923
365.52
306.041
288.401
294.081
285.666
271.563
255.657
241.311
234.505
234.948
786.316
636.809
460.124
318.615
270.615
260.12
270.595
295.406
333.578
336.222
271.14
231.438
234.393
227.281
212.814
193.952
175.621
168.219
172.866
660.908
529.15
358.865
270.015
253.569
246.207
241.791
255.392
291.645
308.518
261.053
207.392
188.375
177.431
166.02
148.461
131.211
120.82
121.445
512.978
427.393
290.297
251.464
243.955
236.113
221.195
224.409
251.774
267.833
244.712
198.393
169.363
153.561
142.672
129.269
116.221
105.265
101.012
366.972
356.731
346.099
336.759
328.054
320.241
313.817
309.146
306.417
305.763
307.337
310.978
315.739
319.848
320.031
313.016
298.994
282.428
266.185
240.153
203.581
166.36
124.635
235.659
223.612
210.977
199.715
189.829
181.78
175.95
172.311
170.557
170.887
174.464
182.091
192.479
202.555
205.143
197.203
189.028
189.763
178.636
139.711
92.9703
62.3145
30.5003
105.505
92.3056
80.1225
69.4347
61.0916
55.3799
52.0478
50.4595
49.8569
50.2922
53.2072
59.8525
69.6743
82.2788
97.7353
116.635
138.354
148.137
129.858
79.0374
44.5635
29.4674
8.93871
21.0761
14.0083
9.41264
5.95911
3.79748
2.57354
1.95175
1.6795
1.5838
1.6541
2.06773
2.94318
4.67572
9.06584
24.9119
65.1745
100.647
109.418
90.6975
50.5464
39.216
33.5698
22.2911
-0.355807
-0.691907
-0.496546
-0.495033
-0.519993
-0.547241
-0.569155
-0.582138
-0.585622
-0.576054
-0.521911
-0.305866
0.286639
1.69326
5.57247
17.9079
47.2754
68.6292
66.6638
46.7425
38.7195
35.5054
33.4835
-0.876906
-0.959768
-0.929765
-0.914314
-0.895411
-0.875436
-0.856108
-0.834856
-0.807735
-0.772025
-0.721195
-0.633735
-0.485568
-0.291233
-0.0366925
1.33827
11.6666
39.6487
52.5445
45.4338
37.7895
34.7267
34.5187
-1.05406
-1.06951
-1.05497
-1.04071
-1.02205
-1.00326
-0.984682
-0.963622
-0.936725
-0.902013
-0.857741
-0.803274
-0.757984
-0.797259
-1.01377
-1.00025
1.53919
13.5657
30.1125
33.8969
33.587
33.798
33.9944
-1.18977
-1.19297
-1.18157
-1.17068
-1.15783
-1.14481
-1.13117
-1.1152
-1.09543
-1.07229
-1.04836
-1.03021
-1.04042
-1.13109
-1.34152
-1.52136
-1.17234
1.21852
9.40239
16.9769
22.0515
30.8934
34.2373
-1.33247
-1.33213
-1.32513
-1.31734
-1.30829
-1.29927
-1.29026
-1.2806
-1.27031
-1.26182
-1.26119
-1.27944
-1.33693
-1.46527
-1.67351
-1.89204
-2.00347
-1.78915
0.168823
4.27588
7.37712
17.3717
31.193
-1.47552
-1.47374
-1.46902
-1.46358
-1.45793
-1.45308
-1.44935
-1.44684
-1.44646
-1.45154
-1.46906
-1.51033
-1.59152
-1.73026
-1.92531
-2.12932
-2.27823
-2.32859
-2.26934
-1.29303
-1.50885
0.71954
13.0912
-1.61808
-1.61603
-1.61274
-1.60952
-1.60709
-1.60625
-1.6076
-1.61169
-1.61983
-1.63533
-1.66446
-1.71645
-1.8027
-1.93235
-2.10187
-2.28509
-2.43459
-2.5205
-2.52464
-2.58216
-1.77377
-4.58477
-6.99039
-1.76194
-1.76004
-1.75785
-1.75643
-1.75656
-1.75903
-1.76454
-1.77387
-1.78839
-1.81093
-1.84642
-1.90172
-1.98436
-2.09948
-2.24338
-2.39881
-2.53957
-2.6443
-2.68999
-2.67524
-2.89648
-3.78295
-2.61076
-1.90641
-1.90471
-1.90332
-1.90326
-1.90535
-1.91035
-1.91897
-1.93204
-1.95082
-1.97754
-2.01578
-2.07032
-2.14607
-2.24598
-2.3674
-2.49911
-2.62558
-2.73471
-2.81982
-2.88508
-2.92062
-2.91569
-3.18801
-2.05039
-2.04889
-2.0481
-2.04908
-2.05266
-2.05948
-2.07021
-2.08562
-2.1068
-2.13546
-2.17409
-2.22578
-2.29366
-2.37947
-2.48164
-2.59355
-2.70497
-2.8077
-2.89867
-2.97958
-3.04409
-3.06896
-3.06831
-2.19343
-2.1921
-2.19174
-2.19352
-2.19816
-2.2062
-2.21818
-2.23476
-2.25684
-2.28574
-2.32315
-2.37102
-2.43118
-2.5046
-2.59034
-2.68469
-2.78152
-2.87471
-2.96108
-3.04135
-3.11648
-3.18049
-3.2329
-2.33527
-2.33406
-2.33403
-2.33637
-2.34172
-2.35047
-2.36303
-2.37992
-2.40182
-2.42974
-2.46489
-2.5085
-2.56153
-2.62439
-2.69641
-2.77538
-2.85774
-2.93948
-3.01746
-3.09032
-3.15749
-3.21601
-3.2639
-2.47571
-2.4746
-2.47479
-2.47751
-2.48327
-2.49233
-2.50497
-2.52157
-2.54262
-2.56884
-2.60112
-2.64029
-2.68684
-2.74076
-2.80145
-2.86743
-2.93647
-3.0059
-3.07319
-3.13627
-3.19304
-3.24079
-3.27736
-2.61465
-2.61358
-2.61392
-2.61686
-2.62279
-2.63183
-2.64418
-2.66011
-2.67993
-2.70412
-2.73331
-2.76808
-2.80871
-2.85501
-2.90633
-2.96155
-3.01911
-3.0771
-3.13353
-3.18641
-3.23356
-3.27249
-3.30087
-2.75203
-2.75096
-2.75134
-2.75436
-2.76026
-2.76905
-2.78084
-2.79584
-2.81423
-2.83631
-2.86247
-2.89311
-2.92839
-2.96809
-3.01157
-3.05789
-3.10585
-3.15398
-3.2007
-3.24428
-3.28279
-3.31415
-3.33606
-2.88785
-2.88672
-2.88707
-2.89004
-2.89576
-2.90412
-2.91517
-2.92905
-2.94591
-2.9659
-2.98923
-3.01613
-3.04667
-3.08065
-3.11751
-3.15642
-3.19638
-3.23626
-3.27474
-3.31037
-3.34151
-3.36646
-3.38319
-3.02217
-3.02095
-3.0212
-3.02401
-3.02942
-3.03722
-3.04741
-3.06008
-3.07536
-3.09331
-3.11404
-3.1376
-3.16402
-3.19308
-3.22431
-3.257
-3.29032
-3.32332
-3.35495
-3.38399
-3.40908
-3.42885
-3.44161
-3.15514
-3.15382
-3.15391
-3.15646
-3.16145
-3.16861
-3.17789
-3.18932
-3.203
-3.21899
-3.23729
-3.2579
-3.28073
-3.30558
-3.33205
-3.35952
-3.3873
-3.4146
-3.44055
-3.46418
-3.48437
-3.50002
-3.50979
-3.28695
-3.28555
-3.28545
-3.28764
-3.29211
-3.29858
-3.30693
-3.31714
-3.32929
-3.3434
-3.35946
-3.37741
-3.39711
-3.41836
-3.44079
-3.46389
-3.48706
-3.50964
-3.53092
-3.55011
-3.56633
-3.57871
-3.58622
-3.41777
-3.41631
-3.41602
-3.41781
-3.4217
-3.42743
-3.43484
-3.4439
-3.4546
-3.46697
-3.48097
-3.49652
-3.51348
-3.53163
-3.55064
-3.57008
-3.58942
-3.60811
-3.62556
-3.64115
-3.65416
-3.66394
-3.66972
-3.54774
-3.54626
-3.54579
-3.54718
-3.55046
-3.55542
-3.56191
-3.56986
-3.57924
-3.59002
-3.60216
-3.61556
-3.6301
-3.64556
-3.66166
-3.67801
-3.69418
-3.70968
-3.72403
-3.7367
-3.74716
-3.7549
-3.75935
-3.67695
-3.67548
-3.67486
-3.67588
-3.67857
-3.68277
-3.68836
-3.69527
-3.70342
-3.71277
-3.72324
-3.73475
-3.74716
-3.7603
-3.7739
-3.78764
-3.80116
-3.81404
-3.82587
-3.83622
-3.84465
-3.85081
-3.85425
-3.80543
-3.80398
-3.80327
-3.80397
-3.80612
-3.80962
-3.81437
-3.82029
-3.82732
-3.83537
-3.84437
-3.85422
-3.86479
-3.87591
-3.88737
-3.8989
-3.91019
-3.9209
-3.93068
-3.93918
-3.94604
-3.95098
-3.95367
-3.93319
-3.93178
-3.93101
-3.93146
-3.93317
-3.93604
-3.94001
-3.94504
-3.95104
-3.95794
-3.96564
-3.97404
-3.98301
-3.99241
-4.00205
-4.01171
-4.02114
-4.03005
-4.03816
-4.04517
-4.0508
-4.05482
-4.05698
-4.06023
-4.05887
-4.05808
-4.05835
-4.0597
-4.06204
-4.06535
-4.06957
-4.07465
-4.08052
-4.08707
-4.09421
-4.10181
-4.10975
-4.11785
-4.12594
-4.13382
-4.14125
-4.148
-4.15382
-4.15849
-4.16182
-4.16361
-4.18658
-4.18527
-4.18448
-4.18463
-4.1857
-4.18762
-4.19035
-4.19388
-4.19815
-4.20311
-4.20865
-4.2147
-4.22113
-4.22782
-4.23463
-4.24142
-4.24801
-4.25422
-4.25986
-4.26473
-4.26864
-4.27144
-4.27297
-4.31227
-4.31102
-4.31025
-4.31031
-4.31117
-4.31275
-4.31501
-4.31795
-4.32152
-4.32568
-4.33034
-4.33543
-4.34085
-4.34648
-4.35221
-4.35791
-4.36343
-4.36864
-4.37338
-4.37748
-4.38079
-4.38318
-4.38451
-4.43735
-4.43616
-4.43542
-4.43543
-4.43612
-4.43743
-4.43931
-4.44175
-4.44473
-4.44819
-4.45209
-4.45635
-4.46088
-4.4656
-4.47041
-4.47519
-4.47983
-4.48421
-4.4882
-4.49167
-4.49448
-4.49654
-4.49771
-4.5619
-4.56077
-4.56006
-4.56003
-4.5606
-4.56168
-4.56325
-4.56528
-4.56774
-4.57061
-4.57384
-4.57737
-4.58113
-4.58507
-4.58908
-4.59308
-4.59698
-4.60067
-4.60404
-4.60698
-4.60938
-4.61114
-4.61216
-4.68597
-4.68492
-4.68425
-4.68418
-4.68465
-4.68555
-4.68685
-4.68853
-4.69056
-4.69291
-4.69555
-4.69845
-4.70154
-4.70478
-4.70811
-4.71144
-4.71471
-4.71781
-4.72066
-4.72315
-4.72519
-4.7267
-4.72757
-4.80965
-4.80867
-4.80805
-4.80797
-4.80834
-4.80909
-4.81016
-4.81154
-4.81319
-4.81509
-4.81722
-4.81955
-4.82205
-4.82468
-4.82741
-4.83018
-4.8329
-4.83551
-4.83791
-4.84002
-4.84176
-4.84303
-4.84377
-4.93299
-4.93211
-4.93155
-4.93145
-4.93175
-4.93235
-4.93322
-4.93433
-4.93564
-4.93715
-4.93883
-4.94066
-4.94263
-4.94473
-4.94694
-4.94922
-4.95149
-4.95367
-4.9557
-4.95748
-4.95895
-4.96002
-4.96064
-5.05606
-5.05529
-5.05481
-5.0547
-5.05492
-5.0554
-5.05609
-5.05695
-5.05797
-5.05912
-5.06038
-5.06176
-5.06326
-5.06488
-5.06665
-5.06853
-5.07042
-5.07225
-5.07395
-5.07545
-5.07669
-5.0776
-5.07812
-5.1789
-5.17826
-5.17786
-5.17775
-5.17791
-5.17827
-5.17879
-5.17944
-5.18019
-5.18101
-5.18191
-5.18288
-5.18393
-5.18511
-5.1865
-5.18807
-5.18967
-5.19121
-5.19262
-5.19387
-5.19491
-5.19568
-5.19613
-5.30154
-5.30105
-5.30073
-5.30064
-5.30075
-5.30101
-5.30138
-5.30184
-5.30234
-5.30287
-5.30343
-5.304
-5.30461
-5.30535
-5.30644
-5.30784
-5.30925
-5.31053
-5.31169
-5.31272
-5.31358
-5.31423
-5.31461
-5.424
-5.42367
-5.42346
-5.42339
-5.42348
-5.42366
-5.42391
-5.42419
-5.42448
-5.42475
-5.42497
-5.42514
-5.42523
-5.42534
-5.42629
-5.42784
-5.42921
-5.4303
-5.43122
-5.43203
-5.43272
-5.43324
-5.43354
-5.54627
-5.54614
-5.54608
-5.54611
-5.54621
-5.54636
-5.54652
-5.54666
-5.54674
-5.54675
-5.54664
-5.54635
-5.54563
-5.54431
-5.54541
-5.54789
-5.54952
-5.5505
-5.55121
-5.5518
-5.55229
-5.55266
-5.55287
-5.66833
-5.66842
-5.66853
-5.66865
-5.66877
-5.66887
-5.66894
-5.66895
-5.6689
-5.66876
-5.66847
-5.66795
-5.66682
-5.66427
-5.66362
-5.66706
-5.66904
-5.66999
-5.67057
-5.67102
-5.67139
-5.67167
-5.67181
85.8748
75.1865
65.6175
39.7126
10.1918
22.7424
68.1699
120.692
22.29
65.5194
128.968
180.85
18.3558
52.388
108.006
148.467
31.0574
34.1117
52.904
74.6259
33.722
35.1102
38.6703
40.6546
34.1111
34.0015
33.8312
33.8771
35.202
35.6241
35.8496
36.4974
33.6928
34.6017
35.4954
36.5831
26.3471
31.7469
35.2093
35.7748
1.52661
10.3013
16.4069
23.0011
-4.3614
-10.0096
-15.7698
-11.869
-5.00767
-5.57545
-4.91792
-2.81263
-3.04438
-2.96642
-2.99164
-3.3909
-3.26156
-3.23794
-3.191
-3.19136
-3.28552
-3.29205
-3.29592
-3.29633
-3.29014
-3.29284
-3.29362
-3.29387
-3.30936
-3.30924
-3.30606
-3.30204
-3.34148
-3.34005
-3.33556
-3.32998
-3.38654
-3.38466
-3.38007
-3.37448
-3.44372
-3.44186
-3.43765
-3.43256
-3.5112
-3.50957
-3.50596
-3.50155
-3.58718
-3.58586
-3.58291
-3.57927
-3.67038
-3.66936
-3.66704
-3.66415
-3.75981
-3.75903
-3.75725
-3.75501
-3.85458
-3.85399
-3.85263
-3.85093
-3.95391
-3.95347
-3.95244
-3.95116
-4.05718
-4.05687
-4.05608
-4.0551
-4.16382
-4.16361
-4.16301
-4.16225
-4.27324
-4.27313
-4.27267
-4.27204
-4.38484
-4.38481
-4.38446
-4.38395
-4.49807
-4.49812
-4.49787
-4.49745
-4.61253
-4.61262
-4.61245
-4.61213
-4.72791
-4.72803
-4.72793
-4.72769
-4.84406
-4.84418
-4.84413
-4.84396
-4.96087
-4.96097
-4.96094
-4.96083
-5.07828
-5.07835
-5.07833
-5.07825
-5.19624
-5.19627
-5.19625
-5.19619
-5.31468
-5.31469
-5.31465
-5.3146
-5.43355
-5.43352
-5.43348
-5.43344
-5.55288
-5.55283
-5.55276
-5.55269
-5.67182
-5.67178
-5.67173
-5.67167
244.921
288.032
243.632
234.291
231.034
225.142
211.709
200.664
207.287
212.646
203.483
179.957
160.994
146.837
133.424
119.673
105.637
94.7122
92.7125
199.148
220.519
219.11
218.208
215.159
205.636
184.822
169.395
169.573
173.115
163.749
153.718
145.232
136.24
121.421
105.576
88.9627
76.7885
76.6059
210.063
204.599
207.787
205.285
198.347
175.05
151.729
138.041
134.258
135.067
136.328
132.401
126.155
115.395
98.6507
82.8351
67.0204
58.6295
60.8676
171.282
161.953
172.416
177.35
160.2
133.787
112.217
97.6239
98.7535
102.964
112.088
110.776
100.781
84.6085
64.9639
44.1045
33.8057
42.8065
48.0725
99.4524
100.884
113.085
121.801
111.944
92.7601
70.9258
65.1981
81.4542
87.4842
83.8806
80.7766
72.5619
53.5577
27.0084
17.2715
15.8498
23.9482
35.9247
48.3875
56.3603
63.5844
67.7742
67.9499
60.7346
52.0093
61.1247
72.827
75.6063
57.6598
49.2239
47.6537
28.169
12.0195
10.1856
10.1116
12.1269
24.4818
36.0699
41.4986
42.9923
41.4335
42.7135
44.7812
48.9883
60.2861
66.732
57.1589
37.7453
30.8741
28.6469
13.2117
7.23664
6.46621
6.23004
6.70589
13.2269
38.9026
41.7053
40.2848
36.1502
35.8236
38.9492
45.6425
54.3379
53.4101
36.8381
22.9317
20.2132
15.2325
5.03473
2.67347
3.53146
3.43093
3.12207
6.18279
38.7075
39.5618
37.3484
37.1274
38.2404
39.7544
42.1509
43.4248
35.2068
19.5865
8.89104
9.23219
4.56394
1.00259
0.615019
1.51098
1.46063
0.837569
2.85528
36.8235
38.8738
38.5231
38.5013
38.544
38.3547
37.9664
29.6976
14.7229
3.72933
2.24219
2.15568
0.335063
-0.0671714
-0.0328712
0.506977
0.346883
-0.222213
0.883125
30.0132
35.7011
35.9787
35.8806
35.7104
33.6425
22.2215
7.99662
3.8143
2.47689
0.869676
-0.0850484
-0.83453
-0.740151
-0.376219
-0.0601993
-0.215367
-0.585674
-0.311528
1.66281
8.17101
18.9743
19.0396
15.9755
9.12485
-0.864611
-1.94732
-0.607207
0.822938
-0.448596
-1.21821
-1.48904
-1.2359
-0.808364
-0.588526
-0.67733
-0.88875
-1.07098
-4.41658
-7.96951
-6.34814
-5.20433
-5.20579
-4.29146
-3.06864
-1.96696
-1.14169
-1.34981
-1.66003
-1.83478
-1.80751
-1.54768
-1.21123
-1.0679
-1.14583
-1.31718
-1.67644
-4.14527
-4.06569
-4.25215
-4.28375
-4.09757
-3.63698
-2.54439
-1.89509
-1.95967
-2.18469
-2.12476
-2.05103
-1.95362
-1.72745
-1.50934
-1.44717
-1.53838
-1.65864
-2.20599
-3.22488
-3.12627
-3.19079
-3.34927
-3.05003
-2.8022
-2.55639
-2.40247
-2.38631
-2.33562
-2.26384
-2.17035
-2.05631
-1.89106
-1.75924
-1.74033
-1.82985
-1.89836
-2.30955
-3.26562
-3.15577
-3.01378
-2.97114
-2.93079
-2.8526
-2.73663
-2.66312
-2.56965
-2.45249
-2.3679
-2.27847
-2.17921
-2.06657
-1.98439
-1.97661
-2.04704
-2.09571
-2.26268
-3.28633
-3.22222
-3.13074
-3.06835
-3.00882
-2.9279
-2.82931
-2.7477
-2.65756
-2.55806
-2.47859
-2.402
-2.32295
-2.24303
-2.18628
-2.17817
-2.21576
-2.22665
-2.24787
-3.29446
-3.25307
-3.19233
-3.13226
-3.06345
-2.98399
-2.90039
-2.82803
-2.7495
-2.67134
-2.60442
-2.54228
-2.48016
-2.42026
-2.37603
-2.35955
-2.3667
-2.34676
-2.31106
-3.32053
-3.28886
-3.24028
-3.18483
-3.12115
-3.05167
-2.98101
-2.91998
-2.86239
-2.80146
-2.74335
-2.69182
-2.64234
-2.59451
-2.55471
-2.52891
-2.51334
-2.47441
-2.41981
-3.36514
-3.33966
-3.29914
-3.24992
-3.19442
-3.13551
-3.0768
-3.02402
-2.98107
-2.93291
-2.88502
-2.84216
-2.80108
-2.7601
-2.72165
-2.68868
-2.6582
-2.60951
-2.54935
-3.42404
-3.40321
-3.36968
-3.32754
-3.28012
-3.23044
-3.18167
-3.13733
-3.09877
-3.06066
-3.02333
-2.98784
-2.95211
-2.91488
-2.87677
-2.8391
-2.79975
-2.74694
-2.684
-3.49402
-3.47683
-3.44924
-3.41392
-3.374
-3.33217
-3.29113
-3.25331
-3.21944
-3.18738
-3.1567
-3.12621
-3.09407
-3.05911
-3.02118
-2.9807
-2.93624
-2.88226
-2.81517
-3.57287
-3.55866
-3.53597
-3.50669
-3.47335
-3.43814
-3.40326
-3.37052
-3.34064
-3.31265
-3.28558
-3.25799
-3.22813
-3.19477
-3.15737
-3.11558
-3.06826
-3.01402
-2.94565
-3.65889
-3.64714
-3.62852
-3.60429
-3.57646
-3.54671
-3.51672
-3.48792
-3.461
-3.43554
-3.41059
-3.38475
-3.35651
-3.32471
-3.28859
-3.24732
-3.20034
-3.14585
-3.08601
-3.75078
-3.74107
-3.72571
-3.7056
-3.68222
-3.65685
-3.63073
-3.60499
-3.58028
-3.55648
-3.53288
-3.50833
-3.48156
-3.45159
-3.41771
-3.37932
-3.33792
-3.28706
-3.23192
-3.84756
-3.83951
-3.82675
-3.8099
-3.79006
-3.76815
-3.74512
-3.72184
-3.69891
-3.67639
-3.65386
-3.63046
-3.60518
-3.57719
-3.54586
-3.51116
-3.47702
-3.43381
-3.37516
-3.94848
-3.94177
-3.93108
-3.91682
-3.89978
-3.88063
-3.86009
-3.83888
-3.81752
-3.7962
-3.77471
-3.75246
-3.72867
-3.70258
-3.67333
-3.64085
-3.61027
-3.57555
-3.52014
-4.05297
-4.04734
-4.03832
-4.02613
-4.01135
-3.99445
-3.976
-3.9566
-3.93671
-3.9166
-3.89623
-3.87523
-3.853
-3.82879
-3.80166
-3.77226
-3.74377
-3.71235
-3.66453
-4.1605
-4.15574
-4.14809
-4.13762
-4.12472
-4.10972
-4.09309
-4.07533
-4.05688
-4.03804
-4.01889
-3.99923
-3.97863
-3.95646
-3.9321
-3.90796
-3.88286
-3.846
-3.79862
-4.27057
-4.26653
-4.26001
-4.25101
-4.23973
-4.22642
-4.21144
-4.19522
-4.1782
-4.16069
-4.14285
-4.12459
-4.10558
-4.08526
-4.06334
-4.04373
-4.02301
-3.98089
-3.93079
-4.38267
-4.37922
-4.37368
-4.36594
-4.35611
-4.34433
-4.3309
-4.31619
-4.30061
-4.28449
-4.26802
-4.25121
-4.23372
-4.21479
-4.19389
-4.17587
-4.16015
-4.12028
-4.07104
-4.49635
-4.4934
-4.48868
-4.48205
-4.47352
-4.46317
-4.45122
-4.43799
-4.42387
-4.40919
-4.39421
-4.37897
-4.36311
-4.34569
-4.32627
-4.30913
-4.29699
-4.26211
-4.21348
-4.61119
-4.60867
-4.60467
-4.59901
-4.59166
-4.58264
-4.57211
-4.56034
-4.54768
-4.5345
-4.52109
-4.50758
-4.49367
-4.47855
-4.46325
-4.44911
-4.43401
-4.39894
-4.35485
-4.72691
-4.72478
-4.7214
-4.7166
-4.71032
-4.70254
-4.69336
-4.68301
-4.67179
-4.66007
-4.64823
-4.63656
-4.62486
-4.61255
-4.60175
-4.59256
-4.57365
-4.53656
-4.49735
-4.84333
-4.84155
-4.83871
-4.83468
-4.82937
-4.82276
-4.81488
-4.80589
-4.79602
-4.78566
-4.7753
-4.76545
-4.75616
-4.74747
-4.74144
-4.73577
-4.71545
-4.67734
-4.64167
-4.96034
-4.95887
-4.95653
-4.9532
-4.94879
-4.94328
-4.93667
-4.92899
-4.92037
-4.91119
-4.90222
-4.89395
-4.88671
-4.8813
-4.87892
-4.87333
-4.85134
-4.81744
-4.78623
-5.07788
-5.07671
-5.07481
-5.07212
-5.06857
-5.06414
-5.0588
-5.05244
-5.045
-5.03686
-5.02895
-5.02173
-5.01563
-5.01146
-5.00898
-5.00233
-4.98432
-4.95798
-4.93096
-5.19593
-5.19502
-5.19353
-5.19142
-5.18868
-5.18533
-5.18133
-5.17638
-5.17002
-5.16272
-5.15533
-5.14863
-5.14336
-5.1397
-5.13663
-5.13161
-5.11984
-5.09973
-5.07661
-5.31445
-5.31377
-5.31263
-5.31104
-5.30905
-5.30674
-5.30425
-5.30102
-5.29563
-5.28852
-5.28118
-5.27464
-5.27026
-5.26765
-5.26588
-5.26368
-5.25745
-5.24262
-5.22251
-5.43337
-5.43288
-5.43203
-5.43086
-5.42948
-5.42819
-5.42747
-5.42735
-5.4232
-5.41467
-5.4064
-5.3989
-5.39565
-5.39529
-5.3955
-5.39655
-5.39625
-5.38699
-5.37246
-5.55257
-5.55217
-5.55153
-5.55068
-5.54986
-5.54963
-5.55131
-5.55796
-5.55584
-5.54183
-5.53045
-5.51866
-5.51755
-5.52269
-5.52537
-5.5293
-5.53609
-5.53435
-5.529
-5.67159
-5.67131
-5.6709
-5.67051
-5.67049
-5.67202
-5.6791
-5.69256
-5.6851
-5.6678
-5.65415
-5.64171
-5.64021
-5.65439
-5.65961
-5.66431
-5.67544
-5.68732
-5.69649
)
;

boundaryField
{
    leftWall
    {
        type            calculated;
        value           nonuniform List<scalar> 
50
(
871.012
813.878
756.327
698.429
640.158
581.383
521.985
461.896
366.972
235.659
105.505
21.0761
-0.355807
-0.876906
-1.05406
-1.18977
-1.33247
-1.47552
-1.61808
-1.76194
-1.90641
-2.05039
-2.19343
-2.33527
-2.47571
-2.61465
-2.75203
-2.88785
-3.02217
-3.15514
-3.28695
-3.41777
-3.54774
-3.67695
-3.80543
-3.93319
-4.06023
-4.18658
-4.31227
-4.43735
-4.5619
-4.68597
-4.80965
-4.93299
-5.05606
-5.1789
-5.30154
-5.424
-5.54627
-5.66833
)
;
    }
    rightWall
    {
        type            calculated;
        value           nonuniform List<scalar> 
50
(
462.04
405.473
348.544
293.047
234.948
172.866
121.445
101.012
92.7125
76.6059
60.8676
48.0725
35.9247
24.4818
13.2269
6.18279
2.85528
0.883125
-0.311528
-1.07098
-1.67644
-2.20599
-2.30955
-2.26268
-2.24787
-2.31106
-2.41981
-2.54935
-2.684
-2.81517
-2.94565
-3.08601
-3.23192
-3.37516
-3.52014
-3.66453
-3.79862
-3.93079
-4.07104
-4.21348
-4.35485
-4.49735
-4.64167
-4.78623
-4.93096
-5.07661
-5.22251
-5.37246
-5.529
-5.69649
)
;
    }
    lowerWall
    {
        type            calculated;
        value           nonuniform List<scalar> 
62
(
900.441
893.196
884.8
875.881
867.495
860.026
853.778
848.978
845.778
844.212
844.175
845.37
847.29
849.457
851.361
851.823
851.247
849.189
843.744
831.986
813.294
790.255
777.995
748.573
687.107
623.64
558.656
492.002
425.245
354.776
273.979
148.418
137.731
128.162
102.252
1080.14
1036.11
1002.68
956.465
885.471
786.316
660.908
512.978
1109.44
1051.85
951.531
802.709
672.062
599.921
606.94
674.714
726.369
700.356
629.278
580.804
558.379
549.966
545.174
539.689
524.541
498.99
489.628
)
;
    }
    atmosphere
    {
        type            calculated;
        value           nonuniform List<scalar> 
46
(
-5.72904
-5.72904
-5.72904
-5.72904
-5.72904
-5.72904
-5.72904
-5.72904
-5.72904
-5.72904
-5.72904
-5.72904
-5.72904
-5.72904
-5.72904
-5.7291
-5.72925
-5.72948
-5.72979
-5.73012
-5.73045
-5.73071
-5.73087
-5.7309
-5.73091
-5.73091
-5.73091
-5.73089
-5.73068
-5.73032
-5.7299
-5.72953
-5.72924
-5.72907
-5.72904
-5.72905
-5.72905
-5.72904
-5.72904
-5.72918
-5.72972
-5.73074
-5.73163
-5.73149
-5.72935
-5.79492
)
;
    }
    defaultFaces
    {
        type            empty;
    }
}


// ************************************************************************* //
