/*--------------------------------*- C++ -*----------------------------------*\
  =========                 |
  \\      /  F ield         | OpenFOAM: The Open Source CFD Toolbox
   \\    /   O peration     | Website:  https://openfoam.org
    \\  /    A nd           | Version:  9
     \\/     M anipulation  |
\*---------------------------------------------------------------------------*/
FoamFile
{
    format      ascii;
    class       volScalarField;
    location    "0.9";
    object      p;
}
// * * * * * * * * * * * * * * * * * * * * * * * * * * * * * * * * * * * * * //

dimensions      [1 -1 -2 0 0 0 0];

internalField   nonuniform List<scalar> 
2268
(
-1.79712
-1.79636
-1.7999
-1.80682
-1.81629
-1.82805
-1.84191
-1.85771
-1.87541
-1.89498
-1.91642
-1.93971
-1.96475
-1.99126
-2.01864
-2.04569
-2.0704
-2.0893
-2.0991
-2.09637
-2.08225
-2.06649
-2.05439
-1.73895
-1.73908
-1.74263
-1.74921
-1.7585
-1.77029
-1.78434
-1.80043
-1.81848
-1.83844
-1.86029
-1.88397
-1.90935
-1.93611
-1.96359
-1.99056
-2.01507
-2.03447
-2.04413
-2.04118
-2.02512
-2.00546
-1.99136
-1.68046
-1.68114
-1.68478
-1.69139
-1.70068
-1.71255
-1.72679
-1.74319
-1.76162
-1.782
-1.80429
-1.8284
-1.85414
-1.88115
-1.90871
-1.93559
-1.95983
-1.97881
-1.98893
-1.98733
-1.97251
-1.95119
-1.93446
-1.62176
-1.62262
-1.62616
-1.63284
-1.64221
-1.65417
-1.66857
-1.6852
-1.70393
-1.72467
-1.74732
-1.77178
-1.79784
-1.82511
-1.85287
-1.8799
-1.90431
-1.92357
-1.93462
-1.93491
-1.92299
-1.90251
-1.88284
-1.56264
-1.56361
-1.56693
-1.57361
-1.58303
-1.59507
-1.60957
-1.62637
-1.64532
-1.66631
-1.68924
-1.71399
-1.74034
-1.7679
-1.79599
-1.82344
-1.84846
-1.86862
-1.88112
-1.88366
-1.87501
-1.85683
-1.83599
-1.50299
-1.50406
-1.50719
-1.51381
-1.52324
-1.53532
-1.5499
-1.56681
-1.58592
-1.60711
-1.63026
-1.65525
-1.68187
-1.70975
-1.73827
-1.76633
-1.79226
-1.81371
-1.82806
-1.83308
-1.82778
-1.81288
-1.79334
-1.44275
-1.44392
-1.44692
-1.45348
-1.4629
-1.47499
-1.48962
-1.50661
-1.52584
-1.54718
-1.57051
-1.59571
-1.62258
-1.6508
-1.67981
-1.70861
-1.73563
-1.75864
-1.77507
-1.78274
-1.78075
-1.7698
-1.75407
-1.38193
-1.38322
-1.38623
-1.39273
-1.40213
-1.41423
-1.42888
-1.44593
-1.46523
-1.48667
-1.51013
-1.5355
-1.56259
-1.59114
-1.62066
-1.65027
-1.67853
-1.70325
-1.72188
-1.73219
-1.73332
-1.72658
-1.71701
-2.30697
-2.32439
-2.34316
-2.37092
-2.40527
-2.44301
-2.47867
-2.50947
-2.53957
-2.57755
-2.64224
-2.74783
-2.91016
-3.12913
-3.34395
-3.39792
-3.23481
-3.03538
-2.9284
-2.24783
-2.26473
-2.28029
-2.30842
-2.3444
-2.38542
-2.42699
-2.46607
-2.50621
-2.55509
-2.63021
-2.74565
-2.915
-3.13651
-3.35402
-3.39285
-3.19523
-2.96595
-2.8447
-2.18444
-2.20258
-2.21839
-2.24807
-2.28618
-2.33035
-2.37749
-2.42569
-2.47733
-2.53871
-2.62921
-2.76303
-2.94278
-3.16885
-3.3735
-3.38851
-3.16968
-2.92657
-2.78446
-2.11773
-2.13842
-2.15761
-2.19003
-2.23065
-2.27741
-2.32831
-2.38284
-2.44264
-2.51837
-2.63054
-2.78504
-2.97384
-3.19288
-3.39303
-3.38697
-3.14861
-2.91048
-2.7555
-2.04728
-2.07331
-2.0974
-2.13293
-2.17595
-2.22469
-2.27817
-2.33691
-2.40464
-2.49808
-2.62609
-2.76719
-2.94961
-3.15578
-3.38893
-3.4072
-3.13728
-2.90394
-2.74856
-1.97744
-2.0083
-2.03768
-2.07602
-2.12103
-2.17133
-2.22687
-2.28977
-2.36892
-2.46982
-2.58845
-2.71129
-2.88284
-3.07902
-3.36319
-3.44532
-3.13707
-2.90202
-2.75471
-1.90927
-1.94419
-1.97849
-2.01901
-2.06554
-2.11701
-2.17447
-2.24323
-2.32849
-2.42265
-2.52842
-2.6585
-2.83419
-3.03384
-3.31052
-3.44265
-3.1339
-2.90347
-2.76947
-1.8451
-1.88278
-1.92008
-1.96207
-2.00959
-2.06185
-2.12164
-2.19425
-2.27519
-2.36344
-2.47366
-2.62118
-2.80109
-3.00226
-3.24375
-3.38446
-3.13109
-2.93078
-2.79207
-1.28592
-1.28756
-1.29094
-1.29749
-1.30695
-1.31908
-1.33374
-1.3508
-1.37012
-1.39159
-1.4151
-1.44057
-1.46787
-1.49681
-1.52705
-1.55793
-1.58818
-1.61568
-1.63771
-1.6518
-1.65713
-1.65701
-1.66037
-1.15255
-1.15516
-1.15937
-1.16642
-1.17616
-1.18843
-1.20311
-1.22011
-1.2393
-1.2606
-1.28391
-1.30917
-1.33632
-1.3653
-1.39599
-1.42804
-1.4605
-1.49129
-1.51717
-1.53474
-1.54202
-1.54099
-1.51509
-1.01614
-1.02003
-1.0252
-1.03291
-1.04305
-1.05552
-1.07025
-1.08718
-1.10619
-1.1272
-1.15014
-1.17494
-1.20159
-1.2301
-1.26049
-1.29269
-1.32613
-1.35894
-1.38736
-1.40732
-1.4157
-1.41128
-1.39282
-0.87688
-0.881864
-0.888335
-0.896848
-0.907468
-0.92021
-0.935046
-0.951913
-0.970733
-0.991412
-1.01386
-1.03802
-1.06385
-1.09136
-1.12063
-1.15169
-1.18427
-1.21682
-1.24629
-1.26824
-1.2801
-1.28249
-1.2821
-0.734778
-0.74105
-0.748878
-0.758286
-0.769463
-0.782547
-0.797544
-0.81441
-0.833071
-0.85343
-0.875382
-0.898828
-0.923694
-0.949946
-0.9776
-1.0067
-1.03704
-1.06749
-1.09563
-1.11836
-1.13414
-1.14437
-1.15439
-0.590136
-0.597765
-0.606996
-0.617362
-0.629167
-0.642665
-0.657902
-0.674848
-0.693433
-0.713554
-0.735089
-0.75791
-0.7819
-0.806966
-0.833046
-0.860077
-0.887791
-0.915355
-0.941176
-0.963586
-0.982053
-0.997985
-1.01514
-0.443311
-0.452273
-0.46292
-0.474287
-0.486776
-0.500757
-0.516318
-0.533444
-0.552069
-0.572088
-0.593365
-0.615751
-0.639096
-0.663266
-0.688126
-0.713519
-0.739152
-0.764435
-0.788517
-0.810781
-0.831413
-0.851706
-0.874253
-0.294693
-0.304906
-0.316929
-0.3293
-0.342504
-0.357025
-0.372992
-0.390403
-0.409199
-0.429272
-0.45048
-0.47266
-0.495641
-0.519258
-0.543341
-0.567695
-0.592051
-0.616036
-0.639305
-0.661848
-0.684185
-0.707349
-0.733012
-0.144663
-0.155988
-0.169293
-0.182626
-0.196553
-0.211656
-0.2281
-0.245896
-0.264987
-0.285267
-0.306587
-0.328777
-0.351656
-0.37504
-0.398744
-0.422563
-0.446275
-0.469671
-0.492684
-0.515578
-0.538958
-0.563618
-0.59072
0.00649097
-0.00579302
-0.020235
-0.0344675
-0.0491113
-0.0648304
-0.0818127
-0.100077
-0.11957
-0.140185
-0.16177
-0.184149
-0.207135
-0.230535
-0.254154
-0.277795
-0.301277
-0.324487
-0.347488
-0.370635
-0.394508
-0.419739
-0.447248
0.158597
0.145483
0.130054
0.114988
0.0996371
0.0832825
0.0657179
0.0469198
0.0269405
0.00589088
-0.0160755
-0.0387786
-0.0620254
-0.0856176
-0.109356
-0.133052
-0.156551
-0.179788
-0.20287
-0.226155
-0.250159
-0.275387
-0.30264
0.311531
0.297687
0.281403
0.265572
0.249539
0.232544
0.214371
0.194994
0.174469
0.152912
0.130481
0.107359
0.0837429
0.0598358
0.035838
0.0119354
-0.0117292
-0.0351048
-0.0583001
-0.0816348
-0.105546
-0.130436
-0.157038
0.465139
0.450679
0.433672
0.417156
0.400476
0.382852
0.364059
0.344078
0.322971
0.300858
0.277905
0.254298
0.230238
0.20593
0.181576
0.157363
0.133434
0.109845
0.0865099
0.0631601
0.0394383
0.0150265
-0.0107756
0.619306
0.604359
0.586765
0.569652
0.552373
0.534141
0.514734
0.494139
0.472427
0.44973
0.426218
0.402082
0.377525
0.352753
0.32797
0.303366
0.27909
0.255213
0.23168
0.208273
0.184707
0.16073
0.135643
0.773981
0.758675
0.740634
0.723016
0.705194
0.686387
0.66638
0.645174
0.62285
0.599553
0.575458
0.550761
0.525667
0.500381
0.475109
0.450041
0.425335
0.401077
0.377239
0.353651
0.330078
0.306321
0.281649
0.929166
0.91363
0.895281
0.877254
0.858952
0.839609
0.819027
0.797218
0.774284
0.750377
0.725684
0.700403
0.674738
0.648895
0.623077
0.597474
0.572248
0.547494
0.523204
0.499234
0.475388
0.451504
0.426805
1.08492
1.06928
1.05076
1.03242
1.01371
0.993873
0.972742
0.950348
0.926807
0.902288
0.876984
0.851098
0.824833
0.798394
0.77198
0.745777
0.719943
0.694573
0.669664
0.645085
0.62066
0.596264
0.571071
1.24134
1.22573
1.20718
1.18864
1.16957
1.14929
1.12765
1.10468
1.08054
1.05541
1.02948
1.00298
0.976088
0.949023
0.921976
0.895127
0.868622
0.842545
0.816886
0.791515
0.766264
0.741055
0.715008
1.3986
1.38315
1.36471
1.34606
1.32672
1.30604
1.28391
1.2604
1.23567
1.20992
1.18336
1.15622
1.1287
1.101
1.07331
1.04581
1.01863
0.991827
0.965381
0.939154
0.912981
0.886813
0.859739
1.55691
1.54175
1.52356
1.50491
1.48537
1.46435
1.44176
1.41772
1.3924
1.36604
1.33886
1.31108
1.28294
1.25463
1.22634
1.19825
1.17046
1.14302
1.11588
1.08889
1.06187
1.03477
1.00666
1.71654
1.70182
1.68404
1.6655
1.64582
1.6245
1.60148
1.57692
1.55103
1.52406
1.49625
1.46786
1.43913
1.41028
1.3815
1.35295
1.32473
1.29684
1.26922
1.2417
1.21404
1.18619
1.15713
1.87784
1.86371
1.84648
1.82815
1.80841
1.78683
1.76341
1.73834
1.71187
1.68428
1.65587
1.6269
1.59765
1.56837
1.53926
1.51045
1.48203
1.45398
1.42621
1.39846
1.37049
1.34219
1.3124
2.04122
2.02783
2.0113
1.99329
1.97356
1.95174
1.92792
1.90233
1.87526
1.84705
1.81802
1.78852
1.75885
1.72928
1.70002
1.6712
1.64287
1.615
1.58744
1.55988
1.53201
1.50364
1.47349
2.20714
2.19464
2.17896
2.16138
2.14169
2.11966
2.09541
2.06925
2.04153
2.01265
1.983
1.953
1.92298
1.89326
1.86405
1.83548
1.80757
1.78024
1.75328
1.72635
1.69905
1.67113
1.6411
2.37613
2.36465
2.34997
2.3329
2.31328
2.291
2.26627
2.23944
2.21096
2.18131
2.15099
2.12047
2.09016
2.0604
2.03143
2.00334
1.97614
1.94971
1.92374
1.89787
1.87168
1.84477
1.81553
2.54877
2.53843
2.52486
2.50835
2.48881
2.46621
2.44086
2.4132
2.38377
2.35319
2.32205
2.29093
2.26032
2.23058
2.20196
2.17454
2.14829
2.12307
2.09851
2.0742
2.04969
2.02447
1.99675
2.7257
2.7165
2.70415
2.68824
2.66871
2.64566
2.61948
2.59073
2.56008
2.52828
2.49611
2.46427
2.43332
2.40366
2.37552
2.34895
2.32387
2.30009
2.27724
2.2549
2.2326
2.20968
2.18424
2.90764
2.89931
2.8883
2.87299
2.85337
2.82971
2.80248
2.77235
2.74015
2.70684
2.67337
2.64061
2.60922
2.57963
2.55202
2.52639
2.5026
2.48038
2.45942
2.43928
2.41952
2.39936
2.3768
3.09512
3.08754
3.07787
3.06313
3.04335
3.0189
2.99034
2.95847
2.92432
2.88908
2.85397
2.82002
2.788
2.75833
2.73116
2.70637
2.68376
2.66302
2.64391
2.62607
2.60908
2.59205
2.57291
3.28866
3.28185
3.2734
3.25919
3.23915
3.21369
3.18345
3.14934
3.11263
3.07486
3.03759
3.00207
2.96915
2.93922
2.91229
2.88812
2.86638
2.84684
2.82936
2.81378
2.79974
2.78619
2.77103
3.48826
3.48255
3.47517
3.46136
3.4409
3.41418
3.38183
3.34487
3.30482
3.26373
3.22363
3.18609
3.15198
3.12157
3.09464
3.0707
3.04932
3.03039
3.01413
3.00068
2.98973
2.98008
2.96957
3.69386
3.68959
3.68307
3.66953
3.64852
3.62031
3.58543
3.54483
3.50036
3.45482
3.41106
3.37099
3.33543
3.30435
3.27713
3.25287
3.231
3.21179
3.19616
3.18462
3.17689
3.17159
3.16644
3.90501
3.90256
3.89671
3.88333
3.86174
3.83191
3.79402
3.74871
3.69814
3.64655
3.59808
3.55499
3.51785
3.48606
3.45835
3.43307
3.40944
3.38853
3.37269
3.36288
3.35854
3.35789
3.35845
4.12069
4.12056
4.11535
4.10212
4.08008
4.04865
4.00725
3.9556
3.89612
3.83601
3.78167
3.73538
3.69696
3.66482
3.63671
3.60965
3.58226
3.5572
3.54027
3.53213
3.53141
3.53556
3.54145
4.33895
4.34203
4.33778
4.32487
4.30282
4.27013
4.2249
4.16439
4.09079
4.01816
3.95714
3.9086
3.87037
3.83921
3.81159
3.78244
3.74825
3.71372
3.69482
3.6895
3.69322
3.70192
3.71212
4.5567
4.56436
4.56202
4.55003
4.52898
4.49605
4.44705
4.37321
4.27559
4.18432
4.11692
4.06969
4.03579
4.00939
3.98627
3.95711
3.91173
3.85752
3.83245
3.8396
3.85021
3.85745
3.87066
4.7697
4.78376
4.78487
4.77508
4.75698
4.72548
4.67278
4.57074
4.43102
4.31857
4.25219
4.21288
4.19145
4.17539
4.16543
4.14205
4.05375
3.97686
3.99007
4.01183
4.00995
4.0099
4.02687
4.97565
4.99779
5.00249
4.99563
4.98321
4.95377
4.90648
4.77861
4.57088
4.43413
4.37989
4.34861
4.34423
4.32647
4.3116
4.34908
4.38047
4.315
4.25714
4.20855
4.1834
4.17536
4.21789
5.20162
5.20802
5.2079
5.19807
5.20305
5.21062
5.19292
5.07431
4.77244
4.6801
4.60728
4.55584
4.48452
4.44418
4.33982
4.35501
4.96863
4.83658
4.58831
4.3856
4.14499
4.14356
4.10587
5.45387
5.44802
5.43293
5.4359
5.52161
5.65539
5.65184
5.51999
5.35342
4.8666
4.37938
4.50068
4.55915
5.15077
5.0747
5.26107
7.79769
9.30201
7.38072
6.28761
4.28392
4.43125
4.00184
5.71661
5.84372
5.76336
5.72951
5.95943
6.23894
6.23237
5.84831
5.9766
9.06799
8.90568
11.0255
10.0102
13.5923
10.5048
10.7057
11.7112
14.3075
15.1574
32.3315
21.7993
28.5065
21.4472
5.92033
6.45928
5.96378
5.80674
6.09583
6.82055
7.18281
6.30372
7.51228
18.2557
12.9355
25.8102
15.4741
28.7901
13.8369
17.7469
12.2481
21.1707
22.6451
82.0834
39.8776
83.4243
42.572
-1.70664
-1.70725
-1.72038
-1.74394
-1.52385
-1.53822
-1.55741
-1.5807
-1.40388
-1.41848
-1.43523
-1.45509
-1.29596
-1.30902
-1.32444
-1.34218
-1.16973
-1.18386
-1.20089
-1.21946
-1.03505
-1.05171
-1.07067
-1.09033
-0.897984
-0.916632
-0.937019
-0.957469
-0.758699
-0.778524
-0.799841
-0.820825
-0.617301
-0.63773
-0.659497
-0.680636
-0.474063
-0.494644
-0.516431
-0.537358
-0.329198
-0.349592
-0.371085
-0.391538
-0.183047
-0.203067
-0.224105
-0.243981
-0.0361676
-0.0557993
-0.0764118
-0.0957972
0.110705
0.0912913
0.0708795
0.0517123
0.256791
0.237256
0.216644
0.197275
0.401519
0.381411
0.360088
0.340058
0.544849
0.523685
0.501148
0.480095
0.687438
0.664841
0.640729
0.618403
0.830572
0.806318
0.780398
0.756623
0.975788
0.949767
0.921931
0.896614
1.12458
1.0968
1.06707
1.04021
1.2783
1.2489
1.21742
1.1891
1.43814
1.40737
1.37442
1.34479
1.60496
1.57321
1.53913
1.50843
1.77925
1.74701
1.71227
1.68084
1.96105
1.92887
1.8941
1.86245
2.14993
2.11848
2.08443
2.05329
2.34459
2.31457
2.28219
2.25259
2.54346
2.51562
2.48604
2.45929
2.74503
2.7202
2.69462
2.67211
2.94785
2.92686
2.90636
2.88921
3.1499
3.13342
3.11861
3.10733
3.34764
3.33587
3.3267
3.3211
3.53568
3.52785
3.52342
3.52285
3.70914
3.70314
3.7013
3.70484
3.87214
3.86913
3.86844
3.87349
4.033
4.04069
4.04727
4.05041
4.25882
4.28368
4.2952
4.28582
4.21005
4.27616
4.29741
4.23572
5.11561
6.08324
6.49333
6.58204
34.8711
43.6408
41.4351
35.5909
83.4913
95.47
85.512
53.3372
-1.7582
-1.79228
-1.83036
-1.87382
-1.92207
-1.97506
-2.03654
-2.10557
-2.18407
-2.27795
-2.40257
-2.5574
-2.73599
-2.93137
-3.12743
-3.40157
-3.31068
-2.99283
-2.84151
-1.62
-1.66545
-1.70713
-1.7522
-1.80073
-1.85307
-1.91255
-1.97788
-2.05545
-2.15963
-2.29805
-2.45473
-2.62669
-2.82744
-3.04028
-3.57493
-3.66372
-3.02528
-2.90917
-1.49152
-1.53793
-1.58201
-1.62779
-1.67545
-1.72541
-1.77895
-1.84218
-1.9232
-2.02989
-2.18227
-2.33785
-2.48566
-2.67534
-2.90506
-3.50534
-3.71826
-3.09498
-2.93965
-1.37223
-1.41357
-1.4564
-1.50075
-1.54603
-1.59215
-1.64019
-1.70075
-1.77688
-1.88016
-2.02307
-2.18073
-2.28414
-2.41818
-2.59456
-3.00502
-3.50588
-3.11042
-2.99537
-1.24924
-1.28801
-1.32878
-1.37046
-1.41222
-1.45368
-1.49671
-1.5515
-1.61741
-1.70877
-1.80662
-1.93887
-2.00392
-2.04581
-2.08647
-2.06338
-2.8188
-1.27036
-3.49271
-1.1208
-1.15862
-1.19751
-1.2362
-1.27363
-1.30943
-1.34743
-1.39288
-1.44501
-1.51351
-1.56961
-1.64827
-1.6798
-1.63469
-1.53736
-1.1948
-1.68423
-2.57537
-2.17321
-0.988206
-1.02512
-1.06203
-1.09764
-1.13048
-1.16054
-1.19195
-1.22537
-1.25668
-1.28984
-1.326
-1.35935
-1.34902
-1.27277
-1.13112
-0.817363
-0.936585
-2.41967
-7.47232
-0.851622
-0.887463
-0.922332
-0.95504
-0.984057
-1.00947
-1.03324
-1.05328
-1.05977
-1.05568
-1.08687
-1.08422
-1.04587
-1.00795
-0.899704
-0.724703
-0.584683
-1.26268
-1.32153
-0.71113
-0.745704
-0.778705
-0.80904
-0.835451
-0.857495
-0.874744
-0.884116
-0.876286
-0.849927
-0.861708
-0.848159
-0.824648
-0.812768
-0.738301
-0.64302
-0.539522
-0.944059
1.03818
-0.567134
-0.60028
-0.63167
-0.660394
-0.685285
-0.705249
-0.718956
-0.723731
-0.713462
-0.679264
-0.651474
-0.654945
-0.67078
-0.654377
-0.604193
-0.555757
-0.53074
-0.746238
2.20933
-0.420319
-0.452054
-0.482165
-0.510001
-0.534313
-0.553732
-0.566824
-0.571638
-0.564073
-0.533127
-0.49408
-0.50485
-0.532285
-0.518331
-0.488787
-0.470349
-0.47603
-0.519841
2.85362
-0.271715
-0.302263
-0.331563
-0.359141
-0.383689
-0.403916
-0.418647
-0.42645
-0.425
-0.406585
-0.385025
-0.389754
-0.402063
-0.395028
-0.383891
-0.399093
-0.49199
-0.519628
4.26262
-0.122734
-0.152481
-0.181495
-0.209331
-0.234765
-0.256683
-0.274081
-0.284962
-0.287067
-0.281957
-0.279393
-0.280254
-0.282465
-0.272985
-0.260425
-0.273437
-0.402755
-0.417829
4.99932
0.0250775
-0.00438047
-0.0335537
-0.0620577
-0.0888414
-0.112966
-0.133457
-0.148176
-0.15326
-0.15657
-0.166307
-0.175714
-0.171553
-0.151114
-0.115194
-0.0684356
-0.0241366
0.22958
3.97403
0.170385
0.140758
0.111123
0.0816781
0.0531978
0.0263737
0.00202187
-0.018228
-0.0310259
-0.0423682
-0.0617274
-0.0781511
-0.0747961
-0.048892
0.00488155
0.100431
0.273056
0.473616
2.73835
0.312482
0.282456
0.252215
0.221676
0.191238
0.161195
0.132024
0.104583
0.080485
0.0572001
0.0295692
0.00636838
-0.000688325
0.014594
0.0595177
0.138436
0.260573
0.305942
2.48814
0.451597
0.421157
0.390275
0.35854
0.325938
0.292273
0.257587
0.222218
0.18665
0.15027
0.111683
0.075902
0.0504574
0.0409853
0.0561597
0.0863099
0.135126
0.233427
2.49364
0.58886
0.558055
0.526507
0.493452
0.458456
0.420855
0.380279
0.336756
0.290319
0.241147
0.189229
0.137064
0.0885717
0.047367
0.0221913
-0.00769058
0.0263694
0.236315
2.71244
0.72594
0.694779
0.662477
0.627907
0.590237
0.548394
0.501728
0.450134
0.393663
0.332797
0.267912
0.199664
0.12935
0.061017
-0.0112092
-0.160387
-0.0201331
0.764774
3.58128
0.86471
0.833125
0.799916
0.763569
0.722892
0.676497
0.623629
0.564253
0.49878
0.428009
0.352716
0.273153
0.190348
0.115598
0.0462769
-0.233945
0.0716283
2.44276
6.34118
1.00703
0.974904
0.940616
0.902222
0.858198
0.80694
0.747717
0.680829
0.607313
0.528575
0.44619
0.361619
0.275509
0.205632
0.181996
-0.0456906
-0.166385
4.03002
9.31049
1.15463
1.12186
1.08638
1.04574
0.998098
0.941661
0.875794
0.801329
0.720247
0.635098
0.548812
0.465658
0.385938
0.321389
0.325912
0.34012
-0.0198782
0.848104
8.37518
1.30907
1.27566
1.23897
1.19605
1.14463
1.08271
1.00968
0.926963
0.837749
0.746448
0.658428
0.58212
0.522788
0.478003
0.451049
0.615633
0.977712
2.29936
8.95132
1.47163
1.43778
1.40012
1.35508
1.29991
1.23219
1.15117
1.0586
0.95887
0.858771
0.767006
0.698383
0.665601
0.65068
0.571533
0.89821
2.98987
9.91339
14.8283
1.64334
1.60952
1.57145
1.52481
1.46615
1.39236
1.30213
1.19706
1.08223
0.966813
0.862848
0.79326
0.782466
0.785388
0.729702
1.53421
6.4438
21.2876
25.5811
1.82492
1.792
1.7545
1.70724
1.64574
1.5658
1.46491
1.34375
1.20745
1.06793
0.941968
0.859464
0.852607
0.844703
0.901624
2.37065
11.4827
38.6503
40.8091
2.01669
1.98602
1.95068
1.90445
1.84143
1.75569
1.64263
1.50104
1.3353
1.16164
1.00669
0.905091
0.855583
0.777886
1.06063
3.54481
31.5744
59.3332
59.236
2.21849
2.19202
2.16116
2.11853
2.05635
1.9661
1.83984
1.67282
1.46765
1.2486
1.06128
0.935597
0.825701
0.783395
1.56406
14.9624
58.2542
75.5381
79.8932
2.42969
2.40997
2.38669
2.35131
2.29382
2.2022
2.06336
1.8661
1.60897
1.33305
1.11787
0.966147
0.871706
1.31909
6.5487
43.1975
86.3803
99.7012
106.932
2.64913
2.63894
2.62687
2.60358
2.55672
2.47007
2.3232
2.09358
1.77168
1.4291
1.18499
1.02293
1.10636
2.85869
23.6926
83.5326
125.533
140.097
143.345
2.87451
2.87635
2.87919
2.87359
2.84561
2.77493
2.63161
2.37753
1.98601
1.56907
1.27842
1.17621
1.88678
10.2163
63.2444
135
177.179
192.713
187.87
3.10168
3.11721
3.13786
3.15541
3.15587
3.11607
2.99893
2.74816
2.30353
1.7878
1.43326
1.66736
4.8921
32.7686
119.255
194.259
237.477
251.702
237.488
3.3243
3.35402
3.39365
3.43787
3.47496
3.48298
3.42537
3.23215
2.7938
2.09718
1.60487
2.95068
13.9957
79.7419
185.644
258.73
301.586
312.055
288.861
3.53429
3.5776
3.63459
3.70494
3.78334
3.8563
3.89854
3.8324
3.47169
2.55597
1.79493
6.10174
39.2269
147.519
255.562
323.97
364.074
369.114
338.878
3.72503
3.7806
3.84962
3.93917
4.05751
4.20632
4.37663
4.49905
4.33071
3.53795
3.37422
12.8275
76.7579
216.772
322.403
385.427
420.155
419.349
385.436
3.89995
3.96599
4.03884
4.13134
4.27419
4.47405
4.72705
5.05052
5.43769
5.90123
9.40998
25.6727
110.975
276.271
384.036
440.34
467.462
461.521
428.133
4.07741
4.15589
4.22485
4.29057
4.41833
4.59958
4.87174
5.58198
7.27601
10.5383
21.4844
57.9111
166.964
341.062
443.643
490.225
507.769
497.649
468.378
4.26551
4.38046
4.44902
4.4236
4.50104
4.70586
5.2454
7.4568
12.481
20.506
44.6786
125.047
283.654
438.576
510.247
541.124
547.377
533.012
507.925
4.16033
4.45838
4.57556
4.32862
4.54695
5.63038
9.40748
17.6237
28.6223
52.449
107.61
248.531
438.014
549.73
575.941
601.327
592.664
575.68
545.658
5.77537
7.67688
9.42807
9.60838
15.5909
33.685
63.9389
82.7549
118.974
198.159
295.318
439.419
537.63
629.293
633.239
680.923
651.441
637.269
570.93
24.0358
55.705
64.4133
29.0654
40.4327
110.276
129.278
101.472
155.674
329.981
396.24
543.404
574.56
710.366
687.808
799.68
734.107
743.708
546.562
39.3363
110.046
115.66
39.5996
44.9306
162.432
160.125
69.2494
102.379
387.576
288.402
683.494
417.994
979.526
511.122
1130.33
554.652
1128.21
332.236
)
;

boundaryField
{
    leftWall
    {
        type            calculated;
        value           nonuniform List<scalar> 
50
(
-1.79712
-1.73895
-1.68046
-1.62176
-1.56264
-1.50299
-1.44275
-1.38193
-1.28592
-1.15255
-1.01614
-0.87688
-0.734778
-0.590136
-0.443311
-0.294693
-0.144663
0.00649097
0.158597
0.311531
0.465139
0.619306
0.773981
0.929166
1.08492
1.24134
1.3986
1.55691
1.71654
1.87784
2.04122
2.20714
2.37613
2.54877
2.7257
2.90764
3.09512
3.28866
3.48826
3.69386
3.90501
4.12069
4.33895
4.5567
4.7697
4.97565
5.20162
5.45387
5.71661
5.92033
)
;
    }
    rightWall
    {
        type            calculated;
        value           nonuniform List<scalar> 
50
(
-2.9284
-2.8447
-2.78446
-2.7555
-2.74856
-2.75471
-2.76947
-2.79207
-2.84151
-2.90917
-2.93965
-2.99537
-3.49271
-2.17321
-7.47232
-1.32153
1.03818
2.20933
2.85362
4.26262
4.99932
3.97403
2.73835
2.48814
2.49364
2.71244
3.58128
6.34118
9.31049
8.37518
8.95132
14.8283
25.5811
40.8091
59.236
79.8932
106.932
143.345
187.87
237.488
288.861
338.878
385.436
428.133
468.378
507.925
545.658
570.93
546.562
332.236
)
;
    }
    lowerWall
    {
        type            calculated;
        value           nonuniform List<scalar> 
62
(
-1.82661
-1.82585
-1.82939
-1.83628
-1.84572
-1.85748
-1.87134
-1.88714
-1.90484
-1.92441
-1.94585
-1.96914
-1.99418
-2.02069
-2.04806
-2.07512
-2.09983
-2.11873
-2.12853
-2.1258
-2.11168
-2.09592
-2.08382
-2.05439
-1.99136
-1.93446
-1.88284
-1.83599
-1.79334
-1.75407
-1.71701
-1.76923
-1.76985
-1.78297
-1.80653
-2.30697
-2.24783
-2.18444
-2.11773
-2.04728
-1.97744
-1.90927
-1.8451
-2.3364
-2.35382
-2.37259
-2.40035
-2.4347
-2.47244
-2.5081
-2.5389
-2.569
-2.60698
-2.67167
-2.77727
-2.9396
-3.1586
-3.37343
-3.42738
-3.26424
-3.06481
-2.95783
)
;
    }
    atmosphere
    {
        type            calculated;
        value           nonuniform List<scalar> 
46
(
5.72904
7.06689
5.72327
5.72796
5.72597
7.003
8.05466
5.72355
5.72823
32.2072
5.72904
42.2794
5.72904
47.3623
5.72904
20.9545
5.72904
32.7739
5.72904
156.124
5.72904
136.824
5.72904
133.072
160.27
147.712
5.72904
5.72904
145.161
152.517
5.72904
5.72904
210.704
189.65
5.72904
5.72904
563.832
5.72904
994.271
5.72904
1546.79
5.72904
1817.79
5.72904
1925.38
5.72904
)
;
    }
    defaultFaces
    {
        type            empty;
    }
}


// ************************************************************************* //
