/*--------------------------------*- C++ -*----------------------------------*\
  =========                 |
  \\      /  F ield         | OpenFOAM: The Open Source CFD Toolbox
   \\    /   O peration     | Website:  https://openfoam.org
    \\  /    A nd           | Version:  9
     \\/     M anipulation  |
\*---------------------------------------------------------------------------*/
FoamFile
{
    format      ascii;
    class       volScalarField;
    location    "0.9";
    object      p_rgh;
}
// * * * * * * * * * * * * * * * * * * * * * * * * * * * * * * * * * * * * * //

dimensions      [1 -1 -2 0 0 0 0];

internalField   nonuniform List<scalar> 
2268
(
-1.82661
-1.82585
-1.82939
-1.83628
-1.84572
-1.85748
-1.87134
-1.88714
-1.90484
-1.92441
-1.94585
-1.96914
-1.99418
-2.02069
-2.04806
-2.07512
-2.09983
-2.11873
-2.12853
-2.1258
-2.11168
-2.09592
-2.08382
-1.82729
-1.82741
-1.83093
-1.8375
-1.84679
-1.85858
-1.87263
-1.88872
-1.90677
-1.92673
-1.94857
-1.97226
-1.99764
-2.0244
-2.05188
-2.07885
-2.10336
-2.12276
-2.13242
-2.12947
-2.11341
-2.09375
-2.07965
-1.82761
-1.82828
-1.83193
-1.83854
-1.84782
-1.8597
-1.87394
-1.89034
-1.90876
-1.92915
-1.95144
-1.97554
-2.00128
-2.02829
-2.05586
-2.08273
-2.10698
-2.12596
-2.13607
-2.13448
-2.11965
-2.09833
-2.08161
-1.82777
-1.82863
-1.83216
-1.83884
-1.84821
-1.86018
-1.87458
-1.89121
-1.90994
-1.93067
-1.95332
-1.97778
-2.00385
-2.03112
-2.05888
-2.08591
-2.11032
-2.12957
-2.14062
-2.14092
-2.12899
-2.10851
-2.08884
-1.82751
-1.82847
-1.83179
-1.83847
-1.84789
-1.85993
-1.87444
-1.89124
-1.91018
-1.93117
-1.9541
-1.97885
-2.0052
-2.03277
-2.06086
-2.08831
-2.11332
-2.13348
-2.14599
-2.14852
-2.13988
-2.12169
-2.10085
-1.82671
-1.82778
-1.83091
-1.83753
-1.84696
-1.85904
-1.87362
-1.89054
-1.90964
-1.93083
-1.95398
-1.97897
-2.00559
-2.03348
-2.06199
-2.09005
-2.11598
-2.13743
-2.15178
-2.15681
-2.1515
-2.1366
-2.11707
-1.82533
-1.8265
-1.82951
-1.83606
-1.84548
-1.85757
-1.8722
-1.8892
-1.90842
-1.92976
-1.95309
-1.97829
-2.00516
-2.03339
-2.06239
-2.09119
-2.11821
-2.14122
-2.15765
-2.16532
-2.16334
-2.15238
-2.13666
-1.82337
-1.82466
-1.82767
-1.83417
-1.84357
-1.85567
-1.87032
-1.88737
-1.90667
-1.92811
-1.95157
-1.97694
-2.00403
-2.03258
-2.0621
-2.09171
-2.11997
-2.14469
-2.16332
-2.17363
-2.17476
-2.16802
-2.15845
-2.3364
-2.35382
-2.37259
-2.40035
-2.4347
-2.47244
-2.5081
-2.5389
-2.569
-2.60698
-2.67167
-2.77727
-2.9396
-3.1586
-3.37343
-3.42738
-3.26424
-3.06481
-2.95783
-2.33612
-2.35302
-2.36858
-2.39671
-2.43269
-2.4737
-2.51528
-2.55436
-2.5945
-2.64338
-2.71851
-2.83398
-3.00339
-3.22499
-3.44284
-3.48162
-3.28356
-3.05425
-2.93299
-2.33159
-2.34973
-2.36554
-2.39522
-2.43332
-2.4775
-2.52463
-2.57283
-2.62448
-2.68589
-2.77665
-2.91125
-3.09305
-3.32982
-3.54006
-3.53776
-3.31696
-3.07373
-2.93162
-2.32374
-2.34443
-2.36361
-2.39604
-2.43665
-2.48341
-2.53432
-2.58885
-2.64869
-2.72469
-2.85629
-3.06066
-3.27659
-3.60146
-3.85683
-3.72111
-3.3586
-3.11662
-2.96154
-2.31215
-2.33818
-2.36226
-2.3978
-2.44081
-2.48956
-2.54304
-2.60182
-2.66991
-2.80317
-3.01005
-3.21195
-3.4087
-3.66388
-3.99338
-4.00352
-3.48321
-3.16941
-3.01365
-2.30116
-2.33202
-2.36141
-2.39974
-2.44476
-2.49505
-2.55062
-2.61377
-2.71615
-2.93034
-3.05762
-3.03563
-3.20671
-3.40285
-3.86327
-3.86752
-3.47952
-3.22697
-3.07931
-2.29185
-2.32677
-2.36107
-2.40159
-2.44812
-2.4996
-2.55724
-2.63982
-2.83519
-2.96831
-2.98188
-3.04133
-3.2169
-3.41654
-3.69321
-4.78896
-3.68486
-3.28815
-3.1536
-2.28654
-2.32422
-2.36152
-2.40351
-2.45103
-2.50335
-2.56449
-2.70718
-2.86132
-2.91057
-2.91548
-3.06279
-3.24267
-3.44383
-3.68532
-5.26416
-4.48419
-3.38204
-3.23603
-1.81939
-1.82103
-1.82441
-1.83096
-1.84042
-1.85255
-1.86721
-1.88426
-1.90359
-1.92505
-1.94857
-1.97404
-2.00133
-2.03027
-2.06052
-2.09139
-2.12165
-2.14914
-2.17118
-2.18527
-2.1906
-2.19048
-2.19383
-1.81121
-1.81383
-1.81803
-1.82508
-1.83482
-1.84709
-1.86177
-1.87877
-1.89796
-1.91926
-1.94257
-1.96783
-1.99498
-2.02396
-2.05466
-2.0867
-2.11916
-2.14995
-2.17583
-2.1934
-2.20068
-2.19965
-2.17376
-1.79999
-1.80388
-1.80906
-1.81676
-1.8269
-1.83937
-1.85411
-1.87103
-1.89004
-1.91106
-1.934
-1.9588
-1.98545
-2.01396
-2.04435
-2.07654
-2.10998
-2.1428
-2.17122
-2.19117
-2.19955
-2.19514
-2.17668
-1.78593
-1.79091
-1.79739
-1.8059
-1.81652
-1.82926
-1.8441
-1.86096
-1.87978
-1.90046
-1.92292
-1.94707
-1.9729
-2.00042
-2.02968
-2.06074
-2.09332
-2.12587
-2.15534
-2.17729
-2.18915
-2.19154
-2.19115
-1.76902
-1.7753
-1.78312
-1.79253
-1.80371
-1.81679
-1.83179
-1.84866
-1.86732
-1.88767
-1.90963
-1.93307
-1.95794
-1.98419
-2.01185
-2.04094
-2.07128
-2.10174
-2.12988
-2.1526
-2.16838
-2.17862
-2.18863
-1.74958
-1.7572
-1.76644
-1.7768
-1.78861
-1.8021
-1.81734
-1.83429
-1.85287
-1.87299
-1.89453
-1.91735
-1.94134
-1.96641
-1.99249
-2.01952
-2.04723
-2.07479
-2.10062
-2.12303
-2.14149
-2.15742
-2.17458
-1.72794
-1.73691
-1.74755
-1.75892
-1.77141
-1.78539
-1.80095
-1.81808
-1.8367
-1.85672
-1.878
-1.90038
-1.92373
-1.9479
-1.97276
-1.99815
-2.02379
-2.04907
-2.07315
-2.09542
-2.11605
-2.13634
-2.15889
-1.70452
-1.71473
-1.72676
-1.73913
-1.75233
-1.76685
-1.78282
-1.80023
-1.81903
-1.8391
-1.86031
-1.88249
-1.90547
-1.92909
-1.95317
-1.97752
-2.00188
-2.02586
-2.04913
-2.07168
-2.09401
-2.11718
-2.14284
-1.67969
-1.69101
-1.70432
-1.71765
-1.73158
-1.74668
-1.76312
-1.78092
-1.80001
-1.82029
-1.84161
-1.8638
-1.88668
-1.91006
-1.93377
-1.95759
-1.9813
-2.00469
-2.02771
-2.0506
-2.07398
-2.09864
-2.12574
-1.65373
-1.66601
-1.68045
-1.69469
-1.70933
-1.72505
-1.74203
-1.76029
-1.77979
-1.8004
-1.82199
-1.84437
-1.86735
-1.89075
-1.91437
-1.93801
-1.96149
-1.9847
-2.00771
-2.03085
-2.05473
-2.07996
-2.10747
-1.62681
-1.63993
-1.65536
-1.67042
-1.68578
-1.70213
-1.71969
-1.73849
-1.75847
-1.77952
-1.80149
-1.82419
-1.84744
-1.87103
-1.89477
-1.91846
-1.94196
-1.9652
-1.98828
-2.01157
-2.03557
-2.0608
-2.08805
-1.59908
-1.61292
-1.6292
-1.64503
-1.66107
-1.67806
-1.69624
-1.71561
-1.73614
-1.75769
-1.78013
-1.80325
-1.82686
-1.85077
-1.87477
-1.89867
-1.92234
-1.94571
-1.96891
-1.99224
-2.01615
-2.04104
-2.06765
-1.57066
-1.58512
-1.60213
-1.61864
-1.63533
-1.65295
-1.67174
-1.69172
-1.71283
-1.73494
-1.7579
-1.7815
-1.80556
-1.82987
-1.85423
-1.87844
-1.90237
-1.92596
-1.94929
-1.97264
-1.99636
-2.02078
-2.04658
-1.54169
-1.55664
-1.57423
-1.59134
-1.60862
-1.62686
-1.64626
-1.66686
-1.68857
-1.71127
-1.73478
-1.75891
-1.78347
-1.80824
-1.83303
-1.85763
-1.88191
-1.90578
-1.92932
-1.95272
-1.97629
-2.00027
-2.02535
-1.51221
-1.52752
-1.54556
-1.56317
-1.581
-1.5998
-1.61981
-1.64102
-1.66334
-1.68664
-1.71073
-1.73543
-1.76052
-1.78581
-1.81108
-1.83615
-1.86086
-1.88511
-1.90895
-1.93254
-1.95611
-1.97987
-2.00454
-1.48222
-1.49775
-1.5161
-1.53413
-1.55243
-1.57178
-1.59236
-1.61417
-1.6371
-1.66101
-1.6857
-1.71098
-1.73665
-1.76249
-1.78831
-1.81391
-1.83914
-1.86389
-1.88818
-1.91215
-1.936
-1.95988
-1.98458
-1.45166
-1.4673
-1.48582
-1.50416
-1.52287
-1.54271
-1.56384
-1.58623
-1.60977
-1.63429
-1.6596
-1.68548
-1.71175
-1.73819
-1.7646
-1.7908
-1.81664
-1.84201
-1.86692
-1.89149
-1.91592
-1.94032
-1.96551
-1.42043
-1.43604
-1.45459
-1.47314
-1.4922
-1.51248
-1.53413
-1.55709
-1.58123
-1.60636
-1.63229
-1.6588
-1.68569
-1.71275
-1.7398
-1.76665
-1.79315
-1.81923
-1.84489
-1.87026
-1.89551
-1.92072
-1.94677
-1.38837
-1.40382
-1.42226
-1.44091
-1.46025
-1.48093
-1.50306
-1.52657
-1.5513
-1.57705
-1.6036
-1.63075
-1.65827
-1.68597
-1.71365
-1.74115
-1.76834
-1.79514
-1.82159
-1.84781
-1.87399
-1.90016
-1.92723
-1.35526
-1.37041
-1.3886
-1.40725
-1.42679
-1.44782
-1.4704
-1.49445
-1.51976
-1.54612
-1.57331
-1.60108
-1.62923
-1.65754
-1.68582
-1.71391
-1.7417
-1.76914
-1.79628
-1.82327
-1.8503
-1.87739
-1.90551
-1.32082
-1.33553
-1.35332
-1.37186
-1.39154
-1.41286
-1.43588
-1.46043
-1.48632
-1.5133
-1.54111
-1.5695
-1.59823
-1.62708
-1.65585
-1.6844
-1.71263
-1.74052
-1.76814
-1.79566
-1.82332
-1.85117
-1.88022
-1.28471
-1.29884
-1.31607
-1.3344
-1.35414
-1.37572
-1.39914
-1.42421
-1.45068
-1.47827
-1.50669
-1.53565
-1.5649
-1.59418
-1.6233
-1.6521
-1.68053
-1.70858
-1.73635
-1.76409
-1.79206
-1.82037
-1.85015
-1.24653
-1.25992
-1.27645
-1.29445
-1.31419
-1.336
-1.35982
-1.38542
-1.41248
-1.4407
-1.46972
-1.49922
-1.5289
-1.55847
-1.58773
-1.61655
-1.64487
-1.67275
-1.7003
-1.72787
-1.75574
-1.7841
-1.81426
-1.2058
-1.21831
-1.23398
-1.25156
-1.27125
-1.29329
-1.31753
-1.34369
-1.37141
-1.4003
-1.42994
-1.45995
-1.48996
-1.51968
-1.54889
-1.57746
-1.60537
-1.6327
-1.65966
-1.68659
-1.71389
-1.74182
-1.77184
-1.16201
-1.17348
-1.18816
-1.20524
-1.22485
-1.24713
-1.27187
-1.29869
-1.32717
-1.35682
-1.38715
-1.41767
-1.44798
-1.47773
-1.50671
-1.53479
-1.562
-1.58843
-1.6144
-1.64026
-1.66645
-1.69336
-1.7226
-1.11456
-1.1249
-1.13847
-1.15498
-1.17452
-1.19712
-1.22247
-1.25013
-1.27956
-1.31014
-1.34128
-1.3724
-1.40301
-1.43275
-1.46137
-1.48879
-1.51504
-1.54026
-1.56482
-1.58913
-1.61364
-1.63886
-1.66658
-1.06282
-1.07203
-1.08438
-1.10029
-1.11982
-1.14286
-1.16904
-1.1978
-1.22845
-1.26025
-1.29241
-1.32426
-1.35521
-1.38486
-1.413
-1.43957
-1.46465
-1.48844
-1.51128
-1.53362
-1.55592
-1.57884
-1.60428
-1.00608
-1.0144
-1.02542
-1.04073
-1.06035
-1.08401
-1.11124
-1.14137
-1.17357
-1.20688
-1.24035
-1.27311
-1.3045
-1.33409
-1.3617
-1.38733
-1.41112
-1.43334
-1.4543
-1.47444
-1.4942
-1.51436
-1.53692
-0.943796
-0.951376
-0.961046
-0.975779
-0.995559
-1.02001
-1.04857
-1.08045
-1.1146
-1.14983
-1.18494
-1.21889
-1.25091
-1.28058
-1.30775
-1.33254
-1.35516
-1.3759
-1.39501
-1.41285
-1.42983
-1.44687
-1.46601
-0.875453
-0.882262
-0.890706
-0.904918
-0.924956
-0.950415
-0.980661
-1.01477
-1.05148
-1.08925
-1.12652
-1.16204
-1.19496
-1.22489
-1.25182
-1.27599
-1.29773
-1.31727
-1.33475
-1.35033
-1.36437
-1.37793
-1.39308
-0.801044
-0.806752
-0.814133
-0.827944
-0.848405
-0.875123
-0.907468
-0.944431
-0.984479
-1.02558
-1.06568
-1.10322
-1.13732
-1.16773
-1.19467
-1.21861
-1.23999
-1.25891
-1.27517
-1.28863
-1.29958
-1.30923
-1.31974
-0.720641
-0.724907
-0.731426
-0.744969
-0.765981
-0.794183
-0.829068
-0.869663
-0.91414
-0.959675
-1.00343
-1.04351
-1.07907
-1.11015
-1.13737
-1.16163
-1.1835
-1.2027
-1.21834
-1.22988
-1.23761
-1.24291
-1.24806
-0.634678
-0.637132
-0.642979
-0.656359
-0.677955
-0.707778
-0.745676
-0.790983
-0.841554
-0.893142
-0.941613
-0.984706
-1.02185
-1.05363
-1.08135
-1.10662
-1.13025
-1.15116
-1.16701
-1.17681
-1.18116
-1.18181
-1.18125
-0.544192
-0.544323
-0.549533
-0.562767
-0.58481
-0.616238
-0.657635
-0.709283
-0.768762
-0.828878
-0.883217
-0.929506
-0.967924
-1.00006
-1.02818
-1.05523
-1.08263
-1.10768
-1.12462
-1.13275
-1.13348
-1.12933
-1.12347
-0.451128
-0.448054
-0.452302
-0.465208
-0.487262
-0.519948
-0.565185
-0.625688
-0.699294
-0.771921
-0.832942
-0.881478
-0.919709
-0.950873
-0.978494
-1.00764
-1.04193
-1.07643
-1.09526
-1.10058
-1.09687
-1.09176
-1.08341
-0.358573
-0.350914
-0.353258
-0.36524
-0.38629
-0.419228
-0.468227
-0.54207
-0.639826
-0.731456
-0.798351
-0.845587
-0.879484
-0.90589
-0.929069
-0.958175
-1.00362
-1.05783
-1.10588
-1.38909
-1.48822
-1.15243
-1.04925
-0.270763
-0.256704
-0.255596
-0.26539
-0.283489
-0.314993
-0.367734
-0.470869
-0.615979
-0.754468
-0.884218
-0.968614
-0.95206
-0.869988
-0.887167
-0.959349
-1.18326
-3.44532
-5.6384
-3.47157
-1.14742
-1.05696
-1.0235
-0.332994
-0.185872
-0.163176
-0.170015
-0.182455
-0.21271
-0.262838
-2.43887
-3.22719
-2.84765
-1.23021
-0.843171
-0.832047
-0.844051
-0.863635
-7.14788
-27.2746
-24.3438
-5.41575
-1.18497
-1.03026
-1.00327
-0.952859
-2.418
-0.304091
-0.0837162
-0.0995151
-0.727447
-2.41116
-0.822503
-5.05195
-9.18429
-8.16392
-6.21452
-3.61801
-0.833099
-0.857557
-0.960587
-9.10226
-68.1571
-48.4039
-4.32119
-1.11645
-1.18946
-1.15897
-1.18985
-2.5988
-4.40376
-3.75882
-7.14377
-9.46812
-9.33926
-2.39458
-2.59528
-62.7004
-13.8411
-17.4541
-18.7197
-48.4954
-80.6338
-85.4224
-56.1596
-75.8005
-424.685
-329.076
-189.291
-123.087
-73.4345
-125.399
-2.50517
-9.32786
-9.41552
-9.53285
-9.3768
-3.82435
-1.92051
-2.43038
-308.373
-707.348
-709.156
-706.512
-712.869
-713.089
-713.66
-388.498
-7.20534
-464.752
-2183.77
-2519.95
-2530.48
-2402.93
-2592.59
-0.872912
-0.563811
-1.03036
-1.17794
-1.22858
-0.10879
-0.826521
-6.31097
-2.27283
-13.8076
-22.1293
-16.2537
-23.5911
-18.3581
-25.0582
-2.98409
-5.84539
-11.5048
-59.6558
-73.7086
-86.9351
-52.4346
-79.0005
-2.2401
-2.24072
-2.25384
-2.2774
-2.18251
-2.19688
-2.21607
-2.23936
-2.18774
-2.20234
-2.21909
-2.23895
-2.20501
-2.21807
-2.23349
-2.25123
-2.20397
-2.2181
-2.23513
-2.25371
-2.19449
-2.21115
-2.23011
-2.24977
-2.18262
-2.20127
-2.22165
-2.2421
-2.16853
-2.18835
-2.20967
-2.23065
-2.15233
-2.17275
-2.19452
-2.21566
-2.13428
-2.15486
-2.17665
-2.19758
-2.11461
-2.13501
-2.1565
-2.17695
-2.09365
-2.11367
-2.13471
-2.15459
-2.07197
-2.0916
-2.11221
-2.1316
-2.05029
-2.06971
-2.09012
-2.10928
-2.0294
-2.04894
-2.06955
-2.08892
-2.00987
-2.02997
-2.0513
-2.07133
-1.99173
-2.0129
-2.03543
-2.05649
-1.97434
-1.99693
-2.02105
-2.04337
-1.9564
-1.98065
-2.00657
-2.03035
-1.93638
-1.9624
-1.99023
-2.01555
-1.91278
-1.94056
-1.97029
-1.99715
-1.88426
-1.91366
-1.94513
-1.97345
-1.84961
-1.88037
-1.91333
-1.94296
-1.80798
-1.83973
-1.87381
-1.90451
-1.75888
-1.79113
-1.82586
-1.8573
-1.70228
-1.73446
-1.76923
-1.80088
-1.6386
-1.67005
-1.70409
-1.73524
-1.56914
-1.59915
-1.63153
-1.66113
-1.49546
-1.5233
-1.55288
-1.57963
-1.41909
-1.44392
-1.4695
-1.492
-1.34146
-1.36246
-1.38296
-1.40011
-1.26461
-1.28109
-1.2959
-1.30718
-1.19205
-1.20383
-1.213
-1.2186
-1.12924
-1.13705
-1.14147
-1.14204
-1.08454
-1.08739
-1.08879
-1.08524
-1.04553
-1.04702
-1.04706
-1.04182
-1.01098
-1.00104
-0.993532
-0.990148
-0.908798
-0.882654
-0.870761
-0.879969
-1.08287
-1.01558
-0.993814
-1.05531
-168.643
-187.315
-225.196
-350.449
-2579.17
-2545.09
-2502.41
-2529.53
-48.331
-64.0256
-61.1424
-74.3986
-2.29167
-2.32575
-2.36383
-2.40729
-2.45557
-2.50941
-2.602
-2.76737
-2.84673
-2.81335
-2.93702
-3.09109
-3.26964
-3.46501
-3.66108
-5.69076
-4.16739
-3.53323
-3.38085
-2.27866
-2.32411
-2.36579
-2.41088
-2.45953
-2.5252
-2.6762
-2.7587
-2.71849
-2.821
-2.95922
-3.11427
-3.28573
-3.48631
-3.69915
-4.71683
-5.74542
-3.79673
-3.57666
-2.27537
-2.32178
-2.36587
-2.41167
-2.45952
-2.53904
-2.68401
-2.67918
-2.71373
-2.82023
-2.9852
-3.12465
-3.27066
-3.45948
-3.68917
-4.28949
-19.0947
-3.89688
-3.7371
-2.28128
-2.32262
-2.36545
-2.40983
-2.45546
-2.53825
-2.63556
-2.61018
-2.69312
-2.86544
-3.57966
-3.21775
-3.19441
-3.32765
-3.50434
-3.92795
-22.3634
-9.15105
-3.92434
-2.28349
-2.32225
-2.36303
-2.40477
-2.45343
-2.53175
-2.56259
-2.58598
-2.65992
-3.08426
-4.12691
-4.04993
-3.03892
-3.08057
-3.1219
-3.10263
-20.8256
-55.1876
-4.55786
-2.28024
-2.31806
-2.35696
-2.39573
-2.44802
-2.51799
-2.5172
-2.55253
-2.60636
-3.45016
-4.17133
-4.2504
-3.09395
-2.79496
-2.69798
-2.36055
-8.16186
-65.5016
-225.739
-2.27284
-2.30976
-2.34668
-2.38252
-2.43075
-2.46987
-2.4766
-2.51001
-2.54133
-4.0787
-4.20927
-4.2422
-3.86159
-2.56128
-2.4164
-2.10822
-2.22842
-37.7546
-780.051
-2.26145
-2.29729
-2.33218
-2.36645
-2.39996
-2.41931
-2.44308
-2.46312
-2.46961
-3.96769
-4.248
-4.24844
-4.20614
-2.45741
-2.31012
-2.13515
-1.9939
-11.4161
-913.167
-2.24615
-2.28073
-2.31382
-2.34523
-2.37081
-2.39255
-2.4098
-2.41915
-2.41132
-2.63951
-4.2949
-4.28979
-2.98933
-2.35626
-2.27362
-2.17825
-2.07442
-4.13529
-1001.4
-2.22735
-2.2605
-2.29198
-2.3208
-2.34553
-2.36552
-2.37923
-2.38396
-2.37369
-2.34092
-3.93974
-4.3113
-2.50289
-2.31529
-2.26464
-2.21619
-2.19118
-4.36093
-1084.14
-2.20573
-2.23747
-2.2676
-2.29542
-2.31975
-2.33917
-2.35226
-2.35706
-2.34948
-2.34277
-2.55888
-2.50327
-2.36684
-2.30414
-2.27443
-2.25599
-2.26167
-4.03495
-1165.13
-2.18232
-2.21287
-2.24217
-2.26976
-2.29432
-2.31453
-2.32926
-2.33706
-2.41118
-2.68025
-2.31294
-2.30144
-2.31302
-2.30592
-2.29474
-2.30994
-2.40284
-3.07507
-1236.09
-2.15854
-2.18828
-2.2173
-2.24514
-2.27057
-2.29249
-2.30989
-2.32077
-2.57825
-2.7161
-2.59697
-2.3282
-2.31871
-2.30906
-2.29648
-2.30949
-2.43881
-10.2
-888.836
-2.13592
-2.16538
-2.19455
-2.22306
-2.24984
-2.27397
-2.29446
-2.30918
-2.44215
-2.74041
-2.72278
-2.38662
-2.33308
-2.3124
-2.27646
-2.2297
-2.18733
-15.2896
-889.603
-2.11581
-2.14543
-2.17507
-2.20451
-2.233
-2.25982
-2.28418
-2.30699
-2.31856
-2.44114
-2.39924
-2.36797
-2.36138
-2.33539
-2.2816
-2.18605
-2.03565
-9.51484
-1359.04
-2.0989
-2.12893
-2.15917
-2.18971
-2.22044
-2.25025
-2.27938
-2.31516
-2.33219
-2.35438
-2.38212
-2.40538
-2.41304
-2.39781
-2.35218
-2.27325
-2.15927
-2.11932
-1791.35
-2.08498
-2.11542
-2.14631
-2.17817
-2.21128
-2.24476
-2.27903
-2.32321
-2.35354
-2.38637
-2.4251
-2.46276
-2.48772
-2.49705
-2.48077
-2.45059
-2.40179
-2.30654
-1971.26
-2.07292
-2.10372
-2.13536
-2.16892
-2.20399
-2.24156
-2.28153
-2.32992
-2.37263
-2.42064
-2.47442
-2.54231
-2.58781
-2.61675
-2.64129
-2.66995
-2.63602
-5.07558
-2162.53
-2.06103
-2.09219
-2.12467
-2.15972
-2.19741
-2.23869
-2.28527
-2.33684
-2.39331
-2.45418
-2.52272
-2.60835
-2.67867
-2.73188
-2.80443
-2.94935
-2.81123
-17.3224
-2415.95
-2.04745
-2.07904
-2.11239
-2.14894
-2.18936
-2.23567
-2.28854
-2.34791
-2.41339
-2.48416
-2.55978
-2.6573
-2.74381
-2.80479
-2.8953
-3.18731
-31.3153
-76.8429
-2671.82
-2.03033
-2.06246
-2.09674
-2.13514
-2.17916
-2.23042
-2.28964
-2.35653
-2.43005
-2.5088
-2.59121
-2.67697
-2.77287
-2.8576
-2.88099
-3.13799
-110.903
-621.168
-2898.91
-2.00793
-2.04069
-2.07618
-2.11681
-2.16445
-2.22089
-2.28676
-2.36123
-2.44232
-2.5275
-2.61383
-2.69712
-2.77699
-2.98782
-3.24458
-2.9683
-201.339
-2187.55
-3092.58
-1.97868
-2.01209
-2.04878
-2.0917
-2.14311
-2.20504
-2.27807
-2.36087
-2.45008
-2.54146
-2.6296
-2.70601
-2.7654
-3.11557
-4.05224
-3.19521
-306.217
-3018.97
-3247.19
-1.94131
-1.97516
-2.01282
-2.05786
-2.11303
-2.18076
-2.26178
-2.35458
-2.45433
-2.55481
-2.64736
-2.71551
-2.7479
-3.21998
-3.77019
-3.50974
-359.786
-3180.87
-3368.17
-1.8948
-1.92861
-1.96669
-2.01333
-2.07199
-2.14578
-2.23602
-2.34127
-2.45901
-2.57299
-2.68815
-2.75037
-2.7568
-3.04877
-3.12412
-3.24467
-327.186
-3372.23
-3481.65
-1.83841
-1.87134
-1.90883
-1.95609
-2.01761
-2.09757
-2.19847
-2.31972
-2.46453
-2.60111
-2.73959
-2.93556
-3.10689
-3.1062
-3.0806
-4.34419
-451.87
-3597.04
-3598.45
-1.77184
-1.80259
-1.83791
-1.88408
-1.94722
-2.03295
-2.14602
-2.28791
-2.46166
-2.6407
-2.80779
-3.18158
-3.71095
-3.34288
-3.51554
-30.9052
-1715.87
-3714.55
-3716.38
-1.69525
-1.72186
-1.75274
-1.79524
-1.85758
-1.94782
-2.07414
-2.2421
-2.45346
-2.69518
-2.9066
-3.53714
-3.67451
-3.88087
-20.255
-944.202
-3630.57
-3824.97
-3821.06
-1.60924
-1.62903
-1.65243
-1.68793
-1.74534
-1.83701
-1.9763
-2.17812
-2.4566
-2.79081
-3.12863
-3.94527
-3.91195
-5.10083
-352.879
-3507.1
-3940.2
-3925.65
-3917.76
-1.51499
-1.52517
-1.53734
-1.56146
-1.60786
-1.69466
-1.84457
-2.10481
-2.4973
-3.05583
-3.78658
-4.51541
-5.47552
-22.3112
-1608.07
-4047.6
-4026.14
-4010.64
-4006.25
-1.41479
-1.41295
-1.41061
-1.4169
-1.44484
-1.51713
-1.67509
-2.04196
-2.76721
-3.76263
-5.4243
-5.75901
-11.5723
-563.172
-3878.27
-4137.7
-4099.38
-4083.28
-4087.26
-1.31282
-1.29729
-1.27752
-1.26031
-1.25993
-1.30958
-1.50472
-1.99923
-3.45479
-5.43427
-7.8294
-12.0315
-60.177
-1997.97
-4275.19
-4205.82
-4163.56
-4148.45
-4162.36
-1.21539
-1.18568
-1.14636
-1.10236
-1.0656
-1.08589
-1.29497
-1.89124
-4.28115
-9.40341
-13.51
-26.5194
-572.077
-3661.45
-4338.82
-4265.81
-4223.24
-4212.7
-4233.12
-1.1306
-1.08729
-1.0303
-0.959985
-0.881911
-0.848471
-0.942928
-1.43799
-3.86055
-11.9628
-24.6381
-69.2322
-1843.42
-4500.03
-4393.82
-4325.34
-4285.16
-4278.38
-4306.26
-1.06506
-1.00949
-0.940469
-0.851007
-0.734151
-0.620621
-0.529969
-0.8807
-3.20298
-12.4434
-38.5507
-322.761
-3125.6
-4557.39
-4451.69
-4388.68
-4352.56
-4350.46
-4384.34
-1.01533
-0.949297
-0.878543
-0.8152
-0.672864
-0.484446
-0.29432
-0.507162
-2.80594
-12.5017
-42.7372
-384.947
-3213.45
-4622.85
-4514.92
-4458.54
-4430.72
-4432.92
-4466.31
-0.963103
-0.910529
-1.07859
-1.01451
-0.875171
-0.555764
-0.306933
-0.25456
-2.35938
-10.2578
-28.3941
-175.335
-2610.64
-4612.13
-4580.2
-4533.43
-4516.04
-4524.21
-4550.72
-0.900242
-0.78533
-0.828517
-1.01324
-0.859068
-0.601441
-0.137366
-1.87686
-10.1785
-25.1798
-35.3474
-119.512
-1842.06
-4180.53
-4638.24
-4607.34
-4601.05
-4615.41
-4639.98
-1.13066
-0.832646
-0.715486
-0.964176
-0.748134
-2.94743
-79.7417
-193.837
-95.8125
-95.6879
-612.837
-2071.93
-3460.47
-4275.75
-4697.3
-4671.94
-4680.44
-4696.54
-4727.09
-300.539
-283.08
-400.34
-634.752
-1063.12
-1555.64
-1758.31
-1899.87
-2157.51
-2612.35
-3343.61
-4163.92
-4821.13
-4760.96
-4764.8
-4717.09
-4746.57
-4760.52
-4826.72
-2550.08
-2524.27
-2515.56
-2550.91
-2538.69
-2462.98
-776.383
-1026.22
-3575.67
-5070.8
-5083.81
-4977.72
-4947.36
-4812.21
-4834.99
-4723.1
-4788.73
-4779
-4975.98
-67.4019
-33.9168
-35.7509
-111.933
-123.211
-46.3498
-27.5447
-126.005
-196.754
-171.125
-378.449
-300.561
-739.809
-553.019
-988.429
-670.621
-1138.22
-781.908
-1322.29
)
;

boundaryField
{
    leftWall
    {
        type            fixedFluxPressure;
        gradient        uniform 0;
        value           nonuniform List<scalar> 
50
(
-1.82661
-1.82729
-1.82761
-1.82777
-1.82751
-1.82671
-1.82533
-1.82337
-1.81939
-1.81121
-1.79999
-1.78593
-1.76902
-1.74958
-1.72794
-1.70452
-1.67969
-1.65373
-1.62681
-1.59908
-1.57066
-1.54169
-1.51221
-1.48222
-1.45166
-1.42043
-1.38837
-1.35526
-1.32082
-1.28471
-1.24653
-1.2058
-1.16201
-1.11456
-1.06282
-1.00608
-0.943796
-0.875453
-0.801044
-0.720641
-0.634678
-0.544192
-0.451128
-0.358573
-0.270763
-0.332994
-2.418
-2.5988
-2.50517
-0.872912
)
;
    }
    rightWall
    {
        type            fixedFluxPressure;
        gradient        uniform 0;
        value           nonuniform List<scalar> 
50
(
-2.95783
-2.93299
-2.93162
-2.96154
-3.01365
-3.07931
-3.1536
-3.23603
-3.38085
-3.57666
-3.7371
-3.92434
-4.55786
-225.739
-780.051
-913.167
-1001.4
-1084.14
-1165.13
-1236.09
-888.836
-889.603
-1359.04
-1791.35
-1971.26
-2162.53
-2415.95
-2671.82
-2898.91
-3092.58
-3247.19
-3368.17
-3481.65
-3598.45
-3716.38
-3821.06
-3917.76
-4006.25
-4087.26
-4162.36
-4233.12
-4306.26
-4384.34
-4466.31
-4550.72
-4639.98
-4727.09
-4826.72
-4975.98
-1322.29
)
;
    }
    lowerWall
    {
        type            fixedFluxPressure;
        gradient        uniform 0;
        value           nonuniform List<scalar> 
62
(
-1.82661
-1.82585
-1.82939
-1.83628
-1.84572
-1.85748
-1.87134
-1.88714
-1.90484
-1.92441
-1.94585
-1.96914
-1.99418
-2.02069
-2.04806
-2.07512
-2.09983
-2.11873
-2.12853
-2.1258
-2.11168
-2.09592
-2.08382
-2.08382
-2.07965
-2.08161
-2.08884
-2.10085
-2.11707
-2.13666
-2.15845
-2.2401
-2.24072
-2.25384
-2.2774
-2.3364
-2.33612
-2.33159
-2.32374
-2.31215
-2.30116
-2.29185
-2.28654
-2.3364
-2.35382
-2.37259
-2.40035
-2.4347
-2.47244
-2.5081
-2.5389
-2.569
-2.60698
-2.67167
-2.77727
-2.9396
-3.1586
-3.37343
-3.42738
-3.26424
-3.06481
-2.95783
)
;
    }
    atmosphere
    {
        type            totalPressure;
        rho             rho;
        psi             none;
        gamma           1;
        p0              uniform 0;
        value           nonuniform List<scalar> 
46
(
0
-0.0337844
-0.00577038
-0.00108278
-0.00306586
-0.00288752
-0.0431478
-0.00548978
-0.000811474
-0.210296
0
-0.249139
0
-0.30683
0
-0.00549671
0
-0.262467
0
-1.38943
0
-0.535481
0
-0.20659
-0.987251
-0.562401
0
0
-0.391976
-0.567169
0
0
-0.383963
-0.0931393
0
0
-1.04112
0
-0.655942
0
-2.68258
0
-3.05964
0
-5.84094
0
)
;
    }
    defaultFaces
    {
        type            empty;
    }
}


// ************************************************************************* //
