/*--------------------------------*- C++ -*----------------------------------*\
  =========                 |
  \\      /  F ield         | OpenFOAM: The Open Source CFD Toolbox
   \\    /   O peration     | Website:  https://openfoam.org
    \\  /    A nd           | Version:  9
     \\/     M anipulation  |
\*---------------------------------------------------------------------------*/
FoamFile
{
    format      ascii;
    class       surfaceScalarField;
    location    "0.9";
    object      phi;
}
// * * * * * * * * * * * * * * * * * * * * * * * * * * * * * * * * * * * * * //

dimensions      [0 3 -1 0 0 0 0];

internalField   nonuniform List<scalar> 
4432
(
2.64542e-06
-2.64542e-06
5.67559e-06
-3.03016e-06
8.02366e-06
-2.34806e-06
9.67499e-06
-1.65133e-06
1.09551e-05
-1.28009e-06
1.21417e-05
-1.18667e-06
1.34045e-05
-1.2628e-06
1.48248e-05
-1.42032e-06
1.64413e-05
-1.61652e-06
1.82732e-05
-1.83191e-06
2.03257e-05
-2.05259e-06
2.25881e-05
-2.26242e-06
2.50244e-05
-2.43639e-06
2.75578e-05
-2.53346e-06
3.00466e-05
-2.48886e-06
3.2247e-05
-2.2005e-06
3.37642e-05
-1.51718e-06
3.38587e-05
-9.45395e-08
3.11575e-05
2.70121e-06
2.47144e-05
6.44319e-06
1.47416e-05
9.97273e-06
4.44651e-06
1.02952e-05
4.44654e-06
3.00531e-06
-5.65072e-06
5.42028e-06
-5.44512e-06
7.26818e-06
-4.19594e-06
8.76463e-06
-3.14778e-06
1.00509e-05
-2.56637e-06
1.12627e-05
-2.3985e-06
1.25048e-05
-2.50501e-06
1.38541e-05
-2.76959e-06
1.53613e-05
-3.12377e-06
1.70572e-05
-3.52791e-06
1.89555e-05
-3.95097e-06
2.10504e-05
-4.35752e-06
2.33094e-05
-4.69543e-06
2.56585e-05
-4.88272e-06
2.79634e-05
-4.79374e-06
3.00078e-05
-4.24496e-06
3.14815e-05
-2.9909e-06
3.20701e-05
-6.83147e-07
3.14651e-05
3.30626e-06
2.85078e-05
9.40056e-06
2.13878e-05
1.70928e-05
1.01251e-05
2.1558e-05
1.45717e-05
2.92366e-06
-8.57438e-06
5.01051e-06
-7.53195e-06
6.58806e-06
-5.77348e-06
7.94013e-06
-4.49985e-06
9.15828e-06
-3.78453e-06
1.03158e-05
-3.55601e-06
1.14869e-05
-3.6762e-06
1.27384e-05
-4.02111e-06
1.41212e-05
-4.50665e-06
1.56694e-05
-5.07613e-06
1.74e-05
-5.68162e-06
1.93105e-05
-6.26805e-06
2.13714e-05
-6.75638e-06
2.3514e-05
-7.02542e-06
2.56133e-05
-6.89307e-06
2.74697e-05
-6.10134e-06
2.87907e-05
-4.3118e-06
2.92188e-05
-1.1113e-06
2.84599e-05
4.06518e-06
2.60862e-05
1.17744e-05
2.10758e-05
2.21031e-05
1.20062e-05
3.06278e-05
2.65779e-05
2.64228e-06
-1.12167e-05
4.49466e-06
-9.38431e-06
5.91754e-06
-7.19636e-06
7.15551e-06
-5.73783e-06
8.28814e-06
-4.91717e-06
9.36731e-06
-4.6352e-06
1.04508e-05
-4.75968e-06
1.15961e-05
-5.16652e-06
1.28515e-05
-5.76207e-06
1.42513e-05
-6.47596e-06
1.58145e-05
-7.2449e-06
1.75416e-05
-7.99519e-06
1.94078e-05
-8.62251e-06
2.13515e-05
-8.9691e-06
2.32588e-05
-8.80045e-06
2.49454e-05
-7.78786e-06
2.61401e-05
-5.50654e-06
2.64966e-05
-1.46776e-06
2.568e-05
4.8818e-06
2.34127e-05
1.40417e-05
1.92846e-05
2.62312e-05
1.18675e-05
3.80449e-05
3.84454e-05
2.31013e-06
-1.35268e-05
3.94701e-06
-1.10212e-05
5.24168e-06
-8.49103e-06
6.37528e-06
-6.87144e-06
7.41386e-06
-5.95577e-06
8.40085e-06
-5.62222e-06
9.3845e-06
-5.74337e-06
1.04151e-05
-6.19711e-06
1.15368e-05
-6.88381e-06
1.27831e-05
-7.72232e-06
1.41742e-05
-8.63604e-06
1.57136e-05
-9.53459e-06
1.7382e-05
-1.02909e-05
1.91272e-05
-1.07142e-05
2.08484e-05
-1.05217e-05
2.23785e-05
-9.31783e-06
2.34671e-05
-6.59514e-06
2.37855e-05
-1.78617e-06
2.29988e-05
5.66843e-06
2.0859e-05
1.61815e-05
1.72007e-05
2.98895e-05
1.09459e-05
4.42997e-05
4.93912e-05
1.98228e-06
-1.5509e-05
3.40914e-06
-1.2448e-05
4.57386e-06
-9.65574e-06
5.59927e-06
-7.89686e-06
6.53537e-06
-6.89189e-06
7.41966e-06
-6.50654e-06
8.29369e-06
-6.61743e-06
9.20134e-06
-7.10479e-06
1.01826e-05
-7.86512e-06
1.12693e-05
-8.80897e-06
1.24819e-05
-9.84864e-06
1.38268e-05
-1.08795e-05
1.5291e-05
-1.1755e-05
1.68322e-05
-1.22554e-05
1.83651e-05
-1.20545e-05
1.9741e-05
-1.06937e-05
2.07303e-05
-7.58442e-06
2.10228e-05
-2.07866e-06
2.02962e-05
6.39496e-06
1.83267e-05
1.8151e-05
1.50584e-05
3.31577e-05
9.77373e-06
4.95844e-05
5.91649e-05
1.67593e-06
-1.7185e-05
2.90029e-06
-1.36724e-05
3.92663e-06
-1.06821e-05
4.8352e-06
-8.80543e-06
5.65995e-06
-7.71667e-06
6.4326e-06
-7.27921e-06
7.18883e-06
-7.37369e-06
7.96657e-06
-7.88257e-06
8.80132e-06
-8.6999e-06
9.72229e-06
-9.72995e-06
1.07498e-05
-1.08762e-05
1.18927e-05
-1.20224e-05
1.31437e-05
-1.30059e-05
1.44714e-05
-1.35831e-05
1.58064e-05
-1.33895e-05
1.70202e-05
-1.19075e-05
1.79043e-05
-8.4685e-06
1.81682e-05
-2.34251e-06
1.75073e-05
7.05577e-06
1.57334e-05
1.99248e-05
1.28841e-05
3.60071e-05
8.57449e-06
5.38939e-05
6.77394e-05
1.39456e-06
-1.85795e-05
2.42411e-06
-1.47019e-05
3.30832e-06
-1.15663e-05
4.09186e-06
-9.58898e-06
4.79764e-06
-8.42247e-06
5.45152e-06
-7.93312e-06
6.08349e-06
-8.00568e-06
6.72563e-06
-8.52474e-06
7.40859e-06
-9.38288e-06
8.15837e-06
-1.04797e-05
8.99421e-06
-1.1712e-05
9.9265e-06
-1.29546e-05
1.09534e-05
-1.40328e-05
1.20541e-05
-1.46837e-05
1.31757e-05
-1.4511e-05
1.42112e-05
-1.29431e-05
1.49745e-05
-9.23173e-06
1.51955e-05
-2.5636e-06
1.45907e-05
7.66059e-06
1.30201e-05
2.14953e-05
1.06288e-05
3.83983e-05
7.3058e-06
5.72169e-05
7.50452e-05
7.25283e-06
-7.25283e-06
5.08366e-06
2.16931e-06
-2.06042e-07
5.28973e-06
-6.82859e-06
6.62261e-06
-1.31406e-05
6.3121e-06
-1.65649e-05
3.4244e-06
-1.53626e-05
-1.20237e-06
-9.73282e-06
-5.62964e-06
-3.82003e-07
-9.35077e-06
1.22696e-05
-1.26516e-05
2.79992e-05
-1.57295e-05
4.64771e-05
-1.8478e-05
6.65544e-05
-2.00775e-05
8.5055e-05
-1.85006e-05
9.08523e-05
-5.79744e-06
7.47017e-05
1.61506e-05
4.35963e-05
3.11053e-05
1.20493e-05
3.15469e-05
1.20493e-05
2.71555e-06
-9.96835e-06
-1.84371e-06
6.72877e-06
-8.75798e-06
1.22041e-05
-1.47889e-05
1.26536e-05
-1.79212e-05
9.44445e-06
-1.75634e-05
3.06683e-06
-1.41661e-05
-4.59969e-06
-7.95992e-06
-1.18358e-05
1.00988e-06
-1.83205e-05
1.25889e-05
-2.42309e-05
2.64146e-05
-2.95553e-05
4.21489e-05
-3.42125e-05
5.89393e-05
-3.6868e-05
7.40902e-05
-3.36515e-05
8.2291e-05
-1.39984e-05
7.87956e-05
1.96459e-05
6.07069e-05
4.91939e-05
2.91647e-05
6.3089e-05
4.1214e-05
-2.40129e-06
-7.56703e-06
-8.17008e-06
1.24977e-05
-1.42582e-05
1.82924e-05
-1.81939e-05
1.65894e-05
-1.91441e-05
1.03946e-05
-1.73681e-05
1.29103e-06
-1.33302e-05
-8.6376e-06
-7.1042e-06
-1.80618e-05
1.33477e-06
-2.67594e-05
1.17788e-05
-3.4675e-05
2.38582e-05
-4.16347e-05
3.72741e-05
-4.76285e-05
5.14e-05
-5.0994e-05
6.35275e-05
-4.57791e-05
6.9676e-05
-2.0147e-05
6.66974e-05
2.26246e-05
5.55733e-05
6.03179e-05
3.22339e-05
8.64283e-05
7.34479e-05
-6.17278e-06
-1.3942e-06
-1.24729e-05
1.87979e-05
-1.74684e-05
2.3288e-05
-1.98853e-05
1.90064e-05
-1.9641e-05
1.01502e-05
-1.7175e-05
-1.17482e-06
-1.28575e-05
-1.29552e-05
-6.76691e-06
-2.41524e-05
1.08078e-06
-3.4607e-05
1.05026e-05
-4.4097e-05
2.11816e-05
-5.23137e-05
3.30656e-05
-5.95125e-05
4.54772e-05
-6.34057e-05
5.57151e-05
-5.6017e-05
6.06056e-05
-2.50375e-05
5.71323e-05
2.60979e-05
4.79012e-05
6.9549e-05
2.99648e-05
0.000104365
0.000103413
-8.89878e-06
7.50467e-06
-1.54044e-05
2.53037e-05
-1.94411e-05
2.73247e-05
-2.08424e-05
2.04078e-05
-1.98788e-05
9.18654e-06
-1.70132e-05
-4.04031e-06
-1.25852e-05
-1.73832e-05
-6.70762e-06
-3.003e-05
5.10907e-07
-4.18256e-05
8.85129e-06
-5.24374e-05
1.86099e-05
-6.20723e-05
3.00258e-05
-7.09285e-05
4.15609e-05
-7.49407e-05
5.07887e-05
-6.52449e-05
5.43513e-05
-2.86001e-05
5.02372e-05
3.0212e-05
4.14071e-05
7.83791e-05
2.65379e-05
0.000119234
0.000129951
-1.11632e-05
1.8668e-05
-1.75358e-05
3.16763e-05
-2.0747e-05
3.05361e-05
-2.13995e-05
2.10604e-05
-1.99289e-05
7.71593e-06
-1.68011e-05
-7.16804e-06
-1.2363e-05
-2.18214e-05
-6.80541e-06
-3.55876e-05
-3.6516e-07
-4.82659e-05
7.12738e-06
-5.993e-05
1.64318e-05
-7.13768e-05
2.78773e-05
-8.23739e-05
3.92556e-05
-8.6319e-05
4.81102e-05
-7.40995e-05
5.09687e-05
-3.14586e-05
4.56138e-05
3.55668e-05
3.60396e-05
8.79534e-05
2.31122e-05
0.000132161
0.000153063
-1.32403e-05
3.19084e-05
-1.92465e-05
3.76825e-05
-2.16385e-05
3.29282e-05
-2.16473e-05
2.10692e-05
-1.97625e-05
5.83114e-06
-1.64442e-05
-1.04863e-05
-1.20595e-05
-2.62061e-05
-6.93975e-06
-4.07074e-05
-1.08666e-06
-5.4119e-05
6.13684e-06
-6.71536e-05
1.52036e-05
-8.04436e-05
2.57192e-05
-9.28896e-05
3.64478e-05
-9.70476e-05
4.51456e-05
-8.27972e-05
4.71195e-05
-3.34325e-05
4.2943e-05
3.97433e-05
3.34649e-05
9.74315e-05
2.08188e-05
0.000144807
0.000173881
-1.55757e-05
4.74842e-05
-2.06891e-05
4.27959e-05
-2.21833e-05
3.44224e-05
-2.15855e-05
2.04714e-05
-1.93457e-05
3.5914e-06
-1.58936e-05
-1.39384e-05
-1.16551e-05
-3.04447e-05
-6.88774e-06
-4.54748e-05
-1.22e-06
-5.97867e-05
6.0225e-06
-7.43961e-05
1.46203e-05
-8.90414e-05
2.38623e-05
-0.000102132
3.34228e-05
-0.000106608
4.15961e-05
-9.09704e-05
4.30053e-05
-3.48416e-05
3.8564e-05
4.41847e-05
3.0485e-05
0.00010551
1.86763e-05
0.000156616
0.000192558
2.13236e-06
-2.07119e-05
3.66299e-06
-1.62326e-05
5.06467e-06
-1.2968e-05
6.28599e-06
-1.08103e-05
7.36287e-06
-9.49936e-06
8.33358e-06
-8.90386e-06
9.24151e-06
-8.91364e-06
1.01349e-05
-9.41818e-06
1.10614e-05
-1.03094e-05
1.20634e-05
-1.14817e-05
1.31748e-05
-1.28235e-05
1.44196e-05
-1.41994e-05
1.58081e-05
-1.54213e-05
1.7329e-05
-1.62046e-05
1.89277e-05
-1.61096e-05
2.04612e-05
-1.44766e-05
2.16301e-05
-1.04006e-05
2.19305e-05
-2.86398e-06
2.07878e-05
8.80323e-06
1.80846e-05
2.41985e-05
1.48662e-05
4.16167e-05
1.41743e-05
5.79088e-05
6.37707e-05
2.54488e-05
1.07188e-06
-2.17837e-05
1.74565e-06
-1.69063e-05
2.3382e-06
-1.35605e-05
2.81483e-06
-1.1287e-05
3.18099e-06
-9.86553e-06
3.45227e-06
-9.17516e-06
3.6477e-06
-9.1091e-06
3.78921e-06
-9.55973e-06
3.89885e-06
-1.04191e-05
3.99603e-06
-1.15789e-05
4.09634e-06
-1.29238e-05
4.21209e-06
-1.43152e-05
4.35397e-06
-1.55632e-05
4.53105e-06
-1.63817e-05
4.74159e-06
-1.63201e-05
4.93829e-06
-1.46733e-05
4.95336e-06
-1.04157e-05
4.43949e-06
-2.35012e-06
3.04575e-06
1.01969e-05
7.96828e-07
2.64474e-05
-1.12096e-06
4.35345e-05
-1.18854e-07
5.69067e-05
6.28935e-05
7.58291e-07
-1.89021e-08
-2.17648e-05
-1.68815e-07
-1.67564e-05
-4.02785e-07
-1.33266e-05
-7.20463e-07
-1.09693e-05
-1.12036e-06
-9.46564e-06
-1.60401e-06
-8.69151e-06
-2.17297e-06
-8.54016e-06
-2.82856e-06
-8.90416e-06
-3.5737e-06
-9.67401e-06
-4.41494e-06
-1.07377e-05
-5.3635e-06
-1.19753e-05
-6.43449e-06
-1.32442e-05
-7.6439e-06
-1.43538e-05
-9.00405e-06
-1.50216e-05
-1.05201e-05
-1.48041e-05
-1.21946e-05
-1.29988e-05
-1.40476e-05
-8.56272e-06
-1.62132e-05
-1.84572e-07
-1.8725e-05
1.27088e-05
-2.14353e-05
2.91576e-05
-2.38096e-05
4.59088e-05
-2.61277e-05
5.92249e-05
6.64514e-05
-2.96853e-05
-9.7319e-07
-2.07917e-05
-2.02309e-06
-1.57066e-05
-3.09418e-06
-1.22555e-05
-4.20612e-06
-9.85734e-06
-5.37318e-06
-8.29856e-06
-6.61123e-06
-7.45345e-06
-7.93813e-06
-7.21326e-06
-9.3742e-06
-7.46811e-06
-1.0944e-05
-8.1042e-06
-1.2679e-05
-9.00287e-06
-1.46191e-05
-1.00352e-05
-1.68146e-05
-1.10488e-05
-1.93247e-05
-1.18438e-05
-2.22131e-05
-1.21333e-05
-2.55365e-05
-1.14808e-05
-2.93168e-05
-9.2185e-06
-3.34894e-05
-4.39018e-06
-3.77651e-05
4.09118e-06
-4.17697e-05
1.67134e-05
-4.50494e-05
3.24372e-05
-4.75734e-05
4.84328e-05
-4.99036e-05
6.15551e-05
6.95538e-05
-5.3006e-05
-1.90383e-06
-1.88878e-05
-3.79482e-06
-1.38156e-05
-5.6634e-06
-1.03869e-05
-7.53368e-06
-7.98705e-06
-9.43066e-06
-6.40157e-06
-1.13807e-05
-5.50335e-06
-1.34131e-05
-5.18086e-06
-1.55612e-05
-5.31998e-06
-1.78648e-05
-5.80061e-06
-2.03729e-05
-6.49489e-06
-2.31465e-05
-7.26158e-06
-2.62619e-05
-7.93341e-06
-2.98107e-05
-8.2952e-06
-3.38938e-05
-8.05015e-06
-3.85995e-05
-6.77509e-06
-4.3942e-05
-3.87599e-06
-4.97394e-05
1.40722e-06
-5.54695e-05
9.82124e-06
-6.03642e-05
2.16082e-05
-6.37364e-05
3.58094e-05
-6.54265e-05
5.0123e-05
-6.56493e-05
6.17779e-05
6.84956e-05
-6.45911e-05
-2.76091e-06
-1.61269e-05
-5.43862e-06
-1.11379e-05
-8.04554e-06
-7.78001e-06
-1.06153e-05
-5.41726e-06
-1.31798e-05
-3.83704e-06
-1.57716e-05
-2.91157e-06
-1.84256e-05
-2.52677e-06
-2.11816e-05
-2.56401e-06
-2.40854e-05
-2.89671e-06
-2.71924e-05
-3.38794e-06
-3.05692e-05
-3.88477e-06
-3.4296e-05
-4.20669e-06
-3.8464e-05
-4.12726e-06
-4.3164e-05
-3.35014e-06
-4.84528e-05
-1.48638e-06
-5.4279e-05
1.95027e-06
-6.03668e-05
7.49499e-06
-6.61106e-05
1.55651e-05
-7.06296e-05
2.61272e-05
-7.31068e-05
3.82866e-05
-7.3184e-05
5.02003e-05
-7.10021e-05
5.95961e-05
6.45865e-05
-6.70929e-05
-3.52768e-06
-1.25993e-05
-6.91908e-06
-7.74662e-06
-1.01928e-05
-4.50631e-06
-1.33895e-05
-2.22056e-06
-1.65444e-05
-6.82108e-07
-1.96917e-05
2.35783e-07
-2.28671e-05
6.48649e-07
-2.61095e-05
6.78387e-07
-2.94625e-05
4.56357e-07
-3.2976e-05
1.2558e-07
-3.67066e-05
-1.54127e-07
-4.07167e-05
-1.96684e-07
-4.50674e-05
2.23463e-07
-4.98021e-05
1.38456e-06
-5.491e-05
3.62156e-06
-6.02638e-05
7.304e-06
-6.5536e-05
1.27673e-05
-7.01462e-05
2.01752e-05
-7.33264e-05
2.93075e-05
-7.43865e-05
3.93468e-05
-7.30533e-05
4.88672e-05
-6.96324e-05
5.61751e-05
5.98672e-05
-6.4913e-05
-4.19629e-06
-8.40304e-06
-8.21637e-06
-3.72663e-06
-1.2078e-05
-6.44707e-07
-1.5822e-05
1.52343e-06
-1.94835e-05
2.9794e-06
-2.30947e-05
3.84701e-06
-2.66877e-05
4.24168e-06
-3.02956e-05
4.28641e-06
-3.39534e-05
4.11421e-06
-3.76975e-05
3.86971e-06
-4.15648e-05
3.71314e-06
-4.55885e-05
3.82704e-06
-4.97892e-05
4.42418e-06
-5.41564e-05
5.75178e-06
-5.86177e-05
8.08284e-06
-6.29962e-05
1.16826e-05
-6.69693e-05
1.67404e-05
-7.00596e-05
2.32655e-05
-7.17126e-05
3.09605e-05
-7.14892e-05
3.91234e-05
-6.92963e-05
4.66744e-05
-6.54867e-05
5.23656e-05
5.50812e-05
-6.07008e-05
-4.75973e-06
-3.64337e-06
-9.32427e-06
8.3783e-07
-1.36918e-05
3.72283e-06
-1.7901e-05
5.73254e-06
-2.19844e-05
7.06289e-06
-2.597e-05
7.83259e-06
-2.98834e-05
8.15521e-06
-3.37493e-05
8.15232e-06
-3.75903e-05
7.95529e-06
-4.14266e-05
7.70606e-06
-4.5273e-05
7.55957e-06
-4.91338e-05
7.68787e-06
-5.29933e-05
8.28375e-06
-5.68006e-05
9.55908e-06
-6.04482e-05
1.17304e-05
-6.37496e-05
1.4984e-05
-6.64274e-05
1.94181e-05
-6.81302e-05
2.49684e-05
-6.85037e-05
3.1334e-05
-6.7314e-05
3.79338e-05
-6.45707e-05
4.39311e-05
-6.05486e-05
4.83436e-05
5.01792e-05
-5.56466e-05
-5.23012e-06
1.58668e-06
-1.02491e-05
5.85677e-06
-1.5038e-05
8.51164e-06
-1.96309e-05
1.03255e-05
-2.40556e-05
1.14876e-05
-2.83337e-05
1.21107e-05
-3.24831e-05
1.23047e-05
-3.65185e-05
1.21878e-05
-4.04504e-05
1.18872e-05
-4.42834e-05
1.15391e-05
-4.80133e-05
1.12895e-05
-5.16219e-05
1.12965e-05
-5.5069e-05
1.17309e-05
-5.82816e-05
1.27717e-05
-6.11419e-05
1.45907e-05
-6.34792e-05
1.73213e-05
-6.50731e-05
2.1012e-05
-6.56786e-05
2.55739e-05
-6.5078e-05
3.07334e-05
-6.31514e-05
3.60072e-05
-5.9931e-05
4.07107e-05
-5.55932e-05
4.40057e-05
4.49573e-05
-5.03713e-05
-5.61546e-06
7.20208e-06
-1.09988e-05
1.12401e-05
-1.61278e-05
1.36406e-05
-2.10284e-05
1.5226e-05
-2.57208e-05
1.61801e-05
-3.02197e-05
1.66096e-05
-3.4535e-05
1.662e-05
-3.86721e-05
1.63249e-05
-4.26309e-05
1.5846e-05
-4.64037e-05
1.53119e-05
-4.99724e-05
1.48583e-05
-5.33046e-05
1.46287e-05
-5.63468e-05
1.47732e-05
-5.90185e-05
1.54434e-05
-6.12059e-05
1.67782e-05
-6.27618e-05
1.88772e-05
-6.35148e-05
2.1765e-05
-6.32914e-05
2.53506e-05
-6.19508e-05
2.93928e-05
-5.94217e-05
3.3478e-05
-5.5725e-05
3.70141e-05
-5.09656e-05
3.92464e-05
3.92838e-05
-4.52921e-05
-5.91397e-06
1.3116e-05
-1.15838e-05
1.691e-05
-1.69789e-05
1.90357e-05
-2.2117e-05
2.03642e-05
-2.70113e-05
2.10744e-05
-3.16693e-05
2.12676e-05
-3.60938e-05
2.10445e-05
-4.02827e-05
2.05138e-05
-4.42276e-05
1.97909e-05
-4.79123e-05
1.89967e-05
-5.13105e-05
1.82565e-05
-5.43819e-05
1.77002e-05
-5.70685e-05
1.74598e-05
-5.92902e-05
1.76651e-05
-6.09423e-05
1.84303e-05
-6.1899e-05
1.98338e-05
-6.20224e-05
2.18884e-05
-6.11809e-05
2.4509e-05
-5.92707e-05
2.74825e-05
-5.62363e-05
3.04436e-05
-5.20822e-05
3.286e-05
-4.6873e-05
3.40371e-05
3.31338e-05
-4.07229e-05
-6.13343e-06
1.92495e-05
-1.20178e-05
2.27944e-05
-1.76106e-05
2.46284e-05
-2.29222e-05
2.56758e-05
-2.79591e-05
2.61114e-05
-3.27229e-05
2.60315e-05
-3.72108e-05
2.55324e-05
-4.14147e-05
2.47178e-05
-4.5321e-05
2.36973e-05
-4.89085e-05
2.25842e-05
-5.21467e-05
2.14947e-05
-5.49928e-05
2.05463e-05
-5.73887e-05
1.98558e-05
-5.92583e-05
1.95347e-05
-6.05066e-05
1.96786e-05
-6.10229e-05
2.03501e-05
-6.06898e-05
2.15554e-05
-5.9397e-05
2.32162e-05
-5.7056e-05
2.51416e-05
-5.36146e-05
2.70021e-05
-4.9066e-05
2.83114e-05
-4.34579e-05
2.8429e-05
2.6576e-05
-3.69001e-05
-6.28259e-06
2.55321e-05
-1.23142e-05
2.88261e-05
-1.80408e-05
3.0355e-05
-2.34664e-05
3.11014e-05
-2.8592e-05
3.1237e-05
-3.34145e-05
3.0854e-05
-3.79267e-05
3.00447e-05
-4.21171e-05
2.89083e-05
-4.59691e-05
2.75493e-05
-4.94592e-05
2.60744e-05
-5.25559e-05
2.45914e-05
-5.52169e-05
2.32073e-05
-5.73867e-05
2.20256e-05
-5.89942e-05
2.11423e-05
-5.99524e-05
2.06368e-05
-6.0161e-05
2.05587e-05
-5.95139e-05
2.09083e-05
-5.79103e-05
2.16125e-05
-5.52672e-05
2.24984e-05
-5.15318e-05
2.32667e-05
-4.66937e-05
2.34733e-05
-4.08003e-05
2.25356e-05
1.9752e-05
-3.39762e-05
-6.36773e-06
3.18998e-05
-1.24836e-05
3.49419e-05
-1.82836e-05
3.6155e-05
-2.37668e-05
3.65846e-05
-2.893e-05
3.64002e-05
-3.37668e-05
3.56908e-05
-3.82676e-05
3.45455e-05
-4.24189e-05
3.30598e-05
-4.62031e-05
3.13334e-05
-4.95966e-05
2.94679e-05
-5.25688e-05
2.75636e-05
-5.50797e-05
2.57182e-05
-5.70776e-05
2.40235e-05
-5.84966e-05
2.25613e-05
-5.92564e-05
2.13965e-05
-5.92639e-05
2.05662e-05
-5.84198e-05
2.00642e-05
-5.66278e-05
1.98204e-05
-5.38065e-05
1.96771e-05
-4.99036e-05
1.93637e-05
-4.49114e-05
1.84811e-05
-3.88889e-05
1.65131e-05
1.28509e-05
-3.19878e-05
-6.39277e-06
3.82926e-05
-1.25323e-05
4.10813e-05
-1.83471e-05
4.19698e-05
-2.38325e-05
4.20701e-05
-2.89829e-05
4.15506e-05
-3.37899e-05
4.04979e-05
-3.82427e-05
3.89984e-05
-4.23275e-05
3.71447e-05
-4.60271e-05
3.5033e-05
-4.93191e-05
3.27599e-05
-5.21752e-05
3.04197e-05
-5.45585e-05
2.81014e-05
-5.64212e-05
2.58862e-05
-5.77029e-05
2.3843e-05
-5.83292e-05
2.20228e-05
-5.82135e-05
2.04505e-05
-5.72621e-05
1.91127e-05
-5.53824e-05
1.79407e-05
-5.24957e-05
1.67904e-05
-4.85528e-05
1.54208e-05
-4.35547e-05
1.34831e-05
-3.75786e-05
1.05371e-05
6.07797e-06
-3.08057e-05
-6.35914e-06
4.46517e-05
-1.24624e-05
4.71846e-05
-1.82332e-05
4.77405e-05
-2.36646e-05
4.75016e-05
-2.87498e-05
4.66358e-05
-3.34798e-05
4.52279e-05
-3.78439e-05
4.33625e-05
-4.18291e-05
4.11299e-05
-4.54193e-05
3.86232e-05
-4.85945e-05
3.59351e-05
-5.13288e-05
3.3154e-05
-5.35888e-05
3.03613e-05
-5.53308e-05
2.76282e-05
-5.64993e-05
2.50115e-05
-5.70261e-05
2.25495e-05
-5.68313e-05
2.02557e-05
-5.5828e-05
1.81093e-05
-5.39302e-05
1.60429e-05
-5.10654e-05
1.39256e-05
-4.71926e-05
1.15479e-05
-4.23258e-05
8.61631e-06
-3.65614e-05
4.77283e-06
-3.81494e-07
-3.0102e-05
-6.26583e-06
5.09175e-05
-1.22715e-05
5.31902e-05
-1.79372e-05
5.34061e-05
-2.32553e-05
5.28197e-05
-2.82188e-05
5.15994e-05
-3.28193e-05
4.98285e-05
-3.7047e-05
4.75903e-05
-4.08905e-05
4.49734e-05
-4.43356e-05
4.20683e-05
-4.73646e-05
3.8964e-05
-4.99543e-05
3.57437e-05
-5.20744e-05
3.24814e-05
-5.36851e-05
2.92389e-05
-5.47358e-05
2.60623e-05
-5.51646e-05
2.29783e-05
-5.48995e-05
1.99906e-05
-5.3863e-05
1.70728e-05
-5.19795e-05
1.41594e-05
-4.91884e-05
1.11344e-05
-4.54621e-05
7.82173e-06
-4.08306e-05
3.98482e-06
-3.54056e-05
-6.5212e-07
-6.39938e-06
-2.93877e-05
-6.10966e-06
5.70271e-05
-1.1953e-05
5.90334e-05
-1.74485e-05
5.89016e-05
-2.2589e-05
5.79602e-05
-2.73683e-05
5.63787e-05
-3.17794e-05
5.42396e-05
-3.58142e-05
5.16251e-05
-3.94632e-05
4.86223e-05
-4.27144e-05
4.53196e-05
-4.55525e-05
4.18021e-05
-4.79568e-05
3.8148e-05
-4.98999e-05
3.44244e-05
-5.13455e-05
3.06846e-05
-5.22481e-05
2.69649e-05
-5.25528e-05
2.32831e-05
-5.21972e-05
1.96351e-05
-5.11161e-05
1.59916e-05
-4.92484e-05
1.22917e-05
-4.655e-05
8.4361e-06
-4.30107e-05
4.28251e-06
-3.86764e-05
-3.49421e-07
-3.36623e-05
-5.66628e-06
-1.19196e-05
-2.8142e-05
-5.88561e-06
6.29126e-05
-1.14965e-05
6.46443e-05
-1.67512e-05
6.41562e-05
-2.16434e-05
6.28525e-05
-2.61687e-05
6.09039e-05
-3.03219e-05
5.83928e-05
-3.40973e-05
5.54004e-05
-3.74876e-05
5.20126e-05
-4.04834e-05
4.83154e-05
-4.30716e-05
4.43903e-05
-4.5234e-05
4.03104e-05
-4.69458e-05
3.61362e-05
-4.81748e-05
3.19136e-05
-4.88813e-05
2.76714e-05
-4.90188e-05
2.34206e-05
-4.85367e-05
1.91529e-05
-4.73843e-05
1.48391e-05
-4.55181e-05
1.04255e-05
-4.29127e-05
5.83069e-06
-3.95752e-05
9.45058e-07
-3.55623e-05
-4.36234e-06
-3.09767e-05
-1.0252e-05
-1.69353e-05
-2.5961e-05
-5.58727e-06
6.84998e-05
-1.08893e-05
6.99462e-05
-1.58254e-05
6.90923e-05
-2.03911e-05
6.74181e-05
-2.45841e-05
6.50969e-05
-2.8402e-05
6.22105e-05
-3.18416e-05
5.884e-05
-3.48987e-05
5.50696e-05
-3.75664e-05
5.09831e-05
-3.98342e-05
4.66582e-05
-4.16866e-05
4.21628e-05
-4.31023e-05
3.7552e-05
-4.40541e-05
3.28654e-05
-4.45094e-05
2.81268e-05
-4.44321e-05
2.33433e-05
-4.37852e-05
1.8506e-05
-4.25345e-05
1.35884e-05
-4.06544e-05
8.54545e-06
-3.81367e-05
3.313e-06
-3.50034e-05
-2.18825e-06
-3.13109e-05
-8.05491e-06
-2.71446e-05
-1.44183e-05
-2.14564e-05
-2.26235e-05
-5.20727e-06
7.3707e-05
-1.01162e-05
7.48551e-05
-1.46483e-05
7.36244e-05
-1.88012e-05
7.15709e-05
-2.25753e-05
6.8871e-05
-2.59716e-05
6.56067e-05
-2.89903e-05
6.18587e-05
-3.16308e-05
5.77101e-05
-3.38895e-05
5.32419e-05
-3.57593e-05
4.8528e-05
-3.72282e-05
4.36317e-05
-3.82795e-05
3.86033e-05
-3.88925e-05
3.34784e-05
-3.90438e-05
2.82781e-05
-3.87095e-05
2.3009e-05
-3.78674e-05
1.76638e-05
-3.64996e-05
1.22206e-05
-3.45975e-05
6.64329e-06
-3.21666e-05
8.82123e-07
-2.92381e-05
-5.11681e-06
-2.58598e-05
-1.14332e-05
-2.21046e-05
-1.81735e-05
-2.54877e-05
-1.80734e-05
-4.7376e-06
7.84446e-05
-9.16118e-06
7.92786e-05
-1.31957e-05
7.76588e-05
-1.68411e-05
7.52163e-05
-2.01016e-05
7.21314e-05
-2.29821e-05
6.84872e-05
-2.54877e-05
6.43643e-05
-2.76221e-05
5.98445e-05
-2.93863e-05
5.50062e-05
-3.07778e-05
4.99194e-05
-3.17895e-05
4.46434e-05
-3.24109e-05
3.92247e-05
-3.26295e-05
3.3697e-05
-3.24328e-05
2.80814e-05
-3.181e-05
2.23862e-05
-3.07539e-05
1.66077e-05
-2.92622e-05
1.07289e-05
-2.734e-05
4.72111e-06
-2.50048e-05
-1.45316e-06
-2.22887e-05
-7.83289e-06
-1.92313e-05
-1.44906e-05
-1.58955e-05
-2.15093e-05
-2.90137e-05
-1.23694e-05
-4.16969e-06
8.26143e-05
-8.00737e-06
8.31163e-05
-1.14425e-05
8.10939e-05
-1.44781e-05
7.82518e-05
-1.71227e-05
7.47759e-05
-1.93868e-05
7.07513e-05
-2.12815e-05
6.62589e-05
-2.28167e-05
6.13797e-05
-2.39996e-05
5.61891e-05
-2.48339e-05
5.07536e-05
-2.5319e-05
4.51285e-05
-2.54524e-05
3.93581e-05
-2.52309e-05
3.34756e-05
-2.46535e-05
2.7504e-05
-2.37229e-05
2.14557e-05
-2.24464e-05
1.53311e-05
-2.08357e-05
9.11829e-06
-1.89076e-05
2.79293e-06
-1.66885e-05
-3.67225e-06
-1.42068e-05
-1.03145e-05
-1.14977e-05
-1.71997e-05
-8.61458e-06
-2.43925e-05
-3.19911e-05
-5.63718e-06
-3.4939e-06
8.61082e-05
-6.63752e-06
8.62598e-05
-9.36421e-06
8.38205e-05
-1.16805e-05
8.0568e-05
-1.36006e-05
7.66961e-05
-1.51423e-05
7.22929e-05
-1.63245e-05
6.74411e-05
-1.71655e-05
6.22207e-05
-1.76812e-05
5.67047e-05
-1.78832e-05
5.09555e-05
-1.77794e-05
4.50247e-05
-1.73758e-05
3.89546e-05
-1.66795e-05
3.27792e-05
-1.57005e-05
2.65251e-05
-1.44546e-05
2.02097e-05
-1.29624e-05
1.3839e-05
-1.12488e-05
7.40468e-06
-9.34063e-06
8.84828e-07
-7.27111e-06
-5.74175e-06
-5.06529e-06
-1.25203e-05
-2.75531e-06
-1.95096e-05
-3.87242e-07
-2.67605e-05
-3.43425e-05
1.9642e-06
-2.69767e-06
8.88058e-05
-5.034e-06
8.85961e-05
-6.93735e-06
8.57238e-05
-8.41878e-06
8.20494e-05
-9.50044e-06
7.77777e-05
-1.0209e-05
7.30015e-05
-1.05739e-05
6.78059e-05
-1.06247e-05
6.22715e-05
-1.03886e-05
5.64685e-05
-9.8879e-06
5.04548e-05
-9.1401e-06
4.42769e-05
-8.16037e-06
3.79749e-05
-6.96486e-06
3.15837e-05
-5.57391e-06
2.51342e-05
-4.01469e-06
1.86505e-05
-2.32111e-06
1.21454e-05
-5.30982e-07
5.61459e-06
1.31681e-06
-9.62919e-07
3.18543e-06
-7.61034e-06
5.05081e-06
-1.43857e-05
6.88402e-06
-2.13429e-05
8.64516e-06
-2.85217e-05
-3.59638e-05
1.02664e-05
-1.7601e-06
9.05659e-05
-3.17891e-06
9.00148e-05
-4.14071e-06
8.66855e-05
-4.66743e-06
8.25761e-05
-4.79192e-06
7.79022e-05
-4.55224e-06
7.27618e-05
-3.99105e-06
6.72447e-05
-3.15289e-06
6.14332e-05
-2.08035e-06
5.53959e-05
-8.09874e-07
4.91843e-05
6.29577e-07
4.28375e-05
2.21453e-06
3.63899e-05
3.92224e-06
2.9876e-05
5.7247e-06
2.33317e-05
7.58429e-06
1.67909e-05
9.45402e-06
1.02757e-05
1.12827e-05
3.78597e-06
1.30194e-05
-2.69957e-06
1.4626e-05
-9.21687e-06
1.60755e-05
-1.58352e-05
1.7341e-05
-2.26084e-05
1.83879e-05
-2.95685e-05
-3.67297e-05
1.91538e-05
-6.52498e-07
9.12183e-05
-1.05725e-06
9.04195e-05
-9.56218e-07
8.65845e-05
-4.06775e-07
8.20267e-05
5.47084e-07
7.69483e-05
1.85474e-06
7.14541e-05
3.4569e-06
6.56425e-05
5.28846e-06
5.96016e-05
7.28499e-06
5.33994e-05
9.39151e-06
4.70778e-05
1.15669e-05
4.06621e-05
1.3782e-05
3.41749e-05
1.60108e-05
2.76472e-05
1.82207e-05
2.11217e-05
2.03653e-05
1.46462e-05
2.23835e-05
8.25753e-06
2.42076e-05
1.96186e-06
2.57733e-05
-4.26517e-06
2.70391e-05
-1.04826e-05
2.79752e-05
-1.67713e-05
2.85574e-05
-2.31905e-05
2.87564e-05
-2.97675e-05
-3.64898e-05
2.85166e-05
7.07675e-07
9.05106e-05
1.36753e-06
8.97597e-05
2.62822e-06
8.53238e-05
4.37126e-06
8.02837e-05
6.5293e-06
7.47903e-05
9.03591e-06
6.89474e-05
1.18108e-05
6.28675e-05
1.47588e-05
5.66537e-05
1.7782e-05
5.03761e-05
2.07992e-05
4.40607e-05
2.37555e-05
3.77059e-05
2.66189e-05
3.13114e-05
2.93668e-05
2.48991e-05
3.19688e-05
1.85196e-05
3.43721e-05
1.22429e-05
3.64988e-05
6.13095e-06
3.82588e-05
2.01891e-07
3.95722e-05
-5.57845e-06
4.03935e-05
-1.13039e-05
4.06952e-05
-1.7073e-05
4.04575e-05
-2.29527e-05
3.9657e-05
-2.8967e-05
-3.5078e-05
3.82451e-05
2.42313e-06
8.80875e-05
4.12865e-06
8.80542e-05
6.62714e-06
8.28253e-05
9.67646e-06
7.72343e-05
1.31719e-05
7.12948e-05
1.70277e-05
6.50916e-05
2.11333e-05
5.87619e-05
2.53467e-05
5.24402e-05
2.95167e-05
4.62062e-05
3.35219e-05
4.00555e-05
3.72927e-05
3.39351e-05
4.0803e-05
2.78011e-05
4.40461e-05
2.16559e-05
4.7005e-05
1.55607e-05
4.96252e-05
9.62271e-06
5.18065e-05
3.94966e-06
5.34244e-05
-1.41593e-06
5.43793e-05
-6.53325e-06
5.46246e-05
-1.15492e-05
5.41461e-05
-1.65945e-05
5.29345e-05
-2.17411e-05
5.09736e-05
-2.7006e-05
-3.23255e-05
4.82212e-05
4.27199e-06
8.38155e-05
7.24834e-06
8.50779e-05
1.1063e-05
7.90107e-05
1.55203e-05
7.2777e-05
2.0491e-05
6.63241e-05
2.5867e-05
5.97155e-05
3.14952e-05
5.31337e-05
3.71576e-05
4.67778e-05
4.2612e-05
4.07518e-05
4.76762e-05
3.49913e-05
5.2267e-05
2.93442e-05
5.6381e-05
2.36871e-05
6.0051e-05
1.79858e-05
6.32946e-05
1.23171e-05
6.60652e-05
6.8521e-06
6.82302e-05
1.78479e-06
6.96102e-05
-2.79585e-06
7.00712e-05
-6.99429e-06
6.95783e-05
-1.10562e-05
6.81522e-05
-1.51684e-05
6.58064e-05
-1.93954e-05
6.25335e-05
-2.3733e-05
-2.80846e-05
5.82926e-05
6.28277e-06
7.75328e-05
1.07302e-05
8.06305e-05
1.59434e-05
7.37975e-05
2.19027e-05
6.68177e-05
2.84893e-05
5.97374e-05
3.55802e-05
5.26246e-05
4.29645e-05
4.57493e-05
5.03e-05
3.94424e-05
5.71864e-05
3.38653e-05
6.33468e-05
2.8831e-05
6.86953e-05
2.39957e-05
7.32839e-05
1.90984e-05
7.72261e-05
1.40435e-05
8.06131e-05
8.93016e-06
8.34285e-05
4.03679e-06
8.54903e-05
-2.77037e-07
8.65223e-05
-3.82775e-06
8.63286e-05
-6.80055e-06
8.491e-05
-9.63767e-06
8.23645e-05
-1.26228e-05
7.87441e-05
-1.5775e-05
7.40497e-05
-1.90386e-05
-2.2266e-05
6.82311e-05
8.4259e-06
6.91069e-05
1.45667e-05
7.44897e-05
2.12617e-05
6.71026e-05
2.88018e-05
5.92776e-05
3.71371e-05
5.14021e-05
4.61524e-05
4.36093e-05
5.5571e-05
3.63308e-05
6.48459e-05
3.01675e-05
7.32938e-05
2.54175e-05
8.04951e-05
2.16297e-05
8.6396e-05
1.80947e-05
9.11648e-05
1.43295e-05
9.50648e-05
1.01436e-05
9.83277e-05
5.6673e-06
0.000101015
1.34924e-06
0.000102877
-2.13871e-06
0.000103461
-4.41209e-06
0.000102449
-5.78826e-06
9.99258e-05
-7.11443e-06
9.61291e-05
-8.826e-06
9.11709e-05
-1.08168e-05
8.50492e-05
-1.29169e-05
-1.48969e-05
7.76802e-05
1.0638e-05
5.84689e-05
1.87153e-05
6.64125e-05
2.69792e-05
5.88387e-05
3.61495e-05
5.01073e-05
4.63261e-05
4.12255e-05
5.74546e-05
3.24808e-05
6.92172e-05
2.45682e-05
8.07355e-05
1.86493e-05
9.07892e-05
1.53638e-05
9.87635e-05
1.36554e-05
0.000104739
1.21194e-05
0.000109104
9.96475e-06
0.000112376
6.87143e-06
0.000115028
3.01467e-06
0.000117304
-9.2621e-07
0.000118872
-3.70698e-06
0.00011898
-4.51937e-06
0.000117042
-3.8506e-06
0.000113363
-3.43517e-06
0.000108353
-3.81662e-06
0.00010217
-4.63309e-06
9.47968e-05
-5.54422e-06
-6.20869e-06
8.61084e-05
1.27717e-05
4.56972e-05
2.30444e-05
5.61399e-05
3.29759e-05
4.89072e-05
4.3767e-05
3.93162e-05
5.5759e-05
2.92335e-05
6.9068e-05
1.91718e-05
8.34626e-05
1.01737e-05
9.75556e-05
4.55635e-06
0.000109021
3.89871e-06
0.000117056
5.62031e-06
0.000122146
7.02935e-06
0.000125068
7.0431e-06
0.000126731
5.20794e-06
0.000127968
1.77785e-06
0.000129341
-2.29903e-06
0.000130549
-4.91522e-06
0.000130414
-4.38428e-06
0.000127656
-1.09252e-06
0.000123145
1.07615e-06
0.000117433
1.89493e-06
0.000110531
2.26929e-06
0.000102294
2.69299e-06
3.34346e-06
9.27417e-05
1.45044e-05
3.11929e-05
2.72101e-05
4.34342e-05
3.89292e-05
3.71882e-05
5.12126e-05
2.70328e-05
6.47008e-05
1.57454e-05
7.99046e-05
3.96807e-06
9.70545e-05
-6.97609e-06
0.000113955
-1.23446e-05
0.000126012
-8.15753e-06
0.000132569
-9.36567e-07
0.000135115
4.48348e-06
0.000135056
7.10132e-06
0.000133808
6.45611e-06
0.000132504
3.08234e-06
0.000132178
-1.97328e-06
0.000132821
-5.55786e-06
0.000133247
-4.81054e-06
0.000130571
1.58377e-06
0.000126284
5.36294e-06
0.000121565
6.6139e-06
0.000115045
8.78881e-06
0.000106335
1.14036e-05
1.32276e-05
9.64506e-05
1.51121e-05
1.60809e-05
3.04918e-05
2.80544e-05
4.40994e-05
2.35806e-05
5.74409e-05
1.36913e-05
7.13665e-05
1.81983e-06
8.72109e-05
-1.18763e-05
0.000106868
-2.66333e-05
0.000125608
-3.10848e-05
0.000135849
-1.83984e-05
0.000138386
-3.47332e-06
0.000136653
6.21674e-06
0.000132437
1.13173e-05
0.000127814
1.10795e-05
0.000123054
7.84226e-06
0.000119792
1.28797e-06
0.000119207
-4.972e-06
0.000120249
-5.85309e-06
0.000121605
2.27553e-07
0.000122064
4.90413e-06
0.000120129
8.54939e-06
0.000114153
1.47647e-05
0.000105337
2.02196e-05
2.17501e-05
9.68143e-05
1.46521e-05
1.42878e-06
3.25972e-05
1.01093e-05
4.72322e-05
8.94564e-06
5.98874e-05
1.03612e-06
7.11521e-05
-9.44478e-06
8.36927e-05
-2.44169e-05
0.000102856
-4.57964e-05
0.000120096
-4.83253e-05
0.000125008