/*--------------------------------*- C++ -*----------------------------------*\
  =========                 |
  \\      /  F ield         | OpenFOAM: The Open Source CFD Toolbox
   \\    /   O peration     | Website:  https://openfoam.org
    \\  /    A nd           | Version:  9
     \\/     M anipulation  |
\*---------------------------------------------------------------------------*/
FoamFile
{
    format      ascii;
    class       volVectorField;
    location    "0.9";
    object      U;
}
// * * * * * * * * * * * * * * * * * * * * * * * * * * * * * * * * * * * * * //

dimensions      [0 1 -1 0 0 0 0];

internalField   nonuniform List<vector> 
2268
(
(0.0183151 -0.0102867 0)
(0.0483812 -0.0140862 0)
(0.0793898 -0.0104673 0)
(0.102468 -0.00618729 0)
(0.118235 -0.00431107 0)
(0.131683 -0.00402298 0)
(0.145447 -0.00451483 0)
(0.160658 -0.00529812 0)
(0.177927 -0.00617699 0)
(0.197574 -0.00708725 0)
(0.219729 -0.00799169 0)
(0.24436 -0.00884487 0)
(0.271216 -0.00956958 0)
(0.299682 -0.0100314 0)
(0.328554 -0.0100119 0)
(0.355752 -0.00915758 0)
(0.377588 -0.00696796 0)
(0.390161 -0.00128991 0)
(0.37957 0.00787013 0)
(0.332284 0.0213727 0)
(0.242003 0.0348531 0)
(0.102835 0.035459 0)
(0.00942241 0.0161204 0)
(0.0215542 -0.0212459 0)
(0.0500612 -0.0228636 0)
(0.0734265 -0.0182507 0)
(0.0922805 -0.0136151 0)
(0.107714 -0.0109115 0)
(0.121633 -0.0101648 0)
(0.135424 -0.0107002 0)
(0.150062 -0.011922 0)
(0.166261 -0.0135038 0)
(0.184481 -0.0152726 0)
(0.204972 -0.0170999 0)
(0.227786 -0.0188397 0)
(0.252725 -0.0202732 0)
(0.279216 -0.0210512 0)
(0.306119 -0.0206336 0)
(0.331487 -0.0182084 0)
(0.35242 -0.0126381 0)
(0.364092 -0.00149057 0)
(0.366336 0.0169513 0)
(0.351544 0.0442863 0)
(0.30494 0.0761002 0)
(0.19037 0.0887927 0)
(0.0502603 0.0448277 0)
(0.0208509 -0.039188 0)
(0.0474363 -0.0353363 0)
(0.0668817 -0.0270242 0)
(0.0833985 -0.0207863 0)
(0.0978432 -0.0172844 0)
(0.11118 -0.0162087 0)
(0.124283 -0.0168302 0)
(0.137954 -0.018499 0)
(0.152876 -0.0207962 0)
(0.169533 -0.0234559 0)
(0.188217 -0.0262613 0)
(0.209023 -0.0289656 0)
(0.231788 -0.0312116 0)
(0.255987 -0.032447 0)
(0.280561 -0.0318369 0)
(0.303699 -0.0281869 0)
(0.322686 -0.0199042 0)
(0.333407 -0.00497673 0)
(0.332514 0.0197479 0)
(0.316465 0.0571941 0)
(0.281894 0.106319 0)
(0.205146 0.141259 0)
(0.078749 0.108974 0)
(0.0183641 -0.0540898 0)
(0.0427991 -0.0459407 0)
(0.0599536 -0.0351023 0)
(0.0749693 -0.0277006 0)
(0.0883614 -0.0235513 0)
(0.100822 -0.0221732 0)
(0.113003 -0.0228405 0)
(0.125578 -0.0248833 0)
(0.139167 -0.0278183 0)
(0.154245 -0.0312994 0)
(0.171123 -0.0350244 0)
(0.189921 -0.0386442 0)
(0.21052 -0.0416624 0)
(0.232462 -0.0433245 0)
(0.25479 -0.0425051 0)
(0.275846 -0.0376218 0)
(0.293094 -0.0266186 0)
(0.302865 -0.00708692 0)
(0.301218 0.0240213 0)
(0.284465 0.0695918 0)
(0.251229 0.130688 0)
(0.193051 0.186128 0)
(0.0891891 0.175656 0)
(0.0156169 -0.067311 0)
(0.0375429 -0.0553511 0)
(0.0528575 -0.0424824 0)
(0.0666076 -0.0341371 0)
(0.0789018 -0.0294411 0)
(0.0903305 -0.0277793 0)
(0.101438 -0.0284493 0)
(0.112801 -0.0307858 0)
(0.124977 -0.0342643 0)
(0.138416 -0.0384731 0)
(0.15343 -0.0430325 0)
(0.170166 -0.0474972 0)
(0.188551 -0.0512403 0)
(0.208207 -0.0533178 0)
(0.228307 -0.052331 0)
(0.24737 -0.046324 0)
(0.263063 -0.0327846 0)
(0.272023 -0.00887182 0)
(0.270316 0.0284223 0)
(0.254302 0.0815839 0)
(0.222332 0.151722 0)
(0.17295 0.223119 0)
(0.088641 0.237657 0)
(0.013051 -0.0787495 0)
(0.0323257 -0.0635864 0)
(0.0458779 -0.0491264 0)
(0.058338 -0.0399807 0)
(0.0694504 -0.0347894 0)
(0.0797285 -0.0328494 0)
(0.0896435 -0.0334831 0)
(0.0996936 -0.0360373 0)
(0.110374 -0.0399616 0)
(0.122102 -0.0447932 0)
(0.135182 -0.0500861 0)
(0.149779 -0.0553111 0)
(0.165869 -0.0597258 0)
(0.183166 -0.0622181 0)
(0.200985 -0.06114 0)
(0.218044 -0.0541832 0)
(0.232233 -0.0383925 0)
(0.240447 -0.0104946 0)
(0.238884 0.0325564 0)
(0.224111 0.092747 0)
(0.194436 0.170437 0)
(0.1511 0.254152 0)
(0.0828229 0.293781 0)
(0.010743 -0.0885756 0)
(0.0274203 -0.0707184 0)
(0.0391958 -0.0550263 0)
(0.0502567 -0.0451908 0)
(0.0600857 -0.0395331 0)
(0.0691083 -0.0373134 0)
(0.0777309 -0.0378763 0)
(0.0863821 -0.040581 0)
(0.0954942 -0.0448607 0)
(0.105445 -0.0502132 0)
(0.116522 -0.0561384 0)
(0.128899 -0.0620374 0)
(0.142599 -0.0670709 0)
(0.157427 -0.0699826 0)
(0.17285 -0.0689025 0)
(0.187797 -0.0611914 0)
(0.2004 -0.0434582 0)
(0.207796 -0.0119965 0)
(0.206373 0.0363101 0)
(0.19298 0.102875 0)
(0.166353 0.186988 0)
(0.129251 0.280155 0)
(0.0753273 0.342962 0)
(0.00868186 -0.0970225 0)
(0.0228923 -0.0768518 0)
(0.0328961 -0.0602274 0)
(0.0424533 -0.0497855 0)
(0.050911 -0.0436842 0)
(0.0585938 -0.0411795 0)
(0.0658461 -0.0416364 0)
(0.07303 -0.0444259 0)
(0.0805137 -0.048971 0)
(0.0886273 -0.0547406 0)
(0.0976336 -0.0611932 0)
(0.107707 -0.0676748 0)
(0.118906 -0.0732704 0)
(0.131121 -0.0766067 0)
(0.143972 -0.0756227 0)
(0.156608 -0.0673725 0)
(0.167422 -0.0480319 0)
(0.173801 -0.0134457 0)
(0.172376 0.0395659 0)
(0.160343 0.111732 0)
(0.137259 0.201005 0)
(0.107285 0.300694 0)
(0.0657381 0.386608 0)
(0.0561294 -0.0320123 0)
(0.0933147 -0.00109233 0)
(0.0311993 0.0166258 0)
(-0.0389056 0.0231768 0)
(-0.121554 0.0251338 0)
(-0.183726 0.0161427 0)
(-0.196949 -0.00156814 0)
(-0.151203 -0.0210028 0)
(-0.0629415 -0.0373594 0)
(0.0636465 -0.0520186 0)
(0.226798 -0.0644472 0)
(0.420909 -0.0743714 0)
(0.638701 -0.0800137 0)
(0.857981 -0.0761411 0)
(1.03287 -0.0353945 0)
(1.01948 0.0363727 0)
(0.74753 0.0920983 0)
(0.3101 0.097343 0)
(-0.0102548 0.030014 0)
(0.0235333 -0.0466744 0)
(0.0282958 0.0201406 0)
(-0.0621749 0.043051 0)
(-0.141747 0.0498365 0)
(-0.19791 0.0419928 0)
(-0.213088 0.0181903 0)
(-0.188931 -0.0136041 0)
(-0.133333 -0.0445412 0)
(-0.0460764 -0.0719315 0)
(0.0721539 -0.096432 0)
(0.218456 -0.117173 0)
(0.387058 -0.134059 0)
(0.574522 -0.143478 0)
(0.761936 -0.129421 0)
(0.899559 -0.045739 0)
(0.964826 0.090736 0)
(0.875666 0.203344 0)
(0.547048 0.240538 0)
(0.135425 0.128875 0)
(-0.0210673 -0.0474617 0)
(-0.0447714 0.046755 0)
(-0.134011 0.0750055 0)
(-0.194172 0.0724285 0)
(-0.222287 0.0492168 0)
(-0.21562 0.0109644 0)
(-0.181292 -0.0321145 0)
(-0.122617 -0.0729856 0)
(-0.0386024 -0.110303 0)
(0.0705008 -0.143311 0)
(0.200052 -0.172863 0)
(0.344742 -0.201008 0)
(0.505913 -0.217527 0)
(0.661944 -0.19965 0)
(0.773686 -0.0859962 0)
(0.806769 0.106054 0)
(0.74267 0.269325 0)
(0.549831 0.365652 0)
(0.205847 0.274389 0)
(-0.0537626 -0.0245685 0)
(-0.100504 0.0761495 0)
(-0.17897 0.102134 0)
(-0.22162 0.0875578 0)
(-0.23306 0.0505729 0)
(-0.215813 0.000645545 0)
(-0.176433 -0.0522597 0)
(-0.116924 -0.10248 0)
(-0.0365503 -0.148736 0)
(0.0629076 -0.1912 0)
(0.176982 -0.23107 0)
(0.305582 -0.266623 0)
(0.449069 -0.285292 0)
(0.586427 -0.254517 0)
(0.677403 -0.115957 0)
(0.699875 0.117291 0)
(0.621285 0.319742 0)
(0.484734 0.466634 0)
(0.221624 0.428329 0)
(-0.0779909 0.0130615 0)
(-0.140427 0.10736 0)
(-0.207379 0.123916 0)
(-0.237574 0.0966017 0)
(-0.238756 0.0475399 0)
(-0.21533 -0.0123493 0)
(-0.173108 -0.0735981 0)
(-0.113923 -0.131586 0)
(-0.037845 -0.185724 0)
(0.0498236 -0.236869 0)
(0.150886 -0.280845 0)
(0.274861 -0.316003 0)
(0.409992 -0.333627 0)
(0.538955 -0.292209 0)
(0.611521 -0.13321 0)
(0.624796 0.128302 0)
(0.538749 0.352628 0)
(0.413931 0.544744 0)
(0.211681 0.568965 0)
(-0.0989539 0.0635779 0)
(-0.171076 0.13895 0)
(-0.226691 0.141429 0)
(-0.247527 0.101458 0)
(-0.241388 0.0415497 0)
(-0.213701 -0.0269669 0)
(-0.16976 -0.0951861 0)
(-0.111834 -0.1595 0)
(-0.0431228 -0.220413 0)
(0.034075 -0.274615 0)
(0.127743 -0.32312 0)
(0.250238 -0.368105 0)
(0.384866 -0.387498 0)
(0.514837 -0.334028 0)
(0.569938 -0.146237 0)
(0.586309 0.163471 0)
(0.47688 0.407598 0)
(0.349896 0.613337 0)
(0.192514 0.690232 0)
(-0.119188 0.122128 0)
(-0.197158 0.169672 0)
(-0.240761 0.155181 0)
(-0.253366 0.103115 0)
(-0.241122 0.0334206 0)
(-0.210046 -0.0426086 0)
(-0.165021 -0.116587 0)
(-0.109985 -0.186017 0)
(-0.0490139 -0.249733 0)
(0.0238933 -0.308291 0)
(0.117235 -0.367334 0)
(0.231129 -0.428607 0)
(0.354949 -0.449002 0)
(0.480375 -0.384664 0)
(0.537958 -0.157488 0)
(0.536547 0.184841 0)
(0.457473 0.453733 0)
(0.312109 0.675592 0)
(0.174039 0.795761 0)
(-0.147984 0.193533 0)
(-0.220289 0.196606 0)
(-0.250997 0.164643 0)
(-0.255383 0.101632 0)
(-0.237666 0.0233327 0)
(-0.203793 -0.0591054 0)
(-0.158671 -0.137693 0)
(-0.107743 -0.209804 0)
(-0.0500532 -0.276469 0)
(0.0231352 -0.342892 0)
(0.115545 -0.412602 0)
(0.21801 -0.475944 0)
(0.326125 -0.496759 0)
(0.438291 -0.423452 0)
(0.504304 -0.164367 0)
(0.473759 0.202678 0)
(0.417095 0.490707 0)
(0.285107 0.726588 0)
(0.154171 0.893324 0)
(0.00581163 -0.107104 0)
(0.0164213 -0.0846523 0)
(0.0235894 -0.0672913 0)
(0.0306095 -0.0560793 0)
(0.0367697 -0.0493551 0)
(0.0422188 -0.046412 0)
(0.0472009 -0.0466484 0)
(0.0519733 -0.0494577 0)
(0.0567999 -0.0542568 0)
(0.0619265 -0.0604844 0)
(0.06756 -0.0675521 0)
(0.073856 -0.0747459 0)
(0.0809075 -0.0810693 0)
(0.088718 -0.0850214 0)
(0.0971285 -0.0843163 0)
(0.105646 -0.0756045 0)
(0.113143 -0.0544183 0)
(0.11759 -0.0158426 0)
(0.115991 0.0435062 0)
(0.106108 0.122975 0)
(0.0897798 0.217328 0)
(0.0751986 0.317936 0)
(0.10265 0.408166 0)
(0.00233205 -0.115891 0)
(0.00819505 -0.0905321 0)
(0.011051 -0.0726706 0)
(0.0139366 -0.0606763 0)
(0.0162089 -0.0532669 0)
(0.017904 -0.0497815 0)
(0.0191307 -0.0496416 0)
(0.0200075 -0.0522621 0)
(0.020657 -0.057062 0)
(0.0211929 -0.0634636 0)
(0.0217096 -0.0708531 0)
(0.0222789 -0.0784892 0)
(0.0229572 -0.0853462 0)
(0.0237903 -0.0898724 0)
(0.0247907 -0.0896449 0)
(0.0258247 -0.0809522 0)
(0.0263692 -0.0585608 0)
(0.0253263 -0.016471 0)
(0.0207072 0.0491217 0)
(0.0109874 0.135502 0)
(-0.00239357 0.230912 0)
(-0.0166916 0.314307 0)
(0.0293089 0.336381 0)
(-0.00122845 -0.118633 0)
(9.3399e-05 -0.0918947 0)
(-0.00146227 -0.0736386 0)
(-0.0029313 -0.061105 0)
(-0.00483981 -0.053181 0)
(-0.00720432 -0.0492153 0)
(-0.0100263 -0.0486368 0)
(-0.0133084 -0.0508694 0)
(-0.0170586 -0.0553299 0)
(-0.0212996 -0.0614273 0)
(-0.0260782 -0.0685302 0)
(-0.0314675 -0.0758857 0)
(-0.0375574 -0.0824726 0)
(-0.0444354 -0.0867582 0)
(-0.0521706 -0.0863181 0)
(-0.0608597 -0.0773055 0)
(-0.0707581 -0.0540272 0)
(-0.0821461 -0.00967945 0)
(-0.0950275 0.0599248 0)
(-0.108641 0.149146 0)
(-0.122758 0.239925 0)
(-0.132017 0.306727 0)
(-0.124929 0.330258 0)
(-0.00492403 -0.115768 0)
(-0.00788749 -0.0886672 0)
(-0.0136878 -0.0700797 0)
(-0.0195222 -0.0572099 0)
(-0.0256241 -0.048916 0)
(-0.0320567 -0.0445293 0)
(-0.0389147 -0.0434714 0)
(-0.0462992 -0.0451591 0)
(-0.0543273 -0.0489936 0)
(-0.0631452 -0.0543565 0)
(-0.0729418 -0.060581 0)
(-0.0839582 -0.0668788 0)
(-0.0964907 -0.072204 0)
(-0.110879 -0.0750239 0)
(-0.127479 -0.0729497 0)
(-0.146643 -0.0622074 0)
(-0.168579 -0.037199 0)
(-0.192472 0.00872165 0)
(-0.21553 0.0790057 0)
(-0.234575 0.166874 0)
(-0.248791 0.255282 0)
(-0.258212 0.326512 0)
(-0.26886 0.37275 0)
(-0.00838734 -0.107886 0)
(-0.0154732 -0.0806559 0)
(-0.0253702 -0.0620723 0)
(-0.0353625 -0.0490909 0)
(-0.0454643 -0.0405745 0)
(-0.0557574 -0.0358449 0)
(-0.0664044 -0.0343097 0)
(-0.0775753 -0.0353664 0)
(-0.0894629 -0.0383856 0)
(-0.1023 -0.0427035 0)
(-0.116379 -0.0475924 0)
(-0.132064 -0.0521908 0)
(-0.149807 -0.0553771 0)
(-0.170138 -0.0555653 0)
(-0.19362 -0.0504015 0)
(-0.220719 -0.036395 0)
(-0.251331 -0.00875963 0)
(-0.28363 0.0376132 0)
(-0.31328 0.104674 0)
(-0.335499 0.186828 0)
(-0.348121 0.270285 0)
(-0.351952 0.339317 0)
(-0.34953 0.381102 0)
(-0.0115772 -0.0951992 0)
(-0.0224981 -0.0682262 0)
(-0.0362093 -0.049903 0)
(-0.0500453 -0.0370178 0)
(-0.063825 -0.0284386 0)
(-0.077629 -0.0234816 0)
(-0.0916593 -0.0215379 0)
(-0.106122 -0.0219796 0)
(-0.121244 -0.0241402 0)
(-0.137293 -0.0273028 0)
(-0.154593 -0.0306694 0)
(-0.173536 -0.0332938 0)
(-0.194589 -0.03397 0)
(-0.218267 -0.0310729 0)
(-0.245041 -0.0223719 0)
(-0.275104 -0.00490471 0)
(-0.3078 0.0248256 0)
(-0.340779 0.0698974 0)
(-0.369539 0.130761 0)
(-0.388867 0.202425 0)
(-0.395392 0.273711 0)
(-0.388839 0.330676 0)
(-0.37132 0.361478 0)
(-0.014439 -0.0781119 0)
(-0.0288272 -0.0517428 0)
(-0.0459844 -0.0339342 0)
(-0.0632788 -0.0213582 0)
(-0.0803381 -0.0129014 0)
(-0.0972212 -0.00787969 0)
(-0.114142 -0.00567445 0)
(-0.131312 -0.00563506 0)
(-0.14895 -0.00706228 0)
(-0.167306 -0.00919568 0)
(-0.186665 -0.0111833 0)
(-0.20735 -0.0120237 0)
(-0.229706 -0.0104792 0)
(-0.254052 -0.0049767 0)
(-0.280542 0.00645548 0)
(-0.308932 0.0261167 0)
(-0.33812 0.0562832 0)
(-0.365635 0.0983779 0)
(-0.387552 0.151551 0)
(-0.39951 0.211141 0)
(-0.398578 0.268415 0)
(-0.384775 0.312799 0)
(-0.361284 0.335705 0)
(-0.0169541 -0.0571691 0)
(-0.0343767 -0.0316415 0)
(-0.0545688 -0.0145828 0)
(-0.0748987 -0.00252919 0)
(-0.0948015 0.00559841 0)
(-0.114297 0.0104734 0)
(-0.13359 0.0127185 0)
(-0.152872 0.012997 0)
(-0.172324 0.0120267 0)
(-0.192139 0.0105895 0)
(-0.212515 0.00955743 0)
(-0.233651 0.00993583 0)
(-0.255707 0.0129198 0)
(-0.278746 0.0199368 0)
(-0.302599 0.0326241 0)
(-0.326665 0.0526595 0)
(-0.349643 0.081371 0)
(-0.369322 0.119092 0)
(-0.382724 0.164304 0)
(-0.386908 0.212908 0)
(-0.380193 0.25831 0)
(-0.363174 0.292862 0)
(-0.338709 0.31005 0)
(-0.0190373 -0.0329354 0)
(-0.0391049 -0.00838228 0)
(-0.0619191 0.00772172 0)
(-0.0848473 0.019033 0)
(-0.107147 0.0266019 0)
(-0.128789 0.0310805 0)
(-0.149958 0.0330885 0)
(-0.170806 0.0332882 0)
(-0.191461 0.0323963 0)
(-0.21204 0.0311909 0)
(-0.232643 0.030528 0)
(-0.253329 0.0313708 0)
(-0.274087 0.0348183 0)
(-0.294764 0.0421078 0)
(-0.314967 0.0545443 0)
(-0.333933 0.0733051 0)
(-0.350414 0.0990945 0)
(-0.36265 0.131679 0)
(-0.368606 0.169392 0)
(-0.366563 0.208815 0)
(-0.355804 0.244935 0)
(-0.33701 0.271942 0)
(-0.311996 0.284257 0)
(-0.0207052 -0.00589892 0)
(-0.043024 0.0175752 0)
(-0.0680573 0.0325291 0)
(-0.0931442 0.0428791 0)
(-0.117405 0.0496528 0)
(-0.140759 0.0534716 0)
(-0.163359 0.0549389 0)
(-0.18531 0.0547032 0)
(-0.206682 0.0534643 0)
(-0.227519 0.0519753 0)
(-0.247829 0.0510511 0)
(-0.267559 0.0515844 0)
(-0.286567 0.0545551 0)
(-0.304566 0.0610106 0)
(-0.32106 0.0719803 0)
(-0.335276 0.0882931 0)
(-0.346143 0.1103 0)
(-0.352349 0.137545 0)
(-0.352568 0.168469 0)
(-0.345841 0.200252 0)
(-0.331896 0.228898 0)
(-0.311195 0.249606 0)
(-0.284671 0.2572 0)
(-0.0219803 0.023426 0)
(-0.0461736 0.0457332 0)
(-0.0730343 0.0593782 0)
(-0.0998617 0.0685806 0)
(-0.125679 0.0743358 0)
(-0.150356 0.0772332 0)
(-0.174005 0.0778537 0)
(-0.196688 0.0768235 0)
(-0.218421 0.0748148 0)
(-0.239186 0.072543 0)
(-0.258921 0.0707686 0)
(-0.277497 0.070304 0)
(-0.294692 0.0720117 0)
(-0.310158 0.0767756 0)
(-0.323376 0.0854184 0)
(-0.333639 0.0985479 0)
(-0.340066 0.116337 0)
(-0.341687 0.138286 0)
(-0.337608 0.163014 0)
(-0.327254 0.18814 0)
(-0.310483 0.210282 0)
(-0.287501 0.225192 0)
(-0.258716 0.227935 0)
(-0.0229062 0.0545716 0)
(-0.0486055 0.0756344 0)
(-0.0769257 0.0878542 0)
(-0.105108 0.0957443 0)
(-0.132115 0.100275 0)
(-0.157771 0.102007 0)
(-0.18215 0.101494 0)
(-0.205275 0.0993367 0)
(-0.227121 0.0961742 0)
(-0.247625 0.0926792 0)
(-0.266677 0.0895554 0)
(-0.284104 0.0875372 0)
(-0.299649 0.0873828 0)
(-0.312947 0.0898439 0)
(-0.323501 0.0955941 0)
(-0.330681 0.105102 0)
(-0.333758 0.118459 0)
(-0.331976 0.135188 0)
(-0.324676 0.154073 0)
(-0.311441 0.173039 0)
(-0.292133 0.189083 0)
(-0.266776 0.198311 0)
(-0.235525 0.19603 0)
(-0.023535 0.0871143 0)
(-0.0503898 0.106881 0)
(-0.0798197 0.117574 0)
(-0.109001 0.12401 0)
(-0.136865 0.127136 0)
(-0.163195 0.127485 0)
(-0.188037 0.125588 0)
(-0.21138 0.122016 0)
(-0.233169 0.117376 0)
(-0.253315 0.112298 0)
(-0.271681 0.107433 0)
(-0.288076 0.103444 0)
(-0.302234 0.101002 0)
(-0.313798 0.100752 0)
(-0.322306 0.103254 0)
(-0.327197 0.108885 0)
(-0.327838 0.117693 0)
(-0.323596 0.12924 0)
(-0.313919 0.142446 0)
(-0.298447 0.155448 0)
(-0.277011 0.16551 0)
(-0.24954 0.169032 0)
(-0.216108 0.161617 0)
(-0.0239071 0.120655 0)
(-0.0515911 0.139098 0)
(-0.0818002 0.148183 0)
(-0.111649 0.153045 0)
(-0.140062 0.154615 0)
(-0.166793 0.153401 0)
(-0.191863 0.149912 0)
(-0.215239 0.144692 0)
(-0.236851 0.138319 0)
(-0.256591 0.131385 0)
(-0.274316 0.124493 0)
(-0.289833 0.118246 0)
(-0.302882 0.113236 0)
(-0.313128 0.11002 0)
(-0.320142 0.109068 0)
(-0.323413 0.110682 0)
(-0.322372 0.11488 0)
(-0.316445 0.121257 0)
(-0.305125 0.128837 0)
(-0.288058 0.135931 0)
(-0.265061 0.140029 0)
(-0.236035 0.137821 0)
(-0.20108 0.125287 0)
(-0.0240527 0.154829 0)
(-0.0522598 0.171936 0)
(-0.0829327 0.179349 0)
(-0.113135 0.182541 0)
(-0.141805 0.182432 0)
(-0.16868 0.179512 0)
(-0.19376 0.174269 0)
(-0.217003 0.167226 0)
(-0.238328 0.158934 0)
(-0.257626 0.149953 0)
(-0.274756 0.140843 0)
(-0.289532 0.132155 0)
(-0.301711 0.124414 0)
(-0.310981 0.118098 0)
(-0.316947 0.113595 0)
(-0.319136 0.111139 0)
(-0.317021 0.110716 0)
(-0.310058 0.111943 0)
(-0.297756 0.113931 0)
(-0.279763 0.115145 0)
(-0.255894 0.113304 0)
(-0.226074 0.105427 0)
(-0.190503 0.0879547 0)
(-0.0239921 0.189303 0)
(-0.0524281 0.205063 0)
(-0.0832575 0.210751 0)
(-0.113506 0.212197 0)
(-0.142148 0.210317 0)
(-0.168909 0.205583 0)
(-0.193781 0.198469 0)
(-0.216717 0.18948 0)
(-0.237635 0.179145 0)
(-0.256431 0.167996 0)
(-0.272973 0.156559 0)
(-0.28709 0.145335 0)
(-0.298557 0.134789 0)
(-0.307088 0.125328 0)
(-0.312319 0.117263 0)
(-0.313811 0.11076 0)
(-0.311071 0.105767 0)
(-0.303583 0.101912 0)
(-0.290869 0.0983813 0)
(-0.272588 0.0937935 0)
(-0.248579 0.0861226 0)
(-0.218824 0.0727738 0)
(-0.183649 0.050731 0)
(-0.0237362 0.223756 0)
(-0.0521085 0.238157 0)
(-0.0827859 0.242075 0)
(-0.112772 0.241717 0)
(-0.141091 0.237996 0)
(-0.167469 0.231372 0)
(-0.191896 0.222308 0)
(-0.214324 0.211296 0)
(-0.234678 0.198846 0)
(-0.252864 0.185468 0)
(-0.268762 0.171654 0)
(-0.282216 0.157864 0)
(-0.293022 0.144507 0)
(-0.300917 0.13192 0)
(-0.305568 0.120344 0)
(-0.306572 0.109879 0)
(-0.303472 0.100433 0)
(-0.295788 0.0916371 0)
(-0.283078 0.0827488 0)
(-0.265031 0.072549 0)
(-0.241542 0.0592981 0)
(-0.212667 0.0408396 0)
(-0.178836 0.0147453 0)
(-0.0232868 0.25787 0)
(-0.0512939 0.270894 0)
(-0.0814995 0.273002 0)
(-0.110898 0.270791 0)
(-0.138582 0.265177 0)
(-0.164284 0.256612 0)
(-0.187995 0.24555 0)
(-0.209674 0.232473 0)
(-0.229255 0.217877 0)
(-0.246656 0.20225 0)
(-0.261769 0.186055 0)
(-0.274454 0.169711 0)
(-0.284527 0.153576 0)
(-0.291746 0.137926 0)
(-0.295808 0.122932 0)
(-0.296348 0.108639 0)
(-0.292957 0.0949156 0)
(-0.285208 0.0814001 0)
(-0.272718 0.0674239 0)
(-0.255245 0.0519432 0)
(-0.232762 0.0335286 0)
(-0.2054 0.0104784 0)
(-0.17364 -0.0190682 0)
(-0.0226378 0.291318 0)
(-0.0499595 0.302935 0)
(-0.079353 0.303192 0)
(-0.107818 0.299088 0)
(-0.134524 0.291542 0)
(-0.15922 0.281003 0)
(-0.181902 0.267917 0)
(-0.202538 0.252759 0)
(-0.221073 0.236011 0)
(-0.237437 0.218143 0)
(-0.251537 0.199589 0)
(-0.263246 0.18073 0)
(-0.272395 0.161876 0)
(-0.278765 0.143245 0)
(-0.282084 0.124954 0)
(-0.282033 0.106998 0)
(-0.278261 0.0892232 0)
(-0.270415 0.0712833 0)
(-0.258194 0.052595 0)
(-0.24145 0.0322997 0)
(-0.220248 0.00927921 0)
(-0.194799 -0.0177376 0)
(-0.165471 -0.0502125 0)
(-0.0217765 0.323748 0)
(-0.0480654 0.333919 0)
(-0.0762773 0.332282 0)
(-0.103428 0.326246 0)
(-0.128778 0.316736 0)
(-0.152096 0.304199 0)
(-0.173386 0.289077 0)
(-0.192627 0.271838 0)
(-0.20978 0.252951 0)
(-0.224785 0.232866 0)
(-0.237561 0.21199 0)
(-0.247996 0.190669 0)
(-0.255936 0.169165 0)
(-0.261189 0.147654 0)
(-0.263519 0.126208 0)
(-0.262661 0.104789 0)
(-0.258336 0.0832349 0)
(-0.250279 0.0612337 0)
(-0.238288 0.038297 0)
(-0.222311 0.0137505 0)
(-0.202513 -0.0132328 0)
(-0.179111 -0.0436054 0)
(-0.152268 -0.0785987 0)
(-0.0206855 0.354779 0)
(-0.0455601 0.363452 0)
(-0.0721847 0.359874 0)
(-0.0976042 0.351863 0)
(-0.121176 0.340359 0)
(-0.142697 0.325807 0)
(-0.162181 0.308646 0)
(-0.179623 0.289334 0)
(-0.194997 0.26833 0)
(-0.208259 0.246065 0)
(-0.21934 0.222916 0)
(-0.228143 0.199196 0)
(-0.234536 0.175133 0)
(-0.238358 0.150864 0)
(-0.23942 0.126435 0)
(-0.237523 0.101795 0)
(-0.232468 0.0767904 0)
(-0.224086 0.0511547 0)
(-0.212271 0.0244973 0)
(-0.197059 -0.00368626 0)
(-0.178689 -0.0339823 0)
(-0.157299 -0.0671703 0)
(-0.132884 -0.104287 0)
(-0.0193443 0.383993 0)
(-0.0423838 0.391103 0)
(-0.0669746 0.385527 0)
(-0.0902023 0.375498 0)
(-0.111531 0.361969 0)
(-0.130789 0.345386 0)
(-0.148007 0.326185 0)
(-0.163197 0.304819 0)
(-0.176351 0.281732 0)
(-0.187442 0.257334 0)
(-0.196421 0.231978 0)
(-0.203209 0.205945 0)
(-0.207704 0.179438 0)
(-0.209786 0.152572 0)
(-0.209323 0.125382 0)
(-0.20619 0.0978212 0)
(-0.200274 0.0697572 0)
(-0.191498 0.0409726 0)
(-0.179837 0.0111654 0)
(-0.165409 -0.0200174 0)
(-0.148444 -0.0530277 0)
(-0.129026 -0.0885102 0)
(-0.106998 -0.127339 0)
(-0.0177302 0.410928 0)
(-0.0384715 0.416398 0)
(-0.0605381 0.408761 0)
(-0.0810696 0.396662 0)
(-0.0996453 0.381074 0)
(-0.116132 0.362447 0)
(-0.130582 0.341214 0)
(-0.14303 0.317823 0)
(-0.153494 0.292703 0)
(-0.161968 0.266242 0)
(-0.168429 0.23877 0)
(-0.172827 0.210547 0)
(-0.175097 0.181757 0)
(-0.175168 0.152511 0)
(-0.172977 0.122847 0)
(-0.168474 0.0927319 0)
(-0.16163 0.0620627 0)
(-0.15245 0.0306664 0)
(-0.140977 -0.00168913 0)
(-0.127389 -0.0352347 0)
(-0.111855 -0.070383 0)
(-0.0944521 -0.107637 0)
(-0.0748719 -0.147738 0)
(-0.0158184 0.435078 0)
(-0.0337541 0.438815 0)
(-0.0527627 0.429048 0)
(-0.0700509 0.414824 0)
(-0.0853223 0.397143 0)
(-0.098492 0.376463 0)
(-0.10964 0.353219 0)
(-0.118832 0.327851 0)
(-0.126119 0.300773 0)
(-0.13153 0.272355 0)
(-0.135073 0.242904 0)
(-0.136736 0.212664 0)
(-0.136499 0.181814 0)
(-0.13435 0.150471 0)
(-0.130291 0.118689 0)
(-0.12435 0.086457 0)
(-0.116577 0.0536992 0)
(-0.107046 0.0202753 0)
(-0.0958655 -0.0139865 0)
(-0.083225 -0.0492726 0)
(-0.0692544 -0.0859628 0)
(-0.0540267 -0.124448 0)
(-0.0371017 -0.165334 0)
(-0.0135798 0.455888 0)
(-0.0281573 0.457792 0)
(-0.0435355 0.445817 0)
(-0.0569944 0.429411 0)
(-0.068374 0.409607 0)
(-0.077648 0.386876 0)
(-0.0849336 0.36166 0)
(-0.0903405 0.334393 0)
(-0.0939632 0.305474 0)
(-0.0958757 0.275253 0)
(-0.0961291 0.244018 0)
(-0.0947569 0.212003 0)
(-0.0917896 0.179388 0)
(-0.0872705 0.146305 0)
(-0.0812684 0.112834 0)
(-0.0738827 0.0789904 0)
(-0.0652387 0.0447207 0)
(-0.0554686 0.00990275 0)
(-0.0447506 -0.0255913 0)
(-0.0332487 -0.0619757 0)
(-0.0210888 -0.0995801 0)
(-0.00833783 -0.138713 0)
(0.00555259 -0.179827 0)
(-0.0109727 0.472742 0)
(-0.0215947 0.472732 0)
(-0.0327466 0.458465 0)
(-0.041758 0.439815 0)
(-0.048627 0.417863 0)
(-0.0533998 0.3931 0)
(-0.056242 0.36598 0)
(-0.0573203 0.336932 0)
(-0.0567902 0.306346 0)
(-0.0547854 0.274545 0)
(-0.0514111 0.241797 0)
(-0.0467505 0.208323 0)
(-0.0408826 0.17431 0)
(-0.0339018 0.139914 0)
(-0.0259353 0.105245 0)
(-0.0171503 0.070352 0)
(-0.00774402 0.0352018 0)
(0.00208588 -0.000318348 0)
(0.0120962 -0.0363092 0)
(0.0221475 -0.0730531 0)
(0.0321179 -0.110853 0)
(0.0419367 -0.14995 0)
(0.0522454 -0.190651 0)
(-0.00791752 0.484954 0)
(-0.0139471 0.483021 0)
(-0.0202933 0.466358 0)
(-0.0242164 0.445399 0)
(-0.0259318 0.421282 0)
(-0.0255729 0.394523 0)
(-0.0233668 0.365594 0)
(-0.0195544 0.334933 0)
(-0.0143744 0.302913 0)
(-0.00804149 0.269833 0)
(-0.000729075 0.235929 0)
(0.00742474 0.201411 0)
(0.0163029 0.166472 0)
(0.0257769 0.131286 0)
(0.0356708 0.0960068 0)
(0.045753 0.0607227 0)
(0.0557524 0.0254213 0)
(0.065395 -0.010013 0)
(0.0744047 -0.0457269 0)
(0.0826414 -0.0820691 0)
(0.0899784 -0.119318 0)
(0.0963313 -0.157664 0)
(0.102421 -0.197261 0)
(-0.00423023 0.491716 0)
(-0.00504458 0.488021 0)
(-0.00608648 0.468831 0)
(-0.00427258 0.445488 0)
(-0.000178312 0.41919 0)
(0.00596196 0.390496 0)
(0.0138502 0.359908 0)
(0.0231499 0.327878 0)
(0.0335035 0.294769 0)
(0.0445828 0.26084 0)
(0.0561284 0.226274 0)
(0.0679576 0.191232 0)
(0.0799333 0.155897 0)
(0.0919096 0.120482 0)
(0.103678 0.0852033 0)
(0.114944 0.0502093 0)
(0.125351 0.0155131 0)
(0.134527 -0.0190053 0)
(0.14217 -0.0535904 0)
(0.148115 -0.0886448 0)
(0.152249 -0.124469 0)
(0.154462 -0.161217 0)
(0.155564 -0.198898 0)
(0.000464726 0.492271 0)
(0.0053678 0.487227 0)
(0.00994944 0.465266 0)
(0.0181197 0.439475 0)
(0.0286792 0.410998 0)
(0.0412922 0.380425 0)
(0.0555785 0.34832 0)
(0.0710631 0.315188 0)
(0.08721 0.281397 0)
(0.103519 0.24714 0)
(0.11962 0.212499 0)
(0.135288 0.177557 0)
(0.150395 0.142465 0)
(0.164821 0.107476 0)
(0.178352 0.0728952 0)
(0.190629 0.0389717 0)
(0.201181 0.00576123 0)
(0.209513 -0.0268858 0)
(0.21529 -0.0593671 0)
(0.218338 -0.0921548 0)
(0.218576 -0.12559 0)
(0.215872 -0.159809 0)
(0.211131 -0.194679 0)
(0.00601988 0.484052 0)
(0.017386 0.481163 0)
(0.0279734 0.455268 0)
(0.0430181 0.426717 0)
(0.0607005 0.395945 0)
(0.0805515 0.363485 0)
(0.102077 0.329998 0)
(0.124595 0.296099 0)
(0.147281 0.26218 0)
(0.169363 0.228318 0)
(0.190314 0.194407 0)
(0.209894 0.160361 0)
(0.228049 0.126266 0)
(0.244752 0.0924229 0)
(0.259839 0.0592864 0)
(0.272879 0.0272813 0)
(0.283234 -0.00345455 0)
(0.290229 -0.0331445 0)
(0.29349 -0.06242 0)
(0.292887 -0.0918706 0)
(0.288425 -0.121878 0)
(0.279952 -0.152561 0)
(0.26848 -0.183654 0)
(0.0123581 0.466263 0)
(0.0309502 0.468831 0)
(0.0481227 0.438378 0)
(0.0704876 0.406622 0)
(0.0959375 0.37331 0)
(0.123862 0.338838 0)
(0.153626 0.304034 0)
(0.184228 0.269745 0)
(0.214356 0.23644 0)
(0.242787 0.203975 0)
(0.268786 0.171869 0)
(0.292153 0.139734 0)
(0.313025 0.107517 0)
(0.331606 0.0755878 0)
(0.34787 0.0446563 0)
(0.361327 0.015473 0)
(0.371055 -0.0116532 0)
(0.3761 -0.0371286 0)
(0.37602 -0.061954 0)
(0.37086 -0.0869363 0)
(0.360811 -0.11246 0)
(0.345735 -0.138585 0)
(0.326716 -0.164909 0)
(0.0194566 0.438069 0)
(0.0460176 0.449156 0)
(0.0704659 0.414166 0)
(0.100547 0.378664 0)
(0.134377 0.34234 0)
(0.171278 0.305498 0)
(0.210464 0.269291 0)
(0.25045 0.235043 0)
(0.289087 0.203405 0)
(0.324388 0.173781 0)
(0.355347 0.144979 0)
(0.381941 0.116067 0)
(0.404715 0.0867452 0)
(0.424332 0.0574857 0)
(0.441099 0.0294359 0)
(0.454487 0.00396556 0)
(0.463108 -0.0182743 0)
(0.465491 -0.0380305 0)
(0.461088 -0.057007 0)
(0.450364 -0.0763964 0)
(0.433882 -0.0964828 0)
(0.411545 -0.117137 0)
(0.384431 -0.137748 0)
(0.0271418 0.398741 0)
(0.062481 0.420984 0)
(0.0949881 0.382193 0)
(0.13313 0.342369 0)
(0.175864 0.302277 0)
(0.222649 0.262355 0)
(0.27261 0.224384 0)
(0.323562 0.19066 0)
(0.371891 0.162284 0)
(0.414294 0.137698 0)
(0.449464 0.114334 0)
(0.477861 0.090355 0)
(0.500812 0.0650701 0)
(0.51982 0.0390986 0)
(0.535873 0.0143055 0)
(0.548504 -0.00675118 0)
(0.555592 -0.0227216 0)
(0.55464 -0.0349093 0)
(0.544931 -0.0465386 0)
(0.527745 -0.0593729 0)
(0.504297 -0.0733033 0)
(0.474539 -0.0878388 0)
(0.439374 -0.101989 0)
(0.0351808 0.347733 0)
(0.0800689 0.383108 0)
(0.12149 0.342021 0)
(0.167984 0.29737 0)
(0.219935 0.252449 0)
(0.277305 0.208251 0)
(0.339416 0.16767 0)
(0.403179 0.135021 0)
(0.46235 0.112506 0)
(0.511292 0.0964219 0)
(0.548561 0.0815774 0)
(0.575765 0.0647582 0)
(0.595612 0.044701 0)
(0.611 0.0222273 0)
(0.624189 0.000318061 0)
(0.63507 -0.0163096 0)
(0.64045 -0.0247031 0)
(0.635898 -0.0269912 0)
(0.620373 -0.0296935 0)
(0.596655 -0.0354893 0)
(0.5667 -0.0430968 0)
(0.530277 -0.0511483 0)
(0.488116 -0.0583062 0)
(0.043144 0.284948 0)
(0.098019 0.334203 0)
(0.149314 0.293193 0)
(0.204401 0.243517 0)
(0.265383 0.192534 0)
(0.3333 0.142313 0)
(0.408505 0.0974903 0)
(0.487053 0.0665898 0)
(0.5578 0.0543925 0)
(0.610889 0.0523098 0)
(0.645537 0.050354 0)
(0.665931 0.0435197 0)
(0.677072 0.0297684 0)
(0.683872 0.0102187 0)
(0.690601 -0.0107944 0)
(0.69809 -0.0244888 0)
(0.702311 -0.0245718 0)
(0.695397 -0.0142672 0)
(0.675254 -0.00681642 0)
(0.647244 -0.00574022 0)
(0.613746 -0.00687679 0)
(0.573018 -0.00856929 0)
(0.525858 -0.00872361 0)
(0.049999 0.211404 0)
(0.114423 0.272825 0)
(0.176714 0.235187 0)
(0.24055 0.181121 0)
(0.309287 0.123228 0)
(0.385739 0.0649352 0)
(0.47352 0.0129009 0)
(0.56823 -0.0149695 0)
(0.649588 -0.0087864 0)
(0.700393 0.0111401 0)
(0.723362 0.0272392 0)
(0.727996 0.0337533 0)
(0.722704 0.0269826 0)
(0.714412 0.00887374 0)
(0.709809 -0.015007 0)
(0.709991 -0.0292055 0)
(0.714104 -0.0192828 0)
(0.710472 0.00622823 0)
(0.691773 0.021322 0)
(0.667623 0.0257175 0)
(0.637409 0.0296081 0)
(0.596381 0.0363128 0)
(0.546206 0.0434057 0)
(0.052482 0.129255 0)
(0.12521 0.196673 0)
(0.200006 0.167006 0)
(0.272187 0.111423 0)
(0.344718 0.0476418 0)
(0.422538 -0.0206088 0)
(0.518815 -0.088026 0)
(0.626055 -0.116141 0)
(0.710659 -0.0754878 0)
(0.745168 -0.0195431 0)
(0.743635 0.0190254 0)
(0.724472 0.0407464 0)
(0.699071 0.0417333 0)
(0.673162 0.0266073 0)
(0.653699 -0.000243744 0)
(0.63608 -0.0204685 0)
(0.632679 -0.021741 0)
(0.653233 0.00841828 0)
(0.659779 0.0261705 0)
(0.653506 0.0416037 0)
(0.632469 0.0628693 0)
(0.590791 0.0835916 0)
(0.542811 0.0940321 0)
(0.0502874 0.047274 0)
(0.130073 0.107682 0)
(0.215569 0.0900467 0)
(0.290123 0.0401188 0)
(0.353538 -0.0244908 0)
(0.409249 -0.106538 0)
(0.500447 -0.204579 0)
(0.599835 -0.225722 0)
(0.668389 -0.126313 0)
(0.674035 -0.0286409 0)
(0.647333 0.0412038 0)
(0.610865 0.0753495 0)
(0.581405 0.0782128 0)
(0.552781 0.0625473 0)
(0.518415 0.0224375 0)
(0.512201 -0.025268 0)
(0.53624 -0.0420106 0)
(0.579442 -0.00209971 0)
(0.602295 0.0229554 0)
(0.60733 0.0577868 0)
(0.583583 0.12941 0)
(0.546655 0.169761 0)
(0.519633 0.185786 0)
(0.0738061 -0.0317634 0)
(0.157157 0.0143329 0)
(0.219411 0.00870392 0)
(0.266514 -0.0222335 0)
(0.291725 -0.0758174 0)
(0.313039 -0.165419 0)
(0.376864 -0.30254 0)
(0.466942 -0.309718 0)
(0.501349 -0.105369 0)
(0.476581 0.0304495 0)
(0.439812 0.133665 0)
(0.419474 0.170732 0)
(0.377208 0.150182 0)
(0.355266 0.108227 0)
(0.30695 0.0534812 0)
(0.35078 -0.085503 0)
(0.430737 -0.129073 0)
(0.502949 -0.0533638 0)
(0.5072 0.0339158 0)
(0.473897 0.081617 0)
(0.470655 0.133928 0)
(0.493658 0.143581 0)
(0.524288 0.141045 0)
(0.0298924 -0.194414 0)
(0.118786 -0.0576689 0)
(0.152348 -0.0366632 0)
(0.185449 -0.0410744 0)
(0.208272 -0.0802876 0)
(0.226513 -0.178677 0)
(0.224103 -0.335944 0)
(0.268143 -0.350412 0)
(0.268085 -0.0721636 0)
(0.217679 0.0516089 0)
(0.187274 0.0675458 0)