/*--------------------------------*- C++ -*----------------------------------*\
  =========                 |
  \\      /  F ield         | OpenFOAM: The Open Source CFD Toolbox
   \\    /   O peration     | Website:  https://openfoam.org
    \\  /    A nd           | Version:  9
     \\/     M anipulation  |
\*---------------------------------------------------------------------------*/
FoamFile
{
    format      ascii;
    class       volScalarField;
    location    "0.05";
    object      epsilon;
}
// * * * * * * * * * * * * * * * * * * * * * * * * * * * * * * * * * * * * * //

dimensions      [0 2 -3 0 0 0 0];

internalField   nonuniform List<scalar> 
1915
(
0.100134
0.106457
0.116884
0.13359
0.15941
0.178459
0.161613
0.1384
0.119831
0.107744
0.100735
0.0969405
0.0949502
0.0938995
0.0933172
0.0929645
0.0927259
0.0925467
0.0924013
0.0922778
0.0921707
0.092077
0.0919947
0.0919222
0.091855
1.02038
0.454403
0.286682
0.206142
0.161597
0.135119
0.118721
0.10836
0.101786
0.0976493
0.0950972
0.0935722
0.0927087
0.0922745
0.0921353
0.0922358
0.0925947
0.0933166
0.0946234
0.0969122
0.100843
0.107453
0.118312
0.135679
0.162495
0.181869
0.163671
0.139339
0.120225
0.107991
0.100994
0.0972363
0.0952545
0.0941824
0.0935615
0.0931648
0.0928842
0.0926682
0.0924924
0.0923445
0.0922179
0.092109
0.0920149
0.0919323
0.0918576
1.02048
0.454606
0.286719
0.206107
0.161546
0.135074
0.118693
0.108354
0.101802
0.0976897
0.095163
0.093666
0.0928347
0.0924391
0.0923477
0.0925083
0.0929438
0.093764
0.0951981
0.0976538
0.101807
0.108725
0.120032
0.13808
0.165945
0.185515
0.165596
0.140003
0.120429
0.1082
0.10132
0.0976331
0.095656
0.0945441
0.0938636
0.093405
0.0930687
0.0928065
0.0925937
0.0924169
0.0922681
0.0921422
0.0920351
0.0919426
0.0918598
1.02085
0.454914
0.28684
0.206103
0.161506
0.135042
0.118687
0.108379
0.101861
0.0977833
0.0952945
0.0938404
0.0930597
0.0927253
0.0927093
0.0929635
0.0935152
0.0944783
0.096087
0.098754
0.103164
0.110402
0.122131
0.140793
0.169599
0.188711
0.16664
0.139898
0.120266
0.108341
0.101723
0.0981511
0.0961711
0.0949935
0.094227
0.0936851
0.0932779
0.0929591
0.0927027
0.092493
0.0923197
0.0921753
0.0920545
0.0919518
0.0918614
1.02284
0.45628
0.287389
0.206219
0.161497
0.135027
0.118708
0.108448
0.101981
0.0979569
0.0955266
0.0941398
0.0934391
0.093202
0.0933055
0.0937064
0.0944368
0.095614
0.0974721
0.100421
0.105137
0.112699
0.124775
0.143856
0.173237
0.190037
0.16548
0.13842
0.119525
0.108379
0.102224
0.0988125
0.0968104
0.0955318
0.0946473
0.0939988
0.0935053
0.0931203
0.0928149
0.0925693
0.0923698
0.0922066
0.0920719
0.091959
0.0918612
1.02482
0.461671
0.289174
0.206675
0.161573
0.13505
0.118778
0.108587
0.102194
0.0982504
0.0959108
0.0946297
0.0940554
0.0939715
0.0942619
0.0948911
0.0958966
0.0973978
0.0996239
0.102968
0.108078
0.115985
0.128287
0.147451
0.176868
0.187971
0.160992
0.135141
0.118167
0.108377
0.10287
0.0996306
0.097565
0.0961412
0.095106
0.09433
0.093738
0.0932807
0.0929233
0.0926408
0.0924152
0.0922334
0.0920854
0.091963
0.0918585
1.01851
0.477962
0.293056
0.207495
0.161736
0.135147
0.118937
0.108834
0.102544
0.0987187
0.0965179
0.0954006
0.0950218
0.0951735
0.0957498
0.0967258
0.0981479
0.100137
0.102912
0.106835
0.112502
0.120847
0.133258
0.151902
0.180424
0.18278
0.15338
0.13055
0.116586
0.108528
0.103708
0.10058
0.0983869
0.0967747
0.0955649
0.0946505
0.0939566
0.0934267
0.0930188
0.0927014
0.0924517
0.0922531
0.0920933
0.0919626
0.0918525
1.04501
0.51893
0.299462
0.208659
0.162029
0.135364
0.119222
0.109227
0.103074
0.0994194
0.0974285
0.0965615
0.0964793
0.0969848
0.0979866
0.0994765
0.101516
0.10423
0.107819
0.1126
0.119102
0.128172
0.140817
0.15794
0.181063
0.171178
0.143582
0.12591
0.115445
0.109017
0.104698
0.101554
0.0991716
0.0973506
0.0959666
0.0949219
0.0941356
0.0935423
0.0930911
0.0927444
0.0924749
0.0922628
0.0920937
0.0919566
0.0918421
1.15512
0.545341
0.303067
0.209169
0.16222
0.1356
0.119542
0.109682
0.10373
0.100343
0.0986781
0.098194
0.0985558
0.09958
0.101197
0.103424
0.10635
0.110113
0.114892
0.120917
0.128644
0.139088
0.153241
0.168357
0.170341
0.151085
0.133832
0.122545
0.115071
0.109723
0.105607
0.102342
0.0997638
0.0977648
0.0962442
0.0951023
0.0942494
0.0936113
0.0931303
0.0927638
0.0924811
0.0922601
0.092085
0.0919439
0.0918269
1.23844
0.501985
0.296042
0.207469
0.161551
0.135227
0.119344
0.109675
0.103957
0.100841
0.0994755
0.0993211
0.100051
0.101494
0.103601
0.106414
0.11004
0.114621
0.120253
0.126842
0.134099
0.141876
0.150253
0.153596
0.146677
0.13687
0.12792
0.120748
0.114948
0.11011
0.106045
0.102692
0.100008
0.0979237
0.096342
0.0951587
0.0942783
0.0936221
0.0931294
0.0927553
0.0924676
0.0922435
0.0920664
0.091924
0.0918064
1.13197
0.471867
0.287961
0.20492
0.160852
0.135191
0.119525
0.109863
0.104038
0.100753
0.0991857
0.0988085
0.0992995
0.100486
0.102307
0.104784
0.107992
0.112012
0.116859
0.122333
0.127902
0.132786
0.13614
0.136899
0.134246
0.129667
0.124364
0.119092
0.114134
0.109638
0.105721
0.102449
0.0998243
0.0977852
0.0962375
0.0950786
0.0942153
0.0935707
0.093086
0.0927174
0.0924337
0.0922125
0.0920375
0.0918968
0.0917807
1.10889
0.46048
0.283624
0.202791
0.1595
0.134298
0.118929
0.109409
0.10359
0.100207
0.0984638
0.0978541
0.0980623
0.0989119
0.100328
0.102309
0.104891
0.108112
0.111947
0.116223
0.120533
0.124268
0.126837
0.127811
0.12689
0.124338
0.12066
0.116455
0.112183
0.108168
0.104619
0.101641
0.0992432
0.0973739
0.0959479
0.0948735
0.0940676
0.0934617
0.0930031
0.0926522
0.0923807
0.092168
0.0919991
0.0918628
0.0917503
1.10002
0.456137
0.281747
0.201714
0.158711
0.13369
0.118461
0.109022
0.103214
0.0997759
0.0979206
0.0971478
0.0971442
0.0977275
0.09881
0.100368
0.102414
0.104957
0.107965
0.111302
0.114689
0.117708
0.11991
0.120951
0.120599
0.118907
0.116161
0.112819
0.109308
0.105951
0.102958
0.100429
0.0983782
0.0967649
0.0955212
0.0945734
0.093854
0.0933068
0.092888
0.0925644
0.0923117
0.0921121
0.0919525
0.0918231
0.0917157
1.093
0.454421
0.281115
0.201388
0.158436
0.133421
0.118204
0.108774
0.102956
0.0994774
0.0975481
0.0966652
0.0965105
0.0968939
0.097714
0.0989293
0.100529
0.102505
0.104817
0.107357
0.109923
0.112222
0.113925
0.114754
0.114544
0.113325
0.111285
0.108746
0.106034
0.103412
0.101049
0.0990311
0.0973742
0.0960525
0.0950179
0.0942167
0.0935987
0.0931213
0.0927505
0.0924601
0.0922307
0.0920475
0.0918997
0.0917789
0.0916782
1.0858
0.453392
0.280882
0.201351
0.158402
0.13334
0.11808
0.108616
0.102764
0.0992409
0.0972491
0.0962784
0.0960029
0.0962223
0.0968223
0.0977444
0.0989599
0.100445
0.102155
0.104003
0.10584
0.107464
0.108648
0.109202
0.109021
0.108134
0.106673
0.104843
0.102867
0.100934
0.0991692
0.0976386
0.0963608
0.0953227
0.0944944
0.0938402
0.0933258
0.0929209
0.0926009
0.0923463
0.0921423
0.0919774
0.0918428
0.0917318
0.0916386
1.07854
0.452581
0.280732
0.201363
0.158429
0.133328
0.118018
0.108506
0.102608
0.0990348
0.0969816
0.0959311
0.0955493
0.0956261
0.0960353
0.0967052
0.0975931
0.0986654
0.0998776
0.101159
0.102405
0.103481
0.104241
0.104569
0.104404
0.10377
0.102763
0.1015
0.100125
0.0987615
0.0974965
0.0963792
0.0954275
0.0946376
0.0939932
0.0934729
0.0930547
0.0927188
0.0924482
0.0922292
0.0920508
0.0919047
0.091784
0.0916833
0.0915982
1.07147
0.451861
0.280597
0.201357
0.158447
0.133324
0.117974
0.108417
0.102472
0.0988472
0.0967341
0.0956094
0.0951325
0.0950854
0.0953326
0.0957925
0.096414
0.0971582
0.0979839
0.098837
0.0996458
0.100324
0.100785
0.10096
0.100819
0.100378
0.0996985
0.0988525
0.097924
0.0969901
0.0961079
0.0953127
0.0946201
0.0940317
0.09354
0.0931336
0.0927994
0.092525
0.0922996
0.0921137
0.09196
0.091832
0.091725
0.0916347
0.0915578
1.06469
0.451198
0.280469
0.20133
0.158441
0.133305
0.117926
0.108331
0.102342
0.0986696
0.0965011
0.0953098
0.0947504
0.0945988
0.0947136
0.0950068
0.0954228
0.0959212
0.0964657
0.097016
0.0975243
0.0979377
0.0982054
0.0982897
0.098175
0.0978729
0.0974188
0.096861
0.0962437
0.0956135
0.095007
0.0944484
0.0939505
0.0935171
0.0931461
0.0928319
0.0925675
0.0923458
0.0921598
0.0920037
0.0918724
0.0917615
0.0916675
0.0915873
0.0915183
1.0582
0.450578
0.280351
0.201292
0.158416
0.13327
0.117866
0.108239
0.102214
0.0984986
0.0962814
0.0950329
0.0944044
0.0941684
0.0941793
0.0943461
0.0946109
0.0949342
0.0952845
0.0956317
0.0959444
0.0961905
0.0963409
0.096375
0.0962854
0.0960794
0.0957775
0.0954082
0.0949983
0.094574
0.094158
0.0937667
0.0934097
0.0930915
0.0928125
0.0925706
0.0923625
0.0921842
0.0920318
0.0919015
0.0917902
0.0916947
0.0916127
0.0915419
0.0914805
1.05197
0.450001
0.280251
0.201255
0.158381
0.133223
0.117798
0.108144
0.102087
0.098335
0.0960766
0.0947807
0.0940966
0.0937946
0.0937271
0.0938012
0.0939588
0.0941618
0.0943827
0.0945986
0.0947884
0.0949326
0.0950145
0.0950228
0.0949539
0.0948123
0.0946097
0.0943623
0.0940875
0.0937996
0.0935123
0.0932365
0.0929794
0.0927449
0.0925346
0.0923482
0.0921844
0.0920413
0.0919167
0.0918084
0.0917143
0.0916325
0.0915613
0.0914992
0.0914448
1.04593
0.449466
0.280176
0.201226
0.158347
0.133172
0.117727
0.108049
0.101964
0.0981816
0.0958891
0.0945548
0.0938269
0.0934746
0.0933491
0.0933571
0.0934405
0.0935627
0.0936992
0.0938321
0.0939465
0.09403
0.0940729
0.0940688
0.094016
0.093917
0.0937786
0.0936103
0.0934223
0.0932238
0.0930227
0.092826
0.0926388
0.0924646
0.0923051
0.0921608
0.0920316
0.0919165
0.0918146
0.0917247
0.0916454
0.0915755
0.0915139
0.0914595
0.0914116
1.04005
0.448973
0.280125
0.20121
0.158318
0.133124
0.117658
0.107957
0.101848
0.0980404
0.0957198
0.0943546
0.0935928
0.0932026
0.0930351
0.0929965
0.0930292
0.093098
0.0931803
0.0932612
0.0933298
0.0933777
0.0933988
0.0933895
0.0933487
0.0932781
0.0931815
0.0930644
0.092933
0.0927933
0.0926499
0.0925074
0.0923694
0.0922385
0.0921164
0.0920039
0.0919013
0.0918086
0.0917251
0.0916503
0.0915835
0.0915238
0.0914706
0.0914231
0.091381
1.03438
0.448518
0.280093
0.201207
0.158296
0.133081
0.117594
0.107873
0.101742
0.0979121
0.0955683
0.0941786
0.0933906
0.0929724
0.0927745
0.0927035
0.0927019
0.0927355
0.0927831
0.0928317
0.0928725
0.0928995
0.0929087
0.0928979
0.0928662
0.0928148
0.0927458
0.0926625
0.0925685
0.0924678
0.0923636
0.0922586
0.0921553
0.0920557
0.0919612
0.0918728
0.0917909
0.0917157
0.0916471
0.0915847
0.0915283
0.0914774
0.0914314
0.0913901
0.0913531
1.02896
0.448099
0.28008
0.201216
0.158285
0.133046
0.117538
0.107797
0.101647
0.0977973
0.0954341
0.094025
0.0932169
0.0927778
0.0925582
0.0924645
0.0924398
0.0924502
0.0924756
0.092504
0.092528
0.0925429
0.0925459
0.0925353
0.0925107
0.0924725
0.0924221
0.0923615
0.0922929
0.0922188
0.0921414
0.0920626
0.0919841
0.0919073
0.0918334
0.0917633
0.0916974
0.0916361
0.0915794
0.0915273
0.0914796
0.091436
0.0913963
0.0913602
0.0913278
1.0238
0.447719
0.280087
0.201241
0.158286
0.133022
0.117491
0.10773
0.101563
0.0976961
0.0953167
0.0938918
0.0930681
0.0926135
0.0923782
0.0922687
0.0922283
0.0922234
0.0922345
0.0922503
0.0922642
0.0922722
0.0922721
0.0922627
0.0922435
0.0922147
0.0921772
0.0921322
0.0920811
0.0920255
0.0919669
0.0919068
0.0918462
0.0917863
0.0917279
0.0916717
0.0916183
0.091568
0.091521
0.0914772
0.0914367
0.0913993
0.0913649
0.0913335
0.091305
1.01885
0.447383
0.280117
0.201282
0.158299
0.133008
0.117455
0.107675
0.10149
0.0976081
0.0952148
0.0937769
0.0929411
0.0924747
0.092228
0.0921074
0.0920563
0.0920413
0.0920432
0.0920511
0.0920589
0.0920632
0.0920618
0.0920538
0.0920388
0.0920169
0.0919886
0.0919545
0.0919158
0.0918734
0.0918284
0.0917818
0.0917344
0.0916871
0.0916404
0.091595
0.0915514
0.0915099
0.0914705
0.0914336
0.0913991
0.0913669
0.0913371
0.0913096
0.0912846
1.01412
0.447087
0.280167
0.201337
0.158324
0.133004
0.117428
0.107629
0.101428
0.0975325
0.0951271
0.0936785
0.0928329
0.0923575
0.0921025
0.0919741
0.0919156
0.0918938
0.0918898
0.0918928
0.091897
0.0918992
0.0918975
0.091891
0.0918794
0.0918626
0.0918409
0.0918149
0.0917852
0.0917524
0.0917173
0.0916807
0.0916432
0.0916053
0.0915677
0.0915307
0.0914947
0.0914601
0.0914271
0.0913958
0.0913662
0.0913385
0.0913125
0.0912885
0.0912664
1.00964
0.446826
0.28023
0.201402
0.158357
0.133009
0.11741
0.107592
0.101377
0.0974684
0.0950523
0.0935945
0.0927409
0.0922586
0.0919974
0.0918633
0.0917997
0.0917734
0.0917655
0.0917655
0.0917677
0.0917688
0.0917673
0.0917622
0.0917533
0.0917405
0.0917238
0.0917038
0.0916807
0.091655
0.0916273
0.0915982
0.0915681
0.0915376
0.0915069
0.0914765
0.0914467
0.0914177
0.0913897
0.091363
0.0913376
0.0913135
0.0912909
0.0912697
0.0912503
1.00544
0.446591
0.280301
0.201473
0.158396
0.13302
0.1174
0.107565
0.101335
0.0974148
0.094989
0.0935232
0.0926631
0.0921752
0.0919091
0.0917709
0.0917037
0.0916744
0.091664
0.0916622
0.0916631
0.0916639
0.0916628
0.0916591
0.0916524
0.0916427
0.0916299
0.0916143
0.0915962
0.091576
0.0915539
0.0915305
0.0915062
0.0914812
0.091456
0.0914308
0.0914058
0.0913813
0.0913576
0.0913346
0.0913127
0.0912917
0.0912719
0.0912532
0.091236
1.00155
0.446379
0.280376
0.201548
0.158442
0.133039
0.117397
0.107545
0.101301
0.0973704
0.0949358
0.0934629
0.0925971
0.0921047
0.0918349
0.0916936
0.0916239
0.0915925
0.0915806
0.0915776
0.091578
0.0915787
0.0915783
0.0915758
0.091571
0.0915636
0.0915538
0.0915417
0.0915274
0.0915113
0.0914936
0.0914746
0.0914547
0.0914342
0.0914132
0.0913921
0.091371
0.0913502
0.0913299
0.0913101
0.091291
0.0912727
0.0912552
0.0912387
0.0912235
0.997962
0.446187
0.280455
0.201628
0.158493
0.133064
0.117401
0.107532
0.101276
0.0973344
0.0948916
0.0934123
0.0925415
0.0920452
0.0917724
0.0916289
0.0915574
0.0915247
0.0915117
0.0915081
0.0915083
0.0915092
0.0915094
0.091508
0.0915047
0.0914993
0.0914918
0.0914824
0.0914711
0.0914582
0.0914438
0.0914283
0.0914119
0.0913948
0.0913772
0.0913594
0.0913415
0.0913237
0.0913062
0.091289
0.0912723
0.0912562
0.0912407
0.0912261
0.0912124
0.994631
0.446016
0.28054
0.201712
0.15855
0.133095
0.117411
0.107526
0.101257
0.0973057
0.0948552
0.09337
0.0924949
0.0919953
0.0917202
0.0915749
0.0915022
0.0914685
0.0914549
0.091451
0.0914511
0.0914523
0.0914531
0.0914526
0.0914506
0.0914467
0.0914411
0.0914338
0.0914248
0.0914144
0.0914027
0.0913899
0.0913762
0.0913618
0.091347
0.0913318
0.0913165
0.0913012
0.0912859
0.0912709
0.0912562
0.0912419
0.0912282
0.091215
0.0912028
0.9915
0.44587
0.280633
0.201803
0.158612
0.133131
0.117426
0.107526
0.101244
0.0972835
0.0948259
0.0933355
0.0924565
0.0919542
0.0916771
0.0915305
0.0914568
0.0914225
0.0914085
0.0914045
0.0914047
0.0914062
0.0914075
0.0914078
0.0914067
0.0914041
0.0913999
0.0913942
0.0913871
0.0913786
0.091369
0.0913583
0.0913468
0.0913346
0.091322
0.0913089
0.0912956
0.0912823
0.0912689
0.0912556
0.0912426
0.0912298
0.0912174
0.0912056
0.0911945
0.988516
0.445754
0.280736
0.2019
0.158678
0.13317
0.117445
0.107529
0.101236
0.097267
0.0948031
0.0933082
0.092426
0.0919215
0.091643
0.0914953
0.0914209
0.0913862
0.091372
0.0913678
0.0913681
0.0913699
0.0913716
0.0913725
0.0913722
0.0913705
0.0913675
0.0913631
0.0913574
0.0913504
0.0913424
0.0913334
0.0913236
0.0913131
0.0913021
0.0912907
0.091279
0.0912671
0.0912551
0.0912432
0.0912314
0.0912197
0.0912084
0.0911976
0.0911874
0.985676
0.445663
0.280845
0.201996
0.158742
0.133207
0.117463
0.107533
0.101231
0.0972551
0.0947867
0.0932887
0.0924044
0.0918985
0.091619
0.0914707
0.0913958
0.0913608
0.0913464
0.0913422
0.0913426
0.0913445
0.0913465
0.0913478
0.0913481
0.0913471
0.0913449
0.0913415
0.0913368
0.091331
0.0913242
0.0913164
0.0913078
0.0912986
0.0912887
0.0912784
0.0912676
0.0912567
0.0912455
0.0912343
0.0912232
0.0912122
0.0912015
0.0911912
0.0911816
0.983021
0.445592
0.280946
0.202075
0.158787
0.133227
0.117468
0.10753
0.101223
0.0972461
0.0947772
0.0932792
0.0923952
0.0918894
0.09161
0.0914615
0.0913866
0.0913514
0.0913369
0.0913326
0.0913329
0.0913349
0.091337
0.0913386
0.0913392
0.0913387
0.091337
0.0913341
0.0913302
0.0913251
0.091319
0.091312
0.0913041
0.0912954
0.091286
0.091276
0.0912653
0.0912542
0.0912428
0.0912312
0.0912196
0.0912082
0.0911973
0.091187
0.0911774
0.980634
0.445523
0.281
0.20209
0.158768
0.133193
0.117432
0.107501
0.101204
0.0972371
0.0947774
0.0932867
0.0924078
0.0919054
0.091628
0.0914807
0.0914062
0.0913711
0.0913565
0.0913521
0.0913521
0.0913539
0.0913559
0.0913574
0.091358
0.0913575
0.091356
0.0913533
0.0913496
0.0913448
0.0913389
0.091332
0.0913241
0.0913151
0.0913051
0.0912938
0.0912814
0.091268
0.0912538
0.0912391
0.0912246
0.0912107
0.0911976
0.0911858
0.0911753
0.978686
0.445406
0.280881
0.201898
0.158554
0.132999
0.117281
0.1074
0.101151
0.0972243
0.0947962
0.0933284
0.092465
0.0919726
0.0917011
0.091557
0.091484
0.0914494
0.0914347
0.0914298
0.0914294
0.0914306
0.091432
0.091433
0.0914331
0.0914322
0.0914303
0.0914273
0.0914232
0.091418
0.0914116
0.091404
0.091395
0.0913843
0.0913716
0.0913564
0.0913385
0.0913178
0.0912949
0.0912709
0.0912473
0.0912255
0.0912062
0.0911898
0.0911763
0.977828
0.445101
0.280181
0.201062
0.157782
0.132383
0.116844
0.10713
0.101022
0.0972045
0.0948564
0.0934438
0.0926166
0.0921465
0.0918879
0.0917508
0.0916811
0.0916477
0.0916329
0.0916274
0.0916259
0.091626
0.0916263
0.091626
0.091625
0.091623
0.0916199
0.0916158
0.0916106
0.0916041
0.0915964
0.0915869
0.0915753
0.0915607
0.091542
0.0915178
0.0914868
0.0914481
0.0914028
0.0913541
0.0913066
0.0912646
0.0912299
0.0912026
0.091182
0.98199
0.444348
0.2776
0.198319
0.155508
0.130724
0.115755
0.106505
0.10075
0.0971872
0.0950146
0.0937177
0.0929632
0.0925367
0.0923029
0.0921788
0.0921153
0.0920842
0.0920696
0.092063
0.0920601
0.0920583
0.0920567
0.0920544
0.0920514
0.0920474
0.0920424
0.0920363
0.0920291
0.0920206
0.0920104
0.091998
0.0919822
0.0919612
0.0919321
0.0918909
0.0918331
0.0917547
0.0916558
0.0915446
0.0914382
0.0913485
0.0912793
0.0912291
0.0911943
1.01865
0.44351
0.269222
0.19035
0.149599
0.1268
0.113379
0.10525
0.100272
0.0972329
0.0954009
0.0943182
0.0936935
0.0933424
0.0931505
0.0930483
0.0929953
0.0929683
0.0929544
0.0929469
0.0929421
0.0929381
0.0929339
0.0929292
0.0929236
0.0929171
0.0929096
0.0929011
0.0928915
0.0928804
0.0928676
0.0928518
0.0928314
0.0928028
0.0927603
0.0926944
0.0925914
0.0924351
0.0922147
0.0919458
0.0916983
0.0915039
0.0913655
0.0912729
0.0912135
1.2769
0.44484
0.243994
0.170111
0.136441
0.118906
0.109008
0.103168
0.0996577
0.0975445
0.0962854
0.0955483
0.0951261
0.0948899
0.0947607
0.0946914
0.0946545
0.0946346
0.0946231
0.0946157
0.0946098
0.0946042
0.0945983
0.0945917
0.0945844
0.0945764
0.0945674
0.0945576
0.0945468
0.0945348
0.094521
0.0945045
0.094483
0.0944519
0.0944023
0.0943169
0.0941641
0.0938896
0.0934181
0.0927151
0.0921405
0.0917416
0.0914857
0.0913289
0.0912357
3.16394
0.39125
0.17375
0.128989
0.113563
0.106542
0.102809
0.100657
0.0993739
0.0986045
0.0981475
0.0978809
0.0977285
0.0976435
0.0975969
0.0975718
0.0975582
0.0975505
0.0975458
0.0975424
0.0975393
0.0975363
0.0975329
0.0975292
0.0975251
0.0975205
0.0975154
0.0975099
0.0975039
0.0974973
0.0974899
0.0974812
0.09747
0.0974534
0.0974249
0.097368
0.097241
0.0969316
0.096127
0.0939117
0.0926802
0.0919859
0.0915939
0.0913735
0.0912506
)
;

boundaryField
{
    leftWall
    {
        type            epsilonWallFunction;
        value           nonuniform List<scalar> 
42
(
1.02038
1.02048
1.02085
1.02284
1.02482
1.01851
1.04501
1.15512
1.23844
1.13197
1.10889
1.10002
1.093
1.0858
1.07854
1.07147
1.06469
1.0582
1.05197
1.04593
1.04005
1.03438
1.02896
1.0238
1.01885
1.01412
1.00964
1.00544
1.00155
0.997962
0.994631
0.9915
0.988516
0.985676
0.983021
0.980634
0.978686
0.977828
0.98199
1.01865
1.2769
3.16394
)
;
    }
    rightWall
    {
        type            epsilonWallFunction;
        value           nonuniform List<scalar> 0();
    }
    lowerWall
    {
        type            epsilonWallFunction;
        value           nonuniform List<scalar> 0();
    }
    atmosphere
    {
        type            inletOutlet;
        inletValue      uniform 0.1;
        value           nonuniform List<scalar> 
45
(
0.1
0.1
0.1
0.1
0.1
0.1
0.1
0.1
0.1
0.1
0.1
0.1
0.1
0.1
0.1
0.1
0.1
0.1
0.1
0.1
0.1
0.1
0.1
0.1
0.1
0.1
0.1
0.1
0.1
0.1
0.1
0.1
0.1
0.1
0.1
0.1
0.1
0.1
0.1
0.0939117
0.0926802
0.0919859
0.0915939
0.0913735
0.0912506
)
;
    }
    defaultFaces
    {
        type            empty;
    }
    procBoundary2to0
    {
        type            processor;
        value           nonuniform List<scalar> 
46
(
0.0996004
0.105665
0.115697
0.131805
0.15674
0.175462
0.159725
0.137446
0.119396
0.107505
0.10053
0.0967218
0.0947237
0.0936829
0.0931242
0.0928015
0.0925935
0.0924423
0.0923211
0.0922179
0.0921273
0.0920471
0.0919756
0.0919115
0.0918509
1.02009
0.454365
0.286726
0.206214
0.16167
0.135181
0.118768
0.10839
0.101798
0.0976439
0.0950737
0.0935296
0.0926448
0.0921855
0.0920155
0.0920766
0.0923838
0.0930357
0.0942461
0.0963985
0.0963985
)
;
    }
    procBoundary2to3
    {
        type            processor;
        value           nonuniform List<scalar> 
43
(
0.0917854
0.0917827
0.0917794
0.0917756
0.0917705
0.0917633
0.0917537
0.0917409
0.0917245
0.0917044
0.0916807
0.0916536
0.0916237
0.0915917
0.0915584
0.0915245
0.0914909
0.0914581
0.0914267
0.091397
0.0913692
0.0913436
0.0913201
0.0912987
0.0912794
0.091262
0.0912465
0.0912326
0.0912203
0.0912093
0.0911997
0.0911912
0.0911839
0.0911776
0.0911724
0.0911684
0.0911658
0.0911649
0.0911664
0.0911704
0.0911763
0.0911812
0.0911823
)
;
    }
}


// ************************************************************************* //
