/*--------------------------------*- C++ -*----------------------------------*\
  =========                 |
  \\      /  F ield         | OpenFOAM: The Open Source CFD Toolbox
   \\    /   O peration     | Website:  https://openfoam.org
    \\  /    A nd           | Version:  9
     \\/     M anipulation  |
\*---------------------------------------------------------------------------*/
FoamFile
{
    format      ascii;
    class       volScalarField;
    location    "0.05";
    object      k;
}
// * * * * * * * * * * * * * * * * * * * * * * * * * * * * * * * * * * * * * //

dimensions      [0 2 -2 0 0 0 0];

internalField   nonuniform List<scalar> 
1915
(
0.102653
0.106808
0.113099
0.122386
0.13565
0.144895
0.136997
0.125164
0.114927
0.107692
0.103095
0.100337
0.0987184
0.0977649
0.097188
0.096823
0.0965783
0.0964036
0.0962709
0.0961649
0.096077
0.0960023
0.0959375
0.0958805
0.0958279
0.0387093
0.0703578
0.0822191
0.0877564
0.0906841
0.0923674
0.0934048
0.0940844
0.0945537
0.0948924
0.0951478
0.0953527
0.0955347
0.0957218
0.0959478
0.0962586
0.0967221
0.0974421
0.0985773
0.100368
0.103167
0.107473
0.113972
0.123549
0.137216
0.14654
0.13804
0.125689
0.115187
0.107876
0.103286
0.100547
0.0989329
0.097965
0.0973624
0.0969677
0.0966941
0.0964935
0.096339
0.0962152
0.0961132
0.0960273
0.0959538
0.0958897
0.0958319
0.0387143
0.0703476
0.0822148
0.0877587
0.0906944
0.0923863
0.0934329
0.0941229
0.0946038
0.0949559
0.0952274
0.0954521
0.0956587
0.0958763
0.0961403
0.0964981
0.0970193
0.0978092
0.0990292
0.100922
0.103845
0.108307
0.115009
0.124868
0.138938
0.148258
0.138985
0.126049
0.11533
0.108031
0.103511
0.100817
0.0992078
0.0982161
0.0975758
0.0971402
0.0968287
0.0965958
0.096415
0.0962703
0.096152
0.0960536
0.0959706
0.0958993
0.0958358
0.0387357
0.0703431
0.0822084
0.0877584
0.0907063
0.0924138
0.0934774
0.0941853
0.0946854
0.0950591
0.095356
0.0956114
0.0958558
0.09612
0.0964409
0.0968678
0.0974715
0.0983581
0.0996887
0.101705
0.104764
0.109376
0.116253
0.126341
0.140734
0.149729
0.139468
0.125992
0.115254
0.108132
0.103773
0.101156
0.099551
0.0985224
0.0978291
0.0973397
0.0969806
0.0967085
0.0964967
0.0963283
0.0961919
0.09608
0.0959869
0.0959081
0.0958392
0.0388151
0.0703351
0.0822034
0.0877615
0.090726
0.0924573
0.0935477
0.0942834
0.0948131
0.0952199
0.0955557
0.0958583
0.0961601
0.0964946
0.0969009
0.09743
0.0981537
0.0991772
0.100658
0.102831
0.106043
0.110793
0.117786
0.127982
0.142499
0.150325
0.138871
0.125206
0.114845
0.10816
0.10408
0.101573
0.0999659
0.0988823
0.098118
0.0975608
0.0971445
0.096827
0.0965807
0.0963864
0.096231
0.0961051
0.0960018
0.0959154
0.0958411
0.0388443
0.0702392
0.0821757
0.0877624
0.0907597
0.0925293
0.0936591
0.094435
0.0950075
0.0954633
0.0958575
0.096231
0.0966193
0.0970589
0.0975918
0.0982714
0.09917
0.10039
0.102082
0.104464
0.107861
0.112739
0.119762
0.129874
0.14423
0.149374
0.136653
0.123481
0.114088
0.10815
0.104457
0.102071
0.100444
0.0992819
0.0984286
0.0977917
0.097311
0.0969444
0.0966616
0.0964409
0.0962664
0.0961268
0.0960136
0.0959203
0.0958409
0.0387227
0.0699611
0.0821434
0.0877883
0.0908361
0.0926576
0.0938378
0.094665
0.0952956
0.0958213
0.0963013
0.0967798
0.0972956
0.0978889
0.0986057
0.0995031
0.100654
0.102158
0.10415
0.106827
0.110475
0.115502
0.122461
0.132158
0.145874
0.146955
0.132875
0.121056
0.113192
0.108205
0.104926
0.102634
0.100952
0.0996894
0.0987347
0.0980126
0.097466
0.0970507
0.0967329
0.0964872
0.0962952
0.0961431
0.0960212
0.0959216
0.095838
0.0397311
0.069888
0.0823437
0.0879728
0.0910431
0.0929016
0.0941224
0.0950012
0.0957036
0.0963265
0.096931
0.0975626
0.0982629
0.0990763
0.100055
0.101261
0.102771
0.104679
0.107103
0.110204
0.114223
0.11951
0.126417
0.135169
0.146138
0.141497
0.127954
0.118571
0.112505
0.108421
0.105459
0.103192
0.101424
0.100052
0.0989978
0.098197
0.0975918
0.0971343
0.0967868
0.0965204
0.0963139
0.0961519
0.096023
0.0959186
0.0958318
0.0425309
0.0721405
0.0829453
0.0883217
0.0913672
0.0932376
0.0944796
0.0954098
0.0962082
0.0969737
0.0977632
0.098619
0.0995834
0.100706
0.102047
0.10368
0.105688
0.108163
0.1112
0.114902
0.119463
0.125301
0.132715
0.140184
0.141162
0.131861
0.122972
0.1167
0.112192
0.108724
0.105918
0.10362
0.101765
0.100302
0.099174
0.0983165
0.0976703
0.0971838
0.0968161
0.0965358
0.0963198
0.0961512
0.0960179
0.0959105
0.0958218
0.0442246
0.0729858
0.0831218
0.0884028
0.0914892
0.0933846
0.0946523
0.0956346
0.0965217
0.0974102
0.0983525
0.0993886
0.100561
0.101925
0.103548
0.105511
0.107901
0.110803
0.114258
0.118189
0.122414
0.126804
0.131323
0.133163
0.129776
0.124687
0.119767
0.115565
0.111958
0.10881
0.106078
0.103768
0.101879
0.100383
0.0992268
0.0983489
0.0976878
0.0971908
0.0968157
0.0965303
0.0963108
0.09614
0.0960051
0.0958968
0.0958077
0.0416969
0.0718989
0.0829289
0.0884654
0.091706
0.093694
0.094985
0.095926
0.0967227
0.0974903
0.0982965
0.0991901
0.100218
0.101432
0.102894
0.104674
0.106839
0.109442
0.112479
0.115822
0.119163
0.122069
0.124076
0.124614
0.123244
0.120694
0.117607
0.114409
0.11129
0.108378
0.105773
0.103545
0.101716
0.100264
0.0991407
0.0982851
0.097639
0.097152
0.0967836
0.0965027
0.0962864
0.0961178
0.0959846
0.0958776
0.0957896
0.0412135
0.0715247
0.0829362
0.0884687
0.0916334
0.0936062
0.0949105
0.0958434
0.0965883
0.0972606
0.097936
0.0986711
0.0995156
0.10052
0.101738
0.103224
0.105029
0.10718
0.109657
0.112348
0.11501
0.117296
0.11887
0.119488
0.118978
0.117472
0.115252
0.112654
0.10995
0.107346
0.104989
0.102963
0.101293
0.099962
0.0989259
0.098132
0.0975285
0.0970706
0.0967219
0.0964544
0.0962474
0.0960852
0.0959567
0.0958531
0.0957678
0.0410328
0.0715673
0.0830812
0.0885533
0.0916242
0.0935392
0.0948182
0.0957295
0.0964352
0.0970416
0.0976235
0.0982383
0.0989354
0.0997613
0.100762
0.101981
0.103455
0.1052
0.107192
0.109343
0.11148
0.113357
0.114713
0.11535
0.115137
0.1141
0.112402
0.110304
0.108055
0.105858
0.103853
0.102118
0.100679
0.0995219
0.0986132
0.0979096
0.0973691
0.0969545
0.0966356
0.0963888
0.096196
0.0960439
0.0959224
0.0958241
0.0957429
0.0408591
0.0716345
0.083217
0.0886671
0.0916726
0.0935248
0.0947588
0.0956356
0.0963044
0.0968619
0.0973773
0.0979047
0.0984896
0.0991728
0.0999923
0.100982
0.102167
0.103554
0.10512
0.106794
0.10845
0.109909
0.110977
0.111491
0.111358
0.110591
0.109299
0.10767
0.105901
0.104154
0.102545
0.101141
0.0999634
0.0990055
0.0982429
0.0976442
0.0971777
0.0968149
0.0965321
0.0963104
0.0961353
0.0959958
0.0958834
0.0957916
0.0957155
0.0406605
0.071626
0.0832739
0.0887398
0.0917176
0.0935248
0.0947147
0.0955524
0.0961832
0.0966974
0.0971585
0.0976153
0.0981077
0.0986702
0.0993328
0.10012
0.101048
0.102117
0.103303
0.104552
0.105768
0.106827
0.107592
0.107948
0.107832
0.10726
0.106309
0.105104
0.103783
0.102465
0.101239
0.100155
0.0992328
0.0984709
0.0978543
0.097362
0.0969717
0.0966632
0.0964188
0.0962245
0.0960689
0.0959433
0.0958411
0.0957569
0.0956865
0.0404529
0.0715654
0.0832599
0.0887526
0.0917278
0.0935112
0.0946685
0.0954716
0.0960661
0.0965398
0.096952
0.0973465
0.0977581
0.0982149
0.0987399
0.0993501
0.100054
0.100849
0.101713
0.102603
0.103453
0.104177
0.104686
0.104906
0.104799
0.10438
0.103705
0.102849
0.101904
0.100952
0.100054
0.0992472
0.0985496
0.0979626
0.0974785
0.0970844
0.096766
0.0965096
0.0963029
0.0961357
0.0959999
0.0958887
0.0957971
0.0957209
0.0956567
0.0402484
0.0714809
0.0832032
0.0887181
0.0917005
0.0934744
0.0946111
0.0953873
0.0959504
0.0963875
0.0967555
0.0970946
0.0974352
0.0978004
0.0982076
0.0986685
0.0991872
0.0997584
0.100365
0.100976
0.101545
0.102017
0.102338
0.102461
0.102368
0.102069
0.1016
0.101011
0.100355
0.0996877
0.0990483
0.0984642
0.0979495
0.0975076
0.0971356
0.0968264
0.0965714
0.0963618
0.0961897
0.0960481
0.0959312
0.0958341
0.095753
0.0956848
0.0956269
0.0400517
0.0713884
0.0831244
0.0886532
0.0916435
0.0934148
0.0945391
0.0952955
0.095833
0.0962388
0.0965683
0.0968593
0.0971393
0.0974277
0.0977383
0.098079
0.0984518
0.0988517
0.0992658
0.0996721
0.100041
0.100339
0.100532
0.100595
0.100518
0.100308
0.0999872
0.0995884
0.0991425
0.0986826
0.0982353
0.0978193
0.0974452
0.0971174
0.0968354
0.0965959
0.0963941
0.0962249
0.0960833
0.0959647
0.0958651
0.0957811
0.09571
0.0956495
0.0955977
0.0398637
0.0712943
0.0830353
0.0885708
0.0915663
0.093337
0.0944537
0.0951958
0.0957133
0.0960933
0.0963906
0.0966418
0.096872
0.0970987
0.0973331
0.0975815
0.0978451
0.0981201
0.0983972
0.0986622
0.0988964
0.0990794
0.0991919
0.09922
0.0991584
0.099012
0.0987943
0.0985251
0.0982236
0.097909
0.0975983
0.0973041
0.0970341
0.0967925
0.0965801
0.0963958
0.0962373
0.0961016
0.0959859
0.0958872
0.0958029
0.0957309
0.095669
0.0956157
0.0955697
0.0396829
0.0712008
0.0829426
0.0884794
0.0914772
0.0932476
0.094359
0.0950907
0.0955928
0.0959525
0.0962242
0.0964434
0.0966345
0.0968132
0.09699
0.0971702
0.0973552
0.0975424
0.097726
0.0978967
0.0980434
0.098154
0.0982176
0.0982266
0.0981784
0.098076
0.0979278
0.097745
0.0975404
0.0973248
0.0971086
0.0969001
0.0967052
0.0965271
0.0963672
0.0962255
0.0961012
0.0959927
0.0958984
0.0958167
0.0957457
0.0956841
0.0956306
0.0955839
0.0955433
0.0395073
0.0711085
0.0828497
0.0883848
0.0913827
0.0931521
0.0942597
0.094984
0.0954746
0.0958187
0.0960705
0.0962651
0.0964261
0.0965689
0.0967033
0.0968345
0.0969644
0.0970918
0.0972131
0.0973228
0.0974142
0.0974804
0.0975151
0.0975143
0.0974768
0.0974046
0.0973024
0.0971771
0.0970362
0.0968869
0.096735
0.0965862
0.0964445
0.0963125
0.0961916
0.0960824
0.0959847
0.0958979
0.0958212
0.0957535
0.0956939
0.0956414
0.0955952
0.0955544
0.0955186
0.0393361
0.0710179
0.0827582
0.0882904
0.091287
0.093055
0.0941599
0.0948787
0.0953609
0.0956935
0.0959302
0.0961063
0.0962449
0.0963613
0.0964652
0.0965621
0.0966542
0.0967415
0.0968222
0.096893
0.09695
0.0969893
0.0970075
0.0970023
0.0969731
0.0969213
0.0968497
0.0967623
0.0966637
0.0965585
0.0964503
0.0963428
0.0962386
0.0961398
0.0960477
0.095963
0.0958859
0.0958162
0.0957535
0.0956975
0.0956474
0.0956027
0.0955628
0.0955274
0.0954959
0.0391707
0.0709297
0.082669
0.0881978
0.0911924
0.0929593
0.0940621
0.0947772
0.0952534
0.0955775
0.0958032
0.0959656
0.096088
0.0961855
0.0962679
0.096341
0.0964076
0.0964684
0.0965228
0.096569
0.096605
0.0966283
0.0966372
0.0966304
0.0966077
0.0965698
0.0965186
0.0964565
0.0963861
0.0963105
0.0962321
0.0961532
0.0960756
0.0960008
0.0959299
0.0958636
0.0958023
0.0957461
0.0956948
0.0956483
0.0956061
0.095568
0.0955337
0.0955028
0.0954753
0.0390126
0.0708445
0.0825833
0.0881087
0.0911013
0.0928672
0.0939686
0.0946811
0.0951532
0.0954712
0.0956891
0.0958418
0.0959525
0.0960367
0.0961041
0.096161
0.0962104
0.0962539
0.0962914
0.0963223
0.0963453
0.0963593
0.0963631
0.0963562
0.0963385
0.0963105
0.0962731
0.096228
0.0961768
0.0961214
0.0960635
0.0960046
0.0959458
0.0958885
0.0958333
0.095781
0.095732
0.0956863
0.0956441
0.0956053
0.0955697
0.0955372
0.0955075
0.0954807
0.0954565
0.0388613
0.0707626
0.0825018
0.0880243
0.0910154
0.0927804
0.0938809
0.0945917
0.095061
0.095375
0.0955874
0.0957333
0.0958359
0.0959107
0.0959679
0.0960137
0.0960518
0.0960839
0.0961106
0.0961319
0.0961471
0.0961556
0.096157
0.0961507
0.0961369
0.0961158
0.0960881
0.0960547
0.0960167
0.0959754
0.0959318
0.095887
0.095842
0.0957974
0.095754
0.0957123
0.0956727
0.0956354
0.0956004
0.0955679
0.0955377
0.0955099
0.0954843
0.0954609
0.0954397
0.0387155
0.0706841
0.0824251
0.0879455
0.0909353
0.0926997
0.0937996
0.0945095
0.0949771
0.0952884
0.0954972
0.0956385
0.0957355
0.095804
0.0958542
0.0958926
0.0959231
0.0959478
0.0959677
0.0959829
0.0959935
0.095999
0.0959992
0.095994
0.0959832
0.0959672
0.0959463
0.0959212
0.0958925
0.0958611
0.0958277
0.0957932
0.0957581
0.0957231
0.0956885
0.095655
0.0956227
0.095592
0.0955629
0.0955355
0.0955098
0.0954859
0.0954636
0.0954432
0.0954246
0.0385756
0.070609
0.0823531
0.0878724
0.0908611
0.0926251
0.093725
0.0944346
0.0949012
0.0952111
0.0954177
0.0955559
0.0956493
0.0957135
0.095759
0.0957925
0.095818
0.095838
0.0958534
0.095865
0.0958728
0.0958767
0.0958766
0.0958723
0.095864
0.0958518
0.0958359
0.0958167
0.0957948
0.0957706
0.0957447
0.0957177
0.09569
0.0956621
0.0956343
0.095607
0.0955805
0.095555
0.0955306
0.0955074
0.0954854
0.0954648
0.0954454
0.0954275
0.0954112
0.0384428
0.0705379
0.0822858
0.0878045
0.0907925
0.0925565
0.0936568
0.0943666
0.0948333
0.0951425
0.0953478
0.0954842
0.0955752
0.0956367
0.0956791
0.0957094
0.0957316
0.0957484
0.0957612
0.0957705
0.0957767
0.0957798
0.0957798
0.0957766
0.0957702
0.0957609
0.0957487
0.095734
0.095717
0.0956981
0.0956778
0.0956563
0.0956342
0.0956117
0.0955892
0.0955668
0.0955449
0.0955235
0.0955029
0.0954831
0.0954642
0.0954463
0.0954294
0.0954137
0.0953993
0.0383185
0.0704714
0.0822235
0.0877418
0.0907296
0.092494
0.093595
0.0943056
0.0947727
0.0950819
0.0952867
0.0954221
0.0955117
0.0955714
0.0956118
0.09564
0.0956601
0.095675
0.095686
0.095694
0.0956994
0.0957021
0.0957024
0.0957002
0.0956955
0.0956884
0.0956791
0.0956676
0.0956544
0.0956395
0.0956233
0.0956062
0.0955883
0.09557
0.0955515
0.095533
0.0955146
0.0954966
0.0954791
0.0954621
0.0954458
0.0954302
0.0954154
0.0954015
0.0953888
0.0382034
0.0704099
0.082166
0.0876844
0.0906724
0.0924375
0.0935396
0.0942512
0.0947191
0.0950287
0.0952335
0.0953685
0.0954573
0.0955159
0.0955551
0.0955819
0.0956007
0.0956144
0.0956244
0.0956316
0.0956366
0.0956393
0.09564
0.0956387
0.0956353
0.0956301
0.0956229
0.095614
0.0956036
0.0955918
0.0955788
0.0955649
0.0955503
0.0955353
0.0955199
0.0955045
0.095489
0.0954737
0.0954587
0.0954441
0.0954299
0.0954162
0.0954032
0.0953909
0.0953795
0.0380972
0.0703533
0.0821133
0.0876322
0.0906208
0.092387
0.0934902
0.0942031
0.0946719
0.0949822
0.0951873
0.0953223
0.0954107
0.0954688
0.0955072
0.0955332
0.0955513
0.0955643
0.0955737
0.0955806
0.0955854
0.0955883
0.0955894
0.0955889
0.0955867
0.0955828
0.0955774
0.0955704
0.0955622
0.0955527
0.0955422
0.0955309
0.0955189
0.0955064
0.0954935
0.0954805
0.0954674
0.0954543
0.0954413
0.0954286
0.0954162
0.0954041
0.0953926
0.0953816
0.0953714
0.0379986
0.0703008
0.0820652
0.0875852
0.0905747
0.0923421
0.0934468
0.0941609
0.0946308
0.094942
0.0951477
0.0952829
0.0953713
0.0954292
0.0954673
0.0954929
0.0955105
0.0955231
0.0955322
0.095539
0.0955437
0.0955469
0.0955485
0.0955486
0.0955473
0.0955445
0.0955404
0.0955351
0.0955285
0.0955209
0.0955123
0.095503
0.095493
0.0954825
0.0954716
0.0954605
0.0954492
0.0954379
0.0954266
0.0954155
0.0954045
0.0953938
0.0953834
0.0953735
0.0953644
0.0379054
0.0702517
0.0820213
0.0875432
0.0905342
0.0923031
0.0934093
0.0941248
0.094596
0.0949082
0.0951146
0.0952502
0.0953389
0.0953967
0.0954347
0.0954601
0.0954776
0.0954899
0.095499
0.0955056
0.0955105
0.0955139
0.0955158
0.0955165
0.0955159
0.0955141
0.095511
0.0955069
0.0955016
0.0954954
0.0954884
0.0954806
0.0954721
0.0954632
0.0954539
0.0954443
0.0954345
0.0954245
0.0954145
0.0954046
0.0953948
0.0953851
0.0953757
0.0953667
0.0953584
0.0378161
0.0702051
0.0819814
0.0875064
0.0904996
0.0922704
0.0933784
0.0940957
0.0945683
0.0948815
0.0950888
0.095225
0.0953139
0.0953719
0.09541
0.0954353
0.0954526
0.0954649
0.0954738
0.0954805
0.0954855
0.095489
0.0954913
0.0954924
0.0954924
0.0954912
0.095489
0.0954857
0.0954815
0.0954764
0.0954705
0.0954639
0.0954566
0.0954489
0.0954407
0.0954322
0.0954234
0.0954144
0.0954054
0.0953963
0.0953872
0.0953783
0.0953695
0.0953612
0.0953534
0.0377306
0.0701614
0.0819463
0.087476
0.0904724
0.0922461
0.0933565
0.0940758
0.09455
0.0948645
0.0950726
0.0952094
0.0952987
0.0953569
0.0953949
0.0954202
0.0954375
0.0954496
0.0954585
0.0954652
0.0954702
0.0954739
0.0954763
0.0954777
0.0954781
0.0954774
0.0954758
0.0954732
0.0954698
0.0954654
0.0954603
0.0954545
0.0954481
0.0954411
0.0954336
0.0954257
0.0954174
0.0954089
0.0954002
0.0953913
0.0953825
0.0953737
0.0953652
0.0953571
0.0953496
0.0376507
0.0701226
0.0819191
0.087456
0.0904579
0.0922357
0.0933494
0.0940711
0.0945471
0.0948628
0.0950716
0.0952088
0.0952984
0.0953566
0.0953945
0.0954197
0.0954367
0.0954488
0.0954575
0.0954641
0.0954691
0.0954727
0.0954753
0.0954768
0.0954774
0.0954771
0.0954758
0.0954736
0.0954706
0.0954668
0.0954622
0.0954568
0.0954507
0.095444
0.0954366
0.0954285
0.09542
0.0954109
0.0954015
0.0953919
0.0953822
0.0953727
0.0953636
0.0953551
0.0953473
0.0375792
0.0700955
0.0819099
0.0874591
0.0904697
0.0922535
0.0933711
0.0940952
0.0945725
0.0948887
0.0950976
0.0952347
0.0953238
0.0953817
0.0954192
0.095444
0.0954607
0.0954724
0.0954809
0.0954872
0.095492
0.0954955
0.0954979
0.0954994
0.0955
0.0954997
0.0954985
0.0954965
0.0954936
0.0954899
0.0954854
0.09548
0.0954737
0.0954665
0.0954582
0.0954489
0.0954385
0.0954271
0.095415
0.0954024
0.0953898
0.0953777
0.0953664
0.0953561
0.0953471
0.0375229
0.0701013
0.0819495
0.0875199
0.0905427
0.0923326
0.0934524
0.0941764
0.0946523
0.0949666
0.0951736
0.0953088
0.0953964
0.0954529
0.0954895
0.0955133
0.0955293
0.0955404
0.0955483
0.095554
0.0955583
0.0955614
0.0955636
0.0955647
0.0955651
0.0955645
0.0955631
0.0955609
0.0955578
0.0955538
0.0955489
0.0955429
0.0955356
0.0955269
0.0955163
0.0955036
0.0954886
0.0954713
0.0954522
0.0954321
0.0954121
0.0953933
0.0953765
0.095362
0.09535
0.0375072
0.0702174
0.0821327
0.0877313
0.0907604
0.0925456
0.0936561
0.0943696
0.0948355
0.0951412
0.0953412
0.0954709
0.0955544
0.0956078
0.095642
0.0956641
0.0956787
0.0956886
0.0956955
0.0957004
0.0957039
0.0957063
0.0957077
0.0957083
0.095708
0.0957068
0.0957049
0.0957021
0.0956984
0.0956938
0.0956879
0.0956807
0.0956715
0.0956598
0.0956447
0.0956254
0.0956008
0.0955707
0.0955358
0.0954983
0.0954612
0.0954275
0.0953988
0.0953754
0.0953572
0.0376769
0.070734
0.0827445
0.0883287
0.0913072
0.0930368
0.0940977
0.0947706
0.0952051
0.0954871
0.0956696
0.0957869
0.0958617
0.095909
0.0959389
0.0959579
0.0959702
0.0959783
0.0959837
0.0959873
0.0959896
0.0959909
0.0959914
0.0959909
0.0959897
0.0959877
0.0959849
0.0959812
0.0959766
0.0959709
0.0959639
0.0959549
0.0959431
0.0959271
0.0959052
0.0958746
0.0958328
0.0957774
0.0957088
0.0956321
0.0955574
0.095492
0.0954393
0.0953992
0.09537
0.0389303
0.0727186
0.0845746
0.0898359
0.0925303
0.0940472
0.0949566
0.0955233
0.095884
0.0961151
0.0962631
0.0963571
0.0964164
0.0964534
0.0964765
0.0964909
0.0964999
0.0965055
0.096509
0.096511
0.0965119
0.0965119
0.0965112
0.0965096
0.0965073
0.0965043
0.0965006
0.096496
0.0964906
0.096484
0.0964759
0.0964654
0.0964513
0.0964312
0.0964015
0.0963565
0.0962884
0.0961882
0.0960506
0.0958846
0.0957279
0.0955994
0.095503
0.0954345
0.0953877
0.0463605
0.0794499
0.0892561
0.0930526
0.0948621
0.0958488
0.0964323
0.0967934
0.097022
0.0971677
0.0972605
0.0973191
0.0973557
0.0973784
0.0973923
0.0974008
0.0974058
0.0974087
0.0974102
0.0974107
0.0974104
0.0974093
0.0974077
0.0974055
0.0974026
0.0973992
0.0973951
0.0973904
0.097385
0.0973786
0.0973708
0.0973609
0.0973473
0.0973271
0.097295
0.097241
0.0971478
0.0969865
0.0967178
0.096325
0.0959922
0.0957494
0.095584
0.0954757
0.0954066
0.0856898
0.0958974
0.0973563
0.0979169
0.0982429
0.0984544
0.0985952
0.0986892
0.0987517
0.0987929
0.0988197
0.098837
0.0988481
0.098855
0.0988594
0.0988621
0.0988637
0.0988647
0.0988651
0.0988651
0.0988648
0.0988642
0.0988633
0.0988621
0.0988606
0.0988588
0.0988567
0.0988543
0.0988516
0.0988484
0.0988446
0.0988398
0.0988333
0.0988233
0.098806
0.0987724
0.0987003
0.0985313
0.0981055
0.0969602
0.0962918
0.0958927
0.095652
0.0955066
0.0954188
)
;

boundaryField
{
    leftWall
    {
        type            kqRWallFunction;
        value           nonuniform List<scalar> 
42
(
0.0387093
0.0387143
0.0387357
0.0388151
0.0388443
0.0387227
0.0397311
0.0425309
0.0442246
0.0416969
0.0412135
0.0410328
0.0408591
0.0406605
0.0404529
0.0402484
0.0400517
0.0398637
0.0396829
0.0395073
0.0393361
0.0391707
0.0390126
0.0388613
0.0387155
0.0385756
0.0384428
0.0383185
0.0382034
0.0380972
0.0379986
0.0379054
0.0378161
0.0377306
0.0376507
0.0375792
0.0375229
0.0375072
0.0376769
0.0389303
0.0463605
0.0856898
)
;
    }
    rightWall
    {
        type            kqRWallFunction;
        value           nonuniform List<scalar> 0();
    }
    lowerWall
    {
        type            kqRWallFunction;
        value           nonuniform List<scalar> 0();
    }
    atmosphere
    {
        type            inletOutlet;
        inletValue      uniform 0.1;
        value           nonuniform List<scalar> 
45
(
0.1
0.1
0.1
0.1
0.1
0.1
0.1
0.1
0.1
0.1
0.1
0.1
0.1
0.1
0.1
0.1
0.1
0.1
0.1
0.1
0.1
0.1
0.1
0.1
0.1
0.1
0.1
0.1
0.1
0.1
0.1
0.1
0.1
0.1
0.1
0.1
0.1
0.1
0.1
0.0969602
0.0962918
0.0958927
0.095652
0.0955066
0.0954188
)
;
    }
    defaultFaces
    {
        type            empty;
    }
    procBoundary2to0
    {
        type            processor;
        value           nonuniform List<scalar> 
46
(
0.102255
0.106269
0.112363
0.121375
0.134268
0.143415
0.136009
0.124611
0.114634
0.107505
0.102932
0.100172
0.0985531
0.0976087
0.0970488
0.0967048
0.0964816
0.0963267
0.0962114
0.0961202
0.0960444
0.0959796
0.0959228
0.0958721
0.0958245
0.0387012
0.0703552
0.0822138
0.0877484
0.0906734
0.0923537
0.0933871
0.0940619
0.0945249
0.0948557
0.0951012
0.0952936
0.0954597
0.0956267
0.0958272
0.0961056
0.096528
0.0971955
0.0982636
0.0999677
0.0999677
)
;
    }
    procBoundary2to3
    {
        type            processor;
        value           nonuniform List<scalar> 
43
(
0.0957762
0.0957762
0.095776
0.0957753
0.0957735
0.09577
0.0957644
0.0957563
0.0957454
0.0957315
0.0957149
0.0956956
0.0956741
0.095651
0.0956267
0.0956019
0.0955772
0.0955531
0.0955299
0.0955079
0.0954874
0.0954685
0.0954511
0.0954353
0.095421
0.0954081
0.0953967
0.0953864
0.0953773
0.0953693
0.0953622
0.095356
0.0953507
0.0953463
0.0953427
0.0953403
0.0953393
0.0953402
0.0953435
0.0953493
0.0953567
0.0953633
0.0953662
)
;
    }
}


// ************************************************************************* //
