/*--------------------------------*- C++ -*----------------------------------*\
  =========                 |
  \\      /  F ield         | OpenFOAM: The Open Source CFD Toolbox
   \\    /   O peration     | Website:  https://openfoam.org
    \\  /    A nd           | Version:  9
     \\/     M anipulation  |
\*---------------------------------------------------------------------------*/
FoamFile
{
    format      ascii;
    class       volScalarField;
    location    "0.05";
    object      p;
}
// * * * * * * * * * * * * * * * * * * * * * * * * * * * * * * * * * * * * * //

dimensions      [1 -1 -2 0 0 0 0];

internalField   nonuniform List<scalar> 
1915
(
19.645
13.0034
3.93687
-1.11778
-1.63914
-1.67209
-1.67662
-1.68149
-1.68552
-1.68684
-1.68635
-1.68493
-1.68293
-1.68051
-1.67791
-1.67542
-1.67323
-1.67141
-1.66999
-1.669
-1.66849
-1.66844
-1.66878
-1.66955
-1.67069
65.4876
65.7135
65.9229
65.9977
65.796
65.2182
64.218
62.7883
60.9501
58.7371
56.1809
53.3024
50.1141
46.6286
42.8678
38.8585
34.621
30.1729
25.5383
20.7842
15.987
10.6182
3.01806
-1.32489
-1.77283
-1.80517
-1.80955
-1.81333
-1.81549
-1.81468
-1.81184
-1.80798
-1.80352
-1.7987
-1.79383
-1.78919
-1.78497
-1.78123
-1.77799
-1.77527
-1.77311
-1.7715
-1.77032
-1.76957
-1.76938
51.285
51.3994
51.4836
51.4838
51.3312
50.891
50.1051
48.9766
47.5331
45.8021
43.7964
41.5217
38.9854
36.2007
33.1888
29.9776
26.5941
23.0603
19.405
15.6958
12.0298
8.04893
2.13776
-1.51816
-1.90615
-1.94148
-1.94663
-1.94911
-1.949
-1.94543
-1.93961
-1.93274
-1.92543
-1.918
-1.91072
-1.90381
-1.89743
-1.89164
-1.88647
-1.88196
-1.87811
-1.8749
-1.87225
-1.87009
-1.86846
36.1698
36.2703
36.4529
36.4581
36.3227
35.9877
35.3978
34.5695
33.5289
32.2855
30.8342
29.1677
27.2857
25.198
22.9243
20.4953
17.946
15.308
12.6162
9.9542
7.46953
5.0129
1.10581
-1.7169
-2.03654
-2.08179
-2.08978
-2.09057
-2.08698
-2.07958
-2.06995
-2.05943
-2.04876
-2.03832
-2.02834
-2.01898
-2.01031
-2.00239
-1.99526
-1.98891
-1.98335
-1.97852
-1.97437
-1.97083
-1.96787
19.3438
20.0599
20.7354
21.1248
21.121
20.8727
20.4574
19.9321
19.3203
18.6043
17.7513
16.7335
15.5384
14.169
12.6444
11.0006
9.28235
7.53098
5.79111
4.17121
2.87993
1.95167
0.0820918
-1.98569
-2.16847
-2.22741
-2.24139
-2.23966
-2.23031
-2.21738
-2.20279
-2.18786
-2.17328
-2.15942
-2.14644
-2.13441
-2.12335
-2.11326
-2.10413
-2.09596
-2.08868
-2.08225
-2.07661
-2.07169
-2.06745
8.07611
10.171
10.1439
10.0491
9.61712
9.07366
8.63054
8.34793
8.19243
8.07742
7.91144
7.6287
7.19706
6.61241
5.89447
5.08463
4.23519
3.39513
2.6137
2.00916
1.89397
2.35267
0.863394
-2.39693
-2.34365
-2.38837
-2.40559
-2.39799
-2.37964
-2.35871
-2.33768
-2.31745
-2.29844
-2.28082
-2.26463
-2.2498
-2.23628
-2.224
-2.2129
-2.20291
-2.19396
-2.18597
-2.17888
-2.17263
-2.16717
7.70219
11.5989
9.93682
8.66016
7.29901
6.15038
5.46072
5.23996
5.36008
5.65595
5.98799
6.26586
6.44735
6.52487
6.51442
6.4486
6.36537
6.29797
6.27419
6.36619
6.91991
8.1083
5.36854
-2.74658
-2.69942
-2.5934
-2.58667
-2.56577
-2.53418
-2.5025
-2.47354
-2.44724
-2.42341
-2.40186
-2.38237
-2.36474
-2.34879
-2.33436
-2.32133
-2.30959
-2.29902
-2.28955
-2.28108
-2.27357
-2.26695
-3.46169
-1.70761
-1.58892
-1.37752
-1.36995
-1.40896
-1.40131
-1.32664
-1.2065
-1.07669
-0.967697
-0.896235
-0.86599
-0.872892
-0.908886
-0.963682
-1.02738
-1.09277
-1.15352
-1.19448
-1.1281
-0.807289
-0.54486
-2.95937
-3.09494
-2.8381
-2.78288
-2.73804
-2.68935
-2.64575
-2.60829
-2.57574
-2.5471
-2.5217
-2.49904
-2.47873
-2.46047
-2.44401
-2.42916
-2.41577
-2.40369
-2.39283
-2.38309
-2.3744
-2.3667
-4.18414
-4.03205
-4.12985
-4.21649
-4.28468
-4.31655
-4.32078
-4.309
-4.28836
-4.26315
-4.23598
-4.20834
-4.18084
-4.15355
-4.12619
-4.09838
-4.06992
-4.0412
-4.01414
-3.99484
-3.97933
-3.9164
-3.63723
-3.41665
-3.27968
-3.09508
-2.98557
-2.90453
-2.83832
-2.78406
-2.73914
-2.70108
-2.6682
-2.63942
-2.61395
-2.59126
-2.57093
-2.55263
-2.53614
-2.52124
-2.50779
-2.49568
-2.48478
-2.47501
-2.46632
-4.18946
-4.17957
-4.19181
-4.20519
-4.21678
-4.22214
-4.22062
-4.21359
-4.20221
-4.18726
-4.16942
-4.14916
-4.1268
-4.10247
-4.07622
-4.04805
-4.01804
-3.98625
-3.95257
-3.91696
-3.87733
-3.82301
-3.72873
-3.59845
-3.41736
-3.25388
-3.13521
-3.04426
-2.97149
-2.9122
-2.86302
-2.82138
-2.78549
-2.75414
-2.72647
-2.70183
-2.67977
-2.65993
-2.64201
-2.62582
-2.61118
-2.59795
-2.58602
-2.5753
-2.5657
-4.20233
-4.19938
-4.20806
-4.21771
-4.22833
-4.2352
-4.23589
-4.23054
-4.22005
-4.20541
-4.18749
-4.16689
-4.14393
-4.11873
-4.09129
-4.06162
-4.02964
-3.99512
-3.95714
-3.91335
-3.85991
-3.79238
-3.70702
-3.59922
-3.46739
-3.34484
-3.24311
-3.15874
-3.08828
-3.02909
-2.97887
-2.93573
-2.89824
-2.8653
-2.83612
-2.81009
-2.78672
-2.76564
-2.74659
-2.72932
-2.71368
-2.69952
-2.68671
-2.67515
-2.66478
-4.21557
-4.21676
-4.22166
-4.22811
-4.23475
-4.2385
-4.23749
-4.23139
-4.22063
-4.20594
-4.18803
-4.16735
-4.14408
-4.1183
-4.09002
-4.05921
-4.02577
-3.98939
-3.94921
-3.9033
-3.84856
-3.78201
-3.70291
-3.61241
-3.51415
-3.41892
-3.33341
-3.25837
-3.19312
-3.13651
-3.08728
-3.04423
-3.00631
-2.9727
-2.94272
-2.91582
-2.89157
-2.86962
-2.84971
-2.83163
-2.8152
-2.80027
-2.78674
-2.77449
-2.76345
-4.23167
-4.23354
-4.23671
-4.24015
-4.24288
-4.24323
-4.23999
-4.23272
-4.22154
-4.20691
-4.18923
-4.16875
-4.14553
-4.11961
-4.09105
-4.05981
-4.02578
-3.98863
-3.94773
-3.90194
-3.84957
-3.78907
-3.72015
-3.64468
-3.56561
-3.4878
-3.41505
-3.34882
-3.28938
-3.23641
-3.18931
-3.14739
-3.10996
-3.07641
-3.04623
-3.01897
-2.99424
-2.97176
-2.95129
-2.93263
-2.91562
-2.90013
-2.88604
-2.87324
-2.86168
-4.24846
-4.25072
-4.25356
-4.25597
-4.25709
-4.25588
-4.25154
-4.24372
-4.23249
-4.21812
-4.20081
-4.18065
-4.1577
-4.13202
-4.10371
-4.07274
-4.03893
-4.00199
-3.96148
-3.91675
-3.86705
-3.81184
-3.75133
-3.6868
-3.62029
-3.55455
-3.49179
-3.43325
-3.37945
-3.33046
-3.28606
-3.24591
-3.20959
-3.17669
-3.1468
-3.11958
-3.09475
-3.07205
-3.05129
-3.03229
-3.01491
-2.99903
-2.98455
-2.97137
-2.95941
-4.26736
-4.26965
-4.27233
-4.2744
-4.27491
-4.27306
-4.26831
-4.2604
-4.24939
-4.23541
-4.21853
-4.19878
-4.17627
-4.15114
-4.12349
-4.09327
-4.06035
-4.02443
-3.98524
-3.94244
-3.8958
-3.8453
-3.79136
-3.73497
-3.67753
-3.62068
-3.5658
-3.51376
-3.4651
-3.42004
-3.37858
-3.34055
-3.30574
-3.27385
-3.24462
-3.2178
-3.19317
-3.17052
-3.14971
-3.13059
-3.11305
-3.09697
-3.08226
-3.06884
-3.05662
-4.28864
-4.29079
-4.29321
-4.29487
-4.29489
-4.29264
-4.28769
-4.27987
-4.26915
-4.25554
-4.23908
-4.21982
-4.19795
-4.17363
-4.14695
-4.11787
-4.08625
-4.05191
-4.01469
-3.97446
-3.93127
-3.8853
-3.83701
-3.78717
-3.73675
-3.6868
-3.63823
-3.59168
-3.54761
-3.50627
-3.46774
-3.43199
-3.39889
-3.36828
-3.33998
-3.31381
-3.28963
-3.26727
-3.24663
-3.22759
-3.21006
-3.19395
-3.17918
-3.16566
-3.1533
-4.3124
-4.31434
-4.31645
-4.31767
-4.31726
-4.3147
-4.30965
-4.30193
-4.29143
-4.27814
-4.26212
-4.24351
-4.22247
-4.19919
-4.17371
-4.14598
-4.11592
-4.08345
-4.04851
-4.01114
-3.97148
-3.9298
-3.8865
-3.84215
-3.79744
-3.75309
-3.70974
-3.66789
-3.62788
-3.58996
-3.55426
-3.52079
-3.48951
-3.46034
-3.43315
-3.40784
-3.3843
-3.36243
-3.34214
-3.32335
-3.306
-3.29002
-3.27532
-3.26183
-3.24945
-4.33858
-4.34034
-4.34216
-4.34303
-4.34231
-4.33954
-4.33442
-4.32672
-4.31635
-4.30336
-4.28788
-4.27006
-4.25006
-4.22797
-4.20382
-4.17758
-4.14921
-4.11874
-4.08623
-4.05177
-4.01555
-3.97781
-3.9389
-3.89924
-3.85932
-3.81966
-3.78073
-3.74292
-3.70652
-3.67174
-3.6387
-3.60747
-3.57804
-3.55039
-3.52444
-3.50012
-3.47738
-3.45614
-3.43636
-3.41798
-3.40095
-3.38523
-3.37074
-3.35739
-3.34508
-4.36718
-4.36878
-4.37036
-4.37097
-4.37001
-4.36707
-4.36183
-4.35409
-4.34385
-4.33125
-4.31644
-4.29955
-4.28068
-4.25988
-4.23714
-4.21247
-4.1859
-4.15754
-4.12748
-4.09588
-4.06289
-4.02875
-3.9937
-3.95809
-3.92225
-3.88659
-3.85146
-3.81718
-3.78399
-3.75206
-3.72152
-3.69245
-3.66487
-3.63878
-3.61414
-3.59091
-3.56907
-3.54859
-3.52943
-3.51158
-3.495
-3.47966
-3.46547
-3.45236
-3.44021
-4.39824
-4.3997
-4.40107
-4.40147
-4.4003
-4.39717
-4.39179
-4.38405
-4.37406
-4.36199
-4.34799
-4.33212
-4.31441
-4.29488
-4.27358
-4.25053
-4.22582
-4.19958
-4.17196
-4.14308
-4.1131
-4.08219
-4.05055
-4.01844
-3.98614
-3.95393
-3.92212
-3.89095
-3.86063
-3.83132
-3.80313
-3.77613
-3.75036
-3.72583
-3.70252
-3.68044
-3.65958
-3.63993
-3.6215
-3.60428
-3.58825
-3.57338
-3.55959
-3.54679
-3.53487
-4.4318
-4.43313
-4.43435
-4.43455
-4.43318
-4.42988
-4.42443
-4.41686
-4.4073
-4.39591
-4.38277
-4.3679
-4.35128
-4.33298
-4.31306
-4.29163
-4.26878
-4.24465
-4.21936
-4.19305
-4.16581
-4.1378
-4.10917
-4.08013
-4.0509
-4.02172
-3.99283
-3.96445
-3.93675
-3.90986
-3.88387
-3.85884
-3.83481
-3.81181
-3.78984
-3.76892
-3.74908
-3.73033
-3.71271
-3.6962
-3.6808
-3.66647
-3.65314
-3.64073
-3.62909
-4.46782
-4.46904
-4.47011
-4.47014
-4.46861
-4.46524
-4.45993
-4.45271
-4.44372
-4.43304
-4.42072
-4.40675
-4.39115
-4.37402
-4.35546
-4.33562
-4.3146
-4.2925
-4.26943
-4.24547
-4.22072
-4.19529
-4.16933
-4.14299
-4.11649
-4.09002
-4.06377
-4.03792
-4.01262
-3.98796
-3.96402
-3.94084
-3.91847
-3.89694
-3.87628
-3.85654
-3.83775
-3.81996
-3.80319
-3.78746
-3.77274
-3.75901
-3.7462
-3.7342
-3.7229
-4.50622
-4.50733
-4.50822
-4.50809
-4.50649
-4.50321
-4.49821
-4.49149
-4.4831
-4.47309
-4.46149
-4.44835
-4.43374
-4.41777
-4.40059
-4.38232
-4.36307
-4.34289
-4.32187
-4.30007
-4.27756
-4.25445
-4.23086
-4.20697
-4.18293
-4.15891
-4.13507
-4.11155
-4.08844
-4.06584
-4.04379
-4.02234
-4.00153
-3.98141
-3.96204
-3.94347
-3.92576
-3.90895
-3.89308
-3.87816
-3.86417
-3.85107
-3.8388
-3.82727
-3.81633
-4.54699
-4.54797
-4.54869
-4.54844
-4.54685
-4.54378
-4.53916
-4.53294
-4.5251
-4.51569
-4.50476
-4.49244
-4.47884
-4.46408
-4.44829
-4.43156
-4.41398
-4.3956
-4.37646
-4.3566
-4.33612
-4.31512
-4.29371
-4.27205
-4.25026
-4.22849
-4.20686
-4.18546
-4.16436
-4.14363
-4.12332
-4.10347
-4.08414
-4.06538
-4.04727
-4.02987
-4.01325
-3.99745
-3.9825
-3.9684
-3.95515
-3.9427
-3.931
-3.91996
-3.90943
-4.59017
-4.59103
-4.59164
-4.59136
-4.58986
-4.58701
-4.58269
-4.57686
-4.56949
-4.56063
-4.5504
-4.53893
-4.52637
-4.51283
-4.4984
-4.48316
-4.46716
-4.45042
-4.43299
-4.41492
-4.39631
-4.37724
-4.35784
-4.33823
-4.31852
-4.2988
-4.27917
-4.25969
-4.24042
-4.2214
-4.20269
-4.18435
-4.16642
-4.14899
-4.13212
-4.11589
-4.10035
-4.08556
-4.07153
-4.05827
-4.04576
-4.03398
-4.02286
-4.01232
-4.00222
-4.63575
-4.63654
-4.63713
-4.63689
-4.6355
-4.63279
-4.62867
-4.62311
-4.61615
-4.60785
-4.59836
-4.5878
-4.5763
-4.56396
-4.55084
-4.53699
-4.52243
-4.5072
-4.49134
-4.47492
-4.45803
-4.44076
-4.42321
-4.40547
-4.38765
-4.36979
-4.35197
-4.33424
-4.31663
-4.29919
-4.28198
-4.26506
-4.2485
-4.23235
-4.21671
-4.20163
-4.18717
-4.17337
-4.16025
-4.14782
-4.13606
-4.12493
-4.1144
-4.10439
-4.09474
-4.68367
-4.68444
-4.68502
-4.68482
-4.68348
-4.68086
-4.67689
-4.6716
-4.66507
-4.65739
-4.64868
-4.63905
-4.6286
-4.6174
-4.6055
-4.5929
-4.57966
-4.5658
-4.55138
-4.53648
-4.52117
-4.50554
-4.48968
-4.47366
-4.45755
-4.44138
-4.42521
-4.40907
-4.393
-4.37705
-4.36126
-4.34571
-4.33046
-4.31557
-4.30113
-4.28717
-4.27377
-4.26095
-4.24873
-4.23711
-4.22608
-4.21562
-4.20569
-4.1962
-4.18702
-4.73384
-4.73457
-4.7351
-4.73487
-4.73355
-4.73101
-4.72725
-4.72232
-4.71631
-4.70929
-4.70138
-4.69265
-4.68317
-4.67301
-4.66217
-4.65071
-4.63864
-4.62603
-4.61293
-4.59941
-4.58556
-4.57144
-4.55713
-4.54267
-4.52811
-4.51349
-4.49884
-4.48418
-4.46956
-4.45501
-4.44059
-4.42636
-4.41238
-4.39872
-4.38544
-4.37258
-4.36021
-4.34834
-4.337
-4.32619
-4.31589
-4.30609
-4.29676
-4.28781
-4.27911
-4.78613
-4.78678
-4.78722
-4.78691
-4.78561
-4.78323
-4.77978
-4.77529
-4.76983
-4.76348
-4.7563
-4.74837
-4.73975
-4.73048
-4.72059
-4.71013
-4.69913
-4.68766
-4.67577
-4.66354
-4.65103
-4.63831
-4.62542
-4.6124
-4.59929
-4.5861
-4.57286
-4.5596
-4.54634
-4.53313
-4.52002
-4.50706
-4.49431
-4.48183
-4.46968
-4.4579
-4.44653
-4.4356
-4.42512
-4.4151
-4.40553
-4.39639
-4.38765
-4.37924
-4.37104
-4.84041
-4.84096
-4.84129
-4.84093
-4.83971
-4.83756
-4.83445
-4.8304
-4.82545
-4.81966
-4.81311
-4.80587
-4.79798
-4.7895
-4.78046
-4.77091
-4.76091
-4.75051
-4.73977
-4.72875
-4.71751
-4.70609
-4.69453
-4.68285
-4.67107
-4.65922
-4.6473
-4.63534
-4.62338
-4.61144
-4.59957
-4.58783
-4.57627
-4.56494
-4.55389
-4.54315
-4.53277
-4.52276
-4.51314
-4.5039
-4.49505
-4.48656
-4.47842
-4.47055
-4.46286
-4.89662
-4.89707
-4.89731
-4.89695
-4.89583
-4.89389
-4.89107
-4.88736
-4.88281
-4.87749
-4.87147
-4.86482
-4.85759
-4.84984
-4.84161
-4.83296
-4.82392
-4.81456
-4.80492
-4.79505
-4.785
-4.7748
-4.76447
-4.75403
-4.74349
-4.73287
-4.72218
-4.71145
-4.70069
-4.68996
-4.67928
-4.66871
-4.6583
-4.64808
-4.63809
-4.62838
-4.61897
-4.60987
-4.60109
-4.59264
-4.5845
-4.57666
-4.56911
-4.5618
-4.55462
-4.95476
-4.95514
-4.95531
-4.95495
-4.95391
-4.95208
-4.94943
-4.94596
-4.94172
-4.93679
-4.93124
-4.92516
-4.91858
-4.91155
-4.90413
-4.89635
-4.88825
-4.87989
-4.8713
-4.86252
-4.85357
-4.84449
-4.83529
-4.82598
-4.81657
-4.80709
-4.79753
-4.78794
-4.77832
-4.76873
-4.75919
-4.74975
-4.74044
-4.7313
-4.72237
-4.71366
-4.7052
-4.69699
-4.68905
-4.68136
-4.67393
-4.66675
-4.65979
-4.65304
-4.6464
-5.0149
-5.01522
-5.01534
-5.01494
-5.01388
-5.01208
-5.0095
-5.00619
-5.00222
-4.99767
-4.9926
-4.98708
-4.98115
-4.97485
-4.96822
-4.96128
-4.95408
-4.94665
-4.93902
-4.93122
-4.92328
-4.91521
-4.90702
-4.89874
-4.89036
-4.88191
-4.87341
-4.86488
-4.85635
-4.84784
-4.8394
-4.83104
-4.82281
-4.81472
-4.8068
-4.79907
-4.79153
-4.7842
-4.77707
-4.77014
-4.76341
-4.75687
-4.75052
-4.74434
-4.73826
-5.07707
-5.07734
-5.07738
-5.07691
-5.07578
-5.07394
-5.07143
-5.06829
-5.0646
-5.06044
-5.05585
-5.05089
-5.04559
-5.03997
-5.03406
-5.0279
-5.0215
-5.01491
-5.00814
-5.00122
-4.99416
-4.98699
-4.97972
-4.97236
-4.96493
-4.95745
-4.94994
-4.94242
-4.93491
-4.92744
-4.92004
-4.91273
-4.90552
-4.89844
-4.89149
-4.8847
-4.87805
-4.87156
-4.86523
-4.85904
-4.853
-4.84712
-4.84138
-4.83579
-4.83028
-5.14124
-5.14145
-5.14141
-5.14085
-5.13966
-5.13783
-5.13542
-5.13249
-5.12911
-5.12534
-5.12122
-5.11677
-5.11202
-5.107
-5.10173
-5.09624
-5.09055
-5.08468
-5.07867
-5.07252
-5.06626
-5.05991
-5.05348
-5.04698
-5.04044
-5.03387
-5.02729
-5.02073
-5.0142
-5.00772
-5.0013
-4.99497
-4.98874
-4.9826
-4.97658
-4.97066
-4.96487
-4.95918
-4.9536
-4.94814
-4.94279
-4.93756
-4.93246
-4.92747
-4.92256
-5.2073
-5.20745
-5.20736
-5.20675
-5.20557
-5.20383
-5.20159
-5.19892
-5.19585
-5.19244
-5.18872
-5.1847
-5.18043
-5.17592
-5.17119
-5.16628
-5.1612
-5.15599
-5.15065
-5.14521
-5.13968
-5.13409
-5.12845
-5.12277
-5.11707
-5.11137
-5.10568
-5.10003
-5.09441
-5.08886
-5.08337
-5.07795
-5.07261
-5.06735
-5.06218
-5.05709
-5.05208
-5.04715
-5.0423
-5.03755
-5.03288
-5.02831
-5.02385
-5.01948
-5.01519
-5.27515
-5.27528
-5.27516
-5.27459
-5.2735
-5.27193
-5.2699
-5.26748
-5.2647
-5.26159
-5.2582
-5.25456
-5.25068
-5.24661
-5.24236
-5.23797
-5.23346
-5.22884
-5.22415
-5.21938
-5.21456
-5.2097
-5.20482
-5.19992
-5.19503
-5.19016
-5.18531
-5.1805
-5.17574
-5.17104
-5.16639
-5.16181
-5.15728
-5.15282
-5.14842
-5.14408
-5.1398
-5.13559
-5.13144
-5.12737
-5.12338
-5.11947
-5.11565
-5.11192
-5.10826
-5.34473
-5.34486
-5.34478
-5.3443
-5.34337
-5.34197
-5.34015
-5.33795
-5.3354
-5.33256
-5.32945
-5.32613
-5.32262
-5.31897
-5.31518
-5.3113
-5.30734
-5.30332
-5.29925
-5.29515
-5.29102
-5.28688
-5.28273
-5.27859
-5.27447
-5.27037
-5.26631
-5.26228
-5.2583
-5.25436
-5.25048
-5.24664
-5.24285
-5.23911
-5.23542
-5.23177
-5.22817
-5.22463
-5.22114
-5.21773
-5.2144
-5.21115
-5.20798
-5.20489
-5.20186
-5.41587
-5.41607
-5.4161
-5.41575
-5.41494
-5.41368
-5.41202
-5.40999
-5.40765
-5.40504
-5.40222
-5.39924
-5.39612
-5.39289
-5.3896
-5.38625
-5.38286
-5.37944
-5.37601
-5.37256
-5.36911
-5.36567
-5.36223
-5.35881
-5.35541
-5.35204
-5.3487
-5.34539
-5.34212
-5.33888
-5.33569
-5.33253
-5.32941
-5.32632
-5.32327
-5.32026
-5.31729
-5.31437
-5.31152
-5.30874
-5.30606
-5.30345
-5.30093
-5.29847
-5.29605
-5.48832
-5.48864
-5.48879
-5.48854
-5.4878
-5.4866
-5.48504
-5.48318
-5.48105
-5.47873
-5.47625
-5.47366
-5.47098
-5.46826
-5.46549
-5.46271
-5.45992
-5.45713
-5.45433
-5.45155
-5.44877
-5.446
-5.44325
-5.44051
-5.43779
-5.4351
-5.43242
-5.42978
-5.42716
-5.42458
-5.42202
-5.41949
-5.41698
-5.41451
-5.41206
-5.40964
-5.40726
-5.40492
-5.40265
-5.40049
-5.39843
-5.39647
-5.39457
-5.39273
-5.39092
-5.56265
-5.56275
-5.56286
-5.56253
-5.56172
-5.56053
-5.55907
-5.55739
-5.55555
-5.55359
-5.55153
-5.54941
-5.54726
-5.54509
-5.54291
-5.54073
-5.53856
-5.5364
-5.53424
-5.5321
-5.52997
-5.52785
-5.52575
-5.52365
-5.52158
-5.51951
-5.51747
-5.51545
-5.51344
-5.51146
-5.5095
-5.50757
-5.50565
-5.50375
-5.50187
-5.50001
-5.49817
-5.49634
-5.49457
-5.49297
-5.49157
-5.49026
-5.48898
-5.48774
-5.48652
-5.63745
-5.64097
-5.64004
-5.63837
-5.63713
-5.63595
-5.63464
-5.63323
-5.63175
-5.63022
-5.62865
-5.62708
-5.6255
-5.62392
-5.62234
-5.62077
-5.61921
-5.61766
-5.61611
-5.61457
-5.61305
-5.61153
-5.61001
-5.60851
-5.60701
-5.60553
-5.60406
-5.6026
-5.60116
-5.59974
-5.59833
-5.59694
-5.59557
-5.5942
-5.59285
-5.59149
-5.59011
-5.58861
-5.58701
-5.58588
-5.58534
-5.58481
-5.58422
-5.58359
-5.58296
-5.69772
-5.72583
-5.71506
-5.70874
-5.7064
-5.70505
-5.70394
-5.70299
-5.70212
-5.7013
-5.70052
-5.69975
-5.699
-5.69825
-5.69752
-5.69678
-5.69606
-5.69533
-5.69461
-5.69389
-5.69318
-5.69247
-5.69177
-5.69107
-5.69037
-5.68969
-5.68901
-5.68835
-5.68769
-5.68705
-5.68641
-5.68579
-5.68516
-5.68454
-5.6839
-5.68322
-5.68241
-5.68127
-5.67963
-5.67934
-5.67994
-5.68026
-5.68034
-5.68032
-5.68023
)
;

boundaryField
{
    leftWall
    {
        type            calculated;
        value           nonuniform List<scalar> 
42
(
65.4876
51.285
36.1698
19.3438
8.07611
7.70219
-3.46169
-4.18414
-4.18946
-4.20233
-4.21557
-4.23167
-4.24846
-4.26736
-4.28864
-4.3124
-4.33858
-4.36718
-4.39824
-4.4318
-4.46782
-4.50622
-4.54699
-4.59017
-4.63575
-4.68367
-4.73384
-4.78613
-4.84041
-4.89662
-4.95476
-5.0149
-5.07707
-5.14124
-5.2073
-5.27515
-5.34473
-5.41587
-5.48832
-5.56265
-5.63745
-5.69772
)
;
    }
    rightWall
    {
        type            calculated;
        value           nonuniform List<scalar> 0();
    }
    lowerWall
    {
        type            calculated;
        value           nonuniform List<scalar> 0();
    }
    atmosphere
    {
        type            calculated;
        value           nonuniform List<scalar> 
45
(
-5.73234
-5.73486
-5.73385
-5.73327
-5.73285
-5.73253
-5.73228
-5.73206
-5.73188
-5.73172
-5.73156
-5.73142
-5.73128
-5.73114
-5.731
-5.73086
-5.73072
-5.73059
-5.73045
-5.73032
-5.7302
-5.73008
-5.72996
-5.72985
-5.72975
-5.72965
-5.72956
-5.72947
-5.7294
-5.72933
-5.72927
-5.72921
-5.72917
-5.72913
-5.7291
-5.72907
-5.72906
-5.72905
-5.72904
-5.72904
-5.72904
-5.72904
-5.72904
-5.72904
-5.72904
)
;
    }
    defaultFaces
    {
        type            empty;
    }
    procBoundary2to0
    {
        type            processor;
        value           nonuniform List<scalar> 
46
(
23.2242
15.3745
4.86185
-0.89044
-1.50694
-1.54215
-1.54698
-1.55255
-1.55818
-1.5613
-1.56281
-1.5635
-1.56367
-1.56346
-1.56304
-1.5626
-1.56233
-1.56232
-1.56261
-1.56327
-1.56434
-1.56585
-1.56779
-1.56996
-1.57216
79.9902
80.1777
80.3737
80.3794
80.0551
79.3013
78.0633
76.3223
74.0879
71.3925
68.2808
64.7911
60.9441
56.7509
52.2305
47.4093
42.3066
36.9345
31.3245
25.5491
25.5491
)
;
    }
    procBoundary2to3
    {
        type            processor;
        value           nonuniform List<scalar> 
43
(
-1.67186
-1.76957
-1.8674
-1.96547
-2.06385
-2.16245
-2.26116
-2.35991
-2.45861
-2.55716
-2.6555
-2.75355
-2.85126
-2.94859
-3.0455
-3.14199
-3.23805
-3.33367
-3.42887
-3.52367
-3.61808
-3.71213
-3.80585
-3.89926
-3.9924
-4.0853
-4.17799
-4.2705
-4.36288
-4.45518
-4.54745
-4.63975
-4.73217
-4.82478
-4.91767
-5.01093
-5.10463
-5.19885
-5.29366
-5.38911
-5.48529
-5.5823
-5.6801
)
;
    }
}


// ************************************************************************* //
