/*--------------------------------*- C++ -*----------------------------------*\
  =========                 |
  \\      /  F ield         | OpenFOAM: The Open Source CFD Toolbox
   \\    /   O peration     | Website:  https://openfoam.org
    \\  /    A nd           | Version:  9
     \\/     M anipulation  |
\*---------------------------------------------------------------------------*/
FoamFile
{
    format      ascii;
    class       volScalarField;
    location    "30";
    object      p;
}
// * * * * * * * * * * * * * * * * * * * * * * * * * * * * * * * * * * * * * //

dimensions      [0 2 -2 0 0 0 0];

internalField   nonuniform List<scalar> 
112055
(
0.0185022
0.00421516
-0.00499324
-0.00702174
0.00153849
0.00748858
0.0178998
-0.00685745
-0.00219625
0.0180134
0.00424881
0.0170085
-0.00196621
0.017004
0.0279081
-0.000116012
-0.0646422
0.0217598
0.00421981
-0.00286948
-4.92731e-05
0.000140572
0.00423665
-0.000757989
0.000557707
-0.0002982
0.0403427
0.00573866
0.00744827
-4.30932e-05
0.00858018
-0.016671
-0.000399428
-0.0547042
-0.00222189
-0.000282949
-0.00293086
0.0631725
-0.0109766
-1.53369e-05
-0.000585434
-0.0100678
2.27229e-05
-0.00490032
0.0222984
-0.0016979
-0.0544586
0.000856692
0.000493415
-0.00986043
-0.00670108
-0.0191233
5.27236e-05
-0.0107304
-0.00318338
0.0180269
0.000480965
0.00116395
-0.0124918
-0.00172044
0.0146576
0.000853732
-3.07416e-06
-3.82129e-06
0.0113042
-0.00267009
0.0656793
3.21328e-05
0.00242206
-0.000821549
0.00112529
-0.0648272
-0.000643399
0.0369561
-0.0415409
-0.0412746
0.00405748
0.0183564
-0.0155182
-0.0104472
0.000159583
-0.0447238
-0.00655631
-0.00036054
-0.000111397
0.00180699
-0.0056718
-0.00314855
-0.0172782
-0.00310597
-3.84766e-05
-0.000290791
-0.00601427
0.00147097
-0.0409196
0.00402041
-0.0137823
0.027565
0.00857639
0.000487922
-0.0019458
-0.000243286
-0.000320054
0.00509843
-0.0444741
-0.0637641
0.0112899
1.62161e-05
-0.000140764
0.00178929
-0.0646428
-0.0336139
-0.00273958
0.00628356
0.00243649
0.020984
0.0112831
-0.000245794
-0.0165234
-0.00228494
0.00603824
0.00575019
0.0179622
3.27359e-05
-0.00058063
0.0050156
-0.0621898
0.000105445
-0.00301487
-0.0436477
3.20853e-05
0.0400516
3.13898e-05
0.0522943
-0.01126
-1.60654e-05
-0.000327768
0.0017905
-0.0043686
0.00508984
0.00170985
0.00553627
-0.0130227
0.00980543
1.69868e-05
-0.00343095
0.0198606
2.48638e-05
-0.00025097
0.000296311
-0.0645249
0.000127283
0.0156756
4.11195e-05
-0.00434171
0.00648617
0.00935181
0.006368
-0.0117759
-0.00455407
-0.00271738
8.67347e-06
-0.00183735
-0.00295304
-0.000801887
-0.000491453
0.00945485
-0.0170124
-0.000849136
0.0113461
0.00811756
0.00645972
-0.00184845
0.0096278
-0.0154669
-0.00231397
0.000476638
-0.00292262
-0.00505378
0.000500325
-0.0152544
-0.000171759
1.906e-05
0.00860802
-0.0128509
0.0154086
8.89677e-06
-0.000823896
-0.0134727
-0.0013878
0.00181613
-0.00038908
-0.0030602
0.00606164
-0.00415782
-3.2475e-06
-0.0117111
-0.033846
0.000156434
0.00931507
0.0623103
0.0127149
0.0147571
1.30099e-05
0.000167001
0.0207304
0.065489
0.0100187
-0.0641265
-0.000327405
0.000669155
-0.000532989
0.0194651
-0.000330782
-0.0134662
0.0101449
0.00821901
-0.00641865
-0.00156271
-0.00746182
-5.96235e-06
-0.022705
-0.00264862
-0.00477367
-0.0346429
-0.000864129
-0.000229382
0.00910617
0.00358497
-0.000454659
-0.000275843
-0.00159246
-0.0127237
0.00484884
-0.0263064
0.000752089
-3.65238e-06
-0.00028347
-0.0717335
0.0985322
1.26564e-05
-0.011266
-0.0014379
1.3497e-05
-0.0010475
-0.0261988
-0.0101992
-0.0100764
7.21778e-05
-0.00727065
-0.00173971
-0.000187075
-0.0490485
-0.00172536
-0.0114167
0.000313911
0.00178345
-0.00306112
-0.0357026
-0.00032479
-0.0349323
0.0207444
-0.000544985
0.0157935
0.0526171
-0.00130743
0.000169263
-0.00287242
0.01308
3.30622e-05
-0.00173893
-0.00285229
0.00015541
-0.0181016
-0.0011825
0.00541736
-0.0405747
-0.0675147
-0.0665665
-0.0485328
-0.000135783
0.00443587
0.0121595
0.00778467
0.00556177
-0.00522519
0.00531836
-0.000438608
9.77105e-05
0.0133654
-0.000683972
-1.73366e-05
0.00533959
-0.00128492
0.00488326
0.0055409
0.0103607
-0.00230881
-0.00082075
-3.43804e-05
0.00467849
0.00861583
0.00895653
0.00513476
-0.00811739
3.06847e-05
3.08759e-05
-0.00321077
-0.00115071
-5.7038e-06
-0.00289592
0.00271476
-0.000280538
0.000354433
-0.0124567
-0.0232927
-0.0082423
0.00073587
-0.00120047
-0.000809426
-0.00105414
0.0533662
0.0293436
-0.00227897
-0.00981065
-0.00639121
0.00531268
8.34265e-05
0.00448539
-0.000321687
0.00356892
0.000261876
0.0111136
-0.00596196
-0.00774954
3.39472e-05
-0.000442554
0.00142764
0.00281313
-0.0230243
0.0622888
-0.0616676
0.00051821
-2.80673e-06
1.78794e-05
-0.0102436
2.45489e-05
-0.0110351
0.0112669
0.000153043
0.0255744
0.0144427
0.0163868
-0.0532726
-0.00320645
-0.00321965
0.0366912
0.000533425
-0.000372546
0.0168727
-0.0449403
-0.000374742
-0.00761362
0.107698
6.94168e-05
-0.0716331
-0.0241142
-0.00672951
0.00458298
-0.00252066
0.022173
0.022614
0.0102066
0.0155164
0.140371
-6.67904e-06
-6.75591e-06
-0.00486213
-0.00490455
-0.000590697
-0.000287716
0.00748788
0.0168866
9.86037e-05
-0.00333503
-6.01075e-06
-5.44881e-06
-0.00614056
0.0119726
0.0220502
0.00271281
0.000537594
0.000586839
-0.0244043
0.0365886
-0.000741871
0.00177782
-0.00909642
-0.00828041
0.000633636
0.0200402
0.00342731
-0.0199
0.0161693
0.000107715
-0.0339009
-0.00803443
-0.00086565
-0.0016511
0.0032551
-0.00592453
-1.77608e-07
-0.00113919
2.00392e-07
2.79755e-05
-0.00964293
0.00643782
-0.0122197
-0.00161962
0.00647331
0.0298071
-0.00266931
0.001099
0.00668638
0.00530923
-0.00849129
0.00987156
1.18379e-05
-0.00835137
-0.00823002
-0.00112233
0.0100657
-0.00373387
-0.0147392
-0.0117213
0.0252469
-5.47614e-05
-0.011182
0.0978484
0.0248073
-0.00828855
0.00135878
0.0064692
0.00156018
0.00392817
-1.77526e-06
0.0362255
0.0244362
0.000268268
-0.00881459
0.00483866
0.00597864
-0.00266636
0.00773312
-0.0062916
-0.0665422
9.34189e-06
1.12761e-05
0.00884709
-3.95881e-06
-0.00147925
-0.00324232
-1.58357e-05
0.0023877
-0.0109123
9.8002e-06
-5.11185e-05
0.0161691
0.00532435
0.000315707
0.00751855
-0.000518621
-0.0036903
-0.00954019
0.00743362
-0.00647521
-0.00128347
-6.0581e-06
-0.00197414
0.000380763
-0.0535509
-0.075711
9.93191e-05
-0.0158737
-0.000763685
-0.0344082
0.012926
1.78766e-05
-0.00140271
-0.00126135
-4.98221e-06
-0.0394304
-0.00819229
1.00499e-05
0.00964468
-0.00298992
0.00722824
3.73321e-05
-0.00126141
6.44019e-05
0.000354704
6.41395e-05
-0.00297053
0.0102845
6.64575e-06
0.00535123
-0.00105821
-0.0506908
-1.28645e-05
-5.01154e-05
-0.00650125
0.0221041
-0.00586145
0.0032036
0.0658494
-3.32468e-06
2.36852e-06
-3.96831e-06
0.00126125
-0.00895069
0.00788082
0.000731144
-0.000430219
-0.00279866
0.00324273
-0.00390708
6.37738e-06
0.0661989
-0.00199046
-6.16794e-06
0.00602954
-0.00486355
-0.063764
0.0521963
-9.36178e-05
0.0134971
-0.00775193
-0.0824977
-0.00317658
4.89537e-05
-5.41071e-05
4.34716e-05
-0.0801735
0.0256024
-0.0109898
-0.00769914
-0.0113295
0.00327887
0.0064081
-0.000472505
0.0256658
0.00566569
0.00924985
-0.0255914
0.0072358
1.42571e-07
-0.0188977
-0.00104543
1.04866e-05
-0.011515
-0.0488665
-0.000547732
7.94988e-05
0.000406068
0.10554
-0.00279681
-0.00467449
-0.0676577
-0.00076406
-0.0662926
-0.00226367
0.0076229
-0.000260477
-0.0462496
1.21249e-05
0.00445687
0.00601696
-0.00990272
0.0095353
-0.0317682
-0.00164186
-1.57211e-06
0.012613
0.00499819
0.00871248
5.37047e-06
0.00755698
0.00305018
0.00624414
1.39284e-05
0.0059601
0.00052262
-6.50424e-06
0.000505076
-0.000506042
0.00665177
0.00355444
-0.00176244
0.00564788
-0.00413008
8.68115e-06
-0.0102149
0.00230805
0.00545133
-0.00168609
0.00322894
-0.00250536
0.00822434
0.0112074
-2.19787e-05
-0.00312994
0.011106
0.000450646
-0.00480541
0.0506015
0.00569191
6.27843e-06
-0.000329601
-0.0101909
0.00395142
-0.0280863
0.00903495
0.00515482
0.000485907
0.00539311
-0.0498356
-0.00242822
-0.00760254
-0.00243822
-0.00657877
-0.00288062
-0.06448
0.000231099
-0.0625286
0.00198271
-9.67628e-05
-7.73118e-05
0.00201006
0.000145939
0.00501725
-0.000236639
0.000133723
-0.00259084
-0.00466203
0.00129298
0.0237049
0.074929
0.00803867
-0.048846
-0.00486424
-0.0754116
-0.00208001
-2.55616e-06
0.0192386
-2.80925e-06
8.00439e-05
0.0100788
0.0145363
-0.00499171
-0.0110564
0.00981864
0.00813077
1.03694e-05
0.0178317
-8.51399e-07
-0.00210194
-0.0287171
-0.0457196
-2.33103e-05
0.00568948
-0.0100878
-0.025084
-0.00693701
0.0174062
-0.00145
4.06855e-05
0.00542894
0.0189983
0.0785711
-7.28011e-05
-2.00683e-05
-0.00222209
-0.000984261
-0.0400755
-0.00288914
0.012742
-0.00528916
7.0178e-06
-0.0507657
-0.00569505
3.62004e-05
0.00740538
0.00438047
0.00747943
0.023584
0.0179733
0.0216819
0.012814
6.59874e-05
0.00517321
-0.00314955
9.60482e-05
0.00756803
8.41956e-05
-0.00209895
0.004007
-0.00260031
-0.00046396
0.130437
3.63522e-05
0.00858114
-0.0022923
-0.000997334
-0.00676911
0.000540304
0.00135745
0.012711
0.000117049
0.00463137
-0.000821021
-0.00314657
-0.00276653
-0.000551968
-0.0138319
-9.08969e-06
0.00985834
0.0124968
0.0146896
0.000541997
0.00419262
-0.00122471
0.0147063
-0.0641617
-0.00262722
0.00646646
-0.000239839
0.0490736
-0.00548732
-0.000948655
0.00100386
-0.0128723
2.86025e-05
-0.00338978
0.00729954
-0.070413
0.0010255
-0.0118109
0.0109812
0.00392511
0.00535512
-1.98277e-05
-0.000666119
-1.48193e-05
-0.0103427
-0.000351676
0.0108126
0.00641426
-2.516e-05
0.0163671
9.86448e-05
-1.52102e-05
-0.0036293
-0.0106723
-0.0306708
0.0386975
0.0647943
0.00630987
-0.00188947
-3.06134e-05
1.09073e-06
-0.00065504
-0.00540135
0.000626082
-0.000135632
-0.000136141
0.00539547
-0.0656091
-0.00157311
-8.87575e-06
0.0142555
-0.0128555
0.0173457
4.96503e-06
-0.00179113
-0.0766229
1.34367e-05
-1.7469e-05
-0.000214123
-0.00276831
-0.0125528
-0.0015669
-0.00302896
-0.000307789
-0.0378921
-0.00336619
0.0010518
-0.0433548
-0.00288705
0.00472395
-1.765e-05
-0.00279517
0.0145224
-0.00271921
-0.00656625
-0.105392
-3.2988e-05
-0.00952966
-0.00300928
0.000506491
-8.6996e-05
-0.0265143
-0.00121541
-0.00783886
0.0129517
-0.00319791
-0.0147942
0.000247373
0.00825003
-0.000119747
-0.00331873
-0.00275617
0.00655016
0.0001268
0.00835681
-0.00128079
-0.0134604
0.015509
-0.00804851
-0.0135521
-5.31981e-06
-0.000117541
0.014869
0.0176806
-0.00128626
0.129379
0.00509183
4.98479e-05
0.00553324
0.0108113
-0.00802478
-0.00129685
0.139174
0.0140054
-0.00276085
-0.000316626
-0.000146764
-0.042546
-0.00301377
0.00820133
-0.000100607
-0.00302093
0.0005336
0.038569
-0.000100273
-0.0147407
2.57556e-05
0.0179032
8.884e-05
0.0077683
3.79668e-05
0.0786742
-6.57764e-06
-0.00232777
-0.0371468
-0.00207703
5.17908e-05
0.00552386
0.00834391
-0.0395734
-0.00139099
0.000666875
0.00705906
0.0143821
-0.0724825
-0.0220762
0.00539785
0.00771843
0.000782765
-0.0167736
0.0046149
-0.000819988
-0.000217451
-5.36539e-06
-0.00122567
1.19816e-06
-0.00237712
0.000533471
0.0126361
-1.31479e-05
0.00371801
0.00434078
0.00535731
-0.00278315
-0.0149469
-0.0429937
1.35591e-05
-0.005378
0.085753
0.000768822
-0.0659078
-0.0049195
0.00387943
-0.00997193
-1.95678e-05
-0.0125841
-0.0422022
4.30484e-05
0.00437146
-0.00542006
0.00421336
0.0173934
-0.00317558
0.0022625
0.00366237
-0.0656444
0.0118705
-0.000819041
-0.00348801
1.951e-05
-0.000697586
-0.000226988
-7.21573e-06
-0.000787619
-0.00375482
0.00101446
0.00482679
-1.40309e-06
0.00856923
2.94507e-05
1.66008e-07
1.41608e-05
0.00118898
-0.00209842
-9.2105e-06
-0.00624521
3.93891e-05
-0.0088478
-0.00068555
0.00853709
-7.91131e-05
0.0135446
0.00994355
-7.15723e-05
0.00246998
-0.0341255
-7.09049e-05
-0.000316344
0.00102767
-0.0132552
0.0184144
-0.0539539
0.00598707
-0.000135976
0.0020364
-0.00591421
0.0211171
-0.000296647
-0.00262997
0.0004243
-0.0331461
-0.000109392
-0.00243791
-0.00403174
-0.00149004
-0.00406909
-0.00187305
-0.0405347
-7.37718e-05
-0.0825427
-8.79722e-05
0.00720416
-0.00561497
0.0053027
-0.012401
-0.00829769
-0.0026647
-0.0385276
0.0344271
-0.00287663
0.0175873
0.00334374
-1.253e-05
-0.000497069
-0.0174716
0.0087695
0.00442598
-0.000150309
-0.0157885
0.0025779
-0.00032802
0.000198874
0.0169848
-0.000485995
-0.00665388
0.00905875
0.0058299
-0.00224785
0.011065
-0.00189206
0.00866502
-0.00290073
-0.00310751
-0.00669829
-0.00397623
-0.00526088
0.040011
-0.00469776
0.00487362
0.00270449
-0.00177008
-0.0617933
0.00119297
-2.86483e-07
-0.000924242
-0.0262388
0.00445945
0.00682156
0.0084512
-0.00105387
0.00580315
0.00418938
-0.0464725
0.000494494
0.000249382
-0.00473656
0.00596751
-0.000397222
0.00421064
-6.42266e-05
9.01464e-06
0.0220454
-0.00415328
-0.00533628
-0.00266089
-7.1693e-05
0.0643278
0.00510939
0.00144694
-0.00234646
0.00282046
0.00593186
0.0153354
-8.11064e-05
-0.0459846
0.00705902
-0.0029003
2.63768e-05
0.00543695
4.80772e-05
-0.0475704
2.25003e-05
-0.0198779
-1.00706e-05
-7.70951e-05
0.00566794
-0.0180248
-9.21531e-06
0.00011234
4.72856e-05
-0.00141626
0.00408746
0.0223115
-0.00387647
0.0766021
-0.0306815
-0.00654164
-0.00894051
-0.0420765
-8.83498e-05
0.0154423
0.00865173
0.0102624
-0.0196689
3.1983e-07
-0.0761203
-0.00143264
-0.00512854
-0.0602401
-0.00267795
0.00907785
-0.00146081
7.44917e-06
-4.2571e-06
0.00441666
-0.0057362
-0.00238422
-0.00151992
8.85679e-06
-0.00269354
0.000292773
-0.0154172
-0.00658172
-0.0027881
1.50892e-05
6.89885e-06
-9.48099e-05
0.000101642
0.0493557
-2.06656e-06
0.00881696
-0.0319083
0.000499109
0.00529764
-5.18109e-06
-0.000860779
0.00196843
-0.011108
-0.001681
-8.65336e-05
-9.11532e-05
-0.018534
-0.00949222
-1.0126e-05
-0.000117097
1.18043e-06
0.000483698
0.0196872
0.00418128
-0.000137178
-0.000726059
0.00525895
-0.00212005
0.0719519
-0.00302328
-0.00290977
0.111694
0.00446422
-0.0583578
0.0101282
0.000850335
0.00595584
-0.00331986
0.00240294
0.0134923
0.0274844
-0.0227998
-0.000141146
0.079417
0.000218095
-0.0365749
-0.0435472
-0.00620942
-0.00288531
-0.0142565
0.00024821
0.000222938
-0.00182154
-0.000320429
1.40632e-05
0.015355
3.10242e-06
0.00907744
0.000166326
-0.00440673
-0.0219587
-0.0046414
0.00127916
-3.77351e-05
0.0147264
-0.00913672
-0.00255223
0.0155356
0.00691213
-0.000912005
-0.00010068
-3.55648e-05
-0.0146995
-0.00666048
0.00796245
0.0061252
0.0239644
-3.49912e-05
0.00348923
-0.00298575
-0.00270721
-0.0156372
1.24764e-06
0.0293748
0.00458977
-0.00238902
0.0347238
-0.000265941
-0.0796589
0.0176872
-1.38805e-05
0.00496507
0.000451687
0.110218
-0.00107888
-0.0658376
-2.4507e-05
0.000128769
-0.000802617
-0.000133041
-0.00442602
2.43864e-05
-0.00958065
-0.0425911
-0.0177917
-0.00683969
-2.71081e-05
-0.0327226
-0.044033
-0.0663275
-0.000329258
0.0901495
-0.0684885
-0.00276287
0.00482464
0.00436796
1.11664e-05
3.02778e-05
-0.00164222
-0.000253833
-0.00067403
-0.00014578
0.00910214
-0.040983
-0.00410744
0.000158493
-0.0486289
-0.0417263
0.00790158
0.000354297
-0.00128763
-0.00330919
0.00580582
-0.00275355
0.00525931
0.0115484
-0.0130392
0.0562924
0.00045974
0.0297588
-0.0241971
-0.00133623
0.00658387
-7.94802e-05
-9.62524e-06
0.0132908
-0.0129223
-0.00279951
0.0140667
-0.000871816
-2.66814e-05
-0.00445731
-0.0042636
-0.0662277
-0.0111947
0.00924982
-0.000395714
-0.00614873
0.00137801
0.0735294
-0.0465908
0.00858035
-0.00131801
0.00133955
0.0415764
-0.00112878
-0.0032388
-2.89968e-05
0.00392121
-0.00446046
-0.00231589
0.00661066
-0.0164627
-0.000978579
-0.00251319
6.28224e-06
2.45998e-05
0.00755235
-0.0018347
0.000476992
0.00656951
0.00341653
-0.0149727
-0.00586142
0.00558173
0.0644576
0.0156883
-0.000397105
-0.00260085
0.00277154
0.0092458
-0.00207126
0.000594033
0.0121311
-2.99729e-05
0.0557647
-0.0598765
5.78754e-07
-0.00536964
0.00727441
-0.00397107
-0.035013
-0.00665977
-0.001151
0.00173666
-0.0588171
0.00856213
-0.00210428
0.090584
-0.000315974
-0.00246379
0.00717754
0.0049673
0.00576143
-0.00047026
-0.00309047
0.00987578
-0.000665526
-0.0381232
-0.0584142
-0.0168147
-0.00175053
-0.00463681
-0.00214578
-0.00115995
-0.000794882
-0.00419881
-0.00206194
-0.00355383
0.00926348
0.0153887
-0.00663458
-0.0127747
-0.00218142
7.77603e-05
0.00341105
-0.000182409
0.000316994
3.84744e-05
-0.00520151
-0.0412009
0.00695376
-0.0576844
0.00112969
3.83328e-05
0.0107081
-2.95016e-05
-0.0228729
-0.000554226
0.00804812
-0.000261188
0.0014281
-0.00659693
3.42993e-06
0.0561348
0.000142884
-0.010652
-6.39272e-05
7.53584e-05
-0.00516491
-0.00764526
0.00673658
0.00337346
0.0464843
0.00134789
0.00957709
-0.00291186
-0.0133286
-0.00658012
-0.00257984
-1.52664e-05
8.96289e-05
-0.0130449
7.08703e-07
-0.0014267
0.00913111
-0.0184209
-0.0665422
1.64362e-05
2.33264e-05
0.00246779
0.00731395
0.00267193
0.0233891
-0.0024292
-8.86338e-07
-0.00745349
0.00500268
0.00319821
0.0073592
-0.0243555
-0.0216752
-0.00274239
-0.064747
-0.00256038
0.0105505
5.6413e-05
-1.81525e-06
-4.9864e-06
0.00720234
0.0236474
1.5753e-05
-0.0439405
0.0592785
0.000722267
-0.019286
8.77233e-05
0.00872366
-0.0440718
-0.0299479
-0.00577975
-0.00821325
-0.0123293
0.00611326
0.00398095
-0.0645648
-0.00529968
0.0249672
0.00995479
-1.83057e-05
0.0126047
-0.0153408
-0.00194705
0.00493505
-0.00661451
0.00209558
-0.00245802
-0.000239623
-0.00308759
-0.0316926
-0.000660829
-0.0645322
-0.0598829
0.000132565
4.51624e-05
-0.0225424
0.011379
-0.00201672
-0.00220638
-0.0368302
0.0135903
4.3832e-05
0.00322094
0.0838758
0.00456263
-0.0185354
-0.0132424
0.00889166
-0.00094807
-0.0676932
-0.00298181
0.00235822
-0.0836261
0.109649
0.00220177
0.00729333
-0.020536
-0.00219954
0.00906923
0.000243622
-0.00319765
-0.0026025
1.88139e-05
0.0151527
0.0982396
0.00736689
-0.00219892
-0.000778586
-0.00135991
-0.00201032
-0.00160859
0.0456664
-1.15628e-07
0.0487895
-0.000214725
-0.00228231
-0.0421581
-0.00386996
-0.00807101
0.000280613
-0.00336955
-0.000145188
0.00900304
-0.000139084
-2.157e-05
0.000918035
-8.58268e-05
0.0447715
0.00394303
0.0148927
-0.0483784
-2.22337e-05
0.00701711
-0.072718
0.00226288
0.00822236
1.37462e-05
0.0218446
0.0336423
-0.0511925
-0.00767308
-0.00251455
-0.00295246
-0.0100367
-0.000524212
-0.00506472
0.0101652
-0.00378666
-0.00587145
0.0357772
-0.00494416
-0.00277122
0.0133789
-0.105649
0.00402786
-0.00112369
0.00778274
-0.000206955
0.00693377
-0.0010586
-0.000157892
0.00683455
-0.000965437
-0.00262829
0.010898
0.000680194
-0.00277392
-0.00206479
0.00044021
0.00477367
0.00613496
9.02806e-05
-0.00896837
-0.00371435
-0.0182995
-0.0009566
0.00211579
3.03712e-06
-0.000207945
0.124868
0.000206758
0.00546904
-0.00517237
-0.0634807
0.00475274
-6.88101e-05
0.000449152
0.00856668
8.38994e-05
0.0158279
-0.063611
0.000693015
0.00958878
0.0479258
-2.72841e-06
0.0103855
-0.000334517
0.00555313
-0.000359765
-0.0161156
0.0054195
-1.7857e-05
-0.0159722
0.00747929
0.0060861
0.0124101
-6.70504e-05
-0.00160916
-0.000258977
-0.000226111
0.00839554
-0.000661232
-8.95607e-05
-0.013905
-0.000144964
0.000191202
-0.000147204
-0.0504988
-8.65268e-05
0.00562464
0.00762249
-0.0126084
0.00849084
0.0046561
0.00512253
-0.0108622
8.84247e-05
3.5216e-07
0.00609982
-0.00152302
-0.00622584
-0.000477636
-0.0670517
0.00269332
0.00859822
0.0174515
-0.00643076
-0.00592187
-0.00619896
-0.00235215
0.00289131
0.00733111
0.00831922
7.95772e-06
0.0309246
0.00678173
0.000674816
-0.000838448
0.0224265
-0.00100014
0.00787574
-0.000125869
0.000252348
-0.0192309
-0.0481032
-0.00229583
0.00560709
0.027305
0.06479
0.010423
0.00388759
-0.0236675
-0.00294275
-5.09091e-06
-0.00334106
0.000102615
-3.20753e-05
-4.74299e-05
0.00818659
-0.000100893
0.00178858
0.000562649
-0.000664577
-3.43739e-06
-0.0658984
-0.0627905
0.00013487
-2.82646e-05
-0.0291416
-0.000516301
0.0160758
-0.00425834
0.0133532
0.00595025
-0.000760928
-0.00974773
0.00342132
-0.000110795
-0.000503354
-0.00193086
7.87192e-06
-0.00445652
0.00743106
0.0126277
-0.0646869
-0.00627327
0.000193721
8.35002e-05
-0.000111972
-8.89684e-05
-1.37365e-05
-0.000695667
-0.0456687
-0.026577
4.78058e-06
8.7102e-06
-0.0219431
0.000113124
0.00446753
-0.00365004
-0.00420944
0.00199919
0.0104055
0.00709595
-0.0081681
0.00670216
-0.00107708
-0.00272333
-0.000339709
-0.000254349
0.0202875
-0.0643916
-0.0676986
0.0350788
0.00268474
0.00570761
-0.000120982
0.0219847
-0.00349733
0.00758894
-0.0516849
0.00645681
-0.0787078
-0.0014663
-0.023771
0.00098994
0.00103068
-0.00949445
0.0460464
-0.06199
-3.52242e-06
-0.00514256
-0.00181672
-0.0201964
-0.00212803
0.00800166
-8.50324e-05
0.00490852
0.00771058
-0.00124281
0.00320155
-0.0372948
-0.0068029
0.00640331
-0.00156083
-0.000369023
-0.0719675
0.00494722
-0.000875758
-2.94831e-08
-3.44541e-07
-0.00249668
0.00807677
3.37033e-06
0.0169204
0.00757933
-1.05647e-05
-0.000138176
-0.0145259
-0.067973
0.00477158
0.00897241
-1.40864e-05
3.54487e-05
0.00614707
-0.000962245
-0.00867596
0.0412963
-5.87077e-05
2.35543e-05
0.00984078
0.000938948
-0.0285092
-0.0660156
0.00732576
-0.0458723
-0.000212729
-0.0212601
-0.00369309
-0.00207771
-0.000992721
0.0100328
1.10887e-06
-0.0110796
-0.00973249
-0.00286297
-0.0671041
0.00857075
0.00537302
-0.0242271
0.00436317
0.000699398
-0.00917436
0.00591873
-0.00290173
2.31383e-05
0.0112438
0.00332624
-0.000218389
-0.00323903
0.00909831
-0.00275065
-0.00850333
0.00576745
-0.00028492
-0.01358
0.00493332
1.48858e-06
0.000739268
-0.00195517
0.00556472
-1.71958e-05
0.0106262
-0.000159764
0.0105752
-0.0020181
0.000349015
0.00536372
0.009543
-0.00295413
-0.00999051
-0.00234793
-0.0026392
0.0101933
-0.0407754
-2.27689e-05
-0.0486568
-0.00198255
-0.00534768
-0.00327421
-0.0110956
-0.00597919
0.00211867
9.45026e-05
0.00531474
-0.0212266
-0.000109381
-9.24033e-05
-0.0245339
0.00072471
-0.00292902
-0.00438162
0.00567381
-0.00916323
-0.0149515
0.00905311
-0.00321478
0.00851555
-0.00329088
0.0258394
-0.00371626
0.000776492
7.34737e-05
-0.000233875
0.000178642
-0.00296643
6.51842e-06
-0.000241148
0.00656063
0.00535867
0.00752348
0.0109021
-0.00176425
0.0145271
0.00408539
-0.0631872
2.87697e-05
7.36095e-07
-0.0537978
0.00583869
-0.0489566
0.00396637
-0.00569982
6.23786e-06
0.00690956
-0.0168364
-0.00150755
-0.00712722
-0.000874806
-0.000273314
2.96068e-05
0.00398463
-0.00691693
-5.12204e-07
0.000584652
0.00586526
-0.00247704
0.00842353
-3.56708e-06
0.00733666
-0.0584397
0.0554095
0.00805966
-0.0258685
-0.00110014
0.00424908
0.00133313
-0.000462694
3.00194e-05
-0.000241061
-0.0142474
0.0279689
-0.000782833
1.65286e-06
-0.00609681
0.000885326
0.00120637
1.64219e-05
-0.00109302
-1.53398e-05
0.00794422
-1.40699e-05
1.32853e-05
-0.00109912
-0.0035961
0.0105538
0.0107032
8.58576e-06
0.0379985
0.00180502
7.51805e-06
0.00600565
3.17937e-06
4.6211e-06
0.008807
-0.00015142
8.56205e-06
-0.00721427
-0.00609556
0.000452546
0.00204383
0.00841037
-0.00197762
0.0268993
0.0065053
-4.61592e-05
0.0012633
-0.0656239
-0.00722067
0.00361099
-0.000142282
6.57479e-06
-0.0158783
-0.00288564
-0.00282316
0.0185602
-4.10115e-05
-0.0163617
-0.000189244
0.00880034
-0.00363002
-0.0151544
0.00216879
-0.00140504
0.00856408
-0.00244648
0.00226328
2.60166e-05
0.00756245
0.0021576
-0.000144703
2.92897e-06
-0.0338809
-0.0523332
-0.0530378
-5.32753e-05
0.00659566
0.0383975
-0.00914985
-0.000200565
0.0100408
2.58167e-06
0.00035127
-0.0255788
-0.00921482
-0.00214837
-0.0286634
-0.000685837
6.63534e-05
0.000154024
0.0105688
-0.0540442
-0.00298948
-0.0029933
0.000465807
0.000151812
-0.00080342
-0.00181098
-0.000180977
-0.0147923
-9.11713e-06
-0.0422852
0.000416934
0.00924708
0.0112355
0.00366745
0.00208772
-0.00328372
0.000274062
0.00395363
-0.00047212
0.0191364
0.00932997
0.0037991
-3.99792e-05
0.000202534
0.0874003
0.017784
-0.00313755
0.0264308
0.00536111
6.17112e-05
0.00786415
-8.8934e-06
0.00277289
-0.0115618
0.000505097
0.00452605
-0.00164295
0.0236008
-0.00189544
-1.47784e-05
0.0148438
-0.000915842
-0.0078218
0.00464705
0.0166663
-0.000263606
0.0165769
0.00429121
-0.0163176
-7.84789e-05
0.0355792
-0.0528226
0.00603851
-2.96055e-05
-0.00239634
-0.00338169
0.00185286
0.00541627
0.00616308
-0.030991
0.00512039
-0.028423
0.0040624
-0.0410708
0.0018493
-0.00268451
-0.0135005
-0.000361499
0.021208
-0.00186031
0.0578192
-0.00997252
-6.6239e-06
9.86042e-05
-0.000102166
0.00677068
0.00480151
0.00427023
-0.00257422
-0.00345741
-0.053764
-0.0126613
-0.0200918
-3.32283e-06
-8.82586e-05
0.000341739
0.00388591
-0.00297031
0.00863411
-0.00495366
0.00326987
0.00627655
3.26684e-06
0.0316142
0.00652184
0.0298508
0.000512846
-0.000603104
-0.0012922
0.00791542
-0.0630205
0.00216668
-0.00104983
0.00143292
-0.00387084
0.00781411
8.92724e-05
0.0110601
-0.000412071
-0.00155209
-4.03164e-05
5.85566e-06
-0.00283885
0.0201506
-0.0159837
-0.00903984
-0.031832
-0.00183046
-0.000555664
0.02224
0.0173148
-0.000301161
-1.13961e-05
0.00744487
0.00299222
-0.000662692
-0.00249064
-0.0164694
-0.0654688
-0.00110606
0.00831776
-0.00220024
-0.0047909
0.000205883
0.0301496
0.0130316
-0.00277248
-0.00315778
0.00255084
-0.00157865
-0.0610667
0.000289109
-0.0685481
0.00443722
0.0124383
-0.000917586
0.000551346
-0.0658311
0.0770196
-6.88369e-05
-0.00409142
-0.00277578
3.11321e-05
0.000296571
-6.54041e-05
0.00757087
0.0214305
-0.00235223
0.00714684
-0.0537126
0.00578803
-0.00650257
-0.0329131
0.000943839
0.0310437
-0.000124752
-0.0712175
0.00587445
1.38827e-06
-3.28966e-05
-0.0335533
-0.000282804
-0.0159206
0.00696241
-0.0258019
0.00671912
0.0128583
0.00424639
0.00784769
-0.00188931
0.00846822
-0.047622
0.0113061
0.00575313
-7.37708e-05
0.0153187
0.00458551
-0.000501897
0.00644731
0.00394808
0.00449904
-0.0752791
0.000150942
-0.0508837
-0.0018513
0.028774
-9.65273e-07
-0.0006575
0.0137234
-0.0457834
0.00117658
3.03951e-05
-8.27599e-05
0.0329048
0.0050214
0.0162672
-7.83615e-05
-0.00215912
-0.075113
0.00483818
0.00340659
-1.28297e-05
0.0066684
-0.00090555
-0.00279068
-0.000502733
-0.00547017
-0.000110833
-5.07095e-05
1.79356e-05
0.00829033
-0.00897145
0.00252315
-0.0247218
-7.63847e-05
-0.0292564
8.41441e-05
-0.00793656
-0.00634576
-0.0027989
0.00261149
-0.00778588
0.0106578
-0.0114492
0.0223341
-0.00180925
-0.0040131
0.00569257
-4.72356e-05
0.00152923
0.00113192
0.020915
0.00676856
0.0792777
-0.00119076
0.00262134
0.00662109
0.0155157
0.0196203
0.000368076
-0.00010429
3.21704e-06
-0.000978676
-0.00265204
-0.00380511
0.0685266
0.0949789
-0.0085985
-0.00956646
0.00851194
0.0140416
-0.00566611
1.88041e-05
-0.086597
0.00873517
6.26972e-05
0.00608469
-0.00116846
-5.8929e-05
-0.010227
-0.00999529
-0.000379282
0.0199904
-9.2803e-05
-0.069556
-0.00247048
0.0060849
-0.0168238
-0.000113496
-0.0192034
0.00173126
-0.00913953
-0.000978589
4.63636e-05
5.56017e-05
-0.057907
-0.0223175
0.00785184
2.85594e-05
0.0171376
0.00486326
-0.047041
-0.0405092
0.0123509
0.00173894
0.00815124
0.00623481
-0.00167664
0.00714237
-0.0072408
0.00825603
-0.00328489
2.43014e-06
0.00089124
-0.000542166
-0.00272237
-0.0714226
0.000216012
-0.000862108
-0.00394394
-9.10392e-05
0.00229084
-0.0536858
-0.0673059
0.00505498
0.0277588
-0.0700236
-0.00324643
-0.0759666
0.00186641
0.00254207
0.00856191
0.00971969
0.00635183
-0.0176002
0.000852053
-0.0678126
-0.0592897
0.00192571
-0.00605505
0.0085514
-0.0431343
-0.0046677
-0.000971822
-0.0742623
-0.0667563
-0.0576581
0.00366926
-0.00069237
0.00694166
7.75494e-06
6.76705e-06
-0.0024869
2.28794e-05
0.00854071
-0.00968774
-0.000996748
-0.00200798
0.00443382
0.00720934
0.00958073
-0.0624467
-0.00287201
-0.000224819
-5.94973e-06
0.00502033
-0.0107651
0.0166782
-0.00688078
0.00661321
0.00532265
-3.05183e-05
0.0051085
-0.000147765
0.00784671
0.00624076
-0.00355668
-0.0347395
-0.0105276
0.0281192
-0.00192016
0.00607844
-0.00248542
-0.00344002
-0.066506
-0.00157131
-0.00769022
-0.0289465
-0.0299048
-0.00250241
-0.0718073
-0.0300746
0.00287624
0.004119
-0.00138569
0.000512406
0.00597311
0.0155347
4.67374e-05
-0.00845628
-0.00106387
-1.8439e-05
0.000273238
-0.00996249
-1.35646e-05
0.00871978
-0.0010319
-0.00582481
-0.00276143
0.0286047
0.000447024
0.00469042
0.00232101
-2.92811e-06
-0.0143122
-7.06597e-06
-0.000269374
-0.000122044
0.00524789
-0.0659984
0.00108902
0.0214486
-0.012749
-0.0355296
-0.00287366
-0.00244784
-0.00154197
-0.0479739
-0.022658
-0.000209175
-5.03529e-05
-0.0728442
0.00910154
8.78987e-05
0.0069621
0.0397062
0.000794839
0.00546675
-2.06502e-05
0.0462002
0.00155923
0.00508692
0.00621072
-0.000138012
-0.00014239
5.11951e-06
-0.0129195
-0.0333609
-0.0551119
-0.0137496
0.00900559
6.76946e-06
0.00614594
2.15699e-05
-0.000513341
-7.81743e-05
-0.000203876
-0.00175287
-1.42281e-05
-0.00354991
-0.0711452
-5.2184e-05
-0.0534852
0.0104032
-9.45521e-05
-0.000564668
-0.00535101
0.000481706
-0.000265011
1.22702e-05
-0.0131284
0.00696996
4.45141e-05
-4.06891e-05
-0.000498514
0.00380007
-0.00280092
-0.0633843
0.000406904
8.76189e-05
-0.00127311
0.00493772
0.0145972
-0.00255413
0.000442391
-0.0585363
-7.77913e-05
0.00907687
0.00564296
0.00508364
0.000985632
0.0078011
0.00505249
0.0308456
0.00848444
1.25777e-05
0.00018324
0.000731228
0.00200151
0.00271801
-0.0272836
0.000438617
0.00547267
7.21494e-06
-0.0133408
0.00637282
-0.000467668
-0.00687107
1.89152e-06
-0.00403359
-0.0307705
-0.00117958
0.0439912
4.85318e-07
0.00153214
1.13368e-05
0.0056188
-0.0637955
-0.00037956
0.0317215
0.00195315
-0.00970889
-0.000115891
2.21204e-05
-0.00334568
0.00763676
-1.54403e-05
7.08231e-06
0.00813795
0.0277528
0.00393797
0.00659338
0.000406184
-0.0292212
0.00774146
-0.00968836
-2.82309e-06
-0.024498
-0.0125482
0.000701399
0.00329882
0.00274648
0.00857568
0.00535119
0.00372256
0.000325791
-0.00012723
0.0409965
0.00698718
-7.77582e-05
0.00618929
-0.0119927
0.00429827
0.00488972
-0.00746076
-0.00097461
-4.48961e-06
-0.000378273
0.00709313
1.17061e-05
-0.0052102
0.010811
-0.00545936
-0.0003246
0.000156514
0.0102586
-0.00747962
-0.0154025
-1.35564e-05
-0.0321493
-0.000902186
-0.00398005
-0.00129097
0.000174293
8.20956e-06
-4.38195e-05
-0.0121625
1.43109e-05
-2.52095e-05
0.00553096
-0.0142348
-0.0542562
-7.31132e-05
-1.29717e-05
0.00415916
1.34284e-05
-0.0162887
0.00581161
0.00193231
-0.00293891
-0.000526626
-0.00449509
0.0154032
-0.00208192
0.00417747
-4.19088e-05
-0.00433286
0.0148042
-0.0288469
0.00713653
-0.0269757
1.48385e-05
-0.00378849
-0.000364878
-0.0374388
6.97176e-06
0.00534908
3.87251e-05
0.00602968
-0.000142118
-2.96019e-05
-0.00219284
-0.0559983
0.0145868
-0.053627
0.00426262
0.00423382
-0.00220361
0.000134522
-0.0141306
4.32313e-06
-2.25011e-06
-0.00221299
-0.00155182
1.38305e-05
0.00545479
0.000137578
0.00620218
0.00134616
-0.0149633