/*--------------------------------*- C++ -*----------------------------------*\
  =========                 |
  \\      /  F ield         | OpenFOAM: The Open Source CFD Toolbox
   \\    /   O peration     | Website:  https://openfoam.org
    \\  /    A nd           | Version:  9
     \\/     M anipulation  |
\*---------------------------------------------------------------------------*/
FoamFile
{
    format      ascii;
    class       surfaceScalarField;
    location    "30";
    object      phi;
}
// * * * * * * * * * * * * * * * * * * * * * * * * * * * * * * * * * * * * * //

dimensions      [0 3 -1 0 0 0 0];

internalField   nonuniform List<scalar> 
167688
(
-0.0423288
0.0254765
0.0168522
0.00812191
-0.073561
0.065439
0.034005
0.0494389
-0.0834439
0.0369354
-0.084295
0.0473596
0.0976201
-0.0887825
-0.00883768
-0.0730881
0.0131499
0.0599382
0.0420521
-0.0247805
-0.0172716
-0.0400651
0.0770005
-0.120193
0.0406396
0.079553
-0.0261814
-0.00373968
0.0299211
-0.0515992
0.0597211
-0.0617978
0.0350756
0.0267222
0.112608
-0.0858214
-0.0267869
-0.0465925
-0.0152054
-0.0374734
0.0170538
0.0204196
0.040124
0.0327659
-0.0728899
0.0197878
-0.00249583
-0.017292
0.0213738
-0.0260811
0.00470722
0.0301939
0.0387808
-0.0689747
0.107806
-0.0661765
-0.0416291
-0.0829937
-0.0217639
0.104758
0.0466512
0.0522625
-0.0989137
0.0626078
-0.0324139
-0.0887662
0.0646826
0.0240837
0.0935906
-0.0139119
-0.0796787
-0.0755268
0.0273265
0.0482003
0.0124565
0.010461
-0.0229175
0.0718407
-0.0802018
0.00836118
-0.0911748
0.0180867
-0.000697059
-0.0822967
0.0117406
0.069195
-0.0809356
0.0615757
-0.0576638
-0.00391183
0.132401
-0.119282
-0.0131189
-0.00885647
0.00756099
0.00129548
-0.0682938
-0.0518988
-0.11449
0.0768923
0.037598
0.0520583
0.0557472
0.00451706
-0.0142204
0.00970334
0.0261653
0.0387539
-0.0649191
-0.0576574
-0.0352612
0.0929186
0.0323203
-0.0879673
0.055647
-0.0640369
0.0148391
0.0491978
-0.0742309
-0.0109539
0.0851847
0.0643737
-0.0303687
0.0413496
-0.0199757
0.0399814
-0.0669528
0.0269715
-0.00555376
-0.00330271
-0.116615
0.00367504
0.11294
-0.0989396
0.0360785
0.0628611
-0.00271786
-0.061319
0.068919
-0.027089
-0.0418299
-0.0268226
0.0236227
0.0031999
0.0898083
-0.087696
-0.00211236
-0.0557276
0.0818928
0.00539572
-0.0691518
0.0637561
0.0228871
0.019165
-0.0932478
0.063489
0.0297588
0.0973418
-0.03665
-0.0606918
-0.0347917
0.00456966
0.0302221
0.0722825
-0.0323011
0.00859449
0.0326582
-0.0412527
-0.0474441
-0.0691711
0.11491
-0.0332192
-0.081691
-0.00130901
0.116219
-0.00720036
-0.0295734
0.0367738
0.122563
-0.0707844
-0.051779
0.0144429
-0.00992582
0.108286
-0.0873709
-0.0209154
-0.0614455
0.00563569
0.0558098
-0.0851893
-0.0146991
0.0998885
0.0692753
0.0280665
-0.00444049
0.0024299
0.00201059
-0.06168
-0.0270862
-0.0270229
0.0213641
0.0056588
-0.014074
0.0423142
-0.0282402
-0.00959191
0.0126422
-0.00305027
0.0903193
-0.00566234
-0.084657
-0.0194416
0.0464307
-0.0234592
-0.0229715
-0.0588704
0.00314287
0.016875
0.0647767
-0.0816517
-0.00221323
-0.00737868
0.0478739
0.021045
-0.063806
-0.0117208
0.109744
-0.0696201
0.0157245
-0.0698953
0.0541708
0.0718579
-0.0510609
-0.020797
0.0660383
-0.0606425
0.00269814
-0.000684883
-0.00201325
-0.0665753
0.0835261
-0.0169509
0.133923
-0.0587891
-0.0751339
-0.0474951
-0.0669952
0.0356791
0.0361788
0.0274791
0.070141
0.0327954
-0.0468694
0.118418
-0.0280988
0.0726352
-0.0496431
-0.0229921
-0.0282849
-0.00918842
0.07877
-0.0670294
-0.0783413
-0.0149065
0.0572187
0.0553897
0.109192
-0.104093
-0.00509901
-0.0911278
0.0658222
0.0253056
0.0631596
-0.10262
0.0394602
-0.00887485
0.0384315
-0.0295566
-0.0169439
0.00376796
0.0131759
-0.0484851
0.0412847
-0.0578419
0.0920014
-0.0341595
0.0748383
-0.112237
0.0373983
-0.0639302
0.0796547
-0.00081947
-0.00362102
-0.0487815
0.0469756
0.00180584
0.0432496
0.0318999
-0.0751494
-0.0725592
0.0469386
0.0256206
-0.0754945
0.014049
-0.0578128
0.0202492
0.0375636
0.0424088
-0.00477755
-0.0376312
0.00725998
-0.0708949
0.0636349
-0.000217202
0.00291534
-0.123214
0.0871002
0.0361135
0.0510726
-0.0822873
0.0312147
-0.00808651
0.0799272
-0.0399985
0.0138172
0.0584665
-0.0828067
0.0243402
-0.0530598
0.08538
-0.0200728
0.0832324
-0.00226915
-0.0180997
0.0203688
0.00295897
0.0639458
-0.0669048
-0.0854173
0.0236326
0.0617847
0.032131
-0.0410059
-0.0290423
0.0875088
0.0304966
-0.0180401
0.0194786
0.0731369
-0.0926154
0.0210347
-0.00440768
-0.016627
-0.015981
0.0547349
-0.102175
0.0445181
0.126658
-0.0896926
-0.0369654
0.102827
-0.0744443
-0.028383
-0.0457672
-0.0258652
0.0716324
0.0681998
-0.0116826
-0.0565172
0.0397558
0.0630716
-0.0699663
0.0686995
0.00126683
-0.0655142
-0.00547917
0.0709934
-0.00851288
0.0133924
-0.00487953
0.0185638
-0.0764057
-0.0696358
0.0390917
0.0305441
0.0239766
0.0055894
-0.029566
-0.113804
0.0356823
0.0781216
0.0742074
-0.0669474
-0.0845243
0.0875404
-0.00301615
-0.0174968
0.000552923
-0.034912
0.0815632
-0.0366458
0.0514946
-0.0148488
0.00649765
0.0833107
-0.0870333
0.0412661
0.0707242
-0.0351573
-0.0355669
-0.0864265
0.0749773
0.0114492
-0.0256264
-0.0469329
-0.0367758
0.00198408
0.0373558
-0.00206875
-0.035287
0.0952453
-0.0519957
-0.124074
0.0832002
0.0408743
0.00530348
0.0463049
-0.0516084
-0.0729669
0.036547
0.0364199
-0.0812
0.0880385
-0.00683856
0.0841287
-0.0053365
-0.0787922
0.0522525
0.00502216
-0.0572746
0.0233264
0.0382493
-0.0869106
0.0081311
0.0787795
-0.0564465
0.0604547
-0.0040082
0.0178916
0.042612
-0.0605036
0.0651573
0.00556688
0.0870418
-0.0817383
-0.0189374
0.0104245
-0.0178077
-0.0455646
0.0633722
-0.0443784
-0.0788353
-0.0918466
-0.00709304
0.11896
-0.0284935
-0.090466
0.065114
-0.0500278
-0.0150862
-0.00117866
-0.0759898
0.0771685
-0.0526731
0.0348655
0.0825602
0.0207762
-0.103336
-0.115724
0.0131511
0.102573
0.0722006
-0.102157
0.0299563
-0.0719902
0.0445955
0.0273947
-0.0456507
0.0331902
0.0124605
-0.0681063
-0.0559682
-0.00384068
-0.0773593
-0.0734784
0.00796417
-0.0691465
0.0191112
0.0500353
0.0102612
0.0495887
-0.0598499
0.0827332
0.0496674
-0.106174
0.0395985
-0.0199373
0.0710099
0.100179
-0.0486176
-0.0515616
-0.136613
0.0955328
0.0410804
0.0563396
-0.0666592
0.0103196
-0.00792926
-0.0408522
0.10113
-0.0437171
-0.0574129
-0.0293505
-0.057076
0.00139731
-0.0134294
0.0120321
-0.017961
0.0423256
-0.0243646
-0.0284281
0.0370226
0.0289853
-0.0796361
0.0506508
-0.0885774
-0.0218164
0.110394
-0.0348053
-0.0230074
-0.0196015
0.00437043
0.0152311
0.0200965
-0.0445427
0.0244463
0.0308054
-0.0110176
0.0740616
0.0155387
-0.0896003
-0.0984212
0.0745405
0.0238806
0.10743
0.00213134
-0.109561
-0.0154423
0.0394189
-0.0170662
0.0798617
-0.00722646
-0.0201808
0.0402772
0.0554939
-0.0376022
-0.057067
-0.00501522
0.0620822
-0.127075
0.0414384
0.0856363
0.0824901
-0.0291743
-0.0533158
-0.102164
0.0199887
0.0821749
0.0197062
-0.0437574
0.0240512
0.0930649
0.0294984
-0.00828437
0.0456401
0.0642851
-0.0144012
-0.0498839
-0.109939
0.023028
0.017634
0.0915578
-0.0185331
0.0472456
-0.0287125
-0.0420994
0.0701696
-0.0280702
0.0717211
-0.102345
0.0306236
-0.109522
0.0374952
0.072027
-0.0683912
-0.0586835
-0.0418906
-0.0300996
-0.114852
0.0489413
0.0659108
0.0295028
2.80372e-05
-0.0295309
-0.109781
0.0409464
0.0688345
-0.0826006
-0.0540126
-0.0326299
-6.52093e-05
0.000424182
-0.000358973
-0.00185707
-0.00455968
0.00641675
-0.0609054
-0.021109
0.0820145
-0.0383631
0.0490413
-0.0106782
0.110549
-0.0797942
-0.0307547
-0.117129
0.0562238
-0.0163258
-0.0632432
0.079569
0.0398296
-0.0103268
0.0646153
0.0115372
-0.0761525
0.0311512
-0.0638566
0.0327054
0.119258
-0.0594374
-0.059821
0.0193731
0.063117
0.0240845
0.0356873
-0.0597718
0.101871
-0.0193103
0.0144143
-0.0124845
-0.00192979
0.0908561
-0.0357508
-0.0551053
0.000300759
0.0560388
0.000937155
-0.0854614
0.0581855
-0.0479243
-0.0894049
0.00398767
0.019291
-0.00534237
-0.0139487
-0.0179452
0.0837674
0.0560914
0.00819375
0.0298001
-0.0289388
-0.0008613
0.0221788
0.0619499
-0.0159884
-0.0296622
-0.00302017
-0.0133175
0.0163377
-0.076967
0.0078205
0.00155761
-0.090135
0.0429407
0.0760189
-0.00959155
-0.0327515
0.042343
0.0411521
0.0671342
0.0631704
-0.039086
-0.0303414
-0.0160798
0.0464212
0.0679277
0.0332023
-0.033402
0.00657933
0.0336935
0.0408079
-0.0745014
0.0228191
0.0186297
-0.0414488
0.0268791
0.0211286
-0.0480077
-0.000294338
0.000261759
3.25789e-05
-0.000271669
-2.2669e-05
0.00417274
0.0102416
-0.002628
0.0774663
-0.0813385
0.0660967
0.0152419
-0.0228321
-0.0150213
0.0378534
0.0549707
-0.062525
0.00755431
0.101388
-0.0836753
-0.0177127
0.0325254
0.0325885
0.100962
-0.0264028
-0.0745593
0.118027
-0.0290661
-0.0889605
0.0847676
-0.0818086
-0.0349414
0.0253499
-0.0942582
0.0492972
0.044961
0.00932772
0.0597271
-0.0690548
-0.0459527
-0.0301051
0.0760578
0.105204
-0.053706
-0.0514976
-0.0680867
-0.0467655
0.0574273
0.0439606
-0.0533734
0.0687707
-0.0153973
0.0809967
-0.081499
0.000502278
0.0967481
-0.056933
-0.0398151
0.101319
0.0326035
0.106378
-0.0412219
-0.0651556
0.0814686
-0.00926798
0.0242458
-0.0427789
-0.110001
0.102385
0.00761657
-0.0784941
0.0625918
0.0159022
-0.0539057
0.0733842
0.00243356
-0.118158
0.0532873
-0.0744007
0.0211134
0.0849893
-0.0512958
-0.00105665
-0.0702738
0.0713304
-0.0209086
-0.095901
0.050631
0.0452701
-0.125254
0.0378741
0.0873803
-0.118061
0.0234057
0.0946556
-0.000505523
0.0438848
-0.0433793
0.0478691
-0.0281629
-0.0245498
-0.0336278
0.0581776
-0.103774
-0.00600724
-0.0997132
0.070084
0.0296292
0.0921681
0.00457997
-0.0801044
0.0637786
0.0218476
-0.000812874
0.0104502
-0.0311902
0.02074
0.101852
-0.0208553
0.0684899
-0.00387461
0.0526362
-0.0860813
0.0334451
-0.0210367
-0.0489296
-0.0824145
0.00818359
-0.058661
-0.0226775
0.0789043
0.0477537
-0.0667137
0.0246143
-0.0674499
-0.0141389
0.0815889
0.0545443
-0.0121355
0.067183
-0.00224847
-0.0649345
0.0995115
-0.0437659
-0.0557455
-0.0188554
-0.0519594
0.0708148
-0.0215756
0.0932967
0.0508667
0.0445774
-0.0954441
-0.0125473
-0.0833537
-0.0453829
0.0161575
0.0292254
-0.00987951
0.0112768
-0.022977
0.0207079
0.11326
-0.0196698
-0.107601
0.0836895
0.0239119
-0.112454
0.0430307
0.0694231
-0.0287478
0.059899
-0.121756
0.00795256
0.0653919
-0.0539415
-0.0114503
-0.00788605
-0.0485605
-0.0602069
0.077082
0.00614137
0.0182813
-0.0244227
0.0105511
0.0262427
-0.0367938
-0.000244578
-0.0240518
0.0242964
0.0150572
0.00517611
-0.0202333
-0.0646454
-0.00100827
0.0656537
-0.0723527
0.00770733
-0.0187109
-0.00777863
0.0264896
-0.0845117
0.0833331
0.121695
-0.12117
-0.000525213
0.0165443
0.0229548
-0.0394991
-0.033839
0.0111965
0.0226425
0.0528597
0.0688355
0.0807241
0.0187874
-0.00775023
0.00666078
0.00108945
0.0312796
0.0879789
0.000406894
-0.000472103
-0.0268362
-0.0185467
-0.0129639
-0.0360235
0.0489874
0.0798836
0.0264939
0.0497245
-0.0804947
0.0307703
-0.0278199
-0.00823699
0.0360569
0.00653272
-0.0343527
-0.0307797
-0.0130917
0.0438714
0.0180101
0.00623494
-0.0242451
-0.00048294
0.000357098
0.000125842
0.124852
-0.0417176
-0.083134
0.067975
0.0568766
0.0772714
-0.0801701
0.00289873
-0.03152
-0.00883274
0.0403527
0.105096
-0.0513673
-0.0537289
-0.0573393
-0.0679151
0.087654
-0.0969393
0.00928536
0.0371306
-0.0205863
-0.0148585
0.0699838
-0.0551253
0.00566939
0.0476179
0.102609
-0.00614534
-0.096464
0.0214427
0.0811666
0.00134464
-0.0584116
-0.039253
0.0164209
-0.0294967
0.0311205
-0.00162373
-0.0356001
0.00016165
0.0354385
0.00594647
-0.0752242
0.0692777
-0.0273797
0.0880988
-0.0607192
0.0275602
0.0253372
-0.0528974
-0.0276745
0.000651588
-0.0820432
-0.012215
-0.0990845
0.0653964
0.0336881
-0.0458783
-0.0213064
0.0671847
-0.0166612
0.0135777
0.0030835
-0.0815879
0.0542082
0.00452611
0.025274
-0.00768111
-0.027919
-0.00424807
0.00462332
-0.000375253
0.0520933
-0.0213498
-0.0307436
0.0205119
-0.0758521
0.0553402
-0.0246107
0.023468
0.00114276
0.0705111
-0.0361623
-0.0343488
0.0034505
-0.0886398
0.104969
-0.0243586
-0.0806108
0.111281
-0.0932174
-0.0180635
0.0683125
-0.00112954
0.0646358
-0.0885791
0.0239433
-0.0392942
-0.0453261
0.0846204
0.0912167
-0.0265809
-0.0715667
0.0527113
0.0479916
-0.0674352
0.0194436
0.0310744
0.0432387
-0.074313
0.0511211
-0.0516266
-0.0943711
0.0857691
0.00860204
0.0558812
-0.0668196
0.0109384
-0.0157406
0.0261908
0.0782995
-0.107775
0.0294754
0.0626282
0.00241274
-0.065041
0.0831825
-0.0805298
-0.0026527
0.0896199
0.0113423
0.0621545
0.0133882
-0.0755428
0.00949253
-0.0428267
0.0333342
0.0991095
-0.0209475
-0.078162
0.0304439
-0.0549936
0.0274997
0.0430114
0.0538035
-0.0930978
-0.0583502
0.0275705
-0.0714951
0.00907255
0.0624226
0.0149712
0.00381783
-0.018789
0.00736604
-0.0326626
0.0252966
0.024183
-0.0180417
0.0624368
0.02496
-0.0873968
-0.0034127
0.0688046
-0.0083488
0.00649173
-0.0240825
-0.0022217
0.0263042
0.0611749
0.000979628
-0.0217369
0.0726036
0.0738972
-0.0428229
0.00670715
0.0174158
-0.0241229
-0.0938942
0.00985438
0.0840398
-0.128978
0.116291
0.0126871
-0.0250438
0.00633287
0.00828776
-0.0323703
-0.097357
0.029907
0.0196259
-0.0655042
0.0643966
0.00380324
-0.0379406
0.089045
-0.0511044
0.0162965
0.062003
-0.0138508
0.0688216
-0.0118879
0.0645241
0.00398528
-0.00146517
-0.00252011
0.0666513
-0.0827733
0.016122
-0.0494206
0.0784059
0.0298783
0.0194013
-0.0492796
-0.073573
0.0725164
0.034538
0.0704315
-0.0584882
-0.0111476
0.0646592
-0.0553315
0.0817735
-0.0955697
0.0137961
-0.00648741
-0.0318757
0.0592217
0.0264771
-0.0856988
0.0704296
0.00800805
-0.0784377
0.0504106
0.0016827
0.0430792
-0.089032
0.0973537
-0.0383861
-0.0589676
0.0144956
0.0731584
0.0507866
0.0566431
-0.0828142
0.0113191
-0.071705
0.00764798
0.0640571
-0.0115143
0.04427
-0.0327556
-0.0278108
-0.0350818
0.0628926
0.12851
-0.0768997
-0.0516099
-0.0349698
-0.0671938
-0.0840637
0.0883793
-0.00431566
-0.0315649
-0.0864964
0.0264268
-0.0113696
0.000623996
-0.000476082
-0.000147913
-0.0726539
0.0577954
0.051377
-0.00494628
-0.0155555
-0.0477484
0.0633039
0.0158987
0.00339233
-0.0205644
-0.025319
0.0458834
-0.100954
-0.0114999
0.0522806
0.0582683
0.047262
0.0812476
0.0912013
-0.0330605
-0.0581408
0.051268
-0.0580085
0.0067405
-0.0294888
-0.0490053
-0.0319047
0.0911263
0.0439331
-0.0344405
-0.087469
-0.00344251
0.0909115
-0.121402
0.0945302
0.0268723
-0.0886649
0.0138591
0.0748058
0.107254
-0.00205058
0.115353
-0.0615997
-0.0537535
-0.034559
-0.0345117
0.0690707
0.0968789
0.0184743
0.0050839
-0.0925529
-0.0031306
-0.0502428
0.124611
-0.0645235
-0.0600875
-0.0892063
-0.0128196
0.102026
0.135137
-0.046411
-0.0887258
0.0252959
0.0132053
-0.0385012
0.113472
-0.108065
-0.00540663
0.103059
-0.0326296
0.0200632
-0.0093878
0.0228535
-0.0134657
0.0180152
0.0369621
-0.0549773
0.0441579
0.0671231
-0.000809109
0.0103837
-0.00957455
-0.0696383
0.08054
-0.0109017
0.0459075
-0.115546
0.105468
-0.0142664
0.0242569
-0.0175498
-0.0172948
-0.0353072
0.052602
0.0904745
-0.0266634
-0.0638111
-0.021296
-0.0401794
0.0614754
0.0604562
0.0575704
-0.0886071
0.0841495
0.00445761
-0.0268056
-0.0217254
0.048531
-0.000465853
0.0265077
-0.0260418
-0.0932404
-0.0172822
0.110523
-0.0191459
-0.000455664
-0.093292
0.00922837
0.110717
-0.0789952
-0.0317213
-0.094409
0.0564684
0.0187443
0.0585271
-0.00246447
0.0174
-0.0149355
-0.0193537
0.0163336
-0.120283
0.0578837
0.0623996
0.0609501
-0.0276825
-0.0332676
-0.029262
0.0771975
-0.0479356
0.00665939
-0.0122677
0.00560836
-0.0971778
0.0842047
0.0129731
0.123273
-0.0140316
-0.109241
0.108593
-0.0461557
0.0843642
0.0389089
-0.00525933
0.0119187
0.0383645
-0.0273937
-0.0109708
-0.0717471
0.0212527
0.0504945
-0.0584363
-0.0650449
-0.00670219
0.0378557
-0.0519662
0.0141105
0.0635155
-0.00763434
-0.0165429
-0.0620005
0.0785434
0.0291457
0.00921877
-0.0837684
0.00328521
0.0804832
0.0384924
0.0346429
-0.0731353
0.0206305
-0.0480442
0.0274137
-0.058671
-0.0627314
-0.0370642
-0.0705372
0.0267109
0.0118604
-0.0385714
0.0550324
0.0931284
0.0360367
-0.0286706
0.00488183
-0.000701438
-0.00418039
-0.0920044
0.100488
-0.00848323
0.0700193
-0.0950455
0.0250262
-0.0625485
0.0279894
-0.00727765
-0.000472576
0.0209121
-0.109519
-0.0797368
0.0767181
0.00301868
2.46755e-05
0.000237084
-0.0786647
0.0631092
-7.78584e-05
-0.000193811
0.0638976
-0.0176903
-0.0462072
0.0311404
-0.0426547
-0.067394
-0.00184151
0.0692355
-0.00603314
-0.0266405
0.0326737
0.109896
-0.028726
-0.0811698
-0.0583423
0.0996513
-0.041309
0.0729112
-0.00950827
-0.0634029
-0.0629492
-0.00875586
0.0968815
-0.0446291
-0.0299506
0.00533987
-0.0126595
-0.0817117
-0.0468402
-0.0821381
-0.0658306
0.0290595
0.0367711
-0.0197353
0.0826166
-0.0628814
-0.0137244
0.0618517
-0.0481272
-0.0143315
-0.0789089
-0.0432139
0.0485373
-0.00532339
0.000375603
0.0374801
-0.0824697
-0.00714748
0.0896172
-0.00140181
0.0558681
-0.0544663
0.0849998
-0.0120886
0.0258351
-0.0591269
0.0332918
-0.0139223
0.124639
0.0687342
-0.0428991
0.087937
0.0171592
0.0118568
0.0713256
0.0753441
-0.0914518
0.0161077
0.0188266
-0.0721481
0.0533215
-0.0482221
0.0882866
-0.0400645
0.0587546
0.0414246
-0.033194
-0.046852
0.080046
-0.0176128
-0.0385974
0.0562103
0.0010708
0.0807027
-0.00251688
-0.047923
0.0504399
0.0910457
-0.00018958
-0.0503489
0.0235433
0.0613545
0.0174495
-0.078804
0.0924886
-0.022338
-0.0701505
0.0385305
-0.0342261
-0.00430442
-0.139819
0.0486749
0.0911442
0.00843503
-0.0590975
0.0506624
-0.0527697
-0.0052673
0.058037
0.0111267
-0.0765306
0.0654039
-0.0884171
0.038197
0.0502201
0.0137509
0.00702126
-0.0207722
-0.112633
0.0288645
0.0927063
0.0866692
-0.038535
-0.0481342
0.0423222
-0.059935
0.0245239
-0.0455507
-0.00978816
0.0553389
-0.0928686
0.071278
0.0215906
-0.0408552
-0.0691459
-0.0637335
0.0748602
-0.0162341
-0.0729722
-0.0137899
0.0390857
0.106142
-0.0581648
-0.0479769
-0.080604
0.0455261
0.0350779
-0.0203211
0.0700455
-0.0555332
0.0425693
-0.00670038
-0.00996081
3.99656e-05
0.000111108
-0.000151073
0.0918796
-0.064102
-0.0277776
-0.00258324
-0.00145625
0.00403949
0.0758193
-0.0166871
-0.0591322
-0.0967295
-0.0235538
0.115373
-0.0627375
-0.0526355
0.10639
-0.0305705
0.099738
-0.0957503
-0.00398776
0.0583988
-0.078134
-0.112982
0.0641073
0.0488748
0.0344011
0.0653369
-0.0954308
0.0796452
0.0157856
-0.0275513
-0.0521855
-0.0284027
0.0301963
-0.00179357
-0.0264752
0.0333205
-0.00684535
-0.0156135
0.0146663
0.000947192
-0.0012324
-0.040729
0.0419614
0.00549742
-0.000615595
-0.0445824
-0.0438347
2.50773e-05
0.000598919
-0.0550621
0.09054
-0.0354779
0.038665
-0.0762841
0.037619
-0.0448914
0.0403293
0.00456213
-0.0380651
0.0767301
-0.0210977
0.091117
-0.0733455
0.0324186
0.0409268
-0.0428063
0.0574434
-0.0146371
-0.0699512
0.0384312
0.0664164
-0.0129422
-0.0534742
0.0395506
0.0178989
-0.0574495
-0.0413215
0.0400892
0.116587
-0.017477
0.0432519
-0.0139019
-0.0293499
0.0694478
0.00699097
-0.0764388
-0.0592525
-0.0275662
0.0868187
-0.0598962
0.0143455
0.0302464
-0.0362795
-0.0695542
-0.0702649
0.0231131
-0.0713352
-0.0696879
0.055961
0.0137269
-0.0227186
0.0433491
0.0935541
-0.0553198
-0.0382344
-7.78018e-05
0.0210351
-0.0209573
0.0963154
-0.0472643
-0.0490512
0.111652
-0.0413952
-0.0702564
0.0393012
0.028614
-0.0679153
-0.0220643
-0.0228271
0.0100114
0.000743745
-0.0107552
0.0936091
0.0220113
0.0682222
-0.0902335
0.00345618
-0.0585182
-0.0209591
0.0741421
-0.053183
-0.0152674
0.0421465
0.102247
-0.0222908
-0.0799559
-0.058334
0.040373
-0.067449
-0.0032768
0.0707258
0.0601683
-0.0933623
-0.0402498
0.0379271
0.0023227
-0.0364259
0.0544411
-0.0266266
-0.0602224
0.0868489
-0.0905875
0.0722845
0.018303
0.0449595
0.0296042
-0.0745637
0.046258
0.00736646
-0.0536245
-0.0344537
0.00797855
0.0341857
0.00906614
0.010776
-0.0201638
-0.0587723
0.0311891
0.0275833
0.078621
-0.00517514
-0.0734458
0.05819
-0.0353709
-0.0638089
0.0722439
-0.079395
0.125228
-0.0458334
0.00141509
-0.044629
0.00968835
-0.0890833
-0.0953643
0.0361119
0.0451157
-0.00427017
-0.0408456
-0.0954308
-0.0859565
0.0694136
-0.00051396
-0.00118977
0.00170373
0.0549073
-0.0815338
0.0493304
-0.0194521
-0.0102915
-0.0476895
0.057981
0.0515563
-0.0725154
-0.0661292
0.058276
0.00785322
-0.061372
0.0673185
-0.0389834
0.0830814
-0.044098
-0.0453312
-0.0134412
0.0863269
-0.065815
-0.0542012
-0.0211322
0.0753334
0.0446664
0.0577274
-0.102394
-0.0874738
0.051449
0.0360248
0.028724
0.0452182
-0.0739422
-0.0366882
-0.0553162
0.0525671
0.00429598
-0.0568631
0.033428
0.0800439
0.0816241
-0.0420734
-0.0343004
-0.0315302
0.00553963
0.0135123
-0.0190519
0.00643237
-0.0874802
0.0810478
-0.0506175
0.00110863
0.0495088
0.0866397
-0.090148
0.00350827
0.00385877
0.0290821
-0.0329408
0.0147195
-0.0171839
0.0359408
-0.0868911
0.0509503
0.0517924
0.0256319
-0.0774244
-0.0262259
-0.0867561
-0.0034607
0.0172116
0.0645947
-0.0829435
0.0183488
-0.0898053
0.000575966
0.0892293
0.0428482
0.0405895
-0.0834377
-0.0509357
0.0498111
0.00112457
-0.0141451
-0.0745199
0.02247
-0.022442
-2.80125e-05
0.0563597
-0.0101016
0.0250871
-0.0187688
-0.00631835
0.0825713
-0.019943
0.0189781
-0.0647467
0.0457686
-0.0682542
0.0154845
0.0983523
-0.0348391
-0.0635132
-0.0254585
0.0647597
-0.0571682
0.102716
-0.0455479
0.0988617
0.00723398
-0.106096
-0.0658677
-0.00729003
0.0731577
0.0106741
-0.080362
0.099591
-0.0685852
-0.0310058
-0.0387117
0.0565066
-0.0177949
0.0985549
-0.0467625
-0.0565763
0.0785877
0.0362914
-0.036536
0.0153327
-0.0827861
0.0674534
-0.0896964
0.0238287
0.0189528
-0.0194187
0.072605
-0.00618855
0.0652309
-0.034194
-0.0310369
-0.0275005
0.0158561
0.0116444
0.00925169
-0.0100608
-0.0281597
-0.05431
0.0930881
-0.0677658
-0.0253224
0.0119529
-0.0727062
0.0607533
-0.112704
0.0311641
0.0815399
0.0182221
0.0806396
0.0801463
-0.0155516
0.0196619
0.0523586
-0.0720205
-0.126841
0.0577349
0.0691058
-0.0949563
-0.0318844
-0.0423653
0.0700734
-0.0277081
0.00704095
-0.00707046
2.95145e-05
-0.0724389
-0.0166473
0.0890862
-0.00491225
-0.0665889
0.0715011
0.0376035
-0.0270525
0.00448345
-0.0390247
0.0345412
0.0392053
-0.0392831
-0.118847
0.00614323
0.0910355
-0.0722089
0.0119863
-0.0208244
0.00883809
0.0842523
-0.00556653
-0.0786858
0.0375413
-0.0875557
0.0500144
-0.0326887
0.0799376
-0.0472489
-0.124713
0.0525427
0.0721705
0.0369163
-0.0324329
0.0397651
-0.112204
0.0359956
-0.0658659
0.0298703
-0.101147
0.063589
0.0375582
0.0558386
-0.0433155
-0.0125231
0.103428
-0.0505434
-0.0528844
0.00236202
-0.070201
0.067839
-0.0271024
-0.00673666
0.0899305
0.0123161
0.0304152
-0.0628026
0.0323874
0.0831286
-0.0455873
-0.0302523
-0.055143
0.0853953
-0.0383137
0.00560078
0.0327129
-0.0702129
-0.0545003
0.0760054
0.0175487
0.00568013
0.00116783
-0.00684795
-0.0753138
0.0872666
-0.0664732
0.0255371
0.0409361
-0.0756212
0.0452798
0.0067772
0.0567453
-0.0635225
-0.0393124
-0.0445906
0.083903
-0.0363153
0.0394911
-0.00317582
0.00551604
0.0811237
-0.0529432
-0.0276608
-0.0598908
0.0393264
-0.0430345
-0.0541433
-0.065764
0.00576977
0.0599942
0.0137112
0.0781684
0.0357127
0.0567759
0.0266645
-0.0807934
0.0541289
0.0600509
0.0433769
-0.0144817
-0.0458209
0.0603026
-0.0800726
0.0312059
0.0488667
-0.0968403
0.0189556
0.0778847
-0.0940342
0.0190623
0.0749719
-0.0401661
-0.0494104
0.0895765
-0.00654143
0.00229336
-0.00695124
-0.0296946
-0.0778289
0.0545231
0.0233058
-0.00360801
0.0561751
0.111109
-0.101967
-0.00914226
-0.046752
0.0734165
0.0344864
-0.0164763
-0.0051207
0.0319216
-0.026801
-0.0305869
0.0944599
-0.063873
0.00187798
-0.00239194
0.0610138
-0.0696039
0.00859007
-0.107502
0.0721832
0.0353193
-0.0732512
-0.0234752
0.0967265
0.0101512
-0.0488629
-0.0688136
-0.00901526
0.0426048
-0.0731917
-0.000120504
-0.000362436
-0.00711196
0.0404617
-0.0333498
0.095433
-0.066709
-0.059725
-0.0414221
0.0693346
-0.0921049
0.0227703
0.00460954
-0.00704743
0.00243788
-0.0494937
-0.0379801
-0.0181745
-0.0266578
0.0448323
0.0481289
-0.0930462
0.0449173
-0.0294879
0.0654836
-0.0717277
0.0785049
-0.0237611
-0.00373942
-0.0391514
0.0872803
-0.0766044
0.0108405
0.0905479
-0.0810714
-0.00947651
-0.0468542
0.0313358
0.0155184
-0.0806073
0.09594
-0.00795711
0.0637405
-0.0557834
0.0934887
0.0181629
0.0154069
-0.00539546
-0.0436469
0.0795685
-0.0359216
0.0985437
-0.0338513
-0.0646924
0.0479567
0.00788189
0.0113166
0.0525809
-0.0437894
-0.0637131
0.0200888
-0.09334
-0.0505765
0.0324019
0.0360006
0.10547
-0.00915427
-0.00935308
0.0743841
-0.065031
0.070452
-0.0440906
-0.0263614
0.000826658
-0.0436329
0.00495311
0.0101774
-0.0151305
-0.00101427
0.000216216
0.000798053
-0.0666694
0.0641526
0.0517102
-0.0596673
-0.0479744
-0.0504468
0.0082785
0.0200139
-0.0282924
0.0567158
-0.0263006
-0.0835608
0.068712
0.0148488
-0.100741
0.0680523
-0.0188383
-0.0557645
0.0746028
-0.0561101
-0.0436031
-0.0909686
0.00455186
0.0864168
0.0904931
0.00805065
-0.0516896
0.0581219
-0.0364557
0.00540756
0.0310482
-0.113987
0.0654499
0.0485369
0.113428
-0.0380553
-0.0753726
-0.0699577
0.0193402
0.0760521
-0.0760521
0.0621416
-0.0923939
0.0324277
-0.0174565
-0.0464537
0.0346414
0.0118123
-0.0790391
0.0776373
0.00654244
-0.0739915
-0.00770732
0.0134383
-0.005731
-0.0891307
0.0678346
0.00341441
0.000570872
0.0776223
-0.0138766
-0.0637457
0.0883799
0.00997242
0.0686338
-0.0156575
-0.0529763
-0.0936006
0.0364325
-0.0829506
0.033131
0.0498196
-0.017688
-0.0287657
0.0689366
-0.111232
0.0422953
-0.00846939
-0.0564653
0.0649347
0.0861394
-0.075035
-0.0111044
0.0994222
-0.0943008
-0.00512134
-0.026186
-0.00253923
0.0287253
0.0638054
-0.0725559
0.00875052
0.0149277
-0.0571501
0.0422224
0.0483069
0.065121
1.53395e-05
0.00702561
-0.0254921
0.00272257
0.0227695
0.0816133
-0.0369469
-0.0863672
0.0886155
-0.00224825
0.0648719
-0.110798
0.0459257
0.0729888
0.0319136
-0.104902
0.00750656
0.0759405
-0.0834471
-0.102809
0.0839703
0.0916463
-0.0332926
-0.0583537
0.0902773
-0.0220882
-0.068189
-0.0627636
-0.0270403
0.0898039
0.0325872
0.059196
-0.0917833
-0.00675156
-0.0683892
0.0751407
0.0863158
0.00209347
-0.0884093
0.128602
-0.0492361
-0.0793657
-0.060428
0.100897
-0.0404692
-0.129033
0.0740909
0.0549425
-0.102667
0.0265098
0.076157
0.0793944
-0.0782163
-0.00117813
-0.0676111
0.0626989
0.0215328
-0.0764028
0.05487
-0.00702897
0.0759655
-0.000105571
-0.02517
0.0252756
-0.0333885
0.106377
0.0390232
0.0355746
-0.0745978
-0.0848594
-0.0148703
0.0997298
0.0419117
0.0190384
0.0834161
-0.0646911
-0.018725
0.129117
-0.0253493
-0.103768
-0.067408
0.0339152
0.0334928
0.0461867
-0.0472062
0.00101951
0.103918
-0.0336439
-0.0702746
-0.0299893
0.0995209
-0.0695316
-0.0335865
-0.0499897
0.0835761
0.0771836
-0.0325881
0.0171173
0.0101627
-0.02728
0.00863943
0.00326107
-0.0119005
0.0468895
4.9061e-05
-0.0854318
0.017772
0.0676598
0.0678297
-0.0942972
0.0264675
0.0446628
-5.75298e-05
-0.0446053
-0.0261199
0.0432777
-0.0171578
0.0913177
0.00827334
0.0789482
-0.0430074
0.103633
-0.0527088
-0.0509244
-0.0154339
-0.0242559
0.0396899
0.112788
-0.0570195
-0.055769
0.0137369
0.067422
-0.0811589
0.0358309
0.0290945
-0.0649254
-0.120245
0.049058
0.0711873
0.0617928
0.0279759
-0.0897686
-0.0907183
0.0339288
0.0567895
-0.00373646
0.00373646
-0.0103376
0.114256
0.000635587
-0.000521763
-0.000113824
0.0298448
0.0546137
-0.0844585
0.0600247
-0.032222
-0.0278028
-0.0883425
0.034373
0.0539695
-0.053134
-0.0464506
0.0995846
-0.0523836
0.0538664
-0.00148277
-0.00721479
-0.0609727
0.0681874
0.0154528
0.0649286
-0.0803815
-0.0506907
0.0598241
-0.00913344
0.00471412
0.0228346
-0.0275487
-0.0517615
0.0898681
-0.0381066
0.00915363
-0.0339342
-0.111728
0.0489098
0.0628178
-0.00328988
0.076524
-0.0732341
0.0985228
0.00046343
-0.0989862
-0.00272482
0.00416805
-0.00144323
0.0183048
0.0459531
-0.0642578
0.0490104
-0.0574798
-0.0203847
0.0897193
0.0299114
-0.0532173
0.0233059
-0.050913
-0.0164949
-0.028489
-0.0505752
0.0790641
0.103934
-0.0847411
-0.0191931
0.0265588
-0.0441109
0.0175521
0.0581172
0.0404056
0.0398481
0.0472361
-0.0870842
-0.103933
0.0288977
0.0750357
-0.0499055
-0.0528822
0.102788
-0.0208227
0.063274
-0.0424513
-0.000597258
0.0529726
-0.0523754
0.093713
-0.0486267
-0.0450863
0.0233949
-0.0734713
0.0500764
0.110732
-0.0530391
-0.0576928
0.0791066
-0.0153012
0.0803715
-0.0295477
-0.0508237
-0.109184
0.044841
0.0643429
0.0504216
-0.100668
0.0502466
-0.0190877
0.00290468
0.016183
0.0808381
-0.00321584
-0.0167314
-0.0284234
0.0451548
0.0766897
-0.0994553
0.0227656
0.0565871
0.0249885
-0.0815756
-0.0107094
0.0286911
-0.0179817
0.0107745
-0.0521237
0.0413492
-0.133342
0.0766296
0.0567127
0.0680966
-0.0889137
0.0208172
0.0694526
-0.0262651
-0.0431874
0.0482923
-0.0192309
-0.0290613
-0.0567732
0.0038886
0.0528846
-0.0910187
0.0772698
0.0137489
-0.102294
0.039051
-0.0831279
0.0511116
0.0320163
-0.0717996
0.0750225
-0.00322294
0.0192952
0.00759051
-0.0268857
-0.000186682
0.0463924
-0.0462057
0.129399
-0.0748836
-0.0545154
0.0676326
-0.0533989
-0.0142337
-0.0180518
-0.0228226
0.0408744
-0.00679797
0.0938846
-0.0870866
-0.0691413
0.0313386
0.0378028
-0.0250929
-0.0438199
0.0689128
-0.0778445
-0.0178603
0.0957048
-0.0345003
0.00500359
0.0772852
-0.0990779
0.0217927
0.0916373
-0.0650155
-0.0266218
-0.0814828
0.0865563
-0.00507353
-0.124429
0.0648219
0.0596069
0.0129734
-0.013068
9.45949e-05
0.0305408
-0.0249118
-0.00562898
0.0545325
-0.0715361
0.0170036
0.0939385
-0.0768747
-0.0170639
-0.00897574
-0.0551021
0.0640778
0.0686163
0.0313837
0.0310026
0.00372769
-0.0347303
0.0220761
0.0612994
-0.0833755
0.0375616
-0.0316163
-0.00594536
0.0397272
0.00224135
-0.0419685
0.0852041
0.0255278
0.106136
-0.113894
0.0077581
-0.0711744
-0.000458206
0.0716326
0.110783
-0.0116971
-0.0990862
-0.0468017
0.0123265
0.0344752
0.0120981
0.0940383
0.0579096
0.00225633
-0.0601659
0.0999165
0.00778422
-0.107701
0.0804185
0.0127447
-0.0931633
0.0477617
0.0245771
-0.0723388
0.0408976
0.0270411
-0.0679387
0.00315482
0.0967617
0.0878621
-0.00339816
-0.0844639
0.100478
0.0103051
-0.0735396
0.0291998
0.0443398
0.0419262
-0.0456978
0.00377158
-0.0375893
0.0342492
0.00334012
0.0647595
-0.0360055
-0.0287539
-0.00864116
-0.00155568
0.0101968
0.0435026
0.0217283
-0.0598021
0.040539
0.0192632
-0.033341
0.0684028
-0.0350618
0.0269258
0.0180296
-0.0449554
-0.10413
0.103211
0.000918971
-0.0522592
0.0192302
0.033029
-0.0157114
-0.0626515
0.0783629
0.0380559
-0.0634904
0.0254345
0.0393319
-0.0346309
-0.00470105
0.0985136
-0.105146
0.0066321
0.0219763
-0.0230928
0.00111652
-0.0152041
-0.0609264
0.0761305
0.0381027
-0.0820674
0.0439648
0.0425149
-0.0184346
-0.0240804
0.0315637
-0.0460454
0.0568384
-0.0886046
0.0317662
0.11644
-0.0187644
-0.0976761
-0.11199
0.0127683
0.0367161