/*--------------------------------*- C++ -*----------------------------------*\
  =========                 |
  \\      /  F ield         | OpenFOAM: The Open Source CFD Toolbox
   \\    /   O peration     | Website:  https://openfoam.org
    \\  /    A nd           | Version:  9
     \\/     M anipulation  |
\*---------------------------------------------------------------------------*/
FoamFile
{
    format      ascii;
    class       volScalarField;
    location    "240";
    object      p;
}
// * * * * * * * * * * * * * * * * * * * * * * * * * * * * * * * * * * * * * //

dimensions      [0 2 -2 0 0 0 0];

internalField   nonuniform List<scalar> 
10720
(
0.0504647
-7.56192
-16.0028
-23.285
-28.6883
-33.245
-36.1242
-37.2741
-37.142
-35.6432
-33.2197
-30.4057
-27.6434
-25.2616
-23.4126
-22.0822
-21.1506
-20.4311
-19.8283
-19.3816
-18.9497
-18.2278
-17.3475
-16.7928
-16.6543
-16.6542
-16.6353
-17.007
-18.382
-20.4389
-22.0111
-22.3058
-20.7404
-18.2899
-15.6152
-14.5565
-14.1313
-21.9895
-33.7321
8.47385
16.4219
25.7259
35.1081
43.8595
51.4058
57.1904
60.7835
62.2332
62.2567
61.0984
58.874
56.1542
53.2838
50.3361
47.2918
44.2335
41.1862
38.1122
34.9091
31.5462
27.9937
24.2574
20.386
16.6404
13.1987
9.9181
6.74546
3.68067
0.688826
-2.13644
-4.92168
-7.7041
-10.531
-13.5106
-16.6436
-20.1887
-23.0617
-27.682
16.5211
10.4162
4.06326
-2.10925
-7.91489
-13.3012
-17.6898
-20.8307
-22.9143
-24.12
-24.7082
-24.8425
-24.5057
-23.7304
-22.7197
-21.7316
-20.9248
-20.262
-19.703
-19.3037
-18.9443
-18.2815
-17.4039
-16.8246
-16.6669
-16.6609
-16.6587
-17.0523
-18.4274
-20.4577
-21.9965
-22.2662
-20.695
-18.2469
-15.5806
-14.5325
-14.1244
-21.954
-34.5393
22.318
28.1135
34.203
40.5175
46.575
52.0259
56.4396
59.4456
60.9469
61.1246
60.1554
58.3222
55.9904
53.3887
50.6043
47.6765
44.6832
41.6611
38.5861
35.3888
32.0392
28.5194
24.8353
21.0391
17.3327
13.8676
10.5479
7.33028
4.21714
1.17579
-1.70237
-4.53726
-7.36512
-10.2325
-13.2449
-16.4012
-19.9573
-22.8118
-27.7251
18.9424
13.4527
7.70927
1.85165
-3.66055
-8.62117
-12.8402
-16.166
-18.5753
-20.0952
-20.8331
-21.0307
-20.9864
-20.9129
-20.8119
-20.5865
-20.2753
-19.8903
-19.4705
-19.1568
-18.893
-18.3146
-17.4519
-16.8416
-16.6685
-16.6735
-16.7145
-17.1514
-18.5356
-20.5349
-22.0294
-22.259
-20.6742
-18.2251
-15.5648
-14.5483
-14.1966
-22.0629
-35.1557
24.2015
29.6115
35.3059
41.0534
46.4396
51.2286
55.1084
57.8108
59.2825
59.6227
58.9513
57.477
55.4477
53.0535
50.4166
47.6095
44.7003
41.7259
38.6792
35.5159
32.2073
28.7378
25.1112
21.3756
17.6926
14.2064
10.8659
7.63042
4.49881
1.4389
-1.46294
-4.31854
-7.16567
-10.0501
-13.0754
-16.2372
-19.7921
-22.6488
-27.76
23.2012
18.5025
13.492
8.37503
3.4204
-1.28078
-5.54686
-9.23479
-12.2631
-14.6222
-16.3235
-17.4216
-18.0245
-18.3643
-18.694
-19.0244
-19.2536
-19.2582
-19.0704
-18.8962
-18.7534
-18.2782
-17.4491
-16.8196
-16.6464
-16.6836
-16.7862
-17.277
-18.6784
-20.6481
-22.0922
-22.2682
-20.6638
-18.2148
-15.5596
-14.5908
-14.3311
-22.2405
-35.7549
27.6138
32.0667
36.7469
41.5531
46.101
50.2155
53.624
56.0743
57.507
57.9732
57.5433
56.3686
54.6309
52.4897
50.0655
47.4332
44.6533
41.7659
38.78
35.6712
32.4161
29.0012
25.4321
21.7546
18.1037
14.613
11.2606
8.00848
4.85507
1.77126
-1.16261
-4.04695
-6.92147
-9.83098
-12.8765
-16.0508
-19.6125
-22.4869
-27.7618
24.9072
20.6979
16.1755
11.5036
6.94411
2.52569
-1.57971
-5.19987
-8.26826
-10.7693
-12.7245
-14.2023
-15.2712
-16.0171
-16.6331
-17.2822
-17.9332
-18.3642
-18.501
-18.5302
-18.5198
-18.1406
-17.3609
-16.741
-16.5933
-16.6919
-16.8742
-17.4222
-18.8433
-20.784
-22.1752
-22.2932
-20.6691
-18.2237
-15.5728
-14.6616
-14.5187
-22.4668
-36.4168
28.8711
32.8477
37.0281
41.2994
45.3224
48.9785
52.0453
54.3002
55.6944
56.2523
56.0155
55.1001
53.636
51.7504
49.5481
47.1011
44.4663
41.6878
38.784
35.7461
32.556
29.2048
25.6994
22.0846
18.4736
14.9879
11.6275
8.36184
5.19038
2.08705
-0.874889
-3.78397
-6.68249
-9.61386
-12.6774
-15.8614
-19.43
-22.331
-27.7386
26.2677
22.5154
18.4395
14.2176
10.0616
5.97126
2.09577
-1.43174
-4.54869
-7.23019
-9.45842
-11.2536
-12.6708
-13.7648
-14.6374
-15.479
-16.3981
-17.2142
-17.7336
-18.0297
-18.1703
-17.8778
-17.1605
-16.5885
-16.5018
-16.6947
-16.974
-17.5808
-19.0239
-20.9356
-22.2737
-22.3341
-20.6965
-18.2614
-15.6112
-14.7722
-14.7706
-22.7667
-37.1867
29.7963
33.3027
37.0045
40.8026
44.3838
47.6639
50.4469
52.5373
53.8873
54.5043
54.4193
53.7192
52.4985
50.8548
48.8758
46.6254
44.1559
41.5101
38.7113
35.7612
32.6501
29.3729
25.9394
22.3908
18.826
15.353
11.9909
8.71627
5.53154
2.41106
-0.577169
-3.51056
-6.43278
-9.38679
-12.4686
-15.6649
-19.2429
-22.1818
-27.7109
26.9717
23.5726
19.8547
15.9895
12.1781
8.37572
4.72706
1.35009
-1.7001
-4.39164
-6.71745
-8.68186
-10.3157
-11.6661
-12.7697
-13.7455
-14.7891
-15.8668
-16.7501
-17.3535
-17.6726
-17.4725
-16.8338
-16.3499
-16.3682
-16.6913
-17.0839
-17.7506
-19.2112
-21.0901
-22.3785
-22.3933
-20.7575
-18.3416
-15.6932
-14.9411
-15.0995
-23.1353
-38.0148
30.1709
33.3284
36.6726
40.1033
43.3365
46.3129
48.8611
50.8092
52.1097
52.7619
52.7932
52.2678
51.2574
49.8351
48.0725
46.0211
43.7273
41.2293
38.553
35.7058
32.6868
29.4944
26.1407
22.6633
19.1509
15.6998
12.3433
9.0651
5.87103
2.73651
-0.275421
-3.23151
-6.17632
-9.15197
-12.2518
-15.4599
-19.0479
-22.0367
-27.6571
27.3844
24.2797
20.8751
17.328
13.8186
10.2941
6.87504
3.66487
0.712884
-1.94964
-4.31821
-6.38952
-8.17132
-9.70512
-11.0186
-12.1368
-13.2289
-14.4224
-15.5741
-16.4776
-16.9984
-16.9108
-16.3759
-16.0203
-16.1883
-16.6744
-17.1937
-17.9187
-19.3859
-21.2307
-22.4799
-22.4673
-20.8531
-18.469
-15.8285
-15.1788
-15.5117
-23.5928
-38.9425
30.2856
33.1476
36.1827
39.3033
42.2448
44.965
47.311
49.1315
50.378
51.0468
51.1632
50.7775
49.9441
48.7195
47.1588
45.3023
43.1875
40.848
38.3074
35.5779
32.663
29.5665
26.3001
22.9006
19.4463
16.027
12.6826
9.40734
6.20779
3.06328
0.0297423
-2.94702
-5.91339
-8.91018
-12.0278
-15.2497
-18.8495
-21.8976
-27.6012
27.5257
24.6835
21.5463
18.2694
15.0307
11.7492
8.54534
5.51014
2.67509
0.0848653
-2.26475
-4.37574
-6.24261
-7.88822
-9.35389
-10.6307
-11.7767
-12.9865
-14.276
-15.4195
-16.1478
-16.199
-15.7995
-15.6121
-15.9697
-16.6425
-17.2998
-18.0777
-19.5347
-21.3451
-22.5702
-22.5557
-20.9911
-18.6551
-16.046
-15.5035
-16.0157
-24.1238
-39.9101
30.194
32.8042
35.5837
38.4428
41.1367
43.637
45.8071
47.5113
48.7
49.3711
49.548
49.2714
48.585
47.5326
46.1556
44.4841
42.5466
40.3705
37.9751
35.3745
32.5752
29.5843
26.4134
23.0982
19.7093
16.3307
13.0066
9.74044
6.54023
3.38971
0.33821
-2.65709
-5.64341
-8.65999
-11.7947
-15.0299
-18.641
-21.7581
-27.5143
27.5121
24.8898
21.9854
18.9507
15.9448
12.8898
9.88648
7.01878
4.31188
1.81031
-0.491716
-2.60193
-4.51174
-6.22523
-7.77875
-9.18741
-10.4247
-11.622
-12.935
-14.2258
-15.1433
-15.3582
-15.1266
-15.1422
-15.7194
-16.5886
-17.3879
-18.2124
-19.6424
-21.4232
-22.6404
-22.6574
-21.1737
-18.9064
-16.3598
-15.9214
-16.6174
-24.7608
-40.9956
29.9659
32.3626
34.9201
37.553
40.0321
42.3393
44.3546
45.9505
47.0791
47.7417
47.9595
47.7664
47.2004
46.2949
45.0824
43.5824
41.8165
39.8035
37.5594
35.0957
32.4216
29.5444
26.4775
23.2527
19.937
16.6072
13.3124
10.0612
6.86624
3.71339
0.647979
-2.36421
-5.36821
-8.40389
-11.5546
-14.8055
-18.429
-21.6226
-27.4251
27.3732
24.9429
22.2459
19.4218
16.6289
13.7713
10.9528
8.24794
5.66904
3.26556
1.03212
-1.04605
-2.96286
-4.71419
-6.31453
-7.80133
-9.14462
-10.3552
-11.6258
-12.9691
-14.037
-14.4313
-14.3944
-14.6365
-15.4513
-16.5157
-17.4548
-18.3194
-19.7052
-21.456
-22.6863
-22.7741
-21.4131
-19.2445
-16.7975
-16.4492
-17.3244
-25.4841
-42.1208
29.6425
31.8537
34.2174
36.6514
38.9417
41.0785
42.9536
44.4483
45.5158
46.1616
46.404
46.2744
45.8054
45.0244
43.9559
42.6128
41.0085
39.1553
37.0637
34.7426
32.2003
29.445
26.4889
23.3614
20.1258
16.854
13.5966
10.3677
7.18353
4.03348
0.95855
-2.06758
-5.08698
-8.13977
-11.3053
-14.5708
-18.2055
-21.4818
-27.3005
27.1423
24.8865
22.3733
19.7397
17.1311
14.4583
11.8092
9.25446
6.80457
4.50175
2.34702
0.319305
-1.57771
-3.34146
-4.96873
-6.48874
-7.91247
-9.17644
-10.3946
-11.7152
-12.8845
-13.4618
-13.6363
-14.1125
-15.1686
-16.4175
-17.4888
-18.3859
-19.7134
-21.4331
-22.7042
-22.9118
-21.7211
-19.691
-17.3605
-17.0887
-18.1454
-26.3346
-43.3796
29.2539
31.3006
33.4924
35.7505
37.8727
39.8551
41.6033
43.0026
44.0088
44.6314
44.8865
44.8036
44.4118
43.7348
42.7915
41.5892
40.1347
38.4349
36.494
34.318
31.9124
29.2851
26.4457
23.4221
20.2731
17.0678
13.8558
10.657
7.48916
4.34721
1.26676
-1.77002
-4.8031
-7.87091
-11.0503
-14.332
-17.9788
-21.3427
-27.1727
26.8506
24.7458
22.3989
19.9339
17.4968
14.9856
12.4928
10.082
7.75435
5.55218
3.48154
1.51611
-0.343198
-2.09627
-3.73597
-5.26816
-6.72994
-8.06576
-9.26401
-10.5222
-11.7451
-12.5009
-12.8942
-13.5981
-14.8821
-16.3013
-17.4923
-18.4145
-19.669
-21.3533
-22.6963
-23.0839
-22.1173
-20.2801
-18.0671
-17.8585
-19.0837
-27.2784
-44.6857
28.8171
30.7186
32.7574
34.8561
36.8276
38.6711
40.3016
41.6101
42.5559
43.1501
43.4086
43.3585
43.0282
42.4371
41.6015
40.5238
39.2069
37.6513
35.8574
33.8254
31.5594
29.0637
26.3465
23.4323
20.3769
17.2457
14.0878
10.9263
7.78163
4.65325
1.57282
-1.47095
-4.51463
-7.59493
-10.786
-14.0822
-17.7391
-21.1927
-27.0062
26.5094
24.5444
22.3455
20.0349
17.7474
15.3896
13.0392
10.7591
8.55022
6.44722
4.46195
2.56583
0.755245
-0.969913
-2.60629
-4.14333
-5.61044
-7.00224
-8.22614
-9.41938
-10.6538
-11.5759
-12.1894
-13.1059
-14.592
-16.1652
-17.4564
-18.3957
-19.5675
-21.2165
-22.6702
-23.3098
-22.6217
-21.0267
-18.912
-18.7594
-20.1451
-28.35
-46.1505
28.3469
30.1181
32.0178
33.9742
35.8083
37.5234
39.0457
40.2686
41.1546
41.7171
41.9713
41.9436
41.6606
41.1403
40.3962
39.4283
38.2355
36.8145
35.1609
33.2706
31.144
28.7823
26.1912
23.3913
20.4353
17.3853
14.2892
11.1726
8.05759
4.94842
1.87319
-1.17436
-4.2255
-7.31669
-10.5174
-13.8294
-17.4965
-21.0418
-26.8345
26.1342
24.2932
22.2311
20.059
17.9125
15.6887
13.4709
11.3155
9.21665
7.20988
5.30902
3.48584
1.73113
0.044387
-1.57359
-3.10973
-4.56978
-5.98543
-7.2653
-8.42365
-9.63995
-10.7089
-11.5439
-12.6549
-14.3116
-16.02
-17.3873
-18.3364
-19.4239
-21.0381
-22.6497
-23.6078
-23.2556
-21.9389
-19.9112
-19.806
-21.3227
-29.5006
-47.697
27.8537
29.506
31.2809
33.1051
34.8144
36.4134
37.833
38.9742
39.8013
40.3298
40.5737
40.5598
40.3129
39.8508
39.1839
38.3121
37.2303
35.9332
34.4115
32.6583
30.669
28.4426
25.9797
23.2982
20.4463
17.4848
14.458
11.3941
8.31561
5.23215
2.16783
-0.878477
-3.93348
-7.03224
-10.2399
-13.565
-17.2396
-20.874
-26.6214
25.7327
24.0077
22.0682
20.0242
18.0015
15.907
13.8103
11.7674
9.77503
7.86064
6.04109
4.29146
2.597
0.955482
-0.63253
-2.15891
-3.61122
-5.02312
-6.35863
-7.52781
-8.71138
-9.89608
-10.9501
-12.2418
-14.0376
-15.861
-17.2783
-18.2351
-19.2442
-20.8349
-22.658
-23.9949
-24.0316
-23.0132
-21.0604
-20.994
-22.6196
-30.7744
-49.4495
27.344
28.8888
30.5472
32.2529
33.8467
35.3368
36.6616
37.7245
38.4941
38.9864
39.216
39.2085
38.9888
38.5731
37.9717
37.1825
36.1999
35.0153
33.617
31.9944
30.1391
28.0465
25.713
23.1526
20.4095
17.5418
14.5913
11.5872
8.55222
5.5003
2.45264
-0.588
-3.64389
-6.74733
-9.96041
-13.2982
-16.9801
-20.702
-26.4013
25.3124
23.6915
21.8672
19.9395
18.0356
16.0542
14.0706
12.1361
10.2411
8.41524
6.67374
4.99641
3.36435
1.77199
0.220718
-1.28621
-2.73226
-4.12982
-5.49836
-6.71979
-7.87869
-9.13836
-10.3998
-11.8674
-13.7757
-15.6945
-17.1439
-18.1115
-19.0517
-20.6425
-22.7225
-24.4884
-24.9469
-24.2386
-22.3572
-22.3294
-24.0189
-32.1362
-51.3425
26.8245
28.2692
29.823
31.4159
32.9041
34.2945
35.528
36.5159
37.2293
37.6842
37.8962
37.8895
37.6897
37.3111
36.7646
36.0466
35.1517
34.0685
32.7843
31.2846
29.5587
27.5969
25.3929
22.9546
20.324
17.555
14.6877
11.75
8.76626
5.75207
2.728
-0.301556
-3.35332
-6.45763
-9.67249
-13.0197
-16.7052
-20.5075
-26.1376
24.8783
23.3558
21.6355
19.8167
18.0176
16.1467
14.267
12.4299
10.629
8.88771
7.22122
5.61367
4.04419
2.50315
0.991987
-0.487367
-1.92463
-3.30962
-4.68405
-5.97419
-7.13833
-8.42769
-9.86697
-11.5093
-13.5153
-15.512
-16.988
-17.9647
-18.8568
-20.4798
-22.8557
-25.0932
-25.9865
-25.5904
-23.778
-23.808
-25.5339
-33.6583
-53.5099
26.298
27.6516
29.1056
30.5974
31.986
33.2814
34.4302
35.3464
36.0049
36.4219
36.6132
36.6034
36.4168
36.068
35.5667
34.9103
34.0918
33.1
31.92
30.5354
28.9325
27.0979
25.0213
22.7058
20.1896
17.5234
14.7447
11.8798
8.95373
5.98341
2.98874
-0.0244702
-3.0682
-6.17059
-9.38462
-12.7403
-16.4279
-20.3056
-25.8648
24.4346
23.0009
21.3798
19.6608
17.9632
16.1891
14.4073
12.6648
10.9497
9.28869
7.69392
6.1536
4.64565
3.157
1.68746
0.240013
-1.18278
-2.56152
-3.92607
-5.2744
-6.48595
-7.7737
-9.34011
-11.1514
-13.2527
-15.3176
-16.8278
-17.8114
-18.6918
-20.3817
-23.0859
-25.8099
-27.1293
-27.0363
-25.2968
-25.4194
-27.1607
-35.3559
-55.9266
25.7686
27.0363
28.4005
29.7938
31.0907
32.2991
33.3651
34.2128
34.8175
35.1967
35.3653
35.3491
35.1706
34.8451
34.3813
33.7776
33.0259
32.1158
31.0303
29.7527
28.2654
26.5531
24.6005
22.4076
20.0069
17.4469
14.7612
11.9758
9.11363
6.19417
3.23532
0.245366
-2.78507
-5.88023
-9.08962
-12.4489
-16.1347
-20.0759
-25.5472
23.984
22.6356
21.1044
19.4795
17.8719
16.194
14.5023
12.8447
11.2129
9.6277
8.10125
6.62527
5.17742
3.74116
2.31414
0.900328
-0.5016
-1.87683
-3.22967
-4.60835
-5.89846
-7.18068
-8.8052
-10.7648
-12.9665
-15.1012
-16.6606
-17.6605
-18.5756
-20.3751
-23.4263
-26.6207
-28.3477
-28.5568
-26.8937
-27.1579
-28.9442
-37.3838
-58.7877
25.2376
26.4266
27.7034
29.009
30.2181
31.3421
32.3319
33.1135
33.666
34.0069
34.152
34.1261
33.9521
33.6441
33.2115
32.6522
31.9593
31.1211
30.1215
28.9417
27.563
25.9669
24.1347
22.0621
19.7771
17.3251
14.7364
12.035
9.24281
6.37983
3.46287
0.501476
-2.51076
-5.59542
-8.7972
-12.1582
-15.8395
-19.8364
-25.2189
23.5287
22.2579
20.8136
19.2755
17.7568
16.1627
14.5567
12.9823
11.426
9.91243
8.45079
7.03589
5.6459
4.26111
2.87722
1.49747
0.120615
-1.24874
-2.59687
-3.98032
-5.35415
-6.65842
-8.27499
-10.3384
-12.6455
-14.8641
-16.4994
-17.5484
-18.5517
-20.5064
-23.8965
-27.5112
-29.6174
-30.1205
-28.538
-28.9902
-30.895
-39.8188
-62.143
24.7077
25.8215
27.0201
28.2384
29.3667
30.4132
31.3278
32.0456
32.5477
32.8504
32.9712
32.9336
32.7608
32.4657
32.0588
31.5372
30.8953
30.1209
29.1986
28.1081
26.8303
25.3436
23.6273
21.6716
19.5018
17.1586
14.6702
12.0572
9.34112
6.54035
3.67241
0.746106
-2.24118
-5.30969
-8.49863
-11.8558
-15.5275
-19.5654
-24.8452
23.071
21.8754
20.5097
19.0548
17.6145
16.1054
14.5784
13.0785
11.5963
10.1502
8.74978
7.3923
6.05744
4.72286
3.38202
2.03711
0.68734
-0.670151
-2.0199
-3.3956
-4.82953
-6.19465
-7.7653
-9.8616
-12.2674
-14.5891
-16.3378
-17.486
-18.6316
-20.7743
-24.475
-28.4426
-30.9035
-31.6954
-30.2084
-30.9061
-33.0712
-42.7808
-66.1842
24.179
25.2238
26.345
27.4858
28.5358
29.5065
30.3518
31.0086
31.4611
31.7266
31.8219
31.7713
31.5964
31.3111
30.9245
30.4354
29.8372
29.1194
28.2659
27.257
26.072
24.6882
23.0818
21.2395
19.1828
16.9486
14.5621
12.0411
9.4052
6.67228
3.8583
0.973354
-1.98471
-5.03198
-8.20573
-11.5551
-15.2147
-19.2814
-24.4583
22.6121
21.4847
20.1964
18.8183
17.4565
16.0209
14.5698
13.1438
11.7287
10.3465
9.00433
7.70062
6.41807
5.13199
3.83386
2.52418
1.20186
-0.138741
-1.49095
-2.86105
-4.3203
-5.77051
-7.30238
-9.35396
-11.8286
-14.2704
-16.1747
-17.4817
-18.8195
-21.1749
-25.1463
-29.3964
-32.177
-33.2384
-31.8546
-32.8665
-35.4491
-46.175
-70.8522
23.6538
24.6322
25.6839
26.7463
27.7243
28.6254
29.4016
29.9997
30.4041
30.633
30.7026
30.6378
30.4589
30.1801
29.81
29.3481
28.7878
28.1199
27.3278
26.3929
25.293
24.0051
22.5022
20.7692
18.8225
16.6968
14.4129
11.9872
9.43551
6.77602
4.0221
1.18537
-1.73663
-4.75581
-7.90839
-11.243
-14.8845
-18.9635
-24.026
22.1534
21.093
19.8747
18.5704
17.2779
15.9183
14.5371
13.1773
11.8286
10.5069
9.22013
7.96711
6.73403
5.49455
4.23846
2.96398
1.66947
0.348838
-1.00057
-2.37197
-3.82948
-5.35578
-6.8897
-8.84033
-11.3235
-13.8894
-15.9862
-17.5078
-19.0793
-21.6626
-25.8593
-30.3282
-33.389
-34.7038
-33.4418
-34.8723
-38.0251
-49.8469
-76.065
23.1317
24.0487
25.0309
26.0245
26.9318
27.7639
28.4772
29.0184
29.3766
29.5691
29.6131
29.5325
29.3482
29.0729
28.7162
28.2767
27.7498
27.1248
26.3882
25.5197
24.4979
23.2984
21.8933
20.264
18.4241
16.4045
14.2237
11.8942
9.43049
6.84775
4.15942
1.37561
-1.50462
-4.49176
-7.6184
-10.9349
-14.5532
-18.6321
-23.5796
21.6951
20.6958
19.5471
18.3113
17.0894
15.7949
14.4817
13.1885
11.8994
10.6354
9.40173
8.19702
7.01081
5.81605
4.60076
3.36128
2.09469
0.79558
-0.544724
-1.92057
-3.36812
-4.93664
-6.51745
-8.35837
-10.7745
-13.4418
-15.7587
-17.5441
-19.3875
-22.2065
-26.5839
-31.2094
-34.5022
-36.0357
-34.9148
-36.8858
-40.6725
-53.4719
-81.4873
22.6144
23.4719
24.3922
25.315
26.1573
26.9263
27.5761
28.0627
28.376
28.533
28.5514
28.4547
28.2634
27.9898
27.6433
27.2235
26.7237
26.1375
25.4497
24.6413
23.6907
22.5726
21.2586
19.7275
17.9904
16.0744
13.996
11.7638
9.39077
6.88912
4.27168
1.54695
-1.28431
-4.23238
-7.32607
-10.6165
-14.2042
-18.2663
-23.0887
21.2389
20.3002
19.214
18.045
16.8848
15.659
14.4087
13.1743
11.9455
10.7365
9.55344
8.39514
7.25355
6.10189
4.92597
3.72135
2.48307
1.20675
-0.118897
-1.49578
-2.93672
-4.51097
-6.15436
-7.92353
-10.2094
-12.9228
-15.4655
-17.5495
-19.6913
-22.7436
-27.2551
-31.979
-35.455
-37.1732
-36.2435
-38.8991
-43.2632
-56.7942
-86.8393
22.1012
22.9039
23.7613
24.6222
25.4003
26.1063
26.6984
27.1327
27.4022
27.5246
27.5172
27.4041
27.2044
26.9309
26.5929
26.1877
25.7127
25.1593
24.5153
23.7607
22.8747
21.8317
20.6021
19.1637
17.5245
15.7093
13.7311
11.5965
9.31515
6.8976
4.3546
1.69401
-1.08383
-3.98744
-7.04412
-10.3031
-13.8553
-17.8867
-22.5828
20.7849
19.9009
18.8778
17.7707
16.6742
15.5066
14.3178
13.1438
11.9692
10.8125
9.67862
8.56492
7.46621
6.35611
5.21871
4.04857
2.83971
1.58721
0.28004
-1.09156
-2.53036
-4.09058
-5.77786
-7.53309
-9.66543
-12.3473
-15.0912
-17.4924
-19.9487
-23.2274
-27.8286
-32.5989
-36.2006
-38.0584
-37.3798
-40.8424
-45.5595
-59.5981
-91.8585
21.5938
22.3428
23.1444
23.9409
24.6602
25.3086
25.8422
26.2259
26.4534
26.5421
26.5094
26.3794
26.171
25.8967
25.5634
25.1718
24.7166
24.1935
23.5868
22.881
22.0533
21.0792
19.9279
18.5763
17.0301
15.3118
13.4316
11.3941
9.20562
6.87491
4.41051
1.81956
-0.898213
-3.75034
-6.7621
-9.98106
-13.489
-17.4737
-22.0344
20.334
19.5048
18.5384
17.4916
16.4506
15.346
14.2137
13.0931
11.9737
10.8673
9.78045
8.70991
7.65269
6.58284
5.48336
4.34781
3.16975
1.94271
0.656818
-0.702256
-2.1382
-3.68037
-5.37675
-7.15639
-9.1621
-11.7354
-14.6173
-17.3257
-20.0942
-23.5826
-28.2314
-33.0031
-36.6722
-38.6324
-38.2956
-42.6294
-47.3733
-61.8612
-96.5405
21.0911
21.7906
22.5351
23.2759
23.9366
24.5274
25.008
25.3431
25.5297
25.5854
25.5278
25.3809
25.1634
24.8858
24.557
24.175
23.7386
23.2398
22.6679
22.0042
21.2296
20.3183
19.2394
17.9688
16.5106
14.8849
13.1
11.1576
9.06209
6.81938
4.43656
1.91856
-0.734557
-3.53039
-6.49237
-9.6656
-13.123
-17.0485
-21.4723
19.8858
19.1063
18.1975
17.2069
16.2244
15.1721
14.096
13.031
11.9606
10.9028
9.86137
8.83281
7.81571
6.78537
5.72346
4.62314
3.47712
2.27765
1.01514
-0.325373
-1.75312
-3.28006
-4.95797
-6.76377
-8.69899
-11.1156
-14.0438
-17.0166
-20.078
-23.7526
-28.4129
-33.1478
-36.8234
-38.8452
-38.9388
-44.0862
-48.5153
-63.6656
-101.023
20.5947
21.2456
21.9397
22.6216
23.2293
23.7672
24.1938
24.482
24.6294
24.6532
24.5712
24.4075
24.1805
23.8994
23.5724
23.1993
22.778
22.302
21.7588
21.1337
20.4066
19.5524
18.54
17.3449
15.9693
14.4319
12.7389
10.8899
8.88695
6.73362
4.435
1.99469
-0.588107
-3.32087
-6.225
-9.34372
-12.7411
-16.5931
-20.871
19.4417
18.7123
17.8547
16.9196
15.9874
14.993
13.9689
12.9521
11.9331
10.9219
9.92428
8.93646
7.95859
6.96691
5.94257
4.878
3.7653
2.59566
1.35906
0.0420488
-1.36924
-2.88089
-4.52755
-6.33426
-8.24862
-10.5053
-13.3764
-16.534
-19.8441
-23.6685
-28.3037
-32.9688
-36.5934
-38.6517
-39.2519
-45.0273
-48.9267
-65.1978
-105.477
20.1036
20.7096
21.3515
21.9831
22.5375
23.0223
23.4005
23.6434
23.7528
23.7455
23.6395
23.4592
23.2218
22.9367
22.6105
22.2446
21.8366
21.3796
20.8627
20.2714
19.5872
18.7842
17.8331
16.7081
15.41
13.9561
12.3512
10.5929
8.68105
6.61708
4.40416
2.04388
-0.464806
-3.13023
-5.97145
-9.02972
-12.3602
-16.1275
-20.2586
19.0011
18.3168
17.5121
16.6284
15.7498
14.803
13.8308
12.8654
11.8919
10.9257
9.97106
9.02298
8.08335
7.12996
6.14326
5.11505
4.03676
2.89904
1.69153
0.402284
-0.984126
-2.4756
-4.08802
-5.86497
-7.77657
-9.90807
-12.6357
-15.8691
-19.3606
-23.2877
-27.8612
-32.4254
-35.9463
-38.0201
-39.1461
-45.2516
-48.6102
-66.5681
-109.706
19.6189
20.1807
20.777
21.3547
21.8609
22.2976
22.6259
22.8257
22.8985
22.8612
22.7318
22.5351
22.2875
21.9971
21.6714
21.3112
20.9146
20.4745
19.9807
19.4204
18.773
18.0171
17.1217
16.0616
14.8361
13.461
11.9401
10.2696
8.44737
6.47274
4.3469
2.07001
-0.359961
-2.95169
-5.72263
-8.71151
-11.9655
-15.6361
-19.6119
18.5651
17.9266
17.1688
16.3358
15.5031
14.6103
13.6856
12.7651
11.8393
10.917
10.0038
9.09455
8.19249
7.27704
6.32798
5.33661
4.29387
3.19042
2.01579
0.758865
-0.59493
-2.05715
-3.63395
-5.35998
-7.25388
-9.30505
-11.8415
-15.0257
-18.6065
-22.5738
-27.0419
-31.4702
-34.8495
-36.9224
-38.5311
-44.6342
-47.6703
-67.7249
-113.014
19.1398
19.6609
20.2094
20.7417
21.1992
21.5873
21.8713
22.0296
22.0669
22.0005
21.8483
21.6352
21.3769
21.0814
20.7551
20.3997
20.0128
19.5877
19.1154
18.5805
17.9676
17.2532
16.409
15.4089
14.2508
12.9499
11.5088
9.92272
8.18761
6.30111
4.26258
2.07048
-0.278135
-2.79245
-5.48833
-8.40204
-11.5731
-15.1377
-18.9584
18.1326
17.5353
16.8263
16.0405
15.2578
14.4084
13.5319
12.6597
11.776
10.8964
10.0238
9.15293
8.28772
7.40987
6.49863
5.54476
4.53902
3.47237
2.33459
1.11491
-0.199799
-1.62271
-3.15885
-4.82379
-6.66884
-8.66762
-11.009
-14.028
-17.5876
-21.5217
-25.8344
-30.0858
-33.3016
-35.345
-37.3173
-43.1206
-46.1752
-68.3084
-114.201
18.6674
19.1482
19.6554
20.1384
20.5523
20.8965
21.1348
21.2532
21.2569
21.1624
20.9883
20.7592
20.4904
20.189
19.8619
19.5104
19.1318
18.7203
18.2658
17.7553
17.1719
16.4953
15.6979
14.7528
13.6575
12.426
11.0606
9.55541
7.90504
6.10553
4.15451
2.04914
-0.214618
-2.64623
-5.26046
-8.0908
-11.1697
-14.6184
-18.2767
17.7051
17.15
16.4836
15.7449
15.0043
14.2052
13.3732
12.5423
11.7041
10.8659
10.033
9.19999
8.37117
7.53058
6.65732
5.74173
4.77473
3.74769
2.65093
1.47367
0.204256
-1.16992
-2.6565
-4.25601
-6.02256
-7.96732
-10.1392
-12.9079
-16.3258
-20.1429
-24.243
-28.2679
-31.3121
-33.2826
-35.4525
-40.7573
-44.154
-67.742
-112.149
18.2006
18.6445
19.1083
19.5501
19.9197
20.2195
20.4175
20.4978
20.4689
20.3474
20.1519
19.9071
19.6278
19.3209
18.9921
18.6437
18.2723
17.8727
17.4343
16.9449
16.3881
15.7466
14.991
14.0962
13.0592
11.8928
10.5988
9.17076
7.6021
5.88753
4.02312
2.00485
-0.172477
-2.51858
-5.04712
-7.78873
-10.7698
-14.0959
-17.5935
17.2817
16.7639
16.1426
15.4475
14.753
13.994
13.2073
12.4218
11.6235
10.8258
10.0323
9.23685
8.44412
7.64061
6.80566
5.92948
5.00331
4.01904
2.96734
1.83773
0.619189
-0.698294
-2.12439
-3.6538
-5.32225
-7.18799
-9.22143
-11.7001
-14.8625
-18.4749
-22.3035
-26.0472
-28.9129
-30.7497
-32.9291
-37.6356
-41.511
-65.3815
-106.258
17.7407
18.1481
18.5744
18.9712
19.3014
19.5612
19.7175
19.7616
19.7017
19.5545
19.3385
19.0788
18.79
18.4757
18.1468
17.7992
17.4356
17.0446
16.6225
16.1502
15.6201
15.0079
14.2909
13.4421
12.4589
11.3533
10.1267
8.77204
7.28212
5.65045
3.87197
1.94145
-0.147191
-2.40379
-4.84119
-7.48715
-10.3624
-13.5586
-16.8894
16.8635
16.3842
15.802
15.1501
14.4943
13.7828
13.0372
12.291
11.5356
10.7778
10.0227
9.26465
8.50798
7.74151
6.9453
6.10981
5.2267
4.28836
3.28555
2.20831
1.04629
-0.207796
-1.56276
-3.01461
-4.57605
-6.32904
-8.24026
-10.4322
-13.2489
-16.5692
-20.0694
-23.4754
-26.1384
-27.774
-29.7922
-33.8776
-38.1216
-60.83
-96.6938
17.2865
17.6605
18.0472
18.4071
18.6968
18.9165
19.0362
19.0457
18.9562
18.7843
18.5487
18.275
17.9748
17.6567
17.3227
16.9804
16.6188
16.2404
15.8278
15.3762
14.8658
14.2826
13.6
12.7932
11.8598
10.8109
9.64763
8.36261
6.94813
5.3968
3.7025
1.85912
-0.140253
-2.30553
-4.64887
-7.19508
-9.96012
-13.022
-16.19
16.4493
16.0041
15.4633
14.8514
14.2388
13.5642
12.8611
12.158
11.4402
10.7216
10.0047
9.28388
8.56332
7.83388
7.07715
6.28365
5.44597
4.55623
3.60586
2.58505
1.48509
0.30022
-0.974452
-2.33883
-3.78925
-5.40163
-7.18474
-9.12167
-11.5409
-14.4908
-17.6126
-20.6261
-23.0381
-24.417
-26.1416
-29.5951
-33.8611
-54.0658
-84.1647
16.8394
17.1803
17.5332
17.8521
18.1063
18.2899
18.3718
18.3485
18.2311
18.0358
17.7818
17.4943
17.1849
16.8593
16.5252
16.1823
15.8276
15.4552
15.0565
14.6191
14.1299
13.5719
12.9202
12.152
11.2644
10.2684
9.16459
7.94564
6.60335
5.1298
3.51814
1.76154
-0.147547
-2.21898
-4.46417
-6.90533
-9.55411
-12.477
-15.4773
16.0405
15.6306
15.1252
14.5534
13.9763
13.3459
12.6818
12.0151
11.3386
10.6583
9.97884
9.295
8.61061
7.91848
7.20174
6.45165
5.66106
4.82238
3.92706
2.96659
1.93343
0.823531
-0.363884
-1.63006
-2.96703
-4.42404
-6.05586
-7.77621
-9.79059
-12.3079
-15.0107
-17.5843
-19.6772
-20.786
-22.1297
-24.9131
-28.7501
-45.5203
-69.8842
16.3982
16.7088
17.0259
17.3115
17.5293
17.6765
17.7256
17.6712
17.5271
17.3096
17.0379
16.7372
16.4185
16.087
15.7509
15.4091
15.0587
14.6937
14.3056
13.8829
13.4123
12.8769
12.2541
11.5214
10.6757
9.72878
8.68103
7.52461
6.2512
4.85257
3.32134
1.65011
-0.169067
-2.14596
-4.29132
-6.62488
-9.15463
-11.9365
-14.7755
15.6362
15.257
14.7895
14.2545
13.7171
13.1207
12.4965
11.8704
11.23
10.5872
9.94492
9.29788
8.64955
7.99494
7.31878
6.61323
5.87096
5.08508
4.24703
3.3501
2.38765
1.35809
0.262971
-0.895807
-2.11485
-3.41439
-4.86776
-6.39845
-8.04143
-10.0893
-12.3459
-14.4497
-16.1551
-17.0174
-17.9387
-19.9787
-22.9813
-35.9621
-55.159
15.9639
16.2447
16.5315
16.78
16.966
17.0809
17.0961
17.0124
16.8434
16.605
16.3167
16.0036
15.6759
15.3391
15.001
14.6602
14.3136
13.9552
13.5769
13.1677
12.7138
12.2001
11.6041
10.9027
10.0961
9.19496
8.19977
7.10245
5.89467
4.56812
3.11516
1.52806
-0.201308
-2.08253
-4.1257
-6.34816
-8.75507
-11.3937
-14.0677
15.2374
14.89
14.4548
13.9562
13.4514
12.8964
12.3079
11.7164
11.115
10.5089
9.90313
9.29228
8.68008
8.0629
7.42788
6.76716
6.07421
5.34176
4.563
3.73165
2.8438
1.89839
0.900251
-0.145966
-1.2412
-2.38906
-3.6468
-4.99296
-6.32529
-7.89898
-9.69665
-11.3302
-12.6064
-13.2346
-13.7346
-14.9862
-16.9171
-26.2786
-41.1787
15.5355
15.7892
16.0437
16.2627
16.416
16.4985
16.4846
16.3733
16.1807
15.9226
15.6185
15.2936
14.9577
14.6159
14.2759
13.9359
13.5928
13.2407
12.8714
12.4744
12.0365
11.543
10.9703
10.2988
9.52814
8.66961
7.7239
6.68245
5.53716
4.2798
2.90261
1.39777
-0.243012
-2.02898
-3.96956
-6.0801
-8.36335
-10.8589
-13.3764
14.8426
14.523
14.1224
13.6573
13.1893
12.6652
12.1138
11.5606
10.9927
10.4227
9.85253
9.27764
8.70117
8.12149
7.52752
6.91194
6.26817
5.58996
4.8713
4.10759
3.29628
2.43837
1.53984
0.608776
-0.358328
-1.36097
-2.42327
-3.57241
-4.66085
-5.79469
-7.13333
-8.32515
-9.16433
-9.53278
-9.66662
-10.181
-11.011
-17.2634
-28.7411
15.1141
15.3411
15.5686
15.7545
15.8797
15.9337
15.8896
15.7525
15.5381
15.2617
14.9431
14.6073
14.2638
13.9175
13.5759
13.2367
12.8968
12.5504
12.1897
11.804
11.381
10.9054
10.3553
9.71131
8.97362
8.15549
7.25595
6.26715
5.18132
3.9903
2.68642
1.26189
-0.291381
-1.98228
-3.81955
-5.81669
-7.97469
-10.3273
-12.6856
14.4534
14.1627
13.7909
13.3593
12.9207
12.4346
11.9166
11.395
10.864
10.3286
9.79307
9.25335
8.71216
8.16973
7.61636
7.04546
6.45043
5.82643
5.16828
4.47316
3.7396
2.97102
2.17351
1.35715
0.519268
-0.344349
-1.22549
-2.16362
-3.05549
-3.82432
-4.71459
-5.51078
-5.9381
-6.00271
-5.85686
-5.80507
-5.70194
-9.4908
-18.2748
14.6986
14.9016
15.1004
15.2602
15.3565
15.3819
15.3124
15.1513
14.9163
14.6229
14.2907
13.9448
13.5945
13.2442
12.9011
12.5627
12.226
11.8851
11.5323
11.1571
10.7478
10.2892
9.75996
9.14109
8.43575
7.65494
6.79852
5.85957
4.83041
3.70297
2.46979
1.12333
-0.344296
-1.94152
-3.67635
-5.56088
-7.5947
-9.8063
-12.0158
14.0687
13.8024
13.4619
13.0606
12.6553
12.1975
11.7135
11.2272
10.7275
10.2254
9.72395
9.21835
8.71203
8.20587
7.69258
7.16515
6.61837
6.0477
5.45028
4.82345
4.16803
3.48847
2.79196
2.08772
1.37334
0.646616
-0.0735474
-0.802231
-1.51325
-2.01857
-2.49148
-2.93804
-3.01721
-2.76446
-2.40494
-2.00887
-1.28651
-3.26423
-9.82704
14.2901
14.4695
14.6446
14.775
14.8469
14.8473
14.7517
14.5684
14.3146
14.0056
13.6612
13.3062
12.9497
12.596
12.2518
11.9145
11.581
11.2452
10.8999
10.5346
10.1379
9.69529
9.18543
8.59171
7.91614
7.16985
6.3541
5.46224
4.48686
3.42016
2.25506
0.98428
-0.399656
-1.9045
-3.53776
-5.31003
-7.2202
-9.29295
-11.3519
13.6895
13.4487
13.134
12.7626
12.3838
11.9607
11.5068
11.0497
10.5836
10.1138
9.64461
9.17221
8.69942
8.22882
7.75388
7.26895
6.76878
6.25092
5.71288
5.15378
4.57507
3.98323
3.38543
2.78719
2.19127
1.59473
1.0179
0.477105
-0.0492792
-0.383864
-0.510594
-0.637263
-0.462326
0.0699489
0.626826
1.18378
2.12436
1.34681
-3.33322
13.8876
14.0459
14.1959
14.3037
14.3503
14.326
14.2086
14.0047
13.7336
13.4104
13.0548
12.6917
12.3298
11.9731
11.6282
11.2922
10.9619
10.6312
10.293
9.937
9.55231
9.12471
8.63388
8.06354
7.41556
6.70212
5.92485
5.07763
4.15345
3.14482
2.04521
0.847642
-0.45493
-1.86954
-3.40329
-5.06555
-6.85473
-8.79204
-10.7122
13.3147
13.0955
12.8084
12.4639
12.1152
11.7173
11.2943
10.8693
10.4315
9.99245
9.55431
9.11367
8.67336
8.23656
7.79843
7.3541
6.89925
6.43248
5.95238
5.45877
4.95441
4.44696
3.94347
3.44282
2.95881
2.48228
2.0362
1.65056
1.30601
1.09175
1.19438
1.36821
1.70825
2.43129
3.17726
3.78978
4.63886
4.51815
1.31883
13.4921
13.63
13.7595
13.8417
13.8674
13.8217
13.6819
13.4594
13.1727
12.8368
12.4714
12.1012
11.7347
11.3758
11.0306
10.6962
10.3691
10.0433
9.71205
9.36495
8.99176
8.57846
8.1056
7.55738
6.93594
6.25384
5.51306
4.70807
3.83229
2.87923
1.84237
0.715252
-0.508434
-1.83531
-3.27159
-4.82602
-6.49653
-8.30232
-10.0824
12.9456
12.7487
12.484
12.1662
11.8407
11.4738
11.0779
10.6789
10.2717
9.86148
9.4528
9.04216
8.63268
8.22777
7.82433
7.41849
7.00712
6.58921
6.16451
5.73318