/*--------------------------------*- C++ -*----------------------------------*\
  =========                 |
  \\      /  F ield         | OpenFOAM: The Open Source CFD Toolbox
   \\    /   O peration     | Website:  https://openfoam.org
    \\  /    A nd           | Version:  9
     \\/     M anipulation  |
\*---------------------------------------------------------------------------*/
FoamFile
{
    format      ascii;
    class       volVectorField;
    location    "240";
    object      U;
}
// * * * * * * * * * * * * * * * * * * * * * * * * * * * * * * * * * * * * * //

dimensions      [0 1 -1 0 0 0 0];

internalField   nonuniform List<vector> 
10720
(
(-0.230846 10.544 1.29736e-18)
(0.414716 11.1298 -1.2362e-18)
(1.17297 11.6439 0)
(1.99027 11.9347 -8.30358e-17)
(2.82176 12.0482 9.1361e-17)
(3.61686 11.9736 6.15507e-17)
(4.3045 11.6061 9.46153e-17)
(4.84078 10.9417 0)
(5.17002 9.95398 0)
(5.23378 8.65104 0)
(4.99026 7.08804 2.94147e-17)
(4.42862 5.38009 0)
(3.60499 3.7174 6.20518e-16)
(2.6365 2.30127 0)
(1.66561 1.25793 0)
(0.842074 0.605045 0)
(0.107169 0.167405 -4.89191e-15)
(-0.317608 -0.0206915 -5.80801e-15)
(-0.595842 -0.0990422 4.41322e-15)
(-0.836934 -0.1224 0)
(-0.941551 -0.12426 3.67135e-15)
(-0.711359 -0.138455 -7.13832e-15)
(-0.272572 -0.164511 4.0706e-15)
(0.218625 -0.152721 -1.28198e-16)
(0.578652 -0.0736182 0)
(0.675601 0.00429763 1.49725e-15)
(0.941351 -0.00952941 1.49969e-17)
(1.69681 -0.0961697 -3.12213e-16)
(2.67398 -0.186729 -9.97996e-16)
(3.54448 -0.275611 -3.68636e-15)
(4.11035 -0.358436 1.82051e-15)
(4.27636 -0.427226 3.64778e-15)
(4.04333 -0.462543 3.26089e-15)
(3.67249 -0.478685 1.14153e-14)
(3.57648 -0.547931 -4.59947e-15)
(3.86918 -0.669052 -3.09223e-17)
(5.06562 -1.00783 2.65041e-17)
(7.66661 -1.61773 1.29142e-14)
(8.09302 -2.07056 -1.68543e-14)
(-0.776 9.86461 -1.60942e-18)
(-1.25324 9.05105 -6.71686e-18)
(-1.63939 8.0893 2.2909e-17)
(-1.87709 6.90883 -6.41121e-17)
(-1.90768 5.64409 -1.8483e-16)
(-1.70101 4.33296 2.96798e-16)
(-1.25185 3.05577 1.31946e-15)
(-0.597916 1.91245 6.95373e-16)
(0.158049 0.98728 0)
(0.920608 0.246255 0)
(1.7324 -0.406621 1.59256e-15)
(2.55893 -0.906558 5.56734e-16)
(3.32786 -1.23761 -8.84166e-16)
(4.01759 -1.43888 7.2258e-16)
(4.64091 -1.5565 1.19963e-15)
(5.21288 -1.61759 7.74625e-16)
(5.73957 -1.6387 1.00586e-15)
(6.22761 -1.63167 6.77912e-16)
(6.68882 -1.6069 0)
(7.13476 -1.56798 0)
(7.5738 -1.51557 -9.97915e-16)
(8.01007 -1.44541 -4.91125e-17)
(8.44444 -1.35089 7.36926e-16)
(8.86609 -1.21946 -5.53326e-16)
(9.25075 -1.04802 8.75803e-18)
(9.5911 -0.850343 0)
(9.89657 -0.63638 1.19714e-16)
(10.1731 -0.411876 0)
(10.4253 -0.181276 0)
(10.6527 0.0525988 1.01123e-17)
(10.8573 0.285058 0)
(11.0476 0.51376 2.05907e-16)
(11.2287 0.737305 5.94248e-16)
(11.4101 0.955658 3.99768e-15)
(11.5931 1.16935 -1.96842e-15)
(11.8129 1.38576 8.24691e-18)
(11.9725 1.6029 0)
(12.4016 1.83624 -5.94601e-15)
(11.7284 2.20328 -6.75447e-15)
(2.04654 9.26893 -5.23212e-18)
(2.69169 9.73285 3.92576e-18)
(3.45153 10.1119 0)
(4.29202 10.3759 0)
(5.14949 10.5115 -2.29483e-17)
(6.00737 10.5283 -5.70373e-17)
(6.82619 10.4984 0)
(7.53852 10.4401 0)
(8.1046 10.3565 8.96683e-17)
(8.47719 10.1846 0)
(8.59304 9.80506 3.09062e-16)
(8.36146 9.05286 0)
(7.69997 7.82502 1.11614e-16)
(6.60119 6.19975 -1.29701e-16)
(5.19247 4.44345 2.92242e-16)
(3.71991 2.87459 -7.58339e-16)
(2.37268 1.66266 1.0569e-15)
(1.33983 0.854813 1.39008e-15)
(0.711431 0.396604 1.77664e-15)
(0.211253 0.151504 1.30141e-16)
(-0.228762 0.0547907 -2.25607e-15)
(-0.192724 -0.0233874 2.01361e-15)
(0.164615 -0.149831 -1.02543e-16)
(0.5142 -0.167957 0)
(0.693734 -0.0677575 0)
(0.739461 -1.49932e-05 0)
(1.09556 -0.0918933 4.97031e-17)
(1.89434 -0.234202 -9.17322e-18)
(2.85207 -0.324491 5.06383e-16)
(3.68228 -0.381862 -2.32123e-18)
(4.20695 -0.423194 4.08693e-19)
(4.33451 -0.458076 -1.82296e-17)
(4.16204 -0.478384 1.80352e-15)
(3.80788 -0.494068 -2.97216e-15)
(3.67205 -0.588033 -1.81286e-17)
(4.05696 -0.769918 -3.85926e-15)
(5.46319 -1.22984 0)
(8.17365 -1.89289 -3.43262e-15)
(9.1681 -2.08459 -9.85166e-15)
(1.4785 8.74361 7.04288e-18)
(0.96738 8.13129 -2.22249e-17)
(0.48711 7.38473 -2.3428e-16)
(0.0926565 6.50032 2.65498e-16)
(-0.154898 5.50424 0)
(-0.219671 4.43375 -4.88091e-16)
(-0.0801889 3.34663 -3.24062e-16)
(0.260979 2.32389 -2.45451e-15)
(0.76723 1.42992 1.08371e-15)
(1.37979 0.665359 -1.10399e-15)
(2.05376 0.0359433 1.34769e-15)
(2.75506 -0.428734 -3.81415e-16)
(3.44087 -0.745766 0)
(4.08758 -0.957227 -2.70698e-16)
(4.6926 -1.0981 1.45602e-17)
(5.26018 -1.18498 -6.27424e-16)
(5.79136 -1.23065 0)
(6.28977 -1.24693 0)
(6.76382 -1.24453 -6.87908e-17)
(7.22403 -1.22485 6.51278e-17)
(7.67751 -1.18619 -8.05478e-16)
(8.12865 -1.12213 -9.03309e-17)
(8.57799 -1.02491 4.02313e-17)
(9.01705 -0.881122 4.87418e-16)
(9.42617 -0.694675 -3.85637e-16)
(9.79612 -0.489753 -2.87643e-16)
(10.133 -0.276616 0)
(10.4414 -0.0587169 0)
(10.7254 0.161412 0)
(10.9848 0.382385 3.48781e-18)
(11.2208 0.599397 0)
(11.4417 0.811713 0)
(11.6523 1.01896 -9.83018e-16)
(11.8614 1.22166 -1.32264e-15)
(12.0698 1.42204 1.6262e-15)
(12.3128 1.6286 -1.88228e-15)
(12.4986 1.84408 4.30163e-15)
(12.9582 2.09529 4.79378e-15)
(12.4512 2.35214 5.3444e-15)
(2.22332 8.59146 -1.41361e-18)
(2.66823 9.00422 -1.68036e-17)
(3.19442 9.37947 1.28213e-17)
(3.77704 9.68954 5.84299e-18)
(4.39112 9.90051 -1.39899e-17)
(5.03227 9.99979 6.33947e-17)
(5.66076 9.98629 -4.98942e-17)
(6.27048 9.87268 -5.9166e-17)
(6.87578 9.70262 -6.68249e-18)
(7.46487 9.54557 -8.06967e-17)
(8.01761 9.45561 4.951e-17)
(8.47484 9.38437 -1.56372e-16)
(8.68102 9.10359 -6.55702e-17)
(8.41793 8.31813 0)
(7.55928 6.93963 -1.78382e-16)
(6.20949 5.20589 4.13242e-16)
(4.63152 3.49379 0)
(3.16047 2.10597 -1.2927e-15)
(2.0373 1.15849 -8.24622e-16)
(1.16366 0.590451 1.19756e-16)
(0.515592 0.292066 -1.3014e-16)
(0.357044 0.0739941 -5.98204e-17)
(0.538327 -0.14437 -7.95822e-16)
(0.717658 -0.190946 4.26561e-16)
(0.775095 -0.0740609 0)
(0.804126 -0.0243433 3.63632e-16)
(1.19356 -0.186 -2.92353e-17)
(1.97909 -0.369816 0)
(2.88995 -0.448594 3.20576e-16)
(3.66196 -0.460625 6.67368e-16)
(4.12649 -0.443974 -1.40825e-15)
(4.19947 -0.430624 -1.37426e-15)
(3.96668 -0.418807 -1.98498e-17)
(3.59453 -0.433377 -1.8751e-15)
(3.51385 -0.574762 -1.53083e-15)
(4.03435 -0.828251 2.43423e-15)
(5.63987 -1.40328 0)
(8.46461 -2.0766 -2.25798e-15)
(9.80858 -2.3581 1.35561e-14)
(1.84613 8.13212 -8.53588e-18)
(1.50604 7.60545 -2.4808e-17)
(1.20459 6.9593 9.46907e-17)
(0.948759 6.20651 0)
(0.788751 5.37251 1.55777e-16)
(0.747095 4.47273 0)
(0.841324 3.54424 9.4618e-16)
(1.07555 2.64521 5.92107e-16)
(1.43853 1.8253 7.10339e-16)
(1.90721 1.10343 0)
(2.45068 0.49607 -1.23243e-15)
(3.03453 0.0154719 -2.72804e-16)
(3.62562 -0.350062 1.23682e-15)
(4.20244 -0.623364 0)
(4.75677 -0.823057 -6.03175e-16)
(5.28728 -0.961886 -1.83206e-16)
(5.79304 -1.05198 7.86738e-16)
(6.27529 -1.10556 4.17056e-16)
(6.73934 -1.13228 1.19328e-16)
(7.19279 -1.13503 -6.18435e-17)
(7.64141 -1.11324 7.00692e-16)
(8.08856 -1.06351 0)
(8.53432 -0.980449 0)
(8.97158 -0.856126 7.32387e-18)
(9.38446 -0.694327 0)
(9.76425 -0.512156 5.53748e-16)
(10.1151 -0.316269 -7.3485e-18)
(10.4413 -0.109332 -3.53863e-17)
(10.7467 0.105498 0)
(11.0311 0.326539 -1.11627e-17)
(11.2959 0.547438 -2.19524e-17)
(11.5486 0.767358 0)
(11.7937 0.985404 4.57485e-16)
(12.0395 1.20159 0)
(12.2859 1.41753 0)
(12.5653 1.64003 1.962e-17)
(12.7918 1.87535 -5.42353e-17)
(13.2577 2.11875 -4.78886e-15)
(12.9228 2.41846 -1.07493e-14)
(3.00551 7.96715 -7.64669e-18)
(3.39571 8.32982 -1.12708e-17)
(3.85361 8.66327 1.65042e-17)
(4.36267 8.94096 1.63133e-17)
(4.90175 9.14046 0)
(5.46284 9.2577 0)
(6.01911 9.28898 -4.81916e-17)
(6.5467 9.23742 8.92567e-17)
(7.01078 9.11486 0)
(7.40563 8.94416 -1.04442e-16)
(7.74803 8.77768 -1.45323e-16)
(8.08304 8.71432 -1.16027e-16)
(8.44342 8.79453 1.33214e-16)
(8.7126 8.78772 1.11375e-16)
(8.59111 8.26902 0)
(7.84337 7.04339 1.87277e-16)
(6.51535 5.33761 7.84655e-17)
(4.92833 3.59771 7.8844e-16)
(3.44747 2.17864 6.22168e-17)
(2.21361 1.20579 -7.5656e-17)
(1.31115 0.622101 7.42329e-16)
(0.924945 0.223181 -1.26778e-16)
(0.904699 -0.097878 6.11003e-16)
(0.917836 -0.184671 2.94733e-16)
(0.865903 -0.0693911 -1.90603e-17)
(0.871872 -0.0559887 -2.28997e-16)
(1.24825 -0.288914 1.30207e-18)
(1.98627 -0.509271 -9.66057e-19)
(2.83297 -0.570284 -2.30124e-16)
(3.53741 -0.531657 -7.68419e-18)
(3.93558 -0.453849 5.23896e-16)
(3.95066 -0.389161 -1.01299e-15)
(3.66549 -0.345998 -7.83543e-16)
(3.27923 -0.36498 -1.08985e-17)
(3.26057 -0.560912 1.06821e-15)
(3.92948 -0.89775 0)
(5.71126 -1.58102 1.20589e-15)
(8.62664 -2.26594 1.6054e-15)
(10.1833 -2.53798 -4.92907e-15)
(2.66742 7.57075 -1.22984e-17)
(2.35671 7.12396 3.85775e-17)
(2.07264 6.57935 1.44773e-16)
(1.82643 5.94069 0)
(1.66002 5.23061 -1.3897e-16)
(1.59091 4.45775 0)
(1.63344 3.65037 -7.88215e-16)
(1.79136 2.85756 -2.86366e-17)
(2.05798 2.11748 5.38812e-16)
(2.41943 1.44668 5.20017e-16)
(2.85499 0.862942 1.50929e-17)
(3.33873 0.379854 8.85101e-16)
(3.84629 -0.00606829 -6.02905e-16)
(4.35871 -0.30649 1.88977e-16)
(4.86473 -0.533974 6.70013e-16)
(5.35936 -0.700466 7.55664e-16)
(5.83948 -0.817099 -6.90495e-16)
(6.30401 -0.89436 -2.03936e-19)
(6.75545 -0.940635 0)
(7.19879 -0.959582 7.66613e-16)
(7.63847 -0.951577 3.94772e-17)
(8.07707 -0.914492 -6.08456e-16)
(8.51436 -0.844145 0)
(8.94411 -0.73451 6.42262e-18)
(9.35289 -0.587543 0)
(9.73212 -0.416757 -2.44708e-16)
(10.0842 -0.229881 0)
(10.413 -0.030971 3.17693e-17)
(10.7223 0.176314 -8.10431e-19)
(11.012 0.390471 4.02085e-19)
(11.2837 0.604917 1.83267e-17)
(11.5448 0.819232 1.1425e-18)
(11.7999 1.03269 0)
(12.0576 1.24547 -5.18803e-16)
(12.3184 1.45929 -9.25206e-18)
(12.6134 1.68028 1.61703e-15)
(12.8621 1.91717 -7.53715e-15)
(13.34 2.14731 -1.57662e-17)
(13.1169 2.46838 0)
(3.43525 7.50032 -1.12436e-17)
(3.74534 7.82956 -9.57843e-18)
(4.11517 8.14319 3.30429e-17)
(4.52601 8.41719 -9.55158e-17)
(4.96179 8.63086 1.91173e-17)
(5.42266 8.78278 1.71998e-17)
(5.88751 8.86485 1.51672e-17)
(6.33876 8.87509 0)
(6.76929 8.81498 9.31199e-17)
(7.16314 8.69193 6.35726e-17)
(7.50616 8.51721 0)
(7.79612 8.3308 1.14034e-16)
(8.07618 8.25953 -5.24873e-17)
(8.41568 8.40182 1.26652e-16)
(8.70871 8.50702 0)
(8.60473 8.06035 -2.10615e-16)
(7.82568 6.83357 2.15651e-16)
(6.45904 5.11142 -1.5036e-17)
(4.86259 3.38935 0)
(3.35944 2.02018 4.64527e-16)
(2.18951 1.09238 -5.45211e-16)
(1.54956 0.458256 -3.17347e-17)
(1.29767 0.00441084 -4.41954e-16)
(1.14026 -0.140195 -4.20376e-16)
(0.979543 -0.0480448 0)
(0.943064 -0.0844287 0)
(1.26894 -0.388147 -3.20067e-17)
(1.93482 -0.643543 -3.21262e-18)
(2.70422 -0.685239 1.8589e-16)
(3.33325 -0.593725 -6.02392e-18)
(3.66063 -0.452057 5.87234e-18)
(3.61656 -0.332804 7.45599e-16)
(3.28359 -0.259639 0)
(2.89673 -0.290858 2.00229e-15)
(2.95629 -0.552554 -7.00629e-18)
(3.7843 -0.983373 0)
(5.72029 -1.77071 1.39278e-17)
(8.7035 -2.45732 0)
(10.4185 -2.67318 3.94882e-15)
(3.16863 7.14489 1.67602e-17)
(2.92468 6.75003 -8.443e-17)
(2.69892 6.27061 9.00484e-17)
(2.4968 5.7104 1.2186e-16)
(2.35497 5.09173 -4.80605e-16)
(2.2865 4.41621 -5.77886e-16)
(2.30453 3.70496 6.7232e-16)
(2.415 2.99986 -8.37735e-16)
(2.61556 2.33128 -4.44317e-16)
(2.89926 1.71266 -4.03453e-16)
(3.25223 1.16175 7.70369e-16)
(3.65503 0.69171 -7.43485e-16)
(4.09018 0.302087 -3.3702e-16)
(4.542 -0.0135226 3.24374e-16)
(4.99917 -0.26261 -7.32843e-16)
(5.45529 -0.454355 1.33099e-16)
(5.90607 -0.596961 0)
(6.34894 -0.698273 -5.43782e-16)
(6.78428 -0.765132 1.95238e-16)
(7.21485 -0.801649 -7.77974e-16)
(7.64374 -0.808893 0)
(8.07264 -0.785538 5.13231e-16)
(8.50088 -0.728233 4.10732e-16)
(8.9228 -0.632907 -3.32316e-16)
(9.32682 -0.500923 0)
(9.70454 -0.343501 -2.32049e-16)
(10.0569 -0.168408 0)
(10.3869 0.0200842 0)
(10.698 0.218812 0)
(10.9904 0.426061 1.53323e-17)
(11.2655 0.635397 0)
(11.5301 0.846099 0)
(11.7893 1.05738 3.28983e-16)
(12.0514 1.2691 4.72184e-16)
(12.3173 1.48321 0)
(12.617 1.70459 1.42322e-15)
(12.8754 1.94397 3.18963e-17)
(13.3549 2.1668 0)
(13.2072 2.49093 4.56692e-15)
(3.88132 7.10491 1.65108e-17)
(4.14512 7.40455 -1.25713e-17)
(4.46103 7.69506 0)
(4.81197 7.95341 1.18759e-18)
(5.18439 8.16183 6.68238e-17)
(5.58146 8.32094 -1.6278e-17)
(5.98564 8.42308 1.17886e-17)
(6.38326 8.46587 7.60105e-19)
(6.76423 8.45361 -2.67426e-17)
(7.11056 8.39432 7.6862e-17)
(7.4164 8.29429 -3.03137e-17)
(7.67688 8.14836 6.9541e-17)
(7.89119 7.98306 3.24489e-17)
(8.1199 7.95062 1.3697e-17)
(8.4506 8.16311 0)
(8.72749 8.29018 -4.18307e-17)
(8.5321 7.75812 -9.52501e-17)
(7.62187 6.41861 -3.97845e-16)
(6.16665 4.65955 1.47175e-16)
(4.54721 2.99514 -2.33131e-16)
(3.14555 1.71417 -4.54729e-17)
(2.23991 0.801172 0)
(1.7394 0.178123 3.57925e-16)
(1.39577 -0.0507317 2.27561e-17)
(1.1208 -0.00444817 -1.09837e-17)
(1.02047 -0.10181 -1.31212e-16)
(1.26617 -0.476745 2.31274e-17)
(1.83987 -0.767934 4.17121e-17)
(2.52078 -0.790618 -1.51736e-16)
(3.06767 -0.644516 -9.97488e-18)
(3.32188 -0.437014 3.39857e-16)
(3.21759 -0.261813 5.9572e-16)
(2.84144 -0.161847 0)
(2.47442 -0.215885 8.51832e-18)
(2.63172 -0.555789 -6.82506e-16)
(3.626 -1.08803 0)
(5.69157 -1.97244 -1.51509e-15)
(8.71907 -2.65015 0)
(10.5629 -2.79067 -3.19799e-15)
(3.65381 6.78494 -1.61906e-17)
(3.44557 6.43355 3.8047e-17)
(3.25103 6.0084 0)
(3.07463 5.51119 0)
(2.94811 4.96394 2.13982e-16)
(2.88076 4.36477 1.0001e-15)
(2.88336 3.73031 0)
(2.96199 3.09693 -6.78928e-16)
(3.11641 2.49048 -7.0384e-16)
(3.34363 1.92143 6.92773e-16)
(3.63341 1.40608 -1.93924e-17)
(3.97117 0.956006 3.08657e-16)
(4.34464 0.57209 8.04941e-18)
(4.74167 0.251061 8.36166e-16)
(5.15227 -0.0106915 7.693e-16)
(5.57004 -0.219464 -7.27208e-16)
(5.99029 -0.380941 1.06298e-16)
(6.40955 -0.501117 -1.98218e-16)
(6.82674 -0.585359 9.20854e-17)
(7.24281 -0.637579 5.53284e-16)
(7.65947 -0.658994 7.21921e-17)
(8.07756 -0.648861 -5.59338e-17)
(8.49602 -0.604367 -3.45432e-16)
(8.90958 -0.522863 0)
(9.3081 -0.405437 1.5498e-17)
(9.68342 -0.261316 4.14968e-16)
(10.0352 -0.0977273 -2.21755e-18)
(10.3657 0.0808439 2.15472e-18)
(10.6778 0.271346 0)
(10.9719 0.471643 -1.40084e-17)
(11.2492 0.67553 0)
(11.5162 0.881938 0)
(11.7779 1.09012 -2.93639e-16)
(12.0425 1.29972 -4.14072e-16)
(12.3111 1.51292 0)
(12.6128 1.73335 -1.2864e-15)
(12.8776 1.97372 6.01577e-15)
(13.3542 2.18975 -2.49573e-17)
(13.2706 2.51362 -4.07571e-15)
(4.24399 6.78382 2.13806e-18)
(4.46503 7.06049 -1.22898e-17)
(4.733 7.33356 3.31977e-17)
(5.03061 7.5808 -3.33114e-17)
(5.34652 7.78654 -4.07468e-17)
(5.68607 7.95327 0)
(6.03422 8.07323 4.21186e-17)
(6.3796 8.1431 7.26499e-18)
(6.71783 8.1649 -2.441e-17)
(7.03627 8.14126 -4.38349e-17)
(7.32639 8.08214 0)
(7.58334 7.99401 -1.17711e-16)
(7.79639 7.86124 -1.08227e-16)
(7.96549 7.71827 -2.48068e-16)
(8.18346 7.75837 0)
(8.52934 8.04108 -1.30511e-16)
(8.73893 8.08944 -1.34034e-16)
(8.35909 7.34745 1.6281e-16)
(7.2539 5.83883 -1.90873e-16)
(5.69938 4.05754 2.24003e-16)
(4.15037 2.47486 3.50728e-17)
(2.99339 1.26442 -3.59384e-16)
(2.23895 0.437908 0)
(1.68924 0.0903654 -3.13661e-16)
(1.29124 0.0673597 1.74833e-17)
(1.10927 -0.101101 1.20051e-16)
(1.25147 -0.548912 0)
(1.71515 -0.87934 -2.02045e-18)
(2.29731 -0.884616 6.34249e-18)
(2.75621 -0.68214 2.65648e-16)
(2.93261 -0.407704 -2.77322e-16)
(2.7644 -0.176378 -5.11835e-16)
(2.35259 -0.0555146 4.20863e-16)
(2.03248 -0.146038 3.97182e-18)
(2.3102 -0.577625 5.74973e-16)
(3.47023 -1.21517 8.82876e-16)
(5.6378 -2.18752 6.47606e-16)
(8.68729 -2.84678 -1.43624e-17)
(10.6417 -2.90021 8.70246e-18)
(4.05332 6.4911 7.44703e-18)
(3.87957 6.173 7.47847e-17)
(3.71563 5.78918 8.7628e-17)
(3.56464 5.34089 -1.68625e-16)
(3.45468 4.84984 -6.04858e-16)
(3.39262 4.3115 2.04056e-16)
(3.3874 3.73938 5.133e-16)
(3.44517 3.16526 1.47387e-15)
(3.56753 2.61206 6.09961e-16)
(3.7535 2.08844 -5.72417e-16)
(3.9949 1.60828 -1.59769e-17)
(4.28085 1.18166 -2.77841e-16)
(4.60274 0.8096 0)
(4.9515 0.49073 -1.05739e-17)
(5.31898 0.223628 -4.68649e-16)
(5.69965 0.00424065 2.10851e-16)
(6.08897 -0.171235 -2.04211e-16)
(6.48318 -0.306812 0)
(6.88034 -0.406434 3.24959e-16)
(7.28017 -0.473178 -5.80655e-16)
(7.68314 -0.508167 0)
(8.08931 -0.510775 4.40949e-16)
(8.49723 -0.479043 0)
(8.90196 -0.410983 -1.81077e-17)
(9.29439 -0.30787 1.75638e-17)
(9.6666 -0.176872 -1.95969e-16)
(10.0172 -0.0249575 -3.43448e-18)
(10.3477 0.143658 -2.06473e-18)
(10.6605 0.325503 4.07163e-19)
(10.9561 0.518583 -1.71286e-17)
(11.2354 0.716678 1.42491e-18)
(11.5044 0.918674 -6.41227e-17)
(11.7681 1.12363 -3.04774e-18)
(12.0346 1.33111 9.67097e-18)
(12.3051 1.54337 0)
(12.6076 1.76287 -2.00887e-17)
(12.8777 2.0041 -2.68824e-15)
(13.349 2.21535 4.68432e-18)
(13.3242 2.53734 -3.75916e-15)
(4.57255 6.51405 3.23307e-18)
(4.76148 6.77165 2.24033e-17)
(4.99285 7.02869 0)
(5.24981 7.26445 -7.58839e-18)
(5.52252 7.46443 -5.42814e-17)
(5.81733 7.63252 0)
(6.12136 7.76152 3.24865e-17)
(6.42517 7.84771 -5.32747e-17)
(6.72582 7.89271 2.46257e-17)
(7.01272 7.89884 -1.12623e-17)
(7.2776 7.87112 2.13118e-17)
(7.5172 7.82056 1.19118e-16)
(7.72942 7.74636 8.8718e-17)
(7.89713 7.62098 1.24322e-16)
(8.03495 7.51937 3.12949e-17)
(8.27838 7.67094 9.95774e-17)
(8.6324 7.98317 1.27049e-16)
(8.69391 7.83055 1.20639e-16)
(8.0509 6.79274 -1.02107e-16)
(6.73373 5.11427 -3.97109e-16)
(5.15702 3.34119 0)
(3.7949 1.84951 9.72898e-18)
(2.78812 0.792535 2.64717e-16)
(2.02255 0.292007 2.66408e-16)
(1.49119 0.172511 -1.41727e-17)
(1.21605 -0.0757051 -1.02412e-16)
(1.23683 -0.598612 6.59172e-19)
(1.57392 -0.973869 -3.77825e-17)
(2.04764 -0.963973 3.59991e-18)
(2.411 -0.704967 -4.79423e-16)
(2.5016 -0.363088 2.28401e-19)
(2.26585 -0.0768325 -7.33079e-18)
(1.83383 0.0550641 -3.84559e-16)
(1.59021 -0.0878507 5.43469e-18)
(2.01071 -0.623874 -5.09072e-16)
(3.32453 -1.36631 -1.52295e-15)
(5.56565 -2.41625 5.84982e-16)
(8.61805 -3.04927 7.66445e-16)
(10.6712 -3.00708 -2.51788e-15)
(4.41012 6.244 -3.11113e-17)
(4.26235 5.9534 -1.0456e-16)
(4.12229 5.60333 -7.24216e-17)
(3.99193 5.19488 -1.65922e-16)
(3.89636 4.74925 3.54689e-16)
(3.84051 4.26035 -1.19131e-17)
(3.83161 3.73948 -1.39489e-15)
(3.87574 3.21495 -5.31653e-16)
(3.97563 2.70746 1.808e-18)
(4.13123 2.22449 0)
(4.33556 1.77767 -4.92663e-16)
(4.5803 1.37562 4.68176e-16)
(4.85941 1.01907 -4.53443e-16)
(5.16635 0.707441 -2.29097e-16)
(5.49478 0.44051 2.01141e-16)
(5.84044 0.215755 1.96797e-16)
(6.1993 0.0309458 7.23043e-16)
(6.56783 -0.116281 -1.71171e-16)
(6.94375 -0.228551 -3.01888e-16)
(7.32596 -0.307993 0)
(7.71398 -0.35545 -4.73833e-16)
(8.10718 -0.370291 -3.62708e-16)
(8.5038 -0.351011 -5.56581e-18)
(8.89915 -0.296116 -3.98024e-17)
(9.28482 -0.206937 -1.3941e-17)
(9.65317 -0.0888916 2.10223e-16)
(10.002 0.0513695 -4.10509e-18)
(10.3319 0.209895 3.14423e-17)
(10.6451 0.382903 4.84756e-18)
(10.9418 0.568527 1.52595e-17)
(11.2229 0.760663 -3.21807e-18)
(11.4937 0.958032 1.22617e-16)
(11.7592 1.15957 2.19831e-16)
(12.0273 1.36476 3.39916e-16)
(12.2994 1.57596 1.35872e-17)
(12.6022 1.79451 -7.36567e-18)
(12.877 2.03647 2.47559e-15)
(13.3419 2.24477 2.84075e-15)
(13.3721 2.56538 3.42238e-15)
(4.86343 6.28754 -1.17042e-17)
(5.02535 6.5287 -9.82896e-18)
(5.2259 6.77243 -6.48826e-17)
(5.44868 6.99818 2.41385e-16)
(5.68524 7.19259 -1.05455e-16)
(5.94232 7.36092 8.09786e-17)
(6.20837 7.49594 -1.13566e-16)
(6.47597 7.59406 0)
(6.74271 7.65647 -1.1814e-17)
(7.00171 7.68437 6.75395e-19)
(7.24519 7.68063 -7.1093e-18)
(7.46859 7.65209 -1.01185e-16)
(7.67134 7.6112 -5.44077e-17)
(7.84885 7.54156 0)
(7.97563 7.41918 0)
(8.11122 7.39762 0)
(8.41064 7.67649 0)
(8.71899 7.91451 -1.1264e-16)
(8.5313 7.43211 1.23088e-16)
(7.57903 6.06619 1.44916e-16)
(6.10887 4.26078 -1.46216e-16)
(4.61839 2.54516 1.60599e-16)
(3.37924 1.24739 -1.8324e-16)
(2.39715 0.561731 -1.29688e-17)
(1.72492 0.31656 -6.10174e-18)
(1.34826 -0.0198289 9.58107e-17)
(1.23415 -0.619851 1.90572e-17)
(1.42946 -1.04661 0)
(1.78465 -1.02584 0)
(2.04354 -0.711374 -1.03792e-18)
(2.04142 -0.302201 0)
(1.73906 0.0346973 4.35682e-16)
(1.30991 0.163302 -3.70485e-16)
(1.16955 -0.0487423 -5.92785e-16)
(1.74792 -0.698969 8.96315e-16)
(3.19097 -1.54129 6.75784e-16)
(5.47849 -2.65815 -5.18009e-16)
(8.5181 -3.25869 -1.40233e-15)
(10.6629 -3.11342 2.26043e-15)
(4.72508 6.03624 0)
(4.59956 5.76768 3.12588e-17)
(4.48027 5.44532 1.35734e-16)
(4.36811 5.06941 -5.76953e-16)
(4.2859 4.66109 4.74379e-16)
(4.23684 4.21311 -3.62788e-16)
(4.22693 3.73471 -6.23125e-19)
(4.26253 3.25216 4.27608e-16)
(4.34677 2.78425 4.38013e-16)
(4.47979 2.3375 0)
(4.65562 1.92154 2.10984e-16)
(4.86756 1.54383 -6.35002e-16)
(5.11142 1.2047 1.0188e-15)
(5.3825 0.903636 1.90279e-16)
(5.67618 0.640975 -3.81517e-16)
(5.98939 0.415136 -3.59344e-16)
(6.31896 0.225077 -3.34609e-16)
(6.66184 0.0695707 0)
(7.01583 -0.0526928 0)
(7.37936 -0.143027 0)
(7.75135 -0.201671 4.43894e-16)
(8.13062 -0.228061 0)
(8.51519 -0.220698 -2.93069e-16)
(8.9005 -0.178647 -3.76412e-17)
(9.27876 -0.102787 -2.33451e-16)
(9.64248 0.00235906 -1.85191e-16)
(9.9888 0.131112 0)
(10.3178 0.279303 -2.58781e-17)
(10.6309 0.443388 -5.01048e-18)
(10.9284 0.621208 8.02443e-19)
(11.211 0.807247 6.61056e-18)
(11.4834 0.99966 -5.5763e-18)
(11.7506 1.19761 -2.09591e-16)
(12.0201 1.40032 2.99666e-16)
(12.2936 1.61035 0)
(12.5962 1.82784 1.70643e-17)
(12.8755 2.07038 -4.21782e-17)
(13.3328 2.27728 -2.67293e-15)
(13.4144 2.59626 2.20975e-17)
(5.1276 6.09442 1.20988e-17)
(5.267 6.32202 0)
(5.44205 6.55374 1.30075e-16)
(5.63669 6.77022 -1.21582e-16)
(5.84343 6.95875 4.78114e-17)
(6.06922 7.12546 -7.64128e-17)
(6.30365 7.2636 5.85415e-17)
(6.54063 7.36962 4.97169e-17)
(6.77819 7.44427 0)
(7.01185 7.48842 4.75672e-18)
(7.23369 7.50458 -1.27388e-18)
(7.44035 7.49592 1.02198e-18)
(7.62855 7.47213 6.33824e-17)
(7.80251 7.44065 3.76424e-17)
(7.94477 7.36311 -1.07544e-16)
(8.03872 7.26075 -8.11718e-17)
(8.2163 7.37324 6.13413e-17)
(8.56704 7.73327 4.59343e-17)
(8.72187 7.73473 -2.3152e-17)
(8.18894 6.82674 2.90594e-17)
(6.94973 5.16772 9.15244e-17)
(5.43038 3.32601 2.05712e-17)
(4.00514 1.80267 -2.26501e-17)
(2.81893 0.906563 -1.49698e-16)
(1.99864 0.507318 0)
(1.51285 0.0721839 -8.20567e-17)
(1.2547 -0.606503 -3.54582e-17)
(1.29539 -1.09223 -2.9678e-17)
(1.52157 -1.06737 -1.07061e-16)
(1.66884 -0.699375 4.47346e-16)
(1.56941 -0.224745 2.16825e-16)
(1.20691 0.15407 8.37357e-18)
(0.808504 0.261464 -3.37214e-18)
(0.790656 -0.0358034 0)
(1.52908 -0.804985 -4.0368e-16)
(3.0682 -1.73852 0)
(5.37818 -2.9124 0)
(8.39277 -3.47638 6.54476e-16)
(10.6243 -3.22217 -1.32107e-17)
(5.0088 5.85894 -3.8356e-17)
(4.9019 5.60921 1.14183e-16)
(4.80005 5.3099 2.28548e-18)
(4.70364 4.96131 1.30574e-16)
(4.63349 4.58414 -4.40604e-16)
(4.59144 4.17062 3.26687e-16)
(4.5821 3.7279 1.45721e-17)
(4.61272 3.28121 -3.67002e-16)
(4.68607 2.84779 -3.57751e-16)
(4.80222 2.43317 -3.67518e-16)
(4.95599 2.04542 -7.32112e-16)
(5.14181 1.69116 0)
(5.35667 1.3701 -3.69778e-16)
(5.59727 1.08158 -9.6084e-18)
(5.86033 0.826129 0)
(6.14394 0.602607 -3.20565e-16)
(6.44585 0.410736 -1.52742e-16)
(6.76367 0.250117 -1.44632e-16)
(7.0955 0.120369 5.12481e-16)
(7.43969 0.0210819 4.63496e-16)
(7.79481 -0.0474164 -4.96384e-17)
(8.15934 -0.0844064 3.67474e-16)
(8.53112 -0.0883913 7.79739e-17)
(8.90577 -0.0585854 -3.56565e-17)
(9.27593 0.00439101 2.07684e-16)
(9.63424 0.0969055 1.24099e-17)
(9.97737 0.21415 0)
(10.3048 0.351972 0)
(10.6174 0.506963 -8.33966e-19)
(10.9154 0.676832 1.48905e-18)
(11.1991 0.856554 -1.2726e-17)
(11.4731 1.04381 -5.34415e-18)
(11.7417 1.23794 -1.86832e-16)
(12.0125 1.43797 -2.83737e-16)
(12.2871 1.64669 -1.31958e-17)
(12.5895 1.86315 -3.29709e-18)
(12.8728 2.10608 -4.28207e-15)
(13.3221 2.3133 2.4764e-15)
(13.4513 2.63109 -2.05432e-17)
(5.36773 5.92914 5.38471e-18)
(5.48817 6.14479 0)
(5.64173 6.36587 -6.32829e-17)
(5.81246 6.57389 0)
(5.99399 6.75683 8.86569e-17)
(6.19322 6.92151 -8.91886e-17)
(6.40051 7.06113 -6.84126e-17)
(6.61103 7.17248 -4.7067e-17)
(6.8231 7.25627 0)
(7.03352 7.31264 3.71917e-17)
(7.23564 7.34371 1.06581e-17)
(7.42658 7.35246 -2.19165e-17)
(7.60187 7.34233 -2.06222e-17)
(7.76354 7.32725 -1.98963e-17)
(7.91293 7.29625 6.94436e-17)
(8.01476 7.20345 7.87859e-17)
(8.10493 7.17304 -8.3894e-17)
(8.36723 7.45007 -7.57244e-17)
(8.69446 7.74938 0)
(8.55152 7.34065 2.40755e-17)
(7.63387 5.99217 -5.44425e-17)
(6.1948 4.1537 1.61479e-17)
(4.65208 2.44902 -1.26023e-19)
(3.28715 1.33001 3.25447e-16)
(2.31519 0.751501 -1.83037e-17)
(1.71417 0.205564 9.65228e-18)
(1.30895 -0.553006 3.34361e-17)
(1.18531 -1.10541 3.24029e-17)
(1.27294 -1.08544 9.40023e-17)
(1.30385 -0.667355 -2.15274e-16)
(1.1054 -0.131466 -2.03933e-16)
(0.695378 0.275825 -7.93359e-16)
(0.355862 0.341954 6.62744e-16)
(0.468969 -0.0550644 -9.08823e-18)
(1.35377 -0.941834 3.8508e-16)
(2.95341 -1.95569 -1.37409e-17)
(5.26572 -3.17806 7.1872e-18)
(8.24536 -3.70338 -1.26706e-17)
(10.5606 -3.33515 2.08652e-15)
(5.26611 5.7071 2.22218e-17)
(5.17496 5.47307 -5.58312e-17)
(5.08831 5.19329 1.07489e-16)
(5.00579 4.8679 0)
(4.94656 4.51721 2.65294e-16)
(4.91142 4.13299 0)
(4.90391 3.72086 0)
(4.93191 3.30505 0)
(4.99776 2.90184 6.60366e-16)
(5.1013 2.51571 -3.25463e-16)
(5.23797 2.15363 3.49413e-16)
(5.4029 1.82153 0)
(5.59389 1.5185 0)
(5.80868 1.24362 -3.2421e-16)
(6.045 0.997323 0)
(6.30195 0.778726 2.98722e-16)
(6.57813 0.587755 5.70699e-18)
(6.87188 0.424737 0)
(7.18176 0.289917 -3.65116e-16)
(7.50629 0.183652 -5.47945e-16)
(7.84395 0.106666 -3.86175e-16)
(8.19304 0.0601308 -3.42284e-16)
(8.55139 0.045506 5.91642e-16)
(8.91481 0.0637496 0)
(9.27617 0.114309 2.00386e-16)
(9.6283 0.194645 1.85826e-16)
(9.96752 0.300405 6.85533e-17)
(10.2927 0.42793 0)
(10.6044 0.57363 -4.33571e-18)
(10.9024 0.73543 -1.92334e-17)
(11.187 0.908516 1.70027e-17)
(11.4622 1.0905 -5.12599e-18)
(11.7322 1.28046 1.67411e-16)
(12.004 1.47769 -2.40233e-16)
(12.2796 1.68481 3.07536e-18)
(12.5815 1.90027 -1.17515e-17)
(12.8685 2.14337 4.01327e-15)
(13.3093 2.35211 -2.3039e-15)
(13.4824 2.66875 -5.55362e-15)
(5.58859 5.7865 4.24016e-18)
(5.69287 5.99154 -1.86079e-17)
(5.82795 6.20312 0)
(5.97831 6.40352 -1.09193e-16)
(6.13836 6.58107 0)
(6.31489 6.74299 0)
(6.49902 6.88304 4.65843e-18)
(6.68663 6.99782 -5.12306e-17)
(6.87655 7.0881 -8.82055e-17)
(7.06577 7.15373 -1.12667e-16)
(7.24988 7.19623 -3.56776e-17)
(7.4252 7.21908 -1.03082e-17)
(7.58862 7.2233 0)
(7.73773 7.21666 4.85331e-17)
(7.87998 7.21054 -1.95969e-17)
(7.99919 7.16314 0)
(8.06346 7.07625 6.13568e-17)
(8.20688 7.19408 7.46349e-17)
(8.545 7.57612 0)
(8.69148 7.59672 7.37384e-17)
(8.13438 6.67278 -8.59761e-17)
(6.87784 4.9809 0)
(5.30167 3.16867 -1.5519e-17)
(3.79646 1.83248 2.71272e-18)
(2.67501 1.05465 7.84032e-18)
(1.95249 0.384293 1.415e-16)
(1.40551 -0.455023 1.75763e-20)
(1.11204 -1.08087 -3.65983e-18)
(1.05342 -1.077 -3.58466e-18)
(0.965997 -0.613775 6.33955e-18)
(0.669748 -0.0240645 2.18284e-16)
(0.230558 0.393735 7.37488e-16)
(-0.0271705 0.397855 1.52665e-17)
(0.215729 -0.109545 -5.21458e-16)
(1.21684 -1.10699 -3.29459e-16)
(2.84383 -2.19001 -5.64626e-16)
(5.142 -3.45454 -4.81433e-16)
(8.07847 -3.94079 2.00983e-17)
(10.4751 -3.45339 -1.94778e-15)
(5.50142 5.57617 -4.50389e-17)
(5.42386 5.35556 -1.49215e-16)
(5.35043 5.09257 2.84477e-16)
(5.28021 4.78712 0)
(5.23089 4.45908 4.64912e-16)
(5.20239 4.10016 0)
(5.19755 3.71459 -2.78277e-16)
(5.22459 3.32568 1.11633e-15)
(5.28544 2.94906 -8.40869e-16)
(5.37955 2.58834 0)
(5.50289 2.24958 5.92877e-16)
(5.65104 1.93808 5.79258e-16)
(5.82238 1.65257 0)
(6.01536 1.39177 -5.68249e-16)
(6.22848 1.15596 1.3828e-16)
(6.4616 0.944061 -1.36557e-16)
(6.71413 0.756256 1.33134e-16)
(6.9851 0.593095 2.38965e-16)
(7.27361 0.455384 -6.20906e-18)
(7.5785 0.343945 2.96286e-16)
(7.89835 0.26005 9.07027e-17)
(8.23152 0.205099 -8.40074e-17)
(8.57592 0.180746 -2.79641e-16)
(8.92752 0.18808 2.39734e-16)
(9.27945 0.226902 -1.78111e-16)
(9.62467 0.295383 -1.87854e-16)
(9.95922 0.389874 -6.51346e-17)
(10.2816 0.507066 -6.60819e-19)
(10.5917 0.643446 4.77144e-18)
(10.8893 0.797023 1.83278e-17)
(11.1745 0.963314 2.61048e-18)
(11.4506 1.13982 -4.90911e-18)
(11.7217 1.32544 -1.48138e-16)
(11.9944 1.51962 2.44616e-16)
(12.2709 1.72497 -1.15156e-17)
(12.5721 1.93941 8.02776e-16)
(12.8626 2.18246 -1.90657e-15)
(13.2948 2.3942 0)
(13.5076 2.70999 5.29128e-15)
(5.79282 5.66266 9.37868e-18)
(5.88318 5.85842 0)
(6.00226 6.06145 0)
(6.13494 6.25481 1.99413e-16)
(6.27649 6.42727 -5.77141e-18)
(6.43345 6.58641 0)
(6.59742 6.72595 0)
(6.76504 6.84278 2.21689e-16)
(6.93559 6.93783 -1.00644e-17)
(7.10585 7.01056 -1.17422e-17)
(7.27357 7.06199 9.71107e-17)
(7.43409 7.09549 -4.01236e-18)
(7.58563 7.11282 -1.95423e-18)
(7.7247 7.11536 -1.16083e-17)
(7.85407 7.1179 0)
(7.97824 7.10967 0)
(8.05441 7.03652 -1.59896e-16)
(8.11707 7.02572 -3.24192e-17)
(8.36518 7.33008 2.92898e-17)
(8.66327 7.62925 -6.9967e-17)
(8.44722 7.16756 1.49057e-16)
(7.45266 5.75666 8.41528e-17)
(5.93282 3.93503 -9.81993e-17)
(4.33764 2.40951 -1.26338e-16)
(3.07673 1.42084 2.15639e-17)
(2.22709 0.611753 -1.37101e-16)
(1.55028 -0.308989 -1.56059e-17)
(1.08654 -1.01369 3.6181e-18)
(0.876693 -1.03921 -3.07813e-18)
(0.67167 -0.537575 1.35025e-17)
(0.281794 0.0951474 3.56062e-19)
(-0.164218 0.501219 -3.65667e-16)
(-0.327592 0.423943 -2.94279e-18)
(0.0340409 -0.198272 -7.8306e-18)
(1.11211 -1.29638 0)
(2.7375 -2.43896 5.12628e-16)
(5.00765 -3.74114 4.46023e-16)
(7.89335 -4.1888 0)
(10.37 -3.57809 0)
(5.71809 5.46259 0)
(5.65234 5.25378 1.3783e-16)
(5.59057 5.00535 -4.36196e-16)
(5.53135 4.71725 -1.92853e-16)
(5.49099 4.40891 -4.30949e-16)
(5.46871 4.07193 0)
(5.46718 3.70962 0)
(5.49449 3.34447 -5.02053e-16)
(5.55207 2.99142 5.09837e-16)
(5.63918 2.65341 0)
(5.75208 2.33576 -2.59094e-16)
(5.88672 2.04338 -2.72133e-16)
(6.04184 1.77466 2.61084e-16)
(6.2164 1.52793 2.66767e-16)
(6.40946 1.3032 -5.01831e-16)
(6.62146 1.09931 0)
(6.85245 0.916349 -1.14688e-16)
(7.10209 0.754992 4.87174e-18)
(7.37005 0.616299 5.09823e-16)
(7.65562 0.501436 -9.64533e-17)
(7.95762 0.412115 9.18995e-17)
(8.27458 0.349951 -7.19342e-17)
(8.6046 0.316857 1.00618e-16)
(8.94386 0.314052 -4.84329e-16)
(9.28575 0.341817 -1.70735e-16)
(9.62334 0.398916 1.47323e-16)
(9.95251 0.482414 -8.87749e-18)
(10.2714 0.589325 0)
(10.5794 0.716386 -4.24757e-18)