/*--------------------------------*- C++ -*----------------------------------*\
  =========                 |
  \\      /  F ield         | OpenFOAM: The Open Source CFD Toolbox
   \\    /   O peration     | Website:  https://openfoam.org
    \\  /    A nd           | Version:  9
     \\/     M anipulation  |
\*---------------------------------------------------------------------------*/
FoamFile
{
    format      ascii;
    class       volScalarField;
    location    "250";
    object      nut;
}
// * * * * * * * * * * * * * * * * * * * * * * * * * * * * * * * * * * * * * //

dimensions      [0 2 -1 0 0 0 0];

internalField   nonuniform List<scalar> 
10720
(
0.049941
0.0517511
0.0536676
0.0555128
0.0574324
0.0593429
0.061051
0.0623051
0.0629315
0.0629354
0.062247
0.0607079
0.0581333
0.0543347
0.0491456
0.0426274
0.0350753
0.0269438
0.0174647
0.0127365
0.0127317
0.0127301
0.0126253
0.0122824
0.0122815
0.011296
0.0103724
0.00949887
0.0106336
0.0124138
0.0172291
0.0194044
0.0172712
0.00951634
0.0177298
0.0230109
0.0222162
0.0183524
0.0211951
0.0482917
0.04632
0.0441648
0.0413012
0.0379322
0.0338639
0.0289334
0.0232862
0.0192454
0.0176539
0.0165747
0.0167657
0.0197298
0.0221857
0.0240483
0.0255911
0.0269978
0.0283597
0.0297267
0.0311252
0.0325701
0.0340674
0.0356196
0.0372078
0.038753
0.0401711
0.0414487
0.0425955
0.0436298
0.0445468
0.0453633
0.0461297
0.0468576
0.0475452
0.0481545
0.0487218
0.0489539
0.0494683
0.0410026
0.0682145
0.0675138
0.066388
0.0648435
0.0631595
0.0611652
0.0591076
0.0571614
0.0563373
0.0570897
0.0588277
0.0612037
0.0639823
0.0669059
0.0696188
0.0715328
0.0719059
0.0702968
0.0676092
0.0671388
0.067469
0.0655547
0.063133
0.0599513
0.0569368
0.0554421
0.051602
0.045749
0.0488863
0.0540612
0.0541129
0.0481389
0.0390638
0.0277824
0.0402769
0.0681488
0.0829131
0.0909163
0.110901
0.0689371
0.0692185
0.0696773
0.0695355
0.0690735
0.0682338
0.0668614
0.0649045
0.0624377
0.0597037
0.0566972
0.0534092
0.0500536
0.0468179
0.043825
0.0410828
0.0386076
0.0363872
0.0344246
0.0326979
0.0312005
0.0299098
0.0288097
0.0278424
0.0269801
0.0262397
0.02562
0.0251208
0.0247366
0.0244646
0.0244349
0.0249265
0.025826
0.0269523
0.0281261
0.0293346
0.0301511
0.0333443
0.0279126
0.0972697
0.0966251
0.0955431
0.094005
0.0922115
0.089995
0.0873872
0.0845137
0.0811968
0.0775517
0.0737382
0.0702921
0.0673008
0.0646034
0.0656176
0.0695651
0.0753868
0.0814157
0.0864979
0.0915881
0.0966565
0.100463
0.105008
0.112783
0.119371
0.119132
0.110256
0.0950891
0.0980507
0.109158
0.112226
0.104099
0.0874822
0.0600838
0.0895206
0.142057
0.166106
0.172533
0.187679
0.0978383
0.0980459
0.0983149
0.0981454
0.0976581
0.0968153
0.0955024
0.0936913
0.0914878
0.0889372
0.0860063
0.0828092
0.0794487
0.0759913
0.0725552
0.0691902
0.0659526
0.0628704
0.0599749
0.0572583
0.0547293
0.052367
0.0501502
0.0479767
0.0457869
0.0436218
0.0415031
0.0394577
0.0374987
0.0356518
0.0339246
0.032335
0.0311883
0.0310418
0.0313963
0.031846
0.0324102
0.0336025
0.0285234
0.11317
0.112742
0.112003
0.110945
0.109667
0.108046
0.106063
0.103768
0.101063
0.0978973
0.0941624
0.089731
0.0846267
0.0804122
0.0766897
0.072193
0.0729766
0.0788102
0.0878471
0.0984362
0.109555
0.120019
0.131952
0.150163
0.171559
0.184197
0.177626
0.154941
0.154268
0.171745
0.18047
0.172671
0.151639
0.109176
0.135359
0.211622
0.249899
0.256933
0.264156
0.113486
0.113597
0.113699
0.113551
0.113181
0.112573
0.111647
0.110372
0.108798
0.106915
0.104686
0.102174
0.0994357
0.0965071
0.0934705
0.0903733
0.0872698
0.084204
0.0812183
0.0783263
0.0755513
0.0728877
0.0703191
0.0677486
0.0651062
0.0624339
0.0597564
0.0571039
0.0544942
0.0519588
0.0495041
0.0471406
0.0449023
0.0428525
0.0410362
0.0393809
0.0387534
0.0388832
0.0354264
0.122333
0.122069
0.121574
0.120851
0.119956
0.118795
0.117356
0.115647
0.113595
0.111199
0.108398
0.105053
0.100921
0.0958605
0.0909739
0.0860918
0.0801872
0.0783356
0.083853
0.0955768
0.11097
0.127506
0.146652
0.174582
0.210363
0.24047
0.247245
0.224893
0.216016
0.239667
0.257448
0.252778
0.230377
0.172902
0.185574
0.284074
0.334024
0.343798
0.341709
0.122469
0.122486
0.122478
0.122324
0.122021
0.121568
0.120918
0.120048
0.118982
0.117693
0.116148
0.114375
0.112391
0.110207
0.107868
0.105399
0.10284
0.100225
0.0975925
0.0949636
0.092366
0.0898035
0.0872684
0.0846762
0.0819626
0.0791629
0.0763031
0.0734135
0.0705159
0.0676442
0.0648109
0.0620314
0.059328
0.0567187
0.0542324
0.0518138
0.0495454
0.0473849
0.0432342
0.127944
0.127799
0.127479
0.126995
0.12638
0.125566
0.124545
0.123315
0.121825
0.120053
0.117952
0.11545
0.11244
0.108604
0.103746
0.0985964
0.0930984
0.0859063
0.0834381
0.0904139
0.105742
0.12593
0.150979
0.187199
0.236283
0.285498
0.312738
0.301622
0.282056
0.310838
0.34073
0.34327
0.324107
0.251171
0.247695
0.36285
0.420838
0.438281
0.423287
0.12796
0.127902
0.127817
0.127643
0.127369
0.127005
0.126526
0.125914
0.125185
0.124309
0.12326
0.122048
0.120675
0.119137
0.117457
0.115641
0.113708
0.111676
0.109574
0.107417
0.105226
0.103007
0.100755
0.0984023
0.095889
0.0932414
0.0904823
0.087638
0.0847304
0.081792
0.0788399
0.0758936
0.0729781
0.0701106
0.0673157
0.0645474
0.061764
0.0589498
0.0525192
0.131572
0.131506
0.131297
0.130963
0.130522
0.129927
0.129174
0.128264
0.12716
0.125842
0.124286
0.12242
0.12019
0.117485
0.114402
0.109904
0.104502
0.097936
0.0896943
0.0886987
0.0990483
0.118888
0.147161
0.189326
0.24969
0.318477
0.370136
0.379057
0.351615
0.383439
0.428212
0.443457
0.428149
0.341716
0.333088
0.451009
0.515055
0.540778
0.517774
0.131507
0.131396
0.131258
0.131067
0.130807
0.130496
0.130128
0.129684
0.12917
0.128562
0.127841
0.127011
0.126067
0.125003
0.123828
0.12254
0.121145
0.119651
0.118073
0.116416
0.114695
0.112912
0.111058
0.10908
0.106923
0.104605
0.102138
0.0995422
0.0968346
0.0940432
0.091185
0.0882811
0.0853578
0.0824343
0.0795361
0.0766241
0.0736151
0.0706097
0.0630891
0.13402
0.134006
0.133869
0.133628
0.133294
0.132837
0.132258
0.131562
0.130726
0.129733
0.128566
0.127174
0.125538
0.123542
0.121414
0.118674
0.114405
0.109015
0.100792
0.0930963
0.0952968
0.110359
0.138067
0.182874
0.251402
0.33878
0.417215
0.451637
0.426944
0.45618
0.517582
0.551928
0.53297
0.43779
0.437347
0.553413
0.619954
0.645976
0.622782
0.133899
0.133752
0.133582
0.133381
0.133129
0.132856
0.132565
0.132238
0.131865
0.131431
0.130925
0.130347
0.129692
0.128955
0.128137
0.127234
0.126247
0.125178
0.124032
0.122811
0.12152
0.120158
0.118713
0.117141
0.115395
0.113481
0.111403
0.109173
0.106798
0.1043
0.101692
0.0989928
0.0962267
0.0934125
0.0905757
0.0876826
0.0846295
0.0815959
0.0738062
0.135723
0.135742
0.135647
0.135457
0.135185
0.134812
0.134347
0.133796
0.133143
0.13238
0.131498
0.130498
0.129395
0.128044
0.126331
0.124456
0.121766
0.117497
0.111414
0.102013
0.0965038
0.103759
0.126907
0.170383
0.242946
0.346272
0.452428
0.516137
0.510593
0.528267
0.606012
0.658131
0.635325
0.537856
0.559263
0.672074
0.730704
0.750599
0.731325
0.135567
0.135399
0.13521
0.135005
0.134763
0.134518
0.134285
0.13404
0.133767
0.13345
0.133085
0.132675
0.132216
0.1317
0.131128
0.130495
0.129802
0.129046
0.128229
0.12735
0.126409
0.125402
0.124319
0.123119
0.121766
0.120254
0.118584
0.116756
0.114773
0.112644
0.11038
0.107992
0.105501
0.102921
0.100275
0.0975348
0.0945823
0.091651
0.0840087
0.136944
0.136979
0.136903
0.136739
0.136502
0.136184
0.135797
0.13535
0.134831
0.134248
0.133625
0.132961
0.132214
0.131337
0.130086
0.128525
0.126729
0.124
0.119455
0.11196
0.102053
0.101164
0.11665
0.154769
0.226586
0.341588
0.474973
0.57046
0.5925
0.599053
0.690213
0.758048
0.73542
0.64376
0.698715
0.803318
0.843896
0.851963
0.840175
0.13677
0.136588
0.136388
0.136182
0.135949
0.135728
0.135538
0.135353
0.135152
0.134918
0.134651
0.134354
0.134027
0.133663
0.133261
0.132818
0.132331
0.1318
0.131223
0.1306
0.129928
0.129201
0.12841
0.127522
0.126505
0.125352
0.124056
0.122612
0.121019
0.119277
0.117391
0.115366
0.113216
0.11095
0.108587
0.106098
0.103359
0.100639
0.0934174
0.13784
0.137879
0.137807
0.137652
0.137437
0.137159
0.13683
0.136463
0.136068
0.135673
0.135262
0.134819
0.134297
0.133689
0.132869
0.131651
0.130197
0.128421
0.125603
0.120523
0.110915
0.103385
0.109658
0.138978
0.205136
0.326219
0.4844
0.613093
0.666334
0.668307
0.767454
0.852029
0.834936
0.761668
0.855959
0.945029
0.957499
0.947596
0.945297
0.137659
0.137469
0.137261
0.137055
0.136831
0.136629
0.136477
0.136334
0.136184
0.136011
0.135815
0.135598
0.135362
0.135103
0.13482
0.134509
0.134169
0.133798
0.133395
0.132959
0.132487
0.131974
0.13141
0.130769
0.130024
0.129167
0.128188
0.12708
0.125838
0.124459
0.12294
0.121284
0.119496
0.11758
0.115547
0.113371
0.110924
0.108492
0.101885
0.138507
0.13854
0.138465
0.138315
0.138116
0.137869
0.13759
0.137308
0.137048
0.136798
0.136529
0.136231
0.135865
0.135413
0.134866
0.134032
0.132831
0.131451
0.129655
0.126368
0.119534
0.10903
0.107009
0.125475
0.181587
0.302414
0.480932
0.64318
0.729959
0.739701
0.837867
0.941491
0.936364
0.904659
1.03148
1.09658
1.07018
1.03407
1.04162
0.138327
0.138133
0.13792
0.137716
0.1375
0.137314
0.137192
0.137082
0.13697
0.136841
0.136697
0.136539
0.136366
0.136182
0.135982
0.135765
0.135528
0.135272
0.134995
0.134695
0.134371
0.134018
0.133627
0.133176
0.132644
0.13202
0.131297
0.130467
0.129522
0.128458
0.127269
0.125954
0.124513
0.122945
0.121256
0.119417
0.117304
0.115202
0.109337
0.139007
0.13903
0.138949
0.138802
0.138618
0.1384
0.138178
0.137993
0.137827
0.137665
0.137489
0.137291
0.137042
0.136711
0.136312
0.135771
0.134883
0.133712
0.132402
0.130583
0.126453
0.11696
0.108824
0.116028
0.158774
0.272934
0.465561
0.660433
0.782514
0.818523
0.90441
1.02815
1.04278
1.07342
1.22588
1.25843
1.1812
1.10805
1.12262
0.138834
0.13864
0.138426
0.138224
0.138017
0.137844
0.137747
0.137662
0.137578
0.137482
0.137377
0.137262
0.137137
0.137003
0.136863
0.136712
0.13655
0.136376
0.136189
0.135989
0.135774
0.135539
0.135278
0.134971
0.134601
0.134159
0.133637
0.133027
0.132322
0.131519
0.13061
0.129591
0.128461
0.127214
0.12585
0.124342
0.122573
0.120807
0.115744
0.139382
0.139394
0.139308
0.139165
0.138995
0.138816
0.138662
0.138542
0.138435
0.138328
0.138211
0.138079
0.137914
0.137686
0.137387
0.137021
0.136436
0.135496
0.134375
0.133207
0.130912
0.124482
0.113883
0.11137
0.138977
0.240695
0.439997
0.664629
0.823225
0.894054
0.971157
1.11387
1.15868
1.2676
1.43996
1.4321
1.29047
1.16688
1.16308
0.13922
0.13903
0.138818
0.138623
0.138425
0.138264
0.138184
0.138119
0.138056
0.137986
0.137908
0.137825
0.137735
0.137638
0.13754
0.137437
0.137328
0.137213
0.137092
0.136963
0.136828
0.136681
0.136516
0.136318
0.13607
0.135765
0.135396
0.134957
0.134443
0.133847
0.133166
0.132394
0.131526
0.130557
0.129483
0.128275
0.126833
0.125383
0.121126
0.139664
0.139665
0.139576
0.139439
0.139286
0.139158
0.139053
0.138974
0.138905
0.138835
0.138757
0.138668
0.138557
0.138409
0.138195
0.137932
0.137566
0.136899
0.135918
0.134942
0.133921
0.130463
0.120895
0.111428
0.123824
0.208476
0.406487
0.6561
0.851935
0.962049
1.04204
1.20161
1.30273
1.48491
1.67335
1.61926
1.39867
1.20846
1.16116
0.139515
0.139335
0.139129
0.138941
0.138753
0.138603
0.138536
0.138485
0.138437
0.138386
0.138329
0.13827
0.138205
0.138136
0.138067
0.137998
0.137927
0.137854
0.137779
0.137703
0.137625
0.137543
0.137449
0.137331
0.137175
0.136973
0.13672
0.136411
0.136043
0.135609
0.135108
0.134532
0.133878
0.133138
0.132307
0.131357
0.130208
0.129032
0.125538
0.139876
0.139868
0.139778
0.139647
0.139521
0.139435
0.139364
0.139311
0.139267
0.139222
0.139172
0.139112
0.139038
0.138942
0.1388
0.138609
0.138373
0.137954
0.137172
0.136229
0.135624
0.134203
0.127854
0.115207
0.114097
0.178639
0.367568
0.635716
0.868594
1.0216
1.12124
1.30022
1.47687
1.72198
1.91063
1.81696
1.5074
1.23288
1.1229
0.139743
0.139575
0.139377
0.139195
0.139017
0.138878
0.13882
0.13878
0.138745
0.138707
0.138666
0.138624
0.138578
0.13853
0.138482
0.138436
0.138392
0.138349
0.138308
0.138269
0.138233
0.138196
0.138155
0.138095
0.138006
0.13788
0.137713
0.137503
0.137245
0.136936
0.136572
0.136149
0.135662
0.135104
0.134469
0.133729
0.132828
0.131878
0.129067
0.140036
0.140021
0.139932
0.139809
0.139714
0.139657
0.139608
0.139573
0.139545
0.139517
0.139487
0.139451
0.139403
0.139341
0.139252
0.139119
0.138955
0.13871
0.138174
0.137304
0.136667
0.136451
0.133523
0.121299
0.109791
0.152976
0.325802
0.604818
0.873013
1.07262
1.21291
1.42515
1.67639
1.97494
2.13999
2.01385
1.61932
1.24472
1.06113
0.139921
0.139765
0.139572
0.139397
0.139229
0.139101
0.13905
0.139019
0.138992
0.138965
0.138937
0.138908
0.138877
0.138844
0.138812
0.138782
0.138757
0.138735
0.138717
0.138704
0.138697
0.138694
0.138689
0.138672
0.138631
0.138561
0.138458
0.13832
0.138145
0.137929
0.137669
0.137361
0.137002
0.136583
0.136101
0.135527
0.134827
0.134051
0.131828
0.140159
0.140138
0.14005
0.139936
0.13987
0.13983
0.139798
0.139776
0.13976
0.139745
0.139729
0.139709
0.139683
0.139645
0.139592
0.139505
0.139388
0.139242
0.138927
0.138227
0.137432
0.137523
0.137299
0.128166
0.110253
0.132658
0.283581
0.565085
0.865183
1.11497
1.32015
1.57281
1.89496
2.21688
2.35764
2.20138
1.73909
1.25515
0.995948
0.14006
0.139912
0.139725
0.139559
0.139401
0.139282
0.139236
0.139211
0.139192
0.139174
0.139156
0.139138
0.139118
0.139096
0.139076
0.139057
0.139044
0.139037
0.139035
0.139041
0.139054
0.139074
0.139095
0.139107
0.1391
0.13907
0.139014
0.138929
0.138814
0.138667
0.138485
0.138263
0.137999
0.137685
0.137319
0.136872
0.136329
0.135683
0.133956
0.140254
0.140227
0.140143
0.140041
0.139994
0.139967
0.139947
0.139934
0.139927
0.13992
0.139914
0.139906
0.139896
0.139877
0.139848
0.139799
0.139718
0.139621
0.139459
0.138988
0.138126
0.137992
0.139315
0.134369
0.114262
0.118218
0.24299
0.518393
0.845283
1.14709
1.42824
1.7378
2.12161
2.44283
2.56285
2.37735
1.8698
1.27575
0.946445
0.140165
0.140025
0.139847
0.139691
0.139541
0.13943
0.139387
0.139367
0.139355
0.139344
0.139334
0.139323
0.139311
0.139298
0.139287
0.139277
0.139273
0.139275
0.139285
0.139303
0.13933
0.139365
0.139403
0.139435
0.139453
0.139451
0.139427
0.13938
0.139309
0.139212
0.139086
0.138928
0.138735
0.138498
0.13822
0.137869
0.137446
0.136895
0.135582
0.140322
0.140294
0.140215
0.140129
0.140095
0.140077
0.140064
0.140057
0.140055
0.140055
0.140056
0.140057
0.140058
0.140054
0.140043
0.14002
0.139972
0.139902
0.139819
0.139568
0.138792
0.138248
0.140071
0.139059
0.120497
0.109622
0.205743
0.466689
0.813654
1.16701
1.52631
1.91345
2.33044
2.65222
2.75595
2.54291
1.99717
1.31493
0.921744
0.140241
0.140114
0.139948
0.139799
0.139656
0.139553
0.139511
0.139496
0.139489
0.139483
0.139478
0.139473
0.139467
0.139461
0.139456
0.139454
0.139456
0.139465
0.139482
0.139508
0.139543
0.139588
0.139638
0.139683
0.139716
0.139732
0.139731
0.139712
0.139673
0.139612
0.139527
0.139414
0.139272
0.139093
0.138882
0.138602
0.138269
0.137791
0.13683
0.140371
0.140344
0.140274
0.140202
0.140174
0.140163
0.140156
0.140154
0.140155
0.140159
0.140165
0.140172
0.140181
0.140188
0.14019
0.140186
0.140166
0.140117
0.140065
0.139974
0.139402
0.138521
0.140051
0.141932
0.127507
0.106366
0.173169
0.411905
0.770802
1.17259
1.60806
2.06888
2.51792
2.84486
2.93756
2.70065
2.11861
1.37276
0.922065
0.140299
0.140184
0.140026
0.139881
0.139746
0.139653
0.139615
0.139601
0.139597
0.139595
0.139593
0.139592
0.139591
0.139591
0.139593
0.139596
0.139603
0.139617
0.139638
0.139669
0.139709
0.13976
0.139816
0.139868
0.139911
0.13994
0.139956
0.139956
0.139939
0.139904
0.139848
0.139769
0.139663
0.139526
0.139363
0.139137
0.138873
0.138454
0.137789
0.140409
0.140382
0.140322
0.140259
0.140234
0.140228
0.140226
0.140228
0.140232
0.14024
0.140249
0.140261
0.140275
0.140288
0.140299
0.140308
0.14031
0.140285
0.140242
0.140235
0.139908
0.138892
0.139708
0.143251
0.134115
0.107576
0.146251
0.355916
0.717389
1.16177
1.66901
2.19888
2.68273
3.02028
3.10827
2.85354
2.24032
1.4349
0.934314
0.140345
0.140238
0.140082
0.13994
0.139814
0.139732
0.139698
0.139686
0.139683
0.139683
0.139685
0.139688
0.139692
0.139698
0.139704
0.139712
0.139722
0.139738
0.139762
0.139796
0.139839
0.139892
0.139951
0.140007
0.140056
0.140094
0.14012
0.140133
0.140131
0.140113
0.140079
0.140024
0.139946
0.139838
0.139711
0.139525
0.139314
0.138949
0.138549
0.140437
0.140409
0.140361
0.140301
0.140279
0.140277
0.140279
0.140284
0.140291
0.140301
0.140314
0.14033
0.140347
0.140365
0.140382
0.140398
0.140414
0.140413
0.140378
0.140396
0.140285
0.139341
0.13935
0.143383
0.139517
0.112246
0.125666
0.30062
0.654326
1.13281
1.70553
2.30107
2.82337
3.1776
3.26833
3.00414
2.36819
1.50629
0.953264
0.140381
0.140276
0.140119
0.139983
0.139865
0.139798
0.139769
0.139755
0.13975
0.139752
0.139758
0.139766
0.139774
0.139784
0.139794
0.139804
0.139817
0.139835
0.139861
0.139896
0.13994
0.139994
0.140054
0.140111
0.140164
0.140207
0.140238
0.140258
0.140266
0.140261
0.140241
0.140203
0.140146
0.140061
0.13996
0.139805
0.139634
0.13932
0.139148
0.140454
0.140425
0.140388
0.140332
0.140312
0.140313
0.140318
0.140325
0.140335
0.140347
0.140362
0.14038
0.140402
0.140423
0.140444
0.140465
0.140489
0.140507
0.140486
0.140496
0.140531
0.139809
0.139154
0.142749
0.143282
0.119173
0.111846
0.24798
0.582828
1.08439
1.71446
2.37299
2.93783
3.31542
3.41743
3.15418
2.50618
1.59237
0.977988
0.140403
0.140299
0.140145
0.140016
0.139904
0.139858
0.139831
0.139814
0.139806
0.139808
0.139817
0.139829
0.139841
0.139853
0.139865
0.139877
0.139892
0.139912
0.139939
0.139974
0.140019
0.140073
0.140131
0.140189
0.140243
0.140288
0.140322
0.140346
0.14036
0.140363
0.140352
0.140328
0.140285
0.140218
0.140136
0.140005
0.139865
0.139596
0.139558
0.140461
0.140433
0.140407
0.140355
0.140337
0.140339
0.140346
0.140355
0.140366
0.14038
0.140397
0.140417
0.140441
0.140465
0.14049
0.140515
0.140543
0.140573
0.14057
0.140562
0.140667
0.140232
0.139183
0.141748
0.145364
0.127089
0.104862
0.200095
0.504632
1.01576
1.69316
2.41177
3.02358
3.43179
3.55451
3.30413
2.65614
1.69669
1.00837
0.140413
0.140312
0.140164
0.14004
0.139934
0.139909
0.139883
0.139867
0.139856
0.139857
0.139867
0.139881
0.139894
0.139906
0.13992
0.139934
0.139952
0.139973
0.14
0.140036
0.14008
0.140133
0.14019
0.140247
0.1403
0.140345
0.14038
0.140407
0.140424
0.140432
0.140428
0.140412
0.14038
0.140326
0.140258
0.140147
0.140031
0.139803
0.139826
0.140461
0.140436
0.140417
0.140369
0.140354
0.140359
0.140367
0.140376
0.140389
0.140404
0.140422
0.140443
0.140468
0.140495
0.140522
0.14055
0.140581
0.140617
0.140632
0.140612
0.140724
0.140566
0.139418
0.140712
0.145917
0.134764
0.10442
0.159223
0.422203
0.927132
1.63936
2.41436
3.07753
3.52409
3.67755
3.45304
2.81791
1.82134
1.04876
0.140414
0.140318
0.140177
0.140057
0.139956
0.139945
0.13992
0.139908
0.139902
0.139902
0.139912
0.139925
0.139937
0.139949
0.139963
0.139979
0.139999
0.140021
0.140049
0.140084
0.140128
0.140179
0.140234
0.140289
0.14034
0.140384
0.14042
0.140447
0.140467
0.140477
0.140478
0.140468
0.140443
0.140398
0.140341
0.140247
0.140149
0.139955
0.140006
0.140457
0.140434
0.140419
0.140377
0.140365
0.140372
0.140381
0.140392
0.140405
0.140421
0.140439
0.140462
0.140488
0.140516
0.140545
0.140575
0.140608
0.140645
0.140674
0.140654
0.140734
0.140785
0.139792
0.13989
0.145231
0.141113
0.109588
0.12767
0.338995
0.819896
1.5516
2.37742
3.09598
3.58897
3.78344
3.59828
2.98971
1.96746
1.10143
0.140409
0.140319
0.140185
0.140068
0.139971
0.139971
0.139948
0.139939
0.139938
0.139942
0.139953
0.139966
0.139976
0.139986
0.139999
0.140016
0.140036
0.14006
0.140088
0.140122
0.140165
0.140214
0.140266
0.140319
0.140368
0.140411
0.140445
0.140473
0.140493
0.140506
0.14051
0.140503
0.140483
0.140444
0.140396
0.140316
0.140231
0.140067
0.140129
0.140447
0.140428
0.140415
0.140378
0.140371
0.14038
0.14039
0.140402
0.140415
0.140431
0.140451
0.140474
0.1405
0.14053
0.140559
0.140591
0.140625
0.140663
0.1407
0.140691
0.140723
0.140886
0.140217
0.139436
0.143747
0.145331
0.118658
0.107366
0.259596
0.697019
1.42949
2.29788
3.07466
3.62223
3.86803
3.73573
3.16819
2.13518
1.16788
0.140399
0.140316
0.140188
0.140074
0.139981
0.13999
0.13997
0.139962
0.139964
0.139972
0.139985
0.14
0.140012
0.140021
0.140031
0.140047
0.140067
0.14009
0.140118
0.140151
0.140192
0.140239
0.140289
0.140339
0.140386
0.140427
0.14046
0.140488
0.140508
0.140522
0.140528
0.140523
0.140506
0.140471
0.140431
0.140363
0.140289
0.140149
0.140216
0.140434
0.140416
0.140406
0.140374
0.14037
0.140381
0.140393
0.140405
0.140419
0.140435
0.140455
0.140479
0.140506
0.140537
0.140567
0.1406
0.140635
0.140672
0.140712
0.14072
0.140713
0.140894
0.140595
0.139397
0.142002
0.147147
0.129307
0.0993052
0.189621
0.563679
1.27432
2.17301
3.00895
3.61882
3.92602
3.85966
3.34832
2.32327
1.25079
0.140386
0.14031
0.140186
0.140074
0.139987
0.140005
0.139987
0.13998
0.139982
0.139991
0.140006
0.140022
0.140037
0.14005
0.140062
0.140074
0.140092
0.140114
0.140141
0.140173
0.140213
0.140258
0.140305
0.140352
0.140397
0.140435
0.140468
0.140494
0.140515
0.140529
0.140535
0.140532
0.140515
0.140486
0.140452
0.140393
0.140328
0.140209
0.140278
0.140416
0.140401
0.140394
0.140367
0.140365
0.140377
0.14039
0.140402
0.140416
0.140434
0.140454
0.140478
0.140506
0.140537
0.140568
0.140601
0.140638
0.140674
0.140714
0.140737
0.140713
0.140844
0.140851
0.139699
0.140503
0.14672
0.138947
0.102658
0.135164
0.427658
1.08977
2.00123
2.89392
3.57291
3.95107
3.96286
3.52367
2.52836
1.35157
0.140371
0.1403
0.140179
0.14007
0.139992
0.140013
0.139997
0.139993
0.139994
0.140003
0.140019
0.140036
0.140052
0.14007
0.140087
0.140097
0.140111
0.140132
0.140158
0.140189
0.140228
0.14027
0.140315
0.140359
0.140401
0.140438
0.140469
0.140494
0.140514
0.140528
0.140535
0.140531
0.140515
0.140492
0.140463
0.140411
0.140353
0.140255
0.140323
0.140396
0.140384
0.140379
0.140356
0.140356
0.140369
0.140381
0.140394
0.140409
0.140428
0.140449
0.140473
0.140501
0.140532
0.140564
0.140597
0.140634
0.140671
0.140709
0.140741
0.14072
0.140778
0.140954
0.140165
0.139615
0.144785
0.145418
0.114167
0.101235
0.299564
0.883255
1.78315
2.72508
3.47797
3.93591
4.03685
3.68606
2.74488
1.47241
0.140353
0.140285
0.140168
0.140062
0.139995
0.140013
0.14
0.139999
0.140003
0.140012
0.140027
0.140044
0.140062
0.140082
0.140102
0.140116
0.140127
0.140146
0.14017
0.1402
0.140237
0.140278
0.14032
0.140362
0.140401
0.140435
0.140464
0.140489
0.140508
0.140521
0.140527
0.140522
0.14051
0.140492
0.140467
0.140421
0.140368
0.140306
0.140364
0.140373
0.140364
0.140363
0.140342
0.140343
0.140356
0.140369
0.140383
0.140399
0.140418
0.140441
0.140466
0.140493
0.140524
0.140556
0.140589
0.140626
0.140665
0.140699
0.140734
0.140729
0.140726
0.14093
0.140603
0.13943
0.142384
0.14799
0.128795
0.0898618
0.191913
0.66677
1.52282
2.49924
3.32729
3.87256
4.07204
3.82582
2.96473
1.6166
0.140332
0.140267
0.140152
0.140049
0.139993
0.140007
0.139996
0.14
0.140008
0.140019
0.140033
0.14005
0.140069
0.14009
0.140111
0.140128
0.140139
0.140156
0.140179
0.140208
0.140243
0.140282
0.140321
0.14036
0.140396
0.140429
0.140456
0.140479
0.140497
0.140509
0.140513
0.140509
0.140501
0.140487
0.140463
0.140424
0.140376
0.140367
0.140409
0.140348
0.140344
0.140344
0.140325
0.140327
0.140341
0.140354
0.140368
0.140386
0.140406
0.140429
0.140455
0.140483
0.140513
0.140545
0.140579
0.140616
0.140655
0.140688
0.140719
0.140732
0.140702
0.140841
0.140872
0.139767
0.140465
0.147101
0.141269
0.0976646
0.116403
0.457495
1.2299
2.21603
3.11478
3.75275
4.05819
3.93193
3.17753
1.78772
0.140308
0.140244
0.140132
0.140032
0.139985
0.139997
0.139988
0.139995
0.140009
0.140022
0.140038
0.140055
0.140074
0.140095
0.140116
0.140135
0.140148
0.140163
0.140185
0.140213
0.140247
0.140283
0.14032
0.140356
0.140389
0.140419
0.140445
0.140466
0.140482
0.140492
0.140495
0.140494
0.14049
0.140477
0.140455
0.140425
0.140378
0.140403
0.140447
0.14032
0.140321
0.140322
0.140306
0.140308
0.140323
0.140337
0.140352
0.14037
0.140391
0.140415
0.14044
0.140469
0.1405
0.140532
0.140566
0.140603
0.140641
0.140674
0.140702
0.140724
0.140698
0.140745
0.140941
0.140298
0.139532
0.144332
0.148201
0.116396
0.0796347
0.276476
0.921218
1.8803
2.83641
3.56866
3.98513
3.9924
3.37108
1.98613
0.14028
0.140218
0.140109
0.140013
0.139972
0.139987
0.139981
0.139989
0.140006
0.140023
0.140041
0.140059
0.140078
0.140098
0.140119
0.140138
0.140154
0.140167
0.140188
0.140215
0.140248
0.140282
0.140316
0.140349
0.14038
0.140407
0.14043
0.140449
0.140463
0.140472
0.140476
0.140478
0.140476
0.140464
0.140446
0.140421
0.140377
0.140417
0.140466
0.140289
0.140295
0.140297
0.140283
0.140286
0.140303
0.140318
0.140333
0.140353
0.140374
0.140398
0.140423
0.140452
0.140483
0.140516
0.14055
0.140587
0.140624
0.140658
0.140682
0.140706
0.140698
0.140682
0.14087
0.140727
0.13954
0.141465
0.149259
0.135895
0.0787252
0.144091
0.621751
1.50475
2.49252
3.31432
3.84464
3.99519
3.53195
2.2073
0.14025
0.140189
0.140083
0.139992
0.13996
0.139978
0.139976
0.139984
0.140001
0.140022
0.140042
0.140062
0.140081
0.140101
0.14012
0.140138
0.140157
0.140169
0.140189
0.140216
0.140246
0.140278
0.14031
0.140341
0.140368
0.140392
0.140413
0.14043
0.140442
0.140451
0.140457
0.140461
0.140459
0.140449
0.140435
0.140416
0.140376
0.140422
0.140473
0.140257
0.140267
0.14027
0.140258
0.140263
0.140281
0.140297
0.140313
0.140333
0.140355
0.140379
0.140405
0.140433
0.140464
0.140496
0.140531
0.140568
0.140605
0.140638
0.140661
0.140681
0.140692
0.140658
0.140751
0.140913
0.140071
0.139698
0.146415
0.148611
0.100842
0.0724665
0.362024
1.11226
2.09081
2.98759
3.6304
3.92921
3.64626
2.44047
0.140217
0.140158
0.140057
0.139973
0.139953
0.139971
0.139972
0.139979
0.139996
0.140018
0.140041
0.140062
0.140083
0.140101
0.140119
0.140138
0.140157
0.140169
0.140188
0.140214
0.140244
0.140273
0.140303
0.14033
0.140355
0.140376
0.140394
0.140409
0.140421
0.14043
0.140438
0.140443
0.140441
0.140433
0.140422
0.140413
0.140384
0.140428
0.140474
0.140223
0.140237
0.140241
0.140232
0.140238
0.140257
0.140275
0.140292
0.140312
0.140335
0.140359
0.140385
0.140414
0.140444
0.140476
0.140511
0.140548
0.140584
0.140616
0.140639
0.140655
0.140673
0.140655
0.140657
0.140884
0.140642
0.139302
0.142522
0.152392
0.128758
0.0583885
0.170953
0.735936
1.64929
2.59302
3.34032
3.78581
3.70079
2.66889
0.140183
0.140127
0.140033
0.139958
0.139948
0.13996
0.139964
0.139973
0.139991
0.140013
0.140037
0.140061
0.140082
0.140101
0.140117
0.140136
0.140155
0.140168
0.140186
0.140212
0.140239
0.140267
0.140295
0.140319
0.14034
0.140359
0.140375
0.140389
0.140401
0.140411
0.14042
0.140425
0.140422
0.140416
0.14041
0.140425
0.140416
0.140446
0.14048
0.140189
0.140205
0.140211
0.140204
0.140212
0.140233
0.140252
0.14027
0.140291
0.140315
0.14034
0.140366
0.140394
0.140424
0.140456
0.140491
0.140527
0.140563
0.140593
0.140616
0.140629
0.140646
0.140652
0.140616
0.140751
0.140959
0.139823
0.139706
0.149591
0.149031
0.0826992
0.0646693
0.414419
1.19805
2.14467
2.97839
3.56056
3.68433
2.87273
0.140149
0.140098
0.140012
0.139948
0.139941
0.139945
0.13995
0.139964
0.139983
0.140007
0.140032
0.140057
0.140079
0.140097
0.140114
0.140132
0.140151
0.140165
0.140183
0.140207
0.140233
0.140259
0.140285
0.140306
0.140325
0.140342
0.140357
0.14037
0.140383
0.140394
0.140402
0.140404
0.140403
0.140402
0.140412
0.14043
0.140433
0.140461
0.140484
0.140155
0.140174
0.140181
0.140177
0.140186
0.140208
0.140229
0.140248
0.14027
0.140295
0.14032
0.140346
0.140374
0.140404
0.140436
0.14047
0.140506
0.14054
0.140569
0.14059
0.140603
0.140616
0.140637
0.140611
0.140629
0.140976
0.140572
0.138722
0.144314
0.156788
0.11948
0.0374984
0.181405
0.776739
1.66802
2.55736
3.25734
3.59042
3.03294
0.140117
0.140072
0.139994
0.13994
0.139926
0.139929
0.139932
0.139951
0.139973
0.139998
0.140025
0.140051
0.140074
0.140092
0.140108
0.140126
0.140145
0.14016
0.140178
0.140201
0.140225
0.14025
0.140273
0.140293
0.14031
0.140326
0.14034
0.140354
0.140366
0.140376
0.140381
0.140383
0.140387
0.140402
0.140413
0.140434
0.140446
0.140474
0.140487
0.140125
0.140144
0.140152
0.140151
0.140162
0.140184
0.140206
0.140226
0.14025
0.140274
0.140299
0.140325
0.140353
0.140383
0.140414
0.140448
0.140484
0.140517
0.140544
0.140563
0.140577
0.140587
0.140611
0.140616
0.140571
0.140823
0.141085
0.139179
0.139914
0.154557
0.148455
0.0629481
0.0521602
0.426627
1.19862
2.1
2.8923
3.41974
3.13451
0.14009
0.140048
0.139977
0.139929
0.139909
0.139911
0.139915
0.139936
0.139963
0.13999
0.140018
0.140045
0.140068
0.140087
0.140102
0.14012
0.140138
0.140153
0.14017
0.140193
0.140216
0.140239
0.140261
0.140279
0.140296
0.140311
0.140324
0.140337
0.140348
0.140356
0.140361
0.140369
0.140385
0.140399
0.140414
0.140435
0.140451
0.140482
0.140488
0.140099
0.140119
0.140127
0.140127
0.140139
0.140162
0.140184
0.140205
0.140228
0.140253
0.140278
0.140304
0.140331
0.140361
0.140392
0.140426
0.140462
0.140493
0.140518
0.140537
0.140551
0.14056
0.14058
0.140611
0.14057
0.140653
0.141219
0.14022
0.137874
0.147813
0.161633
0.107276
0.0157749
0.178157
0.776256
1.63727
2.49391
3.18176
3.16847
0.140067
0.140027
0.139959
0.139918
0.139901
0.139897
0.139903
0.139926
0.139959
0.139988
0.140016
0.140042
0.140065
0.140083
0.140098
0.140114
0.140131
0.140146
0.140163
0.140184
0.140206
0.140228
0.140248
0.140266
0.140281
0.140295
0.140308
0.140319
0.140329
0.140337
0.14035
0.140367
0.140381
0.140396
0.140414
0.140436
0.140456
0.14049
0.140486
0.140076
0.140097
0.140106
0.140107
0.140119
0.140141
0.140163
0.140185
0.140207
0.140232
0.140257
0.140283
0.14031
0.140338
0.14037
0.140404
0.140438
0.140468
0.140492
0.140508
0.140523
0.140536
0.140549
0.140593
0.140592
0.140555
0.141079
0.14114
0.138003
0.141319
0.161337
0.144852
0.0400667
0.0394017
0.434922
1.20276
2.08803
2.89299
3.13363
0.140047
0.140006
0.139941
0.139911
0.139906
0.139898
0.139907
0.139933
0.139968
0.139999
0.140025
0.140049
0.14007
0.140086
0.140099
0.140113
0.140127
0.140141
0.140156
0.140176
0.140196
0.140217
0.140236
0.140253
0.140268
0.140281
0.140292
0.140303
0.140316
0.140331
0.140347
0.140362
0.140378
0.140396
0.140414
0.140437
0.140459
0.140496
0.14048
0.140054
0.140077
0.140088
0.140089
0.140101
0.140122