/*--------------------------------*- C++ -*----------------------------------*\
  =========                 |
  \\      /  F ield         | OpenFOAM: The Open Source CFD Toolbox
   \\    /   O peration     | Website:  https://openfoam.org
    \\  /    A nd           | Version:  9
     \\/     M anipulation  |
\*---------------------------------------------------------------------------*/
FoamFile
{
    format      ascii;
    class       volScalarField;
    location    "250";
    object      p;
}
// * * * * * * * * * * * * * * * * * * * * * * * * * * * * * * * * * * * * * //

dimensions      [0 2 -2 0 0 0 0];

internalField   nonuniform List<scalar> 
10720
(
-23.795
-33.9222
-45.1079
-54.9934
-62.8239
-69.7997
-74.6745
-77.441
-78.8197
-78.471
-76.5883
-73.4645
-69.3889
-64.7321
-59.9103
-55.3266
-51.4137
-48.4018
-46.2951
-44.8062
-43.7099
-42.8632
-42.2388
-41.7641
-41.0274
-39.7242
-38.1669
-36.7094
-35.3709
-34.6216
-35.2339
-36.4659
-36.4778
-34.638
-34.2769
-33.3037
-25.1725
-9.86722
-0.923036
-12.7586
-2.22908
10.0135
22.4004
34.1276
44.5501
53.0128
58.8936
62.0258
63.1293
62.9557
61.7286
59.7985
57.4835
54.9744
52.3573
49.7077
47.0143
44.2556
41.3905
38.4154
35.2892
31.9942
28.5866
25.3284
22.3926
19.6429
17.0368
14.5929
12.318
10.301
8.41452
6.66486
5.08746
3.65069
2.51405
1.668
2.27102
5.39227
-1.97817
-10.3035
-18.9153
-27.2697
-35.117
-42.5063
-48.9538
-54.1206
-57.8815
-60.2295
-61.343
-61.3762
-60.4381
-58.655
-56.2041
-53.3276
-50.4447
-47.9351
-46.0178
-44.6031
-43.5763
-42.7784
-42.1685
-41.723
-41.0367
-39.7608
-38.2039
-36.7473
-35.4218
-34.6782
-35.2753
-36.4872
-36.4846
-34.6204
-34.2515
-33.327
-25.2583
-9.97289
-1.24863
5.93314
13.8142
22.0692
30.6223
38.9074
46.5365
53.0054
57.8158
60.7279
61.9962
61.9962
61.0426
59.4311
57.3867
55.0735
52.5942
50.0217
47.3712
44.6358
41.7946
38.841
35.749
32.5071
29.1735
25.9539
22.9972
20.2122
17.565
15.0766
12.7551
10.688
8.75501
6.96217
5.34522
3.87548
2.7127
1.84527
2.43503
5.24319
2.00273
-5.53811
-13.3964
-21.3769
-29.0193
-36.1613
-42.5185
-47.7399
-51.7139
-54.4857
-56.0678
-56.5328
-55.9993
-54.6467
-52.7331
-50.5684
-48.4901
-46.6899
-45.253
-44.1487
-43.3384
-42.6514
-42.074
-41.6583
-41.0359
-39.8075
-38.2561
-36.8014
-35.4953
-34.7596
-35.3369
-36.5232
-36.5155
-34.6328
-34.2493
-33.3638
-25.3973
-10.1619
-1.54747
9.2656
16.684
24.4458
32.2817
39.7028
46.4395
52.1262
56.3962
59.113
60.4697
60.7149
60.0651
58.7406
56.9317
54.7994
52.4523
49.9672
47.3779
44.6912
41.8952
38.982
35.9356
32.7497
29.4763
26.2803
23.3044
20.5009
17.8376
15.3322
12.9921
10.9016
8.94885
7.13708
5.50231
4.01804
2.8443
1.96838
2.53341
5.03884
8.05215
1.49032
-5.43765
-12.4766
-19.354
-25.9834
-32.1057
-37.4832
-41.9978
-45.5867
-48.1995
-49.8183
-50.4833
-50.2932
-49.3954
-48.0191
-46.5267
-45.2331
-44.2548
-43.5161
-42.9684
-42.4372
-41.929
-41.5572
-41.005
-39.8396
-38.3011
-36.8458
-35.558
-34.8344
-35.3953
-36.5598
-36.5603
-34.6937
-34.2908
-33.4012
-25.5446
-10.4046
-1.85053
14.2526
20.4879
27.0042
33.6762
40.0418
45.9034
50.9321
54.7875
57.3577
58.7871
59.2356
58.853
57.8088
56.2627
54.3558
52.1891
49.8399
47.3526
44.7446
42.0123
39.1529
36.1597
33.0331
29.8198
26.6569
23.6775
20.8634
18.1851
15.6594
13.2956
11.1734
9.19294
7.35422
5.69373
4.18793
2.99609
2.10239
2.62988
4.83068
10.9864
5.04355
-1.26885
-7.73344
-14.0895
-20.3303
-26.2107
-31.5114
-36.1028
-39.8744
-42.7803
-44.8051
-45.9811
-46.3953
-46.1789
-45.4923
-44.5602
-43.6796
-43.0629
-42.6777
-42.4266
-42.1029
-41.7142
-41.4066
-40.9212
-39.8287
-38.3215
-36.8741
-35.6068
-34.8973
-35.443
-36.5922
-36.6139
-34.8053
-34.3762
-33.449
-25.7113
-10.7172
-2.21002
16.6118
22.2347
28.0985
34.0804
39.7628
45.0109
49.5565
53.0905
55.5431
57.0267
57.6389
57.4904
56.7072
55.4188
53.7423
51.7706
49.5766
47.2115
44.6989
42.0461
39.2545
36.326
33.2655
30.1166
26.9938
24.0202
21.1996
18.5099
15.968
13.5842
11.4338
9.4293
7.56662
5.88297
4.35721
3.14842
2.23475
2.71791
4.61207
13.296
7.93941
2.19625
-3.68982
-9.51253
-15.2892
-20.8112
-25.9009
-30.4408
-34.3341
-37.5316
-39.9965
-41.7117
-42.7085
-43.0814
-42.9751
-42.5554
-42.05
-41.7111
-41.6179
-41.6724
-41.6118
-41.4031
-41.1917
-40.7713
-39.7517
-38.2932
-36.8681
-35.6259
-34.9296
-35.46
-36.6019
-36.6639
-34.9564
-34.4919
-33.5085
-25.9005
-11.1124
-2.64986
18.3743
23.4052
28.6722
34.0589
39.1797
43.9387
48.0933
51.3659
53.7174
55.234
55.9747
56.0214
55.4708
54.4243
52.9784
51.2126
49.193
46.9705
44.5741
42.0184
39.3109
36.4585
33.4715
30.39
27.3139
24.3536
21.533
18.8362
16.2824
13.8806
11.7034
9.67495
7.78837
6.0805
4.53402
3.30505
2.36756
2.79557
4.38291
14.7639
9.86504
4.58353
-0.837632
-6.20164
-11.5861
-16.778
-21.627
-26.052
-29.9321
-33.2199
-35.891
-37.9233
-39.3261
-40.157
-40.5241
-40.561
-40.4154
-40.304
-40.4096
-40.7146
-40.9368
-40.9599
-40.8803
-40.5296
-39.584
-38.1952
-36.8169
-35.6131
-34.9326
-35.4474
-36.591
-36.7137
-35.1504
-34.6612
-33.6098
-26.1421
-11.6027
-3.16885
19.4192
23.9973
28.8044
33.7248
38.3997
42.762
46.5947
49.6514
51.9137
53.4447
54.2824
54.4874
54.1379
53.311
52.0862
50.5265
48.6906
46.6244
44.3608
41.9174
39.3081
36.5427
33.6371
30.6279
27.6053
24.6681
21.8551
19.1567
16.595
14.1778
11.9763
9.92523
8.01537
6.28348
4.71525
3.46476
2.49994
2.8599
4.14851
15.7995
11.2717
6.3971
1.3899
-3.57848
-8.58258
-13.4503
-18.0451
-22.2974
-26.1055
-29.4156
-32.2159
-34.477
-36.1912
-37.3874
-38.1408
-38.5693
-38.7784
-38.8995
-39.1427
-39.6104
-40.0811
-40.3595
-40.4449
-40.1766
-39.3081
-38.0052
-36.6961
-35.5467
-34.8829
-35.3795
-36.5392
-36.7572
-35.3805
-34.8852
-33.754
-26.4244
-12.1805
-3.76874
20.0595
24.2603
28.6756
33.203
37.5085
41.5404
45.0985
47.9726
50.1525
51.6828
52.5888
52.9203
52.7392
52.1073
51.0866
49.7275
48.0774
46.1776
44.0587
41.7419
39.2429
36.5765
33.7597
30.8301
27.867
24.9629
22.1635
19.4698
16.9037
14.4754
12.2511
10.1792
8.24688
6.49107
4.90086
3.62618
2.63038
2.91176
3.90716
16.4365
12.2613
7.7349
3.07926
-1.52942
-6.20777
-10.7744
-15.1156
-19.1844
-22.8835
-26.1549
-28.9993
-31.3912
-33.3181
-34.7896
-35.85
-36.5917
-37.1178
-37.4937
-37.869
-38.4282
-39.0766
-39.5927
-39.8604
-39.69
-38.9079
-37.7093
-36.4946
-35.4228
-34.7856
-35.2635
-36.4579
-36.8077
-35.66
-35.2014
-33.9801
-26.7805
-12.8595
-4.43983
20.4009
24.2757
28.3634
32.5637
36.5557
40.3048
43.6272
46.3434
48.4443
49.9618
50.914
51.3431
51.301
50.8378
50.0015
48.8315
47.3641
45.6344
43.6686
41.4887
39.1112
36.5539
33.8346
30.9911
28.0948
25.2329
22.4552
19.7725
17.2069
14.7714
12.5278
10.4368
8.48315
6.70377
5.0906
3.79017
2.75992
2.95
3.66238
16.8492
12.9593
8.73732
4.39865
0.0941561
-4.27861
-8.57009
-12.6717
-16.5474
-20.1147
-23.3158
-26.1538
-28.615
-30.6847
-32.3612
-33.6657
-34.6589
-35.4391
-36.0635
-36.595
-37.2153
-37.9658
-38.6692
-39.1175
-39.0601
-38.3765
-37.2973
-36.1959
-35.2193
-34.6179
-35.0757
-36.3297
-36.8581
-35.9799
-35.6058
-34.2781
-27.1904
-13.627
-5.18399
20.5314
24.1283
27.9369
31.8515
35.5737
39.0757
42.1934
44.7705
46.7953
48.2902
49.271
49.7729
49.8437
49.5232
48.851
47.8546
46.5631
45.0019
43.1942
41.1581
38.9118
36.4719
33.859
31.1078
28.2864
25.4747
22.7277
20.0614
17.5022
15.0631
12.8038
10.6949
8.72201
6.91936
5.28343
3.95428
2.88621
2.97489
3.40983
17.0758
13.4367
9.48591
5.42082
1.39691
-2.71332
-6.75014
-10.6243
-14.3122
-17.7369
-20.8474
-23.6437
-26.1261
-28.2805
-30.0999
-31.5928
-32.7923
-33.7728
-34.6076
-35.3146
-36.0017
-36.7969
-37.6202
-38.2236
-38.2865
-37.7128
-36.7679
-35.7996
-34.9341
-34.3898
-34.8353
-36.1754
-36.9267
-36.3592
-36.1361
-34.6918
-27.6957
-14.5019
-5.99564
20.5123
23.872
27.431
31.0979
34.5825
37.8662
40.8037
43.2569
45.2068
46.6722
47.6661
48.2219
48.3823
48.1818
47.6518
46.8133
45.6861
44.2891
42.6393
40.7519
38.643
36.3288
33.8291
31.177
28.4374
25.6849
22.9767
20.3341
17.7868
15.3493
13.0783
10.9543
8.96386
7.13882
5.47935
4.11992
3.01078
2.98652
3.1555
17.1579
13.7515
10.0408
6.22243
2.43882
-1.42391
-5.23122
-8.89576
-12.3999
-15.6787
-18.6866
-21.4204
-23.8893
-26.0866
-27.9997
-29.6302
-30.9954
-32.1399
-33.1382
-34.014
-34.7916
-35.6045
-36.4823
-37.1997
-37.3823
-36.9262
-36.124
-35.3011
-34.5552
-34.0842
-34.5284
-35.9804
-37.0088
-36.7967
-36.7756
-35.1998
-28.2692
-15.4632
-6.8822
20.3913
23.5343
26.8766
30.3216
33.5966
36.6847
39.462
41.8018
43.6783
45.1087
46.1046
46.6983
46.9287
46.8272
46.4197
45.7218
44.7459
43.5056
42.0107
40.2735
38.3059
36.1237
33.7431
31.1971
28.5457
25.8611
23.1994
20.588
18.0579
15.6272
13.3482
11.2117
9.20519
7.35942
5.67639
4.28423
3.13039
2.98493
2.89371
17.1486
13.9391
10.4454
6.84523
3.28605
-0.362084
-3.95668
-7.42377
-10.7558
-13.8904
-16.7899
-19.4477
-21.8786
-24.0853
-26.0539
-27.7798
-29.2724
-30.5537
-31.6795
-32.6955
-33.5838
-34.4176
-35.3019
-36.0855
-36.3748
-36.0386
-35.3804
-34.7094
-34.0935
-33.7144
-34.1879
-35.7786
-37.1302
-37.3284
-37.5576
-35.8504
-28.9598
-16.5342
-7.82489
20.1888
23.1441
26.2897
29.537
32.6233
35.5363
38.1684
40.402
42.2075
43.5986
44.5885
45.2063
45.4911
45.4701
45.1671
44.5923
43.7547
42.6604
41.3158
39.7266
37.9027
35.8554
33.5999
31.165
28.6087
25.9994
23.3928
20.8197
18.3134
15.8949
13.613
11.4672
9.44719
7.58216
5.87525
4.4489
3.24736
2.97155
2.63268
17.0584
14.0339
10.7322
7.33173
3.96797
0.523859
-2.87898
-6.16592
-9.3335
-12.3275
-15.1175
-17.6913
-20.0679
-22.2588
-24.2536
-26.0408
-27.6251
-29.0166
-30.246
-31.3668
-32.3662
-33.241
-34.1088
-34.9159
-35.293
-35.0744
-34.553
-34.0312
-33.5501
-33.2693
-33.8087
-35.5644
-37.2807
-37.9575
-38.4573
-36.615
-29.7316
-17.6884
-8.81482
19.9296
22.7142
25.6841
28.7524
31.6681
34.4209
36.9208
39.0557
40.7917
42.1416
43.1184
43.7503
44.0755
44.1196
43.9042
43.4368
42.7228
41.7639
40.5618
39.1171
37.4361
35.5259
33.399
31.0802
28.6249
26.098
23.5542
21.0266
18.5503
16.1494
13.8694
11.7169
9.68602
7.80284
6.07329
4.6102
3.3579
2.94526
2.36454
16.9131
14.0508
10.9272
7.7057
4.52633
1.26015
-1.96361
-5.08117
-8.09637
-10.9554
-13.6355
-16.1226
-18.434
-20.5921
-22.5894
-24.4115
-26.0575
-27.5335
-28.8497
-30.0488
-31.1419
-32.0794
-32.9331
-33.7335
-34.1775
-34.0691
-33.6726
-33.29
-32.944
-32.7732
-33.4279
-35.3831
-37.4962
-38.7186
-39.5068
-37.5444
-30.6369
-18.9395
-9.83238
19.6288
22.259
25.0687
27.9732
30.7327
33.34
35.7179
37.7599
39.4278
40.7349
41.693
42.3313
42.6853
42.782
42.639
42.265
41.6601
40.8252
39.7559
38.4506
36.9093
35.137
33.1403
30.9418
28.5919
26.1544
23.6804
21.206
18.7662
16.3891
14.1163
11.9615
9.92261
8.02346
6.27152
4.77066
3.46494
2.90949
2.10054
16.7229
14.0132
11.0484
7.9926
4.97542
1.88074
-1.18054
-4.14417
-7.01363
-9.74431
-12.316
-14.7158
-16.9565
-19.0689
-21.0505
-22.8863
-24.5698
-26.1051
-27.4921
-28.7522
-29.9139
-30.923
-31.7812
-32.561
-33.0534
-33.0481
-32.7636
-32.502
-32.2826
-32.2333
-33.0403
-35.2266
-37.7742
-39.5951
-40.6744
-38.6012
-31.6332
-20.2433
-10.8882
19.2969
21.7864
24.4488
27.2044
29.8195
32.2919
34.5585
36.5125
38.114
39.3769
40.313
40.9502
41.3246
41.4615
41.3792
41.084
40.5761
39.8525
38.9067
37.7331
36.3275
34.691
32.8256
30.7497
28.5096
26.1669
23.7696
21.355
18.9582
16.6104
14.3501
12.1966
10.152
8.2391
6.46549
4.92594
3.56362
2.86189
1.83076
16.5003
13.9264
11.1112
8.2062
5.34413
2.4
-0.509147
-3.32634
-6.06231
-8.6709
-11.1369
-13.4494
-15.6174
-17.6753
-19.6279
-21.4603
-23.1631
-24.7364
-26.178
-27.4896
-28.6996
-29.7754
-30.6628
-31.4251
-31.9518
-32.0442
-31.8627
-31.7031
-31.5998
-31.6889
-32.6862
-35.1411
-38.167
-40.6137
-41.9793
-39.8276
-32.7718
-21.6119
-11.9783
18.9438
21.3034
23.8315
26.4471
28.9292
31.2782
33.4404
35.3101
36.8471
38.0645
38.9758
39.6064
39.9941
40.1619
40.1293
39.901
39.4779
38.8537
38.0215
36.9707
35.6956
34.191
32.4565
30.5039
28.3772
26.1336
23.8196
21.4711
19.1244
16.8115
14.5701
12.4226
10.3761
8.45192
6.65773
5.079
3.65823
2.80778
1.56925
16.2521
13.8071
11.1269
8.36293
5.63872
2.84069
0.070901
-2.61359
-5.22168
-7.71488
-10.0786
-12.3058
-14.3999
-16.3981
-18.3113
-20.1271
-21.834
-23.428
-24.9071
-26.2617
-27.5066
-28.6345
-29.5692
-30.33
-30.8835
-31.0703
-30.9895
-30.9175
-30.9188
-31.1584
-32.3688
-35.1241
-38.6677
-41.7381
-43.3806
-41.179
-34.0068
-23.0389
-13.1506
18.5747
20.8155
23.2172
25.7055
28.0627
30.2961
32.3613
34.1506
35.6245
36.7967
37.6803
38.3008
38.6949
38.8863
38.8933
38.7219
38.3716
37.8364
37.1068
36.1705
35.0185
33.6416
32.0354
30.2064
28.1948
26.0541
23.8286
21.5522
19.2616
16.9893
14.7722
12.6348
10.5893
8.65559
6.84255
5.22387
3.74329
2.743
1.30353
15.9857
13.6569
11.1055
8.47115
5.87959
3.21086
0.572391
-1.98538
-4.47595
-6.86011
-9.12581
-11.2699
-13.2902
-15.2255
-17.0921
-18.8814
-20.5806
-22.1826
-23.6846
-25.074
-26.3483
-27.5139
-28.5044
-29.2872
-29.8676
-30.1467
-30.1739
-30.1874
-30.2911
-30.6969
-32.1427
-35.2389
-39.3308
-42.9866
-44.8983
-42.6779
-35.3938
-24.5774
-14.4612
18.1962
20.3254
22.6117
24.978
27.2195
29.3469
31.3183
33.031
34.4428
35.5701
36.4239
37.0315
37.4268
37.6356
37.6742
37.5509
37.2631
36.8066
36.169
35.3385
34.3011
33.0467
31.5646
29.8587
27.9627
25.9282
23.7949
21.5967
19.3679
17.1426
14.9554
12.8341
10.7932
8.85365
7.02314
5.36536
3.82388
2.67517
1.05071
15.7053
13.488
11.0536
8.54136
6.06886
3.52691
1.00891
-1.433
-3.81131
-6.09221
-8.26461
-10.3278
-12.2754
-14.1457
-15.9614
-17.7165
-19.3987
-20.9983
-22.5108
-23.9247
-25.2253
-26.4177
-27.4611
-28.2884
-28.903
-29.2719
-29.4198
-29.5312
-29.7443
-30.3316
-32.0299
-35.4945
-40.1306
-44.3109
-46.4916
-44.282
-36.8947
-26.2707
-16.0133
17.8106
19.8371
22.013
24.2683
26.4003
28.4257
30.3102
31.949
33.3009
34.383
35.2067
35.7978
36.191
36.4109
36.4751
36.3908
36.1575
35.7691
35.2146
34.4798
33.5496
32.4106
31.0485
29.4628
27.6824
25.7554
23.7181
21.6024
19.4407
17.2674
15.1158
13.0148
10.9822
9.03856
7.19235
5.49571
3.89328
2.59789
0.796394
15.415
13.2994
10.9778
8.57885
6.22209
3.79258
1.3893
-0.941743
-3.21659
-5.39968
-7.48319
-9.46796
-11.3451
-13.15
-14.912
-16.6277
-18.2859
-19.8752
-21.3891
-22.8188
-24.1435
-25.3591
-26.4483
-27.3376
-28.0013
-28.4588
-28.7424
-28.9795
-29.3241
-30.117
-32.0964
-35.9486
-41.0959
-45.7292
-48.1721
-45.9993
-38.5542
-28.1636
-17.8519
17.4225
19.3515
21.4266
23.5738
25.604
27.5351
29.3345
30.9017
32.1958
33.2325
34.0256
34.5981
34.9865
35.2128
35.2971
35.2449
35.058
34.7291
34.2486
33.6
32.7689
31.7376
30.4906
29.0211
27.3554
25.5361
23.5977
21.568
19.4791
17.3629
15.253
13.1778
11.1585
9.21428
7.35497
5.62117
3.95835
2.52108
0.559952
15.118
13.1008
10.8821
8.59106
6.33868
4.02059
1.72318
-0.50628
-2.68106
-4.77208
-6.77051
-8.67995
-10.4887
-12.2296
-13.9364
-15.609
-17.2373
-18.8099
-20.3181
-21.7549
-23.1
-24.3378
-25.4646
-26.423
-27.1548
-27.6995
-28.1299
-28.5279
-29.0396
-30.064
-32.3469
-36.5774
-42.1739
-47.184
-49.8868
-47.7948
-40.3453
-30.2709
-19.9858
17.0329
18.8716
20.8485
22.8976
24.8302
26.6697
28.3899
29.8886
31.1257
32.1184
32.8793
33.4325
33.8122
34.0424
34.1408
34.1159
33.9674
33.6907
33.275
32.7047
31.9635
31.0329
29.8943
28.5372
26.9833
25.2718
23.4332
21.4928
19.48
17.426
15.3622
13.318
11.3148
9.3733
7.5018
5.73262
4.01012
2.43671
0.325028
14.817
12.8897
10.7716
8.58115
6.43086
4.21219
2.01629
-0.114782
-2.19738
-4.20085
-6.11805
-7.95432
-9.69742
-11.3765
-13.0277
-14.6552
-16.2497
-17.8009
-19.2988
-20.7366
-22.0982
-23.3602
-24.5205
-25.5479
-26.3675
-27.0044
-27.5863
-28.1826
-28.9104
-30.2014
-32.8071
-37.3975
-43.3739
-48.689
-51.6349
-49.6608
-42.2949
-32.5482
-22.3127
16.6448
18.3972
20.2844
22.2361
24.078
25.8328
27.4739
28.9063
30.0878
31.0372
31.7657
32.2985
32.6678
32.8987
33.0077
33.0044
32.8883
32.6569
32.2982
31.7982
31.1383
30.3009
29.2636
28.0141
26.5686
24.9636
23.2252
21.3766
19.4434
17.4562
15.4437
13.4361
11.454
9.51977
7.6392
5.83784
4.05773
2.35595
0.112174
14.514
12.6744
10.6485
8.5542
6.49675
4.37762
2.27561
0.23517
-1.7579
-3.67816
-5.51822
-7.28373
-8.96373
-10.5829
-12.1791
-13.76
-15.3182
-16.8439
-18.3275
-19.7616
-21.1347
-22.4216
-23.6138
-24.7049
-25.6255
-26.3646
-27.0932
-27.9157
-28.9102
-30.5039
-33.4386
-38.3542
-44.6295
-50.1819
-53.3546
-51.5698
-44.3708
-34.9336
-24.7074
16.2587
17.9306
19.7294
21.5935
23.3472
25.018
26.5865
27.9542
29.0822
29.9881
30.6847
31.1952
31.5531
31.7813
31.8979
31.9109
31.8235
31.6297
31.3222
30.8839
30.2981
29.5454
28.6031
27.455
26.1143
24.613
22.9746
21.2183
19.3677
17.4501
15.4936
13.5262
11.5695
9.64467
7.75773
5.92544
4.0908
2.26804
-0.097509
14.2101
12.4516
10.5162
8.5123
6.54677
4.51626
2.50528
0.553641
-1.3571
-3.19791
-4.96436
-6.66181
-8.28115
-9.84281
-11.3849
-12.9187
-14.4389
-15.9367
-17.4034
-18.8311
-20.2118
-21.5237
-22.75
-23.8981
-24.9259
-25.7841
-26.6525
-27.7126
-29.0206
-30.9566
-34.2284
-39.4332
-45.9358
-51.6652
-55.035
-53.4976
-46.5379
-37.3077
-27.0284
15.8767
17.471
19.1894
20.9649
22.6364
24.2301
25.7248
27.0299
28.1055
28.9689
29.6333
30.1214
30.4664
30.6901
30.8107
30.8383
30.7719
30.6126
30.3487
29.9658
29.4467
28.7711
27.9164
26.8635
25.6229
24.2223
22.6826
21.019
19.2529
17.4084
15.5122
13.59
11.6639
9.75318
7.8641
6.00518
4.12013
2.18629
-0.282371
13.9073
12.2284
10.3761
8.45943
6.5774
4.63688
2.71098
0.84032
-0.988893
-2.75433
-4.45035
-6.08285
-7.64365
-9.15
-10.639
-12.1258
-13.6071
-15.0751
-16.5225
-17.9415
-19.3259
-20.6603
-21.9229
-23.1224
-24.2534
-25.2466
-26.2481
-27.5329
-29.1801
-31.4899
-35.1007
-40.5542
-47.2151
-53.0656
-56.6125
-55.4025
-48.7236
-39.6065
-29.2918
15.4988
17.0206
18.6585
20.3544
21.9454
23.4618
24.8889
26.1334
27.1575
27.9792
28.6111
29.0765
29.4067
29.6243
29.7481
29.7838
29.7377
29.6056
29.3808
29.0464
28.5868
27.9818
27.2071
26.2434
25.0973
23.7939
22.3503
20.7789
19.0979
17.3287
15.4954
13.6223
11.7299
9.83684
7.94759
6.06522
4.13295
2.09884
-0.462778
13.6063
12.0008
10.2312
8.39672
6.59806
4.73775
2.89443
1.10457
-0.649668
-2.34306
-3.97154
-5.5417
-7.04636
-8.49942
-9.93676
-11.3769
-12.819
-14.2561
-15.6826
-17.0915
-18.4772
-19.8308
-21.1312
-22.3799
-23.6031
-24.7435
-25.8798
-27.3591
-29.3436
-32.05
-36.0042
-41.6755
-48.4408
-54.3694
-58.0639
-57.2253
-50.8304
-41.7846
-31.6362
15.1267
16.5779
18.1426
19.7569
21.2727
22.7185
24.0763
25.2616
26.2358
27.0165
27.6165
28.0584
28.3735
28.5847
28.7065
28.7513
28.719
28.6124
28.4189
28.1286
27.722
27.1806
26.4792
25.5979
24.5408
23.3302
21.9798
20.4996
18.9039
17.2119
15.4447
13.6249
11.771
9.90044
8.01621
6.11579
4.14239
2.02007
-0.615947
13.3085
11.7757
10.082
8.32714
6.60435
4.82665
3.06053
1.34453
-0.335176
-1.95936
-3.52336
-5.03366
-6.48427
-7.88586
-9.27302
-10.6673
-12.0702
-13.4757
-14.8793
-16.2761
-17.6607
-19.0289
-20.3657
-21.6631
-22.9635
-24.2497
-25.5291
-27.1613
-29.4425
-32.5412
-36.8342
-42.6954
-49.5193
-55.493
-59.3219
-58.8858
-52.7728
-43.9054
-34.3459
14.7599
16.145
17.6356
19.1771
20.6184
21.993
23.2877
24.4154
25.3404
26.0809
26.6489
27.0674
27.3672
27.5686
27.6898
27.7379
27.7197
27.6312
27.4675
27.2134
26.8546
26.3705
25.736
24.9305
23.9566
22.8337
21.5731
20.1816
18.6706
17.0562
15.357
13.5927
11.7805
9.93557
8.05921
6.14447
4.13484
1.93642
-0.763308
13.0135
11.5483
9.93066
8.25124
6.60528
4.90058
3.21022
1.56886
-0.0426338
-1.60024
-3.10215
-4.55471
-5.95308
-7.30496
-8.64339
-9.99265
-11.3563
-12.7297
-14.1092
-15.4919
-16.8737
-18.2527
-19.6216
-20.9676
-22.3315
-23.7476
-25.1831
-26.9342
-29.4401
-32.8949
-37.5158
-43.547
-50.4013
-56.3992
-60.3385
-60.2855
-54.4567
-46.0315
-37.5452
14.3999
15.7201
17.1436
18.6092
19.9815
21.291
22.5205
23.5919
24.4692
25.1701
25.7068
26.1019
26.3859
26.578
26.6947
26.7465
26.7377
26.6664
26.5251
26.304
25.9871
25.5542
24.9803
24.2445
23.3477
22.3074
21.1326
19.8273
18.3999
16.8634
15.234
13.5285
11.7622
9.94757
8.08483
6.16215
4.12413
1.86285
-0.881144
12.7231
11.3251
9.7773
8.17162
6.59534
4.96702
3.3481
1.77413
0.231959
-1.26182
-2.70398
-4.10078
-5.44849
-6.75226
-8.04328
-9.34827
-10.6728
-12.0133
-13.3672
-14.7335
-16.1101
-17.4956
-18.8897
-20.2813
-21.6988
-23.2163
-24.8098
-26.6613
-29.297
-33.0254
-37.9366
-44.1154
-50.979
-56.9899
-61.0218
-61.3159
-55.8321
-48.201
-41.1085
14.0459
15.3054
16.6602
18.0585
19.3621
20.6052
21.7758
22.792
23.6226
24.2843
24.7899
25.1617
25.429
25.611
25.7226
25.7758
25.7745
25.716
25.5948
25.4015
25.1218
24.7337
24.2149
23.543
22.7172
21.754
20.6605
19.4379
18.0919
16.6326
15.0733
13.4281
11.71
9.92855
8.08272
6.15661
4.09626
1.78512
-0.992241
12.437
11.1012
9.62405
8.08834
6.58319
5.02223
3.47364
1.96895
0.490176
-0.942018
-2.326
-3.66876
-4.96699
-6.22417
-7.46894
-8.73015
-10.0153
-11.3221
-12.649
-13.9965
-15.3648
-16.7531
-18.1644
-19.5944
-21.0583
-22.6457
-24.3806
-26.3341
-29.0113
-32.891
-38.025
-44.3236
-51.1818
-57.1993
-61.2952
-61.8752
-56.8342
-50.3116
-44.4945
13.6995
14.8989
16.1917
17.5191
18.7593
19.9418
21.0507
22.0135
22.7982
23.4219
23.8966
24.2453
24.4961
24.6665
24.7726
24.8256
24.8295
24.7815
24.6769
24.5086
24.2587
23.912
23.4427
22.8288
22.0683
21.1766
20.1596
19.0161
17.7492
16.3661
14.8775
13.2945
11.6279
9.88433
8.0611
6.13884
4.06528
1.71803
-1.07314
12.1563
10.8828
9.47057
8.00332
6.56268
5.07332
3.59076
2.14897
0.734783
-0.637509
-1.96533
-3.25535
-4.50501
-5.71663
-6.91637
-8.13417
-9.37958
-10.6515
-11.9495
-13.2753
-14.6312
-16.0175
-17.4377
-18.8946
-20.3978
-22.0282
-23.8648
-25.9231
-28.5812
-32.4615
-37.7022
-44.0681
-50.8998
-56.9163
-61.0595
-61.8637
-57.4061
-52.1166
-46.9946
13.3595
14.5027
15.7314
16.9966
18.1729
19.2935
20.3466
21.257
21.9967
22.5829
23.0271
23.3524
23.5859
23.7448
23.8441
23.8955
23.9028
23.8631
23.7738
23.6235
23.4023
23.0906
22.6659
22.1047
21.4036
20.578
19.6324
18.5639
17.3728
16.0639
14.6451
13.1248
11.5111
9.80787
8.01075
6.09743
4.01744
1.6472
-1.14769
11.88
10.6646
9.31842
7.91635
6.54254
5.11566
3.69898
2.32244
0.967215
-0.34668
-1.61967
-2.85804
-4.05954
-5.22649
-6.38199
-7.55645
-8.76138
-9.99708
-11.264
-12.565
-13.904
-15.2823
-16.7032
-18.1733
-19.704
-21.3586
-23.2475
-25.3971
-28.0175
-31.7582
-36.9478
-43.2956
-50.0634
-56.0619
-60.2251
-61.1958
-57.4404
-53.2794
-48.0145
13.0274
14.1148
15.2859
16.485
17.6025
18.6664
19.6611
20.5202
21.2164
21.7656
22.1799
22.4819
22.6981
22.8446
22.9365
22.9855
22.9946
22.9619
22.8833
22.7508
22.5522
22.2717
21.8868
21.3727
20.7259
19.9609
19.0818
18.0839
16.9654
15.7287
14.3791
12.9223
11.364
9.70515
7.93967
6.04284
3.96634
1.58675
-1.19304
11.6099
10.4528
9.16697
7.82938
6.51578
5.15628
3.80196
2.48399
1.19028
-0.067071
-1.28647
-2.47406
-3.628
-4.75046
-5.86217
-6.99321
-8.15683
-9.35467
-10.588
-11.8604
-13.1767
-14.5399
-15.9526
-17.4218
-18.9645
-20.6283
-22.5238
-24.7224
-27.3093
-30.8139
-35.7672
-41.9634
-48.5982
-54.5394
-58.697
-59.7855
-56.8012
-53.4463
-47.3382
12.702
13.7371
14.8485
15.9897
17.0476
18.0533
18.9951
19.8044
20.4574
20.9703
21.3549
21.6334
21.8318
21.9664
22.0498
22.0956
22.1048
22.0774
22.0078
21.8895
21.71
21.4579
21.107
20.6352
20.0379
19.3285
18.5106
17.5786
16.5288
15.3614
14.0791
12.6854
11.183
9.57054
7.84007
5.96516
3.8993
1.52274
-1.23332
11.3449
10.2418
9.01811
7.74175
6.49097
5.19007
3.89808
2.64185
1.40426
0.20227
-0.964156
-2.10173
-3.20832
-4.28638
-5.35427
-6.44132
-7.56244
-8.72032
-9.91697
-11.1565
-12.4442
-13.7841
-15.1792
-16.634
-18.1692
-19.8264
-21.6958
-23.8847
-26.4361
-29.6754
-34.2255
-40.0974
-46.4905
-52.3012
-56.4083
-57.5623
-55.3285
-52.3875
-45.2518
12.3847
13.3677
14.4254
15.5046
16.5078
17.4599
18.3464
19.1072
19.7183
20.1957
20.5509
20.8065
20.9886
21.1076
21.1858
21.2242
21.2355
21.2082
21.1489
21.0389
20.88
20.6485
20.3288
19.8944
19.3418
18.6831
17.9215
17.0508
16.066
14.965
13.7486
12.4177
10.9727
9.40991
7.71955
5.87389
3.82864
1.46788
-1.24668
11.0863
10.0379
8.87082
7.65495
6.46068
5.22399
3.99052
2.79028
1.61115
0.463649
-0.650895
-1.73893
-2.79845
-3.83188
-4.85566
-5.89799
-6.97513
-8.09067
-9.24714
-10.4489
-11.7016
-13.0097
-14.3765
-15.8041
-17.313
-18.9444
-20.7649
-22.8871
-25.3718
-28.3623
-32.4037
-37.7622
-43.7626
-49.3295
-53.3198
-54.4845
-52.8884
-50.0066
-42.247
12.0742
13.0083
14.01
15.0354
15.9825
16.8799
17.7164
18.4295
18.9996
19.442
19.7684
20.0021
20.1641
20.2741
20.3378
20.3774
20.3806
20.3611
20.3011
20.2063
20.0574
19.8477
19.5538
19.1527
18.6402
18.0276
17.3175
16.5035
15.5794
14.5414
13.3883
12.1189
10.7312
9.21945
7.57219
5.76085
3.74325
1.40944
-1.2572
10.8326
9.83493
8.72653
7.56827
6.43376
5.25211
4.07804
2.93687
1.81116
0.717458
-0.345691
-1.38444
-2.39675
-3.38531
-4.36434
-5.36103
-6.39233
-7.46298
-8.57532
-9.73435
-10.9452
-12.2131
-13.5407
-14.9284
-16.3927
-17.9763
-19.7293
-21.7438
-24.1096
-26.8749
-30.3885
-35.0771
-40.5107
-45.6828
-49.4531
-50.5669
-49.4185
-46.3979
-38.8503
11.7717
12.6571
13.6086
14.5759
15.4717
16.3187
17.1026
17.7697
18.2998
18.7081
19.0065
19.2176
19.3632
19.4571
19.515
19.5451
19.5494
19.5265
19.4739
19.3842
19.2487
19.0554
18.7835
18.4119
17.9352
17.3641
16.7011
15.9393
15.0718
14.0936
13.0016
11.7927
10.4629
9.00459
7.40484
5.63456
3.65385
1.35842
-1.24385
10.5854
9.63945
8.58402
7.48327
6.402
5.28148
4.1634
3.07527
2.00628
0.965286
-0.0471206
-1.03679
-2.0019
-2.94501
-3.87858
-4.8283
-5.81204
-6.83485
-7.89935
-9.01021
-10.1728
-11.3918
-12.6693
-14.0042
-15.4084
-16.923
-18.5896
-20.4712
-22.6647
-25.2025
-28.2322
-32.1708
-36.8728
-41.4801
-44.8977
-45.8814
-44.9582
-41.7517
-35.2568
11.4759
12.3156
13.2146
14.1314
14.9747
15.77
16.5067
17.1286
17.6195
17.9942
18.265
18.4539
18.5818
18.662
18.7106
18.7341
18.7349
18.7113
18.6613
18.5779
18.4523
18.2722
18.0201
17.6743
17.2289
16.6955
16.0756
15.3616
14.5465
13.6243
12.5905
11.4403
10.1677
8.76354
7.2137
5.48891
3.55147
1.30378
-1.23033
10.3434
9.44493
8.44502
7.39884
6.37419
5.30582
4.24462
3.21316
2.196
1.20703
0.245365
-0.695357
-1.61298
-2.51001
-3.39726
-4.29863
-5.23282
-6.20483
-7.21767
-8.27516
-9.38322
-10.5448
-11.7621
-13.0315
-14.3618
-15.7881
-17.3485
-19.0816
-21.0665
-23.3506
-25.9572
-29.1596
-33.0204
-36.9037
-39.8183
-40.5789
-39.6591
-36.3422
-31.4541
11.1879
11.982
12.8341
13.6962
14.4916
15.2393
15.9264
16.5045
16.9574
17.2995
17.5431
17.7102
17.8206
17.8873
17.926
17.9425
17.939
17.914
17.8653
17.7867
17.6686
17.5008
17.2657
16.9406
16.5237
16.0243
15.4433
14.773
14.0062
13.1366
12.1583
11.0651
9.84955
8.50112
7.00467
5.33112
3.44492
1.25469
-1.19663
10.1079
9.25789
8.30802
7.31608
6.34181
5.33211
4.32401
3.34388
2.38147
1.44408
0.532577
-0.359304
-1.22912
-2.07949
-2.91921
-3.77113
-4.65356
-5.57231
-6.52939
-7.52916
-8.57585
-9.67278
-10.8192
-12.0121
-13.2562
-14.5799
-16.0159
-17.5886
-19.3476
-21.3471
-23.5697
-26.1159
-29.111
-32.1606
-34.4346
-34.8684
-33.7516
-30.4282
-27.2111
10.9065
11.6577
12.4604
13.2757
14.0216
14.7209
15.3631
15.8986
16.3142
16.6242
16.841
16.9866
17.0795
17.1327
17.1613
17.1703
17.162
17.1347
17.0864
17.011
16.8993
16.742
16.5195
16.214
15.822
15.3527
14.8071
14.1766
13.4543
12.6338
11.708
10.6696
9.50999
8.21743
6.7761
5.15723
3.32748
1.202
-1.1655
9.87696
9.07165
8.1743
7.23393
6.3138
5.35344
4.3999
3.47462
2.56199
1.67598
0.814264
-0.0285527
-0.850261
-1.65309
-2.44447
-3.24537
-4.07432
-4.93684
-5.83505
-6.77228
-7.75228
-8.77673
-9.84389
-10.9502
-12.0979
-13.3074
-14.6044
-16.0061
-17.5354
-19.2336
-21.0863
-23.0748
-25.2655
-27.4481
-28.9872
-28.99
-27.53
-24.2665
-22.3769
10.6326
11.3411
12.1
12.864
13.5651
14.2197
14.8151
15.3093
15.6888
15.9677
16.1584
16.2826
16.3585
16.3982
16.4163
16.4175
16.4039
16.3736
16.3249
16.2515
16.1451
15.9955
15.785
15.4959
15.125
14.6834
14.1693
13.5748
12.8937
12.1188
11.2427
10.2571
9.1526
7.91663
6.53284
4.97312
3.20617
1.15303
-1.11791
9.65217
8.89279
8.04224
7.15354
6.28105
5.37675
4.47437
3.59801
2.73889
1.90314
1.09087
0.297034
-0.476332
-1.23096
-1.973
-2.72169
-3.49541
-4.29934
-5.13561
-6.00628
-6.91432
-7.85942
-8.8401
-9.85124
-10.8944
-11.9827
-13.1312
-14.3538
-15.6561
-17.0542
-18.5417
-20.053
-21.5544
-22.9202
-23.6956
-23.1871
-21.3095
-18.079
-16.9313
10.365
11.0334
11.7462
12.4664
13.1214
13.7304
14.2837
14.7376
15.0819
15.3302
15.4953
15.5985
15.6574
15.6836
15.6912
15.6843
15.665
15.6311
15.5812
15.5087
15.4062
15.2631
15.0625
14.7867
14.4361
14.0182
13.532
12.9709
12.3278
11.5954
10.766
9.83103
8.78016
7.6004
6.27519
4.77694
3.07652
1.10097
-1.0756
9.43213
8.71438
7.91347
7.07356
6.2524
5.39491
4.54492
3.72128
2.91071
2.12461
1.36192
0.616765
-0.107746
-0.813811
-1.50554
-2.20119
-2.91789
-3.66155
-4.43282
-5.23388
-6.06476
-6.92545
-7.81313
-8.7238
-9.65785
-10.6176
-11.6137
-12.6535
-13.7344
-14.8473
-15.9818
-17.072
-18.0096
-18.6704
-18.7267
-17.6783
-15.3789
-12.0806
-11.0718
10.1046
10.7332
11.4051
12.0773
12.6905
13.2576
13.7671
14.1822
14.4925
14.7113
14.8514
14.9341
14.9764
14.9892
14.9862
14.971
14.9457
14.9077
14.8559
14.7835
14.6834
14.5457
14.353
14.0904
13.7564
13.3587
12.8982
12.3675
11.7593
11.0662
10.2809
9.39432
8.39585
7.27231
6.00696
4.57324
2.94383
1.05102
-1.02015
9.21794
8.54304
7.78619
6.99482
6.21856
5.41484
4.61324
3.83701
3.07788
2.34103
1.62683
0.930466
0.254506
-0.402328
-1.04346
-1.68496
-2.34397
-3.02529
-3.73
-4.45784
-5.2085
-5.97999
-6.77095
-7.57751
-8.39692
-9.2276
-10.071
-10.9297
-11.7972
-12.6465
-13.4531
-14.1637
-14.6457
-14.7399
-14.1848
-12.6277
-9.95549
-6.4696
-5.14474
9.85008
10.4414
11.0702
11.7018
12.2719
12.7966
13.2666
13.644
13.9211
14.1111
14.2269
14.2896
14.3154
14.315
14.3015
14.2779
14.2463
14.2039
14.1495
14.0765
13.9782
13.8444
13.659
13.4071
13.0868
12.7077
12.2702
11.7673
11.1913
10.535
9.79124
8.95089
8.00319
6.93514
5.72983
4.36183
2.80563
0.998908
-0.972062
9.00777
8.37184
7.66162
6.91604
6.1886
5.4289
4.67736
3.95181
3.23903
2.55075
1.88475
1.23678
0.60951
0.00187891
-0.588272
-1.17544
-1.7758
-2.39402
-3.03026
-3.68318
-4.35062
-5.03071
-5.72158
-6.42466
-7.1258
-7.82904
-8.52222
-9.20702
-9.87193
-10.4814
-10.9951
-11.3673
-11.477
-11.1368
-10.1111
-8.12922
-5.16132
-1.45433
0.410046
9.60257
10.1567
10.7477
11.3346
11.8659
12.3516
12.7806
13.1217
13.367
13.5293
13.6216
13.6648
13.6747
13.6613
13.6372
13.6053
13.5672
13.52
13.4627
13.3885
13.291
13.1603
12.9808
12.7378
12.43
12.0673
11.6507
11.1728
10.6263
10.0045
9.29993
8.50356
7.60516
6.59168
5.44684
4.14597
2.66559
0.947627
-0.913755
8.80313
8.20744
7.53799
6.83822
6.15283
5.44405
4.73869
4.05784
3.39481
2.75377
2.13518
1.53492
0.95597