/*--------------------------------*- C++ -*----------------------------------*\
  =========                 |
  \\      /  F ield         | OpenFOAM: The Open Source CFD Toolbox
   \\    /   O peration     | Website:  https://openfoam.org
    \\  /    A nd           | Version:  9
     \\/     M anipulation  |
\*---------------------------------------------------------------------------*/
FoamFile
{
    format      ascii;
    class       volVectorField;
    location    "250";
    object      U;
}
// * * * * * * * * * * * * * * * * * * * * * * * * * * * * * * * * * * * * * //

dimensions      [0 1 -1 0 0 0 0];

internalField   nonuniform List<vector> 
10720
(
(-0.428682 11.944 9.30927e-18)
(0.330953 12.5764 -8.87806e-18)
(1.21625 13.1436 0)
(2.17679 13.4783 -1.70369e-16)
(3.17776 13.6226 1.93025e-16)
(4.17866 13.5808 1.3055e-16)
(5.10642 13.2977 1.72052e-16)
(5.91753 12.7732 0)
(6.57422 12.0033 0)
(7.03931 11.0056 0)
(7.27798 9.81305 3.83918e-17)
(7.24984 8.4604 0)
(6.92257 6.99602 8.68896e-16)
(6.28065 5.48556 0)
(5.33633 4.01352 0)
(4.16497 2.69122 0)
(2.88667 1.61607 -2.74412e-15)
(1.65029 0.840237 -5.73773e-15)
(0.586966 0.355495 8.67014e-15)
(-0.261869 0.0687346 0)
(-0.741524 -0.0611677 6.85601e-15)
(-1.05734 -0.108282 -1.1442e-14)
(-1.31669 -0.0978028 5.42676e-15)
(-1.53262 -0.060555 -1.58962e-16)
(-1.5729 -0.0419583 0)
(-1.38414 -0.0550841 2.29784e-15)
(-1.04923 -0.0716833 3.82681e-17)
(-0.600949 -0.0825321 -1.396e-15)
(0.160223 -0.128078 -4.42541e-15)
(1.19854 -0.210931 -1.0809e-14)
(2.22434 -0.296183 4.07142e-15)
(2.89729 -0.340716 8.37452e-15)
(2.56554 -0.259963 8.5281e-15)
(1.04399 -0.0596932 4.86293e-14)
(-2.18935 0.459261 -1.84775e-14)
(-3.17447 0.575343 -9.26841e-17)
(-2.62917 0.431958 4.24382e-17)
(-0.616259 0.0362188 1.19049e-14)
(-0.165445 -0.173425 -8.40039e-16)
(-1.07478 11.2141 2.17374e-18)
(-1.64947 10.3382 8.14364e-19)
(-2.12735 9.29842 7.91402e-18)
(-2.44793 8.01695 -3.36095e-17)
(-2.54618 6.64097 -1.14138e-16)
(-2.38765 5.20707 2.17845e-16)
(-1.96111 3.79999 1.0066e-15)
(-1.29897 2.5308 5.24771e-16)
(-0.506146 1.49873 0)
(0.303492 0.705907 0)
(1.11741 0.0444869 2.2255e-15)
(1.94711 -0.491709 7.17279e-16)
(2.73458 -0.877815 -1.08639e-15)
(3.45576 -1.13552 8.71409e-16)
(4.11138 -1.29972 1.43786e-15)
(4.70843 -1.39668 9.26558e-16)
(5.2548 -1.44754 1.20954e-15)
(5.76145 -1.46688 8.22374e-16)
(6.24008 -1.46451 0)
(6.699 -1.44341 0)
(7.14502 -1.4052 -1.27311e-15)
(7.58353 -1.34742 -6.60247e-17)
(8.01705 -1.26444 1.01249e-15)
(8.43465 -1.14415 -8.0875e-16)
(8.81164 -0.983988 8.24486e-18)
(9.14055 -0.797842 0)
(9.4307 -0.595701 2.4733e-16)
(9.68735 -0.383314 0)
(9.91351 -0.165248 0)
(10.1074 0.0553806 1.43674e-16)
(10.2703 0.27344 0)
(10.4097 0.486482 -3.69772e-16)
(10.5278 0.692654 -5.67982e-16)
(10.6282 0.890591 -2.09374e-15)
(10.7066 1.07925 5.94091e-16)
(10.77 1.26151 -1.86305e-18)
(10.766 1.432 0)
(10.6344 1.57879 6.51547e-16)
(9.58493 1.68596 1.67071e-15)
(2.20267 10.5869 -6.3697e-19)
(2.96697 11.0859 -2.39384e-18)
(3.86243 11.495 0)
(4.85237 11.7674 0)
(5.87162 11.8979 -5.41632e-17)
(6.9121 11.8682 -1.22101e-16)
(7.92163 11.7093 0)
(8.85713 11.4627 0)
(9.68462 11.1576 2.20727e-16)
(10.3678 10.7924 0)
(10.8789 10.365 7.13078e-16)
(11.1837 9.85881 0)
(11.2331 9.23393 2.24245e-16)
(10.9563 8.43054 -2.29065e-16)
(10.2634 7.38217 4.41562e-16)
(9.09589 6.07612 -9.27139e-16)
(7.48515 4.60272 1.05757e-15)
(5.6112 3.15389 1.21873e-15)
(3.75261 1.92933 1.55347e-15)
(2.14314 1.03203 1.3004e-16)
(0.885589 0.459715 -2.95164e-15)
(0.111002 0.157301 3.55054e-15)
(-0.320503 0.0201136 -2.09611e-16)
(-0.716731 -0.000218586 0)
(-0.878968 0.00473206 0)
(-0.720498 -0.0421241 0)
(-0.417813 -0.104123 1.5018e-16)
(-0.0265944 -0.143522 -3.36095e-17)
(0.66506 -0.222885 1.5256e-15)
(1.59314 -0.331306 -4.36467e-18)
(2.49603 -0.395338 2.87657e-18)
(3.01122 -0.368781 -3.0781e-17)
(2.97457 -0.237072 4.07804e-15)
(1.65513 0.0227129 -8.92784e-15)
(-1.96133 0.568055 -5.55103e-17)
(-2.36112 0.455261 -1.06718e-14)
(-1.54871 0.166447 0)
(0.722451 -0.300554 -2.02357e-15)
(1.92853 -0.610104 -4.3579e-16)
(1.5264 10.0186 6.55675e-19)
(0.911042 9.35547 -1.05429e-17)
(0.323845 8.54416 -1.44525e-16)
(-0.174818 7.57709 1.66619e-16)
(-0.51692 6.48475 0)
(-0.662701 5.30313 -3.95226e-16)
(-0.582709 4.09386 -2.76315e-16)
(-0.271655 2.95025 -2.03866e-15)
(0.229107 1.95772 9.18119e-16)
(0.853172 1.13597 -1.15151e-15)
(1.5339 0.459376 1.55643e-15)
(2.23716 -0.0652794 -4.34131e-16)
(2.93265 -0.449065 0)
(3.5999 -0.719485 -3.12033e-16)
(4.22854 -0.903748 1.04476e-17)
(4.81612 -1.02273 -7.3028e-16)
(5.36401 -1.09568 0)
(5.87846 -1.13587 0)
(6.36759 -1.15175 -8.34023e-17)
(6.83901 -1.14477 7.87964e-17)
(7.29822 -1.11576 -1.00825e-15)
(7.75037 -1.06102 -1.16956e-16)
(8.19738 -0.973284 5.31118e-17)
(8.63056 -0.839251 6.96372e-16)
(9.02975 -0.663016 -6.02535e-16)
(9.38572 -0.468484 -4.91947e-16)
(9.70443 -0.265753 0)
(9.99005 -0.0583188 0)
(10.2449 0.151026 0)
(10.4675 0.360262 3.27562e-18)
(10.6583 0.56406 0)
(10.8243 0.76127 0)
(10.9668 0.950845 9.71315e-16)
(11.0896 1.13199 7.04129e-16)
(11.1873 1.30523 -4.88361e-16)
(11.2724 1.47484 3.46765e-16)
(11.2717 1.63534 -4.57059e-16)
(11.3486 1.79915 -5.55505e-16)
(10.8441 1.84959 -1.0987e-15)
(2.35199 9.83205 6.02519e-21)
(2.90397 10.2815 1.24704e-17)
(3.55122 10.6918 -9.94456e-18)
(4.26695 11.0253 -1.80702e-17)
(5.02237 11.2506 -6.70822e-17)
(5.81277 11.3577 2.27618e-16)
(6.60677 11.3334 -1.60891e-16)
(7.36682 11.1763 -1.76076e-16)
(8.09228 10.896 -7.59264e-18)
(8.77986 10.5186 -2.10552e-16)
(9.41753 10.0811 1.66949e-16)
(9.99732 9.62309 -4.21158e-16)
(10.5011 9.17776 -1.8206e-16)
(10.8911 8.7501 0)
(11.0713 8.27633 -3.68416e-16)
(10.8616 7.60445 6.99286e-16)
(10.0561 6.57774 0)
(8.60119 5.20459 -1.45385e-15)
(6.69466 3.69462 -8.46147e-16)
(4.66713 2.32621 1.2771e-16)
(2.8341 1.29316 -1.63879e-16)
(1.51874 0.640085 -9.94618e-17)
(0.696407 0.281885 -1.70495e-15)
(0.0840735 0.13046 9.19603e-16)
(-0.223686 0.0609522 0)
(-0.152782 -0.041684 7.44134e-16)
(0.080792 -0.14616 -8.23476e-17)
(0.396427 -0.220653 0)
(0.984247 -0.332929 8.62492e-16)
(1.81145 -0.454511 1.34998e-15)
(2.614 -0.485619 -2.49704e-15)
(3.02587 -0.385739 -2.72406e-15)
(2.87945 -0.150471 -3.74475e-17)
(1.82214 0.177836 -5.0421e-15)
(-1.16312 0.584958 -4.30586e-15)
(-1.53237 0.314049 6.72431e-15)
(-0.694234 -0.0952844 0)
(1.62163 -0.608457 -1.172e-15)
(3.19213 -1.03361 5.77799e-16)
(1.88071 9.32811 -3.49196e-18)
(1.45275 8.74984 -1.60303e-17)
(1.06526 8.04 5.36595e-17)
(0.726114 7.2095 0)
(0.49164 6.28979 1.21316e-16)
(0.386198 5.29399 0)
(0.431665 4.26227 7.99255e-16)
(0.636799 3.26138 5.03693e-16)
(0.986961 2.3564 6.57198e-16)
(1.45476 1.56803 0)
(2.00054 0.902132 -1.35329e-15)
(2.5875 0.363208 -3.02451e-16)
(3.18783 -0.05933 1.36833e-15)
(3.78124 -0.381754 0)
(4.35498 -0.620239 -6.78458e-16)
(4.90325 -0.791113 -2.06883e-16)
(5.42443 -0.909744 9.06347e-16)
(5.92104 -0.987965 4.87721e-16)
(6.39822 -1.03352 1.4289e-16)
(6.86151 -1.05013 -7.25403e-17)
(7.31528 -1.03986 8.70831e-16)
(7.76319 -1.00139 0)
(8.20635 -0.929201 0)
(8.63749 -0.815126 6.78485e-18)
(9.04028 -0.663236 0)
(9.40595 -0.490872 9.34574e-16)
(9.73851 -0.304852 -1.31858e-17)
(10.0417 -0.107994 -8.42155e-17)
(10.3177 0.0962466 0)
(10.5652 0.305505 -1.14573e-16)
(10.7845 0.512944 1.92049e-16)
(10.982 0.717426 0)
(11.1586 0.91737 -4.67713e-16)
(11.3172 1.11121 0)
(11.4512 1.2987 0)
(11.5714 1.48158 1.71669e-17)
(11.6096 1.65674 -2.82798e-17)
(11.6539 1.8115 5.47317e-16)
(11.1141 1.84799 2.13511e-15)
(3.21109 9.14388 -3.05699e-18)
(3.70755 9.53874 -1.66666e-18)
(4.28475 9.90108 -3.48283e-18)
(4.92368 10.1945 -3.27409e-18)
(5.60159 10.3972 0)
(6.31501 10.5026 0)
(7.03471 10.5 -2.47197e-16)
(7.73228 10.3883 3.00354e-16)
(8.38585 10.1758 0)
(8.96126 9.87836 -3.25979e-16)
(9.4443 9.51235 -3.87191e-16)
(9.836 9.10012 -3.42386e-16)
(10.1502 8.67595 3.75018e-16)
(10.415 8.2896 3.28621e-16)
(10.6665 7.9945 0)
(10.88 7.7606 4.29482e-16)
(10.8461 7.37192 1.40547e-16)
(10.2328 6.55686 1.09461e-15)
(8.88381 5.27017 7.25174e-17)
(6.97178 3.76004 -8.51102e-17)
(4.88979 2.36883 9.19354e-16)
(3.11133 1.32792 -1.90366e-16)
(1.82781 0.67302 1.24832e-15)
(0.920975 0.328462 5.97274e-16)
(0.433364 0.14033 -3.49495e-17)
(0.371189 -0.0325286 -4.54183e-16)
(0.505171 -0.178786 3.26404e-18)
(0.733296 -0.291037 -3.1169e-18)
(1.21268 -0.438545 -6.02268e-16)
(1.93317 -0.569533 -1.49067e-17)
(2.63652 -0.560772 9.21401e-16)
(2.95853 -0.383344 -1.99711e-15)
(2.71052 -0.0548975 -1.70286e-15)
(1.78617 0.343974 -3.56146e-17)
(-0.535203 0.620696 3.08406e-15)
(-0.898683 0.200783 0)
(-0.0274363 -0.336047 2.51443e-15)
(2.28708 -0.891453 8.23058e-16)
(4.09462 -1.39445 -2.37499e-16)
(2.77748 8.70753 -8.73084e-18)
(2.37753 8.21409 2.03991e-17)
(2.006 7.61114 9.71474e-17)
(1.67545 6.90015 0)
(1.4341 6.11097 -1.09054e-16)
(1.30105 5.25002 0)
(1.29389 4.349 -6.77052e-16)
(1.41942 3.46485 -2.89198e-17)
(1.66918 2.64703 5.15682e-16)
(2.02561 1.9107 5.59557e-16)
(2.45997 1.26781 1.69437e-17)
(2.94467 0.728486 9.50546e-16)
(3.45811 0.288919 -6.63151e-16)
(3.98195 -0.059591 2.06912e-16)
(4.50254 -0.328098 7.45887e-16)
(5.0118 -0.529438 8.51945e-16)
(5.50538 -0.676093 -7.87122e-16)
(5.98249 -0.778522 -9.78889e-19)
(6.44549 -0.844707 0)
(6.8979 -0.879244 9.20667e-16)
(7.34274 -0.884362 4.93491e-17)
(7.78245 -0.85934 -7.72457e-16)
(8.21744 -0.800001 0)
(8.64145 -0.700396 5.92854e-18)
(9.04069 -0.563044 0)
(9.40646 -0.401904 -4.0898e-16)
(9.74101 -0.224835 0)
(10.0476 -0.0358967 7.55174e-17)
(10.3283 0.160994 -2.90361e-18)
(10.5821 0.36358 1.79002e-18)
(10.8095 0.56472 -1.65294e-16)
(11.0166 0.763594 -4.82776e-18)
(11.2051 0.95877 0)
(11.3779 1.14861 3.29823e-16)
(11.5293 1.33295 4.38672e-18)
(11.6693 1.51274 -3.2026e-16)
(11.7336 1.68543 9.06762e-16)
(11.8088 1.825 1.87533e-18)
(11.2988 1.8513 0)
(3.68753 8.62065 -5.13021e-18)
(4.09885 8.97921 -4.85684e-19)
(4.58206 9.31875 -3.28369e-18)
(5.11586 9.60556 5.88443e-17)
(5.68178 9.82066 -1.99292e-17)
(6.28269 9.96127 -6.55947e-17)
(6.89487 10.0154 1.07456e-16)
(7.49692 9.97783 0)
(8.07414 9.85054 3.92034e-16)
(8.61192 9.63487 1.76448e-16)
(9.09575 9.33667 0)
(9.50907 8.97009 3.28079e-16)
(9.8387 8.55667 -1.55389e-16)
(10.0834 8.12535 4.17321e-16)
(10.2674 7.7331 0)
(10.4614 7.47597 -5.55771e-16)
(10.6915 7.35164 4.85539e-16)
(10.7227 7.08616 -1.6974e-17)
(10.1437 6.33137 0)
(8.76849 5.04991 5.62213e-16)
(6.82145 3.54471 -6.67713e-16)
(4.8066 2.19612 -4.46008e-17)
(3.11703 1.21801 -8.43069e-16)
(1.86783 0.623007 -8.46334e-16)
(1.14029 0.268928 0)
(0.893105 0.00189653 0)
(0.896662 -0.194636 -7.90798e-17)
(1.02495 -0.346536 -8.91843e-18)
(1.38689 -0.530723 4.73421e-16)
(1.99184 -0.67181 -1.16248e-17)
(2.59452 -0.622235 1.05578e-17)
(2.8316 -0.365649 1.46893e-15)
(2.50486 0.0479877 0)
(1.64874 0.502908 5.01588e-15)
(-0.127268 0.671988 -1.89851e-17)
(-0.408279 0.103984 0)
(0.492285 -0.557695 1.34562e-17)
(2.78291 -1.15292 0)
(4.75432 -1.70956 2.68067e-16)
(3.32981 8.22815 8.90142e-18)
(3.00023 7.79025 -5.53284e-17)
(2.68983 7.25756 6.33264e-17)
(2.40557 6.63094 1.00402e-16)
(2.19022 5.94012 -3.80976e-16)
(2.05795 5.18422 -4.90425e-16)
(2.02494 4.3879 5.78004e-16)
(2.09955 3.60061 -7.41074e-16)
(2.27931 2.85972 -4.32747e-16)
(2.55326 2.17757 -4.27192e-16)
(2.90044 1.56847 8.1621e-16)
(3.30086 1.04337 -7.96171e-16)
(3.7382 0.601794 -3.6689e-16)
(4.197 0.23885 3.52497e-16)
(4.66452 -0.0516597 -8.12245e-16)
(5.13217 -0.278875 1.47485e-16)
(5.59426 -0.4519 0)
(6.04794 -0.579117 -6.28165e-16)
(6.49338 -0.667471 2.28934e-16)
(6.93217 -0.721489 -9.3068e-16)
(7.36606 -0.743311 0)
(7.79626 -0.732816 6.50911e-16)
(8.22247 -0.687063 5.40182e-16)
(8.63901 -0.602341 -4.64635e-16)
(9.03405 -0.480493 0)
(9.39896 -0.333178 -3.78754e-16)
(9.73445 -0.168192 0)
(10.043 0.0101782 0)
(10.3265 0.198448 0)
(10.5838 0.394019 9.71596e-17)
(10.8155 0.589828 0)
(11.0274 0.784719 0)
(11.2211 0.977178 -4.06147e-16)
(11.3999 1.1652 -2.99466e-16)
(11.5581 1.34854 0)
(11.7063 1.52674 -3.20782e-16)
(11.7825 1.69733 2.60362e-17)
(11.8762 1.82605 0)
(11.4338 1.84491 -7.65424e-16)
(4.17226 8.1729 6.70418e-18)
(4.53388 8.49777 -5.0053e-18)
(4.95914 8.81017 0)
(5.4279 9.07742 1.27859e-18)
(5.9238 9.28372 -3.90524e-17)
(6.45312 9.4284 6.21782e-17)
(6.99551 9.50023 1.54169e-17)
(7.53381 9.49412 -2.49388e-16)
(8.05652 9.41036 -3.60438e-17)
(8.5478 9.25366 3.61477e-16)
(8.98933 9.03033 -1.2394e-16)
(9.37049 8.74838 2.52683e-16)
(9.68194 8.41902 1.20704e-16)
(9.91814 8.05325 8.71731e-17)
(10.0763 7.66321 0)
(10.1838 7.30674 -1.22941e-16)
(10.3431 7.10903 -2.40777e-16)
(10.5836 7.05597 -8.47841e-16)
(10.593 6.79938 2.4474e-16)
(9.9115 5.98135 -3.14391e-16)
(8.41584 4.64327 -5.72205e-17)
(6.45501 3.16233 0)
(4.51787 1.90663 6.07003e-16)
(2.94061 1.03243 4.47826e-17)
(1.92695 0.469502 -2.19126e-17)
(1.44885 0.077366 -2.86645e-16)
(1.28693 -0.186166 5.61235e-17)
(1.29701 -0.382332 1.14776e-16)
(1.53041 -0.605557 -3.82921e-16)
(2.0088 -0.75865 -1.92592e-17)
(2.50734 -0.669018 5.9319e-16)
(2.66155 -0.332814 1.15623e-15)
(2.27088 0.158891 0)
(1.45615 0.652538 2.48803e-17)
(0.0959527 0.724922 -1.94733e-15)
(-0.039017 0.0167914 0)
(0.886397 -0.762573 -3.21172e-15)
(3.13918 -1.39618 0)
(5.2317 -1.99679 -2.25483e-16)
(3.85634 7.8197 -8.81313e-18)
(3.5652 7.42908 2.47693e-17)
(3.2884 6.95531 0)
(3.03185 6.39676 0)
(2.83309 5.78343 1.69078e-16)
(2.70237 5.11049 8.41792e-16)
(2.65317 4.39823 0)
(2.69385 3.69095 -6.25804e-16)
(2.82419 3.01725 -7.03719e-16)
(3.03713 2.38703 7.1988e-16)
(3.31683 1.81494 -2.06364e-17)
(3.64866 1.31134 3.25943e-16)
(4.02074 0.877245 4.55018e-18)
(4.42081 0.510136 9.08141e-16)
(4.83796 0.207376 8.49445e-16)
(5.26412 -0.0372231 -8.10033e-16)
(5.69332 -0.229867 1.21202e-16)
(6.12149 -0.377106 -2.27821e-16)
(6.54718 -0.484337 1.0675e-16)
(6.97039 -0.555651 6.59499e-16)
(7.39162 -0.592953 8.72276e-17)
(7.81101 -0.596693 -7.18928e-17)
(8.2276 -0.564704 -4.56318e-16)
(8.63611 -0.494777 0)
(9.02613 -0.388306 2.38788e-17)
(9.38925 -0.254925 6.74913e-16)
(9.72483 -0.101919 -4.41547e-18)
(10.0345 0.0661386 4.30203e-18)
(10.3199 0.245797 0)
(10.5799 0.434014 -8.87618e-17)
(10.8149 0.623885 0)
(11.0302 0.813871 0)
(11.2275 1.00242 3.64331e-16)
(11.41 1.1872 2.95732e-16)
(11.5724 1.36788 0)
(11.725 1.54259 2.90845e-16)
(11.8085 1.70935 -8.47171e-16)
(11.9125 1.82514 3.41586e-18)
(11.5346 1.83442 6.8403e-16)
(4.57075 7.80146 4.79257e-21)
(4.8861 8.09982 -5.47595e-18)
(5.2591 8.39118 3.10983e-18)
(5.66937 8.64366 -3.10502e-18)
(6.10216 8.84454 2.61957e-17)
(6.56619 8.99527 0)
(7.04305 9.08467 -1.01547e-16)
(7.51926 9.10816 1.08537e-17)
(7.98633 9.06501 -1.11911e-16)
(8.43144 8.95719 -2.24393e-16)
(8.84291 8.78591 0)
(9.21039 8.5573 -4.63784e-16)
(9.52249 8.2825 -3.6559e-16)
(9.7716 7.97539 -8.2292e-16)
(9.95164 7.64227 0)
(10.0543 7.28446 -4.33593e-16)
(10.1217 6.97417 -4.14125e-16)
(10.2909 6.85336 4.02101e-16)
(10.537 6.83246 -3.72574e-16)
(10.434 6.48269 3.51615e-16)
(9.54335 5.51567 4.72889e-17)
(7.90166 4.11466 -4.79672e-16)
(5.93367 2.69464 0)
(4.116 1.55821 -6.14442e-16)
(2.8069 0.758547 3.77256e-17)
(2.06512 0.209289 2.78509e-16)
(1.70144 -0.144097 0)
(1.56927 -0.394012 -6.10329e-18)
(1.6623 -0.659789 1.53797e-17)
(2.00161 -0.828585 5.20073e-16)
(2.3904 -0.70128 -4.76502e-16)
(2.46204 -0.285777 -9.54729e-16)
(2.01757 0.27688 8.24019e-16)
(1.23372 0.792246 9.7155e-18)
(0.191473 0.770048 1.57245e-15)
(0.228247 -0.0687617 2.60361e-15)
(1.1745 -0.95534 1.36975e-15)
(3.3778 -1.62537 -8.91863e-18)
(5.56108 -2.26314 2.32584e-18)
(4.29364 7.47921 4.08134e-18)
(4.03923 7.12585 5.20065e-17)
(3.79442 6.69818 6.97731e-17)
(3.56452 6.1937 -1.26265e-16)
(3.383 5.64208 -4.96722e-16)
(3.25743 5.03594 1.7012e-16)
(3.1994 4.39278 4.49463e-16)
(3.21773 3.7513 1.39464e-15)
(3.31304 3.13552 6.26321e-16)
(3.48034 2.55351 -5.89801e-16)
(3.70771 2.01852 -2.10611e-17)
(3.98438 1.54024 -2.96063e-16)
(4.30151 1.11977 0)
(4.64983 0.756128 -1.16392e-17)
(5.02038 0.448522 -5.15156e-16)
(5.40639 0.193117 2.36391e-16)
(5.80219 -0.0141701 -2.28999e-16)
(6.20329 -0.177671 0)
(6.60725 -0.301411 3.79605e-16)
(7.01296 -0.388543 -6.92852e-16)
(7.4198 -0.440771 0)
(7.82705 -0.458446 5.55435e-16)
(8.23313 -0.440365 0)
(8.63299 -0.384903 -2.56802e-17)
(9.01727 -0.293634 2.49494e-17)
(9.37777 -0.174051 -3.16243e-16)
(9.71274 -0.0333354 -5.27718e-18)
(10.0231 0.124186 -4.05341e-18)
(10.3099 0.294596 1.48325e-18)
(10.5723 0.475014 -8.72495e-17)
(10.8102 0.658455 -1.41552e-16)
(11.0286 0.843249 2.22725e-16)
(11.229 1.02761 6.2649e-18)
(11.4147 1.20898 8.90138e-18)
(11.5804 1.38675 0)
(11.7364 1.55777 3.89584e-18)
(11.8259 1.72038 3.91346e-16)
(11.938 1.82408 -9.8367e-19)
(11.6174 1.82417 5.73807e-16)
(4.9271 7.48401 1.66155e-18)
(5.20705 7.76023 9.80706e-18)
(5.53949 8.03191 0)
(5.90424 8.26976 -1.02594e-17)
(6.28779 8.46253 3.22122e-18)
(6.70008 8.61307 0)
(7.12487 8.71125 -3.04522e-17)
(7.55068 8.75269 3.04804e-16)
(7.97158 8.73624 -4.22525e-16)
(8.37633 8.66285 1.39719e-16)
(8.75519 8.53453 1.81755e-16)
(9.09836 8.35481 5.95338e-16)
(9.39726 8.13042 3.93518e-16)
(9.64496 7.87198 4.31933e-16)
(9.83866 7.59298 1.03299e-16)
(9.97009 7.28917 3.14429e-16)
(10.0266 6.95956 3.98012e-16)
(10.0868 6.71457 3.59698e-16)
(10.3001 6.67779 -2.49604e-16)
(10.5075 6.6214 -7.26133e-16)
(10.1864 6.08421 0)
(9.03261 4.94522 8.24886e-18)
(7.25243 3.51451 4.09214e-16)
(5.33736 2.18219 5.1225e-16)
(3.77313 1.14443 -3.23148e-17)
(2.7523 0.410561 -2.42554e-16)
(2.15911 -0.0577954 1.55254e-18)
(1.85856 -0.376224 -9.49862e-17)
(1.79875 -0.689467 9.20025e-18)
(1.98584 -0.879181 -9.29134e-16)
(2.25744 -0.718067 3.01432e-19)
(2.24539 -0.225167 -1.27181e-17)
(1.75305 0.401634 -7.1774e-16)
(0.998256 0.922152 9.93733e-18)
(0.212563 0.802252 -1.33227e-15)
(0.414519 -0.156813 -4.37637e-15)
(1.37487 -1.13856 1.20555e-15)
(3.51726 -1.84397 4.63285e-16)
(5.7669 -2.51291 -2.77985e-16)
(4.68107 7.18797 -1.99027e-17)
(4.45493 6.86615 -7.30378e-17)
(4.23582 6.47645 -5.51104e-17)
(4.02789 6.01655 -1.32508e-16)
(3.86146 5.51543 2.86943e-16)
(3.74219 4.96404 -1.00887e-17)
(3.67981 4.37848 -1.22942e-15)
(3.6832 3.79168 -5.11648e-16)
(3.75351 3.22573 -2.75645e-18)
(3.88644 2.68754 0)
(4.07335 2.18814 -5.12223e-16)
(4.30574 1.73644 4.93449e-16)
(4.57708 1.33326 -4.84348e-16)
(4.88047 0.978234 -2.46575e-16)
(5.20889 0.67154 2.22179e-16)
(5.55703 0.41091 2.17432e-16)
(5.91994 0.193984 8.1579e-16)
(6.29331 0.018249 -1.94675e-16)
(6.67426 -0.119035 -3.52506e-16)
(7.06095 -0.220035 0)
(7.45194 -0.286043 -5.7856e-16)
(7.84579 -0.317174 -4.55982e-16)
(8.24039 -0.312678 -4.88842e-18)
(8.63087 -0.271408 -5.32521e-17)
(9.00859 -0.195021 -2.11813e-17)
(9.36557 -0.0892225 3.33147e-16)
(9.69919 0.0390352 -7.91399e-18)
(10.0096 0.185684 6.5664e-17)
(10.2975 0.346492 1.36916e-17)
(10.5618 0.518738 7.89851e-17)
(10.8024 0.695441 -3.01675e-18)
(11.0235 0.874689 -4.40266e-16)
(11.2268 1.05453 -3.36689e-16)
(11.4154 1.23213 -2.59539e-16)
(11.5841 1.40666 -6.18016e-18)
(11.7431 1.57369 2.59182e-18)
(11.8384 1.73187 -4.10838e-16)
(11.9577 1.82441 -4.29093e-16)
(11.6903 1.81629 -5.27641e-16)
(5.24223 7.21228 -5.90609e-18)
(5.49215 7.46828 -3.57748e-18)
(5.78993 7.7235 -1.59287e-17)
(6.1159 7.94854 3.62653e-17)
(6.45787 8.13369 -2.37518e-19)
(6.82616 8.28341 -3.10783e-17)
(7.20592 8.38754 1.3056e-16)
(7.58765 8.44237 0)
(7.9674 8.44718 1.28527e-16)
(8.33469 8.40159 -4.44155e-19)
(8.68343 8.30737 -1.56717e-16)
(9.00449 8.16561 -5.54637e-16)
(9.29039 7.98172 -2.06739e-16)
(9.53417 7.7626 0)
(9.73191 7.52104 0)
(9.88423 7.2667 0)
(9.97333 6.97928 0)
(9.99747 6.68017 -3.47492e-16)
(10.0933 6.52559 3.26298e-16)
(10.3529 6.54415 3.04674e-16)
(10.4258 6.35347 -2.50199e-16)
(9.79932 5.5766 2.33386e-16)
(8.3766 4.29 -2.83541e-16)
(6.5293 2.86714 -2.49569e-17)
(4.79716 1.62351 -1.37331e-17)
(3.51015 0.69088 2.30588e-16)
(2.67218 0.0832483 4.65912e-17)
(2.1796 -0.321941 0)
(1.95388 -0.689824 0)
(1.97632 -0.90734 1.63324e-18)
(2.12143 -0.718056 0)
(2.02185 -0.151437 7.29647e-16)
(1.48464 0.53253 -6.5867e-16)
(0.762763 1.04138 -1.19962e-15)
(0.197747 0.817257 2.27019e-15)
(0.540477 -0.250357 1.88762e-15)
(1.50407 -1.31481 -1.06694e-15)
(3.57262 -2.05464 -8.60743e-16)
(5.8676 -2.75085 2.51419e-16)
(5.02272 6.93856 0)
(4.82076 6.64203 2.1148e-17)
(4.62387 6.28425 1.02515e-16)
(4.43523 5.86128 -4.51162e-16)
(4.28275 5.40204 3.8667e-16)
(4.17022 4.89645 -3.099e-16)
(4.10639 4.3593 -4.91086e-18)
(4.0998 3.81906 4.02895e-16)
(4.15212 3.2962 4.39776e-16)
(4.25928 2.79712 0)
(4.41483 2.33094 2.20064e-16)
(4.61174 1.90565 -6.65958e-16)
(4.84516 1.52172 1.08727e-15)
(5.10997 1.17866 2.07059e-16)
(5.4009 0.877164 -4.17938e-16)
(5.71398 0.615823 -3.99215e-16)
(6.04528 0.393602 -3.77319e-16)
(6.39097 0.209185 0)
(6.74822 0.0612139 0)
(7.11476 -0.0517025 0)
(7.48867 -0.130062 5.42105e-16)
(7.86796 -0.173926 0)
(8.25019 -0.182428 -3.81246e-16)
(8.6305 -0.15506 -5.0261e-17)
(9.00084 -0.0929766 -3.39606e-16)
(9.35338 -0.00100258 -2.94535e-16)
(9.68484 0.114881 0)
(9.99461 0.250334 -5.46892e-17)
(10.283 0.401367 -1.43122e-17)
(10.5489 0.564984 2.65616e-18)
(10.7918 0.734688 2.58685e-16)
(11.0155 0.90793 -5.19038e-18)
(11.2215 1.08292 3.23068e-16)
(11.4128 1.25643 -2.55241e-16)
(11.5844 1.42745 0)
(11.7461 1.59024 -3.74827e-18)
(11.8474 1.74377 -1.46596e-17)
(11.9735 1.82619 4.09e-16)
(11.7565 1.8104 -3.15052e-18)
(5.52668 6.97581 7.21956e-18)
(5.75078 7.21549 0)
(6.01918 7.45578 4.34853e-17)
(6.31272 7.66906 -2.88813e-17)
(6.61985 7.84664 -2.08829e-18)
(6.95122 7.99372 2.93602e-17)
(7.29318 8.10096 -5.49187e-17)
(7.63742 8.16492 -6.71026e-17)
(7.98145 8.1851 0)
(8.31585 8.16047 -1.31117e-16)
(8.63668 8.09315 -1.40169e-16)
(8.93548 7.98295 1.32807e-16)
(9.20579 7.83389 4.59665e-16)
(9.44226 7.65062 1.67594e-16)
(9.63911 7.44045 -4.76625e-16)
(9.79766 7.21864 -3.15384e-16)
(9.91548 6.98064 2.30083e-16)
(9.9623 6.6986 1.5553e-16)
(9.98225 6.45155 -7.41206e-17)
(10.1529 6.40012 7.09153e-17)
(10.3986 6.39375 1.72036e-16)
(10.2197 5.97719 3.3438e-17)
(9.24372 4.95391 -3.70221e-17)
(7.61589 3.56417 -2.92971e-16)
(5.83327 2.17934 0)
(4.32618 1.05378 -1.90047e-16)
(3.24275 0.287173 -8.56543e-17)
(2.54285 -0.223712 -6.99074e-17)
(2.13869 -0.656226 -2.36172e-16)
(1.98675 -0.909321 8.18155e-16)
(1.9946 -0.699433 3.28312e-16)
(1.80112 -0.0640943 7.60936e-18)
(1.22156 0.66828 -9.36359e-19)
(0.539912 1.14798 0)
(0.172277 0.812836 -1.00106e-15)
(0.622597 -0.35014 0)
(1.57562 -1.4855 0)
(3.55613 -2.25897 4.08357e-16)
(5.87612 -2.98012 -4.14047e-18)
(5.32871 6.72119 -2.38354e-17)
(5.14743 6.44707 7.85817e-17)
(4.96929 6.11602 1.43799e-18)
(4.79741 5.72438 9.97596e-17)
(4.65757 5.30059 -3.65165e-16)
(4.55203 4.83395 2.83709e-16)
(4.48849 4.33758 2.19676e-17)
(4.47559 3.83742 -3.52538e-16)
(4.51484 3.35224 -3.53718e-16)
(4.60258 2.88804 -3.70204e-16)
(4.73367 2.45243 -7.56149e-16)
(4.90215 2.0527 0)
(5.10426 1.68865 -3.93504e-16)
(5.33622 1.35961 -1.02674e-17)
(5.59412 1.06635 0)
(5.87527 0.807913 -3.56062e-16)
(6.17673 0.584026 -1.71071e-16)
(6.49539 0.394297 -1.64411e-16)
(6.82875 0.238325 5.98132e-16)
(7.17447 0.115646 5.52234e-16)
(7.53037 0.0264076 -6.13794e-17)
(7.89416 -0.0291402 4.60092e-16)
(8.26313 -0.0500431 1.02271e-16)
(8.63252 -0.03596 -4.7542e-17)
(8.99468 0.0122289 3.01793e-16)
(9.34188 0.0906 1.87035e-17)
(9.67035 0.194041 0)
(9.97884 0.318174 0)
(10.2672 0.459161 -2.6334e-18)
(10.5342 0.613891 6.96336e-18)
(10.779 0.776268 -2.55318e-16)
(11.005 0.943194 -4.94476e-18)
(11.2135 1.11299 3.33516e-16)
(11.4073 1.28211 2.42113e-16)
(11.5816 1.44935 5.12058e-18)
(11.746 1.60771 -1.29766e-18)
(11.8535 1.7564 7.80899e-16)
(11.9861 1.82983 -3.96818e-16)
(11.8171 1.80736 2.88299e-18)
(5.78291 6.76948 3.10403e-18)
(5.98518 6.99452 0)
(6.22881 7.22146 -2.37432e-17)
(6.4946 7.42404 0)
(6.7721 7.59455 -3.19681e-18)
(7.07193 7.73876 3.19334e-18)
(7.38129 7.84741 3.22073e-17)
(7.69312 7.91774 6.363e-17)
(8.00583 7.94954 0)
(8.31103 7.94143 -8.18555e-17)
(8.6057 7.89528 1.48707e-16)
(8.88357 7.81072 -2.85962e-16)
(9.13838 7.69026 -1.49933e-16)
(9.36589 7.53791 -1.39773e-16)
(9.56055 7.35731 3.0581e-16)
(9.71965 7.15919 3.03811e-16)
(9.84915 6.95517 -2.98421e-16)
(9.9311 6.71806 -2.77998e-16)
(9.94194 6.44546 0)
(10.0059 6.28644 6.68115e-17)
(10.2478 6.30615 -1.25057e-16)
(10.362 6.16262 2.9602e-17)
(9.83287 5.45992 -6.14408e-19)
(8.53502 4.22056 6.34807e-16)
(6.82756 2.78336 -4.10663e-17)
(5.17628 1.49465 2.46808e-17)
(3.86329 0.558524 7.74198e-17)
(2.95373 -0.0748072 7.59775e-17)
(2.36196 -0.584182 2.00509e-16)
(2.02971 -0.88087 -3.82597e-16)
(1.88872 -0.659911 -3.02336e-16)
(1.59357 0.0373416 -1.24653e-15)
(0.975159 0.806642 1.09611e-15)
(0.344056 1.2387 -1.58739e-17)
(0.151423 0.788154 9.24396e-16)
(0.673155 -0.456177 -3.2728e-17)
(1.60052 -1.65138 1.63141e-17)
(3.47785 -2.45789 -4.6342e-18)
(5.80154 -3.20268 3.32073e-16)
(5.6047 6.53126 1.28316e-17)
(5.44096 6.27586 -3.97173e-17)
(5.27938 5.96782 7.96811e-17)
(5.12236 5.6032 0)
(4.99406 5.20979 2.18693e-16)
(4.89543 4.77673 0)
(4.83351 4.31491 0)
(4.81691 3.84939 0)
(4.84656 3.39771 6.57202e-16)
(4.91962 2.96466 -3.32381e-16)
(5.03161 2.55704 3.57588e-16)
(5.17725 2.18154 0)
(5.3535 1.83732 0)
(5.55761 1.52339 -3.49658e-16)
(5.78669 1.24042 0)
(6.03908 0.987629 3.31623e-16)
(6.31281 0.764955 6.24182e-18)
(6.60556 0.572812 0)
(6.91529 0.411414 -4.24882e-16)
(7.23989 0.28113 -6.51586e-16)
(7.57715 0.182524 -4.71563e-16)
(7.92466 0.116462 -4.3042e-16)
(8.27964 0.0839002 7.71247e-16)
(8.63743 0.0854114 0)
(8.9906 0.120161 2.89032e-16)
(9.33161 0.185372 2.89411e-16)
(9.65624 0.276364 1.18828e-16)
(9.96274 0.389227 0)
(10.2504 0.519926 -1.09979e-17)
(10.518 0.665566 -7.4197e-17)
(10.7644 0.820219 2.44465e-16)
(10.9924 0.980612 -4.71032e-18)
(11.2032 1.14476 -3.04891e-16)
(11.3994 1.30923 2.34798e-16)
(11.5764 1.47233 1.59304e-18)
(11.7434 1.62614 4.96634e-18)
(11.8572 1.76975 -7.77847e-16)
(11.9961 1.83535 3.75426e-16)
(11.8728 1.80713 6.70256e-16)
(6.01673 6.58784 1.79576e-18)
(6.20016 6.79967 -1.01459e-17)
(6.42217 7.01476 0)
(6.66408 7.20786 -3.26267e-17)
(6.91608 7.37168 0)
(7.18875 7.5123 0)
(7.47011 7.62131 5.1857e-18)
(7.75382 7.69596 4.81192e-17)
(8.03903 7.73633 1.22972e-16)
(8.31844 7.74109 3.45309e-16)
(8.58921 7.71158 2.01375e-16)
(8.84737 7.64804 2.28046e-16)
(9.08667 7.55149 0)
(9.30373 7.42525 3.84317e-16)
(9.49433 7.27203 -1.27541e-16)
(9.65327 7.09635 0)
(9.78411 6.91297 2.56738e-16)
(9.88798 6.71617 2.66962e-16)
(9.9267 6.46726 0)
(9.93195 6.235 2.43315e-16)
(10.0828 6.18436 -2.31435e-16)
(10.3207 6.18479 0)
(10.1625 5.79074 -2.90606e-17)
(9.24861 4.79068 8.18584e-18)
(7.72883 3.40026 1.78008e-17)
(6.02789 2.00107 3.00645e-16)
(4.52448 0.899351 -6.72021e-19)
(3.41155 0.129738 -7.84887e-18)
(2.62988 -0.469177 -6.36977e-18)
(2.1152 -0.817919 1.14814e-17)
(1.81485 -0.59661 3.19383e-16)
(1.41037 0.153364 1.1318e-15)
(0.75867 0.944714 1.69495e-17)
(0.19011 1.31009 -9.27069e-16)
(0.143129 0.744518 -7.89665e-16)
(0.701103 -0.567023 -1.38492e-15)
(1.58796 -1.81232 -8.98807e-16)
(3.34677 -2.65162 1.40954e-17)
(5.65103 -3.42051 -3.12099e-16)
(5.85512 6.36394 -2.88206e-17)
(5.70685 6.12465 -1.0583e-16)
(5.55993 5.83672 2.09342e-16)
(5.41622 5.49553 0)
(5.29841 5.12843 3.83187e-16)
(5.20655 4.7247 0)
(5.147 4.29293 -2.5744e-16)
(5.12847 3.85756 1.08299e-15)
(5.15135 3.43549 -8.30861e-16)
(5.21332 3.03033 0)
(5.31035 2.64829 6.10104e-16)
(5.43756 2.29537 6.06135e-16)
(5.59249 1.97044 0)
(5.77304 1.67207 -6.13054e-16)
(5.9771 1.40075 1.52322e-16)
(6.20382 1.15546 -1.50646e-16)
(6.4521 0.936431 1.4906e-16)
(6.72035 0.744263 2.74043e-16)
(7.00712 0.579807 -4.94298e-18)
(7.31066 0.443867 3.54786e-16)
(7.62893 0.33764 1.1198e-16)
(7.9596 0.262283 -1.04089e-16)
(8.29999 0.219055 -3.64551e-16)
(8.64553 0.208682 3.26529e-16)
(8.98901 0.230702 -2.56652e-16)
(9.32299 0.283074 -2.92106e-16)
(9.643 0.361809 -1.13055e-16)
(9.94679 0.463328 -1.45031e-18)
(10.2332 0.583643 1.19084e-17)
(10.5009 0.719962 7.08537e-17)
(10.7485 0.866642 2.38961e-18)
(10.9781 1.02021 -4.47198e-18)
(11.191 1.17843 3.16815e-16)
(11.3894 1.33795 -2.39753e-16)
(11.569 1.49665 5.04538e-18)
(11.7386 1.64579 -2.80025e-16)
(11.859 1.78415 3.81881e-16)
(12.004 1.84316 0)
(11.9241 1.81022 -6.52658e-16)
(6.23113 6.42665 5.48589e-18)
(6.39817 6.62709 0)
(6.60127 6.83152 0)
(6.82228 7.01586 5.46828e-17)
(7.05222 7.17338 -6.92121e-18)
(7.30134 7.3105 0)
(7.55824 7.41887 0)
(7.81739 7.49631 -1.46509e-16)
(8.07841 7.54317 -1.54414e-17)
(8.33488 7.55805 -1.74535e-17)
(8.58405 7.54196 -4.61239e-16)
(8.82404 7.49555 -1.23604e-16)
(9.04839 7.41891 2.13908e-16)
(9.25441 7.31443 -1.84413e-17)
(9.43891 7.18501 0)
(9.59714 7.03196 0)
(9.72707 6.86446 -7.14881e-16)
(9.83754 6.69331 -1.211e-16)
(9.90758 6.48508 1.15273e-16)
(9.90736 6.23335 -2.35466e-16)
(9.96192 6.08908 4.43799e-16)
(10.1904 6.11228 2.08076e-16)
(10.2805 5.95756 -2.06167e-16)
(9.74465 5.24159 -2.54702e-16)
(8.49593 3.99188 4.64324e-17)
(6.84494 2.55265 -2.82038e-16)
(5.21061 1.30643 -3.20533e-17)
(3.90719 0.391833 7.20764e-18)
(2.94487 -0.306967 -6.37313e-18)
(2.25007 -0.716349 2.20683e-17)
(1.78285 -0.505992 -2.72088e-18)
(1.26253 0.284186 -5.60421e-16)
(0.585604 1.079 -1.31802e-17)
(0.089509 1.35971 5.88417e-20)
(0.151076 0.684627 0)
(0.713622 -0.681017 1.24039e-15)
(1.54611 -1.96807 8.37656e-16)
(3.17155 -2.84033 0)
(5.43152 -3.63438 0)
(6.08393 6.21545 0)
(5.94934 5.99055 9.79588e-17)
(5.8155 5.72014 -3.23011e-16)
(5.68384 5.3996 -1.51904e-16)
(5.5756 5.05553 -3.55869e-16)
(5.49019 4.67752 0)
(5.43355 4.27226 0)
(5.41444 3.86352 -4.85855e-16)
(5.43263 3.4677 5.04455e-16)
(5.48626 3.08759 0)
(5.57151 2.72877 -2.68328e-16)
(5.68386 2.3969 -2.86458e-16)
(5.82115 2.09044 2.79192e-16)
(5.98178 1.8076 2.89429e-16)
(6.16423 1.54854 -5.49744e-16)
(6.36821 1.31215 0)
(6.59333 1.09852 -1.30427e-16)
(6.83869 0.908425 3.5905e-18)
(7.10342 0.742957 5.95301e-16)
(7.38628 0.603272 -1.15848e-16)
(7.68553 0.491044 1.10793e-16)
(7.99905 0.407706 -9.1878e-17)
(8.32436 0.354869 1.3027e-16)
(8.65707 0.333426 -6.5877e-16)
(8.9902 0.343421 -2.4474e-16)
(9.31639 0.383425 2.30087e-16)
(9.63099 0.450175 -1.44272e-17)
(9.93136 0.540391 0)
(10.216 0.650299 -1.03015e-17)
(10.4832 0.77711 6.603e-17)
(10.7315 0.91564 -1.11319e-16)