/*--------------------------------*- C++ -*----------------------------------*\
  =========                 |
  \\      /  F ield         | OpenFOAM: The Open Source CFD Toolbox
   \\    /   O peration     | Website:  https://openfoam.org
    \\  /    A nd           | Version:  9
     \\/     M anipulation  |
\*---------------------------------------------------------------------------*/
FoamFile
{
    format      ascii;
    class       volScalarField;
    location    "0.3";
    object      epsilon;
}
// * * * * * * * * * * * * * * * * * * * * * * * * * * * * * * * * * * * * * //

dimensions      [0 2 -3 0 0 0 0];

internalField   nonuniform List<scalar> 
1915
(
0.922007
0.81841
1.04401
1.35295
1.51072
2.31461
1.92448
3.5134
2.31639
4.90999
2.68475
6.27963
3.05882
7.70555
3.48437
9.38321
4.00674
11.5427
4.60673
14.5109
0.0545571
0.0828585
0.365945
0.0859423
0.0863757
0.376889
0.409609
0.435196
0.455372
0.465167
0.46633
0.460609
0.449633
0.434909
0.417812
0.399647
0.382073
0.368442
0.365505
0.0863034
0.367829
0.0861053
0.0859733
0.0864819
0.367667
0.368949
0.369444
0.372393
0.369673
0.0862074
0.0858864
0.08575
0.0855454
0.367409
0.0852551
0.0856114
0.0835969
0.0737877
0.0569491
0.0307262
0.140499
0.11679
0.157306
0.175331
0.188221
0.200925
0.204225
0.205738
0.206627
0.205249
0.201915
0.197114
0.191316
0.184945
0.178367
0.171916
0.165965
0.160993
0.156932
0.147414
0.148486
0.140723
0.137729
0.134805
0.137644
0.133886
0.131896
0.127226
0.125463
0.119937
0.117414
0.113473
0.106747
0.103817
0.0923856
0.0812408
0.0711423
0.0621423
0.0497053
0.0227506
0.220731
0.152969
0.169656
0.180793
0.184761
0.184371
0.181311
0.177475
0.173277
0.168188
0.16241
0.156264
0.150037
0.143965
0.138227
0.132956
0.128259
0.124202
0.120646
0.117262
0.114771
0.11241
0.110577
0.108958
0.107699
0.106174
0.104899
0.103309
0.102073
0.100413
0.0985767
0.0961938
0.0931785
0.0893493
0.0845782
0.0784433
0.0714345
0.0647945
0.0582336
0.0962949
0.324297
0.200232
0.204579
0.209172
0.207063
0.200633
0.192336
0.183713
0.175002
0.166054
0.157144
0.14857
0.140556
0.133244
0.126708
0.120975
0.116035
0.111846
0.10831
0.105356
0.102966
0.10102
0.0994634
0.0981741
0.097088
0.0961046
0.0952175
0.094315
0.0934503
0.0924332
0.0912166
0.0897051
0.0877909
0.0853165
0.0821905
0.0783181
0.0738905
0.0698356
0.0683227
0.0963027
0.46167
0.268905
0.261944
0.259504
0.250294
0.236757
0.221749
0.206939
0.192403
0.178304
0.165046
0.152937
0.142139
0.132693
0.124561
0.117658
0.111873
0.107085
0.103161
0.0999897
0.097463
0.0954674
0.0939054
0.0926719
0.0916911
0.090886
0.0901965
0.0895623
0.0889507
0.08828
0.0874856
0.0865066
0.0852587
0.083651
0.0816274
0.0792033
0.076618
0.074767
0.0769215
0.115576
0.662051
0.373886
0.349999
0.336322
0.316253
0.292451
0.267972
0.244549
0.221972
0.200799
0.181587
0.164636
0.150005
0.13759
0.127197
0.118591
0.111538
0.105813
0.101212
0.0975573
0.0946887
0.0924626
0.0907536
0.0894475
0.0884573
0.0876979
0.0870993
0.0866029
0.0861613
0.0857191
0.0852215
0.0846191
0.0838552
0.0828809
0.0816837
0.0803396
0.0791585
0.079146
0.0843601
0.133874
0.981333
0.538964
0.48036
0.445994
0.408643
0.369957
0.332352
0.297056
0.263539
0.232862
0.205723
0.182375
0.162715
0.146426
0.13309
0.122272
0.113563
0.106606
0.101093
0.0967662
0.0934058
0.090827
0.0888723
0.0874089
0.0863329
0.0855465
0.0849717
0.0845453
0.0842154
0.0839341
0.0836561
0.0833421
0.0829566
0.0824805
0.0819373
0.0814505
0.0813983
0.0829334
0.0908
0.15018
1.51847
0.800289
0.665288
0.593325
0.529992
0.471107
0.416576
0.36548
0.317736
0.274798
0.237473
0.205938
0.179881
0.1587
0.141676
0.128104
0.117348
0.10887
0.10223
0.0970661
0.0930875
0.0900559
0.0877755
0.0860897
0.0848703
0.0840053
0.0834066
0.0830043
0.082743
0.0825767
0.0824663
0.0823814
0.0823026
0.0822331
0.0822254
0.0824428
0.0833268
0.0861804
0.0963722
0.164632
2.43133
1.19764
0.911713
0.777539
0.679244
0.595578
0.52085
0.450205
0.385081
0.327092
0.277184
0.235502
0.201522
0.174307
0.152769
0.135852
0.122631
0.112336
0.104353
0.0981955
0.0934812
0.0899066
0.0872303
0.0852666
0.0838561
0.0828704
0.0822098
0.0817964
0.08157
0.0814838
0.0815024
0.0816025
0.0817768
0.0820457
0.0824853
0.0832928
0.084968
0.0889566
0.101201
0.177479
4.01034
1.76591
1.21343
0.991228
0.852199
0.741438
0.643587
0.550885
0.46573
0.390111
0.325247
0.271375
0.227825
0.193323
0.166357
0.145448
0.129307
0.116879
0.107331
0.100021
0.0944557
0.0902518
0.0871183
0.0848242
0.0831792
0.0820363
0.0812817
0.0808278
0.0806081
0.0805737
0.0806908
0.080941
0.0813258
0.0818793
0.082697
0.0840052
0.0863569
0.0913301
0.105396
0.188941
4.57844
9.91674
4.12826
7.31372
3.5995
5.61926
3.12684
4.44046
2.73305
3.62533
2.41334
3.04918
2.15812
2.63053
1.95843
2.32186
1.80751
2.09516
1.70094
1.93364
1.82698
1.76819
1.75163
1.77338
1.83404
1.93281
2.03739
2.09127
2.14234
2.19862
2.2709
2.37833
2.53529
2.75153
3.03497
3.38875
3.80476
4.26811
4.76409
5.24516
5.56243
5.56636
5.27478
15.8169
13.4182
18.3931
14.6318
10.3144
14.2303
44.2196
15.7892
7.48183
10.2348
23.734
31.7264
5.76464
7.60177
13.9771
20.6297
4.6019
5.89862
9.19415
13.4991
3.7803
4.73333
6.62158
9.35339
3.18627
3.90257
5.09715
6.87447
2.75202
3.29964
4.11866
5.32297
2.43464
2.86058
3.45603
4.30847
2.20629
2.5432
2.99427
3.62205
2.04876
2.31892
2.67036
3.14773
1.94964
2.16799
2.4466
2.81814
1.89988
2.07631
2.29872
2.59186
1.89253
2.03363
2.21038
2.44228
1.92521
2.03337
2.17064
2.35218
1.99866
2.07339
2.17307
2.31059
2.10575
2.14989
2.21485
2.3113
2.18222
2.24509
2.29059
2.35037
2.23427
2.31574
2.38039
2.41994
2.29605
2.37601
2.45638
2.50805
2.36911
2.45493
2.54411
2.60422
2.47456
2.56202
2.64878
2.71333
2.6331
2.71646
2.7895
2.84612
2.8623
2.94038
2.98807
3.00851
3.17889
3.25575
3.26444
3.21302
3.59652
3.68046
3.62944
3.45971
4.12043
4.22665
4.07707
3.7388
4.75393
4.91186
4.59269
4.03677
5.50933
5.77507
5.20143
4.35967
6.33651
6.80591
5.93921
4.77285
7.0124
7.81703
6.84929
5.34393
7.38161
8.87385
7.99828
6.1054
7.33532
9.41547
9.38749
7.09667
3.89419
2.26023
1.54412
1.23542
1.05184
0.912248
0.786609
0.668645
0.560616
0.464718
0.382444
0.314207
0.259278
0.216078
0.182639
0.156993
0.137413
0.122491
0.11113
0.102494
0.0959522
0.0910313
0.0873762
0.0846976
0.0827752
0.0814397
0.0805612
0.0800405
0.0798036
0.0797974
0.079988
0.0803601
0.0809219
0.0817182
0.0828603
0.0846005
0.0875399
0.0933804
0.109086
0.199306
6.56296
3.25527
2.0747
1.58624
1.31406
1.12496
0.959231
0.808263
0.672254
0.552436
0.449867
0.364842
0.29652
0.243029
0.20192
0.170678
0.14706
0.129232
0.115772
0.105613
0.0979587
0.0922334
0.08798
0.0848593
0.082615
0.0810517
0.0800203
0.079408
0.0791315
0.0791323
0.0793747
0.0798446
0.0805548
0.0815586
0.0829807
0.0850955
0.0885486
0.0951575
0.112346
0.208736
15.9775
6.56401
3.53756
2.34029
1.76653
1.43635
1.18792
0.981543
0.805631
0.655309
0.528428
0.423789
0.339898
0.274418
0.224362
0.1866
0.158297
0.137118
0.121259
0.109369
0.100481
0.0938423
0.0889123
0.085292
0.0826823
0.0808572
0.0796454
0.0789185
0.078582
0.0785705
0.0788449
0.0793907
0.0802238
0.0814036
0.0830658
0.0855045
0.0894056
0.096694
0.115222
0.217318
22.0064
15.2091
7.51974
4.27124
2.74915
1.98802
1.53535
1.21634
0.972883
0.7785
0.620356
0.492122
0.390026
0.310644
0.25023
0.204933
0.171233
0.146216
0.127628
0.113819
0.103525
0.0958543
0.0901643
0.0859844
0.082965
0.0808444
0.0794258
0.0785624
0.0781469
0.0781054
0.0783939
0.0789962
0.0799294
0.0812574
0.083125
0.0858436
0.0901356
0.0980257
0.117768
0.225163
16.8786
17.4229
13.9912
8.71247
5.02476
3.09438
2.13323
1.56882
1.19801
0.932131
0.72989
0.571688
0.447809
0.352221
0.27985
0.225889
0.186007
0.156631
0.135001
0.11899
0.107101
0.0982692
0.0917303
0.0869283
0.0834542
0.0810047
0.0793535
0.0783327
0.0778205
0.0777328
0.0780191
0.0786602
0.0796731
0.0811248
0.0831674
0.0861271
0.0907599
0.0991834
0.120028
0.232369
12.2615
14.3898
15.1609
13.4908
9.52682
5.43744
3.2482
2.1475
1.52584
1.1347
0.864658
0.665684
0.51468
0.399879
0.313647
0.249738
0.202857
0.16859
0.143443
0.124914
0.111221
0.101088
0.0936055
0.0881163
0.0841418
0.0813301
0.0794212
0.0782234
0.0775979
0.0774489
0.0777183
0.0783824
0.0794569
0.0810105
0.0832011
0.0863679
0.0912974
0.100194
0.122043
0.239024
9.09208
11.1435
12.898
13.9427
13.1676
9.64199
5.37457
3.15293
2.03748
1.41868
1.03779
0.77951
0.592954
0.454709
0.352213
0.277014
0.222201
0.182224
0.15302
0.131623
0.115894
0.10431
0.0957838
0.0895402
0.0850189
0.0818122
0.0796216
0.0782281
0.0774741
0.0772503
0.0774893
0.0781622
0.0792821
0.0809183
0.083233
0.0865768
0.0917643
0.10108
0.123845
0.245202
6.96649
8.69531
10.4129
12.1556
13.4808
12.6876
8.90575
4.92758
2.87387
1.83946
1.27117
0.922026
0.686317
0.51839
0.396856
0.308513
0.244284
0.197657
0.163793
0.139138
0.121126
0.107929
0.0982561
0.0911896
0.0860754
0.0824419
0.0799465
0.0783402
0.0774437
0.0771328
0.0773295
0.0779985
0.0791494
0.080851
0.0832688
0.0867631
0.0921739
0.101861
0.125464
0.250964
5.52729
6.92756
8.44546
10.1843
12.1411
13.2634
11.657
7.61305
4.26181
2.48741
1.6006
1.10752
0.800498
0.59466
0.44926
0.344734
0.269342
0.214996
0.175806
0.147474
0.126912
0.111936
0.101009
0.0930509
0.0872988
0.0832081
0.0803868
0.078552
0.0775006
0.0770915
0.0772354
0.0778894
0.0790587
0.0808106
0.0833129
0.0869343
0.0925379
0.102554
0.126924
0.256363
4.53698
5.65628
6.94814
8.48812
10.3899
12.263
12.6853
10.2323
6.22121
3.49807
2.08351
1.35897
0.947701
0.687506
0.510605
0.386163
0.297577
0.234323
0.189081
0.156624
0.133238
0.116311
0.104023
0.0951063
0.0886737
0.0840977
0.0809315
0.0788545
0.0776374
0.0771208
0.0772029
0.0778323
0.079009
0.080798
0.0833685
0.0870963
0.0928657
0.103173
0.128247
0.261445
3.84602
4.73862
5.81869
7.14227
8.80719
10.761
12.2864
11.706
8.37448
4.84983
2.76806
1.70341
1.13609
0.799975
0.58209
0.433248
0.329141
0.255672
0.203609
0.166564
0.140072
0.121023
0.107271
0.0973332
0.0901809
0.0850952
0.0815679
0.0792376
0.0778457
0.077214
0.0772269
0.0778236
0.0789983
0.0808132
0.0834376
0.0872537
0.0931651
0.10373
0.129451
0.266249
3.35984
4.07379
4.9701
6.09668
7.53251
9.3321
11.2319
11.9881
10.0113
6.36291
3.64301
2.15111
1.37255
0.934994
0.664796
0.486322
0.364095
0.279014
0.219335
0.177238
0.147364
0.126031
0.110719
0.099703
0.0917978
0.0861822
0.0822815
0.079689
0.0781158
0.0773633
0.0773013
0.077859
0.079024
0.0808549
0.0835211
0.0874099
0.0934422
0.104235
0.130551
0.270809
3.01748
3.59145
4.33361
5.28955
6.52736
8.11923
10.0215
11.505
10.8546
7.7913
4.63443
2.69403
1.65921
1.09418
0.759313
0.545479
0.40236
0.304233
0.236152
0.188555
0.155043
0.131279
0.114323
0.102182
0.0934974
0.0873379
0.0830561
0.0801952
0.0784369
0.0775601
0.0774193
0.0779332
0.0790824
0.0809215
0.0836191
0.0875668
0.0937018
0.104695
0.131562
0.27515
2.77882
3.2422
3.85728
4.66876
5.73896
7.13905
8.90717
10.6788
11.0253
8.82645
5.61127
3.29681
1.98917
1.27631
0.865221
0.610384
0.443644
0.331095
0.253881
0.200384
0.163011
0.136694
0.118028
0.104728
0.0952488
0.0885384
0.0838711
0.080741
0.0787968
0.0777947
0.0775734
0.0780404
0.0791692
0.08101
0.0837304
0.0877255
0.093947
0.105117
0.132493
0.279292
2.61744
2.99155
3.50207
4.19258
5.12193
6.35785
7.95998
9.77528
10.7622
9.41237
6.45896
3.9041
2.34475
1.47599
0.98054
0.680063
0.487364
0.359219
0.272264
0.212546
0.171144
0.142187
0.121772
0.107296
0.0970172
0.0897569
0.0847057
0.0813097
0.0791825
0.0780567
0.077755
0.0781738
0.0792792
0.0811169
0.0838529
0.0878856
0.0941799
0.105507
0.133354
0.283249
2.51637
2.81609
3.23933
3.82878
4.64028
5.73797
7.18157
8.92565
10.2684
9.63001
7.08683
4.45722
2.70025
1.68349
1.10139
0.752746
0.532581
0.388049
0.290952
0.224812
0.179288
0.147654
0.12548
0.109833
0.0987653
0.0909613
0.0855367
0.0818835
0.0795799
0.0783349
0.0779552
0.0783263
0.0794067
0.0812379
0.0839841
0.0880461
0.0944014
0.105866
0.134149
0.28703
2.46474
2.7003
3.04881
3.55295
4.26583
5.24761
6.55276
8.18438
9.67574
9.57285
7.47548
4.91079
3.02718
1.88564
1.22208
0.825828
0.57798
0.416854
0.309504
0.236905
0.187262
0.152973
0.129069
0.112282
0.100444
0.0921194
0.0863398
0.0824437
0.0799744
0.0786176
0.0781644
0.0784899
0.0795455
0.0813681
0.0841203
0.0882051
0.0946112
0.106197
0.134885
0.290638
2.455
2.63331
2.91617
3.34695
3.97686
4.86168
6.04983
7.56057
9.08136
9.3537
7.65985
5.23816
3.29982
2.06801
1.33571
0.896046
0.621923
0.444742
0.327401
0.248505
0.194861
0.158012
0.132453
0.114572
0.102008
0.0931975
0.08709
0.0829714
0.080351
0.0788927
0.0783729
0.0786567
0.0796888
0.0815022
0.0842575
0.0883597
0.0948081
0.106501
0.135564
0.294074
2.48027
2.60593
2.83039
3.19708
3.75652
4.56022
5.65049
7.04864
8.53965
9.04805
7.67312
5.42018
3.49775
2.21742
1.43529
0.959881
0.662588
0.470715
0.344063
0.259261
0.201866
0.162627
0.135518
0.116631
0.103409
0.0941617
0.0877624
0.0834475
0.0806949
0.0791484
0.0785708
0.0788183
0.0798297
0.0816342
0.084391
0.0885068
0.0949903
0.106778
0.136186
0.297331
2.53199
2.6096
2.78182
3.09234
3.59149
4.32697
5.33446
6.63051
8.06141
8.69168
7.54834
5.47273
3.61487
2.3256
1.51516
1.01408
0.698177
0.493755
0.358891
0.268812
0.208044
0.16664
0.138156
0.118391
0.104599
0.094979
0.0883329
0.0838536
0.0809917
0.0793728
0.0787482
0.0789665
0.0799612
0.0817583
0.0845159
0.0886424
0.0951553
0.107026
0.136752
0.300405
2.60653
2.63823
2.76198
3.02308
3.47052
4.14812
5.08397
6.28648
7.63651
8.30256
7.3221
5.42001
3.65339
2.38913
1.57156
1.05607
0.727104
0.512918
0.37131
0.276745
0.213099
0.16989
0.140273
0.119788
0.105537
0.095619
0.088779
0.0841728
0.0812278
0.0795549
0.0788959
0.0790931
0.0800761
0.0818684
0.0846272
0.0887626
0.0953002
0.107244
0.137262
0.303284
2.70389
2.68799
2.76399
2.98056
3.38351
4.01149
4.884
6.00071
7.25629
7.89746
7.02898
5.28495
3.6245
2.40774
1.60267
1.08419
0.748169
0.527282
0.380619
0.28265
0.216824
0.17225
0.141783
0.120768
0.106183
0.0960548
0.0890809
0.0843897
0.0813909
0.0796845
0.0790052
0.0791907
0.080168
0.0819588
0.08472
0.0888633
0.095422
0.10743
0.137714
0.305957
2.81707
2.75251
2.78128
2.95665
3.32112
3.90593
4.72088
5.75723
6.91273
7.48787
6.68305
5.07964
3.53666
2.386
1.60858
1.09731
0.760158
0.536038
0.386403
0.286286
0.219061
0.173618
0.142621
0.121286
0.106508
0.0962646
0.0892225
0.0844917
0.0814708
0.0797528
0.0790683
0.0792524
0.0802306
0.0820239
0.0847893
0.0889405
0.0955174
0.107581
0.138106
0.308411
2.94005
2.82335
2.80554
2.94336
3.27455
3.82081
4.58109
5.53825
6.5858
7.06387
6.28912
4.81637
3.40181
2.33211
1.59367
1.09701
0.763486
0.539167
0.388514
0.287514
0.219707
0.173923
0.14274
0.121311
0.10649
0.0962324
0.0891914
0.084469
0.0814592
0.0797527
0.0790788
0.0792723
0.0802584
0.0820588
0.0848309
0.0889904
0.0955836
0.107696
0.138436
0.310633
3.06836
2.89007
2.82871
2.93352
3.23586
3.74621
4.45192
5.32725
6.25475
6.61553
5.85733
4.51554
3.23717
2.25626
1.56288
1.08535
0.758827
0.536811
0.386928
0.286279
0.218715
0.173131
0.142116
0.120825
0.106117
0.0959491
0.0889803
0.0843152
0.0813503
0.0796787
0.0790316
0.0792455
0.0802471
0.0820594
0.0848411
0.0890099
0.0956178
0.107772
0.138702
0.312611
3.19965
2.9506
2.84663
2.92213
3.19865
3.67353
4.32288
5.11192
5.90871
6.14716
5.41017
4.2028
3.06041
2.16779
1.52038
1.06398
0.746776
0.52916
0.381702
0.282596
0.216087
0.171243
0.140749
0.119828
0.105386
0.0954125
0.0885868
0.0840276
0.0811412
0.0795276
0.0789233
0.0791686
0.0801933
0.0820224
0.0848167
0.0889962
0.095618
0.107809
0.138903
0.314333
3.33076
3.0066
2.85916
2.90732
3.15893
3.59641
4.18667
4.88533
5.54632
5.67024
4.96918
3.89789
2.88328
2.07238
1.46863
1.03389
0.72775
0.516421
0.372959
0.276546
0.211878
0.168292
0.138659
0.118333
0.104307
0.0946282
0.0880138
0.0836074
0.0808319
0.0792986
0.0787524
0.0790397
0.0800947
0.0819456
0.0847559
0.0889478
0.0955829
0.107804
0.139038
0.31579
3.4687
3.06534
2.87114
2.89142
3.11649
3.51228
4.0391
4.64444
5.1708
5.19663
4.5494
3.61036
2.71032
1.97195
1.40842
0.995508
0.702049
0.498842
0.360896
0.268273
0.206188
0.164346
0.135893
0.11637
0.102899
0.0936089
0.0872696
0.0830597
0.0804251
0.078993
0.0785192
0.0788584
0.0799507
0.0818283
0.0846577
0.0888637
0.0955118
0.107758
0.139106
0.316975
3.63349
3.1425
2.89408
2.88142
3.07603
3.42457
3.87888
4.38475
4.78402
4.73915
4.16041
3.34298
2.54179
1.86636
1.33977
0.949063
0.670026
0.476776
0.345802
0.257991
0.199163
0.159505
0.132516
0.113984
0.101192
0.0923741
0.0863675
0.0823935
0.0799269
0.0786144
0.0782261
0.0786262
0.079762
0.0816708
0.0845224
0.0887441
0.0954051
0.107672
0.139108
0.317885
3.86637
3.26249
2.94378
2.88568
3.04549
3.3439
3.71372
4.10771
4.39563
4.31566
3.81159
3.09721
2.37694
1.75498
1.26266
0.89495
0.632224
0.450733
0.328079
0.245983
0.190996
0.153894
0.12861
0.111228
0.0992224
0.0909499
0.0853253
0.0816211
0.0793457
0.078169
0.0778772
0.0783461
0.079531
0.0814749
0.0843513
0.0885904
0.0952639
0.107546
0.139046
0.318522
4.20594
3.45157
3.03782
2.91308
3.02585
3.2794
3.55966
3.84269
4.04603
3.9573
3.51318
2.87314
2.21413
1.63707
1.17733
0.833918
0.589469
0.421405
0.308231
0.232594
0.181913
0.147662
0.124276
0.10817
0.0970365
0.0893675
0.0841649
0.0807579
0.0786926
0.0776647
0.0774785
0.0780227
0.0792614
0.0812438
0.0841474
0.0884049
0.0950903
0.107382
0.138923
0.318897
4.67722
3.73167
3.19473
2.97901
3.01016
3.20719
3.42816
3.62415
3.77277
3.67341
3.25767
2.66274
2.04932
1.51177
1.08451
0.767156
0.54288
0.38965
0.286851
0.218214
0.172168
0.140975
0.119621
0.104884
0.0946847
0.0876623
0.0829115
0.079822
0.0779806
0.0771113
0.0770376
0.0776621
0.0789584
0.080982
0.0839145
0.0881912
0.0948874
0.107184
0.138741
0.319019
5.29363
4.11472
3.42917
3.10285
3.03091
3.12247
3.28805
3.43734
3.54081
3.42402
3.01835
2.4541
1.87917
1.3794
0.985706
0.69631
0.493799
0.356423
0.264575
0.203254
0.162025
0.134005
0.114761
0.101446
0.0922206
0.0858722
0.0815921
0.0788331
0.0772245
0.0765198
0.0765633
0.0772716
0.0786283
0.0806953
0.0836583
0.0879546
0.0946602
0.106955
0.138504
0.31888
)
;

boundaryField
{
    leftWall
    {
        type            epsilonWallFunction;
        value           nonuniform List<scalar> 0();
    }
    rightWall
    {
        type            epsilonWallFunction;
        value           nonuniform List<scalar> 
43
(
0.0307262
0.0227506
0.0962949
0.0963027
0.115576
0.133874
0.15018
0.164632
0.177479
0.188941
0.199306
0.208736
0.217318
0.225163
0.232369
0.239024
0.245202
0.250964
0.256363
0.261445
0.266249
0.270809
0.27515
0.279292
0.283249
0.28703
0.290638
0.294074
0.297331
0.300405
0.303284
0.305957
0.308411
0.310633
0.312611
0.314333
0.31579
0.316975
0.317885
0.318522
0.318897
0.319019
0.31888
)
;
    }
    lowerWall
    {
        type            epsilonWallFunction;
        value           nonuniform List<scalar> 
66
(
0.922007
0.81841
0.81841
1.35295
2.31461
3.5134
4.90999
6.27963
7.70555
9.38321
11.5427
14.5109
15.8169
13.4182
18.3931
14.6318
0.0545571
0.140499
0.220731
0.324297
0.46167
0.662051
0.981333
1.51847
2.43133
4.01034
0.0545571
0.0828585
0.365945
0.0859423
0.0863757
0.376889
0.409609
0.435196
0.455372
0.465167
0.46633
0.460609
0.449633
0.434909
0.417812
0.399647
0.382073
0.368442
0.365505
0.0863034
0.367829
0.0861053
0.0859733
0.0864819
0.367667
0.368949
0.369444
0.372393
0.369673
0.0862074
0.0858864
0.08575
0.0855454
0.367409
0.0852551
0.0856114
0.0835969
0.0737877
0.0569491
0.0307262
)
;
    }
    atmosphere
    {
        type            inletOutlet;
        inletValue      nonuniform List<scalar> 0();
        value           nonuniform List<scalar> 0();
    }
    defaultFaces
    {
        type            empty;
    }
    procBoundary1to0
    {
        type            processor;
        value           nonuniform List<scalar> 
44
(
1.06959
1.39436
1.57526
1.6673
1.76238
1.88269
2.03505
2.22063
2.43078
2.63151
2.71568
2.65154
2.49313
2.30382
2.11612
1.94374
1.79346
1.66918
1.57344
1.50824
1.63591
1.63591
1.61015
1.62086
1.66773
1.75391
1.87475
1.95168
1.99255
2.03683
2.08705
2.15792
2.2632
2.4092
2.59711
2.82507
3.08527
3.35876
3.62313
3.85275
4.02122
4.0661
3.93305
3.66616
)
;
    }
    procBoundary1to3
    {
        type            processor;
        value           nonuniform List<scalar> 
45
(
4.78972
6.80132
8.92901
10.2317
8.23903
6.01827
4.58995
3.74504
3.29863
3.11719
3.09843
3.16684
3.25989
3.3188
3.18393
2.78394
2.24469
1.70474
1.24218
0.88329
0.623392
0.443708
0.322722
0.242047
0.188125
0.15175
0.126927
0.109813
0.0979388
0.0897005
0.0840369
0.0802351
0.0778118
0.0764398
0.0759026
0.0760655
0.0768598
0.0782787
0.0803908
0.0833855
0.0877018
0.0944155
0.106703
0.138214
0.318443
)
;
    }
}


// ************************************************************************* //
