/*--------------------------------*- C++ -*----------------------------------*\
  =========                 |
  \\      /  F ield         | OpenFOAM: The Open Source CFD Toolbox
   \\    /   O peration     | Website:  https://openfoam.org
    \\  /    A nd           | Version:  9
     \\/     M anipulation  |
\*---------------------------------------------------------------------------*/
FoamFile
{
    format      ascii;
    class       volScalarField;
    location    "0.3";
    object      k;
}
// * * * * * * * * * * * * * * * * * * * * * * * * * * * * * * * * * * * * * //

dimensions      [0 2 -2 0 0 0 0];

internalField   nonuniform List<scalar> 
1915
(
0.0312338
0.028804
0.0763352
0.0485074
0.123936
0.0693219
0.162743
0.0915448
0.198186
0.114281
0.230918
0.134749
0.262611
0.154438
0.295613
0.176086
0.332365
0.202126
0.373945
0.235412
0.0105794
0.0161109
0.0166096
0.0168999
0.0170749
0.0171984
0.0181842
0.0189352
0.0195244
0.0198118
0.019852
0.0196951
0.019385
0.0189616
0.0184613
0.01792
0.0173852
0.0169537
0.0168206
0.0171737
0.0167938
0.0170666
0.0170127
0.0170795
0.0166869
0.0168184
0.0168099
0.0168722
0.0167741
0.0169015
0.0168223
0.0167748
0.0167879
0.0165622
0.0166628
0.0166826
0.016236
0.0143083
0.0110338
0.00788784
0.0110911
0.0226866
0.0277803
0.0313011
0.0340325
0.0362663
0.0380026
0.0392685
0.0400815
0.0404816
0.0405253
0.0402683
0.0397662
0.0390744
0.0382468
0.0373363
0.0363947
0.0354724
0.0346009
0.0337859
0.0329705
0.0323128
0.0316626
0.0310596
0.0304965
0.0299625
0.0294574
0.028942
0.028394
0.0278684
0.0272336
0.0265068
0.0256413
0.0246307
0.0235154
0.0221419
0.0203827
0.017626
0.013434
0.00863165
0.0150228
0.0307911
0.0384151
0.0432198
0.0464776
0.0487457
0.0503083
0.0513563
0.0519491
0.0521236
0.051933
0.0514332
0.0506807
0.0497326
0.0486451
0.0474729
0.046268
0.0450757
0.043926
0.0428417
0.0418334
0.0409244
0.0400925
0.0393286
0.0386189
0.037946
0.0372913
0.0366183
0.0359089
0.0351369
0.0342731
0.033277
0.0321125
0.0307249
0.0290754
0.0270487
0.0245034
0.0210942
0.0161232
0.00859383
0.0194335
0.0395942
0.0489987
0.054544
0.0578595
0.0598057
0.0609139
0.0614981
0.061641
0.0613931
0.0608133
0.0599582
0.058882
0.0576379
0.056278
0.0548524
0.0534087
0.0519885
0.0506237
0.0493413
0.0481567
0.0470771
0.046096
0.0451979
0.0443703
0.0435894
0.0428291
0.0420582
0.0412478
0.0403612
0.0393705
0.0382323
0.0368991
0.0353118
0.0333991
0.0310561
0.0281216
0.0242926
0.018825
0.00861119
0.0245956
0.0498521
0.0608941
0.0668444
0.0698756
0.0712137
0.0716116
0.0714937
0.0709533
0.0700756
0.0689332
0.0675847
0.0660795
0.0644629
0.062778
0.061066
0.0593661
0.0577136
0.056138
0.0546632
0.0533036
0.0520642
0.0509396
0.0499138
0.048974
0.048093
0.0472407
0.0463846
0.0454905
0.0445194
0.0434373
0.0421988
0.0407508
0.0390298
0.0369555
0.0344171
0.0312424
0.0271106
0.0211885
0.00972065
0.0312559
0.0626926
0.0751552
0.0810936
0.0834174
0.0837922
0.0831731
0.0820738
0.0805859
0.0788461
0.0769459
0.0749453
0.0728861
0.0708015
0.0687208
0.0666716
0.0646808
0.0627738
0.0609729
0.0592962
0.0577549
0.0563519
0.0550809
0.0539256
0.0528718
0.0518902
0.050948
0.05001
0.0490387
0.047993
0.0468341
0.0455139
0.0439765
0.0421548
0.0399635
0.0372847
0.0339334
0.0295588
0.0232304
0.0107236
0.0405637
0.0795391
0.0926499
0.0978823
0.0989463
0.0979481
0.095986
0.0936001
0.0908857
0.0880408
0.0851761
0.0823522
0.0796017
0.0769417
0.0743832
0.071936
0.0696103
0.0674175
0.0653692
0.063475
0.0617407
0.0601654
0.0587408
0.0574506
0.0562784
0.0551925
0.0541581
0.0531374
0.0520903
0.0509735
0.0497444
0.0483523
0.046739
0.0448343
0.0425489
0.0397575
0.0362618
0.0316797
0.0249892
0.01158
0.054106
0.102008
0.113835
0.117256
0.11644
0.113701
0.110151
0.106186
0.101999
0.0978277
0.0938007
0.0899827
0.0863985
0.0830491
0.0799244
0.0770121
0.0743017
0.0717869
0.0694648
0.0673341
0.0653926
0.0636343
0.0620472
0.0606156
0.0593188
0.0581234
0.0569925
0.0558863
0.0547624
0.0535752
0.0522786
0.0508197
0.049138
0.0471607
0.0447941
0.041906
0.038285
0.0335198
0.0265071
0.0123143
0.0737673
0.131077
0.138318
0.138459
0.13528
0.130627
0.1254
0.119699
0.113901
0.108251
0.102902
0.0979362
0.0933815
0.0892282
0.0854457
0.0819974
0.0788491
0.0759729
0.0733483
0.07096
0.0687956
0.0668421
0.0650833
0.0635034
0.062075
0.0607639
0.0595315
0.0583361
0.0571328
0.0558742
0.0545109
0.0529878
0.0512423
0.0491985
0.0467586
0.043784
0.0400507
0.0351215
0.0278223
0.0129498
0.102644
0.167229
0.164458
0.159949
0.154363
0.147974
0.141143
0.133813
0.126426
0.119252
0.112487
0.106256
0.100611
0.0955453
0.0910144
0.0869583
0.0833169
0.0800382
0.0770805
0.0744122
0.0720083
0.0698469
0.0679087
0.0661719
0.0646048
0.0631716
0.0618323
0.0605432
0.0592575
0.0579256
0.0564953
0.0549092
0.0531022
0.0509957
0.0484879
0.0454339
0.0415984
0.0365212
0.0289676
0.0135044
0.403178
0.285377
0.414714
0.338839
0.418981
0.37538
0.420637
0.395198
0.420402
0.405279
0.418604
0.409636
0.415872
0.410685
0.413015
0.410211
0.41091
0.409588
0.410424
0.409913
0.412059
0.416642
0.423955
0.434147
0.447658
0.464466
0.480429
0.488295
0.494039
0.498097
0.501129
0.504724
0.509721
0.516289
0.524433
0.534054
0.544853
0.556903
0.571081
0.586217
0.595261
0.591128
0.573619
0.209077
0.185432
0.228932
0.196488
0.261719
0.28682
0.670103
0.424158
0.307125
0.29481
0.470068
0.640052
0.34458
0.313349
0.37687
0.49821
0.370544
0.336813
0.346678
0.408293
0.386369
0.357464
0.345052
0.366439
0.395032
0.372391
0.353411
0.352356
0.399487
0.382205
0.363266
0.351809
0.402023
0.388714
0.371862
0.356709
0.404287
0.393689
0.379061
0.363284
0.407457
0.398523
0.385598
0.370245
0.412327
0.404194
0.392296
0.377463
0.419355
0.411323
0.399788
0.385186
0.428727
0.420244
0.408492
0.393701
0.440778
0.43116
0.418644
0.403237
0.455874
0.444348
0.430393
0.413926
0.473187
0.459549
0.443836
0.425827
0.484856
0.474732
0.458521
0.43887
0.491617
0.484823
0.472257
0.452379
0.497239
0.491378
0.481919
0.465005
0.501229
0.497203
0.489978
0.47543
0.505357
0.502668
0.496543
0.484061
0.511189
0.509274
0.503323
0.491804
0.51971
0.518627
0.512061
0.499067
0.531642
0.532072
0.524191
0.507045
0.547475
0.550456
0.540296
0.515888
0.567344
0.574186
0.559682
0.525123
0.591668
0.604052
0.581144
0.53415
0.621781
0.642085
0.606486
0.543817
0.65555
0.687398
0.638286
0.559211
0.682455
0.730833
0.679811
0.585152
0.696538
0.777606
0.7346
0.623522
0.692855
0.802978
0.802039
0.676458
0.164658
0.200451
0.188944
0.180436
0.172933
0.165288
0.157023
0.148279
0.139437
0.130788
0.122581
0.115007
0.108172
0.102091
0.0967202
0.0919806
0.0877867
0.08406
0.0807353
0.0777617
0.0750993
0.0727166
0.0705895
0.0686858
0.0669714
0.0654087
0.0639561
0.062568
0.0611957
0.0597877
0.0582888
0.0566394
0.0547717
0.0526045
0.050032
0.0469032
0.0429729
0.0377607
0.029979
0.013997
0.290677
0.24363
0.216376
0.202218
0.191945
0.182741
0.173045
0.162987
0.152815
0.14278
0.133159
0.12421
0.116109
0.108923
0.102623
0.0971222
0.0923128
0.0880892
0.0843603
0.0810533
0.0781116
0.0754963
0.0731662
0.0710842
0.069213
0.0675126
0.0659396
0.0644467
0.0629832
0.0614953
0.0599254
0.0582113
0.0562829
0.0540557
0.0514204
0.0482203
0.0442013
0.0388651
0.030878
0.0144382
0.497
0.337917
0.271302
0.236991
0.21689
0.20276
0.190202
0.178208
0.166516
0.155092
0.144092
0.133774
0.124372
0.116016
0.108714
0.102383
0.0968995
0.0921323
0.0879634
0.0842962
0.081062
0.078197
0.0756507
0.0733798
0.071343
0.0694975
0.0677978
0.0661946
0.0646353
0.0630643
0.061421
0.0596409
0.0576513
0.0553649
0.0526684
0.0494002
0.045298
0.0398483
0.0316771
0.0148345
0.585203
0.516917
0.388258
0.308893
0.260966
0.231715
0.211436
0.195174
0.180961
0.167801
0.155344
0.143648
0.132927
0.123359
0.114995
0.107773
0.101562
0.0962061
0.091563
0.0875186
0.0839693
0.0808372
0.0780614
0.0755913
0.0733802
0.0713823
0.0695497
0.067831
0.0661718
0.0645144
0.0627952
0.0609477
0.0588963
0.0565508
0.0537944
0.0504609
0.0462806
0.0407267
0.03239
0.0151926
0.498013
0.556863
0.532747
0.440391
0.346049
0.281668
0.242666
0.216562
0.197243
0.181278
0.166991
0.153814
0.141743
0.13093
0.12146
0.113296
0.106307
0.100325
0.0951871
0.0907351
0.0868476
0.0834311
0.0804127
0.0777329
0.0753394
0.0731823
0.071211
0.0693722
0.0676091
0.065862
0.0640646
0.062148
0.060034
0.0576295
0.0548142
0.0514176
0.0471637
0.0415139
0.0330284
0.0155185
0.423488
0.495545
0.554754
0.556761
0.482219
0.371837
0.294073
0.247275
0.217512
0.196367
0.17931
0.16433
0.150809
0.138708
0.128095
0.118947
0.111149
0.104518
0.0988455
0.0939558
0.0897073
0.0859892
0.0827152
0.0798159
0.0772322
0.0749097
0.0727946
0.0708311
0.0689607
0.0671208
0.065243
0.0632558
0.0610784
0.0586148
0.0557414
0.0522839
0.0479602
0.0422219
0.0336022
0.0158168
0.379826
0.432322
0.501065
0.564224
0.579046
0.50455
0.379207
0.295024
0.245469
0.21463
0.192893
0.175383
0.160162
0.146688
0.134888
0.124742
0.116115
0.108788
0.102543
0.0971864
0.0925546
0.0885184
0.0849765
0.0818484
0.0790674
0.0765737
0.0743102
0.0722185
0.0702377
0.0683022
0.066342
0.0642828
0.0620412
0.0595184
0.0565877
0.0530709
0.0486812
0.0428609
0.0341198
0.0160918
0.358595
0.389869
0.444397
0.517075
0.585832
0.59342
0.498999
0.369518
0.286714
0.238641
0.208789
0.18736
0.169919
0.154891
0.141881
0.130714
0.121203
0.113134
0.106281
0.100429
0.0953925
0.0910226
0.0872013
0.083836
0.0808512
0.0781816
0.0757657
0.0735426
0.0714491
0.0694157
0.0673712
0.0652388
0.0629325
0.0603504
0.0573631
0.0537887
0.049336
0.0434395
0.0345882
0.0163466
0.351071
0.365187
0.403241
0.466655
0.548572
0.610388
0.586882
0.469334
0.348383
0.272192
0.228682
0.200933
0.180315
0.163488
0.149143
0.136859
0.126403
0.11755
0.110054
0.10368
0.0982201
0.0935022
0.0893913
0.0857815
0.0825876
0.079738
0.0771667
0.0748097
0.072601
0.0704683
0.0683384
0.066132
0.0637605
0.0611193
0.058076
0.0544456
0.0499326
0.043965
0.0350136
0.016584
0.351071
0.35287
0.376105
0.4251
0.499808
0.58174
0.620233
0.560718
0.428169
0.320032
0.255096
0.217198
0.191974
0.172662
0.156693
0.143169
0.131705
0.122023
0.113854
0.106935
0.101033
0.0959549
0.0915457
0.0876853
0.0842783
0.0812457
0.078517
0.0760247
0.073699
0.0714658
0.0692498
0.066969
0.0645322
0.0618321
0.0587336
0.0550486
0.050478
0.0444439
0.035401
0.0168063
0.35492
0.348501
0.359669
0.394752
0.456212
0.537724
0.609931
0.612623
0.511437
0.380302
0.289991
0.237489
0.205312
0.182546
0.164563
0.149638
0.137091
0.126539
0.117667
0.110183
0.103825
0.0983755
0.0936611
0.0895458
0.0859229
0.0827056
0.0798184
0.0771904
0.0747465
0.0724125
0.0701101
0.067755
0.0652531
0.0624946
0.0593417
0.0556036
0.0509779
0.0448813
0.0357547
0.0170156
0.360742
0.349057
0.350965
0.374035
0.42253
0.495591
0.578847
0.625453
0.574163
0.445358
0.332706
0.262356
0.220719
0.193299
0.172794
0.156263
0.142543
0.131077
0.121477
0.113409
0.106584
0.100756
0.0957319
0.091359
0.087519
0.0841168
0.0810713
0.0783067
0.0757453
0.0733108
0.0709226
0.0684936
0.0659273
0.0631113
0.0599052
0.0561155
0.051437
0.0452816
0.0360782
0.0172135
0.367728
0.352644
0.347639
0.36079
0.39779
0.460204
0.542135
0.613052
0.608641
0.505981
0.379933
0.291482
0.238382
0.205039
0.181423
0.163035
0.148041
0.135615
0.125263
0.116599
0.109297
0.103087
0.0977503
0.0931192
0.0890627
0.0854769
0.082275
0.0793738
0.076696
0.0741623
0.0716894
0.0691877
0.0665582
0.0636858
0.0604277
0.0565882
0.0518591
0.0456484
0.0363746
0.0174011
0.375594
0.358148
0.347997
0.35314
0.380285
0.432527
0.508068
0.588752
0.619499
0.551027
0.426198
0.323302
0.258067
0.217771
0.190451
0.169938
0.153557
0.140125
0.129001
0.119732
0.11195
0.105355
0.0997069
0.0948193
0.0905485
0.0867819
0.0834243
0.0803895
0.0775977
0.074967
0.0724114
0.0698388
0.0671476
0.0642204
0.0609121
0.0570246
0.0522473
0.0459846
0.036646
0.0175796
0.384295
0.36495
0.350861
0.349577
0.368415
0.411631
0.479326
0.561245
0.614979
0.578942
0.466992
0.35538
0.279022
0.231302
0.199814
0.176929
0.159054
0.144574
0.132664
0.122786
0.114525
0.107547
0.101591
0.0964506
0.0919698
0.0880262
0.0845156
0.0813509
0.0784485
0.0757239
0.0730884
0.0704473
0.0676967
0.0647168
0.0613602
0.0574267
0.0526036
0.0462922
0.0368943
0.0177495
0.39387
0.37273
0.355435
0.348947
0.360849
0.39626
0.456248
0.535087
0.601949
0.592848
0.498692
0.385133
0.300085
0.245217
0.209358
0.183933
0.164482
0.148925
0.136222
0.125737
0.117001
0.109648
0.10339
0.0980034
0.0933191
0.089201
0.0855431
0.0822536
0.0792454
0.076431
0.0737192
0.0710129
0.0682057
0.0651756
0.0617731
0.057796
0.0529296
0.0465727
0.0371207
0.0179115
0.404309
0.381296
0.361169
0.350366
0.356491
0.385254
0.438331
0.512372
0.58494
0.5962
0.52053
0.410578
0.319929
0.25891
0.218828
0.190832
0.169776
0.153133
0.139641
0.128558
0.119359
0.111641
0.105091
0.0994673
0.0945835
0.0902985
0.0865005
0.0830927
0.0799845
0.0770855
0.074302
0.0715344
0.0686741
0.0655968
0.0621511
0.0581331
0.0532262
0.0468271
0.0373259
0.0180656
0.415466
0.390413
0.367625
0.353126
0.354441
0.37763
0.424778
0.493598
0.567458
0.593192
0.533908
0.430519
0.337317
0.271675
0.227895
0.197472
0.174852
0.157146
0.142884
0.131222
0.121577
0.113509
0.10668
0.100826
0.0957525
0.0913102
0.0873807
0.0838625
0.0806614
0.0776839
0.0748341
0.0720099
0.0691005
0.0659796
0.062494
0.058438
0.0534937
0.0470558
0.0375106
0.018212
0.426955
0.399661
0.374325
0.356598
0.353924
0.372535
0.41475
0.478689
0.551576
0.586616
0.540074
0.443908
0.351212
0.282838
0.236207
0.203679
0.17962
0.160908
0.145914
0.133701
0.123632
0.115234
0.108136
0.102066
0.0968151
0.0922269
0.0881763
0.0845569
0.0812709
0.0782223
0.0753124
0.0724371
0.0694833
0.0663229
0.0628009
0.0587104
0.053732
0.0472589
0.0376747
0.0183505
0.438012
0.408445
0.380694
0.360174
0.354252
0.369212
0.40741
0.467003
0.537742
0.57775
0.540248
0.451334
0.361262
0.29195
0.243467
0.209287
0.183986
0.164364
0.148692
0.135967
0.125502
0.116787
0.109441
0.103172
0.0977599
0.0930394
0.0888794
0.0851693
0.0818078
0.0786962
0.0757333
0.0728131
0.0698202
0.0666249
0.0630707
0.0589494
0.0539405
0.0474362
0.0378181
0.0184809
0.448261
0.416323
0.386186
0.363275
0.354808
0.366986
0.401989
0.457768
0.525568
0.56718
0.535813
0.453763
0.367379
0.298792
0.249464
0.214161
0.187868
0.167461
0.151182
0.13798
0.127146
0.118148
0.110579
0.104132
0.0985763
0.0937386
0.0894825
0.0856933
0.0822667
0.0791012
0.0760934
0.073135
0.070109
0.0668839
0.063302
0.0591539
0.0541184
0.0475871
0.0379406
0.0186029
0.457673
0.423079
0.390403
0.365406
0.355057
0.365275
0.397832
0.450352
0.514728
0.555506
0.528137
0.452144
0.370023
0.303236
0.25408
0.218209
0.191202
0.170136
0.153316
0.139696
0.128542
0.119297
0.111535
0.104933
0.0992536
0.0943155
0.0899779
0.0861226
0.0826422
0.0794329
0.0763888
0.0733998
0.0703471
0.0670978
0.063493
0.0593226
0.0542649
0.047711
0.0380417
0.0187159
0.465468
0.428202
0.392978
0.366165
0.354574
0.363595
0.394365
0.444103
0.504925
0.543165
0.517711
0.446915
0.369512
0.305406
0.25719
0.221286
0.193855
0.1723
0.15505
0.141088
0.129669
0.120218
0.112294
0.105565
0.0997823
0.0947619
0.0903587
0.0864513
0.0829296
0.0796872
0.0766163
0.0736047
0.0705322
0.0672646
0.0636422
0.0594544
0.0543789
0.0478071
0.0381209
0.0188196
0.471184
0.431137
0.393481
0.365253
0.353067
0.361567
0.391056
0.43829
0.495309
0.52965
0.504605
0.438518
0.366359
0.305697
0.259016
0.223458
0.195837
0.173943
0.156367
0.142137
0.130509
0.120897
0.112846
0.106015
0.100153
0.0950703
0.0906187
0.0866743
0.0831245
0.0798607
0.076773
0.0737474
0.0706623
0.0673828
0.0637483
0.0595478
0.0544594
0.0478747
0.0381777
0.0189135
0.47475
0.431315
0.391653
0.362579
0.350435
0.358955
0.387478
0.432265
0.484986
0.514437
0.48914
0.427839
0.361414
0.30466
0.25984
0.22484
0.19718
0.175061
0.15725
0.142826
0.131048
0.12132
0.113178
0.106276
0.100359
0.0952344
0.0907526
0.0867872
0.0832236
0.0799506
0.0768566
0.0738259
0.0707359
0.0674508
0.0638099
0.0596022
0.0545057
0.0479132
0.0382117
0.0189971
0.476435
0.429149
0.387784
0.358404
0.346833
0.355707
0.383382
0.425625
0.473539
0.497705
0.472345
0.41618
0.355653
0.302839
0.259906
0.225519
0.1979
0.175645
0.157685
0.143141
0.131274
0.121477
0.113282
0.10634
0.100393
0.0952489
0.0907564
0.0867872
0.0832245
0.0799551
0.0768656
0.0738391
0.0707518
0.0674679
0.0638264
0.0596167
0.0545173
0.0479223
0.0382226
0.0190698
0.476599
0.425522
0.38266
0.353387
0.342708
0.352
0.378758
0.41828
0.461043
0.480064
0.455365
0.404686
0.349803
0.300588
0.259345
0.225523
0.197987
0.175677
0.157655
0.143069
0.131174
0.121358
0.113149
0.106199
0.10025
0.0951104
0.0906277
0.0866726
0.0831262
0.0798738
0.0768
0.0737867
0.0707101
0.0674338
0.0637976
0.0595912
0.0544941
0.0479019
0.0382105
0.0191315
0.476529
0.421818
0.377546
0.348597
0.338847
0.348306
0.373828
0.410376
0.44783
0.462213
0.439143
0.394027
0.344186
0.298011
0.258159
0.224821
0.19741
0.175135
0.157144
0.142597
0.13074
0.120956
0.112775
0.105851
0.0999282
0.0948174
0.090366
0.0864436
0.0829296
0.0797074
0.0766604
0.0736698
0.0706113
0.0673493
0.063724
0.0595261
0.0544364
0.0478523
0.0381754
0.0191819
0.478335
0.419982
0.374196
0.345449
0.336372
0.345487
0.369018
0.402
0.434174
0.444986
0.424411
0.384486
0.338831
0.295042
0.256267
0.223349
0.196126
0.173992
0.156139
0.141718
0.129966
0.120268
0.112157
0.105293
0.0994267
0.0943706
0.089973
0.0861024
0.082637
0.0794585
0.0764493
0.0734902
0.0704573
0.0672156
0.0636067
0.0594223
0.0543448
0.047774
0.038118
0.0192208
0.485467
0.422436
0.374525
0.34534
0.336545
0.344842
0.365283
0.393528
0.420747
0.429571
0.411922
0.376236
0.333657
0.291544
0.253555
0.221033
0.194097
0.172234
0.154633
0.140428
0.128852
0.119292
0.111294
0.104527
0.0987481
0.0937735
0.0894526
0.0856535
0.0822529
0.0791312
0.0761703
0.0732512
0.0702507
0.0670352
0.0634476
0.0592814
0.0542208
0.0476682
0.0380389
0.0192484
0.500903
0.431471
0.380305
0.349497
0.340082
0.347526
0.364043
0.386938
0.410096
0.418133
0.402562
0.369347
0.328477
0.287334
0.249906
0.217815
0.191303
0.169856
0.152627
0.138731
0.127398
0.118032
0.110191
0.103558
0.0978983
0.0930327
0.088812
0.0851037
0.0817835
0.0787313
0.0758286
0.0729572
0.0699954
0.0668112
0.0632495
0.0591056
0.054066
0.0475361
0.0379393
0.0192651
0.526427
0.448806
0.393047
0.359238
0.346843
0.352372
0.366331
0.384656
0.404942
0.411727
0.396086
0.363265
0.322863
0.282165
0.245208
0.213664
0.187746
0.166871
0.150136
0.136637
0.125615
0.116495
0.108856
0.102394
0.0968869
0.0921582
0.0880608
0.0844622
0.0812375
0.0782662
0.0754306
0.0726139
0.0696962
0.0665479
0.0630158
0.0588978
0.0538827
0.0473794
0.0378204
0.0192713
0.562987
0.47533
0.413751
0.375797
0.358915
0.359008
0.370224
0.385947
0.403309
0.407927
0.390647
0.356961
0.316331
0.27584
0.239403
0.208581
0.183451
0.163305
0.14718
0.134162
0.123517
0.114695
0.107301
0.10105
0.0957273
0.0911632
0.0872119
0.0837408
0.0806252
0.077745
0.0749841
0.0722278
0.0693589
0.0662501
0.062751
0.0586617
0.053674
0.0472004
0.037683
0.0192666
)
;

boundaryField
{
    leftWall
    {
        type            kqRWallFunction;
        value           nonuniform List<scalar> 0();
    }
    rightWall
    {
        type            kqRWallFunction;
        value           nonuniform List<scalar> 
43
(
0.00788784
0.00863165
0.00859383
0.00861119
0.00972065
0.0107236
0.01158
0.0123143
0.0129498
0.0135044
0.013997
0.0144382
0.0148345
0.0151926
0.0155185
0.0158168
0.0160918
0.0163466
0.016584
0.0168063
0.0170156
0.0172135
0.0174011
0.0175796
0.0177495
0.0179115
0.0180656
0.018212
0.0183505
0.0184809
0.0186029
0.0187159
0.0188196
0.0189135
0.0189971
0.0190698
0.0191315
0.0191819
0.0192208
0.0192484
0.0192651
0.0192713
0.0192666
)
;
    }
    lowerWall
    {
        type            kqRWallFunction;
        value           nonuniform List<scalar> 
66
(
0.0312338
0.028804
0.028804
0.0485074
0.0693219
0.0915448
0.114281
0.134749
0.154438
0.176086
0.202126
0.235412
0.209077
0.185432
0.228932
0.196488
0.0105794
0.0110911
0.0150228
0.0194335
0.0245956
0.0312559
0.0405637
0.054106
0.0737673
0.102644
0.0105794
0.0161109
0.0166096
0.0168999
0.0170749
0.0171984
0.0181842
0.0189352
0.0195244
0.0198118
0.019852
0.0196951
0.019385
0.0189616
0.0184613
0.01792
0.0173852
0.0169537
0.0168206
0.0171737
0.0167938
0.0170666
0.0170127
0.0170795
0.0166869
0.0168184
0.0168099
0.0168722
0.0167741
0.0169015
0.0168223
0.0167748
0.0167879
0.0165622
0.0166628
0.0166826
0.016236
0.0143083
0.0110338
0.00788784
)
;
    }
    atmosphere
    {
        type            inletOutlet;
        inletValue      nonuniform List<scalar> 0();
        value           nonuniform List<scalar> 0();
    }
    defaultFaces
    {
        type            empty;
    }
    procBoundary1to0
    {
        type            processor;
        value           nonuniform List<scalar> 
44
(
0.0344957
0.100152
0.142163
0.176693
0.209325
0.241389
0.273509
0.306002
0.338536
0.369505
0.39395
0.408542
0.41526
0.417558
0.417223
0.415141
0.412125
0.409072
0.406918
0.406582
0.412325
0.412325
0.417162
0.425133
0.436575
0.452073
0.470957
0.482531
0.487912
0.492074
0.494722
0.4971
0.500217
0.504037
0.507937
0.511213
0.513204
0.513373
0.511823
0.509763
0.507477
0.501966
0.489639
0.471601
)
;
    }
    procBoundary1to3
    {
        type            processor;
        value           nonuniform List<scalar> 
45
(
0.546082
0.665882
0.781281
0.844625
0.740404
0.608885
0.510577
0.44265
0.399936
0.37799
0.371997
0.377201
0.389078
0.402891
0.404788
0.385182
0.349963
0.308695
0.268304
0.232505
0.202614
0.178467
0.159199
0.143789
0.131331
0.121123
0.11265
0.105546
0.0995428
0.0944375
0.0900647
0.0862806
0.0829533
0.0799585
0.077178
0.074498
0.0718067
0.06899
0.0659236
0.06246
0.0584018
0.0534435
0.0470017
0.0375285
0.0192497
)
;
    }
}


// ************************************************************************* //
