/*--------------------------------*- C++ -*----------------------------------*\
  =========                 |
  \\      /  F ield         | OpenFOAM: The Open Source CFD Toolbox
   \\    /   O peration     | Website:  https://openfoam.org
    \\  /    A nd           | Version:  9
     \\/     M anipulation  |
\*---------------------------------------------------------------------------*/
FoamFile
{
    format      ascii;
    class       volScalarField;
    location    "0.3";
    object      nut;
}
// * * * * * * * * * * * * * * * * * * * * * * * * * * * * * * * * * * * * * //

dimensions      [0 2 -1 0 0 0 0];

internalField   nonuniform List<scalar> 
1915
(
9.52268e-05
9.12383e-05
0.000502329
0.000156522
0.000915063
0.000186855
0.00123861
0.000214675
0.00152607
0.000239392
0.00178754
0.00026023
0.00202915
0.000278577
0.00225718
0.000297401
0.00248132
0.000318553
0.00273191
0.000343721
0.000184634
0.000281933
6.78491e-05
0.00029909
0.000303785
7.06324e-05
7.26543e-05
7.41479e-05
7.53411e-05
7.59421e-05
7.60601e-05
7.57923e-05
7.5217e-05
7.44033e-05
7.3415e-05
7.23173e-05
7.11959e-05
7.02107e-05
6.96681e-05
0.000307567
6.90076e-05
0.000304444
0.000302989
0.000303575
6.81616e-05
6.89993e-05
6.88371e-05
6.87993e-05
6.85019e-05
0.000298228
0.000296543
0.000295341
0.000296508
6.71937e-05
0.0002931
0.000292575
0.000283799
0.00024971
0.0001924
0.000182243
7.87991e-05
0.000396623
0.000441541
0.000502926
0.000553811
0.000589135
0.000636444
0.000674551
0.000699748
0.000718583
0.000732025
0.000740375
0.00074391
0.000742992
0.000738105
0.000729777
0.000718294
0.000703421
0.000686602
0.000696906
0.00065888
0.000667769
0.000655105
0.000644063
0.000608112
0.000603482
0.000592107
0.000592546
0.000578337
0.000582791
0.000568503
0.00055727
0.000554331
0.000525932
0.000538694
0.000543123
0.000525578
0.00044995
0.000326778
0.00029474
9.20194e-05
0.000557816
0.000782847
0.000929875
0.00105225
0.0011599
0.00125631
0.0013375
0.00140171
0.00145384
0.00149457
0.0015236
0.00154074
0.0015462
0.00154073
0.00152555
0.00150216
0.00147232
0.00143938
0.0014087
0.00137232
0.00134091
0.00130829
0.00127762
0.00124632
0.00122055
0.00119313
0.00116815
0.00113694
0.00110657
0.00107244
0.00103606
0.000996034
0.000950893
0.000899571
0.000839419
0.00075646
0.000618063
0.000401763
6.9026e-05
0.00010481
0.000704647
0.00105621
0.00128007
0.00145509
0.00160445
0.00173626
0.00185279
0.00195406
0.00204283
0.00211808
0.00217776
0.00222003
0.00224395
0.00224965
0.00223841
0.00221247
0.00217488
0.00212953
0.00207972
0.00202703
0.00197449
0.00192268
0.00187276
0.001825
0.00177934
0.00173382
0.00168797
0.00163856
0.00158615
0.00152936
0.00146652
0.0013958
0.00131538
0.00122149
0.00110834
0.00096324
0.000760523
0.000466816
6.92996e-05
0.00011793
0.000831786
0.00127404
0.00154963
0.00175567
0.00192782
0.00208136
0.00222298
0.00235493
0.00247865
0.00259116
0.00268798
0.0027648
0.00281849
0.00284758
0.00285248
0.00283527
0.00279944
0.00274943
0.00268954
0.00262371
0.00255544
0.00248693
0.00241956
0.00235421
0.00229039
0.00222682
0.00216204
0.0020938
0.00202059
0.00194103
0.00185265
0.00175298
0.00163894
0.00150579
0.00134601
0.00114657
0.000884727
0.000525283
7.35811e-05
0.000132805
0.000946096
0.00145243
0.00175979
0.00198026
0.00216071
0.00232337
0.00247905
0.00263307
0.00278638
0.00293446
0.00307049
0.00318733
0.00327899
0.00334151
0.00337343
0.00337575
0.00335166
0.00330586
0.00324367
0.00317046
0.00309096
0.00300871
0.00292593
0.00284418
0.00276327
0.00268215
0.0025991
0.00251193
0.00241836
0.00231643
0.00220324
0.00207565
0.00192967
0.00175969
0.0015573
0.00130918
0.000993546
0.000575729
7.73081e-05
0.000150904
0.00105644
0.00160829
0.0019334
0.00215624
0.00233391
0.00249494
0.00265434
0.00282091
0.00299579
0.0031739
0.00334679
0.00350476
0.0036387
0.0037415
0.00380899
0.00384018
0.00383712
0.00380423
0.00374736
0.00367292
0.00358692
0.00349427
0.00339841
0.00330179
0.0032048
0.00310667
0.00300575
0.00289978
0.00278608
0.00266215
0.00252471
0.00237001
0.00219337
0.00198855
0.00174657
0.00145387
0.00108912
0.000618957
8.03618e-05
0.000173511
0.00117022
0.001753
0.00208556
0.00230239
0.00246975
0.00262133
0.00277659
0.00294691
0.00313439
0.00333457
0.00353854
0.00373481
0.00391144
0.00405793
0.00416676
0.00423415
0.00426013
0.0042481
0.00420383
0.00413436
0.00404681
0.00394742
0.00384115
0.0037314
0.00361941
0.00350492
0.00338652
0.00326194
0.00312833
0.00298273
0.00282148
0.00264037
0.0024342
0.00219623
0.00191709
0.00158312
0.00117338
0.000656166
8.28988e-05
0.000201431
0.00129113
0.00188859
0.00221904
0.00242484
0.00257851
0.00271723
0.00286425
0.0030321
0.00322431
0.00343813
0.00366551
0.00389441
0.00411085
0.00430118
0.00445426
0.00456286
0.00462425
0.00464
0.00461506
0.00455659
0.00447251
0.00437033
0.00425654
0.00413564
0.00400991
0.00387984
0.0037444
0.0036015
0.00344822
0.00328125
0.00309665
0.00288981
0.00265515
0.00238555
0.00207141
0.00169906
0.00124799
0.000688408
8.50395e-05
0.000236443
0.00142527
0.00200602
0.00232292
0.00251646
0.00265789
0.00278581
0.00292537
0.00308872
0.00328084
0.00350135
0.00374438
0.00399883
0.00424988
0.00448149
0.00467904
0.00483155
0.0049329
0.00498204
0.00498239
0.0049406
0.00486497
0.00476413
0.0046459
0.00451604
0.00437805
0.00423332
0.00408143
0.00392057
0.00374792
0.00355994
0.00335247
0.00312061
0.00285848
0.0025587
0.00221154
0.00180343
0.00131437
0.000716547
8.68701e-05
0.00319536
0.000739113
0.0037495
0.00141283
0.00438924
0.00225687
0.00509274
0.00316552
0.00582002
0.0040776
0.0065348
0.00495286
0.00721249
0.00577054
0.00783908
0.00652262
0.00840728
0.00720643
0.00891289
0.00782078
0.00836425
0.00883567
0.00923504
0.00956564
0.00983392
0.0100453
0.010196
0.0102612
0.0102536
0.0101559
0.00995275
0.00964003
0.00922315
0.00871877
0.00815586
0.00757483
0.00702221
0.00653983
0.0061611
0.00589658
0.00573314
0.00564981
0.00561415
0.000248733
0.00023063
0.000256449
0.000237474
0.000597682
0.000520291
0.000913927
0.0010255
0.00113466
0.00076427
0.000837902
0.00116212
0.00185374
0.00116248
0.000914555
0.00108286
0.00268525
0.0017309
0.00117648
0.00111143
0.00355402
0.00242963
0.00161827
0.00129204
0.00440782
0.00319809
0.00220533
0.00162543
0.0052191
0.00398444
0.00288361
0.00209267
0.0059746
0.0047539
0.00360104
0.00265796
0.00666745
0.00548492
0.00431886
0.0032793
0.00729315
0.00616399
0.00501122
0.00391943
0.00784822
0.00678213
0.00566118
0.00455018
0.00833066
0.00733362
0.00625774
0.00515196
0.00874102
0.00781579
0.00679427
0.0057119
0.00908248
0.00822816
0.00726683
0.00622148
0.00935823
0.00857052
0.00767184
0.00667366
0.00956974
0.00884075
0.00800467
0.00706077
0.0096955
0.00903455
0.00826062
0.00737529
0.00973556
0.00913521
0.00843238
0.00761099
0.00969149
0.00914589
0.00850934
0.00775927
0.00954399
0.00906299
0.00849297
0.00781155
0.00928842
0.00887612
0.00837743
0.00777214
0.00893177
0.00859293
0.00817355
0.00764843
0.00849277
0.00823283
0.00789762
0.00745088
0.00800212
0.00782586
0.00757553
0.00720149
0.00750046
0.00740945
0.00723881
0.00692331
0.00703059
0.00702023
0.00691475
0.00663792
0.00662744
0.00668567
0.00661825
0.00636115
0.00631565
0.00642497
0.00636446
0.00610513
0.00610386
0.00624845
0.0061737
0.0058968
0.00597755
0.00614946
0.00607259
0.0057666
0.00591535
0.00613267
0.00607222
0.00573102
0.00588991
0.00616323
0.00616714
0.00580323
0.000626601
0.00159995
0.00208079
0.00237179
0.00255887
0.00269534
0.00282106
0.00295942
0.0031213
0.00331274
0.00353607
0.0037886
0.00406167
0.00434118
0.00460983
0.00485015
0.00504744
0.00519177
0.00527884
0.00530978
0.00529004
0.00522781
0.00513251
0.00501308
0.00487664
0.004728
0.00456962
0.00440187
0.0042234
0.0040316
0.00382285
0.00359285
0.00333649
0.00304768
0.00271888
0.00234031
0.00189857
0.00137426
0.000741499
8.84688e-05
0.00115868
0.00164104
0.00203099
0.00232014
0.00252338
0.00267165
0.00280957
0.00295799
0.00312636
0.00332119
0.00354731
0.00380583
0.00409185
0.00439362
0.00469408
0.00497395
0.00521521
0.00540404
0.0055324
0.00559844
0.00560571
0.00556167
0.0054762
0.00535906
0.00521865
0.00506117
0.0048903
0.00470739
0.00451172
0.00430104
0.00407176
0.00381954
0.00353918
0.00322445
0.00286771
0.00245921
0.00198578
0.00142863
0.000763812
8.98813e-05
0.00139138
0.00156565
0.00187261
0.00215992
0.00239662
0.00257602
0.00274085
0.00291197
0.00309753
0.00330351
0.00353622
0.00380045
0.00409579
0.00441434
0.00474091
0.00505575
0.00533843
0.00557148
0.00574293
0.00584739
0.00588564
0.0058644
0.00579303
0.00568183
0.0055403
0.00537604
0.00519413
0.00499699
0.00478475
0.00455565
0.00430628
0.00403238
0.0037287
0.00338897
0.00300552
0.00256869
0.00206555
0.00147796
0.000783786
9.11359e-05
0.00140058
0.00158118
0.00180418
0.0020105
0.00222953
0.00243068
0.00262056
0.00281858
0.00302937
0.00325517
0.00350098
0.0037737
0.00407734
0.00440878
0.00475622
0.005101
0.00542143
0.00569707
0.00591203
0.00605662
0.0061297
0.00613555
0.00608248
0.00598089
0.00584124
0.00567249
0.00548114
0.0052709
0.00504287
0.00479595
0.00452703
0.00423205
0.00390582
0.00354207
0.00313317
0.00266959
0.00213867
0.00152286
0.000801748
9.22596e-05
0.00132248
0.00160184
0.0018257
0.00200345
0.00214487
0.00230751
0.0024844
0.0026905
0.00292271
0.0031729
0.0034385
0.00372455
0.00403788
0.00438028
0.00474442
0.00511422
0.00546815
0.00578345
0.00604037
0.00622708
0.0063382
0.00637501
0.00634423
0.00625592
0.00612122
0.00595038
0.00575137
0.0055293
0.00528639
0.00502236
0.00473454
0.00441918
0.00407123
0.00368449
0.00325144
0.00276266
0.00220579
0.00156384
0.000817965
9.32743e-05
0.00131638
0.00153587
0.00182691
0.00206797
0.00219676
0.00228851
0.00239612
0.00256254
0.00279062
0.00305844
0.00334664
0.00365096
0.00397704
0.00433032
0.00470831
0.00509879
0.00548106
0.00583166
0.00613025
0.0063603
0.00651198
0.00658311
0.00657827
0.00650676
0.0063801
0.00620965
0.00600488
0.00577237
0.00551563
0.00523529
0.00492932
0.00459435
0.00422558
0.00381694
0.00336101
0.00284856
0.00226749
0.00160132
0.000832658
9.41977e-05
0.00142807
0.00150951
0.0017519
0.00205494
0.00229172
0.0023762
0.00240797
0.00248452
0.00266158
0.0029224
0.00322678
0.00355139
0.0038935
0.0042589
0.00464923
0.0050555
0.00546104
0.0058452
0.00618456
0.00645837
0.00665239
0.00676061
0.00678498
0.00673357
0.00661792
0.00645036
0.00624178
0.00600035
0.00573094
0.00543516
0.00511184
0.00475812
0.00436946
0.00394002
0.00346252
0.00292789
0.00232429
0.00163569
0.000846011
9.50445e-05
0.00166125
0.00157324
0.00170693
0.00197957
0.00229125
0.00249797
0.00251635
0.00249391
0.00257439
0.0027864
0.00308639
0.00342652
0.0037862
0.00416522
0.0045652
0.00498442
0.00541217
0.00582799
0.00620667
0.00652397
0.00676137
0.00690878
0.00696513
0.00693678
0.00683497
0.00667273
0.00646232
0.00621349
0.00593266
0.00562236
0.00528257
0.00491098
0.00450344
0.00405432
0.00355652
0.00300117
0.00237663
0.00166725
0.000858182
9.58264e-05
0.00200687
0.00173258
0.0017328
0.00192442
0.00223076
0.00252812
0.00265923
0.00260404
0.00256307
0.00268069
0.00294053
0.00328092
0.00365551
0.00404525
0.00445607
0.00488995
0.00533895
0.00578434
0.00620043
0.00656027
0.00684132
0.00702937
0.0071199
0.00711719
0.00703177
0.00687713
0.00666681
0.00641212
0.00612101
0.00579727
0.00544196
0.00505345
0.00462804
0.00416036
0.00364354
0.00306886
0.00242489
0.0016963
0.000869302
9.65529e-05
0.00244493
0.00198126
0.00183228
0.00191607
0.0021639
0.00248373
0.00272929
0.0027654
0.00265215
0.00263513
0.00281097
0.00312425
0.00349989
0.00390265
0.0043277
0.00477713
0.00524619
0.0057189
0.00617007
0.00657087
0.00689516
0.00712456
0.00725088
0.0072759
0.00720908
0.00706413
0.00685571
0.00659668
0.00629643
0.0059603
0.00559044
0.00518598
0.00474372
0.00425863
0.00372403
0.00313137
0.0024694
0.00172305
0.000879479
9.72319e-05
0.00294775
0.00230675
0.00200089
0.00196361
0.00212686
0.0024183
0.00272509
0.0028855
0.00281105
0.00268394
0.00273423
0.00297995
0.00333931
0.00374898
0.00418712
0.00465146
0.00513897
0.00563649
0.00612008
0.00655973
0.00692617
0.00719695
0.00736001
0.00741433
0.00736793
0.00723448
0.00702958
0.00676765
0.00645936
0.00611186
0.00572842
0.00530901
0.00485095
0.00434956
0.0037984
0.00318907
0.00251046
0.0017477
0.000888799
9.787e-05
0.00348592
0.00269176
0.00223051
0.00206526
0.00213314
0.0023687
0.00268483
0.00293685
0.00296362
0.00280546
0.00273467
0.00287979
0.00319444
0.0035966
0.00404216
0.00451885
0.00502252
0.00554208
0.00605512
0.00653106
0.00693798
0.00724949
0.0074496
0.00753419
0.00750956
0.00738908
0.00718911
0.00692536
0.0066102
0.00625236
0.00585633
0.00542293
0.00495011
0.00443354
0.003867
0.00324226
0.0025483
0.00177041
0.00089733
9.84726e-05
0.00403321
0.00311634
0.00250986
0.00221479
0.00218179
0.00234763
0.00263953
0.00294002
0.0030715
0.00295734
0.00280324
0.00283832
0.0030824
0.00345802
0.00390129
0.00438559
0.00490222
0.00544068
0.00597994
0.00648925
0.00693442
0.0072854
0.00752222
0.00763746
0.00763545
0.00752901
0.00733511
0.00707047
0.00674943
0.0063822
0.00597452
0.00552813
0.00504156
0.0045109
0.00393015
0.0032912
0.00258312
0.0017913
0.000905126
9.90437e-05
0.00456898
0.00356063
0.00282561
0.002404
0.00226792
0.00235846
0.00260823
0.00292136
0.00313279
0.00309601
0.00291343
0.00285341
0.00301326
0.00334416
0.00377296
0.00425815
0.00478351
0.00533729
0.00589929
0.00643873
0.0069195
0.00730812
0.00758066
0.00772631
0.00774722
0.00765542
0.00746819
0.00720356
0.00687752
0.00650178
0.00608336
0.00562492
0.00512563
0.00458194
0.00398811
0.00333611
0.00261509
0.00181048
0.000912228
9.95865e-05
0.00507804
0.00400694
0.00316366
0.00262329
0.00238497
0.00239854
0.00259772
0.00290014
0.00316272
0.00320489
0.00303878
0.00291143
0.00298829
0.00326224
0.00366464
0.00414279
0.00467173
0.00523681
0.00581784
0.00638393
0.00689728
0.0073212
0.0076279
0.00780311
0.00784665
0.00776959
0.00758933
0.00732528
0.00699492
0.00661147
0.00618316
0.0057136
0.00520258
0.00464692
0.00404108
0.00337717
0.00264432
0.00182801
0.000918665
0.000100103
0.00554848
0.00444001
0.00350999
0.00286221
0.0025255
0.00246289
0.00260871
0.00288703
0.00317583
0.00328476
0.00315831
0.00299503
0.00300142
0.00321465
0.00358161
0.00404495
0.00457188
0.00514391
0.00574008
0.00632918
0.00687181
0.00732826
0.00766699
0.0078703
0.00793559
0.00787272
0.00769945
0.00743628
0.00710211
0.0067116
0.00627421
0.00579442
0.00527262
0.00470602
0.00408925
0.0034145
0.00267093
0.00184395
0.000924454
0.000100595
0.00596897
0.00484567
0.00385064
0.00310955
0.00268124
0.00254552
0.0026389
0.00288687
0.0031826
0.00334184
0.00326208
0.00308946
0.00304307
0.00319948
0.00352652
0.00396876
0.00448829
0.00506285
0.00567025
0.00627864
0.00684705
0.00733289
0.00770102
0.00793034
0.00801581
0.00796622
0.00779953
0.00753721
0.00719952
0.0068025
0.00635674
0.00586758
0.00533596
0.00475941
0.00413275
0.00344822
0.00269496
0.00185833
0.000929608
0.000101063
0.00632796
0.0052094
0.00417099
0.00335314
0.00284308
0.00263991
0.00268425
0.00290024
0.00319124
0.00338571
0.00334931
0.00318455
0.00310333
0.0032121
0.00349944
0.00391671
0.00442434
0.00499733
0.00561218
0.0062362
0.0068268
0.0073386
0.00773299
0.00798568
0.00808925
0.0080515
0.00789051
0.00762869
0.00728756
0.00688443
0.00643095
0.00593323
0.00539271
0.00480721
0.00417168
0.0034784
0.00271646
0.00187117
0.000934129
0.000101508
0.00661467
0.00551651
0.00445548
0.00357971
0.00300108
0.00273899
0.00273986
0.0029258
0.00320636
0.00342292
0.00342119
0.00327201
0.0031739
0.00324691
0.00349856
0.0038897
0.00438234
0.00495038
0.00556928
0.00620544
0.00681461
0.00734867
0.00776588
0.00803876
0.00815778
0.00812987
0.00797329
0.00771129
0.00736659
0.00695763
0.00649702
0.00599152
0.005443
0.0048495
0.00420609
0.00350507
0.00273545
0.00188247
0.000938014
0.000101929
0.00681948
0.00575354
0.00468886
0.00377556
0.00314481
0.00283537
0.00280037
0.0029603
0.00322834
0.00345635
0.00347999
0.00334992
0.00324933
0.00329855
0.003521
0.00388735
0.00436361
0.00492428
0.00554443
0.00618955
0.00681376
0.00736643
0.00780252
0.00809185
0.00822312
0.00820255
0.00804864
0.0077855
0.00743689
0.00702228
0.00655505
0.00604253
0.00548689
0.00488635
0.00423604
0.00352825
0.00275194
0.00189223
0.000941256
0.000102325
0.00693812
0.00591277
0.00485977
0.00392884
0.00326463
0.00292207
0.00286067
0.00300003
0.00325541
0.00348717
0.00352885
0.00341901
0.00332487
0.0033631
0.00356391
0.00390865
0.0043687
0.00492066
0.00553997
0.00619151
0.00682757
0.00739478
0.0078454
0.00814697
0.00828676
0.00827056
0.00811724
0.00785171
0.0074987
0.0070785
0.00660514
0.00608631
0.00552442
0.00491778
0.00426154
0.00354796
0.00276592
0.00190042
0.000943844
0.000102696
0.00697212
0.0059932
0.00496286
0.00403177
0.00335329
0.00299349
0.00291653
0.00304189
0.00328612
0.00351668
0.00357143
0.00348141
0.00339978
0.00343713
0.00362525
0.00395258
0.00439771
0.00494073
0.00555808
0.00621384
0.0068584
0.007436
0.00789654
0.00820572
0.00834987
0.00833469
0.00817955
0.00791019
0.00755215
0.00712638
0.00664732
0.00612291
0.00555563
0.00494383
0.00428261
0.00356419
0.00277736
0.00190702
0.000945767
0.00010304
0.0069219
0.00599531
0.0049973
0.00408128
0.003407
0.00304617
0.00296494
0.00308317
0.0033193
0.00354607
0.00360947
0.00353883
0.0034746
0.00351824
0.0037009
0.00401626
0.00444929
0.00498443
0.00559949
0.0062578
0.00690791
0.00749182
0.00795746
0.0082693
0.00841329
0.00839544
0.00823585
0.00796107
0.00759731
0.00716595
0.00668164
0.00615236
0.00558056
0.0049645
0.00429925
0.00357693
0.00278625
0.00191202
0.000947013
0.000103356
0.00679626
0.00592529
0.00496677
0.0040793
0.00342614
0.00307939
0.00300436
0.00312172
0.00335263
0.00357419
0.00364382
0.00359333
0.00355096
0.00360642
0.00378877
0.00409657
0.00452097
0.00505047
0.00566403
0.00632407
0.00697718
0.00756335
0.00802911
0.00833839
0.00847742
0.00845301
0.00828619
0.00800434
0.00763415
0.0071972
0.0067081
0.00617468
0.00559922
0.00497983
0.00431147
0.00358617
0.00279258
0.00191538
0.000947573
0.000103643
0.00661098
0.00579325
0.00488042
0.00403328
0.00341561
0.00309549
0.00303521
0.00315675
0.00338447
0.00360033
0.00367629
0.00364832
0.0036315
0.0037024
0.00388803
0.00419199
0.00461134
0.00513806
0.00575165
0.00641311
0.00706688
0.00765123
0.00811192
0.00841317
0.00854224
0.00850725
0.00833042
0.00803986
0.00766259
0.00722011
0.00672673
0.00618993
0.00561167
0.00498986
0.00431929
0.00359193
0.00279633
0.00191711
0.000947439
0.000103899
0.0063848
0.00561758
0.00475436
0.0039563
0.00338467
0.00309987
0.00306008
0.00318943
0.00341556
0.00362671
0.00371151
0.00370907
0.00371977
0.00380759
0.00399873
0.00430206
0.00472002
0.00524718
0.00586268
0.00652538
0.0071774
0.00775561
0.00820576
0.00849328
0.00860728
0.0085577
0.00836812
0.00806737
0.0076825
0.00723464
0.00673755
0.00619815
0.00561798
0.00499464
0.00432277
0.00359423
0.00279751
0.00191719
0.000946612
0.000104123
0.0061377
0.00542014
0.00460924
0.00386589
0.00334619
0.00310069
0.00308389
0.00322316
0.00344922
0.00365796
0.00375558
0.00378136
0.00381947
0.00392389
0.0041218
0.00442742
0.00484769
0.00537861
0.00599785
0.00666138
0.00730884
0.00787614
0.00830993
0.00857783
0.00867161
0.00860355
0.00839873
0.00808651
0.00769372
0.00724078
0.00674063
0.00619946
0.00561826
0.00499428
0.00432197
0.00359312
0.00279616
0.00191564
0.000945094
0.000104314
0.00589189
0.00522414
0.00446814
0.0037825
0.00331578
0.00310867
0.00311389
0.00326342
0.00349069
0.00370003
0.00381506
0.00387029
0.00393377
0.00405331
0.00425878
0.00456955
0.00499589
0.0055338
0.00615825
0.00682161
0.00746096
0.00801194
0.00842311
0.00866535
0.00873388
0.00864373
0.0084215
0.00809687
0.00769609
0.00723855
0.00673611
0.00619403
0.00561267
0.0049889
0.004317
0.00358866
0.00279231
0.00191249
0.000942899
0.000104472
0.00566738
0.00505161
0.00435442
0.00372738
0.00331047
0.0031369
0.0031596
0.00331703
0.00354631
0.0037604
0.00389653
0.00397987
0.00406508
0.00419773
0.00441161
0.00473057
0.00516678
0.00571465
0.0063451
0.00700629
0.00763299
0.00816145
0.00854331
0.0087538
0.00879233
0.00867691
0.0084356
0.00809804
0.00768952
0.00722805
0.00672416
0.00618206
0.00560142
0.0049787
0.004308
0.00358098
0.00278604
0.00190777
0.000940047
0.000104596
0.00548604
0.00492284
0.00428842
0.00371952
0.00334712
0.00320059
0.00323365
0.00339308
0.00362463
0.00384827
0.00400651
0.00411332
0.00421524
0.00435893
0.0045825
0.00491311
0.00536303
0.00592327
0.00655946
0.00721516
0.00782344
0.00832231
0.00866783
0.00884063
0.00884485
0.00870163
0.00844016
0.00808966
0.00767399
0.00720947
0.00670508
0.00616388
0.0055848
0.00496392
0.00429517
0.0035702
0.00277745
0.00190154
0.000936568
0.000104687
0.00536891
0.00485433
0.00428494
0.00377378
0.00344003
0.00331455
0.00335073
0.00350663
0.00374097
0.00397624
0.00415153
0.00427322
0.00438581
0.00453888
0.00477414
0.0051203
0.0055876
0.00616174
0.00680192
0.00744716
0.00802984
0.00849123
0.00879322
0.00892275
0.0088891
0.00871635
0.0084344
0.0080715
0.00764963
0.00718313
0.00667924
0.00613985
0.00556314
0.00494483
0.00427874
0.00355651
0.00276665
0.0018939
0.000932497
0.000104745
0.00533249
0.004858
0.00435209
0.00389883
0.00359683
0.00348434
0.00352313
0.00367436
0.00391171
0.00415328
0.00433424
0.00446028
0.00457793
0.00473983
0.00498976
0.00535575
0.0058436
0.00643173
0.00707219
0.00770005
0.00824853
0.00866393
0.00891533
0.00899674
0.00892263
0.00871962
0.0084177
0.0080435
0.00761674
0.00714946
0.00664714
0.00611044
0.00553685
0.00492178
0.00425897
0.0035401
0.0027538
0.00188492
0.000927872
0.000104772
0.00538871
0.00494189
0.00449294
0.00409626
0.00382519
0.00371495
0.00375173
0.0039001
0.00413442
0.00437391
0.00455033
0.00467295
0.00479248
0.00496439
0.00523303
0.0056233
0.00613386
0.00673407
0.00736866
0.00797009
0.00847447
0.00883505
0.00902937
0.00905892
0.00894305
0.00871022
0.00838968
0.00800587
0.0075758
0.00710908
0.00660938
0.00607619
0.0055064
0.00489516
0.00423618
0.00352123
0.00273907
0.0018747
0.000922726
0.000104767
)
;

boundaryField
{
    leftWall
    {
        type            nutkWallFunction;
        Cmu             0.09;
        kappa           0.41;
        E               9.8;
        value           nonuniform List<scalar> 0();
    }
    rightWall
    {
        type            nutkWallFunction;
        Cmu             0.09;
        kappa           0.41;
        E               9.8;
        value           nonuniform List<scalar> 
43
(
0
0
0
0
6.98484e-07
1.31308e-06
1.81217e-06
2.22337e-06
2.56799e-06
2.8609e-06
3.11525e-06
3.33876e-06
3.53619e-06
3.71204e-06
3.86996e-06
4.01289e-06
4.14325e-06
4.26291e-06
4.37344e-06
4.47614e-06
4.5721e-06
4.66219e-06
4.74709e-06
4.82734e-06
4.90334e-06
4.97537e-06
5.04357e-06
5.10804e-06
5.16877e-06
5.2257e-06
5.27874e-06
5.32774e-06
5.37253e-06
5.41294e-06
5.44881e-06
5.48e-06
5.50637e-06
5.52786e-06
5.54445e-06
5.5562e-06
5.56329e-06
5.56593e-06
5.56396e-06
)
;
    }
    lowerWall
    {
        type            nutkWallFunction;
        Cmu             0.09;
        kappa           0.41;
        E               9.8;
        value           nonuniform List<scalar> 
66
(
1.13222e-05
1.08949e-05
1.08949e-05
1.80739e-05
2.13178e-05
2.42296e-05
2.6828e-05
2.89326e-05
3.07968e-05
3.27014e-05
3.4829e-05
3.734e-05
2.7859e-05
2.4943e-05
2.85901e-05
2.59123e-05
0
1.52998e-06
3.62895e-06
5.63479e-06
7.67338e-06
9.96881e-06
1.27482e-05
1.62041e-05
2.04342e-05
2.56111e-05
0
0
0
1.63687e-08
7.66877e-08
1.19038e-07
4.50941e-07
6.96899e-07
8.85931e-07
9.76951e-07
9.89606e-07
9.40066e-07
8.41499e-07
7.05416e-07
5.42355e-07
3.63034e-07
1.82754e-07
3.49679e-08
0
1.10572e-07
0
7.38471e-08
5.53091e-08
7.82635e-08
0
0
0
6.80017e-09
0
1.69409e-08
0
0
0
0
0
0
0
0
0
0
)
;
    }
    atmosphere
    {
        type            calculated;
        value           nonuniform List<scalar> 0();
    }
    defaultFaces
    {
        type            empty;
    }
    procBoundary1to0
    {
        type            processor;
        value           nonuniform List<scalar> 
44
(
0.000100128
0.000647416
0.00115468
0.00168528
0.00223761
0.00278546
0.00330833
0.00379502
0.00424333
0.00466959
0.00514336
0.00566523
0.00622499
0.00681125
0.00740352
0.00797985
0.0085233
0.00902275
0.00947126
0.00986437
0.00935325
0.00935325
0.00972711
0.0100357
0.0102857
0.010487
0.0106479
0.010737
0.0107526
0.0106991
0.0105543
0.0103061
0.0099503
0.00949061
0.00894069
0.00832562
0.00768298
0.00706203
0.00650726
0.00607028
0.00576391
0.00557718
0.00548611
0.00545985
)
;
    }
    procBoundary1to3
    {
        type            processor;
        value           nonuniform List<scalar> 
45
(
0.00560336
0.00586737
0.00615253
0.00627513
0.0059883
0.00554424
0.0051116
0.00470876
0.00436406
0.00412515
0.00401957
0.00404354
0.00417939
0.00440186
0.00463165
0.00479639
0.00491055
0.00503088
0.0052157
0.00550811
0.00592681
0.0064604
0.00706796
0.00768764
0.00825147
0.00870092
0.00899813
0.00913005
0.00910558
0.00894822
0.00868725
0.00835035
0.0079591
0.00752751
0.00706273
0.00656665
0.00603772
0.00547231
0.0048654
0.00421071
0.00350015
0.00272264
0.00186335
0.000917093
0.000104726
)
;
    }
}


// ************************************************************************* //
