/*--------------------------------*- C++ -*----------------------------------*\
  =========                 |
  \\      /  F ield         | OpenFOAM: The Open Source CFD Toolbox
   \\    /   O peration     | Website:  https://openfoam.org
    \\  /    A nd           | Version:  9
     \\/     M anipulation  |
\*---------------------------------------------------------------------------*/
FoamFile
{
    format      ascii;
    class       volScalarField;
    location    "0.3";
    object      p;
}
// * * * * * * * * * * * * * * * * * * * * * * * * * * * * * * * * * * * * * //

dimensions      [1 -1 -2 0 0 0 0];

internalField   nonuniform List<scalar> 
1915
(
2249.43
2292.58
2176.02
2234.33
2147.02
2205.98
2138
2207.06
2128.94
2222.29
2102.81
2224.17
2045.82
2192.01
1943.72
2100.02
1778.06
1899.37
1524.74
1501.9
2.18347
2.17644
2.17057
2.1649
2.15975
2.1553
2.15255
2.15164
2.15226
2.15412
2.1567
2.15956
2.16236
2.16482
2.16677
2.16811
2.16882
2.1689
2.1684
2.16737
2.16588
2.16396
2.16177
2.15936
2.1568
2.15423
2.15168
2.14919
2.14693
2.14484
2.14292
2.14126
2.13991
2.13892
2.13816
2.13761
2.13729
2.13716
2.13714
2.137
2.13819
2.13268
2.12807
2.12173
2.11471
2.10877
2.10491
2.10315
2.10329
2.10466
2.10688
2.10953
2.11226
2.11477
2.11686
2.11839
2.1193
2.11961
2.11935
2.11859
2.11736
2.11571
2.11373
2.11153
2.10921
2.10678
2.10432
2.10193
2.09965
2.09763
2.09592
2.09445
2.0932
2.09217
2.0914
2.09084
2.09044
2.09017
2.08997
2.08973
2.09351
2.08674
2.08134
2.07488
2.06756
2.06114
2.05664
2.05426
2.05371
2.05458
2.05643
2.05887
2.06154
2.06414
2.0664
2.06817
2.06936
2.06996
2.07
2.06954
2.06862
2.06726
2.06553
2.06354
2.06138
2.05914
2.05685
2.05458
2.05241
2.05045
2.04877
2.04734
2.04613
2.04515
2.04439
2.0438
2.04332
2.04295
2.04268
2.04253
2.04918
2.04004
2.03277
2.02563
2.01818
2.01169
2.00703
2.00442
2.00363
2.00431
2.00603
2.00842
2.01114
2.01386
2.01633
2.01834
2.01979
2.02064
2.02092
2.02071
2.02004
2.01893
2.01742
2.01561
2.01361
2.01151
2.00935
2.00719
2.00507
2.00313
2.00144
2.00004
1.99889
1.99796
1.9972
1.99656
1.996
1.99554
1.99522
1.99516
2.00374
1.99208
1.98229
1.9743
1.96674
1.9604
1.95595
1.95356
1.95299
1.95387
1.95578
1.95834
1.96123
1.96415
1.96685
1.96912
1.97082
1.97187
1.97232
1.97225
1.97175
1.97083
1.96951
1.96784
1.96595
1.96395
1.96189
1.95978
1.95767
1.9557
1.95399
1.9526
1.9515
1.95062
1.94985
1.94915
1.9485
1.94795
1.94762
1.94765
1.95565
1.94158
1.92907
1.92057
1.91313
1.90722
1.90334
1.90155
1.9016
1.90306
1.90547
1.90844
1.91166
1.91486
1.91783
1.92037
1.92233
1.92359
1.92417
1.92418
1.92377
1.92297
1.92179
1.92023
1.91841
1.91645
1.91442
1.91233
1.91022
1.90822
1.90648
1.90509
1.90401
1.90314
1.90235
1.90157
1.90083
1.90021
1.8999
1.90002
1.90233
1.8869
1.87186
1.86376
1.857
1.85196
1.84904
1.84825
1.84928
1.85167
1.85491
1.85856
1.8623
1.86589
1.86917
1.87201
1.87424
1.87573
1.87644
1.8765
1.8761
1.87536
1.87425
1.87275
1.87094
1.86897
1.86693
1.86485
1.86273
1.8607
1.85893
1.85752
1.85643
1.85554
1.85469
1.85383
1.85298
1.8523
1.85202
1.85221
1.83807
1.82546
1.80882
1.80296
1.79787
1.79431
1.79283
1.79346
1.79587
1.79956
1.80396
1.80858
1.81307
1.8172
1.82086
1.82399
1.8265
1.82823
1.82911
1.82921
1.82879
1.82801
1.82689
1.82538
1.82352
1.82148
1.81941
1.81733
1.81522
1.81317
1.81135
1.80989
1.80875
1.8078
1.80688
1.8059
1.80496
1.80422
1.80397
1.80423
1.7462
1.75249
1.73776
1.73718
1.73518
1.7339
1.73444
1.73701
1.74125
1.74664
1.75255
1.75844
1.76392
1.76876
1.7729
1.77635
1.77911
1.78108
1.78213
1.7823
1.78181
1.78092
1.7797
1.77811
1.77615
1.77402
1.77188
1.76977
1.76767
1.76561
1.76373
1.76218
1.76095
1.75991
1.75888
1.7578
1.75674
1.75596
1.75574
1.75606
1.59107
1.65728
1.65852
1.6664
1.66872
1.67046
1.67366
1.67872
1.68532
1.69285
1.70065
1.70813
1.71486
1.7206
1.72532
1.72912
1.7321
1.73425
1.73547
1.73571
1.73514
1.73408
1.73269
1.73095
1.72886
1.72659
1.72435
1.7222
1.72009
1.718
1.71604
1.71437
1.71302
1.71185
1.7107
1.70949
1.70834
1.70752
1.70733
1.7077
1147.6
728.968
850.166
527.242
687.482
511.222
565.044
434.752
451.47
336.955
351.463
257.947
263.865
191.537
184.98
129.769
113.764
72.5894
50.3594
21.4251
-23.2123
-62.4598
-99.3776
-121.497
-78.5953
-18.2216
-6.51449
-5.78515
-5.96531
-6.13578
-6.25613
-6.36817
-6.47733
-6.58223
-6.68503
-6.78637
-6.88488
-6.97616
-7.046
-7.07788
-7.05604
-6.97668
-6.84625
-66.3015
-3.94061
0.228474
0.126847
10.3063
-3.80222
0.689893
0.935344
186.269
33.1058
1.30187
1.03466
232.601
76.2844
5.53188
-1.62894
198.273
86.8874
18.2782
-7.19902
158.061
79.2043
27.748
-2.15523
118.739
59.999
21.8822
0.571567
76.0435
31.9488
2.72904
-10.8297
33.1095
0.47025
-21.7535
-31.1097
-6.56331
-30.0514
-46.4421
-53.0332
-41.3222
-57.2641
-68.8171
-73.3729
-70.8041
-79.8889
-87.3059
-90.425
-96.975
-98.1145
-101.116
-103.074
-119.855
-114.32
-111.14
-111.177
-110.671
-122.205
-118.592
-116.154
-46.1603
-86.9536
-110.857
-117.82
-9.47522
-25.3398
-64.0938
-102.126
-6.18625
-7.33494
-17.4322
-55.4894
-6.08437
-6.17926
-7.44017
-20.1536
-6.27541
-6.35103
-6.46846
-7.66634
-6.41369
-6.54793
-6.62404
-6.71171
-6.52856
-6.6839
-6.80191
-6.77559
-6.63928
-6.79064
-6.90422
-6.8809
-6.74668
-6.89366
-6.98558
-6.94308
-6.85527
-7.0007
-7.08596
-7.03369
-6.96739
-7.1167
-7.20267
-7.19741
-7.08049
-7.23329
-7.30598
-7.43467
-7.19038
-7.36291
-7.46481
-7.73702
-7.27383
-7.479
-7.74287
-8.024
-7.2966
-7.47671
-8.03456
-9.03331
-7.2738
-7.43852
-7.9266
-8.93304
-7.19458
-7.31515
-7.14182
-5.48853
-7.02798
-7.11218
-6.54249
-6.53844
1.25134
1.51266
1.57399
1.59221
1.59854
1.60341
1.60973
1.61792
1.62751
1.63774
1.64785
1.65725
1.66548
1.67232
1.67777
1.68196
1.6851
1.68734
1.68866
1.68894
1.68829
1.68703
1.68542
1.68349
1.68122
1.67879
1.67642
1.67419
1.67203
1.66988
1.66782
1.666
1.66448
1.66316
1.66187
1.66055
1.65931
1.65846
1.6583
1.65872
1.36396
1.45678
1.51072
1.52206
1.52624
1.53262
1.54217
1.55415
1.56747
1.58103
1.59397
1.60566
1.61567
1.62381
1.63009
1.63472
1.63799
1.6402
1.64148
1.64174
1.64098
1.63951
1.63765
1.63549
1.63303
1.63041
1.62787
1.62551
1.62325
1.621
1.61879
1.61679
1.61508
1.61358
1.61215
1.61071
1.6094
1.60853
1.60842
1.60888
1.56733
1.50767
1.4847
1.45987
1.45209
1.45789
1.47093
1.48753
1.50544
1.52308
1.5394
1.55375
1.56579
1.57537
1.5826
1.58771
1.59105
1.59311
1.5942
1.59431
1.59339
1.59168
1.58955
1.58713
1.58445
1.58161
1.57886
1.57633
1.57393
1.57153
1.56914
1.56692
1.56499
1.5633
1.56173
1.56019
1.55881
1.55794
1.55786
1.55837
1.49398
1.65063
1.49199
1.40467
1.3746
1.37848
1.39588
1.41816
1.44164
1.46413
1.48438
1.50177
1.51605
1.52721
1.53544
1.54103
1.54441
1.5462
1.54692
1.54672
1.54553
1.54352
1.54106
1.53835
1.53541
1.53232
1.52934
1.5266
1.52401
1.52143
1.51883
1.51637
1.51419
1.5123
1.51057
1.50894
1.50752
1.50665
1.50662
1.50718
0.885077
1.6452
1.49628
1.35562
1.29614
1.29721
1.31892
1.34718
1.37679
1.40471
1.42936
1.4501
1.46677
1.47957
1.48879
1.49485
1.49822
1.49962
1.4998
1.49909
1.49747
1.49506
1.4922
1.48912
1.48585
1.48247
1.47921
1.47623
1.47343
1.47064
1.46781
1.46509
1.46265
1.46054
1.45866
1.45694
1.4555
1.45465
1.45467
1.45528
-3.86892
0.991014
1.40985
1.31096
1.23435
1.22719
1.24721
1.27767
1.31233
1.34567
1.37494
1.3992
1.41834
1.43274
1.4429
1.44933
1.45261
1.45353
1.453
1.45158
1.44935
1.44638
1.443
1.43943
1.43573
1.43197
1.42839
1.42514
1.42212
1.41911
1.41603
1.41304
1.41034
1.40801
1.40597
1.40417
1.40272
1.4019
1.40199
1.40265
-8.83379
-4.65806
0.778007
1.29334
1.22236
1.19248
1.19292
1.21436
1.25009
1.28804
1.32188
1.34965
1.37121
1.38708
1.39799
1.40465
1.40771
1.40802
1.40665
1.40433
1.40128
1.39758
1.39351
1.38932
1.38505
1.38081
1.37683
1.37326
1.36999
1.36676
1.36345
1.36019
1.35722
1.35466
1.35248
1.35061
1.34915
1.34838
1.34854
1.34926
-15.9477
-15.0436
-3.41059
0.874024
1.27397
1.19814
1.15976
1.16015
1.19148
1.23283
1.27104
1.30217
1.3259
1.34295
1.35433
1.36095
1.3636
1.36318
1.3608
1.3574
1.35332
1.3487
1.3438
1.33883
1.33386
1.329
1.3245
1.32054
1.31699
1.31353
1.30999
1.30648
1.30325
1.30047
1.29813
1.29621
1.29476
1.29405
1.29428
1.29506
-30.9031
-27.0193
-13.7871
-0.735659
1.0384
1.16746
1.1183
1.11095
1.13845
1.18164
1.2235
1.25754
1.28296
1.30072
1.31212
1.31835
1.32032
1.31895
1.31541
1.31075
1.30546
1.29975
1.29387
1.288
1.28219
1.27656
1.27142
1.26698
1.26308
1.25936
1.25559
1.25184
1.24836
1.24537
1.24291
1.24093
1.2395
1.23886
1.23918
1.24002
-50.0559
-41.2154
-28.2585
-7.84484
-0.10245
1.03202
1.0916
1.07809
1.09774
1.13734
1.18054
1.21649
1.24286
1.26068
1.27155
1.27693
1.27786
1.27527
1.27035
1.26423
1.25755
1.25061
1.24364
1.23678
1.23003
1.22353
1.21763
1.21258
1.20825
1.20423
1.2002
1.19622
1.19252
1.18934
1.18675
1.18473
1.18334
1.18277
1.18318
1.18409
-69.359
-57.4432
-41.1429
-21.4215
-3.05475
0.656924
1.12328
1.07248
1.07178
1.10242
1.14325
1.17953
1.20594
1.22307
1.23278
1.23675
1.23618
1.23204
1.22548
1.21769
1.20943
1.20108
1.19292
1.18502
1.17729
1.16986
1.16312
1.15738
1.15252
1.14811
1.1438
1.13957
1.13565
1.13229
1.1296
1.12756
1.12621
1.12573
1.12622
1.12722
-86.626
-74.4237
-55.9146
-35.9767
-9.93909
-0.1685
1.01209
1.06518
1.05478
1.0773
1.11256
1.14703
1.17237
1.18799
1.19583
1.1978
1.19525
1.18916
1.18068
1.17099
1.16091
1.15097
1.14151
1.13251
1.12381
1.11546
1.10785
1.10136
1.09589
1.09102
1.08636
1.08185
1.07771
1.07419
1.07141
1.06936
1.06806
1.06766
1.06826
1.06933
-100.281
-89.5657
-71.2425
-49.6457
-23.6525
-2.8679
0.54374
1.0693
1.05445
1.06324
1.08952
1.11932
1.14214
1.15536
1.16062
1.16001
1.15498
1.14658
1.13587
1.12402
1.1119
1.10017
1.08924
1.07907
1.06938
1.06013
1.05169
1.04444
1.03832
1.03292
1.02785
1.02302
1.01865
1.01498
1.01212
1.01007
1.00883
1.00853
1.00922
1.01038
-109.542
-101.21
-84.6647
-62.6905
-38.3896
-8.21627
-0.0466392
1.0083
1.05974
1.05937
1.07414
1.09635
1.11499
1.12489
1.12689
1.12314
1.1152
1.10411
1.09093
1.07671
1.06235
1.04862
1.03604
1.02457
1.01383
1.0037
0.994482
0.986504
0.979733
0.973772
0.968241
0.963063
0.958433
0.954597
0.951665
0.949624
0.948452
0.948243
0.949041
0.950287
-114.799
-108.976
-95.2849
-74.7579
-50.6324
-17.3679
-1.17932
0.785229
1.07131
1.06373
1.06412
1.07736
1.09045
1.0961
1.09421
1.08682
1.07555
1.06148
1.04561
1.02888
1.01216
0.99629
0.981884
0.96894
0.957059
0.946031
0.936062
0.927418
0.920025
0.913496
0.907478
0.901913
0.897006
0.892998
0.889994
0.887963
0.886857
0.886745
0.887648
0.888983
-117.703
-113.381
-102.634
-84.3633
-61.3042
-29.0165
-3.60506
0.433414
1.07514
1.07031
1.0581
1.06191
1.06798
1.06835
1.06195
1.05048
1.03555
1.01826
0.999547
0.980229
0.961097
0.943035
0.926706
0.912157
0.899006
0.887014
0.876304
0.867037
0.859066
0.851989
0.845479
0.839513
0.834314
0.830126
0.827045
0.82502
0.823978
0.823961
0.824967
0.826391
-117.851
-115.886
-107.023
-91.1161
-69.5493
-39.9767
-7.23814
0.114252
1.03957
1.07185
1.05491
1.04898
1.04681
1.04088
1.02936
1.01345
0.994615
0.973936
0.952272
0.930323
0.90881
0.888597
0.870345
0.854124
0.839604
0.826574
0.815104
0.805239
0.79673
0.789138
0.782152
0.775788
0.770292
0.765918
0.762754
0.760729
0.759743
0.759815
0.760923
0.762435
-104.079
-116.452
-109.556
-95.2742
-75.1687
-48.0575
-11.128
-0.234107
0.92899
1.07258
1.05607
1.03815
1.02589
1.01268
0.995552
0.974979
0.95213
0.927992
0.903331
0.878748
0.854911
0.83264
0.812537
0.794656
0.778731
0.76462
0.75237
0.741918
0.732901
0.724827
0.717393
0.710648
0.704865
0.700307
0.697054
0.69502
0.694082
0.694234
0.695437
0.697035
-65.0693
-109.204
-110.754
-97.4192
-78.6426
-52.9636
-14.8396
-0.832577
0.784317
1.0713
1.05808
1.02609
1.00319
0.98232
0.959454
0.93422
0.907435
0.879917
0.852312
0.825141
0.799059
0.774842
0.752991
0.733515
0.716212
0.701025
0.687997
0.676967
0.667466
0.658943
0.651097
0.644001
0.637952
0.633219
0.629876
0.627824
0.626919
0.627141
0.628432
0.630112
-24.5677
-91.7528
-110.646
-98.3237
-79.9754
-55.6681
-18.0984
-1.60567
0.613753
1.06037
1.05244
1.00863
0.976463
0.948336
0.919934
0.890299
0.859838
0.829171
0.798796
0.769177
0.740977
0.714933
0.691444
0.670467
0.651858
0.635642
0.621863
0.610278
0.600317
0.591378
0.583159
0.575752
0.569467
0.564575
0.561145
0.559066
0.558182
0.55846
0.55983
0.561586
-10.0702
-63.656
-106.854
-98.0795
-79.0656
-55.5975
-19.6696
-2.25144
0.548935
1.0542
1.03799
0.984209
0.944247
0.909504
0.875959
0.842373
0.808651
0.775186
0.742325
0.71049
0.680371
0.652665
0.627669
0.605301
0.585484
0.568318
0.553841
0.541733
0.531342
0.522024
0.513478
0.505805
0.499323
0.494295
0.490784
0.488671
0.487795
0.488117
0.489555
0.491381
-7.45459
-35.1753
-98.8411
-96.1673
-76.0321
-52.983
-18.9889
-2.361
0.618578
1.05651
1.01587
0.952154
0.905127
0.864538
0.826614
0.789706
0.753262
0.71742
0.682409
0.648665
0.616908
0.587769
0.561439
0.537823
0.516923
0.498908
0.483805
0.47122
0.460433
0.450777
0.441953
0.434068
0.427433
0.422297
0.418716
0.416565
0.415686
0.416039
0.417532
0.419419
-7.41499
-25.8414
-90.0747
-91.7166
-70.634
-47.4667
-16.1472
-1.97368
0.675782
1.02932
0.976118
0.908526
0.856476
0.811844
0.770927
0.731637
0.693146
0.655408
0.618627
0.583327
0.55026
0.519958
0.492509
0.467827
0.446005
0.427273
0.411632
0.398625
0.387485
0.377537
0.36849
0.360451
0.353711
0.348501
0.344863
0.342675
0.341783
0.342154
0.343691
0.345629
-7.49146
-21.122
-80.23
-83.5538
-62.1544
-38.3945
-11.3657
-1.33796
0.748773
0.957545
0.911094
0.84917
0.796301
0.750333
0.708202
0.667698
0.627946
0.588849
0.55071
0.514221
0.480167
0.448973
0.42064
0.39511
0.372563
0.353271
0.3372
0.323838
0.312397
0.302211
0.293002
0.284869
0.278077
0.272829
0.269153
0.26693
0.266018
0.266396
0.267964
0.269942
-7.57936
-20.6893
-72.6412
-72.1775
-50.5828
-26.1384
-5.93692
-0.657446
0.819525
0.863576
0.826603
0.774954
0.725123
0.68028
0.638489
0.597812
0.557521
0.517584
0.478508
0.441192
0.406451
0.374617
0.345634
0.319491
0.296442
0.276767
0.260389
0.246753
0.235073
0.224711
0.215408
0.207247
0.200459
0.19521
0.191515
0.189263
0.188328
0.188703
0.190289
0.192296
-7.72034
-23.3554
-65.545
-57.9995
-36.8396
-13.2588
-1.99312
0.0503036
0.801223
0.767241
0.732743
0.690221
0.645274
0.602935
0.562389
0.522217
0.481886
0.441531
0.401917
0.364128
0.328983
0.296742
0.267339
0.240828
0.21751
0.19764
0.181085
0.167267
0.155423
0.144961
0.135638
0.127519
0.120788
0.115576
0.111884
0.109611
0.108653
0.109019
0.11061
0.112635
-8.4788
-29.3921
-55.5948
-41.2913
-21.0953
-3.46122
-0.398498
0.465892
0.721288
0.67715
0.637417
0.599684
0.559327
0.519619
0.48059
0.441224
0.401126
0.360664
0.320865
0.282928
0.247644
0.215226
0.185642
0.159015
0.135659
0.11578
0.0991836
0.0852844
0.0733675
0.0628923
0.0536339
0.0456274
0.0390087
0.0338705
0.0302037
0.0279209
0.0269413
0.0272929
0.0288794
0.0309087
-10.2641
-34.597
-39.5752
-20.9522
-3.16861
2.30586
0.271372
0.498217
0.621046
0.585706
0.541458
0.505471
0.468462
0.431065
0.39355
0.355051
0.315319
0.274992
0.235306
0.197505
0.162327
0.129968
0.100457
0.0739717
0.0508068
0.0310943
0.01459
0.0007221
-0.0111621
-0.0215484
-0.0306524
-0.0384742
-0.0449288
-0.0499584
-0.0535778
-0.0558569
-0.0568515
-0.0565162
-0.0549445
-0.0529225
-14.9395
-35.7685
-24.2538
-4.65187
6.77967
2.83973
0.477697
0.430388
0.498381
0.477271
0.439222
0.406446
0.372477
0.337446
0.30146
0.263817
0.224534
0.184539
0.145217
0.107794
0.0729523
0.0409024
0.0117333
-0.014354
-0.0371155
-0.0564975
-0.0727772
-0.08649
-0.0982188
-0.108401
-0.117254
-0.12482
-0.131062
-0.135951
-0.139501
-0.141761
-0.142761
-0.142442
-0.140893
-0.138891
-19.2019
-25.3737
-13.3955
-0.296924
2.18583
0.230361
0.158453
0.272892
0.350704
0.3528
0.329239
0.301945
0.271542
0.238974
0.204429
0.167589
0.128823
0.0893217
0.050564
0.0137352
-0.0205279
-0.051996
-0.0805457
-0.105992
-0.128162
-0.147066
-0.162987
-0.176406
-0.187837
-0.197688
-0.206191
-0.213433
-0.21942
-0.22414
-0.227599
-0.229821
-0.230815
-0.230508
-0.22899
-0.22702
-11.9261
-10.7001
-2.06408
5.39912
3.54887
0.90103
0.187164
0.155348
0.219413
0.234139
0.218307
0.194352
0.166631
0.135983
0.102554
0.0664048
0.0282094
-0.0106675
-0.0486931
-0.0847122
-0.118124
-0.148709
-0.176363
-0.200956
-0.22238
-0.240675
-0.256096
-0.26906
-0.280034
-0.289413
-0.297466
-0.304323
-0.310019
-0.314547
-0.317894
-0.320058
-0.321028
-0.320728
-0.319249
-0.317324
-3.19965
-1.19381
2.49357
6.01899
4.30809
1.12582
0.274372
0.115831
0.121642
0.124098
0.107106
0.0837707
0.0576022
0.0282929
-0.00427302
-0.0398006
-0.0773697
-0.115491
-0.152596
-0.187549
-0.219796
-0.249179
-0.275673
-0.299224
-0.319766
-0.337326
-0.352098
-0.364443
-0.374796
-0.383575
-0.391089
-0.39751
-0.402888
-0.4072
-0.410408
-0.412487
-0.413412
-0.413111
-0.411676
-0.40981
-0.139882
4.71806
4.33241
5.14774
4.05382
1.18294
0.15847
-0.0239308
-0.00979184
0.000506422
-0.0120071
-0.0327685
-0.0568726
-0.0846731
-0.116301
-0.151167
-0.188036
-0.225235
-0.261163
-0.294735
-0.32548
-0.353347
-0.378414
-0.40071
-0.420192
-0.436855
-0.450833
-0.46243
-0.47207
-0.480183
-0.487115
-0.493066
-0.498091
-0.50215
-0.505179
-0.507134
-0.507989
-0.507675
-0.506282
-0.504481
)
;

boundaryField
{
    leftWall
    {
        type            calculated;
        value           nonuniform List<scalar> 0();
    }
    rightWall
    {
        type            calculated;
        value           nonuniform List<scalar> 
43
(
2.137
2.08973
2.04253
1.99516
1.94765
1.90002
1.85221
1.80423
1.75606
1.7077
1.65872
1.60888
1.55837
1.50718
1.45528
1.40265
1.34926
1.29506
1.24002
1.18409
1.12722
1.06933
1.01038
0.950287
0.888983
0.826391
0.762435
0.697035
0.630112
0.561586
0.491381
0.419419
0.345629
0.269942
0.192296
0.112635
0.0309087
-0.0529225
-0.138891
-0.22702
-0.317324
-0.40981
-0.504481
)
;
    }
    lowerWall
    {
        type            calculated;
        value           nonuniform List<scalar> 
66
(
2270.44
2315.04
2292.58
2234.33
2205.98
2207.06
2222.29
2224.17
2192.01
2100.02
1899.37
1501.9
-52.0657
-3.91664
0.25244
0.150813
2.18347
2.13819
2.09351
2.04918
2.00374
1.95565
1.90233
1.83807
1.7462
1.59107
2.20701
2.19999
2.19411
2.18845
2.1833
2.17884
2.1761
2.17519
2.17581
2.17767
2.18024
2.1831
2.1859
2.18836
2.19031
2.19166
2.19236
2.19244
2.19194
2.19091
2.18942
2.1875
2.18532
2.1829
2.18034
2.17777
2.17522
2.17273
2.17047
2.16838
2.16647
2.16481
2.16346
2.16246
2.1617
2.16115
2.16083
2.16071
2.16068
2.16054
)
;
    }
    atmosphere
    {
        type            calculated;
        value           nonuniform List<scalar> 0();
    }
    defaultFaces
    {
        type            empty;
    }
    procBoundary1to0
    {
        type            processor;
        value           nonuniform List<scalar> 
44
(
2228.1
2185.45
2151.42
2119.33
2078.91
2021.8
1939.89
1824.48
1666.41
1461.51
1218.67
993.364
821.315
678.721
549.225
432.611
328.737
235.574
151.812
76.8526
-5.71135
-5.71135
-57.4348
-105.113
-110.809
-42.1607
-8.07491
-5.65988
-5.64982
-5.8528
-5.98673
-6.09729
-6.20574
-6.30933
-6.40643
-6.4979
-6.58481
-6.66699
-6.7407
-6.79581
-6.81905
-6.8019
-6.73863
-6.6343
)
;
    }
    procBoundary1to3
    {
        type            processor;
        value           nonuniform List<scalar> 
45
(
-6.68231
-6.81368
-6.87125
-6.6123
-6.57631
1.11991
7.78508
5.7297
4.33965
5.45612
2.2502
-0.105463
-0.186895
-0.160527
-0.135699
-0.138692
-0.154858
-0.176533
-0.202877
-0.233624
-0.267782
-0.303793
-0.339822
-0.374268
-0.406145
-0.435092
-0.461162
-0.48453
-0.505295
-0.523456
-0.539009
-0.552051
-0.562841
-0.571765
-0.579243
-0.585614
-0.591079
-0.595701
-0.599444
-0.60224
-0.604031
-0.604784
-0.604436
-0.603079
-0.601341
)
;
    }
}


// ************************************************************************* //
