/*--------------------------------*- C++ -*----------------------------------*\
  =========                 |
  \\      /  F ield         | OpenFOAM: The Open Source CFD Toolbox
   \\    /   O peration     | Website:  https://openfoam.org
    \\  /    A nd           | Version:  9
     \\/     M anipulation  |
\*---------------------------------------------------------------------------*/
FoamFile
{
    format      ascii;
    class       volScalarField;
    location    "250";
    object      epsilon;
}
// * * * * * * * * * * * * * * * * * * * * * * * * * * * * * * * * * * * * * //

dimensions      [0 2 -3 0 0 0 0];

internalField   nonuniform List<scalar> 
12225
(
285.524
270.702
257.921
243.804
232.47
223.075
216.824
212.694
212.74
213.961
217.23
220.914
228.066
232.736
241.41
246.115
255.931
257.78
52.4937
91.8796
106.976
114.744
124.846
136.775
152.691
169.894
191.099
210.92
235.199
255.465
280.991
299.308
324.588
339.457
363.283
378.527
20.5289
34.8713
44.6765
50.4675
55.3967
59.6052
64.6647
69.6405
76.3149
83.1799
91.4282
99.3101
108.156
116.917
125.51
135.252
142.436
153.807
16.0022
19.4861
24.082
27.5631
30.4969
32.8688
35.155
37.2929
39.5015
41.9169
44.334
47.1998
49.6762
53.034
55.4002
59.2334
61.3565
65.6482
15.0385
15.7123
17.3993
19.0783
20.6393
22.0258
23.2459
24.4309
25.4436
26.5942
27.5225
28.7569
29.6304
30.983
31.8084
33.2666
34.0367
35.6536
14.7897
14.8256
15.2495
15.8676
16.5677
17.2869
17.9236
18.5841
19.1189
19.7337
20.1929
20.7983
21.2077
21.8214
22.196
22.8267
23.1579
23.8633
14.7658
14.6146
14.6409
14.7257
14.9351
15.2199
15.4915
15.8088
16.0708
16.3824
16.618
16.9199
17.1305
17.4265
17.6147
17.9131
18.0697
18.4095
14.7687
14.5866
14.466
14.3801
14.3677
14.3896
14.4394
14.5334
14.6185
14.7366
14.8308
14.9563
15.0475
15.176
15.2603
15.3927
15.4619
15.6224
14.768
14.591
14.4349
14.2963
14.185
14.1044
14.0399
14.0066
13.9814
13.9785
13.9808
13.9917
14.0036
14.0298
14.046
14.0809
14.0965
14.1509
14.7665
14.594
14.432
14.282
14.143
14.0219
13.9115
13.8193
13.737
13.6698
13.6102
13.5633
13.5181
13.4872
13.4515
13.4343
13.4017
13.4008
14.7659
14.5945
14.4322
14.2803
14.1361
14.0032
13.8782
13.7644
13.6582
13.5629
13.4736
13.3952
13.3198
13.2561
13.1915
13.1408
13.0838
13.0451
14.7657
14.5943
14.4321
14.2798
14.1353
13.9998
13.8715
13.7518
13.6385
13.5337
13.4341
13.343
13.2557
13.1771
13.1003
13.0328
12.9647
12.9074
14.7657
14.5941
14.432
14.2794
14.1349
13.9989
13.8699
13.7485
13.6332
13.525
13.422
13.3257
13.2338
13.1484
13.0663
12.9906
12.9172
12.8502
14.7657
14.5939
14.4318
14.279
14.1346
13.9983
13.8691
13.7472
13.6315
13.5223
13.4184
13.3204
13.227
13.139
13.055
12.9759
12.9002
12.8291
14.7657
14.5938
14.4317
14.2787
14.1342
13.9977
13.8686
13.7464
13.6307
13.5211
13.4171
13.3185
13.2248
13.136
13.0516
12.9714
12.8951
12.8227
14.7657
14.5937
14.4315
14.2785
14.1339
13.9973
13.8681
13.7458
13.63
13.5202
13.4161
13.3174
13.2236
13.1346
13.05
12.9696
12.8931
12.8204
14.7657
14.5937
14.4315
14.2783
14.1337
13.997
13.8677
13.7453
13.6294
13.5195
13.4154
13.3165
13.2227
13.1336
13.0489
12.9684
12.8918
12.819
14.7657
14.5937
14.4314
14.2782
14.1335
13.9968
13.8674
13.7449
13.629
13.5191
13.4148
13.3159
13.222
13.1328
13.0481
12.9675
12.8909
12.8179
14.7657
14.5937
14.4314
14.2782
14.1335
13.9967
13.8673
13.7448
13.6288
13.5189
13.4146
13.3156
13.2217
13.1325
13.0477
12.9671
12.8904
12.8174
14.7657
14.5937
14.4314
14.2782
14.1336
13.9968
13.8674
13.745
13.629
13.519
13.4148
13.3158
13.2219
13.1327
13.0479
12.9673
12.8906
12.8177
14.7657
14.5937
14.4315
14.2784
14.1337
13.997
13.8677
13.7453
13.6294
13.5195
13.4154
13.3166
13.2229
13.1338
13.0493
12.9689
12.8926
12.8199
14.7657
14.5937
14.4316
14.2785
14.1341
13.9974
13.8685
13.7464
13.6312
13.522
13.419
13.3213
13.2293
13.1418
13.0594
12.981
12.9073
12.8368
14.7659
14.5937
14.4318
14.2788
14.1353
14.0002
13.8742
13.756
13.6463
13.5435
13.4485
13.3591
13.277
13.1992
13.1282
13.0601
12.9988
12.9386
14.7661
14.5928
14.4329
14.2844
14.1515
14.0321
13.9289
13.8375
13.7593
13.6893
13.6306
13.5769
13.5328
13.4905
13.4574
13.423
13.3988
13.3693
14.7641
14.5936
14.461
14.3603
14.3029
14.2767
14.2796
14.294
14.3202
14.3529
14.3959
14.4345
14.4824
14.5217
14.572
14.609
14.6617
14.6939
14.757
14.6921
14.7579
14.9172
15.1828
15.4611
15.7475
16.0121
16.2723
16.5038
16.7361
16.9387
17.1508
17.331
17.531
17.6938
17.889
18.0361
14.9575
15.4344
16.5693
17.6884
18.7053
19.5678
20.3373
20.9969
21.6195
22.1662
22.719
23.211
23.7402
24.2046
24.733
25.183
25.7254
26.1665
16.2579
20.9389
25.015
27.7588
29.7844
31.3586
32.7768
34.0585
35.3595
36.6166
37.9759
39.2978
40.7623
42.1467
43.7189
45.175
46.8853
48.3601
29.9427
47.2251
54.8706
58.6737
61.6141
64.4325
67.5801
70.98
74.7393
78.7158
82.9874
87.3472
91.9085
96.4543
101.105
105.628
110.181
114.583
165.79
160.073
154.899
149.564
144.479
139.678
135.613
132.11
129.27
126.973
125.32
124.045
123.339
122.83
122.826
122.983
123.27
123.827
0.206261
0.253089
0.467374
0.660972
0.857373
1.07813
1.33219
1.62695
1.96328
2.33588
2.73638
3.15582
3.58632
4.02126
4.45535
4.8843
5.30448
5.71287
6.10645
6.48249
6.83766
7.16859
7.47082
7.73971
7.96964
8.15538
8.2919
8.37619
8.39671
8.36782
8.27098
8.17141
8.09422
8.33754
8.69621
9.01345
9.17246
9.13659
40.82
43.2171
44.6449
42.8275
47.0863
50.2694
53.7457
57.4794
61.299
65.3403
69.5235
73.8956
78.436
83.1603
88.0653
93.1578
98.4393
103.914
109.585
115.454
121.525
127.8
134.28
140.969
147.865
154.972
162.288
169.814
177.549
185.492
193.641
201.994
210.547
219.298
228.242
237.374
246.689
256.18
265.839
275.661
285.636
295.756
306.01
316.388
326.878
337.47
348.147
358.898
369.707
380.557
391.428
402.302
413.154
423.959
434.69
445.32
455.824
466.193
476.449
486.669
496.699
506.599
516.325
525.879
535.234
544.378
553.293
561.963
570.372
578.503
586.343
593.875
601.087
607.964
614.494
620.664
626.465
631.886
636.917
641.55
645.78
649.598
653.001
655.985
658.549
660.688
662.402
663.686
664.525
665.06
665.201
664.835
663.968
662.714
661.15
659.166
656.831
654.13
651.078
647.688
643.973
639.951
635.64
631.074
626.248
621.171
615.861
610.329
604.591
598.66
592.551
586.275
579.848
573.278
566.581
559.765
552.843
545.822
538.715
531.526
524.267
516.946
509.576
502.179
494.892
489.105
486.311
483.996
481.685
479.322
476.895
474.394
471.81
469.126
466.325
463.374
460.224
456.782
452.87
448.062
441.489
414.543
1.02795
0.631508
0.638515
0.723641
0.854676
1.02395
1.23182
1.47813
1.76033
2.07359
2.41196
2.76957
3.14126
3.52281
3.91095
4.30317
4.69757
5.09278
5.48779
5.88181
6.27412
6.66395
7.05019
7.43138
7.80533
8.16878
8.54259
8.94827
9.39576
9.9167
10.5555
11.3691
12.364
13.496
14.499
16.426
18.6087
21.0051
24.1672
25.5099
26.8063
27.8283
29.895
31.5866
33.3739
35.2236
37.1263
39.0985
41.1338
43.239
45.4133
47.6593
49.9778
52.3703
54.8376
57.3807
60.0003
62.6971
65.4716
68.3242
71.2551
74.2644
77.3521
80.5178
83.7612
87.0817
90.4785
93.9507
97.497
101.116
104.807
108.566
112.394
116.286
120.241
124.256
128.328
132.455
136.631
140.855
145.122
149.427
153.766
158.134
162.527
166.938
171.36
175.789
180.215
184.633
189.033
193.409
197.753
202.061
206.336
210.587
214.842
219.162
223.407
227.602
231.732
235.794
239.781
243.686
247.503
251.225
254.846
258.36
261.761
265.043
268.201
271.229
274.122
276.875
279.483
281.943
284.251
286.402
288.395
290.225
291.892
293.393
294.727
295.892
296.888
297.716
298.377
298.883
299.215
299.356
299.317
299.106
298.765
298.261
297.612
296.812
295.866
294.78
293.557
292.205
290.73
289.139
287.435
285.622
283.706
281.692
279.586
277.394
275.12
272.769
270.348
267.861
265.312
262.705
260.046
257.338
254.585
251.79
248.957
246.09
243.195
240.285
237.413
234.853
232.876
231.058
229.256
227.439
225.595
223.721
221.814
219.869
217.885
215.856
213.776
211.645
209.443
207.256
205.076
201.3
2.16726
1.11096
0.998691
1.03875
1.14351
1.29597
1.49107
1.72576
1.99627
2.29763
2.62438
2.97131
3.3341
3.70947
4.09519
4.48992
4.89311
5.3048
5.7256
6.15656
6.5991
7.05505
7.5268
8.01781
8.53366
9.08414
9.66729
10.286
10.959
11.7016
12.5257
13.4355
14.4214
15.4893
16.6548
17.9607
19.3574
20.7927
22.1895
23.422
24.7014
25.9734
27.4195
28.8645
30.3611
31.9091
33.5094
35.1641
36.8732
38.6379
40.4586
42.3362
44.2711
46.2642
48.3157
50.4264
52.5965
54.8264
57.1165
59.4669
61.8776
64.3488
66.8802
69.4718
72.123
74.8336
77.6029
80.4303
83.315
86.2557
89.2512
92.3002
95.4013
98.5528
101.753
105
108.291
111.624
114.996
118.406
121.849
125.323
128.824
132.349
135.894
139.455
143.029
146.609
150.193
153.775
157.352
160.921
164.477
168.021
171.554
175.078
178.599
182.106
185.572
188.994
192.368
195.687
198.946
202.14
205.264
208.313
211.28
214.161
216.952
219.647
222.241
224.731
227.111
229.378
231.528
233.558
235.463
237.242
238.892
240.409
241.794
243.043
244.156
245.132
245.97
246.671
247.235
247.665
247.953
248.08
248.079
247.933
247.673
247.283
246.771
246.135
245.38
244.51
243.527
242.438
241.246
239.957
238.573
237.1
235.54
233.9
232.184
230.395
228.538
226.617
224.637
222.602
220.515
218.38
216.2
213.979
211.72
209.426
207.099
204.744
202.366
199.974
197.597
195.335
193.275
191.298
189.339
187.373
185.391
183.389
181.366
179.323
177.259
175.175
173.075
170.973
168.887
166.932
165.174
163.448
3.44367
1.64405
1.40257
1.40015
1.49003
1.63686
1.82923
2.06166
2.32976
2.62892
2.95443
3.30185
3.66753
4.04878
4.44396
4.85237
5.27412
5.71001
6.1614
6.6301
7.11829
7.62838
8.16294
8.72469
9.31645
9.94087
10.5994
11.295
12.0329
12.8181
13.6537
14.5397
15.4765
16.4661
17.5133
18.63
19.7901
20.985
22.1945
23.4138
24.6726
25.979
27.335
28.7297
30.1697
31.6571
33.1936
34.7806
36.4189
38.1096
39.8532
41.6504
43.5021
45.4087
47.3707
49.3887
51.4631
53.5945
55.7831
58.0294
60.3335
62.6956
65.1157
67.5939
70.1301
72.7239
75.3751
78.0831
80.8472
83.6668
86.5408
89.4683
92.4479
95.4782
98.5578
101.685
104.857
108.073
111.33
114.626
117.958
121.323
124.717
128.139
131.584
135.049
138.53
142.023
145.525
149.031
152.539
156.046
159.547
163.042
166.528
170.004
173.465
176.9
180.298
183.654
186.963
190.219
193.417
196.551
199.616
202.606
205.516
208.342
211.077
213.718
216.258
218.695
221.023
223.238
225.337
227.316
229.171
230.9
232.5
233.968
235.304
236.504
237.569
238.496
239.287
239.94
240.457
240.838
241.07
241.151
241.104
240.926
240.622
240.19
239.635
238.958
238.162
237.251
236.229
235.101
233.871
232.543
231.122
229.612
228.017
226.342
224.591
222.77
220.881
218.931
216.921
214.858
212.745
210.585
208.381
206.139
203.859
201.546
199.203
196.833
194.44
192.033
189.63
187.277
185.013
182.797
180.594
178.389
176.174
173.946
171.705
169.45
167.179
164.903
162.63
160.382
158.189
156.158
154.356
152.796
4.71057
2.18447
1.81043
1.7664
1.83876
1.97813
2.1668
2.3967
2.66264
2.96012
3.28496
3.63331
4.00199
4.38866
4.79189
5.21112
5.64655
6.09903
6.56993
7.06098
7.57418
8.11164
8.67545
9.26757
9.88967
10.5431
11.229
11.9485
12.7032
13.4949
14.3257
15.1984
16.1144
17.0757
18.0842
19.1401
20.2389
21.3767
22.559
23.775
25.0282
26.3222
27.6689
29.0619
30.502
31.9903
33.5281
35.1168
36.7574
38.451
40.1985
42.001
43.8594
45.7747
47.7472
49.7777
51.8669
54.0155
56.224
58.4931
60.8233
63.215
65.6686
68.1843
70.7622
73.4023
76.1047
78.8689
81.6947
84.5814
87.5284
90.5348
93.5996
96.7214
99.8989
103.13
106.414
109.748
113.129
116.556
120.026
123.535
127.081
130.661
134.27
137.906
141.563
145.24
148.931
152.632
156.34
160.05
163.759
167.462
171.154
174.829
178.482
182.105
185.69
189.232
192.724
196.16
199.535
202.842
206.075
209.229
212.297
215.274
218.155
220.933
223.605
226.164
228.606
230.927
233.122
235.188
237.12
238.916
240.573
242.088
243.459
244.685
245.764
246.695
247.479
248.114
248.601
248.941
249.113
249.142
249.027
248.773
248.381
247.852
247.19
246.397
245.477
244.435
243.274
241.999
240.616
239.128
237.541
235.859
234.088
232.233
230.298
228.288
226.208
224.064
221.859
219.598
217.285
214.926
212.522
210.079
207.599
205.087
202.544
199.976
197.385
194.78
192.172
189.586
187.042
184.526
182.02
179.515
177.005
174.489
171.967
169.442
166.917
164.4
161.903
159.451
157.078
154.88
152.906
151.15
5.91146
2.7058
2.20206
2.11648
2.16976
2.29978
2.48284
2.70837
2.97023
3.26386
3.58538
3.93141
4.29912
4.68641
5.09194
5.5151
5.956
6.41529
6.89408
7.39382
7.9162
8.46301
9.03602
9.6369
10.2671
10.928
11.6207
12.3462
13.1058
13.901
14.7339
15.6065
16.5207
17.478
18.4795
19.5254
20.6153
21.7491
22.9273
24.1483
25.4136
26.7252
28.0858
29.4955
30.9552
32.4661
34.0294
35.6465
37.3185
39.0467
40.8324
42.6765
44.5802
46.5445
48.5708
50.6603
52.8142
55.0333
57.3189
59.6716
62.0925
64.5823
67.1417
69.7712
72.4713
75.2422
78.0842
80.9973
83.9813
87.0358
90.1603
93.354
96.6159
99.9449
103.34
106.798
110.319
113.899
117.537
121.229
124.973
128.766
132.604
136.483
140.4
144.35
148.33
152.334
156.357
160.396
164.446
168.5
172.553
176.601
180.636
184.652
188.641
192.598
196.513
200.381
204.194
207.947
211.631
215.24
218.768
222.207
225.551
228.794
231.929
234.951
237.853
240.629
243.275
245.786
248.155
250.381
252.457
254.381
256.15
257.76
259.209
260.497
261.62
262.578
263.372
264
264.465
264.756
264.87
264.83
264.63
264.274
263.763
263.102
262.292
261.338
260.244
259.015
257.655
256.17
254.565
252.846
251.018
249.087
247.059
244.938
242.732
240.446
238.084
235.654
233.159
230.605
227.997
225.34
222.638
219.895
217.116
214.305
211.464
208.598
205.712
202.81
199.903
197.005
194.128
191.269
188.418
185.571
182.726
179.881
177.039
174.203
171.378
168.574
165.805
163.097
160.487
158.054
155.829
153.75
7.00718
3.18954
2.56271
2.43593
2.46894
2.58782
2.76321
2.98215
3.2375
3.5245
3.83944
4.17925
4.54143
4.9241
5.326
5.74654
6.18571
6.64401
7.12237
7.62202
8.14446
8.69129
9.26418
9.86476
10.4946
11.1551
11.8476
12.5736
13.3343
14.1315
14.9668
15.8421
16.759
17.7188
18.7226
19.7711
20.8646
22.0041
23.1903
24.4237
25.7055
27.0372
28.4202
29.8558
31.3453
32.8901
34.4916
36.1514
37.8709
39.6518
41.4955
43.4036
45.3776
47.4192
49.5298
51.711
53.9645
56.2915
58.6936
61.1721
63.7281
66.363
69.0777
71.8731
74.7501
77.7093
80.7511
83.8757
87.0833
90.3736
93.7463
97.2006
100.736
104.35
108.043
111.811
115.654
119.569
123.553
127.602
131.714
135.886
140.112
144.389
148.713
153.077
157.479
161.911
166.369
170.846
175.337
179.835
184.334
188.826
193.304
197.76
202.187
206.575
210.918
215.208
219.437
223.596
227.678
231.676
235.581
239.385
243.082
246.664
250.124
253.454
256.649
259.702
262.606
265.356
267.947
270.374
272.632
274.718
276.627
278.357
279.905
281.269
282.448
283.441
284.248
284.868
285.302
285.534
285.584
285.454
285.145
284.661
284.003
283.175
282.182
281.027
279.716
278.254
276.647
274.9
273.021
271.014
268.888
266.648
264.3
261.853
259.311
256.682
253.971
251.187
248.333
245.417
242.444
239.42
236.349
233.238
230.09
226.91
223.702
220.47
217.22
213.956
210.687
207.421
204.168
200.927
197.697
194.475
191.261
188.055
184.861
181.683
178.527
175.405
172.333
169.335
166.447
163.737
161.212
158.767
7.97021
3.62171
2.8816
2.7147
2.72667
2.83277
2.99853
3.20873
3.45526
3.73308
4.03853
4.36879
4.72164
5.09542
5.48905
5.90199
6.33421
6.78614
7.25862
7.7528
8.27006
8.81195
9.38009
9.97613
10.6017
11.2584
11.9477
12.671
13.43
14.2265
15.0619
15.9382
16.8567
17.8189
18.8261
19.8792
20.9793
22.1275
23.3251
24.5737
25.8743
27.2286
28.6381
30.1045
31.6295
33.215
34.8627
36.5746
38.3525
40.1984
42.1143
44.1021
46.1639
48.3017
50.5176
52.8136
55.1916
57.6537
60.2017
62.8374
65.5626
68.3788
71.2875
74.2901
77.3877
80.5812
83.8715
87.2589
90.7439
94.3262
98.0057
101.782
105.653
109.619
113.677
117.827
122.064
126.386
130.792
135.275
139.834
144.464
149.159
153.916
158.728
163.59
168.496
173.44
178.414
183.412
188.426
193.449
198.473
203.489
208.489
213.463
218.403
223.299
228.143
232.926
237.638
242.271
246.815
251.262
255.603
259.829
263.931
267.901
271.731
275.413
278.941
282.305
285.5
288.52
291.358
294.008
296.467
298.729
300.79
302.648
304.299
305.742
306.974
307.996
308.806
309.406
309.791
309.953
309.915
309.671
309.226
308.584
307.746
306.718
305.504
304.11
302.54
300.803
298.903
296.848
294.646
292.303
289.827
287.225
284.506
281.677
278.744
275.717
272.602
269.407
266.139
262.804
259.409
255.961
252.466
248.93
245.358
241.755
238.126
234.477
230.811
227.135
223.455
219.778
216.111
212.458
208.818
205.192
201.581
197.988
194.416
190.87
187.36
183.895
180.493
177.179
173.985
170.964
168.109
165.284
8.78364
3.9936
3.15246
2.94645
2.93772
3.02956
3.18395
3.38355
3.61934
3.88592
4.17967
4.49794
4.83874
5.20065
5.58278
5.98474
6.40654
6.84852
7.31137
7.79635
8.30488
8.83848
9.39875
9.98737
10.6061
11.2568
11.9415
12.6606
13.4161
14.2096
15.0429
15.9177
16.8356
17.7983
18.8072
19.8639
20.9697
22.1265
23.3372
24.6027
25.9245
27.3042
28.7432
30.2442
31.8095
33.4416
35.1427
36.9152
38.7614
40.6838
42.6848
44.7671
46.933
49.1853
51.5265
53.9591
56.4859
59.1091
61.8313
64.6549
67.5819
70.6146
73.7549
77.0045
80.365
83.8376
87.4233
91.123
94.9369
98.8653
102.908
107.064
111.332
115.711
120.2
124.795
129.494
134.293
139.189
144.178
149.255
154.415
159.653
164.961
170.335
175.767
181.25
186.777
192.339
197.927
203.534
209.15
214.765
220.37
225.955
231.509
237.022
242.484
247.885
253.213
258.459
263.613
268.664
273.602
278.417
283.1
287.64
292.028
296.255
300.312
304.191
307.885
311.385
314.684
317.776
320.655
323.315
325.752
327.961
329.94
331.684
333.192
334.463
335.495
336.289
336.846
337.155
337.228
337.068
336.679
336.065
335.229
334.175
332.908
331.434
329.76
327.89
325.834
323.598
321.19
318.618
315.892
313.019
310.008
306.869
303.609
300.237
296.763
293.194
289.54
285.807
282.005
278.141
274.222
270.255
266.248
262.206
258.136
254.043
249.933
245.81
241.682
237.552
233.43
229.32
225.226
221.151
217.098
213.068
209.066
205.095
201.163
197.278
193.452
189.701
186.049
182.524
179.172
175.968
172.76
9.43957
4.30047
3.37219
3.1287
3.1001
3.17686
3.31856
3.50612
3.7297
3.98358
4.26411
4.56878
4.8958
5.24381
5.61219
6.00099
6.4107
6.84243
7.29613
7.77254
8.27283
8.79842
9.35086
9.93179
10.5429
11.1858
11.862
12.5734
13.3217
14.109
14.9372
15.8083
16.7241
17.6865
18.6973
19.7584
20.8719
22.0394
23.2629
24.5446
25.887
27.2926
28.7647
30.3052
31.917
33.6034
35.367
37.2107
39.1376
41.1504
43.2524
45.4466
47.7362
50.1245
52.6146
55.2097
57.9131
60.7278
63.6568
66.7031
69.8695
73.1584
76.5724
80.1136
83.7838
87.5847
91.5175
95.5831
99.7821
104.114
108.58
113.177
117.906
122.763
127.747
132.855
138.083
143.428
148.885
154.448
160.113
165.873
171.721
177.65
183.653
189.722
195.847
202.02
208.231
214.47
220.727
226.992
233.252
239.498
245.717
251.898
258.028
264.096
270.091
276
281.812
287.515
293.098
298.549
303.858
309.012
314.002
318.816
323.446
327.881
332.112
336.131
339.929
343.499
346.834
349.927
352.772
355.365
357.701
359.776
361.588
363.134
364.413
365.425
366.169
366.646
366.851
366.794
366.475
365.901
365.076
364.005
362.693
361.145
359.368
357.369
355.156
352.736
350.119
347.313
344.328
341.173
337.858
334.393
330.788
327.054
323.198
319.233
315.167
311.01
306.771
302.46
298.084
293.654
289.176
284.66
280.111
275.537
270.944
266.339
261.727
257.115
252.507
247.912
243.334
238.778
234.249
229.75
225.285
220.857
216.473
212.139
207.865
203.662
199.548
195.543
191.673
187.974
184.411
180.823
9.93753
4.54103
3.54061
3.26321
3.21528
3.27653
3.40464
3.57912
3.78948
4.0297
4.29597
4.58619
4.89928
5.23509
5.59213
5.96984
6.36818
6.7872
7.22748
7.69052
8.17778
8.69069
9.23081
9.79975
10.3992
11.0309
11.6967
12.3987
13.1391
13.9197
14.7428
15.6103
16.5246
17.4877
18.502
19.5698
20.6935
21.8756
23.1187
24.4258
25.7997
27.243
28.758
30.3464
32.0147
33.7674
35.6077
37.539
39.5648
41.6886
43.9141
46.2452
48.6857
51.2396
53.9108
56.703
59.6203
62.6662
65.8445
69.1586
72.6119
76.2074
79.9479
83.8358
87.8735
92.0625
96.4043
100.9
105.549
110.353
115.31
120.419
125.678
131.086
136.638
142.331
148.161
154.123
160.211
166.42
172.741
179.169
185.694
192.308
199.002
205.767
212.591
219.465
226.377
233.315
240.269
247.224
254.169
261.09
267.975
274.811
281.583
288.278
294.884
301.387
307.775
314.033
320.15
326.113
331.909
337.527
342.954
348.181
353.195
357.986
362.545
366.863
370.93
374.739
378.282
381.553
384.546
387.255
389.677
391.807
393.642
395.182
396.424
397.369
398.016
398.367
398.422
398.185
397.658
396.849
395.765
394.411
392.793
390.916
388.788
386.418
383.814
380.985
377.941
374.692
371.248
367.621
363.821
359.86
355.748
351.498
347.119
342.624
338.023
333.326
328.545
323.689
318.769
313.794
308.774
303.717
298.631
293.525
288.405
283.279
278.153
273.033
267.926
262.838
257.775
252.743
247.746
242.789
237.876
233.013
228.205
223.461
218.789
214.202
209.715
205.348
201.122
197.068
193.143
189.185
10.2855
4.7179
3.66045
3.35335
3.287
3.3327
3.44673
3.60746
3.80405
4.03096
4.28549
4.56407
4.86477
5.18587
5.52697
5.88852
6.27088
6.67463
7.10101
7.55097
8.02566
8.52646
9.05492
9.61274
10.2017
10.8238
11.4809
12.1754
12.9095
13.6855
14.5058
15.3729
16.2894
17.2579
18.2813
19.3625
20.5043
21.7098
22.9823
24.3258
25.7428
27.2358
28.8063
30.4614
32.207
34.0473
35.988
38.0336
40.1878
42.4548
44.839
47.3452
49.9778
52.7415
55.641
58.6808
61.8655
65.1993
68.6865
72.3311
76.1368
80.1069
84.2446
88.5526
93.0329
97.6874
102.517
107.523
112.705
118.062
123.593
129.297
135.17
141.209
147.41
153.769
160.279
166.935
173.729
180.653
187.7
194.861
202.125
209.482
216.921
224.432
232.001
239.617
247.266
254.936
262.612
270.281
277.928
285.538
293.097
300.591
308.003
315.32
322.527
329.61
336.553
343.343
349.967
356.41
362.659
368.702
374.526
380.12
385.47
390.568
395.403
399.965
404.244
408.234
411.927
415.315
418.393
421.155
423.599
425.72
427.515
428.984
430.126
430.941
431.429
431.593
431.436
430.957
430.16
429.058
427.658
425.965
423.984
421.725
419.194
416.402
413.358
410.072
406.554
402.817
398.872
394.731
390.406
385.909
381.253
376.451
371.514
366.456
361.287
356.021
350.668
345.241
339.749
334.205
328.618
322.998
317.355
311.697
306.032
300.367
294.711
289.069
283.449
277.857
272.3
266.782
261.311
255.89
250.526
245.224
239.99
234.833
229.761
224.787
219.925
215.192
210.608
206.198
201.914
197.6
10.4975
4.83688
3.73632
3.40391
3.32039
3.35093
3.4514
3.60044
3.78596
4.00093
4.24059
4.50311
4.78742
5.09292
5.41961
5.76732
6.13635
6.52733
6.94122
7.37911
7.84229
8.33224
8.85064
9.3993
9.98021
10.5955
11.2475
11.9386
12.6715
13.4489
14.2736
15.1485
16.0767
17.0614
18.1061
19.2152
20.3912
21.6376
22.9575
24.3532
25.8285
27.3905
29.0464
30.8014
32.6605
34.6291
36.7132
38.9187
41.2503
43.7132
46.3128
49.0546
51.944
54.9863
58.1869
61.551
65.0834
68.7892
72.6729
76.7386
80.9903
85.4314
90.065
94.8934
99.9185
105.142
110.563
116.183
122.001
128.014
134.221
140.619
147.202
153.968
160.909
168.02
175.294
182.722
190.295
198.004
205.839
213.79
221.843
229.988
238.211
246.499
254.838
263.215
271.614
280.02
288.418
296.793
305.128
313.407
321.615
329.735
337.75
345.646
353.406
361.015
368.458
375.718
382.783
389.637
396.267
402.659
408.8
414.679
420.283
425.602
430.625
435.343
439.746
443.826
447.578
450.993
454.066
456.793
459.169
461.193
462.862
464.175
465.133
465.736
465.985
465.887
465.441
464.639
463.504
462.041
460.258
458.16
455.757
453.055
450.066
446.798
443.262
439.47
435.433
431.164
426.675
421.981
417.093
412.027
406.794
401.41
395.887
390.239
384.479
378.62
372.675
366.657
360.577
354.447
348.279
342.084
335.871
329.65
323.431
317.221
311.028
304.86
298.723
292.625
286.572
280.57
274.626
268.745
262.933
257.196
251.54
245.974
240.507
235.151
229.918
224.825
219.886
215.126
210.493
205.842
10.5665
4.89709
3.77093
3.41921
3.3215
3.34091
3.43024
3.56592
3.73653
3.93627
4.16177
4.41095
4.68238
4.9754
5.28979
5.62568
5.98349
6.36394
6.76803
7.197
7.6523
8.13562
8.64889
9.19419
9.77376
10.39
11.0456
11.7435
12.4868
13.2793
14.1242
15.0246
15.984
17.0062
18.0943
19.2502
20.4791
21.7874
23.1808
24.6659
26.2485
27.9344
29.7303
31.6424
33.6771
35.841
38.1414
40.584
43.1752
45.9217
48.8299
51.9063
55.157
58.5877
62.2043
66.0121
70.0163
74.2219
78.6332
83.2542
88.0885
93.1387
98.4073
103.896
109.605
115.534
121.684
128.051
134.635
141.431
148.435
155.642
163.046
170.641
178.419
186.371
194.488
202.76
211.175
219.723
228.391
237.166
246.035
254.983
263.997
273.061
282.159
291.275
300.394
309.499
318.573
327.6
336.561
345.441
354.221
362.885
371.416
379.797
388.011
396.042
403.875
411.494
418.884
426.031
432.919
439.537
445.871
451.909
457.639
463.051
468.134
472.879
477.278
481.324
485.008
488.327
491.273
493.845
496.038
497.85
499.281
500.33
500.999
501.289
501.204
500.752
499.911
498.709
497.152
495.249
493.008
490.436
487.541
484.335
480.827
477.027
472.948
468.602
464.001
459.158
454.089
448.806
443.325
437.66
431.825
425.836
419.706
413.451
407.085
400.621
394.073
387.454
380.779
374.059
367.306
360.534
353.751
346.969
340.198
333.446
326.722
320.033
313.387
306.791
300.252
293.777
287.372
281.042
274.795
268.635
262.571
256.61
250.761
245.035
239.443
234.001
228.72
223.623
218.658
213.694
10.5457
4.90757
3.77135
3.40968
3.30166
3.30745
3.38266
3.50523
3.66391
3.85229
4.06676
4.30523
4.56653
4.8501
5.15588
5.48418
5.83562
6.21107
6.61171
7.03902
7.49474
7.98095
8.50018
9.05537
9.64865
10.2829
10.9613
11.6871
12.4635
13.293
14.1781
15.1254
16.1403
17.2281
18.3945
19.6462
20.9886
22.4277
23.9706
25.6246
27.3972
29.2956
31.3272
33.4996
35.8205
38.2975
40.9387
43.7512
46.7429
49.9217
53.2955
56.8717
60.6562
64.6545
68.8716
73.3126
77.9819
82.8833
88.0201
93.395
99.0099
104.866
110.963
117.301
123.879
130.694
137.742
145.021
152.524
160.246
168.18
176.318
184.652
193.173
201.87
210.732
219.748
228.906
238.191
247.592
257.093
266.68
276.338
286.05
295.803
305.577
315.358
325.128
334.87
344.566
354.2
363.752
373.207
382.545
391.751
400.805
409.691
418.392
426.892
435.174
443.222
451.021
458.557
465.815
472.781
479.443
485.788
491.803
497.48
502.806
507.774
512.374
516.599
520.442
523.897
526.959
529.624
531.888
533.751
535.211
536.267
536.919
537.176
537.037
536.507
535.567
534.243
532.541
530.471
528.042
525.261
522.138
518.684
514.907
510.821
506.435
501.763
496.818
491.612
486.161
480.479
474.581
468.482
462.198
455.745
449.138
442.393
435.525
428.548
421.477
414.328
407.114
399.848
392.546
385.219
377.88
370.54
363.212
355.904
348.627
341.389
334.198
327.063
319.99
312.987
306.06
299.216
292.461
285.802
279.244
272.795
266.462
260.253
254.178
248.249
242.479
236.877
231.464
226.189
220.943
10.4734
4.89485
3.75354
3.37892
3.25798
3.25305
3.31822
3.43137
3.5812
3.76158
3.96906
4.20169
4.45849
4.73918
5.04406
5.3741
5.73026
6.11346
6.52525
6.96754
7.4425
7.95243
8.49939
9.08376
9.71114
10.3862
11.1133
11.8973
12.7434
13.6575
14.6456
15.7132
16.867
18.1141
19.4623
20.9197
22.4943
24.1944
26.0287
28.0062
30.1361
32.4272
34.8887
37.5292
40.3576
43.3816
46.6078
50.0453
53.7035
57.5919
61.7205
66.0989
70.7284
75.6113
80.7502
86.1473
91.8041
97.7215
103.9
110.338
117.034
123.986
131.191
138.643
146.338
154.27
162.432
170.816
179.413
188.215
197.21
206.39
215.742
225.254
234.913
244.708
254.623
264.645
274.759
284.95
295.203
305.503
315.832
326.176
336.517
346.839
357.125
367.358
377.52
387.594
397.564
407.412
417.12
426.672
436.05
445.238
454.219
462.976
471.495
479.76
487.754
495.465
502.879
509.981
516.761
523.204
529.301
535.039
540.41
545.405
550.015
554.233
558.052
561.468
564.474
567.067
569.246
571.006
572.348
573.27
573.778
573.859
573.563
572.83
571.686
570.141
568.203
565.881
563.183
560.122
556.703
552.938
548.838
544.414
539.678
534.642
529.318
523.721
517.865
511.764
505.433
498.889
492.148
485.225
478.137
470.901
463.532
456.046
448.458
440.784
433.038
425.237
417.393
409.522
401.636
393.748
385.871
378.017
370.196
362.417
354.691
347.025
339.427
331.906
324.467
317.119
309.867
302.717
295.676
288.75
281.946
275.27
268.731
262.337
256.098
250.026
244.13
238.429
232.872
227.38
10.3278
4.85501
3.71286
3.33172
3.20502
3.19534
3.25653
3.36706
3.51608
3.69814
3.90991
4.1495
4.41626
4.71017
5.03153
5.38048
5.75744
6.16569
6.60809
7.08766
7.60782
8.17242
8.78602
9.4545
10.1823
10.9753
11.84
12.7836
13.8141
14.94
16.17
17.513
18.9786
20.577
22.3188
24.2149
26.2766
28.5148
30.9406
33.565
36.3988
39.4519
42.7343
46.255
50.0228
54.0446
58.3268
62.8763
67.7002
72.8046
78.1972
83.8808
89.8506
96.1029
102.634
109.441
116.518
123.86
131.461
139.315
147.414
155.75
164.315
173.099
182.092
191.284
200.665
210.223
219.948
229.826
239.845
249.994
260.259
270.628
281.085
291.619
302.215
312.859
323.536
334.232
344.933
355.622
366.286
376.91
387.477
397.973
408.382
418.687
428.875
438.928
448.831
458.569
468.126
477.485
486.633
495.554
504.232
512.653
520.803
528.668
536.234
543.488
550.419
557.014
563.262
569.154
574.678
579.824
584.586
588.955
592.926
596.49
599.642
602.382
604.703
606.6
608.078
609.128
609.759
609.959
609.758
609.135
608.083
606.624
604.759
602.495
599.838
596.8
593.392
589.622
585.499
581.035
576.24
571.128
565.71
559.998
554.005
547.744
541.232
534.482
527.51
520.333
512.966
505.426
497.731
489.895
481.937
473.871
465.714
457.48
449.185
440.845
432.473
424.085
415.694
407.313
398.955
390.632
382.354
374.133
365.976
357.893
349.892
341.98
334.164
326.451
318.848
311.359
303.992
296.752
289.646
282.679
275.859
269.194
262.692
256.365
250.218
244.272
238.474
232.787
10.171
4.79012
3.66167
3.28555
3.16269
3.15825
3.22727
3.34794
3.50939
3.70533
3.93271
4.19159
4.4824
4.80618
5.16471
5.56075
5.99756
6.47856
7.00822
7.59181
8.23535
8.94579
9.73117
10.6004
11.5622
12.6264
13.8037
15.1063
16.5468
18.1387
19.8956
21.8314
23.9601
26.2963
28.8544
31.6484
34.6914
37.9957
41.573
45.434
49.5875
54.0403
58.7979
63.8653
69.2468
74.942
80.9496
87.2697
93.903
100.845
108.104
115.646
123.459
131.535
139.86
148.423
157.211
166.213
175.414
184.804
194.37
204.099
213.98
224.001
234.15
244.415
254.784
265.246
275.789
286.403
297.074
307.793
318.547
329.326
340.117
350.91
361.691
372.451
383.176
393.856
404.478
415.029
425.498
435.872
446.138
456.284
466.297
476.164
485.871
495.405
504.753
513.902
522.838
531.548
540.019
548.237
556.19
563.865
571.249
578.331
585.098
591.539
597.644
603.403
608.807
613.846
618.511
622.793
626.687
630.188
633.289
635.982
638.264
640.14
641.6
642.631
643.267
643.46
643.264
642.65
641.599
640.153