/*--------------------------------*- C++ -*----------------------------------*\
  =========                 |
  \\      /  F ield         | OpenFOAM: The Open Source CFD Toolbox
   \\    /   O peration     | Website:  https://openfoam.org
    \\  /    A nd           | Version:  9
     \\/     M anipulation  |
\*---------------------------------------------------------------------------*/
FoamFile
{
    format      ascii;
    class       volScalarField;
    location    "250";
    object      nut;
}
// * * * * * * * * * * * * * * * * * * * * * * * * * * * * * * * * * * * * * //

dimensions      [0 2 -1 0 0 0 0];

internalField   nonuniform List<scalar> 
12225
(
4.14926e-05
3.93404e-05
3.74835e-05
3.54321e-05
3.3785e-05
3.24195e-05
3.15112e-05
3.0911e-05
3.09184e-05
3.10898e-05
3.15773e-05
3.20875e-05
3.31599e-05
3.38168e-05
3.50544e-05
3.59376e-05
3.66561e-05
3.93647e-05
0.000332206
0.000215184
0.000179266
0.000157683
0.000146206
0.000138214
0.000132753
0.000131637
0.000129524
0.000130048
0.000129062
0.000129423
0.000128672
0.000128544
0.000128088
0.0001274
0.000127453
0.000126142
0.000668662
0.000450676
0.000355746
0.000309844
0.000275276
0.000251107
0.000231708
0.000217281
0.000202689
0.000192117
0.000182632
0.000175208
0.000169382
0.000163695
0.000160301
0.000155585
0.000153844
0.000149818
0.000801685
0.000691672
0.00057254
0.000500067
0.000449375
0.000411991
0.00038078
0.000356006
0.000334014
0.000314785
0.000298386
0.000281637
0.000270352
0.000256089
0.000248236
0.000236157
0.000230595
0.000220425
0.000839624
0.000810192
0.000740697
0.00067642
0.000623928
0.000581387
0.000545872
0.00051456
0.000489524
0.000464436
0.000445879
0.000424076
0.000409955
0.000390828
0.000379935
0.000363064
0.000354869
0.000339432
0.000850344
0.000843278
0.000819552
0.000786528
0.000750772
0.000715884
0.00068576
0.000656133
0.000632553
0.000607524
0.000589007
0.000567261
0.000552299
0.000533121
0.00052083
0.000503701
0.000493754
0.000477395
0.000851579
0.000851019
0.0008433
0.000833476
0.000817112
0.00079695
0.000777872
0.000756738
0.000738903
0.000719152
0.00070354
0.000685633
0.000672137
0.000655943
0.000644348
0.000629503
0.00061992
0.000605063
0.000851581
0.000851815
0.000850038
0.000847461
0.000841402
0.00083375
0.000824824
0.000813435
0.000802813
0.000790475
0.00077972
0.000767548
0.000757437
0.000745796
0.000736575
0.000725492
0.000717532
0.000705931
0.000851673
0.00085153
0.000851015
0.000850343
0.000848875
0.00084617
0.000843027
0.000838306
0.000833404
0.000827363
0.000821221
0.000814773
0.000808439
0.000801513
0.000795309
0.000788342
0.000782548
0.000774983
0.000851754
0.000851386
0.000851043
0.000850633
0.000850247
0.000849368
0.000848404
0.000846781
0.000844956
0.000842531
0.000839925
0.000836802
0.000833799
0.000830156
0.000826982
0.000822927
0.000819938
0.000815305
0.000851784
0.000851358
0.000851012
0.000850613
0.000850329
0.000849905
0.000849525
0.000848929
0.000848303
0.000847394
0.000846466
0.000845178
0.000843992
0.000842354
0.000841
0.000839036
0.000837647
0.000835369
0.000851788
0.000851359
0.000850995
0.000850605
0.000850291
0.000849938
0.000849646
0.00084928
0.000848955
0.000848504
0.000848099
0.000847508
0.000846998
0.000846245
0.000845643
0.000844723
0.00084406
0.000842979
0.000851786
0.000851363
0.000850985
0.000850604
0.000850269
0.000849926
0.00084963
0.000849313
0.000849042
0.000848729
0.000848462
0.000848126
0.000847844
0.000847466
0.000847157
0.000846726
0.000846387
0.000845903
0.000851783
0.000851364
0.000850978
0.000850602
0.000850256
0.000849916
0.000849607
0.0008493
0.000849022
0.00084874
0.000848488
0.000848224
0.000847988
0.000847735
0.000847508
0.000847258
0.000847033
0.000846783
0.000851781
0.000851364
0.000850972
0.000850598
0.000850246
0.000849908
0.000849591
0.000849286
0.000849
0.000848723
0.000848463
0.000848211
0.000847975
0.000847744
0.000847527
0.000847315
0.000847114
0.000846918
0.00085178
0.000851363
0.000850969
0.000850594
0.000850239
0.000849901
0.00084958
0.000849274
0.000848984
0.000848707
0.000848443
0.000848191
0.000847951
0.000847721
0.000847502
0.000847292
0.000847092
0.0008469
0.000851779
0.000851362
0.000850967
0.000850591
0.000850234
0.000849894
0.000849572
0.000849265
0.000848973
0.000848694
0.000848428
0.000848174
0.000847932
0.000847701
0.00084748
0.000847268
0.000847066
0.000846873
0.000851779
0.000851362
0.000850965
0.000850588
0.00085023
0.00084989
0.000849567
0.000849258
0.000848965
0.000848685
0.000848418
0.000848163
0.000847919
0.000847686
0.000847464
0.000847251
0.000847048
0.000846853
0.000851779
0.000851362
0.000850965
0.000850588
0.000850229
0.000849889
0.000849565
0.000849256
0.000848962
0.000848681
0.000848413
0.000848157
0.000847913
0.000847679
0.000847456
0.000847242
0.000847038
0.000846842
0.000851779
0.000851362
0.000850965
0.000850589
0.000850231
0.000849891
0.000849567
0.000849259
0.000848965
0.000848685
0.000848417
0.000848161
0.000847916
0.000847683
0.000847459
0.000847245
0.00084704
0.000846843
0.000851779
0.000851363
0.000850967
0.000850592
0.000850235
0.000849896
0.000849573
0.000849266
0.000848972
0.000848693
0.000848423
0.000848168
0.000847919
0.000847682
0.00084745
0.00084723
0.000847011
0.000846805
0.000851778
0.000851366
0.000850968
0.000850599
0.00085024
0.000849907
0.00084958
0.000849274
0.000848964
0.000848671
0.000848364
0.000848071
0.000847755
0.000847455
0.000847122
0.00084681
0.000846456
0.000846135
0.000851773
0.000851376
0.000850971
0.000850615
0.00085024
0.000849889
0.000849478
0.000849053
0.000848529
0.000847978
0.0008473
0.000846604
0.000845766
0.000844938
0.000843953
0.000843028
0.000841916
0.000840938
0.000851767
0.000851415
0.000850964
0.000850548
0.000849861
0.000848966
0.00084761
0.000845975
0.000843904
0.000841635
0.000838953
0.000836213
0.000833115
0.000830111
0.00082676
0.000823677
0.00082018
0.000817174
0.000851859
0.00085138
0.000850195
0.000848243
0.000844469
0.000839353
0.000832765
0.000825657
0.00081796
0.000810009
0.000801615
0.000793624
0.000785328
0.000777702
0.000769738
0.000762695
0.000755117
0.000748788
0.000852108
0.000847667
0.000839902
0.000827146
0.000808707
0.000789645
0.000769974
0.000751411
0.000733302
0.000716892
0.000700929
0.000686775
0.000672824
0.000660664
0.000648371
0.000637933
0.000626945
0.000618011
0.000843241
0.000822506
0.000775184
0.000726458
0.000684894
0.000649849
0.000618459
0.000592016
0.000568378
0.000548307
0.000529684
0.000513985
0.000498745
0.00048601
0.000473194
0.0004627
0.000451614
0.000442796
0.000795685
0.000668241
0.000570625
0.000509904
0.000465603
0.000431181
0.000404144
0.000382478
0.000364196
0.000349066
0.000335938
0.000325058
0.000314502
0.000306232
0.000297955
0.000291362
0.000284275
0.000278926
0.000501314
0.000348357
0.000292673
0.00025918
0.000236322
0.000221176
0.00021162
0.000203853
0.000198563
0.000195074
0.00019222
0.000190367
0.000188582
0.000187437
0.000186165
0.000185471
0.000184554
0.000184142
7.27385e-05
7.02256e-05
6.79542e-05
6.56138e-05
6.33828e-05
6.12762e-05
5.94944e-05
5.79552e-05
5.67109e-05
5.57033e-05
5.49776e-05
5.44182e-05
5.41097e-05
5.38814e-05
5.38977e-05
5.3933e-05
5.40917e-05
5.43244e-05
2.21414e-07
5.65612e-06
1.04483e-05
1.47549e-05
1.90955e-05
2.39676e-05
2.95698e-05
3.6076e-05
4.35049e-05
5.17424e-05
6.05957e-05
6.98669e-05
7.93744e-05
8.89714e-05
9.85348e-05
0.000107963
0.000117168
0.000126067
0.00013459
0.000142667
0.00015025
0.000157302
0.00016383
0.000169875
0.000175548
0.000181011
0.000186498
0.000190791
0.000196523
0.00020668
0.000216595
0.000227092
0.00023656
0.00024178
0.000234094
0.000223675
0.000214136
0.000201829
4.19623e-05
4.57178e-05
4.583e-05
4.77785e-05
5.00903e-05
5.04703e-05
5.18521e-05
5.28681e-05
5.40109e-05
5.51173e-05
5.62301e-05
5.73398e-05
5.84457e-05
5.95495e-05
6.06497e-05
6.17473e-05
6.28415e-05
6.39328e-05
6.50207e-05
6.61056e-05
6.71869e-05
6.82648e-05
6.93389e-05
7.04091e-05
7.1475e-05
7.25365e-05
7.3593e-05
7.46445e-05
7.56903e-05
7.67302e-05
7.77636e-05
7.87903e-05
7.98095e-05
8.0821e-05
8.18241e-05
8.28184e-05
8.38032e-05
8.47781e-05
8.57425e-05
8.66958e-05
8.76375e-05
8.8567e-05
8.94836e-05
9.03869e-05
9.1276e-05
9.21506e-05
9.30099e-05
9.38532e-05
9.46797e-05
9.54889e-05
9.62796e-05
9.70512e-05
9.78025e-05
9.85325e-05
9.92397e-05
9.99231e-05
0.000100582
0.000101216
0.000101827
0.000102424
0.000102994
0.000103544
0.00010407
0.000104574
0.000105055
0.000105513
0.000105946
0.000106355
0.00010674
0.0001071
0.000107434
0.000107743
0.000108027
0.000108284
0.000108515
0.00010872
0.000108899
0.000109051
0.000109176
0.000109275
0.000109347
0.000109392
0.000109411
0.000109403
0.000109369
0.000109309
0.000109223
0.000109112
0.000108974
0.000108809
0.000108632
0.000108418
0.000108175
0.000107914
0.000107634
0.000107327
0.000106999
0.000106648
0.000106276
0.000105884
0.000105473
0.000105042
0.000104593
0.000104128
0.000103646
0.000103148
0.000102636
0.000102108
0.000101568
0.000101014
0.000100448
9.98715e-05
9.92842e-05
9.86869e-05
9.80807e-05
9.74659e-05
9.68434e-05
9.62137e-05
9.55774e-05
9.49351e-05
9.42873e-05
9.36349e-05
9.29787e-05
9.23204e-05
9.16662e-05
9.10807e-05
9.06861e-05
9.03311e-05
8.99785e-05
8.96249e-05
8.92697e-05
8.89124e-05
8.85526e-05
8.81893e-05
8.78212e-05
8.74465e-05
8.70618e-05
8.66609e-05
8.62326e-05
8.57501e-05
8.51444e-05
8.32462e-05
1.1063e-06
2.77524e-05
6.16579e-05
8.50086e-05
9.99263e-05
0.000110358
0.000119139
0.000127811
0.000137061
0.000147062
0.000157727
0.000168859
0.000180245
0.000191694
0.000203041
0.000214151
0.000224907
0.000235204
0.000244949
0.000254062
0.000262484
0.000270181
0.000277164
0.0002835
0.000289333
0.000294903
0.000299665
0.000303297
0.000306467
0.000309026
0.000310133
0.000309443
0.00030632
0.000299028
0.000294183
0.000275177
0.000259531
0.000251959
0.000237038
0.000245674
0.00025044
0.00027057
0.000276246
0.000282974
0.000290285
0.000297815
0.000305677
0.00031365
0.000321772
0.000329984
0.000338293
0.000346683
0.000355155
0.000363707
0.000372338
0.000381048
0.00038984
0.000398714
0.000407672
0.000416714
0.000425841
0.000435054
0.000444354
0.000453739
0.000463211
0.000472768
0.000482408
0.00049213
0.000501932
0.000511812
0.000521767
0.000531794
0.000541888
0.000552047
0.000562265
0.000572538
0.000582861
0.000593228
0.000603633
0.000614072
0.000624538
0.000635026
0.000645528
0.00065604
0.000666556
0.000677068
0.000687572
0.000698063
0.000708534
0.000718981
0.000729393
0.000739758
0.000750054
0.000760244
0.000770265
0.000780005
0.00078928
0.000797795
0.000806287
0.000814621
0.000822826
0.000830889
0.000838805
0.000846567
0.000854168
0.000861602
0.000868862
0.000875941
0.000882833
0.000889532
0.000896031
0.000902325
0.000908409
0.000914277
0.000919924
0.000925346
0.000930539
0.000935499
0.000940221
0.000944704
0.000948945
0.000952941
0.000956693
0.000960199
0.00096346
0.000966478
0.000969252
0.000971761
0.000974075
0.000976239
0.00097793
0.000979384
0.000980715
0.000981764
0.000982578
0.000983167
0.00098353
0.000983673
0.0009836
0.000983317
0.000982827
0.000982132
0.000981246
0.000980177
0.000978931
0.000977516
0.000975938
0.000974205
0.000972323
0.000970301
0.000968143
0.000965859
0.000963453
0.000960934
0.000958305
0.000955573
0.000952741
0.000949816
0.000946796
0.000943684
0.000940471
0.000937127
0.000933498
0.000928835
0.000922371
0.000915251
0.000907881
0.000900366
0.000892735
0.000884995
0.000877145
0.000869176
0.000861077
0.000852833
0.000844411
0.000835755
0.000826716
0.000817078
0.000805288
0.00077506
2.33583e-06
4.58782e-05
9.81772e-05
0.00013775
0.000166326
0.000187085
0.000202982
0.000216278
0.000228468
0.000240399
0.000252454
0.000264723
0.00027715
0.000289612
0.000301972
0.000314096
0.000325861
0.000337158
0.000347892
0.000357986
0.000367384
0.000376065
0.000384039
0.000391352
0.000398057
0.000404168
0.000410381
0.00041719
0.000424439
0.000432039
0.00043971
0.000446986
0.000453
0.000457603
0.000461479
0.00046394
0.000468485
0.000476489
0.000486355
0.000501474
0.00051699
0.000536904
0.000552247
0.000568016
0.000583874
0.000599936
0.00061621
0.000632654
0.000649266
0.000666028
0.000682937
0.000699988
0.000717183
0.00073452
0.000752001
0.000769629
0.000787404
0.000805328
0.000823401
0.000841626
0.000860001
0.000878526
0.0008972
0.000916021
0.000934987
0.000954093
0.000973337
0.000992712
0.00101221
0.00103184
0.00105158
0.00107142
0.00109137
0.00111141
0.00113153
0.00115172
0.00117198
0.00119228
0.00121263
0.001233
0.00125339
0.00127379
0.00129417
0.00131453
0.00133486
0.00135514
0.00137535
0.00139548
0.00141552
0.00143544
0.00145523
0.00147484
0.00149424
0.00151337
0.00153216
0.00155054
0.0015684
0.00158581
0.001603
0.00161992
0.00163655
0.00165288
0.00166891
0.0016846
0.00169996
0.00171497
0.00172961
0.00174387
0.00175774
0.00177121
0.00178425
0.00179687
0.00180906
0.00182079
0.00183206
0.00184286
0.00185319
0.00186304
0.00187239
0.00188124
0.0018896
0.00189744
0.00190478
0.0019116
0.00191792
0.00192372
0.00192901
0.0019338
0.00193813
0.00194215
0.00194536
0.00194796
0.00195024
0.00195197
0.00195323
0.00195401
0.00195433
0.00195418
0.00195359
0.00195256
0.00195111
0.00194923
0.00194696
0.00194431
0.00194129
0.00193791
0.0019342
0.00193016
0.0019258
0.00192115
0.00191622
0.00191102
0.00190556
0.00189985
0.00189392
0.00188776
0.00188139
0.00187481
0.00186803
0.00186105
0.00185385
0.00184638
0.00183845
0.00182941
0.00181864
0.00180689
0.00179463
0.00178203
0.00176915
0.00175602
0.00174266
0.00172903
0.00171512
0.00170092
0.00168636
0.00167133
0.00165556
0.00163835
0.00161682
0.0015714
3.71577e-06
5.96227e-05
0.000126011
0.000177728
0.000215884
0.000244225
0.000266028
0.000283809
0.000299349
0.000313792
0.000327788
0.000341642
0.000355448
0.000369181
0.000382766
0.000396108
0.000409117
0.000421711
0.000433828
0.000445429
0.000456508
0.000467102
0.000477304
0.000487271
0.000497232
0.000507491
0.000518438
0.000530358
0.000543343
0.000557348
0.000572163
0.000587445
0.00060276
0.000617981
0.000633247
0.000648467
0.000665155
0.000683481
0.000703324
0.000724744
0.000746849
0.000769624
0.000792075
0.000814706
0.000837475
0.00086042
0.000883552
0.000906871
0.000930376
0.000954067
0.000977943
0.001002
0.00102625
0.00105069
0.00107532
0.00110015
0.00112518
0.0011504
0.00117582
0.00120145
0.00122726
0.00125328
0.00127948
0.00130588
0.00133245
0.00135921
0.00138613
0.00141322
0.00144046
0.00146784
0.00149537
0.00152301
0.00155077
0.00157863
0.00160658
0.00163459
0.00166266
0.00169078
0.00171892
0.00174706
0.0017752
0.00180332
0.00183139
0.0018594
0.00188732
0.00191515
0.00194285
0.0019704
0.00199778
0.00202497
0.00205192
0.00207861
0.00210498
0.002131
0.00215661
0.00218175
0.00220643
0.00223069
0.00225459
0.00227812
0.00230125
0.00232397
0.00234625
0.00236808
0.00238944
0.00241031
0.00243067
0.00245051
0.0024698
0.00248853
0.00250669
0.00252426
0.00254122
0.00255757
0.00257328
0.00258834
0.00260275
0.00261649
0.00262955
0.00264192
0.0026536
0.00266458
0.00267485
0.00268442
0.00269328
0.00270143
0.00270887
0.00271561
0.00272181
0.00272745
0.00273205
0.00273572
0.00273897
0.0027415
0.00274335
0.00274453
0.00274506
0.00274494
0.0027442
0.00274284
0.00274089
0.00273836
0.00273527
0.00273165
0.0027275
0.00272285
0.00271773
0.00271214
0.00270611
0.00269966
0.00269281
0.00268557
0.00267797
0.00267002
0.00266174
0.00265314
0.00264423
0.00263503
0.00262554
0.00261576
0.00260567
0.00259523
0.00258426
0.00257233
0.00255906
0.0025448
0.00252988
0.00251448
0.00249868
0.00248252
0.00246602
0.00244919
0.00243207
0.00241458
0.00239662
0.00237807
0.00235862
0.00233735
0.00231088
0.00226257
5.08662e-06
7.11862e-05
0.000149294
0.000211028
0.000257567
0.000292588
0.000319647
0.000341503
0.000360166
0.000377009
0.000392898
0.000408325
0.000423531
0.000438606
0.000453556
0.000468351
0.000482953
0.000497329
0.000511467
0.000525377
0.000539099
0.000552716
0.000566357
0.000580203
0.000594487
0.000609481
0.000625462
0.000642647
0.000661145
0.000680926
0.000701792
0.000723418
0.000745563
0.000768058
0.000790887
0.0008142
0.000838353
0.000863453
0.000889079
0.00091559
0.000942795
0.000970504
0.00099813
0.00102593
0.00105394
0.00108214
0.00111056
0.00113919
0.00116803
0.00119709
0.00122637
0.00125586
0.00128557
0.00131548
0.00134563
0.00137601
0.00140662
0.00143745
0.00146852
0.00149981
0.00153132
0.00156306
0.001595
0.00162716
0.00165951
0.00169205
0.00172477
0.00175767
0.00179072
0.00182392
0.00185726
0.00189071
0.00192427
0.00195792
0.00199164
0.00202541
0.00205922
0.00209304
0.00212686
0.00216066
0.00219442
0.00222811
0.00226172
0.00229522
0.00232859
0.00236181
0.00239485
0.00242768
0.00246028
0.00249262
0.00252467
0.00255638
0.00258774
0.00261871
0.00264926
0.00267939
0.00270907
0.00273831
0.00276712
0.00279548
0.00282337
0.00285076
0.00287764
0.00290398
0.00292977
0.00295498
0.00297959
0.00300358
0.00302693
0.00304962
0.00307163
0.00309295
0.00311356
0.00313344
0.00315257
0.00317094
0.00318854
0.00320535
0.00322137
0.00323657
0.00325096
0.00326451
0.00327724
0.00328912
0.00330017
0.00331037
0.00331974
0.00332829
0.00333629
0.00334338
0.00334934
0.00335432
0.00335867
0.00336219
0.00336489
0.00336679
0.00336791
0.00336825
0.00336784
0.00336669
0.00336482
0.00336226
0.00335902
0.00335513
0.0033506
0.00334547
0.00333976
0.00333348
0.00332667
0.00331934
0.00331152
0.00330324
0.0032945
0.00328533
0.00327576
0.00326579
0.00325545
0.00324475
0.00323368
0.00322227
0.00321049
0.0031983
0.00318558
0.00317206
0.00315752
0.00314209
0.00312597
0.00310929
0.00309213
0.00307453
0.00305651
0.00303807
0.0030192
0.0029999
0.0029801
0.00295969
0.00293837
0.00291518
0.00288681
0.00284044
6.3867e-06
8.08823e-05
0.000168818
0.000239184
0.000293204
0.000334328
0.000366291
0.000392028
0.000413737
0.000432977
0.0004508
0.000467867
0.000484564
0.000501098
0.000517566
0.000534013
0.000550458
0.000566921
0.00058343
0.000600031
0.000616794
0.000633813
0.000651211
0.00066914
0.000687775
0.000707301
0.000727892
0.000749677
0.00077271
0.000796949
0.00082225
0.000848413
0.000875257
0.000902643
0.000930516
0.000958913
0.000987887
0.00101743
0.00104747
0.00107805
0.0011091
0.0011405
0.00117212
0.00120397
0.00123605
0.00126836
0.00130089
0.00133365
0.00136664
0.00139986
0.00143331
0.001467
0.00150094
0.00153512
0.00156954
0.00160419
0.00163907
0.00167418
0.00170952
0.00174507
0.00178085
0.00181684
0.00185303
0.00188942
0.001926
0.00196276
0.00199969
0.00203677
0.002074
0.00211135
0.00214883
0.0021864
0.00222406
0.00226179
0.00229956
0.00233737
0.00237519
0.002413
0.00245079
0.00248853
0.0025262
0.00256378
0.00260125
0.00263859
0.00267576
0.00271275
0.00274954
0.00278608
0.00282237
0.00285837
0.00289405
0.00292939
0.00296436
0.00299892
0.00303307
0.00306679
0.00310006
0.00313286
0.00316519
0.00319703
0.00322835
0.00325914
0.00328936
0.00331901
0.00334805
0.00337645
0.00340421
0.0034313
0.00345769
0.00348337
0.00350831
0.0035325
0.00355591
0.00357853
0.00360034
0.00362133
0.00364147
0.00366075
0.00367916
0.00369668
0.00371331
0.00372904
0.00374384
0.00375773
0.00377069
0.00378272
0.00379382
0.00380414
0.00381372
0.00382226
0.00382952
0.00383589
0.00384144
0.00384607
0.00384979
0.00385261
0.00385456
0.00385564
0.00385588
0.00385529
0.0038539
0.00385172
0.00384879
0.00384511
0.00384073
0.00383566
0.00382992
0.00382355
0.00381657
0.00380901
0.00380089
0.00379223
0.00378306
0.00377341
0.00376329
0.00375272
0.00374173
0.00373032
0.00371851
0.0037063
0.00369368
0.00368062
0.00366705
0.0036528
0.00363774
0.0036219
0.00360538
0.00358828
0.00357065
0.00355254
0.00353396
0.00351493
0.00349544
0.0034755
0.00345507
0.00343408
0.00341226
0.00338873
0.00336055
0.00331802
7.57333e-06
8.88886e-05
0.000185013
0.000262867
0.000323606
0.000370384
0.000407012
0.000436546
0.000461315
0.00048303
0.000502896
0.000521722
0.000540029
0.000558134
0.000576229
0.000594427
0.000612802
0.000631415
0.000650324
0.000669593
0.000689298
0.000709524
0.000730369
0.00075194
0.00077435
0.000797707
0.000822102
0.000847594
0.000874194
0.000901856
0.000930481
0.00095994
0.000990106
0.00102088
0.00105219
0.00108401
0.00111634
0.00114914
0.00118238
0.00121604
0.00125008
0.00128444
0.00131908
0.00135398
0.00138913
0.0014245
0.00146011
0.00149595
0.00153202
0.00156831
0.00160484
0.0016416
0.00167859
0.00171582
0.00175327
0.00179094
0.00182884
0.00186696
0.00190529
0.00194384
0.00198259
0.00202153
0.00206067
0.00209999
0.00213949
0.00217915
0.00221897
0.00225892
0.00229901
0.00233921
0.00237951
0.0024199
0.00246035
0.00250086
0.0025414
0.00258197
0.00262253
0.00266307
0.00270356
0.002744
0.00278436
0.00282461
0.00286474
0.00290472
0.00294453
0.00298414
0.00302354
0.00306269
0.00310157
0.00314016
0.00317842
0.00321635
0.0032539
0.00329106
0.0033278
0.00336412
0.00339998
0.00343537
0.00347028
0.00350467
0.00353854
0.00357185
0.00360458
0.00363671
0.00366822
0.00369907
0.00372925
0.00375874
0.0037875
0.00381553
0.00384279
0.00386927
0.00389495
0.0039198
0.0039438
0.00396694
0.00398921
0.00401057
0.00403102
0.00405054
0.00406912
0.00408674
0.0041034
0.00411909
0.00413379
0.0041475
0.00416024
0.00417225
0.00418324
0.0041932
0.00420184
0.00420962
0.00421642
0.00422224
0.00422708
0.00423097
0.0042339
0.00423591
0.00423701
0.00423721
0.00423654
0.00423501
0.00423267
0.00422952
0.0042256
0.00422093
0.00421554
0.00420946
0.00420271
0.00419533
0.00418733
0.00417876
0.00416962
0.00415996
0.00414978
0.00413912
0.00412799
0.00411642
0.0041044
0.00409196
0.00407908
0.00406575
0.00405193
0.00403751
0.00402241
0.00400662
0.00399021
0.0039732
0.00395566
0.00393762
0.00391909
0.0039001
0.00388066
0.00386077
0.00384045
0.00381964
0.00379816
0.00377523
0.00374841
0.00371057
8.61653e-06
9.53432e-05
0.000198183
0.000282492
0.000349242
0.000401255
0.00044234
0.000475605
0.000503469
0.000527752
0.00054978
0.000570487
0.000590509
0.000610265
0.000630029
0.000649979
0.000670237
0.000690895
0.00071203
0.00073371
0.000756003
0.000778977
0.000802703
0.000827246
0.00085267
0.000879028
0.000906363
0.000934696
0.000964009
0.000994251
0.00102535
0.00105722
0.00108977
0.00112292
0.00115662
0.00119082
0.00122549
0.00126059
0.0012961
0.00133197
0.00136819
0.00140471
0.00144153
0.0014786
0.00151592
0.00155346
0.00159122
0.0016292
0.00166739
0.0017058
0.00174442
0.00178326
0.0018223
0.00186156
0.00190103
0.0019407
0.00198058
0.00202066
0.00206093
0.00210139
0.00214204
0.00218288
0.00222388
0.00226506
0.00230639
0.00234787
0.00238949
0.00243124
0.00247311
0.00251509
0.00255715
0.0025993
0.00264151
0.00268377
0.00272605
0.00276836
0.00281066
0.00285294
0.00289519
0.00293737
0.00297948
0.00302149
0.00306338
0.00310513
0.00314672
0.00318812
0.00322931
0.00327027
0.00331097
0.00335139
0.00339151
0.0034313
0.00347073
0.0035098
0.00354846
0.00358671
0.00362452
0.00366187
0.00369873
0.0037351
0.00377093
0.00380621
0.00384092
0.00387502
0.0039085
0.00394133
0.00397348
0.00400493
0.00403566
0.00406564
0.00409485
0.00412327
0.00415088
0.00417764
0.00420355
0.00422858
0.00425271
0.00427592
0.0042982
0.00431953
0.00433988
0.00435925
0.00437763
0.004395
0.00441135
0.00442667
0.00444104
0.00445458
0.004467
0.00447835
0.00448842
0.0044976
0.00450572
0.0045128
0.00451884
0.00452387
0.0045279
0.00453095
0.00453303
0.00453417
0.00453437
0.00453368
0.00453211
0.00452969
0.00452644
0.00452239
0.00451758
0.00451202
0.00450576
0.00449881
0.00449122
0.004483
0.00447419
0.00446482
0.0044549
0.00444447
0.00443355
0.00442215
0.0044103
0.00439799
0.00438524
0.00437204
0.00435835
0.00434413
0.00432932
0.0043139
0.00429789
0.00428132
0.00426423
0.00424663
0.00422855
0.00421002
0.00419105
0.00417168
0.00415194
0.00413181
0.00411117
0.00408939
0.00406451
0.00403202
9.49786e-06
0.000100369
0.000208565
0.000298429
0.000370425
0.000427272
0.00047259
0.000509499
0.000540465
0.00056738
0.000591661
0.000614338
0.000636143
0.000657583
0.000678999
0.000700625
0.000722623
0.000745123
0.000768224
0.000791975
0.000816427
0.000841631
0.00086763
0.00089446
0.000922144
0.00095069
0.000980076
0.00101039
0.0010416
0.00107365
0.00110648
0.00114003
0.00117424
0.00120903
0.00124435
0.00128016
0.00131642
0.00135309
0.00139004
0.00142732
0.0014649
0.0015028
0.00154099
0.00157944
0.00161811
0.00165698
0.00169604
0.00173529
0.00177473
0.00181435
0.00185416
0.00189416
0.00193434
0.00197471
0.00201526
0.00205599
0.0020969
0.002138
0.00217926
0.0022207
0.00226232
0.00230409
0.00234603
0.00238813
0.00243038
0.00247277
0.0025153
0.00255795
0.00260073
0.00264362
0.0026866
0.00272967
0.00277282
0.00281602
0.00285928
0.00290256
0.00294587
0.00298917
0.00303246
0.00307571
0.00311891
0.00316203
0.00320506
0.00324798
0.00329076
0.00333339
0.00337583
0.00341807
0.00346009
0.00350186
0.00354335
0.00358455
0.00362542
0.00366595
0.00370612
0.00374589
0.00378524
0.00382416
0.00386262
0.00390059
0.00393805
0.00397497
0.00401134
0.00404711
0.00408227
0.0041168
0.00415065
0.00418382
0.00421628
0.00424799
0.00427894
0.0043091
0.00433845
0.00436696
0.00439461
0.00442138
0.00444724
0.00447218
0.00449618
0.00451921
0.00454125
0.0045623
0.00458233
0.00460134
0.00461929
0.0046362
0.00465219
0.00466716
0.00468106
0.00469383
0.00470542
0.00471601
0.00472549
0.00473387
0.00474118
0.00474743
0.00475263
0.00475681
0.00475997
0.00476215
0.00476335
0.0047636
0.00476293
0.00476136
0.00475892
0.00475564
0.00475155
0.00474668
0.00474106
0.00473473
0.00472771
0.00472004
0.00471174
0.00470286
0.00469341
0.00468343
0.00467293
0.00466194
0.00465049
0.00463857
0.00462621
0.00461339
0.00460011
0.00458634
0.00457204
0.0045572
0.00454182
0.00452591
0.0045095
0.00449261
0.00447526
0.00445747
0.00443928
0.00442074
0.00440189
0.00438276
0.00436327
0.00434294
0.00432021
0.00429229
1.02086e-05
0.000104095
0.000216415
0.000311004
0.000387504
0.00044873
0.000498012
0.000538428
0.000572448
0.000602006
0.000628576
0.000653259
0.000676865
0.000699986
0.000723012
0.000746182
0.00076965
0.000793494
0.000817922
0.000843045
0.000868925
0.000895602
0.000923103
0.000951446
0.000980642
0.0010107
0.00104162
0.00107338
0.00110594
0.00113925
0.00117324
0.00120787
0.00124308
0.00127882
0.00131504
0.0013517
0.00138877
0.00142621
0.00146402
0.00150215
0.00154057
0.00157924
0.00161811
0.00165718
0.00169642
0.00173581
0.00177534
0.00181502
0.00185484
0.00189482
0.00193494
0.00197522
0.00201566
0.00205625
0.002097
0.00213791
0.00217898
0.00222022
0.00226162
0.00230318
0.00234491
0.0023868
0.00242886
0.00247108
0.00251346
0.00255599
0.00259868
0.00264152
0.0026845
0.00272761
0.00277085
0.00281421
0.00285768
0.00290124
0.00294489
0.00298862
0.0030324
0.00307622
0.00312007
0.00316393
0.00320778
0.0032516
0.00329538
0.00333909
0.00338271
0.00342621
0.00346959
0.0035128
0.00355583
0.00359866
0.00364126
0.0036836
0.00372566
0.00376741
0.00380884
0.00384991
0.00389059
0.00393087
0.00397072
0.0040101
0.004049
0.00408739
0.00412525
0.00416253
0.00419923
0.0042353
0.00427073
0.00430549
0.00433955
0.00437288
0.00440546
0.00443727
0.00446827
0.00449844
0.00452776
0.0045562
0.00458374
0.00461036
0.00463603
0.00466073
0.00468444
0.00470714
0.00472882
0.00474945
0.00476902
0.00478755
0.00480509
0.00482155
0.00483695
0.00485123
0.00486436
0.00487643
0.00488732
0.00489706
0.00490569
0.00491323
0.00491968
0.00492507
0.0049294
0.0049327
0.00493499
0.00493628
0.00493661
0.00493599
0.00493447
0.00493207
0.00492881
0.00492474
0.00491989
0.00491429
0.00490797
0.00490098
0.00489334
0.00488508
0.00487625
0.00486686
0.00485695
0.00484653
0.00483565
0.0048243
0.0048125
0.00480027
0.00478759
0.00477445
0.00476084
0.00474674
0.00473215
0.00471708
0.00470153
0.00468553
0.00466911
0.00465228
0.00463509
0.0046176
0.00459986
0.00458194
0.00456381
0.00454508
0.00452454
0.00450057
1.07482e-05
0.000106662
0.000221992
0.000320416
0.000400773
0.000465903
0.000518835
0.00056256
0.000599523
0.000631664
0.000660512
0.000687164
0.000712404
0.000736751
0.000760814
0.000784973
0.000809487
0.000834568
0.000860339
0.000886812
0.000914011
0.000941965
0.000970692
0.0010002
0.0010305
0.00106157
0.0010934
0.00112595
0.00115916
0.00119301
0.00122745
0.00126244
0.00129794
0.0013339
0.00137028
0.00140705
0.00144416
0.00148159
0.00151929
0.00155725
0.00159542
0.00163383
0.00167248
0.00171144
0.0017505
0.0017896
0.00182877
0.00186801
0.00190735
0.00194679
0.00198636
0.00202604
0.00206586
0.00210581
0.00214591
0.00218615
0.00222656
0.00226713
0.00230787
0.00234878
0.00238988
0.00243117
0.00247264
0.00251431
0.00255618
0.00259824
0.0026405
0.00268295
0.0027256
0.00276844
0.00281146
0.00285466
0.00289803
0.00294156
0.00298524
0.00302906
0.00307299
0.00311704
0.00316118
0.00320539
0.00324966
0.00329396
0.00333828
0.00338259
0.00342687
0.0034711
0.00351525
0.0035593
0.00360322
0.00364698
0.00369056
0.00373393
0.00377707
0.00381995
0.00386254
0.00390481
0.00394673
0.00398828
0.00402944
0.00407016
0.00411043
0.00415022
0.00418949
0.00422822
0.00426639
0.00430396
0.00434091
0.0043772
0.00441282
0.00444773
0.0044819
0.00451531
0.00454794
0.00457974
0.00461071
0.00464081
0.00467001
0.00469829
0.00472564
0.00475201
0.00477739
0.00480177
0.0048251
0.00484739
0.00486862
0.00488878
0.00490789
0.00492591
0.00494289
0.00495874
0.00497345
0.0049871
0.00499943
0.0050106
0.00502063
0.00502954
0.00503733
0.00504401
0.0050496
0.00505411
0.00505757
0.00506
0.00506142
0.00506186
0.00506135
0.00505992
0.00505761
0.00505444
0.00505046
0.0050457
0.00504019
0.00503398
0.0050271
0.00501959
0.00501148
0.00500281
0.00499361
0.0049839
0.00497372
0.00496308
0.004952
0.0049405
0.00492857
0.00491622
0.00490344
0.00489022
0.00487656
0.00486246
0.00484793
0.00483299
0.00481765
0.00480196
0.00478594
0.00476967
0.00475322
0.00473667
0.00472001
0.00470297
0.00468458
0.00466407
1.11251e-05
0.000108223
0.000225541
0.000326942
0.00041052
0.000479054
0.000535273
0.000582062
0.000621774
0.000656228
0.00068679
0.000714859
0.000741409
0.000767227
0.00079278
0.000818333
0.000844124
0.00087032
0.000896991
0.000924232
0.000952111
0.000980663
0.00100991
0.00103984
0.00107047
0.00110176
0.0011337
0.00116625
0.00119937
0.00123303
0.00126718
0.00130179
0.00133683
0.00137224
0.00140799
0.00144405
0.00148037
0.00151694
0.00155372
0.00159064
0.00162776
0.00166513
0.00170287
0.00174075
0.00177866
0.0018166
0.00185451
0.00189241
0.00193036
0.00196837
0.00200647
0.00204469
0.00208302
0.0021215
0.00216012
0.00219892
0.0022379
0.00227707
0.00231646