/*--------------------------------*- C++ -*----------------------------------*\
  =========                 |
  \\      /  F ield         | OpenFOAM: The Open Source CFD Toolbox
   \\    /   O peration     | Website:  https://openfoam.org
    \\  /    A nd           | Version:  9
     \\/     M anipulation  |
\*---------------------------------------------------------------------------*/
FoamFile
{
    format      ascii;
    class       volScalarField;
    location    "250";
    object      p;
}
// * * * * * * * * * * * * * * * * * * * * * * * * * * * * * * * * * * * * * //

dimensions      [0 2 -2 0 0 0 0];

internalField   nonuniform List<scalar> 
12225
(
-1.34097
-3.52957
-4.62965
-4.9504
-5.13183
-5.30106
-5.43286
-5.52837
-5.60544
-5.67343
-5.73419
-5.79004
-5.84114
-5.88929
-5.93497
-5.97427
-6.0233
-6.00307
-4.50439
-5.27288
-5.43339
-5.34126
-5.32887
-5.39693
-5.47474
-5.54084
-5.60091
-5.65893
-5.71429
-5.76616
-5.81531
-5.86207
-5.90752
-5.94862
-5.99595
-6.03139
-4.90553
-4.89056
-5.01797
-5.09644
-5.19148
-5.31183
-5.41933
-5.50451
-5.57678
-5.64269
-5.70353
-5.75937
-5.81172
-5.86099
-5.90876
-5.95305
-6.00307
-6.04723
-4.78359
-4.72671
-4.96837
-5.12679
-5.22866
-5.33504
-5.43299
-5.51336
-5.58253
-5.64615
-5.70541
-5.76029
-5.81201
-5.86098
-5.9086
-5.95418
-6.00316
-6.05112
-4.77324
-4.79771
-5.02583
-5.16747
-5.25122
-5.34345
-5.43491
-5.51293
-5.58088
-5.64361
-5.70237
-5.75714
-5.80892
-5.85821
-5.90621
-5.95295
-6.00156
-6.0512
-4.83118
-4.88016
-5.05449
-5.17848
-5.26012
-5.34811
-5.43638
-5.51317
-5.58051
-5.64268
-5.70104
-5.75568
-5.80741
-5.85683
-5.90496
-5.95213
-6.00024
-6.04948
-4.8915
-4.93577
-5.071
-5.18741
-5.27127
-5.35555
-5.43968
-5.51458
-5.581
-5.64242
-5.7002
-5.75453
-5.80606
-5.85542
-5.90344
-5.95058
-5.99799
-6.04593
-4.945
-4.98267
-5.09268
-5.20104
-5.28414
-5.36388
-5.44347
-5.51619
-5.58153
-5.6421
-5.6992
-5.75312
-5.80437
-5.85353
-5.90127
-5.94804
-5.99453
-6.04085
-4.99469
-5.02784
-5.1188
-5.21682
-5.29699
-5.37248
-5.4478
-5.51811
-5.58217
-5.64176
-5.69807
-5.75144
-5.80226
-5.85105
-5.89832
-5.94445
-5.98985
-6.03445
-5.04168
-5.07095
-5.14651
-5.23377
-5.31004
-5.38168
-5.45292
-5.52058
-5.58309
-5.64152
-5.69689
-5.74955
-5.79978
-5.848
-5.89461
-5.93989
-5.98408
-6.02698
-5.08592
-5.11143
-5.17466
-5.25186
-5.3236
-5.3915
-5.45882
-5.52363
-5.58435
-5.64147
-5.69575
-5.74752
-5.79699
-5.84447
-5.89025
-5.93452
-5.97742
-6.01869
-5.12387
-5.14622
-5.20044
-5.26929
-5.33645
-5.40089
-5.46478
-5.52691
-5.58583
-5.6416
-5.69476
-5.74557
-5.79421
-5.84087
-5.88576
-5.92901
-5.9707
-6.01056
-5.15889
-5.17862
-5.22545
-5.28685
-5.34937
-5.4104
-5.47104
-5.53051
-5.58753
-5.64187
-5.69382
-5.74359
-5.79129
-5.83704
-5.88098
-5.92317
-5.96367
-6.00221
-5.19557
-5.21276
-5.25278
-5.3068
-5.36413
-5.4213
-5.47844
-5.53493
-5.5897
-5.6423
-5.69278
-5.74126
-5.78778
-5.83239
-5.87517
-5.91612
-5.95528
-5.99244
-5.23264
-5.24742
-5.28142
-5.3285
-5.38037
-5.43334
-5.48678
-5.54006
-5.59227
-5.64282
-5.69156
-5.73849
-5.78358
-5.82683
-5.86824
-5.9078
-5.94552
-5.98125
-5.26813
-5.28075
-5.30968
-5.35061
-5.39715
-5.44583
-5.49552
-5.54551
-5.59496
-5.64322
-5.68998
-5.73513
-5.77858
-5.82026
-5.86015
-5.89821
-5.93444
-5.96873
-5.29913
-5.31
-5.33494
-5.37086
-5.4127
-5.45737
-5.50355
-5.55039
-5.59709
-5.64298
-5.68765
-5.7309
-5.77259
-5.8126
-5.85089
-5.88741
-5.92215
-5.95506
-5.32129
-5.33093
-5.35317
-5.3856
-5.424
-5.46557
-5.50893
-5.55318
-5.59751
-5.64126
-5.684
-5.72544
-5.76542
-5.80382
-5.84056
-5.87561
-5.90895
-5.94057
-5.32771
-5.33686
-5.35805
-5.38916
-5.42619
-5.46639
-5.50834
-5.55117
-5.59409
-5.63646
-5.67782
-5.71791
-5.75654
-5.79364
-5.82911
-5.86295
-5.89514
-5.92571
-5.3113
-5.32106
-5.34363
-5.37666
-5.4156
-5.45721
-5.50007
-5.54346
-5.58669
-5.62911
-5.67028
-5.71002
-5.74819
-5.78473
-5.81959
-5.85278
-5.88432
-5.91427
-5.28425
-5.29504
-5.32028
-5.35725
-5.39996
-5.44438
-5.48936
-5.53447
-5.57897
-5.62218
-5.66379
-5.70372
-5.74192
-5.77836
-5.81303
-5.84597
-5.87723
-5.90689
-5.2489
-5.2607
-5.29003
-5.33357
-5.38177
-5.42967
-5.47738
-5.52498
-5.5714
-5.61585
-5.65823
-5.69863
-5.7371
-5.77362
-5.80825
-5.84108
-5.87218
-5.90166
-5.20826
-5.22014
-5.25457
-5.30779
-5.36326
-5.41513
-5.46592
-5.51625
-5.56463
-5.61038
-5.65366
-5.69471
-5.73356
-5.77028
-5.80498
-5.8378
-5.86884
-5.89824
-5.16449
-5.17545
-5.2172
-5.28157
-5.34368
-5.40027
-5.45579
-5.50953
-5.55968
-5.60637
-5.65035
-5.6919
-5.73103
-5.76786
-5.80257
-5.83535
-5.86632
-5.89561
-5.11751
-5.12301
-5.18564
-5.2638
-5.32567
-5.38383
-5.44488
-5.50312
-5.55552
-5.60346
-5.64834
-5.69048
-5.72989
-5.76681
-5.8015
-5.83421
-5.8651
-5.89436
-5.07418
-5.03784
-5.14735
-5.25827
-5.32045
-5.37565
-5.43776
-5.49739
-5.5505
-5.5991
-5.64469
-5.68737
-5.72711
-5.76422
-5.79903
-5.8318
-5.86272
-5.892
-5.08839
-4.92942
-5.05831
-5.21234
-5.30238
-5.37366
-5.44249
-5.50329
-5.55598
-5.60414
-5.6493
-5.69144
-5.73061
-5.76716
-5.80142
-5.8337
-5.86421
-5.89321
-5.21157
-5.03118
-5.04532
-5.1174
-5.2057
-5.30484
-5.39543
-5.4691
-5.53069
-5.58571
-5.6359
-5.68156
-5.72324
-5.76162
-5.7972
-5.83044
-5.86178
-5.89186
-4.91894
-5.51002
-5.59882
-5.47452
-5.42012
-5.44719
-5.49408
-5.53721
-5.57865
-5.62072
-5.6621
-5.70131
-5.73815
-5.77277
-5.80523
-5.83568
-5.86434
-5.89299
-1.92961
-3.6929
-4.69757
-4.99666
-5.14577
-5.28931
-5.40325
-5.4841
-5.54822
-5.60497
-5.65611
-5.70204
-5.7436
-5.78172
-5.8169
-5.84895
-5.87771
-5.90144
-6.76791
-6.76795
-6.76836
-6.76918
-6.77025
-6.77154
-6.77304
-6.77479
-6.77683
-6.77919
-6.78193
-6.78508
-6.78868
-6.79279
-6.79744
-6.8027
-6.80859
-6.81516
-6.82246
-6.83051
-6.83935
-6.84902
-6.8596
-6.8712
-6.88387
-6.89768
-6.91274
-6.92917
-6.94688
-6.96484
-6.98165
-6.99769
-7.01555
-7.0369
-7.06071
-7.08571
-7.11139
-7.13885
-7.16888
-7.19588
-7.21833
-7.24057
-7.26463
-7.29081
-7.31833
-7.34666
-7.37556
-7.40486
-7.43439
-7.46406
-7.49376
-7.52338
-7.55283
-7.58201
-7.61083
-7.63919
-7.66698
-7.6941
-7.72043
-7.74586
-7.77026
-7.7935
-7.81543
-7.83594
-7.85485
-7.87202
-7.88728
-7.90048
-7.91143
-7.91997
-7.9259
-7.92904
-7.92919
-7.92618
-7.91979
-7.90983
-7.89611
-7.87841
-7.85653
-7.83028
-7.79945
-7.76386
-7.72329
-7.67756
-7.62649
-7.5699
-7.50759
-7.43941
-7.36519
-7.2848
-7.19809
-7.10497
-7.00529
-6.89901
-6.78611
-6.66669
-6.5406
-6.40732
-6.26667
-6.11889
-5.96404
-5.80219
-5.63336
-5.4576
-5.27498
-5.08558
-4.88949
-4.68684
-4.47775
-4.26238
-4.04089
-3.81346
-3.5803
-3.34161
-3.09762
-2.84858
-2.59473
-2.33635
-2.07368
-1.80702
-1.53665
-1.26288
-0.985997
-0.706312
-0.424117
-0.139718
0.146595
0.434515
0.723754
1.01402
1.30505
1.59652
1.88817
2.17972
2.47091
2.7615
3.05125
3.33994
3.62735
3.91327
4.1975
4.47985
4.76017
5.03829
5.31408
5.5874
5.85812
6.12614
6.39134
6.65364
6.91294
7.16917
7.42224
7.67211
7.91869
8.16193
8.40176
8.63813
8.87098
9.10024
9.32587
9.54781
9.76607
9.98062
10.1912
10.3974
10.5992
10.7965
10.9892
11.177
11.36
11.5379
11.7106
11.878
12.0402
12.1973
12.3506
12.5014
12.6624
12.8298
-6.76656
-6.7669
-6.76748
-6.7682
-6.76885
-6.76946
-6.77016
-6.77113
-6.77245
-6.77416
-6.7763
-6.7789
-6.78198
-6.78556
-6.78966
-6.79434
-6.79962
-6.80554
-6.81215
-6.81947
-6.82754
-6.83639
-6.84604
-6.85649
-6.86773
-6.87979
-6.89259
-6.90605
-6.91983
-6.93394
-6.94977
-6.96886
-6.99028
-7.01119
-7.03089
-7.05039
-7.07135
-7.09403
-7.11642
-7.1422
-7.17379
-7.2067
-7.23788
-7.26757
-7.29673
-7.32584
-7.35506
-7.38442
-7.4139
-7.44342
-7.47294
-7.50236
-7.53161
-7.56059
-7.58923
-7.61742
-7.64507
-7.67207
-7.69831
-7.72367
-7.74804
-7.77129
-7.79327
-7.81386
-7.8329
-7.85023
-7.86571
-7.87916
-7.89041
-7.89929
-7.90562
-7.9092
-7.90986
-7.90739
-7.9016
-7.8923
-7.87927
-7.86233
-7.84127
-7.81589
-7.78599
-7.75137
-7.71184
-7.66721
-7.6173
-7.56192
-7.5009
-7.43407
-7.36127
-7.28235
-7.1972
-7.10567
-7.00764
-6.90298
-6.79156
-6.67319
-6.54769
-6.41527
-6.27606
-6.12992
-5.97679
-5.81668
-5.64961
-5.47561
-5.29475
-5.10711
-4.91277
-4.71185
-4.50448
-4.2908
-4.07097
-3.84518
-3.61361
-3.37648
-3.13401
-2.88643
-2.634
-2.37698
-2.11562
-1.85021
-1.58103
-1.30839
-1.03258
-0.753888
-0.472628
-0.189094
0.0964104
0.383589
0.67215
0.961817
1.2523
1.54331
1.83456
2.12577
2.41668
2.70706
2.99666
3.28525
3.57262
3.85856
4.14285
4.42532
4.7058
4.98413
5.26016
5.53376
5.80481
6.07319
6.33878
6.60151
6.86127
7.11798
7.37158
7.62199
7.86914
8.11299
8.35346
8.5905
8.82403
9.054
9.28037
9.50305
9.72189
9.93661
10.147
10.3532
10.5549
10.7522
10.9449
11.1329
11.3161
11.4943
11.6673
11.8352
11.9981
12.1563
12.3114
12.4641
12.6279
12.789
-6.76229
-6.76337
-6.76491
-6.76615
-6.7669
-6.76738
-6.76787
-6.76857
-6.76959
-6.77102
-6.7729
-6.77525
-6.77811
-6.78148
-6.7854
-6.7899
-6.79501
-6.80077
-6.80721
-6.81435
-6.82225
-6.83092
-6.84041
-6.85072
-6.86185
-6.8738
-6.88658
-6.90015
-6.91442
-6.92946
-6.94594
-6.96456
-6.98512
-7.00661
-7.02856
-7.05095
-7.0737
-7.09641
-7.11851
-7.14144
-7.16691
-7.19434
-7.22269
-7.25131
-7.27998
-7.30871
-7.33754
-7.36646
-7.39544
-7.42446
-7.45345
-7.48235
-7.51109
-7.53958
-7.56775
-7.5955
-7.62274
-7.64936
-7.67527
-7.70033
-7.72444
-7.74747
-7.76929
-7.78975
-7.80871
-7.82602
-7.84153
-7.85506
-7.86645
-7.87552
-7.88209
-7.88599
-7.88702
-7.88499
-7.8797
-7.87096
-7.85857
-7.84234
-7.82205
-7.79751
-7.76852
-7.73488
-7.69641
-7.6529
-7.60417
-7.55005
-7.49036
-7.42492
-7.35358
-7.27619
-7.1926
-7.10269
-7.00633
-6.90341
-6.7938
-6.67735
-6.55391
-6.42352
-6.28628
-6.14213
-5.99102
-5.83297
-5.66798
-5.49608
-5.31733
-5.1318
-4.93958
-4.74077
-4.5355
-4.32391
-4.10615
-3.8824
-3.65285
-3.41769
-3.17717
-2.9315
-2.68092
-2.42571
-2.16611
-1.9024
-1.63487
-1.36381
-1.08951
-0.81228
-0.53241
-0.250197
0.0340476
0.320033
0.607468
0.896083
1.18558
1.47567
1.76607
2.05651
2.34672
2.63646
2.92548
3.21356
3.50047
3.78601
4.06995
4.35213
4.63236
4.91048
5.18636
5.45984
5.7308
5.99912
6.26469
6.52741
6.78719
7.04394
7.29759
7.54807
7.7953
8.03921
8.27973
8.51682
8.75041
8.98045
9.20689
9.42968
9.64876
9.86393
10.075
10.282
10.4846
10.6827
10.8763
11.0653
11.2494
11.4285
11.6027
11.7719
11.9364
12.0964
12.2538
12.4086
12.5745
12.7229
-6.75549
-6.75743
-6.7604
-6.76276
-6.76422
-6.7652
-6.76601
-6.76689
-6.76798
-6.7694
-6.77123
-6.77351
-6.77628
-6.77958
-6.78342
-6.78784
-6.79287
-6.79853
-6.80486
-6.81189
-6.81965
-6.82817
-6.83748
-6.84762
-6.8586
-6.87043
-6.88312
-6.89666
-6.91104
-6.92634
-6.94279
-6.96065
-6.97992
-7.00032
-7.02168
-7.04396
-7.067
-7.09049
-7.11417
-7.13823
-7.16315
-7.18909
-7.21593
-7.24337
-7.27119
-7.29926
-7.32753
-7.35594
-7.38445
-7.413
-7.44155
-7.47003
-7.49837
-7.52649
-7.55431
-7.58174
-7.6087
-7.63507
-7.66076
-7.68565
-7.70962
-7.73255
-7.75431
-7.77475
-7.79374
-7.81112
-7.82674
-7.84043
-7.85202
-7.86134
-7.86821
-7.87244
-7.87386
-7.87226
-7.86746
-7.85926
-7.84745
-7.83184
-7.81224
-7.78843
-7.76022
-7.72741
-7.68981
-7.64722
-7.59947
-7.54636
-7.48773
-7.42339
-7.35319
-7.27697
-7.19459
-7.10591
-7.0108
-6.90913
-6.8008
-6.68568
-6.5637
-6.43484
-6.29912
-6.1565
-6.00695
-5.85046
-5.68704
-5.51673
-5.33958
-5.15564
-4.96502
-4.7678
-4.56411
-4.35408
-4.13788
-3.91566
-3.68762
-3.45396
-3.2149
-2.97065
-2.72147
-2.46761
-2.20933
-1.9469
-1.6806
-1.41073
-1.13757
-0.861427
-0.582598
-0.30138
-0.0180783
0.267012
0.553611
0.841443
1.1302
1.4196
1.70936
1.99922
2.28891
2.57817
2.86677
3.15448
3.44106
3.72629
4.00999
4.29195
4.57201
4.85
5.12577
5.39917
5.67008
5.93837
6.20393
6.46666
6.72647
6.98326
7.23695
7.48747
7.73475
7.97871
8.21929
8.45645
8.69012
8.92025
9.14677
9.36962
9.58875
9.80405
10.0154
10.2227
10.4257
10.6242
10.8183
11.0077
11.1924
11.3722
11.547
11.717
11.8824
12.0434
12.2018
12.3565
12.5205
12.6545
-6.74781
-6.75068
-6.75529
-6.759
-6.76142
-6.76313
-6.76453
-6.76585
-6.76728
-6.76896
-6.77099
-6.77343
-6.77634
-6.77976
-6.78371
-6.78824
-6.79338
-6.79916
-6.8056
-6.81274
-6.82061
-6.82924
-6.83867
-6.84891
-6.86002
-6.87199
-6.88486
-6.89863
-6.91332
-6.92898
-6.9457
-6.96356
-6.98252
-7.00247
-7.02331
-7.045
-7.06747
-7.09063
-7.1144
-7.13875
-7.16375
-7.1894
-7.21566
-7.24243
-7.26962
-7.29712
-7.32487
-7.35282
-7.3809
-7.40906
-7.43724
-7.46537
-7.49338
-7.52121
-7.54876
-7.57596
-7.6027
-7.62889
-7.65443
-7.67921
-7.7031
-7.72598
-7.74771
-7.76818
-7.78721
-7.80468
-7.82041
-7.83425
-7.84602
-7.85556
-7.86269
-7.86721
-7.86895
-7.86771
-7.8633
-7.85552
-7.84417
-7.82905
-7.80997
-7.78671
-7.75909
-7.7269
-7.68995
-7.64805
-7.601
-7.54863
-7.49076
-7.42721
-7.35782
-7.28244
-7.20092
-7.11312
-7.0189
-6.91815
-6.81076
-6.69662
-6.57567
-6.44787
-6.3132
-6.17163
-6.02312
-5.86769
-5.70533
-5.53608
-5.35999
-5.17711
-4.98754
-4.79137
-4.58872
-4.37972
-4.16453
-3.94332
-3.71627
-3.48358
-3.24547
-3.00216
-2.75389
-2.50091
-2.24349
-1.98189
-1.7164
-1.44731
-1.1749
-0.899485
-0.621344
-0.340793
-0.0581236
0.226364
0.512408
0.799707
1.08796
1.37687
1.6662
1.95565
2.24498
2.53391
2.82221
3.10964
3.39598
3.681
3.96451
4.24632
4.52624
4.80413
5.07982
5.35317
5.62405
5.89233
6.1579
6.42066
6.68051
6.93736
7.19112
7.44172
7.6891
7.93318
8.1739
8.41119
8.64499
8.87523
9.10183
9.32472
9.54383
9.75909
9.97042
10.1777
10.3807
10.5794
10.7737
10.9633
11.1482
11.3282
11.5034
11.6738
11.8395
12.0008
12.159
12.3122
12.4723
12.5933
-6.74084
-6.74457
-6.75069
-6.7557
-6.75913
-6.76165
-6.76373
-6.76564
-6.76756
-6.76966
-6.77205
-6.77482
-6.77803
-6.78173
-6.78597
-6.79077
-6.79618
-6.80223
-6.80894
-6.81636
-6.82452
-6.83344
-6.84315
-6.8537
-6.86509
-6.87737
-6.89054
-6.90461
-6.91962
-6.93557
-6.95251
-6.97045
-6.98936
-7.00918
-7.02984
-7.05127
-7.07341
-7.09622
-7.11968
-7.14376
-7.16846
-7.19374
-7.21956
-7.24585
-7.27256
-7.29961
-7.32694
-7.3545
-7.38222
-7.41006
-7.43794
-7.4658
-7.49357
-7.52118
-7.54854
-7.57558
-7.60219
-7.62828
-7.65374
-7.67847
-7.70234
-7.72523
-7.74701
-7.76753
-7.78666
-7.80425
-7.82012
-7.83413
-7.84611
-7.85587
-7.86323
-7.86802
-7.87005
-7.86912
-7.86505
-7.85762
-7.84664
-7.83192
-7.81325
-7.79043
-7.76326
-7.73154
-7.69508
-7.65368
-7.60715
-7.55531
-7.49799
-7.435
-7.36619
-7.29139
-7.21047
-7.12327
-7.02968
-6.92957
-6.82282
-6.70936
-6.5891
-6.46201
-6.32803
-6.18714
-6.03933
-5.88458
-5.7229
-5.55433
-5.37891
-5.19671
-5.0078
-4.81229
-4.6103
-4.40195
-4.1874
-3.96682
-3.74039
-3.50832
-3.2708
-3.02808
-2.78039
-2.52797
-2.2711
-2.01005
-1.74509
-1.47651
-1.20461
-0.929678
-0.652016
-0.371928
-0.0897118
0.194351
0.479982
0.766875
1.05472
1.34326
1.63223
1.92136
2.21036
2.499
2.78702
3.07418
3.36026
3.64505
3.92834
4.20995
4.4897
4.76742
5.04297
5.31619
5.58695
5.85514
6.12063
6.38332
6.64311
6.89992
7.15367
7.40427
7.65166
7.89576
8.13651
8.37384
8.60768
8.83797
9.06462
9.28756
9.50669
9.72194
9.93324
10.1405
10.3436
10.5424
10.7367
10.9264
11.1115
11.2918
11.4672
11.6378
11.8036
11.9647
12.1222
12.2732
12.4296
12.5391
-6.7357
-6.7402
-6.74752
-6.75363
-6.75798
-6.7613
-6.76408
-6.76661
-6.76908
-6.77167
-6.77451
-6.7777
-6.7813
-6.78538
-6.78999
-6.79516
-6.80093
-6.80734
-6.81442
-6.82221
-6.83072
-6.84001
-6.85008
-6.86097
-6.8727
-6.88529
-6.89876
-6.91311
-6.92836
-6.94451
-6.96157
-6.97954
-6.99839
-7.01808
-7.03858
-7.05982
-7.08176
-7.10436
-7.12759
-7.15143
-7.17585
-7.20082
-7.2263
-7.25224
-7.2786
-7.30531
-7.33233
-7.3596
-7.38707
-7.41467
-7.44234
-7.47002
-7.49763
-7.52512
-7.55238
-7.57934
-7.6059
-7.63197
-7.65744
-7.68219
-7.70611
-7.72908
-7.75095
-7.77159
-7.79085
-7.80859
-7.82464
-7.83884
-7.85102
-7.861
-7.8686
-7.87364
-7.87593
-7.87527
-7.87148
-7.86434
-7.85367
-7.83926
-7.8209
-7.79841
-7.77157
-7.74019
-7.70408
-7.66303
-7.61686
-7.56538
-7.50842
-7.44581
-7.37737
-7.30295
-7.22241
-7.1356
-7.04239
-6.94267
-6.83633
-6.72328
-6.60345
-6.47677
-6.3432
-6.20272
-6.05531
-5.90095
-5.73967
-5.57148
-5.39645
-5.21462
-5.02609
-4.83095
-4.62932
-4.42134
-4.20715
-3.98692
-3.76084
-3.52911
-3.29194
-3.04955
-2.8022
-2.55012
-2.29358
-2.03286
-1.76823
-1.49998
-1.22841
-0.953799
-0.676468
-0.396705
-0.114815
0.168937
0.454243
0.740805
1.02832
1.31655
1.60522
1.89404
2.18275
2.4711
2.75883
3.04571
3.33152
3.61604
3.89907
4.18043
4.45993
4.73742
5.01274
5.28575
5.55631
5.82429
6.0896
6.35212
6.61176
6.86842
7.12204
7.37252
7.6198
7.86381
8.10448
8.34175
8.57554
8.8058
9.03244
9.25538
9.47452
9.68978
9.90109
10.1084
10.3115
10.5104
10.7048
10.8947
11.0799
11.2604
11.436
11.6066
11.7724
11.9331
12.0896
12.2384
12.3912
12.4907
-6.73314
-6.7382
-6.74635
-6.75329
-6.7584
-6.76243
-6.76586
-6.76897
-6.77198
-6.77508
-6.77838
-6.78201
-6.78604
-6.79054
-6.79554
-6.80111
-6.80728
-6.81407
-6.82154
-6.8297
-6.83859
-6.84824
-6.85866
-6.86988
-6.88192
-6.8948
-6.90852
-6.92309
-6.93852
-6.95481
-6.97195
-6.98993
-7.00873
-7.02833
-7.04868
-7.06976
-7.09152
-7.11394
-7.13699
-7.16063
-7.18485
-7.2096
-7.23486
-7.26057
-7.28669
-7.31319
-7.34001
-7.3671
-7.3944
-7.42186
-7.44942
-7.47702
-7.50457
-7.53202
-7.55927
-7.58624
-7.61283
-7.63895
-7.66449
-7.68934
-7.71337
-7.73647
-7.75848
-7.77928
-7.79872
-7.81664
-7.83288
-7.84728
-7.85967
-7.86986
-7.87768
-7.88294
-7.88546
-7.88503
-7.88146
-7.87456
-7.86411
-7.84993
-7.8318
-7.80953
-7.78292
-7.75176
-7.71586
-7.67502
-7.62907
-7.5778
-7.52105
-7.45864
-7.3904
-7.31618
-7.23583
-7.14921
-7.0562
-6.95667
-6.85052
-6.73767
-6.61802
-6.49154
-6.35816
-6.21785
-6.07061
-5.91642
-5.75529
-5.58726
-5.41238
-5.2307
-5.04232
-4.84732
-4.64584
-4.43799
-4.22395
-4.00386
-3.77793
-3.54635
-3.30932
-3.06709
-2.8199
-2.56798
-2.31161
-2.05107
-1.78662
-1.51857
-1.24719
-0.972798
-0.695686
-0.416155
-0.134493
0.149012
0.434053
0.720333
1.00758
1.29554
1.58394
1.87248
2.16091
2.44897
2.73641
3.023
3.30851
3.59273
3.87547
4.15654
4.43576
4.71296
4.988
5.26073
5.53102
5.79875
6.06381
6.32608
6.58549
6.84194
7.09534
7.34563
7.59273
7.83657
8.07709
8.31423
8.54791
8.77807
9.00463
9.22751
9.44662
9.66186
9.87317
10.0805
10.2836
10.4826
10.6771
10.8671
11.0525
11.2331
11.4088
11.5794
11.745
11.9052
12.0605
12.2069
12.3567
12.4477
-6.73342
-6.73883
-6.74745
-6.75494
-6.76061
-6.7652
-6.76917
-6.77279
-6.77629
-6.77984
-6.78358
-6.78763
-6.79205
-6.79693
-6.80232
-6.80825
-6.81478
-6.82193
-6.82975
-6.83825
-6.84747
-6.85743
-6.86816
-6.87966
-6.89196
-6.90506
-6.91898
-6.93371
-6.94927
-6.96565
-6.98283
-7.00081
-7.01957
-7.03909
-7.05935
-7.0803
-7.10194
-7.12423
-7.14714
-7.17065
-7.19472
-7.21933
-7.24445
-7.27003
-7.29603
-7.32241
-7.34913
-7.37613
-7.40337
-7.4308
-7.45834
-7.48594
-7.51352
-7.54101
-7.56833
-7.59538
-7.62208
-7.64832
-7.674
-7.69899
-7.72319
-7.74645
-7.76864
-7.78963
-7.80926
-7.82737
-7.84381
-7.85841
-7.87099
-7.88138
-7.88939
-7.89484
-7.89754
-7.89728
-7.89388
-7.88713
-7.87684
-7.8628
-7.84481
-7.82266
-7.79616
-7.76511
-7.7293
-7.68856
-7.64268
-7.59148
-7.53479
-7.47243
-7.40424
-7.33006
-7.24975
-7.16316
-7.07016
-6.97066
-6.86452
-6.75168
-6.63205
-6.50556
-6.37218
-6.23187
-6.08461
-5.9304
-5.76926
-5.6012
-5.42629
-5.24459
-5.05618
-4.86116
-4.65965
-4.45178
-4.23772
-4.01763
-3.79169
-3.56011
-3.3231
-3.08089
-2.83373
-2.58186
-2.32555
-2.06508
-1.80072
-1.53277
-1.26151
-0.987262
-0.710304
-0.430945
-0.149463
0.133826
0.418635
0.704662
0.991664
1.27937
1.56751
1.85577
2.14391
2.43167
2.7188
3.00508
3.29026
3.57416
3.85656
4.1373
4.41618
4.69306
4.96777
5.24018
5.51015
5.77757
6.04232
6.3043
6.56342
6.81959
7.07274
7.32278
7.56966
7.81329
8.05363
8.29059
8.52412
8.75414
8.98059
9.20337
9.42241
9.63761
9.84891
10.0562
10.2594
10.4584
10.653
10.8432
11.0286
11.2093
11.3851
11.5557
11.721
11.8805
12.0346
12.1786
12.3258
12.4094
-6.73653
-6.74206
-6.75082
-6.75856
-6.76459
-6.76958
-6.77395
-6.77798
-6.78187
-6.7858
-6.78991
-6.79429
-6.79905
-6.80426
-6.80996
-6.8162
-6.82303
-6.83047
-6.83857
-6.84734
-6.85681
-6.86701
-6.87796
-6.88966
-6.90214
-6.9154
-6.92945
-6.94429
-6.95992
-6.97634
-6.99354
-7.01151
-7.03024
-7.04971
-7.0699
-7.09078
-7.11234
-7.13454
-7.15738
-7.18081
-7.20482
-7.22937
-7.25443
-7.27997
-7.30593
-7.33229
-7.359
-7.38602
-7.41329
-7.44076
-7.46837
-7.49605
-7.52373
-7.55134
-7.57879
-7.606
-7.63285
-7.65927
-7.68512
-7.7103
-7.73469
-7.75814
-7.78053
-7.80171
-7.82153
-7.83983
-7.85645
-7.87122
-7.88397
-7.89451
-7.90267
-7.90825
-7.91106
-7.91091
-7.9076
-7.90093
-7.8907
-7.8767
-7.85874
-7.83661
-7.81011
-7.77905
-7.74322
-7.70244
-7.65651
-7.60525
-7.54849
-7.48605
-7.41777
-7.34349
-7.26306
-7.17636
-7.08325
-6.98361
-6.87735
-6.76437
-6.6446
-6.51797
-6.38445
-6.24398
-6.09657
-5.9422
-5.7809
-5.61269
-5.43762
-5.25576
-5.06719
-4.87202
-4.67037
-4.46238
-4.24819
-4.02798
-3.80194
-3.57027
-3.33318
-3.09091
-2.84371
-2.59181
-2.3355
-2.07504
-1.81071
-1.54282
-1.27165
-0.997504
-0.720676
-0.441463
-0.160163
0.122919
0.407495
0.693279
0.980029
1.26748
1.55533
1.84328
2.1311
2.41853
2.70531
2.99123
3.27605
3.55958
3.84161
4.12197
4.40047
4.67696
4.95129
5.22332
5.49292
5.75997
6.02436
6.286
6.54478
6.80064
7.05349
7.30325
7.54986
7.79324
8.03335
8.27011
8.50346
8.73332
8.95963
9.1823
9.40126
9.61641
9.82768
10.035
10.2382
10.4373
10.632
10.8222
11.0078
11.1885
11.3642
11.5347
11.6996
11.8584
12.0112
12.1531
12.2979
12.3755
-6.7422
-6.74767
-6.75627
-6.76401
-6.77019
-6.7754
-6.78003
-6.78433
-6.7885
-6.7927
-6.79707
-6.80172
-6.80672
-6.81216
-6.81808
-6.82454
-6.83157
-6.83921
-6.84748
-6.85643
-6.86606
-6.8764
-6.88747
-6.89929
-6.91187
-6.92521
-6.93933
-6.95422
-6.96988
-6.98632
-7.00353
-7.02149
-7.0402
-7.05964
-7.0798
-7.10065
-7.12218
-7.14436
-7.16717
-7.1906
-7.21461
-7.23918
-7.26426
-7.28983
-7.31585
-7.34227
-7.36906
-7.39617
-7.42354
-7.45113
-7.47888
-7.50671
-7.53455
-7.56233
-7.58996
-7.61735
-7.6444
-7.67101
-7.69706
-7.72244
-7.74702
-7.77066
-7.79323
-7.81458
-7.83456
-7.85301
-7.86977
-7.88466
-7.89751
-7.90814
-7.91636
-7.92199
-7.92484
-7.9247
-7.92138
-7.91469
-7.90441
-7.89035
-7.87231
-7.85008
-7.82347
-7.79228
-7.75631
-7.71537
-7.66927
-7.61783
-7.56087
-7.49823
-7.42973
-7.35523
-7.27458
-7.18764
-7.0943
-6.99442
-6.88791
-6.77468
-6.65466
-6.52778
-6.39399
-6.25327
-6.1056
-5.95098
-5.78942
-5.62096
-5.44564
-5.26354
-5.07474
-4.87935
-4.67748
-4.46928
-4.25491
-4.03453
-3.80833
-3.57652
-3.33931
-3.09694
-2.84966
-2.5977
-2.34136
-2.0809
-1.8166
-1.54876
-1.27767
-1.00363
-0.726938
-0.44789
-0.166796
0.11606
0.400379
0.685895
0.972359
1.25951
1.54702
1.83463
2.12209
2.40912
2.69551
2.98101
3.26541
3.5485
3.8301
4.11001
4.38807
4.66411
4.938
5.20959
5.47875
5.74538
6.00936
6.2706
6.52901
6.78451
7.03701
7.28645
7.53276
7.77587
8.01573
8.25226
8.48541
8.71509
8.94125
9.16381
9.38267
9.59777
9.80902
10.0163
10.2196
10.4187
10.6135
10.8038
10.9894
11.1702
11.3459
11.5162
11.6807
11.8387
11.9903
12.1302
12.2729
12.3453
-6.75004
-6.75528
-6.76349
-6.77101
-6.77714
-6.7824
-6.78713
-6.79157
-6.79589
-6.80024
-6.80475
-6.80954
-6.81467
-6.82023
-6.82626
-6.83281
-6.83993
-6.84764
-6.85599
-6.865
-6.87469
-6.88508
-6.8962
-6.90806
-6.92067
-6.93404
-6.94818
-6.96308
-6.97876
-6.9952
-7.01241
-7.03037
-7.04908
-7.06852
-7.08867
-7.10954
-7.13108
-7.1533
-7.17616
-7.19963
-7.2237
-7.24832
-7.27348
-7.29915
-7.32528
-7.35183
-7.37876
-7.40603
-7.43357
-7.46133
-7.48925
-7.51727
-7.5453
-7.57327
-7.6011
-7.62868
-7.65592
-7.68272
-7.70895
-7.7345
-7.75923
-7.78302
-7.80572
-7.82718
-7.84725
-7.86577
-7.88258
-7.8975
-7.91036
-7.92098
-7.92917
-7.93474
-7.93751
-7.93727
-7.93383
-7.92699
-7.91655
-7.90231
-7.88407
-7.86163
-7.83478
-7.80334
-7.76711
-7.7259
-7.67952
-7.62779
-7.57053
-7.50758
-7.43876
-7.36394
-7.28297
-7.19571
-7.10203
-7.00182
-6.89498
-6.78142
-6.66107
-6.53386
-6.39975
-6.2587
-6.11071
-5.95578
-5.79391
-5.62514
-5.44953
-5.26715
-5.07808
-4.88243
-4.68032
-4.4719
-4.25731
-4.03674
-3.81037
-3.57842
-3.34109
-3.09863
-2.85127
-2.59928
-2.34292
-2.08247
-1.81822
-1.55046
-1.27948
-1.00558
-0.72907
-0.45024
-0.16939
0.113194
0.397213
0.682405
0.968535
1.25531
1.54243
1.82961
2.11662
2.4032
2.68911
2.97413
3.25803
3.54061
3.82169
4.10109
4.37863
4.65416
4.92753
5.19862
5.46729
5.73343
5.99695
6.25774
6.51572
6.77081
7.02292
7.272
7.51798
7.76079
8.00036
8.23665
8.46957
8.69907
8.92507
9.1475
9.36627
9.58132
9.79255
9.99987
10.2032
10.4023
10.5972
10.7876
10.9733
11.1541
11.3297
11.4998
11.6638
11.821
11.9714
12.1094
12.2502
12.3185
-6.75958
-6.76448
-6.77212
-6.77924
-6.78515
-6.79029
-6.79497
-6.79939
-6.8037
-6.80806
-6.81258
-6.81736
-6.82249
-6.82803
-6.83404
-6.84057
-6.84766
-6.85535
-6.86368
-6.87266
-6.88232
-6.8927
-6.90379
-6.91563
-6.92822
-6.94157
-6.95569
-6.97058
-6.98624
-7.00268
-7.01988
-7.03784
-7.05656
-7.07603
-7.09622
-7.11713
-7.13873
-7.161
-7.18393
-7.20748
-7.23163
-7.25637
-7.28166
-7.30747
-7.33376
-7.36048
-7.3876
-7.41505
-7.44277
-7.47072
-7.49883
-7.52702
-7.55523
-7.58337
-7.61135
-7.63909
-7.66647
-7.69339
-7.71973
-7.74537
-7.77017
-7.79401
-7.81673
-7.83819
-7.85824
-7.87672
-7.89346
-7.90828
-7.92102
-7.93149
-7.93951
-7.9449
-7.94745
-7.94697
-7.94328
-7.93617
-7.92544
-7.91089
-7.89233
-7.86955
-7.84236
-7.81057
-7.77397
-7.73239
-7.68563
-7.63351
-7.57586
-7.51252
-7.44331
-7.3681
-7.28674
-7.19909
-7.10503
-7.00443
-6.89722
-6.78328
-6.66256
-6.53499
-6.40052
-6.25913
-6.11081
-5.95554
-5.79336
-5.62429
-5.44839
-5.26573
-5.0764
-4.8805
-4.67817
-4.46954
-4.25477
-4.03404
-3.80754
-3.57547
-3.33805
-3.09553
-2.84814
-2.59615
-2.33982
-2.07945
-1.8153
-1.54767
-1.27686
-1.00318
-0.726927
-0.448396
-0.167861
0.114366
0.397999
0.682786
0.968498
1.2548
1.54142
1.82809
2.11457
2.4006
2.68594
2.97038
3.25369
3.53568
3.81616
4.09496
4.3719
4.64683
4.91962
5.19013
5.45824
5.72384
5.98683
6.24712
6.50462
6.75925
7.01095
7.25963
7.50524
7.74772
7.987
8.22301
8.45571
8.68501
8.91085
9.13315
9.35184
9.56683
9.77804
9.98538
10.1887
10.388
10.5829
10.7734
10.9592
11.14
11.3155
11.4853
11.6489
11.8053
11.9545
12.0908
12.2298
12.2949
-6.77037
-6.77486
-6.78181
-6.78837
-6.79391
-6.79878
-6.80324
-6.80746
-6.81161
-6.81581
-6.82017
-6.82481
-6.82979
-6.83518
-6.84105
-6.84745
-6.85441
-6.86198
-6.87019
-6.87906
-6.88863
-6.89891
-6.90992
-6.92168
-6.93421
-6.9475
-6.96157
-6.97643
-6.99207
-7.0085
-7.0257
-7.04367
-7.0624
-7.08189
-7.10212
-7.12307
-7.14472
-7.16706
-7.19007
-7.21373
-7.23801
-7.26289
-7.28833
-7.3143
-7.34075
-7.36764
-7.39492
-7.42252
-7.4504
-7.47847
-7.5067
-7.535
-7.5633
-7.59152
-7.61957
-7.64735
-7.67476
-7.70167
-7.72799
-7.75357
-7.77829
-7.80202
-7.82461
-7.84592
-7.86578
-7.88405
-7.90055
-7.91512
-7.92757
-7.93774
-7.94544
-7.95048
-7.95267
-7.95182
-7.94774
-7.94023
-7.92908
-7.91412
-7.89513
-7.87192
-7.8443
-7.81206
-7.77502
-7.733
-7.6858
-7.63324
-7.57516
-7.51138
-7.44176
-7.36613
-7.28436
-7.19631
-7.10184
-7.00086
-6.89327
-6.77896
-6.65788
-6.52996
-6.39516
-6.25344
-6.1048
-5.94924
-5.78677
-5.61743
-5.44128
-5.25838
-5.06884
-4.87275
-4.67024
-4.46146
-4.24657
-4.02574
-3.79917
-3.56706
-3.32963
-3.08713
-2.8398
-2.5879
-2.3317
-2.07148
-1.80753
-1.54014
-1.26961
-0.996263
-0.720376
-0.442232
-0.162124
0.119631
0.402761
0.68705
0.972222
1.25794
1.54394
1.82999
2.11583
2.4012
2.68587
2.96963
3.25225
3.53355
3.81334
4.09144
4.36769
4.64195
4.91407
5.18393
5.45141
5.7164
5.97881
6.23854
6.49551
6.74964
7.00087
7.24912
7.49434
7.73646
7.97542
8.21116
8.44361
8.6727
8.89838
9.12055
9.33916
9.55411
9.76532
9.97269
10.1761
10.3754
10.5704
10.761
10.9469
11.1277
11.3031
11.4727
11.6358
11.7914
11.9395
12.0743
12.2115
12.2741
-6.78202
-6.78604
-6.79225
-6.79815
-6.80317
-6.80759
-6.81164
-6.81549
-6.81928
-6.82314
-6.82719
-6.83152
-6.83621
-6.84133
-6.84695
-6.8531
-6.85984
-6.8672
-6.87521
-6.88391
-6.89332
-6.90345
-6.91434
-6.92599
-6.9384
-6.95161
-6.9656
-6.98038
-6.99596
-7.01234
-7.02951
-7.04746
-7.06619
-7.08568
-7.10592
-7.1269
-7.14861
-7.17102
-7.19412
-7.21789
-7.24228
-7.26726
-7.29281
-7.31887
-7.3454
-7.37236
-7.39968
-7.42732
-7.4552
-7.48326
-7.51146
-7.53971
-7.56794
-7.59607
-7.62401
-7.65164
-7.67888
-7.7056
-7.73169
-7.75702
-7.78146
-7.80489
-7.82715
-7.8481
-7.8676
-7.88547
-7.90156
-7.9157
-7.92771
-7.93742
-7.94465
-7.94922
-7.95092
-7.94958
-7.94501
-7.93699
-7.92535
-7.90989
-7.8904
-7.8667
-7.83858
-7.80586
-7.76834
-7.72585
-7.67819
-7.62518
-7.56665
-7.50245
-7.43241
-7.35638
-7.27422
-7.18578
-7.09096
-6.98962
-6.88169
-6.76706
-6.64567
-6.51746
-6.38238
-6.24041
-6.09152
-5.93574
-5.77306
-5.60354
-5.42722
-5.24419
-5.05452
-4.85834
-4.65576
-4.44694
-4.23204
-4.01122
-3.78469
-3.55266
-3.31534
-3.07298
-2.82584
-2.57415
-2.31821
-2.05828
-1.79466
-1.52765
-1.25755
-0.98466
-0.709261
-0.431634
-0.152105
0.129036
0.411543
0.69521
0.979696
1.26469
1.54996
1.83526
2.12033
2.40492
2.68881
2.97177
3.25359
3.53409
3.81308
4.0904
4.36587
4.63936
4.91074
5.17987
5.44664
5.71096
5.97272
6.23184
6.48823
6.74183
6.99256
7.24035
7.48515
7.7269
7.96552
8.20097
8.43317
8.66206
8.88757
9.10963
9.32816
9.54307
9.75429
9.9617
10.1652
10.3646
10.5597
10.7504
10.9363
11.1171
11.2925
11.4618
11.6244
11.7793
11.9263
12.0596
12.1952
12.256
-6.7947
-6.79827
-6.80372
-6.80888
-6.81322
-6.81698
-6.82039
-6.82362
-6.82682
-6.83013
-6.83365
-6.83749
-6.84173
-6.84643
-6.85166
-6.85746
-6.86386
-6.87092
-6.87865
-6.88709
-6.89625
-6.90616
-6.91683
-6.92828
-6.94051
-6.95355
-6.96738
-6.98202
-6.99747
-7.01372
-7.03077
-7.04862
-7.06726
-7.08669
-7.10689
-7.12784
-7.14952
-7.17191
-7.19499
-7.21872
-7.24306
-7.26798
-7.29344
-7.31939
-7.34579
-7.37259
-7.39973
-7.42716
-7.45482
-7.48264
-7.51057
-7.53855
-7.56648
-7.59429
-7.62186
-7.64911
-7.67593
-7.70221
-7.72782
-7.75267
-7.7766
-7.7995
-7.82122
-7.84162
-7.86054
-7.87784
-7.89335
-7.90691
-7.91833
-7.92746
-7.9341
-7.93808
-7.93921
-7.93729
-7.93215
-7.92358
-7.91139
-7.89539
-7.87538
-7.85116
-7.82255
-7.78935
-7.75137
-7.70843
-7.66034
-7.60693
-7.54802
-7.48346
-7.41307
-7.3367
-7.25421
-7.16548
-7.07037
-6.96877
-6.86059
-6.74575
-6.62416
-6.49576
-6.36052
-6.2184
-6.06941
-5.91352
-5.75078
-5.58121
-5.40487
-5.22184
-5.0322
-4.83607
-4.63358
-4.42487
-4.21012
-3.98948
-3.76316
-3.53137
-3.29434
-3.0523
-2.80551
-2.55421
-2.2987
-2.03924
-1.77614
-1.50969
-1.24018
-0.967915
-0.693171
-0.41626
-0.137491
0.14287
0.424614
0.707481
0.991111
1.27523
1.55961
1.84401
2.12816
2.41184
2.6948
2.97683
3.25773