/*--------------------------------*- C++ -*----------------------------------*\
  =========                 |
  \\      /  F ield         | OpenFOAM: The Open Source CFD Toolbox
   \\    /   O peration     | Website:  https://openfoam.org
    \\  /    A nd           | Version:  9
     \\/     M anipulation  |
\*---------------------------------------------------------------------------*/
FoamFile
{
    format      ascii;
    class       volScalarField::Internal;
    location    "250";
    object      tmp<kEpsilon:G>;
}
// * * * * * * * * * * * * * * * * * * * * * * * * * * * * * * * * * * * * * //

dimensions      [0 2 -3 0 0 0 0];

value           nonuniform List<scalar> 
12225
(
0
0
0
0
0
0
0
0
0
0
0
0
0
0
0
0
0
0
947.05
499.291
262.412
277.612
379.765
495.323
604.979
715.156
802.523
888.445
950.114
1008.73
1048.65
1085.19
1112.97
1131.31
1168.02
1139.22
86.0789
123.087
55.4872
17.219
5.18161
4.39672
8.79919
16.6831
26.6105
38.3738
50.8919
64.0692
77.518
90.3999
104.021
115.396
129.724
136.159
5.16964
1.72774
0.64284
0.702367
0.465751
0.185466
0.0270395
0.18915
0.790532
1.88017
3.44291
5.4172
7.82564
10.405
13.4554
16.3225
19.7903
22.6549
0.228958
0.13228
0.148107
0.314242
0.426304
0.406379
0.289037
0.153041
0.0566128
0.0249044
0.0744048
0.212513
0.448014
0.76406
1.18602
1.65008
2.21778
2.78339
0.177987
0.187978
0.265588
0.32058
0.322861
0.317553
0.289648
0.238541
0.181783
0.1266
0.0796386
0.0450565
0.0274915
0.0289726
0.0512844
0.0927325
0.151005
0.223864
0.127163
0.210227
0.230803
0.212849
0.212175
0.23049
0.238387
0.227205
0.20778
0.184035
0.158517
0.131912
0.107429
0.0862178
0.0699298
0.0598169
0.0553885
0.056163
0.0976382
0.147905
0.159352
0.156981
0.167443
0.187949
0.200386
0.200179
0.19478
0.186968
0.177408
0.165856
0.154106
0.142752
0.133258
0.126298
0.123201
0.121627
0.0741609
0.104076
0.121816
0.130242
0.141834
0.157729
0.169018
0.172585
0.172732
0.171748
0.1698
0.166813
0.163528
0.160614
0.15892
0.158901
0.161659
0.164862
0.0561635
0.0772581
0.0970577
0.108667
0.119341
0.132349
0.142899
0.148302
0.150934
0.15279
0.154211
0.155128
0.156097
0.15752
0.160065
0.163727
0.169516
0.174892
0.0424059
0.0582891
0.0769791
0.0896817
0.100199
0.111679
0.121536
0.127684
0.131444
0.134455
0.137217
0.139757
0.142451
0.145597
0.149625
0.154396
0.160529
0.165993
0.0324702
0.0451074
0.0620912
0.0752328
0.0857369
0.0961835
0.105314
0.11162
0.115842
0.119265
0.122442
0.125468
0.128609
0.132087
0.136168
0.140674
0.145988
0.150493
0.024582
0.0347471
0.0499461
0.0631444
0.0736651
0.0834071
0.0919505
0.0982582
0.102713
0.106288
0.109524
0.112575
0.115631
0.118856
0.122404
0.126112
0.130215
0.133514
0.0176021
0.0257332
0.0389691
0.0516472
0.062054
0.0712515
0.0792595
0.0854689
0.0900415
0.0936533
0.096788
0.0996396
0.102349
0.105029
0.107767
0.11043
0.11318
0.115189
0.0116782
0.0182526
0.0296314
0.0414202
0.0514886
0.0601875
0.0676884
0.0736912
0.0782461
0.0817894
0.0847185
0.0872392
0.089468
0.091485
0.0933466
0.0949646
0.0964792
0.097355
0.00690974
0.0123097
0.0220453
0.0327704
0.0423164
0.0505295
0.0575484
0.0632487
0.0676453
0.0710117
0.0736562
0.0757749
0.0774799
0.0788403
0.0799102
0.0806519
0.0811942
0.0812384
0.00338114
0.00793464
0.0163464
0.0260283
0.0349543
0.0426737
0.0492229
0.0545498
0.0586659
0.0617532
0.0640497
0.0657371
0.0669318
0.0677106
0.0681375
0.068223
0.0680742
0.0675803
0.001204
0.00521089
0.0126999
0.0215327
0.0298355
0.037028
0.0430752
0.0479507
0.0516706
0.0543753
0.0562644
0.05751
0.058235
0.0585292
0.0584676
0.058098
0.0574947
0.0566858
0.000671394
0.004469
0.011598
0.0200299
0.0279072
0.0346335
0.040189
0.0445684
0.0477929
0.050003
0.0514027
0.0521722
0.0524428
0.0523149
0.0518712
0.0511861
0.0502918
0.0493287
0.00204091
0.00608309
0.0136666
0.0223682
0.0301245
0.0365202
0.0417014
0.0456595
0.0483889
0.0500673
0.0509525
0.0512505
0.0510971
0.050597
0.0498351
0.048895
0.0477813
0.0466755
0.00472382
0.00942638
0.0181322
0.0274687
0.0350981
0.0411017
0.0459276
0.049501
0.0517568
0.0529407
0.05338
0.0532871
0.0527868
0.0519862
0.0509779
0.0498495
0.0485878
0.0473826
0.00871306
0.0148697
0.0252561
0.0351594
0.0426388
0.0483647
0.0528206
0.0557737
0.0572741
0.0578095
0.0577784
0.0573294
0.05653
0.0554821
0.0542765
0.0529999
0.0516153
0.050325
0.0139814
0.023908
0.0361666
0.0443507
0.0507564
0.0570554
0.0621582
0.0647656
0.0652901
0.0648932
0.0641474
0.0631204
0.0618185
0.0603534
0.0587975
0.0572281
0.0555715
0.0540071
0.0214519
0.0421752
0.0592622
0.0604545
0.0597065
0.0637288
0.0696407
0.0734457
0.0746752
0.0746532
0.0738891
0.0723834
0.0702154
0.0676609
0.0648563
0.0619614
0.0589023
0.0559815
0.0432219
0.0754165
0.0936766
0.104853
0.097302
0.0902919
0.0877266
0.0864408
0.0849357
0.0831327
0.0802346
0.0757948
0.069982
0.0634339
0.0565657
0.0498598
0.0434762
0.0378528
0.0801278
0.213491
0.0681394
0.0789758
0.167664
0.215044
0.214362
0.18952
0.158377
0.127776
0.0986668
0.0723313
0.0504361
0.0346922
0.0261777
0.025661
0.0332523
0.0488405
0.667453
0.126923
0.315834
0.505706
0.37338
0.295765
0.229645
0.141726
0.0605824
0.0116396
0.01056
0.0681243
0.189064
0.374778
0.620277
0.923622
1.27098
1.66024
32.2298
70.901
43.2279
18.2598
7.06572
2.67057
1.11328
1.00754
1.81616
3.28483
5.25743
7.63472
10.2747
13.1577
16.1292
19.2252
22.2419
25.2876
455.621
257.637
100.998
70.5656
91.6416
128.079
167.974
206.021
241.169
273.923
303.051
329.733
353.051
374.466
393.007
410.49
425.88
440.952
0
0
0
0
0
0
0
0
0
0
0
0
0
0
0
0
0
0
0
0
0
0
0
0
0
0
0
0
0
0
0
0
0
0
0
0
0
0
0
0
0
0
0
0
0
0
0
0
0
0
0
0
0
0
0
0
13.1163
14.1675
15.173
15.4638
17.1562
18.5115
20.0322
21.675
23.3923
25.2108
27.1098
29.0992
31.1736
33.3365
35.587
37.9267
40.356
42.8758
45.4865
48.1887
50.9826
53.8682
56.8453
59.9135
63.0718
66.3193
69.6543
73.0753
76.5797
80.1654
83.8291
87.5676
91.3769
95.2531
99.1912
103.186
107.233
111.325
115.456
119.62
123.808
128.014
132.23
136.447
140.656
144.848
149.013
153.142
157.224
161.247
165.2
169.071
172.845
176.509
180.045
183.438
186.671
189.73
192.609
195.316
197.848
200.212
202.397
204.399
206.21
207.823
209.232
210.431
211.413
212.174
212.71
213.016
213.089
212.927
212.529
211.892
211.018
209.905
208.555
206.97
205.153
203.107
200.835
198.343
195.635
192.718
189.598
186.281
182.771
179.1
175.258
171.235
167.041
162.703
158.24
153.644
148.934
144.115
139.198
134.193
129.109
123.957
118.748
113.491
108.194
102.865
97.5113
92.141
86.7617
81.3801
76.0033
70.637
65.2874
59.9596
54.6589
49.3898
44.1568
38.964
33.8158
28.7167
23.6726
18.6918
13.7915
9.02029
4.60638
2.79012
6.27488
10.7671
15.4161
20.1171
24.8456
29.5922
34.3512
39.1155
43.8753
48.6134
53.305
57.8858
62.309
66.1283
69.7336
67.0077
0
0.00259323
0.0105247
0.0296126
0.0734065
0.145295
0.243923
0.364142
0.499803
0.645618
0.798769
0.958746
1.12619
1.30218
1.4878
1.68395
1.89128
2.1103
2.34143
2.58514
2.84214
3.11306
3.39767
3.69428
3.9988
4.30605
4.59343
4.82854
4.98787
5.0428
5.03392
5.14687
5.84286
6.24655
5.7104
5.45214
4.78949
4.45265
5.24148
5.93009
5.06183
4.18876
5.13685
5.10667
4.9373
4.80187
4.6777
4.54801
4.41242
4.2715
4.12687
3.97987
3.83171
3.68341
3.53583
3.38976
3.2459
3.10501
2.96782
2.83512
2.70771
2.58649
2.47239
2.3664
2.26959
2.18306
2.10797
2.04552
1.99693
1.96349
1.94646
1.94713
1.96678
2.00666
2.06802
2.15203
2.25982
2.39245
2.55088
2.73599
2.94856
3.18921
3.45844
3.75656
4.08369
4.43965
4.82393
5.23564
5.67338
6.13507
6.61767
7.11667
7.62547
8.13563
8.63863
9.12766
9.59282
10.0172
10.4473
10.8756
11.3131
11.7607
12.2193
12.6885
13.1676
13.6557
14.1519
14.6551
15.1642
15.6779
16.1951
16.7144
17.2345
17.7541
18.2717
18.7862
19.296
19.8
20.2969
20.7855
21.2647
21.7332
22.1903
22.635
23.0666
23.4843
23.8874
24.2751
24.6483
25.0088
25.3499
25.6731
25.9831
26.2775
26.5573
26.8229
27.0747
27.3134
27.5396
27.7541
27.958
28.1522
28.3381
28.5168
28.6893
28.8568
29.0204
29.1813
29.3409
29.5004
29.661
29.8239
29.9904
30.1616
30.339
30.5236
30.7165
30.9178
31.1283
31.3508
31.5879
31.8466
32.1462
32.511
32.9005
33.2816
33.6666
34.0605
34.4564
34.8465
35.2233
35.5801
35.9096
36.2085
36.4702
36.7464
37.0124
38.1172
39.7361
49.7518
0
0.0467216
0.134852
0.205905
0.281371
0.374889
0.497467
0.651087
0.830388
1.02724
1.23454
1.44789
1.66558
1.88774
2.11545
2.34997
2.59236
2.84329
3.10288
3.37063
3.64532
3.92451
4.20383
4.47621
4.73179
4.9565
5.14035
5.27172
5.3408
5.35537
5.36304
5.42356
5.49782
5.44597
5.27688
5.09667
4.91436
4.8569
4.95106
5.0179
5.03158
4.93422
5.05814
5.18101
5.25666
5.35305
5.48777
5.65686
5.85536
6.07898
6.32472
6.59041
6.8745
7.17581
7.49345
7.82666
8.17479
8.53726
8.91355
9.30317
9.70563
10.1205
10.5473
10.9857
11.4353
11.8957
12.3666
12.8477
13.3385
13.839
14.3488
14.8677
15.3955
15.932
16.4772
17.0308
17.5928
18.163
18.7412
19.3273
19.9211
20.5224
21.1309
21.7464
22.3683
22.9962
23.6292
24.2665
24.9069
25.5498
26.1951
26.8435
27.4975
28.1625
28.849
29.5717
30.3483
31.206
32.0795
32.9695
33.8696
34.7772
35.6907
36.6084
37.5284
38.4487
39.367
40.281
41.1883
42.0865
42.9728
43.8448
44.6999
45.5353
46.3484
47.1368
47.8981
48.63
49.3303
49.9967
50.6274
51.2206
51.7748
52.2887
52.7612
53.1913
53.5781
53.921
54.2213
54.4834
54.6995
54.8696
55
55.089
55.14
55.1535
55.1311
55.0743
54.9847
54.8641
54.7147
54.5394
54.3408
54.1217
53.884
53.6303
53.3626
53.0835
52.795
52.4996
52.199
51.8957
51.5913
51.2876
50.9862
50.6869
50.3912
50.1018
49.8213
49.5525
49.31
49.0901
48.8699
48.6332
48.3854
48.1441
47.9087
47.6758
47.4401
47.1956
46.9357
46.6545
46.3475
46.0183
45.6773
45.4107
45.3033
46.2724
48.7047
56.675
0
0.179219
0.368157
0.502665
0.604916
0.701753
0.816927
0.961096
1.1354
1.33539
1.55437
1.78609
2.02605
2.27167
2.52182
2.77611
3.03427
3.29566
3.55892
3.82163
4.08016
4.32936
4.5624
4.77092
4.94587
5.07881
5.1638
5.19939
5.19333
5.16682
5.1527
5.19941
5.30428
5.38151
5.40062
5.41213
5.42002
5.55184
5.83402
6.13376
6.30886
6.48533
6.8605
7.26088
7.64009
8.01147
8.39251
8.79162
9.21213
9.65468
10.1188
10.6037
11.1083
11.6317
12.1732
12.7321
13.3076
13.8994
14.5069
15.1296
15.7674
16.4197
17.0865
17.7675
18.4626
19.1718
19.895
20.6321
21.3834
22.1489
22.9287
23.7231
24.5322
25.3564
26.1958
27.0508
27.9216
28.8085
29.7116
30.6313
31.5676
32.5207
33.4906
34.4774
35.4811
36.5014
37.5384
38.5919
39.662
40.7493
41.8553
42.9826
44.1352
45.3193
46.5422
47.8059
49.1037
50.4252
51.761
53.1124
54.4749
55.8444
57.2174
58.5909
59.9616
61.3262
62.6814
64.0237
65.3493
66.6547
67.936
69.1895
70.4113
71.5976
72.7447
73.8491
74.9072
75.9159
76.872
77.7725
78.6145
79.3957
80.114
80.7675
81.3547
81.8738
82.3234
82.7033
83.0169
83.2689
83.4499
83.5582
83.6053
83.5864
83.5072
83.3685
83.1725
82.9218
82.6182
82.2646
81.864
81.4209
80.9392
80.4227
79.8747
79.2987
78.6978
78.0756
77.435
76.7796
76.1121
75.4356
74.7514
74.0622
73.3703
72.6792
71.9906
71.308
70.6353
69.9711
69.3126
68.6576
67.9991
67.3184
66.6072
65.8806
65.145
64.4041
63.658
62.9038
62.1387
61.3617
60.5758
59.7967
59.0606
58.5022
58.2902
59.4037
62.2516
68.646
0
0.358708
0.650472
0.864241
1.00283
1.10625
1.21155
1.33607
1.48656
1.66345
1.86312
2.08021
2.30944
2.54653
2.7883
3.03238
3.27675
3.51932
3.75751
3.98804
4.20686
4.40916
4.5897
4.74336
4.86624
4.95707
5.01865
5.05825
5.08857
5.12876
5.20373
5.32995
5.50581
5.69654
5.88017
6.06505
6.26856
6.53015
6.86108
7.22692
7.59439
7.9794
8.43752
8.94158
9.46753
10.0082
10.5653
11.1421
11.7409
12.3632
13.0094
13.6799
14.3741
15.0919
15.833
16.5969
17.3835
18.1924
19.0236
19.8768
20.7521
21.6495
22.5691
23.5111
24.4757
25.4633
26.4743
27.509
28.568
29.6516
30.7604
31.895
33.0559
34.2436
35.4586
36.7015
37.9728
39.2727
40.6016
41.9599
43.3476
44.765
46.2121
47.6888
49.1951
50.7308
52.296
53.8905
55.5146
57.1689
58.8544
60.5729
62.3262
64.1162
65.9434
67.8033
69.6851
71.5805
73.488
75.4077
77.3354
79.2665
81.1962
83.1199
85.0329
86.9305
88.808
90.6604
92.4828
94.2701
96.0172
97.7189
99.3703
100.966
102.502
103.972
105.373
106.7
107.949
109.116
110.197
111.19
112.092
112.9
113.611
114.225
114.739
115.152
115.473
115.699
115.826
115.854
115.792
115.638
115.396
115.069
114.659
114.17
113.605
112.967
112.262
111.494
110.669
109.793
108.869
107.903
106.899
105.862
104.795
103.703
102.59
101.459
100.316
99.1639
98.0052
96.8459
95.6876
94.53
93.3734
92.2178
91.0645
89.9132
88.7585
87.5851
86.3825
85.1565
83.9143
82.6631
81.408
80.1511
78.8948
77.6445
76.4139
75.2373
74.1796
73.4178
73.1756
74.4052
77.3234
82.3667
0
0.54131
0.91702
1.21358
1.39707
1.51472
1.61456
1.71916
1.83978
1.98121
2.14337
2.32312
2.51603
2.71754
2.92361
3.13075
3.33594
3.53641
3.72943
3.91222
4.08204
4.23632
4.37307
4.4913
4.59171
4.67726
4.75344
4.82825
4.91214
5.01783
5.15907
5.3457
5.57741
5.84226
6.12942
6.43815
6.77347
7.1465
7.56398
8.0213
8.51247
9.03868
9.61021
10.2236
10.8714
11.5484
12.2529
12.985
13.7455
14.5351
15.3545
16.204
17.084
17.9946
18.9358
19.9078
20.9108
21.945
23.0105
24.1079
25.2375
26.3999
27.5957
28.8256
30.0905
31.391
32.7282
34.1028
35.5159
36.9684
38.4612
39.9952
41.5712
43.1902
44.8529
46.5599
48.3118
50.109
51.9519
53.8407
55.7753
57.7557
59.7818
61.853
63.9691
66.1293
68.3331
70.5799
72.8691
75.2002
77.5729
79.9868
82.441
84.9334
87.4602
90.0139
92.5851
95.1668
97.757
100.354
102.952
105.547
108.133
110.702
113.25
115.769
118.253
120.697
123.092
125.433
127.714
129.927
132.066
134.125
136.097
137.977
139.759
141.438
143.008
144.465
145.805
147.022
148.115
149.081
149.915
150.617
151.183
151.617
151.922
152.096
152.136
152.05
151.84
151.508
151.057
150.49
149.811
149.026
148.137
147.15
146.071
144.908
143.667
142.354
140.976
139.539
138.047
136.508
134.927
133.311
131.665
129.994
128.304
126.601
124.886
123.162
121.43
119.695
117.958
116.22
114.484
112.747
111.007
109.255
107.481
105.687
103.879
102.064
100.252
98.4506
96.6678
94.9187
93.2287
91.6494
90.2699
89.294
88.9631
90.1394
92.7755
96.6243
0
0.703405
1.12944
1.49447
1.72145
1.85719
1.95603
2.04387
2.13526
2.23841
2.35644
2.48875
2.63263
2.7845
2.94066
3.09775
3.25288
3.40365
3.54812
3.68479
3.81269
3.93151
4.04176
4.145
4.24398
4.34279
4.44683
4.56265
4.69779
4.86055
5.05908
5.29922
5.58256
5.90574
6.26422
6.65608
7.08224
7.54594
8.05062
8.59789
9.18812
9.82127
10.4984
11.2183
11.9786
12.777
13.6122
14.4839
15.3923
16.3379
17.3211
18.3427
19.4031
20.5032
21.6434
22.8246
24.0474
25.3128
26.6216
27.9749
29.3739
30.8197
32.3137
33.8574
35.452
37.0993
38.8005
40.5574
42.3713
44.2438
46.1762
48.1699
50.226
52.3457
54.5298
56.7792
59.0943
61.4755
63.923
66.4366
69.016
71.6606
74.3696
77.142
79.9764
82.8715
85.8255
88.8366
91.9028
95.0219
98.1917
101.409
104.671
107.971
111.305
114.662
118.035
121.414
124.797
128.179
131.554
134.914
138.253
141.562
144.835
148.061
151.234
154.346
157.387
160.351
163.228
166.011
168.691
171.262
173.715
176.043
178.24
180.299
182.213
183.978
185.588
187.039
188.326
189.446
190.396
191.173
191.775
192.208
192.467
192.558
192.475
192.234
191.833
191.274
190.561
189.698
188.691
187.546
186.267
184.861
183.337
181.703
179.967
178.136
176.22
174.226
172.163
170.037
167.857
165.631
163.365
161.065
158.736
156.383
154.011
151.624
149.227
146.823
144.415
142.006
139.596
137.187
134.774
132.355
129.924
127.484
125.039
122.596
120.169
117.769
115.413
113.123
110.937
108.92
107.179
105.927
105.393
106.325
108.4
111.141
0
0.830537
1.26571
1.67337
1.93253
2.08388
2.1831
2.25726
2.32283
2.39038
2.46555
2.55017
2.64359
2.74387
2.84859
2.95534
3.06215
3.16756
3.27074
3.37147
3.47017
3.56793
3.66657
3.76857
3.87713
3.99613
4.13004
4.28384
4.46288
4.67275
4.91885
5.20541
5.53464
5.90652
6.3198
6.77352
7.26769
7.80353
8.383
9.00811
9.68037
10.4004
11.1683
11.9837
12.8456
13.7535
14.7068
15.7058
16.7507
17.8422
18.9812
20.1685
21.4055
22.6933
24.0333
25.4268
26.8755
28.3809
29.9449
31.5693
33.2563
35.0079
36.8262
38.7137
40.6726
42.7051
44.8136
47.0003
49.2674
51.6167
54.0504
56.5699
59.177
61.8728
64.6583
67.5343
70.5011
73.5589
76.7072
79.9454
83.2726
86.6873
90.1878
93.7718
97.4371
101.181
104.999
108.889
112.847
116.869
120.949
125.082
129.262
133.482
137.733
142.005
146.288
150.573
154.853
159.122
163.37
167.591
171.773
175.908
179.986
183.997
187.931
191.777
195.526
199.168
202.694
206.093
209.356
212.473
215.437
218.239
220.87
223.324
225.593
227.67
229.55
231.228
232.698
233.958
235.003
235.831
236.442
236.839
237.016
236.979
236.728
236.283
235.637
234.794
233.759
232.537
231.134
229.558
227.815
225.915
223.868
221.683
219.37
216.941
214.405
211.771
209.052
206.254
203.388
200.46
197.478
194.452
191.386
188.29
185.169
182.029
178.876
175.714
172.549
169.383
166.217
163.053
159.889
156.725
153.563
150.404
147.254
144.123
141.024
137.975
134.999
132.125
129.401
126.904
124.749
123.143
122.283
122.805
124.132
125.838
0
0.920297
1.32108
1.74051
2.01408
2.17351
2.27091
2.33296
2.37664
2.41389
2.45214
2.4952
2.54438
2.59953
2.65982
2.72423
2.79198
2.86271
2.93657
3.01411
3.09646
3.18531
3.28281
3.39157
3.51452
3.65495
3.8163
4.00258
4.21774
4.4659
4.75102
5.07652
5.44482
5.85727
6.31433
6.81624
7.3634
7.95684
8.59775
9.28808
10.0294
10.823
11.6696
12.5696
13.5232
14.5307
15.5928
16.71
17.8833
19.1141
20.4037
21.7539
23.1667
24.644
26.1882
27.8015
29.4866
31.246
33.0827
34.9996
36.9999
39.0868
41.2634
43.5332
45.8994
48.3652
50.9338
53.6081
56.3909
59.2848
62.2922
65.4152
68.6553
72.0139
75.492
79.0899
82.8077
86.6448
90.6003
94.6725
98.8593
103.158
107.566
112.079
116.694
121.404
126.207
131.094
136.061
141.101
146.206
151.368
156.579
161.827
167.103
172.395
177.691
182.981
188.253
193.499
198.709
203.871
208.974
214.006
218.956
223.811
228.561
233.192
237.693
242.052
246.259
250.301
254.168
257.85
261.336
264.616
267.683
270.527
273.141
275.516
277.647
279.528
281.154
282.522
283.626
284.466
285.042
285.351
285.394
285.175
284.701
283.989
283.034
281.841
280.413
278.759
276.887
274.805
272.522
270.049
267.399
264.583
261.614
258.504
255.265
251.907
248.442
244.88
241.232
237.51
233.721
229.878
225.988
222.06
218.103
214.125
210.132
206.131
202.128
198.126
194.128
190.135
186.15
182.175
178.216
174.275
170.362
166.487
162.666
158.922
155.281
151.782
148.479
145.454
142.824
140.783
139.482
139.461
139.927
140.659
0
0.976001
1.3032
1.70441
1.97298
2.12998
2.22083
2.27054
2.29566
2.30854
2.31767
2.32827
2.34331
2.36431
2.39183
2.42604
2.46713
2.51535
2.57161
2.63702
2.71309
2.8016
2.90461
3.02444
3.1636
3.32477
3.51087
3.72492
3.97013
4.24976
4.567
4.92483
5.32575
5.77175
6.2643
6.80462
7.39389
8.03354
8.72527
9.47082
10.272
11.1304
12.0474
13.0245
14.0629
15.1641
16.3296
17.561
18.8602
20.2294
21.6712
23.1882
24.7835
26.4603
28.2219
30.0718
32.0139
34.0521
36.1906
38.4336
40.7857
43.2511
45.8344
48.5401
51.3725
54.3357
57.4337
60.6703
64.0488
67.5724
71.2435
75.0645
79.0369
83.1619
87.4399
91.8709
96.454
101.188
106.07
111.098
116.267
121.575
127.015
132.582
138.27
144.071
149.979
155.984
162.078
168.252
174.494
180.794
187.14
193.52
199.92
206.327
212.726
219.105
225.449
231.747
237.986
244.152
250.232
256.211
262.077
267.816
273.412
278.853
284.126
289.216
294.111
298.798
303.265
307.501
311.494
315.234
318.711
321.916
324.84
327.475
329.814
331.852
333.584
335.006
336.114
336.906
337.382
337.539
337.379
336.909
336.139
335.087
333.747
332.125
330.227
328.061
325.639
322.97
320.067
316.941
313.607
310.078
306.367
302.489
298.456
294.284
289.985
285.571
281.057
276.455
271.776
267.033
262.236
257.397
252.526
247.632
242.725
237.811
232.899
227.992
223.095
218.212
213.345
208.502
203.689
198.914
194.186
189.52
184.933
180.452
176.108
171.944
168.019
164.418
161.253
158.698
156.858
156.193
155.743
155.566
0
1.00447
1.22735
1.58513
1.83133
1.9749
2.05329
2.08901
2.09761
2.09138
2.07934
2.06748
2.05969
2.05823
2.06496
2.08111
2.1077
2.14575
2.19631
2.26054
2.33981
2.43567
2.54983
2.6842
2.84085
3.02203
3.23016
3.46786
3.73786
4.04304
4.38632
4.77055
5.19839
5.67228
6.19439
6.76668
7.39106
8.06955
8.8043
9.59759
10.4519
11.3695
12.3531
13.4055
14.5284
15.7244
16.996
18.3461
19.778
21.2953
22.902
24.6023
26.4005
28.3012
30.309
32.4291
34.6666
37.0272
39.5164
42.1401
44.9041
47.8142
50.8762
54.0956
57.4779
61.028
64.7507
68.6502
72.7302
76.9941
81.4443
86.0828
90.9109
95.9289
101.137
106.533
112.115
117.881
123.826
129.945
136.234
142.684
149.29
156.043
162.933
169.951
177.086
184.327
191.662
199.079
206.562
214.099
221.675
229.274
236.881
244.478
252.049
259.579
267.05
274.449
281.758
288.963
296.047
302.994
309.789
316.416
322.859
329.103
335.132
340.933
346.489
351.789
356.819
361.566
366.018
370.166
373.997
377.501
380.671
383.497
385.974
388.095
389.855
391.252
392.281
392.939
393.227
393.144
392.694
391.883
390.729
389.249
387.432
385.292
382.834
380.07
377.011
373.669
370.056
366.188
362.079
357.747
353.206
348.472
343.562
338.492
333.277
327.931
322.471
316.912
311.266
305.549
299.774
293.953
288.099
282.224
276.338
270.45
264.568
258.7
252.85
247.024
241.227
235.468
229.757
224.104
218.522
213.026
207.637
202.385
197.303
192.439
187.853
183.63
179.874
176.735
174.276
172.896
171.51
170.484
0
1.01441
1.1124
1.40888
1.61902
1.73933
1.79927
1.8188
1.81228
1.79135
1.76462
1.73879
1.71829
1.70635
1.70507
1.71596
1.74026
1.77905
1.83333
1.9042
1.99281
2.10041
2.22841
2.37837
2.55207
2.75149
2.97883
3.23651
3.52712
3.85341
4.21826
4.62465
5.07552
5.57378
6.12218
6.72344
7.38033
8.09572
8.8727
9.7142
10.6237
11.6044
12.6612
13.7965
15.0143
16.3184
17.7124
19.2012
20.7897
22.4835
24.2883
26.2101
28.2549
30.4287
32.738
35.1896
37.7905
40.5478
43.4691
46.5616
49.8326
53.2893
56.9386
60.787
64.8405
69.1049
73.5851
78.2855
83.2096
88.3604
93.7397
99.3488
105.188
111.255
117.55
124.069
130.808
137.761
144.922
152.284
159.839
167.577
175.488
183.56
191.78
200.137
208.615
217.2
225.877
234.629
243.44
252.292
261.167
270.048
278.914
287.746
296.526
305.234
313.851
322.36
330.742
338.979
347.053
354.946
362.641
370.12
377.365
384.361
391.09
397.537
403.686
409.524
415.035
420.208
425.03
429.49
433.576
437.279
440.59
443.502
446.007
448.101
449.779
451.038
451.874
452.285
452.273
451.839
450.989
449.73
448.086
446.072
443.674
440.912
437.792
434.328
430.532
426.417
422
417.296
412.323
407.098
401.641
395.968
390.099
384.052
377.844
371.493
365.016
358.43
351.752
344.997
338.182
331.32
324.428
317.517
310.6
303.689
296.793
289.919
283.075
276.267
269.504
262.796
256.155
249.594
243.127
236.772
230.555
224.504
218.658
213.064
207.785
202.9
198.504
194.723
191.584
189.445
187.125
185.306
0
1.01386
0.977075
1.20224
1.36734
1.45729
1.4942
1.49519
1.47373
1.44102
1.40584
1.37425
1.35065
1.3381
1.33871
1.35397
1.38499
1.43262
1.49765
1.58087
1.68312
1.80541
1.94891
2.115
2.30533
2.52181
2.76663
3.04223
3.3513
3.69671
4.08162
4.50933
4.98331
5.50704
6.08409
6.71787
7.41238
8.17173
9.00026
9.90259
10.8834
11.9469
13.0977
14.3414
15.6837
17.1304
18.6879
20.3625
22.1616
24.0928
26.1638
28.3826
30.757
33.2949
36.0046
38.8949
41.9747
45.253
48.739
52.4412
56.3682
60.5281
64.9284
69.5759
74.477
79.637
85.0605
90.7512
96.7115
102.943
109.446
116.22
123.263
130.572
138.143
145.969
154.043
162.358
170.904
179.669
188.642
197.811
207.161
216.677
226.343
236.142
246.057
256.069
266.159
276.308
286.495
296.701
306.904
317.082
327.214
337.277
347.25
357.11
366.838
376.412
385.812
395.018
404.01
412.768
421.275
429.509
437.454
445.092
452.405
459.378
465.995
472.239
478.098
483.558
488.608
493.235
497.43
501.183
504.487
507.334
509.719
511.639
513.088
514.065
514.565
514.589
514.138
513.221
511.834
509.996
507.739
505.061
501.959
498.456
494.559
490.284
485.643
480.652
475.33
469.694
463.764
457.559
451.1
444.408
437.503
430.406
423.137
415.714
408.158
400.488
392.722
384.878
376.974
369.027
361.053
353.067
345.084
337.116
329.173
321.265
313.401
305.589
297.838
290.161
282.571
275.083
267.715
260.486
253.424
246.558
239.93
233.586
227.588
222.01
216.935
212.469
208.609
205.686
202.452
199.896
0
1.00985
0.837786
0.989355
1.10561
1.16053
1.17074
1.15177
1.11616
1.07452
1.03502
1.00351
0.983949
0.978812
0.989648
1.01732
1.06239
1.12525
1.20633
1.3061
1.42523
1.56456
1.7252
1.90853
2.11629
2.35058
2.61379
2.90862
3.23808
3.60542
4.01434
4.46888
4.97333
5.53225
6.15044
6.83345
7.58638
8.41456
9.32372
10.3194
11.4084
12.5972
13.8932
15.3045
16.8393
18.5061
20.3134
22.2708
24.3876
26.6738
29.1393
31.7938
34.6471
37.7091
40.9903
44.5014
48.2531
52.2558
56.5195
61.0538
65.8674
70.9681
76.3632
82.0587
88.0597
94.3702
100.993
107.929
115.179
122.741
130.614
138.793
147.272
156.046
165.106
174.443
184.045
193.901
203.996
214.317
224.846
235.568
246.465
257.517
268.705
280.009
291.406
302.875
314.394
325.941
337.492
349.023
360.511
371.932
383.261
394.474
405.547
416.456
427.179
437.693
447.977
458.008
467.766
477.231
486.382
495.201
503.667
511.763
519.472
526.779
533.667
540.121
546.128
551.676
556.754
561.351
565.456
569.063
572.164
574.755
576.83
578.389
579.424
579.938
579.925
579.384
578.333
576.761
574.678
572.109
569.094
565.604
561.661
557.285
552.486
547.278
541.679
535.704
529.375
522.71
515.731
508.459
500.919
493.132
485.122
476.91
468.52
459.972
451.288
442.487
433.592
424.622
415.596
406.534
397.452
388.369
379.299
370.257
361.254
352.301
343.408
334.583
325.839
317.189
308.647
300.231
291.959
283.854
275.942
268.259
260.841
253.739
247.007
240.715
234.936
229.758
225.153
221.438
217.319
214.081
0
1.0087
0.707716
0.789033
0.85622
0.874969
0.857345
0.817821
0.768946
0.721152
0.682004
0.656432
0.647328
0.656155
0.683466
0.729294
0.793496
0.875933
0.976676
1.09603
1.23458
1.39324
1.57326
1.77627
2.00449
2.26047
2.5472
2.86809
3.22707
3.62868
4.07811
4.58045
5.1414
5.76691
6.46342
7.23758
8.09733
9.05047
10.1054
11.2704
12.5548
13.9687
15.5227
17.2279
19.0959
21.1382
23.3665
25.7929
28.4294
31.2881
34.3804
37.7177
41.3113
45.1734
49.3161
53.7513
58.4905
63.5441
68.9215
74.6309
80.6793
87.0726
93.8153
100.911
108.36
116.165
124.323
132.831
141.686
150.883
160.412
170.267
180.437
190.911
201.676
212.718
224.021
235.568
247.341
259.322
271.49
283.826
296.307
308.912
321.617
334.4
347.235
360.1
372.969
385.816
398.614
411.339
423.964
436.464
448.814
460.986
472.957
484.702
496.197
507.419
518.347
528.956
539.228
549.141
558.676
567.812
576.531
584.815
592.649
600.018
606.907
613.299
619.185
624.555
629.396
633.7
637.457
640.664
643.312
645.404
646.93
647.895
648.292
648.12
647.377
646.081
644.219
641.801
638.841
635.374
631.431
626.966
622.034
616.643
610.808
604.543
597.868
590.8
583.36
575.571
567.455
559.038
550.342
541.395
532.22
522.842
513.284
503.57
493.722
483.762
473.713
463.597
453.433
443.243
433.046
422.86
412.703
402.589
392.531
382.539
372.625
362.799
353.074
343.464
333.984
324.653
315.491
306.521
297.773
289.28
281.081
273.221
265.754
258.742
252.247
246.344
240.988
236.491
231.523
227.666
0
1.01316
0.591271
0.609132
0.629354
0.611333
0.56576
0.50721
0.448367
0.399062
0.3658
0.35218
0.359686
0.388449
0.437851
0.506965
0.594959
0.701363
0.826137
0.969729
1.13306
1.31759
1.52528
1.75907
2.02201
2.31793
2.6511
3.0263
3.44913
3.92596
4.46413
5.07193
5.75782
6.53082
7.40044
8.37698
9.47142
10.6962
12.0644
13.5896
15.2853
17.1654
19.2445
21.5376
24.0596
26.825
29.8485
33.1441
36.7253
40.6051
44.7954
49.3063
54.151
59.342
64.8908
70.8077
77.1012
83.7779
90.8427
98.2989
106.148
114.39
123.023
132.044
141.449
151.23
161.381
171.892
182.752
193.949
205.47
217.3
229.423
241.824
254.484
267.385
280.505
293.824
307.32
320.971
334.754
348.646
362.624
376.662
390.736
404.821
418.891
432.921
446.882
460.75
474.497
488.098
501.528
514.76
527.77
540.532
553.022
565.214
577.087
588.617
599.783
610.564
620.939
630.891
640.401
649.449
658.015
666.083
673.641
680.677
687.177
693.123
698.509
703.328
707.568
711.221
714.279
716.745
718.608
719.875
720.538
720.616
720.061
718.936
717.209
714.88
711.959
708.454
704.391
699.825
694.729
689.101
682.992
676.412
669.375
661.899
654.001
645.704
637.028
627.998
618.639
608.977
599.038
588.85
578.44
567.833
557.055
546.129
535.078
523.928
512.7
501.418
490.103
478.777
467.461
456.174
444.935
433.757
422.655
411.64
400.723
389.916
379.23
368.681
358.286
348.062
338.031
328.217
318.65
309.365
300.397
291.79
283.592
275.86
268.646
262.013
255.909
250.644
244.859
240.458
0
1.01418
0.494443
0.462677
0.44404
0.395873
0.329068
0.258792
0.197726
0.154707
0.134655
0.139382
0.168751
0.221629
0.296518
0.392016
0.507236
0.641961
0.796847
0.973235
1.17307
1.39903
1.6548
1.94501
2.27561
2.65337
3.0854
3.57963
4.14527
4.79306
5.53538
6.38488
7.35639
8.46408
9.72322
11.1507
12.7654
14.5864
16.6327
18.9225
21.4733
24.3031
27.43
30.8722
34.6462
38.7661
43.2454
48.0973
53.3333
58.9648
64.9964
71.4373
78.2979
85.5851
93.3028
101.452
110.033
119.041
128.472
138.319
148.573
159.224
170.262
181.675
193.448
205.567
218.017
230.781
243.84
257.178
270.775
284.612
298.669
312.926
327.363
341.957
356.686
371.527
386.457
401.453
416.493
431.554
446.611
461.64
476.617
491.517
506.312
520.98
535.496
549.835
563.975
577.89
591.557
604.952
618.052
630.834
643.275
655.354
667.047
678.332
689.192
699.608
709.56
719.035
728.016
736.483
744.42
751.812
758.655
764.935
770.639
775.748
780.259
784.161
787.448
790.117
792.15
793.568
794.349
794.516
794.036
792.942
791.23
788.89
785.926
782.343
778.148
773.367
768.031
762.201
755.791
748.866
741.459
733.581
725.245
716.47
707.277
697.687
687.723
677.41
666.775
655.845
644.65
633.217
621.577
609.754
597.776
585.666
573.447
561.146
548.784
536.386
523.975
511.572
499.199
486.877
474.624
462.454
450.382
438.419
426.575
414.863
403.295
391.885
380.651
369.61
358.784
348.197
337.881
327.867
318.192
308.892
300.013
291.603
283.709
276.386
269.573
263.591
257.04
252.22
0
1.00668
0.422045
0.362063
0.319367
0.253278
0.176875
0.106107
0.0529233
0.0244298
0.0234824
0.0501349
0.103161
0.181042
0.282358
0.406077
0.552169
0.722179
0.919112
1.1469
1.41018
1.71457
2.06785
2.48019
2.96371
3.53127
4.19647
4.97436
5.88256
6.942
8.17602
9.61017
11.2682
13.1725
15.346
17.8139
20.6027
23.7377
27.2424
31.137
35.4379
40.1596
45.3158
50.9202
56.9826
63.5121
70.5127
77.9902
85.9387
94.3521
103.221
112.559
122.358
132.608
143.295
154.405
165.921
177.828
190.106
202.738
215.705
228.985
242.562
256.415
270.526
284.873
299.436
314.197
329.135
344.23
359.463
374.813
390.262
405.792
421.383
437.014
452.664
468.315
483.946
499.537