/*--------------------------------*- C++ -*----------------------------------*\
  =========                 |
  \\      /  F ield         | OpenFOAM: The Open Source CFD Toolbox
   \\    /   O peration     | Website:  https://openfoam.org
    \\  /    A nd           | Version:  9
     \\/     M anipulation  |
\*---------------------------------------------------------------------------*/
FoamFile
{
    format      ascii;
    class       volVectorField;
    location    "50";
    object      U;
}
// * * * * * * * * * * * * * * * * * * * * * * * * * * * * * * * * * * * * * //

dimensions      [0 1 -1 0 0 0 0];

internalField   nonuniform List<vector> 
112055
(
(0.478597 0.0164833 0)
(0.503536 -0.00472448 0)
(0.525036 -0.00261256 -2.46288e-20)
(0.532845 -0.00983985 7.47503e-21)
(0.520335 -0.020288 -3.42687e-21)
(0.49974 0.00463885 0)
(0.479817 0.015834 -6.36867e-20)
(0.532362 -0.00968925 0)
(0.515007 -0.00027067 -1.55784e-20)
(0.480111 -0.00282775 3.45313e-21)
(0.503518 -0.00481787 1.18922e-20)
(0.481442 0.0199763 -4.26623e-20)
(0.51416 -0.000998373 7.40506e-21)
(0.481469 0.0195958 4.07352e-20)
(0.458845 -0.00650377 -2.59882e-20)
(0.508468 -0.00937977 3.11332e-22)
(0.407347 -0.0264092 7.03482e-20)
(0.469032 -0.048527 -2.31616e-21)
(0.504143 -0.00686346 0)
(0.518746 0.00569416 -1.14921e-20)
(0.508577 0.0103302 1.2145e-21)
(0.509279 0.00949594 0)
(0.504152 -0.00696311 -6.85063e-21)
(0.514549 -0.0104871 2.35896e-21)
(0.499641 -0.00940782 0)
(0.522055 -0.018219 1.25068e-20)
(0.429735 0.0253701 -1.99023e-20)
(0.500548 0.0019147 0)
(0.499792 0.00458064 0)
(0.508557 0.0103753 -1.24806e-21)
(0.499991 -2.22528e-05 -3.87198e-20)
(0.547854 0.0223341 0)
(0.507542 0.0105321 0)
(0.0774986 0.0105809 -3.24084e-20)
(0.515096 -0.000256532 1.4563e-20)
(0.502229 0.00855988 -1.02439e-21)
(0.518863 0.00560391 0)
(0.354151 0.118789 1.62454e-20)
(0.53704 -0.0148962 0)
(0.497049 0.00301384 2.49309e-22)
(0.502047 0.00760123 3.77247e-21)
(0.535225 -0.0147832 1.33291e-20)
(0.511892 -0.00501803 -5.02508e-22)
(0.524772 -0.00259905 4.13181e-20)
(0.467951 -0.0487711 0)
(0.516232 -0.00785233 0)
(0.0839956 0.0093827 0)
(0.483546 -0.0102156 0)
(0.509448 -0.0133441 -2.38859e-21)
(0.534769 -0.0150163 2.74594e-21)
(0.531762 -0.00914331 2.11518e-20)
(0.538612 0.109872 0)
(0.508928 0.0103211 -9.1118e-23)
(0.536582 -0.0143175 3.59515e-20)
(0.51885 0.000850225 2.53854e-20)
(0.479538 0.016313 3.12523e-20)
(0.441246 -0.00257161 7.17033e-23)
(0.388363 -0.00665065 0)
(0.534067 0.0701684 0)
(0.516256 -0.00771727 3.90955e-21)
(0.486901 -0.00914609 2.19651e-20)
(0.485215 -0.010365 2.64547e-21)
(0.50255 -0.00255692 -2.58735e-22)
(0.502606 -0.00254757 2.72615e-22)
(0.494226 -0.00127449 0)
(0.516865 -0.000585162 -1.72822e-20)
(0.348386 0.119665 0)
(0.516957 0.00485367 0)
(0.508895 0.0145745 4.71063e-22)
(0.512982 -0.00897988 -9.75189e-21)
(0.387484 -0.00625293 -4.10844e-21)
(-0.0720607 -0.00622344 1.28202e-22)
(0.51435 -0.0104935 0)
(0.438558 0.00648819 7.31647e-20)
(0.580478 0.00322014 -1.18885e-19)
(0.254542 -0.203035 -7.97335e-21)
(0.502841 0.000723573 -1.98137e-21)
(0.478877 0.0161884 -3.30104e-20)
(0.542646 0.0488462 -2.42886e-20)
(0.536037 -0.0143666 -4.72712e-20)
(0.511396 0.00266679 1.36232e-21)
(0.218358 -0.188262 -8.18625e-21)
(0.531556 -0.00921524 0)
(0.522295 -0.0182972 1.29358e-20)
(0.508671 -0.00933032 8.5585e-22)
(0.507582 -0.00106165 3.13015e-21)
(0.525145 -0.0358835 -1.84731e-20)
(0.518746 0.000796395 2.65882e-20)
(-0.00683323 0.00064406 9.83669e-20)
(0.518634 0.000955412 0)
(0.511189 0.00610858 -5.55589e-22)
(0.502244 0.00859031 1.06017e-21)
(0.525719 -0.0358054 0)
(0.520618 -0.020203 6.41807e-21)
(0.582845 0.00205467 0)
(0.50293 0.000811853 3.16305e-21)
(0.54891 0.0149503 -1.12944e-19)
(0.459506 -0.00648073 4.42582e-20)
(0.49999 -2.79684e-05 1.77724e-20)
(0.441798 -0.00271375 0)
(0.514071 -0.00101321 6.76458e-21)
(0.493493 0.00504315 3.37491e-24)
(0.507615 -0.0105594 1.42741e-21)
(0.502522 -0.0057537 -2.43455e-20)
(0.587064 0.0118901 0)
(0.319521 -0.0199705 -2.75686e-20)
(0.494256 -0.00138432 0)
(0.512778 -0.00368874 0)
(0.481376 0.00100439 -5.59017e-22)
(0.50761 -0.000854135 0)
(-0.0727484 -0.00630253 6.35781e-20)
(0.566347 -0.0170296 -2.52217e-20)
(0.517081 0.00109916 0)
(0.502216 0.0236164 1.20534e-20)
(0.508847 0.0144437 0)
(0.473669 0.00921777 6.25276e-20)
(0.492775 0.0214135 0)
(0.506496 -0.00996385 0)
(-0.00552593 0.00269616 -1.1995e-19)
(0.515508 -0.00138351 -9.00749e-21)
(0.500609 -0.00278545 7.21302e-21)
(0.500553 0.00195781 0)
(0.480243 -0.00255968 0)
(0.513137 -0.00472923 -8.92919e-23)
(0.502046 0.00775967 -7.18178e-21)
(0.502637 -0.00577721 7.91435e-21)
(0.477163 0.0373889 -5.89352e-20)
(0.509641 -0.00961995 -1.45975e-22)
(0.520236 0.00669808 -1.48465e-20)
(0.588009 0.0123865 0)
(0.512458 -0.0048731 1.64269e-23)
(0.430307 0.026712 -7.17192e-20)
(0.515817 -0.00405844 -7.78132e-23)
(0.401763 0.0186231 8.38011e-20)
(0.537644 -0.0148493 1.39745e-20)
(0.497394 0.00294199 0)
(0.508312 -0.0107757 1.20359e-21)
(0.508636 0.00680168 0)
(0.524168 0.00547918 1.02404e-20)
(0.336556 0.032512 -6.01988e-21)
(0.508774 0.00681578 0)
(0.348476 0.0335652 0)
(0.548887 0.018191 -1.4422e-20)
(0.44518 -0.219979 0)
(0.512684 -0.00384572 -5.11137e-23)
(0.521146 0.0221133 4.84797e-21)
(0.474069 -0.0375682 7.93041e-21)
(0.517972 0.00390064 0)
(0.5063 -0.00992094 1.90487e-21)
(0.509385 0.00769361 0)
(0.332524 -0.0219163 0)
(0.509296 0.00948873 0)
(0.485021 0.00266585 0)
(0.508964 0.0101965 3.4828e-23)
(0.524022 0.00530892 0)
(0.501565 -0.0132878 2.44395e-20)
(0.498368 2.08095e-05 -1.37732e-20)
(0.502073 0.0232749 0)
(0.532787 0.0698332 -1.05582e-20)
(0.522689 0.0410754 1.30287e-20)
(0.517003 0.0010608 4.32065e-23)
(0.502132 0.000908625 1.90071e-22)
(0.516346 0.00771279 -2.7289e-21)
(0.518884 0.00529279 1.06295e-20)
(0.502876 0.00245605 -4.65491e-21)
(0.51324 0.005917 -3.36462e-21)
(0.497491 0.00365976 -4.46445e-21)
(0.548449 0.0218535 7.82367e-22)
(0.510299 0.00815022 7.4294e-21)
(0.494042 0.00294353 0)
(0.498871 -0.00924903 -5.13493e-20)
(0.50162 -0.0134085 1.37552e-20)
(0.51629 0.00757649 9.73097e-21)
(0.445342 -0.213559 2.37889e-21)
(0.550296 -0.00623968 -1.67438e-20)
(0.515593 -0.00138474 1.34339e-20)
(0.50962 -0.0133701 1.09462e-21)
(0.518855 -0.00420368 2.07326e-20)
(0.524571 0.0176928 2.87378e-20)
(0.507156 -0.0121928 9.25459e-22)
(0.549704 -0.00585217 8.31181e-20)
(0.509447 -0.0111796 -1.79382e-21)
(0.508612 0.0119478 1.34788e-21)
(0.499931 -4.48282e-05 -5.6937e-20)
(0.540617 -0.0176423 -5.30643e-20)
(0.48166 -0.0519859 2.62825e-20)
(0.501979 0.000890876 -2.23281e-22)
(0.503132 0.0025424 5.46905e-21)
(0.549539 0.0182565 7.77126e-21)
(0.516376 0.0132252 8.2128e-21)
(0.509142 -0.00950549 0)
(0.507536 0.0105343 -4.87967e-21)
(0.518512 0.00103153 -1.03357e-20)
(0.50061 -0.00287085 1.31024e-20)
(0.522227 0.0017423 -1.28053e-20)
(0.506628 -0.00157469 1.87127e-23)
(0.543874 0.0103644 0)
(0.569569 -0.0157505 -3.41164e-20)
(0.512262 -0.0132376 -1.50645e-21)
(0.498438 3.3436e-05 4.22599e-20)
(0.376083 -0.00308635 -2.70363e-20)
(0.491243 0.00285096 3.41513e-20)
(0.486684 -0.00881982 4.53065e-20)
(0.51169 0.00367013 0)
(0.510331 -0.00468613 1.30596e-22)
(0.474163 0.00901018 -5.28247e-20)
(0.359056 -0.0756572 0)
(0.495337 0.0186263 2.59929e-20)
(0.427301 -0.0271776 -7.32051e-20)
(0.507729 -0.0105968 0)
(0.511142 -0.00812417 -5.54701e-23)
(0.49522 0.002215 0)
(0.474822 -0.0378686 -3.20942e-20)
(0.507657 -0.0105619 -2.19283e-23)
(0.54846 0.0149143 6.27389e-20)
(0.495087 0.0187557 1.54507e-21)
(0.498705 -0.00929357 3.18896e-20)
(0.527181 -0.0238486 0)
(0.511997 0.000834169 5.50398e-21)
(0.533586 -0.00898677 0)
(0.509506 -0.000495642 1.33332e-22)
(0.557713 0.0310865 0)
(0.516803 -0.000592733 1.57806e-20)
(0.523147 0.0407126 -1.56414e-20)
(0.579659 -0.0129241 1.51393e-19)
(0.510329 0.00804193 -5.14855e-21)
(0.493277 0.00495488 -3.99037e-22)
(0.496975 0.0211657 -2.06385e-20)
(0.506341 -0.0120418 -4.94227e-21)
(0.506659 -0.00966613 -4.72893e-23)
(0.50158 0.00831492 -1.00236e-21)
(0.512095 0.000849266 -4.89085e-21)
(0.540354 -0.0180852 -3.63913e-20)
(0.501285 0.000998164 -1.01552e-20)
(0.553648 -0.102154 0)
(0.420845 -0.00336201 4.13769e-21)
(0.50673 -0.00156934 -1.47485e-22)
(0.501622 0.00833647 0)
(-0.0108222 -0.0166984 9.1155e-21)
(0.255193 0.0508199 5.15599e-20)
(0.506865 -0.00395944 -1.78031e-22)
(0.536666 0.0284229 -3.57673e-20)
(0.514896 -0.00755314 -1.1643e-20)
(0.506539 -0.00404316 -1.46187e-23)
(0.508869 -0.00456897 9.04035e-21)
(0.553887 -0.100702 2.106e-20)
(0.542539 0.0141908 -3.45188e-20)
(0.536349 -0.00452621 4.43337e-20)
(0.51574 0.00213077 -4.33524e-22)
(0.533202 -0.00915889 1.32911e-20)
(0.517423 0.0160096 0)
(0.509417 -0.0111896 2.84991e-21)
(0.157828 0.0213131 0)
(0.517289 0.00977802 1.75757e-20)
(0.543387 0.0104643 3.38195e-21)
(0.509272 0.00776914 -1.83497e-23)
(0.509168 -0.00939789 3.69499e-21)
(0.520312 0.00662292 2.74483e-20)
(0.106118 -0.00941251 9.19391e-20)
(0.507555 -0.0105289 -3.15289e-21)
(0.580009 -0.012006 -1.65144e-19)
(0.468493 0.0681595 -4.61025e-21)
(0.51334 0.00587914 7.75879e-21)
(0.481178 -0.0512517 -4.94927e-20)
(0.399971 0.0285516 0)
(0.51622 0.0133217 -7.13798e-21)
(0.510343 -0.0048428 3.16684e-23)
(0.518722 -0.00421692 -1.069e-20)
(0.488708 -0.0302724 -1.59931e-20)
(0.516862 0.0049623 3.85723e-23)
(0.517398 0.0156901 7.76004e-21)
(0.532657 0.031369 0)
(0.512093 -0.0131841 1.48985e-21)
(0.536966 0.109076 -2.08331e-21)
(0.514526 -0.00856964 -1.26254e-23)
(0.249502 0.0239617 6.59271e-22)
(0.565318 0.0119573 4.76322e-20)
(-0.00407873 -0.00989137 0)
(-0.0037627 -0.0096002 -9.48541e-21)
(0.145078 0.0232254 4.11223e-20)
(0.481611 0.00104172 -1.67886e-22)
(0.504656 0.0105083 -7.40565e-21)
(0.489692 -0.0407603 3.85067e-20)
(0.499437 0.00555236 0)
(0.500332 0.00105969 0)
(0.524818 0.0176534 -3.23674e-20)
(0.500202 -0.000336483 1.02305e-20)
(0.498636 -0.00527191 -4.3323e-21)
(0.509686 -0.00967017 -1.3425e-23)
(0.488051 -0.0302475 -3.80318e-20)
(0.521466 0.0210205 6.97253e-21)
(0.499696 -0.00258648 0)
(0.500825 -0.00175444 0)
(0.510178 0.00230678 0)
(0.501218 0.000961481 0)
(0.500367 0.00107807 0)
(0.495912 0.00345506 0)
(0.515781 0.00295356 0)
(0.50545 0.00612808 0)
(0.511198 0.00601552 -7.59614e-22)
(0.504179 0.010115 -1.85816e-20)
(0.499919 -2.49166e-05 2.54035e-20)
(0.497267 0.0210533 0)
(0.500464 -0.00010679 0)
(0.532009 -0.00507227 -3.10078e-20)
(0.515451 -0.00414774 1.40063e-22)
(0.508612 0.0119769 -1.39513e-21)
(0.520272 0.0123031 -2.32507e-20)
(0.514509 -0.00869473 1.27826e-22)
(0.511718 0.00150833 -2.05774e-22)
(0.518745 0.00539387 -1.73551e-21)
(0.507293 0.00871934 2.47548e-22)
(0.509503 -0.0108959 -1.79126e-21)
(0.501293 -0.0076047 0)
(0.543314 0.00425457 0)
(0.558751 0.0311393 -3.48746e-23)
(0.539063 -0.0219598 0)
(0.423117 -0.00392019 2.6065e-21)
(0.510325 -0.00329855 -4.3394e-23)
(0.505242 0.00607513 -2.92485e-21)
(0.508872 -0.00433141 -9.98362e-21)
(0.399271 0.0176868 9.14094e-22)
(0.454643 -0.0264014 -2.35715e-22)
(0.515648 0.00291333 -3.95801e-21)
(0.541855 0.0142571 4.53583e-20)
(0.527407 -0.0102243 -2.26082e-20)
(0.35708 0.0335402 2.16274e-21)
(0.511775 -0.00508603 3.28171e-22)
(0.50453 0.0103836 0)
(0.508262 -0.0107944 0)
(0.506325 -0.0119212 5.46046e-21)
(0.48595 0.00399492 2.48785e-21)
(0.493054 0.0215671 1.3591e-20)
(0.529045 -0.00658183 2.01725e-22)
(0.53441 0.00773167 4.65869e-20)
(0.509052 0.00989546 5.45101e-23)
(0.506654 -0.00972733 -1.92373e-21)
(0.513257 -0.019927 -2.14113e-21)
(0.50711 0.00865261 2.37796e-22)
(0.31134 -0.0329368 1.43637e-19)
(0.375736 -0.00550543 -8.82808e-21)
(0.499632 0.0407436 3.00775e-20)
(0.500783 -0.0094446 1.03139e-21)
(0.508522 -0.000874005 5.86644e-24)
(0.49852 0.00101872 3.6929e-22)
(0.53674 -0.00438808 -4.41063e-20)
(0.517895 0.00387594 0)
(0.537648 -0.0101773 0)
(0.494195 0.00293691 1.10496e-20)
(0.511769 0.00269609 0)
(0.462796 -0.0275985 -5.18546e-20)
(0.486702 -0.0183979 -9.6032e-21)
(0.483522 0.000158844 4.8693e-22)
(0.296089 -0.00849174 -7.92169e-20)
(0.520203 -0.00498389 3.59633e-20)
(0.520198 -0.00489826 -3.39048e-20)
(0.438807 -0.0157676 0)
(0.506979 -0.0122869 0)
(0.507948 0.0107211 0)
(0.482448 -0.00423876 -1.48834e-22)
(0.577129 0.135061 -8.65556e-22)
(0.507916 0.0107149 3.18528e-21)
(0.534247 0.00803818 -2.27098e-20)
(0.221688 -0.0688579 0)
(0.515944 0.00219021 -1.2571e-22)
(-0.012123 -0.0190679 1.83027e-20)
(0.314542 -0.0325432 -3.81963e-20)
(0.528186 0.0136429 -1.75642e-20)
(0.504335 0.0101677 5.54333e-21)
(0.5222 -0.0118594 3.89444e-21)
(0.468827 -0.0411338 -7.78525e-20)
(0.468022 -0.0406347 6.95599e-20)
(0.494966 -0.0181589 0)
(0.480943 -0.0588236 0)
(0.00879328 -0.0112412 -2.12117e-20)
(0.48978 0.00304455 -1.09441e-22)
(0.489837 0.00304031 9.98613e-23)
(0.523833 -0.00989462 0)
(0.524089 0.01131 4.53551e-21)
(0.518617 0.0174908 -4.9119e-21)
(0.509549 -0.010833 -1.59371e-21)
(0.499922 -0.00161172 4.2217e-21)
(0.482402 -0.00455918 1.99589e-22)
(0.500561 -0.00254087 -9.50647e-22)
(0.52057 0.0123316 2.43938e-20)
(0.493142 -0.00347515 -1.06417e-22)
(0.493328 -0.00352402 0)
(0.526626 -0.0237696 -3.31986e-21)
(0.490158 -0.0400655 -1.58025e-20)
(0.471043 -0.0161791 0)
(0.503541 0.0801895 1.52952e-21)
(0.51051 -0.003318 5.19446e-23)
(0.502451 0.013184 0)
(0.563733 0.00465981 -7.68056e-20)
(0.439368 0.00572865 -5.4585e-20)
(0.521825 0.0210805 -9.8413e-21)
(0.508496 -0.00627814 1.06732e-21)
(0.532843 -0.0189899 -2.961e-20)
(0.353998 -0.296049 -9.40656e-22)
(0.500863 0.01327 0)
(0.469609 0.068799 -6.03919e-22)
(0.502307 0.0789502 0)
(0.14127 -0.12152 0)
(0.483137 0.0197672 0)
(0.50903 0.0102083 1.08154e-22)
(0.555027 0.150649 -3.39249e-20)
(0.530694 0.0214874 -1.46387e-20)
(0.513127 -0.00890487 7.35035e-21)
(0.523819 -0.0170672 1.31868e-20)
(0.505601 0.0059085 0)
(0.529022 -0.0067208 0)
(0.50288 0.00387893 0)
(0.515634 -0.00991393 6.50544e-21)
(0.503133 0.00382435 -2.55508e-23)
(0.509014 0.00995621 1.26958e-22)
(0.535663 0.00452801 0)
(0.500104 0.00128185 1.5031e-20)
(0.542859 0.00405772 -1.42024e-20)
(0.512242 0.000290778 -2.15085e-20)
(0.501015 -0.00696739 0)
(0.453663 -0.0258236 1.42715e-20)
(0.51703 0.0021156 0)
(0.510972 0.0115705 -3.66481e-21)
(0.500254 -0.00297357 3.28369e-20)
(0.50023 -0.000365332 -4.4268e-20)
(0.537713 0.0113148 1.13054e-20)
(0.495421 -0.0228586 1.88377e-20)
(0.505728 0.00386309 -1.38622e-22)
(0.539185 -0.0215155 0)
(0.531032 0.0213792 -5.26155e-21)
(0.515743 -0.0101375 -6.07068e-21)
(0.495223 -0.0180601 0)
(0.520542 0.000816655 4.37444e-20)
(0.52597 -0.132932 0)
(0.535513 0.0492957 1.59303e-20)
(0.463386 -0.0281378 0)
(0.50176 0.00180424 0)
(0.537954 -0.0100115 -3.30076e-21)
(0.259582 0.055598 -5.17292e-20)
(0.463396 -0.0412966 -2.49795e-20)
(0.537308 0.0113661 0)
(0.513203 -0.0195969 1.84556e-21)
(0.50009 0.00131456 4.68496e-23)
(0.1594 -0.0346431 -1.01987e-20)
(0.503117 0.000857974 0)
(0.487023 0.00158999 -4.41999e-23)
(0.439919 -0.016573 -1.68716e-20)
(0.464352 -0.0406405 -1.08109e-20)
(0.484588 0.00403615 -2.16395e-21)
(0.532295 -0.0188979 4.81603e-20)
(0.348651 0.0335898 2.86983e-21)
(0.500567 -0.00246521 -2.25771e-20)
(0.517024 0.00219713 5.51651e-21)
(0.499493 0.0056518 -1.04685e-20)
(0.527213 -0.00991189 2.25358e-20)
(0.0588744 -0.0129961 -9.75994e-20)
(0.51237 0.00199454 -6.07056e-23)
(0.511745 0.00348228 -1.39104e-22)
(0.49706 -0.0291737 0)
(0.512178 0.00161862 0)
(0.523542 -0.01702 1.08282e-20)
(0.520822 0.0221305 0)
(0.49989 -0.0025813 0)
(0.319787 -0.0036807 -9.94125e-21)
(0.536025 0.0284181 2.93296e-20)
(0.512027 0.00161611 6.20556e-23)
(0.502384 -0.00470751 0)
(0.483062 0.0201935 -3.62865e-22)
(0.50083 -0.0017091 0)
(0.512736 -0.0142837 7.67771e-21)
(0.4999 -0.00164708 1.70456e-20)
(0.494858 0.00209813 1.48438e-21)
(0.520446 0.000890598 -3.06937e-20)
(0.545137 0.0209263 -2.19008e-20)
(0.500073 0.0219103 8.9147e-21)
(0.531484 -0.00981962 1.69087e-20)
(0.511933 -0.00480685 0)
(0.509536 -0.000580105 0)
(0.514124 0.00176117 0)
(0.501011 -0.00765656 -2.139e-23)
(0.316056 -0.0109597 1.56369e-19)
(0.00969247 -0.0126092 1.9404e-20)
(0.499201 -0.00260013 7.21236e-22)
(0.543378 0.047794 0)
(0.504518 -0.00563254 8.39333e-21)
(0.112551 -0.0105647 0)
(0.490757 0.00370175 -8.20931e-21)
(0.498166 0.000905123 -3.40202e-22)
(0.514715 -0.00753905 0)
(0.511818 -0.00487534 0)
(0.492273 0.00340289 0)
(0.576662 0.00800538 -1.56714e-20)
(0.532035 -0.00513157 3.20078e-20)
(0.511776 0.00141742 -9.12746e-23)
(0.49584 -0.0228967 5.77999e-21)
(0.517979 0.000353816 2.09373e-20)
(0.49999 0.00169828 -3.00346e-20)
(0.508797 0.0123026 -1.09898e-21)
(0.510038 0.00243271 0)
(0.516179 0.0026529 -6.42988e-24)
(0.512066 -0.00950369 0)
(0.516132 0.00273728 2.30171e-23)
(0.51795 0.000300424 -1.60992e-20)
(0.496069 0.00348219 4.64316e-21)
(0.511794 0.00125976 2.95196e-23)
(0.501069 -0.00235705 0)
(0.509075 -0.00405039 -6.48913e-21)
(0.59578 0.0527757 0)
(0.495451 0.00336086 0)
(0.502112 -0.00459482 0)
(0.531428 -0.00951302 -2.30174e-20)
(0.459926 -0.100362 -2.21277e-20)
(0.541829 0.0257683 -2.33328e-20)
(0.505706 0.00594617 0)
(0.277277 0.237367 0)
(0.513475 0.00207566 0)
(0.51348 0.00211878 1.32891e-23)
(0.492562 0.00344032 0)
(0.180482 -0.0367007 0)
(0.539934 -0.0196724 -1.32165e-20)
(0.499539 -0.00310059 -2.33843e-20)
(0.508956 -0.0145099 3.58798e-22)
(0.498529 -0.00529352 -2.92891e-21)
(0.517494 3.50459e-05 1.26986e-21)
(0.508034 0.0247839 3.38779e-21)
(0.507269 0.124518 9.60073e-22)
(0.51157 -9.20311e-05 0)
(0.360708 -0.0712108 0)
(0.514198 0.00177667 4.5392e-22)
(0.512341 -0.00295161 -1.07424e-21)
(0.50053 -0.00246547 0)
(0.52384 -0.00958677 0)
(0.420242 -0.0350655 -3.09357e-20)
(0.401179 0.0308404 0)
(0.487337 0.00084898 -6.31067e-22)
(0.488374 0.022521 -4.82576e-21)
(0.534378 -0.0095075 -3.37547e-20)
(0.412127 0.203484 -2.20709e-20)
(0.51909 0.00263618 -1.34538e-20)
(0.51051 0.0074505 0)
(0.502052 0.00177942 0)
(0.510555 0.00740849 0)
(0.437538 0.213014 -4.74624e-20)
(0.462271 -0.0355766 0)
(0.54605 0.0184862 5.23192e-20)
(0.534137 -0.00918914 0)
(0.546343 0.018044 -5.94679e-20)
(0.507843 0.0325888 1.42543e-20)
(0.501102 -0.00700706 0)
(0.509171 -0.0102043 -7.04774e-21)
(0.461885 -0.0366361 0)
(0.500166 -0.000733282 2.75188e-20)
(0.498468 -0.000973476 0)
(0.561014 0.0454656 -2.48671e-22)
(0.499988 0.00164373 1.34822e-20)
(0.508586 -0.000817202 0)
(0.553201 0.0128755 5.74968e-20)
(0.508966 -0.00413381 7.46983e-21)
(0.51208 0.00175901 2.64392e-23)
(0.535219 0.0485452 0)
(0.043645 -0.00187941 5.20945e-21)
(0.497825 -0.00311276 -1.93636e-21)
(0.502803 0.00250748 2.73198e-22)
(0.511919 -0.00930311 -1.97143e-22)
(0.230341 -0.0674433 -3.30504e-20)
(0.517516 5.03141e-05 4.03417e-21)
(0.523356 -0.00858971 8.20106e-21)
(-0.00577598 -0.0121966 9.90641e-21)
(0.504426 -0.00546727 0)
(-0.00420697 -0.0114656 2.4252e-21)
(0.515268 -0.0356925 -3.95137e-20)
(0.499708 0.0219855 9.09423e-21)
(0.49481 0.00561428 -4.56808e-23)
(0.504555 0.0161017 7.9734e-20)
(0.507163 -0.00334588 0)
(0.502202 0.00158244 0)
(0.501201 -0.00504794 -4.06428e-21)
(0.545376 0.020557 0)
(0.497365 0.00358292 0)
(0.551319 0.150235 3.30225e-20)
(0.512334 0.00030676 1.68872e-20)
(0.486822 0.00154675 1.26371e-23)
(0.491482 -0.00220866 -1.68962e-20)
(0.501 0.000961753 2.72311e-24)
(0.499523 -0.0006438 4.07477e-20)
(0.511876 -0.000270496 0)
(0.499121 -0.0376749 1.01021e-20)
(0.508288 0.0324615 -9.07019e-21)
(0.501348 -0.00732556 8.28586e-21)
(0.510409 -0.0043684 -9.55597e-23)
(0.501282 -0.00507052 0)
(0.511815 0.00978377 1.20946e-22)
(0.51211 -0.00282482 7.31952e-22)
(0.511893 0.00987633 -2.12615e-22)
(0.518298 0.0174566 2.33408e-21)
(0.500302 -0.003007 -3.7476e-20)
(0.504699 0.00457799 -2.56678e-22)
(0.51545 0.00216104 6.76276e-21)
(0.50093 0.00276783 -2.49918e-20)
(0.522181 0.0018075 1.30372e-20)
(0.512217 0.0063647 3.14466e-23)
(0.545271 0.0194655 -3.56483e-20)
(0.325604 -0.00221484 7.06176e-21)
(0.50221 -0.00644068 -1.01169e-20)
(0.517093 0.00967427 -1.43647e-20)
(0.508044 0.024483 -5.34764e-22)
(0.517381 -0.00443253 2.76883e-21)
(0.499653 -0.00148596 4.98365e-20)
(0.491742 0.0396257 -3.877e-20)
(0.507907 0.0024319 -9.06688e-22)
(0.518611 -0.000866411 -1.20531e-20)
(0.493904 0.00867799 1.47937e-20)
(0.509623 0.0127906 2.65209e-23)
(0.524656 -0.00314764 2.09214e-20)
(0.390644 0.107475 5.25906e-20)
(0.500126 -0.000703628 -1.10783e-20)
(0.511689 0.00120903 6.78106e-23)
(0.492654 -0.00354348 -2.44104e-21)
(0.544977 0.0190598 -6.15244e-22)
(0.503074 0.000830788 -2.99408e-21)
(0.570164 0.00969618 0)
(0.498961 0.000609959 0)
(0.500425 -0.000111762 0)
(0.50958 0.0128507 0)
(0.501013 -0.00234687 0)
(0.5957 0.0523544 -4.11875e-20)
(0.517325 -0.00397921 0)
(0.53555 -0.0137738 2.53154e-22)
(0.522114 -0.0120261 0)
(0.527861 0.0135336 1.52146e-20)
(0.351828 -0.297935 1.38592e-21)
(-0.00478968 0.00370972 0)
(0.510459 -0.0124612 -1.64065e-22)
(-0.0806166 -0.00485776 -6.24247e-20)
(0.506156 0.0160175 -6.04967e-22)
(0.487333 0.000905227 1.17567e-21)
(0.508309 0.0105767 0)
(0.504647 0.0156467 0)
(0.512484 0.00270514 -7.99556e-23)
(0.500981 0.000998789 -3.04768e-20)
(0.498513 -0.00673181 0)
(0.512702 0.00261363 -5.53027e-22)
(0.516466 7.26112e-05 5.00334e-21)
(0.523321 -0.00869872 0)
(0.505806 0.0839873 0)
(0.467831 0.00582283 -5.9103e-20)
(0.340714 -0.0392228 0)
(0.498979 -0.0115237 5.03605e-23)
(0.0286012 -0.00180187 0)
(0.524764 -0.00304762 2.19155e-20)
(0.0111552 -0.0138304 -1.23335e-22)
(0.524048 -0.0159543 0)
(0.508053 -0.000553323 4.21796e-24)
(0.477531 0.000101523 0)
(0.508062 -0.000433077 0)
(0.501518 0.00263244 0)
(0.49569 -0.0092014 1.75444e-20)
(0.487256 0.00709576 -6.5364e-20)
(0.52424 0.0115666 0)
(0.544616 0.0154711 1.45369e-20)
(0.497327 -0.000967258 -4.08967e-21)
(0.498825 -0.0115308 -1.7537e-20)
(0.505528 0.00375856 0)
(0.478633 0.0348624 -2.91762e-20)
(0.499234 -0.00333897 -6.47803e-23)
(0.514468 0.000885593 -1.40893e-20)
(0.571015 0.0102277 0)
(0.52088 0.0140371 4.32759e-20)
(0.507932 0.00252473 -3.48284e-23)
(0.500874 0.0027727 2.49871e-20)
(0.54034 -0.0115895 -5.38219e-20)
(0.560205 0.0444374 -7.40279e-20)
(0.542084 0.0235417 9.76841e-21)
(0.481277 -0.00280097 -2.71242e-20)
(0.517439 -0.0103955 -2.68198e-20)
(0.517643 0.00353615 -7.2266e-23)
(0.502532 0.00776163 0)
(0.47799 0.000206876 2.57309e-20)
(0.325774 0.0469812 7.79729e-20)
(0.508317 0.0105382 2.30352e-22)
(0.510248 0.00330547 0)
(0.524232 -0.015782 2.84249e-22)
(0.506974 0.0038627 0)
(0.567963 0.0118283 -3.75436e-20)
(0.517885 0.000438545 0)
(0.491206 0.00257723 0)
(0.525466 -0.000494594 0)
(0.512109 0.00648551 7.48647e-23)
(0.582605 -0.0203123 1.29454e-20)
(0.54181 0.0262349 0)
(0.489817 -0.00280267 -2.27123e-22)
(0.499879 -0.00269729 1.22295e-20)
(0.502238 -0.00131694 0)
(0.500003 0.0185302 -2.80929e-20)
(0.468134 0.00523131 5.31783e-20)
(0.478449 0.035328 0)
(0.461078 -0.0988382 2.28994e-20)
(0.490031 0.0171971 3.48111e-20)
(0.516494 0.0024736 4.25142e-22)
(0.268724 0.0260889 -1.65038e-21)
(0.518727 -0.000892339 -4.75237e-21)
(0.509431 -0.0102281 0)
(0.499124 -0.0370204 0)
(0.509453 -0.0103046 0)
(0.514509 0.000837991 1.27097e-20)
(0.506041 0.039016 2.91371e-21)
(0.516508 3.56085e-05 0)
(0.509236 -0.0102556 0)
(0.0809772 0.0295148 -9.28958e-21)
(0.490515 -0.00324849 4.99915e-22)
(0.497607 -0.0292364 -2.18133e-20)
(0.518442 -0.0155219 0)
(0.507082 0.00398305 0)
(0.528155 0.017074 1.61303e-20)
(0.510534 -0.00358172 -5.369e-23)
(0.369677 0.000843306 -3.91793e-21)
(0.490236 0.0169142 0)
(0.509049 0.0101586 1.81762e-22)
(0.501592 0.000367254 1.02566e-20)
(0.506261 0.00710189 0)
(0.520023 -0.0122269 1.25089e-20)
(0.517317 -3.48676e-05 -9.68595e-21)
(0.498138 -0.00325333 -1.84827e-21)
(0.544834 -0.00116655 6.6568e-20)
(0.495447 0.00337269 -1.13736e-22)
(0.497252 -0.000895911 2.6685e-20)
(0.491688 -0.00219374 -4.14163e-20)
(0.461386 0.149843 4.08655e-21)
(0.51089 0.00531713 2.84841e-23)
(0.412257 -0.0197313 -2.57912e-21)
(0.515462 0.00982217 0)
(0.486117 -0.0195501 -4.41802e-20)
(0.445686 -0.0380715 -3.0623e-20)
(0.51692 -0.00207727 9.10504e-21)
(0.500509 -0.00368075 -3.94023e-21)
(0.498556 -0.00674794 0)
(0.39418 0.109676 -4.03569e-20)
(0.526606 -0.00297613 0)
(0.513726 -0.0089858 0)
(0.465476 -0.0108876 6.50198e-21)
(0.539792 -0.0281042 0)
(0.508842 0.0122929 9.0684e-22)
(0.0978984 -0.000323843 -5.82333e-20)
(0.500319 0.0186631 2.53548e-20)
(0.502337 -0.0696196 7.49617e-20)
(0.511121 0.0114589 4.34264e-21)
(0.540669 0.00332409 6.09347e-20)
(0.49414 0.00857483 -2.64971e-21)
(0.503066 -0.000614116 9.39706e-21)
(0.502657 0.00779852 1.53112e-20)
(0.499668 0.00104262 3.57453e-22)
(0.502531 -0.00548401 0)
(0.501233 -0.0022162 0)
(0.540852 -0.0115 5.22442e-20)
(0.515214 -0.0129545 1.1471e-20)
(0.495069 -0.00307879 -2.27371e-20)
(0.500551 -0.0037097 1.3227e-20)
(0.509784 0.0032206 2.83983e-22)
(0.483584 -8.92353e-05 -3.60869e-22)
(0.510751 -0.00737732 -2.3619e-22)
(0.501479 -0.0021265 -1.58011e-22)
(0.507573 0.122156 -3.00226e-21)
(0.544017 0.0154684 -2.55475e-20)
(0.571695 -0.030457 -8.82154e-20)
(0.432774 0.0370391 3.98497e-20)
(0.286369 0.233006 0)
(0.501253 -0.00726093 -9.6037e-21)
(0.515752 -0.00594689 0)
(0.483308 0.000852171 -6.00597e-22)
(0.505325 0.00190953 3.90141e-23)
(0.502305 -0.00540836 0)
(0.526361 -0.00306169 1.05993e-20)
(0.511844 0.013477 0)
(0.497904 -0.00590437 -1.12558e-21)
(0.497928 -0.00592553 -6.06629e-22)
(0.503069 -0.0106063 8.90675e-21)
(0.153047 -0.0142873 7.47827e-20)
(0.512188 -0.00117851 -2.07802e-20)
(0.485652 0.00203015 -3.25129e-22)
(0.48706 -0.0185786 5.2596e-20)
(0.538088 -0.044856 -3.58323e-21)
(0.481441 -0.00298951 -6.07701e-22)
(0.505377 0.00194307 1.02497e-23)
(0.51553 0.00224881 -5.67587e-21)
(0.557177 0.187853 2.05008e-20)
(0.509526 0.00342132 -1.72287e-22)
(0.496926 0.00262002 0)
(0.499414 -0.00692281 0)
(0.517899 0.00218152 -9.14894e-21)
(0.537678 -0.0442372 3.73885e-21)
(0.512238 -0.001101 1.32005e-20)
(0.519414 -0.00473429 0)
(0.508449 0.0114404 3.16917e-21)
(0.578818 -0.00530732 0)
(0.520191 -0.00374344 1.38574e-20)
(0.510189 -0.0170815 0)
(0.574921 0.136286 2.20893e-20)
(0.517879 0.000416898 1.39711e-20)
(0.504486 0.0126549 0)
(0.497262 0.00268512 -6.69024e-22)
(0.517371 -1.545e-05 -1.87969e-20)
(0.486456 0.0200053 0)
(0.517813 0.00220761 -1.66028e-20)
(0.541635 0.0237315 -1.04731e-20)
(0.214274 -0.0639711 -3.38624e-21)
(0.482802 0.000815507 -4.73187e-22)
(0.542842 0.0262017 0)
(0.535346 0.0305793 0)
(0.505753 -0.0102823 1.97266e-21)
(0.509534 0.00752959 -1.33264e-21)
(0.564088 0.0338175 0)
(0.51533 0.00971522 0)
(0.535902 -0.0137426 0)
(0.490722 0.00334274 -2.91264e-20)
(0.519145 0.00257607 1.22227e-20)
(0.548437 0.00686815 0)
(0.510295 -0.0124657 -1.88091e-21)
(0.499616 -0.00152562 -3.34478e-20)
(0.493907 0.00347298 1.61676e-21)
(0.5201 -0.00378651 0)
(0.519688 -0.0195347 -5.21465e-21)
(0.500636 -0.00483466 0)
(0.511016 -0.00503737 0)
(0.499275 0.00240316 -1.22502e-20)
(0.510374 0.00292585 7.00776e-21)
(0.17802 -0.160378 3.84075e-21)
(0.485341 0.00283408 2.0609e-20)
(0.530703 -0.0191783 1.69629e-20)
(0.544431 -0.000937921 -7.10506e-20)
(0.506447 -0.0016342 -5.60924e-23)
(0.494299 0.00347489 0)
(0.48216 -0.0586589 0)
(0.479979 0.0206219 0)
(0.510835 -0.00309466 0)
(0.0907132 0.0394508 1.97929e-20)
(0.502832 -0.00692076 -4.13961e-21)
(0.495806 0.00475158 -1.54977e-22)
(0.500025 0.000212445 2.11654e-20)
(0.495095 -0.00299315 0)
(0.530606 -0.01944 -3.15403e-20)
(0.510871 -0.00296427 0)
(0.0146223 -0.00788876 6.5532e-20)
(0.488092 -0.0105623 -5.02012e-20)
(0.517307 -2.37379e-05 8.18887e-21)
(0.508513 0.0114232 -3.46074e-21)
(0.506754 0.00855071 0)
(0.0519923 -0.00456595 -3.42998e-20)
(0.519764 -0.0122589 1.36897e-20)
(0.498644 -0.0175606 0)
(0.503859 0.00516179 -1.45011e-21)
(0.519466 -0.00486693 0)
(0.505336 -0.0102478 0)
(0.433377 0.035749 -3.98609e-20)
(0.503404 0.00504533 8.08294e-24)
(0.548251 0.00645475 0)
(0.494227 -0.000340746 6.41049e-23)
(0.479328 0.0246702 0)
(0.510859 -0.00742076 -1.54432e-22)
(0.499573 0.00352254 -1.50417e-20)
(0.517719 0.00357409 2.99108e-23)
(0.325397 0.0506825 -8.26147e-20)
(0.50864 0.0121483 -1.07089e-21)
(0.517184 0.00429736 0)
(0.578955 -0.00577632 -2.65316e-20)
(0.515639 -0.0352857 4.5635e-20)
(0.495461 0.00462832 0)
(0.500018 0.00018545 0)
(0.498384 -0.0175484 1.83732e-20)
(0.574083 0.00966669 5.29615e-20)
(0.517281 -0.0105337 0)
(0.419795 0.0053797 1.31961e-20)
(0.500556 0.011424 -2.11226e-22)
(0.487563 0.00719129 7.26378e-20)
(0.462625 0.0577725 2.94728e-20)
(-0.0207834 0.00617056 -7.1197e-20)
(0.502251 -0.00635462 0)
(0.499627 0.00354572 -5.38428e-21)
(0.510919 -0.00810383 1.2759e-21)
(0.537771 -0.0960024 -1.32382e-20)
(0.504652 0.0126338 0)
(0.505305 -0.00529458 -4.00686e-21)
(0.499175 -0.00688647 0)
(0.508288 -0.000660793 1.91945e-22)
(0.510447 -0.00323121 -8.43733e-21)
(0.500246 0.00421794 0)
(0.517286 0.0042513 -2.35007e-21)
(0.510868 0.00513513 2.88063e-22)
(0.488115 -0.0477106 0)
(0.510709 -0.00355111 -7.50652e-23)
(0.503532 0.000355262 1.75097e-20)
(0.397233 -0.0196463 -2.00399e-21)
(0.50002 9.27101e-07 4.53445e-20)
(0.517353 -1.13893e-05 2.42988e-20)
(0.526459 -0.130686 0)
(0.585492 -0.0802063 0)
(0.509844 -0.00449545 -3.16142e-23)
(0.525665 -0.000449892 0)
(0.308386 -0.00358135 0)
(0.508857 -0.0147035 -2.76164e-23)
(0.065787 -0.0116673 6.83956e-20)
(0.530785 -0.0174975 1.33792e-20)
(0.50316 -0.000568784 0)
(0.5365 -0.00303908 -2.60645e-20)
(0.500073 0.000902987 -3.75944e-22)
(0.543461 0.00296939 0)
(0.584293 -0.0813604 0)
(0.51677 -0.00281086 1.3686e-22)
(0.503958 0.00696733 0)
(0.533879 0.0174862 3.77875e-21)
(0.502798 0.00210939 -1.03046e-21)
(0.479255 0.0368045 1.34378e-20)
(0.523219 -0.0105316 0)
(0.508722 0.0115567 -6.1244e-21)
(0.503644 0.000350489 -3.68523e-21)
(0.142428 -0.0139334 -7.82531e-20)
(0.474306 0.125764 5.00535e-21)
(0.50616 0.00696029 0)
(0.519949 -0.00148106 0)
(0.503192 0.00481314 0)
(0.504018 -0.00638589 -4.15124e-23)
(0.511958 0.00102151 4.2626e-22)
(0.507834 -0.000735622 -3.15022e-22)
(0.513828 -0.00591063 -3.71774e-21)
(0.52451 0.0101643 -4.24644e-20)
(0.509881 0.0133425 -1.75619e-21)
(0.501285 0.000843817 0)
(0.509226 -0.000519611 1.63933e-23)
(0.498969 0.0027612 4.03403e-20)
(0.515957 0.00506945 -8.02703e-23)
(0.510162 -0.0113386 -2.69838e-21)
(0.516384 -0.00325665 4.55838e-23)
(0.508857 -0.000164606 2.86512e-21)
(0.517815 0.00837765 -7.52685e-21)