/*--------------------------------*- C++ -*----------------------------------*\
  =========                 |
  \\      /  F ield         | OpenFOAM: The Open Source CFD Toolbox
   \\    /   O peration     | Website:  https://openfoam.org
    \\  /    A nd           | Version:  9
     \\/     M anipulation  |
\*---------------------------------------------------------------------------*/
FoamFile
{
    format      ascii;
    class       volVectorField;
    location    "115";
    object      U;
}
// * * * * * * * * * * * * * * * * * * * * * * * * * * * * * * * * * * * * * //

dimensions      [0 1 -1 0 0 0 0];

internalField   nonuniform List<vector> 
112055
(
(0.478526 0.0162379 0)
(0.503541 -0.00473566 0)
(0.525948 0.000387667 -1.97671e-20)
(0.530099 -0.00485208 5.81439e-21)
(0.550147 0.0278644 -7.36615e-21)
(0.49971 0.00455393 0)
(0.479749 0.0156035 -6.6074e-20)
(0.52988 -0.00454437 0)
(0.51912 -9.07947e-05 -1.24732e-20)
(0.480218 -0.00301536 3.56887e-21)
(0.503523 -0.0048292 1.43843e-20)
(0.481324 0.0197504 -4.44101e-20)
(0.518897 -0.000371755 6.04131e-21)
(0.481356 0.0193715 4.23776e-20)
(0.459026 -0.00689043 -2.6435e-20)
(0.516104 -0.00285829 5.139e-22)
(0.419672 -0.0291046 7.47097e-20)
(0.469592 -0.0487674 -2.34881e-21)
(0.504151 -0.00688244 0)
(0.519034 0.00645604 -7.95009e-21)
(0.519338 -0.00157577 2.66705e-21)
(0.522086 -0.0104956 0)
(0.504161 -0.00698275 -8.29472e-21)
(0.514486 -0.0108126 6.29966e-22)
(0.485887 0.00427228 0)
(0.541874 0.00375871 1.29395e-20)
(0.429716 0.0246724 -2.01264e-20)
(0.500529 0.00187121 0)
(0.499762 0.00449622 0)
(0.519111 -0.00164501 -2.71194e-21)
(0.499991 -2.84376e-05 -4.23652e-20)
(0.547319 0.0238848 0)
(0.516999 0.00137334 0)
(0.121947 0.0428651 -3.87484e-20)
(0.519158 -8.1465e-05 1.14975e-20)
(0.516208 0.00138722 -1.40135e-21)
(0.519162 0.00637785 0)
(0.353788 0.117506 1.63534e-20)
(0.535311 -0.0156583 0)
(0.512212 -0.00167811 1.47902e-22)
(0.516101 0.000968854 4.14595e-21)
(0.533712 -0.0155902 1.16109e-20)
(0.511987 -0.00523913 1.6556e-22)
(0.525752 0.000383318 3.31519e-20)
(0.46852 -0.0490223 0)
(0.51627 -0.00834747 0)
(0.129147 0.0396096 0)
(0.363252 0.0911962 0)
(0.503964 -0.000805363 8.67175e-21)
(0.533315 -0.0157919 2.38348e-21)
(0.529752 -0.0040799 1.647e-20)
(0.537384 0.108931 0)
(0.518365 -0.00496014 -3.71749e-22)
(0.534898 -0.0151731 3.13488e-20)
(0.520037 0.00183236 1.91561e-20)
(0.479466 0.0160778 3.23947e-20)
(0.399609 -0.0815085 -4.87151e-22)
(0.338647 0.0654206 0)
(0.532714 0.0699744 0)
(0.516303 -0.008214 2.23292e-21)
(0.48704 -0.00925345 2.29006e-20)
(0.362903 0.0875096 -3.09376e-21)
(0.512544 0.00361442 -9.14441e-22)
(0.512465 0.00363568 9.65592e-22)
(0.494282 -0.00136655 0)
(0.519659 -1.95077e-05 -1.36318e-20)
(0.348021 0.118357 0)
(0.518734 -0.0137645 0)
(0.508754 0.0147887 7.00938e-22)
(0.519493 -0.00430377 -7.91763e-21)
(0.341622 0.0731475 1.35396e-20)
(-0.0670968 -0.0307311 3.41581e-22)
(0.514292 -0.0108118 0)
(0.438664 0.00590153 7.40456e-20)
(0.570264 0.024867 -1.13947e-19)
(0.256059 -0.204283 -8.2819e-21)
(0.502804 0.000724268 -2.49408e-21)
(0.478809 0.0159474 -3.4216e-20)
(0.541224 0.0494152 -2.20728e-20)
(0.534423 -0.0152221 -4.12273e-20)
(0.519818 0.0388786 -1.19765e-20)
(0.219661 -0.189416 -8.54486e-21)
(0.529552 -0.00407323 0)
(0.541067 0.00523986 1.14406e-20)
(0.516013 -0.00293029 1.4594e-21)
(0.507625 -0.00108222 5.10961e-21)
(0.524952 -0.0353832 -1.63838e-20)
(0.519949 0.0017498 2.00159e-20)
(0.0625752 -0.0372903 1.27865e-19)
(0.519769 0.001859 0)
(0.515531 0.00402249 -1.44284e-21)
(0.516222 0.00136085 1.45057e-21)
(0.5255 -0.0353037 0)
(0.553837 0.0242455 1.69023e-20)
(0.572051 0.02267 0)
(0.502892 0.000813078 3.9988e-21)
(0.546259 -0.00306565 -8.0709e-20)
(0.459687 -0.00686146 4.5044e-20)
(0.49999 -3.45617e-05 1.94594e-20)
(0.402146 -0.080425 0)
(0.518859 -0.000377831 5.53719e-21)
(0.514547 0.000993422 4.46129e-24)
(0.518946 -0.00286659 1.98377e-21)
(0.502538 -0.00575888 -2.84597e-20)
(0.581484 0.025416 0)
(0.330045 -0.024736 -2.9059e-20)
(0.494313 -0.00147599 0)
(0.507861 0.00150885 0)
(0.513085 0.000240374 -7.163e-22)
(0.507653 -0.00087409 0)
(-0.0673907 -0.0307463 6.39664e-20)
(0.586212 -0.0125061 -2.89907e-20)
(0.519916 0.00013648 0)
(0.50196 0.0236652 1.3817e-20)
(0.508707 0.0146547 0)
(0.473681 0.00894321 6.43523e-20)
(0.492598 0.0213138 0)
(0.516824 -0.00267891 0)
(0.0549745 -0.0388467 -1.56482e-19)
(0.51948 -0.000442336 -7.23924e-21)
(0.500617 -0.00279062 8.21511e-21)
(0.500534 0.00191393 0)
(0.480348 -0.00274588 0)
(0.506139 -0.0186255 2.58424e-23)
(0.516116 0.0009872 -7.89147e-21)
(0.502651 -0.00578256 9.21539e-21)
(0.473892 0.0307791 -5.74859e-20)
(0.519249 -0.0121446 1.56086e-21)
(0.523253 0.00291114 -1.17513e-20)
(0.583314 0.0255021 0)
(0.50455 -0.0189426 3.86251e-23)
(0.430274 0.0260174 -7.25204e-20)
(0.512089 -0.016546 1.28663e-21)
(0.40184 0.0177459 8.43915e-20)
(0.535829 -0.0156172 1.2255e-20)
(0.512271 -0.00171702 0)
(0.520106 -0.00231681 1.66823e-21)
(0.508619 0.00696813 0)
(0.526229 0.00209289 8.23949e-21)
(0.394505 0.120872 -2.33529e-20)
(0.508758 0.0069839 0)
(0.380432 0.119867 0)
(0.548901 -0.0055036 -1.01331e-20)
(0.447051 -0.221134 0)
(0.507297 0.00158611 -1.26927e-21)
(0.520796 0.0226816 3.3577e-21)
(0.474502 -0.0377649 8.08461e-21)
(0.514079 -0.00459197 0)
(0.516781 -0.00259725 2.68878e-21)
(0.509676 -0.0374033 0)
(0.34263 -0.0262354 0)
(0.52242 -0.00978796 0)
(0.485071 0.00251242 0)
(0.519034 -0.00481004 -1.71825e-22)
(0.526079 0.00196393 0)
(0.501626 -0.0132914 2.72722e-20)
(0.498389 -7.84617e-05 -1.49243e-20)
(0.501822 0.0233209 0)
(0.531465 0.0696459 -9.58961e-21)
(0.521921 0.0414013 9.75959e-21)
(0.519866 0.000137627 2.41725e-23)
(0.401065 0.0343515 -5.3491e-22)
(0.521378 0.0026662 -1.8406e-21)
(0.519215 0.00608533 7.50542e-21)
(0.5161 0.00033741 -4.74536e-21)
(0.51336 0.00625358 -3.24408e-22)
(0.497488 0.00355053 -4.84674e-21)
(0.547937 0.0234336 7.45059e-22)
(0.518809 0.00248721 7.0002e-21)
(0.494064 0.00283801 0)
(0.498944 -0.00926018 -5.60441e-20)
(0.501682 -0.0134135 1.53498e-20)
(0.521349 0.00263977 6.18575e-21)
(0.447188 -0.21468 2.2611e-21)
(0.549583 -0.00766178 -1.54304e-20)
(0.519514 -0.00044114 1.06086e-20)
(0.504138 -0.00169944 -3.443e-21)
(0.522262 -0.00126096 1.65507e-20)
(0.524304 0.0184607 2.23896e-20)
(0.514367 0.0228991 4.50188e-21)
(0.548886 -0.00706195 7.65605e-20)
(0.521872 -0.000395804 -2.50495e-21)
(0.513241 0.00213935 -1.40885e-22)
(0.499932 -6.29283e-05 -6.22387e-20)
(0.538524 -0.0178932 -4.74322e-20)
(0.482251 -0.0520789 2.67765e-20)
(0.401541 0.0344239 7.29386e-22)
(0.516137 0.000344627 5.57573e-21)
(0.548362 -0.00613315 5.2329e-21)
(0.51628 0.0137218 3.25198e-21)
(0.509128 -0.00963317 0)
(0.517003 0.00135969 -5.8306e-21)
(0.519627 0.0018887 -7.71978e-21)
(0.500619 -0.00287614 1.48914e-20)
(0.523886 -0.000565287 -1.02119e-20)
(0.51428 0.00488103 1.22657e-22)
(0.543369 -0.000123033 0)
(0.58853 -0.0104331 -3.81031e-20)
(0.513303 -0.0105012 -7.06304e-22)
(0.498457 -6.56118e-05 4.58315e-20)
(0.376313 -0.00411771 -2.71746e-20)
(0.491274 0.00274126 3.61435e-20)
(0.486821 -0.00893186 4.72345e-20)
(0.520844 0.0169285 0)
(0.496456 0.0195357 6.84058e-22)
(0.474175 0.00873943 -5.43891e-20)
(0.359742 -0.0768436 0)
(0.495184 0.0185676 2.81231e-20)
(0.440021 -0.029329 -7.77356e-20)
(0.519157 -0.00278531 0)
(0.511143 -0.00832783 1.37234e-21)
(0.515161 0.000250936 0)
(0.475259 -0.0380591 -3.27162e-20)
(0.519027 -0.00277392 -3.09804e-23)
(0.546338 -0.002832 4.50468e-20)
(0.494933 0.0186936 1.66923e-21)
(0.49878 -0.009305 3.47566e-20)
(0.526546 -0.0238214 0)
(0.51803 0.000287388 4.49605e-21)
(0.530944 -0.00474288 0)
(0.513299 -0.00312804 3.92617e-23)
(0.556373 0.0330868 0)
(0.519649 -2.80478e-05 1.23885e-20)
(0.522379 0.0410514 -1.174e-20)
(0.573103 -0.00298683 1.45876e-19)
(0.518817 0.0024568 -4.86356e-21)
(0.514503 0.000988762 -5.30578e-22)
(0.496783 0.0211298 -2.25368e-20)
(0.506342 -0.0120921 -6.1637e-21)
(0.517517 -0.00203856 -5.58307e-23)
(0.516077 0.00139839 -1.59673e-21)
(0.51808 0.000292374 -4.1384e-21)
(0.538314 -0.018272 -3.25257e-20)
(0.501257 0.000984463 -1.22319e-20)
(0.555749 -0.101393 0)
(0.347432 0.0946872 -2.28901e-20)
(0.514453 0.00486291 -8.73888e-22)
(0.516097 0.001379 0)
(-0.0109797 -0.0173447 9.25359e-21)
(0.255176 0.0491685 5.17334e-20)
(0.495163 0.0146647 -2.4177e-21)
(0.535967 0.0294013 -3.14276e-20)
(0.521066 -0.00378182 -9.6621e-21)
(0.491755 0.015093 -3.47007e-23)
(0.517303 -0.000903996 8.20882e-21)
(0.555973 -0.099904 2.14519e-20)
(0.54583 0.00212867 -2.78156e-20)
(0.534895 -0.00732499 3.67649e-20)
(0.497877 0.0101435 -2.87507e-21)
(0.530614 -0.00465121 1.0467e-20)
(0.517248 0.0165231 0)
(0.521873 -0.000561682 3.94311e-21)
(0.200062 0.0765749 0)
(0.521524 0.00332166 1.30178e-20)
(0.543241 0.000123125 2.6499e-21)
(0.505505 -0.0387256 2.15527e-23)
(0.509153 -0.00952535 6.19214e-21)
(0.523303 0.00288308 2.16964e-20)
(0.160076 0.033512 1.24051e-19)
(0.518828 -0.00285286 -4.48411e-21)
(0.573039 -0.00182445 -1.59204e-19)
(0.468018 0.0675756 -4.7325e-21)
(0.513466 0.00621884 8.91193e-22)
(0.481759 -0.0513538 -5.04125e-20)
(0.399984 0.0276474 0)
(0.51612 0.013811 -2.82642e-21)
(0.497523 0.0178315 1.69971e-22)
(0.522184 -0.00128587 -8.4843e-21)
(0.489006 -0.0303229 -1.66043e-20)
(0.519786 -0.0135609 -5.92682e-22)
(0.517234 0.0162073 3.91658e-21)
(0.570172 0.0269237 0)
(0.512964 -0.00998904 6.98565e-22)
(0.535741 0.108159 -2.00813e-21)
(0.520931 -0.0045646 -1.78294e-23)
(0.300789 0.133362 1.74827e-20)
(0.55063 0.0360422 4.25877e-20)
(-0.00443315 -0.0112808 0)
(-0.00411635 -0.0111576 -9.71306e-21)
(0.186187 0.0806362 4.46396e-20)
(0.513071 0.000261081 -2.14129e-22)
(0.504563 0.0105943 -9.11808e-21)
(0.490107 -0.0407691 3.97845e-20)
(0.499402 0.00547179 0)
(0.500322 0.00103229 0)
(0.524547 0.0184295 -2.54646e-20)
(0.5002 -0.000334082 1.18905e-20)
(0.515328 -0.000878803 -5.05171e-21)
(0.519193 -0.0114874 1.7338e-22)
(0.488353 -0.0303042 -3.9399e-20)
(0.513556 0.021582 4.43473e-21)
(0.513171 0.00231448 0)
(0.500825 -0.00175375 0)
(0.517524 0.000607585 0)
(0.50119 0.000947563 0)
(0.500355 0.00105057 0)
(0.495919 0.0033483 0)
(0.519979 0.00101886 0)
(0.516592 0.000969336 0)
(0.515412 0.00391143 -1.79835e-21)
(0.50409 0.0101829 -2.2471e-20)
(0.499921 -4.62133e-05 2.77693e-20)
(0.497074 0.0210207 0)
(0.50046 -0.00010619 0)
(0.531269 -0.00740586 -2.56006e-20)
(0.511444 -0.0171642 -1.86774e-21)
(0.513079 0.00239717 1.3123e-22)
(0.520202 0.0130049 -1.62456e-20)
(0.520931 -0.00468614 1.07299e-22)
(0.517398 0.00110801 -6.84679e-22)
(0.519062 0.00616559 -1.21932e-21)
(0.507231 0.0088637 2.40714e-22)
(0.520489 -0.000595527 -1.95074e-21)
(0.469307 -0.0543459 0)
(0.540919 -0.00240488 0)
(0.557355 0.0332042 -2.90718e-23)
(0.523292 -0.0209171 0)
(0.348336 0.0997884 -1.36904e-20)
(0.517636 -0.000866662 -3.21337e-23)
(0.516543 0.000948162 -2.93711e-21)
(0.517268 -0.000855674 -9.05996e-21)
(0.399354 0.0167947 9.11503e-22)
(0.455006 -0.0268056 -2.39186e-22)
(0.519902 0.00101431 -3.19661e-21)
(0.54562 0.00273796 3.65048e-20)
(0.526828 -0.0114006 -1.85841e-20)
(0.387023 0.119512 9.20676e-21)
(0.511865 -0.00530582 -3.71398e-22)
(0.504439 0.0104654 0)
(0.520059 -0.00240634 0)
(0.506324 -0.0119709 6.79234e-21)
(0.43219 -0.00749412 -3.37545e-20)
(0.492871 0.0214716 1.45727e-20)
(0.528704 -0.00205187 1.59925e-22)
(0.535975 0.00235487 3.82365e-20)
(0.520508 -0.00450373 1.0308e-21)
(0.51754 -0.00208932 -2.3282e-21)
(0.514171 -0.0491954 -1.11654e-20)
(0.507047 0.00879259 2.31699e-22)
(0.378688 -0.0662914 2.24131e-19)
(0.375984 -0.00653697 -8.87029e-21)
(0.495907 0.0344466 2.93585e-20)
(0.494839 -0.00300026 -1.37021e-20)
(0.513842 0.00687212 1.66848e-23)
(0.402535 0.0254437 -3.02409e-21)
(0.53523 -0.00723862 -3.68669e-20)
(0.513608 -0.00410501 0)
(0.535758 -0.0117581 0)
(0.494215 0.00283173 1.17953e-20)
(0.52117 0.0373369 0)
(0.463154 -0.0279227 -5.26677e-20)
(0.486907 -0.0184919 -9.98388e-21)
(0.483595 -2.71783e-06 5.0622e-22)
(0.263041 0.0233502 -6.54467e-20)
(0.523354 -0.00145054 2.86142e-20)
(0.523311 -0.0014114 -2.69638e-20)
(0.439093 -0.0163246 0)
(0.512908 0.0254599 0)
(0.517105 0.00134548 0)
(0.482561 -0.00440134 -1.49574e-22)
(0.576033 0.133502 -8.88869e-22)
(0.517109 0.00133695 3.54608e-21)
(0.535947 0.00266357 -1.86389e-20)
(0.222168 -0.0707255 0)
(0.497787 0.00847157 -1.05742e-21)
(-0.01235 -0.0199597 1.85725e-20)
(0.380053 -0.0614632 -5.99173e-20)
(0.527978 0.0146502 -1.45664e-20)
(0.504243 0.0102392 6.76696e-21)
(0.527762 -0.00357515 3.02625e-21)
(0.469312 -0.0413869 -7.90576e-20)
(0.468501 -0.0408955 7.06295e-20)
(0.495118 -0.0181825 0)
(0.481617 -0.0589214 0)
(0.00884667 -0.0121946 -2.12481e-20)
(0.510603 -0.000979081 -8.45786e-23)
(0.51058 -0.000986282 7.80894e-23)
(0.523536 -0.0108618 0)
(0.524017 0.0122354 3.5518e-21)
(0.512458 0.00915222 -1.85211e-21)
(0.520374 -0.000532428 -1.62583e-21)
(0.49993 -0.00162697 4.67424e-21)
(0.482518 -0.00472144 1.94693e-22)
(0.472774 0.0106859 2.77025e-20)
(0.520497 0.0130495 1.7145e-20)
(0.51075 0.00144735 -1.74501e-22)
(0.510729 0.00146429 0)
(0.526017 -0.0237479 -2.84045e-21)
(0.490562 -0.0400704 -1.62948e-20)
(0.471285 -0.0164339 0)
(0.50269 0.0796971 1.87413e-21)
(0.510605 -0.00344955 -6.03833e-22)
(0.461314 0.0427618 0)
(0.54841 0.00239301 -5.97413e-20)
(0.439479 0.00515018 -5.52398e-20)
(0.514323 0.0222451 -5.76878e-21)
(0.508507 -0.00638762 1.8132e-21)
(0.53169 -0.0192978 -2.58891e-20)
(0.355985 -0.297847 -1.20629e-21)
(0.45899 0.045948 0)
(0.469122 0.0682191 -6.20423e-22)
(0.501474 0.0784675 0)
(0.142142 -0.122275 0)
(0.483016 0.0195588 0)
(0.517704 -0.00787245 8.0154e-23)
(0.554048 0.14936 -3.36727e-20)
(0.530265 0.022389 -1.23638e-20)
(0.519654 -0.00431012 6.00705e-21)
(0.531776 0.0024509 8.7206e-21)
(0.505556 0.00598565 0)
(0.528664 -0.00209167 0)
(0.51335 -0.00208825 0)
(0.522273 -0.00597391 5.54614e-21)
(0.513461 -0.00211423 2.05402e-23)
(0.520353 -0.00408804 7.95409e-22)
(0.535231 0.00600829 0)
(0.500099 0.0012415 1.71652e-20)
(0.540625 -0.00242242 -1.14021e-20)
(0.5181 0.00011174 -1.7993e-20)
(0.501053 -0.00697291 0)
(0.454021 -0.0262385 1.44617e-20)
(0.520296 0.000551592 0)
(0.510896 0.0118493 -9.51767e-21)
(0.500268 -0.00298685 3.68391e-20)
(0.500228 -0.000362967 -5.14632e-20)
(0.540502 0.00393715 9.3186e-21)
(0.495602 -0.0228704 1.99421e-20)
(0.483526 0.0285046 1.80545e-21)
(0.524345 -0.0203945 0)
(0.530601 0.0222925 -4.4596e-21)
(0.522475 -0.00618901 -5.20005e-21)
(0.495373 -0.0180821 0)
(0.521634 0.00222234 3.38707e-20)
(0.527913 -0.132932 0)
(0.534307 0.0497039 1.42351e-20)
(0.46375 -0.028457 0)
(0.514154 0.0014987 0)
(0.536 -0.0116437 -2.82193e-21)
(0.259544 0.0539589 -5.18999e-20)
(0.463888 -0.0416057 -2.53109e-20)
(0.540191 0.00414806 0)
(0.513018 -0.0467798 9.92484e-21)
(0.500085 0.0012732 4.55452e-23)
(0.183262 -0.134617 -9.08609e-21)
(0.50308 0.000860502 0)
(0.509741 -0.000509959 -4.39716e-23)
(0.440208 -0.0171216 -1.7054e-20)
(0.464839 -0.0409384 -1.09617e-20)
(0.426279 -0.0137084 2.97859e-20)
(0.53118 -0.0192139 4.2194e-20)
(0.399219 0.122235 1.0382e-20)
(0.500573 -0.0024691 -2.57595e-20)
(0.52033 0.000588919 4.39136e-21)
(0.499456 0.00557258 -1.16547e-20)
(0.52667 -0.0111144 1.8543e-20)
(0.0768471 -0.0285957 -1.04858e-19)
(0.521141 0.00820822 -4.43166e-21)
(0.520675 0.0163785 4.20659e-21)
(0.497284 -0.0291499 0)
(0.51762 0.000994373 0)
(0.532434 0.00232471 7.72338e-21)
(0.520476 0.0226877 0)
(0.513217 0.00235089 0)
(0.315754 -0.130898 2.64513e-20)
(0.535336 0.0293773 2.57656e-20)
(0.520345 0.00750412 2.20353e-21)
(0.514966 -0.002281 0)
(0.482937 0.019986 -3.78793e-22)
(0.50083 -0.00170824 0)
(0.513331 -0.0149439 5.30531e-21)
(0.499909 -0.00166362 1.88552e-20)
(0.515127 0.000239342 1.76576e-21)
(0.521528 0.00226832 -2.37536e-20)
(0.557309 -0.00103808 -1.87558e-20)
(0.499855 0.0219218 9.95598e-21)
(0.529333 -0.00425844 1.30163e-20)
(0.518692 -0.00174361 0)
(0.513345 -0.00317785 0)
(0.518969 0.000636055 0)
(0.470842 -0.0560412 4.39614e-23)
(0.283655 0.0208773 1.30411e-19)
(0.00947625 -0.013002 1.9609e-20)
(0.465199 0.0140709 -1.80177e-20)
(0.541948 0.0484167 0)
(0.516484 -0.000832199 7.45796e-21)
(0.169196 0.026671 0)
(0.490782 0.0035884 -8.67547e-21)
(0.401137 0.0234668 3.09483e-21)
(0.520928 -0.00375961 0)
(0.518649 -0.00174 0)
(0.510653 -0.00119491 0)
(0.560076 0.0286494 -1.38953e-20)
(0.531284 -0.00745366 2.65813e-20)
(0.519866 0.00752848 -3.67205e-21)
(0.496016 -0.0229062 6.12922e-21)
(0.519917 -0.000487347 1.61697e-20)
(0.499985 0.00163714 -3.37131e-20)
(0.51403 0.00693315 -1.16478e-21)
(0.517476 0.000625136 0)
(0.49603 -0.00248006 -2.30773e-22)
(0.512043 -0.00973669 0)
(0.495817 -0.00373682 7.1146e-23)
(0.519857 -0.000517828 -1.24348e-20)
(0.496076 0.00337481 4.99832e-21)
(0.519886 0.00646307 9.57865e-22)
(0.501071 -0.00235773 0)
(0.517312 -0.000834823 -5.86194e-21)
(0.58876 0.051077 0)
(0.511821 -0.00148628 0)
(0.514873 -0.00226307 0)
(0.529423 -0.00406022 -1.77187e-20)
(0.461047 -0.100804 -2.21373e-20)
(0.569685 0.0126822 -2.7613e-20)
(0.505661 0.00602733 0)
(0.276578 0.235717 0)
(0.518247 0.000462833 0)
(0.518111 0.000405678 1.46549e-23)
(0.510644 -0.00122147 0)
(0.196792 -0.129782 0)
(0.527634 -0.0186961 -9.63861e-21)
(0.499566 -0.00313924 -2.56836e-20)
(0.495117 -0.00330533 -5.29777e-21)
(0.515296 -0.000878213 -3.35295e-21)
(0.519189 0.000430013 9.56608e-22)
(0.507727 0.0249512 4.4467e-21)
(0.50637 0.123604 5.77091e-22)
(0.513276 -0.000887708 0)
(0.361375 -0.072374 0)
(0.519006 0.000632428 3.70738e-22)
(0.515433 -0.00472262 -1.91958e-21)
(0.500536 -0.00246942 0)
(0.523561 -0.0105822 0)
(0.427781 -0.0373305 -3.19006e-20)
(0.401175 0.0299404 0)
(0.51279 0.000732492 -7.90438e-22)
(0.488203 0.0223672 -5.04125e-21)
(0.531325 -0.00535665 -2.66061e-20)
(0.411761 0.202942 -2.19982e-20)
(0.521725 0.000531637 -1.06904e-20)
(0.526593 0.00328598 0)
(0.514193 0.00149666 0)
(0.526447 0.00356647 0)
(0.437101 0.212401 -4.7325e-20)
(0.46271 -0.0358969 0)
(0.551692 -0.00189028 4.02413e-20)
(0.531292 -0.00501733 0)
(0.550729 -0.0021607 -4.56754e-20)
(0.507408 0.0327003 1.82024e-20)
(0.501139 -0.00701286 0)
(0.519405 -0.00138586 -6.95868e-21)
(0.462334 -0.036963 0)
(0.500164 -0.000728611 3.16348e-20)
(0.498494 -0.00106184 0)
(0.558739 0.0466887 -2.69445e-22)
(0.499983 0.00158399 1.51279e-20)
(0.514009 0.00694605 0)
(0.553382 0.014558 5.29926e-20)
(0.517273 -0.000840115 6.82516e-21)
(0.52054 0.00817554 1.81929e-21)
(0.534034 0.0489699 0)
(0.0416847 0.0584484 4.71077e-21)
(0.515389 -0.000479456 -2.14611e-21)
(0.443877 0.00090684 4.7785e-21)
(0.511901 -0.00953255 -1.89584e-22)
(0.230823 -0.0692704 -3.30851e-20)
(0.519184 0.000448955 3.03786e-21)
(0.523171 -0.00963669 6.46386e-21)
(-0.00620708 -0.0138303 1.0123e-20)
(0.516456 -0.000800507 0)
(-0.00454631 -0.0136493 2.48398e-21)
(0.456702 -0.0289157 9.69361e-21)
(0.499491 0.0219919 1.01164e-20)
(0.514812 0.00105962 -6.08725e-23)
(0.512941 0.0487889 7.94318e-20)
(0.503501 0.0129028 0)
(0.502165 0.00157587 0)
(0.501223 -0.00505347 -4.624e-21)
(0.555991 -0.0013056 0)
(0.497363 0.00347391 0)
(0.550336 0.148974 3.27764e-20)
(0.518137 0.000108715 1.42491e-20)
(0.509771 -0.000499746 -2.53981e-25)
(0.491557 -0.00230353 -1.78232e-20)
(0.500976 0.000945447 2.67057e-24)
(0.499534 -0.0006986 4.44416e-20)
(0.51313 -0.00088188 0)
(0.499431 -0.0375806 1.07127e-20)
(0.507852 0.0325829 -1.16385e-20)
(0.501384 -0.0073298 9.34946e-21)
(0.505149 0.00673803 -2.25852e-21)
(0.501303 -0.00507643 0)
(0.511786 0.0100923 4.04384e-21)
(0.515226 -0.00461092 1.31442e-21)
(0.511862 0.0101896 -1.01002e-20)
(0.512094 0.00854997 7.29312e-22)
(0.500316 -0.00302019 -4.20782e-20)
(0.504656 0.00462458 -3.3396e-22)
(0.515948 0.00249773 4.03431e-21)
(0.500901 0.002721 -2.91947e-20)
(0.523871 -0.000515988 1.04231e-20)
(0.520416 0.00757885 1.55895e-21)
(0.553708 -0.000895361 -2.83469e-20)
(0.310257 -0.132655 -1.96711e-20)
(0.502232 -0.00644456 -1.16675e-20)
(0.521474 0.00323538 -1.06169e-20)
(0.507741 0.0246516 -5.23016e-22)
(0.521517 -0.00161509 2.22775e-21)
(0.499666 -0.00152212 5.46052e-20)
(0.49135 0.0394352 -4.14137e-20)
(0.515148 0.00119414 -1.54349e-21)
(0.519795 -0.00178844 -9.11693e-21)
(0.493869 0.00858666 1.58332e-20)
(0.52788 0.0237008 8.31259e-21)
(0.525748 4.2079e-05 1.66695e-20)
(0.39026 0.106362 5.30349e-20)
(0.500126 -0.000698887 -1.27443e-20)
(0.519639 0.00670376 9.9342e-22)
(0.514513 -0.000479604 -2.9449e-21)
(0.552862 -0.000201597 -9.56293e-24)
(0.503036 0.000832349 -3.78517e-21)
(0.572217 0.014069 0)
(0.498973 0.000516518 0)
(0.500421 -0.000111183 0)
(0.52819 0.0252313 0)
(0.501015 -0.00234742 0)
(0.588735 0.0509117 -3.36151e-20)
(0.517706 -0.00462641 0)
(0.529288 -0.00889804 1.44832e-22)
(0.527945 -0.00360196 0)
(0.52766 0.0145327 1.25172e-20)
(0.35379 -0.29976 1.40016e-21)
(-0.00442955 -0.0028581 0)
(0.510442 -0.00287959 -3.16042e-22)
(-0.0719331 -0.0230717 -6.52864e-20)
(0.454751 -0.0534886 -5.54994e-21)
(0.512817 0.000728337 1.48088e-21)
(0.518693 -0.00096118 0)
(0.442134 -0.0567401 0)
(0.521731 0.0340607 6.32934e-22)
(0.500957 0.000981818 -3.65065e-20)
(0.514985 -0.00110712 0)
(0.520262 0.0334094 4.10517e-21)
(0.519422 5.61601e-06 3.36714e-21)
(0.523129 -0.0097308 0)
(0.504912 0.0834594 0)
(0.467887 0.00549743 -6.05177e-20)
(0.34116 -0.0404746 0)
(0.499059 -0.0115312 5.37128e-23)
(0.0293879 0.0611895 0)
(0.525806 9.78353e-05 1.75603e-20)
(0.0109417 -0.0143536 -1.16337e-22)
(0.530447 0.000278081 0)
(0.521446 -0.00168699 6.974e-23)
(0.47762 -0.000117004 0)
(0.521216 -0.00190575 0)
(0.437803 0.00112909 0)
(0.49579 -0.00923576 1.87851e-20)
(0.487259 0.00695306 -6.8568e-20)
(0.524157 0.0124882 0)
(0.547573 0.000382454 1.1252e-20)
(0.497363 -0.00106369 -4.41006e-21)
(0.498907 -0.0115391 -1.90878e-20)
(0.481024 0.028491 0)
(0.478374 0.034553 -3.02559e-20)
(0.511172 0.00266074 -1.30576e-22)
(0.518956 0.00029839 -1.14355e-20)
(0.572955 0.0148412 0)
(0.525381 0.0457471 4.19747e-20)
(0.515103 0.0011963 -2.19879e-24)
(0.500846 0.00272478 2.91894e-20)
(0.535413 -0.0104342 -4.4439e-20)
(0.55802 0.0457091 -6.84681e-20)
(0.563081 0.00823958 1.00846e-20)
(0.481378 -0.00297618 -2.80811e-20)
(0.524395 -0.00584615 -2.29597e-20)
(0.507686 0.00108708 -2.39182e-21)
(0.502463 0.0077733 0)
(0.478077 -8.73159e-06 2.65643e-20)
(0.325758 0.0456379 7.83054e-20)
(0.518822 -0.000948484 4.64289e-22)
(0.515004 0.00106095 0)
(0.530055 -7.87718e-05 1.89634e-22)
(0.516788 0.000691081 0)
(0.551594 0.0347692 -3.35647e-20)
(0.519239 0.00109666 0)
(0.491239 0.00246743 0)
(0.526058 0.00187296 0)
(0.520367 0.00727427 1.22087e-21)
(0.592483 -0.00624096 1.4261e-20)
(0.571329 0.0128013 0)
(0.409298 -0.0336012 -1.10597e-21)
(0.499897 -0.00272215 1.35389e-20)
(0.502235 -0.00131766 0)
(0.49983 0.0185423 -3.1451e-20)
(0.468195 0.00490964 5.44606e-20)
(0.478186 0.0350163 0)
(0.462183 -0.0992618 2.29088e-20)
(0.489915 0.0170745 3.68498e-20)
(0.501133 0.00769691 3.48514e-21)
(0.311383 0.129101 -3.05037e-20)
(0.519905 -0.00184492 -3.60462e-21)
(0.523134 -0.0108581 0)
(0.499424 -0.0369283 0)
(0.523194 -0.0101892 0)
(0.518952 0.000284464 1.03134e-20)
(0.505528 0.0390378 3.53767e-21)
(0.519423 1.15358e-06 0)
(0.519456 -0.00134084 0)
(0.0809736 0.0274784 -9.31264e-21)
(0.415644 -0.0316732 2.87312e-21)
(0.497824 -0.0292074 -2.32054e-20)
(0.518191 -0.015845 0)
(0.516813 0.000713675 0)
(0.527863 0.0179832 1.3298e-20)
(0.510625 -0.00371749 6.24113e-22)
(0.360222 0.0173683 2.28461e-20)
(0.490122 0.0167935 0)
(0.517677 -0.00864746 4.23719e-22)
(0.501561 0.000363365 1.24868e-20)
(0.516858 0.00120584 0)
(0.519791 -0.0127798 9.08436e-21)
(0.518923 -0.000190753 -7.30481e-21)
(0.515436 -0.000499403 -2.01663e-21)
(0.541172 -0.00548062 5.47713e-20)
(0.511802 -0.00147239 -7.07683e-23)
(0.497288 -0.000992807 2.8766e-20)
(0.491761 -0.00228808 -4.37489e-20)
(0.460671 0.148811 4.19536e-21)
(0.510956 0.00553429 -4.89424e-22)
(0.25466 0.0787229 2.23005e-21)
(0.521498 0.00236142 0)
(0.486335 -0.0196481 -4.58476e-20)
(0.453303 -0.0400541 -3.16144e-20)
(0.520336 -0.000531475 7.24818e-21)
(0.500527 -0.0036921 -4.43646e-21)
(0.515007 -0.00110893 0)
(0.393778 0.108571 -4.06899e-20)
(0.527125 0.000189311 0)
(0.52017 -0.00472303 0)
(0.327302 0.0684282 -1.77472e-21)
(0.538508 -0.0273226 0)
(0.514408 0.00718693 8.62068e-22)
(0.097495 -0.134136 -6.88833e-20)
(0.500142 0.0186787 2.83545e-20)
(0.506445 -0.0699541 7.59905e-20)
(0.511047 0.0117409 1.12604e-20)
(0.540104 0.00450952 5.40056e-20)
(0.494104 0.00848528 -2.84001e-21)
(0.503062 -0.000614877 1.16223e-20)
(0.502587 0.00781231 1.80838e-20)
(0.512971 -0.00212374 2.66799e-22)
(0.516124 -0.000828427 0)
(0.513769 0.0024554 0)
(0.535963 -0.0106544 4.31684e-20)
(0.522284 -0.0114079 1.11606e-20)
(0.495135 -0.00315855 -2.42637e-20)
(0.500568 -0.00372054 1.49157e-20)
(0.515026 0.00110354 4.49384e-22)
(0.483661 -0.000249935 -3.75158e-22)
(0.509155 -0.00167334 -8.8419e-22)
(0.513873 0.00246167 -3.41371e-22)
(0.506663 0.121255 -2.53006e-21)
(0.547531 0.000866334 -2.02278e-20)
(0.570178 -0.0248586 -8.78977e-20)
(0.432663 0.0363404 4.0334e-20)
(0.285687 0.231384 0)
(0.501289 -0.00726497 -1.08284e-20)
(0.521147 -0.00266768 0)
(0.511548 -0.000596294 -5.0562e-22)
(0.47904 0.0143664 3.28799e-22)
(0.516084 -0.000823975 0)
(0.526946 0.000122347 8.5426e-21)
(0.533357 -0.0117526 0)
(0.514666 -0.00123233 -1.59209e-21)
(0.514689 -0.00121326 -8.68788e-22)
(0.503102 -0.0106165 1.02636e-20)
(0.165092 -0.0242183 7.87474e-20)
(0.518131 -0.000426286 -1.75147e-20)
(0.510432 -0.00057551 -2.67337e-22)
(0.487265 -0.0186714 5.46882e-20)
(0.538037 -0.043583 -3.46811e-21)
(0.481545 -0.00316181 -6.29359e-22)
(0.479764 0.0148373 6.30414e-23)
(0.516023 0.00260401 -3.38591e-21)
(0.556693 0.186754 2.05305e-20)
(0.510963 0.0219558 3.01897e-21)
(0.512318 -0.00170761 0)
(0.515096 -0.00116429 0)
(0.518645 0.00286982 -6.57726e-21)
(0.537576 -0.0429815 3.61807e-21)
(0.518135 -0.000397556 1.11169e-20)
(0.522794 -0.00145447 0)
(0.517103 0.00256437 3.4038e-21)
(0.588579 0.00851525 0)
(0.5229 -0.000803956 1.10043e-20)
(0.492851 -0.0253423 0)
(0.57383 0.134762 2.19875e-20)
(0.51926 0.00106886 1.04403e-20)
(0.50437 0.0127451 0)
(0.512338 -0.00172796 -4.09641e-22)
(0.519073 -0.000260051 -1.42615e-20)
(0.486322 0.0198355 0)
(0.518546 0.00288725 -1.17603e-20)
(0.563468 0.0098233 -1.0836e-20)
(0.215677 -0.0643691 -3.4389e-21)
(0.511525 -0.000552828 -4.06058e-22)
(0.553132 -0.0196652 0)
(0.573189 0.0259481 0)
(0.531431 0.014503 -1.61606e-20)
(0.517343 0.00377004 -3.57113e-21)
(0.56216 0.0361307 0)
(0.521521 0.00234515 0)
(0.529689 -0.00912383 0)
(0.490749 0.00322999 -3.07916e-20)
(0.52174 0.000495094 9.69396e-21)
(0.543444 -0.00226294 0)
(0.510244 -0.00223286 8.68343e-22)
(0.499629 -0.00156373 -3.66489e-20)
(0.513866 0.00127784 2.11398e-21)
(0.522867 -0.000828156 0)
(0.519371 -0.0197082 -3.65885e-21)
(0.500664 -0.00484645 0)
(0.506808 0.0150627 0)
(0.499271 0.00230246 -1.34644e-20)
(0.517647 0.00080235 6.18632e-21)
(0.179112 -0.161383 4.18019e-21)
(0.485387 0.00268185 2.15109e-20)
(0.529716 -0.0194879 1.47133e-20)
(0.5409 -0.00531737 -5.84726e-20)
(0.515107 0.00409621 -2.82694e-22)
(0.51389 0.00130456 0)
(0.482833 -0.0587452 0)
(0.479863 0.0203785 0)
(0.51783 -0.000895391 0)
(0.090686 0.0373955 1.98428e-20)
(0.502851 -0.00692782 -4.8221e-21)
(0.399763 -0.0405093 7.55438e-22)
(0.500024 0.000206255 2.48384e-20)
(0.49516 -0.00307343 0)
(0.529644 -0.0197206 -2.73947e-20)
(0.517816 -0.000868859 0)
(0.0146644 -0.009092 6.56299e-20)
(0.488237 -0.0106563 -5.24398e-20)
(0.51893 -0.000142013 6.1756e-21)
(0.517153 0.00268112 -3.71127e-21)
(0.517127 0.00248304 0)
(0.074007 0.0653209 -3.66661e-20)
(0.51954 -0.0127958 9.72691e-21)
(0.498757 -0.0175659 0)
(0.514902 0.00214377 -2.20112e-21)
(0.522883 -0.00151709 0)
(0.52345 0.0177866 0)
(0.433273 0.0350578 -4.03459e-20)
(0.514838 0.00208923 1.91036e-23)
(0.543303 -0.00231272 0)
(0.388026 -0.00326794 -2.67836e-22)
(0.47917 0.024409 0)
(0.509999 -0.00141714 -6.00945e-22)
(0.499557 0.00342556 -1.67024e-20)
(0.507934 0.000540566 1.00588e-21)
(0.325354 0.0493384 -8.29618e-20)
(0.51404 0.00451972 -1.05832e-21)
(0.517573 0.00491967 0)
(0.589656 0.00735433 -2.68413e-20)
(0.456804 -0.0259477 -1.11661e-20)
(0.398141 -0.0395785 0)
(0.500017 0.000180036 0)
(0.4985 -0.0175543 1.98261e-20)
(0.556854 0.0306638 4.70507e-20)
(0.524317 -0.00607409 0)
(0.339418 0.0502538 -4.20542e-20)
(0.500462 0.0114235 -2.05872e-22)
(0.487564 0.00705024 7.61975e-20)
(0.463669 0.0550394 2.99703e-20)
(0.0359672 0.00927001 -8.82861e-20)
(0.502272 -0.00635866 0)
(0.499609 0.00344912 -5.9852e-21)
(0.510921 -0.00829942 5.45952e-21)
(0.539475 -0.0953396 -1.34787e-20)
(0.504536 0.0127258 0)
(0.516598 -0.000781889 -3.93006e-21)
(0.515062 -0.00115029 0)
(0.516507 0.003123 7.88322e-22)
(0.517684 -0.000863723 -7.38854e-21)
(0.512283 -0.00213768 0)
(0.517688 0.0048763 -1.55056e-21)
(0.510942 0.00534937 -1.91824e-21)
(0.488631 -0.047722 0)
(0.515883 -0.00415371 -1.3984e-22)
(0.503496 0.000356376 2.25476e-20)
(0.240587 0.0758036 5.07915e-21)
(0.50002 9.00997e-07 5.35418e-20)
(0.519033 -0.000215919 1.84241e-20)
(0.528384 -0.13066 0)
(0.588657 -0.0784446 0)
(0.503666 0.00756263 -7.5092e-22)
(0.526218 0.00191187 0)
(0.308616 -0.00499545 0)
(0.493272 -0.00403696 -4.84768e-21)
(0.0846014 -0.0268079 7.36051e-20)
(0.523169 -0.00481205 7.67714e-21)
(0.503156 -0.000569859 0)
(0.535157 -0.00623239 -2.16582e-20)
(0.513031 -0.00217437 -2.71201e-22)
(0.540736 -0.00314217 0)
(0.587374 -0.0796589 0)
(0.527559 -0.0111414 -8.23407e-21)
(0.503895 0.00701103 0)
(0.540994 0.0138843 3.43069e-21)
(0.502757 0.00210904 -1.28552e-21)
(0.478971 0.036491 1.39635e-20)
(0.526985 -0.00303066 0)
(0.50863 0.0117593 -9.39237e-21)
(0.503608 0.000352393 -4.76208e-21)
(0.155135 -0.0245497 -8.24106e-20)
(0.473587 0.124855 5.187e-21)
(0.516823 0.00116647 0)
(0.52192 0.000444856 0)
(0.466731 0.0253733 0)
(0.51643 -0.000978159 -3.05174e-23)
(0.512182 0.0010925 -4.09057e-23)
(0.516297 0.00306012 -1.19383e-21)
(0.513937 -0.00625156 -1.2427e-21)
(0.526679 0.00617582 -3.39375e-20)
(0.557387 0.0188975 2.82759e-20)
(0.501257 0.000832195 0)
(0.518923 0.000339429 9.33338e-22)
(0.498964 0.00265367 4.42623e-20)
(0.528249 -0.00338066 3.41711e-21)
(0.515765 0.000778818 -7.59915e-22)
(0.517256 -0.00812048 2.84662e-22)
(0.508929 -0.000172274 6.94868e-21)