/*--------------------------------*- C++ -*----------------------------------*\
  =========                 |
  \\      /  F ield         | OpenFOAM: The Open Source CFD Toolbox
   \\    /   O peration     | Website:  https://openfoam.org
    \\  /    A nd           | Version:  9
     \\/     M anipulation  |
\*---------------------------------------------------------------------------*/
FoamFile
{
    format      ascii;
    class       volScalarField;
    location    "140";
    object      p;
}
// * * * * * * * * * * * * * * * * * * * * * * * * * * * * * * * * * * * * * //

dimensions      [0 2 -2 0 0 0 0];

internalField   nonuniform List<scalar> 
112055
(
0.0198072
0.00564427
-0.00297796
-0.00437959
-0.00293222
0.00903355
0.0192138
-0.00429058
-0.000885025
0.0191874
0.00567695
0.0183624
-0.000733091
0.0183556
0.0288648
0.000539613
-0.0668947
0.0223111
0.00564362
-0.000918104
0.000479864
-7.79741e-05
0.0056595
0.000811512
0.00153477
-0.00128833
0.0413309
0.00735279
0.00899467
0.000460512
0.010007
-0.0142067
0.000443619
-0.0335742
-0.000902874
0.000545418
-0.000977961
0.0641724
-0.00858897
9.80542e-05
0.000322177
-0.00778393
0.00154601
-0.00290767
0.0228346
-0.000104215
-0.0332931
-0.00648065
-0.000611338
-0.00760145
-0.00421773
-0.0172743
0.000133689
-0.00837329
-0.00138732
0.0193406
-0.00493826
-0.0128094
-0.01076
-0.000127923
0.0158423
-0.00705257
0.000371267
0.000356811
0.012648
-0.00118288
0.0666638
1.78234e-05
0.00417751
0.000249425
-0.01227
-0.0664095
0.000920441
0.0378807
-0.0240514
-0.0430462
0.00573939
0.0196624
-0.013747
-0.00812287
0.00294208
-0.0464045
-0.00413839
-0.00158836
0.000525773
0.00328888
-0.00413382
-0.00135793
-0.0311626
-0.00130587
0.000645666
0.000539229
-0.00444822
-0.00250715
-0.0243682
0.00570366
-0.0134136
0.0285276
0.0100014
-0.00488448
-0.000714718
0.000513821
0.000657971
0.00650616
-0.0487164
-0.0685861
0.0126325
-0.00152541
0.000486904
0.00327137
-0.0663331
-0.0230166
-0.00151601
0.00791056
0.00419133
0.0221943
0.0127745
0.000563272
-0.0328041
-0.000950429
0.00743859
0.00736388
0.019141
-0.000513951
0.000329226
0.00642513
-0.0596134
0.00162224
-0.00173365
-0.0472607
-0.000668332
0.0410535
0.000295211
0.0531156
-0.00883808
9.80374e-05
0.000648167
0.00356186
-0.00281571
-0.0032523
0.00348405
-0.00511706
-0.0138322
0.00859442
-0.00162493
-0.00148239
0.0205928
-0.000181289
0.000552296
-0.00153296
-0.0693873
8.73336e-06
0.0169505
0.000195445
-0.00279976
0.00781504
0.0107613
0.00799249
-0.0100452
-0.00275641
-0.00150048
-0.000320217
-0.00085894
-0.0010003
0.000136815
0.00135967
0.0109113
-0.0145192
0.000159202
0.0127338
0.00944268
0.0077872
-0.000865522
0.00843796
-0.00954741
-0.000968348
-0.000364595
-0.0014419
-0.00298103
-0.0023189
-0.00949215
0.000601495
0.000344879
0.0100342
-0.0102428
0.0159734
-0.000387953
0.000127169
-0.014552
0.000522635
0.00329753
0.000448728
-0.00126242
0.00746142
-0.00266682
0.000696892
-0.0101121
-0.0240459
0.00121065
0.0107263
0.0629276
0.0140652
0.0159418
0.0023555
-0.00434873
0.0219436
0.0656426
0.0115377
-0.0656826
0.000654027
0.00218489
0.000349312
0.0201962
0.000642678
-0.0130284
0.0116601
0.00954164
-0.00457048
-0.000561093
-0.0046342
3.33122e-05
-0.0208278
-0.00117396
-0.00296891
-0.025188
0.000137517
0.000513516
0.0106548
0.0050036
0.000476533
0.000548315
-0.000585991
-0.0101412
0.00649992
-0.0271793
-0.00384489
0.000723742
0.000542911
-0.07832
0.0991437
-0.00137078
-0.00916913
-0.000219701
-0.00152292
4.08524e-07
-0.0269887
-0.00881416
-0.00785982
-0.0021956
-0.0045284
0.000178829
0.000608671
-0.0219138
-0.000849424
-0.00979211
-0.00198144
0.00326653
-0.00176782
-0.0264107
0.000644346
-0.0251248
0.0221422
0.00130746
0.0163682
0.0534823
0.000599179
-0.00423533
-0.00140233
0.0140385
0.000191025
0.000181739
-0.00131307
0.00107112
-0.0162664
1.51566e-05
-0.00946457
-0.0228355
-0.0723136
-0.0711774
-0.0221969
0.000487008
0.00611545
0.0129696
0.00932156
0.00718313
-0.00314131
0.00673157
0.000356236
0.00152875
0.0143174
0.00123638
0.000505806
0.00675203
-0.000280646
0.00653297
0.00716318
0.0117841
-0.00118363
0.000141209
0.00062346
0.00634789
0.010043
0.0105092
0.00655101
-0.0061167
0.000307953
0.000348286
-0.00120192
4.87845e-05
0.000825701
-0.000945945
0.00445497
0.000490077
-0.000763712
-0.0103199
-0.0214484
-0.00351193
-0.00385288
-0.000134857
0.000148668
-7.14979e-06
0.0541734
0.0300786
-0.0011604
-0.00831528
-0.00449324
-0.00410642
0.0016064
0.00616282
0.00066259
0.00498976
7.43587e-05
0.0126103
-0.0037371
-0.00580251
0.000298361
0.000489693
0.00557923
0.00454963
-0.000321448
0.0628883
-0.0592832
0.00186882
0.000722932
-0.00152511
-0.00801289
-0.000157624
-0.00864733
0.0126574
0.00292837
0.0263489
0.0155296
0.0176247
-0.0704201
-0.00166913
-0.00167692
0.0374446
-0.00257386
0.000463949
0.0180587
-0.0427458
0.000467581
-0.00566518
0.107943
-0.00233835
-0.0782055
-0.0011327
-0.00448804
0.00625604
-0.00144056
0.0228183
0.0232629
0.0113908
0.0159716
0.140741
4.43194e-05
3.98084e-05
-0.00308484
-0.00277747
-0.000320257
0.000466725
0.00887837
0.0180684
0.00141566
-0.0013185
0.000174692
0.000165509
-0.00431038
0.0127997
0.0230104
0.00433808
0.00204539
-0.00103065
-0.0198089
0.0375128
0.00144272
0.00326166
-0.00694802
-0.00964362
-0.00142324
0.0214479
0.00504605
-0.0213765
0.0175395
-0.00025294
-0.0318859
-0.00587232
0.000218384
-0.0021946
0.00497182
-0.00371727
-9.44573e-06
0.000140734
-9.7137e-06
0.000321222
-0.00673606
0.00801962
-0.0100752
-0.000612476
0.00784773
0.030543
-0.0014719
0.00290425
0.00807787
0.00672259
-0.00657127
0.0110071
0.000821282
-0.00368208
-0.00605215
0.000159749
0.0112555
-0.00186514
-0.015958
-0.00993996
0.0260177
0.00055501
-0.00877858
0.0984803
0.0254183
-0.00634991
0.00539254
0.00804949
-0.0116423
0.00561516
7.98485e-06
0.036977
0.0250591
-4.03731e-05
-0.00669115
-0.00253992
0.00738053
-0.00146687
0.00927275
-0.00440319
-0.0699549
0.00171785
0.00231127
0.00992167
0.000843685
-0.00210988
-0.00130122
0.000513353
-0.00871622
-0.00882805
0.00159453
0.000382638
0.0175421
0.00673709
0.00183248
0.00890868
0.000353867
-0.00182737
-0.00970313
0.00902841
-0.0040888
-0.000182779
5.79033e-05
-0.000916725
-0.000545733
-0.0695412
-0.0830232
0.00129922
-0.0141012
0.000204542
-0.0241236
0.014278
-0.00172594
-0.000193665
-0.000165463
2.79224e-05
-0.0231371
-0.00617958
0.00153684
0.0107864
-0.00165048
0.0087721
0.000890193
-0.000257152
-0.00346306
0.00188344
-0.0035696
-0.00163433
0.0117104
0.00150817
0.00676288
-3.08633e-05
-0.0506289
8.48099e-05
0.000375247
-0.00410521
0.0219058
-0.00463068
0.00492248
0.0668014
0.000865602
0.000865528
2.4914e-05
-0.0109597
-0.00389102
0.00925966
-0.00100025
0.000359037
-0.00114612
0.00495316
-0.00220544
-0.000219326
0.0663753
-0.000931966
0.000382467
0.00743079
-0.00308809
-0.0691749
0.0530792
0.000481191
0.0149398
-0.00475782
-0.0806353
-0.00187544
0.00136178
0.000554964
0.00136025
-0.0783075
0.0262787
-0.0110747
-0.00474121
-0.0113163
0.0049664
0.00778359
0.000395568
0.0263273
0.00707383
0.0106444
-0.0241147
0.00877892
0.000775018
-0.0156607
-1.72366e-05
0.00165144
-0.00972595
-0.0661389
0.000301839
-0.0071976
0.00193302
0.105788
-0.00114915
-0.00292309
-0.0726034
0.00020128
-0.0707275
-0.00967131
0.00921293
0.000515824
-0.0213734
-0.000349105
0.00612383
0.00741011
-0.0100613
0.0109887
-0.0297807
-0.000631789
1.19745e-05
0.0139151
0.00664347
0.0101187
-0.000263948
0.00852291
0.00474368
0.00762167
-0.00214342
0.00735404
0.0023493
0.000353794
0.00233313
-0.000408696
0.00804338
0.00525822
8.15757e-05
0.00726649
-0.00264551
0.00126807
-0.0101805
-0.00809844
0.00684904
-0.000824496
0.00494108
-0.00111543
0.00961535
0.012724
0.000589759
-0.00166773
0.0125489
0.00323065
-0.00284861
0.0517054
0.0070997
0.00151157
0.000355179
-0.00994449
0.0056373
-0.0248277
0.0104664
0.00657074
0.00344163
0.00680409
-0.0498212
-0.000869651
-0.00451742
-0.00138644
-0.00434555
-0.00416075
-0.0659956
0.000202812
-0.0634271
-0.0106849
0.000483189
0.000453017
-0.0106713
0.00281194
0.00666169
0.00039807
0.00264595
-0.00140322
-0.00290865
0.00293424
0.0248371
0.0752918
0.00934523
-0.0653101
-0.00288913
-0.0827304
-0.00220792
0.000153796
0.0204124
0.000123431
-0.00711788
0.0113618
0.0158734
-0.00285922
-0.0101008
0.011202
0.00943493
0.000599102
0.0192182
7.79586e-05
-0.00101731
-0.0256218
-0.0216673
0.000579041
0.00730636
-0.00562086
-0.0235769
-0.00573618
0.0185954
-0.000132381
-0.000869781
0.00706593
0.020178
0.0792885
0.000461608
0.00052568
-0.00226499
-7.3312e-06
-0.0231403
-0.00115519
0.0140896
-0.00317857
0.00125505
-0.0373617
-0.0046448
-0.00405274
0.00879089
0.00581046
0.00906913
0.0247139
0.0193591
0.0215054
0.014255
-0.00177257
-0.00879678
-0.00169479
0.00173359
0.00854877
0.0016618
-0.00102315
0.00566153
-0.00141065
0.000400106
0.130895
-0.00416159
0.00966336
-0.00064937
-7.35535e-06
-0.00458582
0.00204838
-0.00642755
0.014153
-0.000333296
0.00629122
0.000147937
-0.00145925
-0.00140619
0.000298801
-0.0112808
8.20963e-05
0.0112422
0.0138023
0.016178
0.00235457
-0.0202881
-0.000528699
0.0157716
-0.0690867
-0.0011847
0.00785815
0.000399046
0.0501981
-0.00335927
0.000189012
-0.0125862
-0.0104914
0.000944616
-0.0240516
0.00889472
-0.0763081
0.00283343
-0.00837351
0.0124276
0.00536419
0.00699532
0.000162701
0.000268607
0.000571185
-0.00570208
0.00125156
0.0121462
0.00780666
0.000522912
0.0176026
-0.000433137
0.000585472
-0.00192675
-0.0095994
-0.0253253
0.0397646
0.0657624
0.00768661
-0.000622882
0.000163773
-0.00118342
0.000271089
-0.00328964
-0.000575623
0.000386098
0.000387166
0.00677214
-0.0713445
-0.000418527
5.87612e-05
0.0153433
-0.0111716
0.0185319
-0.00133692
5.40274e-05
-0.0743782
0.00172522
0.00011852
0.000406278
-0.000920482
-0.0108478
-0.000425252
-0.00152047
0.000516073
-0.0345726
-0.00176721
0.00171999
-0.0411865
-0.00116058
0.00639564
0.000113255
-0.00144558
0.0159323
-0.000871155
-0.00510642
-0.109825
0.000163261
-0.0146721
-0.00109235
0.000992368
0.000796434
-0.0249852
-0.000511995
-0.00459879
0.0143009
-0.0018919
-0.0128904
9.56428e-05
0.00964062
0.000532848
-0.00173433
-0.00110886
0.00793491
-0.00232839
0.0098473
-0.000270595
-0.0148804
0.0167885
-0.00600266
-0.0110448
0.00078015
0.000534918
0.0153318
0.0190205
-0.000190333
0.129855
0.00649514
-0.00217684
0.00715602
0.0121467
-0.00598778
-0.000199968
0.139558
0.0151897
-0.00140746
0.000527131
0.000700063
-0.0476015
-0.00133313
0.0094438
0.000591211
-0.00151642
0.000956388
0.0396329
0.000586567
-0.0127588
-0.00305295
0.019257
-0.000312717
0.00929407
-0.000809679
0.0794082
0.000655886
-0.000428041
-0.0330934
-0.0108592
-0.00252931
0.00714707
0.00958254
-0.0229548
-7.10835e-05
-0.00767041
0.00864679
0.0157238
-0.0692389
-0.0305659
0.00679714
0.00924684
0.00229583
-0.0172234
0.00629045
0.000167181
0.000403539
0.000898429
-0.000151441
-1.58399e-06
-0.000477747
0.00234622
0.0133144
0.000428005
0.00541256
-0.0218204
0.00698773
-0.00143694
-0.0161145
-0.0435493
-0.00228611
-0.00324631
0.0862556
-0.00131372
-0.068788
-0.00409618
0.00531937
-0.00779879
0.000164443
-0.0103864
-0.04282
0.00179491
0.00604746
-0.00279746
0.00589
0.0187916
-0.00191082
0.00402245
0.00535904
-0.0711379
0.013397
0.000144554
-0.00178727
0.00114038
0.000260206
0.00159201
0.000872888
0.00076075
-0.00214481
0.00261714
0.00647887
3.0819e-05
0.0100529
0.00173876
0.000129909
0.000657877
0.00268134
-0.00106287
5.83585e-05
-0.00444727
0.00187607
-0.00709464
0.000259468
0.00993083
0.0002814
0.0149878
0.0114063
0.000529359
0.00392113
-0.0333878
0.000787539
0.000519581
0.00281584
-0.0105905
0.0187348
-0.0288592
0.0076224
0.000322587
0.0035146
-0.00386076
0.0223625
0.00131498
-0.00118866
-0.000544118
-0.0315939
0.000816709
-0.000850865
-0.00222449
-0.000342249
-0.00253491
0.00318691
-0.042326
0.00079824
-0.0793017
0.000392834
0.00848482
-0.00346153
0.00671523
-0.0088469
-0.00620801
-0.00153559
-0.0274511
0.0346944
-0.00120104
0.0189072
0.00505672
0.000402991
0.00036019
-0.0254529
0.0101333
0.00609991
0.000692466
-0.0139925
0.0040258
0.000458321
-0.00246721
0.0181759
0.00036058
-0.00419188
0.0104594
0.00743934
-0.000608973
0.0125245
-0.00065447
0.00997753
-0.00123001
-0.0018747
-0.00463296
-0.00250373
-0.00358432
0.0412507
-0.00411028
-0.00582294
0.00443699
-0.000546304
-0.0587757
0.00268834
2.30818e-06
7.56457e-05
-0.0343705
0.00533781
0.00843209
0.00997267
-3.63072e-06
0.00742924
-0.00257448
-0.0442372
0.002223
0.0021755
-0.00294042
-0.0166361
0.000419554
0.00557233
0.000465737
-0.000445942
0.0230135
-0.0022143
-0.00362272
-0.00124189
0.000519763
0.0653341
0.00671018
-0.00514152
-0.00122233
0.00427364
0.00733688
0.0166284
0.000460038
-0.044645
0.00816415
-0.00124172
0.00013794
0.00707323
-0.00115704
-0.0363843
0.000165543
-0.0129503
0.000435371
0.000530708
0.00704155
-0.0145101
0.000428753
-0.00113083
-0.000876288
0.000125319
0.0051768
0.0233178
-0.00232167
0.0775096
-0.0251512
-0.0048297
-0.00698742
-0.0406035
0.00036191
0.0166617
0.0100012
0.0117621
-0.0178324
-7.61226e-05
-0.0800416
-0.000421747
-0.00305244
-0.0550749
-0.00103021
0.0104742
-0.000260622
4.1702e-06
0.000783794
0.00608665
-0.00350859
-0.00121779
-0.000221297
0.000197804
-0.00127051
0.00164898
-0.0126975
-0.00415952
-0.000983297
-0.00172364
-0.000136172
0.000309123
-0.000759988
0.050437
-2.23396e-05
0.0102508
-0.0216776
0.000257907
0.00671045
0.000100783
0.000688869
0.00344825
-0.00813291
-0.00050791
0.00041746
0.000304702
-0.0160237
-0.00733752
0.000624093
0.000733344
-0.000851323
0.000996714
0.0201865
0.00585923
0.000425193
0.000196191
0.00667248
-0.00103339
0.0716278
-0.00150709
-0.000917702
0.111759
0.0061309
-0.0458128
0.0116327
0.00282569
0.00759265
-0.00197396
0.00897704
0.0147829
0.0287171
-0.0246403
0.000504369
0.0791622
-0.00832369
-0.0250405
-0.0459226
-0.00389442
-0.00144578
-0.0117
0.00223568
-0.00290945
-0.000315898
0.000361413
-0.00117077
0.0167266
0.00130966
0.0104722
-0.00439999
-0.00280257
-0.0192425
-0.00306622
0.00305766
0.000465884
0.0159944
-0.00667963
-0.00123216
0.0167062
0.00830758
0.000666284
0.000515775
0.000457231
-0.0403913
-0.00413741
0.00946398
0.00774555
0.0250473
0.000558888
0.00519537
-0.00146168
-0.00127514
-0.0152333
-0.000835813
0.0295177
0.00600689
-0.00126468
0.0355808
0.00055635
-0.0766142
0.0190783
0.000390255
0.00637168
-0.00495799
0.110881
0.000446425
-0.0685806
0.000468367
0.00100511
0.000602333
0.00138478
-0.00288941
-0.00308721
-0.00559266
-0.0436656
-0.0147772
-0.00494323
0.000580034
-0.0241791
-0.0226105
-0.0619817
0.000459507
0.0900423
-0.0647776
-0.00149017
0.00603085
-0.0149798
0.00187476
-0.000542248
-0.000508879
0.000552141
0.000299788
0.00057553
0.0104923
-0.0424294
-0.00256267
-0.00120494
-0.0487529
-0.0436143
0.00929831
0.00187744
-0.000282795
-0.00161125
0.00741651
-0.00129916
0.006629
0.0130408
-0.0101348
0.056075
0.000365933
0.0309587
-0.0445037
0.000203966
0.00796865
0.000800626
0.000635739
0.0145734
-0.0106927
-0.00120767
0.0139278
-0.000580104
0.000613509
-0.00274721
-0.00274607
-0.06561
-0.00878245
0.0106427
0.000562982
-0.00385445
0.00317039
0.0738913
-0.0410082
0.0100107
0.000191241
0.00312986
0.0415404
-0.000115346
-0.00207381
0.000608649
0.00560862
-0.00268892
-0.00119754
0.00818448
-0.0137323
0.000888884
-0.00134974
0.000239924
0.001405
0.00907579
-0.000841896
-0.00133014
0.00785605
0.00512671
-0.0123464
-0.00366753
0.00695758
0.0654702
0.0169536
0.000564142
-0.00128459
0.0040568
0.0106226
-0.00106117
-0.00796949
0.0132877
0.00164766
0.0565294
-0.0455296
-6.33416e-05
-0.00320529
0.00882233
-0.000377845
-0.0227924
-0.00419134
-6.6633e-05
0.00785104
-0.041018
0.0100034
-0.000779062
0.0913807
0.000482272
-0.00101362
0.00836451
0.00637447
0.00737405
0.000370086
-0.00115912
0.0112921
0.000252398
-0.0251288
-0.059403
-0.0179679
-0.000534033
-0.0016876
-0.00110638
-0.000139188
0.000660444
-0.00225638
-0.00103497
-0.00183957
0.0106415
0.0167574
-0.00444218
-0.00989813
-0.00109636
-0.000633144
-0.0167638
0.000545325
-0.0036959
-0.000382884
-0.00249722
-0.0384165
0.00834774
-0.0776423
0.000580729
-0.000282221
0.0118016
0.000163371
-0.0182537
0.00127062
0.00879688
0.000512234
0.0011478
-0.00442591
-1.68903e-05
0.0556781
0.00184523
-0.00833847
0.000381447
-0.000942023
-0.00349549
-0.00523733
0.0083135
0.00508714
0.0474721
0.00214857
0.0108828
-0.00163959
-0.010647
-0.00445097
-0.00124988
8.65235e-05
0.00156963
-0.013536
-0.00016918
-0.000225385
0.0104562
-0.014384
-0.0652562
-0.00216045
-0.00295663
0.00393026
0.00870859
0.00413386
0.0236061
-0.000983974
5.55469e-06
-0.00521755
0.00666794
0.00492396
0.00874989
-0.0232647
-0.0192699
-0.0011986
-0.0696778
-0.00069683
0.0116423
0.00257088
-2.42452e-05
0.000249331
0.00857763
0.0247412
-0.00199264
-0.0450973
0.059959
0.00254068
-0.0159393
0.00166872
0.010131
-0.0188732
-0.0259891
-0.00391676
-0.00619522
-0.00883197
0.00772396
0.00486555
-0.0661333
-0.00314647
0.0261599
0.0115041
9.29428e-05
0.0133
-0.0126892
-0.000659877
0.00635456
-0.0152618
0.00385825
-0.00130305
0.000587347
-0.00127426
-0.0201067
0.000267339
-0.0659081
-0.0459105
0.00166667
0.00191315
-0.0139338
0.0128415
-7.56224e-05
-0.00111963
-0.034787
0.0148802
0.00182911
0.00493936
0.0836671
0.0062269
-0.0143459
-0.0110638
0.0102219
5.83957e-05
-0.0735095
-0.00282046
0.00382397
-0.0804661
0.109696
0.00396463
0.00884088
-0.0130647
-0.00108923
0.010156
-0.00023562
-0.00186747
-0.00113381
0.00261046
0.0166513
0.0988199
0.00876079
-0.000720565
0.000216694
-0.000359821
-0.000948996
-0.000444253
0.0461466
-4.45914e-05
0.0498517
0.000493373
-0.000824748
-0.0432972
-0.00206542
-0.00612744
0.00307924
-0.00166486
0.000522985
0.0104357
0.00052217
0.000395169
0.00160984
0.000768442
0.0456028
0.0053814
0.0147854
-0.0375631
0.000384272
0.00856947
-0.069709
0.00373508
0.00974403
0.000242327
0.0229963
0.0328153
-0.0556908
-0.00508872
-0.00135946
-0.00115665
-0.00668945
0.000377854
-0.00315614
0.0115594
-0.00165027
-0.00351777
0.036959
-0.00291702
-0.00112745
0.0148915
-0.110169
0.00572381
-6.26088e-05
0.00916897
0.00034961
0.00831456
0.00051872
0.000682363
0.00844425
4.81349e-05
-0.00153011
0.0122417
0.00249664
-0.00113234
-0.0010078
0.000644722
0.00619419
0.0075374
0.00201603
-0.00404037
-0.0023023
-0.0157511
0.000617424
-0.00993426
-0.000552083
0.000348985
0.12526
2.68122e-05
0.00709452
-0.0030436
-0.0639751
0.00635704
0.000917572
0.000193007
0.00988085
0.00200374
0.0152375
-0.0678999
-0.00338253
0.0110418
0.0489938
1.82377e-05
0.0118615
0.000327845
0.00717498
0.000577868
-0.014301
-0.0179011
0.000105053
-0.0118086
0.0090528
0.00746244
0.0138424
0.000914475
-0.000439447
-0.000484201
0.00105783
0.00987382
0.000305858
0.000387034
-0.0121688
0.000426303
-0.00678801
0.000570689
-0.0237579
0.000788322
0.00724334
0.00918124
-0.0107
0.00978936
0.00607916
0.00639168
-0.00909383
-0.000171464
-2.32515e-06
0.00771547
-0.000529007
-0.0039442
0.000410048
-0.0719992
0.00442733
0.0100542
0.0187771
-0.00420666
-0.00413408
-0.00443764
-0.000735403
0.0046191
0.00872164
0.00981105
0.000239507
0.030127
0.00816719
0.00217838
0.00014669
0.0237533
0.000152558
0.00925373
0.000618853
0.00177576
-0.0159736
-0.0542308
-0.00112494
0.00722658
0.0283067
0.0649793
0.0117884
0.0055765
-0.0205782
-0.00149797
0.000130609
-0.00163827
0.000943669
0.000361241
0.000437942
0.00967937
0.0005137
0.0032721
0.00217616
0.000245744
0.000796048
-0.0637656
-0.0615191
0.00180247
0.000155983
-0.0292723
0.000435783
0.0152914
-0.002314
0.0146895
0.00735221
0.000242608
-0.00680702
-0.00551468
0.000754322
0.000455723
-0.000955575
0.00153269
-0.00275658
0.00896117
0.0134299
-0.0649589
-0.00450448
-0.0066225
0.00224299
0.000760614
0.000413405
8.47522e-05
0.000279409
-0.0444189
-0.0233344
0.00155448
0.000225979
-0.028228
-0.00134996
0.00613433
-0.00207335
-0.00263477
0.005304
0.0118768
0.00848426
-0.00621703
0.00809658
-3.83626e-05
-0.00105425
0.000503219
0.000534365
0.0214392
-0.0652878
-0.0738669
0.0362746
0.00414904
0.00732258
0.00060037
0.0232744
-0.0020031
0.00833618
-0.0537223
0.0080411
-0.0767096
-0.000167966
-0.019436
0.00248688
-0.000986168
-0.00732336
0.0470483
-0.0644957
-4.0691e-05
-0.00298391
-0.000604208
-0.0243223
-0.000619071
0.00950089
0.00130395
0.00632853
0.00929246
-0.000240376
-0.0241277
-0.0237842
-0.0118007
0.00777816
-0.000721563
0.000444857
-0.0691797
0.00636672
0.000134775
0.000113451
0.000107935
-0.00122667
0.00956643
-0.000872998
0.0182692
0.00893377
0.000642657
0.000356783
-0.0120875
-0.0656397
0.00642578
0.0104502
0.000186316
-0.000939486
0.00775031
0.0005484
-0.00679075
0.0422701
0.00136325
0.000152465
0.0112568
-0.00755469
-0.0237309
-0.069383
0.00871971
-0.0363782
0.000415721
-0.0189846
-0.00227045
-0.000756082
0.000876537
0.0113189
8.58364e-06
-0.00883369
-0.00776836
-0.00107028
-0.0747654
0.0100083
0.00700285
-0.0216156
0.00578779
0.00157066
-0.00722957
0.00732386
-0.00125614
0.000322348
0.0126743
0.00504719
0.000414212
-0.00147807
0.0105329
-0.00125141
-0.0059198
-0.0184219
0.00143563
-0.0113132
0.00634879
-5.55733e-05
-0.00424615
-0.000710669
0.00718607
0.000700336
0.0120487
0.000397252
0.0119977
-0.000954543
-0.00339681
0.00677624
0.0110916
-0.00101241
-0.00782268
-0.000402217
-0.00145169
0.0115068
-0.0283786
0.000199572
-0.046617
-0.000922023
-0.00368437
-0.00130444
-0.00869586
-0.0039162
0.00387124
-0.00154216
0.0066844
-0.0185584
0.000484416
0.000301239
-0.0237701
-0.00378207
-0.00168268
-0.00270651
0.00729049
-0.00702436
-0.00288449
0.0103803
-0.0013067
0.00999502
-0.00185515
0.0269967
-0.00190088
0.00210286
0.000730007
0.000727181
-0.00567555
-0.00102306
-0.000291827
0.00157751
0.00813938
0.0069891
0.00904833
0.0123668
-0.000516042
0.0155943
0.00577234
-0.0630504
-0.000793339
-7.61108e-05
-0.025662
0.00746291
-0.0251579
0.00540352
-0.00333221
-0.000468123
0.00830519
-0.015197
-0.000508722
-0.00332745
0.000635936
0.00048053
0.00189273
0.0054222
-0.00520087
0.000113626
0.000439831
0.00723428
-0.00109054
0.00992482
1.76345e-05
0.00893497
-0.0464816
0.056494
0.00956502
-0.0201812
0.000424226
0.00567789
0.00311728
0.000367519
2.62157e-05
0.000726036
-0.0119161
0.0291914
0.000185164
3.442e-05
-0.0043143
0.00420718
0.00264652
0.000333073
0.000793662
7.10897e-05
0.00934131
9.87787e-05
-0.00154613
-0.000108123
-0.00159451
0.0120792
0.0119659
0.000370772
0.0376887
0.00853837
0.000345041
0.00764048
0.000135815
-2.11255e-06
0.0102515
0.000386013
0.000331429
-0.00470493
-0.0042014
-0.00690054
0.00368039
0.00993232
-0.000987217
0.0282023
0.00789596
0.000659928
0.00275441
-0.0626235
-0.00472257
0.00505496
0.000325393
0.00141975
-0.00983236
-0.00277568
-0.00129904
0.0196393
0.000680107
-0.0145769
0.000354576
0.0101324
0.000160725
-0.0124107
0.00364309
-0.00020101
0.0100042
-0.00117483
0.00373335
0.00252982
0.00895271
0.00363046
0.000566371
6.82409e-05
-0.0322936
-0.0485526
-0.0553616
0.000437828
0.00798805
0.0394752
-0.00752114
0.000406774
0.0113357
0.00111213
-0.00325624
-0.0243592
-0.00632107
-0.000543835
-0.00744067
0.000864576
0.000131965
-0.000106175
0.0119948
-0.0565242
-0.00166825
-0.00167615
-0.0052051
0.00125878
0.000749103
-0.000579471
0.000334107
-0.00323916
0.000817844
-0.0445849
-0.00530821
0.0106749
0.0127025
0.00537341
0.00374541
-0.00137064
-0.000378298
0.00564097
0.000524522
0.0201653
0.0107203
-0.027848
0.000488181
-8.77536e-05
0.0879982
0.0191589
-0.00144784
0.0270575
0.00674003
-0.000261699
0.00937068
0.00080565
0.00448332
-0.00816825
-0.00157003
0.00619149
-0.0001219
0.0248502
-7.24012e-06
0.000450065
0.0163481
0.000102642
-0.0052136
0.0063063
0.0179624
0.000372601
0.01759
-0.00998973
-0.0176932
0.000897604
0.03584
-0.0517152
0.00764311
0.000531727
-0.00126956
-0.00167946
0.00326138
0.00682798
0.00775716
-0.0189706
0.0065369
-0.026557
-0.0281821
-0.0390483
0.00361958
-0.001466
-0.0389183
0.00127457
0.0226173
-0.000630458
0.0583469
-0.00771099
0.000245738
0.00169823
0.000511217
0.00815692
0.00645451
0.00594497
-0.00071373
-0.00229846
-0.0617392
-0.0129426
-0.0219268
0.000840019
0.000501532
0.0021469
0.00557585
-0.00171516
0.0100743
-0.00309147
0.00380333
0.00787924
8.42224e-05
0.0327957
0.00812538
0.0305571
0.00334987
0.000914303
-0.0205766
0.00925241
-0.0573477
-0.00964133
0.000372031
-0.00726982
-0.00242306
0.00920077
0.00136962
0.0124473
0.000434491
-0.000526282
0.00038104
0.00145961
-0.0226036
0.0213154
-0.0135054
-0.00712122
-0.0258678
-0.000595841
0.000279344
0.0232545
0.018709
0.00136438
0.000202877
0.0089905
0.00471737
0.000243812
-0.000932728
-0.014705
-0.068796
-0.000113231
0.00980157
-0.000716309
-0.00320331
-0.00686645
0.0303091
0.0141179
-0.00112792
-0.00149212
0.00430055
-0.000272651
-0.0508999
0.00297483
-0.0737644
0.00610466
0.0138678
6.0773e-05
-0.0109077
-0.0700795
0.0773513
0.000256917
-0.00267229
-0.00149435
0.00146588
0.00292227
0.000251798
0.00914053
0.0226579
-0.000736727
0.00853476
-0.0710278
0.00739996
-0.0042958
-0.0238532
-0.0123782
0.0321093
0.000379359
-0.0676362
0.00749131
0.00109246
0.000353345
-0.0325999
0.000475445
-0.0116342
0.00573724
-0.027718
0.00800338
0.0143232
-0.0102755
0.0094253
-5.96346e-05
0.0099505
-0.0477474
0.0126229
0.00709783
0.000520725
0.0167708
0.00600361
0.000381177
0.00777233
0.00538374
0.00616441
-0.0726175
-0.00197713
-0.0382666
-0.000588119
0.0295231
0.000131689
0.000311193
0.0150087
-0.0238848
-0.01363
0.00187467
0.00044818
0.0339178
0.00627876
0.0175993
0.00043827
-0.000253241
-0.0728782
0.00609882
0.00511289
7.36271e-05
0.00806337
7.06325e-05
-0.00127984
0.000385263
-0.0033177
0.000994289
0.000558392
-0.00298658
0.00977629
-0.00662506
0.00378567
-0.01526
0.00077276
-0.0298373
-0.000541582
-0.00538908
-0.00399841
-0.000859857
0.00407539
-0.00525285
0.0121685
-0.00900791
0.0225458
-0.000830826
-0.00283156
0.00730825
0.000372269
0.00810997
0.00293059
0.022132
0.00834455
0.0801622
-0.000103749
0.0043579
0.00801902
0.0166821
0.0208517
0.00178563
0.000577451
-0.000558479
0.000554591
-0.00101606
-0.00227716
0.0681649
0.0955765
-0.00686333
-0.00743797
0.00991773
0.0153743
-0.00395987
0.00080938
-0.0834547
0.0102573
0.0015298
0.00768707
7.38176e-05
0.000383017
-0.00745029
-0.0148846
0.00148487
0.0198984
0.000304491
-0.0755465
-0.000586702
0.00768428
-0.0190405
0.000317958
-0.0248462
0.00321421
-0.00747874
0.000114887
-8.09697e-05
0.00147399
-0.0590219
-0.0178672
0.00935658
0.00023467
0.0179076
0.00651639
-0.0460462
-0.0367045
0.013772
0.00851793
0.00963545
0.00762946
-0.000479026
0.00842135
-0.00339072
0.00981985
-0.00196271
8.85361e-05
0.00228415
0.000306654
-0.0012977
-0.0686256
0.00248148
0.000127921
-0.00248399
0.000830509
0.0040502
-0.0294887
-0.0747609
0.00669776
0.0285812
-0.0673673
-0.0015504
-0.0733432
0.00334902
0.00882156
0.0100471
0.0112648
0.00775212
-0.014315
0.00266503
-0.0728509
-0.0406055
0.00368433
-0.00416418
0.00999394
-0.047625
-0.00319607
5.44126e-05
-0.0812425
-0.0712748
-0.0740053
0.00511325
0.000226469
0.00849802
-0.000331574
-0.000127801
-0.00133597
-0.00308414
0.0100028
-0.00629078
0.000887942
-0.000464029
0.00579365
0.0088084
0.0110291
-0.0593734
-0.00161289
0.000577394
-6.98231e-06
0.00642521
-0.00903315
0.0179573
-0.0050249
0.00800702
-0.0098487
0.000451483
0.00674911
0.000325097
0.0091982
0.00783201
-0.00211487
-0.0302975
-0.01606
0.0285617
-0.000905472
0.00745606
-0.0010978
0.000404168
-0.0742731
-0.000359059
-0.00577293
-0.010061
-0.0137791
-0.000672509
-0.078407
-0.0284717
0.00460474
0.0058084
0.00052596
-0.00019192
0.00737457
0.0168022
-0.00263625
-0.00670669
-4.40895e-05
0.000204004
0.00124223
-0.00822454
0.000193179
0.0101629
-5.73619e-05
0.00322593
-0.00123811
0.0293099
0.00179073
0.00611466
-0.00795089
0.000206967
-0.0113829
0.000201726
0.00125627
0.000494797
-0.00923225
-0.0629215
0.00259296
0.0226718
-0.010122
-0.0339996
-0.00125992
-0.00107066
-0.000718196
-0.0378238
-0.0230641
0.00153788
0.000496715
-0.0796392
0.0105215
0.00107643
0.00851735
0.0394404
-0.00563794
0.00687645
0.000132347
0.0462622
0.00334721
0.00672838
0.00781614
0.000498008
0.000498888
0.000118627
-0.0111247
-0.026678
-0.0701062
-0.0120185
0.0104073
0.000944733
0.00754831
0.000394693
0.000443255
0.000353397
0.000343613
-0.000728496
6.22795e-05
-0.00216933
-0.0679394
0.000251103
-0.054686
0.011771
0.000469914
0.000388846
-0.00325211
-0.0019183
0.000559779
0.00155401
-0.011512
0.00836408
2.23332e-05
0.000382669
0.000459527
0.00549208
-0.000815597
-0.0547973
-0.00476172
0.00185741
-0.00019629
0.00660302
0.016024
-0.000724783
-0.000792912
-0.0552972
0.000344862
0.0104056
0.00726082
0.00672528
0.0027937
0.00918416
0.00646963
0.0320651
0.00998336
0.00169023
-0.00239318
0.00254649
-0.000354042
0.00418167
-0.0253548
-0.00536289
0.0068814
0.000945652
-0.010711
0.007745
0.00128258
-0.0043047
0.000784196
-0.00249935
-0.0292479
-0.000111864
0.0448304
0.00014654
0.00793066
0.000134005
0.00701224
-0.0639894
0.00148562
0.0328873
-0.00346379
-0.00769009
0.000642006
0.000509502
-0.00136222
0.00915914
0.000180008
9.35199e-05
0.00953707
0.0276607
0.00563701
0.00816816
-0.00473102
-0.0297112
0.00913534
-0.00784359
0.000803822
-0.0144658
-0.00911761
0.00116275
0.00501515
0.00373108
0.0100754
0.00698188
0.00516156
0.00213143
0.000613698
0.041962
0.00857804
0.000458424
0.00778219
-0.00686162
0.00598519
0.00630997
-0.00523462
-1.22039e-06
0.000132846
0.000922346
0.00828897
0.00175849
-0.00242981
0.012335
-0.00336769
0.000355079
0.0030596
0.0117031
-0.00557878
-0.0151899
7.83682e-05
-0.0311223
0.000910745
-0.000812451
-0.000210167
0.0017025
0.00177548
0.000934044
-0.00681498
-0.00126377
0.000136768
0.0071536
-0.00866486
-0.0278785
0.00046696
0.000369327
0.0058405
-0.00111809
-0.0137385
0.00721807
0.00369012
-0.00145949
0.00129696
-0.00305337
0.0166974
-0.00167402
0.00585717
0.000909558
-0.00272607
0.0157954
-0.0228027
0.0082306
-0.0255047
-0.00172725
-0.00216207
0.000418956
-0.0374525
0.00086015
0.00676185
-0.00272629
0.00763857
0.000356868
0.000516127
-0.000287775
-0.0538541
0.0156882
-0.0694428
0.00593777
0.00591235
-0.000920548
-0.000424396
-0.0119353
0.00101751
0.000591613
-0.000572163
-0.000525237
-0.00152584
0.00708983
-0.000621516
0.00779539
-0.0201941
-0.0140784
0.000591448
-0.00988245
0.00475727
-0.0173141
0.00613022
0.0114185
-0.0201148
0.000974167
-0.000426877
0.0151558
0.00255574
-0.00525506
0.0425552
-0.0221784
-0.0428374
-0.0319604
0.000392134
0.0128329
0.000525463
0.000452392
0.000958531
-0.00337371
0.00557243
0.00911118
0.00618897
-0.0123423
-0.000385858