/*--------------------------------*- C++ -*----------------------------------*\
  =========                 |
  \\      /  F ield         | OpenFOAM: The Open Source CFD Toolbox
   \\    /   O peration     | Website:  https://openfoam.org
    \\  /    A nd           | Version:  9
     \\/     M anipulation  |
\*---------------------------------------------------------------------------*/
FoamFile
{
    format      ascii;
    class       volScalarField;
    location    "0.3";
    object      alpha.water;
}
// * * * * * * * * * * * * * * * * * * * * * * * * * * * * * * * * * * * * * //

dimensions      [0 0 0 0 0 0 0];

internalField   nonuniform List<scalar> 
1935
(
2.69645e-06
1.72358e-06
1.03542e-06
6.72035e-07
4.40845e-07
1.6951e-07
3.1158e-08
3.59502e-09
4.21641e-10
9.76944e-11
2.74749e-11
2.43108e-12
1.39967e-13
7.92243e-15
4.79831e-16
3.08494e-17
1.89836e-18
9.95516e-20
4.59022e-21
1.8319e-22
6.18872e-24
1.73675e-25
3.82367e-27
6.07256e-29
1.10834e-30
2.41801e-32
4.76191e-34
8.47598e-36
1.36588e-37
1.99645e-39
2.65137e-41
3.20286e-43
3.52023e-45
3.51839e-47
3.19436e-49
2.63031e-51
1.95995e-53
1.27534e-55
6.83349e-58
3.24034e-60
1.37261e-62
5.46575e-65
2.53674e-67
0.000127944
0.000511585
1.23558e-05
2.10163e-05
1.52562e-05
0.000343387
0.000893596
0.000484134
6.68614e-06
5.66559e-05
0.00113891
0.00241307
3.52375e-06
2.09698e-05
0.00030604
0.00164201
2.22012e-06
1.05863e-05
4.6043e-05
0.000516626
8.65576e-07
4.09103e-06
1.84576e-05
0.000126739
1.61548e-07
7.53437e-07
4.2516e-06
3.79811e-05
2.00851e-08
1.0355e-07
1.27503e-06
6.6529e-06
2.35098e-09
1.37163e-08
1.74351e-07
7.55245e-07
2.90339e-10
1.75524e-09
1.23842e-08
5.99444e-08
7.3531e-11
1.59235e-10
6.70443e-10
3.06291e-09
1.03446e-11
2.45909e-11
6.53077e-11
1.85633e-10
7.85986e-13
3.24157e-12
8.69408e-12
2.00439e-11
4.48178e-14
2.15238e-13
1.00859e-12
3.87189e-12
2.73204e-15
1.36791e-14
7.20535e-14
3.93073e-13
1.7706e-16
9.19555e-16
4.79192e-15
2.42705e-14
1.13294e-17
6.0278e-17
3.12133e-16
1.44881e-15
6.47245e-19
3.6152e-18
1.87807e-17
8.18828e-17
3.08656e-20
1.84821e-19
1.02152e-18
4.42021e-18
1.31804e-21
8.45056e-21
4.94282e-20
2.16735e-19
4.81422e-23
3.3611e-22
2.11872e-21
9.5385e-21
1.49012e-24
1.15729e-23
8.03618e-23
3.76936e-22
3.79734e-26
3.41181e-25
2.69213e-24
1.34272e-23
7.38379e-28
8.38232e-27
7.93198e-26
4.29318e-25
1.10511e-29
1.58283e-28
2.03019e-27
1.22288e-26
2.5934e-31
2.33488e-30
4.35399e-29
3.06425e-28
5.52097e-33
5.35741e-32
7.10529e-31
6.60267e-30
1.06787e-34
1.12301e-33
1.04315e-32
1.1454e-31
1.88008e-36
2.15515e-35
2.17074e-34
1.80599e-33
3.0184e-38
3.79326e-37
4.16536e-36
3.76264e-35
4.42579e-40
6.13236e-39
7.38035e-38
7.27097e-37
5.93412e-42
9.1172e-41
1.2092e-39
1.30548e-38
7.28138e-44
1.24803e-42
1.83505e-41
2.18307e-40
8.18107e-46
1.575e-44
2.58483e-43
3.41004e-42
8.41946e-48
1.83507e-46
3.3873e-45
4.99019e-44
7.93921e-50
1.97712e-48
4.14022e-47
6.86252e-46
6.86163e-52
1.97372e-50
4.7342e-49
8.90006e-48
5.44101e-54
1.83104e-52
5.0848e-51
1.09338e-49
3.97393e-56
1.58762e-54
5.16217e-53
1.2802e-51
2.70625e-58
1.30253e-56
5.00855e-55
1.44193e-53
1.77826e-60
1.03939e-58
4.74184e-57
1.58646e-55
1.23506e-62
8.6546e-61
4.61871e-59
1.78543e-57
1.32946e-64
1.24293e-62
8.65634e-61
4.61921e-59
0.446191
0.811852
0.813246
0.812252
0.807529
0.380092
0.00707951
0.000401749
5.89943e-05
8.81392e-06
1.23905e-06
1.68397e-07
2.1767e-08
2.65563e-09
3.11423e-10
4.77627e-11
1.91134e-11
3.59041e-12
3.386e-13
2.78098e-14
2.15972e-15
1.54492e-16
1.00998e-17
6.04442e-19
3.31608e-20
1.66782e-21
7.68318e-23
3.23606e-24
1.24267e-25
4.33321e-27
1.36458e-28
3.85229e-30
9.65299e-32
2.11838e-33
3.99677e-35
6.31448e-37
8.03051e-39
7.71028e-41
4.92549e-43
4.90934e-45
0.0204857
0.576783
0.812353
0.809332
0.741534
0.42776
0.0225118
0.000645923
8.22197e-05
1.04375e-05
1.32005e-06
1.58064e-07
1.78447e-08
1.91397e-09
2.03282e-10
3.29997e-11
1.25032e-11
2.08306e-12
1.81656e-13
1.44211e-14
1.08061e-15
7.44991e-17
4.70494e-18
2.7272e-19
1.45231e-20
7.10439e-22
3.18931e-23
1.31149e-24
4.92608e-26
1.68329e-27
5.2042e-29
1.44506e-30
3.56831e-32
7.7316e-34
1.4431e-35
2.26014e-37
2.85565e-39
2.7306e-41
1.74605e-43
1.3531e-45
0.00265126
0.0999216
0.395753
0.400175
0.290931
0.202409
0.0539436
0.00254463
0.000114016
1.27982e-05
1.44537e-06
1.58384e-07
1.69688e-08
1.78485e-09
1.74142e-10
2.97291e-11
8.32618e-12
1.10984e-12
9.15994e-14
7.02805e-15
5.03846e-16
3.32445e-17
2.01733e-18
1.12737e-19
5.80443e-21
2.75208e-22
1.2002e-23
4.80469e-25
1.76044e-26
5.87955e-28
1.78004e-29
4.84914e-31
1.17691e-32
2.51102e-34
4.62345e-36
7.15603e-38
8.95076e-40
8.48657e-42
5.39645e-44
3.29597e-46
0.00266455
0.00619849
0.0252547
0.0260465
0.0158152
0.0112984
0.0311128
0.00706451
0.000318002
2.15413e-05
2.26475e-06
2.45034e-07
2.4532e-08
2.24126e-09
1.90824e-10
2.72681e-11
5.07483e-12
5.29268e-13
4.14037e-14
3.03675e-15
2.0694e-16
1.30299e-17
7.58367e-19
4.08156e-20
2.03072e-21
9.33165e-23
3.9544e-24
1.54181e-25
5.51371e-27
1.80086e-28
5.34176e-30
1.42826e-31
3.40817e-33
7.16117e-35
1.30062e-36
1.98867e-38
2.46057e-40
2.31006e-42
1.45635e-44
7.11236e-47
0.00153836
0.00222468
0.00420184
0.00474129
0.00392768
0.00264479
0.00181249
0.00352257
0.000567322
3.75487e-05
3.36432e-06
3.03906e-07
2.62047e-08
2.11287e-09
1.68849e-10
2.12754e-11
2.54694e-12
2.13865e-13
1.57969e-14
1.09705e-15
7.10003e-17
4.27359e-18
2.39108e-19
1.24261e-20
5.99163e-22
2.67662e-23
1.10563e-24
4.212e-26
1.47483e-27
4.72549e-29
1.37747e-30
3.62529e-32
8.52824e-34
1.76912e-35
3.17658e-37
4.80789e-39
5.89492e-41
5.48812e-43
3.43337e-45
1.36296e-47
0.0005523
0.000824253
0.000889295
0.00102892
0.00086722
0.000594251
0.000341656
0.000140426
0.000191769
2.57035e-05
2.16657e-06
1.80706e-07
1.43327e-08
1.12456e-09
9.18578e-11
1.05146e-11
9.11072e-13
6.75943e-14
4.74516e-15
3.14239e-16
1.9506e-17
1.13243e-18
6.13848e-20
3.10183e-21
1.4587e-22
6.37202e-24
2.57967e-25
9.6514e-27
3.32499e-28
1.04994e-29
3.02091e-31
7.85883e-33
1.82984e-34
3.76177e-36
6.70159e-38
1.00742e-39
1.22786e-41
1.13696e-43
7.07715e-46
2.33187e-48
0.000128577
0.000176096
0.000163491
0.000197508
0.000174456
0.000120359
6.93466e-05
2.83713e-05
4.25133e-06
1.85558e-06
3.28476e-07
3.19825e-08
2.80098e-09
2.71749e-10
2.91427e-11
2.85567e-12
2.19399e-13
1.58103e-14
1.08256e-15
6.98327e-17
4.23033e-18
2.4016e-19
1.27544e-20
6.32573e-22
2.92478e-23
1.25819e-24
5.02385e-26
1.85652e-27
6.3261e-29
1.97842e-30
5.64476e-32
1.45793e-33
3.37408e-35
6.90181e-37
1.22463e-38
1.83518e-40
2.23134e-42
2.06204e-44
1.28091e-46
3.8656e-49
2.04262e-05
2.90893e-05
2.98899e-05
3.34501e-05
3.15242e-05
2.23098e-05
1.29412e-05
5.46912e-06
7.81359e-07
8.15737e-08
8.04788e-09
9.88282e-10
2.78816e-10
5.10374e-11
5.91056e-12
5.05231e-13
3.88691e-14
2.82322e-15
1.92552e-16
1.2319e-17
7.38803e-19
4.14927e-20
2.17979e-21
1.0698e-22
4.89761e-24
2.08772e-25
8.2677e-27
3.03305e-28
1.02702e-29
3.19492e-31
9.07663e-33
2.33663e-34
5.39521e-36
1.10211e-37
1.9546e-39
2.92995e-41
3.56568e-43
3.29922e-45
2.05121e-47
6.14954e-50
2.36826e-06
4.25313e-06
4.88869e-06
5.00304e-06
5.01288e-06
3.70329e-06
2.16208e-06
9.26103e-07
1.4025e-07
1.39819e-08
1.30923e-09
1.4347e-10
4.74705e-11
8.39402e-12
8.47898e-13
7.13802e-14
5.60819e-15
4.10865e-16
2.81001e-17
1.7966e-18
1.07436e-19
6.00842e-21
3.14111e-22
1.53378e-23
6.98703e-25
2.96475e-26
1.16934e-27
4.27532e-29
1.44387e-30
4.48365e-32
1.2726e-33
3.27597e-35
7.57055e-37
1.54914e-38
2.75437e-40
4.14225e-42
5.06025e-44
4.70106e-46
2.933e-48
8.82016e-51
2.31134e-07
4.96304e-07
6.33065e-07
6.64481e-07
7.0134e-07
5.44467e-07
3.23875e-07
1.36986e-07
2.28067e-08
2.21772e-09
2.02745e-10
3.06362e-11
8.97082e-12
1.07366e-12
1.00718e-13
8.64769e-15
6.8843e-16
5.08471e-17
3.49196e-18
2.23682e-19
1.33802e-20
7.47731e-22
3.90362e-23
1.90297e-24
8.65476e-26
3.66731e-27
1.44503e-28
5.28106e-30
1.78396e-31
5.54511e-33
1.57667e-34
4.0693e-36
9.43642e-38
1.93923e-39
3.46548e-41
5.24172e-43
6.44348e-45
6.02446e-47
3.77991e-49
1.13653e-51
1.82902e-08
4.78784e-08
6.91862e-08
7.85128e-08
8.71043e-08
7.10499e-08
4.32199e-08
1.81508e-08
3.37017e-09
3.24393e-10
3.58386e-11
7.35632e-12
1.26686e-12
1.2238e-13
1.10005e-14
9.24761e-16
7.37389e-17
5.46557e-18
3.77643e-19
2.42993e-20
1.45684e-21
8.15278e-23
4.26027e-24
2.07836e-25
9.45962e-27
4.01229e-28
1.58313e-29
5.79665e-31
1.96304e-32
6.12144e-34
1.7475e-35
4.53194e-37
1.05686e-38
2.18596e-40
3.93466e-42
5.9983e-44
7.43493e-46
7.00952e-48
4.43023e-50
1.33181e-52
1.07101e-09
3.95518e-09
6.67082e-09
8.27849e-09
9.67117e-09
8.28634e-09
5.17166e-09
2.17469e-09
4.53995e-10
4.89818e-11
5.93966e-12
1.30339e-12
1.41588e-13
1.33273e-14
1.16259e-15
9.43574e-17
7.227e-18
5.26203e-19
3.6302e-20
2.3367e-21
1.40718e-22
7.90845e-24
4.14366e-25
2.02655e-26
9.24773e-28
3.93358e-29
1.55711e-30
5.72283e-32
1.94656e-33
6.10103e-35
1.75192e-36
4.57384e-38
1.07467e-39
2.24132e-41
4.07095e-43
6.26625e-45
7.84523e-47
7.46998e-49
4.76189e-51
1.43077e-53
8.62904e-11
2.70169e-10
5.68708e-10
7.85385e-10
9.67833e-10
8.69397e-10
5.56022e-10
2.36384e-10
5.81867e-11
6.96364e-12
1.09026e-12
1.41177e-13
1.43997e-14
1.35083e-15
1.16525e-16
9.26982e-18
6.90666e-19
4.87315e-20
3.24484e-21
2.04661e-22
1.23036e-23
6.89666e-25
3.63027e-26
1.78427e-27
8.17992e-29
3.49463e-30
1.38999e-31
5.13597e-33
1.75743e-34
5.54531e-36
1.60431e-37
4.22339e-39
1.00142e-40
2.10938e-42
3.87226e-44
6.02748e-46
7.63331e-48
7.34993e-50
4.72981e-52
1.4187e-54
1.30239e-11
2.79051e-11
4.87013e-11
7.18645e-11
9.0424e-11
8.66741e-11
6.03581e-11
2.7817e-11
6.34554e-12
8.84376e-13
1.28966e-13
1.29596e-14
1.36449e-15
1.27634e-16
1.0926e-17
8.59915e-19
6.32549e-20
4.37641e-21
2.84543e-22
1.74854e-23
1.02082e-24
5.56432e-26
2.92812e-27
1.43805e-28
6.60006e-30
2.83713e-31
1.13615e-32
4.22842e-34
1.45783e-35
4.63752e-37
1.3537e-38
3.59855e-40
8.62324e-42
1.8371e-43
3.41321e-45
5.37986e-47
6.90009e-49
6.72543e-51
4.37115e-53
1.30588e-55
2.03306e-12
5.89116e-12
9.3799e-12
9.48144e-12
9.60396e-12
9.06318e-12
6.07188e-12
2.6641e-12
5.98805e-13
9.17695e-14
1.06636e-14
1.13515e-15
1.20514e-16
1.12764e-17
9.61737e-19
7.51687e-20
5.47682e-21
3.74663e-22
2.4061e-23
1.45515e-24
8.33128e-26
4.4585e-27
2.29254e-28
1.10154e-29
4.98227e-31
2.14644e-32
8.61966e-34
3.21985e-35
1.11845e-36
3.59277e-38
1.05985e-39
2.84939e-41
6.91083e-43
1.4912e-44
2.80779e-46
4.48674e-48
5.83408e-50
5.76047e-52
3.78168e-54
1.12047e-56
1.52633e-13
5.60956e-13
1.26144e-12
1.70215e-12
1.67234e-12
1.46454e-12
7.88575e-13
2.64433e-13
5.1606e-14
7.33467e-15
8.47228e-16
9.27734e-17
9.93896e-18
9.33621e-19
7.96313e-20
6.20421e-21
4.49402e-22
3.05007e-23
1.9404e-24
1.16169e-25
6.58264e-27
3.48637e-28
1.76694e-29
8.37879e-31
3.74266e-32
1.58914e-33
6.30374e-35
2.33166e-36
8.1119e-38
2.62522e-39
7.81132e-41
2.12087e-42
5.20125e-44
1.13616e-45
2.16799e-47
3.51384e-49
4.63535e-51
4.64009e-53
3.07924e-55
9.02499e-58
9.25521e-15
3.52756e-14
8.91936e-14
1.47069e-13
1.55485e-13
1.41264e-13
7.18604e-14
2.16086e-14
3.88619e-15
5.24789e-16
6.32096e-17
7.07573e-18
7.67176e-19
7.25825e-20
6.21243e-21
4.8419e-22
3.49915e-23
2.36424e-24
1.49494e-25
8.88701e-27
4.99705e-28
2.62604e-29
1.32148e-30
6.22558e-32
2.763e-33
1.16435e-34
4.59199e-36
1.69216e-37
5.86546e-39
1.89346e-40
5.6349e-42
1.53438e-43
3.78404e-45
8.33426e-47
1.60759e-48
2.64012e-50
3.53383e-52
3.59081e-54
2.41537e-56
7.0458e-59
5.25838e-16
2.06623e-15
5.37591e-15
8.9332e-15
9.85072e-15
9.27848e-15
4.84405e-15
1.46728e-15
2.77508e-16
3.81522e-17
4.39561e-18
5.0503e-19
5.55598e-20
5.30946e-21
4.57432e-22
3.57782e-23
2.58806e-24
1.74647e-25
1.10112e-26
6.51973e-28
3.64834e-29
1.9078e-30
9.55352e-32
4.48058e-33
1.98142e-34
8.33064e-36
3.28185e-37
1.20981e-38
4.19637e-40
1.35731e-41
4.05561e-43
1.11112e-44
2.76273e-46
6.14714e-48
1.20005e-49
1.9977e-51
2.71357e-53
2.79936e-55
1.90867e-57
5.53371e-60
2.7165e-17
1.12269e-16
3.0614e-16
5.30206e-16
6.0129e-16
5.8013e-16
3.07076e-16
9.29797e-17
1.87055e-17
2.64521e-18
2.92505e-19
3.38258e-20
3.78467e-21
3.66243e-22
3.18476e-23
2.50698e-24
1.82049e-25
1.2306e-26
7.75909e-28
4.58898e-29
2.56275e-30
1.33708e-31
6.67939e-33
3.12599e-34
1.38044e-35
5.80042e-37
2.28619e-38
8.44296e-40
2.93866e-41
9.55347e-43
2.87378e-44
7.93956e-46
1.99406e-47
4.48878e-49
8.87837e-51
1.49917e-52
2.06733e-54
2.16536e-56
1.49656e-58
4.30232e-61
1.26754e-18
5.58966e-18
1.60324e-17
2.9195e-17
3.45258e-17
3.38906e-17
1.83177e-17
5.54881e-18
1.17186e-18
1.70406e-19
1.91603e-20
2.13193e-21
2.43128e-22
2.38772e-23
2.10073e-24
1.66853e-25
1.21955e-26
8.28004e-28
5.23485e-29
3.10074e-30
1.73261e-31
9.04161e-33
4.51657e-34
2.1141e-35
9.34231e-37
3.9308e-38
1.55284e-39
5.75457e-41
2.01259e-42
6.58346e-44
1.99566e-45
5.56474e-47
1.41276e-48
3.21946e-50
6.45498e-52
1.10611e-53
1.54896e-55
1.64756e-57
1.15451e-59
3.28683e-62
5.30835e-20
2.54783e-19
7.73229e-19
1.48567e-18
1.84199e-18
1.83806e-18
1.02139e-18
3.11145e-19
6.85188e-20
1.02637e-20
1.18651e-21
1.26579e-22
1.477e-23
1.47484e-24
1.31559e-25
1.05671e-26
7.79231e-28
5.32651e-29
3.38488e-30
2.01279e-31
1.12798e-32
5.90103e-34
2.95414e-35
1.38588e-36
6.14059e-38
2.59193e-39
1.02803e-40
3.82895e-42
1.34745e-43
4.44062e-45
1.35799e-46
3.82543e-48
9.82512e-50
2.26811e-51
4.61225e-53
8.02361e-55
1.14134e-56
1.23304e-58
8.76206e-61
2.46724e-63
2.08479e-21
1.05564e-20
3.43687e-20
7.00271e-20
9.14247e-20
9.27335e-20
5.33349e-20
1.64282e-20
3.7477e-21
5.7932e-22
6.88448e-23
7.43918e-24
8.50763e-25
8.6528e-26
7.83966e-27
6.3804e-28
4.75666e-29
3.28055e-30
2.09997e-31
1.25631e-32
7.07608e-34
3.71881e-35
1.86947e-36
8.80693e-38
3.91972e-39
1.66263e-40
6.63143e-42
2.48597e-43
8.8144e-45
2.92997e-46
9.04869e-48
2.57743e-49
6.70199e-51
1.56823e-52
3.23594e-54
5.71694e-56
8.26251e-58
9.06781e-60
6.53509e-62
1.81791e-64
7.96495e-23
3.95242e-22
1.40935e-21
3.06032e-21
4.23502e-21
4.35744e-21
2.61375e-21
8.18557e-22
1.92139e-22
3.07042e-23
3.75754e-24
4.17302e-25
4.657e-26
4.83464e-27
4.45562e-28
3.68041e-29
2.77886e-30
1.93727e-31
1.25157e-32
7.54752e-34
4.2808e-35
2.26429e-36
1.14512e-37
5.42659e-39
2.43008e-40
1.03745e-41
4.1671e-43
1.57441e-44
5.63119e-46
1.89009e-47
5.90044e-49
1.70081e-50
4.48053e-52
1.0633e-53
2.22728e-55
3.9974e-57
5.87109e-59
6.54617e-61
4.785e-63
1.31353e-65
2.77965e-24
1.34442e-23
5.33657e-23
1.24264e-22
1.83184e-22
1.9117e-22
1.20451e-22
3.85673e-23
9.25172e-24
1.53104e-24
1.93289e-25
2.20602e-26
2.47133e-27
2.57928e-28
2.42094e-29
2.03238e-30
1.5565e-31
1.09864e-32
7.17538e-34
4.36917e-35
2.4997e-36
1.33296e-37
6.79286e-39
3.24328e-40
1.4635e-41
6.29735e-43
2.55066e-44
9.72423e-46
3.51235e-47
1.19156e-48
3.76332e-50
1.09858e-51
2.93378e-53
7.06457e-55
1.50279e-56
2.74067e-58
4.09131e-60
4.63496e-62
3.43629e-64
9.29917e-67
8.85373e-26
4.4147e-25
1.84956e-24
4.69477e-24
7.40964e-24
7.84526e-24
5.22974e-24
1.72142e-24
4.19233e-25
7.19667e-26
9.38866e-27
1.10314e-27
1.26511e-28
1.3174e-29
1.26053e-30
1.07669e-31
8.37446e-33
5.99302e-34
3.96271e-35
2.44005e-36
1.41029e-37
7.59295e-39
3.90477e-40
1.88104e-41
8.56448e-43
3.71911e-44
1.52081e-45
5.85692e-47
2.13845e-48
7.33891e-50
2.34679e-51
6.94236e-53
1.88045e-54
4.59664e-56
9.93306e-58
1.84117e-59
2.79396e-61
3.21617e-63
2.41834e-65
6.44579e-68
2.58099e-27
1.38741e-26
5.8825e-26
1.65292e-25
2.80649e-25
3.01684e-25
2.14335e-25
7.29042e-26
1.79138e-26
3.19514e-27
4.31445e-28
5.22769e-29
6.15847e-30
6.4588e-31
6.30409e-32
5.48348e-33
4.3361e-34
3.14976e-35
2.11117e-36
1.31627e-37
7.69575e-39
4.18881e-40
2.17665e-41
1.05927e-42
4.8722e-44
2.1376e-45
8.83416e-47
3.44009e-48
1.27077e-49
4.41523e-51
1.43046e-52
4.29073e-54
1.17936e-55
2.92756e-57
6.42832e-59
1.21126e-60
1.86862e-62
2.18564e-64
1.66671e-66
4.37202e-69
6.87507e-29
4.02517e-28
1.7265e-27
5.43008e-27
9.96848e-27
1.08872e-26
8.30768e-27
2.93379e-27
7.2329e-28
1.34256e-28
1.87941e-29
2.35213e-30
2.85003e-31
3.04669e-32
3.03489e-33
2.69017e-34
2.16456e-35
1.59757e-36
1.0866e-37
6.86731e-39
4.06621e-40
2.2401e-41
1.17753e-42
5.79539e-44
2.69574e-45
1.19613e-46
5.00061e-48
1.97065e-49
7.37068e-51
2.59445e-52
8.52129e-54
2.59297e-55
7.23519e-57
1.82441e-58
4.0715e-60
7.79968e-62
1.22332e-63
1.45388e-65
1.12426e-67
2.9004e-70
1.66769e-30
1.07731e-29
4.76963e-29
1.66085e-28
3.32575e-28
3.6914e-28
3.05179e-28
1.12325e-28
2.76537e-29
5.35015e-30
7.77618e-31
1.00677e-31
1.25685e-32
1.3857e-33
1.40928e-34
1.27375e-35
1.04358e-36
7.8323e-38
5.4107e-39
3.46966e-40
2.08267e-41
1.16243e-42
6.18742e-44
3.08274e-45
1.45147e-46
6.5191e-48
2.75927e-49
1.10125e-50
4.17327e-52
1.48909e-53
4.96065e-55
1.53197e-56
4.34096e-58
1.11219e-59
2.52304e-61
4.91437e-63
7.83641e-65
9.46259e-67
7.4189e-69
1.88129e-71
3.65096e-32
2.6635e-31
1.28221e-30
4.71558e-30
1.04382e-29
1.17657e-29
1.06518e-29
4.09652e-30
1.00337e-30
2.02633e-31
3.0624e-32
4.10755e-33
5.29379e-34
6.08779e-35
6.32364e-36
5.83076e-37
4.86728e-38
3.71733e-39
2.61031e-40
1.69981e-41
1.03524e-42
5.85906e-44
3.16072e-45
1.59549e-46
7.61013e-48
3.46245e-49
1.48477e-50
6.00533e-52
2.30712e-53
8.34914e-55
2.8223e-56
8.84889e-58
2.54696e-59
6.63162e-61
1.52943e-62
3.02909e-64
4.91063e-66
6.02416e-68
4.78786e-70
1.19282e-72
7.122e-34
6.08869e-33
3.23449e-32
1.24468e-31
3.03889e-31
3.66252e-31
3.46147e-31
1.4252e-31
3.46315e-32
7.31024e-33
1.15039e-33
1.60099e-34
2.14437e-35
2.58731e-36
2.74625e-37
2.58457e-38
2.19944e-39
1.71046e-40
1.22172e-41
8.08479e-43
4.99969e-44
2.87145e-45
1.5711e-46
8.04104e-48
3.8881e-49
1.79319e-50
7.79537e-52
3.19698e-53
1.24574e-54
4.57417e-56
1.56954e-57
4.99751e-59
1.46143e-60
3.8676e-62
9.06871e-64
1.82629e-65
3.00985e-67
3.75076e-69
3.02127e-71
7.39215e-74
1.2236e-35
1.28631e-34
7.6233e-34
3.0789e-33
8.31432e-33
1.08873e-32
1.06343e-32
4.73728e-33
1.16379e-33
2.51755e-34
4.13142e-35
5.98464e-36
8.60922e-37
1.06495e-37
1.15584e-38
1.1109e-39
9.64286e-41
7.64055e-42
5.55459e-43
3.73786e-44
2.34868e-45
1.36974e-46
7.60623e-48
3.94963e-49
1.93719e-50
9.06163e-52
3.99556e-53
1.6623e-54
6.57254e-56
2.44953e-57
8.53425e-59
2.7602e-60
8.20208e-62
2.20644e-63
5.2602e-65
1.0771e-66
1.80443e-68
2.28383e-70
1.86404e-72
4.47762e-75
1.78564e-37
2.50848e-36
1.68017e-35
7.15042e-35
2.1475e-34
3.08241e-34
3.10207e-34
1.50737e-34
3.96092e-35
8.29633e-36
1.42315e-36
2.23556e-37
3.35563e-38
4.24982e-39
4.71998e-40
4.63575e-41
4.1069e-42
3.31749e-43
2.45622e-44
1.68179e-45
1.0744e-46
6.36639e-48
3.59009e-49
1.8924e-50
9.41987e-52
4.47134e-53
2.00062e-54
8.44693e-56
3.39004e-57
1.28276e-58
4.53889e-60
1.49138e-61
4.5038e-63
1.23161e-64
2.98527e-66
6.21488e-68
1.05822e-69
1.3601e-71
1.12452e-73
2.65134e-76
2.05783e-39
4.5048e-38
3.46843e-37
1.57885e-36
5.23722e-36
8.32349e-36
8.61664e-36
4.59341e-36
1.30073e-36
2.68978e-37
4.88239e-38
8.2183e-39
1.26639e-39
1.64566e-40
1.87195e-41
1.88016e-42
1.70112e-43
1.40176e-44
1.0576e-45
7.3724e-47
4.79115e-48
2.88612e-49
1.65362e-50
8.85278e-52
4.47433e-53
2.15607e-54
9.79289e-56
4.19749e-57
1.71042e-58
6.57249e-60
2.36229e-61
7.88662e-63
2.42054e-64
6.72873e-66
1.65815e-67
3.50934e-69
6.07242e-71
7.92392e-73
6.63453e-75
1.5351e-77
3.53476e-41
7.37707e-40
6.71964e-39
3.38464e-38
1.20791e-37
2.14201e-37
2.2885e-37
1.34249e-37
4.10119e-38
8.95311e-39
1.68694e-39
2.92418e-40
4.63517e-41
6.1883e-42
7.2169e-43
7.4188e-44
6.86011e-45
5.77026e-46
4.43908e-47
3.15216e-48
2.08503e-49
1.27747e-50
7.44032e-52
4.04729e-53
2.0778e-54
1.01681e-55
4.6898e-57
2.04126e-58
8.44726e-60
3.29694e-61
1.20384e-62
4.0839e-64
1.27391e-65
3.59975e-67
9.01792e-69
1.94001e-70
3.4108e-72
4.51769e-74
3.82929e-76
8.69401e-79
5.72478e-43
1.09945e-41
1.22513e-40
6.91443e-40
2.65386e-39
5.26121e-39
5.82919e-39
3.76994e-39
1.24419e-39
2.8855e-40
5.64521e-41
1.00753e-41
1.64648e-42
2.26147e-43
2.70695e-44
2.85064e-45
2.69609e-46
2.31646e-47
1.8182e-48
1.31593e-49
8.86421e-51
5.52651e-52
3.27343e-53
1.81002e-54
9.44224e-56
4.69415e-57
2.19915e-58
9.72227e-60
4.08668e-61
1.62029e-62
6.01094e-64
2.07211e-65
6.56917e-67
1.88682e-68
4.80464e-70
1.05048e-71
1.87614e-73
2.52174e-75
2.16312e-77
4.81872e-80
8.76867e-45
1.47262e-43
2.10798e-42
1.34345e-41
5.5752e-41
1.23636e-40
1.42781e-40
1.01919e-40
3.63693e-41
8.95701e-42
1.82525e-42
3.36589e-43
5.68027e-44
8.03799e-45
9.88676e-46
1.06763e-46
1.03364e-47
9.07814e-49
7.27467e-50
5.36942e-51
3.68524e-52
2.33912e-53
1.40963e-54
7.92608e-56
4.20288e-57
2.12325e-58
1.01064e-59
4.53901e-61
1.93828e-62
7.80748e-64
2.94289e-65
1.03089e-66
3.32143e-68
9.69595e-70
2.50931e-71
5.57483e-73
1.01121e-74
1.3789e-76
1.19655e-78
2.61534e-81
1.27484e-46
1.73011e-45
3.43536e-44
2.49119e-43
1.12365e-42
2.78713e-42
3.37202e-42
2.65838e-42
1.02602e-42
2.68671e-43
5.71532e-44
1.09125e-44
1.90495e-45
2.78107e-46
3.51929e-47
3.90086e-48
3.86936e-49
3.47644e-50
2.84601e-51
2.14352e-52
1.49978e-53
9.69594e-55
5.94732e-56
3.40181e-57
1.83415e-58
9.41846e-60
4.55581e-61
2.07904e-62
9.02035e-64
3.69168e-65
1.41388e-66
5.03277e-68
1.64779e-69
4.88835e-71
1.28555e-72
2.90155e-74
5.34401e-76
7.3908e-78
6.48555e-80
1.39093e-82
1.76721e-48
2.28407e-47
5.32188e-46
4.42712e-45
2.18104e-44
6.04454e-44
7.69847e-44
6.70596e-44
2.79852e-44
7.79897e-45
1.73519e-45
3.437e-46
6.21596e-47
9.37497e-48
1.22196e-48
1.3917e-49
1.41559e-50
1.30206e-51
1.08971e-52
8.37994e-54
5.98041e-55
3.93981e-56
2.46075e-57
1.43235e-58
7.85498e-60
4.10106e-61
2.01636e-62
9.35115e-64
4.12268e-65
1.7144e-66
6.6716e-68
2.41301e-69
8.02777e-71
2.41982e-72
6.46538e-74
1.48216e-75
2.77107e-77
3.88578e-79
3.44689e-81
7.25421e-84
2.34921e-50
3.39544e-49
7.90183e-48
7.57962e-47
4.09407e-46
1.2621e-45
1.70971e-45
1.63693e-45
7.39338e-46
2.19402e-46
5.11385e-47
1.05269e-47
1.97525e-48
3.08153e-49
4.14183e-50
4.85175e-51
5.0651e-52
4.77336e-53
4.08682e-54
3.21083e-55
2.3385e-56
1.57063e-57
9.99343e-59
5.92177e-60
3.30413e-61
1.75441e-62
8.76968e-64
4.13384e-65
1.85213e-66
7.82633e-68
3.09459e-69
1.13721e-70
3.84386e-72
1.17709e-73
3.19453e-75
7.43632e-77
1.41091e-78
2.0054e-80
1.79756e-82
3.71285e-85
3.01763e-52
4.8933e-51
1.13863e-49
1.25877e-48
7.46376e-48
2.51817e-47
3.77413e-47
3.83427e-47
1.89504e-47
5.98879e-48
1.46427e-48
3.13757e-49
6.11596e-50
9.88098e-51
1.371e-51
1.65347e-52
1.77327e-53
1.71357e-54
1.50196e-55
1.20637e-56
8.97189e-58
6.14661e-59
3.98592e-60
2.40547e-61
1.36606e-62
7.37905e-64
3.75095e-65
1.7975e-66
8.18554e-68
3.51498e-69
1.41222e-70
5.27262e-72
1.81047e-73
5.63129e-75
1.55195e-76
3.6673e-78
7.05877e-80
1.01659e-81
9.2045e-84
1.86619e-86
3.78774e-54
6.89249e-53
1.61879e-51
2.04517e-50
1.3324e-49
4.88211e-49
8.14555e-49
8.69055e-49
4.70575e-49
1.58573e-49
4.0741e-50
9.10005e-51
1.84483e-51
3.08992e-52
4.43049e-53
5.50672e-54
6.07244e-55
6.02217e-56
5.40813e-57
4.44393e-58
3.37706e-59
2.36139e-60
1.56151e-61
9.60198e-63
5.55245e-64
3.05235e-65
1.57836e-66
7.69143e-68
3.56074e-69
1.55406e-70
6.34479e-72
2.40674e-73
8.39452e-75
2.65162e-76
7.41892e-78
1.77896e-79
3.47221e-81
5.06472e-83
4.63041e-85
8.84668e-88
4.87374e-56
1.00154e-54
2.32367e-53
3.2952e-52
2.22827e-51
8.55408e-51
1.46312e-50
1.68321e-50
9.82679e-51
3.4815e-51
9.57811e-52
2.29524e-52
4.96977e-53
8.78924e-54
1.32112e-54
1.70945e-55
1.95437e-56
2.0033e-57
1.85428e-58
1.56669e-59
1.22244e-60
8.75514e-62
5.92641e-63
3.72528e-64
2.19948e-65
1.23403e-66
6.5083e-68
3.23243e-69
1.52479e-70
6.77044e-72
2.80965e-73
1.08301e-74
3.83742e-76
1.23093e-77
3.4957e-79
8.50245e-81
1.68175e-82
2.48241e-84
2.28987e-86
4.10224e-89
1.78568e-57
4.87433e-56
1.00166e-54
1.39035e-53
1.37014e-52
8.14591e-52
3.1707e-51
6.50594e-51
2.27718e-51
6.03796e-52
1.37569e-52
2.81821e-53
4.7946e-54
6.96478e-55
8.78361e-56
9.93828e-57
1.00833e-57
9.25243e-59
7.75848e-60
6.01327e-61
4.28609e-62
2.88625e-63
1.80878e-64
1.06511e-65
5.96142e-67
3.14156e-68
1.56045e-69
7.36117e-71
3.27874e-72
1.44819e-73
6.14173e-75
2.41811e-76
8.74692e-78
2.86268e-79
8.28912e-81
2.05399e-82
4.13464e-84
6.20267e-86
5.80243e-88
3.95897e-89
)
;

boundaryField
{
    leftWall
    {
        type            zeroGradient;
    }
    rightWall
    {
        type            zeroGradient;
    }
    lowerWall
    {
        type            zeroGradient;
    }
    atmosphere
    {
        type            inletOutlet;
        inletValue      uniform 0;
        value           nonuniform List<scalar> 
45
(
2.53674e-67
1.32946e-64
1.24293e-62
8.65634e-61
4.61921e-59
1.78568e-57
4.87433e-56
1.00166e-54
1.39035e-53
1.37014e-52
8.14591e-52
3.1707e-51
6.50594e-51
2.27718e-51
6.03796e-52
1.37569e-52
2.81821e-53
4.7946e-54
6.96478e-55
8.78361e-56
9.93828e-57
1.00833e-57
9.25243e-59
7.75848e-60
6.01327e-61
4.28609e-62
2.88625e-63
1.80878e-64
1.06511e-65
5.96142e-67
3.14156e-68
1.56045e-69
7.36117e-71
3.27874e-72
1.44819e-73
6.14173e-75
2.41811e-76
8.74692e-78
2.86268e-79
8.28912e-81
2.05399e-82
4.13464e-84
6.20267e-86
5.80243e-88
3.95897e-89
)
;
    }
    defaultFaces
    {
        type            empty;
    }
    procBoundary3to1
    {
        type            processor;
        value           nonuniform List<scalar> 
45
(
4.94759e-06
0.000173838
0.00031541
2.75698e-06
0.0144593
0.757732
0.813246
0.813646
0.815054
0.664039
0.0917135
0.0016661
0.000281345
4.82782e-05
8.46747e-06
1.46654e-06
2.31787e-07
3.36467e-08
4.5212e-09
5.70269e-10
8.62627e-11
3.06794e-11
6.05253e-12
6.19053e-13
5.26276e-14
4.1962e-15
3.08061e-16
2.0657e-17
1.26632e-18
7.1062e-20
3.65063e-21
1.71525e-22
7.35718e-24
2.87258e-25
1.01683e-26
3.24514e-28
9.26819e-30
2.34531e-31
5.18791e-33
9.84652e-35
1.56153e-36
1.98846e-38
1.90594e-40
1.20663e-42
1.62998e-44
)
;
    }
    procBoundary3to2
    {
        type            processor;
        value           nonuniform List<scalar> 
43
(
3.85836e-07
2.5466e-07
1.73771e-07
1.22713e-07
8.11356e-08
3.06879e-08
5.29389e-09
5.74063e-10
5.58217e-11
5.31049e-12
4.36835e-13
3.29104e-14
2.40267e-15
1.72731e-16
1.19229e-17
7.54859e-19
4.26027e-20
2.12564e-21
9.3688e-23
3.6478e-24
1.25377e-25
3.80208e-27
1.01979e-28
2.43966e-30
5.21702e-32
9.98639e-34
1.71267e-35
2.63578e-37
3.65019e-39
4.56605e-41
5.17376e-43
5.31208e-45
4.93429e-47
4.13627e-49
3.12063e-51
2.11165e-53
1.27536e-55
6.8336e-58
3.2404e-60
1.37263e-62
5.46575e-65
2.53674e-67
1.88115e-69
)
;
    }
}


// ************************************************************************* //
