/*--------------------------------*- C++ -*----------------------------------*\
  =========                 |
  \\      /  F ield         | OpenFOAM: The Open Source CFD Toolbox
   \\    /   O peration     | Website:  https://openfoam.org
    \\  /    A nd           | Version:  9
     \\/     M anipulation  |
\*---------------------------------------------------------------------------*/
FoamFile
{
    format      ascii;
    class       surfaceScalarField;
    location    "0.3";
    object      alphaPhi0.water;
}
// * * * * * * * * * * * * * * * * * * * * * * * * * * * * * * * * * * * * * //

dimensions      [0 3 -1 0 0 0 0];

internalField   nonuniform List<scalar> 
3782
(
-1.14999e-10
0
-1.05575e-10
0
-9.26699e-11
0
-7.49833e-11
-4.50769e-12
-3.92259e-11
-5.84357e-11
-1.06121e-11
-5.42238e-11
-1.67723e-12
-1.68438e-11
-1.53491e-13
-2.70965e-12
-7.70182e-15
-3.10777e-13
-3.05387e-17
-2.84373e-14
3.28615e-17
-6.65676e-15
3.81043e-18
-6.94872e-16
3.3945e-19
-5.0053e-17
2.68318e-20
-3.42394e-18
1.96346e-21
-2.29316e-19
1.31798e-22
-1.49263e-20
7.89717e-24
-9.19213e-22
4.36899e-25
-5.17837e-23
2.16762e-26
-2.76127e-24
9.48317e-28
-1.34997e-25
3.66419e-29
-5.90492e-27
1.24989e-30
-2.30411e-28
3.76897e-32
-7.99979e-30
1.17898e-33
-2.47001e-31
3.50826e-35
-6.86509e-33
9.0375e-37
-1.72705e-34
2.03945e-38
-3.90574e-36
4.06127e-40
-7.95402e-38
7.17125e-42
-1.46102e-39
1.12701e-43
-2.42423e-41
1.58218e-45
-3.63769e-43
1.99326e-47
-4.94023e-45
2.26499e-49
-6.07762e-47
2.33127e-51
-6.77995e-49
2.18022e-53
-6.86289e-51
1.85779e-55
-6.30357e-53
1.44671e-57
-5.2518e-55
1.03531e-59
-3.96636e-57
6.87352e-62
-2.71706e-59
4.30855e-64
-1.69396e-61
2.63796e-66
-9.72365e-64
1.63576e-68
-5.32306e-66
-3.08725e-68
-5.44396e-09
-2.51382e-11
1.06668e-09
1.55036e-08
9.69547e-10
3.9568e-09
6.00681e-07
3.7688e-06
0
-2.7811e-10
-1.12776e-09
2.66427e-09
2.44189e-08
5.38457e-08
1.88104e-07
4.81051e-07
0
-3.06304e-10
0
-8.30831e-11
-7.40765e-10
2.46635e-08
1.17367e-07
1.824e-07
0
-2.70525e-10
0
-6.08967e-10
-7.05952e-09
8.30724e-10
2.83312e-08
0
-2.26677e-10
-1.48303e-10
-6.44018e-10
-4.18968e-10
-7.22455e-10
-1.27889e-10
2.38673e-09
-6.35424e-09
-2.33662e-10
-4.06938e-11
-8.88292e-10
-1.1665e-10
-2.36128e-09
-7.98415e-11
1.92938e-10
-6.61924e-09
-7.22898e-11
-6.07828e-12
-2.67218e-10
-1.41123e-11
-4.75948e-10
7.69749e-13
5.96365e-12
-4.53513e-09
-1.08616e-11
-4.44021e-13
-3.77779e-11
0
-1.87216e-10
4.36113e-13
0
-1.14991e-09
-1.06164e-12
0
-2.89551e-12
0
-3.33983e-11
0
0
-1.62379e-10
-6.83944e-14
1.92028e-16
-4.97218e-13
3.23298e-16
-3.62923e-12
0
0
-1.7327e-11
-2.14712e-14
2.63623e-16
-7.54864e-14
2.5162e-16
-3.58271e-13
0
0
-1.58979e-12
-2.93244e-15
3.55856e-17
-1.14558e-14
2.02241e-16
-4.6853e-14
5.53183e-16
2.09267e-16
-1.72748e-13
-2.57732e-16
2.90691e-18
-1.20638e-15
2.06514e-17
-4.84118e-15
1.12176e-16
4.18621e-16
-1.90967e-14
-1.7931e-17
2.17985e-19
-9.21379e-17
1.52373e-18
-4.32297e-16
9.71994e-18
5.41021e-17
-1.63403e-15
-1.23892e-18
1.56477e-20
-6.57027e-18
1.09809e-19
-3.24178e-17
6.90696e-19
3.81998e-18
-1.39075e-16
-8.27232e-20
1.04357e-21
-4.51502e-19
7.33124e-21
-2.24242e-18
4.62706e-20
2.4785e-19
-9.75274e-18
-5.2102e-21
6.31113e-23
-2.8979e-20
4.458e-22
-1.45794e-19
2.81777e-21
1.50128e-20
-6.3411e-19
-3.01978e-22
3.44208e-24
-1.71475e-21
2.44238e-23
-8.70065e-21
1.56838e-22
8.45512e-22
-3.78417e-20
-1.60188e-23
1.74937e-25
-9.23417e-23
1.25176e-24
-4.79643e-22
8.04374e-24
4.39894e-23
-2.10019e-21
-8.05726e-25
7.95861e-27
-4.7065e-24
5.82565e-26
-2.45887e-23
3.76971e-25
2.09737e-24
-1.07811e-22
-3.66854e-26
3.23402e-28
-2.19761e-25
2.45023e-27
-1.16167e-24
1.61073e-26
9.15927e-26
-5.10155e-24
-1.50215e-27
1.17401e-29
-9.32242e-27
9.30177e-29
-5.03071e-26
6.27038e-28
3.66183e-27
-2.22518e-25
-5.52142e-29
3.81432e-31
-3.58161e-28
3.18854e-30
-1.99161e-27
2.22453e-29
1.34533e-28
-8.95506e-27
-1.82276e-30
1.15235e-32
-1.24565e-29
9.87943e-32
-7.20152e-29
7.20012e-31
4.54494e-30
-3.31624e-28
-5.36724e-32
3.76169e-34
-3.92199e-31
2.92829e-33
-2.37747e-30
2.12686e-32
1.41354e-31
-1.12904e-29
-1.43534e-33
1.06356e-35
-1.11335e-32
9.17611e-35
-7.15952e-32
5.74124e-34
4.05232e-33
-3.53301e-31
-3.4725e-35
2.65092e-37
-2.85677e-34
2.53497e-36
-1.96774e-33
1.57311e-35
1.07224e-34
-1.01688e-32
-7.61022e-37
5.87515e-39
-6.66927e-36
6.20307e-38
-4.93312e-35
4.33032e-37
2.85288e-36
-2.69235e-34
-1.51411e-38
1.16411e-40
-1.42338e-37
1.36075e-39
-1.11946e-36
1.06336e-38
7.4852e-38
-6.54364e-36
-2.74137e-40
2.07219e-42
-2.78024e-39
2.6935e-41
-2.33764e-38
2.35531e-40
1.79561e-39
-1.44502e-37
-4.52511e-42
3.32828e-44
-4.97982e-41
4.83781e-43
-4.49727e-40
4.74253e-42
3.94869e-41
-2.94669e-39
-6.81885e-44
4.84259e-46
-8.19151e-43
7.92187e-45
-7.98083e-42
8.73094e-44
7.98921e-43
-5.56053e-41
-9.38828e-46
6.40933e-48
-1.23906e-44
1.18739e-46
-1.30825e-43
1.4765e-45
1.49104e-44
-9.72741e-43
-1.1821e-47
7.74442e-50
-1.72554e-46
1.63458e-48
-1.98402e-45
2.302e-47
2.57485e-46
-1.58194e-44
-1.3623e-49
8.56884e-52
-2.21505e-48
2.07291e-50
-2.78887e-47
3.32011e-49
4.13201e-48
-2.39806e-46
-1.43773e-51
8.70597e-54
-2.62374e-50
2.42889e-52
-3.64004e-49
4.44541e-51
6.18578e-50
-3.39273e-48
-1.3899e-53
8.14767e-56
-2.87e-52
2.63812e-54
-4.41768e-51
5.54573e-53
8.67072e-52
-4.48494e-50
-1.23114e-55
7.05212e-58
-2.90128e-54
2.66639e-56
-4.9916e-53
6.4709e-55
1.14226e-53
-5.54565e-52
-1.00006e-57
5.67661e-60
-2.714e-56
2.52e-58
-5.25964e-55
7.09313e-57
1.41996e-55
-6.42338e-54
-7.47206e-60
4.28864e-62
-2.35709e-58
2.2426e-60
-5.18608e-57
7.34654e-59
1.67449e-57
-6.99173e-56
-5.18487e-62
3.09132e-64
-1.91851e-60
1.90085e-62
-4.8287e-59
7.25642e-61
1.89078e-59
-7.2131e-58
-3.43846e-64
2.17797e-66
-1.50232e-62
1.573e-64
-4.35154e-61
7.07812e-63
2.16749e-61
-7.22316e-60
-2.37939e-66
-1.2266e-64
-4.11035e-63
-7.77882e-62
2.4186e-05
1.88323e-05
3.5809e-05
9.75465e-05
3.77678e-05
0.00010908
3.73528e-05
0.00010503
3.16637e-05
9.41392e-05
3.08306e-06
5.14945e-05
2.34608e-07
3.64918e-06
2.31104e-08
4.03885e-07
1.80805e-09
4.55145e-08
1.37225e-10
4.90307e-09
1.85986e-11
5.23193e-10
1.88422e-12
6.03044e-11
1.61655e-13
6.45093e-12
1.04436e-14
6.71055e-13
1.85515e-15
7.07382e-14
1.60683e-15
7.84097e-15
3.75986e-16
1.2375e-15
3.83441e-17
1.6417e-16
3.16905e-18
1.63618e-17
2.50359e-19
1.4327e-18
1.82386e-20
1.14378e-19
1.20858e-21
8.34338e-21
7.29292e-23
5.57456e-22
4.01329e-24
3.41968e-23
2.01384e-25
1.92833e-24
9.20367e-27
9.99617e-26
3.82255e-28
4.75936e-27
1.43796e-29
2.07742e-28
4.87616e-31
8.28921e-30
1.48093e-32
3.01131e-31
3.99316e-34
9.90506e-33
9.4472e-36
2.92823e-34
1.92985e-37
7.70362e-36
3.32891e-39
1.77948e-37
4.69606e-41
3.54294e-39
5.16071e-43
5.92204e-41
4.07731e-45
7.98899e-43
1.98756e-47
8.1589e-45
7.2658e-49
5.59227e-47
2.51375e-49
1.16722e-05
2.12833e-06
3.3113e-05
3.27161e-05
3.77923e-05
7.8763e-05
3.47256e-05
7.6351e-05
2.35784e-05
5.8741e-05
2.84312e-06
3.57547e-05
2.21428e-07
6.30027e-06
2.554e-08
6.07644e-07
2.44148e-09
6.66375e-08
2.30633e-10
6.79198e-09
1.6898e-11
6.78526e-10
1.39281e-12
6.72711e-11
1.06164e-13
6.53289e-12
5.83033e-15
6.18093e-13
7.85786e-16
5.78023e-14
9.5112e-16
5.84812e-15
2.08347e-16
8.37005e-16
1.88115e-17
9.85411e-17
1.49285e-18
9.10574e-18
1.13829e-19
7.53289e-19
7.99205e-21
5.70517e-20
5.11266e-22
3.96248e-21
2.98572e-23
2.53031e-22
1.59341e-24
1.48835e-23
7.76866e-26
8.07035e-25
3.45573e-27
4.03306e-26
1.39934e-28
1.85549e-27
5.14063e-30
7.84336e-29
1.70504e-31
3.03726e-30
5.0727e-33
1.07302e-31
1.34187e-34
3.43923e-33
3.11894e-36
9.92665e-35
6.26816e-38
2.55446e-36
1.06516e-39
5.78226e-38
1.48214e-41
1.13014e-39
1.60851e-43
1.85746e-41
1.2563e-45
2.46766e-43
6.05905e-48
2.48507e-45
1.68274e-49
1.68136e-47
7.03609e-50
2.15132e-06
2.45163e-07
1.17457e-05
1.71385e-06
1.88938e-05
7.32249e-06
1.59595e-05
6.27519e-06
7.81195e-06
2.22704e-06
2.76614e-06
1.70479e-06
0
5.75285e-06
1.24379e-08
8.73964e-07
1.2933e-09
7.90034e-08
1.00013e-10
7.75144e-09
7.51151e-12
7.3438e-10
1.3811e-13
7.00292e-11
0
6.36449e-12
0
5.577e-13
6.16967e-16
4.80748e-14
5.93728e-16
4.58039e-15
1.03743e-16
5.62129e-16
8.6262e-18
5.58359e-17
6.62552e-19
4.71544e-18
4.8314e-20
3.64087e-19
3.2382e-21
2.5901e-20
1.9858e-22
1.70067e-21
1.11585e-23
1.03246e-22
5.74706e-25
5.80019e-24
2.71111e-26
3.01523e-25
1.16959e-27
1.44938e-26
4.60288e-29
6.43262e-28
1.64659e-30
2.62999e-29
5.32797e-32
9.87431e-31
1.54908e-33
3.38989e-32
4.01108e-35
1.05806e-33
9.14008e-37
2.9799e-35
1.80351e-38
7.4969e-37
3.01323e-40
1.6621e-38
4.12756e-42
3.18728e-40
4.41424e-44
5.14795e-42
3.39951e-46
6.73021e-44
1.61635e-48
6.67646e-46
3.26555e-50
4.45114e-48
1.7234e-50
1.64735e-07
9.35583e-08
1.37406e-06
1.60032e-07
2.62683e-06
9.39957e-07
2.57198e-06
1.11321e-06
1.59654e-06
8.4461e-07
8.32347e-07
5.42889e-07
5.15865e-07
4.09502e-07
0
7.21817e-07
0
9.58482e-08
0
8.31055e-09
0
7.63554e-10
0
6.76915e-11
0
5.68534e-12
0
4.53758e-13
4.66763e-16
3.6393e-14
3.46038e-16
3.2756e-15
4.55284e-17
3.27703e-16
3.52255e-18
2.74137e-17
2.60141e-19
2.10173e-18
1.80068e-20
1.50298e-19
1.14836e-21
1.00104e-20
6.73907e-23
6.20881e-22
3.63995e-24
3.58523e-23
1.80846e-25
1.92617e-24
8.25466e-27
9.61821e-26
3.45477e-28
4.45736e-27
1.32207e-29
1.91327e-28
4.60839e-31
7.58646e-30
1.4557e-32
2.76923e-31
4.13876e-34
9.26344e-33
1.04962e-35
2.82306e-34
2.34604e-37
7.77776e-36
4.54699e-39
1.91755e-37
7.4717e-41
4.17308e-39
1.00777e-42
7.86738e-41
1.06216e-44
1.25105e-42
8.06506e-47
1.61222e-44
3.77944e-49
1.57784e-46
5.18251e-51
1.03796e-48
3.70664e-51
-4.34098e-08
1.83935e-08
-1.29229e-07
0
1.01832e-07
1.26352e-07
2.38555e-07
2.66544e-07
1.96855e-07
2.64442e-07
1.2625e-07
1.89743e-07
5.83332e-08
1.14893e-07
2.84297e-08
4.96076e-08
0
5.1699e-08
0
5.32163e-09
0
4.69192e-10
0
3.93623e-11
0
3.17881e-12
0
2.50776e-13
6.46461e-16
1.95445e-14
1.67329e-16
1.75162e-15
1.61007e-17
1.40368e-16
1.19211e-18
1.03978e-17
8.4169e-20
7.36028e-19
5.54137e-21
4.92717e-20
3.37906e-22
3.10356e-21
1.90645e-23
1.83475e-22
9.94159e-25
1.01587e-23
4.78511e-26
5.25805e-25
2.12205e-27
2.53925e-26
8.65013e-29
1.14175e-27
3.23101e-30
4.76826e-29
1.10136e-31
1.84402e-30
3.40785e-33
6.57909e-32
9.50524e-35
2.15529e-33
2.36813e-36
6.4439e-35
5.2065e-38
1.74456e-36
9.93758e-40
4.23288e-38
1.60985e-41
9.07853e-40
2.14259e-43
1.68898e-41
2.22991e-45
2.65347e-43
1.67251e-47
3.38173e-45
7.73938e-50
3.27523e-47
6.28369e-52
2.13235e-49
7.02685e-52
-5.54807e-08
0
-1.65111e-07
0
-1.77704e-07
5.81226e-09
-1.2456e-07
5.11188e-08
-6.62242e-08
6.252e-08
-2.8461e-08
5.09475e-08
-7.01133e-09
3.26934e-08
2.72278e-10
1.51641e-08
3.3535e-10
2.91943e-09
0
8.18632e-10
0
9.96993e-11
0
8.7507e-12
0
7.15809e-13
0
6.44237e-14
4.28371e-16
5.97356e-15
5.45969e-17
5.36314e-16
4.30075e-18
3.95432e-17
3.10441e-19
2.80927e-18
2.11703e-20
1.91059e-19
1.34556e-21
1.23188e-20
7.94956e-23
7.49917e-22
4.35907e-24
4.29775e-23
2.21503e-25
2.31309e-24
1.04123e-26
1.1666e-25
4.51859e-28
5.50168e-27
1.8056e-29
2.4206e-28
6.6217e-31
9.90987e-30
2.21925e-32
3.7633e-31
6.76017e-34
1.32054e-32
1.85844e-35
4.26106e-34
4.56842e-37
1.25658e-35
9.91997e-39
3.35988e-37
1.87174e-40
8.06129e-39
2.99992e-42
1.71165e-40
3.95297e-44
3.15586e-42
4.07525e-46
4.91827e-44
3.02831e-48
6.22278e-46
1.38786e-50
5.98615e-48
4.93409e-53
3.87061e-50
1.21352e-52
-2.36902e-08
0
-5.11938e-08
0
-7.12529e-08
0
-6.09495e-08
8.11461e-09
-3.99073e-08
1.12975e-08
-2.06708e-08
1.03972e-08
-7.76239e-09
7.06215e-09
-1.46227e-09
3.44975e-09
-1.13231e-10
7.07082e-10
2.86897e-13
8.72464e-11
0
6.63497e-12
0
3.53498e-13
0
6.74082e-14
5.17985e-16
1.16331e-14
1.17422e-16
1.25384e-15
1.09396e-17
1.04575e-16
8.3636e-19
7.83736e-18
6.03507e-20
5.58911e-19
4.06306e-21
3.76823e-20
2.54395e-22
2.39745e-21
1.48003e-23
1.43726e-22
7.99274e-25
8.10526e-24
4.00171e-26
4.29254e-25
1.85462e-27
2.13122e-26
7.94091e-29
9.90143e-28
3.13324e-30
4.29539e-29
1.13553e-31
1.73559e-30
3.76392e-33
6.51177e-32
1.13486e-34
2.25992e-33
3.0904e-36
7.21995e-35
7.53074e-38
2.11029e-36
1.62216e-39
5.59837e-38
3.0383e-41
1.33403e-39
4.83673e-43
2.81592e-41
6.33344e-45
5.16601e-43
6.49067e-47
8.01735e-45
4.79493e-49
1.01079e-46
2.18357e-51
9.69252e-49
4.13682e-54
6.24505e-51
1.93817e-53
-4.57499e-09
0
-9.68235e-09
0
-1.52179e-08
0
-1.4019e-08
1.12395e-09
-1.00814e-08
1.65602e-09
-5.53765e-09
1.72499e-09
-2.19079e-09
1.24007e-09
-4.69665e-10
6.28973e-10
-5.59471e-11
1.37532e-10
-3.49932e-12
1.81943e-11
-5.4007e-14
1.58588e-12
3.71848e-16
1.02588e-13
3.41052e-16
1.23157e-14
1.50662e-16
2.02741e-15
1.70279e-17
2.00021e-16
1.49553e-18
1.62338e-17
1.20124e-19
1.24148e-18
8.86063e-21
8.91651e-20
6.02235e-22
6.01389e-21
3.78335e-23
3.81216e-22
2.19996e-24
2.27095e-23
1.18457e-25
1.27058e-24
5.90466e-27
6.67041e-26
2.72222e-28
3.28203e-27
1.159e-29
1.51121e-28
4.54672e-31
6.49965e-30
1.63845e-32
2.60513e-31
5.40137e-34
9.70209e-33
1.62023e-35
3.34484e-34
4.39129e-37
1.0624e-35
1.06548e-38
3.08988e-37
2.28626e-40
8.16371e-39
4.26754e-42
1.9391e-40
6.77317e-44
4.0835e-42
8.84531e-46
7.47989e-44
9.04221e-48
1.15986e-45
6.66255e-50
1.46188e-47
3.02418e-52
1.40173e-49
5.69075e-55
9.02622e-52
2.79715e-54
-5.93829e-10
0
-1.43727e-09
0
-2.40219e-09
0
-2.30969e-09
1.20696e-10
-1.81455e-09
2.17447e-10
-1.05225e-09
2.45096e-10
-4.34172e-10
1.86817e-10
-9.88641e-11
9.76263e-11
-1.323e-11
2.25795e-11
-1.09662e-12
3.0991e-12
-5.86795e-14
2.78407e-13
-1.62493e-15
1.96845e-14
1.73482e-17
2.63479e-15
1.06864e-17
2.94918e-16
1.42345e-18
2.61972e-17
1.46085e-19
2.15727e-18
1.27882e-20
1.66609e-19
9.93086e-22
1.20206e-20
6.97503e-23
8.11975e-22
4.47608e-24
5.14251e-23
2.63888e-25
3.05526e-24
1.43346e-26
1.70273e-25
7.18422e-28
8.89778e-27
3.32263e-29
4.35615e-28
1.41695e-30
1.99571e-29
5.56226e-32
8.54203e-31
2.00449e-33
3.4085e-32
6.60622e-35
1.26441e-33
1.98084e-36
4.34472e-35
5.36664e-38
1.37641e-36
1.30182e-39
3.99581e-38
2.79331e-41
1.05464e-39
5.21508e-43
2.50452e-41
8.28055e-45
5.27729e-43
1.08201e-46
9.67953e-45
1.10676e-48
1.50394e-46
8.15745e-51
1.90024e-48
3.70037e-53
1.8268e-50
6.93311e-56
1.17851e-52
3.63758e-55
-6.79929e-11
0
-1.75011e-10
0
-3.04851e-10
0
-3.22702e-10
1.10255e-11
-2.69017e-10
2.59187e-11
-1.64785e-10
3.07127e-11
-7.08118e-11
2.48487e-11
-1.67206e-11
1.33869e-11
-2.37488e-12
3.2631e-12
-2.10488e-13
4.47284e-13
-1.16103e-14
3.92976e-14
-4.36783e-16
3.11724e-15
-1.91584e-17
4.12666e-16
-5.18677e-19
3.73121e-17
3.70304e-20
3.16147e-18
8.17593e-21
2.53726e-19
9.28021e-22
1.9477e-20
8.18767e-23
1.40422e-21
6.20331e-24
9.50845e-23
4.18177e-25
6.02715e-24
2.54959e-26
3.57891e-25
1.41816e-27
1.9917e-26
7.23045e-29
1.0387e-27
3.38668e-30
5.07376e-29
1.45817e-31
2.31916e-30
5.76678e-33
9.90554e-32
2.09057e-34
3.94562e-33
6.92393e-36
1.46178e-34
2.08498e-37
5.01941e-36
5.67069e-39
1.5901e-37
1.38062e-40
4.61946e-39
2.97302e-42
1.22105e-40
5.57042e-44
2.90628e-42
8.8764e-46
6.14252e-44
1.16396e-47
1.13091e-45
1.19453e-49
1.76485e-47
8.82886e-52
2.24062e-49
4.01066e-54
2.16441e-51
7.4911e-57
1.4016e-53
4.30994e-56
-6.85896e-12
0
-1.86142e-11
0
-3.40568e-11
0
-4.00438e-11
8.97451e-13
-3.48117e-11
2.80423e-12
-2.24976e-11
3.44975e-12
-1.00365e-11
2.96454e-12
-2.42929e-12
1.64692e-12
-3.49019e-13
4.20944e-13
-2.93219e-14
5.37012e-14
-1.37033e-15
4.26908e-15
-7.83152e-17
5.02405e-16
-4.95706e-18
5.08082e-17
-2.74815e-19
4.47393e-18
-1.19713e-20
3.6793e-19
-2.58133e-22
2.84408e-20
2.20777e-23
2.09046e-21
3.89612e-24
1.47212e-22
3.7947e-25
9.88969e-24
2.90749e-26
6.24342e-25
1.91655e-27
3.71123e-26
1.1232e-28
2.06633e-27
5.94216e-30
1.07756e-28
2.8602e-31
5.26231e-30
1.25741e-32
2.40485e-31
5.05507e-34
1.02716e-32
1.85714e-35
4.09291e-34
6.21978e-37
1.51763e-35
1.89105e-38
5.21865e-37
5.1874e-40
1.65669e-38
1.27286e-41
4.82651e-40
2.76103e-43
1.28037e-41
5.20914e-45
3.06083e-43
8.35562e-47
6.5025e-45
1.10252e-48
1.2042e-46
1.13794e-50
1.89133e-48
8.45075e-53
2.41748e-50
3.8498e-55
2.35079e-52
7.16932e-58
1.53035e-54
4.68764e-57
-6.34059e-13
0
-1.80997e-12
0
-3.47897e-12
0
-4.47962e-12
6.64702e-14
-4.03009e-12
2.80389e-13
-2.7383e-12
3.52414e-13
-1.25918e-12
3.20606e-13
-3.04129e-13
1.81658e-13
-4.03464e-14
4.70969e-14
-2.82775e-15
5.64131e-15
-1.6523e-16
5.70059e-16
-1.2413e-17
6.04921e-17
-8.69142e-19
5.68672e-18
-5.48699e-20
4.98098e-19
-3.08572e-21
4.03961e-20
-1.51356e-22
3.0536e-21
-6.00714e-24
2.1797e-22
-1.35361e-25
1.48373e-23
5.88827e-27
9.59393e-25
1.08978e-27
5.90498e-26
9.6173e-29
3.48454e-27
6.5235e-30
1.92592e-28
3.77258e-31
1.00586e-29
1.92835e-32
4.9194e-31
8.85155e-34
2.25157e-32
3.67628e-35
9.63348e-34
1.3855e-36
3.84676e-35
4.73722e-38
1.43011e-36
1.46542e-39
4.93354e-38
4.08008e-41
1.57231e-39
1.01435e-42
4.60199e-41
2.22635e-44
1.22744e-42
4.24567e-46
2.95255e-44
6.8774e-48
6.31624e-46
9.156e-50
1.17867e-47
9.52439e-52
1.86641e-49
7.11733e-54
2.40581e-51
3.25325e-56
2.35852e-53
6.03098e-59
1.54518e-55
4.70996e-58
-6.52748e-14
7.49467e-16
-1.66787e-13
5.69055e-16
-3.30573e-13
4.47203e-16
-4.58314e-13
4.9223e-15
-4.21676e-13
2.56414e-14
-2.98589e-13
3.29739e-14
-1.39185e-13
3.24839e-14
-3.18373e-14
1.91357e-14
-3.68881e-15
4.83391e-15
-2.83495e-16
5.97982e-16
-2.12095e-17
6.82607e-17
-1.71168e-18
6.13322e-18
-1.24963e-19
5.91878e-19
-8.29501e-21
5.15586e-20
-5.01991e-22
4.1382e-21
-2.78435e-23
3.08542e-22
-1.40618e-24
2.16754e-23
-6.29349e-26
1.44352e-24
-2.36602e-27
9.09593e-26
-6.31084e-29
5.44234e-27
6.28882e-32
3.11128e-28
1.61122e-31
1.66599e-29
1.44358e-32
8.65498e-31
8.99125e-34
4.21242e-32
4.63399e-35
1.92231e-33
2.07768e-36
8.25118e-35
8.26996e-38
3.30692e-36
2.94636e-39
1.23459e-37
9.41363e-41
4.27953e-39
2.69069e-42
1.37138e-40
6.83761e-44
4.03903e-42
1.52907e-45
1.08488e-43
2.9635e-47
2.6301e-45
4.86835e-49
5.67477e-47
6.5598e-51
1.06876e-48
6.89128e-53
1.70883e-50
5.18587e-55
2.22445e-52
2.37587e-57
2.20116e-54
4.36223e-60
1.45229e-56
4.3957e-59
-5.68274e-15
2.37553e-16
-1.50998e-14
6.62059e-16
-3.00468e-14
1.07256e-15
-4.36171e-14
8.05324e-16
-4.02267e-14
2.55563e-15
-2.92768e-14
3.23267e-15
-1.36491e-14
3.1422e-15
-3.11749e-15
1.85063e-15
-3.61987e-16
4.61632e-16
-3.14725e-17
6.17544e-17
-2.51385e-18
6.33231e-18
-2.09045e-19
5.90525e-19
-1.56298e-20
5.72693e-20
-1.06487e-21
4.97624e-21
-6.65498e-23
3.96821e-22
-3.85891e-24
2.92953e-23
-2.08248e-25
2.03247e-24
-1.03817e-26
1.33442e-25
-4.74462e-28
8.28086e-27
-1.97116e-29
4.86499e-28
-7.11372e-31
2.72208e-29
-2.14839e-32
1.42809e-30
-4.17956e-34
7.23358e-32
4.50034e-36
3.4365e-33
1.0254e-36
1.53935e-34
6.7824e-38
6.59528e-36
3.27055e-39
2.64126e-37
1.31026e-40
9.86324e-39
4.53343e-42
3.43323e-40
1.37296e-43
1.10783e-41
3.64581e-45
3.28805e-43
8.43873e-47
8.90704e-45
1.68105e-48
2.17945e-46
2.8228e-50
4.74966e-48
3.86905e-52
9.04064e-50
4.11453e-54
1.4615e-51
3.11624e-56
1.92357e-53
1.424e-58
1.9231e-55
2.54801e-61
1.27827e-57
3.82711e-60
-5.58186e-16
2.18159e-17
-1.51939e-15
8.25672e-17
-2.69012e-15
1.99245e-16
-3.85059e-15
3.29789e-16
-3.55991e-15
4.37533e-16
-2.70162e-15
4.61223e-16
-1.32049e-15
3.52101e-16
-3.06611e-16
1.7357e-16
-3.65051e-17
4.11972e-17
-3.2857e-18
5.44689e-18
-2.70495e-19
5.56324e-19
-2.29677e-20
5.28927e-20
-1.74763e-21
5.15953e-21
-1.21104e-22
4.48764e-22
-7.70587e-24
3.56871e-23
-4.56501e-25
2.61858e-24
-2.53307e-26
1.80096e-25
-1.31256e-27
1.16982e-26
-6.34564e-29
7.17178e-28
-2.87161e-30
4.1597e-29
-1.191e-31
2.29734e-30
-4.61664e-33
1.18989e-31
-1.61388e-34
5.92892e-33
-5.0118e-36
2.77391e-34
-1.3467e-37
1.22477e-35
-2.78695e-39
5.16076e-37
-2.69638e-41
2.03696e-38
1.15231e-42
7.51371e-40
8.7689e-44
2.60917e-41
3.63113e-45
8.45457e-43
1.14617e-46
2.5233e-44
2.96065e-48
6.88266e-46
6.35108e-50
1.69799e-47
1.12188e-51
3.73559e-49
1.58936e-53
7.18593e-51
1.71984e-55
1.17501e-52
1.30279e-57
1.5649e-54
5.81042e-60
1.58239e-56
9.29639e-63
1.06091e-58
3.1349e-61
-4.16574e-17
1.38189e-18
-1.22152e-16
5.46815e-18
-2.51184e-16
1.55719e-17
-3.50778e-16
3.24516e-17
-3.25462e-16
4.30399e-17
-2.49869e-16
4.45561e-17
-1.19949e-16
3.12566e-17
-2.78667e-17
1.4201e-17
-3.39268e-18
3.32292e-18
-3.1421e-19
4.35262e-19
-2.65302e-20
4.56331e-20
-2.29539e-21
4.40772e-21
-1.77365e-22
4.33715e-22
-1.24583e-23
3.78831e-23
-8.02774e-25
3.01454e-24
-4.81788e-26
2.20633e-25
-2.71313e-27
1.50969e-26
-1.43174e-28
9.73608e-28
-7.08919e-30
5.91711e-29
-3.31286e-31
3.39913e-30
-1.43642e-32
1.85824e-31
-5.92411e-34
9.52635e-33
-2.26414e-35
4.70134e-34
-8.03217e-37
2.17988e-35
-2.66583e-38
9.54259e-37
-8.11522e-40
3.98257e-38
-2.2503e-41
1.55952e-39
-5.68227e-43
5.71835e-41
-1.28651e-44
1.9747e-42
-2.55404e-46
6.36867e-44
-4.33817e-48
1.89676e-45
-6.07066e-50
5.17663e-47
-6.56407e-52
1.28123e-48
-4.83309e-54
2.83509e-50
-1.76887e-56
5.49868e-52
-4.07797e-59
9.08492e-54
-2.27394e-60
1.22454e-55
-3.91504e-62
1.25413e-57
-9.02332e-65
8.50484e-60
2.49276e-62
-2.77743e-18
8.34539e-20
-8.42023e-18
3.30774e-19
-1.82674e-17
9.42783e-19
-2.68756e-17
1.91486e-18
-2.53667e-17
2.75333e-18
-2.00732e-17
2.98218e-18
-9.72252e-18
2.1737e-18
-2.30792e-18
1.01122e-18
-2.89241e-19
2.47965e-19
-2.75701e-20
3.35329e-20
-2.38593e-21
3.48354e-21
-2.10307e-22
3.42511e-22
-1.64966e-23
3.40877e-23
-1.17344e-24
2.99887e-24
-7.64354e-26
2.39534e-25
-4.63307e-27
1.75438e-26
-2.63494e-28
1.19828e-27
-1.40551e-29
7.69811e-29
-7.04852e-31
4.65329e-30
-3.34585e-32
2.65596e-31
-1.48009e-33
1.44159e-32
-6.26246e-35
7.33669e-34
-2.47365e-36
3.5947e-35
-9.15588e-38
1.65553e-36
-3.20821e-39
7.20481e-38
-1.04701e-40
2.99304e-39
-3.17462e-42
1.16806e-40
-8.98975e-44
4.27476e-42
-2.36046e-45
1.47424e-43
-5.68992e-47
4.75382e-45
-1.2508e-48
1.41843e-46
-2.48474e-50
3.88624e-48
-4.40227e-52
9.67565e-50
-6.81971e-54
2.15798e-51
-8.95422e-56
4.22632e-53
-9.46676e-58
7.06227e-55
-7.37012e-60
9.63786e-57
-3.54604e-62
9.99695e-59
-3.37328e-65
6.85557e-61
1.99027e-63
-1.69607e-19
4.63243e-21
-5.31647e-19
1.8758e-20
-1.18756e-18
5.48716e-20
-1.81153e-18
1.13868e-19
-1.79457e-18
1.68306e-19
-1.44681e-18
1.86935e-19
-7.17276e-19
1.39798e-19
-1.75979e-19
6.65283e-20
-2.28097e-20
1.71632e-20
-2.22906e-21
2.40409e-21
-1.97741e-22
2.51174e-22
-1.77677e-23
2.4873e-23
-1.41562e-24
2.50991e-24
-1.02003e-25
2.23006e-25
-6.71575e-27
1.79309e-26
-4.10834e-28
1.31813e-27
-2.356e-29
9.01439e-29
-1.26691e-30
5.78657e-30
-6.40801e-32
3.4896e-31
-3.07097e-33
1.98491e-32
-1.37403e-34
1.0728e-33
-5.8933e-36
5.43535e-35
-2.36664e-37
2.65091e-36
-8.93809e-39
1.21567e-37
-3.2082e-40
5.27186e-39
-1.07728e-41
2.18406e-40
-3.37685e-43
8.50949e-42
-9.93299e-45
3.11314e-43
-2.7211e-46
1.07501e-44
-6.86884e-48
3.47651e-46
-1.58495e-49
1.042e-47
-3.3059e-51
2.87261e-49
-6.13464e-53
7.20828e-51
-9.89615e-55
1.62292e-52
-1.34054e-56
3.21324e-54
-1.44384e-58
5.43475e-56
-1.12735e-60
7.5131e-58
-5.32769e-63
7.89489e-60
-4.56633e-66
5.47611e-62
1.57148e-64
-9.48024e-21
2.34852e-22
-3.07986e-20
9.77082e-22
-7.1061e-20
2.95088e-21
-1.12359e-19
6.31559e-21
-1.16917e-19
9.62906e-21
-9.59916e-20
1.09981e-20
-4.87968e-20
8.40739e-21
-1.23915e-20
4.08199e-21
-1.66236e-21
1.10139e-21
-1.66809e-22
1.59678e-22
-1.51681e-23
1.71698e-23
-1.39052e-24
1.69156e-24
-1.12643e-25
1.73472e-25
-8.22935e-27
1.56054e-26
-5.4803e-28
1.26643e-27
-3.38491e-29
9.36977e-29
-1.95729e-30
6.43376e-30
-1.06042e-31
4.13845e-31
-5.40264e-33
2.49688e-32
-2.60833e-34
1.41931e-33
-1.17656e-35
7.65936e-35
-5.09237e-37
3.87341e-36
-2.06657e-38
1.88523e-37
-7.90139e-40
8.6294e-39
-2.8765e-41
3.73736e-40
-9.81702e-43
1.54732e-41
-3.13425e-44
6.03042e-43
-9.40957e-46
2.20938e-44
-2.63534e-47
7.65083e-46
-6.81021e-49
2.48454e-47
-1.60995e-50
7.48907e-49
-3.44048e-52
2.0795e-50
-6.53575e-54
5.26387e-52
-1.07742e-55
1.19729e-53
-1.48737e-57
2.39805e-55
-1.62637e-59
4.10759e-57
-1.28241e-61
5.75467e-59
-6.06203e-64
6.1284e-61
-4.91727e-67
4.3014e-63
1.21888e-65
-4.85587e-22
1.08876e-23
-1.63684e-21
4.67593e-23
-3.91162e-21
1.46143e-22
-6.44057e-21
3.23756e-22
-7.03679e-21
5.11169e-22
-5.88107e-21
6.0035e-22
-3.07139e-21
4.7045e-22
-8.07929e-22
2.335e-22
-1.12269e-22
6.57464e-23
-1.16054e-23
9.88007e-24
-1.08068e-24
1.09535e-24
-1.01183e-25
1.07967e-25
-8.34446e-27
1.12756e-26
-6.18838e-28
1.0294e-27
-4.17316e-29
8.45213e-29
-2.60496e-30
6.30963e-30
-1.51994e-31
4.36135e-31
-8.30033e-33
2.8185e-32
-4.2599e-34
1.70575e-33
-2.07105e-35
9.71464e-35
-9.40957e-37
5.24786e-36
-4.10348e-38
2.65546e-37
-1.67911e-39
1.29283e-38
-6.48016e-41
5.92015e-40
-2.38376e-42
2.56613e-41
-8.23089e-44
1.06385e-42
-2.66225e-45
4.15517e-44
-8.10805e-47
1.52718e-45
-2.30622e-48
5.31156e-47
-6.05864e-50
1.73451e-48
-1.45712e-51
5.26453e-50
-3.1692e-53
1.474e-51
-6.12735e-55
3.76746e-53
-1.02758e-56
8.66419e-55
-1.44173e-58
1.75669e-56
-1.59952e-60
3.049e-58
-1.2761e-62
4.33084e-60
-6.0652e-65
4.67568e-62
-4.73245e-68
3.32185e-64
9.28559e-67
-2.28035e-23
4.72447e-25
-7.99619e-23
2.05897e-24
-1.98512e-22
6.68355e-24
-3.41436e-22
1.53711e-23
-3.91892e-22
2.51916e-23
-3.33491e-22
3.0476e-23
-1.79315e-22
2.45389e-23
-4.89033e-23
1.24773e-23
-7.0459e-24
3.65835e-24
-7.5134e-25
5.70666e-25
-7.17066e-26
6.52591e-26
-6.86729e-27
6.61278e-27
-5.77349e-28
6.90552e-28
-4.35244e-29
6.41183e-29
-2.97613e-30
5.33855e-30
-1.87987e-31
4.03059e-31
-1.10807e-32
2.81128e-32
-6.10517e-34
1.82968e-33
-3.15863e-35
1.11343e-34
-1.54716e-36
6.36862e-36
-7.08136e-38
3.45192e-37
-3.11107e-39
1.75173e-38
-1.28294e-40
8.54985e-40
-4.99312e-42
3.925e-41
-1.85357e-43
1.70614e-42
-6.46455e-45
7.09618e-44
-2.11407e-46
2.78249e-45
-6.51658e-48
1.02759e-46
-1.87775e-49
3.5949e-48
-5.00194e-51
1.18206e-49
-1.22074e-52
3.61699e-51
-2.69586e-54
1.02223e-52
-5.29422e-56
2.64063e-54
-9.01901e-58
6.14481e-56
-1.285e-59
1.262e-57
-1.44648e-61
2.22065e-59
-1.1687e-63
3.19926e-61
-5.59865e-66
3.5027e-63
-4.23391e-69
2.51958e-65
6.94116e-68
-1.00341e-24
1.92783e-26
-3.59428e-24
8.3491e-26
-9.30149e-24
2.82679e-25
-1.6765e-23
6.77163e-25
-2.02364e-23
1.15514e-24
-1.75396e-23
1.44153e-24
-9.73267e-24
1.19566e-24
-2.75458e-24
6.24122e-25
-4.11935e-25
1.90137e-25
-4.53626e-26
3.08321e-26
-4.45239e-27
3.64282e-27
-4.35987e-28
3.80411e-28
-3.74137e-29
3.99195e-29
-2.87123e-30
3.77752e-30
-1.99364e-31
3.19612e-31
-1.27606e-32
2.4458e-32
-7.60852e-34
1.72521e-33
-4.23475e-35
1.13334e-34
-2.21106e-36
6.95042e-36
-1.09216e-37
4.00156e-37
-5.03952e-39
2.18098e-38
-2.23163e-40
1.11231e-39
-9.27735e-42
5.45381e-41
-3.6415e-43
2.51494e-42
-1.36398e-44
1.09835e-43
-4.80312e-46
4.59113e-45
-1.58721e-47
1.81028e-46
-4.94822e-49
6.7278e-48
-1.44322e-50
2.37072e-49
-3.89461e-52
7.85925e-51
-9.63649e-54
2.42717e-52
-2.15901e-55
6.93103e-54
-4.30373e-57
1.81106e-55
-7.44413e-59
4.26749e-57
-1.07687e-60
8.88325e-59
-1.23011e-62
1.58545e-60
-1.00714e-64
2.3176e-62
-4.86965e-67
2.57392e-64
-3.58322e-70
1.875e-66
5.08645e-69
-4.14017e-26
7.27566e-28
-1.48819e-25
3.12177e-27
-4.02889e-25
1.10769e-26
-7.62776e-25
2.77299e-26
-9.71519e-25
4.9376e-26
-8.57149e-25
6.3657e-26
-4.92144e-25
5.45326e-26
-1.44699e-25
2.92831e-26
-2.2486e-26
9.24823e-27
-2.56036e-27
1.56126e-27
-2.58822e-28
1.90886e-28
-2.59477e-29
2.05387e-29
-2.2763e-30
2.20097e-30
-1.78093e-31
2.10861e-31
-1.25755e-32
1.81654e-32
-8.16839e-34
1.41181e-33
-4.93373e-35
1.0092e-34
-2.77773e-36
6.70574e-36
-1.46549e-37
4.15304e-37
-7.30837e-39
2.41164e-38
-3.40322e-40
1.32442e-39
-1.52037e-41
6.80178e-41
-6.37634e-43
3.35665e-42
-2.52559e-44
1.55766e-43
-9.54907e-46
6.84665e-45
-3.39606e-47
2.88096e-46
-1.13415e-48
1.14405e-47
-3.57599e-50
4.28479e-49
-1.05561e-51
1.52278e-50
-2.88536e-53
5.0956e-52
-7.23679e-55
1.58995e-53
-1.64464e-56
4.59172e-55
-3.32728e-58
1.2146e-56
-5.84321e-60
2.90004e-58
-8.58294e-62
6.12196e-60
-9.95149e-64
1.10873e-61
-8.25989e-66
1.64503e-63
-4.03426e-68
1.85371e-65
-2.89377e-71
1.36775e-67
3.65089e-70
-1.57348e-27
2.53183e-29
-5.68284e-27
1.11579e-28
-1.61533e-26
4.02797e-28
-3.22251e-26
1.05744e-27
-4.341e-26
1.97087e-27
-3.89855e-26
2.6296e-27
-2.32291e-26
2.33276e-27
-7.10303e-27
1.29131e-27
-1.14838e-27
4.21767e-28
-1.35381e-28
7.42375e-29
-1.41133e-29
9.40735e-30
-1.45175e-30
1.04469e-30
-1.30318e-31
1.15139e-31
-1.04092e-32
1.11711e-32
-7.48589e-34
9.81703e-34
-4.94173e-35
7.7637e-35
-3.028e-36
5.63484e-36
-1.72691e-37
3.7944e-37
-9.2186e-39
2.37776e-38
-4.64733e-40
1.39532e-39
-2.18647e-41
7.73552e-41
-9.86475e-43
4.00778e-42
-4.17774e-44
1.99418e-43
-1.67118e-45
9.32838e-45
-6.38258e-47
4.13334e-46
-2.29383e-48
1.75348e-47
-7.7454e-50
7.02272e-49
-2.47081e-51
2.65411e-50
-7.38405e-53
9.52459e-52
-2.04478e-54
3.22058e-53
-5.19943e-56
1.01627e-54
-1.19874e-57
2.97076e-56
-2.46169e-59
7.96105e-58
-4.38989e-61
1.92725e-59
-6.54869e-63
4.12794e-61
-7.70871e-65
7.58922e-63
-6.48851e-67
1.14324e-64
-3.20291e-69
1.30741e-66
-2.24154e-72
9.77222e-69
2.56499e-71
-5.52375e-29
8.13314e-31
-2.06937e-28
3.72708e-30
-6.00164e-28
1.36102e-29
-1.26603e-27
3.76176e-29
-1.80799e-27
7.35974e-29
-1.65258e-27
1.01812e-28
-1.02525e-27
9.37819e-29
-3.2644e-28
5.36261e-29
-5.49783e-29
1.80679e-29
-6.71922e-30
3.32092e-30
-7.23315e-31
4.36842e-31
-7.64859e-32
5.01473e-32
-7.03421e-33
5.68998e-33
-5.74442e-34
5.62683e-34
-4.21357e-35
5.05285e-35
-2.83103e-36
4.07333e-36
-1.76233e-37
3.00713e-37
-1.01955e-38
2.05582e-38
-5.51437e-40
1.30584e-39
-2.81383e-41
7.75753e-41
-1.33917e-42
4.34907e-42
-6.10881e-44
2.27698e-43
-2.61515e-45
1.14421e-44
-1.05749e-46
5.40387e-46
-4.0831e-48
2.41732e-47
-1.48398e-49
1.03534e-48
-5.06962e-51
4.1875e-50
-1.63711e-52
1.5989e-51
-4.95548e-54
5.80029e-53
-1.39081e-55
1.98382e-54
-3.58662e-57
6.33656e-56
-8.39129e-59
1.87636e-57
-1.74959e-60
5.09746e-59
-3.169e-62
1.25189e-60
-4.80221e-64
2.72187e-62
-5.74051e-66
5.08178e-64
-4.90132e-68
7.7744e-66
-2.44627e-70
9.02465e-68
-1.67141e-73
6.83386e-70
1.76291e-72
-1.79495e-30
2.42013e-32
-7.01014e-30
1.15941e-31
-2.06874e-29
4.28011e-31
-4.63074e-29
1.25077e-30
-7.03035e-29
2.57589e-30
-6.53633e-29
3.7021e-30
-4.23858e-29
3.55053e-30
-1.40711e-29
2.10152e-30
-2.47194e-30
7.284e-31
-3.13619e-31
1.4002e-31
-3.49081e-32
1.91492e-32
-3.80013e-33
2.27583e-33
-3.5864e-34
2.66179e-34
-2.9987e-35
2.69941e-35
-2.24665e-36
2.48106e-36
-1.53853e-37
2.04218e-37
-9.74366e-39
1.53606e-38
-5.726e-40
1.06791e-39
-3.14203e-41
6.8872e-41
-1.62493e-42
4.14868e-42
-7.83252e-44
2.35579e-43
-3.61659e-45
1.24831e-44
-1.56672e-46
6.34471e-46
-6.41055e-48
3.02965e-47
-2.5046e-49
1.37009e-48
-9.21301e-51