/*--------------------------------*- C++ -*----------------------------------*\
  =========                 |
  \\      /  F ield         | OpenFOAM: The Open Source CFD Toolbox
   \\    /   O peration     | Website:  https://openfoam.org
    \\  /    A nd           | Version:  9
     \\/     M anipulation  |
\*---------------------------------------------------------------------------*/
FoamFile
{
    format      ascii;
    class       volScalarField;
    location    "0.3";
    object      epsilon;
}
// * * * * * * * * * * * * * * * * * * * * * * * * * * * * * * * * * * * * * //

dimensions      [0 2 -3 0 0 0 0];

internalField   nonuniform List<scalar> 
1935
(
4.78972
4.104
3.34485
2.66732
2.1409
1.72379
1.35885
1.03116
0.758578
0.552828
0.408126
0.310022
0.244322
0.199883
0.169336
0.147861
0.132341
0.120774
0.111874
0.104815
0.0990685
0.0942929
0.0902631
0.0868272
0.0838788
0.0813403
0.0791526
0.077269
0.0756507
0.0742655
0.073086
0.0720894
0.0712576
0.0705768
0.0700377
0.069636
0.0693736
0.0692594
0.069313
0.0695675
0.0700673
0.0708282
0.0716713
6.80132
8.92901
10.2317
8.23903
5.88995
7.87513
9.5172
8.98717
4.74327
6.50368
8.03113
8.69628
3.60364
4.911
6.42235
7.4669
2.72989
3.54244
4.65196
5.76968
2.11869
2.59568
3.21598
3.99793
1.65242
1.97551
2.3446
2.77759
1.24724
1.48302
1.73965
2.01822
0.904885
1.0662
1.24504
1.43559
0.644227
0.746094
0.860055
0.979908
0.462344
0.522793
0.589102
0.657902
0.341133
0.374957
0.411255
0.448152
0.261319
0.279383
0.298305
0.317035
0.208607
0.217691
0.226967
0.23585
0.173291
0.177345
0.181364
0.185028
0.1491
0.150365
0.151549
0.152475
0.132061
0.131804
0.131481
0.130996
0.119674
0.118613
0.117517
0.116334
0.110362
0.108909
0.107449
0.105956
0.103133
0.101524
0.0999295
0.0983368
0.0973571
0.095727
0.0941255
0.0925471
0.0926331
0.0910574
0.089518
0.0880133
0.0886997
0.0872184
0.0857764
0.084374
0.0853821
0.0840141
0.0826852
0.0813965
0.0825599
0.0813113
0.0800992
0.0789258
0.0801466
0.0790155
0.0779172
0.0768545
0.0780776
0.0770573
0.0760657
0.0751058
0.0763027
0.0753837
0.0744891
0.0736221
0.0747814
0.0739525
0.0731439
0.0723589
0.0734799
0.072729
0.071995
0.0712811
0.0723704
0.071685
0.0710139
0.0703602
0.0714296
0.070797
0.070177
0.0695728
0.0706386
0.0700455
0.0694647
0.0688992
0.0699823
0.0694147
0.0688606
0.0683229
0.0694497
0.068892
0.0683512
0.0678297
0.0690332
0.0684677
0.0679251
0.0674072
0.0687291
0.0681342
0.0675724
0.0670443
0.0685373
0.0678855
0.0672837
0.0667301
0.0684612
0.0677159
0.0670487
0.0664526
0.0685064
0.0676175
0.0668545
0.0661983
0.0686723
0.0675743
0.0666833
0.0659529
0.0689222
0.0675517
0.0665152
0.0657097
0.0691266
0.0675009
0.0663548
0.065503
6.01827
4.58995
3.74504
3.29863
3.11719
3.09843
3.16684
3.25989
3.3188
3.18393
2.78394
2.24469
1.70474
1.24218
0.88329
0.623392
0.443708
0.322722
0.242047
0.188125
0.15175
0.126927
0.109813
0.0979388
0.0897005
0.0840369
0.0802351
0.0778118
0.0764398
0.0759026
0.0760655
0.0768598
0.0782787
0.0803908
0.0833855
0.0877018
0.0944155
0.106703
0.138214
0.318443
6.76889
5.13164
4.13782
3.57271
3.28153
3.15275
3.11706
3.13111
3.13705
2.9721
2.56405
2.03928
1.52904
1.10282
0.779796
0.550444
0.394049
0.289489
0.219863
0.173207
0.14159
0.119905
0.104889
0.0944387
0.0871791
0.082195
0.0788682
0.0767785
0.075642
0.0752719
0.0755545
0.0764353
0.0779174
0.0800755
0.0831027
0.0874393
0.0941597
0.106433
0.137876
0.317691
7.45509
5.71665
4.60204
3.92654
3.52827
3.28786
3.14208
3.07106
3.02352
2.80809
2.36416
1.83807
1.35247
0.963039
0.677387
0.479298
0.3461
0.257542
0.198534
0.158823
0.131755
0.113082
0.100088
0.0910154
0.0847057
0.0803822
0.0775176
0.0757529
0.0748462
0.0746398
0.0750403
0.0760069
0.077552
0.0797561
0.0828158
0.0871722
0.0938972
0.106149
0.137496
0.316653
7.50288
6.31799
5.14393
4.36086
3.85666
3.50181
3.22817
3.05804
2.94472
2.66329
2.16371
1.62995
1.17194
0.823857
0.578054
0.411594
0.300947
0.227558
0.178487
0.145252
0.122433
0.106585
0.0954995
0.0877326
0.0823258
0.0786315
0.0762077
0.0747536
0.0740671
0.0740184
0.074533
0.0755833
0.0771901
0.0794394
0.0825307
0.0869054
0.093632
0.105855
0.13708
0.315386
6.473
6.42875
5.53978
4.7213
4.1452
3.70848
3.33073
3.04517
2.82917
2.45851
1.91874
1.3985
0.985083
0.687297
0.484055
0.348856
0.259492
0.200068
0.160053
0.13271
0.113773
0.100522
0.0911988
0.0846435
0.0800775
0.0769704
0.0749592
0.0737966
0.0733178
0.0734187
0.0740423
0.0751729
0.0768393
0.0791322
0.0822534
0.0866443
0.093369
0.105556
0.136636
0.313925
4.75776
5.22688
5.07812
4.5615
4.06837
3.61837
3.22905
2.89838
2.58505
2.13724
1.60606
1.1429
0.797379
0.558128
0.398199
0.292522
0.22246
0.175468
0.143471
0.12136
0.105889
0.0949723
0.0872437
0.0817899
0.0779909
0.0754213
0.0737889
0.0728953
0.0726094
0.0728502
0.0735766
0.0747835
0.0765066
0.0788407
0.0819897
0.0863941
0.093113
0.105256
0.13617
0.312293
3.25876
3.68716
3.85441
3.72221
3.44352
3.11302
2.79657
2.50424
2.15972
1.71414
1.25573
0.886899
0.622583
0.442922
0.323274
0.243717
0.190331
0.153995
0.128887
0.111301
0.0988535
0.0899901
0.0836734
0.0792001
0.0760868
0.0739999
0.0727095
0.0720605
0.0719512
0.0723213
0.0731435
0.0744219
0.0761981
0.0785708
0.0817448
0.0861598
0.0928688
0.104961
0.135688
0.310509
2.30887
2.5814
2.74541
2.75286
2.62534
2.41995
2.18925
1.93874
1.63047
1.26963
0.928929
0.661774
0.474244
0.346803
0.261002
0.202969
0.163265
0.135717
0.116345
0.10257
0.092699
0.0856009
0.0805076
0.0768889
0.0743769
0.0727158
0.0717294
0.0712995
0.0713502
0.0718385
0.0727489
0.0740936
0.0759193
0.0783272
0.0815234
0.0859456
0.0926405
0.104675
0.135195
0.308591
1.62727
1.80197
1.91386
1.9371
1.87088
1.73909
1.57012
1.37154
1.137
0.885953
0.660228
0.484474
0.358567
0.271292
0.211492
0.170089
0.141089
0.120528
0.105793
0.0951461
0.0874169
0.0818029
0.0777468
0.0748585
0.0728641
0.0715726
0.0708527
0.070617
0.070811
0.0714064
0.0723975
0.0738031
0.0756741
0.078114
0.081329
0.085755
0.0924313
0.1044
0.134697
0.306558
1.09984
1.20769
1.27688
1.29291
1.25336
1.16855
1.05261
0.913899
0.758169
0.600899
0.462374
0.353105
0.272428
0.214603
0.173533
0.144314
0.123365
0.108183
0.0970934
0.0889518
0.0829633
0.0785696
0.0753753
0.0730995
0.0715437
0.0705689
0.07008
0.0700148
0.0703363
0.0710279
0.0720923
0.0735534
0.0754655
0.0779337
0.0811643
0.0855905
0.0922437
0.10414
0.134196
0.304428
0.726186
0.786615
0.824553
0.83217
0.807603
0.755268
0.682385
0.59547
0.501089
0.408487
0.3269
0.260927
0.210388
0.172729
0.14498
0.124569
0.1095
0.0983441
0.0900532
0.0838713
0.0792665
0.075856
0.0733647
0.0715947
0.0704055
0.069699
0.0694088
0.0694924
0.0699265
0.0707043
0.0718346
0.0733459
0.0752949
0.0777879
0.0810307
0.0854535
0.092079
0.103896
0.133697
0.30222
0.484115
0.514978
0.533256
0.535056
0.519307
0.487913
0.444536
0.393292
0.338596
0.28537
0.237871
0.198293
0.166793
0.142383
0.123725
0.109548
0.0987917
0.090635
0.0844479
0.0797645
0.0762381
0.0736056
0.0716787
0.070321
0.0694354
0.0689547
0.0688343
0.0690471
0.0695805
0.0704349
0.0716245
0.0731809
0.0751626
0.0776769
0.0809285
0.0853443
0.0919378
0.10367
0.133202
0.299949
0.334778
0.349225
0.35672
0.355441
0.344884
0.325923
0.300404
0.270627
0.239096
0.208329
0.180374
0.156371
0.136575
0.12067
0.108094
0.0982447
0.0905731
0.0846214
0.0800205
0.0764822
0.0737844
0.0717567
0.0702778
0.0692531
0.0686173
0.0683258
0.0683502
0.0686749
0.0692955
0.070218
0.0714605
0.0730571
0.0750677
0.0775998
0.0808569
0.0852624
0.0918199
0.10346
0.132712
0.297634
0.243904
0.24985
0.251955
0.249389
0.241949
0.230072
0.214698
0.197045
0.178446
0.160186
0.143297
0.128408
0.115744
0.105245
0.0966918
0.0898075
0.084314
0.0799604
0.0765336
0.0738596
0.0718002
0.070248
0.0691232
0.068366
0.0679345
0.0678012
0.0679489
0.0683705
0.0690676
0.0700504
0.07134
0.0729722
0.0750081
0.0775548
0.0808145
0.0852064
0.0917243
0.103269
0.132231
0.295292
0.18807
0.189778
0.189353
0.186422
0.180914
0.173067
0.163368
0.152459
0.141037
0.129769
0.119197
0.109676
0.101374
0.0943082
0.0884034
0.0835358
0.0795661
0.0763593
0.0737941
0.071768
0.0701971
0.0690154
0.068173
0.0676332
0.0673706
0.0673696
0.0676221
0.0681275
0.0688917
0.0699279
0.0712592
0.072923
0.0749807
0.0775391
0.0807987
0.0851744
0.0916499
0.103095
0.131762
0.29294
0.152967
0.152616
0.15108
0.14819
0.143928
0.138432
0.131961
0.124856
0.117488
0.110211
0.103317
0.0970099
0.0914025
0.0865292
0.0823695
0.0788702
0.0759627
0.0735752
0.0716404
0.070099
0.0689019
0.0680098
0.0673931
0.0670306
0.0669085
0.0670195
0.067362
0.06794
0.0687626
0.0698456
0.0712138
0.0729053
0.0749818
0.0775493
0.0808066
0.0851645
0.0915962
0.102942
0.131331
0.290641
0.130218
0.128908
0.126945
0.124253
0.120832
0.116764
0.112193
0.107303
0.102296
0.0973629
0.0926661
0.0883238
0.0844079
0.0809493
0.077947
0.0753797
0.0732144
0.0714137
0.0699413
0.0687641
0.0678543
0.0671899
0.0667547
0.0665377
0.066533
0.0667394
0.0671596
0.0678009
0.0686751
0.0697997
0.0712005
0.0729162
0.0750086
0.077583
0.0808364
0.085176
0.0915667
0.102827
0.13099
0.288622
0.114958
0.113245
0.111183
0.108735
0.105909
0.102753
0.0993499
0.095802
0.0922206
0.0887122
0.085368
0.082257
0.0794243
0.0768931
0.0746682
0.0727423
0.0711004
0.0697238
0.0685936
0.0676923
0.0670055
0.0665217
0.0662334
0.0661366
0.0662308
0.0665186
0.0670061
0.067703
0.0686227
0.0697841
0.0712137
0.0729506
0.0750563
0.0776357
0.0808839
0.0852049
0.0915564
0.102737
0.130695
0.286757
0.104337
0.102505
0.100496
0.0982945
0.0959082
0.0933667
0.0907177
0.0880197
0.0853355
0.0827254
0.0802417
0.0779251
0.0758037
0.0738935
0.0722007
0.0707238
0.0694567
0.068391
0.0675175
0.0668281
0.066316
0.065977
0.0658088
0.0658121
0.0659898
0.0663475
0.0668935
0.0676391
0.068599
0.069793
0.071248
0.0730033
0.0751202
0.0777029
0.0809449
0.0852471
0.0915606
0.102667
0.130429
0.284995
0.0966635
0.0948531
0.0929671
0.0909972
0.08895
0.0868439
0.084707
0.0825733
0.0804789
0.0784585
0.0765426
0.0747557
0.0731153
0.0716325
0.0703127
0.0691569
0.0681637
0.06733
0.0666523
0.0661277
0.0657546
0.0655327
0.0654635
0.0655506
0.0657993
0.0662173
0.0668142
0.0676026
0.068598
0.0698207
0.0712981
0.0730694
0.0751957
0.0777802
0.0810151
0.0852984
0.0915753
0.10261
0.130181
0.28331
0.0909172
0.0891987
0.087462
0.0857031
0.0839267
0.0821443
0.0803726
0.0786317
0.0769426
0.075326
0.0737998
0.072379
0.0710748
0.0698948
0.0688437
0.0679234
0.0671348
0.0664776
0.0659517
0.0655575
0.0652961
0.06517
0.0651831
0.0653408
0.0656502
0.0661201
0.0667614
0.0675873
0.068614
0.0698622
0.0713592
0.0731444
0.0752782
0.0778634
0.0810907
0.0853553
0.0915967
0.102562
0.129947
0.281695
0.0864754
0.0848799
0.0832984
0.0817289
0.0801747
0.0786427
0.0771432
0.0756881
0.0742901
0.0729614
0.0717132
0.0705548
0.0694936
0.068535
0.0676828
0.0669396
0.0663071
0.0657869
0.0653807
0.0650908
0.0649203
0.0648733
0.0649552
0.0651728
0.0655341
0.066049
0.066729
0.0675878
0.068642
0.0699125
0.0714267
0.0732237
0.0753638
0.0779487
0.0811679
0.0854144
0.0916218
0.102521
0.129725
0.280151
0.08295
0.081488
0.0800572
0.0786564
0.0772878
0.0759559
0.0746668
0.073428
0.0722472
0.071132
0.0700894
0.0691256
0.0682456
0.0674536
0.0667526
0.0661455
0.0656347
0.0652227
0.0649123
0.064707
0.0646111
0.0646299
0.0647697
0.0650381
0.065444
0.0659978
0.0667114
0.067599
0.0686774
0.0699674
0.0714966
0.0733037
0.0754486
0.0780324
0.0812435
0.0854724
0.0916475
0.102484
0.129512
0.278683
0.0800931
0.078764
0.077474
0.0762226
0.0750113
0.0738429
0.0727214
0.0716516
0.0706383
0.0696866
0.0688011
0.067986
0.0672451
0.0665815
0.0659982
0.065498
0.0650837
0.0647583
0.0645256
0.0643896
0.0643555
0.0644292
0.0646179
0.0649296
0.0653737
0.0659611
0.066704
0.0676167
0.0687161
0.0700231
0.0715652
0.0733808
0.0755294
0.0781115
0.0813144
0.0855263
0.0916709
0.102447
0.129307
0.277295
0.0777412
0.0765384
0.0753771
0.0742573
0.0731802
0.0721478
0.0711627
0.0702283
0.0693478
0.0685247
0.0677624
0.0670639
0.0664321
0.0658699
0.06538
0.0649651
0.0646284
0.0643734
0.0642041
0.0641253
0.0641427
0.0642626
0.0644925
0.0648411
0.0653181
0.0659344
0.0667026
0.0676371
0.0687547
0.0700764
0.0716294
0.0734521
0.0756034
0.0781834
0.081378
0.0855738
0.0916894
0.102409
0.129107
0.27599
0.0757823
0.074696
0.0736505
0.0726462
0.0716842
0.0707661
0.0698939
0.06907
0.068297
0.0675774
0.0669137
0.0663085
0.0657642
0.0652833
0.0648685
0.0645228
0.0642493
0.0640519
0.063935
0.0639038
0.0639641
0.0641228
0.0643878
0.0647678
0.0652728
0.065914
0.0667039
0.0676571
0.0687904
0.0701247
0.0716869
0.0735153
0.0756684
0.0782457
0.0814324
0.0856128
0.0917011
0.102367
0.128912
0.274768
0.0741367
0.0731556
0.0722131
0.0713097
0.0704466
0.0696253
0.0688476
0.0681154
0.0674308
0.0667958
0.0662125
0.0656832
0.06521
0.0647953
0.0644419
0.0641527
0.0639312
0.0637814
0.063708
0.0637164
0.0638127
0.0640041
0.0642987
0.0647053
0.0652342
0.0658966
0.0667051
0.0676742
0.0688209
0.0701657
0.0717356
0.0735685
0.0757227
0.078297
0.0814758
0.0856417
0.0917046
0.10232
0.128722
0.273631
0.0727456
0.0718581
0.0710061
0.0701905
0.0694126
0.0686738
0.0679758
0.0673204
0.0667093
0.0661444
0.0656275
0.0651607
0.064746
0.064386
0.0640832
0.0638407
0.0636623
0.063552
0.0635148
0.0635563
0.0636828
0.0639017
0.0642212
0.0646503
0.0651994
0.0658797
0.0667039
0.0676865
0.0688443
0.0701979
0.071774
0.0736104
0.075765
0.0783362
0.0815075
0.0856599
0.0916994
0.102268
0.128536
0.272583
0.071564
0.0707588
0.0699857
0.0692461
0.0685414
0.0678731
0.0672428
0.0666522
0.0661029
0.0655967
0.0651352
0.0647204
0.0643545
0.0640398
0.0637791
0.0635755
0.063433
0.0633557
0.0633487
0.0634179
0.0635697
0.0638117
0.064152
0.0646001
0.0651661
0.0658615
0.0666988
0.0676926
0.0688596
0.0702203
0.0718014
0.0736402
0.0757946
0.0783626
0.0815268
0.085667
0.0916853
0.102212
0.128358
0.271626
0.070557
0.0698228
0.0691179
0.0684438
0.0678019
0.0671939
0.0666213
0.0660858
0.0655888
0.065132
0.0647172
0.0643462
0.0640212
0.0637445
0.0635191
0.0633482
0.0632356
0.063186
0.0632043
0.0632966
0.0634696
0.0637308
0.0640887
0.0645525
0.0651326
0.0658403
0.0666885
0.0676914
0.0688659
0.0702323
0.0718171
0.0736576
0.0758114
0.0783761
0.0815339
0.0856631
0.0916626
0.102152
0.128187
0.270764
0.0696961
0.0690226
0.068376
0.0677578
0.0671696
0.0666132
0.0660899
0.0656013
0.065149
0.0647343
0.0643591
0.0640253
0.0637348
0.0634904
0.0632947
0.0631513
0.063064
0.0630375
0.0630771
0.0631888
0.0633794
0.0636567
0.064029
0.0645058
0.0650974
0.0658153
0.0666723
0.0676825
0.0688628
0.0702336
0.0718211
0.0736626
0.0758155
0.078377
0.081529
0.0856487
0.091632
0.102088
0.128026
0.269999
0.0689584
0.0683356
0.0677379
0.0671671
0.0666247
0.0661123
0.0656313
0.065183
0.0647688
0.0643903
0.0640491
0.063747
0.0634862
0.0632691
0.0630988
0.0629787
0.0629129
0.062906
0.0629634
0.0630913
0.0632966
0.0635871
0.0639713
0.0644587
0.0650597
0.0657858
0.0666497
0.0676656
0.0688504
0.0702243
0.0718137
0.0736556
0.0758073
0.0783659
0.0815129
0.0856245
0.0915943
0.102023
0.127875
0.269333
0.0683245
0.0677426
0.0671853
0.0666541
0.0661505
0.0656757
0.0652309
0.0648173
0.0644362
0.064089
0.0637772
0.0635026
0.0632674
0.0630741
0.0629256
0.0628255
0.0627779
0.0627876
0.06286
0.0630016
0.0632191
0.0635205
0.0639145
0.0644105
0.0650189
0.0657514
0.0666206
0.0676409
0.0688289
0.070205
0.0717954
0.0736372
0.0757876
0.0783436
0.0814863
0.0855914
0.0915504
0.101956
0.127737
0.268766
0.0677776
0.0672274
0.0667024
0.0662038
0.0657327
0.0652899
0.0648764
0.064493
0.0641408
0.0638211
0.0635352
0.0632848
0.063072
0.0628993
0.0627699
0.0626871
0.0626553
0.0626792
0.0627645
0.0629174
0.0631452
0.0634556
0.0638575
0.0643603
0.0649747
0.065712
0.0665852
0.0676086
0.0687988
0.0701761
0.071767
0.0736083
0.0757573
0.078311
0.0814503
0.0855505
0.0915014
0.10189
0.127611
0.268298
0.0673034
0.0667757
0.0662754
0.0658031
0.065359
0.0649435
0.0645571
0.0642003
0.0638738
0.0635785
0.0633157
0.0630869
0.0628942
0.06274
0.0626273
0.0625599
0.0625418
0.0625781
0.0626744
0.0628372
0.0630735
0.0633914
0.0637996
0.0643079
0.0649268
0.0656678
0.0665439
0.0675693
0.0687608
0.0701387
0.0717294
0.07357
0.0757176
0.0782694
0.0814062
0.085503
0.0914484
0.101824
0.1275
0.267927
0.0668893
0.066375
0.0658922
0.0654401
0.0650184
0.0646264
0.0642639
0.0639308
0.0636275
0.0633544
0.0631126
0.0629035
0.0627291
0.0625916
0.0624943
0.0624406
0.0624349
0.0624821
0.0625881
0.0627593
0.0630029
0.063327
0.0637405
0.0642531
0.0648755
0.0656192
0.0664971
0.0675237
0.0687158
0.0700937
0.0716839
0.0735234
0.0756698
0.07822
0.0813552
0.0854501
0.0913927
0.10176
0.127402
0.267648
0.0665234
0.0660137
0.0655415
0.0651047
0.0647013
0.0643297
0.0639886
0.0636772
0.0633953
0.0631429
0.0629207
0.06273
0.0625726
0.0624507
0.0623675
0.0623265
0.0623321
0.0623893
0.062504
0.0626826
0.0629326
0.063262
0.0636799
0.064196
0.0648209
0.0655665
0.0664457
0.0674729
0.068665
0.0700424
0.0716317
0.0734701
0.0756153
0.0781644
0.0812987
0.0853933
0.0913354
0.1017
0.127319
0.267451
0.0661944
0.0656806
0.0652132
0.0647874
0.0643994
0.0640459
0.0637245
0.0634335
0.0631717
0.062939
0.0627356
0.0625624
0.0624212
0.0623143
0.0622444
0.0622154
0.0622316
0.0622981
0.0624208
0.0626063
0.062862
0.0631961
0.0636177
0.0641367
0.0647638
0.0655107
0.0663905
0.0674178
0.0686095
0.0699862
0.0715744
0.0734117
0.0755558
0.0781042
0.0812384
0.0853339
0.0912777
0.101643
0.127249
0.26732
0.0658905
0.0653651
0.0648977
0.06448
0.0641055
0.0637688
0.0634662
0.0631947
0.0629525
0.0627389
0.0625537
0.0623976
0.0622722
0.0621796
0.0621228
0.0621053
0.0621318
0.0622072
0.0623375
0.0625295
0.0627905
0.0631291
0.0635541
0.0640756
0.0647045
0.0654525
0.0663328
0.06736
0.0685511
0.0699268
0.0715139
0.0733501
0.0754932
0.0780412
0.0811761
0.0852736
0.091221
0.10159
0.127191
0.267227
0.0655995
0.0650571
0.0645872
0.0641763
0.0638146
0.0634943
0.06321
0.0629577
0.0627348
0.0625399
0.0623725
0.0622332
0.0621232
0.0620447
0.0620007
0.0619946
0.0620311
0.0621153
0.0622531
0.0624515
0.0627179
0.0630607
0.0634892
0.0640133
0.0646439
0.065393
0.0662738
0.0673009
0.0684915
0.0698664
0.0714525
0.0732876
0.07543
0.0779779
0.0811139
0.0852143
0.0911669
0.101542
0.127143
0.267129
0.0653117
0.0647511
0.0642788
0.0638754
0.0635268
0.063223
0.0629568
0.0627233
0.0625191
0.0623423
0.0621923
0.0620691
0.0619742
0.0619095
0.0618778
0.061883
0.0619293
0.0620222
0.0621676
0.0623724
0.0626442
0.0629916
0.0634236
0.0639505
0.0645832
0.0653337
0.0662152
0.0672426
0.0684331
0.0698075
0.0713929
0.0732274
0.0753694
0.0779176
0.0810551
0.085159
0.0911178
0.101501
0.127101
0.266946
0.0650306
0.0644566
0.0639855
0.0635912
0.0632561
0.0629681
0.0627189
0.0625026
0.0623155
0.0621551
0.0620207
0.0619123
0.0618311
0.0617789
0.0617588
0.0617743
0.06183
0.0619311
0.0620837
0.0622948
0.0625721
0.0629239
0.0633598
0.0638897
0.0645248
0.0652771
0.0661599
0.0671882
0.0683791
0.0697537
0.0713391
0.0731736
0.0753159
0.0778651
0.0810048
0.0851132
0.0910804
0.101478
0.12709
0.266588
0.0648054
0.0642286
0.0637626
0.0633771
0.0630529
0.0627766
0.0625395
0.0623352
0.0621598
0.0620109
0.0618874
0.0617894
0.0617178
0.0616747
0.061663
0.0616861
0.0617488
0.0618562
0.0620144
0.0622304
0.062512
0.0628676
0.0633066
0.0638391
0.0644764
0.0652305
0.0661146
0.0671439
0.0683355
0.0697106
0.0712964
0.0731313
0.0752741
0.0778242
0.0809656
0.0850771
0.09105
0.101457
0.127066
0.265715
)
;

boundaryField
{
    leftWall
    {
        type            epsilonWallFunction;
        value           nonuniform List<scalar> 0();
    }
    rightWall
    {
        type            epsilonWallFunction;
        value           nonuniform List<scalar> 
43
(
0.318443
0.317691
0.316653
0.315386
0.313925
0.312293
0.310509
0.308591
0.306558
0.304428
0.30222
0.299949
0.297634
0.295292
0.29294
0.290641
0.288622
0.286757
0.284995
0.28331
0.281695
0.280151
0.278683
0.277295
0.27599
0.274768
0.273631
0.272583
0.271626
0.270764
0.269999
0.269333
0.268766
0.268298
0.267927
0.267648
0.267451
0.26732
0.267227
0.267129
0.266946
0.266588
0.265715
)
;
    }
    lowerWall
    {
        type            epsilonWallFunction;
        value           nonuniform List<scalar> 0();
    }
    atmosphere
    {
        type            inletOutlet;
        inletValue      uniform 0.1;
        value           nonuniform List<scalar> 
45
(
0.0716713
0.0691266
0.0675009
0.0663548
0.065503
0.0648054
0.0642286
0.0637626
0.0633771
0.0630529
0.0627766
0.0625395
0.0623352
0.0621598
0.0620109
0.0618874
0.0617894
0.0617178
0.0616747
0.061663
0.0616861
0.0617488
0.0618562
0.0620144
0.0622304
0.062512
0.0628676
0.0633066
0.0638391
0.0644764
0.0652305
0.0661146
0.0671439
0.0683355
0.0697106
0.0712964
0.0731313
0.0752741
0.0778242
0.0809656
0.0850771
0.09105
0.101457
0.127066
0.265715
)
;
    }
    defaultFaces
    {
        type            empty;
    }
    procBoundary3to1
    {
        type            processor;
        value           nonuniform List<scalar> 
45
(
5.27478
7.33532
9.41547
9.38749
7.09667
5.29363
4.11472
3.42917
3.10285
3.03091
3.12247
3.28805
3.43734
3.54081
3.42402
3.01835
2.4541
1.87917
1.3794
0.985706
0.69631
0.493799
0.356423
0.264575
0.203254
0.162025
0.134005
0.114761
0.101446
0.0922206
0.0858722
0.0815921
0.0788331
0.0772245
0.0765198
0.0765633
0.0772716
0.0786283
0.0806953
0.0836583
0.0879546
0.0946602
0.106955
0.138504
0.31888
)
;
    }
    procBoundary3to2
    {
        type            processor;
        value           nonuniform List<scalar> 
43
(
3.31388
2.88445
2.44363
2.04727
1.7046
1.39406
1.10415
0.845315
0.633764
0.474622
0.361431
0.283138
0.229329
0.192073
0.165807
0.146836
0.132752
0.121975
0.113476
0.106586
0.100868
0.0960381
0.0919073
0.0883465
0.0852639
0.0825917
0.0802771
0.0782771
0.0765553
0.0750808
0.0738271
0.0727721
0.0718988
0.0711948
0.0706534
0.0702747
0.0700678
0.0700549
0.0702798
0.0708241
0.0718323
0.0735404
0.0761646
)
;
    }
}


// ************************************************************************* //
