/*--------------------------------*- C++ -*----------------------------------*\
  =========                 |
  \\      /  F ield         | OpenFOAM: The Open Source CFD Toolbox
   \\    /   O peration     | Website:  https://openfoam.org
    \\  /    A nd           | Version:  9
     \\/     M anipulation  |
\*---------------------------------------------------------------------------*/
FoamFile
{
    format      ascii;
    class       volScalarField;
    location    "0.3";
    object      p_rgh;
}
// * * * * * * * * * * * * * * * * * * * * * * * * * * * * * * * * * * * * * //

dimensions      [1 -1 -2 0 0 0 0];

internalField   nonuniform List<scalar> 
1935
(
-4.33171
-4.10165
-3.84648
-3.53594
-3.18107
-2.81308
-2.46241
-2.14735
-1.87315
-1.6379
-1.43634
-1.26306
-1.11352
-0.983859
-0.870964
-0.772504
-0.686646
-0.611714
-0.546126
-0.488486
-0.437622
-0.392526
-0.352317
-0.316274
-0.283849
-0.254602
-0.228138
-0.204046
-0.181904
-0.161347
-0.142122
-0.124089
-0.107206
-0.091491
-0.0769767
-0.0636721
-0.0515456
-0.0405043
-0.0303804
-0.0209607
-0.0118817
-0.00156558
0.00935614
-4.16976
-3.32887
-4.23908
-4.18281
-4.20164
-3.52755
-2.22974
-2.36374
-3.98145
-3.95687
-1.31723
2.19023
-3.67193
-3.72709
-3.03862
0.383759
-3.27999
-3.33697
-3.26117
-2.02014
-2.85665
-2.8706
-2.80651
-2.43833
-2.45195
-2.41321
-2.32141
-2.08498
-2.0967
-2.01795
-1.89586
-1.70994
-1.79758
-1.6966
-1.56098
-1.38538
-1.54953
-1.4388
-1.30019
-1.13214
-1.34286
-1.23115
-1.09689
-0.940299
-1.16971
-1.06168
-0.935778
-0.793
-1.02319
-0.921209
-0.805258
-0.676644
-0.898007
-0.803089
-0.697324
-0.582116
-0.790314
-0.702732
-0.606761
-0.503716
-0.697415
-0.617064
-0.530164
-0.437827
-0.617187
-0.543691
-0.464927
-0.381833
-0.547652
-0.48041
-0.408804
-0.333726
-0.487011
-0.425356
-0.360102
-0.292165
-0.433868
-0.377267
-0.317807
-0.25637
-0.387207
-0.335321
-0.281231
-0.225679
-0.346154
-0.298727
-0.249553
-0.1992
-0.30981
-0.266522
-0.22174
-0.1759
-0.277335
-0.237769
-0.196849
-0.154961
-0.248103
-0.211826
-0.174337
-0.136024
-0.221719
-0.188397
-0.154054
-0.119082
-0.197907
-0.167344
-0.135972
-0.104162
-0.176363
-0.148452
-0.119913
-0.0910647
-0.156697
-0.131343
-0.105475
-0.0793512
-0.138506
-0.11557
-0.0921746
-0.0685293
-0.121486
-0.100785
-0.0796557
-0.0582752
-0.105483
-0.0868384
-0.0678035
-0.0485358
-0.0904881
-0.0737696
-0.056717
-0.0394746
-0.0765791
-0.0617159
-0.0465903
-0.0313302
-0.0638374
-0.0508044
-0.0375827
-0.0242771
-0.052294
-0.0410795
-0.0297412
-0.0183538
-0.0419096
-0.0324875
-0.022994
-0.0134694
-0.0325767
-0.0249011
-0.0171939
-0.00946082
-0.024132
-0.0181547
-0.0121711
-0.00615696
-0.0163959
-0.0120937
-0.00778798
-0.00343302
-0.00918122
-0.00660404
-0.00396945
-0.00123456
-0.00173372
-0.00126446
-0.000465179
0.000580992
0.00573871
0.0038583
0.00273112
0.00202881
1048.42
1911.44
1912.65
1908.93
1898.98
894.746
18.8186
3.09826
2.32192
2.22923
2.20849
2.18982
2.1678
2.14141
2.11066
2.0765
2.04049
2.00446
1.97001
1.93814
1.90919
1.88312
1.85975
1.83899
1.82083
1.80527
1.79223
1.78144
1.77252
1.76504
1.75867
1.7532
1.74858
1.74484
1.74204
1.74025
1.7395
1.73985
1.7412
1.74294
47.7895
1396.28
1964.84
1954.73
1793.09
1035.37
56.2753
3.60108
2.29154
2.16317
2.1469
2.13056
2.10962
2.08376
2.05337
2.01982
1.98491
1.95045
1.91786
1.88799
1.8611
1.83707
1.81566
1.7967
1.78013
1.76591
1.75395
1.74401
1.73579
1.72891
1.72307
1.7181
1.71392
1.71056
1.70806
1.70648
1.70584
1.70622
1.70754
1.70922
3.50808
245.745
979.686
990.782
722.627
505.512
135.996
8.30303
2.30249
2.11096
2.08976
2.07117
2.04853
2.02148
1.99077
1.95788
1.92447
1.89206
1.86182
1.83438
1.80989
1.78818
1.76896
1.75202
1.73722
1.72449
1.71374
1.70476
1.69729
1.69105
1.68579
1.68135
1.67765
1.6747
1.67254
1.67119
1.67068
1.67111
1.67238
1.67398
3.13138
11.704
59.7064
63.7423
39.6932
29.7955
81.5889
20.1426
2.87004
2.10704
2.03991
2.01005
1.98221
1.95269
1.92157
1.88982
1.85858
1.82894
1.80172
1.77729
1.75567
1.7366
1.71979
1.705
1.69208
1.68096
1.67154
1.66364
1.65707
1.65157
1.64696
1.64309
1.63991
1.6374
1.63559
1.63449
1.63414
1.63461
1.63583
1.63733
0.641981
2.49577
8.05362
11.1251
10.1841
7.47079
6.00807
11.1992
3.5906
2.12298
1.97724
1.93479
1.90371
1.87361
1.84385
1.81473
1.78691
1.76107
1.7377
1.71693
1.69863
1.68251
1.6683
1.65578
1.64485
1.63544
1.62746
1.62078
1.61522
1.61057
1.60668
1.60344
1.6008
1.59876
1.59731
1.59649
1.5963
1.59682
1.598
1.5994
-1.18309
-0.206842
0.568653
1.92512
2.38104
2.22085
2.00731
1.97335
2.41309
1.96792
1.86273
1.83038
1.80566
1.78091
1.75627
1.73231
1.70967
1.68887
1.6702
1.65366
1.63906
1.62613
1.61467
1.60455
1.59572
1.58813
1.58171
1.57635
1.57187
1.56814
1.56504
1.56247
1.56041
1.55885
1.5578
1.55726
1.55725
1.55784
1.55897
1.56027
-1.61154
-1.13586
-0.65659
0.0701059
0.63404
0.976566
1.21499
1.44292
1.61162
1.68682
1.69866
1.69782
1.68908
1.67554
1.65984
1.64358
1.62782
1.61316
1.59989
1.58798
1.57732
1.56774
1.55917
1.55157
1.54494
1.53927
1.53449
1.5305
1.52719
1.52443
1.52215
1.5203
1.51885
1.5178
1.51715
1.51691
1.51709
1.51775
1.51884
1.52005
-1.42552
-1.06178
-0.636533
-0.157306
0.28983
0.652348
0.949388
1.19746
1.37584
1.47745
1.52918
1.55382
1.56271
1.56266
1.55788
1.55083
1.54298
1.5351
1.52757
1.52048
1.51386
1.50773
1.50213
1.49714
1.49279
1.48909
1.486
1.48343
1.48131
1.47957
1.47815
1.47704
1.47622
1.4757
1.47548
1.47555
1.47593
1.47667
1.47771
1.47882
-1.15143
-0.848936
-0.50126
-0.131079
0.223334
0.534992
0.80293
1.02616
1.19271
1.30212
1.37016
1.41132
1.43509
1.44797
1.4543
1.45676
1.45701
1.45596
1.45413
1.4518
1.44921
1.44654
1.44396
1.44162
1.43958
1.43787
1.43647
1.43534
1.43443
1.43371
1.43318
1.43283
1.43266
1.43269
1.4329
1.43329
1.43388
1.43469
1.4357
1.43671
-0.923087
-0.666474
-0.381057
-0.083494
0.204138
0.465725
0.694966
0.887959
1.03883
1.14792
1.224
1.27625
1.3118
1.33594
1.35243
1.36377
1.3716
1.37692
1.38044
1.38265
1.38395
1.38468
1.38509
1.38537
1.38561
1.38586
1.38613
1.38641
1.3867
1.38702
1.38739
1.38781
1.38831
1.38888
1.38953
1.39025
1.39104
1.39193
1.39291
1.39382
-0.753231
-0.532657
-0.294277
-0.049481
0.188275
0.408228
0.603928
0.771307
0.907392
1.01284
1.09248
1.15201
1.1964
1.22963
1.25466
1.27362
1.28803
1.29897
1.3073
1.31369
1.31867
1.32266
1.32596
1.32876
1.3312
1.33332
1.3352
1.33685
1.33833
1.33967
1.34093
1.34213
1.34329
1.34442
1.34551
1.34655
1.34754
1.34851
1.34945
1.35027
-0.627162
-0.437032
-0.235424
-0.0301739
0.169669
0.356514
0.525081
0.671985
0.795457
0.896069
0.97656
1.0404
1.09089
1.13081
1.1624
1.18739
1.20717
1.22288
1.23542
1.24559
1.25396
1.26099
1.26698
1.27215
1.27663
1.28052
1.28391
1.28687
1.28949
1.29184
1.29398
1.29595
1.29776
1.29943
1.30094
1.30229
1.30348
1.30453
1.30543
1.30616
-0.530364
-0.365974
-0.193809
-0.0194001
0.150813
0.31128
0.45794
0.588214
0.700904
0.796298
0.875894
0.941716
0.995828
1.04012
1.07625
1.10566
1.12962
1.14922
1.16539
1.1789
1.19032
1.2001
1.20853
1.21584
1.22217
1.22768
1.23247
1.23667
1.24039
1.24371
1.2467
1.24941
1.25185
1.25404
1.25596
1.25761
1.25898
1.2601
1.26097
1.26161
-0.453165
-0.310298
-0.161963
-0.012202
0.134271
0.273399
0.402167
0.518636
0.621865
0.711828
0.789211
0.855095
0.910722
0.957371
0.996306
1.02874
1.0558
1.0785
1.09769
1.11406
1.12815
1.14033
1.1509
1.16009
1.16808
1.17503
1.18112
1.18647
1.19121
1.19545
1.19925
1.20266
1.2057
1.20837
1.21067
1.2126
1.21414
1.21533
1.21617
1.21673
-0.389721
-0.264737
-0.135845
-0.0060731
0.121114
0.24279
0.356747
0.461491
0.556165
0.640477
0.714597
0.779034
0.83453
0.881983
0.922381
0.956738
0.986022
1.0111
1.03271
1.05143
1.06772
1.08192
1.0943
1.10511
1.11454
1.12279
1.13003
1.13644
1.14214
1.14722
1.15178
1.15583
1.15942
1.16255
1.1652
1.16737
1.16907
1.17031
1.17112
1.17162
-0.336528
-0.2264
-0.11351
-0.000114574
0.111261
0.218521
0.32003
0.414574
0.501323
0.579815
0.649936
0.711885
0.766123
0.813306
0.854214
0.889664
0.920446
0.94726
0.970697
0.991233
1.00925
1.02505
1.03891
1.05106
1.06172
1.07111
1.0794
1.08676
1.09332
1.09919
1.10442
1.10907
1.11315
1.11667
1.11963
1.12203
1.12386
1.12515
1.12592
1.12638
-0.291299
-0.193645
-0.0940885
0.00573582
0.104006
0.199205
0.290075
0.375582
0.454931
0.527596
0.593342
0.652222
0.704535
0.750769
0.791521
0.827423
0.859079
0.887027
0.911727
0.933558
0.952843
0.969863
0.984875
0.998117
1.00981
1.02017
1.02938
1.03758
1.04491
1.05146
1.05729
1.06246
1.06697
1.07084
1.07407
1.07666
1.07861
1.07994
1.08068
1.08109
-0.252496
-0.16552
-0.0772467
0.0111883
0.0984637
0.183439
0.265097
0.342539
0.415033
0.482066
0.543378
0.598956
0.648999
0.693858
0.733969
0.769793
0.801774
0.830311
0.855754
0.878411
0.898559
0.916453
0.932337
0.94644
0.958978
0.970147
0.980119
0.989037
0.997017
1.00415
1.01049
1.01609
1.02097
1.02514
1.0286
1.03135
1.0334
1.03476
1.03547
1.03581
-0.219179
-0.141487
-0.0628578
0.0159394
0.0939088
0.170139
0.243773
0.314027
0.380253
0.441996
0.49901
0.551256
0.598856
0.64205
0.681137
0.716439
0.748269
0.776921
0.802664
0.825748
0.846413
0.864888
0.881396
0.896148
0.909343
0.921157
0.931747
0.941242
0.94975
0.957353
0.964113
0.970069
0.975246
0.979657
0.983303
0.986187
0.988314
0.989694
0.990372
0.99065
-0.19074
-0.121115
-0.0507187
0.019909
0.0899621
0.158667
0.225282
0.289134
0.349673
0.406513
0.459441
0.508403
0.553465
0.594777
0.632533
0.66695
0.698245
0.726632
0.752319
0.775511
0.796411
0.815219
0.832132
0.847335
0.861004
0.873294
0.884346
0.894276
0.903184
0.911148
0.918224
0.924455
0.929863
0.934461
0.938253
0.941239
0.943424
0.944815
0.94546
0.94567
-0.166509
-0.103808
-0.0404012
0.023282
0.0865423
0.1487
0.20912
0.267235
0.322598
0.374896
0.423951
0.469703
0.512176
0.551454
0.587656
0.62092
0.651395
0.679233
0.704595
0.727645
0.748549
0.767475
0.784589
0.800052
0.814012
0.826609
0.837965
0.848189
0.857371
0.865585
0.872886
0.879312
0.884887
0.88962
0.893515
0.896573
0.898795
0.900188
0.9008
0.900943
-0.145594
-0.0887959
-0.0313607
0.026328
0.0836442
0.139998
0.194858
0.247773
0.298389
0.346464
0.391853
0.434493
0.474379
0.511547
0.546061
0.578001
0.607463
0.634552
0.659387
0.682092
0.7028
0.721647
0.73877
0.754304
0.768378
0.781114
0.792623
0.803004
0.812341
0.820703
0.828141
0.83469
0.84037
0.84519
0.849149
0.852248
0.854487
0.85587
0.856448
0.85653
-0.127088
-0.0754046
-0.0232049
0.0291561
0.0811307
0.132228
0.18203
0.230189
0.276441
0.3206
0.362546
0.402215
0.439577
0.474634
0.507404
0.537925
0.566249
0.592443
0.616586
0.638772
0.659101
0.677681
0.694627
0.710052
0.724071
0.736791
0.748313
0.758728
0.768113
0.776531
0.784027
0.790631
0.79636
0.801218
0.805203
0.808314
0.810551
0.811913
0.812456
0.812482
-0.110398
-0.06331
-0.0158671
0.0316213
0.0787012
0.124989
0.170172
0.213996
0.256264
0.29683
0.33559
0.372472
0.407425
0.440419
0.471438
0.500486
0.527579
0.552754
0.57606
0.597562
0.617338
0.635475
0.652071
0.667223
0.681033
0.693599
0.705012
0.715354
0.724694
0.733087
0.740571
0.747169
0.752894
0.757745
0.761719
0.764815
0.767029
0.76836
0.768866
0.768841
-0.0953728
-0.0525511
-0.00952802
0.0334547
0.076044
0.117956
0.158966
0.198888
0.237568
0.274882
0.31073
0.345024
0.377697
0.408689
0.437962
0.465489
0.491264
0.5153
0.537626
0.55829
0.577352
0.594888
0.610981
0.625718
0.639192
0.65149
0.662693
0.672873
0.682089
0.690386
0.697794
0.704331
0.710001
0.714803
0.718731
0.721783
0.723955
0.725246
0.725713
0.725642
-0.0821108
-0.0432846
-0.00435918
0.0345003
0.0730319
0.11103
0.14833
0.184786
0.220266
0.254653
0.287837
0.31972
0.350214
0.379246
0.406755
0.432702
0.457065
0.479844
0.501058
0.520744
0.538955
0.555757
0.571224
0.585436
0.598473
0.610413
0.621326
0.631271
0.640297
0.648437
0.655713
0.662135
0.667704
0.672415
0.676263
0.679245
0.681357
0.682598
0.683024
0.682913
-0.0706358
-0.0354975
-0.000296792
0.0348676
0.0698024
0.104352
0.138383
0.171767
0.204379
0.236097
0.266804
0.296392
0.324763
0.351835
0.37754
0.401834
0.424691
0.446106
0.466097
0.484695
0.50195
0.517921
0.532674
0.546281
0.55881
0.570326
0.580886
0.590537
0.599314
0.607242
0.614333
0.620591
0.626014
0.630595
0.63433
0.637216
0.639252
0.640433
0.640817
0.64067
-0.0607012
-0.0288926
0.00299016
0.0348934
0.0666648
0.098173
0.129297
0.159911
0.18989
0.219108
0.247444
0.274789
0.301044
0.326127
0.349976
0.372548
0.393822
0.413795
0.432485
0.449925
0.466159
0.481239
0.495225
0.508176
0.520147
0.53119
0.541348
0.550653
0.559131
0.566795
0.573651
0.579697
0.58493
0.589345
0.592936
0.595704
0.597647
0.59876
0.599101
0.598923
-0.0518431
-0.0230047
0.0059379
0.0349516
0.0639032
0.0926693
0.121131
0.149163
0.176641
0.203441
0.229448
0.254557
0.27868
0.301744
0.323696
0.344504
0.364153
0.382647
0.400004
0.416255
0.431441
0.445606
0.458798
0.471063
0.482443
0.492975
0.502687
0.511601
0.51973
0.52708
0.533652
0.539442
0.544446
0.548659
0.552079
0.554708
0.556544
0.557582
0.557879
0.557674
-0.0435974
-0.0174305
0.00886169
0.0352485
0.0616034
0.0878055
0.113738
0.139281
0.164315
0.188728
0.212415
0.235289
0.257273
0.278311
0.298363
0.317407
0.335435
0.352456
0.368488
0.383558
0.397699
0.410947
0.423335
0.434897
0.445659
0.455646
0.464872
0.473349
0.481082
0.48807
0.494312
0.499803
0.50454
0.508521
0.511745
0.514216
0.515934
0.516892
0.517145
0.516918
-0.0357094
-0.0120096
0.0118132
0.0357235
0.0595987
0.0833231
0.106787
0.129881
0.1525
0.174548
0.195939
0.216602
0.236478
0.255527
0.273721
0.291045
0.307499
0.323091
0.337836
0.351755
0.364873
0.377211
0.388792
0.399635
0.409754
0.41916
0.427859
0.435854
0.443143
0.449723
0.455592
0.460747
0.465185
0.468907
0.471915
0.474213
0.475803
0.476677
0.476887
0.476641
-0.0282045
-0.00685634
0.0145905
0.0360969
0.0575481
0.0788389
0.0998726
0.120557
0.140804
0.160538
0.179693
0.198213
0.216058
0.233199
0.249616
0.265302
0.280255
0.294482
0.307993
0.3208
0.332917
0.344354
0.355121
0.365226
0.374671
0.383459
0.391588
0.399055
0.405855
0.411986
0.417445
0.422229
0.426341
0.429783
0.432559
0.434674
0.436129
0.436917
0.437085
0.436825
-0.0213072
-0.0022514
0.0168682
0.0360141
0.0550848
0.0739904
0.0926517
0.110995
0.128952
0.146466
0.163486
0.179975
0.195901
0.211245
0.225991
0.240134
0.253669
0.2666
0.278927
0.290655
0.301786
0.312321
0.32226
0.3316
0.340337
0.348466
0.355981
0.362877
0.369149
0.374794
0.37981
0.3842
0.387965
0.391111
0.393643
0.395567
0.396884
0.397585
0.397713
0.397443
-0.0152852
0.00152037
0.0183574
0.0351959
0.0519509
0.0685506
0.0849337
0.101044
0.116832
0.132253
0.147274
0.161863
0.176
0.189666
0.202849
0.21554
0.227732
0.239421
0.250601
0.261268
0.271415
0.281036
0.290122
0.298665
0.306656
0.314086
0.320949
0.327236
0.332946
0.338075
0.342626
0.346601
0.350005
0.352845
0.355127
0.356857
0.358034
0.358649
0.358738
0.358462
-0.0103136
0.00429509
0.018915
0.0335265
0.0480627
0.0624689
0.0766994
0.0907129
0.104472
0.117946
0.131106
0.14393
0.156399
0.168495
0.180206
0.191518
0.20242
0.212902
0.222952
0.232559
0.24171
0.250394
0.258597
0.266309
0.273517
0.280212
0.286388
0.292037
0.297159
0.301753
0.305822
0.309372
0.312408
0.314938
0.316967
0.318502
0.31954
0.320069
0.320123
0.319844
-0.00641477
0.00607203
0.0185655
0.0310562
0.043494
0.055838
0.0680546
0.080113
0.0919852
0.103646
0.115072
0.126245
0.137144
0.147752
0.158054
0.168033
0.177673
0.186961
0.195879
0.204413
0.212547
0.220265
0.227555
0.234403
0.240797
0.246728
0.252191
0.257182
0.261701
0.265748
0.269329
0.27245
0.275116
0.277336
0.279114
0.280455
0.281356
0.281803
0.281824
0.281547
-0.0034799
0.00697791
0.0174515
0.0279398
0.0384054
0.0488178
0.0591517
0.069383
0.0794887
0.0894472
0.0992379
0.108841
0.118238
0.127409
0.136336
0.145002
0.153387
0.161476
0.169248
0.176689
0.18378
0.190506
0.196854
0.202812
0.208368
0.213517
0.218253
0.222575
0.226483
0.229981
0.233074
0.235767
0.238068
0.239982
0.241514
0.242667
0.243434
0.243802
0.243794
0.243521
-0.00133558
0.00719187
0.0157535
0.0243532
0.0329627
0.041558
0.0501187
0.0586244
0.0670547
0.0753897
0.0836096
0.0916947
0.0996257
0.107383
0.114948
0.122301
0.129424
0.136298
0.142906
0.149231
0.155256
0.160968
0.166355
0.171405
0.17611
0.180466
0.18447
0.188121
0.19142
0.194373
0.196983
0.199257
0.2012
0.202817
0.204111
0.205081
0.205721
0.206015
0.20598
0.205716
0.000185998
0.00687451
0.0136212
0.0204307
0.0272801
0.0341489
0.0410189
0.0478715
0.0546876
0.0614482
0.0681341
0.0747265
0.0812065
0.0875554
0.0937545
0.0997858
0.105631
0.111275
0.116699
0.12189
0.126832
0.131515
0.135928
0.140063
0.143913
0.147476
0.150749
0.153734
0.156433
0.158849
0.160988
0.162853
0.164449
0.165779
0.166843
0.16764
0.16816
0.168385
0.168328
0.168076
0.00119761
0.00612577
0.0111398
0.0162405
0.021406
0.0266168
0.0318552
0.0371033
0.0423429
0.0475563
0.052726
0.0578347
0.0628652
0.0678008
0.0726249
0.0773218
0.0818762
0.0862736
0.0905007
0.0945449
0.0983952
0.102042
0.105477
0.108696
0.111693
0.114467
0.117018
0.119346
0.121454
0.123345
0.125023
0.12649
0.12775
0.128804
0.12965
0.130283
0.130693
0.130857
0.130783
0.130549
0.00174187
0.00497425
0.00832254
0.0117786
0.0153181
0.01892
0.0225663
0.0262398
0.029924
0.0336033
0.0372628
0.0408878
0.0444643
0.0479786
0.0514178
0.0547693
0.0580215
0.0611634
0.0641849
0.0670768
0.0698311
0.072441
0.0749014
0.0772084
0.0793597
0.0813543
0.0831922
0.0848745
0.0864032
0.0877807
0.0890095
0.0900917
0.091028
0.0918179
0.0924583
0.0929426
0.0932564
0.0933728
0.0932877
0.093081
0.00188533
0.00341528
0.00510082
0.00691958
0.00884012
0.0108378
0.0128934
0.0149902
0.0171139
0.0192512
0.0213906
0.0235208
0.0256317
0.0277137
0.0297578
0.0317558
0.0337
0.0355831
0.0373989
0.0391416
0.0408062
0.0423889
0.0438867
0.0452976
0.0466203
0.0478545
0.0490004
0.0500591
0.0510318
0.05192
0.0527253
0.0534485
0.0540898
0.0546479
0.0551196
0.0554985
0.0557693
0.0558947
0.0558384
0.0556892
0.00161707
0.00147355
0.00153885
0.00175602
0.00208648
0.00250357
0.00298795
0.00352473
0.00410214
0.00471062
0.00534217
0.00598997
0.00664805
0.00731115
0.00797456
0.00863409
0.00928591
0.00992657
0.010553
0.0111624
0.0117525
0.0123215
0.0128678
0.0133905
0.0138888
0.0143622
0.0148109
0.0152351
0.0156353
0.0160122
0.0163664
0.0166986
0.0170094
0.0172984
0.017565
0.0178069
0.0180158
0.018163
0.0181937
0.0181248
)
;

boundaryField
{
    leftWall
    {
        type            fixedFluxPressure;
        gradient        nonuniform List<scalar> 0();
        value           nonuniform List<scalar> 0();
    }
    rightWall
    {
        type            fixedFluxPressure;
        gradient        uniform 0;
        value           nonuniform List<scalar> 
43
(
1.74294
1.70922
1.67398
1.63733
1.5994
1.56027
1.52005
1.47882
1.43671
1.39382
1.35027
1.30616
1.26161
1.21673
1.17162
1.12638
1.08109
1.03581
0.99065
0.94567
0.900943
0.85653
0.812482
0.768841
0.725642
0.682913
0.64067
0.598923
0.557674
0.516918
0.476641
0.436825
0.397443
0.358462
0.319844
0.281547
0.243521
0.205716
0.168076
0.130549
0.093081
0.0556892
0.0181248
)
;
    }
    lowerWall
    {
        type            fixedFluxPressure;
        gradient        nonuniform List<scalar> 0();
        value           nonuniform List<scalar> 0();
    }
    atmosphere
    {
        type            totalPressure;
        rho             rho;
        psi             none;
        gamma           1;
        p0              uniform 0;
        value           uniform 0;
    }
    defaultFaces
    {
        type            empty;
    }
    procBoundary3to1
    {
        type            processor;
        value           nonuniform List<scalar> 
45
(
-4.55542
-4.35255
-4.11434
-4.25665
28.669
1727.71
1858.98
1859.51
1863.53
1518.53
212.32
6.23221
2.89633
2.37971
2.29935
2.27089
2.24732
2.22276
2.1949
2.16326
2.12839
2.09152
2.05432
2.0184
1.98482
1.95408
1.92621
1.90114
1.87885
1.85937
1.8427
1.82873
1.81713
1.80749
1.79938
1.79244
1.78649
1.78147
1.77741
1.77438
1.77242
1.77157
1.77188
1.77328
1.77508
)
;
    }
    procBoundary3to2
    {
        type            processor;
        value           nonuniform List<scalar> 
43
(
-4.15111
-3.92631
-3.67334
-3.3859
-3.07448
-2.75809
-2.45476
-2.17601
-1.92641
-1.70585
-1.51186
-1.34141
-1.19158
-1.05974
-0.943592
-0.841289
-0.75123
-0.671973
-0.602181
-0.540592
-0.485996
-0.437292
-0.393598
-0.354264
-0.318808
-0.286798
-0.257761
-0.231202
-0.206687
-0.183876
-0.162541
-0.142557
-0.123861
-0.106417
-0.0902124
-0.0752355
-0.0614496
-0.0487674
-0.0370297
-0.025992
-0.015025
-0.00102903
0.0160657
)
;
    }
}


// ************************************************************************* //
