/*--------------------------------*- C++ -*----------------------------------*\
  =========                 |
  \\      /  F ield         | OpenFOAM: The Open Source CFD Toolbox
   \\    /   O peration     | Website:  https://openfoam.org
    \\  /    A nd           | Version:  9
     \\/     M anipulation  |
\*---------------------------------------------------------------------------*/
FoamFile
{
    format      ascii;
    class       volVectorField;
    location    "0.3";
    object      U;
}
// * * * * * * * * * * * * * * * * * * * * * * * * * * * * * * * * * * * * * //

dimensions      [0 1 -1 0 0 0 0];

internalField   nonuniform List<vector> 
1935
(
(-0.215698 -0.271593 0)
(-0.377846 -0.3564 0)
(-0.544069 -0.429904 0)
(-0.701431 -0.460773 0)
(-0.818942 -0.43371 0)
(-0.879295 -0.362093 0)
(-0.887203 -0.271917 0)
(-0.860243 -0.184978 0)
(-0.816224 -0.111842 0)
(-0.766962 -0.0548377 0)
(-0.718682 -0.0124317 0)
(-0.673879 0.0180474 0)
(-0.633124 0.0393181 0)
(-0.596118 0.0536839 0)
(-0.562266 0.0629161 0)
(-0.530957 0.0683364 0)
(-0.501674 0.0709336 0)
(-0.47402 0.0714446 0)
(-0.447713 0.070417 0)
(-0.422567 0.0682671 0)
(-0.398461 0.0653226 0)
(-0.375306 0.0618429 0)
(-0.35303 0.0580305 0)
(-0.331565 0.0540423 0)
(-0.310852 0.0499997 0)
(-0.290836 0.0459979 0)
(-0.271469 0.0421114 0)
(-0.252704 0.0383936 0)
(-0.234499 0.03488 0)
(-0.216811 0.0315929 0)
(-0.199605 0.0285446 0)
(-0.182851 0.0257403 0)
(-0.166526 0.0231817 0)
(-0.150614 0.0208676 0)
(-0.135107 0.0187945 0)
(-0.120004 0.0169593 0)
(-0.105314 0.0153613 0)
(-0.0910589 0.014008 0)
(-0.0772783 0.012928 0)
(-0.0640452 0.0121838 0)
(-0.051495 0.0119055 0)
(-0.039971 0.0128439 0)
(-0.0310952 0.0177643 0)
(-0.124641 0.0447651 0)
(-0.0469258 0.404495 0)
(0.145816 0.859911 0)
(0.436186 1.35334 0)
(-0.272927 -0.07724 0)
(-0.145103 0.270705 0)
(-0.0174466 0.624314 0)
(0.308867 1.12177 0)
(-0.463081 -0.221034 0)
(-0.306979 0.0911999 0)
(-0.148107 0.444583 0)
(0.0457991 0.810211 0)
(-0.676588 -0.327738 0)
(-0.576175 -0.0986884 0)
(-0.396598 0.233382 0)
(-0.206625 0.584852 0)
(-0.851892 -0.357522 0)
(-0.835185 -0.211333 0)
(-0.735954 0.0241516 0)
(-0.567571 0.333558 0)
(-0.94933 -0.313012 0)
(-0.995921 -0.220824 0)
(-0.996277 -0.0668024 0)
(-0.929513 0.154286 0)
(-0.967332 -0.228735 0)
(-1.03983 -0.158561 0)
(-1.09362 -0.0503376 0)
(-1.11124 0.102944 0)
(-0.932438 -0.140135 0)
(-1.00189 -0.0766785 0)
(-1.06325 0.0120652 0)
(-1.10655 0.129851 0)
(-0.873796 -0.0652192 0)
(-0.928926 -0.00537791 0)
(-0.978313 0.0719355 0)
(-1.0158 0.168631 0)
(-0.809796 -0.00818312 0)
(-0.849623 0.0477248 0)
(-0.884038 0.115674 0)
(-0.909033 0.196219 0)
(-0.749118 0.0326257 0)
(-0.776162 0.0841211 0)
(-0.798051 0.14378 0)
(-0.812129 0.211547 0)
(-0.694731 0.0605694 0)
(-0.712144 0.107435 0)
(-0.724831 0.159807 0)
(-0.731024 0.217357 0)
(-0.646872 0.0788823 0)
(-0.657384 0.121252 0)
(-0.663706 0.167333 0)
(-0.664671 0.216673 0)
(-0.604708 0.0902017 0)
(-0.610399 0.128438 0)
(-0.612454 0.16915 0)
(-0.610119 0.211873 0)
(-0.567149 0.0964986 0)
(-0.569508 0.131051 0)
(-0.568754 0.167219 0)
(-0.5644 0.204591 0)
(-0.533185 0.0992079 0)
(-0.533244 0.13053 0)
(-0.53066 0.162872 0)
(-0.525108 0.195892 0)
(-0.501998 0.0993641 0)
(-0.500473 0.127877 0)
(-0.496704 0.157003 0)
(-0.490482 0.186453 0)
(-0.472982 0.0977035 0)
(-0.470374 0.123785 0)
(-0.465861 0.150195 0)
(-0.459315 0.176687 0)
(-0.445714 0.09475 0)
(-0.442388 0.118727 0)
(-0.437442 0.142828 0)
(-0.430803 0.166846 0)
(-0.419912 0.0908916 0)
(-0.416138 0.11304 0)
(-0.410984 0.135167 0)
(-0.404407 0.157108 0)
(-0.395383 0.0864318 0)
(-0.391362 0.106987 0)
(-0.38616 0.127424 0)
(-0.379751 0.147614 0)
(-0.371985 0.0816106 0)
(-0.367864 0.100775 0)
(-0.362726 0.119764 0)
(-0.356557 0.138467 0)
(-0.3496 0.0766116 0)
(-0.345488 0.0945626 0)
(-0.340494 0.112302 0)
(-0.334617 0.129735 0)
(-0.328127 0.0715714 0)
(-0.324105 0.0884599 0)
(-0.319315 0.105113 0)
(-0.313768 0.121451 0)
(-0.307482 0.0665919 0)
(-0.30361 0.0825444 0)
(-0.29907 0.0982468 0)
(-0.293877 0.113632 0)
(-0.287591 0.061752 0)
(-0.283914 0.0768745 0)
(-0.279654 0.09174 0)
(-0.274827 0.106294 0)
(-0.268388 0.0571138 0)
(-0.264936 0.0714973 0)
(-0.260973 0.0856251 0)
(-0.256515 0.0994523 0)
(-0.249815 0.0527223 0)
(-0.246604 0.0664478 0)
(-0.242944 0.0799248 0)
(-0.238849 0.0931145 0)
(-0.231816 0.0486058 0)
(-0.228853 0.0617461 0)
(-0.225494 0.0746486 0)
(-0.221752 0.0872776 0)
(-0.214341 0.0447794 0)
(-0.211627 0.0573994 0)
(-0.208563 0.0697933 0)
(-0.205162 0.0819278 0)
(-0.19735 0.0412483 0)
(-0.194881 0.0534056 0)
(-0.192103 0.0653486 0)
(-0.189031 0.0770461 0)
(-0.180808 0.0380125 0)
(-0.178578 0.0497587 0)
(-0.176078 0.061302 0)
(-0.173322 0.0726138 0)
(-0.164691 0.0350697 0)
(-0.162694 0.0464521 0)
(-0.160462 0.0576431 0)
(-0.15801 0.0686159 0)
(-0.148982 0.0324168 0)
(-0.14721 0.0434806 0)
(-0.145238 0.0543642 0)
(-0.143077 0.0650417 0)
(-0.133671 0.0300504 0)
(-0.132119 0.0408403 0)
(-0.130398 0.0514602 0)
(-0.12852 0.061884 0)
(-0.118761 0.0279687 0)
(-0.117424 0.0385301 0)
(-0.115951 0.0489292 0)
(-0.114348 0.0591389 0)
(-0.104265 0.0261741 0)
(-0.103146 0.0365539 0)
(-0.10192 0.0467744 0)
(-0.100592 0.0568069 0)
(-0.0902136 0.0246796 0)
(-0.0893262 0.0349264 0)
(-0.0883599 0.0450085 0)
(-0.0873147 0.0548963 0)
(-0.0766708 0.0235227 0)
(-0.0760492 0.0336854 0)
(-0.075372 0.0436634 0)
(-0.074629 0.0534293 0)
(-0.0637599 0.0227836 0)
(-0.0634795 0.0329057 0)
(-0.0631487 0.0427981 0)
(-0.062744 0.0524452 0)
(-0.051727 0.0226113 0)
(-0.0519416 0.0327126 0)
(-0.0520543 0.0424998 0)
(-0.0520404 0.0519945 0)
(-0.0411135 0.0235599 0)
(-0.0420854 0.0334664 0)
(-0.0427731 0.0429815 0)
(-0.0432015 0.0521872 0)
(-0.0336552 0.0274073 0)
(-0.0354628 0.0363045 0)
(-0.0367156 0.0449337 0)
(-0.0375277 0.0534068 0)
(0.452724 1.38873 0)
(0.46321 1.39063 0)
(0.471716 1.37933 0)
(0.479865 1.3572 0)
(0.487427 1.32654 0)
(0.492447 1.30009 0)
(0.496224 1.29161 0)
(0.538433 1.31341 0)
(0.555175 1.24133 0)
(0.554357 1.0812 0)
(0.54734 0.912367 0)
(0.528523 0.772699 0)
(0.499623 0.668485 0)
(0.46552 0.593104 0)
(0.430427 0.537285 0)
(0.396825 0.493639 0)
(0.365767 0.457606 0)
(0.337407 0.426793 0)
(0.311496 0.400031 0)
(0.287691 0.376723 0)
(0.26568 0.356507 0)
(0.245216 0.339105 0)
(0.226106 0.324268 0)
(0.208197 0.311756 0)
(0.191364 0.30134 0)
(0.175497 0.292805 0)
(0.160492 0.285954 0)
(0.146254 0.280618 0)
(0.132691 0.276655 0)
(0.119716 0.273952 0)
(0.107245 0.272419 0)
(0.0951969 0.271988 0)
(0.0834958 0.272599 0)
(0.0720677 0.274199 0)
(0.0608413 0.276726 0)
(0.0497461 0.280094 0)
(0.038713 0.284169 0)
(0.0277415 0.288705 0)
(0.0168571 0.29309 0)
(0.0064918 0.29265 0)
(0.436222 1.35275 0)
(0.466166 1.37661 0)
(0.479942 1.37198 0)
(0.491109 1.35221 0)
(0.499832 1.32169 0)
(0.504309 1.29491 0)
(0.507861 1.28765 0)
(0.517096 1.29379 0)
(0.518264 1.23195 0)
(0.509206 1.08245 0)
(0.499952 0.92516 0)
(0.481616 0.796088 0)
(0.454468 0.698705 0)
(0.423416 0.625904 0)
(0.392186 0.569596 0)
(0.362692 0.523928 0)
(0.335555 0.485436 0)
(0.310725 0.452264 0)
(0.287912 0.423422 0)
(0.266808 0.39833 0)
(0.247156 0.376585 0)
(0.228756 0.357859 0)
(0.21146 0.341859 0)
(0.195152 0.328313 0)
(0.179739 0.316969 0)
(0.165135 0.307597 0)
(0.151263 0.299993 0)
(0.138044 0.293985 0)
(0.125404 0.28943 0)
(0.113269 0.286215 0)
(0.101566 0.284249 0)
(0.0902269 0.283461 0)
(0.0791844 0.283789 0)
(0.0683745 0.285173 0)
(0.0577357 0.287545 0)
(0.0472064 0.290817 0)
(0.0367263 0.29485 0)
(0.026301 0.2994 0)
(0.0159585 0.303847 0)
(0.00614201 0.303345 0)
(0.373291 1.2018 0)
(0.446805 1.33714 0)
(0.474343 1.35631 0)
(0.490329 1.34375 0)
(0.501371 1.31634 0)
(0.503805 1.29039 0)
(0.503487 1.29133 0)
(0.505867 1.30889 0)
(0.490485 1.24921 0)
(0.464392 1.09336 0)
(0.448815 0.941418 0)
(0.428712 0.81986 0)
(0.403058 0.727035 0)
(0.375728 0.655322 0)
(0.349235 0.597891 0)
(0.324583 0.550186 0)
(0.301929 0.509535 0)
(0.28107 0.474418 0)
(0.261718 0.443921 0)
(0.243621 0.417433 0)
(0.226585 0.394496 0)
(0.210474 0.374729 0)
(0.195189 0.3578 0)
(0.180657 0.343415 0)
(0.166821 0.331306 0)
(0.153624 0.321238 0)
(0.141011 0.313004 0)
(0.128927 0.306433 0)
(0.117313 0.301383 0)
(0.10611 0.297739 0)
(0.0952612 0.295411 0)
(0.0847088 0.294324 0)
(0.0743974 0.294412 0)
(0.0642736 0.295614 0)
(0.0542857 0.297859 0)
(0.0443814 0.301055 0)
(0.0345106 0.305063 0)
(0.0246854 0.309633 0)
(0.0149346 0.314133 0)
(0.00572596 0.313524 0)
(0.0599356 0.923687 0)
(0.305457 1.25758 0)
(0.429283 1.32981 0)
(0.467979 1.3304 0)
(0.483439 1.30916 0)
(0.477353 1.27934 0)
(0.455024 1.28734 0)
(0.445571 1.32402 0)
(0.432176 1.29532 0)
(0.4072 1.11968 0)
(0.387159 0.963926 0)
(0.366009 0.844261 0)
(0.343826 0.752559 0)
(0.322084 0.680206 0)
(0.301681 0.621143 0)
(0.282794 0.571597 0)
(0.265261 0.529286 0)
(0.248831 0.492788 0)
(0.233284 0.46116 0)
(0.218463 0.433728 0)
(0.204266 0.409975 0)
(0.19063 0.38948 0)
(0.17752 0.371886 0)
(0.164913 0.356882 0)
(0.152786 0.344197 0)
(0.141115 0.333592 0)
(0.129872 0.324867 0)
(0.11902 0.317853 0)
(0.108519 0.31241 0)
(0.0983286 0.308425 0)
(0.0884054 0.305808 0)
(0.0787064 0.304482 0)
(0.0691891 0.304381 0)
(0.0598116 0.305441 0)
(0.0505329 0.307589 0)
(0.0413113 0.310731 0)
(0.0321069 0.314726 0)
(0.0229397 0.319321 0)
(0.0138396 0.323859 0)
(0.00528718 0.323108 0)
(-0.358787 0.665244 0)
(-0.0997793 0.984443 0)
(0.152879 1.20073 0)
(0.241796 1.26626 0)
(0.278253 1.29236 0)
(0.292133 1.30252 0)
(0.32839 1.29508 0)
(0.303788 1.32093 0)
(0.294393 1.30023 0)
(0.30476 1.13928 0)
(0.29996 0.982842 0)
(0.287851 0.863513 0)
(0.275021 0.771369 0)
(0.262375 0.697955 0)
(0.250009 0.637714 0)
(0.237962 0.58715 0)
(0.22617 0.544042 0)
(0.214559 0.506926 0)
(0.203088 0.474799 0)
(0.191748 0.446937 0)
(0.180556 0.422787 0)
(0.16954 0.401909 0)
(0.158732 0.383935 0)
(0.148161 0.368555 0)
(0.137845 0.355499 0)
(0.127792 0.344536 0)
(0.117999 0.335471 0)
(0.108453 0.328143 0)
(0.099134 0.322417 0)
(0.0900191 0.318185 0)
(0.0810813 0.315358 0)
(0.0722923 0.31386 0)
(0.0636228 0.313625 0)
(0.0550433 0.314585 0)
(0.0465244 0.316669 0)
(0.0380353 0.319779 0)
(0.0295478 0.323771 0)
(0.0210899 0.328385 0)
(0.0126927 0.332937 0)
(0.00483937 0.331997 0)
(-0.798055 0.43578 0)
(-0.608218 0.740168 0)
(-0.369973 1.00419 0)
(-0.207507 1.16655 0)
(-0.111602 1.24234 0)
(-0.0564422 1.27546 0)
(-0.00612 1.29871 0)
(0.056569 1.31709 0)
(0.099829 1.25834 0)
(0.155754 1.12036 0)
(0.185202 0.979588 0)
(0.195408 0.866722 0)
(0.198799 0.777419 0)
(0.198501 0.705368 0)
(0.195734 0.645925 0)
(0.191274 0.595926 0)
(0.185596 0.55325 0)
(0.179011 0.516461 0)
(0.17175 0.484565 0)
(0.163994 0.456843 0)
(0.155895 0.432751 0)
(0.147578 0.411858 0)
(0.139145 0.39381 0)
(0.130677 0.378308 0)
(0.122233 0.365098 0)
(0.113855 0.353962 0)
(0.105565 0.344718 0)
(0.0973741 0.337213 0)
(0.0892846 0.331324 0)
(0.0812907 0.326946 0)
(0.0733824 0.323994 0)
(0.0655463 0.322394 0)
(0.0577668 0.322081 0)
(0.050027 0.322988 0)
(0.0423093 0.32504 0)
(0.0345946 0.32814 0)
(0.0268662 0.33214 0)
(0.0191592 0.336771 0)
(0.0115059 0.341321 0)
(0.0043835 0.340164 0)
(-1.07873 0.308966 0)
(-0.984504 0.555116 0)
(-0.835023 0.802406 0)
(-0.670664 1.00296 0)
(-0.532698 1.12149 0)
(-0.416908 1.17876 0)
(-0.312599 1.21043 0)
(-0.201216 1.22037 0)
(-0.0874679 1.16991 0)
(0.0073357 1.05938 0)
(0.0671546 0.945099 0)
(0.101595 0.847645 0)
(0.122346 0.767322 0)
(0.134686 0.700814 0)
(0.141472 0.645023 0)
(0.144468 0.597559 0)
(0.144777 0.556705 0)
(0.143122 0.521254 0)
(0.140006 0.490344 0)
(0.135799 0.463345 0)
(0.130777 0.439771 0)
(0.125157 0.419238 0)
(0.119107 0.401425 0)
(0.112757 0.386062 0)
(0.106203 0.37292 0)
(0.0995187 0.361801 0)
(0.0927535 0.352542 0)
(0.085942 0.345004 0)
(0.0791064 0.339072 0)
(0.0722596 0.334651 0)
(0.0654082 0.33166 0)
(0.0585534 0.330031 0)
(0.0516934 0.329697 0)
(0.0448237 0.330595 0)
(0.0379386 0.33265 0)
(0.0310303 0.335762 0)
(0.0240935 0.339781 0)
(0.0171693 0.344429 0)
(0.01029 0.348968 0)
(0.00392009 0.347588 0)
(-1.12009 0.284404 0)
(-1.08672 0.473606 0)
(-1.00211 0.670064 0)
(-0.878433 0.844215 0)
(-0.740484 0.967507 0)
(-0.60315 1.0388 0)
(-0.469548 1.07396 0)
(-0.335558 1.07961 0)
(-0.20761 1.04263 0)
(-0.102468 0.968944 0)
(-0.028952 0.886181 0)
(0.0201993 0.809819 0)
(0.0531736 0.743077 0)
(0.0752835 0.685484 0)
(0.0899419 0.635726 0)
(0.099368 0.59248 0)
(0.105019 0.554663 0)
(0.107878 0.521448 0)
(0.108635 0.492212 0)
(0.107791 0.466475 0)
(0.105722 0.443855 0)
(0.102712 0.424038 0)
(0.0989844 0.40676 0)
(0.0947085 0.39179 0)
(0.0900159 0.378934 0)
(0.0850064 0.368021 0)
(0.0797554 0.358909 0)
(0.074319 0.351477 0)
(0.0687389 0.345622 0)
(0.0630457 0.341261 0)
(0.0572614 0.338318 0)
(0.0514016 0.336729 0)
(0.0454774 0.336433 0)
(0.0394963 0.337366 0)
(0.0334639 0.339456 0)
(0.0273836 0.342602 0)
(0.0212604 0.34665 0)
(0.01514 0.351318 0)
(0.00905463 0.355839 0)
(0.00345087 0.354236 0)
(-1.03434 0.290694 0)
(-1.01978 0.436891 0)
(-0.965878 0.587259 0)
(-0.875595 0.723014 0)
(-0.761285 0.827624 0)
(-0.63702 0.8962 0)
(-0.510974 0.932842 0)
(-0.386204 0.94106 0)
(-0.269792 0.919344 0)
(-0.172464 0.873483 0)
(-0.0985087 0.817875 0)
(-0.0444826 0.761974 0)
(-0.00539973 0.709721 0)
(0.0227696 0.662295 0)
(0.0429979 0.619754 0)
(0.0573952 0.581726 0)
(0.0674379 0.547762 0)
(0.0741744 0.517449 0)
(0.0783654 0.490429 0)
(0.0805753 0.466403 0)
(0.0812321 0.445113 0)
(0.0806656 0.426332 0)
(0.0791327 0.409861 0)
(0.0768344 0.39552 0)
(0.0739282 0.383154 0)
(0.0705374 0.372625 0)
(0.0667585 0.363815 0)
(0.062667 0.356622 0)
(0.0583219 0.350961 0)
(0.0537694 0.346756 0)
(0.0490458 0.343942 0)
(0.0441797 0.342462 0)
(0.0391942 0.342258 0)
(0.034108 0.34327 0)
(0.0289372 0.345426 0)
(0.0236953 0.348627 0)
(0.018397 0.352716 0)
(0.0130915 0.357405 0)
(0.00781011 0.361905 0)
(0.00297881 0.360082 0)
(-0.920134 0.293873 0)
(-0.907265 0.407677 0)
(-0.866103 0.523044 0)
(-0.797491 0.628294 0)
(-0.707987 0.713177 0)
(-0.606815 0.773261 0)
(-0.501396 0.808993 0)
(-0.396976 0.821721 0)
(-0.299484 0.812609 0)
(-0.215348 0.78629 0)
(-0.147338 0.750469 0)
(-0.0942239 0.71117 0)
(-0.0533712 0.671837 0)
(-0.0221814 0.634199 0)
(0.00151828 0.599012 0)
(0.0194299 0.566546 0)
(0.0328405 0.536839 0)
(0.0427223 0.509825 0)
(0.0498126 0.485392 0)
(0.0546779 0.463411 0)
(0.0577585 0.443748 0)
(0.059401 0.426266 0)
(0.0598802 0.410835 0)
(0.0594152 0.397331 0)
(0.0581816 0.385638 0)
(0.0563198 0.375653 0)
(0.0539431 0.367286 0)
(0.0511423 0.360456 0)
(0.0479908 0.355093 0)
(0.0445481 0.351135 0)
(0.0408628 0.348527 0)
(0.0369749 0.347219 0)
(0.0329181 0.347158 0)
(0.0287212 0.348289 0)
(0.0244096 0.350541 0)
(0.0200061 0.353816 0)
(0.0155337 0.357957 0)
(0.0110443 0.36267 0)
(0.00656799 0.367146 0)
(0.00250798 0.365108 0)
(-0.815426 0.290803 0)
(-0.800855 0.380723 0)
(-0.766187 0.470709 0)
(-0.711958 0.553374 0)
(-0.641949 0.62226 0)
(-0.561867 0.673864 0)
(-0.477204 0.70741 0)
(-0.392684 0.723419 0)
(-0.312875 0.723206 0)
(-0.241813 0.70991 0)
(-0.181542 0.687972 0)
(-0.131953 0.661279 0)
(-0.0918542 0.632546 0)
(-0.0597604 0.603496 0)
(-0.0342494 0.575161 0)
(-0.0140918 0.54814 0)
(0.00172484 0.522768 0)
(0.0140176 0.49922 0)
(0.0234403 0.477579 0)
(0.0305177 0.457858 0)
(0.0356718 0.440033 0)
(0.0392438 0.42405 0)
(0.0415109 0.409845 0)
(0.042699 0.397345 0)
(0.0429928 0.386479 0)
(0.0425435 0.377177 0)
(0.0414754 0.369375 0)
(0.0398905 0.363015 0)
(0.0378732 0.358044 0)
(0.0354933 0.354414 0)
(0.0328093 0.352081 0)
(0.029871 0.351001 0)
(0.0267208 0.351129 0)
(0.0233963 0.352415 0)
(0.0199309 0.35479 0)
(0.0163554 0.358158 0)
(0.0127003 0.362361 0)
(0.00901894 0.3671 0)
(0.0053401 0.371551 0)
(0.0020426 0.369306 0)
(-0.728725 0.282763 0)
(-0.712923 0.355301 0)
(-0.682754 0.427115 0)
(-0.638683 0.493409 0)
(-0.583047 0.550019 0)
(-0.519445 0.594326 0)
(-0.451716 0.625306 0)
(-0.383463 0.643057 0)
(-0.318022 0.648555 0)
(-0.25814 0.643795 0)
(-0.205407 0.631451 0)
(-0.160206 0.614071 0)
(-0.122151 0.5937 0)
(-0.0904969 0.571842 0)
(-0.0643966 0.549557 0)
(-0.0430291 0.52757 0)
(-0.0256574 0.506371 0)
(-0.0116441 0.48628 0)
(-0.000447175 0.467499 0)
(0.00838964 0.450147 0)
(0.0152479 0.434286 0)
(0.0204471 0.419936 0)
(0.0242542 0.407089 0)
(0.0268921 0.395722 0)
(0.0285469 0.385803 0)
(0.0293738 0.377294 0)
(0.0295029 0.370159 0)
(0.0290429 0.364359 0)
(0.0280852 0.35986 0)
(0.0267074 0.356626 0)
(0.0249754 0.354626 0)
(0.0229462 0.353824 0)
(0.0206697 0.354182 0)
(0.0181902 0.355654 0)
(0.0155482 0.358176 0)
(0.012781 0.361652 0)
(0.00992517 0.365925 0)
(0.00703506 0.370694 0)
(0.00413766 0.375117 0)
(0.00158614 0.372673 0)
(-0.658883 0.271515 0)
(-0.64274 0.331259 0)
(-0.616179 0.389936 0)
(-0.579596 0.44433 0)
(-0.5345 0.491654 0)
(-0.483236 0.529999 0)
(-0.428447 0.558427 0)
(-0.372742 0.576829 0)
(-0.318522 0.585796 0)
(-0.267749 0.586572 0)
(-0.2217 0.580814 0)
(-0.180938 0.570228 0)
(-0.145493 0.556324 0)
(-0.115074 0.540338 0)
(-0.0892309 0.523236 0)
(-0.0674569 0.505749 0)
(-0.0492477 0.488415 0)
(-0.0341322 0.471625 0)
(-0.0216846 0.455653 0)
(-0.0115282 0.440685 0)
(-0.00333302 0.426843 0)
(0.00318756 0.414198 0)
(0.00827975 0.402792 0)
(0.0121548 0.392644 0)
(0.014993 0.383758 0)
(0.0169481 0.376125 0)
(0.018151 0.369733 0)
(0.018713 0.364564 0)
(0.0187293 0.360599 0)
(0.018282 0.357818 0)
(0.0174422 0.356199 0)
(0.0162719 0.355716 0)
(0.0148265 0.356337 0)
(0.0131557 0.358022 0)
(0.0113054 0.36071 0)
(0.00931808 0.364307 0)
(0.00723536 0.368658 0)
(0.00511143 0.373458 0)
(0.00297098 0.377852 0)
(0.0011415 0.375214 0)
(-0.602351 0.258561 0)
(-0.58651 0.308718 0)
(-0.562968 0.3577 0)
(-0.532049 0.403285 0)
(-0.494763 0.443548 0)
(-0.45268 0.477092 0)
(-0.407632 0.503137 0)
(-0.361483 0.521482 0)
(-0.315969 0.532441 0)
(-0.272538 0.536774 0)
(-0.232226 0.535539 0)
(-0.195627 0.529894 0)
(-0.162972 0.520952 0)
(-0.134229 0.509696 0)
(-0.109206 0.496955 0)
(-0.0876199 0.483398 0)
(-0.0691469 0.469555 0)
(-0.0534557 0.455831 0)
(-0.0402252 0.442531 0)
(-0.029155 0.429878 0)
(-0.0199706 0.418034 0)
(-0.0124251 0.407109 0)
(-0.0062994 0.397183 0)
(-0.00140011 0.388304 0)
(0.00244191 0.380504 0)
(0.00537323 0.373802 0)
(0.00752083 0.368206 0)
(0.00899513 0.363718 0)
(0.00989222 0.360335 0)
(0.0102961 0.358049 0)
(0.0102806 0.356848 0)
(0.009911 0.356715 0)
(0.00924633 0.357626 0)
(0.00834019 0.359544 0)
(0.00724221 0.362414 0)
(0.00599897 0.366143 0)
(0.00465585 0.370577 0)
(0.0032659 0.375409 0)
(0.00184907 0.379773 0)
(0.000710915 0.376943 0)
(-0.555626 0.2449 0)
(-0.540452 0.287738 0)
(-0.519463 0.329402 0)
(-0.49292 0.368322 0)
(-0.461517 0.403127 0)
(-0.426336 0.432785 0)
(-0.388666 0.456664 0)
(-0.349846 0.474535 0)
(-0.311147 0.486539 0)
(-0.273664 0.493137 0)
(-0.238237 0.495016 0)
(-0.205427 0.492976 0)
(-0.175545 0.487836 0)
(-0.1487 0.480367 0)
(-0.124855 0.471252 0)
(-0.103879 0.461076 0)
(-0.0855809 0.450324 0)
(-0.0697388 0.439384 0)
(-0.0561196 0.428566 0)
(-0.0444917 0.418107 0)
(-0.0346335 0.408189 0)
(-0.0263383 0.39895 0)
(-0.0194168 0.390493 0)
(-0.013698 0.382892 0)
(-0.00902879 0.376201 0)
(-0.00527358 0.370459 0)
(-0.00231208 0.365693 0)
(-3.78588e-05 0.36192 0)
(0.00164315 0.35915 0)
(0.00281427 0.357387 0)
(0.00354994 0.35663 0)
(0.00391717 0.35687 0)
(0.00397685 0.35809 0)
(0.00378501 0.360257 0)
(0.00339384 0.363319 0)
(0.00285265 0.367187 0)
(0.00220942 0.371707 0)
(0.00151582 0.376572 0)
(0.00077883 0.380908 0)
(0.000292904 0.377877 0)
(-0.515927 0.23114 0)
(-0.501587 0.268282 0)
(-0.482767 0.304304 0)
(-0.459674 0.338067 0)
(-0.432796 0.368574 0)
(-0.402902 0.39505 0)
(-0.370914 0.41699 0)
(-0.33781 0.434168 0)
(-0.304535 0.446628 0)
(-0.271929 0.454648 0)
(-0.240674 0.45868 0)
(-0.211273 0.459285 0)
(-0.184053 0.457067 0)
(-0.159188 0.452619 0)
(-0.136734 0.446498 0)
(-0.116655 0.439195 0)
(-0.0988519 0.431138 0)
(-0.0831862 0.422684 0)
(-0.0694953 0.414126 0)
(-0.0576065 0.405702 0)
(-0.0473461 0.397603 0)
(-0.0385457 0.38998 0)
(-0.0310463 0.38295 0)
(-0.0247001 0.376605 0)
(-0.0193721 0.371016 0)
(-0.0149399 0.366238 0)
(-0.0112927 0.362311 0)
(-0.00833084 0.359267 0)
(-0.00596457 0.357127 0)
(-0.00411296 0.355905 0)
(-0.00270258 0.355609 0)
(-0.00166648 0.356237 0)
(-0.00094314 0.357776 0)
(-0.000475536 0.360201 0)
(-0.00021014 0.363462 0)
(-9.61847e-05 0.367474 0)
(-8.44905e-05 0.372082 0)
(-0.00012225 0.376981 0)
(-0.000236186 0.381296 0)
(-0.000123811 0.378047 0)
(-0.481255 0.217627 0)
(-0.467802 0.250259 0)
(-0.450835 0.281841 0)
(-0.430518 0.311535 0)
(-0.407204 0.338598 0)
(-0.381451 0.362442 0)
(-0.353936 0.382664 0)
(-0.325384 0.399061 0)
(-0.296507 0.411624 0)
(-0.267959 0.420519 0)
(-0.240294 0.426046 0)
(-0.213947 0.428602 0)
(-0.18923 0.428632 0)
(-0.166342 0.426593 0)
(-0.145384 0.422928 0)
(-0.126381 0.418046 0)
(-0.109294 0.412312 0)
(-0.0940454 0.406044 0)
(-0.0805274 0.399514 0)
(-0.0686159 0.392947 0)
(-0.0581787 0.386535 0)
(-0.0490823 0.38043 0)
(-0.0411963 0.37476 0)
(-0.0343962 0.369626 0)
(-0.0285655 0.36511 0)
(-0.0235957 0.361279 0)
(-0.019387 0.358184 0)
(-0.0158477 0.355866 0)
(-0.0128939 0.354358 0)
(-0.0104487 0.353682 0)
(-0.00844128 0.353852 0)
(-0.00680616 0.354872 0)
(-0.00548263 0.356737 0)
(-0.0044138 0.359423 0)
(-0.00354587 0.362886 0)
(-0.00282735 0.367041 0)
(-0.00220886 0.371739 0)
(-0.00164459 0.376682 0)
(-0.0011854 0.381046 0)
(-0.000508075 0.377396 0)
(-0.450256 0.20454 0)
(-0.437685 0.233546 0)
(-0.422316 0.26158 0)
(-0.404279 0.288011 0)
(-0.383838 0.312278 0)
(-0.361408 0.33393 0)
(-0.337494 0.352648 0)
(-0.312642 0.368255 0)
(-0.287397 0.380717 0)
(-0.262273 0.39013 0)
(-0.237717 0.396696 0)
(-0.214101 0.400696 0)
(-0.191707 0.402459 0)
(-0.170734 0.402336 0)
(-0.151303 0.400678 0)
(-0.133471 0.397819 0)
(-0.117242 0.394069 0)
(-0.102578 0.389705 0)
(-0.089414 0.38497 0)
(-0.0776645 0.380075 0)
(-0.0672321 0.375203 0)
(-0.0580139 0.370504 0)
(-0.0499054 0.366107 0)
(-0.042804 0.36212 0)
(-0.0366106 0.358631 0)
(-0.0312312 0.355714 0)
(-0.0265773 0.353428 0)
(-0.0225659 0.351823 0)
(-0.01912 0.350937 0)
(-0.0161675 0.3508 0)
(-0.0136413 0.351433 0)
(-0.0114786 0.352844 0)
(-0.00962048 0.355033 0)
(-0.00801127 0.357979 0)
(-0.00659787 0.361641 0)
(-0.00532919 0.365938 0)
(-0.00415677 0.370724 0)
(-0.00304167 0.375713 0)
(-0.00204634 0.380154 0)
(-0.000848868 0.37603 0)
(-0.422039 0.19197 0)
(-0.410321 0.218029 0)
(-0.396345 0.243191 0)
(-0.380222 0.266974 0)
(-0.362149 0.28895 0)
(-0.342444 0.308771 0)
(-0.32149 0.326181 0)
(-0.299702 0.341033 0)
(-0.277504 0.353281 0)
(-0.2553 0.362979 0)
(-0.233453 0.370262 0)
(-0.212276 0.375332 0)
(-0.192015 0.378431 0)
(-0.172858 0.37983 0)
(-0.154931 0.379805 0)
(-0.138306 0.378629 0)
(-0.123012 0.376561 0)
(-0.109041 0.373838 0)
(-0.0963593 0.370678 0)
(-0.0849102 0.367272 0)
(-0.0746253 0.363789 0)
(-0.0654271 0.360375 0)
(-0.0572338 0.357155 0)
(-0.0499622 0.354239 0)
(-0.0435297 0.351718 0)
(-0.037856 0.349669 0)
(-0.0328635 0.348157 0)
(-0.0284785 0.347238 0)
(-0.024631 0.346955 0)
(-0.0212545 0.347343 0)
(-0.0182865 0.348426 0)
(-0.0156675 0.35022 0)
(-0.0133411 0.352725 0)
(-0.0112537 0.355925 0)
(-0.00935373 0.359781 0)
(-0.0075913 0.364215 0)
(-0.00591951 0.369086 0)
(-0.004305 0.374123 0)
(-0.0028142 0.378636 0)
(-0.00114737 0.37403 0)
(-0.396014 0.179975 0)
(-0.385112 0.203615 0)
(-0.372371 0.226429 0)
(-0.357884 0.248044 0)
(-0.341805 0.268129 0)
(-0.324378 0.286413 0)
(-0.305899 0.302692 0)
(-0.286688 0.316844 0)
(-0.267076 0.32882 0)
(-0.247383 0.338649 0)
(-0.227906 0.346421 0)
(-0.208901 0.35228 0)
(-0.190585 0.356409 0)
(-0.173124 0.359014 0)
(-0.156641 0.360315 0)
(-0.141216 0.360532 0)
(-0.126891 0.359882 0)
(-0.113677 0.358567 0)
(-0.101563 0.356777 0)
(-0.0905147 0.354684 0)
(-0.0804861 0.352442 0)
(-0.0714208 0.350188 0)
(-0.0632559 0.348043 0)
(-0.0559251 0.346114 0)
(-0.0493606 0.344492 0)
(-0.0434944 0.343257 0)
(-0.0382597 0.342477 0)
(-0.0335915 0.342208 0)
(-0.0294271 0.3425 0)
(-0.0257059 0.343391 0)
(-0.0223702 0.344908 0)
(-0.0193645 0.347069 0)
(-0.0166356 0.349878 0)
(-0.0141323 0.353322 0)
(-0.0118051 0.357363 0)
(-0.00960623 0.361927 0)
(-0.00749063 0.366878 0)
(-0.00542999 0.371958 0)
(-0.00348926 0.376528 0)
(-0.00140448 0.371467 0)
(-0.371776 0.168596 0)
(-0.361654 0.190234 0)
(-0.350022 0.21111 0)
(-0.33696 0.230933 0)
(-0.322589 0.249445 0)
(-0.307099 0.266432 0)
(-0.29072 0.281733 0)
(-0.273702 0.295246 0)
(-0.256306 0.306926 0)
(-0.238788 0.316783 0)
(-0.221386 0.324881 0)
(-0.204316 0.331321 0)
(-0.18776 0.336242 0)
(-0.171867 0.339804 0)
(-0.15675 0.342179 0)
(-0.142489 0.343547 0)
(-0.129133 0.344087 0)
(-0.116708 0.343972 0)
(-0.105214 0.343366 0)
(-0.0946362 0.342421 0)
(-0.0849448 0.341277 0)
(-0.0761002 0.340061 0)
(-0.068055 0.338888 0)
(-0.0607574 0.337859 0)
(-0.054152 0.337064 0)
(-0.0481822 0.336583 0)
(-0.042791 0.336484 0)
(-0.0379216 0.336826 0)
(-0.0335183 0.337659 0)
(-0.0295266 0.339024 0)
(-0.0258938 0.340951 0)
(-0.0225685 0.34346 0)
(-0.019501 0.346557 0)
(-0.0166432 0.350231 0)
(-0.0139481 0.354446 0)
(-0.0113702 0.35913 0)
(-0.00886686 0.364153 0)
(-0.00641446 0.369271 0)
(-0.00407351 0.373881 0)
(-0.00162335 0.368405 0)
(-0.349033 0.15786 0)
(-0.339659 0.177824 0)
(-0.329036 0.197085 0)
(-0.317234 0.215413 0)
(-0.304347 0.232605 0)
(-0.290525 0.248492 0)
(-0.275948 0.262947 0)
(-0.260815 0.275883 0)
(-0.245333 0.287261 0)
(-0.229706 0.297082 0)
(-0.214129 0.305388 0)
(-0.19878 0.312254 0)
(-0.183813 0.317784 0)
(-0.169358 0.322102 0)
(-0.155517 0.325346 0)
(-0.142368 0.327662 0)
(-0.129963 0.329198 0)
(-0.118332 0.330101 0)
(-0.107488 0.330511 0)
(-0.0974257 0.330564 0)
(-0.0881295 0.330386 0)
(-0.0795722 0.330092 0)
(-0.0717192 0.329789 0)
(-0.06453 0.329573 0)
(-0.0579605 0.32953 0)
(-0.0519636 0.32974 0)
(-0.0464911 0.330268 0)
(-0.0414939 0.331175 0)
(-0.0369228 0.332512 0)
(-0.0327294 0.334319 0)
(-0.0288656 0.336629 0)
(-0.0252846 0.339463 0)
(-0.0219403 0.342828 0)
(-0.0187877 0.346715 0)
(-0.0157828 0.35109 0)
(-0.0128828 0.355884 0)
(-0.0100476 0.36097 0)
(-0.00725814 0.366116 0)
(-0.00456899 0.37075 0)
(-0.00180641 0.364905 0)
(-0.327566 0.147773 0)
(-0.31891 0.166325 0)
(-0.309214 0.184227 0)
(-0.298537 0.201297 0)
(-0.286952 0.217374 0)
(-0.274581 0.232324 0)
(-0.261566 0.246044 0)
(-0.248067 0.258464 0)
(-0.234248 0.269547 0)
(-0.220275 0.27929 0)
(-0.206306 0.287722 0)
(-0.192489 0.294897 0)
(-0.178954 0.300894 0)
(-0.165813 0.30581 0)
(-0.153159 0.309756 0)
(-0.141061 0.31285 0)
(-0.129573 0.315216 0)
(-0.118727 0.316978 0)
(-0.108543 0.318258 0)
(-0.0990242 0.319173 0)
(-0.090163 0.319837 0)
(-0.0819423 0.320355 0)
(-0.0743374 0.320824 0)
(-0.0673175 0.321336 0)
(-0.0608474 0.321973 0)
(-0.0548884 0.322809 0)
(-0.0494 0.32391 0)
(-0.0443399 0.325335 0)
(-0.0396653 0.327134 0)
(-0.035333 0.329349 0)
(-0.0313 0.332012 0)
(-0.0275234 0.335144 0)
(-0.0239611 0.338755 0)
(-0.0205712 0.342837 0)
(-0.0173131 0.347356 0)
(-0.0141467 0.352247 0)
(-0.0110346 0.357386 0)
(-0.00796209 0.362551 0)
(-0.00497714 0.367192 0)
(-0.00195374 0.361031 0)
(-0.307202 0.138327 0)
(-0.299233 0.155677 0)
(-0.29039 0.172427 0)
(-0.280724 0.188431 0)
(-0.270293 0.203561 0)
(-0.259195 0.217708 0)
(-0.247546 0.230791 0)
(-0.235473 0.24275 0)
(-0.22311 0.253553 0)
(-0.21059 0.263194 0)
(-0.198044 0.271692 0)
(-0.185595 0.279087 0)
(-0.173351 0.28544 0)
(-0.16141 0.290828 0)
(-0.149852 0.295339 0)
(-0.138742 0.299071 0)
(-0.12813 0.302126 0)
(-0.118051 0.304611 0)
(-0.108525 0.30663 0)
(-0.0995618 0.308287 0)
(-0.0911608 0.309681 0)
(-0.0833118 0.31091 0)
(-0.0759976 0.312061 0)
(-0.069195 0.31322 0)
(-0.0628763 0.314464 0)
(-0.05701 0.315863 0)
(-0.051562 0.317482 0)
(-0.0464962 0.319376 0)
(-0.0417754 0.321595 0)
(-0.0373615 0.324181 0)
(-0.033216 0.327164 0)
(-0.0293001 0.330569 0)
(-0.0255753 0.334402 0)
(-0.0220032 0.338658 0)
(-0.0185462 0.343305 0)
(-0.0151673 0.348278 0)
(-0.0118318 0.35346 0)
(-0.00852904 0.358634 0)
(-0.00530038 0.363266 0)
(-0.00206573 0.356847 0)
(-0.287793 0.129509 0)
(-0.280479 0.14583 0)
(-0.272425 0.161598 0)
(-0.263672 0.176694 0)
(-0.254271 0.191015 0)
(-0.244299 0.204473 0)
(-0.233853 0.217001 0)
(-0.223035 0.228549 0)
(-0.211954 0.239088 0)
(-0.200719 0.248612 0)
(-0.189439 0.257133 0)
(-0.178214 0.264681 0)
(-0.167137 0.271303 0)
(-0.15629 0.27706 0)
(-0.145745 0.282025 0)
(-0.13556 0.286277 0)
(-0.12578 0.289904 0)
(-0.116439 0.292994 0)
(-0.107561 0.295639 0)
(-0.0991566 0.29793 0)
(-0.09123 0.299956 0)
(-0.0837764 0.301803 0)
(-0.0767843 0.303552 0)
(-0.0702366 0.305282 0)
(-0.0641115 0.307064 0)
(-0.0583835 0.308966 0)
(-0.053024 0.311047 0)
(-0.0480024 0.313363 0)
(-0.0432865 0.31596 0)
(-0.0388426 0.318879 0)
(-0.0346366 0.322151 0)
(-0.0306335 0.325798 0)
(-0.0267983 0.32983 0)
(-0.023096 0.334239 0)
(-0.0194922 0.338996 0)
(-0.0159526 0.344037 0)
(-0.0124454 0.349249 0)
(-0.0089638 0.354422 0)
(-0.00554302 0.359031 0)
(-0.00214523 0.352415 0)
(-0.269217 0.121311 0)
(-0.262523 0.136746 0)
(-0.255196 0.15167 0)
(-0.247273 0.165989 0)
(-0.238796 0.179615 0)
(-0.229828 0.192478 0)
(-0.22045 0.204519 0)
(-0.210745 0.215699 0)
(-0.200802 0.225992 0)
(-0.190711 0.235391 0)
(-0.180562 0.243902 0)
(-0.170438 0.25155 0)
(-0.160418 0.258373 0)
(-0.150572 0.264418 0)
(-0.140962 0.269745 0)
(-0.13164 0.27442 0)
(-0.122646 0.278518 0)
(-0.114014 0.282114 0)
(-0.105766 0.285289 0)
(-0.0979154 0.28812 0)
(-0.0904691 0.290688 0)
(-0.0834258 0.29307 0)
(-0.0767784 0.29534 0)
(-0.0705142 0.29757 0)
(-0.0646165 0.299826 0)
(-0.0590645 0.302172 0)
(-0.0538344 0.304663 0)
(-0.0489004 0.307353 0)
(-0.0442344 0.310286 0)
(-0.039807 0.313502 0)
(-0.0355878 0.31703 0)
(-0.0315455 0.320892 0)
(-0.0276485 0.325097 0)
(-0.023865 0.329638 0)
(-0.0201636 0.334487 0)
(-0.0165128 0.339583 0)
(-0.0128837 0.344813 0)
(-0.00927281 0.349974 0)
(-0.00571034 0.354549 0)
(-0.00219625 0.347793 0)
(-0.251363 0.113722 0)
(-0.245253 0.12839 0)
(-0.2386 0.142588 0)
(-0.231435 0.156235 0)
(-0.223793 0.169261 0)
(-0.215728 0.181603 0)
(-0.207305 0.193217 0)
(-0.198595 0.204065 0)
(-0.189669 0.214127 0)
(-0.180603 0.223395 0)
(-0.17147 0.231874 0)
(-0.162341 0.239583 0)
(-0.153282 0.246551 0)
(-0.144352 0.252817 0)
(-0.135605 0.258432 0)
(-0.127087 0.263451 0)
(-0.118835 0.267937 0)
(-0.110879 0.271954 0)