/*--------------------------------*- C++ -*----------------------------------*\
  =========                 |
  \\      /  F ield         | OpenFOAM: The Open Source CFD Toolbox
   \\    /   O peration     | Website:  https://openfoam.org
    \\  /    A nd           | Version:  9
     \\/     M anipulation  |
\*---------------------------------------------------------------------------*/
FoamFile
{
    format      ascii;
    class       volScalarField;
    location    "0.06";
    object      p;
}
// * * * * * * * * * * * * * * * * * * * * * * * * * * * * * * * * * * * * * //

dimensions      [0 2 -2 0 0 0 0];

internalField   nonuniform List<scalar> 
12225
(
-1.33828
-3.62135
-4.78396
-5.0923
-5.26081
-5.42081
-5.54574
-5.63456
-5.70462
-5.76612
-5.82081
-5.86845
-5.90924
-5.94221
-5.96655
-5.96924
-5.9834
-5.93946
-4.8058
-5.50798
-5.59834
-5.46343
-5.4236
-5.49119
-5.5723
-5.63857
-5.69606
-5.74998
-5.80008
-5.84518
-5.88491
-5.91823
-5.94547
-5.95766
-5.98872
-5.99083
-5.01054
-4.90766
-5.06457
-5.18687
-5.29446
-5.41707
-5.52574
-5.60884
-5.67654
-5.73695
-5.79172
-5.84058
-5.88368
-5.92068
-5.95274
-5.97594
-6.01715
-6.0534
-4.87324
-4.79516
-5.07135
-5.25025
-5.34493
-5.44238
-5.53788
-5.61588
-5.68101
-5.73982
-5.7938
-5.84258
-5.88631
-5.92521
-5.96093
-5.99338
-6.04099
-6.09641
-4.88019
-4.89749
-5.13769
-5.28776
-5.36402
-5.44904
-5.53904
-5.61557
-5.68008
-5.73846
-5.79237
-5.84164
-5.8866
-5.92793
-5.96763
-6.0075
-6.05944
-6.12217
-4.94186
-4.98436
-5.16226
-5.29314
-5.37136
-5.4542
-5.54089
-5.6162
-5.68038
-5.73853
-5.79251
-5.84236
-5.88858
-5.93216
-5.9752
-6.02013
-6.07454
-6.13954
-5.00158
-5.04113
-5.17763
-5.29998
-5.38259
-5.46261
-5.54466
-5.61798
-5.68161
-5.73948
-5.79345
-5.84382
-5.89116
-5.93663
-5.98223
-6.03035
-6.08583
-6.15004
-5.05471
-5.08962
-5.20001
-5.31277
-5.39554
-5.47173
-5.54904
-5.62017
-5.68313
-5.74066
-5.79458
-5.84537
-5.89367
-5.94064
-5.98803
-6.03789
-6.09321
-6.15479
-5.10447
-5.13621
-5.22708
-5.32801
-5.40828
-5.48102
-5.55412
-5.62292
-5.68498
-5.74206
-5.79582
-5.84689
-5.89589
-5.94389
-5.99234
-6.04277
-6.09698
-6.15516
-5.15179
-5.18042
-5.25566
-5.34468
-5.42125
-5.4909
-5.56016
-5.62639
-5.68728
-5.74375
-5.79721
-5.84835
-5.89775
-5.9463
-5.99511
-6.04527
-6.09774
-6.1523
-5.19652
-5.2218
-5.28466
-5.36283
-5.43488
-5.50141
-5.56706
-5.63061
-5.69007
-5.74576
-5.79876
-5.84973
-5.89919
-5.94782
-5.99644
-6.04571
-6.09611
-6.14717
-5.23499
-5.2573
-5.31119
-5.38055
-5.44796
-5.51146
-5.57402
-5.63508
-5.69303
-5.74784
-5.80023
-5.85081
-5.9
-5.94831
-5.99632
-6.04441
-6.09278
-6.1409
-5.27064
-5.29039
-5.33696
-5.39857
-5.46127
-5.52169
-5.58132
-5.63995
-5.6963
-5.75007
-5.80172
-5.85172
-5.9004
-5.94813
-5.99526
-6.04198
-6.08833
-6.13377
-5.30811
-5.32536
-5.36518
-5.41924
-5.4767
-5.53355
-5.59004
-5.64598
-5.70041
-5.75286
-5.80351
-5.85265
-5.90052
-5.94732
-5.99322
-6.03826
-6.0824
-6.12511
-5.34615
-5.36101
-5.39488
-5.44195
-5.49395
-5.54685
-5.60001
-5.65309
-5.7053
-5.7561
-5.80543
-5.85338
-5.90007
-5.94557
-5.98991
-6.03303
-6.07483
-6.1149
-5.38282
-5.39554
-5.42442
-5.46538
-5.51211
-5.56094
-5.6107
-5.66084
-5.71063
-5.75949
-5.80717
-5.8536
-5.89877
-5.94264
-5.98514
-6.02619
-6.06568
-6.1033
-5.41524
-5.42622
-5.45121
-5.48725
-5.52939
-5.57444
-5.62099
-5.66829
-5.71564
-5.7624
-5.80822
-5.85288
-5.89628
-5.93831
-5.97885
-6.01782
-6.05513
-6.09057
-5.43903
-5.44882
-5.4712
-5.50389
-5.54274
-5.58489
-5.62887
-5.67384
-5.71904
-5.76386
-5.80784
-5.85073
-5.89233
-5.93252
-5.97118
-6.00823
-6.0436
-6.07718
-5.44725
-5.4566
-5.47805
-5.50957
-5.54723
-5.58819
-5.63096
-5.67467
-5.7186
-5.76211
-5.80474
-5.84621
-5.88633
-5.92498
-5.96208
-5.99755
-6.03138
-6.06352
-5.43211
-5.44217
-5.46512
-5.49873
-5.53847
-5.58099
-5.62477
-5.66911
-5.71338
-5.75695
-5.79938
-5.84042
-5.87996
-5.9179
-5.95419
-5.98881
-6.02177
-6.05307
-5.40579
-5.41698
-5.44273
-5.48041
-5.5241
-5.56956
-5.61548
-5.66153
-5.70709
-5.75145
-5.79426
-5.83543
-5.87492
-5.91266
-5.94863
-5.98287
-6.01541
-6.04629
-5.37075
-5.38312
-5.41312
-5.45753
-5.50695
-5.55596
-5.60455
-5.65307
-5.70057
-5.74617
-5.78969
-5.83126
-5.87093
-5.90868
-5.94454
-5.97858
-6.01087
-6.04149
-5.33006
-5.34266
-5.37798
-5.4325
-5.48953
-5.5424
-5.59381
-5.64501
-5.69455
-5.74146
-5.78584
-5.82798
-5.86797
-5.90585
-5.9417
-5.97565
-6.00782
-6.0383
-5.28617
-5.29773
-5.34006
-5.4066
-5.47119
-5.52869
-5.58442
-5.63889
-5.69016
-5.73794
-5.78296
-5.82558
-5.86584
-5.9038
-5.93963
-5.9735
-6.00555
-6.0359
-5.23927
-5.24703
-5.30801
-5.38772
-5.45274
-5.51225
-5.57396
-5.63331
-5.6868
-5.73555
-5.78125
-5.82434
-5.86481
-5.9028
-5.93856
-5.97232
-6.00425
-6.03453
-5.19129
-5.16764
-5.27837
-5.38721
-5.44766
-5.50159
-5.56481
-5.62693
-5.68193
-5.73161
-5.77812
-5.8218
-5.86259
-5.90072
-5.93652
-5.97027
-6.00217
-6.03238
-5.18196
-5.03763
-5.1966
-5.3627
-5.44705
-5.50788
-5.57246
-5.63335
-5.68679
-5.73558
-5.7816
-5.82484
-5.86517
-5.90285
-5.93823
-5.97158
-6.00316
-6.03317
-5.32735
-5.04352
-5.07818
-5.20853
-5.32796
-5.43478
-5.5286
-5.60409
-5.66601
-5.72088
-5.77121
-5.81734
-5.85962
-5.89867
-5.93501
-5.96903
-6.00124
-6.03229
-5.26415
-5.7638
-5.77384
-5.61448
-5.53337
-5.55736
-5.61124
-5.66036
-5.70513
-5.74931
-5.79253
-5.83349
-5.87183
-5.90776
-5.94148
-5.97308
-6.00283
-6.03259
-1.92548
-3.796
-4.86718
-5.16012
-5.2948
-5.43134
-5.543
-5.6227
-5.68531
-5.74094
-5.79181
-5.838
-5.88008
-5.91879
-5.95454
-5.98736
-6.01691
-6.04139
-7.36445
-7.34211
-7.32836
-7.33449
-7.34372
-7.35143
-7.36479
-7.38215
-7.40223
-7.4228
-7.44003
-7.45154
-7.45562
-7.45528
-7.44128
-7.41542
-7.3917
-7.3751
-7.35433
-7.3276
-7.31218
-7.29494
-7.27271
-7.26272
-7.26283
-7.26712
-7.27632
-7.29133
-7.31355
-7.34486
-7.3871
-7.44171
-7.50927
-7.58928
-7.68018
-7.77951
-7.88427
-7.99129
-8.09757
-8.20048
-8.29794
-8.3884
-8.47088
-8.54482
-8.61003
-8.66658
-8.71473
-8.75484
-8.7873
-8.81256
-8.831
-8.84302
-8.84895
-8.84908
-8.84367
-8.83293
-8.81702
-8.79609
-8.77022
-8.73951
-8.70399
-8.66369
-8.61863
-8.56879
-8.51416
-8.45473
-8.39045
-8.32129
-8.24722
-8.1682
-8.08421
-7.99522
-7.90121
-7.80218
-7.69813
-7.58908
-7.47507
-7.35616
-7.23242
-7.10396
-6.97094
-6.83352
-6.69182
-6.54571
-6.39551
-6.24152
-6.08397
-5.92312
-5.75926
-5.59265
-5.42359
-5.25237
-5.07928
-4.90464
-4.72875
-4.5519
-4.37437
-4.19645
-4.0184
-3.84044
-3.66279
-3.48561
-3.30906
-3.13323
-2.95818
-2.78391
-2.61039
-2.43752
-2.26516
-2.09307
-1.92096
-1.74846
-1.57511
-1.40038
-1.22366
-1.04424
-0.861344
-0.674091
-0.481517
-0.282572
-0.0761158
0.139075
0.364304
0.60095
0.850461
1.11434
1.39414
1.69143
2.00782
2.34489
2.7042
3.08724
3.4954
3.92993
4.39191
4.88217
5.40124
5.9493
6.5261
7.1309
7.76235
8.41847
9.09652
9.79296
10.5033
11.2221
11.9429
12.6582
13.361
14.0434
14.6969
15.3121
15.8803
16.3934
16.8447
17.2286
17.5416
17.7821
17.9509
18.0508
18.0867
18.0653
17.9946
17.8837
17.7423
17.5803
17.4071
17.232
17.0634
16.9095
16.7789
16.6752
16.591
16.5329
16.5094
16.5274
16.5964
16.7252
16.9496
17.2239
-7.39286
-7.37732
-7.37349
-7.38324
-7.39892
-7.41593
-7.43289
-7.45035
-7.46776
-7.4829
-7.49376
-7.49865
-7.49515
-7.4808
-7.4637
-7.4372
-7.3972
-7.35559
-7.31862
-7.28506
-7.2541
-7.2316
-7.21408
-7.20179
-7.19487
-7.19192
-7.19422
-7.20319
-7.22121
-7.25106
-7.29532
-7.3556
-7.432
-7.52296
-7.62561
-7.73622
-7.85084
-7.96575
-8.07774
-8.18435
-8.28378
-8.37492
-8.45717
-8.53035
-8.59453
-8.65001
-8.69717
-8.73644
-8.76827
-8.7931
-8.81132
-8.82329
-8.82934
-8.82973
-8.82469
-8.81443
-8.79909
-8.77879
-8.75363
-8.72368
-8.68897
-8.64952
-8.60535
-8.55644
-8.50277
-8.44432
-8.38105
-8.31293
-8.23991
-8.16196
-8.07904
-7.99113
-7.8982
-7.80025
-7.69727
-7.58927
-7.47629
-7.35838
-7.23561
-7.10799
-6.9757
-6.83885
-6.69744
-6.55193
-6.40239
-6.249
-6.09201
-5.93165
-5.76819
-5.60191
-5.43309
-5.26203
-5.08903
-4.9144
-4.73845
-4.56147
-4.38378
-4.20564
-4.02733
-3.8491
-3.67117
-3.49373
-3.31693
-3.14089
-2.96565
-2.79126
-2.61768
-2.44487
-2.27269
-2.10094
-1.92934
-1.75753
-1.58509
-1.41151
-1.23619
-1.05846
-0.877539
-0.692582
-0.502641
-0.306682
-0.103583
0.107862
0.328943
0.561025
0.80554
1.06398
1.33789
1.62883
1.9384
2.26818
2.61972
2.99452
3.39397
3.81935
4.27174
4.75199
5.26069
5.79806
6.36391
6.95757
7.57781
8.22276
8.88985
9.57574
10.2762
10.9863
11.6999
12.41
13.1082
13.7862
14.4365
15.0504
15.6193
16.1355
16.5919
16.9833
17.3058
17.5579
17.7398
17.8542
17.9057
17.9004
17.8462
17.7518
17.6264
17.4796
17.3209
17.1591
17.0024
16.8586
16.7328
16.6277
16.5487
16.4982
16.4805
16.5005
16.5667
16.6844
16.8834
17.1136
-7.43085
-7.41479
-7.41129
-7.4227
-7.44131
-7.46204
-7.48217
-7.50031
-7.51546
-7.52646
-7.53226
-7.5319
-7.52452
-7.50956
-7.48725
-7.45659
-7.41881
-7.37682
-7.3337
-7.29096
-7.2532
-7.22109
-7.19534
-7.17731
-7.166
-7.1617
-7.16606
-7.18118
-7.20931
-7.25212
-7.31024
-7.38303
-7.46871
-7.56464
-7.66772
-7.77482
-7.88296
-7.98958
-8.09258
-8.19033
-8.28167
-8.3658
-8.44227
-8.51088
-8.57163
-8.62464
-8.67015
-8.70844
-8.73981
-8.76457
-8.78304
-8.79549
-8.80218
-8.80335
-8.79919
-8.78987
-8.77552
-8.75626
-8.73216
-8.70329
-8.66969
-8.63137
-8.58834
-8.54059
-8.4881
-8.43084
-8.36878
-8.30187
-8.23008
-8.15336
-8.07168
-7.98502
-7.89333
-7.79661
-7.69486
-7.58807
-7.47626
-7.35947
-7.23775
-7.1113
-6.98012
-6.84431
-6.70401
-6.55943
-6.41072
-6.2581
-6.10179
-5.94203
-5.77908
-5.61323
-5.44475
-5.27395
-5.10112
-4.92659
-4.75066
-4.57364
-4.39584
-4.21755
-4.03906
-3.86062
-3.68247
-3.50482
-3.32783
-3.15163
-2.97632
-2.80192
-2.62845
-2.45586
-2.28406
-2.11286
-1.94201
-1.77119
-1.59999
-1.42793
-1.25443
-1.07884
-0.900411
-0.718313
-0.531623
-0.339325
-0.140318
0.0665861
0.28266
0.509252
0.747783
0.999731
1.26663
1.55004
1.85154
2.17271
2.51512
2.88026
3.26954
3.68424
4.12547
4.59413
5.09084
5.61588
6.16913
6.75001
7.3574
7.98955
8.64407
9.31777
10.0067
10.7059
11.4094
12.1106
12.8022
13.4766
14.1255
14.7404
15.3128
15.8348
16.2995
16.7014
17.0366
17.303
17.501
17.6325
17.7019
17.7149
17.679
17.6025
17.4945
17.3643
17.221
17.0732
16.9291
16.7959
16.6792
16.5825
16.5095
16.4629
16.4468
16.465
16.5236
16.624
16.7822
16.9405
-7.48174
-7.47374
-7.47343
-7.48314
-7.49832
-7.51516
-7.53147
-7.5458
-7.55699
-7.56397
-7.56582
-7.56174
-7.55109
-7.53344
-7.50865
-7.47695
-7.43937
-7.39772
-7.35439
-7.31193
-7.27366
-7.24163
-7.21712
-7.20096
-7.19347
-7.1956
-7.20875
-7.23434
-7.2734
-7.32608
-7.39158
-7.46833
-7.5542
-7.64681
-7.74374
-7.84268
-7.94152
-8.03845
-8.13192
-8.22073
-8.30394
-8.38091
-8.45121
-8.51463
-8.57109
-8.62064
-8.66342
-8.6996
-8.7294
-8.75305
-8.77078
-8.78281
-8.78935
-8.79057
-8.78664
-8.77769
-8.76384
-8.74516
-8.72173
-8.69358
-8.66076
-8.62327
-8.58109
-8.53423
-8.48264
-8.4263
-8.36516
-8.29919
-8.22834
-8.15256
-8.07182
-7.98607
-7.89529
-7.79945
-7.69856
-7.5926
-7.4816
-7.36561
-7.24468
-7.11891
-6.98837
-6.85317
-6.71344
-6.56935
-6.42109
-6.26885
-6.11286
-5.95336
-5.79062
-5.6249
-5.4565
-5.28572
-5.11287
-4.93825
-4.76221
-4.58504
-4.40706
-4.22859
-4.0499
-3.87128
-3.69296
-3.51518
-3.3381
-3.16189
-2.98665
-2.81244
-2.63928
-2.46716
-2.29598
-2.12559
-1.95575
-1.78616
-1.61644
-1.44612
-1.27465
-1.10139
-0.925613
-0.746504
-0.563156
-0.37457
-0.179658
0.0227574
0.233936
0.455217
0.688013
0.933801
1.19411
1.47049
1.76455
2.07786
2.412
2.76848
3.14874
3.55408
3.98564
4.44438
4.93097
5.44575
5.98867
6.55927
7.1565
7.77875
8.42373
9.08839
9.76878
10.4601
11.1569
11.8526
12.5406
13.2132
13.862
14.4786
15.0544
15.5817
16.0533
16.4638
16.8089
17.0865
17.2966
17.4411
17.5239
17.5507
17.5285
17.4656
17.3708
17.2533
17.1219
16.9852
16.8511
16.7266
16.617
16.5257
16.4567
16.4134
16.3985
16.4146
16.465
16.5477
16.6666
16.766
-7.51815
-7.51818
-7.52034
-7.52858
-7.54071
-7.55398
-7.56659
-7.57724
-7.58486
-7.58849
-7.58731
-7.58067
-7.56803
-7.54907
-7.5238
-7.49269
-7.45676
-7.41777
-7.37805
-7.34028
-7.30705
-7.28036
-7.26153
-7.25156
-7.25127
-7.2616
-7.28345
-7.31742
-7.36357
-7.42127
-7.48925
-7.56582
-7.64902
-7.73681
-7.82725
-7.9185
-8.00894
-8.09719
-8.18207
-8.26265
-8.33823
-8.40828
-8.47246
-8.53056
-8.58249
-8.62824
-8.6679
-8.70156
-8.72937
-8.7515
-8.76811
-8.77935
-8.78538
-8.78633
-8.78234
-8.77348
-8.75986
-8.74153
-8.71854
-8.69091
-8.65866
-8.62178
-8.58025
-8.53406
-8.48316
-8.42752
-8.36708
-8.3018
-8.23163
-8.15651
-8.07641
-7.99129
-7.9011
-7.80582
-7.70544
-7.59997
-7.48943
-7.37387
-7.25334
-7.12789
-6.99762
-6.86264
-6.72308
-6.57911
-6.43091
-6.27869
-6.12266
-5.96309
-5.80022
-5.63434
-5.46574
-5.29474
-5.12164
-4.94677
-4.77046
-4.59304
-4.41482
-4.23613
-4.05727
-3.87851
-3.70012
-3.52233
-3.34534
-3.16932
-2.99438
-2.82062
-2.64806
-2.4767
-2.30645
-2.13718
-1.96868
-1.80064
-1.6327
-1.46441
-1.29523
-1.12454
-0.951611
-0.775652
-0.595762
-0.410951
-0.220139
-0.0221548
0.184256
0.40043
0.627779
0.86778
1.12196
1.3919
1.67918
1.98541
2.31218
2.66103
3.03342
3.43069
3.85402
4.3044
4.78259
5.28899
5.8236
6.38607
6.97545
7.5902
8.22815
8.88629
9.56085
10.2473
10.9401
11.6331
12.3194
12.9915
13.6411
14.2598
14.839
15.371
15.8485
16.2658
16.6187
16.905
17.1243
17.2784
17.3711
17.408
17.396
17.3431
17.2581
17.15
17.0275
16.8992
16.7728
16.6549
16.5507
16.464
16.3986
16.3572
16.3421
16.3547
16.3959
16.461
16.5469
16.6036
-7.52789
-7.53569
-7.54134
-7.55
-7.56079
-7.57183
-7.5818
-7.5897
-7.59467
-7.59593
-7.59284
-7.58483
-7.57152
-7.55276
-7.52873
-7.50005
-7.46787
-7.43391
-7.40038
-7.36966
-7.34396
-7.32505
-7.31422
-7.31247
-7.3206
-7.33927
-7.36886
-7.40939
-7.46034
-7.52074
-7.58921
-7.66412
-7.74374
-7.82637
-7.91043
-7.99448
-8.07726
-8.15771
-8.23493
-8.30819
-8.37694
-8.44076
-8.49936
-8.55254
-8.6002
-8.64231
-8.67891
-8.71004
-8.73581
-8.75631
-8.77167
-8.78198
-8.78736
-8.7879
-8.7837
-8.7748
-8.76128
-8.74317
-8.72048
-8.69324
-8.66142
-8.62502
-8.584
-8.53833
-8.48797
-8.43285
-8.37293
-8.30815
-8.23845
-8.16378
-8.0841
-7.99934
-7.90948
-7.81449
-7.71435
-7.60909
-7.49871
-7.38326
-7.26277
-7.13731
-7.00697
-6.87187
-6.73214
-6.58794
-6.43948
-6.28694
-6.13057
-5.97061
-5.80733
-5.64103
-5.472
-5.30055
-5.12702
-4.95174
-4.77505
-4.59727
-4.41876
-4.23983
-4.0608
-3.88197
-3.7036
-3.52593
-3.34919
-3.17355
-2.99915
-2.82609
-2.6544
-2.4841
-2.3151
-2.14729
-1.98045
-1.81431
-1.64849
-1.48257
-1.31602
-1.1482
-0.978433
-0.805901
-0.629719
-0.448901
-0.262371
-0.0689612
0.132583
0.343599
0.565501
0.79977
1.04794
1.3116
1.59234
1.8918
2.21157
2.55322
2.91825
3.30803
3.72378
4.16653
4.63711
5.13598
5.66322
6.21853
6.80109
7.40939
8.04137
8.6942
9.36421
10.0469
10.737
11.4283
12.1139
12.7864
13.4375
14.0588
14.6417
15.1782
15.6613
16.0848
16.4446
16.7383
16.9653
17.1274
17.2283
17.2734
17.2696
17.2248
17.1477
17.0473
16.9321
16.8107
16.6906
16.5783
16.4788
16.3962
16.3338
16.2938
16.278
16.2865
16.3186
16.3677
16.4269
16.4523
-7.50629
-7.52368
-7.53328
-7.54399
-7.55532
-7.56588
-7.57474
-7.58125
-7.58482
-7.5849
-7.58099
-7.57273
-7.55991
-7.54257
-7.52107
-7.49618
-7.46914
-7.44166
-7.41572
-7.39339
-7.37654
-7.36668
-7.36495
-7.37215
-7.38884
-7.41533
-7.45159
-7.49724
-7.5515
-7.61328
-7.68125
-7.75394
-7.82991
-7.90775
-7.98618
-8.06406
-8.1404
-8.21433
-8.28517
-8.35232
-8.41535
-8.4739
-8.52772
-8.57664
-8.62057
-8.65946
-8.69331
-8.72215
-8.74603
-8.76503
-8.7792
-8.78862
-8.79337
-8.7935
-8.78907
-8.78011
-8.76666
-8.74871
-8.72628
-8.69936
-8.66791
-8.6319
-8.5913
-8.54605
-8.4961
-8.44138
-8.38183
-8.31739
-8.248
-8.17359
-8.09411
-8.00951
-7.91975
-7.82481
-7.72467
-7.61934
-7.50884
-7.39319
-7.27243
-7.14664
-7.01592
-6.88038
-6.74016
-6.59543
-6.44638
-6.29323
-6.13622
-5.97561
-5.81166
-5.64469
-5.47501
-5.30293
-5.1288
-4.95297
-4.77578
-4.59758
-4.41872
-4.23954
-4.06036
-3.8815
-3.70323
-3.52582
-3.34948
-3.17441
-3.00076
-2.82863
-2.65808
-2.48912
-2.32168
-2.15564
-1.99079
-1.82688
-1.66354
-1.50033
-1.33674
-1.17214
-1.00585
-0.837054
-0.664873
-0.488321
-0.306321
-0.117707
0.0787789
0.284477
0.500805
0.729252
0.971364
1.22872
1.50296
1.7957
2.10859
2.4432
2.80107
3.1836
3.59203
4.02747
4.49079
4.98252
5.50278
6.05134
6.62749
7.22983
7.85638
8.50441
9.17036
9.84988
10.5377
11.2278
11.9132
12.5866
13.2396
13.8637
14.4503
14.9915
15.4797
15.9091
16.2752
16.5754
16.8092
16.9783
17.0862
17.1383
17.1415
17.1037
17.0335
16.9397
16.831
16.7158
16.6013
16.4941
16.3992
16.3204
16.2608
16.2223
16.2057
16.2105
16.2345
16.2698
16.3081
16.3106
-7.46019
-7.48315
-7.49976
-7.51432
-7.52755
-7.53893
-7.54793
-7.55421
-7.55745
-7.55732
-7.55355
-7.54596
-7.53456
-7.51957
-7.50152
-7.48131
-7.46022
-7.43986
-7.42202
-7.40845
-7.40072
-7.40003
-7.40728
-7.42302
-7.44753
-7.48081
-7.52257
-7.57219
-7.6288
-7.69133
-7.75855
-7.82923
-7.90211
-7.97605
-8.04999
-8.123
-8.19426
-8.26309
-8.3289
-8.39124
-8.44972
-8.50406
-8.55406
-8.59955
-8.64046
-8.67673
-8.70834
-8.73531
-8.75766
-8.77543
-8.78867
-8.7974
-8.80168
-8.80153
-8.79697
-8.78803
-8.77469
-8.75696
-8.73481
-8.7082
-8.6771
-8.64146
-8.60123
-8.55633
-8.5067
-8.45228
-8.39299
-8.32875
-8.25951
-8.1852
-8.10575
-8.02111
-7.93124
-7.83613
-7.73574
-7.6301
-7.51919
-7.40305
-7.28174
-7.15533
-7.02392
-6.88763
-6.74662
-6.60106
-6.45114
-6.2971
-6.13918
-5.97765
-5.8128
-5.64494
-5.4744
-5.30151
-5.12663
-4.95011
-4.77232
-4.59362
-4.41437
-4.23493
-4.05563
-3.8768
-3.69872
-3.52167
-3.34588
-3.17155
-2.99885
-2.82789
-2.65873
-2.49137
-2.32577
-2.1618
-1.99927
-1.83791
-1.67736
-1.5172
-1.35689
-1.19584
-1.03333
-0.868574
-0.700679
-0.528662
-0.351444
-0.167852
0.0233715
0.223573
0.434179
0.656684
0.892646
1.14366
1.41135
1.6974
2.00344
2.33108
2.68188
3.05729
3.45858
3.88688
4.34312
4.82789
5.34141
5.88349
6.45347
7.05011
7.67149
8.31498
8.97715
9.65371
10.3395
11.0286
11.714
12.3883
13.0432
13.67
14.2602
14.8056
15.2986
15.7332
16.1048
16.4108
16.6505
16.8256
16.9396
16.9978
17.0072
16.9755
16.9114
16.8237
16.721
16.6115
16.5025
16.4004
16.3101
16.2353
16.1788
16.1419
16.1252
16.127
16.1443
16.1687
16.1911
16.1775
-7.39588
-7.42525
-7.44847
-7.46742
-7.48331
-7.4963
-7.50628
-7.51318
-7.51691
-7.51737
-7.5145
-7.50834
-7.49907
-7.48709
-7.47305
-7.45795
-7.44303
-7.42979
-7.4198
-7.41455
-7.41528
-7.42295
-7.4382
-7.46136
-7.49247
-7.53132
-7.57743
-7.63012
-7.68849
-7.75152
-7.81814
-7.88725
-7.9578
-8.02882
-8.09942
-8.16881
-8.23632
-8.30136
-8.36346
-8.42223
-8.47735
-8.52858
-8.57575
-8.61872
-8.65741
-8.69178
-8.72179
-8.74744
-8.76874
-8.78571
-8.79837
-8.80673
-8.8108
-8.8106
-8.80612
-8.79734
-8.78426
-8.76684
-8.74503
-8.7188
-8.68807
-8.6528
-8.61291
-8.56832
-8.51896
-8.46475
-8.40562
-8.34147
-8.27225
-8.19787
-8.11828
-8.03342
-7.94325
-7.84774
-7.74687
-7.64064
-7.52907
-7.41217
-7.29003
-7.16271
-7.03032
-6.89301
-6.75091
-6.60423
-6.45317
-6.29797
-6.13888
-5.9762
-5.81022
-5.64126
-5.46967
-5.2958
-5.12002
-4.9427
-4.76423
-4.58497
-4.4053
-4.22559
-4.0462
-3.86745
-3.68965
-3.51308
-3.33798
-3.16457
-2.99301
-2.82343
-2.65589
-2.4904
-2.32691
-2.16529
-2.00537
-1.84685
-1.6894
-1.53258
-1.37587
-1.21865
-1.06022
-0.899771
-0.736423
-0.569183
-0.396967
-0.218601
-0.0328177
0.161734
0.366487
0.582946
0.812684
1.0573
1.31845
1.59781
1.89703
2.21776
2.56156
2.92992
3.32418
3.74549
4.19479
4.67275
5.17966
5.71541
6.27941
6.87049
7.48684
8.12592
8.78439
9.45807
10.1419
10.8298
11.5151
12.1901
12.8466
13.4758
14.069
14.618
15.1151
15.5541
15.9304
16.2411
16.4858
16.6659
16.7851
16.8486
16.8633
16.8371
16.7786
16.6965
16.5995
16.4957
16.3923
16.2954
16.2101
16.1397
16.0868
16.0523
16.0362
16.0363
16.0486
16.0648
16.0759
16.0517
-7.32309
-7.358
-7.38717
-7.41039
-7.42916
-7.44416
-7.45562
-7.46368
-7.46849
-7.47014
-7.46878
-7.46461
-7.45796
-7.44935
-7.43954
-7.42951
-7.42048
-7.41378
-7.41079
-7.41275
-7.42067
-7.43529
-7.45705
-7.48612
-7.52236
-7.56546
-7.61483
-7.66977
-7.72941
-7.79281
-7.859
-7.92702
-7.99595
-8.06495
-8.13323
-8.20014
-8.26507
-8.32754
-8.38713
-8.4435
-8.49639
-8.54558
-8.59092
-8.63229
-8.66962
-8.70286
-8.73196
-8.75693
-8.77775
-8.79442
-8.80694
-8.81532
-8.81953
-8.81956
-8.8154
-8.80702
-8.79436
-8.77739
-8.75604
-8.73026
-8.69996
-8.66508
-8.62553
-8.58123
-8.53209
-8.47802
-8.41895
-8.35478
-8.28544
-8.21085
-8.13095
-8.04568
-7.955
-7.85888
-7.75728
-7.65022
-7.53771
-7.41979
-7.29653
-7.16803
-7.03439
-6.89576
-6.75231
-6.60424
-6.45177
-6.29515
-6.13466
-5.97059
-5.80327
-5.63302
-5.46022
-5.28522
-5.10841
-4.93019
-4.75095
-4.57108
-4.39098
-4.21102
-4.03156
-3.85296
-3.67553
-3.49956
-3.3253
-3.15297
-2.98275
-2.81475
-2.64906
-2.48568
-2.32455
-2.16556
-2.0085
-1.85312
-1.69904
-1.54584
-1.39298
-1.23985
-1.08574
-0.929843
-0.77126
-0.608998
-0.441967
-0.268984
-0.0887785
0.10001
0.298822
0.509171
0.732636
0.970849
1.22546
1.49816
1.79063
2.10451
2.44141
2.80284
3.19017
3.6046
4.04711
4.5184
5.01884
5.54838
6.1065
6.6921
7.30347
7.93815
8.59289
9.26358
9.94519
10.6318
11.3166
11.9918
12.6493
13.2801
13.8756
14.4273
14.9275
15.3699
15.7496
16.0641
16.3126
16.4968
16.6201
16.688
16.7074
16.6862
16.6328
16.5561
16.4647
16.3666
16.2689
16.1778
16.0979
16.0326
15.9841
15.953
15.9386
15.9383
15.9478
15.9585
15.9622
15.9319
-7.24956
-7.28875
-7.32292
-7.34993
-7.37142
-7.3885
-7.40163
-7.41118
-7.41744
-7.42069
-7.42122
-7.41936
-7.41555
-7.41038
-7.40462
-7.39926
-7.39539
-7.39423
-7.39696
-7.40463
-7.41809
-7.43794
-7.46447
-7.49774
-7.53757
-7.58354
-7.63508
-7.69147
-7.7519
-7.81549
-7.88137
-7.94866
-8.01653
-8.08424
-8.15109
-8.21648
-8.27988
-8.34084
-8.39899
-8.45404
-8.50574
-8.55389
-8.59836
-8.63904
-8.67585
-8.70873
-8.73766
-8.7626
-8.78353
-8.80044
-8.81331
-8.82212
-8.82685
-8.82745
-8.8239
-8.81614
-8.80411
-8.78775
-8.76698
-8.74174
-8.71193
-8.67747
-8.63826
-8.59422
-8.54525
-8.49125
-8.43215
-8.36784
-8.29824
-8.22329
-8.14291
-8.05705
-7.96564
-7.86866
-7.7661
-7.65794
-7.54423
-7.42502
-7.30038
-7.17041
-7.03524
-6.89503
-6.74995
-6.60024
-6.44611
-6.28783
-6.12571
-5.96005
-5.79119
-5.61948
-5.4453
-5.26905
-5.09111
-4.91191
-4.73185
-4.55134
-4.3708
-4.1906
-4.01114
-3.83276
-3.6558
-3.48056
-3.30729
-3.13621
-2.96752
-2.80132
-2.63769
-2.47664
-2.31811
-2.16199
-2.00806
-1.85605
-1.70559
-1.55625
-1.40748
-1.25866
-1.10908
-0.957921
-0.804277
-0.647147
-0.485432
-0.317943
-0.1434
0.039566
0.232403
0.436633
0.653844
0.885681
1.13382
1.39994
1.68575
1.99292
2.32306
2.67771
3.05827
3.46597
3.90185
4.36663
4.86073
5.38418
5.9365
6.51668
7.12306
7.75328
8.40414
9.0716
9.75069
10.4355
11.1191
11.794
12.4516
13.0832
13.6798
14.233
14.735
15.1794
15.5613
15.8781
16.1292
16.3162
16.4427
16.5141
16.5374
16.5205
16.4719
16.4005
16.3147
16.2225
16.131
16.0461
15.9724
15.9131
15.87
15.8434
15.8321
15.8332
15.8419
15.8499
15.8497
15.8169
-7.1812
-7.22343
-7.26148
-7.29159
-7.31542
-7.33439
-7.34918
-7.36028
-7.36813
-7.37314
-7.37569
-7.37618
-7.37512
-7.37312
-7.37095
-7.36951
-7.36981
-7.37293
-7.3799
-7.39164
-7.40888
-7.43213
-7.46165
-7.49745
-7.53931
-7.58683
-7.63945
-7.69648
-7.75717
-7.8207
-7.88625
-7.95303
-8.02026
-8.08725
-8.15335
-8.21801
-8.28073
-8.34109
-8.39875
-8.45342
-8.50486
-8.5529
-8.59738
-8.63821
-8.6753
-8.70858
-8.73802
-8.76358
-8.78521
-8.80289
-8.8166
-8.82628
-8.83189
-8.8334
-8.83073
-8.82383
-8.81262
-8.79703
-8.77697
-8.75236
-8.72309
-8.68907
-8.6502
-8.60638
-8.55752
-8.50351
-8.44426
-8.37969
-8.3097
-8.23422
-8.15318
-8.06649
-7.97413
-7.87605
-7.77225
-7.66275
-7.54757
-7.42679
-7.30049
-7.16879
-7.03183
-6.88977
-6.74283
-6.59122
-6.4352
-6.27505
-6.11109
-5.94365
-5.77308
-5.59977
-5.4241
-5.24649
-5.06735
-4.88711
-4.7062
-4.52506
-4.34409
-4.16371
-3.98431
-3.80625
-3.62987
-3.45549
-3.28336
-3.11371
-2.94673
-2.78252
-2.62117
-2.46268
-2.30698
-2.15394
-2.00336
-1.85495
-1.70833
-1.56305
-1.41857
-1.27426
-1.12937
-0.983095
-0.834516
-0.682621
-0.526301
-0.364359
-0.195504
-0.0183605
0.16853
0.366698
0.577741
0.803311
1.04509
1.30479
1.58412
1.88475
2.20834
2.55642
2.93042
3.33162
3.76106
4.21951
4.70745
5.22493
5.77154
6.34633
6.94769
7.57332
8.22009
8.884
9.56009
10.2425
10.9243
11.5977
12.2544
12.8855
13.4819
14.0351
14.5373
14.982
15.3645
15.682
15.9342
16.1226
16.2511
16.3251
16.3515
16.3384
16.2942
16.2279
16.1477
16.0618
15.9769
15.8991
15.8325
15.7803
15.7438
15.723
15.7165
15.7208
15.731
15.739
15.7379
15.706
-7.12214
-7.16637
-7.20723
-7.23965
-7.26528
-7.28577
-7.30195
-7.31443
-7.32375
-7.33038
-7.33476
-7.33735
-7.33865
-7.33928
-7.33994
-7.34147
-7.34477
-7.35081
-7.36051
-7.37469
-7.39402
-7.41899
-7.44983
-7.48658
-7.52905
-7.57688
-7.62956
-7.68645
-7.74684
-7.80997
-7.87509
-7.94143
-8.00827
-8.07494
-8.14082
-8.20536
-8.26809
-8.3286
-8.38655
-8.44164
-8.49363
-8.54235
-8.58764
-8.62937
-8.66747
-8.70184
-8.73244
-8.7592
-8.78208
-8.80103
-8.81601
-8.82695
-8.83381
-8.83651
-8.83498
-8.82916
-8.81895
-8.80426
-8.785
-8.76107
-8.73237
-8.69879
-8.66023
-8.61659
-8.56775
-8.51363
-8.45413
-8.38915
-8.31861
-8.24242
-8.16048
-8.07275
-7.97917
-7.87974
-7.77445
-7.66334
-7.54644
-7.42383
-7.29563
-7.16194
-7.02294
-6.87881
-6.72977
-6.57605
-6.41794
-6.25573
-6.08977
-5.92039
-5.74799
-5.57295
-5.3957
-5.21666
-5.03626
-4.85496
-4.67321
-4.49144
-4.31009
-4.12959
-3.95034
-3.77271
-3.59706
-3.42368
-3.25287
-3.08483
-2.91975
-2.75775
-2.59888
-2.44316
-2.29051
-2.14078
-1.99376
-1.84914
-1.70655
-1.56552
-1.42549
-1.28581
-1.14574
-1.00445
-0.861012
-0.714398
-0.563493
-0.407087
-0.243881
-0.0724906
0.108552
0.300786
0.505816
0.725302
0.960939
1.21444
1.48753
1.7819
2.0992
2.44099
2.80873
3.20369
3.62695
4.07932
4.56129
5.07296
5.61396
6.18338
6.77967
7.40055
8.04295
8.70287
9.37539
10.0546
10.7336
11.4045
12.059
12.688
13.2825
13.8339
14.3343
14.7774
15.1585
15.4749
15.7264
15.9148
16.0439
16.1193
16.148
16.1381
16.098
16.0366
15.9623
15.883
15.8055
15.7355
15.6771
15.6332
15.6048
15.5915
15.5915
15.601
15.615
15.6257
15.6267
15.5983
-7.07504
-7.12054
-7.16328
-7.19722
-7.22398
-7.24541
-7.2625
-7.27592
-7.28627
-7.29408
-7.29982
-7.30394
-7.30693
-7.30937
-7.31191
-7.3153
-7.32036
-7.32795
-7.33892
-7.35403
-7.37393
-7.3991
-7.42982
-7.46616
-7.508
-7.55505
-7.60686
-7.66286
-7.72241
-7.78479
-7.84929
-7.91517
-7.98174
-8.04834
-8.11436
-8.17926
-8.24255
-8.30382
-8.36269
-8.41887
-8.4721
-8.52218
-8.56894
-8.61223
-8.65195
-8.68801
-8.72031
-8.74879
-8.77339
-8.79403
-8.81066
-8.8232
-8.83159
-8.83573
-8.83556
-8.83097
-8.82188
-8.80819
-8.78978
-8.76657
-8.73844
-8.70527
-8.66697
-8.62343
-8.57453
-8.52019
-8.4603
-8.39477
-8.3235
-8.24637
-8.16331
-8.07428
-7.97926
-7.87822
-7.77119
-7.65822
-7.53935
-7.41468
-7.28433
-7.14844
-7.00718
-6.86077
-6.70943
-6.55343
-6.39306
-6.22865
-6.06054
-5.88913
-5.71479
-5.53796
-5.35906
-5.17856
-4.99691
-4.81456
-4.63199
-4.44967
-4.26803
-4.08751
-3.90854
-3.73148
-3.55671
-3.38452
-3.2152
-3.04897
-2.886
-2.72641
-2.57025
-2.41751
-2.2681
-2.12188
-1.97861
-1.83797
-1.69957
-1.56293
-1.42747
-1.29252
-1.15735
-1.02109
-0.882799
-0.741451
-0.595914
-0.444967
-0.287301
-0.12152
0.0538483
0.240353
0.439606
0.653271
0.883051
1.13067
1.39785
1.68629
1.99766
2.33352
2.69533
3.08439
3.50178
3.94835
4.4246
4.93065
5.46616
6.03024
6.62138
7.23733
7.87501
8.53045
9.1987
9.87383
10.5489
11.216
11.8667
12.4918
13.0824
13.6298
14.1262
14.5654
14.9428
15.2561
15.505
15.6916
15.8198
15.8955
15.9256
15.9182
15.8818
15.8253
15.7571
15.6848
15.6154
15.5542
15.5053
15.471
15.4523
15.4484
15.4569
15.4738
15.494
15.5099
15.5156
15.4933
-7.0417
-7.08808
-7.13195
-7.16658
-7.19367
-7.21527
-7.2325
-7.2461
-7.25674
-7.26498
-7.27127
-7.27607
-7.27982
-7.28304
-7.28631
-7.29032
-7.29581
-7.30357
-7.3144
-7.32904
-7.34813
-7.37218
-7.40152
-7.43629
-7.47645
-7.5218
-7.57195
-7.62643
-7.68465
-7.74595
-7.80965
-7.87503
-7.94141
-8.00812
-8.07456
-8.14017
-8.20444
-8.26692
-8.32723
-8.38503
-8.44005
-8.49205
-8.54082
-8.58621
-8.62806
-8.66627
-8.70073
-8.73135
-8.75803
-8.7807
-8.79927
-8.81366
-8.82378
-8.82955
-8.83086
-8.82763
-8.81974
-8.80708
-8.78956
-8.76706
-8.73946
-8.70667
-8.66856
-8.62503
-8.57598
-8.5213
-8.4609
-8.39463
-8.32239
-8.24409
-8.15968
-8.06913
-7.97241
-7.86954
-7.76056
-7.6455
-7.52445
-7.39752
-7.26483
-7.12656
-6.98288
-6.83404
-6.68027
-6.52186
-6.35914
-6.19244
-6.02213
-5.84862
-5.67232
-5.49369
-5.31316
-5.13123
-4.94836
-4.76504
-4.58176
-4.39898
-4.21718
-4.0368
-3.85826
-3.68196
-3.50825
-3.33745
-3.16984
-3.00563
-2.84499
-2.68802
-2.53477
-2.38522
-2.23926
-2.09673
-1.95737
-1.82086
-1.68678
-1.55463
-1.42382
-1.29366
-1.16339
-1.03215
-0.898972
-0.762813
-0.622531
-0.476894
-0.324582
-0.164193
0.00575454
0.186816
0.380607
0.588797
0.81309
1.05521
1.31689
1.59983
1.90569
2.23605
2.59235
2.97592
3.38783
3.82893
4.29974
4.80039
5.33055
5.88934
6.47525
7.08603
7.7186
8.36897
9.03216
9.70216
10.372
11.0337
11.6787
12.2979
12.8823
13.4233
13.9132
14.3459
14.7172
15.0249
15.2691
15.452
15.5779
15.6524
15.6829
15.6773
15.6443
15.5926
15.5306
15.4659
15.4053
15.354
15.3159
15.293
15.2858
15.2932
15.3124
15.339
15.3679
15.3916
15.4046
15.3907
-7.02299
-7.07036
-7.1147
-7.14911
-7.17552
-7.19623
-7.21251
-7.22524
-7.23513
-7.24275
-7.24854
-7.25289
-7.25619
-7.25889
-7.26152
-7.26469
-7.26909
-7.27549
-7.28467
-7.29735
-7.31422
-7.33582
-7.36255
-7.39463
-7.43211
-7.47488
-7.52267
-7.57506
-7.63152
-7.69143
-7.75413
-7.81894
-7.88516
-7.95213
-8.01922
-8.08584
-8.15145
-8.21558
-8.27779
-8.3377
-8.39501
-8.44942
-8.5007
-8.54866
-8.59311
-8.63391
-8.67092
-8.70403
-8.73314
-8.75813
-8.77891
-8.79538
-8.80744
-8.81499
-8.81793
-8.81615
-8.80953
-8.79797
-8.78135
-8.75957
-8.7325
-8.70003
-8.66206
-8.61849
-8.5692
-8.51409
-8.45298
-8.38575
-8.31231
-8.23261
-8.14661
-8.0543
-7.95568
-7.85077
-7.73961
-7.62228
-7.49886
-7.36949
-7.23431
-7.09351
-6.94729
-6.79589
-6.6396
-6.47871
-6.31357
-6.14453
-5.972
-5.7964
-5.61816
-5.43776
-5.25568
-5.0724
-4.88843
-4.70426
-4.52041
-4.33736
-4.15559
-3.97556
-3.7977
-3.6224
-3.45002
-3.28088
-3.11525
-2.95335
-2.79532
-2.64126
-2.4912
-2.34511
-2.20285
-2.06425
-1.92904
-1.79685
-1.66726
-1.53975
-1.4137
-1.28842
-1.16311
-1.03689
-0.908798
-0.777761
-0.642628
-0.502155
-0.355013
-0.199791
-0.0350002
0.140917
0.329581
0.53266
0.75186
0.988905
1.24552
1.52341
1.82421
2.14951
2.50076
2.87925
3.28606
3.72205