/*--------------------------------*- C++ -*----------------------------------*\
  =========                 |
  \\      /  F ield         | OpenFOAM: The Open Source CFD Toolbox
   \\    /   O peration     | Website:  https://openfoam.org
    \\  /    A nd           | Version:  9
     \\/     M anipulation  |
\*---------------------------------------------------------------------------*/
FoamFile
{
    format      ascii;
    class       volVectorField;
    location    "0.06";
    object      U;
}
// * * * * * * * * * * * * * * * * * * * * * * * * * * * * * * * * * * * * * //

dimensions      [0 1 -1 0 0 0 0];

internalField   nonuniform List<vector> 
12225
(
(9.86107 -0.874318 0)
(9.67246 -0.700186 0)
(9.4589 -0.387579 0)
(9.2245 -0.188458 0)
(9.0032 -0.0843704 0)
(8.80995 -0.0328452 0)
(8.64446 -0.00750922 0)
(8.50321 0.00508037 0)
(8.3827 0.0114113 0)
(8.27939 0.0145749 0)
(8.18984 0.0161115 0)
(8.11113 0.0168455 0)
(8.04072 0.0172357 0)
(7.97666 0.0176182 0)
(7.91534 0.01819 0)
(7.85896 0.0203145 0)
(7.77806 0.0216597 0)
(7.74342 0.0365181 0)
(10.0547 0.263068 0)
(10.1201 0.360745 0)
(10.118 0.273836 0)
(10.0826 0.187118 0)
(10.0405 0.131202 0)
(9.99376 0.0969813 0)
(9.93984 0.0756309 0)
(9.87997 0.061849 0)
(9.81722 0.0524782 0)
(9.75407 0.0457111 0)
(9.69194 0.0406135 0)
(9.63162 0.0367403 0)
(9.57347 0.0338618 0)
(9.51791 0.0320212 0)
(9.46386 0.0311017 0)
(9.4155 0.0334596 0)
(9.36132 0.0334876 0)
(9.3391 0.0571765 0)
(9.9992 0.0460826 0)
(10.0244 0.034218 0)
(10.0538 0.0149748 0)
(10.0707 0.0218559 0)
(10.0777 0.0367358 0)
(10.0781 0.0460928 0)
(10.0719 0.0500599 0)
(10.0598 0.0512863 0)
(10.0433 0.0512414 0)
(10.0237 0.0505935 0)
(10.0019 0.0497243 0)
(9.97845 0.0488992 0)
(9.95379 0.048295 0)
(9.92836 0.0482156 0)
(9.90192 0.0487518 0)
(9.87614 0.0517171 0)
(9.8481 0.0543131 0)
(9.82342 0.0689087 0)
(9.9968 0.00642079 0)
(10.0085 0.0250271 0)
(10.0342 0.0389685 0)
(10.0527 0.0503545 0)
(10.0643 0.0571849 0)
(10.0729 0.0592705 0)
(10.0786 0.0589954 0)
(10.0811 0.0581235 0)
(10.0809 0.0571821 0)
(10.0786 0.0562555 0)
(10.0746 0.0554097 0)
(10.0692 0.0547544 0)
(10.0625 0.054413 0)
(10.0547 0.0546501 0)
(10.046 0.0556493 0)
(10.0371 0.0586113 0)
(10.0277 0.0623753 0)
(10.0194 0.0725459 0)
(9.99923 0.00672882 0)
(10.0081 0.0335876 0)
(10.0271 0.0460867 0)
(10.0417 0.0509162 0)
(10.0523 0.0540159 0)
(10.062 0.0556408 0)
(10.0705 0.0560328 0)
(10.077 0.0559079 0)
(10.0816 0.055619 0)
(10.0848 0.0552672 0)
(10.0869 0.054942 0)
(10.088 0.0547728 0)
(10.0881 0.0549052 0)
(10.0875 0.0555791 0)
(10.0863 0.0570103 0)
(10.0851 0.0599018 0)
(10.0841 0.0637946 0)
(10.0847 0.070774 0)
(10.0002 0.00906439 0)
(10.0078 0.0321435 0)
(10.0225 0.0419666 0)
(10.0349 0.0457549 0)
(10.0446 0.0492521 0)
(10.0539 0.0518325 0)
(10.0627 0.0530262 0)
(10.07 0.053449 0)
(10.076 0.0535836 0)
(10.081 0.0536051 0)
(10.0852 0.0536211 0)
(10.0887 0.0537643 0)
(10.0915 0.0541809 0)
(10.0937 0.0550714 0)
(10.0957 0.0566216 0)
(10.0979 0.0592097 0)
(10.1006 0.0626126 0)
(10.1049 0.0674486 0)
(10.0004 0.00878974 0)
(10.0068 0.0275418 0)
(10.0189 0.0371506 0)
(10.0302 0.0418497 0)
(10.0393 0.0458147 0)
(10.048 0.0486914 0)
(10.0563 0.0501658 0)
(10.0636 0.0508414 0)
(10.0699 0.0512121 0)
(10.0755 0.0514613 0)
(10.0805 0.0516918 0)
(10.0849 0.052027 0)
(10.0888 0.0526003 0)
(10.0924 0.0535681 0)
(10.0959 0.055064 0)
(10.0996 0.0572633 0)
(10.1041 0.0599955 0)
(10.1099 0.0632619 0)
(10.0004 0.00782556 0)
(10.0057 0.0237238 0)
(10.016 0.03345 0)
(10.0263 0.0387165 0)
(10.035 0.0426631 0)
(10.0431 0.0455166 0)
(10.0509 0.0471438 0)
(10.058 0.0480165 0)
(10.0643 0.0485675 0)
(10.0701 0.0489814 0)
(10.0753 0.0493605 0)
(10.0801 0.0498176 0)
(10.0846 0.0504678 0)
(10.0888 0.0514252 0)
(10.0931 0.0527698 0)
(10.0977 0.0545524 0)
(10.1028 0.0565997 0)
(10.1091 0.058692 0)
(10.0004 0.00693836 0)
(10.0049 0.0207417 0)
(10.0136 0.0301294 0)
(10.0229 0.035551 0)
(10.0311 0.0393943 0)
(10.0387 0.0422222 0)
(10.0461 0.043994 0)
(10.053 0.0450416 0)
(10.0592 0.0457375 0)
(10.0649 0.0462735 0)
(10.0703 0.0467549 0)
(10.0753 0.0472818 0)
(10.08 0.0479488 0)
(10.0846 0.0488335 0)
(10.0893 0.0499711 0)
(10.0942 0.0513413 0)
(10.0997 0.052769 0)
(10.1059 0.0540002 0)
(10.0004 0.00615028 0)
(10.0042 0.0181608 0)
(10.0116 0.026905 0)
(10.0199 0.0323088 0)
(10.0276 0.0360833 0)
(10.0348 0.0388877 0)
(10.0418 0.0407605 0)
(10.0484 0.0419414 0)
(10.0545 0.0427478 0)
(10.0602 0.0433719 0)
(10.0655 0.0439189 0)
(10.0706 0.0444754 0)
(10.0755 0.0451153 0)
(10.0803 0.0458873 0)
(10.0852 0.0467955 0)
(10.0903 0.0477848 0)
(10.0957 0.048693 0)
(10.1017 0.0493056 0)
(10.0003 0.0054128 0)
(10.0036 0.0158421 0)
(10.0099 0.0238311 0)
(10.0172 0.0290989 0)
(10.0244 0.0327886 0)
(10.0312 0.035533 0)
(10.0379 0.0374462 0)
(10.0442 0.0387145 0)
(10.0502 0.0395995 0)
(10.0558 0.0402823 0)
(10.0611 0.0408644 0)
(10.0662 0.0414191 0)
(10.0712 0.0420021 0)
(10.0761 0.0426411 0)
(10.081 0.0433219 0)
(10.0861 0.0439792 0)
(10.0915 0.0444756 0)
(10.0971 0.0446556 0)
(10.0003 0.00475871 0)
(10.0032 0.0139022 0)
(10.0085 0.0211695 0)
(10.0152 0.0262107 0)
(10.0218 0.0297789 0)
(10.0283 0.0324342 0)
(10.0346 0.0343387 0)
(10.0408 0.0356483 0)
(10.0466 0.0365773 0)
(10.0521 0.0372894 0)
(10.0574 0.03788 0)
(10.0625 0.0384116 0)
(10.0674 0.0389262 0)
(10.0723 0.0394387 0)
(10.0773 0.0399272 0)
(10.0823 0.04033 0)
(10.0875 0.0405367 0)
(10.0928 0.0404438 0)
(10.0003 0.00415234 0)
(10.0028 0.012137 0)
(10.0075 0.0186642 0)
(10.0134 0.0233876 0)
(10.0196 0.0267906 0)
(10.0257 0.0293313 0)
(10.0317 0.0311909 0)
(10.0376 0.0325069 0)
(10.0433 0.0334529 0)
(10.0487 0.0341717 0)
(10.0539 0.0347504 0)
(10.059 0.0352425 0)
(10.0639 0.0356794 0)
(10.0688 0.0360682 0)
(10.0737 0.0363858 0)
(10.0786 0.0365804 0)
(10.0835 0.0365681 0)
(10.0885 0.0362899 0)
(10.0003 0.00352013 0)
(10.0024 0.0103009 0)
(10.0064 0.0159812 0)
(10.0117 0.0202558 0)
(10.0174 0.0234054 0)
(10.0231 0.0257726 0)
(10.0288 0.0275346 0)
(10.0344 0.0288134 0)
(10.0399 0.029744 0)
(10.0452 0.0304435 0)
(10.0503 0.0309878 0)
(10.0553 0.0314215 0)
(10.0602 0.0317676 0)
(10.065 0.0320286 0)
(10.0697 0.0321849 0)
(10.0745 0.0321982 0)
(10.0792 0.0320113 0)
(10.0839 0.0316024 0)
(10.0002 0.0028613 0)
(10.002 0.00839195 0)
(10.0055 0.0131292 0)
(10.0101 0.0168194 0)
(10.0153 0.0196055 0)
(10.0206 0.0217201 0)
(10.0259 0.0233163 0)
(10.0313 0.0244978 0)
(10.0365 0.0253656 0)
(10.0417 0.026009 0)
(10.0467 0.0264897 0)
(10.0515 0.0268434 0)
(10.0563 0.0270872 0)
(10.061 0.0272224 0)
(10.0656 0.0272358 0)
(10.0702 0.027104 0)
(10.0746 0.0267937 0)
(10.079 0.0263098 0)
(10.0002 0.00217586 0)
(10.0017 0.00641041 0)
(10.0047 0.0101115 0)
(10.0088 0.0130772 0)
(10.0134 0.0153698 0)
(10.0183 0.0171315 0)
(10.0233 0.0184761 0)
(10.0284 0.0194844 0)
(10.0334 0.0202273 0)
(10.0383 0.0207675 0)
(10.0432 0.0211501 0)
(10.0479 0.0214022 0)
(10.0526 0.0215366 0)
(10.0571 0.0215556 0)
(10.0615 0.0214531 0)
(10.0658 0.0212188 0)
(10.07 0.0208371 0)
(10.0741 0.0203289 0)
(10.0002 0.0014608 0)
(10.0015 0.00433938 0)
(10.0041 0.00690401 0)
(10.0077 0.00900248 0)
(10.0119 0.0106582 0)
(10.0164 0.0119471 0)
(10.0211 0.0129391 0)
(10.0259 0.0136863 0)
(10.0307 0.0142328 0)
(10.0354 0.0146162 0)
(10.0401 0.0148649 0)
(10.0446 0.0149965 0)
(10.0491 0.0150199 0)
(10.0535 0.0149383 0)
(10.0577 0.0147508 0)
(10.0618 0.0144557 0)
(10.0657 0.0140483 0)
(10.0695 0.0135556 0)
(10.0001 0.000698702 0)
(10.0013 0.00212256 0)
(10.0037 0.00342535 0)
(10.0069 0.00450379 0)
(10.0108 0.00536812 0)
(10.0151 0.0060489 0)
(10.0195 0.0065735 0)
(10.0241 0.00696307 0)
(10.0287 0.00723547 0)
(10.0332 0.00740573 0)
(10.0377 0.00748482 0)
(10.0421 0.00747943 0)
(10.0464 0.00739306 0)
(10.0506 0.00722736 0)
(10.0546 0.00698319 0)
(10.0585 0.00666221 0)
(10.0622 0.00626442 0)
(10.0657 0.00581566 0)
(10.0001 -0.000156846 0)
(10.0013 -0.000372649 0)
(10.0035 -0.000516155 0)
(10.0067 -0.000634189 0)
(10.0105 -0.000717511 0)
(10.0146 -0.000774776 0)
(10.0189 -0.000823263 0)
(10.0234 -0.000876061 0)
(10.0278 -0.000941821 0)
(10.0323 -0.00102839 0)
(10.0367 -0.00114338 0)
(10.0409 -0.00129321 0)
(10.0451 -0.00148263 0)
(10.0491 -0.00171489 0)
(10.0529 -0.00199179 0)
(10.0566 -0.00231315 0)
(10.0602 -0.00267937 0)
(10.0635 -0.00307052 0)
(10.0001 -0.00097934 0)
(10.0014 -0.00277796 0)
(10.0038 -0.00432622 0)
(10.0071 -0.00559344 0)
(10.0111 -0.00656766 0)
(10.0154 -0.00730609 0)
(10.0199 -0.0078741 0)
(10.0244 -0.00831632 0)
(10.0289 -0.00866721 0)
(10.0334 -0.00895918 0)
(10.0377 -0.00921945 0)
(10.042 -0.00946747 0)
(10.046 -0.00971657 0)
(10.05 -0.00997616 0)
(10.0537 -0.0102527 0)
(10.0574 -0.0105494 0)
(10.0608 -0.0108693 0)
(10.0641 -0.0111986 0)
(10.0002 -0.00169155 0)
(10.0015 -0.00488571 0)
(10.0042 -0.00766576 0)
(10.008 -0.00987191 0)
(10.0123 -0.0115149 0)
(10.0169 -0.0127477 0)
(10.0216 -0.0136869 0)
(10.0263 -0.0143912 0)
(10.031 -0.0149149 0)
(10.0355 -0.015317 0)
(10.0399 -0.0156451 0)
(10.0442 -0.0159299 0)
(10.0483 -0.0161916 0)
(10.0522 -0.0164444 0)
(10.0559 -0.0166984 0)
(10.0595 -0.0169596 0)
(10.0629 -0.0172321 0)
(10.0662 -0.0175065 0)
(10.0002 -0.00237167 0)
(10.0017 -0.00697822 0)
(10.0049 -0.0110171 0)
(10.0092 -0.0140662 0)
(10.0141 -0.0162155 0)
(10.0191 -0.0177995 0)
(10.0241 -0.0189975 0)
(10.0291 -0.0198734 0)
(10.0339 -0.0204991 0)
(10.0386 -0.0209574 0)
(10.0431 -0.0213101 0)
(10.0474 -0.0215956 0)
(10.0515 -0.0218405 0)
(10.0554 -0.0220643 0)
(10.0591 -0.0222801 0)
(10.0627 -0.0224959 0)
(10.0661 -0.0227168 0)
(10.0693 -0.0229361 0)
(10.0002 -0.00300547 0)
(10.0018 -0.00909049 0)
(10.0056 -0.0144128 0)
(10.0109 -0.0182158 0)
(10.0164 -0.020799 0)
(10.0218 -0.0226601 0)
(10.0271 -0.0239929 0)
(10.0324 -0.0249028 0)
(10.0374 -0.0255273 0)
(10.0423 -0.0259781 0)
(10.0468 -0.0263154 0)
(10.0512 -0.0265746 0)
(10.0554 -0.0267844 0)
(10.0593 -0.0269678 0)
(10.063 -0.0271397 0)
(10.0666 -0.0273085 0)
(10.0699 -0.0274793 0)
(10.0731 -0.0276476 0)
(10.0001 -0.00357983 0)
(10.0019 -0.0115243 0)
(10.0065 -0.0178786 0)
(10.0127 -0.0219727 0)
(10.019 -0.024927 0)
(10.0249 -0.0272006 0)
(10.0306 -0.0287176 0)
(10.0361 -0.029607 0)
(10.0414 -0.0301457 0)
(10.0463 -0.0305118 0)
(10.051 -0.0307715 0)
(10.0554 -0.0309569 0)
(10.0596 -0.0310977 0)
(10.0636 -0.0312174 0)
(10.0673 -0.0313298 0)
(10.0708 -0.0314418 0)
(10.0741 -0.0315569 0)
(10.0773 -0.0316698 0)
(9.99996 -0.00369839 0)
(10.0018 -0.015171 0)
(10.0076 -0.0226123 0)
(10.0148 -0.0259177 0)
(10.0215 -0.0284589 0)
(10.0278 -0.0309007 0)
(10.0341 -0.03266 0)
(10.0402 -0.0336813 0)
(10.0457 -0.0342656 0)
(10.0508 -0.0346219 0)
(10.0556 -0.0348336 0)
(10.0601 -0.0349497 0)
(10.0643 -0.0350125 0)
(10.0681 -0.0350517 0)
(10.0717 -0.0350837 0)
(10.0751 -0.0351169 0)
(10.0782 -0.0351547 0)
(10.0811 -0.0351939 0)
(9.99897 -0.0013163 0)
(9.99999 -0.0179679 0)
(10.0085 -0.0290406 0)
(10.0174 -0.0326459 0)
(10.0245 -0.0340529 0)
(10.0313 -0.0352634 0)
(10.0383 -0.0361955 0)
(10.045 -0.036824 0)
(10.051 -0.0372615 0)
(10.0562 -0.0375483 0)
(10.0609 -0.0376992 0)
(10.0651 -0.03775 0)
(10.0689 -0.0377423 0)
(10.0722 -0.0377056 0)
(10.0752 -0.037658 0)
(10.0778 -0.037611 0)
(10.0801 -0.0375681 0)
(10.0821 -0.0375278 0)
(9.99527 0.00386338 0)
(9.99333 -0.0103098 0)
(10.007 -0.0270871 0)
(10.0212 -0.0388957 0)
(10.0311 -0.0448202 0)
(10.0392 -0.0464142 0)
(10.0467 -0.0459191 0)
(10.0531 -0.0449514 0)
(10.0583 -0.0440662 0)
(10.0623 -0.0432846 0)
(10.0655 -0.0425632 0)
(10.0678 -0.0418992 0)
(10.0695 -0.041299 0)
(10.0705 -0.0407623 0)
(10.0709 -0.0402869 0)
(10.071 -0.0398716 0)
(10.0706 -0.0395072 0)
(10.07 -0.0391662 0)
(9.99144 -0.0172972 0)
(9.99188 0.00036738 0)
(10.01 0.0176771 0)
(10.0296 0.0116093 0)
(10.0442 -0.00507727 0)
(10.0542 -0.0187853 0)
(10.0601 -0.0271253 0)
(10.0624 -0.0319967 0)
(10.0619 -0.034873 0)
(10.0593 -0.0364736 0)
(10.0552 -0.0372464 0)
(10.0499 -0.0375163 0)
(10.0436 -0.0374964 0)
(10.0366 -0.0373162 0)
(10.029 -0.0370595 0)
(10.0212 -0.0367873 0)
(10.0131 -0.0365556 0)
(10.005 -0.0363327 0)
(10.0235 -0.206009 0)
(10.0684 -0.312336 0)
(10.0788 -0.255583 0)
(10.0704 -0.184162 0)
(10.0606 -0.134881 0)
(10.0499 -0.102702 0)
(10.0343 -0.0811374 0)
(10.013 -0.0665876 0)
(9.98796 -0.0565929 0)
(9.96077 -0.0494346 0)
(9.93261 -0.0440751 0)
(9.90416 -0.039925 0)
(9.87592 -0.0366259 0)
(9.84822 -0.0339451 0)
(9.82129 -0.0317347 0)
(9.79527 -0.0299311 0)
(9.77039 -0.0285041 0)
(9.74666 -0.0277706 0)
(9.94226 0.671595 0)
(9.87996 0.567458 0)
(9.77447 0.338474 0)
(9.63243 0.183329 0)
(9.48774 0.0949164 0)
(9.35667 0.047095 0)
(9.24116 0.0213124 0)
(9.13971 0.00709291 0)
(9.05083 -0.000964745 0)
(8.9729 -0.00560447 0)
(8.9042 -0.00829239 0)
(8.84318 -0.00985359 0)
(8.78861 -0.0107583 0)
(8.73949 -0.0112752 0)
(8.695 -0.0115653 0)
(8.65443 -0.0117531 0)
(8.61693 -0.0119324 0)
(8.58212 -0.0124649 0)
(0.00473677 0.0138382 -3.54733e-20)
(0.0359154 -0.0298672 3.02126e-20)
(0.0788963 -0.0699368 0)
(0.141163 -0.102639 0)
(0.220677 -0.12549 0)
(0.301409 -0.129699 -3.00132e-20)
(0.380049 -0.117838 0)
(0.446675 -0.104028 0)
(0.505721 -0.0895339 0)
(0.555368 -0.0743465 0)
(0.593509 -0.058539 2.69558e-20)
(0.619816 -0.0421392 0)
(0.634213 -0.0151942 0)
(0.629933 0.0213609 0)
(0.608469 0.0408012 0)
(0.57437 0.0548538 2.53682e-20)
(0.527981 0.0727465 0)
(0.467851 0.0873145 0)
(0.406804 0.0846222 0)
(0.346124 0.0712851 0)
(0.283061 0.0640024 0)
(0.231933 0.0459632 0)
(0.183309 0.0331742 0)
(0.135043 0.0322829 2.81972e-20)
(0.0853843 0.0364248 -2.84034e-20)
(0.0250323 0.0471137 2.86414e-20)
(-0.0432518 0.0582363 2.82474e-20)
(-0.124951 0.0717991 0)
(-0.220242 0.0876557 0)
(-0.328967 0.104245 -2.51364e-20)
(-0.449541 0.119368 -2.41508e-20)
(-0.579149 0.131116 0)
(-0.714282 0.138442 0)
(-0.851305 0.141146 -2.1717e-20)
(-0.986877 0.139632 0)
(-1.11819 0.134661 0)
(-1.24311 0.12714 2.0163e-20)
(-1.36014 0.117969 0)
(-1.46845 0.107942 1.94925e-20)
(-1.5677 0.0977027 3.84593e-20)
(-1.65796 0.0877271 0)
(-1.73961 0.0783369 0)
(-1.81324 0.069723 0)
(-1.87953 0.0619747 0)
(-1.9392 0.0551078 0)
(-1.993 0.0490891 3.6277e-20)
(-2.04161 0.0438556 3.59831e-20)
(-2.08569 0.0393293 3.56941e-20)
(-2.12582 0.0354271 0)
(-2.1625 0.0320674 -3.51199e-20)
(-2.19619 0.0291739 0)
(-2.22727 0.0266775 3.45382e-20)
(-2.25609 0.0245172 3.42413e-20)
(-2.28292 0.02264 0)
(-2.308 0.021 0)
(-2.33153 0.0195583 0)
(-2.3537 0.0182817 3.29948e-20)
(-2.37462 0.0171421 0)
(-2.39443 0.0161159 0)
(-2.41321 0.015183 0)
(-2.43105 0.0143266 0)
(-2.44801 0.0135326 0)
(-2.46413 0.0127891 0)
(-2.47946 0.0120862 0)
(-2.49403 0.0114157 0)
(-2.50786 0.0107707 -2.97358e-20)
(-2.52096 0.0101458 0)
(-2.53334 0.00953635 0)
(-2.545 0.00893891 2.84867e-20)
(-2.55596 0.00835073 2.8051e-20)
(-2.5662 0.00776981 0)
(-2.57573 0.00719475 -2.71501e-20)
(-2.58453 0.00662469 2.66849e-20)
(-2.59262 0.00605919 0)
(-2.59997 0.00549807 -2.5725e-20)
(-2.60659 0.00494124 0)
(-2.61247 0.00438888 0)
(-2.61762 0.00384133 2.42133e-20)
(-2.62201 0.00329532 0)
(-2.62565 0.00274256 -2.31597e-20)
(-2.62853 0.00218144 0)
(-2.63059 0.00161547 2.20731e-20)
(-2.63181 0.00107533 2.1517e-20)
(-2.63233 0.000622976 2.09542e-20)
(-2.63221 0.00023774 4.07702e-20)
(-2.63151 -0.000101952 -3.96201e-20)
(-2.63025 -0.000405059 0)
(-2.62849 -0.000673618 0)
(-2.62627 -0.000908423 0)
(-2.62362 -0.00111106 -3.49274e-20)
(-2.6206 -0.00128243 -3.37384e-20)
(-2.61725 -0.00142242 3.25462e-20)
(-2.61361 -0.00153144 0)
(-2.60973 -0.00161075 -3.01587e-20)
(-2.60565 -0.00166206 -2.89667e-20)
(-2.60143 -0.00168774 -2.77781e-20)
(-2.5971 -0.00169075 0)
(-2.59271 -0.00167474 0)
(-2.58828 -0.00164412 0)
(-2.58386 -0.00160412 -2.30879e-20)
(-2.57945 -0.00156072 0)
(-2.57509 -0.00151977 0)
(-2.57078 -0.00148469 1.96731e-20)
(-2.56653 -0.00145394 0)
(-2.56235 -0.00142294 0)
(-2.55823 -0.00139178 1.63699e-20)
(-2.55418 -0.00137036 0)
(-2.55019 -0.00137325 0)
(-2.54621 -0.00141141 -1.31778e-20)
(-2.5422 -0.00149161 -1.21349e-20)
(-2.53808 -0.00162046 0)
(-2.53378 -0.00180534 1.00713e-20)
(-2.5292 -0.00205343 0)
(-2.52423 -0.00237179 -8.0208e-21)
(-2.51874 -0.00276763 0)
(-2.51258 -0.00324821 -5.95749e-21)
(-2.50561 -0.00382091 -4.9108e-21)
(-2.49763 -0.00449321 0)
(-2.48845 -0.00527266 0)
(-2.47786 -0.0061669 0)
(-2.46561 -0.0071836 0)
(-2.45147 -0.00833043 0)
(-2.43516 -0.00961503 0)
(-2.41637 -0.011045 0)
(-2.39481 -0.012628 4.58507e-21)
(-2.37014 -0.0143716 -6.02323e-21)
(-2.34201 -0.0162834 0)
(-2.31005 -0.0183713 0)
(-2.27387 -0.0206432 0)
(-2.23306 -0.0231072 0)
(-2.18719 -0.0257711 -2.94261e-20)
(-2.13582 -0.0286421 0)
(-2.07849 -0.0317272 3.8209e-20)
(-2.01471 -0.0350326 -4.30937e-20)
(-1.94402 -0.0385645 0)
(-1.8659 -0.0423277 0)
(-1.77987 -0.046325 0)
(-1.68542 -0.0505571 6.65513e-20)
(-1.58206 -0.0550229 7.35324e-20)
(-1.46931 -0.0597176 0)
(-1.34672 -0.0646302 8.902e-20)
(-1.21387 -0.0697437 9.75745e-20)
(-1.0704 -0.0750304 -1.06698e-19)
(-0.916008 -0.0804499 0)
(-0.75052 -0.0859275 0)
(-0.5739 -0.0913098 -1.37641e-19)
(-0.386268 -0.0963108 0)
(-0.187978 -0.100531 0)
(0.020588 -0.103472 0)
(0.239359 -0.1053 0)
(0.467332 -0.106426 1.76148e-19)
(0.703476 -0.106918 1.77939e-19)
(0.946466 -0.106739 0)
(1.19477 -0.10585 1.79482e-19)
(1.44663 -0.104226 0)
(1.70012 -0.101857 0)
(1.95315 -0.0987481 1.77011e-19)
(2.20353 -0.0949269 0)
(2.44902 -0.090436 1.72732e-19)
(2.6874 -0.0853343 0)
(2.91651 -0.0796936 0)
(3.13429 -0.0735952 1.63835e-19)
(3.33888 -0.0671267 0)
(3.52856 -0.0603788 1.57247e-19)
(3.70187 -0.0534378 0)
(3.85754 -0.0463719 0)
(3.99452 -0.0392425 0)
(4.11196 -0.0322207 -1.45368e-19)
(4.20945 -0.0255564 0)
(4.28701 -0.0183721 1.41115e-19)
(4.34172 -0.00765343 0)
(4.36034 0.00572314 0)
(4.34166 0.0180733 0)
(4.29255 0.0276494 0)
(4.2179 0.0347083 0)
(4.11984 0.0403237 0)
(3.99927 0.0460628 0)
(3.84607 0.0532486 -2.8694e-19)
(3.67171 0.0691269 0)
(3.34601 0.0819336 0)
(0.0429755 -0.0822229 1.0556e-19)
(0.109853 -0.149331 -9.01874e-20)
(0.18215 -0.184978 0)
(0.250968 -0.208492 5.01521e-20)
(0.310331 -0.217286 0)
(0.360174 -0.21339 2.25581e-20)
(0.40254 -0.19684 -4.41382e-20)
(0.438891 -0.172261 -4.32528e-20)
(0.46891 -0.143594 0)
(0.491715 -0.112624 -4.2407e-20)
(0.506751 -0.0800932 -2.10374e-20)
(0.513654 -0.0462734 0)
(0.512778 -0.0109511 0)
(0.507253 0.0255951 0)
(0.496501 0.0620245 0)
(0.476167 0.096854 -2.13705e-20)
(0.446022 0.126366 0)
(0.405947 0.148657 4.30127e-20)
(0.355856 0.160723 0)
(0.294211 0.166766 0)
(0.223527 0.163329 -4.28351e-20)
(0.14486 0.157979 0)
(0.0564997 0.158164 4.37408e-20)
(-0.0384005 0.165326 -2.16472e-20)
(-0.141212 0.182883 2.07917e-20)
(-0.252462 0.207175 -1.99249e-20)
(-0.372533 0.235573 -1.91266e-20)
(-0.500989 0.265437 0)
(-0.635432 0.293363 0)
(-0.772576 0.316161 1.7015e-20)
(-0.908832 0.331423 -1.62474e-20)
(-1.04087 0.337988 0)
(-1.16602 0.335961 0)
(-1.28242 0.3264 1.50455e-20)
(-1.38902 0.310893 0)
(-1.48552 0.291202 0)
(-1.57217 0.269007 -1.4208e-20)
(-1.64959 0.245749 0)
(-1.71864 0.22257 1.38246e-20)
(-1.78026 0.2003 -2.73551e-20)
(-1.83538 0.179486 0)
(-1.88488 0.160443 0)
(-1.92954 0.143306 -5.30354e-20)
(-1.97004 0.128076 -5.25478e-20)
(-2.00695 0.114668 -5.20789e-20)
(-2.04076 0.102944 2.57492e-20)
(-2.07188 0.0927383 -2.56551e-20)
(-2.10064 0.0838764 -7.61786e-20)
(-2.12734 0.0761878 5.03068e-20)
(-2.1522 0.0695128 2.50056e-20)
(-2.17544 0.0637063 0)
(-2.19722 0.0586393 -2.45706e-20)
(-2.21769 0.0541989 2.42215e-20)
(-2.23697 0.0502873 0)
(-2.25515 0.0468206 0)
(-2.27233 0.0437268 0)
(-2.28858 0.0409448 -2.34385e-20)
(-2.30395 0.0384226 0)
(-2.31849 0.0361159 4.58164e-20)
(-2.33225 0.0339874 0)
(-2.34526 0.0320056 4.48263e-20)
(-2.35753 0.0301437 0)
(-2.36909 0.0283794 -4.37916e-20)
(-2.37994 0.026694 0)
(-2.39011 0.0250718 4.27081e-20)
(-2.39958 0.0235 -2.10437e-20)
(-2.40837 0.0219684 0)
(-2.41646 0.0204685 -4.09844e-20)
(-2.42387 0.0189938 -2.02122e-20)
(-2.43058 0.0175397 -1.99012e-20)
(-2.43659 0.0161026 0)
(-2.44189 0.0146806 -1.92332e-20)
(-2.44649 0.0132726 -1.89253e-20)
(-2.45037 0.0118787 0)
(-2.45353 0.0104995 1.8239e-20)
(-2.45598 0.00913648 -3.57682e-20)
(-2.45771 0.00779149 0)
(-2.45872 0.00646636 -1.71572e-20)
(-2.45905 0.00516479 0)
(-2.45869 0.00389202 4.92211e-20)
(-2.45767 0.00264038 0)
(-2.45608 0.00141424 -4.68894e-20)
(-2.45396 0.000241527 -1.52244e-20)
(-2.45124 -0.000836811 1.4854e-20)
(-2.44792 -0.00182299 2.89034e-20)
(-2.44403 -0.00272707 -2.80909e-20)
(-2.43959 -0.00355338 0)
(-2.43463 -0.00430288 0)
(-2.42918 -0.00497497 0)
(-2.42329 -0.00556886 7.41548e-20)
(-2.417 -0.00608407 2.38475e-20)
(-2.41037 -0.00652041 -2.30057e-20)
(-2.40343 -0.00687838 0)
(-2.39623 -0.00715944 -2.14185e-20)
(-2.38884 -0.00736612 2.04846e-20)
(-2.38128 -0.00750215 1.96492e-20)
(-2.37362 -0.00757252 0)
(-2.3659 -0.00758351 0)
(-2.35817 -0.00754275 0)
(-2.35046 -0.00745898 1.6359e-20)
(-2.34281 -0.00734162 0)
(-2.33525 -0.00719989 -2.95926e-20)
(-2.32782 -0.00704198 -4.19785e-20)
(-2.32053 -0.00687424 2.6449e-20)
(-2.31339 -0.00670185 0)
(-2.30642 -0.00653211 1.17255e-20)
(-2.29959 -0.00637867 0)
(-2.2929 -0.00626148 2.03704e-20)
(-2.28632 -0.00620181 -9.48456e-21)
(-2.27979 -0.00621859 -8.75297e-21)
(-2.27327 -0.00632905 0)
(-2.26667 -0.00655021 -2.1732e-20)
(-2.25991 -0.00689898 1.30741e-20)
(-2.25288 -0.00739211 5.75775e-21)
(-2.24546 -0.00804638 0)
(-2.23752 -0.00887857 4.28667e-21)
(-2.22888 -0.00990543 1.07718e-20)
(-2.21938 -0.0111437 0)
(-2.20882 -0.0126102 4.192e-21)
(-2.19699 -0.0143214 2.6137e-21)
(-2.18365 -0.0162937 9.85175e-22)
(-2.16856 -0.0185432 0)
(-2.15142 -0.0210856 0)
(-2.13196 -0.0239359 0)
(-2.10986 -0.0271086 2.91461e-21)
(-2.08478 -0.0306174 4.3729e-21)
(-2.05636 -0.0344752 0)
(-2.02423 -0.0386943 1.27495e-20)
(-1.988 -0.0432863 1.5198e-20)
(-1.94726 -0.0482625 0)
(-1.90157 -0.0536322 2.13614e-20)
(-1.85048 -0.0594029 4.71797e-20)
(-1.79353 -0.0655793 -2.76956e-20)
(-1.73025 -0.0721639 -2.92225e-20)
(-1.66014 -0.0791568 0)
(-1.58272 -0.0865555 0)
(-1.49748 -0.0943516 0)
(-1.40394 -0.10253 -4.78277e-20)
(-1.3016 -0.111071 4.97847e-20)
(-1.19 -0.119949 1.12652e-19)
(-1.0687 -0.129123 -6.33976e-20)
(-0.937275 -0.138546 6.56615e-20)
(-0.795388 -0.148156 7.53933e-20)
(-0.642744 -0.157877 0)
(-0.47915 -0.167614 0)
(-0.304511 -0.177241 -9.14285e-20)
(-0.118844 -0.186581 0)
(0.0778248 -0.195393 0)
(0.285326 -0.203268 2.2092e-19)
(0.502896 -0.210022 0)
(0.729756 -0.21563 1.1523e-19)
(0.965005 -0.219998 -1.22912e-19)
(1.20742 -0.222969 0)
(1.45555 -0.224393 1.23204e-19)
(1.70771 -0.224145 0)
(1.96204 -0.222137 0)
(2.21653 -0.218321 -1.31261e-19)
(2.46908 -0.2127 2.59693e-19)
(2.71752 -0.205324 -1.31618e-19)
(2.95973 -0.196286 0)
(3.19362 -0.18572 0)
(3.41724 -0.173795 1.27204e-19)
(3.62877 -0.1607 0)
(3.82662 -0.146641 1.25473e-19)
(4.00937 -0.131827 0)
(4.17587 -0.116458 0)
(4.32518 -0.100726 0)
(4.45662 -0.084849 1.22788e-19)
(4.56959 -0.0689751 0)
(4.66327 -0.0524749 -1.21257e-19)
(4.73844 -0.0335429 0)
(4.8039 -0.0129393 0)
(4.85943 0.00690687 2.40469e-19)
(4.89851 0.0248921 -2.40323e-19)
(4.91769 0.0412593 0)
(4.91505 0.0569851 0)
(4.8908 0.0740541 0)
(4.83928 0.0941496 7.41177e-19)
(4.77299 0.128517 0)
(4.64025 0.167967 -5.09353e-19)
(0.0498059 -0.26385 4.02272e-22)
(0.115881 -0.347962 1.13349e-19)
(0.180979 -0.357079 0)
(0.236757 -0.345415 -9.06443e-20)
(0.280634 -0.323288 0)
(0.314141 -0.293688 0)
(0.339615 -0.258348 -2.54239e-22)
(0.358695 -0.219068 3.74676e-20)
(0.371944 -0.177151 3.7065e-20)
(0.379364 -0.133335 3.65227e-20)
(0.380806 -0.0880129 0)
(0.376109 -0.041393 0)
(0.365269 0.00649885 -3.6938e-20)
(0.348576 0.0553339 -7.40611e-20)
(0.326064 0.104197 7.44472e-20)
(0.297364 0.15216 0)
(0.262063 0.19746 7.5612e-20)
(0.219271 0.237211 -3.79361e-20)
(0.167734 0.268614 0)
(0.105823 0.291565 7.65197e-20)
(0.0327819 0.307462 3.81493e-20)
(-0.0521449 0.320463 -7.46361e-20)
(-0.148525 0.336184 -3.56802e-20)
(-0.254603 0.358227 0)
(-0.368573 0.387423 6.50805e-20)
(-0.48802 0.421275 6.23152e-20)
(-0.610474 0.456058 0)
(-0.732941 0.487464 5.75552e-20)
(-0.852222 0.511494 0)
(-0.965517 0.525309 5.36681e-20)
(-1.07086 0.527632 2.58352e-20)
(-1.16727 0.518741 0)
(-1.25465 0.500113 0)
(-1.33351 0.473923 0)
(-1.40472 0.442565 0)
(-1.46925 0.408302 0)
(-1.52805 0.373061 0)
(-1.58196 0.338342 4.42858e-20)
(-1.63166 0.305216 -6.52626e-20)
(-1.67768 0.27437 0)
(-1.72044 0.246179 0)
(-1.76026 0.220777 0)
(-1.79742 0.198135 1.45232e-23)
(-1.83211 0.178109 4.07051e-20)
(-1.86452 0.160496 8.04449e-20)
(-1.89483 0.145058 -7.95582e-20)
(-1.92318 0.131551 -3.93142e-20)
(-1.94971 0.119739 3.89807e-20)
(-1.97457 0.109401 -8.56681e-23)
(-1.99787 0.100333 3.80998e-20)
(-2.01975 0.0923574 0)
(-2.04029 0.085315 3.73288e-20)
(-2.0596 0.0790675 -8.39818e-23)
(-2.07778 0.0734949 0)
(-2.09489 0.0684934 0)
(-2.11101 0.0639739 -3.58104e-20)
(-2.12619 0.0598595 0)
(-2.14049 0.0560845 0)
(-2.15396 0.0525926 3.45872e-20)
(-2.16662 0.0493356 6.85091e-20)
(-2.1785 0.0462728 -3.39077e-20)
(-2.18963 0.0433692 0)
(-2.20002 0.0405958 3.30749e-20)
(-2.20969 0.0379278 0)
(-2.21864 0.0353448 3.21346e-20)
(-2.22687 0.0328302 3.17661e-20)
(-2.2344 0.0303703 -6.25651e-20)
(-2.24122 0.0279546 -3.0798e-20)
(-2.24732 0.0255749 0)
(-2.2527 0.0232255 5.97524e-20)
(-2.25735 0.0209027 0)
(-2.26128 0.0186045 8.66753e-20)
(-2.26448 0.0163309 5.67592e-20)
(-2.26693 0.0140831 5.57206e-20)
(-2.26865 0.0118638 -5.46614e-20)
(-2.26962 0.00967724 8.03672e-20)
(-2.26986 0.00752866 0)
(-2.26936 0.00542309 0)
(-2.26813 0.00336677 -5.02169e-20)
(-2.26618 0.00137233 -7.35633e-20)
(-2.26355 -0.000552717 0)
(-2.26023 -0.00239691 2.33198e-20)
(-2.25626 -0.00414734 0)
(-2.25163 -0.00580381 -6.63796e-20)
(-2.24638 -0.00735726 6.27354e-23)
(-2.24051 -0.00879987 -6.62427e-23)
(-2.23407 -0.0101265 4.05704e-20)
(-2.22708 -0.0113326 0)
(-2.21958 -0.0124141 -3.8065e-20)
(-2.21161 -0.0133679 7.5306e-23)
(-2.20322 -0.0141918 0)
(-2.19446 -0.0148847 0)
(-2.18537 -0.0154469 0)
(-2.17601 -0.0158802 3.16864e-20)
(-2.16642 -0.0161882 0)
(-2.15666 -0.0163762 0)
(-2.14678 -0.0164513 0)
(-2.13683 -0.0164228 0)
(-2.12686 -0.0163015 0)
(-2.11692 -0.0160998 2.43602e-20)
(-2.10704 -0.0158313 0)
(-2.09727 -0.0155101 2.19123e-20)
(-2.08763 -0.0151503 2.07434e-20)
(-2.07816 -0.0147653 -1.95883e-20)
(-2.06887 -0.0143694 0)
(-2.05977 -0.0139804 -1.73192e-20)
(-2.05086 -0.0136213 0)
(-2.04212 -0.0133202 -1.51018e-20)
(-2.03352 -0.0131067 1.40101e-20)
(-2.02503 -0.01301 3.8935e-20)
(-2.0166 -0.0130582 0)
(-2.00817 -0.0132793 3.25244e-20)
(-1.99964 -0.0137015 9.90652e-21)
(-1.99093 -0.0143526 0)
(-1.98192 -0.0152605 1.53769e-20)
(-1.97247 -0.016453 1.32358e-20)
(-1.96245 -0.0179579 -1.6459e-20)
(-1.95167 -0.0198028 0)
(-1.93996 -0.0220151 -3.12716e-21)
(-1.9271 -0.0246219 -1.95114e-21)
(-1.91288 -0.0276498 -2.66695e-21)
(-1.89704 -0.031125 0)
(-1.87931 -0.0350727 0)
(-1.85942 -0.0395171 0)
(-1.83705 -0.0444811 3.96781e-21)
(-1.81187 -0.0499863 0)
(-1.78354 -0.0560525 0)
(-1.75169 -0.0626982 -9.56581e-21)
(-1.71593 -0.0699405 -1.14082e-20)
(-1.67585 -0.0777949 0)
(-1.63103 -0.0862741 0)
(-1.58103 -0.0953873 -3.54498e-20)
(-1.52539 -0.105139 0)
(-1.46364 -0.115528 4.54123e-20)
(-1.3953 -0.12655 4.91865e-20)
(-1.31988 -0.138196 0)
(-1.23689 -0.150447 0)
(-1.14584 -0.163272 -6.76469e-20)
(-1.04625 -0.176632 -2.30345e-21)
(-0.937646 -0.190477 -2.45582e-21)
(-0.819592 -0.204737 0)
(-0.69168 -0.219326 -1.99329e-19)
(-0.553551 -0.234138 0)
(-0.404903 -0.249043 0)
(-0.245523 -0.263885 0)
(-0.0752712 -0.278494 1.39198e-19)
(0.105923 -0.292688 0)
(0.298061 -0.306246 -3.02878e-19)
(0.500802 -0.318902 -1.62058e-19)
(0.713538 -0.330334 0)
(0.935519 -0.340198 -1.75271e-19)
(1.16581 -0.348196 0)
(1.40323 -0.354043 0)
(1.64635 -0.357477 -5.68181e-19)
(1.89355 -0.35828 3.85448e-19)
(2.14302 -0.356288 0)
(2.3928 -0.35141 3.99668e-19)
(2.64083 -0.343624 -2.05283e-19)
(2.88504 -0.332992 0)
(3.12332 -0.319645 0)
(3.35366 -0.303784 0)
(3.57417 -0.285663 -6.26132e-19)
(3.78308 -0.26558 0)
(3.97886 -0.24386 -2.10224e-19)
(4.16016 -0.220838 0)
(4.32589 -0.196844 0)
(4.47521 -0.172203 0)
(4.60748 -0.14721 0)
(4.72224 -0.122027 0)
(4.81924 -0.096583 0)
(4.89904 -0.0709336 -4.19956e-19)
(4.96397 -0.0450943 0)
(5.0157 -0.0192417 -2.13607e-19)
(5.05399 0.00613591 6.43271e-19)
(5.07781 0.0309035 0)
(5.08608 0.0555666 0)
(5.07863 0.0819209 -4.409e-19)
(5.05265 0.112025 -4.48985e-19)
(5.01508 0.155662 4.54246e-19)
(4.9523 0.213173 4.65041e-19)
(0.0429045 -0.413793 -1.94662e-19)
(0.0945551 -0.477691 -1.62061e-19)
(0.137771 -0.45886 -9.45929e-20)
(0.173758 -0.424596 -4.29937e-20)
(0.201788 -0.383996 0)
(0.222571 -0.339132 7.47141e-20)
(0.23712 -0.29087 -3.60401e-20)
(0.24612 -0.239881 0)
(0.249866 -0.18669 -3.40024e-20)
(0.2484 -0.13167 0)
(0.241637 -0.0750963 6.74095e-20)
(0.229446 -0.017202 0)
(0.211709 0.0417625 3.37484e-20)
(0.188327 0.101441 6.76981e-20)
(0.159171 0.161265 -6.81743e-20)
(0.124092 0.220392 0)
(0.0828191 0.277448 -6.94957e-20)
(0.0347981 0.330531 0)
(-0.020922 0.377771 0)
(-0.0855051 0.41849 -6.80891e-20)
(-0.159842 0.453669 0)
(-0.244239 0.486055 -2.58795e-22)
(-0.337822 0.51873 0)
(-0.438517 0.553381 0)
(-0.543405 0.589512 3.27739e-22)
(-0.649212 0.624485 -5.28771e-20)
(-0.752749 0.654573 -5.11891e-20)
(-0.851227 0.676093 -4.88663e-20)
(-0.942627 0.686366 0)
(-1.02591 0.684256 -9.16579e-20)
(-1.10098 0.670191 0)
(-1.16846 0.645796 -4.33837e-20)
(-1.22937 0.613383 0)
(-1.28487 0.575456 0)
(-1.33601 0.534368 4.01107e-20)
(-1.38367 0.492117 0)
(-1.42849 0.450272 -3.83718e-20)
(-1.47092 0.409976 2.50848e-22)
(-1.51124 0.371998 7.36423e-20)
(-1.54961 0.336796 -7.25763e-20)
(-1.58613 0.304589 0)
(-1.62085 0.275419 0)
(-1.65379 0.249205 -3.4726e-20)
(-1.68498 0.225785 0)
(-1.71447 0.20495 -3.37326e-20)
(-1.7423 0.186466 3.33289e-20)
(-1.76854 0.170092 3.29413e-20)
(-1.79324 0.155595 0)
(-1.81648 0.142752 -3.22035e-20)
(-1.83834 0.131357 -3.18486e-20)
(-1.8589 0.121222 6.29475e-20)
(-1.87824 0.112178 -3.11576e-20)
(-1.89641 0.104076 -3.08183e-20)
(-1.91351 0.096782 0)
(-1.92958 0.090179 0)
(-1.94468 0.0841645 2.98095e-20)
(-1.95887 0.078649 0)
(-1.97218 0.0735544 0)
(-1.98465 0.0688133 -5.75861e-20)
(-1.99631 0.0643672 -5.6897e-20)
(-2.00719 0.060166 0)
(-2.01731 0.0561667 0)
(-2.02668 0.0523329 0)
(-2.0353 0.0486337 0)
(-2.04319 0.0450435 -5.33078e-20)