/*--------------------------------*- C++ -*----------------------------------*\
  =========                 |
  \\      /  F ield         | OpenFOAM: The Open Source CFD Toolbox
   \\    /   O peration     | Website:  https://openfoam.org
    \\  /    A nd           | Version:  9
     \\/     M anipulation  |
\*---------------------------------------------------------------------------*/
FoamFile
{
    format      ascii;
    class       volScalarField;
    location    "0.15";
    object      k;
}
// * * * * * * * * * * * * * * * * * * * * * * * * * * * * * * * * * * * * * //

dimensions      [0 2 -2 0 0 0 0];

internalField   nonuniform List<scalar> 
12225
(
0.353921
0.335043
0.316966
0.300961
0.288126
0.278907
0.273299
0.271005
0.27157
0.274475
0.279209
0.285301
0.292345
0.300006
0.308028
0.316199
0.324567
0.336692
0.436864
0.448979
0.438085
0.433063
0.438791
0.453592
0.47481
0.499995
0.527159
0.554818
0.581943
0.607869
0.63222
0.65482
0.675781
0.695
0.714601
0.729954
0.395187
0.410873
0.410631
0.405747
0.402011
0.400925
0.402617
0.406811
0.413088
0.420987
0.430077
0.439978
0.45038
0.461039
0.471818
0.482608
0.493705
0.504469
0.379641
0.38484
0.386546
0.38573
0.383905
0.382027
0.380568
0.37974
0.379607
0.38015
0.381305
0.382991
0.385126
0.387635
0.390466
0.393586
0.397017
0.400656
0.374976
0.3759
0.376239
0.375721
0.37457
0.373084
0.371496
0.369967
0.368593
0.367426
0.366485
0.36577
0.36527
0.364972
0.364862
0.364933
0.36518
0.365573
0.373488
0.372555
0.371759
0.370807
0.369631
0.368275
0.366809
0.3653
0.363803
0.362358
0.36099
0.359713
0.358537
0.357462
0.35649
0.355619
0.354851
0.354178
0.373012
0.371296
0.369813
0.368416
0.367025
0.36561
0.364168
0.362711
0.361257
0.359823
0.358424
0.357071
0.355772
0.354532
0.353353
0.352239
0.351191
0.350217
0.372865
0.370838
0.369004
0.36731
0.365711
0.364174
0.362679
0.361215
0.359782
0.35838
0.357014
0.355686
0.3544
0.353159
0.351965
0.35082
0.349726
0.348694
0.37282
0.37068
0.368691
0.366836
0.365095
0.363448
0.361879
0.360375
0.358927
0.35753
0.356181
0.354878
0.35362
0.352407
0.351238
0.350115
0.349038
0.34802
0.372806
0.370628
0.368578
0.366648
0.364828
0.36311
0.361482
0.359933
0.358456
0.357044
0.355692
0.354395
0.353151
0.351956
0.350809
0.349709
0.348656
0.34766
0.372801
0.370609
0.368537
0.366576
0.36472
0.362964
0.361299
0.359718
0.358215
0.356784
0.355419
0.354117
0.352872
0.351682
0.350545
0.349457
0.348417
0.347437
0.372799
0.370602
0.368522
0.36655
0.36468
0.362907
0.361224
0.359627
0.358108
0.356663
0.355288
0.353977
0.352727
0.351535
0.350398
0.349312
0.348277
0.347301
0.372797
0.370599
0.368514
0.366537
0.36466
0.362879
0.361188
0.359581
0.358053
0.356599
0.355215
0.353898
0.352643
0.351447
0.350306
0.349219
0.348183
0.347208
0.372796
0.370596
0.368509
0.366528
0.364649
0.362864
0.361167
0.359555
0.358021
0.356562
0.355173
0.353851
0.352591
0.35139
0.350246
0.349156
0.348117
0.34714
0.372795
0.370593
0.368505
0.366523
0.364641
0.362853
0.361154
0.359539
0.358002
0.35654
0.355148
0.353822
0.352559
0.351356
0.350209
0.349115
0.348073
0.347093
0.372794
0.370592
0.368502
0.366518
0.364634
0.362845
0.361144
0.359527
0.357989
0.356525
0.355131
0.353803
0.352538
0.351333
0.350183
0.349088
0.348044
0.347061
0.372794
0.37059
0.368499
0.366515
0.36463
0.362839
0.361137
0.359519
0.357979
0.356513
0.355118
0.353789
0.352523
0.351316
0.350165
0.349067
0.348022
0.347037
0.372794
0.370589
0.368498
0.366512
0.364627
0.362835
0.361132
0.359513
0.357972
0.356506
0.355109
0.353779
0.352512
0.351303
0.350151
0.349053
0.348006
0.34702
0.372793
0.370589
0.368497
0.366512
0.364626
0.362834
0.361131
0.359511
0.35797
0.356503
0.355106
0.353775
0.352507
0.351298
0.350145
0.349045
0.347998
0.347011
0.372794
0.37059
0.368498
0.366513
0.364628
0.362836
0.361133
0.359514
0.357973
0.356506
0.35511
0.353779
0.352511
0.351302
0.35015
0.34905
0.348003
0.347016
0.372794
0.370591
0.3685
0.366516
0.364632
0.362841
0.36114
0.359522
0.357983
0.356517
0.355122
0.353793
0.352527
0.35132
0.350168
0.34907
0.348024
0.347039
0.372795
0.370593
0.368504
0.366522
0.364641
0.362855
0.361159
0.359546
0.358012
0.356553
0.355163
0.35384
0.352579
0.351376
0.350229
0.349135
0.348092
0.34711
0.372796
0.370598
0.368518
0.366547
0.364681
0.362913
0.361235
0.359642
0.358127
0.356685
0.355312
0.354002
0.352751
0.351557
0.350416
0.349325
0.348283
0.3473
0.372804
0.370631
0.368592
0.366676
0.364872
0.363167
0.361548
0.360006
0.358532
0.357121
0.355767
0.354468
0.35322
0.35202
0.350869
0.349763
0.348702
0.347698
0.372856
0.370818
0.368973
0.367264
0.365645
0.364085
0.362567
0.361083
0.359631
0.358214
0.356833
0.355493
0.354197
0.352947
0.351744
0.350591
0.349487
0.348446
0.373166
0.37177
0.370579
0.369371
0.368049
0.366605
0.365072
0.363492
0.361906
0.360343
0.358826
0.357372
0.355991
0.354689
0.353468
0.352329
0.351272
0.350303
0.374797
0.375829
0.376175
0.375401
0.373834
0.371876
0.369792
0.36774
0.365814
0.364066
0.362524
0.361194
0.360075
0.359155
0.358423
0.357862
0.357455
0.357187
0.382729
0.39167
0.392375
0.388805
0.384384
0.380403
0.377247
0.374997
0.37362
0.373036
0.37315
0.373862
0.375078
0.37671
0.378678
0.380912
0.383353
0.385932
0.407499
0.414514
0.405423
0.395992
0.390554
0.389289
0.391452
0.39621
0.402828
0.410715
0.419419
0.428601
0.438006
0.447446
0.456785
0.465929
0.474833
0.48341
0.360554
0.347547
0.334933
0.322917
0.311965
0.302353
0.29419
0.28747
0.282114
0.278003
0.274999
0.272964
0.271763
0.27127
0.271371
0.271966
0.272967
0.274292
0.0015461
0.00742833
0.0118894
0.0160197
0.0205226
0.025562
0.0312291
0.0376171
0.0444156
0.0512908
0.058186
0.0650281
0.0717538
0.0783154
0.0846793
0.0908218
0.0967253
0.102374
0.107752
0.11284
0.117615
0.122054
0.126132
0.129831
0.133138
0.13604
0.138499
0.140406
0.141508
0.14138
0.139887
0.140549
0.141724
0.141219
0.143835
0.142623
0.142579
0.1427
0.143446
0.144246
0.144558
0.148635
0.154931
0.161559
0.168419
0.175482
0.182734
0.190166
0.197772
0.20555
0.213496
0.221609
0.229887
0.238328
0.246932
0.255695
0.264617
0.273693
0.282923
0.292303
0.301828
0.311496
0.321303
0.331242
0.341311
0.351502
0.361811
0.372232
0.382757
0.393381
0.404096
0.414894
0.425769
0.436712
0.447715
0.458771
0.469869
0.481002
0.492161
0.503337
0.514521
0.525703
0.536875
0.548026
0.559148
0.570231
0.581266
0.592242
0.603149
0.613978
0.624718
0.635359
0.64589
0.656303
0.666586
0.676735
0.686746
0.696626
0.706396
0.71611
0.725617
0.734904
0.743972
0.752814
0.761418
0.769776
0.777874
0.785703
0.793252
0.800509
0.807466
0.814112
0.820438
0.826435
0.832095
0.83741
0.842372
0.846975
0.851213
0.85508
0.858571
0.861682
0.864409
0.866749
0.868699
0.870257
0.871423
0.872196
0.872576
0.872563
0.872161
0.87137
0.870195
0.868638
0.866704
0.864398
0.861726
0.858693
0.855308
0.851578
0.84751
0.843114
0.838398
0.833372
0.828048
0.822434
0.816544
0.810387
0.803976
0.797323
0.790441
0.783342
0.776039
0.768545
0.760873
0.753039
0.745053
0.736928
0.728685
0.72032
0.711876
0.703339
0.694747
0.686181
0.678079
0.673453
0.66984
0.666257
0.662655
0.659035
0.655397
0.651741
0.648059
0.64433
0.640508
0.636492
0.632049
0.626579
0.618566
0.601783
0.00500506
0.0178499
0.0261785
0.0329544
0.0392062
0.0453754
0.0517709
0.0584913
0.0654894
0.0726577
0.0798969
0.0871238
0.0942745
0.101304
0.108183
0.114892
0.121419
0.127758
0.133903
0.139847
0.145585
0.151116
0.156443
0.161576
0.166536
0.17134
0.175994
0.180473
0.184763
0.189014
0.19374
0.199038
0.204609
0.210185
0.216712
0.224066
0.23095
0.239176
0.248335
0.258501
0.270102
0.281597
0.292779
0.303955
0.315494
0.327401
0.339653
0.352234
0.365134
0.378348
0.391876
0.405714
0.419865
0.434326
0.449099
0.464182
0.479577
0.49528
0.511292
0.527609
0.54423
0.561151
0.578369
0.595878
0.613673
0.63175
0.6501
0.668718
0.687595
0.706722
0.72609
0.74569
0.76551
0.785541
0.805769
0.826183
0.846771
0.867518
0.888413
0.909439
0.930584
0.951833
0.97317
0.994581
1.01605
1.03756
1.0591
1.08065
1.10219
1.12371
1.14519
1.16662
1.18797
1.20923
1.23038
1.2514
1.27228
1.29298
1.31348
1.33353
1.35326
1.37271
1.39187
1.41072
1.42923
1.44739
1.46518
1.48257
1.49953
1.51606
1.53212
1.54769
1.56277
1.57732
1.59133
1.60478
1.61765
1.62993
1.6416
1.65265
1.66306
1.67282
1.68192
1.69034
1.69809
1.70514
1.7115
1.71715
1.7221
1.72633
1.72985
1.73265
1.73474
1.73611
1.73677
1.73673
1.73598
1.73454
1.73241
1.7296
1.72613
1.722
1.71722
1.71181
1.70579
1.69917
1.69196
1.68419
1.67588
1.66704
1.65769
1.64785
1.63755
1.62682
1.61565
1.6041
1.59218
1.5799
1.56732
1.5544
1.54126
1.52783
1.51418
1.50049
1.48681
1.47367
1.46068
1.44765
1.43455
1.42142
1.40825
1.39507
1.38188
1.36868
1.35545
1.34215
1.32866
1.31484
1.29947
1.27967
0.00950576
0.0282231
0.0389721
0.0470966
0.0542967
0.0612413
0.0682384
0.0754179
0.0827977
0.0903334
0.0979577
0.105604
0.113216
0.120756
0.128199
0.135531
0.142751
0.149859
0.156862
0.163771
0.170601
0.17737
0.184106
0.190845
0.197632
0.204515
0.211541
0.218758
0.226232
0.234082
0.242439
0.251272
0.260566
0.270336
0.280746
0.291754
0.303284
0.31549
0.328335
0.341768
0.355722
0.37001
0.384534
0.39935
0.414544
0.430144
0.446151
0.46256
0.479367
0.496569
0.514164
0.532151
0.550529
0.569297
0.588454
0.607998
0.627928
0.648242
0.668936
0.690008
0.711454
0.733268
0.755445
0.777979
0.800863
0.824089
0.847649
0.871532
0.895729
0.920229
0.945019
0.970088
0.995421
1.021
1.04682
1.07287
1.09911
1.12554
1.15215
1.1789
1.20579
1.2328
1.25991
1.2871
1.31434
1.34162
1.36893
1.39623
1.42352
1.45076
1.47795
1.50505
1.53205
1.55892
1.58566
1.61223
1.63863
1.66482
1.69071
1.71624
1.74143
1.76626
1.79073
1.8148
1.83844
1.86163
1.88433
1.90653
1.92818
1.94927
1.96976
1.98964
2.00886
2.02741
2.04527
2.06241
2.0788
2.09444
2.10929
2.12333
2.13656
2.14896
2.1605
2.17118
2.18098
2.1899
2.19792
2.20503
2.21124
2.21653
2.22091
2.22436
2.2269
2.22852
2.22923
2.22903
2.22793
2.22594
2.22307
2.21933
2.21473
2.20929
2.20302
2.19595
2.18809
2.17945
2.17008
2.15997
2.14917
2.13769
2.12556
2.11281
2.09946
2.08555
2.0711
2.05614
2.04071
2.02482
2.00854
1.99181
1.97483
1.95757
1.94007
1.9224
1.90468
1.88714
1.86964
1.85209
1.83447
1.81681
1.79913
1.78145
1.7638
1.7462
1.72868
1.71125
1.69391
1.67675
1.65925
1.64111
0.0144888
0.0377159
0.0503321
0.0595552
0.0675575
0.0751057
0.0825578
0.0900865
0.0977561
0.105566
0.113482
0.121458
0.129453
0.137435
0.145386
0.153296
0.161168
0.169012
0.176843
0.184683
0.192558
0.200499
0.208546
0.216744
0.225143
0.233795
0.242751
0.252061
0.26178
0.271972
0.282693
0.293961
0.305775
0.318144
0.331097
0.344638
0.358757
0.373452
0.388706
0.404486
0.420745
0.437431
0.454504
0.471966
0.489842
0.508149
0.526896
0.546088
0.565724
0.585808
0.606338
0.627316
0.648741
0.670613
0.692933
0.715699
0.73891
0.762564
0.786659
0.811191
0.836157
0.861551
0.887368
0.913602
0.940245
0.967288
0.994723
1.02254
1.05072
1.07927
1.10815
1.13737
1.1669
1.19672
1.22683
1.25721
1.28782
1.31867
1.34971
1.38094
1.41234
1.44387
1.47553
1.50728
1.5391
1.57097
1.60287
1.63477
1.66665
1.69849
1.73026
1.76193
1.79349
1.82491
1.85617
1.88725
1.91812
1.94875
1.979
2.00888
2.03837
2.06745
2.09609
2.12426
2.15192
2.17904
2.20559
2.23154
2.25684
2.28147
2.30539
2.32857
2.35099
2.37261
2.3934
2.41333
2.43239
2.45055
2.46777
2.48404
2.49935
2.51366
2.52697
2.53925
2.5505
2.5607
2.56984
2.57791
2.58491
2.59083
2.59567
2.59942
2.60209
2.60368
2.6042
2.60365
2.60204
2.59939
2.59569
2.59098
2.58526
2.57855
2.57087
2.56225
2.5527
2.54225
2.53093
2.51876
2.50577
2.49199
2.47746
2.46219
2.44623
2.42962
2.41236
2.39453
2.37614
2.35719
2.33785
2.31808
2.29796
2.27751
2.25678
2.23584
2.21478
2.19373
2.17267
2.15154
2.13035
2.10913
2.0879
2.0667
2.04559
2.02459
2.00379
1.98326
1.96311
1.94358
1.92452
1.90618
0.019234
0.0460838
0.0602945
0.0705487
0.0792796
0.0873556
0.0951902
0.102999
0.110887
0.118891
0.127009
0.13522
0.1435
0.151826
0.160186
0.168577
0.177006
0.185486
0.194039
0.202692
0.211477
0.220431
0.229597
0.23902
0.248749
0.258832
0.269315
0.280242
0.291652
0.303585
0.316073
0.329131
0.342766
0.35698
0.371776
0.387152
0.4031
0.419608
0.436661
0.45424
0.472322
0.490883
0.509905
0.529385
0.549331
0.56975
0.590653
0.612043
0.633926
0.656305
0.679184
0.702564
0.726449
0.750839
0.775736
0.80114
0.827052
0.85347
0.880393
0.907819
0.935744
0.964165
0.993076
1.02247
1.05234
1.08268
1.11348
1.14473
1.17641
1.20851
1.24102
1.27393
1.3072
1.34084
1.37481
1.4091
1.44368
1.47854
1.51364
1.54897
1.5845
1.62021
1.65606
1.69203
1.7281
1.76424
1.80042
1.83661
1.87279
1.90892
1.94499
1.98095
2.01679
2.05248
2.08798
2.12328
2.15833
2.19307
2.2274
2.26131
2.29478
2.32777
2.36026
2.3922
2.42357
2.45431
2.48439
2.51377
2.54241
2.57027
2.59732
2.62352
2.64883
2.67323
2.69667
2.71913
2.74058
2.76099
2.78033
2.79858
2.81572
2.83172
2.84656
2.86023
2.87272
2.884
2.89407
2.90292
2.91055
2.91693
2.92209
2.92601
2.92869
2.93014
2.93037
2.92939
2.9272
2.92382
2.91926
2.91354
2.90668
2.8987
2.88963
2.87948
2.86828
2.85607
2.84287
2.82872
2.81363
2.79766
2.78084
2.76319
2.74476
2.72561
2.70569
2.68517
2.66406
2.64238
2.62022
2.59758
2.57454
2.55112
2.52739
2.50341
2.47925
2.45501
2.43071
2.40632
2.38188
2.35742
2.33297
2.30859
2.28434
2.2603
2.23656
2.21328
2.19062
2.16891
2.14815
2.12858
0.0234428
0.053185
0.0688448
0.0800429
0.0894421
0.0979985
0.106175
0.114223
0.122284
0.130428
0.138681
0.147048
0.155522
0.164094
0.17276
0.181524
0.190394
0.199389
0.208533
0.217856
0.227391
0.237177
0.247256
0.257669
0.268461
0.279675
0.291349
0.303518
0.316213
0.329459
0.343278
0.35768
0.372671
0.388253
0.404422
0.421175
0.438506
0.456405
0.474862
0.493866
0.513405
0.53347
0.554051
0.575148
0.596762
0.618902
0.641573
0.664782
0.688536
0.71284
0.737701
0.763123
0.78911
0.815665
0.842793
0.870495
0.898774
0.92763
0.957063
0.987073
1.01766
1.04881
1.08053
1.11282
1.14566
1.17904
1.21296
1.24741
1.28236
1.31782
1.35376
1.39016
1.42701
1.46429
1.50196
1.54002
1.57843
1.61718
1.65622
1.69554
1.7351
1.77488
1.81485
1.85497
1.89521
1.93554
1.97593
2.01635
2.05676
2.09714
2.13744
2.17764
2.21771
2.2576
2.29729
2.33675
2.37594
2.4147
2.45302
2.49087
2.52823
2.56505
2.60129
2.63692
2.67189
2.70614
2.73965
2.77236
2.80423
2.83522
2.86529
2.89439
2.92249
2.94955
2.97554
3.00041
3.02414
3.04669
3.06803
3.08814
3.10699
3.12456
3.14083
3.15577
3.16938
3.18164
3.19254
3.20207
3.21021
3.21698
3.22235
3.22634
3.22896
3.23019
3.23006
3.22857
3.22573
3.22157
3.2161
3.20933
3.20129
3.19201
3.18151
3.16982
3.15696
3.14298
3.12791
3.11178
3.09461
3.07647
3.0574
3.03738
3.01653
2.9949
2.9725
2.9494
2.92565
2.90129
2.87638
2.85095
2.82508
2.79879
2.77215
2.74522
2.71807
2.69077
2.66337
2.63588
2.60833
2.58077
2.55325
2.52584
2.49862
2.47168
2.44516
2.41924
2.39415
2.37022
2.34749
2.32609
0.0269378
0.0591108
0.0760011
0.0880202
0.0980105
0.106996
0.115478
0.123737
0.13194
0.140186
0.148527
0.15699
0.165587
0.174322
0.183202
0.192236
0.201438
0.21083
0.220435
0.230285
0.240413
0.250856
0.261652
0.272841
0.284459
0.296543
0.309125
0.322234
0.335893
0.350122
0.364936
0.380342
0.396347
0.412951
0.430154
0.447954
0.466345
0.485324
0.504885
0.525023
0.545734
0.567015
0.588862
0.611278
0.634266
0.657833
0.681986
0.706734
0.732084
0.758045
0.784625
0.81183
0.839668
0.868145
0.897267
0.927038
0.957462
0.988543
1.02028
1.05268
1.08574
1.11945
1.15381
1.18883
1.22449
1.26078
1.2977
1.33523
1.37336
1.41207
1.45135
1.49118
1.53153
1.57239
1.61373
1.65552
1.69773
1.74034
1.78331
1.82661
1.8702
1.91406
1.95814
2.00242
2.04684
2.09139
2.13601
2.18067
2.22534
2.26998
2.31454
2.359
2.40331
2.44743
2.49132
2.53494
2.57823
2.62103
2.66334
2.70513
2.74636
2.78699
2.82696
2.86624
2.90478
2.94251
2.9794
3.0154
3.05045
3.08452
3.11754
3.14949
3.18031
3.20996
3.23841
3.26562
3.29155
3.31616
3.33942
3.3613
3.38178
3.40084
3.41844
3.43457
3.44922
3.46237
3.47401
3.48412
3.49271
3.49976
3.50528
3.50926
3.51172
3.51267
3.5121
3.51004
3.5065
3.50149
3.49504
3.48717
3.47791
3.46728
3.45532
3.44206
3.42751
3.41173
3.39478
3.37666
3.35738
3.33708
3.31577
3.29348
3.27028
3.24622
3.22133
3.19569
3.16933
3.14232
3.1147
3.08653
3.05786
3.02875
2.99925
2.96943
2.93934
2.90907
2.87866
2.84815
2.81758
2.78702
2.75652
2.72616
2.69605
2.6663
2.63706
2.60855
2.58102
2.55478
2.52983
2.50625
0.0298029
0.0639164
0.0818026
0.0945006
0.104989
0.114342
0.123086
0.131525
0.139846
0.148167
0.156562
0.165078
0.173744
0.182577
0.191594
0.200811
0.210248
0.219926
0.229872
0.240116
0.25069
0.261628
0.272963
0.284731
0.296964
0.309692
0.322942
0.336738
0.3511
0.366043
0.381581
0.39772
0.414467
0.431825
0.449796
0.46838
0.487577
0.507386
0.527807
0.54884
0.570485
0.592745
0.615621
0.639119
0.663245
0.688008
0.713416
0.73948
0.76621
0.793618
0.821713
0.850506
0.880006
0.910222
0.941164
0.972837
1.00525
1.0384
1.07231
1.10696
1.14237
1.17853
1.21543
1.25309
1.29148
1.33061
1.37046
1.41101
1.45227
1.4942
1.5368
1.58003
1.62388
1.66832
1.71331
1.75884
1.80487
1.85136
1.89828
1.94559
1.99325
2.04122
2.08946
2.13792
2.18658
2.23537
2.28426
2.33322
2.38218
2.43111
2.47997
2.52871
2.57729
2.62567
2.67379
2.72162
2.76897
2.8158
2.8621
2.90781
2.9529
2.99731
3.04099
3.08389
3.12596
3.16713
3.20736
3.24658
3.28476
3.32183
3.35774
3.39246
3.42592
3.45809
3.48892
3.51838
3.54642
3.573
3.59809
3.62165
3.64367
3.6641
3.68294
3.70017
3.71576
3.7297
3.74198
3.75259
3.76152
3.76877
3.77434
3.77824
3.78047
3.78104
3.77996
3.77726
3.77294
3.76703
3.75955
3.75053
3.73999
3.72797
3.71452
3.69965
3.68337
3.66578
3.64692
3.62683
3.60552
3.58309
3.55958
3.53502
3.50948
3.48301
3.45566
3.4275
3.39857
3.36894
3.33866
3.30778
3.27637
3.24448
3.21217
3.17951
3.14655
3.11337
3.08002
3.04657
3.01307
2.97957
2.94617
2.91294
2.88001
2.8475
2.81559
2.78451
2.75449
2.72584
2.6985
2.67252
0.032045
0.0676572
0.086312
0.0995422
0.110426
0.120075
0.129034
0.137618
0.14603
0.154402
0.162826
0.171362
0.180055
0.188934
0.198025
0.207352
0.216936
0.226804
0.236981
0.247497
0.258381
0.269664
0.281377
0.293549
0.306208
0.319382
0.333093
0.347362
0.362206
0.377641
0.393677
0.410325
0.427591
0.445482
0.464001
0.483154
0.502944
0.523375
0.544451
0.566176
0.588555
0.611596
0.635305
0.65969
0.684762
0.710532
0.737011
0.764213
0.792152
0.820841
0.850293
0.880521
0.91154
0.94336
0.975993
1.00945
1.04374
1.07887
1.11484
1.15167
1.18935
1.22788
1.26728
1.30752
1.34861
1.39053
1.43329
1.47686
1.52123
1.56638
1.61229
1.65894
1.7063
1.75434
1.80302
1.85232
1.9022
1.95261
2.00351
2.05487
2.10663
2.15875
2.21118
2.26388
2.31679
2.36986
2.42305
2.47631
2.52959
2.58283
2.636
2.68903
2.74189
2.79451
2.84685
2.89881
2.95021
3.00105
3.05129
3.10088
3.14977
3.19791
3.24523
3.29168
3.3372
3.38172
3.42519
3.46754
3.50873
3.5487
3.58739
3.62476
3.66075
3.69531
3.7284
3.75998
3.79
3.81842
3.84521
3.87032
3.89374
3.91544
3.93539
3.95358
3.96998
3.9846
3.99741
4.0084
4.01756
4.02491
4.03043
4.03414
4.03605
4.03617
4.0345
4.03107
4.02591
4.01904
4.01048
4.00024
3.98837
3.97494
3.95996
3.94347
3.9255
3.90613
3.88539
3.86334
3.84001
3.81547
3.78978
3.76298
3.73513
3.7063
3.67653
3.6459
3.61445
3.58225
3.54936
3.51584
3.48175
3.44715
3.4121
3.37666
3.34091
3.3049
3.26872
3.23241
3.19606
3.15972
3.12349
3.08748
3.0518
3.01659
2.98206
2.94841
2.9159
2.88476
2.85492
2.82642
0.033688
0.0704069
0.0896183
0.103238
0.114415
0.124284
0.133401
0.142091
0.150564
0.158963
0.16739
0.17592
0.184605
0.193488
0.2026
0.211972
0.221629
0.231599
0.241908
0.252584
0.263654
0.275148
0.287091
0.299511
0.312432
0.325879
0.339872
0.35443
0.36957
0.385307
0.401654
0.418621
0.436219
0.454457
0.473342
0.492884
0.513089
0.533967
0.555525
0.577773
0.600721
0.62438
0.64876
0.673876
0.69974
0.726368
0.753776
0.781979
0.810996
0.840842
0.871535
0.903092
0.935529
0.968861
1.0031
1.03827
1.07437
1.11141
1.14941
1.18837
1.22829
1.26919
1.31104
1.35387
1.39765
1.44238
1.48805
1.53465
1.58216
1.63055
1.67981
1.7299
1.7808
1.83248
1.88489
1.93799
1.99175
2.04611
2.10103
2.15647
2.21235
2.26865
2.32528
2.38221
2.43938
2.49673
2.55421
2.61176
2.66932
2.72685
2.78428
2.84156
2.89864
2.95546
3.01196
3.06791
3.12327
3.17801
3.23208
3.28543
3.33801
3.38974
3.44056
3.49042
3.53923
3.58694
3.63348
3.6788
3.72284
3.76552
3.80681
3.84664
3.88497
3.92173
3.9569
3.99041
4.02223
4.05232
4.08062
4.10711
4.13176
4.15454
4.17543
4.19442
4.21148
4.22662
4.23981
4.25104
4.26031
4.26762
4.27298
4.27639
4.27787
4.27743
4.27509
4.27086
4.26478
4.25688
4.24719
4.23572
4.22253
4.20767
4.19117
4.17307
4.15342
4.13227
4.10969
4.0857
4.06038
4.03378
4.00596
3.97697
3.94688
3.91575
3.88363
3.8506
3.81672
3.78204
3.74663
3.71056
3.67388
3.63667
3.59898
3.56087
3.52243
3.48371
3.4448
3.40575
3.36666
3.32759
3.28865
3.24995
3.21161
3.17379
3.13669
3.10052
3.06551
3.03188
2.99949
2.96844
0.0347735
0.072257
0.091833
0.10571
0.117079
0.127091
0.136309
0.14506
0.153559
0.161957
0.170363
0.178859
0.187507
0.196354
0.205441
0.214801
0.224464
0.234457
0.244809
0.255544
0.266691
0.278273
0.290318
0.302848
0.315887
0.329458
0.343579
0.35827
0.373548
0.389429
0.405927
0.423058
0.440832
0.459264
0.478365
0.498147
0.518623
0.539807
0.56171
0.584348
0.607735
0.631886
0.656818
0.682548
0.709095
0.736478
0.764716
0.793831
0.823843
0.854773
0.886643
0.919471
0.953279
0.988085
1.02391
1.06076
1.09866
1.13762
1.17765
1.21875
1.26094
1.30421
1.34856
1.394
1.44052
1.4881
1.53674
1.58641
1.6371
1.68879
1.74144
1.79503
1.84952
1.90486
1.96103
2.01797
2.07563
2.13396
2.19291
2.25243
2.31244
2.37288
2.4337
2.49482
2.5562
2.61776
2.67945
2.74121
2.80297
2.86467
2.92626
2.98767
3.04885
3.10974
3.17013
3.22991
3.28904
3.34749
3.40519
3.46209
3.51812
3.57322
3.62732
3.68033
3.7322
3.78284
3.8322
3.88022
3.92683
3.97197
4.01558
4.05761
4.09801
4.13671
4.17368
4.20888
4.24225
4.27375
4.30333
4.33095
4.35659
4.38023
4.40184
4.42142
4.43894
4.4544
4.46779
4.4791
4.48831
4.49543
4.50048
4.50346
4.5044
4.50331
4.5002
4.49511
4.48807
4.4791
4.46824
4.45553
4.441
4.42471
4.4067
4.38701
4.3657
4.34282
4.31843
4.29258
4.26532
4.23673
4.20686
4.17577
4.14353
4.1102
4.07585
4.04054
4.00433
3.96729
3.9295
3.891
3.85187
3.81218
3.77199
3.73136
3.69037
3.64909
3.6076
3.56597
3.52428
3.48263
3.44112
3.39985
3.35898
3.31866
3.27909
3.24047
3.20301
3.1669
3.13199
3.09841
0.0353573
0.0733118
0.0930833
0.107096
0.118565
0.128645
0.137903
0.146668
0.155156
0.163522
0.171878
0.180312
0.188891
0.197669
0.206688
0.215985
0.225593
0.23554
0.245853
0.25656
0.267684
0.279251
0.291285
0.303807
0.316842
0.330409
0.34453
0.359225
0.374511
0.390407
0.406931
0.424099
0.441928
0.460435
0.479636
0.499548
0.52019
0.541578
0.563731
0.586669
0.610412
0.634979
0.660393
0.686676
0.713852
0.741944
0.770976
0.800975
0.831965
0.863971
0.897018
0.93113
0.966332
1.00264
1.04009
1.07868
1.11844
1.15938
1.20151
1.24484
1.28937
1.33511
1.38206
1.4302
1.47954
1.53007
1.58176
1.63459
1.68855
1.7436
1.79971
1.85684
1.91496
1.97402
2.03396
2.09475
2.15631
2.2186
2.28155
2.34509
2.40916
2.47368
2.53858
2.6038
2.66925
2.73488
2.80062
2.8664
2.93217
2.99785
3.06338
3.1287
3.19374
3.25834
3.32232
3.38564
3.44825
3.51008
3.57108
3.63119
3.69033
3.74845
3.80547
3.86128
3.91583
3.96903
4.02083
4.07117
4.11998
4.1672
4.21277
4.25663
4.29873
4.33902
4.37744
4.41396
4.44856
4.48117
4.51169
4.54013
4.56647
4.59068
4.61275
4.63265
4.65038
4.66593
4.6793
4.69047
4.69943
4.70621
4.71081
4.71324
4.71352
4.71168
4.70773
4.70171
4.69365
4.68358
4.67153
4.65755
4.64169
4.62399
4.60449
4.58326
4.56034
4.53579
4.50966
4.48203
4.45294
4.42246
4.39066
4.3576
4.32334
4.28796
4.25151
4.21407
4.17571
4.13648
4.09646
4.05572
4.01432
3.97234
3.92983
3.88686
3.84352
3.79987
3.75599
3.71196
3.66787
3.62382
3.57991
3.53626
3.49302
3.45034
3.40842
3.36747
3.32766
3.28916
3.25181
3.21577
0.0355063
0.0736835
0.0935043
0.107548
0.11903
0.129109
0.138348
0.147077
0.155513
0.163812
0.172088
0.180431
0.18891
0.197583
0.206494
0.215682
0.225181
0.235021
0.245228
0.255829
0.266849
0.278312
0.290241
0.302659
0.31559
0.329054
0.343075
0.357673
0.372871
0.388687
0.405145
0.422264
0.440065
0.458571
0.477803
0.497783
0.518535
0.540081
0.562447
0.585658
0.609738
0.634714
0.660613
0.687463
0.715292
0.744129
0.774005
0.804949
0.836989
0.870157
0.90448
0.939985
0.976699
1.01465
1.05385
1.09434
1.13611
1.1792
1.2236
1.26933
1.31638
1.36475
1.41445
1.46547
1.51778
1.57139
1.62626
1.68238
1.7397
1.79821
1.85785
1.91858
1.98037
2.04314
2.10686
2.17145
2.23686
2.30301
2.36985
2.43731
2.5053
2.57373
2.64251
2.71158
2.78087
2.8503
2.9198
2.98931
3.05875
3.12806
3.19719
3.26606
3.33449
3.40231
3.46944
3.53585
3.60145
3.66619
3.73
3.79282
3.85457
3.9152
3.97467
4.03278
4.08948
4.14473
4.19847
4.25062
4.30113
4.34993
4.39696
4.44217
4.48551
4.52691
4.56634
4.60375
4.6391
4.67235
4.70344
4.73234
4.75902
4.78348
4.80569
4.82563
4.8433
4.85869
4.87179
4.88261
4.89114
4.89739
4.90138
4.90312
4.90263
4.89993
4.89506
4.88804
4.87891
4.8677
4.85446
4.83922
4.82204
4.80296
4.78203
4.75932
4.73487
4.70875
4.68101
4.65171
4.62092
4.58871
4.55514
4.52027
4.48418
4.44693
4.40858
4.36922
4.3289
4.28771
4.24569
4.20293
4.15949
4.11545
4.07086
4.0258
3.98034
3.93455
3.88853
3.84234
3.79609
3.74987
3.70378
3.65796
3.61255
3.56771
3.52362
3.48048
3.43847
3.39772
3.35807
3.31971
0.0352957
0.073488
0.0932335
0.107216
0.118636
0.128647
0.13781
0.146455
0.154798
0.162993
0.171157
0.179378
0.187727
0.196262
0.20503
0.214069
0.223414
0.233094
0.243139
0.253574
0.264424
0.275714
0.287469
0.299713
0.312469
0.325763
0.339618
0.354059
0.369112
0.3848
0.401149
0.418185
0.435935
0.454424
0.473683
0.493738
0.51462
0.536359
0.558987
0.582535
0.607034
0.632515
0.659012
0.686557
0.715186
0.744931
0.775829
0.807913
0.841216
0.875771
0.911609
0.94876
0.987251
1.02711
1.06836
1.11102
1.15511
1.20064
1.24762
1.29603
1.34588
1.39715
1.44986
1.50397
1.55948
1.61637
1.67459
1.73413
1.79494
1.85698
1.9202
1.98456
2.04999
2.11643
2.18382
2.2521
2.32119
2.39101
2.46151
2.53261
2.60428
2.67628
2.74859
2.82112
2.89381
2.96659
3.03939
3.11213
3.18474
3.25717
3.32936
3.40109
3.47219
3.5426
3.61226
3.68109
3.74903
3.81601
3.88195
3.94679
4.01045
4.07288
4.13399
4.19367
4.25187
4.3085
4.36351
4.41684
4.46842
4.51819
4.56609
4.61207
4.65607
4.69804
4.73794
4.77573
4.81136
4.84479
4.87598
4.9049
4.93153
4.95585
4.97784
4.99749
5.01478
5.02972
5.0423
5.05253
5.0604
5.06593
5.06914
5.07004
5.06865
5.065
5.05912
5.05105
5.04081
5.02846
5.01402
4.99755
4.9791
4.95871
4.93645
4.91235
4.8865
4.85894
4.82973
4.79894
4.76664
4.73289
4.69775
4.6613
4.6236
4.58472
4.54473
4.50371
4.46171
4.41881
4.37508
4.33058
4.28539
4.23957
4.1932
4.14633
4.09905
4.05143
4.00355
3.9555
3.90737
3.85926
3.81127
3.76354
3.71621
3.66944
3.62341
3.57831
3.53428
3.49148
3.44971
3.40922
0.0348068
0.0728399
0.0924047
0.106247
0.117537
0.127422
0.136458
0.144973
0.153182
0.161238
0.169257
0.177326
0.185517
0.193886
0.202479
0.211336
0.220492
0.229976
0.239819
0.250047
0.260687
0.271765
0.283309
0.295344
0.307898
0.320999
0.334676
0.348956
0.363871
0.379451
0.395726
0.412727
0.430488
0.449044
0.468429
0.488681
0.509836
0.531933
0.555013
0.579116
0.604281
0.630539
0.657927
0.686486
0.716255
0.747275
0.779583
0.813216
0.84821
0.884599
0.922412
0.961679
1.00243
1.04468
1.08845
1.13377
1.18065
1.22911
1.27914
1.33067
1.38372
1.43827
1.49432
1.55183
1.6108
1.67117
1.73292
1.796
1.86036
1.92595
1.99272
2.0606
2.12953
2.19945
2.27027
2.34192
2.41433
2.48742
2.56111
2.63532
2.70997
2.78493
2.86012
2.93547
3.0109
3.08633
3.1617
3.23693
3.31197
3.38674
3.46099
3.53461
3.60752
3.67966
3.75095
3.82132
3.8907
3.95901
4.02619
4.09216
4.15686
4.2202
4.28213
4.34254
4.40138
4.45858
4.51406
4.56778
4.61966
4.66965
4.71769
4.76373
4.80772
4.84962
4.88936
4.92693
4.96226
4.99534
5.02613
5.05459
5.0807
5.10445
5.12581
5.14479
5.16137
5.17554
5.18732
5.1967
5.20369
5.20831
5.21056
5.21048
5.20808
5.20339
5.19645
5.18728
5.17594
5.16245
5.14686
5.12922
5.10958
5.088
5.06452
5.0392
5.0121
4.98329
4.95283
4.92077
4.88719
4.85214
4.81571
4.77795
4.73894
4.69873
4.65741
4.61504
4.57169
4.52742
4.48231
4.43642
4.38983
4.34259
4.29478
4.24647
4.19772
4.14862
4.09924
4.04967
4
3.95033
3.90077
3.85145
3.80251
3.75411
3.70641
3.6596
3.61382
3.5692
3.52558
3.48319
0.0340933
0.0718145
0.0911032
0.104732
0.11583
0.12553
0.134387
0.142726
0.15076
0.15864
0.166481
0.174368
0.182372
0.190547
0.19894
0.20759
0.216532
0.225799
0.235422
0.24543
0.255853
0.26672
0.278063
0.289912
0.3023
0.315261
0.328828
0.34304
0.357936
0.373552
0.389924
0.407092
0.425098
0.443986
0.463803
0.484593
0.506406
0.529289
0.553295
0.578477
0.604902
0.632563
0.661502
0.691772
0.723418
0.756484
0.791006
0.82702
0.864557
0.903647
0.944314
0.986578
1.03046
1.07596
1.1231
1.17188
1.2223
1.27435
1.32801
1.38325
1.44003
1.49835
1.55816
1.61942
1.68211
1.74617
1.81155
1.87821
1.94607
2.01509
2.08519
2.15631
2.22838
2.30132
2.37505
2.44951
2.5246
2.60025
2.67637
2.75288
2.82969
2.90671
2.98386
3.06105
3.13821
3.21528
3.29217
3.36887
3.44516
3.52086
3.59591
3.67025
3.74378
3.81645
3.88817
3.95888
4.02851
4.09698
4.16422
4.23017
4.29476
4.35791
4.41956
4.47964
4.53808
4.59481
4.64977
4.7029
4.75415
4.80345
4.85076
4.89602
4.93919
4.98022
5.01907
5.0557
5.09007
5.12216
5.15193
5.17935
5.20441
5.22709
5.24737
5.26525
5.28072
5.29378
5.30442
5.31267
5.31853
5.322
5.32312
5.3219
5.31836
5.31254
5.30447
5.29419
5.28173
5.26713
5.25044
5.23172
5.211
5.18834
5.16379
5.13742
5.10929
5.07944
5.04795
5.01488
4.98029
4.94424
4.90681
4.86806
4.82806
4.78687
4.74456
4.7012
4.65686
4.6116
4.56549
4.5186
4.47099
4.42272
4.37387
4.3245
4.27468
4.22448
4.17399
4.12328
4.07245
4.0216
3.97082
3.92026
3.87004
3.82032
3.77127
3.72305
3.6758
3.62966
3.58444
3.54043
0.0333639
0.0706565
0.0895948
0.102949
0.113802
0.123274
0.131912
0.140042
0.147873
0.155557
0.163203
0.170899
0.17871
0.186692
0.194893
0.203352
0.212109
0.221197
0.230653
0.24051
0.250804
0.261571
0.272851
0.284682
0.297102
0.310154
0.323884
0.338344
0.353589
0.369686
0.386643
0.404517
0.423369
0.443259
0.464243
0.48638
0.509727
0.534342
0.560281
0.587598
0.616345
0.646554
0.678264
0.711515
0.746343
0.782781
0.820854
0.860583
0.901985
0.94507
0.989842
1.0363
1.08444
1.13426
1.18573
1.23884
1.29357
1.34988
1.40773
1.46709
1.52791
1.59015
1.65376
1.71868
1.78487
1.85227
1.92082
1.99047
2.06114
2.13278
2.20532
2.27868
2.35281
2.42761
2.50303
2.57898