/*--------------------------------*- C++ -*----------------------------------*\
  =========                 |
  \\      /  F ield         | OpenFOAM: The Open Source CFD Toolbox
   \\    /   O peration     | Website:  https://openfoam.org
    \\  /    A nd           | Version:  9
     \\/     M anipulation  |
\*---------------------------------------------------------------------------*/
FoamFile
{
    format      ascii;
    class       volScalarField;
    location    "0.15";
    object      p;
}
// * * * * * * * * * * * * * * * * * * * * * * * * * * * * * * * * * * * * * //

dimensions      [0 2 -2 0 0 0 0];

internalField   nonuniform List<scalar> 
12225
(
-1.208
-3.49096
-4.65337
-4.96145
-5.1296
-5.28917
-5.41356
-5.50173
-5.57104
-5.63168
-5.68544
-5.73209
-5.77192
-5.80413
-5.82751
-5.8314
-5.82545
-5.71172
-4.6755
-5.37758
-5.46775
-5.3326
-5.29242
-5.35955
-5.44012
-5.50575
-5.56248
-5.61552
-5.66466
-5.70869
-5.74729
-5.7795
-5.80483
-5.81597
-5.82608
-5.80681
-4.88025
-4.77727
-4.93399
-5.05603
-5.16329
-5.28546
-5.39358
-5.47603
-5.54298
-5.6025
-5.65626
-5.704
-5.74583
-5.78143
-5.81119
-5.83186
-5.85808
-5.88848
-4.74297
-4.66481
-4.94082
-5.11946
-5.21381
-5.31081
-5.40577
-5.48313
-5.54748
-5.6054
-5.65833
-5.70591
-5.74823
-5.7854
-5.81846
-5.84741
-5.88431
-5.93563
-4.74994
-4.76717
-5.0072
-5.15702
-5.23296
-5.31755
-5.40701
-5.4829
-5.54665
-5.60412
-5.65696
-5.70497
-5.7484
-5.78778
-5.82461
-5.86062
-5.90473
-5.96396
-4.81165
-4.85408
-5.03181
-5.16247
-5.24037
-5.32279
-5.40896
-5.48365
-5.54708
-5.60434
-5.65724
-5.70581
-5.75043
-5.79195
-5.8321
-5.87325
-5.92172
-5.98317
-4.87141
-4.9109
-5.04725
-5.16939
-5.25169
-5.33131
-5.41287
-5.48558
-5.54848
-5.60548
-5.6584
-5.70748
-5.75322
-5.79663
-5.83948
-5.88409
-5.93487
-5.9955
-4.92458
-4.95945
-5.0697
-5.18226
-5.26474
-5.34055
-5.41739
-5.48795
-5.55021
-5.6069
-5.65979
-5.70934
-5.75609
-5.80109
-5.84595
-5.89269
-5.9442
-6.00249
-4.9744
-5.00611
-5.09685
-5.19759
-5.27759
-5.34998
-5.42264
-5.49088
-5.55229
-5.60857
-5.66137
-5.71126
-5.75881
-5.80499
-5.85119
-5.89895
-5.9501
-6.00546
-5.0218
-5.0504
-5.12553
-5.21438
-5.29069
-5.36001
-5.42885
-5.49458
-5.55485
-5.61058
-5.66314
-5.71319
-5.76126
-5.80819
-5.85507
-5.90302
-5.9531
-6.00545
-5.06662
-5.09188
-5.15464
-5.23265
-5.30447
-5.37069
-5.43597
-5.49905
-5.55794
-5.61296
-5.66514
-5.71513
-5.76341
-5.81065
-5.85766
-5.90518
-5.95378
-6.00326
-5.10518
-5.12749
-5.18129
-5.25051
-5.31772
-5.38095
-5.44316
-5.5038
-5.56125
-5.61545
-5.66713
-5.71686
-5.76505
-5.81222
-5.85894
-5.9057
-5.95278
-5.99983
-5.14093
-5.16071
-5.20721
-5.2687
-5.33122
-5.39139
-5.45073
-5.50899
-5.5649
-5.61816
-5.66921
-5.7185
-5.76638
-5.81321
-5.85939
-5.90518
-5.95069
-5.99554
-5.17854
-5.19583
-5.23559
-5.28954
-5.34685
-5.4035
-5.45973
-5.51537
-5.56943
-5.62147
-5.67163
-5.72022
-5.76749
-5.81366
-5.85894
-5.90345
-5.94718
-5.98978
-5.21676
-5.23165
-5.26548
-5.31246
-5.36434
-5.41708
-5.47004
-5.52288
-5.57482
-5.62531
-5.67428
-5.72187
-5.76818
-5.81333
-5.85737
-5.90032
-5.94213
-5.98251
-5.25366
-5.2664
-5.29525
-5.33616
-5.3828
-5.43152
-5.48115
-5.53113
-5.58075
-5.62943
-5.67692
-5.72317
-5.7682
-5.81198
-5.85451
-5.89572
-5.93556
-5.97381
-5.28637
-5.29737
-5.32235
-5.35836
-5.40047
-5.44546
-5.49196
-5.53921
-5.58649
-5.63322
-5.67902
-5.72371
-5.76719
-5.80939
-5.85022
-5.88962
-5.92752
-5.96379
-5.31053
-5.32034
-5.34273
-5.37543
-5.41429
-5.45646
-5.50048
-5.5455
-5.59078
-5.6357
-5.67984
-5.72293
-5.76482
-5.80538
-5.84453
-5.88218
-5.91829
-5.95278
-5.31919
-5.32855
-5.35004
-5.38161
-5.41935
-5.46041
-5.5033
-5.54717
-5.5913
-5.63506
-5.67799
-5.71983
-5.76039
-5.79956
-5.83726
-5.87344
-5.90806
-5.94111
-5.30443
-5.3145
-5.33752
-5.37121
-5.41107
-5.45375
-5.49772
-5.5423
-5.58686
-5.63077
-5.67358
-5.71508
-5.75514
-5.79367
-5.83063
-5.866
-5.89976
-5.93194
-5.27838
-5.28959
-5.31542
-5.3532
-5.39704
-5.4427
-5.48886
-5.5352
-5.58109
-5.62584
-5.6691
-5.71078
-5.75083
-5.7892
-5.82588
-5.86087
-5.89422
-5.92597
-5.24355
-5.25594
-5.28602
-5.33056
-5.38015
-5.42938
-5.47824
-5.52708
-5.57496
-5.62098
-5.66499
-5.7071
-5.74737
-5.78577
-5.82235
-5.85716
-5.89026
-5.92174
-5.20301
-5.21563
-5.25105
-5.3057
-5.36292
-5.41603
-5.46773
-5.51927
-5.56922
-5.61658
-5.66147
-5.70417
-5.74478
-5.78334
-5.81992
-5.85464
-5.88762
-5.91894
-5.15923
-5.17081
-5.21324
-5.27993
-5.34472
-5.40247
-5.45851
-5.51334
-5.56503
-5.61328
-5.65883
-5.70203
-5.74293
-5.78157
-5.81814
-5.85279
-5.88565
-5.91684
-5.11241
-5.12019
-5.18128
-5.26114
-5.32636
-5.38614
-5.44817
-5.50789
-5.56182
-5.61106
-5.65729
-5.70098
-5.7421
-5.78078
-5.81728
-5.85182
-5.88458
-5.9157
-5.06448
-5.04085
-5.1517
-5.2607
-5.32136
-5.37556
-5.43912
-5.50162
-5.55706
-5.60724
-5.65429
-5.69857
-5.74002
-5.77885
-5.8154
-5.84994
-5.88266
-5.91372
-5.05519
-4.91088
-5.06996
-5.23622
-5.3208
-5.38191
-5.44682
-5.50811
-5.56199
-5.61129
-5.65786
-5.70171
-5.7427
-5.78109
-5.81722
-5.85136
-5.88377
-5.91463
-5.2006
-4.91681
-4.95159
-5.08211
-5.20176
-5.30886
-5.40302
-5.4789
-5.54127
-5.59664
-5.64753
-5.69427
-5.73722
-5.77698
-5.81407
-5.84889
-5.88193
-5.91384
-5.1374
-5.63711
-5.64727
-5.48807
-5.40717
-5.43145
-5.48569
-5.5352
-5.58043
-5.62511
-5.66888
-5.71046
-5.74947
-5.78611
-5.82058
-5.85298
-5.88357
-5.9142
-1.79873
-3.6693
-4.74061
-5.03372
-5.16862
-5.30545
-5.41746
-5.49756
-5.56062
-5.61677
-5.66819
-5.715
-5.75774
-5.79717
-5.83368
-5.8673
-5.89768
-5.92304
-6.81617
-6.81611
-6.81649
-6.81729
-6.81838
-6.81974
-6.82139
-6.82334
-6.82562
-6.82825
-6.83124
-6.83465
-6.83852
-6.84288
-6.84778
-6.85326
-6.85935
-6.86609
-6.87353
-6.88168
-6.8906
-6.90032
-6.91088
-6.92232
-6.93471
-6.94811
-6.9626
-6.97851
-6.9959
-7.01294
-7.02905
-7.0465
-7.06803
-7.09315
-7.11664
-7.12898
-7.15008
-7.18577
-7.21948
-7.25396
-7.27292
-7.28505
-7.30799
-7.33386
-7.36091
-7.38905
-7.41794
-7.44742
-7.47733
-7.50757
-7.53805
-7.56865
-7.59931
-7.62991
-7.66038
-7.69061
-7.7205
-7.74995
-7.77884
-7.80706
-7.83449
-7.86099
-7.88642
-7.91066
-7.93355
-7.95493
-7.97466
-7.99257
-8.00849
-8.02225
-8.03367
-8.04257
-8.04878
-8.05211
-8.05237
-8.04938
-8.04295
-8.03289
-8.01901
-8.00113
-7.97906
-7.95263
-7.92164
-7.88594
-7.84533
-7.79966
-7.74875
-7.69246
-7.63063
-7.56311
-7.48976
-7.41045
-7.32505
-7.23345
-7.13555
-7.03127
-6.92063
-6.80361
-6.68004
-6.54985
-6.41251
-6.26822
-6.11704
-5.95901
-5.79415
-5.62248
-5.44402
-5.25884
-5.067
-4.86856
-4.66364
-4.45234
-4.23478
-4.01112
-3.7815
-3.54611
-3.30513
-3.05875
-2.80721
-2.55071
-2.28952
-2.02387
-1.75404
-1.48029
-1.20291
-0.922191
-0.638429
-0.35193
-0.0630043
0.228033
0.520863
0.815165
1.11062
1.4069
1.70369
2.00068
2.29753
2.59395
2.88963
3.18427
3.47758
3.76926
4.05906
4.34669
4.63192
4.91449
5.19416
5.47073
5.74398
6.01371
6.27974
6.54191
6.80005
7.05402
7.30369
7.54894
7.78965
8.02574
8.25711
8.48369
8.70543
8.92227
9.13418
9.34115
9.54314
9.74001
9.93159
10.1179
10.2989
10.4746
10.6451
10.8103
10.9703
11.1251
11.2748
11.4197
11.5609
11.6998
11.8459
12.0001
-6.81449
-6.81483
-6.81534
-6.81598
-6.81657
-6.81714
-6.81786
-6.81888
-6.82028
-6.82212
-6.8244
-6.82716
-6.83041
-6.83418
-6.83848
-6.84337
-6.84886
-6.855
-6.86181
-6.86932
-6.87756
-6.88655
-6.89631
-6.90687
-6.91824
-6.93041
-6.9434
-6.95696
-6.97034
-6.9845
-7.00151
-7.02104
-7.03998
-7.05631
-7.07122
-7.0994
-7.12696
-7.14377
-7.16248
-7.17851
-7.20674
-7.24667
-7.27967
-7.30913
-7.3382
-7.36735
-7.39673
-7.4264
-7.45634
-7.48651
-7.51686
-7.54733
-7.57782
-7.60828
-7.6386
-7.6687
-7.69849
-7.72785
-7.75667
-7.78486
-7.81227
-7.83879
-7.86429
-7.88861
-7.91162
-7.93317
-7.95309
-7.97123
-7.98742
-8.00149
-8.01326
-8.02256
-8.0292
-8.03301
-8.03379
-8.03136
-8.02553
-8.01612
-8.00294
-7.9858
-7.96452
-7.93891
-7.9088
-7.87402
-7.83439
-7.78973
-7.7399
-7.68474
-7.62408
-7.55779
-7.48573
-7.40777
-7.32378
-7.23365
-7.13726
-7.03449
-6.92525
-6.80943
-6.6868
-6.55709
-6.42091
-6.27807
-6.12847
-5.97207
-5.80886
-5.63885
-5.46208
-5.27858
-5.08842
-4.89167
-4.68843
-4.47879
-4.2629
-4.04088
-3.81288
-3.57909
-3.33968
-3.09486
-2.84482
-2.58981
-2.33006
-2.06581
-1.79733
-1.52488
-1.24876
-0.969245
-0.686633
-0.401227
-0.113336
0.176727
0.468644
0.762097
1.05676
1.35233
1.64846
1.94486
2.24119
2.53715
2.83244
3.12675
3.4198
3.71129
4.00094
4.28851
4.57371
4.85632
5.1361
5.41282
5.68627
5.95625
6.22258
6.48509
6.74361
6.99799
7.24811
7.49384
7.73507
7.97169
8.20363
8.4308
8.65315
8.87062
9.08318
9.29081
9.49345
9.69097
9.88322
10.0702
10.2519
10.4284
10.5996
10.7655
10.9263
11.082
11.2328
11.379
11.5221
11.6631
11.8124
11.9603
-6.81023
-6.81159
-6.813
-6.8142
-6.81501
-6.8156
-6.81622
-6.81707
-6.81825
-6.81985
-6.82189
-6.82442
-6.82746
-6.83103
-6.83517
-6.8399
-6.84526
-6.85126
-6.85794
-6.86533
-6.87345
-6.88233
-6.89199
-6.90245
-6.91373
-6.92587
-6.9389
-6.95279
-6.96727
-6.98235
-6.99885
-7.01702
-7.03608
-7.05518
-7.07501
-7.09809
-7.12232
-7.14422
-7.16574
-7.18699
-7.21095
-7.23886
-7.26715
-7.29533
-7.32377
-7.35248
-7.38147
-7.41073
-7.44023
-7.46995
-7.49984
-7.52982
-7.55985
-7.58984
-7.61972
-7.64939
-7.67877
-7.70774
-7.73622
-7.76408
-7.7912
-7.81746
-7.84273
-7.86687
-7.88974
-7.91118
-7.93105
-7.94918
-7.9654
-7.97955
-7.99146
-8.00095
-8.00783
-8.01193
-8.01307
-8.01105
-8.00569
-7.9968
-7.9842
-7.96771
-7.94713
-7.92229
-7.89301
-7.85911
-7.82042
-7.77678
-7.72802
-7.67398
-7.61451
-7.54947
-7.4787
-7.40209
-7.3195
-7.23081
-7.13591
-7.03469
-6.927
-6.8127
-6.69184
-6.56417
-6.42985
-6.28883
-6.14108
-5.98655
-5.82525
-5.65717
-5.48234
-5.3008
-5.1126
-4.91782
-4.71654
-4.50887
-4.29493
-4.07485
-3.84879
-3.6169
-3.37938
-3.13641
-2.8882
-2.63497
-2.37696
-2.11442
-1.8476
-1.57676
-1.30219
-1.02417
-0.742997
-0.458965
-0.172384
0.116437
0.407182
0.699534
0.993173
1.28778
1.58304
1.87863
2.17424
2.46956
2.76428
3.0581
3.35073
3.64188
3.93128
4.21865
4.50374
4.78631
5.06611
5.34291
5.61652
5.88672
6.15332
6.41615
6.67506
6.92987
7.18047
7.42671
7.66849
7.90571
8.13827
8.36609
8.5891
8.80724
9.02047
9.22874
9.43199
9.63017
9.8232
10.011
10.1936
10.371
10.5431
10.71
10.8717
11.0285
11.1805
11.3283
11.4733
11.6159
11.7678
11.9049
-6.80388
-6.80626
-6.80902
-6.81128
-6.81281
-6.81391
-6.81487
-6.81592
-6.81721
-6.81883
-6.82086
-6.82336
-6.82635
-6.82988
-6.83397
-6.83865
-6.84395
-6.8499
-6.85652
-6.86384
-6.87189
-6.88068
-6.89023
-6.90058
-6.91173
-6.9237
-6.93652
-6.95019
-6.96467
-6.97998
-6.9963
-7.01372
-7.03211
-7.05134
-7.07156
-7.09301
-7.1154
-7.13803
-7.16093
-7.18442
-7.20898
-7.23485
-7.26155
-7.2888
-7.31652
-7.34464
-7.37312
-7.40191
-7.43098
-7.46028
-7.48976
-7.51935
-7.549
-7.57863
-7.60817
-7.63753
-7.66661
-7.69532
-7.72356
-7.75121
-7.77815
-7.80427
-7.82942
-7.85348
-7.8763
-7.89773
-7.91762
-7.93582
-7.95214
-7.96643
-7.97852
-7.98823
-7.99537
-7.99977
-8.00125
-7.99961
-7.99468
-7.98627
-7.97418
-7.95825
-7.93827
-7.91408
-7.88549
-7.85232
-7.81441
-7.77159
-7.72369
-7.67056
-7.61203
-7.54797
-7.47823
-7.40268
-7.32118
-7.2336
-7.13984
-7.03976
-6.93326
-6.82022
-6.70061
-6.57436
-6.44148
-6.3019
-6.1556
-6.00254
-5.84272
-5.67613
-5.50281
-5.32278
-5.13611
-4.94285
-4.7431
-4.53695
-4.32453
-4.10596
-3.88139
-3.65098
-3.41492
-3.17339
-2.92659
-2.67476
-2.41811
-2.15689
-1.89136
-1.62178
-1.34842
-1.07157
-0.791522
-0.508568
-0.223015
0.0648282
0.354649
0.646131
0.938957
1.23281
1.52737
1.82232
2.11735
2.41215
2.7064
2.99982
3.29211
3.58298
3.87216
4.15937
4.44435
4.72686
5.00666
5.28352
5.55723
5.82759
6.09439
6.35747
6.61666
6.87181
7.12277
7.36941
7.61162
7.84929
8.08233
8.31065
8.53419
8.75289
8.96668
9.17549
9.37924
9.5779
9.77146
9.95987
10.1431
10.321
10.4938
10.6614
10.8239
10.9814
11.1343
11.2829
11.4288
11.5715
11.7221
11.8467
-6.79703
-6.80051
-6.8047
-6.80818
-6.81063
-6.81243
-6.81395
-6.81543
-6.81704
-6.81892
-6.82115
-6.82381
-6.82695
-6.83061
-6.83482
-6.83961
-6.84502
-6.85107
-6.85779
-6.8652
-6.87333
-6.8822
-6.89184
-6.90226
-6.91349
-6.92554
-6.93843
-6.95216
-6.96675
-6.98222
-6.99865
-7.01603
-7.03431
-7.05345
-7.07349
-7.09444
-7.11618
-7.13855
-7.16155
-7.18527
-7.20985
-7.2353
-7.26143
-7.28814
-7.31534
-7.34298
-7.37103
-7.39942
-7.42813
-7.45708
-7.48624
-7.51553
-7.5449
-7.57428
-7.60358
-7.63272
-7.6616
-7.69015
-7.71824
-7.74576
-7.77261
-7.79865
-7.82376
-7.8478
-7.87063
-7.89209
-7.91204
-7.93032
-7.94676
-7.96119
-7.97345
-7.98335
-7.99072
-7.99537
-7.99713
-7.9958
-7.9912
-7.98315
-7.97146
-7.95594
-7.93642
-7.9127
-7.88462
-7.85199
-7.81465
-7.77242
-7.72514
-7.67265
-7.61481
-7.55145
-7.48244
-7.40764
-7.32692
-7.24014
-7.1472
-7.04797
-6.94235
-6.83025
-6.7116
-6.58636
-6.45447
-6.3159
-6.17061
-6.01857
-5.85977
-5.69421
-5.52192
-5.34293
-5.15729
-4.96507
-4.76636
-4.56124
-4.34985
-4.1323
-3.90874
-3.67934
-3.44426
-3.20371
-2.95788
-2.70698
-2.45125
-2.19094
-1.92628
-1.65755
-1.38502
-1.10897
-0.829686
-0.547468
-0.262618
0.0245562
0.313743
0.604627
0.896892
1.19022
1.4843
1.7788
2.07343
2.36786
2.6618
2.95493
3.24698
3.53765
3.82666
4.11374
4.39865
4.68111
4.9609
5.2378
5.51157
5.78202
6.04896
6.3122
6.57159
6.82695
7.07816
7.32507
7.56758
7.80557
8.03896
8.26765
8.49156
8.71064
8.9248
9.13397
9.33806
9.53704
9.73091
9.91964
10.1032
10.2816
10.4547
10.6227
10.7856
10.9436
11.0969
11.2459
11.3917
11.5332
11.6808
11.7935
-6.79118
-6.79558
-6.80103
-6.80565
-6.80903
-6.81161
-6.81379
-6.81582
-6.81791
-6.8202
-6.82279
-6.82577
-6.8292
-6.83313
-6.8376
-6.84264
-6.84829
-6.85458
-6.86153
-6.86917
-6.87752
-6.88661
-6.89646
-6.90709
-6.91853
-6.93078
-6.94386
-6.95779
-6.97256
-6.98819
-7.00471
-7.02211
-7.04037
-7.05946
-7.07939
-7.10014
-7.12162
-7.1438
-7.16665
-7.19021
-7.21451
-7.23954
-7.26522
-7.29148
-7.31827
-7.34554
-7.37323
-7.40131
-7.42972
-7.45841
-7.48732
-7.5164
-7.54558
-7.57478
-7.60392
-7.63293
-7.66171
-7.69017
-7.71819
-7.74567
-7.77249
-7.79853
-7.82365
-7.84772
-7.87061
-7.89215
-7.91219
-7.93058
-7.94715
-7.96173
-7.97415
-7.98424
-7.99181
-7.99668
-7.99867
-7.9976
-7.99327
-7.98551
-7.97412
-7.95892
-7.93974
-7.91637
-7.88866
-7.85642
-7.81948
-7.77767
-7.73084
-7.67881
-7.62144
-7.55857
-7.49008
-7.41581
-7.33563
-7.24942
-7.15706
-7.05844
-6.95345
-6.84202
-6.72405
-6.5995
-6.4683
-6.33041
-6.1858
-6.03444
-5.87632
-5.71145
-5.53984
-5.36154
-5.17659
-4.98505
-4.78702
-4.58259
-4.37187
-4.155
-3.93211
-3.70337
-3.46896
-3.22905
-2.98385
-2.73359
-2.47848
-2.21876
-1.95469
-1.68654
-1.41456
-1.13905
-0.860291
-0.578575
-0.294207
-0.00749233
0.281256
0.571724
0.863597
1.15656
1.45029
1.74448
2.03881
2.33298
2.62668
2.9196
3.21146
3.50197
3.79085
4.07783
4.36265
4.64507
4.92483
5.20172
5.47552
5.74602
6.01303
6.27637
6.53587
6.79137
7.04273
7.28983
7.53254
7.77075
8.00436
8.23329
8.45745
8.67676
8.89116
9.10056
9.30487
9.50406
9.69814
9.8871
10.0709
10.2495
10.4229
10.5911
10.7543
10.9125
11.0659
11.2148
11.36
11.4997
11.6441
11.7463
-6.78728
-6.79238
-6.7988
-6.80436
-6.80858
-6.81189
-6.81472
-6.81733
-6.81994
-6.8227
-6.82572
-6.82909
-6.8329
-6.83718
-6.84199
-6.84736
-6.85333
-6.85993
-6.86718
-6.87511
-6.88375
-6.89312
-6.90323
-6.91412
-6.92579
-6.93825
-6.95153
-6.96562
-6.98054
-6.99628
-7.01285
-7.03026
-7.04848
-7.0675
-7.08731
-7.1079
-7.12921
-7.15123
-7.17393
-7.19732
-7.2214
-7.24614
-7.27152
-7.29748
-7.32398
-7.35098
-7.37843
-7.40629
-7.4345
-7.46301
-7.49178
-7.52073
-7.54979
-7.57891
-7.60799
-7.63695
-7.6657
-7.69415
-7.72218
-7.74969
-7.77655
-7.80265
-7.82784
-7.85201
-7.87499
-7.89664
-7.91681
-7.93533
-7.95205
-7.96679
-7.97937
-7.98963
-7.99739
-8.00245
-8.00464
-8.00377
-7.99966
-7.99211
-7.98095
-7.96599
-7.94704
-7.92393
-7.89647
-7.8645
-7.82783
-7.7863
-7.73976
-7.68803
-7.63097
-7.56844
-7.50027
-7.42635
-7.34654
-7.2607
-7.16873
-7.07051
-6.96594
-6.85494
-6.73742
-6.6133
-6.48254
-6.34508
-6.2009
-6.04996
-5.89227
-5.72782
-5.55664
-5.37876
-5.19423
-5.00312
-4.80551
-4.6015
-4.39121
-4.17476
-3.95229
-3.72397
-3.48997
-3.25048
-3.00569
-2.75583
-2.50112
-2.2418
-1.97812
-1.71035
-1.43875
-1.1636
-0.885194
-0.603824
-0.319789
-0.033397
0.255041
0.545211
0.836799
1.12949
1.42297
1.71692
2.01103
2.30498
2.59848
2.89123
3.18293
3.4733
3.76206
4.04893
4.33367
4.61601
4.89573
5.17259
5.44636
5.71686
5.98389
6.24726
6.50681
6.76238
7.01383
7.26103
7.50385
7.74218
7.97593
8.205
8.42931
8.64877
8.86332
9.07286
9.27732
9.47667
9.6709
9.86001
10.0439
10.2227
10.3963
10.5647
10.7279
10.8862
11.0395
11.188
11.3323
11.4701
11.6114
11.7044
-6.78585
-6.79141
-6.7985
-6.80475
-6.80962
-6.81355
-6.81696
-6.82012
-6.82323
-6.82645
-6.8299
-6.83369
-6.83788
-6.84254
-6.84771
-6.85343
-6.85974
-6.86666
-6.87423
-6.88247
-6.8914
-6.90104
-6.91141
-6.92253
-6.93441
-6.94707
-6.96051
-6.97473
-6.98975
-7.00557
-7.02217
-7.03957
-7.05775
-7.07671
-7.09642
-7.11687
-7.13805
-7.15994
-7.18251
-7.20576
-7.22968
-7.25424
-7.27943
-7.30521
-7.33153
-7.35837
-7.38567
-7.4134
-7.44151
-7.46995
-7.49865
-7.52756
-7.55661
-7.58572
-7.61482
-7.64382
-7.67262
-7.70113
-7.72924
-7.75684
-7.78381
-7.81002
-7.83534
-7.85963
-7.88275
-7.90454
-7.92486
-7.94353
-7.9604
-7.9753
-7.98804
-7.99846
-8.00637
-8.01159
-8.01393
-8.01322
-8.00926
-8.00187
-7.99086
-7.97605
-7.95726
-7.9343
-7.90699
-7.87517
-7.83866
-7.79729
-7.75091
-7.69935
-7.64247
-7.58011
-7.51214
-7.43841
-7.3588
-7.27318
-7.18143
-7.08344
-6.97911
-6.86835
-6.75106
-6.62718
-6.49665
-6.35942
-6.21546
-6.06474
-5.90727
-5.74304
-5.57207
-5.39441
-5.2101
-5.01921
-4.82183
-4.61805
-4.40798
-4.19176
-3.96953
-3.74145
-3.50769
-3.26844
-3.0239
-2.77428
-2.51981
-2.26073
-1.9973
-1.72977
-1.45841
-1.1835
-0.905337
-0.624201
-0.340397
-0.0542331
0.233982
0.523934
0.815309
1.10779
1.40107
1.69483
1.98875
2.28254
2.57587
2.86846
3.16002
3.45025
3.73888
4.02564
4.31027
4.59252
4.87215
5.14894
5.42266
5.69312
5.96011
6.22347
6.48302
6.7386
6.99007
7.2373
7.48017
7.71856
7.95237
8.18151
8.40589
8.62544
8.84007
9.0497
9.25426
9.45371
9.64805
9.83726
10.0213
10.2002
10.3738
10.5423
10.7056
10.8637
11.0168
11.1647
11.308
11.4436
11.5823
11.6672
-6.78709
-6.79287
-6.8003
-6.80698
-6.81232
-6.81672
-6.8206
-6.82421
-6.82776
-6.83139
-6.83524
-6.8394
-6.84395
-6.84895
-6.85445
-6.86049
-6.8671
-6.87432
-6.88216
-6.89067
-6.89984
-6.90972
-6.9203
-6.93161
-6.94366
-6.95646
-6.97002
-6.98434
-6.99943
-7.01528
-7.0319
-7.04929
-7.06743
-7.08632
-7.10596
-7.12633
-7.14742
-7.16921
-7.19169
-7.21484
-7.23867
-7.26314
-7.28823
-7.31391
-7.34016
-7.36693
-7.39419
-7.42189
-7.44999
-7.47843
-7.50716
-7.53612
-7.56523
-7.59442
-7.62361
-7.65271
-7.68163
-7.71026
-7.73851
-7.76625
-7.79337
-7.81973
-7.8452
-7.86965
-7.89293
-7.91488
-7.93535
-7.95418
-7.9712
-7.98623
-7.99911
-8.00966
-8.01769
-8.02302
-8.02548
-8.02486
-8.02099
-8.01369
-8.00275
-7.98801
-7.96928
-7.94638
-7.91913
-7.88736
-7.8509
-7.80959
-7.76325
-7.71175
-7.65491
-7.59261
-7.5247
-7.45104
-7.3715
-7.28595
-7.19428
-7.09638
-6.99214
-6.88146
-6.76425
-6.64044
-6.50997
-6.3728
-6.2289
-6.07824
-5.92082
-5.75665
-5.58574
-5.40814
-5.2239
-5.03308
-4.83577
-4.63207
-4.42209
-4.20597
-3.98383
-3.75586
-3.52221
-3.28307
-3.03865
-2.78916
-2.53483
-2.27589
-2.0126
-1.74522
-1.47402
-1.19927
-0.921262
-0.64029
-0.356652
-0.0706556
0.21739
0.507173
0.798378
1.09069
1.3838
1.67739
1.97115
2.26477
2.55795
2.85038
3.14179
3.43187
3.72036
4.00698
4.29149
4.57362
4.85314
5.12983
5.40346
5.67383
5.94076
6.20405
6.46355
6.71909
6.97053
7.21774
7.46059
7.69898
7.9328
8.16196
8.38636
8.60594
8.8206
9.03027
9.23488
9.4344
9.6288
9.81807
10.0022
10.1811
10.3548
10.5232
10.6864
10.8444
10.9971
11.1443
11.2863
11.4199
11.5561
11.6341
-6.7909
-6.79668
-6.80418
-6.81102
-6.81662
-6.82134
-6.82555
-6.8295
-6.83338
-6.83734
-6.8415
-6.84596
-6.8508
-6.85607
-6.86183
-6.86812
-6.87497
-6.88241
-6.89047
-6.89917
-6.90853
-6.91857
-6.9293
-6.94074
-6.95291
-6.9658
-6.97943
-6.9938
-7.00892
-7.02478
-7.0414
-7.05877
-7.07689
-7.09574
-7.11533
-7.13565
-7.15669
-7.17843
-7.20087
-7.224
-7.24779
-7.27224
-7.29731
-7.32299
-7.34925
-7.37604
-7.40334
-7.4311
-7.45927
-7.4878
-7.51664
-7.54571
-7.57495
-7.60428
-7.63362
-7.66288
-7.69196
-7.72077
-7.74919
-7.7771
-7.80439
-7.83093
-7.85658
-7.88119
-7.90462
-7.92673
-7.94734
-7.9663
-7.98343
-7.99858
-8.01155
-8.02218
-8.03028
-8.03567
-8.03816
-8.03758
-8.03373
-8.02643
-8.01549
-8.00073
-7.98198
-7.95905
-7.93176
-7.89994
-7.86344
-7.82207
-7.77568
-7.72412
-7.66723
-7.60488
-7.53692
-7.46321
-7.38363
-7.29806
-7.20636
-7.10842
-7.00413
-6.89339
-6.77612
-6.65225
-6.52172
-6.38448
-6.24051
-6.08978
-5.93229
-5.76805
-5.59709
-5.41943
-5.23514
-5.04429
-4.84695
-4.64323
-4.43324
-4.21711
-3.99498
-3.76702
-3.5334
-3.2943
-3.04993
-2.8005
-2.54623
-2.28737
-2.02417
-1.75688
-1.48578
-1.21115
-0.933261
-0.652417
-0.368914
-0.0830593
0.20484
0.494471
0.78552
1.07767
1.37062
1.66404
1.95762
2.25107
2.54408
2.83634
3.12758
3.41749
3.70582
3.99228
4.27663
4.55861
4.83799
5.11453
5.38803
5.65828
5.92509
6.18827
6.44767
6.70312
6.95448
7.20161
7.44441
7.68275
7.91653
8.14565
8.37003
8.58959
8.80424
9.01391
9.21854
9.41809
9.61252
9.80182
9.98594
10.1649
10.3385
10.5069
10.67
10.8277
10.9799
11.1263
11.2671
11.3986
11.5325
11.6047
-6.797
-6.80259
-6.8099
-6.81669
-6.82236
-6.82722
-6.83162
-6.83578
-6.83987
-6.84405
-6.84842
-6.85308
-6.8581
-6.86356
-6.86949
-6.87593
-6.88293
-6.8905
-6.89869
-6.9075
-6.91696
-6.92709
-6.9379
-6.9494
-6.96161
-6.97454
-6.9882
-7.00259
-7.01771
-7.03358
-7.05019
-7.06754
-7.08564
-7.10448
-7.12405
-7.14436
-7.16539
-7.18714
-7.2096
-7.23275
-7.25658
-7.28107
-7.30621
-7.33196
-7.3583
-7.38519
-7.41261
-7.44049
-7.4688
-7.49748
-7.52648
-7.55572
-7.58513
-7.61465
-7.64417
-7.67362
-7.7029
-7.73189
-7.7605
-7.7886
-7.81606
-7.84276
-7.86856
-7.89332
-7.91688
-7.9391
-7.95981
-7.97885
-7.99605
-8.01125
-8.02425
-8.03489
-8.04299
-8.04836
-8.05081
-8.05018
-8.04626
-8.03887
-8.02784
-8.01298
-7.99411
-7.97105
-7.94363
-7.91168
-7.87503
-7.83352
-7.78699
-7.73528
-7.67825
-7.61576
-7.54766
-7.47383
-7.39412
-7.30842
-7.21658
-7.1185
-7.01405
-6.90315
-6.78572
-6.66168
-6.53098
-6.39358
-6.24944
-6.09856
-5.94091
-5.77653
-5.60543
-5.42764
-5.24323
-5.05227
-4.85483
-4.65103
-4.44097
-4.22478
-4.00261
-3.77462
-3.54099
-3.30189
-3.05753
-2.80812
-2.55389
-2.29509
-2.03195
-1.76474
-1.49373
-1.21919
-0.941423
-0.660706
-0.377344
-0.0916379
0.196104
0.48557
0.776448
1.06842
1.36118
1.65441
1.9478
2.24105
2.53386
2.82592
3.11695
3.40666
3.69478
3.98105
4.2652
4.54698
4.82616
5.10252
5.37584
5.64592
5.91256
6.17558
6.43483
6.69014
6.94137
7.1884
7.43108
7.66932
7.90302
8.13207
8.35639
8.57589
8.7905
9.00014
9.20476
9.4043
9.59873
9.78803
9.97214
10.151
10.3246
10.4929
10.6558
10.8131
10.9648
11.1104
11.2499
11.3794
11.5113
11.5785
-6.80496
-6.81023
-6.81716
-6.8237
-6.82926
-6.83411
-6.83854
-6.84277
-6.84694
-6.85121
-6.85566
-6.8604
-6.8655
-6.87102
-6.87701
-6.8835
-6.89054
-6.89816
-6.90637
-6.9152
-6.92468
-6.93482
-6.94564
-6.95715
-6.96936
-6.98228
-6.99593
-7.01031
-7.02542
-7.04128
-7.05788
-7.07523
-7.09332
-7.11217
-7.13176
-7.1521
-7.17317
-7.19497
-7.21749
-7.24072
-7.26465
-7.28925
-7.3145
-7.34039
-7.36687
-7.39392
-7.4215
-7.44956
-7.47805
-7.50692
-7.5361
-7.56554
-7.59515
-7.62486
-7.65458
-7.68422
-7.71368
-7.74285
-7.77161
-7.79986
-7.82746
-7.85427
-7.88018
-7.90502
-7.92864
-7.95091
-7.97164
-7.99069
-8.00787
-8.02302
-8.03597
-8.04653
-8.05453
-8.05978
-8.0621
-8.06131
-8.05722
-8.04966
-8.03844
-8.02338
-8.0043
-7.98103
-7.95339
-7.92122
-7.88434
-7.84261
-7.79586
-7.74393
-7.68669
-7.62399
-7.55569
-7.48166
-7.40176
-7.31585
-7.22379
-7.12547
-7.02078
-6.90964
-6.79196
-6.66768
-6.53675
-6.39912
-6.25476
-6.10366
-5.94582
-5.78124
-5.60996
-5.43201
-5.24745
-5.05634
-4.85879
-4.65487
-4.44472
-4.22846
-4.00624
-3.77821
-3.54455
-3.30545
-3.06111
-2.81174
-2.55756
-2.29882
-2.03577
-1.76865
-1.49776
-1.22335
-0.945716
-0.665155
-0.381961
-0.0964345
0.191117
0.480382
0.77105
1.06281
1.35534
1.64833
1.94148
2.23449
2.52704
2.81885
3.10962
3.39908
3.68694
3.97295
4.25684
4.53838
4.81732
5.09343
5.36652
5.63637
5.90279
6.1656
6.42465
6.67978
6.93083
7.17769
7.42022
7.65832
7.89189
8.12082
8.34504
8.56445
8.77899
8.98857
9.19315
9.39266
9.58707
9.77634
9.96042
10.1393
10.3128
10.4809
10.6435
10.8005
10.9516
11.0962
11.2344
11.3621
11.492
11.5551
-6.81435
-6.81919
-6.8256
-6.83173
-6.83703
-6.84171
-6.84603
-6.85017
-6.85428
-6.85849
-6.8629
-6.86759
-6.87263
-6.8781
-6.88402
-6.89046
-6.89743
-6.90498
-6.91314
-6.92191
-6.93133
-6.94141
-6.95217
-6.96363
-6.97579
-6.98868
-7.00229
-7.01663
-7.03173
-7.04757
-7.06417
-7.08153
-7.09965
-7.11853
-7.13817
-7.15857
-7.17972
-7.20162
-7.22425
-7.2476
-7.27166
-7.29641
-7.32182
-7.34787
-7.37453
-7.40176
-7.42953
-7.45777
-7.48646
-7.51551
-7.54489
-7.5745
-7.60429
-7.63416
-7.66403
-7.69381
-7.72339
-7.75266
-7.78152
-7.80983
-7.83747
-7.86432
-7.89022
-7.91504
-7.93863
-7.96082
-7.98147
-8.0004
-8.01745
-8.03245
-8.04522
-8.05558
-8.06336
-8.06838
-8.07045
-8.0694
-8.06505
-8.05721
-8.0457
-8.03035
-8.01098
-7.98741
-7.95948
-7.92702
-7.88986
-7.84785
-7.80082
-7.74863
-7.69113
-7.62818
-7.55964
-7.48537
-7.40521
-7.31902
-7.22667
-7.12805
-7.02307
-6.91163
-6.79367
-6.66912
-6.53792
-6.40003
-6.25543
-6.10411
-5.94605
-5.78128
-5.60981
-5.4317
-5.24699
-5.05577
-4.8581
-4.6541
-4.44388
-4.22758
-4.00532
-3.77729
-3.54364
-3.30457
-3.06029
-2.81099
-2.55691
-2.29828
-2.03535
-1.76838
-1.49765
-1.22342
-0.945985
-0.665635
-0.382667
-0.0973812
0.189917
0.478917
0.76931
1.06078
1.35302
1.64571
1.93855
2.23124
2.52348
2.81496
3.10541
3.39454
3.68208
3.96777
4.25134
4.53256
4.81119
5.087
5.35979
5.62935
5.8955
6.15805
6.41684
6.67173
6.92255
7.16919
7.41153
7.64945
7.88285
8.11163
8.33571
8.55501
8.76944
8.97894
9.18345
9.38291
9.57728
9.76651
9.95053
10.1293
10.3027
10.4707
10.633
10.7895
10.94
11.0837
11.2206
11.3466
11.4746
11.5344
-6.82473
-6.8291
-6.8349
-6.8405
-6.8454
-6.84975
-6.8538
-6.8577
-6.86159
-6.86559
-6.8698
-6.87429
-6.87915
-6.88443
-6.89018
-6.89644
-6.90325
-6.91065
-6.91865
-6.92729
-6.93658
-6.94654
-6.9572
-6.96856
-6.98064
-6.99346
-7.00702
-7.02132
-7.03639
-7.05223
-7.06883
-7.08622
-7.10438
-7.12331
-7.14303
-7.16351
-7.18477
-7.20678
-7.22954
-7.25303
-7.27724
-7.30215
-7.32772
-7.35394
-7.38076
-7.40816
-7.43608
-7.46447
-7.4933
-7.52249
-7.55198
-7.58169
-7.61156
-7.6415
-7.67142
-7.70122
-7.7308
-7.76005
-7.78886
-7.8171
-7.84465
-7.87138
-7.89713
-7.92178
-7.94518
-7.96716
-7.98756
-8.00623
-8.02301
-8.0377
-8.05016
-8.0602
-8.06764
-8.0723
-8.07402
-8.07261
-8.06788
-8.05968
-8.0478
-8.03209
-8.01236
-7.98845
-7.96018
-7.92739
-7.88992
-7.8476
-7.80028
-7.74781
-7.69005
-7.62685
-7.55805
-7.4835
-7.40303
-7.31651
-7.22384
-7.12491
-7.01962
-6.90789
-6.78964
-6.66482
-6.53336
-6.39524
-6.25042
-6.09889
-5.94065
-5.77571
-5.60411
-5.42587
-5.24107
-5.04976
-4.85204
-4.64801
-4.43778
-4.22148
-3.99926
-3.77129
-3.53772
-3.29876
-3.0546
-2.80545
-2.55153
-2.2931
-2.03038
-1.76364
-1.49316
-1.21919
-0.94204
-0.661989
-0.379334
-0.0943762
0.19258
0.481228
0.771255
1.06235
1.35421
1.64651
1.93896
2.23124
2.52307
2.81416
3.1042
3.39292
3.68006
3.96534
4.24852
4.52935
4.8076
5.08304
5.35546
5.62467
5.89047
6.1527
6.41118
6.66577
6.91632
7.1627
7.40479
7.64248
7.87567
8.10427
8.32818
8.54733
8.76164
8.97104
9.17546
9.37485
9.56916
9.75833
9.94229
10.121
10.2942
10.462
10.624
10.7801
10.9299
11.0727
11.2084
11.3327
11.4588
11.516
-6.8358
-6.83968
-6.84482
-6.8498
-6.85416
-6.85804
-6.86164
-6.86512
-6.86861
-6.87222
-6.87605
-6.8802
-6.88472
-6.88968
-6.89513
-6.90112
-6.90767
-6.91482
-6.9226
-6.93103
-6.94014
-6.94994
-6.96045
-6.97169
-6.98366
-6.99639
-7.00988
-7.02414
-7.03918
-7.05501
-7.07162
-7.08903
-7.10723
-7.12623
-7.14601
-7.16658
-7.18793
-7.21005
-7.23291
-7.25652
-7.28084
-7.30585
-7.33152
-7.35783
-7.38473
-7.41219
-7.44016
-7.46859
-7.49742
-7.52659
-7.55605
-7.5857
-7.61549
-7.64531
-7.67509
-7.70473
-7.73412
-7.76315
-7.79172
-7.8197
-7.84696
-7.87338
-7.89881
-7.92311
-7.94613
-7.96773
-7.98774
-8.006
-8.02234
-8.03661
-8.04863
-8.05822
-8.06522
-8.06944
-8.07071
-8.06886
-8.0637
-8.05507
-8.04279
-8.02668
-8.00657
-7.98229
-7.95368
-7.92056
-7.88278
-7.84017
-7.79259
-7.73987
-7.68188
-7.61844
-7.54935
-7.47448
-7.39368
-7.30684
-7.21386
-7.11464
-7.00907
-6.89709
-6.7786
-6.65355
-6.5219
-6.38359
-6.23862
-6.08695
-5.9286
-5.76358
-5.59191
-5.41364
-5.22882
-5.03753
-4.83985
-4.63588
-4.42573
-4.20955
-3.98747
-3.75966
-3.52628
-3.28753
-3.04361
-2.79471
-2.54108
-2.28295
-2.02055
-1.75416
-1.48404
-1.21045
-0.933697
-0.654058
-0.37183
-0.0873132
0.19919
0.487372
0.776924
1.06754
1.3589
1.65071
1.94265
2.23444
2.52576
2.81634
3.10588
3.3941
3.68074
3.96554
4.24823
4.52859
4.80637
5.08136
5.35335
5.62213
5.88753
6.14937
6.40748
6.66171
6.91193
7.15799
7.3998
7.63722
7.87017
8.09855
8.32227
8.54125
8.75541
8.96468
9.16901
9.36832
9.56256
9.75166
9.93555
10.1141
10.2873
10.4548
10.6165
10.7722
10.9213
11.0631
11.1976
11.3204
11.4447
11.5
-6.84778
-6.85119
-6.85566
-6.85993
-6.8636
-6.86679
-6.86971
-6.87252
-6.87537
-6.87836
-6.88162
-6.88522
-6.88924
-6.89373
-6.89875
-6.90434
-6.91052
-6.91734
-6.92482
-6.93298
-6.94184
-6.95142
-6.96173
-6.9728
-6.98463
-6.99723
-7.01062
-7.0248
-7.03977
-7.05555
-7.07214
-7.08953
-7.10772
-7.12672
-7.14651
-7.16709
-7.18844
-7.21056
-7.23342
-7.257
-7.28128
-7.30624
-7.33185
-7.35806
-7.38484
-7.41216
-7.43995
-7.46818
-7.49678
-7.5257
-7.55486
-7.5842
-7.61365
-7.6431
-7.67249
-7.70171
-7.73067
-7.75924
-7.78734
-7.81482
-7.84158
-7.86747
-7.89237
-7.91613
-7.93861
-7.95965
-7.97911
-7.99681
-8.01261
-8.02633
-8.0378
-8.04686
-8.05333
-8.05704
-8.05782
-8.05548
-8.04987
-8.0408
-8.0281
-8.0116
-7.99113
-7.96652
-7.93761
-7.90422
-7.86619
-7.82337
-7.77561
-7.72272
-7.66451
-7.60079
-7.53141
-7.45624
-7.37516
-7.28807
-7.19486
-7.09542
-6.98967
-6.87751
-6.75888
-6.63371
-6.50196
-6.36358
-6.21856
-6.06688
-5.90854
-5.74356
-5.57196
-5.39378
-5.20908
-5.01794
-4.82043
-4.61667
-4.40676
-4.19084
-3.96904
-3.74154
-3.5085
-3.27012
-3.02658
-2.7781
-2.5249
-2.26722
-2.00531
-1.73941
-1.4698
-1.19675
-0.920546
-0.641471
-0.359821
-0.0758942
0.210008