/*--------------------------------*- C++ -*----------------------------------*\
  =========                 |
  \\      /  F ield         | OpenFOAM: The Open Source CFD Toolbox
   \\    /   O peration     | Website:  https://openfoam.org
    \\  /    A nd           | Version:  9
     \\/     M anipulation  |
\*---------------------------------------------------------------------------*/
FoamFile
{
    format      ascii;
    class       surfaceScalarField;
    location    "0.15";
    object      phi;
}
// * * * * * * * * * * * * * * * * * * * * * * * * * * * * * * * * * * * * * //

dimensions      [0 3 -1 0 0 0 0];

internalField   nonuniform List<scalar> 
24170
(
3.1336e-06
5.48083e-08
3.04827e-06
8.53317e-08
2.97313e-06
7.51321e-08
2.90429e-06
6.88474e-08
2.83944e-06
6.48443e-08
2.7822e-06
5.72402e-08
2.73328e-06
4.89224e-08
2.69173e-06
4.15517e-08
2.65626e-06
3.54724e-08
2.62569e-06
3.05623e-08
2.59907e-06
2.66225e-08
2.57558e-06
2.34904e-08
2.55453e-06
2.10488e-08
2.53524e-06
1.92891e-08
2.51706e-06
1.81854e-08
2.49815e-06
1.89114e-08
2.47722e-06
2.09292e-08
3.88124e-08
2.4384e-06
3.45361e-06
1.84465e-08
3.45616e-06
8.27801e-08
3.44961e-06
8.16804e-08
3.43799e-06
8.04742e-08
3.42349e-06
7.93405e-08
3.40594e-06
7.47915e-08
3.3863e-06
6.85654e-08
3.36538e-06
6.24724e-08
3.34395e-06
5.69003e-08
3.32262e-06
5.18921e-08
3.30178e-06
4.74563e-08
3.28167e-06
4.36045e-08
3.26239e-06
4.03317e-08
3.24392e-06
3.77544e-08
3.22632e-06
3.57882e-08
3.20941e-06
3.58165e-08
3.19412e-06
3.6228e-08
4.69232e-08
3.186e-06
3.66535e-06
1.56107e-08
3.67825e-06
6.98836e-08
3.68531e-06
7.46238e-08
3.68958e-06
7.61987e-08
3.69125e-06
7.76754e-08
3.6901e-06
7.59344e-08
3.68664e-06
7.20308e-08
3.68143e-06
6.7685e-08
3.67489e-06
6.34343e-08
3.66738e-06
5.93986e-08
3.65919e-06
5.56554e-08
3.65051e-06
5.22851e-08
3.64149e-06
4.93455e-08
3.63225e-06
4.6993e-08
3.62278e-06
4.52569e-08
3.61352e-06
4.50761e-08
3.60412e-06
4.56322e-08
5.05927e-08
3.60045e-06
3.92465e-06
1.63512e-08
3.9358e-06
5.8735e-08
3.94254e-06
6.7885e-08
3.948e-06
7.07299e-08
3.95241e-06
7.32728e-08
3.95531e-06
7.3026e-08
3.95685e-06
7.04925e-08
3.95732e-06
6.72202e-08
3.9569e-06
6.38552e-08
3.95574e-06
6.05578e-08
3.95397e-06
5.74229e-08
3.9517e-06
5.45538e-08
3.94901e-06
5.20363e-08
3.94598e-06
5.00206e-08
3.94265e-06
4.85902e-08
3.93946e-06
4.827e-08
3.93641e-06
4.86823e-08
5.08268e-08
3.93617e-06
4.20777e-06
1.57122e-08
4.21599e-06
5.05065e-08
4.22165e-06
6.22264e-08
4.22658e-06
6.58052e-08
4.23127e-06
6.85836e-08
4.23521e-06
6.90814e-08
4.23829e-06
6.74118e-08
4.24064e-06
6.48685e-08
4.24238e-06
6.21226e-08
4.24358e-06
5.93595e-08
4.24432e-06
5.66816e-08
4.24467e-06
5.42004e-08
4.24469e-06
5.20135e-08
4.24447e-06
5.02482e-08
4.24407e-06
4.89886e-08
4.24384e-06
4.84922e-08
4.24399e-06
4.85349e-08
4.91679e-08
4.24565e-06
4.51044e-06
1.43607e-08
4.51686e-06
4.40875e-08
4.52216e-06
5.69207e-08
4.52681e-06
6.11536e-08
4.53142e-06
6.39805e-08
4.5356e-06
6.49029e-08
4.53917e-06
6.38432e-08
4.54219e-06
6.18428e-08
4.54475e-06
5.95596e-08
4.54691e-06
5.7202e-08
4.54871e-06
5.48784e-08
4.55021e-06
5.27007e-08
4.55146e-06
5.07656e-08
4.55254e-06
4.91732e-08
4.55354e-06
4.7984e-08
4.55474e-06
4.72974e-08
4.55634e-06
4.69317e-08
4.66483e-08
4.55886e-06
4.83412e-06
1.29611e-08
4.83957e-06
3.8632e-08
4.84482e-06
5.16748e-08
4.8494e-06
5.65715e-08
4.8539e-06
5.94813e-08
4.85812e-06
6.06873e-08
4.86187e-06
6.00938e-08
4.86518e-06
5.85271e-08
4.86813e-06
5.66118e-08
4.87075e-06
5.45784e-08
4.87309e-06
5.25405e-08
4.87519e-06
5.06054e-08
4.87709e-06
4.8862e-08
4.87888e-06
4.73842e-08
4.88066e-06
4.62047e-08
4.88262e-06
4.53348e-08
4.88494e-06
4.46104e-08
4.37599e-08
4.88783e-06
5.1809e-06
1.16427e-08
5.1857e-06
3.3831e-08
5.19083e-06
4.65466e-08
5.1954e-06
5.2001e-08
5.19985e-06
5.50286e-08
5.2041e-06
5.64407e-08
5.20797e-06
5.62265e-08
5.21146e-06
5.50314e-08
5.21464e-06
5.34303e-08
5.21755e-06
5.16714e-08
5.22022e-06
4.98736e-08
5.22268e-06
4.81372e-08
5.22501e-06
4.65412e-08
5.22725e-06
4.5138e-08
5.22952e-06
4.39371e-08
5.23195e-06
4.29071e-08
5.23465e-06
4.19046e-08
4.0709e-08
5.2377e-06
5.5526e-06
1.03808e-08
5.55685e-06
2.9585e-08
5.56176e-06
4.16354e-08
5.56631e-06
4.74426e-08
5.57076e-06
5.0583e-08
5.57505e-06
5.21465e-08
5.57903e-06
5.22463e-08
5.58268e-06
5.13812e-08
5.58605e-06
5.0062e-08
5.58918e-06
4.85461e-08
5.59209e-06
4.69578e-08
5.59484e-06
4.53902e-08
5.59747e-06
4.39119e-08
5.60005e-06
4.25598e-08
5.60266e-06
4.13292e-08
5.60539e-06
4.01738e-08
5.60832e-06
3.89766e-08
3.75835e-08
5.61144e-06
5.95098e-06
9.1723e-09
5.95475e-06
2.5817e-08
5.9594e-06
3.69862e-08
5.96393e-06
4.29169e-08
5.96837e-06
4.6137e-08
5.97271e-06
4.7806e-08
5.9768e-06
4.81578e-08
5.9806e-06
4.75826e-08
5.98414e-06
4.65191e-08
5.98747e-06
4.52231e-08
5.9906e-06
4.38227e-08
5.99359e-06
4.24038e-08
5.99647e-06
4.1026e-08
5.99932e-06
3.9716e-08
6.00218e-06
3.84639e-08
6.00513e-06
3.7224e-08
6.0082e-06
3.59083e-08
3.44209e-08
6.01136e-06
6.37795e-06
8.03064e-09
6.38132e-06
2.24492e-08
6.3857e-06
3.26077e-08
6.39017e-06
3.84488e-08
6.39461e-06
4.16959e-08
6.39899e-06
4.34288e-08
6.40317e-06
4.39706e-08
6.40712e-06
4.36409e-08
6.41083e-06
4.28062e-08
6.41434e-06
4.17097e-08
6.41768e-06
4.04797e-08
6.42089e-06
3.91961e-08
6.42401e-06
3.79106e-08
6.42708e-06
3.6645e-08
6.43015e-06
3.53898e-08
6.43327e-06
3.41087e-08
6.43644e-06
3.274e-08
3.12328e-08
6.43962e-06
5.74175e-06
7.11723e-09
5.74433e-06
1.9868e-08
5.74782e-06
2.91136e-08
5.75154e-06
3.47308e-08
5.75529e-06
3.79499e-08
5.75901e-06
3.97081e-08
5.76261e-06
4.03644e-08
5.76605e-06
4.02044e-08
5.76932e-06
3.95408e-08
5.77243e-06
3.85975e-08
5.77541e-06
3.75e-08
5.77828e-06
3.63233e-08
5.78108e-06
3.51146e-08
5.78383e-06
3.38937e-08
5.78656e-06
3.26544e-08
5.7893e-06
3.13705e-08
5.79204e-06
2.99993e-08
2.85189e-08
5.79476e-06
6.99913e-06
6.14113e-09
7.00186e-06
1.71381e-08
7.00564e-06
2.53328e-08
7.0098e-06
3.05733e-08
7.01407e-06
3.36815e-08
7.01835e-06
3.54228e-08
7.02255e-06
3.61633e-08
7.0266e-06
3.61566e-08
7.03048e-06
3.56609e-08
7.03421e-06
3.48746e-08
7.03779e-06
3.39165e-08
7.04126e-06
3.28566e-08
7.04463e-06
3.17377e-08
7.04795e-06
3.05794e-08
7.05122e-06
2.93808e-08
7.05446e-06
2.81275e-08
7.05767e-06
2.67944e-08
2.53818e-08
7.06081e-06
8.53188e-06
5.1115e-09
8.53473e-06
1.42857e-08
8.53877e-06
2.1292e-08
8.54336e-06
2.59821e-08
8.54818e-06
2.88673e-08
8.55307e-06
3.05285e-08
8.55793e-06
3.13055e-08
8.56266e-06
3.14202e-08
8.56725e-06
3.10783e-08
8.57167e-06
3.04467e-08
8.57596e-06
2.96327e-08
8.58011e-06
2.87006e-08
8.58416e-06
2.76895e-08
8.58812e-06
2.66195e-08
8.59201e-06
2.54962e-08
8.59582e-06
2.43159e-08
8.59954e-06
2.30684e-08
2.17688e-08
8.60316e-06
1.04003e-05
4.0388e-09
1.04032e-05
1.13281e-08
1.04075e-05
1.70091e-08
1.04126e-05
2.09626e-08
1.04179e-05
2.34845e-08
1.04235e-05
2.49784e-08
1.04291e-05
2.57262e-08
1.04346e-05
2.59138e-08
1.04399e-05
2.5699e-08
1.04452e-05
2.52129e-08
1.04503e-05
2.4546e-08
1.04552e-05
2.37552e-08
1.046e-05
2.28754e-08
1.04647e-05
2.19276e-08
1.04693e-05
2.09224e-08
1.04737e-05
1.98647e-08
1.04781e-05
1.87543e-08
1.76147e-08
1.04822e-05
1.26779e-05
2.92842e-09
1.2681e-05
8.25645e-09
1.26855e-05
1.24748e-08
1.2691e-05
1.5502e-08
1.2697e-05
1.74968e-08
1.27032e-05
1.87105e-08
1.27096e-05
1.93463e-08
1.2716e-05
1.95451e-08
1.27223e-05
1.94196e-08
1.27284e-05
1.90636e-08
1.27344e-05
1.85462e-08
1.27402e-05
1.79132e-08
1.27459e-05
1.71943e-08
1.27514e-05
1.64093e-08
1.27568e-05
1.55711e-08
1.2762e-05
1.46894e-08
1.2767e-05
1.37695e-08
1.28372e-08
1.27717e-05
1.54543e-05
1.76899e-09
1.54576e-05
5.01892e-09
1.54624e-05
7.62058e-09
1.54684e-05
9.52859e-09
1.54751e-05
1.08181e-08
1.54822e-05
1.16194e-08
1.54895e-05
1.20482e-08
1.54968e-05
1.21896e-08
1.55041e-05
1.21109e-08
1.55113e-05
1.18683e-08
1.55184e-05
1.15051e-08
1.55252e-05
1.10516e-08
1.55319e-05
1.0529e-08
1.55384e-05
9.95276e-09
1.55446e-05
9.3345e-09
1.55506e-05
8.68425e-09
1.55564e-05
8.00845e-09
7.33112e-09
1.55619e-05
1.88389e-05
5.18619e-10
1.88424e-05
1.48329e-09
1.88478e-05
2.25845e-09
1.88545e-05
2.83453e-09
1.88621e-05
3.23397e-09
1.88702e-05
3.48657e-09
1.88786e-05
3.61505e-09
1.88872e-05
3.63816e-09
1.88957e-05
3.57406e-09
1.89041e-05
3.43892e-09
1.89124e-05
3.24554e-09
1.89205e-05
3.00397e-09
1.89283e-05
2.72246e-09
1.89358e-05
2.40817e-09
1.89431e-05
2.06754e-09
1.895e-05
1.70713e-09
1.89567e-05
1.33123e-09
9.58948e-10
1.89631e-05
2.29648e-05
-9.30307e-10
2.29689e-05
-2.65336e-09
2.29752e-05
-4.05084e-09
2.29831e-05
-5.07915e-09
2.29921e-05
-5.75452e-09
2.30018e-05
-6.16334e-09
2.30118e-05
-6.39877e-09
2.3022e-05
-6.51947e-09
2.30321e-05
-6.56225e-09
2.30421e-05
-6.55844e-09
2.30519e-05
-6.5334e-09
2.30614e-05
-6.50335e-09
2.30706e-05
-6.47721e-09
2.30794e-05
-6.45969e-09
2.3088e-05
-6.45288e-09
2.30961e-05
-6.45656e-09
2.31039e-05
-6.47064e-09
-6.48285e-09
2.31114e-05
1.68119e-05
-2.07749e-09
1.68151e-05
-5.89299e-09
1.682e-05
-8.98678e-09
1.68262e-05
-1.1214e-08
1.6833e-05
-1.26231e-08
1.68403e-05
-1.34478e-08
1.68478e-05
-1.38921e-08
1.68554e-05
-1.4064e-08
1.68628e-05
-1.40387e-08
1.68702e-05
-1.38867e-08
1.68773e-05
-1.36631e-08
1.68842e-05
-1.34021e-08
1.68908e-05
-1.31245e-08
1.68972e-05
-1.28436e-08
1.69033e-05
-1.25675e-08
1.69092e-05
-1.23003e-08
1.69148e-05
-1.20445e-08
-1.17919e-08
1.69201e-05
1.46357e-05
-3.18821e-09
1.46388e-05
-9.0575e-09
1.46437e-05
-1.38192e-08
1.46496e-05
-1.71071e-08
1.4656e-05
-1.90672e-08
1.46627e-05
-2.0174e-08
1.46696e-05
-2.07296e-08
1.46764e-05
-2.08683e-08
1.46831e-05
-2.07098e-08
1.46895e-05
-2.03705e-08
1.46958e-05
-1.99297e-08
1.47018e-05
-1.94327e-08
1.47076e-05
-1.89086e-08
1.47132e-05
-1.83773e-08
1.47184e-05
-1.78519e-08
1.47235e-05
-1.73388e-08
1.47283e-05
-1.68422e-08
-1.63566e-08
1.47328e-05
1.27412e-05
-4.23828e-09
1.27444e-05
-1.22731e-08
1.27494e-05
-1.87847e-08
1.27552e-05
-2.29118e-08
1.27613e-05
-2.51941e-08
1.27676e-05
-2.64762e-08
1.27739e-05
-2.70623e-08
1.27801e-05
-2.70792e-08
1.27861e-05
-2.67186e-08
1.27919e-05
-2.61518e-08
1.27975e-05
-2.54738e-08
1.28028e-05
-2.47344e-08
1.28078e-05
-2.39676e-08
1.28127e-05
-2.31985e-08
1.28172e-05
-2.24418e-08
1.28216e-05
-2.17052e-08
1.28258e-05
-2.09926e-08
-2.02999e-08
1.28297e-05
1.10918e-05
-5.11715e-09
1.10951e-05
-1.55996e-08
1.11004e-05
-2.40871e-08
1.11062e-05
-2.87026e-08
1.11121e-05
-3.10464e-08
1.1118e-05
-3.2408e-08
1.11239e-05
-3.29356e-08
1.11296e-05
-3.27482e-08
1.1135e-05
-3.21375e-08
1.11401e-05
-3.13199e-08
1.11451e-05
-3.03927e-08
1.11497e-05
-2.94072e-08
1.11542e-05
-2.8403e-08
1.11584e-05
-2.74077e-08
1.11624e-05
-2.64363e-08
1.11662e-05
-2.54956e-08
1.11698e-05
-2.45886e-08
-2.3712e-08
1.11732e-05
9.65583e-06
-5.7326e-09
9.65936e-06
-1.91276e-08
9.66497e-06
-2.96941e-08
9.67066e-06
-3.43935e-08
9.6763e-06
-3.66946e-08
9.68195e-06
-3.80543e-08
9.6874e-06
-3.83817e-08
9.69254e-06
-3.78962e-08
9.69741e-06
-3.70053e-08
9.70202e-06
-3.59314e-08
9.70639e-06
-3.47544e-08
9.7105e-06
-3.35257e-08
9.71439e-06
-3.22903e-08
9.71806e-06
-3.10773e-08
9.72153e-06
-2.9901e-08
9.7248e-06
-2.87675e-08
9.72789e-06
-2.76778e-08
-2.66271e-08
9.7308e-06
8.40543e-06
-5.81382e-09
8.40981e-06
-2.35053e-08
8.41532e-06
-3.52019e-08
8.42052e-06
-3.95898e-08
8.42595e-06
-4.2132e-08
8.43143e-06
-4.3534e-08
8.43659e-06
-4.35414e-08
8.44136e-06
-4.2666e-08
8.4458e-06
-4.14439e-08
8.44994e-06
-4.00749e-08
8.45381e-06
-3.86166e-08
8.4574e-06
-3.7121e-08
8.46075e-06
-3.56358e-08
8.46386e-06
-3.41902e-08
8.46676e-06
-3.27977e-08
8.46945e-06
-3.14642e-08
8.47197e-06
-3.01905e-08
-2.89727e-08
8.47431e-06
7.31506e-06
-3.58778e-09
7.32195e-06
-3.03926e-08
7.3274e-06
-4.06554e-08
7.33217e-06
-4.43623e-08
7.33749e-06
-4.74493e-08
7.34287e-06
-4.89143e-08
7.34784e-06
-4.851e-08
7.35233e-06
-4.71546e-08
7.35638e-06
-4.54952e-08
7.36001e-06
-4.37103e-08
7.36326e-06
-4.18589e-08
7.36614e-06
-4.00044e-08
7.3687e-06
-3.81962e-08
7.37097e-06
-3.64604e-08
7.37298e-06
-3.48088e-08
7.37476e-06
-3.32458e-08
7.37634e-06
-3.17686e-08
-3.03708e-08
7.37774e-06
6.36222e-06
4.25681e-09
6.37295e-06
-4.11191e-08
6.38008e-06
-4.77844e-08
6.38626e-06
-5.05453e-08
6.39223e-06
-5.34218e-08
6.39752e-06
-5.42054e-08
6.40189e-06
-5.28726e-08
6.40547e-06
-5.07355e-08
6.40838e-06
-4.84077e-08
6.41067e-06
-4.60018e-08
6.4124e-06
-4.35853e-08
6.41363e-06
-4.1236e-08
6.41444e-06
-3.90024e-08
6.41488e-06
-3.69041e-08
6.41502e-06
-3.49477e-08
6.41491e-06
-3.31343e-08
6.41459e-06
-3.14558e-08
-2.98915e-08
6.41411e-06
5.53608e-06
1.3641e-08
5.54776e-06
-5.27941e-08
5.55744e-06
-5.74725e-08
5.56601e-06
-5.91162e-08
5.57278e-06
-6.01909e-08
5.57721e-06
-5.86285e-08
5.57936e-06
-5.50216e-08
5.57979e-06
-5.11723e-08
5.57894e-06
-4.75552e-08
5.57708e-06
-4.41418e-08
5.57443e-06
-4.09396e-08
5.57118e-06
-3.79863e-08
5.56748e-06
-3.52954e-08
5.56343e-06
-3.28585e-08
5.55915e-06
-3.06614e-08
5.55471e-06
-2.87008e-08
5.55022e-06
-2.69679e-08
-2.54016e-08
5.54573e-06
4.85751e-06
-1.62595e-08
4.86091e-06
-5.61962e-08
4.8615e-06
-5.80664e-08
4.85884e-06
-5.64501e-08
4.85483e-06
-5.61858e-08
4.84814e-06
-5.19355e-08
4.83889e-06
-4.5771e-08
4.82764e-06
-3.99244e-08
4.81504e-06
-3.49494e-08
4.80166e-06
-3.0769e-08
4.78797e-06
-2.7247e-08
4.77426e-06
-2.42805e-08
4.76075e-06
-2.17785e-08
4.74755e-06
-1.9662e-08
4.73476e-06
-1.7868e-08
4.72244e-06
-1.63865e-08
4.71072e-06
-1.52442e-08
-1.49339e-08
4.70025e-06
4.18642e-06
4.13022e-06
4.07215e-06
4.0157e-06
3.95952e-06
3.90758e-06
3.86181e-06
3.82189e-06
3.78694e-06
3.75617e-06
3.72892e-06
3.70464e-06
3.68286e-06
3.6632e-06
3.64533e-06
3.62895e-06
3.6137e-06
3.59877e-06
1.17298e-08
-1.17298e-08
2.32755e-08
-1.15457e-08
3.01322e-08
-6.85674e-09
3.13393e-08
-1.20713e-09
2.71775e-08
4.16188e-09
1.85224e-08
8.65502e-09
6.40767e-09
1.21148e-08
-8.23892e-09
1.46466e-08
-2.47286e-08
1.64897e-08
-4.26043e-08
1.78757e-08
-6.15816e-08
1.89773e-08
-8.14929e-08
1.99114e-08
-1.0224e-07
2.07474e-08
-1.23763e-07
2.15223e-08
-1.46016e-07
2.22532e-08
-1.68961e-07
2.29457e-08
-1.92562e-07
2.36003e-08
-2.16778e-07
2.4216e-08
-2.4157e-07
2.47922e-08
-2.669e-07
2.53298e-08
-2.92732e-07
2.58321e-08
-3.19036e-07
2.63038e-08
-3.45782e-07
2.67464e-08
-3.72932e-07
2.71499e-08
-4.00419e-07
2.7487e-08
-4.28152e-07
2.77329e-08
-4.56077e-07
2.79251e-08
-4.84318e-07
2.82412e-08
-5.13663e-07
2.93448e-08
-5.45593e-07
3.19303e-08
-5.77612e-07
3.20188e-08
-6.07733e-07
3.0121e-08
-6.37241e-07
2.95082e-08
-6.69433e-07
3.21916e-08
-7.05946e-07
3.65129e-08
-7.39906e-07
3.39606e-08
-7.74683e-07
3.47761e-08
-8.13925e-07
3.92423e-08
-8.53363e-07
3.94387e-08
-8.95155e-07
4.17919e-08
-9.36307e-07
4.11513e-08
-9.72917e-07
3.66101e-08
-1.00985e-06
3.69322e-08
-1.04909e-06
3.92456e-08
-1.08946e-06
4.03615e-08
-1.13053e-06
4.10785e-08
-1.17206e-06
4.15291e-08
-1.21388e-06
4.1813e-08
-1.25586e-06
4.19882e-08
-1.29795e-06
4.20887e-08
-1.34009e-06
4.21347e-08
-1.38223e-06
4.21381e-08
-1.42433e-06
4.21058e-08
-1.46637e-06
4.20416e-08
-1.50832e-06
4.19474e-08
-1.55014e-06
4.18236e-08
-1.59181e-06
4.16701e-08
-1.6333e-06
4.14862e-08
-1.67457e-06
4.12708e-08
-1.71559e-06
4.10227e-08
-1.75633e-06
4.07406e-08
-1.79676e-06
4.04233e-08
-1.83683e-06
4.00695e-08
-1.87651e-06
3.9678e-08
-1.91575e-06
3.92478e-08
-1.95453e-06
3.87779e-08
-1.9928e-06
3.82675e-08
-2.03051e-06
3.77161e-08
-2.06764e-06
3.7123e-08
-2.10413e-06
3.64879e-08
-2.13994e-06
3.58106e-08
-2.17503e-06
3.5091e-08
-2.20936e-06
3.43293e-08
-2.24288e-06
3.35256e-08
-2.27556e-06
3.26802e-08
-2.30736e-06
3.17937e-08
-2.33822e-06
3.08666e-08
-2.36812e-06
2.98995e-08
-2.39702e-06
2.88931e-08
-2.42486e-06
2.78481e-08
-2.45163e-06
2.67655e-08
-2.47727e-06
2.56458e-08
-2.50176e-06
2.449e-08
-2.52506e-06
2.32987e-08
-2.54714e-06
2.20724e-08
-2.56795e-06
2.08114e-08
-2.58746e-06
1.9516e-08
-2.60565e-06
1.81859e-08
-2.62247e-06
1.68204e-08
-2.63789e-06
1.54183e-08
-2.65187e-06
1.39773e-08
-2.66436e-06
1.24942e-08
-2.67532e-06
1.09643e-08
-2.6847e-06
9.3797e-09
-2.69243e-06
7.73035e-09
-2.69843e-06
6.00082e-09
-2.70261e-06
4.17658e-09
-2.70487e-06
2.26116e-09
-2.70503e-06
1.62356e-10
-2.7035e-06
-1.53122e-09
-2.70037e-06
-3.13262e-09
-2.69568e-06
-4.6923e-09
-2.68944e-06
-6.23845e-09
-2.68165e-06
-7.78808e-09
-2.67231e-06
-9.34482e-09
-2.6614e-06
-1.0909e-08
-2.64892e-06
-1.24793e-08
-2.63487e-06
-1.40537e-08
-2.61924e-06
-1.56303e-08
-2.60203e-06
-1.72069e-08
-2.58325e-06
-1.87815e-08
-2.5629e-06
-2.03518e-08
-2.54098e-06
-2.19157e-08
-2.51751e-06
-2.34711e-08
-2.49249e-06
-2.50159e-08
-2.46594e-06
-2.6548e-08
-2.43788e-06
-2.80652e-08
-2.40831e-06
-2.95655e-08
-2.37727e-06
-3.10467e-08
-2.34476e-06
-3.25068e-08
-2.31082e-06
-3.39437e-08
-2.27546e-06
-3.53556e-08
-2.23872e-06
-3.67404e-08
-2.20062e-06
-3.80964e-08
-2.1612e-06
-3.94218e-08
-2.12049e-06
-4.07148e-08
-2.07851e-06
-4.19736e-08
-2.03532e-06
-4.31966e-08
-1.99094e-06
-4.43822e-08
-1.94541e-06
-4.55287e-08
-1.89877e-06
-4.66348e-08
-1.85107e-06
-4.76992e-08
-1.80235e-06
-4.87206e-08
-1.75265e-06
-4.96981e-08
-1.70202e-06
-5.06305e-08
-1.65051e-06
-5.15169e-08
-1.59815e-06
-5.23564e-08
-1.545e-06
-5.31485e-08
-1.49111e-06
-5.38925e-08
-1.43652e-06
-5.45882e-08
-1.38129e-06
-5.52354e-08
-1.32545e-06
-5.58338e-08
-1.26907e-06
-5.63835e-08
-1.21218e-06
-5.68847e-08
-1.15485e-06
-5.7338e-08
-1.0971e-06
-5.77438e-08
-1.039e-06
-5.81028e-08
-9.80583e-07
-5.84157e-08
-9.21899e-07
-5.86838e-08
-8.62991e-07
-5.89083e-08
-8.03901e-07
-5.90903e-08
-7.44669e-07
-5.92314e-08
-6.85336e-07
-5.93334e-08
-6.25938e-07
-5.93978e-08
-5.66512e-07
-5.94265e-08
-5.0709e-07
-5.94213e-08
-4.47706e-07
-5.93838e-08
-3.88391e-07
-5.93153e-08
-3.29175e-07
-5.92164e-08
-2.70087e-07
-5.90881e-08
-2.11159e-07
-5.89272e-08
-1.52427e-07
-5.8732e-08
-9.39236e-08
-5.85039e-08
-3.56888e-08
-5.82348e-08
2.22371e-08
-5.79259e-08
7.98119e-08
-5.75748e-08
1.37033e-07
-5.72207e-08
1.93919e-07
-5.68862e-08
2.50492e-07
-5.65732e-08
3.06758e-07
-5.62662e-08
3.62705e-07
-5.59467e-08
4.18295e-07
-5.55896e-08
4.7345e-07
-5.51557e-08
5.28027e-07
-5.45771e-08
5.81748e-07
-5.37203e-08
6.34062e-07
-5.23142e-08
6.83719e-07
-4.96574e-08
7.27792e-07
-4.40733e-08
7.58343e-07
-3.05502e-08
1.07429e-08
7.476e-07
6.96462e-09
-1.86944e-08
7.71578e-09
-1.22969e-08
4.06048e-09
-3.20143e-09
-2.59766e-09
5.45101e-09
-1.17687e-08
1.33329e-08
-2.33324e-08
2.02188e-08
-3.72123e-08
2.59946e-08
-5.32591e-08
3.06935e-08
-7.12385e-08
3.44691e-08
-9.08884e-08
3.75256e-08
-1.11969e-07
4.00576e-08
-1.34281e-07
4.22238e-08
-1.57674e-07
4.414e-08
-1.82036e-07
4.58844e-08
-2.07289e-07
4.75063e-08
-2.33379e-07
4.90359e-08
-2.60271e-07
5.04918e-08
-2.87942e-07
5.18869e-08
-3.16382e-07
5.32325e-08
-3.45592e-07
5.45404e-08
-3.75584e-07
5.5824e-08
-4.06378e-07
5.7097e-08
-4.38001e-07
5.837e-08
-4.70498e-07
5.96464e-08
-5.03934e-07
6.09238e-08
-5.3841e-07
6.22087e-08
-5.74029e-07
6.35442e-08
-6.10839e-07
6.50507e-08
-6.48438e-07
6.69441e-08
-6.85687e-07
6.91793e-08
-7.24427e-07
7.0759e-08
-7.65792e-07
7.14861e-08
-8.08747e-07
7.24624e-08
-8.50854e-07
7.42984e-08
-8.90847e-07
7.6506e-08
-9.34281e-07
7.73945e-08
-9.77774e-07
7.82693e-08
-1.01857e-06
8.00379e-08
-1.06011e-06
8.0981e-08
-1.10008e-06
8.17555e-08
-1.14056e-06
8.16313e-08
-1.18438e-06
8.04315e-08
-1.22749e-06
8.00426e-08
-1.2686e-06
8.03549e-08
-1.30886e-06
8.06217e-08
-1.34857e-06
8.07925e-08
-1.38791e-06
8.08683e-08
-1.42695e-06
8.0858e-08
-1.46574e-06
8.0774e-08
-1.50428e-06
8.06267e-08
-1.54257e-06
8.04235e-08
-1.5806e-06
8.01691e-08
-1.61836e-06
7.9866e-08
-1.65583e-06
7.9515e-08
-1.693e-06
7.91157e-08
-1.72984e-06
7.86669e-08
-1.76634e-06
7.81667e-08
-1.80247e-06
7.76129e-08
-1.8382e-06
7.70032e-08
-1.87351e-06
7.63351e-08
-1.90838e-06
7.56063e-08
-1.94277e-06
7.48145e-08
-1.97666e-06
7.39575e-08
-2.01001e-06
7.30333e-08
-2.0428e-06
7.20404e-08
-2.075e-06
7.09771e-08
-2.10658e-06
6.98422e-08
-2.1375e-06
6.86348e-08
-2.16773e-06
6.7354e-08
-2.19724e-06
6.59995e-08
-2.226e-06
6.4571e-08
-2.25398e-06
6.30685e-08
-2.28114e-06
6.14921e-08
-2.30746e-06
5.98423e-08
-2.3329e-06
5.81199e-08
-2.35743e-06
5.63255e-08
-2.38102e-06
5.44601e-08
-2.40365e-06
5.25248e-08
-2.42528e-06
5.05209e-08
-2.44588e-06
4.84495e-08
-2.46542e-06
4.63121e-08
-2.48389e-06
4.41098e-08
-2.50124e-06
4.18442e-08
-2.51746e-06
3.95161e-08
-2.53251e-06
3.71269e-08
-2.54638e-06
3.46774e-08
-2.55903e-06
3.21683e-08
-2.57045e-06
2.95998e-08
-2.5806e-06
2.69723e-08
-2.58946e-06
2.42852e-08
-2.59703e-06
2.15381e-08
-2.60326e-06
1.87303e-08
-2.60816e-06
1.5861e-08
-2.61171e-06
1.29303e-08
-2.61392e-06
9.93984e-09
-2.61481e-06
6.89515e-09
-2.61445e-06
3.81027e-09
-2.61293e-06
7.40542e-10
-2.61041e-06
-2.35369e-09
-2.6066e-06
-5.34107e-09
-2.60139e-06
-8.34325e-09
-2.59471e-06
-1.13708e-08
-2.58653e-06
-1.44195e-08
-2.57683e-06
-1.74893e-08
-2.5656e-06
-2.05782e-08
-2.55282e-06
-2.36833e-08
-2.5385e-06
-2.68007e-08
-2.52263e-06
-2.99266e-08
-2.5052e-06
-3.30566e-08
-2.48622e-06
-3.61865e-08
-2.46569e-06
-3.9312e-08
-2.44361e-06
-4.24289e-08
-2.42e-06
-4.5533e-08
-2.39485e-06
-4.862e-08
-2.36818e-06
-5.16857e-08
-2.34e-06
-5.4726e-08
-2.31033e-06
-5.77366e-08
-2.27918e-06
-6.07133e-08
-2.24657e-06
-6.36521e-08
-2.21253e-06
-6.65487e-08
-2.17708e-06
-6.93992e-08
-2.14023e-06
-7.21996e-08
-2.10203e-06
-7.49462e-08
-2.06249e-06
-7.76352e-08
-2.02165e-06
-8.02632e-08
-1.97954e-06
-8.28265e-08
-1.93619e-06
-8.53219e-08
-1.89164e-06
-8.77458e-08
-1.84592e-06
-9.00952e-08
-1.79909e-06
-9.23667e-08
-1.75116e-06
-9.45577e-08
-1.7022e-06
-9.66655e-08
-1.65223e-06
-9.86878e-08
-1.60131e-06
-1.00622e-07
-1.54947e-06
-1.02467e-07
-1.49677e-06
-1.0422e-07
-1.44324e-06
-1.0588e-07
-1.38894e-06
-1.07445e-07
-1.33392e-06
-1.08915e-07
-1.27822e-06
-1.10288e-07
-1.22189e-06
-1.11565e-07
-1.16498e-06
-1.12744e-07
-1.10754e-06
-1.13826e-07
-1.04961e-06
-1.14812e-07
-9.91248e-07
-1.15703e-07
-9.32493e-07
-1.16498e-07
-8.73395e-07
-1.17201e-07
-8.14e-07
-1.17811e-07
-7.54351e-07
-1.18333e-07
-6.94491e-07
-1.18767e-07
-6.34464e-07
-1.19118e-07
-5.74309e-07
-1.19386e-07
-5.14066e-07
-1.19577e-07
-4.5377e-07
-1.19693e-07
-3.93458e-07
-1.19738e-07
-3.33164e-07
-1.19716e-07
-2.72917e-07
-1.1963e-07
-2.12749e-07
-1.19483e-07
-1.52689e-07
-1.19277e-07
-9.27638e-08
-1.19013e-07
-3.29999e-08
-1.18691e-07
2.65744e-08
-1.18306e-07
8.59303e-08
-1.1786e-07
1.45046e-07
-1.1735e-07
2.03908e-07
-1.16788e-07
2.62519e-07
-1.16186e-07
3.20874e-07
-1.15576e-07
3.78969e-07
-1.14981e-07
4.36798e-07
-1.14403e-07
4.94352e-07
-1.1382e-07
5.51608e-07
-1.13203e-07
6.08521e-07
-1.12503e-07
6.65007e-07
-1.11642e-07
7.20915e-07
-1.10485e-07
7.75967e-07
-1.08772e-07
8.29653e-07
-1.06e-07
8.80982e-07
-1.00987e-07
9.28297e-07
-9.13883e-08
9.68283e-07
-7.05356e-08
-2.19728e-08
1.001e-06
-2.02353e-09
-1.66709e-08
-9.43284e-09
-4.88754e-09
-1.92524e-08
6.6181e-09
-3.0664e-08
1.68626e-08
-4.34287e-08
2.60976e-08
-5.75482e-08
3.43383e-08
-7.31111e-08
4.15575e-08
-9.01908e-08
4.77732e-08
-1.08793e-07
5.30711e-08
-1.28855e-07
5.75873e-08
-1.50273e-07
6.14758e-08
-1.72931e-07
6.48823e-08
-1.96721e-07
6.79294e-08
-2.21549e-07
7.07123e-08
-2.47343e-07
7.33008e-08
-2.74052e-07
7.57447e-08
-3.0164e-07
7.80799e-08
-3.30087e-07
8.03336e-08
-3.59383e-07
8.25282e-08
-3.89526e-07
8.46839e-08
-4.20521e-07
8.68188e-08
-4.52372e-07
8.89485e-08
-4.85086e-07
9.10834e-08
-5.18666e-07
9.32271e-08
-5.53121e-07
9.53787e-08
-5.88453e-07
9.75401e-08
-6.24635e-07
9.97263e-08
-6.61554e-07
1.0197e-07
-6.98892e-07
1.04282e-07
-7.36259e-07
1.06547e-07
-7.74018e-07
1.08518e-07
-8.12633e-07
1.101e-07
-8.51734e-07
1.11564e-07
-8.90476e-07
1.13041e-07
-9.28385e-07
1.14414e-07
-9.66432e-07
1.15442e-07
-1.0044e-06
1.16239e-07
-1.04132e-06
1.1696e-07
-1.07775e-06
1.17411e-07
-1.11355e-06
1.1755e-07
-1.14926e-06
1.1734e-07
-1.1857e-06
1.16877e-07
-1.22216e-06
1.16496e-07
-1.25808e-06
1.16273e-07
-1.29355e-06
1.16095e-07
-1.32867e-06
1.15915e-07
-1.36351e-06
1.15708e-07
-1.39811e-06
1.15459e-07
-1.4325e-06
1.15163e-07
-1.46669e-06
1.14816e-07
-1.50068e-06
1.14415e-07
-1.53447e-06
1.1396e-07
-1.56805e-06
1.13448e-07
-1.60142e-06
1.12876e-07
-1.63454e-06
1.12241e-07
-1.66741e-06
1.11538e-07
-1.70001e-06
1.10766e-07
-1.73232e-06
1.09918e-07
-1.76431e-06
1.08993e-07
-1.79596e-06
1.07985e-07
-1.82724e-06
1.06892e-07
-1.85814e-06
1.05709e-07
-1.88861e-06
1.04435e-07
-1.91864e-06
1.03065e-07
-1.9482e-06
1.01597e-07
-1.97725e-06
1.0003e-07
-2.00577e-06
9.83608e-08
-2.03373e-06
9.65886e-08
-2.06108e-06
9.47119e-08
-2.08782e-06
9.27301e-08
-2.11389e-06
9.06427e-08
-2.13927e-06
8.84496e-08
-2.16393e-06
8.61508e-08
-2.18783e-06
8.37471e-08
-2.21095e-06
8.1239e-08
-2.23325e-06
7.86277e-08
-2.25471e-06
7.59144e-08
-2.27528e-06
7.31005e-08
-2.29495e-06
7.01876e-08
-2.31368e-06
6.71776e-08
-2.33144e-06
6.40723e-08
-2.3482e-06
6.08735e-08
-2.36394e-06
5.75834e-08
-2.37863e-06
5.42038e-08
-2.39224e-06
5.07365e-08
-2.40474e-06
4.71835e-08
-2.41612e-06
4.35462e-08
-2.42635e-06
3.98263e-08
-2.4354e-06
3.60252e-08
-2.44326e-06
3.21445e-08
-2.44991e-06
2.81855e-08
-2.45533e-06
2.41506e-08
-2.45951e-06
2.00426e-08
-2.46245e-06
1.58662e-08
-2.46413e-06
1.16282e-08
-2.46458e-06
7.33909e-09
-2.46378e-06
3.01477e-09
-2.46172e-06
-1.32481e-09
-2.45839e-06
-5.68027e-09
-2.45368e-06
-1.00516e-08
-2.44756e-06
-1.44672e-08
-2.44e-06
-1.89293e-08
-2.43098e-06
-2.34338e-08
-2.4205e-06
-2.79753e-08
-2.40853e-06
-3.2548e-08
-2.39507e-06
-3.71458e-08
-2.3801e-06
-4.17626e-08
-2.36364e-06
-4.63921e-08
-2.34567e-06
-5.10279e-08
-2.32619e-06
-5.56636e-08
-2.30521e-06
-6.0293e-08
-2.28273e-06
-6.49096e-08
-2.25875e-06
-6.95072e-08
-2.23329e-06
-7.40796e-08
-2.20636e-06
-7.86206e-08
-2.17796e-06
-8.31238e-08
-2.14811e-06
-8.75831e-08
-2.11684e-06
-9.19924e-08
-2.08414e-06
-9.63454e-08
-2.05006e-06
-1.00636e-07
-2.0146e-06
-1.04858e-07
-1.97779e-06
-1.09006e-07
-1.93966e-06
-1.13074e-07
-1.90024e-06
-1.17057e-07
-1.85955e-06
-1.20949e-07
-1.81764e-06
-1.24745e-07
-1.77452e-06
-1.2844e-07
-1.73023e-06
-1.3203e-07
-1.68482e-06
-1.35508e-07
-1.63832e-06
-1.38871e-07
-1.59076e-06
-1.42115e-07
-1.54219e-06
-1.45235e-07
-1.49265e-06
-1.48228e-07
-1.44218e-06
-1.51091e-07
-1.39083e-06
-1.5382e-07
-1.33864e-06
-1.56414e-07
-1.28565e-06
-1.58868e-07
-1.23191e-06
-1.61182e-07
-1.17747e-06
-1.63354e-07
-1.12238e-06
-1.65383e-07
-1.06667e-06
-1.67269e-07
-1.01041e-06
-1.6901e-07
-9.53627e-07
-1.70607e-07
-8.96379e-07
-1.7206e-07
-8.3871e-07
-1.73372e-07
-7.80665e-07
-1.74543e-07
-7.2229e-07
-1.75576e-07
-6.63629e-07
-1.76472e-07
-6.04726e-07
-1.77236e-07
-5.45623e-07
-1.77871e-07
-4.8636e-07
-1.7838e-07
-4.26977e-07
-1.78769e-07
-3.67512e-07
-1.79042e-07
-3.08001e-07
-1.79204e-07
-2.48478e-07
-1.79262e-07
-1.88975e-07
-1.79219e-07
-1.29522e-07
-1.79082e-07
-7.01491e-08
-1.78856e-07
-1.08811e-08
-1.78545e-07
4.82551e-08
-1.7815e-07
1.07235e-07
-1.77671e-07
1.66038e-07
-1.77109e-07
2.24645e-07
-1.76467e-07
2.83047e-07
-1.75753e-07
3.41249e-07
-1.7499e-07
3.9926e-07
-1.74197e-07
4.57071e-07
-1.73386e-07
5.14663e-07
-1.72573e-07
5.7202e-07
-1.71759e-07
6.29123e-07
-1.70923e-07
6.85945e-07
-1.70025e-07
7.42438e-07
-1.68996e-07
7.9852e-07
-1.67724e-07
8.54048e-07
-1.66012e-07
9.08777e-07
-1.63501e-07
9.62294e-07
-1.59517e-07
1.01395e-06
-1.52646e-07
1.06283e-06
-1.40265e-07
1.10845e-06
-1.16152e-07
-6.85496e-08
1.15502e-06
-9.40225e-09
-7.26861e-09
-2.23727e-08
8.08292e-09
-3.65011e-08
2.07465e-08
-5.13605e-08
3.1722e-08
-6.69007e-08
4.16378e-08
-8.32021e-08
5.06397e-08
-1.00396e-07
5.87515e-08
-1.18611e-07
6.5988e-08
-1.37936e-07
7.2396e-08
-1.58407e-07
7.80588e-08
-1.80016e-07
8.30842e-08
-2.0272e-07
8.75866e-08
-2.26464e-07
9.16735e-08
-2.51189e-07
9.5437e-08
-2.7684e-07
9.89516e-08
-3.0337e-07
1.02275e-07
-3.30743e-07
1.05453e-07
-3.58927e-07
1.08518e-07
-3.87896e-07
1.11497e-07
-4.17625e-07
1.14413e-07
-4.48087e-07
1.17281e-07
-4.79249e-07
1.2011e-07
-5.1107e-07
1.22905e-07
-5.43503e-07
1.2566e-07
-5.7649e-07
1.28365e-07
-6.09957e-07
1.31008e-07
-6.43808e-07
1.33577e-07
-6.77899e-07
1.36061e-07
-7.12051e-07
1.38433e-07
-7.46124e-07
1.4062e-07
-7.80137e-07
1.42531e-07
-8.14178e-07
1.44142e-07
-8.48137e-07
1.45523e-07
-8.81813e-07
1.46717e-07
-9.15101e-07
1.47703e-07
-9.48102e-07
1.48443e-07
-9.80838e-07
1.48976e-07
-1.01321e-06
1.49328e-07
-1.04527e-06
1.4947e-07
-1.07712e-06
1.49404e-07
-1.10893e-06
1.49145e-07
-1.14081e-06
1.48764e-07
-1.17269e-06
1.48376e-07
-1.20444e-06
1.48024e-07
-1.23604e-06
1.47689e-07
-1.26747e-06
1.47353e-07
-1.29877e-06
1.47e-07
-1.32992e-06
1.46615e-07
-1.36095e-06
1.4619e-07
-1.39185e-06
1.45716e-07
-1.42262e-06
1.45186e-07
-1.45325e-06
1.44595e-07
-1.48374e-06
1.43937e-07
-1.51407e-06
1.43205e-07
-1.54423e-06
1.42395e-07
-1.57419e-06
1.41501e-07
-1.60394e-06
1.40516e-07
-1.63346e-06
1.39436e-07
-1.66272e-06
1.38255e-07
-1.6917e-06
1.36968e-07
-1.72038e-06
1.3557e-07
-1.74873e-06
1.34056e-07
-1.77672e-06
1.32422e-07
-1.80432e-06
1.30666e-07
-1.8315e-06
1.28782e-07
-1.85824e-06
1.26769e-07
-1.8845e-06
1.24623e-07
-1.91026e-06
1.22344e-07
-1.93547e-06
1.19928e-07
-1.96012e-06
1.17376e-07
-1.98416e-06
1.14686e-07
-2.00757e-06
1.11859e-07
-2.03032e-06
1.08894e-07
-2.05236e-06
1.05792e-07
-2.07368e-06
1.02554e-07
-2.09423e-06
9.91807e-08
-2.11399e-06
9.56745e-08
-2.13293e-06
9.20368e-08
-2.15101e-06
8.82698e-08
-2.16821e-06
8.43757e-08
-2.18449e-06
8.03572e-08
-2.19983e-06
7.62166e-08
-2.21421e-06
7.19568e-08
-2.22758e-06
6.75805e-08
-2.23994e-06
6.30904e-08
-2.25124e-06
5.84893e-08
-2.26148e-06
5.37799e-08
-2.27062e-06
4.89651e-08
-2.27864e-06
4.40473e-08
-2.28552e-06
3.90296e-08
-2.29125e-06
3.39152e-08
-2.29581e-06
2.87078e-08
-2.29918e-06
2.3412e-08
-2.30135e-06
1.80338e-08
-2.3023e-06
1.25805e-08
-2.30202e-06
7.06117e-09
-2.30049e-06
1.48577e-09
-2.29768e-06
-4.13761e-09
-2.29355e-06
-9.80842e-09
-2.28807e-06
-1.55344e-08
-2.28121e-06
-2.13261e-08
-2.27296e-06
-2.71812e-08
-2.2633e-06
-3.30942e-08
-2.25222e-06
-3.90573e-08
-2.2397e-06
-4.50625e-08
-2.22575e-06
-5.11013e-08
-2.21034e-06
-5.71655e-08
-2.19349e-06
-6.32466e-08
-2.17518e-06
-6.93362e-08
-2.15542e-06
-7.54258e-08
-2.1342e-06
-8.15071e-08
-2.11154e-06
-8.75719e-08
-2.08744e-06
-9.36118e-08
-2.0619e-06
-9.96185e-08
-2.03493e-06
-1.05584e-07
-2.00656e-06
-1.115e-07
-1.97678e-06
-1.17358e-07
-1.94562e-06
-1.23151e-07
-1.9131e-06