/*--------------------------------*- C++ -*----------------------------------*\
  =========                 |
  \\      /  F ield         | OpenFOAM: The Open Source CFD Toolbox
   \\    /   O peration     | Website:  https://openfoam.org
    \\  /    A nd           | Version:  9
     \\/     M anipulation  |
\*---------------------------------------------------------------------------*/
FoamFile
{
    format      ascii;
    class       volVectorField;
    location    "0.15";
    object      U;
}
// * * * * * * * * * * * * * * * * * * * * * * * * * * * * * * * * * * * * * //

dimensions      [0 1 -1 0 0 0 0];

internalField   nonuniform List<vector> 
12225
(
(9.86107 -0.874317 0)
(9.67247 -0.70019 0)
(9.45893 -0.387588 0)
(9.2246 -0.188472 0)
(9.00338 -0.0843866 0)
(8.81024 -0.0328669 0)
(8.6449 -0.00753905 0)
(8.50383 0.00503967 0)
(8.38356 0.0113555 0)
(8.28057 0.0144966 0)
(8.19146 0.0159986 0)
(8.11337 0.0166776 0)
(8.04388 0.0169778 0)
(7.98117 0.0171948 0)
(7.92225 0.0175226 0)
(7.86812 0.0187155 0)
(7.79764 0.0217292 0)
(7.77109 0.0309701 0)
(10.0547 0.26307 0)
(10.1201 0.360744 0)
(10.118 0.273827 0)
(10.0826 0.187097 0)
(10.0405 0.131174 0)
(9.99385 0.0969428 0)
(9.94001 0.0755779 0)
(9.88024 0.0617763 0)
(9.81762 0.0523779 0)
(9.75464 0.0455701 0)
(9.69272 0.040411 0)
(9.6327 0.0364414 0)
(9.57493 0.0334077 0)
(9.5198 0.0312979 0)
(9.46651 0.0299516 0)
(9.41758 0.0311867 0)
(9.3658 0.032443 0)
(9.34083 0.0535392 0)
(9.99919 0.0460883 0)
(10.0244 0.0342144 0)
(10.0538 0.0149582 0)
(10.0708 0.0218238 0)
(10.0778 0.0366903 0)
(10.0782 0.046032 0)
(10.0721 0.0499789 0)
(10.0601 0.051178 0)
(10.0437 0.0510947 0)
(10.0243 0.0503912 0)
(10.0027 0.0494401 0)
(9.97956 0.0484895 0)
(9.95531 0.0476925 0)
(9.93038 0.0472909 0)
(9.90472 0.0473639 0)
(9.87939 0.0492934 0)
(9.85357 0.0522381 0)
(9.83355 0.064134 0)
(9.9968 0.00642977 0)
(10.0085 0.0250243 0)
(10.0342 0.0389482 0)
(10.0528 0.0503176 0)
(10.0643 0.0571289 0)
(10.073 0.0591921 0)
(10.0789 0.0588888 0)
(10.0815 0.0579793 0)
(10.0814 0.0569861 0)
(10.0792 0.0559856 0)
(10.0754 0.0550323 0)
(10.0703 0.0542153 0)
(10.0639 0.0536287 0)
(10.0566 0.0534745 0)
(10.0485 0.053895 0)
(10.0401 0.0557997 0)
(10.032 0.0588539 0)
(10.0265 0.0656697 0)
(9.99922 0.00673991 0)
(10.0081 0.0335816 0)
(10.0271 0.0460568 0)
(10.0418 0.0508648 0)
(10.0524 0.0539407 0)
(10.0621 0.0555379 0)
(10.0707 0.055895 0)
(10.0773 0.0557238 0)
(10.0821 0.0553713 0)
(10.0855 0.05493 0)
(10.0877 0.054476 0)
(10.089 0.0541166 0)
(10.0894 0.0539657 0)
(10.0892 0.0542046 0)
(10.0884 0.054993 0)
(10.0876 0.0568427 0)
(10.0873 0.0595691 0)
(10.0889 0.063694 0)
(10.0002 0.00907724 0)
(10.0078 0.0321345 0)
(10.0225 0.041928 0)
(10.035 0.0456898 0)
(10.0447 0.0491583 0)
(10.0541 0.0517053 0)
(10.0629 0.0528569 0)
(10.0703 0.0532244 0)
(10.0765 0.0532842 0)
(10.0817 0.0532016 0)
(10.086 0.0530702 0)
(10.0897 0.0530007 0)
(10.0927 0.0531077 0)
(10.0952 0.0535408 0)
(10.0975 0.0544304 0)
(10.0998 0.0560304 0)
(10.1028 0.0581829 0)
(10.1071 0.0607417 0)
(10.0003 0.00880444 0)
(10.0068 0.02753 0)
(10.0189 0.0371031 0)
(10.0303 0.0417701 0)
(10.0394 0.0457013 0)
(10.0482 0.0485384 0)
(10.0565 0.0499636 0)
(10.0639 0.0505753 0)
(10.0704 0.0508605 0)
(10.0761 0.0509928 0)
(10.0812 0.0510609 0)
(10.0858 0.0511672 0)
(10.0899 0.0514168 0)
(10.0937 0.0519242 0)
(10.0973 0.0527774 0)
(10.1011 0.0540754 0)
(10.1054 0.055656 0)
(10.1108 0.057196 0)
(10.0004 0.00784226 0)
(10.0057 0.0237094 0)
(10.016 0.0333933 0)
(10.0264 0.038622 0)
(10.0351 0.0425292 0)
(10.0432 0.0453372 0)
(10.0511 0.0469084 0)
(10.0583 0.0477092 0)
(10.0647 0.0481654 0)
(10.0706 0.0484519 0)
(10.0759 0.0486579 0)
(10.0809 0.0488774 0)
(10.0855 0.0492016 0)
(10.0899 0.0497134 0)
(10.0942 0.0504608 0)
(10.0987 0.0514548 0)
(10.1035 0.0525325 0)
(10.1091 0.0533786 0)
(10.0004 0.00695712 0)
(10.0049 0.0207249 0)
(10.0136 0.0300635 0)
(10.0229 0.0354417 0)
(10.0312 0.0392401 0)
(10.0389 0.0420167 0)
(10.0463 0.0437262 0)
(10.0533 0.0446949 0)
(10.0596 0.0452885 0)
(10.0654 0.0456896 0)
(10.0708 0.0459919 0)
(10.0759 0.04628 0)
(10.0807 0.0466301 0)
(10.0854 0.0470989 0)
(10.09 0.0477037 0)
(10.0948 0.0484119 0)
(10.0999 0.0490737 0)
(10.1053 0.0494426 0)
(10.0004 0.00617125 0)
(10.0042 0.0181421 0)
(10.0116 0.0268306 0)
(10.0199 0.0321853 0)
(10.0276 0.0359097 0)
(10.0349 0.0386576 0)
(10.042 0.0404625 0)
(10.0487 0.041559 0)
(10.0548 0.0422577 0)
(10.0606 0.042743 0)
(10.066 0.0431102 0)
(10.0711 0.0434341 0)
(10.0761 0.0437761 0)
(10.0809 0.0441732 0)
(10.0856 0.0446238 0)
(10.0905 0.0450786 0)
(10.0955 0.045412 0)
(10.1008 0.0454528 0)
(10.0003 0.00543537 0)
(10.0036 0.0158223 0)
(10.0099 0.0237491 0)
(10.0173 0.0289623 0)
(10.0245 0.0325972 0)
(10.0313 0.0352806 0)
(10.038 0.0371216 0)
(10.0444 0.0383016 0)
(10.0505 0.0390764 0)
(10.0561 0.0396203 0)
(10.0615 0.0400272 0)
(10.0666 0.0403624 0)
(10.0716 0.0406745 0)
(10.0764 0.0409869 0)
(10.0812 0.0412888 0)
(10.086 0.0415307 0)
(10.0909 0.0416149 0)
(10.096 0.0414331 0)
(10.0003 0.00478377 0)
(10.0031 0.0138796 0)
(10.0086 0.0210791 0)
(10.0152 0.026061 0)
(10.0219 0.0295703 0)
(10.0284 0.0321607 0)
(10.0348 0.0339898 0)
(10.0409 0.0352086 0)
(10.0468 0.0360264 0)
(10.0523 0.0366017 0)
(10.0576 0.0370244 0)
(10.0627 0.037352 0)
(10.0676 0.0376236 0)
(10.0725 0.037855 0)
(10.0772 0.038033 0)
(10.082 0.0381157 0)
(10.0868 0.0380298 0)
(10.0916 0.0377127 0)
(10.0003 0.00417812 0)
(10.0027 0.0121149 0)
(10.0075 0.0185689 0)
(10.0134 0.0232289 0)
(10.0196 0.0265698 0)
(10.0258 0.0290434 0)
(10.0318 0.0308262 0)
(10.0377 0.0320515 0)
(10.0434 0.032889 0)
(10.0489 0.0334773 0)
(10.0541 0.0339003 0)
(10.0591 0.0342091 0)
(10.064 0.0344356 0)
(10.0688 0.0345912 0)
(10.0735 0.034664 0)
(10.0781 0.0346216 0)
(10.0827 0.0344116 0)
(10.0873 0.0340049 0)
(10.0003 0.00354713 0)
(10.0024 0.0102793 0)
(10.0064 0.0158808 0)
(10.0117 0.020088 0)
(10.0174 0.0231727 0)
(10.0231 0.0254709 0)
(10.0288 0.0271557 0)
(10.0345 0.0283453 0)
(10.04 0.0291719 0)
(10.0453 0.02975 0)
(10.0504 0.030154 0)
(10.0553 0.0304287 0)
(10.0601 0.0305999 0)
(10.0648 0.0306766 0)
(10.0694 0.0306508 0)
(10.0739 0.0305014 0)
(10.0783 0.0301954 0)
(10.0827 0.0297286 0)
(10.0002 0.00288915 0)
(10.002 0.00837154 0)
(10.0055 0.0130249 0)
(10.0101 0.0166442 0)
(10.0153 0.0193634 0)
(10.0206 0.0214084 0)
(10.026 0.0229287 0)
(10.0313 0.024025 0)
(10.0366 0.0247965 0)
(10.0417 0.0253312 0)
(10.0466 0.0256911 0)
(10.0515 0.0259138 0)
(10.0561 0.0260204 0)
(10.0607 0.0260194 0)
(10.0652 0.0259078 0)
(10.0695 0.0256754 0)
(10.0737 0.0253051 0)
(10.0778 0.0248095 0)
(10.0002 0.00220438 0)
(10.0017 0.00639216 0)
(10.0047 0.0100056 0)
(10.0088 0.0128983 0)
(10.0134 0.0151235 0)
(10.0183 0.0168171 0)
(10.0233 0.0180897 0)
(10.0283 0.0190199 0)
(10.0333 0.0196776 0)
(10.0383 0.0201254 0)
(10.0431 0.0204099 0)
(10.0477 0.0205608 0)
(10.0523 0.0205951 0)
(10.0567 0.0205213 0)
(10.061 0.020341 0)
(10.0651 0.0200524 0)
(10.0691 0.0196493 0)
(10.073 0.0191536 0)
(10.0002 0.00148959 0)
(10.0015 0.00432416 0)
(10.0041 0.0068001 0)
(10.0077 0.00882568 0)
(10.0118 0.0104159 0)
(10.0164 0.0116408 0)
(10.021 0.0125674 0)
(10.0258 0.0132466 0)
(10.0306 0.0137218 0)
(10.0353 0.0140315 0)
(10.0399 0.0142057 0)
(10.0444 0.0142646 0)
(10.0488 0.0142206 0)
(10.053 0.0140813 0)
(10.0571 0.0138505 0)
(10.0611 0.0135313 0)
(10.0649 0.0131233 0)
(10.0686 0.012651 0)
(10.0001 0.000726919 0)
(10.0013 0.00211107 0)
(10.0037 0.00332801 0)
(10.0069 0.004337 0)
(10.0108 0.00514084 0)
(10.015 0.00576448 0)
(10.0194 0.00623309 0)
(10.024 0.0065669 0)
(10.0285 0.00678369 0)
(10.033 0.00689924 0)
(10.0375 0.00692595 0)
(10.0418 0.00687247 0)
(10.046 0.00674461 0)
(10.0501 0.00654653 0)
(10.054 0.00628149 0)
(10.0578 0.00595319 0)
(10.0614 0.00556298 0)
(10.0649 0.0051333 0)
(10.0001 -0.000130549 0)
(10.0013 -0.000379908 0)
(10.0035 -0.000600974 0)
(10.0067 -0.000780696 0)
(10.0104 -0.000916151 0)
(10.0145 -0.00102091 0)
(10.0188 -0.00111403 0)
(10.0233 -0.00120932 0)
(10.0277 -0.00131547 0)
(10.0321 -0.0014398 0)
(10.0364 -0.001589 0)
(10.0406 -0.00176834 0)
(10.0447 -0.00198134 0)
(10.0486 -0.00223008 0)
(10.0524 -0.0025154 0)
(10.0561 -0.0028365 0)
(10.0595 -0.00319365 0)
(10.0628 -0.00357004 0)
(10.0001 -0.000955461 0)
(10.0014 -0.00278307 0)
(10.0038 -0.00439772 0)
(10.0071 -0.00571697 0)
(10.0111 -0.00673424 0)
(10.0153 -0.00751085 0)
(10.0198 -0.00811365 0)
(10.0243 -0.00858789 0)
(10.0287 -0.00896814 0)
(10.0332 -0.00928653 0)
(10.0375 -0.00956975 0)
(10.0417 -0.00983661 0)
(10.0457 -0.0100998 0)
(10.0496 -0.0103682 0)
(10.0533 -0.010648 0)
(10.0568 -0.0109422 0)
(10.0602 -0.0112539 0)
(10.0635 -0.011572 0)
(10.0002 -0.00167039 0)
(10.0015 -0.00488946 0)
(10.0042 -0.00772572 0)
(10.008 -0.00997556 0)
(10.0123 -0.0116542 0)
(10.0169 -0.0129182 0)
(10.0215 -0.0138851 0)
(10.0262 -0.0146145 0)
(10.0308 -0.0151606 0)
(10.0353 -0.0155823 0)
(10.0397 -0.0159269 0)
(10.0439 -0.0162247 0)
(10.0479 -0.0164954 0)
(10.0518 -0.0167533 0)
(10.0555 -0.0170082 0)
(10.059 -0.0172661 0)
(10.0624 -0.0175313 0)
(10.0656 -0.0177966 0)
(10.0002 -0.00235336 0)
(10.0017 -0.00698124 0)
(10.0049 -0.0110669 0)
(10.0092 -0.014152 0)
(10.0141 -0.0163305 0)
(10.019 -0.0179397 0)
(10.024 -0.0191599 0)
(10.0289 -0.0200554 0)
(10.0337 -0.0206983 0)
(10.0384 -0.0211714 0)
(10.0428 -0.0215361 0)
(10.0471 -0.0218309 0)
(10.0512 -0.0220818 0)
(10.055 -0.0223085 0)
(10.0587 -0.0225241 0)
(10.0622 -0.0227366 0)
(10.0656 -0.0229511 0)
(10.0688 -0.023163 0)
(10.0002 -0.00298994 0)
(10.0018 -0.00909311 0)
(10.0056 -0.0144536 0)
(10.0108 -0.0182858 0)
(10.0164 -0.0208926 0)
(10.0217 -0.0227739 0)
(10.027 -0.0241243 0)
(10.0322 -0.0250496 0)
(10.0373 -0.0256875 0)
(10.0421 -0.0261495 0)
(10.0466 -0.0264958 0)
(10.0509 -0.0267616 0)
(10.055 -0.0269756 0)
(10.0589 -0.0271607 0)
(10.0626 -0.0273318 0)
(10.0661 -0.0274974 0)
(10.0695 -0.0276629 0)
(10.0726 -0.0278251 0)
(10.0001 -0.00356691 0)
(10.0019 -0.0115267 0)
(10.0065 -0.0179114 0)
(10.0127 -0.0220288 0)
(10.0189 -0.0250017 0)
(10.0248 -0.0272913 0)
(10.0305 -0.0288221 0)
(10.036 -0.0297236 0)
(10.0412 -0.0302727 0)
(10.0461 -0.0306473 0)
(10.0508 -0.0309138 0)
(10.0551 -0.0311041 0)
(10.0593 -0.0312479 0)
(10.0632 -0.0313685 0)
(10.0669 -0.03148 0)
(10.0704 -0.0315891 0)
(10.0737 -0.0316996 0)
(10.0768 -0.0318074 0)
(9.99997 -0.00368763 0)
(10.0018 -0.015173 0)
(10.0076 -0.0226382 0)
(10.0148 -0.0259615 0)
(10.0214 -0.028517 0)
(10.0277 -0.0309712 0)
(10.034 -0.0327413 0)
(10.04 -0.0337719 0)
(10.0456 -0.0343641 0)
(10.0506 -0.034727 0)
(10.0554 -0.0349439 0)
(10.0598 -0.0350637 0)
(10.0639 -0.0351286 0)
(10.0678 -0.0351683 0)
(10.0714 -0.0351993 0)
(10.0747 -0.0352301 0)
(10.0778 -0.0352641 0)
(10.0807 -0.035299 0)
(9.99898 -0.00130756 0)
(9.99999 -0.0179689 0)
(10.0085 -0.0290602 0)
(10.0174 -0.0326797 0)
(10.0244 -0.0340975 0)
(10.0312 -0.0353174 0)
(10.0383 -0.0362575 0)
(10.0449 -0.036893 0)
(10.0508 -0.0373365 0)
(10.056 -0.0376282 0)
(10.0607 -0.0377828 0)
(10.0649 -0.0378364 0)
(10.0686 -0.0378302 0)
(10.0719 -0.0377938 0)
(10.0748 -0.0377453 0)
(10.0774 -0.0376963 0)
(10.0797 -0.0376501 0)
(10.0817 -0.0376061 0)
(9.99528 0.00387008 0)
(9.99334 -0.0103082 0)
(10.007 -0.0270972 0)
(10.0212 -0.0389163 0)
(10.0311 -0.0448498 0)
(10.0392 -0.0464515 0)
(10.0466 -0.0459629 0)
(10.053 -0.0450008 0)
(10.0581 -0.0441202 0)
(10.0621 -0.0433424 0)
(10.0653 -0.0426239 0)
(10.0676 -0.041962 0)
(10.0692 -0.0413629 0)
(10.0701 -0.0408265 0)
(10.0706 -0.0403504 0)
(10.0706 -0.0399335 0)
(10.0702 -0.0395665 0)
(10.0696 -0.0392224 0)
(9.99144 -0.0172926 0)
(9.99189 0.00036806 0)
(10.01 0.0176698 0)
(10.0296 0.0115947 0)
(10.0442 -0.00509962 0)
(10.0541 -0.0188131 0)
(10.06 -0.027157 0)
(10.0623 -0.0320317 0)
(10.0617 -0.0349108 0)
(10.0591 -0.0365138 0)
(10.055 -0.0372883 0)
(10.0496 -0.0375594 0)
(10.0433 -0.0375401 0)
(10.0363 -0.0373599 0)
(10.0287 -0.0371026 0)
(10.0208 -0.0368293 0)
(10.0127 -0.0365956 0)
(10.0046 -0.0363703 0)
(10.0236 -0.206007 0)
(10.0684 -0.312337 0)
(10.0789 -0.255589 0)
(10.0704 -0.184172 0)
(10.0606 -0.134895 0)
(10.0499 -0.102718 0)
(10.0342 -0.0811562 0)
(10.013 -0.0666084 0)
(9.98784 -0.0566152 0)
(9.96062 -0.049458 0)
(9.93242 -0.0440993 0)
(9.90393 -0.0399496 0)
(9.87565 -0.0366505 0)
(9.84792 -0.0339694 0)
(9.82096 -0.0317583 0)
(9.79491 -0.0299537 0)
(9.77 -0.0285253 0)
(9.74624 -0.0277897 0)
(9.94226 0.671595 0)
(9.87996 0.567456 0)
(9.77445 0.338469 0)
(9.63239 0.183322 0)
(9.48767 0.0949093 0)
(9.35656 0.0470871 0)
(9.24101 0.0213031 0)
(9.13953 0.00708258 0)
(9.0506 -0.000975878 0)
(8.97263 -0.00561617 0)
(8.90389 -0.00830444 0)
(8.84283 -0.00986579 0)
(8.78822 -0.0107705 0)
(8.73907 -0.0112872 0)
(8.69454 -0.011577 0)
(8.65393 -0.0117644 0)
(8.61641 -0.0119432 0)
(8.58158 -0.0124745 0)
(0.00539411 -0.0123503 -3.54114e-20)
(0.0165548 -0.016432 3.47636e-20)
(0.0246426 -0.0121541 0)
(0.0284529 -0.00492417 0)
(0.0270755 0.00249005 0)
(0.0211664 0.00857506 -3.20785e-20)
(0.0117191 0.0128872 0)
(-0.000363682 0.0156492 0)
(-0.0143309 0.0173496 0)
(-0.0296955 0.0184328 0)
(-0.0461576 0.0191968 2.86981e-20)
(-0.0635231 0.0198177 0)
(-0.0816822 0.0203837 0)
(-0.100571 0.0209302 0)
(-0.120146 0.021464 0)
(-0.140375 0.0219788 2.55409e-20)
(-0.161225 0.0224647 0)
(-0.182663 0.0229123 0)
(-0.204655 0.0233159 0)
(-0.227167 0.0236745 0)
(-0.250166 0.0239922 0)
(-0.273624 0.0242777 0)
(-0.297514 0.0245373 0)
(-0.321812 0.0247586 2.22061e-20)
(-0.346476 0.0248997 -2.19094e-20)
(-0.371419 0.0249321 2.16365e-20)
(-0.396527 0.0249966 2.13879e-20)
(-0.421953 0.0257047 0)
(-0.448317 0.0291537 0)
(-0.475681 0.0366724 -2.08186e-20)
(-0.504284 0.0347798 -2.06866e-20)
(-0.533098 0.0260655 0)
(-0.560432 0.0225059 0)
(-0.5888 0.0314473 -2.01099e-20)
(-0.618531 0.0449814 0)
(-0.651148 0.0341003 0)
(-0.683809 0.0356039 2.01136e-20)
(-0.716211 0.0502087 0)
(-0.753193 0.0515341 1.9259e-20)
(-0.790342 0.0590004 3.91288e-20)
(-0.827381 0.0530637 0)
(-0.863765 0.0323457 0)
(-0.897559 0.0276708 0)
(-0.932213 0.0307888 0)
(-0.969068 0.0317239 0)
(-1.00662 0.0323009 4.01118e-20)
(-1.04477 0.0325887 3.96799e-20)
(-1.08329 0.0327077 3.92587e-20)
(-1.12206 0.0327206 0)
(-1.16101 0.0326638 -3.84485e-20)
(-1.20008 0.0325587 0)
(-1.23923 0.0324179 3.76792e-20)
(-1.27842 0.0322488 3.73088e-20)
(-1.31762 0.0320557 0)
(-1.35681 0.0318409 0)
(-1.39596 0.0316054 0)
(-1.43505 0.0313497 3.59092e-20)
(-1.47404 0.0310736 0)
(-1.51291 0.0307767 0)
(-1.55163 0.0304585 0)
(-1.59017 0.0301184 0)
(-1.62849 0.0297558 0)
(-1.66658 0.0293701 0)
(-1.70438 0.028961 0)
(-1.74187 0.0285281 0)
(-1.77902 0.0280711 -3.30875e-20)
(-1.81578 0.0275898 0)
(-1.85211 0.0270844 0)
(-1.88798 0.0265548 3.21947e-20)
(-1.92335 0.0260013 3.18978e-20)
(-1.95818 0.0254243 0)
(-1.99243 0.0248242 -3.13015e-20)
(-2.02606 0.0242015 3.10011e-20)
(-2.05903 0.0235568 0)
(-2.0913 0.0228909 -3.03933e-20)
(-2.12283 0.0222045 0)
(-2.15359 0.0214984 0)
(-2.18353 0.0207734 2.94561e-20)
(-2.21261 0.0200305 0)
(-2.24081 0.0192704 -2.88086e-20)
(-2.26807 0.0184939 0)
(-2.29437 0.0177019 2.81382e-20)
(-2.31967 0.0168949 2.77933e-20)
(-2.34394 0.0160735 2.74414e-20)
(-2.36713 0.015238 5.41641e-20)
(-2.38922 0.0143884 -5.34296e-20)
(-2.41016 0.0135243 0)
(-2.42993 0.012645 0)
(-2.44849 0.0117488 0)
(-2.46581 0.0108335 -5.03183e-20)
(-2.48183 0.00989575 -4.94937e-20)
(-2.49654 0.00893119 4.86491e-20)
(-2.50987 0.0079349 0)
(-2.52178 0.00690095 -4.6898e-20)
(-2.53221 0.00582246 -4.59907e-20)
(-2.54109 0.00469556 -4.50618e-20)
(-2.54835 0.00352888 0)
(-2.55387 0.00235365 0)
(-2.55753 0.00121715 0)
(-2.55922 0.000174432 -4.11214e-20)
(-2.55955 -0.000701229 0)
(-2.55838 -0.00153017 0)
(-2.55577 -0.00234009 3.7892e-20)
(-2.55169 -0.00314258 0)
(-2.54616 -0.0039401 0)
(-2.53914 -0.00473315 3.44258e-20)
(-2.53064 -0.00552127 0)
(-2.52064 -0.00630371 0)
(-2.50913 -0.00707963 -3.07196e-20)
(-2.49612 -0.00784815 -2.94311e-20)
(-2.48158 -0.00860839 0)
(-2.46553 -0.00935949 2.67755e-20)
(-2.44796 -0.0101006 0)
(-2.42888 -0.0108309 -2.40171e-20)
(-2.40828 -0.0115495 0)
(-2.38618 -0.0122556 -2.11589e-20)
(-2.36258 -0.0129485 -1.96937e-20)
(-2.33749 -0.0136274 0)
(-2.31092 -0.0142916 0)
(-2.28289 -0.0149402 0)
(-2.25341 -0.0155727 0)
(-2.2225 -0.0161884 0)
(-2.19019 -0.0167867 0)
(-2.15648 -0.017367 0)
(-2.1214 -0.0179287 -7.19367e-21)
(-2.08499 -0.0184713 5.54656e-21)
(-2.04726 -0.0189944 0)
(-2.00825 -0.0194973 0)
(-1.96797 -0.0199797 0)
(-1.92648 -0.0204411 0)
(-1.88379 -0.0208813 -5.79778e-21)
(-1.83995 -0.0212999 0)
(-1.79498 -0.0216968 1.27052e-20)
(-1.74893 -0.0220715 -1.61809e-20)
(-1.70184 -0.0224241 0)
(-1.65374 -0.0227544 0)
(-1.60467 -0.0230621 0)
(-1.55468 -0.0233475 3.01681e-20)
(-1.50381 -0.0236104 3.36719e-20)
(-1.4521 -0.0238511 0)
(-1.39959 -0.0240696 4.06682e-20)
(-1.34633 -0.0242661 4.41549e-20)
(-1.29236 -0.024441 -4.76303e-20)
(-1.23772 -0.0245945 0)
(-1.18246 -0.024727 0)
(-1.12662 -0.0248391 -5.79604e-20)
(-1.07025 -0.0249311 0)
(-1.01338 -0.0250036 0)
(-0.956063 -0.0250573 0)
(-0.898333 -0.0250929 0)
(-0.840231 -0.025111 7.46953e-20)
(-0.781795 -0.0251125 7.79469e-20)
(-0.723063 -0.0250982 0)
(-0.664069 -0.0250689 8.4336e-20)
(-0.604849 -0.0250255 0)
(-0.545432 -0.0249689 0)
(-0.485852 -0.0248997 9.36022e-20)
(-0.426135 -0.0248187 0)
(-0.366311 -0.024726 9.95452e-20)
(-0.306408 -0.0246217 0)
(-0.246453 -0.0245039 0)
(-0.186479 -0.0243665 1.08074e-19)
(-0.126517 -0.0242044 0)
(-0.0665948 -0.0240128 1.13487e-19)
(-0.00673341 -0.0237559 0)
(0.0529131 -0.023389 0)
(0.112431 -0.0229926 0)
(0.171826 -0.0226198 -1.19019e-19)
(0.231108 -0.0222682 0)
(0.290291 -0.0219286 1.20463e-19)
(0.349376 -0.0215924 0)
(0.408339 -0.0212498 0)
(0.467128 -0.0208869 0)
(0.525629 -0.02048 0)
(0.583654 -0.0199827 0)
(0.640681 -0.019302 0)
(0.69628 -0.0181857 0)
(0.746256 -0.0159958 -2.47824e-19)
(0.794757 -0.0109955 0)
(0.795244 0.00674525 0)
(0.0042129 -0.0333573 1.05032e-19)
(0.00777258 -0.0276783 -9.98391e-20)
(0.00580967 -0.0133823 0)
(0.00117692 0.000861591 5.93769e-20)
(-0.00578761 0.0137597 0)
(-0.0150054 0.0246272 2.76113e-20)
(-0.026374 0.0332343 -5.36369e-20)
(-0.0397577 0.0397483 -5.22028e-20)
(-0.0549736 0.0445794 0)
(-0.0717987 0.0481936 -4.95393e-20)
(-0.0900083 0.0509841 -2.41623e-20)
(-0.109408 0.0532365 0)
(-0.129847 0.0551387 0)
(-0.15121 0.0568044 0)
(-0.173417 0.0582969 0)
(-0.196413 0.0596495 -2.15157e-20)
(-0.22016 0.060879 0)
(-0.244634 0.0619956 4.1306e-20)
(-0.269822 0.0630078 0)
(-0.295722 0.0639265 0)
(-0.322341 0.0647655 -3.92045e-20)
(-0.349693 0.0655398 0)
(-0.377803 0.0662586 3.8068e-20)
(-0.406703 0.0669155 -1.88147e-20)
(-0.436441 0.0674864 1.85942e-20)
(-0.467096 0.0679545 -1.83991e-20)
(-0.498808 0.0683585 -1.82322e-20)
(-0.53167 0.0688333 0)
(-0.56525 0.0696791 0)
(-0.598874 0.071208 1.80162e-20)
(-0.633703 0.0725842 -1.79653e-20)
(-0.670276 0.073121 0)
(-0.708711 0.0735536 0)
(-0.746864 0.0741854 1.7586e-20)
(-0.784349 0.0755068 0)
(-0.823462 0.0768337 0)
(-0.862195 0.07711 -1.71987e-20)
(-0.901035 0.0779222 0)
(-0.938691 0.0782743 1.67808e-20)
(-0.975514 0.0786902 -3.3526e-20)
(-1.01318 0.0802013 0)
(-1.05207 0.0816443 0)
(-1.09185 0.0829122 -6.54402e-20)
(-1.13067 0.0840273 -6.46879e-20)
(-1.16821 0.084555 -6.39676e-20)
(-1.20515 0.0846638 3.1555e-20)
(-1.24175 0.0845028 -3.13703e-20)
(-1.27811 0.0841552 -9.29621e-20)
(-1.31428 0.0836778 6.12793e-20)
(-1.35027 0.0831058 3.04024e-20)
(-1.38609 0.0824617 0)
(-1.42173 0.0817595 -2.97995e-20)
(-1.45718 0.0810076 2.93558e-20)
(-1.49244 0.0802108 0)
(-1.52748 0.0793713 0)
(-1.56229 0.0784901 0)
(-1.59685 0.0775671 -2.84103e-20)
(-1.63113 0.0766016 0)
(-1.66513 0.0755927 5.56299e-20)
(-1.6988 0.0745393 0)
(-1.73214 0.0734404 5.46245e-20)
(-1.76511 0.0722949 0)
(-1.79768 0.071102 -5.36434e-20)
(-1.82984 0.069861 0)
(-1.86156 0.0685717 5.26797e-20)
(-1.89279 0.0672337 -2.6029e-20)
(-1.92353 0.0658471 0)
(-1.95373 0.0644123 -5.12512e-20)
(-1.98337 0.0629298 -2.54566e-20)
(-2.01242 0.0614003 -2.52173e-20)
(-2.04084 0.0598248 0)
(-2.06861 0.0582046 -2.46071e-20)
(-2.0957 0.0565409 -2.44918e-20)
(-2.12207 0.0548353 0)
(-2.14771 0.0530895 2.39979e-20)
(-2.17257 0.0513052 -4.73802e-20)
(-2.19662 0.0494844 0)
(-2.21985 0.0476289 -2.32338e-20)
(-2.24221 0.0457408 0)
(-2.26368 0.0438221 6.80182e-20)
(-2.28424 0.0418748 0)
(-2.30385 0.0399007 -6.63826e-20)
(-2.32248 0.0379019 -2.18733e-20)
(-2.34012 0.03588 2.15116e-20)
(-2.35673 0.0338366 4.24462e-20)
(-2.37228 0.0317729 -4.18566e-20)
(-2.38676 0.0296901 0)
(-2.40013 0.0275889 0)
(-2.41236 0.0254696 0)
(-2.42345 0.0233318 1.1823e-19)
(-2.43335 0.0211747 3.87598e-20)
(-2.44205 0.0189967 -3.80699e-20)
(-2.44953 0.0167957 0)
(-2.45578 0.0145691 -3.66277e-20)
(-2.46079 0.0123132 3.59013e-20)
(-2.46457 0.0100233 3.51445e-20)
(-2.46715 0.00770185 0)
(-2.46861 0.00537681 0)
(-2.46905 0.00310435 0)
(-2.46858 0.000924069 3.19255e-20)
(-2.46676 -0.00113971 0)
(-2.46359 -0.00315579 -6.04921e-20)
(-2.45902 -0.00514354 -8.80284e-20)
(-2.45301 -0.00711321 5.69191e-20)
(-2.44557 -0.00906654 0)
(-2.43666 -0.0110028 2.66814e-20)
(-2.42629 -0.0129202 0)
(-2.41443 -0.0148165 4.93339e-20)
(-2.40109 -0.0166893 -2.37793e-20)
(-2.38625 -0.0185362 -2.2776e-20)
(-2.36991 -0.0203549 0)
(-2.35208 -0.0221433 -6.16325e-20)
(-2.33274 -0.0238991 3.90486e-20)
(-2.31191 -0.0256203 1.82998e-20)
(-2.28958 -0.0273049 0)
(-2.26576 -0.028951 1.60776e-20)
(-2.24047 -0.0305566 4.51649e-20)
(-2.2137 -0.0321201 0)
(-2.18547 -0.0336395 2.56269e-20)
(-2.1558 -0.0351134 2.32885e-20)
(-2.1247 -0.0365402 2.09241e-20)
(-2.09219 -0.0379184 0)
(-2.05828 -0.0392468 0)
(-2.023 -0.0405241 0)
(-1.98637 -0.0417494 -5.83634e-21)
(-1.94842 -0.0429216 -4.15726e-21)
(-1.90917 -0.0440398 0)
(-1.86865 -0.0451031 -3.76832e-21)
(-1.82689 -0.0461107 -1.24979e-21)
(-1.78392 -0.0470621 0)
(-1.73978 -0.0479567 4.31701e-21)
(-1.6945 -0.0487942 1.27395e-20)
(-1.64811 -0.0495746 -9.43613e-21)
(-1.60065 -0.0502977 -1.09662e-20)
(-1.55215 -0.0509636 0)
(-1.50267 -0.0515722 0)
(-1.45224 -0.0521239 0)
(-1.40089 -0.0526191 -2.227e-20)
(-1.34868 -0.0530585 2.37399e-20)
(-1.29564 -0.0534427 5.36612e-20)
(-1.24181 -0.0537726 -2.99189e-20)
(-1.18725 -0.054049 3.13435e-20)
(-1.13198 -0.0542731 3.49653e-20)
(-1.07606 -0.0544462 0)
(-1.01953 -0.0545696 0)
(-0.962437 -0.0546449 -4.13062e-20)
(-0.904813 -0.0546736 0)
(-0.846706 -0.0546574 0)
(-0.788155 -0.0545983 9.82774e-20)
(-0.729202 -0.0544983 0)
(-0.669886 -0.0543593 5.33196e-20)
(-0.610244 -0.0541837 -5.67428e-20)
(-0.550314 -0.0539735 0)
(-0.490129 -0.0537312 6.02159e-20)
(-0.429723 -0.053459 0)
(-0.369129 -0.0531591 0)
(-0.308375 -0.0528335 -6.78915e-20)
(-0.24749 -0.0524839 1.38989e-19)
(-0.186501 -0.0521114 -7.21114e-20)
(-0.125434 -0.0517151 0)
(-0.0643138 -0.0512934 0)
(-0.00316651 -0.0508435 7.69709e-20)
(0.057982 -0.0503619 0)
(0.11911 -0.0498529 7.94398e-20)
(0.180202 -0.049323 0)
(0.241234 -0.0487573 0)
(0.302234 -0.0481741 0)
(0.363195 -0.047604 8.4393e-20)
(0.424111 -0.0470517 0)
(0.484977 -0.0465085 -8.61111e-20)
(0.545782 -0.0459608 0)
(0.606496 -0.0453892 0)
(0.667058 -0.0447631 1.75814e-19)
(0.727351 -0.04403 -1.77109e-19)
(0.78718 -0.0430875 0)
(0.846096 -0.0417376 0)
(0.903637 -0.0394671 0)
(0.957211 -0.0352989 5.46332e-19)
(1.00936 -0.0258491 0)
(1.03944 -0.00306865 -3.71695e-19)
(3.54968e-05 -0.0366546 -5.40643e-23)
(-0.0045466 -0.0185984 1.28782e-19)
(-0.0124992 0.00127168 0)
(-0.0218111 0.0190987 -1.08405e-19)
(-0.0325287 0.0349465 0)
(-0.0444868 0.048723 0)
(-0.0576967 0.0603596 1.04053e-23)
(-0.0722371 0.069934 4.61765e-20)
(-0.0881514 0.0776829 4.49485e-20)
(-0.105415 0.0839357 4.38362e-20)
(-0.123951 0.0890346 0)
(-0.14366 0.0932805 0)
(-0.16444 0.0969099 -4.0836e-20)
(-0.186203 0.100094 -7.98984e-20)
(-0.208876 0.102951 7.82305e-20)
(-0.232406 0.105558 0)
(-0.256757 0.107971 7.52026e-20)
(-0.281906 0.110229 -3.69321e-20)
(-0.307841 0.112365 0)
(-0.33456 0.114412 7.13838e-20)
(-0.362066 0.1164 3.51592e-20)
(-0.390365 0.118358 -6.92775e-20)
(-0.419463 0.120309 -3.41866e-20)
(-0.449368 0.122265 0)
(-0.480084 0.124234 6.6684e-20)
(-0.511623 0.126235 6.59476e-20)
(-0.543995 0.128326 0)
(-0.577154 0.130616 6.46431e-20)
(-0.610835 0.133178 0)
(-0.644673 0.135786 6.35598e-20)
(-0.678807 0.137793 3.15459e-20)
(-0.713591 0.139055 0)
(-0.74906 0.140327 0)
(-0.784521 0.141966 0)
(-0.819509 0.143582 0)
(-0.854291 0.144225 0)
(-0.889086 0.144654 0)
(-0.923389 0.145161 5.84793e-20)
(-0.956986 0.144962 -8.66867e-20)
(-0.990075 0.144194 0)
(-1.02295 0.142512 0)
(-1.05627 0.140267 0)
(-1.08998 0.138594 6.86338e-23)
(-1.12344 0.13746 5.44305e-20)
(-1.15646 0.136435 1.07475e-19)
(-1.18916 0.135408 -1.06199e-19)
(-1.22164 0.134333 -5.24361e-20)
(-1.25392 0.133194 5.19155e-20)
(-1.28605 0.13199 -8.73687e-23)
(-1.31805 0.130726 5.06637e-20)
(-1.34991 0.129405 0)
(-1.38165 0.12803 4.95544e-20)
(-1.41324 0.126601 -9.35145e-23)
(-1.44469 0.12512 0)
(-1.47598 0.123585 0)
(-1.50709 0.121995 -4.74815e-20)
(-1.53802 0.120347 0)
(-1.56873 0.118641 0)
(-1.59922 0.116873 4.59309e-20)
(-1.62946 0.115041 9.11221e-20)
(-1.65943 0.113144 -4.51979e-20)
(-1.68911 0.11118 0)
(-1.71846 0.109148 4.42899e-20)
(-1.74748 0.107047 0)
(-1.77612 0.104875 4.32046e-20)
(-1.80436 0.102634 4.29574e-20)
(-1.83217 0.100323 -8.48466e-20)
(-1.85954 0.0979432 -4.18932e-20)
(-1.88642 0.0954946 0)
(-1.91278 0.0929787 8.22319e-20)
(-1.93861 0.0903972 0)
(-1.96386 0.0877517 1.20817e-19)
(-1.98851 0.0850444 7.96098e-20)
(-2.01253 0.0822776 7.8728e-20)
(-2.03588 0.0794536 -7.78404e-20)
(-2.05855 0.0765753 1.15495e-19)
(-2.08049 0.0736454 0)
(-2.10168 0.0706667 0)
(-2.12208 0.0676424 -7.42069e-20)
(-2.14167 0.0645753 -1.09971e-19)
(-2.16043 0.0614686 0)
(-2.17831 0.0583251 3.57374e-20)
(-2.1953 0.0551477 0)
(-2.21136 0.0519392 -1.04139e-19)
(-2.22647 0.0487021 -8.73612e-23)
(-2.2406 0.0454389 7.86075e-23)
(-2.25373 0.0421517 6.63131e-20)
(-2.26583 0.0388424 0)
(-2.27687 0.0355127 -6.41635e-20)
(-2.28685 0.0321644 -4.10229e-23)
(-2.29573 0.0287989 0)
(-2.30349 0.0254182 0)
(-2.31012 0.0220251 0)
(-2.31562 0.0186238 5.84132e-20)
(-2.31997 0.0152212 0)
(-2.32316 0.011828 0)
(-2.32521 0.00845968 0)
(-2.3261 0.00513679 0)
(-2.32582 0.00187906 0)
(-2.32431 -0.00132759 5.06808e-20)
(-2.32148 -0.00452762 0)
(-2.31731 -0.00771447 4.779e-20)
(-2.31178 -0.0108839 4.634e-20)
(-2.30486 -0.0140324 -4.48644e-20)
(-2.29654 -0.0171564 0)
(-2.2868 -0.0202522 -4.18363e-20)
(-2.27564 -0.0233157 0)
(-2.26303 -0.0263429 -3.87073e-20)
(-2.24899 -0.0293299 3.71056e-20)
(-2.23349 -0.0322728 1.06809e-19)
(-2.21653 -0.0351679 0)
(-2.19812 -0.0380116 9.68881e-20)
(-2.17825 -0.0408004 3.09006e-20)
(-2.15693 -0.0435311 0)
(-2.13415 -0.0462004 5.44948e-20)
(-2.10993 -0.0488052 5.09982e-20)
(-2.08426 -0.0513426 -7.09302e-20)
(-2.05717 -0.0538098 0)
(-2.02865 -0.056204 -1.98555e-20)
(-1.99874 -0.0585227 -1.80234e-20)
(-1.96743 -0.0607633 -4.91315e-20)
(-1.93474 -0.0629238 0)
(-1.9007 -0.065002 0)
(-1.86533 -0.0669962 0)
(-1.82864 -0.0689048 -9.32287e-21)
(-1.79066 -0.0707261 0)
(-1.75143 -0.0724589 0)
(-1.71095 -0.0741019 2.89088e-21)
(-1.66927 -0.0756539 9.57764e-22)
(-1.62641 -0.0771141 0)
(-1.58241 -0.0784817 0)
(-1.53729 -0.0797565 -9.73235e-21)
(-1.4911 -0.0809383 0)
(-1.44387 -0.0820271 1.75117e-20)
(-1.39563 -0.0830232 2.05956e-20)
(-1.34643 -0.0839268 0)
(-1.2963 -0.0847384 0)
(-1.24528 -0.0854588 -3.21823e-20)
(-1.19342 -0.0860891 -8.29873e-22)
(-1.14075 -0.0866309 -8.34825e-22)
(-1.08731 -0.0870854 0)
(-1.03316 -0.0874543 -9.57032e-20)
(-0.978325 -0.0877394 0)
(-0.922854 -0.087943 0)
(-0.866787 -0.0880675 0)
(-0.810166 -0.0881153 6.31462e-20)
(-0.753033 -0.0880891 0)
(-0.695428 -0.0879919 -1.39084e-19)
(-0.637392 -0.0878268 -7.39523e-20)
(-0.578964 -0.0875972 0)
(-0.520181 -0.0873063 -8.09579e-20)
(-0.461081 -0.0869578 0)
(-0.4017 -0.0865555 0)
(-0.34207 -0.086103 -2.71739e-19)
(-0.282224 -0.085604 1.87207e-19)
(-0.222193 -0.0850622 0)
(-0.162005 -0.0844809 2.00098e-19)
(-0.101688 -0.0838627 -1.03993e-19)
(-0.0412666 -0.0832101 0)
(0.0192352 -0.0825251 0)
(0.0797943 -0.0818075 0)
(0.140391 -0.0810564 -3.40446e-19)
(0.201005 -0.0802717 0)
(0.261625 -0.0794585 -1.17812e-19)
(0.322247 -0.0786301 0)
(0.382891 -0.0777993 0)
(0.44356 -0.076973 0)
(0.504236 -0.0761601 0)
(0.564905 -0.0753605 0)
(0.625554 -0.0745644 0)
(0.686162 -0.0737534 -2.57468e-19)
(0.746695 -0.0728986 0)
(0.807093 -0.0719525 -1.32065e-19)
(0.867243 -0.0708332 3.98709e-19)
(0.926965 -0.0693894 0)
(0.985885 -0.0673327 0)
(1.04365 -0.0640329 -2.72468e-19)
(1.09854 -0.0582861 -2.75992e-19)
(1.15319 -0.047048 2.78008e-19)
(1.19563 -0.0238536 2.82879e-19)
(-0.00442589 -0.0245684 -2.06783e-19)
(-0.0143777 0.00122461 -1.87829e-19)
(-0.0261288 0.0240095 -1.11231e-19)
(-0.0387705 0.0437238 -5.07431e-20)
(-0.052266 0.0612214 0)
(-0.0664334 0.0766987 9.05932e-20)
(-0.0813318 0.0902023 -4.35936e-20)
(-0.0970914 0.101802 0)
(-0.11382 0.111649 -4.10824e-20)
(-0.131578 0.119969 0)
(-0.150375 0.127022 7.81962e-20)
(-0.170187 0.133064 0)
(-0.190971 0.138321 3.73883e-20)
(-0.212675 0.142978 7.32165e-20)
(-0.235248 0.147176 -7.17482e-20)
(-0.258647 0.151019 0)
(-0.282837 0.154587 -6.90702e-20)
(-0.307788 0.15794 0)
(-0.333477 0.161126 0)
(-0.359883 0.164184 -6.56414e-20)
(-0.386986 0.167146 0)
(-0.414759 0.170037 5.9999e-25)
(-0.443173 0.172869 0)
(-0.472189 0.175641 0)
(-0.501761 0.178347 -1.08839e-24)
(-0.531835 0.180974 -6.03981e-20)
(-0.562338 0.18352 -5.96574e-20)
(-0.593165 0.185985 -5.89428e-20)
(-0.624156 0.188347 0)
(-0.655149 0.190458 -1.15098e-19)
(-0.686109 0.192076 0)
(-0.717111 0.193153 -5.61582e-20)
(-0.748142 0.193919 0)
(-0.779032 0.19451 0)
(-0.809638 0.19483 5.40212e-20)
(-0.839983 0.194674 0)
(-0.870118 0.194216 -5.26067e-20)
(-0.89999 0.193576 -2.06246e-23)
(-0.929578 0.192583 1.02433e-19)
(-0.958969 0.19126 -1.01038e-19)
(-0.988296 0.189544 0)
(-1.0177 0.187545 0)
(-1.0472 0.185616 -4.85068e-20)
(-1.07667 0.183838 0)
(-1.10603 0.182136 -4.7306e-20)
(-1.13529 0.180461 4.67113e-20)
(-1.16446 0.178784 4.61324e-20)
(-1.19354 0.177081 0)
(-1.22255 0.175343 -4.50195e-20)
(-1.25148 0.17356 -4.44842e-20)
(-1.28034 0.171727 8.78442e-20)
(-1.30912 0.169841 -4.34522e-20)
(-1.33782 0.167897 -4.29542e-20)
(-1.36643 0.165891 0)
(-1.39493 0.16382 0)