/*--------------------------------*- C++ -*----------------------------------*\
  =========                 |
  \\      /  F ield         | OpenFOAM: The Open Source CFD Toolbox
   \\    /   O peration     | Website:  https://openfoam.org
    \\  /    A nd           | Version:  9
     \\/     M anipulation  |
\*---------------------------------------------------------------------------*/
FoamFile
{
    format      ascii;
    class       volScalarField;
    location    "287";
    object      p;
}
// * * * * * * * * * * * * * * * * * * * * * * * * * * * * * * * * * * * * * //

dimensions      [0 2 -2 0 0 0 0];

internalField   nonuniform List<scalar> 
12225
(
-1.31936
-3.50734
-4.60746
-4.92827
-5.10976
-5.27909
-5.41098
-5.50662
-5.58386
-5.65205
-5.71307
-5.76925
-5.82079
-5.86953
-5.91607
-5.95665
-6.00784
-5.99164
-4.48173
-5.25057
-5.41116
-5.31909
-5.30678
-5.37492
-5.45284
-5.51907
-5.57931
-5.63753
-5.69315
-5.74534
-5.79491
-5.84224
-5.88844
-5.93076
-5.97926
-6.01736
-4.88236
-4.86818
-4.99569
-5.07424
-5.16935
-5.2898
-5.39741
-5.48272
-5.55515
-5.62126
-5.68235
-5.7385
-5.79125
-5.84105
-5.88949
-5.93475
-5.9856
-6.03084
-4.76097
-4.70435
-4.94609
-5.10458
-5.20653
-5.313
-5.41105
-5.49155
-5.56088
-5.6247
-5.68418
-5.73937
-5.79145
-5.84089
-5.88907
-5.93535
-5.98483
-6.03304
-4.75104
-4.77542
-5.00358
-5.14528
-5.22909
-5.3214
-5.41297
-5.49111
-5.55921
-5.62213
-5.6811
-5.73614
-5.78824
-5.83793
-5.88638
-5.93358
-5.98245
-6.03198
-4.80912
-4.85793
-5.03228
-5.15631
-5.238
-5.32606
-5.41443
-5.49134
-5.55882
-5.62116
-5.67971
-5.73459
-5.7866
-5.83634
-5.88479
-5.93225
-5.98044
-6.0294
-4.86942
-4.91356
-5.04881
-5.16524
-5.24915
-5.33351
-5.41772
-5.49273
-5.55927
-5.62085
-5.6788
-5.73334
-5.7851
-5.83471
-5.88294
-5.93023
-5.97758
-6.02517
-4.92287
-4.96046
-5.07048
-5.17887
-5.26202
-5.34182
-5.4215
-5.4943
-5.55976
-5.62047
-5.67772
-5.73181
-5.78323
-5.83257
-5.88044
-5.92725
-5.97361
-6.01955
-4.9725
-5.00562
-5.0966
-5.19464
-5.27485
-5.3504
-5.42579
-5.49619
-5.56035
-5.62005
-5.67649
-5.72999
-5.78094
-5.82984
-5.87717
-5.92326
-5.96848
-6.01271
-5.01945
-5.04871
-5.12428
-5.21157
-5.28788
-5.35958
-5.43088
-5.49861
-5.5612
-5.61973
-5.6752
-5.72795
-5.77827
-5.82654
-5.87315
-5.91834
-5.96232
-6.00487
-5.06366
-5.08916
-5.15241
-5.22964
-5.30141
-5.36935
-5.43673
-5.5016
-5.5624
-5.61959
-5.67394
-5.72577
-5.77528
-5.82277
-5.86851
-5.91265
-5.95533
-5.99627
-5.10158
-5.12393
-5.17817
-5.24704
-5.31423
-5.37871
-5.44265
-5.50483
-5.5638
-5.61962
-5.67283
-5.72368
-5.77232
-5.81896
-5.86378
-5.90688
-5.94835
-5.9879
-5.13657
-5.1563
-5.20315
-5.26457
-5.32711
-5.38817
-5.44885
-5.50836
-5.56542
-5.61979
-5.67177
-5.72155
-5.76923
-5.81493
-5.85877
-5.9008
-5.94108
-5.97934
-5.17322
-5.19042
-5.23045
-5.28448
-5.34183
-5.39903
-5.45618
-5.5127
-5.56749
-5.6201
-5.67059
-5.71905
-5.76553
-5.81007
-5.85272
-5.89352
-5.93247
-5.96937
-5.21025
-5.22504
-5.25904
-5.30613
-5.35801
-5.411
-5.46444
-5.51774
-5.56995
-5.62049
-5.66921
-5.7161
-5.76113
-5.80428
-5.84556
-5.88497
-5.92249
-5.95799
-5.24569
-5.25832
-5.28724
-5.32818
-5.37473
-5.4234
-5.47309
-5.52308
-5.57251
-5.62074
-5.66746
-5.71255
-5.75592
-5.79751
-5.83726
-5.87517
-5.91122
-5.9453
-5.27663
-5.2875
-5.31244
-5.34836
-5.39019
-5.43485
-5.48101
-5.52784
-5.5745
-5.62034
-5.66497
-5.70814
-5.74974
-5.78965
-5.82781
-5.86418
-5.89876
-5.93149
-5.29872
-5.30836
-5.33059
-5.36301
-5.40139
-5.44294
-5.48627
-5.53049
-5.57478
-5.61848
-5.66114
-5.70251
-5.7424
-5.78069
-5.81732
-5.85223
-5.88544
-5.9169
-5.30506
-5.3142
-5.33538
-5.36647
-5.40348
-5.44365
-5.48557
-5.52835
-5.57122
-5.61353
-5.65482
-5.69483
-5.73338
-5.77038
-5.80575
-5.83947
-5.87155
-5.90201
-5.28857
-5.29833
-5.32089
-5.3539
-5.39281
-5.43438
-5.4772
-5.52055
-5.56373
-5.60608
-5.64719
-5.68685
-5.72494
-5.76139
-5.79617
-5.82927
-5.86071
-5.89056
-5.26148
-5.27226
-5.29749
-5.33444
-5.37711
-5.4215
-5.46644
-5.51151
-5.55595
-5.59909
-5.64064
-5.6805
-5.71863
-5.75499
-5.78958
-5.82244
-5.85361
-5.88318
-5.2261
-5.2379
-5.26721
-5.31072
-5.35889
-5.40675
-5.45442
-5.50197
-5.54834
-5.59273
-5.63505
-5.67539
-5.71378
-5.75023
-5.78479
-5.81754
-5.84857
-5.87797
-5.18544
-5.19731
-5.23172
-5.28491
-5.34036
-5.39219
-5.44293
-5.49321
-5.54155
-5.58723
-5.63046
-5.67144
-5.71022
-5.74688
-5.78151
-5.81426
-5.84523
-5.87456
-5.14166
-5.15261
-5.19433
-5.25867
-5.32075
-5.3773
-5.43278
-5.48648
-5.53657
-5.5832
-5.62713
-5.66862
-5.70768
-5.74445
-5.7791
-5.81181
-5.84271
-5.87195
-5.09472
-5.10015
-5.16276
-5.24088
-5.30272
-5.36085
-5.42185
-5.48005
-5.5324
-5.58027
-5.62511
-5.66718
-5.70653
-5.74339
-5.77802
-5.81067
-5.8415
-5.8707
-5.05142
-5.01496
-5.12444
-5.23534
-5.29748
-5.35265
-5.41472
-5.4743
-5.52736
-5.5759
-5.62144
-5.66406
-5.70375
-5.7408
-5.77554
-5.80826
-5.83912
-5.86834
-5.0655
-4.90649
-5.03537
-5.18938
-5.2794
-5.35065
-5.41944
-5.48019
-5.53283
-5.58094
-5.62605
-5.66813
-5.70724
-5.74373
-5.77794
-5.81015
-5.84061
-5.86956
-5.18821
-5.00819
-5.02236
-5.09444
-5.18272
-5.28182
-5.37237
-5.446
-5.50754
-5.56251
-5.61265
-5.65825
-5.69988
-5.7382
-5.77372
-5.8069
-5.83819
-5.86822
-4.89552
-5.48708
-5.57589
-5.45158
-5.39715
-5.42419
-5.47103
-5.51412
-5.55552
-5.59753
-5.63885
-5.67801
-5.7148
-5.74935
-5.78175
-5.81215
-5.84075
-5.86935
-1.90726
-3.67002
-4.67466
-4.97374
-5.12282
-5.26633
-5.38022
-5.46103
-5.52509
-5.58179
-5.63288
-5.67875
-5.72025
-5.75831
-5.79344
-5.82543
-5.85414
-5.87781
-6.73731
-6.73733
-6.73769
-6.73844
-6.73942
-6.74055
-6.74185
-6.74335
-6.74506
-6.74706
-6.74939
-6.7521
-6.75523
-6.75883
-6.76296
-6.76767
-6.77298
-6.77896
-6.78564
-6.79305
-6.80123
-6.81022
-6.82003
-6.83068
-6.84221
-6.85467
-6.86814
-6.88265
-6.89792
-6.91326
-6.9283
-6.9442
-6.96292
-6.98439
-7.00768
-7.03245
-7.0587
-7.08534
-7.11045
-7.13719
-7.16789
-7.19537
-7.21681
-7.2405
-7.26769
-7.29567
-7.3245
-7.35388
-7.38366
-7.4137
-7.44386
-7.47404
-7.50413
-7.53403
-7.56365
-7.59288
-7.62162
-7.64977
-7.67722
-7.70384
-7.72953
-7.75415
-7.77758
-7.79967
-7.82028
-7.83927
-7.85648
-7.87174
-7.88489
-7.89575
-7.90415
-7.90992
-7.91285
-7.91277
-7.90948
-7.90279
-7.8925
-7.87842
-7.86034
-7.83808
-7.81143
-7.78021
-7.74421
-7.70326
-7.65716
-7.60575
-7.54884
-7.48626
-7.41785
-7.34346
-7.26296
-7.17622
-7.08311
-6.9835
-6.87733
-6.76469
-6.6457
-6.52013
-6.38741
-6.2474
-6.10036
-5.94634
-5.78538
-5.61752
-5.44276
-5.26118
-5.07281
-4.87773
-4.67605
-4.46786
-4.25328
-4.03245
-3.80552
-3.57266
-3.33403
-3.08984
-2.84028
-2.58557
-2.32594
-2.06164
-1.79293
-1.52007
-1.24331
-0.962947
-0.679253
-0.392531
-0.103086
0.188768
0.482729
0.778494
1.07575
1.37415
1.67334
1.97303
2.2729
2.57263
2.8719
3.17039
3.46779
3.76379
4.0581
4.35043
4.6405
4.92805
5.21281
5.49454
5.77299
6.04794
6.31917
6.58649
6.8497
7.10863
7.36311
7.613
7.85815
8.09845
8.33377
8.56404
8.78916
9.00905
9.22368
9.43299
9.63706
9.83591
10.0293
10.217
10.399
10.5754
10.7462
10.9114
11.0711
11.2252
11.3738
11.5171
11.6553
11.7887
11.9188
12.0468
12.1846
12.3286
-6.73625
-6.73651
-6.737
-6.73768
-6.73835
-6.73895
-6.73956
-6.74035
-6.74143
-6.74284
-6.74462
-6.74683
-6.74948
-6.7526
-6.75623
-6.76039
-6.76513
-6.77049
-6.77648
-6.78316
-6.79054
-6.79864
-6.80749
-6.81708
-6.82743
-6.83852
-6.85033
-6.86273
-6.87566
-6.88953
-6.90543
-6.924
-6.94347
-6.96269
-6.98218
-7.00198
-7.02173
-7.04276
-7.06677
-7.09336
-7.11753
-7.14425
-7.17909
-7.21377
-7.24427
-7.27416
-7.30393
-7.33378
-7.36373
-7.39376
-7.42382
-7.45385
-7.48376
-7.51347
-7.5429
-7.57196
-7.60054
-7.62855
-7.65587
-7.68241
-7.70804
-7.73264
-7.75607
-7.77821
-7.79891
-7.81802
-7.83539
-7.85086
-7.86426
-7.87542
-7.88417
-7.89032
-7.89369
-7.8941
-7.89134
-7.88524
-7.87558
-7.86219
-7.84485
-7.82338
-7.79757
-7.76724
-7.73219
-7.69224
-7.6472
-7.5969
-7.54115
-7.4798
-7.41268
-7.33965
-7.26057
-7.17532
-7.08376
-6.98578
-6.88125
-6.77003
-6.65193
-6.52683
-6.39492
-6.25632
-6.11087
-5.95851
-5.79924
-5.63307
-5.46003
-5.28016
-5.09351
-4.90015
-4.70018
-4.49369
-4.28081
-4.06166
-3.83639
-3.60516
-3.36814
-3.12553
-2.87752
-2.62432
-2.36617
-2.1033
-1.83598
-1.56445
-1.28899
-1.00985
-0.727334
-0.441729
-0.153343
0.137515
0.430541
0.725441
1.02191
1.31958
1.61812
1.91722
2.21659
2.51589
2.8148
3.11301
3.41021
3.70608
4.00034
4.29269
4.58286
4.87058
5.15558
5.43762
5.71645
5.99185
6.2636
6.5315
6.79535
7.05497
7.31021
7.5609
7.8069
8.0481
8.28438
8.51564
8.74179
8.96278
9.17859
9.38914
9.59423
9.79354
9.98713
10.1751
10.3575
10.5343
10.7055
10.8712
11.0314
11.1861
11.3353
11.4793
11.6184
11.753
11.8848
12.0146
12.1552
12.2939
-6.73259
-6.73347
-6.73474
-6.73585
-6.73655
-6.73699
-6.73737
-6.7379
-6.73868
-6.73982
-6.74135
-6.74332
-6.74575
-6.74867
-6.7521
-6.75608
-6.76063
-6.76579
-6.77159
-6.77806
-6.78522
-6.79309
-6.80171
-6.81109
-6.82126
-6.83225
-6.84409
-6.85679
-6.87038
-6.88509
-6.90138
-6.91945
-6.9388
-6.95899
-6.97998
-7.00154
-7.02338
-7.04595
-7.07003
-7.09493
-7.11913
-7.14407
-7.17181
-7.20075
-7.22956
-7.25858
-7.28777
-7.31712
-7.34658
-7.3761
-7.40563
-7.43513
-7.46451
-7.49371
-7.52264
-7.55122
-7.57935
-7.60695
-7.6339
-7.66009
-7.68542
-7.70975
-7.73297
-7.75494
-7.77551
-7.79455
-7.81189
-7.82738
-7.84086
-7.85215
-7.86109
-7.86749
-7.87116
-7.87193
-7.86961
-7.86399
-7.85489
-7.84212
-7.82547
-7.80474
-7.77976
-7.75031
-7.71621
-7.67728
-7.63333
-7.58418
-7.52965
-7.46958
-7.4038
-7.33216
-7.25453
-7.17078
-7.08077
-6.98439
-6.88156
-6.77213
-6.65592
-6.5328
-6.40284
-6.26612
-6.12258
-5.97218
-5.81491
-5.65077
-5.47978
-5.30197
-5.1174
-4.92613
-4.72825
-4.52386
-4.31306
-4.096
-3.8728
-3.64363
-3.40866
-3.16807
-2.92206
-2.67082
-2.41461
-2.15363
-1.88816
-1.61844
-1.34474
-1.06731
-0.786446
-0.502436
-0.215588
0.0737949
0.365408
0.658963
0.954147
1.25061
1.54803
1.84608
2.14447
2.44288
2.74097
3.03845
3.33499
3.63028
3.92405
4.21599
4.50582
4.79328
5.07811
5.36004
5.63885
5.91429
6.18615
6.45422
6.71831
6.97824
7.23383
7.48493
7.73141
7.97312
8.20995
8.44179
8.66855
8.89014
9.10646
9.3175
9.52321
9.72353
9.91841
10.1078
10.2915
10.4697
10.6423
10.8093
10.9708
11.1268
11.2775
11.423
11.5637
11.7001
11.8342
11.9659
12.1087
12.2355
-6.72653
-6.72817
-6.73065
-6.73268
-6.73396
-6.7348
-6.73547
-6.73616
-6.73702
-6.73816
-6.73966
-6.74157
-6.74394
-6.74678
-6.75014
-6.75403
-6.7585
-6.76357
-6.76926
-6.77562
-6.78265
-6.79039
-6.79887
-6.80811
-6.81816
-6.82906
-6.84085
-6.85357
-6.86727
-6.8821
-6.89822
-6.9157
-6.93438
-6.9541
-6.97476
-6.99623
-7.01837
-7.04128
-7.06521
-7.08996
-7.11513
-7.14085
-7.16742
-7.1947
-7.22244
-7.2506
-7.27908
-7.30781
-7.3367
-7.36571
-7.39476
-7.42379
-7.45274
-7.48152
-7.51007
-7.53829
-7.56611
-7.59341
-7.6201
-7.64608
-7.67123
-7.69542
-7.71853
-7.74044
-7.76099
-7.78005
-7.79745
-7.81305
-7.82668
-7.83817
-7.84734
-7.85403
-7.85804
-7.85918
-7.85728
-7.85214
-7.84356
-7.83134
-7.8153
-7.79524
-7.77096
-7.74227
-7.70897
-7.67089
-7.62783
-7.57961
-7.52606
-7.46701
-7.40229
-7.33175
-7.25526
-7.17266
-7.08383
-6.98864
-6.887
-6.77878
-6.66388
-6.54219
-6.41372
-6.27848
-6.13643
-5.98754
-5.8318
-5.6692
-5.49977
-5.32354
-5.14055
-4.95087
-4.75459
-4.55179
-4.34259
-4.12711
-3.90549
-3.67789
-3.44447
-3.20542
-2.96092
-2.71118
-2.45644
-2.19691
-1.93285
-1.6645
-1.39213
-1.116
-0.836388
-0.553593
-0.267914
0.0203455
0.310889
0.603429
0.897637
1.19317
1.48972
1.78698
2.08464
2.38236
2.67983
2.97674
3.27278
3.56763
3.86102
4.15264
4.44222
4.72948
5.01416
5.29601
5.57479
5.85025
6.12219
6.39039
6.65466
6.91481
7.17068
7.42209
7.66891
7.91099
8.14822
8.3805
8.60775
8.82985
9.04674
9.25835
9.46468
9.66573
9.86145
10.0517
10.2364
10.4155
10.589
10.757
10.9194
11.0764
11.228
11.3746
11.5164
11.6539
11.789
11.9206
12.0616
12.1745
-6.71948
-6.72192
-6.72583
-6.72905
-6.73116
-6.73262
-6.7338
-6.73489
-6.73607
-6.73747
-6.73917
-6.74124
-6.74375
-6.74672
-6.75019
-6.7542
-6.75878
-6.76396
-6.76976
-6.77622
-6.78337
-6.79124
-6.79985
-6.80925
-6.81947
-6.83055
-6.84255
-6.85551
-6.86948
-6.88455
-6.90078
-6.9182
-6.93674
-6.9563
-6.97679
-6.99812
-7.02019
-7.04301
-7.06662
-7.09097
-7.11596
-7.14161
-7.16788
-7.19468
-7.2219
-7.24951
-7.27745
-7.30566
-7.33407
-7.36262
-7.39125
-7.41989
-7.44848
-7.47693
-7.50517
-7.53311
-7.56067
-7.58776
-7.61427
-7.64009
-7.66511
-7.68921
-7.71227
-7.73415
-7.75471
-7.7738
-7.79128
-7.80699
-7.82076
-7.83243
-7.84181
-7.84873
-7.85302
-7.85447
-7.85291
-7.84813
-7.83996
-7.82818
-7.81261
-7.79304
-7.76929
-7.74116
-7.70845
-7.67099
-7.62858
-7.58103
-7.52819
-7.46987
-7.40591
-7.33615
-7.26046
-7.17869
-7.09071
-6.99638
-6.89562
-6.7883
-6.67434
-6.55366
-6.42623
-6.29202
-6.15101
-6.00317
-5.84848
-5.68694
-5.51858
-5.34342
-5.16151
-4.97292
-4.77771
-4.576
-4.36788
-4.15348
-3.93293
-3.7064
-3.47403
-3.23602
-2.99255
-2.74383
-2.49007
-2.23152
-1.96841
-1.701
-1.42952
-1.15426
-0.875496
-0.593518
-0.308622
-0.0211156
0.268723
0.560588
0.854144
1.14906
1.44504
1.74179
2.03897
2.33625
2.63333
2.92989
3.22561
3.52021
3.81337
4.10482
4.39426
4.68144
4.96608
5.24793
5.52674
5.80229
6.07435
6.3427
6.60717
6.86755
7.12367
7.37536
7.6225
7.86495
8.10258
8.33529
8.56297
8.78553
9.0029
9.215
9.42178
9.62324
9.81935
10.01
10.1951
10.3747
10.5488
10.7172
10.8802
11.0377
11.1899
11.337
11.4793
11.6171
11.7521
11.8823
12.0199
12.1199
-6.71285
-6.71606
-6.72134
-6.72573
-6.72873
-6.73091
-6.73269
-6.73431
-6.73595
-6.73774
-6.73979
-6.7422
-6.745
-6.74827
-6.75202
-6.75631
-6.76117
-6.76663
-6.77272
-6.77947
-6.78692
-6.79511
-6.80405
-6.81379
-6.82436
-6.8358
-6.84816
-6.86147
-6.87578
-6.89113
-6.90755
-6.92503
-6.94354
-6.96302
-6.98339
-7.0046
-7.02657
-7.04929
-7.07269
-7.09675
-7.12141
-7.14667
-7.1725
-7.19884
-7.22561
-7.25277
-7.28028
-7.30807
-7.33608
-7.36427
-7.39255
-7.42088
-7.44918
-7.47737
-7.50538
-7.53313
-7.56052
-7.58746
-7.61385
-7.63959
-7.66455
-7.68863
-7.71169
-7.73359
-7.75421
-7.77339
-7.79098
-7.80682
-7.82075
-7.83259
-7.84218
-7.84933
-7.85386
-7.85559
-7.85431
-7.84985
-7.84201
-7.83058
-7.81537
-7.7962
-7.77285
-7.74514
-7.71287
-7.67586
-7.63392
-7.58687
-7.53452
-7.47672
-7.41329
-7.34408
-7.26894
-7.18775
-7.10035
-7.00663
-6.90648
-6.7998
-6.6865
-6.5665
-6.43977
-6.30627
-6.16596
-6.01882
-5.86483
-5.70401
-5.53636
-5.36192
-5.18073
-4.99287
-4.79839
-4.59741
-4.39002
-4.17634
-3.95652
-3.73071
-3.49906
-3.26175
-3.01898
-2.77096
-2.51789
-2.26001
-1.99756
-1.73078
-1.45993
-1.18528
-0.907102
-0.625693
-0.341351
-0.0543698
0.234971
0.52635
0.819433
1.11391
1.40949
1.70587
2.0027
2.29967
2.59646
2.89276
3.18827
3.48267
3.77567
4.06699
4.35634
4.64345
4.92806
5.20991
5.48876
5.76437
6.03652
6.30499
6.5696
6.83015
7.08648
7.33841
7.58582
7.82855
8.06648
8.2995
8.52751
8.75042
8.96813
9.18057
9.38768
9.58942
9.78579
9.97672
10.1621
10.342
10.5164
10.6852
10.8485
11.0064
11.1589
11.3062
11.4486
11.5864
11.7207
11.8487
11.9829
12.0716
-6.70774
-6.71166
-6.71804
-6.72345
-6.72728
-6.73018
-6.7326
-6.73479
-6.73693
-6.73919
-6.74169
-6.7445
-6.74771
-6.75135
-6.75549
-6.76016
-6.7654
-6.77124
-6.77772
-6.78487
-6.79272
-6.8013
-6.81065
-6.8208
-6.83178
-6.84361
-6.85635
-6.87
-6.88461
-6.90019
-6.91675
-6.93429
-6.95276
-6.97215
-6.99238
-7.01342
-7.03523
-7.05776
-7.08096
-7.1048
-7.12923
-7.15421
-7.17973
-7.20573
-7.23216
-7.25899
-7.28617
-7.31365
-7.34138
-7.36929
-7.39734
-7.42544
-7.45354
-7.48157
-7.50944
-7.53707
-7.56438
-7.59126
-7.61762
-7.64335
-7.66833
-7.69244
-7.71556
-7.73755
-7.75827
-7.77757
-7.7953
-7.8113
-7.8254
-7.83743
-7.84722
-7.85459
-7.85935
-7.86131
-7.86028
-7.85608
-7.8485
-7.83735
-7.82242
-7.80353
-7.78048
-7.75307
-7.72112
-7.68442
-7.64279
-7.59607
-7.54405
-7.48659
-7.4235
-7.35464
-7.27986
-7.19902
-7.11199
-7.01865
-6.91889
-6.81261
-6.69972
-6.58015
-6.45386
-6.32079
-6.18092
-6.03421
-5.88067
-5.72029
-5.55309
-5.37909
-5.19836
-5.01095
-4.81694
-4.61642
-4.4095
-4.19629
-3.97694
-3.7516
-3.52042
-3.28358
-3.04128
-2.79372
-2.54112
-2.2837
-2.0217
-1.75536
-1.48495
-1.21072
-0.932959
-0.651956
-0.368012
-0.0814037
0.207568
0.49858
0.791305
1.08545
1.38073
1.67683
1.97339
2.27011
2.56667
2.86276
3.15808
3.45231
3.74517
4.03637
4.32563
4.61267
4.89723
5.17905
5.45789
5.73351
6.0057
6.27425
6.53894
6.79961
7.05607
7.30817
7.55574
7.79866
8.0368
8.27004
8.49828
8.72142
8.93937
9.15206
9.3594
9.56138
9.75795
9.9491
10.1348
10.3149
10.4895
10.6585
10.8221
10.9802
11.1328
11.2802
11.4226
11.5599
11.6931
11.8189
11.9499
12.0287
-6.70488
-6.70934
-6.71653
-6.72273
-6.72727
-6.73082
-6.73383
-6.73656
-6.73922
-6.74196
-6.74491
-6.74816
-6.75179
-6.75586
-6.76042
-6.7655
-6.77116
-6.77741
-6.78431
-6.79187
-6.80013
-6.80913
-6.81889
-6.82943
-6.84079
-6.853
-6.86606
-6.88001
-6.89486
-6.91063
-6.9273
-6.94488
-6.96333
-6.98263
-7.00274
-7.02363
-7.04527
-7.0676
-7.09061
-7.11424
-7.13846
-7.16324
-7.18853
-7.2143
-7.24052
-7.26713
-7.2941
-7.32139
-7.34893
-7.37668
-7.40458
-7.43256
-7.46057
-7.48852
-7.51634
-7.54395
-7.57125
-7.59815
-7.62455
-7.65034
-7.67541
-7.69962
-7.72285
-7.74497
-7.76584
-7.78529
-7.80319
-7.81936
-7.83364
-7.84586
-7.85584
-7.86341
-7.86836
-7.87053
-7.8697
-7.8657
-7.85832
-7.84736
-7.83264
-7.81395
-7.79109
-7.76387
-7.7321
-7.69559
-7.65415
-7.6076
-7.55577
-7.49848
-7.43557
-7.36689
-7.2923
-7.21164
-7.1248
-7.03165
-6.93208
-6.826
-6.71331
-6.59396
-6.46789
-6.33504
-6.19539
-6.04891
-5.89559
-5.73544
-5.56847
-5.39472
-5.21423
-5.02707
-4.83332
-4.63306
-4.4264
-4.21347
-3.9944
-3.76934
-3.53844
-3.3019
-3.0599
-2.81264
-2.56033
-2.30321
-2.04151
-1.77547
-1.50535
-1.23141
-0.953942
-0.673228
-0.389562
-0.103225
0.185469
0.476199
0.768655
1.06255
1.3576
1.65347
1.94982
2.24633
2.5427
2.83861
3.13376
3.42784
3.72057
4.01165
4.3008
4.58775
4.87224
5.154
5.43281
5.70842
5.98061
6.24918
6.51391
6.77464
7.03117
7.28336
7.53103
7.77407
8.01234
8.24573
8.47412
8.69742
8.91554
9.1284
9.33592
9.53807
9.73481
9.92612
10.1119
10.2923
10.467
10.6363
10.7999
10.9581
11.1109
11.2582
11.4003
11.5369
11.669
11.7923
11.9206
11.9906
-6.70461
-6.70942
-6.7171
-6.72383
-6.72891
-6.73299
-6.73651
-6.73973
-6.74285
-6.74604
-6.74941
-6.75308
-6.75712
-6.76159
-6.76654
-6.77201
-6.77805
-6.7847
-6.79198
-6.79993
-6.80857
-6.81794
-6.82805
-6.83894
-6.85063
-6.86313
-6.87646
-6.89064
-6.90567
-6.92157
-6.93832
-6.95592
-6.97434
-6.99358
-7.01359
-7.03436
-7.05586
-7.07804
-7.10089
-7.12436
-7.14842
-7.17304
-7.19819
-7.22382
-7.2499
-7.2764
-7.30326
-7.33044
-7.3579
-7.38558
-7.41344
-7.4414
-7.4694
-7.49736
-7.52522
-7.55288
-7.58026
-7.60726
-7.63376
-7.65968
-7.68487
-7.70924
-7.73263
-7.75491
-7.77594
-7.79557
-7.81364
-7.82999
-7.84445
-7.85684
-7.867
-7.87472
-7.87984
-7.88215
-7.88148
-7.87761
-7.87036
-7.85952
-7.84491
-7.82631
-7.80355
-7.77641
-7.74471
-7.70827
-7.66689
-7.62039
-7.5686
-7.51135
-7.44848
-7.37983
-7.30526
-7.22464
-7.13782
-7.04469
-6.94516
-6.83911
-6.72647
-6.60716
-6.48113
-6.34834
-6.20874
-6.06232
-5.90906
-5.74897
-5.58207
-5.4084
-5.228
-5.04094
-4.84728
-4.64713
-4.4406
-4.2278
-4.00886
-3.78395
-3.55321
-3.31683
-3.075
-2.82792
-2.5758
-2.31887
-2.05736
-1.79151
-1.52159
-1.24786
-0.970596
-0.690091
-0.406624
-0.120498
0.167977
0.458485
0.75073
1.04442
1.33928
1.63496
1.93112
2.22746
2.52365
2.81939
3.11438
3.40831
3.7009
3.99185
4.28088
4.56773
4.85213
5.13382
5.41257
5.68813
5.96029
6.22884
6.49357
6.7543
7.01086
7.26308
7.51081
7.75391
7.99225
8.22572
8.45421
8.67761
8.89584
9.10881
9.31646
9.51873
9.7156
9.90703
10.093
10.2734
10.4483
10.6176
10.7814
10.9396
11.0923
11.2394
11.381
11.5169
11.6476
11.7687
11.8943
11.9569
-6.70697
-6.71192
-6.7198
-6.72681
-6.73226
-6.73672
-6.74064
-6.74425
-6.74775
-6.75131
-6.75505
-6.75907
-6.76344
-6.76825
-6.77354
-6.77935
-6.78572
-6.79269
-6.80028
-6.80854
-6.81749
-6.82714
-6.83754
-6.84868
-6.86061
-6.87332
-6.88684
-6.90117
-6.91632
-6.93229
-6.94909
-6.96669
-6.98509
-7.00428
-7.02422
-7.0449
-7.06629
-7.08837
-7.11111
-7.13448
-7.15845
-7.18299
-7.20806
-7.23364
-7.25967
-7.28613
-7.31297
-7.34015
-7.36761
-7.39532
-7.42322
-7.45124
-7.47932
-7.50738
-7.53534
-7.56313
-7.59064
-7.61779
-7.64445
-7.67053
-7.6959
-7.72044
-7.74401
-7.76647
-7.78768
-7.80748
-7.82571
-7.84222
-7.85683
-7.86936
-7.87964
-7.88748
-7.8927
-7.8951
-7.8945
-7.89069
-7.88348
-7.87267
-7.85807
-7.83948
-7.81669
-7.78953
-7.75779
-7.72129
-7.67985
-7.63327
-7.58141
-7.52407
-7.4611
-7.39235
-7.31768
-7.23694
-7.15002
-7.05679
-6.95715
-6.851
-6.73826
-6.61886
-6.49275
-6.35987
-6.22019
-6.0737
-5.92038
-5.76023
-5.59329
-5.41958
-5.23915
-5.05207
-4.85841
-4.65827
-4.45175
-4.23899
-4.0201
-3.79524
-3.56457
-3.32827
-3.08654
-2.83956
-2.58756
-2.33075
-2.06937
-1.80366
-1.53389
-1.26031
-0.983211
-0.702869
-0.41957
-0.133624
0.154659
0.444979
0.737035
1.03054
1.32522
1.62071
1.91669
2.21283
2.50884
2.80441
3.09922
3.393
3.68543
3.97624
4.26514
4.55186
4.83614
5.11773
5.39637
5.67185
5.94394
6.21243
6.47711
6.73781
6.99435
7.24655
7.49429
7.7374
7.97577
8.20928
8.43781
8.66126
8.87955
9.09259
9.30032
9.50268
9.69963
9.89114
10.0772
10.2577
10.4326
10.602
10.7658
10.9239
11.0765
11.2233
11.3644
11.4994
11.6287
11.7475
11.8709
11.9271
-6.71176
-6.71669
-6.7245
-6.73156
-6.73718
-6.74188
-6.74606
-6.74995
-6.75373
-6.75757
-6.76158
-6.76586
-6.7705
-6.77556
-6.78109
-6.78713
-6.79373
-6.80093
-6.80874
-6.8172
-6.82634
-6.83618
-6.84674
-6.85805
-6.87011
-6.88295
-6.89657
-6.91099
-6.9262
-6.94222
-6.95903
-6.97663
-6.99502
-7.01417
-7.03406
-7.05469
-7.07604
-7.09807
-7.12076
-7.14409
-7.16803
-7.19255
-7.21763
-7.24322
-7.26928
-7.29579
-7.32268
-7.34993
-7.37749
-7.4053
-7.43332
-7.46147
-7.48968
-7.5179
-7.54603
-7.57398
-7.60167
-7.629
-7.65585
-7.68211
-7.70766
-7.73238
-7.75612
-7.77874
-7.8001
-7.82004
-7.8384
-7.85502
-7.86972
-7.88233
-7.89267
-7.90055
-7.90579
-7.90819
-7.90757
-7.90372
-7.89645
-7.88557
-7.87087
-7.85217
-7.82926
-7.80195
-7.77006
-7.73339
-7.69176
-7.645
-7.59293
-7.53538
-7.4722
-7.40323
-7.32834
-7.24739
-7.16025
-7.0668
-6.96695
-6.8606
-6.74766
-6.62807
-6.50177
-6.36871
-6.22886
-6.0822
-5.92873
-5.76845
-5.60138
-5.42755
-5.24703
-5.05986
-4.86614
-4.66594
-4.45939
-4.2466
-4.0277
-3.80285
-3.57221
-3.33596
-3.09428
-2.84738
-2.59546
-2.33875
-2.07747
-1.81188
-1.54224
-1.2688
-0.991857
-0.711672
-0.42855
-0.142792
0.145296
0.435422
0.727276
1.02059
1.31507
1.61036
1.90612
2.20206
2.49787
2.79323
3.08785
3.38143
3.67368
3.96431
4.25304
4.5396
4.82372
5.10516
5.38367
5.65903
5.931
6.19938
6.46397
6.72459
6.98106
7.23322
7.4809
7.72399
7.96234
8.19583
8.42436
8.64783
8.86614
9.07921
9.28698
9.48938
9.68638
9.87794
10.064
10.2446
10.4195
10.5889
10.7527
10.9107
11.063
11.2095
11.3501
11.4841
11.612
11.7286
11.8498
11.9006
-6.71865
-6.72342
-6.73094
-6.73785
-6.74347
-6.74825
-6.75256
-6.7566
-6.76054
-6.76454
-6.76871
-6.77315
-6.77793
-6.78312
-6.78878
-6.79494
-6.80165
-6.80894
-6.81684
-6.8254
-6.83462
-6.84454
-6.85518
-6.86655
-6.87868
-6.89157
-6.90524
-6.91969
-6.93493
-6.95095
-6.96777
-6.98536
-7.00373
-7.02287
-7.04275
-7.06337
-7.08471
-7.10674
-7.12944
-7.1528
-7.17678
-7.20135
-7.22647
-7.25213
-7.27827
-7.30488
-7.3319
-7.35929
-7.387
-7.41498
-7.44316
-7.47148
-7.49988
-7.52828
-7.55659
-7.58473
-7.61261
-7.64011
-7.66713
-7.69356
-7.71927
-7.74412
-7.76799
-7.79072
-7.81216
-7.83217
-7.85058
-7.86723
-7.88193
-7.89452
-7.90482
-7.91264
-7.91779
-7.92008
-7.91932
-7.91532
-7.90788
-7.8968
-7.8819
-7.86296
-7.83981
-7.81224
-7.78008
-7.74313
-7.70121
-7.65415
-7.60177
-7.54392
-7.48043
-7.41115
-7.33595
-7.25469
-7.16725
-7.07351
-6.97336
-6.86673
-6.75352
-6.63367
-6.50711
-6.37382
-6.23374
-6.08687
-5.9332
-5.77273
-5.6055
-5.43152
-5.25086
-5.06358
-4.86976
-4.6695
-4.46289
-4.25006
-4.03115
-3.8063
-3.57569
-3.33948
-3.09786
-2.85104
-2.59922
-2.34261
-2.08146
-1.81602
-1.54653
-1.27326
-0.996489
-0.716496
-0.433582
-0.14804
0.139832
0.42973
0.721351
1.01444
1.30869
1.60372
1.89923
2.19491
2.49047
2.78559
3.07996
3.37331
3.66532
3.95572
4.24423
4.53057
4.81449
5.09573
5.37406
5.64923
5.92104
6.18927
6.45372
6.71421
6.97057
7.22262
7.47022
7.71323
7.95151
8.18496
8.41345
8.63688
8.85518
9.06824
9.27602
9.47844
9.67546
9.86704
10.0531
10.2337
10.4087
10.578
10.7417
10.8996
11.0517
11.1977
11.3376
11.4706
11.5971
11.7118
11.831
11.8773
-6.72724
-6.73175
-6.73881
-6.7454
-6.75086
-6.75558
-6.75987
-6.76392
-6.76789
-6.77191
-6.77611
-6.78056
-6.78535
-6.79054
-6.79619
-6.80233
-6.80903
-6.81631
-6.8242
-6.83274
-6.84195
-6.85186
-6.86249
-6.87385
-6.88597
-6.89885
-6.9125
-6.92694
-6.94217
-6.95819
-6.97499
-6.99258
-7.01095
-7.03009
-7.04999
-7.07063
-7.092
-7.11407
-7.13683
-7.16024
-7.18428
-7.20893
-7.23415
-7.25992
-7.2862
-7.31296
-7.34015
-7.36772
-7.39561
-7.42377
-7.45213
-7.48063
-7.5092
-7.53776
-7.56624
-7.59453
-7.62255
-7.65018
-7.67732
-7.70384
-7.72961
-7.75452
-7.77841
-7.80115
-7.82257
-7.84254
-7.86087
-7.87742
-7.892
-7.90444
-7.91457
-7.92218
-7.92711
-7.92916
-7.92814
-7.92386
-7.91612
-7.90473
-7.88949
-7.87021
-7.8467
-7.81877
-7.78623
-7.7489
-7.70659
-7.65915
-7.60638
-7.54814
-7.48426
-7.41461
-7.33904
-7.25741
-7.16962
-7.07553
-6.97505
-6.86809
-6.75458
-6.63443
-6.5076
-6.37404
-6.23373
-6.08664
-5.93276
-5.77212
-5.60471
-5.4306
-5.24982
-5.06245
-4.86855
-4.66824
-4.4616
-4.24876
-4.02987
-3.80506
-3.57451
-3.33838
-3.09687
-2.85016
-2.59847
-2.34203
-2.08105
-1.8158
-1.54651
-1.27347
-0.996929
-0.717195
-0.434546
-0.149272
0.138327
0.427928
0.71926
1.01207
1.30601
1.60071
1.8959
2.19127
2.48651
2.78131
3.07539
3.36842
3.66014
3.95025
4.23847
4.52454
4.80819
5.08918
5.36726
5.6422
5.91378
6.1818
6.44606
6.70637
6.96256
7.21446
7.46193
7.70481
7.94299
8.17634
8.40475
8.62813
8.84637
9.0594
9.26715
9.46955
9.66657
9.85814
10.0442
10.2248
10.3997
10.569
10.7326
10.8903
11.0421
11.1877
11.3268
11.4589
11.584
11.6968
11.814
11.8568
-6.73715
-6.74131
-6.7478
-6.75395
-6.75911
-6.76361
-6.76772
-6.77162
-6.77545
-6.77934
-6.78339
-6.78771
-6.79236
-6.79742
-6.80293
-6.80895
-6.81552
-6.82267
-6.83045
-6.83889
-6.848
-6.85781
-6.86835
-6.87964
-6.89168
-6.9045
-6.9181
-6.9325
-6.9477
-6.96369
-6.98049
-6.99808
-7.01646
-7.03561
-7.05552
-7.07619
-7.09759
-7.1197
-7.14251
-7.166
-7.19013
-7.21489
-7.24024
-7.26616
-7.29259
-7.31951
-7.34686
-7.37459
-7.40263
-7.43093
-7.45942
-7.48803
-7.5167
-7.54535
-7.57389
-7.60224
-7.63029
-7.65793
-7.68504
-7.71152
-7.73723
-7.76204
-7.7858
-7.80838
-7.82963
-7.84938
-7.86748
-7.88377
-7.89807
-7.9102
-7.91999
-7.92727
-7.93183
-7.9335
-7.93208
-7.92738
-7.91922
-7.9074
-7.89172
-7.872
-7.84804
-7.81966
-7.78667
-7.74889
-7.70614
-7.65825
-7.60505
-7.54638
-7.48208
-7.41203
-7.33607
-7.25407
-7.1659
-7.07147
-6.97066
-6.86338
-6.74957
-6.62915
-6.50207
-6.36827
-6.22774
-6.08046
-5.92642
-5.76563
-5.59811
-5.4239
-5.24305
-5.05563
-4.86172
-4.66141
-4.4548
-4.24202
-4.02321
-3.79851
-3.56809
-3.33212
-3.09079
-2.84428
-2.59281
-2.3366
-2.07589
-1.81091
-1.54192
-1.26918
-0.992974
-0.713585
-0.431278
-0.146351
0.140874
0.43009
0.721059
1.0135
1.30703
1.60131
1.8961
2.19107
2.48591
2.78032
3.074
3.36666
3.658
3.94774
4.2356
4.52132
4.80463
5.08528
5.36305
5.63769
5.90899
6.17674
6.44074
6.70082
6.95679
7.20849
7.45577
7.69849
7.93652
8.16973
8.39803
8.6213
8.83946
9.05243
9.26013
9.4625
9.65949
9.85104
10.0371
10.2176
10.3925
10.5617
10.7252
10.8827
11.0341
11.1793
11.3177
11.4487
11.5725
11.6835
11.7989
11.8389
-6.74801
-6.75178
-6.75765
-6.76324
-6.76795
-6.77208
-6.77584
-6.7794
-6.78291
-6.78648
-6.79024
-6.79426
-6.79863
-6.80342
-6.80867
-6.81445
-6.82078
-6.82772
-6.8353
-6.84354
-6.85248
-6.86213
-6.87253
-6.88369
-6.89562
-6.90834
-6.92186
-6.93618
-6.9513
-6.96724
-6.98399
-7.00154
-7.01989
-7.03903
-7.05894
-7.07962
-7.10103
-7.12318
-7.14605
-7.16962
-7.19385
-7.21872
-7.24417
-7.27018
-7.2967
-7.32369
-7.3511
-7.37886
-7.40693
-7.43523
-7.4637
-7.49227
-7.52087
-7.54944
-7.57788
-7.6061
-7.634
-7.66145
-7.68836
-7.7146
-7.74003
-7.76454
-7.78798
-7.81022
-7.83109
-7.85045
-7.86814
-7.88399
-7.89784
-7.90952
-7.91884
-7.92562
-7.92969
-7.93086
-7.92893
-7.92373
-7.91506
-7.90272
-7.88653
-7.8663
-7.84184
-7.81297
-7.77949
-7.74123
-7.69801
-7.64967
-7.59603
-7.53693
-7.47223
-7.40178
-7.32545
-7.2431
-7.1546
-7.05985
-6.95875
-6.85121
-6.73716
-6.61652
-6.48924
-6.35528
-6.21461
-6.06721
-5.91308
-5.75223
-5.58468
-5.41047
-5.22965
-5.04228
-4.84845
-4.64824
-4.44178
-4.22916
-4.01055
-3.78607
-3.55589
-3.32019
-3.07914
-2.83295
-2.58181
-2.32596
-2.06562
-1.80103
-1.53245
-1.26015
-0.984397
-0.705445
-0.423589
-0.139135
0.147592
0.436319
0.726831
1.01878
1.31177
1.60554
1.89982
2.19428
2.48862
2.78254
3.07573
3.36791
3.65878
3.94806
4.23547
4.52075
4.80364
5.08389
5.36126
5.63553
5.90647
6.17388
6.43757
6.69734
6.95303
7.20448
7.45152
7.69403
7.93187
8.16491
8.39306
8.6162
8.83425
9.04712
9.25475
9.45707
9.65401
9.84553
10.0316
10.212
10.3869
10.556
10.7193
10.8766
11.0277
11.1723
11.3101
11.4401
11.5626
11.672
11.7855
11.8234
-6.76
-6.76339
-6.76862
-6.77358
-6.77769
-6.78123
-6.78441
-6.78741
-6.79037
-6.79342
-6.79667
-6.80021
-6.80414
-6.8085
-6.81336
-6.81877
-6.82477
-6.83139
-6.83867
-6.84663
-6.85531
-6.86472
-6.87489
-6.88583
-6.89756
-6.91009
-6.92344
-6.9376
-6.95258
-6.96837
-6.98498
-7.0024
-7.02064
-7.03968
-7.05953
-7.08015
-7.10153
-7.12366
-7.14649
-7.17002
-7.19421
-7.21902
-7.24439
-7.27031
-7.29671
-7.32356
-7.35079
-7.37837
-7.40621
-7.43427
-7.46248
-7.49078
-7.5191
-7.54737
-7.57547
-7.60333
-7.63082
-7.65785
-7.6843
-7.71006
-7.73499
-7.75898
-7.78188
-7.80356
-7.82386
-7.84265
-7.85975
-7.87501
-7.88827
-7.89934
-7.90806
-7.91425
-7.91773
-7.91831
-7.91581
-7.91003
-7.9008
-7.88791
-7.87119
-7.85043
-7.82547
-7.79609
-7.76214
-7.72343
-7.67977
-7.63102
-7.57699
-7.51754
-7.4525
-7.38174
-7.3051
-7.22247
-7.13373
-7.03875
-6.93746
-6.82976
-6.71556
-6.59482
-6.46746
-6.33345
-6.19276
-6.04537
-5.89129
-5.73052
-5.56307
-5.389
-5.20834
-5.02117
-4.82757
-4.62762
-4.42143
-4.20914
-3.99087
-3.76676
-3.53698
-3.30171
-3.0611
-2.81538
-2.56474
-2.3094
-2.0496
-1.78557
-1.51757
-1.24586
-0.970685
-0.692326
-0.411085
-0.12727
0.158808
0.446926
0.736838
1.02812
1.32044
1.61356
1.90719
2.20101
2.49472
2.78801