/*--------------------------------*- C++ -*----------------------------------*\
  =========                 |
  \\      /  F ield         | OpenFOAM: The Open Source CFD Toolbox
   \\    /   O peration     | Website:  https://openfoam.org
    \\  /    A nd           | Version:  9
     \\/     M anipulation  |
\*---------------------------------------------------------------------------*/
FoamFile
{
    format      ascii;
    class       surfaceScalarField;
    location    "287";
    object      phi;
}
// * * * * * * * * * * * * * * * * * * * * * * * * * * * * * * * * * * * * * //

dimensions      [0 3 -1 0 0 0 0];

internalField   nonuniform List<scalar> 
24170
(
3.12889e-06
5.95162e-08
3.04664e-06
8.22477e-08
2.97355e-06
7.309e-08
2.90491e-06
6.86356e-08
2.8406e-06
6.43178e-08
2.78329e-06
5.73081e-08
2.73398e-06
4.93059e-08
2.69205e-06
4.19298e-08
2.65641e-06
3.56444e-08
2.626e-06
3.0408e-08
2.59985e-06
2.61471e-08
2.57713e-06
2.27208e-08
2.55718e-06
1.99511e-08
2.53944e-06
1.77368e-08
2.52353e-06
1.59057e-08
2.50865e-06
1.48851e-08
2.49516e-06
1.34897e-08
1.75046e-08
2.47765e-06
3.45314e-06
2.36248e-08
3.45702e-06
7.83664e-08
3.45055e-06
7.95576e-08
3.4391e-06
8.0087e-08
3.42432e-06
7.90915e-08
3.40708e-06
7.4553e-08
3.38787e-06
6.85138e-08
3.36736e-06
6.24415e-08
3.34623e-06
5.67735e-08
3.32507e-06
5.15676e-08
3.30436e-06
4.68505e-08
3.28439e-06
4.26911e-08
3.26536e-06
3.89896e-08
3.24729e-06
3.58028e-08
3.2303e-06
3.28925e-08
3.21429e-06
3.08942e-08
3.19959e-06
2.81878e-08
2.91956e-08
3.1879e-06
3.66826e-06
1.78795e-08
3.67919e-06
6.74387e-08
3.68543e-06
7.33213e-08
3.68947e-06
7.60409e-08
3.69108e-06
7.74874e-08
3.69012e-06
7.55103e-08
3.68699e-06
7.16394e-08
3.68216e-06
6.72682e-08
3.67603e-06
6.29068e-08
3.66892e-06
5.86829e-08
3.6611e-06
5.46683e-08
3.65283e-06
5.09607e-08
3.64429e-06
4.75243e-08
3.63566e-06
4.44386e-08
3.627e-06
4.15496e-08
3.61864e-06
3.92516e-08
3.61014e-06
3.6691e-08
3.56241e-08
3.60371e-06
3.92587e-06
1.73935e-08
3.93592e-06
5.7389e-08
3.94258e-06
6.66674e-08
3.94812e-06
7.04932e-08
3.95254e-06
7.30654e-08
3.9555e-06
7.25523e-08
3.95718e-06
6.99579e-08
3.95783e-06
6.66196e-08
3.95764e-06
6.31018e-08
3.95675e-06
5.9573e-08
3.95529e-06
5.61187e-08
3.95341e-06
5.28472e-08
3.95118e-06
4.97544e-08
3.94871e-06
4.69081e-08
3.94604e-06
4.42202e-08
3.9434e-06
4.18908e-08
3.94055e-06
3.95358e-08
3.76431e-08
3.93853e-06
4.20819e-06
1.63258e-08
4.21599e-06
4.95946e-08
4.22169e-06
6.0964e-08
4.2268e-06
6.53837e-08
4.23156e-06
6.83095e-08
4.23554e-06
6.85711e-08
4.23872e-06
6.67778e-08
4.24121e-06
6.41277e-08
4.24312e-06
6.1192e-08
4.24454e-06
5.81563e-08
4.24554e-06
5.51146e-08
4.24621e-06
5.21723e-08
4.24662e-06
4.93509e-08
4.24682e-06
4.67012e-08
4.24686e-06
4.41793e-08
4.24688e-06
4.18746e-08
4.24681e-06
3.96053e-08
3.74451e-08
4.24701e-06
4.51069e-06
1.47237e-08
4.51689e-06
4.33956e-08
4.52214e-06
5.57093e-08
4.52696e-06
6.05618e-08
4.53168e-06
6.35889e-08
4.53594e-06
6.43121e-08
4.53963e-06
6.30916e-08
4.54281e-06
6.09512e-08
4.54555e-06
5.8451e-08
4.54791e-06
5.57883e-08
4.54996e-06
5.30675e-08
4.55175e-06
5.03863e-08
4.55331e-06
4.77838e-08
4.55472e-06
4.5297e-08
4.55599e-06
4.29081e-08
4.55721e-06
4.06476e-08
4.5584e-06
3.84223e-08
3.61933e-08
4.55965e-06
4.83431e-06
1.31355e-08
4.83963e-06
3.8071e-08
4.84476e-06
5.0579e-08
4.84947e-06
5.58525e-08
4.85411e-06
5.89477e-08
4.85844e-06
5.99844e-08
4.86233e-06
5.92067e-08
4.86581e-06
5.74709e-08
4.86894e-06
5.53176e-08
4.87177e-06
5.29555e-08
4.87434e-06
5.04969e-08
4.87669e-06
4.80336e-08
4.87886e-06
4.56147e-08
4.88089e-06
4.3269e-08
4.88281e-06
4.09928e-08
4.88466e-06
3.87894e-08
4.88648e-06
3.66063e-08
3.43899e-08
4.88828e-06
5.18103e-06
1.16843e-08
5.18576e-06
3.3346e-08
5.19077e-06
4.55712e-08
5.19542e-06
5.11944e-08
5.20002e-06
5.43537e-08
5.20439e-06
5.56149e-08
5.20839e-06
5.51981e-08
5.21206e-06
5.38054e-08
5.21543e-06
5.19475e-08
5.21854e-06
4.98436e-08
5.22143e-06
4.76116e-08
5.22412e-06
4.53397e-08
5.22665e-06
4.30819e-08
5.22906e-06
4.08647e-08
5.23136e-06
3.86912e-08
5.23359e-06
3.65562e-08
5.23577e-06
3.44276e-08
3.22661e-08
5.23789e-06
5.55268e-06
1.03374e-08
5.55689e-06
2.91391e-08
5.5617e-06
4.07584e-08
5.56632e-06
4.65788e-08
5.57089e-06
4.9781e-08
5.57531e-06
5.11998e-08
5.57942e-06
5.10813e-08
5.58324e-06
4.9991e-08
5.58679e-06
4.83969e-08
5.59011e-06
4.6526e-08
5.59322e-06
4.44995e-08
5.59615e-06
4.24041e-08
5.59894e-06
4.02955e-08
5.6016e-06
3.82015e-08
5.60416e-06
3.61296e-08
5.60664e-06
3.4075e-08
5.60905e-06
3.20179e-08
2.99391e-08
5.61138e-06
5.95104e-06
9.07821e-09
5.95479e-06
2.53868e-08
5.95937e-06
3.618e-08
5.96393e-06
4.20166e-08
5.96848e-06
4.52261e-08
5.97294e-06
4.67459e-08
5.97715e-06
4.68671e-08
5.9811e-06
4.60427e-08
5.98481e-06
4.46884e-08
5.9883e-06
4.30326e-08
5.9916e-06
4.11989e-08
5.99473e-06
3.92721e-08
5.99772e-06
3.73087e-08
6.00058e-06
3.53387e-08
6.00334e-06
3.33735e-08
6.006e-06
3.14128e-08
6.00857e-06
2.94461e-08
2.74709e-08
6.01104e-06
6.37798e-06
7.90848e-09
6.38135e-06
2.20215e-08
6.38568e-06
3.18467e-08
6.39017e-06
3.75247e-08
6.3947e-06
4.06947e-08
6.39918e-06
4.22654e-08
6.40348e-06
4.25681e-08
6.40755e-06
4.19714e-08
6.41141e-06
4.08344e-08
6.41506e-06
3.93789e-08
6.41853e-06
3.77289e-08
6.42184e-06
3.59668e-08
6.425e-06
3.41489e-08
6.42803e-06
3.23077e-08
6.43094e-06
3.04587e-08
6.43375e-06
2.86065e-08
6.43644e-06
2.67483e-08
2.4894e-08
6.43902e-06
5.74176e-06
6.98255e-09
5.74434e-06
1.94375e-08
5.74782e-06
2.83738e-08
5.75155e-06
3.37922e-08
5.75536e-06
3.68867e-08
5.75916e-06
3.8467e-08
5.76284e-06
3.8879e-08
5.76637e-06
3.84431e-08
5.76973e-06
3.74722e-08
5.77294e-06
3.61753e-08
5.77599e-06
3.46744e-08
5.77891e-06
3.30499e-08
5.7817e-06
3.13573e-08
5.78438e-06
2.96306e-08
5.78695e-06
2.78882e-08
5.78941e-06
2.61394e-08
5.79178e-06
2.43857e-08
2.26459e-08
5.79402e-06
6.99914e-06
5.99891e-09
7.00187e-06
1.67032e-08
7.00564e-06
2.46058e-08
7.00981e-06
2.96204e-08
7.01414e-06
3.25609e-08
7.0185e-06
3.41066e-08
7.02278e-06
3.45987e-08
7.02691e-06
3.43116e-08
7.03087e-06
3.35089e-08
7.03467e-06
3.23806e-08
7.0383e-06
3.1044e-08
7.04177e-06
2.95758e-08
7.0451e-06
2.80301e-08
7.04829e-06
2.64416e-08
7.05134e-06
2.48317e-08
7.05427e-06
2.32137e-08
7.05706e-06
2.15933e-08
1.99956e-08
7.05971e-06
8.53188e-06
4.96534e-09
8.53474e-06
1.38461e-08
8.53877e-06
2.05706e-08
8.54338e-06
2.50168e-08
8.54824e-06
2.76992e-08
8.5532e-06
2.91473e-08
8.55812e-06
2.9674e-08
8.56292e-06
2.951e-08
8.56756e-06
2.88687e-08
8.57203e-06
2.79146e-08
8.57632e-06
2.67556e-08
8.58043e-06
2.54636e-08
8.58437e-06
2.40891e-08
8.58814e-06
2.26669e-08
8.59175e-06
2.12203e-08
8.5952e-06
1.97656e-08
8.59848e-06
1.83118e-08
1.6887e-08
8.60159e-06
1.04003e-05
3.89117e-09
1.04033e-05
1.08856e-08
1.04075e-05
1.62906e-08
1.04126e-05
1.99911e-08
1.0418e-05
2.22864e-08
1.04236e-05
2.35535e-08
1.04292e-05
2.40526e-08
1.04347e-05
2.39711e-08
1.04401e-05
2.34734e-08
1.04453e-05
2.26927e-08
1.04504e-05
2.17223e-08
1.04552e-05
2.0626e-08
1.04599e-05
1.94493e-08
1.04643e-05
1.82251e-08
1.04685e-05
1.69767e-08
1.04726e-05
1.57218e-08
1.04764e-05
1.4471e-08
1.32528e-08
1.04801e-05
1.26779e-05
2.78144e-09
1.2681e-05
7.81659e-09
1.26855e-05
1.17647e-08
1.26909e-05
1.45383e-08
1.26969e-05
1.62964e-08
1.27032e-05
1.72778e-08
1.27096e-05
1.76725e-08
1.27159e-05
1.76198e-08
1.27222e-05
1.72371e-08
1.27282e-05
1.66222e-08
1.27341e-05
1.58483e-08
1.27398e-05
1.49669e-08
1.27452e-05
1.4016e-08
1.27504e-05
1.30238e-08
1.27554e-05
1.20113e-08
1.27601e-05
1.09951e-08
1.27646e-05
9.98574e-09
9.00977e-09
1.27688e-05
1.54543e-05
1.62559e-09
1.54576e-05
4.59364e-09
1.54624e-05
6.93636e-09
1.54683e-05
8.5999e-09
1.5475e-05
9.65688e-09
1.5482e-05
1.02323e-08
1.54892e-05
1.04355e-08
1.54965e-05
1.03506e-08
1.55037e-05
1.00481e-08
1.55107e-05
9.58805e-09
1.55176e-05
9.01736e-09
1.55242e-05
8.37103e-09
1.55305e-05
7.67549e-09
1.55366e-05
6.95124e-09
1.55424e-05
6.21432e-09
1.55479e-05
5.47789e-09
1.55531e-05
4.75003e-09
4.0535e-09
1.55581e-05
1.88389e-05
3.83813e-10
1.88424e-05
1.09289e-09
1.88477e-05
1.63277e-09
1.88543e-05
1.98625e-09
1.88618e-05
2.17185e-09
1.88698e-05
2.21723e-09
1.88781e-05
2.14432e-09
1.88865e-05
1.97293e-09
1.88948e-05
1.72334e-09
1.8903e-05
1.41412e-09
1.89109e-05
1.06081e-09
1.89186e-05
6.76426e-10
1.8926e-05
2.72097e-10
1.89331e-05
-1.4259e-10
1.89399e-05
-5.59481e-10
1.89463e-05
-9.71209e-10
1.89525e-05
-1.37358e-09
-1.74947e-09
1.89583e-05
2.29648e-05
-1.04477e-09
2.29688e-05
-2.97411e-09
2.2975e-05
-4.56476e-09
2.29828e-05
-5.778e-09
2.29916e-05
-6.63564e-09
2.3001e-05
-7.22406e-09
2.30108e-05
-7.63053e-09
2.30207e-05
-7.90965e-09
2.30305e-05
-8.09797e-09
2.30402e-05
-8.22662e-09
2.30495e-05
-8.31914e-09
2.30586e-05
-8.3899e-09
2.30673e-05
-8.44666e-09
2.30757e-05
-8.49365e-09
2.30836e-05
-8.53286e-09
2.30912e-05
-8.56441e-09
2.30985e-05
-8.58904e-09
-8.5964e-09
2.31053e-05
1.68118e-05
-2.16593e-09
1.6815e-05
-6.14042e-09
1.68198e-05
-9.38843e-09
1.68258e-05
-1.17672e-08
1.68325e-05
-1.33373e-08
1.68396e-05
-1.43263e-08
1.68469e-05
-1.49221e-08
1.68542e-05
-1.52282e-08
1.68614e-05
-1.53238e-08
1.68685e-05
-1.52805e-08
1.68753e-05
-1.51511e-08
1.68819e-05
-1.49684e-08
1.68882e-05
-1.47532e-08
1.68942e-05
-1.45192e-08
1.69e-05
-1.4275e-08
1.69054e-05
-1.40254e-08
1.69106e-05
-1.37739e-08
-1.3514e-08
1.69155e-05
1.46356e-05
-3.2426e-09
1.46387e-05
-9.22257e-09
1.46434e-05
-1.4097e-08
1.46492e-05
-1.75034e-08
1.46554e-05
-1.96147e-08
1.4662e-05
-2.08809e-08
1.46687e-05
-2.15722e-08
1.46752e-05
-2.18246e-08
1.46817e-05
-2.1769e-08
1.46879e-05
-2.15219e-08
1.46939e-05
-2.11589e-08
1.46997e-05
-2.07246e-08
1.47052e-05
-2.02491e-08
1.47104e-05
-1.97537e-08
1.47154e-05
-1.92516e-08
1.47201e-05
-1.87503e-08
1.47246e-05
-1.82549e-08
-1.77616e-08
1.47289e-05
1.27411e-05
-4.25068e-09
1.27443e-05
-1.23452e-08
1.27491e-05
-1.89224e-08
1.27547e-05
-2.31429e-08
1.27607e-05
-2.55871e-08
1.27668e-05
-2.70296e-08
1.2773e-05
-2.77332e-08
1.2779e-05
-2.78474e-08
1.27848e-05
-2.75792e-08
1.27904e-05
-2.70939e-08
1.27957e-05
-2.64811e-08
1.28008e-05
-2.57924e-08
1.28056e-05
-2.50645e-08
1.28102e-05
-2.43234e-08
1.28145e-05
-2.35844e-08
1.28186e-05
-2.28559e-08
1.28225e-05
-2.21429e-08
-2.14427e-08
1.28262e-05
1.10918e-05
-5.09159e-09
1.1095e-05
-1.55629e-08
1.11001e-05
-2.40448e-08
1.11057e-05
-2.87622e-08
1.11115e-05
-3.13152e-08
1.11173e-05
-3.28343e-08
1.1123e-05
-3.3451e-08
1.11285e-05
-3.33474e-08
1.11337e-05
-3.28259e-08
1.11387e-05
-3.20837e-08
1.11434e-05
-3.12127e-08
1.11479e-05
-3.02694e-08
1.11522e-05
-2.92971e-08
1.11562e-05
-2.83241e-08
1.11599e-05
-2.73659e-08
1.11635e-05
-2.64306e-08
1.11669e-05
-2.55223e-08
-2.46387e-08
1.11701e-05
9.65581e-06
-5.69021e-09
9.65924e-06
-1.89883e-08
9.66458e-06
-2.93875e-08
9.67007e-06
-3.42546e-08
9.67562e-06
-3.68662e-08
9.68118e-06
-3.83847e-08
9.6865e-06
-3.87735e-08
9.69151e-06
-3.83639e-08
9.69625e-06
-3.75585e-08
9.70071e-06
-3.65513e-08
9.70492e-06
-3.54213e-08
9.70888e-06
-3.42278e-08
9.7126e-06
-3.30185e-08
9.7161e-06
-3.18229e-08
9.71939e-06
-3.0656e-08
9.72248e-06
-2.95251e-08
9.72539e-06
-2.84325e-08
-2.73742e-08
9.72813e-06
8.4053e-06
-5.63584e-09
8.40963e-06
-2.33235e-08
8.41487e-06
-3.46219e-08
8.41989e-06
-3.92773e-08
8.42525e-06
-4.22247e-08
8.43065e-06
-4.37839e-08
8.43572e-06
-4.38493e-08
8.44042e-06
-4.30595e-08
8.44478e-06
-4.19166e-08
8.44882e-06
-4.05966e-08
8.45257e-06
-3.91695e-08
8.45604e-06
-3.76974e-08
8.45925e-06
-3.62299e-08
8.46222e-06
-3.47949e-08
8.46497e-06
-3.34074e-08
8.46752e-06
-3.20738e-08
8.46988e-06
-3.07959e-08
-2.95704e-08
8.47208e-06
7.3145e-06
-2.85223e-09
7.32119e-06
-3.00114e-08
7.32674e-06
-4.01726e-08
7.33168e-06
-4.42211e-08
7.33707e-06
-4.76155e-08
7.34239e-06
-4.90969e-08
7.34725e-06
-4.87183e-08
7.35166e-06
-4.74631e-08
7.35563e-06
-4.58849e-08
7.35917e-06
-4.4142e-08
7.36232e-06
-4.23155e-08
7.3651e-06
-4.04779e-08
7.36755e-06
-3.86817e-08
7.36971e-06
-3.69512e-08
7.3716e-06
-3.53014e-08
7.37326e-06
-3.37356e-08
7.37472e-06
-3.22537e-08
-3.08465e-08
7.37599e-06
6.36243e-06
4.78069e-09
6.37189e-06
-3.94733e-08
6.37932e-06
-4.75954e-08
6.38595e-06
-5.08545e-08
6.39223e-06
-5.38918e-08
6.39753e-06
-5.44036e-08
6.40182e-06
-5.30054e-08
6.40529e-06
-5.09358e-08
6.40808e-06
-4.86768e-08
6.41026e-06
-4.63181e-08
6.41188e-06
-4.39391e-08
6.41302e-06
-4.16161e-08
6.41374e-06
-3.93997e-08
6.4141e-06
-3.73088e-08
6.41415e-06
-3.53556e-08
6.41395e-06
-3.35382e-08
6.41356e-06
-3.18569e-08
-3.02907e-08
6.413e-06
5.54129e-06
8.9521e-09
5.55032e-06
-4.85022e-08
5.55833e-06
-5.5607e-08
5.56603e-06
-5.8558e-08
5.57249e-06
-6.03487e-08
5.57681e-06
-5.87242e-08
5.57905e-06
-5.5241e-08
5.5796e-06
-5.14889e-08
5.57884e-06
-4.79169e-08
5.57705e-06
-4.45256e-08
5.57445e-06
-4.13381e-08
5.57123e-06
-3.83951e-08
5.56753e-06
-3.57046e-08
5.56348e-06
-3.32606e-08
5.55918e-06
-3.10549e-08
5.55472e-06
-2.90764e-08
5.55019e-06
-2.73254e-08
-2.57486e-08
5.54565e-06
4.86019e-06
-2.3631e-08
4.86538e-06
-5.36934e-08
4.86523e-06
-5.54571e-08
4.86216e-06
-5.54932e-08
4.85699e-06
-5.51738e-08
4.84948e-06
-5.1218e-08
4.83979e-06
-4.55438e-08
4.82839e-06
-4.00908e-08
4.8158e-06
-3.53337e-08
4.80252e-06
-3.12409e-08
4.78891e-06
-2.77331e-08
4.77527e-06
-2.47505e-08
4.76178e-06
-2.22131e-08
4.74857e-06
-2.00552e-08
4.73574e-06
-1.82211e-08
4.72335e-06
-1.66871e-08
4.71151e-06
-1.54895e-08
-1.51396e-08
4.7009e-06
4.17905e-06
4.12535e-06
4.06989e-06
4.0144e-06
3.95923e-06
3.90801e-06
3.86247e-06
3.82237e-06
3.78704e-06
3.7558e-06
3.72807e-06
3.70332e-06
3.6811e-06
3.66105e-06
3.64283e-06
3.62614e-06
3.61065e-06
3.59551e-06
1.08827e-08
-1.08754e-08
2.42485e-08
-1.336e-08
3.40768e-08
-9.81602e-09
3.88462e-08
-4.76586e-09
3.84278e-08
4.3153e-10
3.33725e-08
5.0582e-09
2.46229e-08
8.76495e-09
1.30664e-08
1.15579e-08
-5.30172e-10
1.36133e-08
-1.57303e-08
1.51986e-08
-3.2217e-08
1.65025e-08
-4.98379e-08
1.76172e-08
-6.84551e-08
1.86325e-08
-8.80495e-08
1.95905e-08
-1.08544e-07
2.05106e-08
-1.29943e-07
2.1397e-08
-1.52176e-07
2.22515e-08
-1.75249e-07
2.30717e-08
-1.99085e-07
2.38586e-08
-2.23694e-07
2.46102e-08
-2.48999e-07
2.53297e-08
-2.75011e-07
2.60161e-08
-3.01653e-07
2.66763e-08
-3.28948e-07
2.73134e-08
-3.56858e-07
2.79471e-08
-3.85408e-07
2.86057e-08
-4.14696e-07
2.93326e-08
-4.44746e-07
3.01584e-08
-4.75809e-07
3.11161e-08
-5.0802e-07
3.23525e-08
-5.40279e-07
3.22873e-08
-5.70362e-07
3.0196e-08
-6.00482e-07
3.01105e-08
-6.32996e-07
3.25421e-08
-6.68635e-07
3.55712e-08
-7.12876e-07
4.41729e-08
-7.58305e-07
4.53121e-08
-7.96066e-07
3.76339e-08
-8.36753e-07
4.05872e-08
-8.80438e-07
4.3576e-08
-9.27177e-07
4.66812e-08
-9.7351e-07
4.62666e-08
-1.01497e-06
4.14305e-08
-1.05584e-06
4.08422e-08
-1.09925e-06
4.3401e-08
-1.14301e-06
4.3737e-08
-1.18693e-06
4.39193e-08
-1.23095e-06
4.39996e-08
-1.27496e-06
4.40082e-08
-1.31891e-06
4.39334e-08
-1.36272e-06
4.37988e-08
-1.40635e-06
4.3615e-08
-1.44975e-06
4.33985e-08
-1.49292e-06
4.31544e-08
-1.53582e-06
4.289e-08
-1.57844e-06
4.26056e-08
-1.62075e-06
4.23039e-08
-1.66274e-06
4.19833e-08
-1.70439e-06
4.16442e-08
-1.74569e-06
4.12838e-08
-1.78659e-06
4.09016e-08
-1.8271e-06
4.04948e-08
-1.86716e-06
4.00623e-08
-1.90677e-06
3.96012e-08
-1.94588e-06
3.91102e-08
-1.98448e-06
3.85869e-08
-2.02251e-06
3.80301e-08
-2.05995e-06
3.74377e-08
-2.09677e-06
3.68087e-08
-2.13291e-06
3.61414e-08
-2.16835e-06
3.5435e-08
-2.20304e-06
3.46883e-08
-2.23695e-06
3.39007e-08
-2.27002e-06
3.30713e-08
-2.30223e-06
3.21999e-08
-2.33352e-06
3.1286e-08
-2.36385e-06
3.03297e-08
-2.39319e-06
2.93309e-08
-2.42148e-06
2.829e-08
-2.4487e-06
2.7207e-08
-2.47478e-06
2.60823e-08
-2.49971e-06
2.49164e-08
-2.52342e-06
2.37098e-08
-2.54589e-06
2.24626e-08
-2.56707e-06
2.11756e-08
-2.58692e-06
1.98489e-08
-2.60541e-06
1.8483e-08
-2.62249e-06
1.70774e-08
-2.63812e-06
1.56313e-08
-2.65226e-06
1.41419e-08
-2.66487e-06
1.26044e-08
-2.67588e-06
1.10138e-08
-2.68525e-06
9.36452e-09
-2.6929e-06
7.64876e-09
-2.69875e-06
5.85283e-09
-2.70271e-06
3.95838e-09
-2.70468e-06
1.96382e-09
-2.70463e-06
-5.01014e-11
-2.70276e-06
-1.87283e-09
-2.69927e-06
-3.50096e-09
-2.69418e-06
-5.08922e-09
-2.68752e-06
-6.66624e-09
-2.67929e-06
-8.24571e-09
-2.66947e-06
-9.82976e-09
-2.65806e-06
-1.14173e-08
-2.64507e-06
-1.30074e-08
-2.63049e-06
-1.45976e-08
-2.61431e-06
-1.61869e-08
-2.59655e-06
-1.77727e-08
-2.57721e-06
-1.93543e-08
-2.55629e-06
-2.09288e-08
-2.53381e-06
-2.24958e-08
-2.50976e-06
-2.40521e-08
-2.48418e-06
-2.55973e-08
-2.45705e-06
-2.71281e-08
-2.42841e-06
-2.86444e-08
-2.39827e-06
-3.01424e-08
-2.36665e-06
-3.16219e-08
-2.33357e-06
-3.30796e-08
-2.29906e-06
-3.45159e-08
-2.26313e-06
-3.59285e-08
-2.22582e-06
-3.73168e-08
-2.18715e-06
-3.86765e-08
-2.14715e-06
-4.00066e-08
-2.10586e-06
-4.13025e-08
-2.0633e-06
-4.25656e-08
-2.0195e-06
-4.37928e-08
-1.97451e-06
-4.49868e-08
-1.92835e-06
-4.61429e-08
-1.88108e-06
-4.72633e-08
-1.83271e-06
-4.83456e-08
-1.7833e-06
-4.93874e-08
-1.73289e-06
-5.03801e-08
-1.68153e-06
-5.13312e-08
-1.62925e-06
-5.22404e-08
-1.5761e-06
-5.31052e-08
-1.52213e-06
-5.39212e-08
-1.46739e-06
-5.46901e-08
-1.41192e-06
-5.5411e-08
-1.35578e-06
-5.60843e-08
-1.29902e-06
-5.67097e-08
-1.24168e-06
-5.72864e-08
-1.18382e-06
-5.78152e-08
-1.12548e-06
-5.82949e-08
-1.06672e-06
-5.87266e-08
-1.00758e-06
-5.91092e-08
-9.48104e-07
-5.94443e-08
-8.88349e-07
-5.97309e-08
-8.28359e-07
-5.99714e-08
-7.6818e-07
-6.01649e-08
-7.07859e-07
-6.03141e-08
-6.47439e-07
-6.04183e-08
-5.86963e-07
-6.04806e-08
-5.26472e-07
-6.05004e-08
-4.66007e-07
-6.04806e-08
-4.05607e-07
-6.04209e-08
-3.4531e-07
-6.03236e-08
-2.85153e-07
-6.01879e-08
-2.25173e-07
-6.0016e-08
-1.65406e-07
-5.9807e-08
-1.05882e-07
-5.95696e-08
-4.66464e-08
-5.92837e-08
1.22168e-08
-5.89153e-08
7.07404e-08
-5.85766e-08
1.2891e-07
-5.82246e-08
1.86632e-07
-5.77775e-08
2.43912e-07
-5.73362e-08
3.00757e-07
-5.69031e-08
3.5717e-07
-5.64719e-08
4.13141e-07
-5.60301e-08
4.68641e-07
-5.55616e-08
5.2362e-07
-5.50402e-08
5.77981e-07
-5.44238e-08
6.31553e-07
-5.3636e-08
6.84022e-07
-5.25326e-08
7.34769e-07
-5.08119e-08
7.82482e-07
-4.7777e-08
8.23995e-07
-4.1575e-08
8.51177e-07
-2.72397e-08
1.78975e-08
8.33229e-07
9.11325e-09
-1.99839e-08
1.25469e-08
-1.67901e-08
1.12389e-08
-8.50242e-09
6.70307e-09
-2.27709e-10
-3.62063e-10
7.502e-09
-9.74408e-09
1.44423e-08
-2.14013e-08
2.04281e-08
-3.52603e-08
2.54184e-08
-5.1148e-08
2.95068e-08
-6.88215e-08
3.28725e-08
-8.80253e-08
3.5712e-08
-1.08602e-07
3.81933e-08
-1.30406e-07
4.04426e-08
-1.5336e-07
4.25431e-08
-1.77387e-07
4.45451e-08
-2.02467e-07
4.64774e-08
-2.28565e-07
4.83573e-08
-2.55688e-07
5.01966e-08
-2.83824e-07
5.20059e-08
-3.13007e-07
5.37955e-08
-3.43243e-07
5.55786e-08
-3.74592e-07
5.73682e-08
-4.07082e-07
5.9181e-08
-4.40791e-07
6.10339e-08
-4.75772e-07
6.29465e-08
-5.12085e-07
6.49465e-08
-5.49778e-07
6.70527e-08
-5.88798e-07
6.92409e-08
-6.29073e-07
7.1431e-08
-6.70083e-07
7.34438e-08
-7.12555e-07
7.47936e-08
-7.57891e-07
7.55932e-08
-8.04962e-07
7.71823e-08
-8.52147e-07
7.97309e-08
-8.99228e-07
8.26087e-08
-9.40911e-07
8.58031e-08
-9.82514e-07
8.68485e-08
-1.03062e-06
8.56753e-08
-1.076e-06
8.59033e-08
-1.11918e-06
8.67111e-08
-1.16003e-06
8.74907e-08
-1.20093e-06
8.71364e-08
-1.24512e-06
8.56082e-08
-1.28923e-06
8.49306e-08
-1.33088e-06
8.50494e-08
-1.37197e-06
8.48186e-08
-1.4125e-06
8.44448e-08
-1.45252e-06
8.40101e-08
-1.49206e-06
8.35374e-08
-1.53116e-06
8.30285e-08
-1.56985e-06
8.24851e-08
-1.60816e-06
8.19089e-08
-1.64607e-06
8.13034e-08
-1.68359e-06
8.06702e-08
-1.72072e-06
8.00102e-08
-1.75744e-06
7.93222e-08
-1.79375e-06
7.86048e-08
-1.82962e-06
7.78551e-08
-1.86505e-06
7.70702e-08
-1.90002e-06
7.62462e-08
-1.9345e-06
7.538e-08
-1.96848e-06
7.44675e-08
-2.00193e-06
7.35052e-08
-2.03482e-06
7.24894e-08
-2.06713e-06
7.14169e-08
-2.09883e-06
7.02844e-08
-2.12989e-06
6.90891e-08
-2.16029e-06
6.78284e-08
-2.18998e-06
6.64999e-08
-2.21894e-06
6.51018e-08
-2.24714e-06
6.36321e-08
-2.27455e-06
6.20896e-08
-2.30112e-06
6.04729e-08
-2.32684e-06
5.87812e-08
-2.35165e-06
5.7014e-08
-2.37554e-06
5.51709e-08
-2.39847e-06
5.3252e-08
-2.4204e-06
5.12574e-08
-2.4413e-06
4.91876e-08
-2.46114e-06
4.70431e-08
-2.47988e-06
4.48247e-08
-2.4975e-06
4.25333e-08
-2.51397e-06
4.01698e-08
-2.52924e-06
3.77353e-08
-2.5433e-06
3.5231e-08
-2.55611e-06
3.26579e-08
-2.56765e-06
3.00174e-08
-2.57788e-06
2.73103e-08
-2.58679e-06
2.45375e-08
-2.59435e-06
2.16984e-08
-2.60054e-06
1.87929e-08
-2.60535e-06
1.58219e-08
-2.60877e-06
1.27876e-08
-2.61082e-06
9.69373e-09
-2.61151e-06
6.54663e-09
-2.61092e-06
3.36469e-09
-2.60915e-06
1.89084e-10
-2.60627e-06
-2.93074e-09
-2.60213e-06
-6.01259e-09
-2.59653e-06
-9.10242e-09
-2.58942e-06
-1.22052e-08
-2.58077e-06
-1.53196e-08
-2.57058e-06
-1.84478e-08
-2.55883e-06
-2.15874e-08
-2.54552e-06
-2.47356e-08
-2.53065e-06
-2.78888e-08
-2.51421e-06
-3.10433e-08
-2.49621e-06
-3.41956e-08
-2.47665e-06
-3.7342e-08
-2.45554e-06
-4.04792e-08
-2.43287e-06
-4.36035e-08
-2.40866e-06
-4.67116e-08
-2.38292e-06
-4.97998e-08
-2.35566e-06
-5.28646e-08
-2.32689e-06
-5.59023e-08
-2.29662e-06
-5.89095e-08
-2.26489e-06
-6.18823e-08
-2.23169e-06
-6.4817e-08
-2.19706e-06
-6.77101e-08
-2.16102e-06
-7.05594e-08
-2.12359e-06
-7.33618e-08
-2.08479e-06
-7.6114e-08
-2.04467e-06
-7.88108e-08
-2.00323e-06
-8.14477e-08
-1.96052e-06
-8.40197e-08
-1.91656e-06
-8.65249e-08
-1.87139e-06
-8.89605e-08
-1.82505e-06
-9.13264e-08
-1.77757e-06
-9.36201e-08
-1.72898e-06
-9.58414e-08
-1.67933e-06
-9.79874e-08
-1.62865e-06
-1.00051e-07
-1.577e-06
-1.02022e-07
-1.5244e-06
-1.03907e-07
-1.47091e-06
-1.0571e-07
-1.41657e-06
-1.07422e-07
-1.36142e-06
-1.09039e-07
-1.30552e-06
-1.10562e-07
-1.24891e-06
-1.11988e-07
-1.19165e-06
-1.13319e-07
-1.13378e-06
-1.14553e-07
-1.07535e-06
-1.1569e-07
-1.01641e-06
-1.1673e-07
-9.57009e-07
-1.17673e-07
-8.97198e-07
-1.18518e-07
-8.37024e-07
-1.19267e-07
-7.76536e-07
-1.19918e-07
-7.15781e-07
-1.20474e-07
-6.54807e-07
-1.20936e-07
-5.93661e-07
-1.21306e-07
-5.32387e-07
-1.21584e-07
-4.71031e-07
-1.21775e-07
-4.09635e-07
-1.21879e-07
-3.4824e-07
-1.21901e-07
-2.86888e-07
-1.21841e-07
-2.25617e-07
-1.21704e-07
-1.64464e-07
-1.2149e-07
-1.03466e-07
-1.21203e-07
-4.26539e-08
-1.20845e-07
1.7942e-08
-1.20424e-07
7.82954e-08
-1.19944e-07
1.38386e-07
-1.19398e-07
1.98207e-07
-1.1876e-07
2.57652e-07
-1.18048e-07
3.16666e-07
-1.17264e-07
3.75291e-07
-1.1643e-07
4.33521e-07
-1.15594e-07
4.91351e-07
-1.14763e-07
5.48772e-07
-1.13923e-07
6.05767e-07
-1.13057e-07
6.62304e-07
-1.12131e-07
7.18327e-07
-1.11098e-07
7.73738e-07
-1.0987e-07
8.28367e-07
-1.08302e-07
8.81911e-07
-1.06114e-07
9.3383e-07
-1.02769e-07
9.83059e-07
-9.70441e-08
1.02792e-06
-8.64755e-08
1.06506e-06
-6.44152e-08
-1.19959e-08
1.09492e-06
6.54295e-10
-2.0635e-08
-4.88002e-09
-1.12533e-08
-1.31513e-08
-2.28055e-10
-2.31522e-08
9.77416e-09
-3.45249e-08
1.88774e-08
-4.72035e-08
2.71217e-08
-6.12539e-08
3.4481e-08
-7.67794e-08
4.09444e-08
-9.38321e-08
4.65624e-08
-1.12406e-07
5.14461e-08
-1.32431e-07
5.57396e-08
-1.53827e-07
5.95881e-08
-1.76498e-07
6.31172e-08
-2.00379e-07
6.64236e-08
-2.25407e-07
6.95769e-08
-2.51555e-07
7.26249e-08
-2.78794e-07
7.56016e-08
-3.07129e-07
7.85315e-08
-3.36553e-07
8.14358e-08
-3.67088e-07
8.43328e-08
-3.98745e-07
8.72407e-08
-4.31553e-07
9.01767e-08
-4.65522e-07
9.31558e-08
-5.00674e-07
9.61878e-08
-5.36995e-07
9.9274e-08
-5.74433e-07
1.02397e-07
-6.12882e-07
1.05515e-07
-6.52157e-07
1.0855e-07
-6.92087e-07
1.11385e-07
-7.32471e-07
1.13875e-07
-7.73533e-07
1.15875e-07
-8.15381e-07
1.17474e-07
-8.5734e-07
1.19139e-07
-8.98581e-07
1.20967e-07
-9.38647e-07
1.22648e-07
-9.76986e-07
1.2411e-07
-1.01503e-06
1.24854e-07
-1.05416e-06
1.24771e-07
-1.09286e-06
1.24576e-07
-1.13065e-06
1.2448e-07
-1.16741e-06
1.24233e-07
-1.20386e-06
1.23566e-07
-1.2409e-06
1.22639e-07
-1.27786e-06
1.21887e-07
-1.31408e-06
1.21265e-07
-1.34983e-06
1.20561e-07
-1.3852e-06
1.19809e-07
-1.42023e-06
1.19033e-07
-1.45494e-06
1.18241e-07
-1.48934e-06
1.17431e-07
-1.52346e-06
1.166e-07
-1.5573e-06
1.15744e-07
-1.59086e-06
1.14861e-07
-1.62414e-06
1.13946e-07
-1.65713e-06
1.12997e-07
-1.68983e-06
1.1201e-07
-1.72221e-06
1.10979e-07
-1.75425e-06
1.09901e-07
-1.78596e-06
1.08769e-07
-1.81729e-06
1.07579e-07
-1.84824e-06
1.06325e-07
-1.87878e-06
1.05002e-07
-1.90888e-06
1.03604e-07
-1.93852e-06
1.02128e-07
-1.96767e-06
1.00567e-07
-1.99631e-06
9.89183e-08
-2.0244e-06
9.71774e-08
-2.05192e-06
9.53408e-08
-2.07882e-06
9.34055e-08
-2.10509e-06
9.13686e-08
-2.13069e-06
8.92278e-08
-2.15558e-06
8.69811e-08
-2.17974e-06
8.46269e-08
-2.20313e-06
8.21641e-08
-2.22571e-06
7.95919e-08
-2.24745e-06
7.69099e-08
-2.26831e-06
7.41181e-08
-2.28828e-06
7.12169e-08
-2.3073e-06
6.82069e-08
-2.32535e-06
6.50889e-08
-2.34239e-06
6.18643e-08
-2.35839e-06
5.85345e-08
-2.37332e-06
5.51011e-08
-2.38716e-06
5.15661e-08
-2.39986e-06
4.79315e-08
-2.4114e-06
4.41997e-08
-2.42176e-06
4.03734e-08
-2.43091e-06
3.64553e-08
-2.43882e-06
3.24482e-08
-2.44548e-06
2.83552e-08
-2.45086e-06
2.41795e-08
-2.45497e-06
1.99265e-08
-2.45779e-06
1.56034e-08
-2.45931e-06
1.12195e-08
-2.45956e-06
6.78712e-09
-2.45852e-06
2.32429e-09
-2.45618e-06
-2.14621e-09
-2.4525e-06
-6.6154e-09
-2.44741e-06
-1.11066e-08
-2.44088e-06
-1.56397e-08
-2.43287e-06
-2.02091e-08
-2.42339e-06
-2.48088e-08
-2.41241e-06
-2.94338e-08
-2.39993e-06
-3.40785e-08
-2.38593e-06
-3.87374e-08
-2.37042e-06
-4.34045e-08
-2.3534e-06
-4.80746e-08
-2.33486e-06
-5.27417e-08
-2.31481e-06
-5.7401e-08
-2.29325e-06
-6.20467e-08
-2.27018e-06
-6.6674e-08
-2.24562e-06
-7.12772e-08
-2.21957e-06
-7.58514e-08
-2.19205e-06
-8.03908e-08
-2.16306e-06
-8.48908e-08
-2.13263e-06
-8.93454e-08
-2.10077e-06
-9.37496e-08
-2.06748e-06
-9.80975e-08
-2.03281e-06
-1.02385e-07
-1.99676e-06
-1.06607e-07
-1.95937e-06
-1.10759e-07
-1.92065e-06
-1.14836e-07
-1.88064e-06
-1.18831e-07
-1.83936e-06
-1.22738e-07
-1.79683e-06
-1.2655e-07
-1.75309e-06
-1.30263e-07
-1.70818e-06
-1.33873e-07
-1.66213e-06
-1.37379e-07
-1.61497e-06
-1.40778e-07
-1.56674e-06
-1.44068e-07
-1.51747e-06
-1.47246e-07
-1.46721e-06
-1.50302e-07
-1.416e-06
-1.53226e-07
-1.36387e-06
-1.56021e-07
-1.31088e-06
-1.5869e-07
-1.25706e-06
-1.61225e-07
-1.20246e-06
-1.63621e-07
-1.14713e-06
-1.65874e-07
-1.09112e-06
-1.67985e-07
-1.03446e-06
-1.69953e-07
-9.77224e-07
-1.71776e-07
-9.19445e-07
-1.73455e-07
-8.61174e-07
-1.74989e-07
-8.0246e-07
-1.76376e-07
-7.4335e-07
-1.77619e-07
-6.83893e-07
-1.78716e-07
-6.24135e-07
-1.79669e-07
-5.64125e-07
-1.80479e-07
-5.03909e-07
-1.81149e-07
-4.43531e-07
-1.8168e-07
-3.83039e-07
-1.82076e-07
-3.22473e-07
-1.8234e-07
-2.61878e-07
-1.82476e-07
-2.01293e-07
-1.82487e-07
-1.4076e-07
-1.82378e-07
-8.03135e-08
-1.82153e-07
-1.9989e-08
-1.81819e-07
4.01806e-08
-1.81377e-07
1.0016e-07
-1.8083e-07
1.59917e-07
-1.80186e-07
2.1942e-07
-1.79452e-07
2.78647e-07
-1.78631e-07
3.37593e-07
-1.77712e-07
3.9623e-07
-1.7669e-07
4.54532e-07
-1.75573e-07
5.12492e-07
-1.74396e-07
5.70091e-07
-1.732e-07
6.27314e-07
-1.71992e-07
6.84143e-07
-1.7076e-07
7.4056e-07
-1.6948e-07
7.96529e-07
-1.68108e-07
8.51996e-07
-1.66572e-07
9.06867e-07
-1.64749e-07
9.60986e-07
-1.6243e-07
1.01409e-06
-1.5923e-07
1.06576e-06
-1.54441e-07
1.11531e-06
-1.46603e-07
1.16184e-06
-1.33012e-07
1.20492e-06
-1.07503e-07
-5.62855e-08
1.2492e-06
-7.27299e-09
-1.33596e-08
-1.88151e-08
2.90009e-10
-3.17327e-08
1.26912e-08
-4.54858e-08
2.35276e-08
-5.99702e-08
3.3363e-08
-7.52267e-08
4.23781e-08
-9.13608e-08
5.06164e-08
-1.08507e-07
5.80897e-08
-1.26774e-07
6.4831e-08
-1.46238e-07
7.09091e-08
-1.66919e-07
7.64217e-08
-1.88809e-07
8.14774e-08
-2.11871e-07
8.61813e-08
-2.36072e-07
9.06229e-08
-2.61367e-07
9.48741e-08
-2.87731e-07
9.89888e-08
-3.15135e-07
1.03007e-07
-3.43562e-07
1.0696e-07
-3.72991e-07
1.10868e-07
-4.03409e-07
1.1475e-07
-4.34784e-07
1.18618e-07
-4.67089e-07
1.22479e-07
-5.00268e-07
1.26334e-07
-5.34253e-07
1.3017e-07
-5.68939e-07
1.3396e-07
-6.04196e-07
1.37657e-07
-6.39869e-07
1.41192e-07
-6.75782e-07
1.44482e-07
-7.11813e-07
1.47427e-07
-7.47848e-07
1.49936e-07
-7.83926e-07
1.51962e-07
-8.20005e-07
1.53568e-07
-8.5582e-07
1.54948e-07
-8.91035e-07
1.56175e-07
-9.25591e-07
1.57185e-07
-9.5945e-07
1.57949e-07
-9.92958e-07
1.58342e-07
-1.02649e-06
1.58283e-07
-1.05986e-06
1.57937e-07
-1.09285e-06
1.57457e-07
-1.12546e-06
1.56831e-07
-1.1579e-06
1.56005e-07
-1.19032e-06
1.55053e-07
-1.22256e-06
1.5412e-07
-1.25452e-06
1.53223e-07
-1.28627e-06
1.52307e-07
-1.31783e-06
1.51367e-07
-1.34921e-06
1.50408e-07
-1.38041e-06
1.49431e-07
-1.41142e-06
1.48436e-07
-1.44224e-06
1.47418e-07
-1.47287e-06
1.46373e-07
-1.50331e-06
1.45294e-07
-1.53354e-06
1.44176e-07
-1.56356e-06
1.43012e-07
-1.59335e-06
1.41797e-07
-1.62289e-06
1.40522e-07
-1.65218e-06
1.39182e-07
-1.68118e-06
1.37769e-07
-1.70988e-06
1.36276e-07
-1.73825e-06
1.34697e-07
-1.76628e-06
1.33025e-07
-1.79393e-06
1.31252e-07
-1.82118e-06
1.29374e-07
-1.84799e-06
1.27384e-07
-1.87436e-06
1.25277e-07
-1.90023e-06
1.23048e-07
-1.92558e-06
1.20693e-07
-1.95038e-06
1.18207e-07
-1.97461e-06
1.15587e-07
-1.99821e-06
1.12831e-07
-2.02117e-06
1.09936e-07
-2.04344e-06
1.06899e-07
-2.065e-06
1.03721e-07
-2.08581e-06
1.00398e-07
-2.10583e-06
9.69322e-08
-2.12504e-06
9.33224e-08
-2.14339e-06
8.95692e-08
-2.16086e-06
8.56738e-08
-2.17741e-06
8.16373e-08
-2.19301e-06
7.74616e-08
-2.20762e-06
7.31486e-08
-2.22123e-06
6.8701e-08
-2.23378e-06
6.41214e-08
-2.24527e-06
5.9413e-08
-2.25565e-06
5.45795e-08
-2.2649e-06
4.96247e-08
-2.273e-06
4.45533e-08
-2.27992e-06
3.93699e-08
-2.28565e-06
3.40795e-08
-2.29015e-06
2.86884e-08
-2.29343e-06
2.32036e-08
-2.29547e-06
1.76343e-08
-2.29624e-06
1.19907e-08
-2.29574e-06
6.28462e-09
-2.29394e-06
5.29057e-10
-2.29083e-06
-5.26504e-09
-2.28635e-06
-1.10973e-08
-2.28048e-06
-1.69798e-08
-2.2732e-06
-2.29192e-08
-2.2645e-06
-2.89097e-08
-2.25437e-06
-3.49435e-08
-2.2428e-06
-4.10127e-08
-2.22978e-06
-4.71093e-08
-2.21529e-06
-5.32257e-08
-2.19935e-06
-5.93537e-08
-2.18194e-06
-6.54864e-08
-2.16308e-06
-7.16159e-08
-2.14275e-06
-7.77357e-08
-2.12096e-06
-8.38381e-08
-2.09772e-06
-8.99166e-08
-2.07304e-06
-9.59638e-08
-2.04692e-06
-1.01973e-07
-2.01938e-06
-1.07937e-07
-1.99042e-06
-1.13849e-07
-1.96007e-06
-1.19703e-07
-1.92833e-06
-1.2549e-07