/*--------------------------------*- C++ -*----------------------------------*\
  =========                 |
  \\      /  F ield         | OpenFOAM: The Open Source CFD Toolbox
   \\    /   O peration     | Website:  https://openfoam.org
    \\  /    A nd           | Version:  9
     \\/     M anipulation  |
\*---------------------------------------------------------------------------*/
FoamFile
{
    format      ascii;
    class       volScalarField::Internal;
    location    "287";
    object      tmp<kEpsilon:G>;
}
// * * * * * * * * * * * * * * * * * * * * * * * * * * * * * * * * * * * * * //

dimensions      [0 2 -3 0 0 0 0];

value           nonuniform List<scalar> 
12225
(
0
0
0
0
0
0
0
0
0
0
0
0
0
0
0
0
0
0
947.464
499.319
262.327
277.579
379.75
495.267
604.993
715.084
802.505
888.342
950.041
1008.58
1048.48
1084.9
1112.53
1130
1167.23
1133.9
85.4727
123.102
55.5196
17.237
5.18735
4.39862
8.80105
16.6821
26.6122
38.3706
50.892
64.061
77.5089
90.387
103.97
115.378
129.564
136.276
5.037
1.74512
0.641005
0.702189
0.465243
0.185306
0.0269571
0.189048
0.790393
1.8795
3.44234
5.41292
7.8214
10.3953
13.4354
16.2966
19.7487
22.5513
0.224374
0.131561
0.147858
0.314068
0.4261
0.406449
0.289224
0.153292
0.0568672
0.0250864
0.0743832
0.212009
0.446573
0.760886
1.17962
1.64048
2.20193
2.75168
0.177068
0.188685
0.264868
0.320406
0.322872
0.317733
0.289963
0.238953
0.182287
0.127182
0.0802674
0.0456768
0.0279691
0.0290351
0.0505065
0.090724
0.147015
0.216218
0.126521
0.211608
0.231058
0.21304
0.212287
0.230743
0.238771
0.227709
0.208417
0.184821
0.159471
0.133045
0.108728
0.0875816
0.0711722
0.0606315
0.0556118
0.0547987
0.0973742
0.148865
0.159715
0.157162
0.167671
0.188256
0.200781
0.200712
0.195449
0.187804
0.178444
0.167118
0.155603
0.144427
0.134987
0.127851
0.124427
0.121661
0.0740225
0.104539
0.122086
0.130454
0.14208
0.158033
0.169414
0.173089
0.173366
0.172539
0.170776
0.167994
0.164919
0.162152
0.160519
0.160339
0.162797
0.164994
0.0560705
0.0774402
0.0972323
0.108852
0.119563
0.132625
0.143254
0.148752
0.151496
0.153484
0.155055
0.15613
0.157243
0.158758
0.161298
0.164803
0.170225
0.174918
0.0423313
0.0583347
0.0770808
0.0898204
0.100376
0.111908
0.121833
0.128061
0.131911
0.135024
0.137895
0.140539
0.143314
0.146489
0.150465
0.155062
0.160861
0.165818
0.0324096
0.0451064
0.0621524
0.0753331
0.0858749
0.0963684
0.105557
0.111927
0.116219
0.119717
0.122967
0.126052
0.129227
0.13269
0.136687
0.141017
0.146041
0.150169
0.0245281
0.0347314
0.0499834
0.0632162
0.0737706
0.0835515
0.09214
0.0984973
0.103003
0.106627
0.109905
0.112983
0.116036
0.119217
0.122667
0.126209
0.130067
0.133084
0.0175566
0.0257091
0.0389849
0.0516899
0.0621241
0.0713508
0.0793904
0.0856324
0.0902356
0.0938715
0.0970204
0.0998684
0.102549
0.105167
0.107801
0.110316
0.11287
0.114674
0.011642
0.0182281
0.0296325
0.0414391
0.0515264
0.0602437
0.0677626
0.0737811
0.0783472
0.0818935
0.0848147
0.0873102
0.0894938
0.0914403
0.0932055
0.0946992
0.0960611
0.0967963
0.00688277
0.0122879
0.022037
0.0327712
0.0423266
0.0505475
0.0575715
0.0632731
0.0676647
0.0710186
0.0736395
0.0757218
0.0773748
0.0786675
0.0796541
0.0802978
0.0807251
0.0806787
0.00336367
0.00791737
0.0163333
0.0260166
0.0349431
0.0426607
0.0492043
0.0545209
0.0586211
0.0616855
0.0639508
0.0655979
0.0667426
0.0674628
0.0678236
0.067836
0.0676037
0.067058
0.00119606
0.0051993
0.0126856
0.0215133
0.0298094
0.0369922
0.043026
0.0478838
0.0515814
0.0542589
0.0561158
0.0573239
0.0580071
0.0582558
0.0581466
0.0577267
0.057066
0.0562367
0.000672164
0.00446308
0.0115843
0.0200059
0.0278709
0.0345818
0.0401192
0.0444773
0.047678
0.0498618
0.0512334
0.051973
0.0522132
0.0520545
0.0515811
0.0508661
0.0499356
0.0489772
0.00204681
0.0060803
0.0136532
0.0223407
0.0300809
0.0364583
0.0416195
0.0455558
0.048263
0.0499186
0.0507816
0.0510578
0.0508841
0.050365
0.0495867
0.0486308
0.0474951
0.0464102
0.00473101
0.00942392
0.0181186
0.0274382
0.0350488
0.0410329
0.0458379
0.0493907
0.0516262
0.0527916
0.0532135
0.0531054
0.0525916
0.0517806
0.0507638
0.0496288
0.0483532
0.0471787
0.00871808
0.014869
0.0252474
0.0351296
0.0425864
0.0482907
0.0527251
0.0556586
0.0571412
0.0576614
0.0576169
0.0571574
0.0563499
0.0552968
0.0540887
0.0528112
0.0514192
0.0501652
0.0139829
0.0239391
0.0361784
0.0443308
0.0507057
0.0569775
0.0620563
0.0646438
0.0651534
0.0647437
0.0639885
0.0629543
0.061649
0.0601827
0.0586287
0.0570623
0.0554036
0.0538789
0.0214644
0.0423899
0.059321
0.0604319
0.0596444
0.0636348
0.0695229
0.0733101
0.0745283
0.0744967
0.0737264
0.0722181
0.0700507
0.0674991
0.0646997
0.0618114
0.0587534
0.0558747
0.043345
0.0760712
0.0937092
0.104703
0.0971527
0.0901255
0.087566
0.0862672
0.084782
0.0829756
0.080079
0.0756436
0.069837
0.063297
0.0564352
0.0497373
0.0433555
0.0377654
0.0805372
0.213202
0.0680932
0.0786608
0.167323
0.214709
0.214065
0.189268
0.15817
0.127593
0.0985059
0.0721908
0.0503123
0.0345846
0.0260767
0.0255684
0.0331603
0.0487553
0.659998
0.124866
0.315995
0.505957
0.373417
0.295751
0.229576
0.141698
0.0605585
0.0116272
0.0105548
0.0681213
0.189072
0.374759
0.620248
0.923608
1.27091
1.66014
31.8775
71.0679
43.2473
18.2726
7.06859
2.67212
1.11395
1.00734
1.81647
3.28499
5.25758
7.63444
10.2756
13.1572
16.1293
19.225
22.2422
25.2877
455.413
257.653
100.987
70.5618
91.6374
128.08
168.032
205.873
241.274
273.954
303.065
329.744
353.065
374.48
393.025
410.502
425.898
440.973
0
0
0
0
0
0
0
0
0
0
0
0
0
0
0
0
0
0
0
0
0
0
0
0
0
0
0
0
0
0
0
0
0
0
0
0
0
0
0
0
0
0
0
0
0
0
0
0
0
0
0
0
0
0
0
0
0
0
13.6623
14.5178
15.4107
17.022
18.2876
19.934
21.5345
23.2851
25.0889
26.9951
28.9794
31.0542
33.2141
35.4626
37.7989
40.2245
42.7396
45.3448
48.0404
50.8267
53.7035
56.6706
59.7274
62.8729
66.106
69.4251
72.8283
76.3134
79.8776
83.5181
87.2309
91.0129
94.859
98.7653
102.726
106.736
110.789
114.879
118.999
123.142
127.3
131.467
135.632
139.789
143.927
148.038
152.112
156.138
160.106
164.006
167.824
171.548
175.163
178.654
182.005
185.201
188.229
191.08
193.764
196.279
198.632
200.812
202.815
204.634
206.262
207.693
208.92
209.938
210.741
211.326
211.687
211.821
211.726
211.398
210.835
210.037
209.002
207.731
206.223
204.481
202.507
200.302
197.868
195.211
192.334
189.242
185.939
182.431
178.736
174.854
170.777
166.518
162.088
157.515
152.803
147.941
142.952
137.844
132.629
127.316
121.917
116.442
110.903
105.309
99.672
94.0017
88.3087
82.6034
76.8959
71.196
65.5133
59.857
54.2361
48.6592
43.1349
37.6713
32.2769
26.9605
21.7329
16.6098
11.6229
6.87554
3.08666
4.34741
8.58413
13.146
17.7468
22.3318
26.8842
31.3966
35.8642
40.2817
44.642
48.9322
53.1329
57.1885
61.0593
64.3289
67.3442
64.4649
0
0.00319856
0.0053617
0.0168815
0.0485427
0.102507
0.17852
0.273414
0.383459
0.505045
0.635992
0.776033
0.92586
1.08638
1.25843
1.44256
1.63888
1.84718
2.06694
2.29737
2.53749
2.78619
3.04204
3.3036
3.56766
3.83172
4.07001
4.26794
4.39726
4.48116
4.70528
5.38862
5.85746
5.53906
5.29029
4.29924
3.87143
4.68865
5.05815
4.99436
4.75163
4.8964
5.48739
5.48951
5.17375
4.98184
4.85413
4.71916
4.57756
4.43006
4.27905
4.1255
3.97045
3.8149
3.65972
3.50577
3.35376
3.20443
3.05848
2.91667
2.77973
2.64849
2.52382
2.40664
2.29793
2.19874
2.11013
2.03326
1.96929
1.91943
1.88492
1.86698
1.86687
1.88581
1.92502
1.98566
2.06886
2.17566
2.30707
2.46399
2.64723
2.85748
3.09531
3.36116
3.65527
3.9777
4.32827
4.70647
5.11143
5.54183
5.99575
6.47018
6.96049
7.46003
7.96072
8.45493
8.93619
9.39434
9.81165
10.2353
10.657
11.0882
11.5298
11.9827
12.4467
12.9212
13.4057
13.8992
14.4011
14.9104
15.4262
15.9475
16.4733
17.0027
17.5344
18.0675
18.601
19.1336
19.6641
20.1912
20.7143
21.2324
21.7446
22.2496
22.7462
23.2332
23.7096
24.1744
24.6266
25.0661
25.4935
25.9045
26.2967
26.6734
27.0377
27.3843
27.7132
28.0242
28.3172
28.5921
28.8489
29.0878
29.3089
29.5125
29.6985
29.8674
30.0193
30.1546
30.2737
30.3773
30.4656
30.5394
30.5991
30.6455
30.6792
30.7009
30.7117
30.7131
30.7064
30.6921
30.6702
30.6473
30.6377
30.6197
30.5677
30.4967
30.4295
30.3695
30.3155
30.2657
30.2185
30.1731
30.1285
30.0877
30.0512
30.0714
30.1417
30.9992
32.4138
41.2313
0
0.0271848
0.0961636
0.15237
0.214319
0.290496
0.389574
0.514873
0.663998
0.831437
1.01171
1.20106
1.39773
1.60157
1.81324
2.03356
2.2631
2.50194
2.74949
3.00448
3.26476
3.52708
3.78675
4.03764
4.2715
4.47592
4.64898
4.78087
4.87375
4.96317
5.06881
5.20394
5.19397
5.07102
4.91704
4.7189
4.57437
4.61364
4.65743
4.6427
4.60083
4.6396
4.79698
4.92507
4.98233
5.04528
5.16557
5.31969
5.50062
5.70484
5.93101
6.17779
6.44385
6.72805
7.02931
7.34683
7.6798
8.02757
8.38951
8.7651
9.15378
9.5551
9.96859
10.3939
10.8305
11.2781
11.7363
12.2049
12.6834
13.1717
13.6694
14.1764
14.6925
15.2175
15.7512
16.2937
16.8446
17.4041
17.9718
18.5478
19.1319
19.724
20.3238
20.9312
21.5457
22.1669
22.7942
23.4267
24.0634
24.7034
25.3462
25.9914
26.6398
27.2931
27.9561
28.6387
29.3555
30.1247
30.9752
31.8405
32.7217
33.6125
34.5105
35.4144
36.3229
37.2343
38.1467
39.0582
39.9668
40.8706
41.7674
42.6552
43.5319
44.3952
45.2432
46.0737
46.8847
47.6737
48.4385
49.177
49.8876
50.5691
51.2201
51.8383
52.4217
52.9682
53.4762
53.9441
54.3714
54.7576
55.1031
55.4036
55.6539
55.8608
56.0269
56.1473
56.2218
56.2503
56.2331
56.171
56.0649
55.9158
55.7246
55.4925
55.2206
54.9101
54.5624
54.179
53.7616
53.3119
52.8318
52.3231
51.7879
51.2282
50.6464
50.0453
49.4266
48.792
48.1449
47.4876
46.8187
46.1372
45.4408
44.7395
44.0546
43.3841
42.7228
42.073
41.4352
40.8086
40.1926
39.5873
38.9942
38.4213
37.8835
37.4614
37.2419
38.0019
40.1384
46.8442
0
0.128894
0.286692
0.396618
0.484153
0.567371
0.664499
0.785366
0.932768
1.1046
1.29626
1.50282
1.7204
1.94657
2.18004
2.4201
2.66607
2.91688
3.1707
3.42472
3.67492
3.9161
4.14179
4.3448
4.51794
4.65521
4.75367
4.81634
4.85622
4.89798
4.97615
5.08504
5.1469
5.13756
5.09864
5.02944
5.05148
5.22411
5.42994
5.61377
5.79884
6.06016
6.41935
6.78657
7.11949
7.45682
7.81884
8.20352
8.60948
9.03601
9.483
9.9502
10.4371
10.9432
11.4675
12.0096
12.5688
13.1444
13.7359
14.343
14.9651
15.602
16.2534
16.9191
17.599
18.2929
19.0009
19.7229
20.4591
21.2094
21.9742
22.7535
23.5477
24.3569
25.1815
26.0219
26.8782
27.7507
28.6398
29.5456
30.4684
31.4084
32.3654
33.3398
34.3312
35.3397
36.3649
37.4066
38.4644
39.5382
40.6287
41.7372
42.8657
44.0181
45.2005
46.4203
47.6794
48.9705
50.2836
51.6092
52.9488
54.298
55.653
57.0107
58.3682
59.7226
61.0707
62.4095
63.7359
65.0467
66.3388
67.6091
68.8542
70.0712
71.2567
72.408
73.5219
74.595
75.6239
76.606
77.539
78.4213
79.2509
80.025
80.7408
81.3954
81.9865
82.5121
82.9717
83.3656
83.6953
83.9505
84.1302
84.2439
84.2898
84.2659
84.1715
84.0068
83.7724
83.4698
83.1008
82.6671
82.1705
81.6129
80.9966
80.3237
79.5965
78.8178
77.9905
77.1171
76.2011
75.2455
74.254
73.2298
72.176
71.0956
69.9913
68.865
67.7206
66.5634
65.3992
64.2306
63.054
61.8626
60.6684
59.4794
58.2999
57.1377
55.9972
54.8805
53.7898
52.7288
51.705
50.7378
49.8644
49.2076
48.9244
49.8415
52.3729
57.7269
0
0.278682
0.528597
0.706296
0.826336
0.91758
1.00959
1.11738
1.24779
1.40247
1.57941
1.77473
1.98416
2.20399
2.43129
2.66369
2.89902
3.13493
3.36854
3.59625
3.81374
4.016
4.19777
4.3544
4.48269
4.58268
4.65887
4.72058
4.78309
4.86544
4.98123
5.12987
5.27958
5.41248
5.5332
5.65652
5.81683
6.04974
6.33934
6.65803
7.00123
7.39344
7.84492
8.32289
8.8074
9.30829
9.83419
10.3859
10.9626
11.5638
12.189
12.8383
13.5114
14.2081
14.9279
15.6708
16.4364
17.2244
18.0346
18.867
19.7213
20.5977
21.4962
22.4171
23.3604
24.3266
25.316
26.329
27.3661
28.4279
29.5148
30.6275
31.7665
32.9324
34.1258
35.3472
36.5972
37.8761
39.1845
40.5226
41.8906
43.2887
44.7169
46.1751
47.6633
49.1811
50.7283
52.3045
53.9093
55.5426
57.2049
58.897
60.62
62.3755
64.1657
65.991
67.847
69.7221
71.6075
73.5017
75.4047
77.3129
79.2217
81.1267
83.0234
84.9073
86.7739
88.6188
90.4372
92.225
93.9775
95.6905
97.3595
98.9803
100.549
102.06
103.512
104.898
106.215
107.459
108.629
109.721
110.733
111.662
112.505
113.258
113.918
114.483
114.953
115.331
115.612
115.791
115.866
115.85
115.736
115.526
115.22
114.817
114.32
113.73
113.05
112.284
111.434
110.503
109.494
108.41
107.256
106.035
104.751
103.409
102.013
100.567
99.0754
97.5421
95.971
94.3658
92.7321
91.0763
89.4026
87.7163
86.0236
84.3304
82.6376
80.9392
79.237
77.537
75.848
74.1818
72.5469
70.9499
69.3975
67.8994
66.4726
65.1516
63.9984
63.1729
62.8783
63.9192
66.5462
70.7442
0
0.438959
0.765498
1.01595
1.17592
1.2809
1.37049
1.46414
1.57202
1.699
1.84583
2.01045
2.18939
2.37885
2.57521
2.77522
2.97587
3.17423
3.36729
3.55187
3.72469
3.88268
4.02325
4.14515
4.24895
4.338
4.41859
4.49981
4.59328
4.71111
4.86234
5.0471
5.25502
5.47665
5.7106
5.96154
6.24291
6.57075
6.94844
7.36874
7.82742
8.32962
8.87823
9.46399
10.0773
10.7175
11.3873
12.0876
12.8187
13.5804
14.3724
15.1949
16.0478
16.9312
17.8453
18.79
19.7656
20.7721
21.8097
22.8789
23.98
25.1136
26.2801
27.4804
28.7153
29.9854
31.2918
32.6354
34.0172
35.4382
36.8993
38.4016
39.946
41.5335
43.1648
44.8408
46.5622
48.3293
50.1428
52.0028
53.9095
55.8628
57.8624
59.9081
61.9992
64.1351
66.3148
68.5376
70.8022
73.1077
75.4533
77.8384
80.262
82.7228
85.2188
87.7459
90.2963
92.8599
95.4293
98.0022
100.577
103.148
105.711
108.26
110.789
113.291
115.76
118.19
120.576
122.911
125.189
127.404
129.551
131.625
133.619
135.529
137.349
139.074
140.7
142.221
143.636
144.942
146.135
147.212
148.169
149.003
149.711
150.29
150.743
151.068
151.26
151.319
151.246
151.051
150.727
150.276
149.7
149
148.179
147.239
146.186
145.022
143.752
142.381
140.912
139.351
137.703
135.972
134.165
132.286
130.342
128.336
126.274
124.163
122.008
119.817
117.595
115.351
113.089
110.818
108.542
106.268
104.001
101.739
99.4829
97.2347
95.004
92.8046
90.6483
88.5465
86.5113
84.56
82.72
81.0411
79.6071
78.6012
78.2395
79.2508
81.6565
84.8241
0
0.587679
0.962099
1.27502
1.4745
1.59647
1.68684
1.76814
1.8531
1.94921
2.05963
2.18429
2.32109
2.46702
2.61881
2.77331
2.92766
3.0793
3.22592
3.36554
3.49656
3.61796
3.72953
3.83231
3.9287
4.02289
4.12077
4.2296
4.35773
4.51303
4.70144
4.92485
5.18049
5.46437
5.77475
6.11345
6.48584
6.89965
7.35976
7.86615
8.41759
9.01497
9.65869
10.3453
11.0703
11.8316
12.6295
13.4646
14.3373
15.248
16.1969
17.1842
18.2105
19.2761
20.3815
21.5274
22.7145
23.9435
25.2153
26.5308
27.8913
29.2978
30.7517
32.2544
33.8074
35.4122
37.0705
38.7837
40.5536
42.3816
44.2694
46.2183
48.2297
50.3048
52.4448
54.6505
56.9227
59.2619
61.6684
64.1422
66.6831
69.2906
71.9639
74.702
77.5037
80.3673
83.2909
86.2727
89.31
92.4005
95.5415
98.7301
101.963
105.236
108.544
111.88
115.235
118.599
121.964
125.325
128.678
132.016
135.334
138.623
141.875
145.083
148.238
151.333
154.359
157.31
160.177
162.953
165.63
168.204
170.665
173.009
175.229
177.317
179.27
181.082
182.751
184.273
185.644
186.86
187.919
188.816
189.548
190.115
190.519
190.752
190.817
190.711
190.444
190.019
189.431
188.684
187.779
186.721
185.512
184.158
182.664
181.035
179.277
177.396
175.398
173.288
171.073
168.76
166.355
163.864
161.296
158.656
155.954
153.196
150.392
147.548
144.674
141.777
138.865
135.945
133.024
130.109
127.206
124.318
121.447
118.596
115.774
112.995
110.275
107.629
105.074
102.636
100.352
98.2854
96.534
95.2892
94.7538
95.5612
97.4889
99.6813
0
0.709896
1.09652
1.451
1.68111
1.81818
1.91023
1.98107
2.04506
2.1115
2.18551
2.2689
2.36123
2.46081
2.5654
2.67271
2.78069
2.88768
2.99253
3.09454
3.19357
3.29014
3.38541
3.48146
3.58125
3.68862
3.80833
3.94576
4.10684
4.29711
4.52112
4.78141
5.07825
5.41079
5.77836
6.18179
6.62375
7.10831
7.63911
8.21805
8.84583
9.52312
10.25
11.0253
11.8469
12.7135
13.625
14.5817
15.5844
16.6337
17.7303
18.8751
20.0691
21.3132
22.6087
23.9569
25.3591
26.817
28.3322
29.9066
31.5421
33.2409
35.0052
36.8372
38.7394
40.7141
42.7638
44.8907
47.0973
49.3856
51.7579
54.2159
56.7616
59.3963
62.1213
64.9376
67.8458
70.8464
73.9391
77.1237
80.3992
83.7645
87.2179
90.7575
94.3807
98.0848
101.866
105.722
109.647
113.637
117.688
121.793
125.948
130.145
134.375
138.631
142.901
147.174
151.441
155.694
159.926
164.13
168.295
172.413
176.474
180.467
184.383
188.212
191.944
195.569
199.079
202.464
205.716
208.826
211.787
214.591
217.23
219.697
221.987
224.094
226.015
227.745
229.282
230.621
231.759
232.692
233.419
233.939
234.253
234.352
234.243
233.923
233.408
232.696
231.785
230.679
229.382
227.898
226.234
224.396
222.39
220.224
217.904
215.438
212.832
210.096
207.236
204.261
201.18
198.002
194.736
191.392
187.978
184.505
180.982
177.418
173.824
170.209
166.581
162.949
159.321
155.703
152.103
148.529
144.986
141.477
138.012
134.606
131.276
128.042
124.927
121.964
119.197
116.7
114.578
113.019
112.193
112.641
113.913
115.187
0
0.801624
1.16204
1.53173
1.77786
1.92361
2.01527
2.07636
2.12181
2.16203
2.20357
2.2498
2.30186
2.35955
2.422
2.48816
2.55712
2.62837
2.70167
2.77726
2.85589
2.93885
3.02794
3.12544
3.23407
3.35721
3.49863
3.66242
3.8529
4.07423
4.33009
4.6232
4.95514
5.32669
5.73839
6.19125
6.68709
7.22846
7.81811
8.45822
9.15041
9.8955
10.6944
11.5472
12.4536
13.4135
14.427
15.495
16.6184
17.7985
19.0367
20.3345
21.6936
23.1161
24.6038
26.1592
27.7845
29.4824
31.2555
33.1069
35.0395
37.0567
39.1617
41.3578
43.6485
46.0372
48.5272
51.1216
53.8236
56.6359
59.5613
62.602
65.7601
69.0372
72.4346
75.9531
79.5931
83.3545
87.2365
91.238
95.3573
99.592
103.939
108.396
112.957
117.619
122.376
127.223
132.153
137.16
142.235
147.371
152.559
157.789
163.05
168.332
173.621
178.904
184.171
189.411
194.613
199.767
204.861
209.884
214.824
219.668
224.405
229.023
233.509
237.853
242.044
246.071
249.923
253.593
257.069
260.343
263.406
266.25
268.871
271.262
273.419
275.338
277.015
278.446
279.628
280.56
281.238
281.666
281.836
281.749
281.408
280.817
279.992
278.929
277.627
276.093
274.331
272.349
270.155
267.756
265.161
262.378
259.416
256.284
252.991
249.548
245.965
242.252
238.42
234.481
230.444
226.323
222.127
217.868
213.558
209.207
204.827
200.429
196.022
191.615
187.218
182.839
178.486
174.171
169.901
165.681
161.523
157.443
153.459
149.595
145.878
142.348
139.056
136.079
133.526
131.57
130.343
130.303
130.805
131.217
0
0.86456
1.16312
1.52184
1.76689
1.91226
1.99912
2.04968
2.0786
2.09669
2.11137
2.12722
2.1468
2.17139
2.20135
2.23668
2.2774
2.32356
2.37598
2.43558
2.50367
2.58186
2.67206
2.77641
2.89739
3.03765
3.2002
3.38818
3.6049
3.85365
4.13755
4.4593
4.82105
5.22452
5.67112
6.16236
6.70006
7.2864
7.92384
8.61477
9.36135
10.1655
11.0286
11.9517
12.9354
13.9811
15.0899
16.2634
17.5033
18.8117
20.1908
21.6433
23.172
24.78
26.4705
28.2469
30.1128
32.0721
34.1287
36.287
38.5513
40.9262
43.4162
46.0259
48.7598
51.6223
54.6178
57.7502
61.0232
64.4404
68.0047
71.7186
75.5844
79.6035
83.7769
88.105
92.5875
97.2234
102.011
106.948
112.031
117.257
122.62
128.116
133.739
139.48
145.334
151.292
157.344
163.481
169.693
175.969
182.296
188.662
195.054
201.458
207.858
214.24
220.589
226.892
233.136
239.308
245.392
251.376
257.245
262.984
268.58
274.018
279.286
284.369
289.256
293.933
298.39
302.616
306.6
310.331
313.801
317.001
319.926
322.569
324.927
326.993
328.766
330.24
331.416
332.29
332.862
333.132
333.096
332.756
332.115
331.184
329.975
328.484
326.714
324.672
322.366
319.805
316.998
313.956
310.689
307.207
303.522
299.644
295.585
291.358
286.975
282.448
277.791
273.017
268.138
263.169
258.122
253.01
247.847
242.644
237.416
232.172
226.926
221.686
216.464
211.269
206.112
201.004
195.957
190.979
186.081
181.282
176.601
172.066
167.708
163.569
159.707
156.201
153.153
150.721
148.994
148.366
148.031
147.633
0
0.90385
1.11171
1.43677
1.66487
1.79991
1.87627
1.91415
1.92749
1.92713
1.92107
1.91453
1.9109
1.91208
1.91977
1.93502
1.95873
1.99183
2.03527
2.09015
2.15783
2.2398
2.33772
2.45344
2.58901
2.74666
2.9288
3.13806
3.37722
3.64914
3.95662
4.30241
4.68898
5.11863
5.59345
6.11555
6.68713
7.31058
7.98854
8.72368
9.51866
10.3761
11.2983
12.2876
13.3467
14.4778
15.6828
16.9643
18.3252
19.7689
21.299
22.9196
24.635
26.4497
28.3683
30.3955
32.5366
34.7968
37.1817
39.6972
42.349
45.1432
48.0857
51.1823
54.4386
57.8601
61.4518
65.2184
69.1641
73.2926
77.607
82.1099
86.8028
91.6869
96.7625
102.029
107.484
113.127
118.954
124.96
131.14
137.489
144
150.665
157.475
164.421
171.493
178.678
185.966
193.343
200.795
208.308
215.869
223.46
231.065
238.668
246.251
253.796
261.286
268.704
276.036
283.264
290.371
297.341
304.158
310.805
317.266
323.525
329.568
335.379
340.943
346.249
351.282
356.031
360.484
364.63
368.459
371.963
375.137
377.974
380.468
382.617
384.415
385.862
386.955
387.695
388.081
388.113
387.789
387.112
386.088
384.73
383.052
381.045
378.718
376.079
373.141
369.913
366.407
362.637
358.614
354.351
349.86
345.156
340.253
335.165
329.906
324.492
318.937
313.258
307.469
301.585
295.622
289.594
283.516
277.402
271.266
265.122
258.982
252.857
246.759
240.699
234.691
228.746
222.878
217.098
211.42
205.862
200.447
195.203
190.165
185.379
180.904
176.818
173.217
170.236
167.928
166.64
165.435
164.279
0
0.926501
1.02343
1.29786
1.49606
1.6114
1.67128
1.6939
1.69219
1.6766
1.65478
1.63279
1.61461
1.60318
1.60037
1.60762
1.62609
1.65686
1.70093
1.75947
1.83363
1.92468
2.03402
2.16321
2.314
2.48829
2.68823
2.91611
3.17447
3.46598
3.79343
4.15962
4.56737
5.01946
5.51863
6.0676
6.6692
7.32641
8.04246
8.82075
9.66476
10.5778
11.5637
12.6263
13.7696
14.9966
16.3114
17.718
19.2204
20.824
22.5342
24.3571
26.2987
28.3652
30.5627
32.8978
35.3772
38.008
40.7977
43.7535
46.883
50.1936
53.6923
57.3863
61.2818
65.3851
69.7017
74.2364
78.9934
83.9762
89.1874
94.6287
100.301
106.204
112.336
118.696
125.279
132.082
139.098
146.323
153.746
161.361
169.157
177.123
185.249
193.52
201.923
210.444
219.067
227.777
236.555
245.384
254.248
263.126
271.999
280.847
289.651
298.388
307.041
315.589
324.014
332.296
340.416
348.356
356.097
363.621
370.91
377.947
384.715
391.198
397.38
403.248
408.787
413.984
418.827
423.305
427.408
431.129
434.46
437.397
439.933
442.065
443.791
445.109
446.019
446.521
446.617
446.307
445.593
444.477
442.967
441.082
438.835
436.21
433.227
429.895
426.229
422.241
417.947
413.359
408.494
403.365
397.988
392.379
386.553
380.529
374.321
367.949
361.429
354.779
348.016
341.156
334.217
327.216
320.169
313.091
305.997
298.904
291.823
284.768
277.752
270.788
263.889
257.07
250.345
243.728
237.235
230.885
224.702
218.717
212.967
207.499
202.372
197.661
193.454
189.865
186.913
184.915
182.83
180.966
0
0.939245
0.914286
1.12774
1.28701
1.37554
1.41413
1.41857
1.40131
1.37256
1.34036
1.31022
1.28617
1.27113
1.26713
1.27569
1.29792
1.33475
1.38702
1.45555
1.54127
1.64518
1.76845
1.91241
2.07862
2.26888
2.48526
2.73001
3.00564
3.31491
3.6607
4.04614
4.47446
4.94905
5.4734
6.05107
6.68588
7.38158
8.14259
8.97348
9.879
10.8647
11.9347
13.094
14.3478
15.7018
17.1623
18.7356
20.4282
22.2473
24.2005
26.2961
28.5419
30.9459
33.5161
36.2607
39.1886
42.3086
45.63
49.1618
52.9126
56.8911
61.1051
65.5622
70.2691
75.2318
80.4555
85.9445
91.7021
97.7305
104.031
110.603
117.446
124.558
131.934
139.57
147.46
155.597
163.971
172.573
181.392
190.416
199.632
209.025
218.58
228.281
238.11
248.05
258.082
268.184
278.338
288.524
298.719
308.902
319.051
329.142
339.152
349.059
358.841
368.476
377.943
387.219
396.285
405.118
413.701
422.013
430.034
437.747
445.134
452.177
458.861
465.172
471.093
476.612
481.717
486.397
490.642
494.446
497.801
500.702
503.146
505.126
506.645
507.7
508.293
508.426
508.101
507.322
506.095
504.415
502.299
499.774
496.838
493.483
489.735
485.605
481.109
476.264
471.085
465.59
459.794
453.715
447.37
440.777
433.955
426.923
419.699
412.304
404.757
397.077
389.284
381.395
373.431
365.408
357.346
349.261
341.169
333.087
325.03
317.011
309.044
301.144
293.326
285.605
277.997
270.517
263.184
256.017
249.043
242.292
235.803
229.624
223.813
218.441
213.584
209.339
205.698
202.961
200.003
197.478
0
0.948099
0.798641
0.947596
1.06337
1.11985
1.13301
1.11751
1.08504
1.04549
1.00651
0.973666
0.950731
0.940126
0.943393
0.961503
0.995116
1.04475
1.11091
1.19414
1.29511
1.41466
1.55383
1.71389
1.8964
2.10319
2.33645
2.59866
2.8926
3.22138
3.58843
3.99729
4.45205
4.95695
5.51651
6.13565
6.81974
7.57492
8.40637
9.31999
10.322
11.4184
12.6167
13.9247
15.3502
16.9018
18.5882
20.4181
22.401
24.5465
26.8646
29.3653
32.0585
34.9539
38.0612
41.391
44.9537
48.7602
52.8208
57.1454
61.7433
66.6231
71.7925
77.2584
83.0264
89.1011
95.4862
102.184
109.195
116.519
124.154
132.098
140.346
148.891
157.728
166.846
176.237
185.888
195.788
205.923
216.277
226.836
237.581
248.496
259.56
270.754
282.058
293.449
304.904
316.403
327.922
339.437
350.924
362.358
373.715
384.97
396.097
407.072
417.871
428.471
438.848
448.979
458.843
468.417
477.68
486.614
495.197
503.411
511.237
518.659
525.661
532.228
538.344
543.997
549.176
553.87
558.071
561.772
564.968
567.652
569.823
571.476
572.615
573.235
573.347
572.945
572.041
570.646
568.751
566.364
563.507
560.214
556.453
552.244
547.613
542.572
537.14
531.334
525.174
518.678
511.864
504.753
497.362
489.713
481.826
473.721
465.422
456.948
448.322
439.564
430.695
421.737
412.708
403.629
394.519
385.396
376.278
367.183
358.125
349.121
340.185
331.331
322.577
313.939
305.433
297.077
288.889
280.891
273.111
265.579
258.335
251.426
244.907
238.846
233.309
228.376
224.017
220.528
216.717
213.578
0
0.958847
0.68915
0.775247
0.846278
0.868787
0.854682
0.817935
0.77055
0.722498
0.681047
0.651003
0.635259
0.635385
0.652051
0.685463
0.735612
0.802494
0.88624
0.987173
1.10585
1.2431
1.40003
1.57812
1.77919
2.00543
2.25951
2.54443
2.86368
3.22132
3.62194
4.07105
4.57384
5.13587
5.76315
6.46232
7.24053
8.1056
9.06581
10.1298
11.3061
12.6043
14.0352
15.6094
17.3385
19.2341
21.3079
23.5718
26.0383
28.7193
31.6269
34.7726
38.1674
41.8224
45.7494
49.9604
54.4673
59.281
64.4117
69.8684
75.659
81.79
88.2668
95.0933
102.272
109.804
117.689
125.925
134.508
143.435
152.697
162.289
172.2
182.42
192.936
203.737
214.807
226.13
237.689
249.467
261.445
273.604
285.922
298.378
310.951
323.617
336.353
349.135
361.939
374.74
387.511
400.226
412.86
425.386
437.778
450.009
462.054
473.888
485.484
496.821
507.872
518.616
529.029
539.089
548.777
558.072
566.954
575.404
583.404
590.938
597.993
604.553
610.603
616.131
621.128
625.585
629.494
632.85
635.649
637.884
639.558
640.661
641.207
641.189
640.609
639.483
637.824
635.625
632.89
629.634
625.891
621.672
616.941
611.747
606.106
600.036
593.556
586.686
579.447
571.86
563.945
555.724
547.216
538.445
529.433
520.204
510.779
501.183
491.439
481.568
471.594
461.538
451.422
441.266
431.092
420.917
410.762
400.643
390.578
380.583
370.673
360.864
351.172
341.616
332.213
322.979
313.937
305.107
296.518
288.202
280.197
272.55
265.313
258.548
252.311
246.672
241.584
237.345
232.707
229.01
0
0.97475
0.59027
0.618233
0.644937
0.631396
0.58861
0.531122
0.471362
0.418978
0.380387
0.359203
0.357001
0.37407
0.409993
0.464045
0.535539
0.624016
0.729443
0.852191
0.993003
1.15304
1.33401
1.53822
1.76862
2.02877
2.32227
2.6534
3.0271
3.44927
3.92678
4.46703
5.07824
5.76887
6.54816
7.4261
8.41365
9.52186
10.7639
12.1531
13.7031
15.4283
17.343
19.4623
21.8012
24.3745
27.1967
30.2823
33.6459
37.3006
41.259
45.5333
50.1315
55.0665
60.3503
65.9942
72.0078
78.3987
85.1729
92.3346
99.8861
107.828
116.161
124.88
133.983
143.463
153.314
163.527
174.093
184.999
196.234
207.782
219.631
231.763
244.161
256.808
269.684
282.77
296.045
309.487
323.074
336.786
350.598
364.487
378.429
392.4
406.374
420.327
434.232
448.064
461.795
475.401
488.854
502.13
515.201
528.043
540.629
552.936
564.938
576.612
587.934
598.883
609.436
619.573
629.275
638.523
647.298
655.581
663.354
670.605
677.322
683.491
689.096
694.129
698.583
702.449
705.722
708.396
710.474
711.941
712.812
713.072
712.75
711.797
710.293
708.202
705.542
702.315
698.527
694.204
689.395
684.05
678.184
671.84
665.039
657.797
650.136
642.078
633.646
624.862
615.748
606.327
596.621
586.653
576.449
566.033
555.429
544.663
533.758
522.738
511.626
500.445
489.218
477.966
466.71
455.471
444.268
433.119
422.041
411.052
400.166
389.401
378.774
368.302
358.004
347.898
338.004
328.346
318.952
309.852
301.085
292.696
284.734
277.255
270.309
263.953
258.133
253.153
247.714
243.528
0
0.987502
0.507972
0.489098
0.477287
0.432292
0.365986
0.293927
0.228823
0.179537
0.151003
0.145091
0.161767
0.200022
0.25849
0.335847
0.431174
0.544313
0.675796
0.826708
0.998642
1.19378
1.41528
1.66737
1.95521
2.28457
2.66201
3.09451
3.5906
4.16045
4.81564
5.56863
6.4325
7.42142
8.55011
9.83519
11.2948
12.9488
14.8162
16.9156
19.2652
21.883
24.7876
27.9977
31.5308
35.4022
39.6252
44.2132
49.179
54.5334
60.2867
66.4415
73.0051
79.9883
87.3967
95.2332
103.498
112.188
121.299
130.826
140.76
151.093
161.813
172.909
184.368
196.176
208.317
220.776
233.536
246.579
259.888
273.442
287.224
301.213
315.39
329.732
344.221
358.833
373.547
388.341
403.193
418.08
432.98
447.87
462.726
477.523
492.238
506.845
521.319
535.638
549.779
563.718
577.428
590.887
604.07
616.954
629.517
641.735
653.585
665.045
676.092
686.708
696.871
706.565
715.772
724.477
732.661
740.308
747.402
753.938
759.904
765.284
770.063
774.235
777.792
780.73
783.045
784.726
785.792
786.213
786.027
785.174
783.725
781.652
778.968
775.688
771.821
767.371
762.359
756.831
750.791
744.181
737.065
729.471
721.419
712.928
704.021
694.723
685.057
675.045
664.712
654.08
643.173
632.016
620.635
609.055
597.301
585.4
573.375
561.251
549.051
536.799
524.518
512.229
499.954
487.713
475.526
463.411
451.385
439.466
427.669
416.011
404.509
393.181
382.044
371.115
360.417
349.973
339.812
329.966
320.47
311.369
302.708
294.538
286.902
279.852
273.325
267.639
261.434
256.872
0
0.991535
0.447433
0.400425
0.362326
0.295976
0.216189
0.13974
0.0788522
0.0407298
0.0282267
0.0413316
0.0787416
0.138901
0.220352
0.32198
0.443574
0.586266
0.752535
0.945702
1.16962
1.42923
1.73132
2.08512
2.50158
2.99271
3.57033
4.24859
5.04404
5.97697
7.0701
8.34822
9.8359
11.5551
13.5288
15.7826
18.3432
21.2373
24.4896
28.1216
32.1524
36.5966
41.4687
46.7824
52.5489
58.7775
65.4747
72.6435
80.2889
88.3998
96.9678
105.98
115.456
125.381
135.746
146.535
157.733
169.321
181.283
193.599
206.253
219.223
232.492
246.039
259.846
273.892
288.158
302.626
317.275
332.087
347.043
362.124
377.311
392.585