/*--------------------------------*- C++ -*----------------------------------*\
  =========                 |
  \\      /  F ield         | OpenFOAM: The Open Source CFD Toolbox
   \\    /   O peration     | Website:  https://openfoam.org
    \\  /    A nd           | Version:  9
     \\/     M anipulation  |
\*---------------------------------------------------------------------------*/
FoamFile
{
    format      ascii;
    class       volScalarField;
    location    "125";
    object      p;
}
// * * * * * * * * * * * * * * * * * * * * * * * * * * * * * * * * * * * * * //

dimensions      [0 2 -2 0 0 0 0];

internalField   nonuniform List<scalar> 
112055
(
0.0196982
0.00514727
-0.00441989
-0.00630302
-0.00501781
0.00861887
0.0190935
-0.00619137
-0.00204359
0.0190846
0.00518197
0.0182327
-0.001869
0.0182248
0.0289166
-5.83407e-05
-0.0647254
0.0225175
0.00515778
-0.00191821
-0.000315929
-0.000960584
0.00517534
0.000109365
0.000920488
-0.00312193
0.0414296
0.00685781
0.00857829
-0.000334062
0.00964842
-0.0152609
-0.000361794
-0.0370547
-0.00206414
-0.000185516
-0.00198576
0.0642787
-0.00969049
-8.33278e-05
-0.000499691
-0.00885461
0.000818138
-0.00434125
0.0230503
-0.000905796
-0.0368676
-0.00780277
-0.00108856
-0.00865656
-0.00607547
-0.0168355
-0.000639857
-0.00948274
-0.00254444
0.0192229
-0.00477339
-0.0121393
-0.010735
-0.000934599
0.015692
-0.00842129
0.000152415
0.000150505
0.0123802
-0.00237272
0.0667621
-0.00121099
0.0036082
-0.000820205
-0.0118454
-0.0637579
0.000224079
0.0379786
-0.0275143
-0.0410245
0.0051634
0.0195504
-0.0140427
-0.00921813
0.00274624
-0.0444172
-0.00598845
-0.00345023
-6.20683e-05
0.00265561
-0.00448203
-0.00251264
-0.0301829
-0.00245036
9.75589e-05
-0.000195624
-0.00481163
-0.0045346
-0.0277042
0.0051259
-0.0160412
0.0285758
0.00964321
-0.00464048
-0.00184752
-0.000148809
-0.000122614
0.00605177
-0.0487142
-0.0655313
0.0123648
-0.00124333
-7.95346e-05
0.00263682
-0.0636621
-0.0278322
-0.00267386
0.00755504
0.00362016
0.0221253
0.0125296
-0.000108825
-0.0316765
-0.00212486
0.00701109
0.00686955
0.0190363
0.000511901
-0.000491427
0.00596728
-0.0581121
0.00102138
-0.00306327
-0.0473886
0.000427961
0.0411509
0.000666899
0.0532414
-0.00995602
-8.54665e-05
-0.000189614
0.00288899
-0.00424318
-0.00016313
0.00280633
-0.00292951
-0.0167123
0.0097383
-0.00128746
-0.00217075
0.0207071
-0.000821593
-0.000121381
-0.00277149
-0.0662907
-0.000868639
0.0167869
-0.000593249
-0.00421802
0.00746461
0.0104284
0.00763557
-0.0100324
-0.00313289
-0.00265668
-0.000762107
-0.00208057
-0.00201595
-0.000738691
0.00053834
0.0105722
-0.015595
-0.000806159
0.0124572
0.00911579
0.00743792
-0.00208339
0.00957518
-0.0120491
-0.00214497
-0.000879859
-0.00274354
-0.00382778
-0.00303368
-0.0119488
-0.000301581
-0.000276315
0.00967662
-0.0113351
0.0161714
-0.000806865
-0.00075195
-0.0174458
-0.000243821
0.00272074
-0.00035408
-0.00240122
0.00703489
-0.00394079
0.000319757
-0.0123881
-0.0286817
0.000333617
0.0103919
0.0630656
0.0138277
0.0157926
0.00149045
-0.00424367
0.0218707
0.0658915
0.0112496
-0.0637257
-0.000137347
0.00153302
-0.000429004
0.0203105
-0.000145268
-0.0156493
0.0113758
0.00921811
-0.00522381
-0.00161332
-0.00655617
-0.00013328
-0.0215307
-0.00236384
-0.00335659
-0.0273513
-0.000831315
-0.000146307
0.0103554
0.0045352
-0.000299288
-0.000175048
-0.00164268
-0.0112129
0.00596212
-0.0260402
-0.00376467
0.000326657
-0.000184073
-0.0741877
0.0990579
-0.00215948
-0.00991425
-0.00139414
-0.00233598
-0.000945782
-0.0258848
-0.0112723
-0.00929004
-0.00106625
-0.00644035
-0.000555893
-0.000289404
-0.0262944
-0.0021164
-0.0120541
-0.00319963
0.00268597
-0.00309959
-0.0323335
-0.000132224
-0.0273649
0.0222169
0.000481021
0.0165608
0.0536001
-0.000159648
-0.00404342
-0.00269836
0.0140036
-0.00111653
-0.000558628
-0.00425273
0.000215201
-0.0158493
-0.00113947
-0.00930597
-0.0262762
-0.0687733
-0.0677032
-0.0263979
-7.72399e-05
0.00559649
0.0130238
0.00891985
0.00667878
-0.00399792
0.00627403
-0.000342737
0.000930618
0.014287
-0.00014478
0.000113499
0.00629592
-0.0012816
0.00599678
0.0066579
0.0114758
-0.00234641
-0.000748822
8.02095e-05
0.00583597
0.00968543
0.0102048
0.00608583
-0.00742971
0.000708889
-0.000257087
-0.0020821
-0.00110431
7.17364e-05
-0.00195539
0.00384456
-0.00041536
0.000928232
-0.0122669
-0.0221435
-0.00601068
-0.00403696
-0.00112948
-0.000737608
-0.000954021
0.0543001
0.0302156
-0.0023194
-0.0107551
-0.00552951
-0.00172027
0.000884249
0.00564475
-0.000168487
0.00451833
0.00035075
0.0123631
-0.00542146
-0.00765009
-0.000526438
-0.000280721
0.00514136
0.0039443
-0.00569695
0.0630301
-0.0577772
0.00123071
0.000434978
-0.00172137
-0.00945694
-0.000773983
-0.00991239
0.0123783
0.00263292
0.0264592
0.0154262
0.0174811
-0.0681674
-0.00302661
-0.00303167
0.0375873
-0.00328451
-0.000337174
0.0179373
-0.0417856
-0.000332386
-0.00752262
0.107862
-0.00119972
-0.0740825
-0.00678831
-0.00551176
0.00574063
-0.00301395
0.0229801
0.023424
0.0111903
0.0162262
0.140344
-3.16915e-05
-3.08879e-05
-0.00404041
-0.00377459
-0.00156692
-0.000441742
0.00849808
0.0179485
0.000445675
-0.00220308
3.15209e-05
3.04254e-05
-0.00495814
0.012844
0.0230257
0.00443451
0.00133963
0.000642282
-0.0220157
0.0376098
2.57307e-05
0.00265319
-0.00783878
-0.0081576
0.000353757
0.0215215
0.00513261
-0.0196751
0.0173934
-0.000993198
-0.0310472
-0.00673124
-0.000860231
-0.00403819
0.0043703
-0.00541083
-8.57231e-05
-0.00106941
-8.49263e-05
-0.000499241
-0.00825171
0.00755583
-0.0119975
-0.00167219
0.00745217
0.0306801
-0.00264938
0.0022396
0.00767405
0.00626468
-0.00869326
0.0108398
0.00167454
-0.00617238
-0.00692448
-0.00105329
0.0110503
-0.0030761
-0.0147274
-0.0102195
0.0261286
5.67391e-07
-0.0100615
0.0983994
0.0256004
-0.0084504
0.00489957
0.00758716
-0.0115169
0.00503286
-6.05579e-06
0.0371197
0.0252361
0.000266811
-0.00757522
0.000441079
0.00695017
-0.00264571
0.00886913
-0.0054433
-0.0671798
0.000806777
0.00146524
0.00979581
7.27949e-05
-0.00394596
-0.00198432
0.000115803
-0.00923167
-0.00956279
0.000722924
-3.8254e-05
0.0173972
0.00628031
0.000943159
0.00852944
-0.000421818
-0.00303266
-0.0127803
0.00868841
-0.00595993
-0.00123245
-0.000118504
-0.00203
0.00111047
-0.0678193
-0.0786128
0.000390323
-0.0144113
-0.000641808
-0.0301234
0.0140451
-0.00189161
-0.00135896
-0.00120888
-2.85617e-05
-0.026401
-0.0074832
0.000698989
0.0106134
-0.00278572
0.00834419
0.000256087
-0.00125234
-0.00251751
0.00123061
-0.00270171
-0.00276576
0.0113996
0.000661889
0.00630788
-0.000987793
-0.0493801
-7.24985e-05
-4.04344e-05
-0.00596316
0.0224736
-0.00772829
0.00431908
0.0669846
3.44971e-05
5.26629e-05
-2.6501e-05
-0.0106171
-0.00642633
0.00889549
-0.001166
-0.00033472
-0.0023001
0.00452193
-0.00181837
-0.000372083
0.0666179
-0.0020479
7.08144e-05
0.00700231
-0.00405223
-0.0658765
0.0531959
-2.57308e-05
0.0147485
-0.00673014
-0.0786555
-0.00310444
0.000434672
-2.2841e-06
0.000451607
-0.0763672
0.0264331
-0.0139712
-0.00669268
-0.0141808
0.00462144
0.00738592
-0.000511683
0.0264882
0.00662999
0.0103126
-0.0243428
0.00835133
0.000457759
-0.0171701
-0.000968281
0.000781482
-0.0100225
-0.0640035
-0.000440464
-0.00505978
0.00128051
0.105724
-0.00230237
-0.0039072
-0.0690185
-0.00064517
-0.0673094
-0.00969467
0.00887901
-0.000162811
-0.0259289
-0.00143238
0.0055683
0.00698837
-0.0131023
0.0106524
-0.0289786
-0.00169525
-8.13547e-06
0.0136875
0.00611265
0.00976913
-0.000403083
0.0084761
0.00439087
0.00721942
-0.00196225
0.00693034
0.00163498
5.32014e-05
0.00162049
-0.0016331
0.00763856
0.0046661
-0.000887591
0.00676879
-0.00392256
0.00057294
-0.0131171
-0.00864027
0.00641209
-0.00208343
0.00450506
-0.00237302
0.00925627
0.0125768
-2.1456e-05
-0.00275532
0.0122632
0.00238179
-0.0042967
0.0518539
0.00665686
0.000681965
-0.000275671
-0.0128244
0.00505608
-0.0266345
0.0101195
0.0061064
0.0026114
0.00635073
-0.0486376
-0.00180101
-0.00666895
-0.00296158
-0.00536807
-0.00276708
-0.0633665
-0.000536808
-0.0609206
-0.0114667
-2.81366e-05
-0.000337029
-0.0116137
0.00245769
0.00613183
-0.000203016
0.00237691
-0.0025445
-0.00388404
0.00305825
0.0248119
0.0754313
0.00903104
-0.0633169
-0.00433495
-0.0783211
-0.00400565
-0.00020486
0.0203257
-0.000197766
-0.00507765
0.0110951
0.0156787
-0.00385651
-0.0126999
0.010888
0.00912373
0.00156696
0.0191423
2.78257e-05
-0.00213737
-0.0273929
-0.0260842
-2.95009e-05
0.00681057
-0.00792486
-0.0238406
-0.00873243
0.0184798
-0.00144768
-0.000856764
0.00657367
0.0200867
0.0793258
-0.000333183
-7.91545e-05
-0.00405903
-0.000937234
-0.0264981
-0.00229565
0.0138533
-0.00456932
0.00055964
-0.0398228
-0.00775664
-0.00192915
0.00841043
0.00531238
0.0087082
0.0246878
0.0192882
0.0220639
0.014032
-0.000915304
-0.00835298
-0.00278502
0.00100213
0.00849208
0.00091962
-0.00214329
0.00539851
-0.00255162
-0.000507446
0.130559
-0.00191139
0.00953153
-0.00133459
-0.000937891
-0.0055189
0.00134391
-0.00450204
0.0139267
-0.00106826
0.00574271
-0.000749821
-0.00225818
-0.00249351
-0.000448848
-0.01304
-7.12582e-05
0.010929
0.0135713
0.0165453
0.0015952
-0.0223116
-0.00173626
0.0156822
-0.0659713
-0.00240062
0.00744834
-0.000206686
0.0503512
-0.00485688
-0.00091941
-0.0130712
-0.0112498
0.000287423
-0.0280424
0.00852931
-0.0725676
0.00216343
-0.010082
0.0121382
0.00484416
0.00649984
-7.74838e-05
-0.000532471
0.000134468
-0.00803237
8.36709e-05
0.0118709
0.00739507
-7.53412e-05
0.0174593
-0.000601138
0.000137342
-0.00155639
-0.0121861
-0.0264436
0.039858
0.06594
0.00728622
-0.00183309
-7.15356e-05
0.000295599
-0.000526241
-0.00477897
-0.00181618
-0.000127079
-0.000129881
0.00636127
-0.0679107
-0.00148621
-3.4981e-05
0.015238
-0.0114219
0.0184168
0.000194757
-0.000916461
-0.0726239
0.00166763
-8.17613e-05
-0.000188156
-0.00199546
-0.0111184
-0.00149398
-0.00284769
-0.000284511
-0.0376901
-0.00309932
0.00164079
-0.0402509
-0.00230347
0.00590215
-8.41702e-05
-0.0025421
0.015754
-0.00193916
-0.00808308
-0.1059
-7.08518e-05
-0.0185886
-0.00403245
-0.000155908
0.000143325
-0.0255302
-0.00171423
-0.00676689
0.0140691
-0.00311908
-0.0150755
-0.000629851
0.00928242
-4.52243e-05
-0.00306494
-0.00172899
0.00753233
-0.00258349
0.00946792
-0.00127224
-0.0132535
0.0166209
-0.00685796
-0.0128058
0.000296458
-4.33149e-05
0.0155834
0.0189019
-0.00120536
0.129529
0.00604661
-0.00360105
0.00664951
0.0118708
-0.00682677
-0.00121672
0.139168
0.015031
-0.0024958
-0.000278664
5.65745e-06
-0.0504524
-0.00212273
0.00918381
-5.81395e-06
-0.00284718
-0.000185834
0.0397255
-9.73274e-06
-0.014916
-0.00226766
0.0191526
-0.000540488
0.00889016
-0.000864753
0.0794456
9.19619e-06
-0.00141408
-0.0363645
-0.0108491
-0.00388566
0.0066401
0.00932665
-0.0262609
-0.00137536
-0.00567339
0.00823476
0.0155254
-0.0677048
-0.030265
0.00635766
0.00884082
0.00164984
-0.0163582
0.00579193
-0.000697801
-0.000190826
0.000252058
-0.00115182
-3.5036e-05
-0.00147093
0.00158474
0.0134483
6.57289e-05
0.00481929
-0.023621
0.0064729
-0.0025319
-0.0149088
-0.0423076
-0.002123
-0.00464054
0.0862916
-0.00135716
-0.0662095
-0.00611854
0.00479711
-0.00929214
-7.69776e-05
-0.0122976
-0.0415698
0.00093537
0.00550478
-0.00498663
0.00532348
0.0187161
-0.00349578
0.00341458
0.00476292
-0.0677814
0.0136992
-0.000752491
-0.00305693
0.00158654
-0.000560111
0.000752223
0.000242098
-1.17212e-05
-0.00368143
0.00160699
0.00593993
-0.000370698
0.00968179
0.000220875
-0.000732844
0.000349947
0.00200868
-0.0023378
-3.49479e-05
-0.00571954
0.000989357
-0.00667521
-0.000558276
0.00957978
-0.000101964
0.0147993
0.0110829
-6.0587e-06
0.00340891
-0.0342576
-2.08929e-05
-0.000251856
0.00206958
-0.0116986
0.0190576
-0.0334048
0.00725902
-0.000141839
0.00291694
-0.00463514
0.0222955
0.000165069
-0.00240678
0.000816996
-0.0312184
6.05504e-05
-0.00175337
-0.0026304
-0.00141484
-0.00398346
0.000915514
-0.0403002
-6.97868e-06
-0.0774388
-8.62175e-05
0.00818554
-0.0050137
0.00625817
-0.0105894
-0.00727952
-0.0031077
-0.0297846
0.0350242
-0.0019197
0.0187808
0.00445859
6.21089e-05
-0.000371179
-0.0251089
0.00979888
0.00556022
1.8179e-06
-0.0143559
0.00351766
-0.000246189
-0.00171427
0.0180544
-0.000366379
-0.0059997
0.0101209
0.00694715
-0.001278
0.0122414
-0.00179827
0.00966869
-0.00239508
-0.00346245
-0.00730437
-0.00374109
-0.00482843
0.04149
-0.00612348
-0.00422365
0.00379294
-0.00169295
-0.0574647
0.00202367
-5.78753e-05
-0.000818519
-0.035109
0.00535715
0.00805942
0.00959851
-0.000953085
0.00695788
-0.00348779
-0.0433403
0.00187863
0.00120782
-0.00375541
-0.0143829
-0.000308882
0.00518534
-5.11e-06
0.00066019
0.0230259
-0.00345584
-0.00516435
-0.0025514
-6.65517e-06
0.0654782
0.00705392
-0.00331643
-0.00236791
0.00373992
0.0069028
0.0164552
-2.11324e-05
-0.0438096
0.00801662
-0.00241063
-0.000631737
0.0065797
-0.00245701
-0.0384049
-0.000661222
-0.015748
8.36917e-05
-4.28775e-05
0.00663602
-0.0159134
8.87716e-05
-0.0019261
-0.00222529
-0.000721823
0.00504755
0.0233163
-0.00273976
0.0775572
-0.0263351
-0.00531057
-0.00891045
-0.0442665
-9.03427e-05
0.0165091
0.00967035
0.0114666
-0.0174499
-0.000221216
-0.0769047
-0.00144886
-0.00443331
-0.0551978
-0.00165348
0.0101373
-0.00142326
-1.40173e-06
0.000306728
0.00553459
-0.00549784
-0.00274171
-0.0015211
-0.000151828
-0.00258073
0.000779645
-0.0139216
-0.00572806
-0.00141103
-0.00276058
-0.000918887
-0.000103722
-0.00160363
0.0505658
-0.000133776
0.00989723
-0.0261415
-0.000646214
0.00625299
9.21616e-06
-8.9412e-05
0.00284604
-0.00960102
-0.00160149
-8.06445e-05
-0.000104145
-0.0171266
-0.00871468
0.000171684
-4.9314e-05
-3.50999e-05
0.00147705
0.0204184
0.0052913
-0.000162282
-0.000655001
0.00621341
-0.00216466
0.0719691
-0.00281492
-0.00180666
0.111661
0.00557558
-0.0473729
0.011334
0.00172567
0.00719221
-0.00317508
0.00905434
0.0145755
0.0287478
-0.0229412
-7.34114e-05
0.07942
-0.00732037
-0.0260903
-0.0499471
-0.00536755
-0.00251088
-0.0135128
0.00129191
-0.00166803
-0.00123429
-0.000264273
-0.00168237
0.016557
0.000447555
0.0101357
-0.00404792
-0.00395764
-0.019721
-0.00434712
0.00232441
4.16485e-05
0.0158155
-0.00782475
-0.00267449
0.0165731
0.00790795
-3.92791e-05
-3.21299e-05
4.18524e-05
-0.0428751
-0.00637588
0.0090689
0.00729793
0.0250348
9.75449e-06
0.00459966
-0.00273022
-0.00232206
-0.0177621
-5.24616e-06
0.029909
0.00553406
-0.00255585
0.0356885
-0.00016704
-0.0748164
0.0190053
4.74215e-05
0.00591761
-0.00487639
0.110698
-0.000386599
-0.0656271
-0.000180994
-7.67093e-05
0.000249878
0.000852541
-0.0041689
-0.0014816
-0.0077589
-0.0422442
-0.0156554
-0.00668344
-7.16869e-05
-0.028279
-0.0255667
-0.0606643
-0.000245829
0.0901732
-0.0633849
-0.00261474
0.00580519
-0.0173841
0.0011084
-0.00116466
-0.00159969
-0.000226703
-0.000596831
-4.81176e-05
0.0101577
-0.0436917
-0.00372127
-0.00237664
-0.0475527
-0.0418819
0.00892808
0.00158784
-0.00128684
-0.00284199
0.00692314
-0.00255939
0.00622618
0.0128147
-0.0114982
0.0565005
0.000950384
0.0310076
-0.0429637
-0.000636306
0.0075669
0.000193434
-3.61496e-05
0.0143646
-0.0126095
-0.00214607
0.0144901
-0.0018111
5.6298e-05
-0.00435711
-0.00413675
-0.0634893
-0.00995229
0.0103113
-0.000288862
-0.00649918
0.00249825
0.0740402
-0.0415885
0.00965125
-0.00067928
0.00254903
0.0419728
-0.0011234
-0.0037139
5.70697e-05
0.00502863
-0.00344688
-0.00234061
0.00772878
-0.0157022
2.92256e-05
-0.0025491
-0.000351986
0.000601063
0.00866233
-0.00204862
-0.00182344
0.00754866
0.00453178
-0.0135095
-0.00533304
0.00654891
0.0656197
0.0167922
-0.000280624
-0.00272501
0.00377049
0.0102958
-0.00238838
-0.0057453
0.013123
0.000578802
0.0566591
-0.047748
-0.000205155
-0.0044909
0.00839752
-0.00275262
-0.0283165
-0.00590579
-0.00111955
0.0070962
-0.0443056
0.0096407
-0.00207505
0.0913595
-0.000312564
-0.00202753
0.0081491
0.0059196
0.00687871
-0.00034675
-0.00182848
0.0109716
-0.000748787
-0.0263722
-0.057238
-0.0206419
-0.00167555
-0.00387941
-0.00244043
-0.00114842
-0.000728641
-0.00350587
-0.00230315
-0.00263944
0.0103147
0.016588
-0.00657882
-0.0112483
-0.00222702
0.000379809
-0.015548
-9.20006e-05
-0.00427352
-0.00163374
-0.00468428
-0.0422916
0.00795007
-0.070572
0.000820521
-0.00161144
0.0116683
-7.46568e-05
-0.0202609
0.00040509
0.00888991
-0.00016846
0.000732664
-0.00534837
0.000292127
0.0561864
0.00127521
-0.00969405
-5.58233e-05
9.79603e-05
-0.00473301
-0.00643081
0.00786756
0.00449715
0.0475837
0.00254109
0.0105943
-0.00280164
-0.0117818
-0.00531296
-0.00268715
-7.1083e-05
0.000145861
-0.0163474
-0.000351778
-0.0013823
0.0101484
-0.016245
-0.0632835
-0.00269832
-0.00146113
0.00338119
0.00832139
0.00357255
0.0239754
-0.00199404
-4.7067e-05
-0.00618865
0.00620422
0.00436555
0.0083657
-0.0229805
-0.0203593
-0.00238049
-0.0664489
-0.00173814
0.011511
0.00198243
-0.000137949
7.08238e-05
0.00819754
0.0247233
-0.00268442
-0.0493343
0.0600959
0.00183734
-0.0175076
0.000248769
0.00978146
-0.0229341
-0.0266446
-0.00562051
-0.00752457
-0.0105477
0.00751635
0.00488325
-0.0634981
-0.00443214
0.0261465
0.0118675
-7.10705e-05
0.0134246
-0.0138681
-0.00188299
0.00588123
-0.014575
0.00320982
-0.0024829
-0.000138463
-0.00171354
-0.0248929
-0.00052901
-0.0633033
-0.0480901
0.000992851
0.00142863
-0.017234
0.0125722
-0.000871569
-0.00225227
-0.0340912
0.0146748
0.00135427
0.00433767
0.0838779
0.00568172
-0.0162683
-0.0130439
0.00990642
-0.000859089
-0.0698967
-0.00235133
0.00326895
-0.0785004
0.109616
0.00335213
0.00841695
-0.0160169
-0.002249
0.0100214
-0.00115605
-0.00305413
-0.0023184
0.00129372
0.016923
0.098755
0.00837549
-0.001692
-0.000800546
-0.0013752
-0.002063
-0.001527
0.046375
-7.17118e-05
0.0499736
-0.000146983
-0.00231866
-0.0418558
-0.00335362
-0.00768992
0.0024182
-0.00245514
-6.6904e-05
0.0100876
-6.28692e-05
6.26255e-05
0.00176382
4.62251e-05
0.0457313
0.00486333
0.0153299
-0.0394756
6.01714e-05
0.00813169
-0.068042
0.00312856
0.00935949
-0.000127564
0.0229465
0.0336372
-0.0529003
-0.006541
-0.00250368
-0.00228098
-0.00847178
-0.000530088
-0.00480151
0.0112515
-0.00339528
-0.00562324
0.0370622
-0.00430772
-0.00228094
0.0151866
-0.106209
0.00519669
-0.00102942
0.0087989
-0.000192693
0.0079242
-0.000218487
-9.55726e-06
0.00806913
-0.000874686
-0.00311231
0.011965
0.00177337
-0.00199576
-0.00212484
0.00198128
0.00571691
0.00711092
0.00142669
-0.00655032
-0.00362643
-0.016878
-0.000112159
-0.011434
0.000197929
-0.000194223
0.124987
-0.00108263
0.00658516
-0.00489806
-0.0613713
0.00648093
0.000174569
0.0015454
0.00956908
0.0013962
0.0160201
-0.0649167
-0.00246253
0.0107072
0.0491161
-1.14433e-05
0.0115572
-0.000600872
0.00666943
-0.000283663
-0.0139285
-0.016105
-8.52925e-05
-0.0137289
0.00865584
0.00705875
0.0135996
0.00018424
-0.001531
-0.00168423
0.000812036
0.0094976
-0.000517594
-8.83778e-05
-0.0121128
-0.000161611
-0.00626994
-5.32431e-05
-0.0281377
0.000134146
0.00674117
0.00878005
-0.0112143
0.00948751
0.00559647
0.00610222
-0.00861556
-0.00115857
-5.28491e-05
0.00747942
-0.00157578
-0.00512579
-0.000407651
-0.0684053
0.00378476
0.00968895
0.0186486
-0.00684533
-0.00532263
-0.00581237
-0.00132365
0.00399153
0.00833672
0.00943018
-0.000220836
0.0310302
0.00776983
0.00147742
-0.000725611
0.0237516
-0.000966505
0.00888977
-7.03141e-06
0.00118806
-0.017497
-0.0530196
-0.00264091
0.00672389
0.0283413
0.0652247
0.0114943
0.00499508
-0.0228393
-0.0025654
1.38141e-05
-0.00287338
-0.000535984
1.18121e-05
1.91778e-05
0.00929363
-3.32767e-05
0.00264682
0.00168226
-0.000751169
0.000288676
-0.0619599
-0.0598478
0.00121304
-7.45224e-05
-0.0284102
-0.000439389
0.0161673
-0.00357001
0.0144687
0.00692099
-0.000767411
-0.0083407
-0.00379195
6.29387e-05
-0.000413349
-0.0022175
0.000743262
-0.00233433
0.00854216
0.0134901
-0.0626442
-0.00587677
-0.00579727
0.000956189
7.51855e-05
-8.2333e-05
-6.13192e-05
-0.000620171
-0.0435893
-0.0238578
0.000785728
-0.00116881
-0.0284201
-0.00194284
0.00558133
-0.00359521
-0.00306407
0.00636615
0.0115718
0.00809365
-0.00777016
0.00769132
-0.00098143
-0.00177056
-0.000268629
-0.000156723
0.0213709
-0.0628426
-0.0699234
0.0363798
0.00357007
0.00682578
-0.000123977
0.0232332
-0.00507102
0.0084306
-0.0513064
0.00758041
-0.0748591
-0.00145417
-0.0216261
0.0018046
-0.00229447
-0.00864495
0.0471596
-0.0613976
-0.0001776
-0.00406074
-0.00173131
-0.0267563
-0.00156246
0.00910757
0.000409212
0.00585405
0.00893596
-0.00122955
-0.0251208
-0.0267253
-0.0109474
0.00738138
-0.00195197
-0.000277249
-0.0674776
0.00589366
-0.000808336
4.45808e-05
-0.000209033
-0.00265376
0.00917739
1.10342e-06
0.0181346
0.00857622
0.000179668
-0.000138912
-0.0131229
-0.0640985
0.00588392
0.0100934
1.7734e-05
0.000351239
0.00728056
-0.000288494
-0.00733895
0.0423727
0.00047829
-4.42982e-05
0.0109354
-0.00741196
-0.024759
-0.0662666
0.00833316
-0.0380328
-0.00018756
-0.0212656
-0.00387344
-0.00204358
1.80706e-05
0.0110496
-1.08775e-05
-0.00960576
-0.00836391
-0.00218642
-0.0705522
0.00964678
0.0064887
-0.0229107
0.0053004
0.00104767
-0.00916992
0.00688935
-0.00243157
-0.000486371
0.0123918
0.00449432
-0.000191409
-0.00179643
0.0101871
-0.00245512
-0.00724339
-0.0161878
0.000234359
-0.0132697
0.00588135
0.000327064
-0.00371225
-0.00184369
0.00668106
0.000127407
0.0117481
-0.000515758
0.0116956
-0.0020732
-0.0046127
0.00632053
0.0109007
-0.00204392
-0.00933249
-0.00132275
-0.00263554
0.0112263
-0.0309142
-6.3199e-05
-0.0457123
-0.00203217
-0.00502584
-0.00235082
-0.00984375
-0.00470301
0.00319169
-0.000490462
0.00628184
-0.019043
-4.4686e-05
-0.000105895
-0.0233457
-0.00319858
-0.00290953
-0.00432094
0.0067921
-0.00788126
-0.00651557
0.0100698
-0.00240264
0.00962257
-0.00297623
0.0269927
-0.00314328
0.00180137
-0.000396091
-0.000131137
-0.00659975
-0.00172362
0.000914355
0.000736089
0.0076831
0.0064743
0.00863367
0.0120793
-0.00169515
0.0155024
0.00521679
-0.0610414
-2.63829e-05
-0.00021999
-0.0309545
0.00699215
-0.029712
0.00488898
-0.00540984
0.000832763
0.0079054
-0.014349
-0.0015516
-0.00568101
-0.00019305
-0.000193546
0.000339713
0.00490598
-0.0052558
-0.000255874
-0.000434678
0.00683632
-0.00234202
0.00954719
-1.17056e-05
0.00863595
-0.0477939
0.0566574
0.00917325
-0.0218988
-0.000412096
0.00518178
0.0024044
-0.000347927
-0.000411163
-0.000124986
-0.0125317
0.0292243
-0.000664189
-0.000384263
-0.00557923
0.00312856
0.00219946
-0.000385318
0.000105055
-0.00010473
0.00897225
-6.632e-05
-0.00263326
-0.00106023
-0.00265065
0.0118696
0.0117202
0.000165834
0.0382461
0.0080345
-0.000119024
0.00723878
5.4848e-07
-4.33953e-05
0.00989506
-0.000148291
0.000152394
-0.00615527
-0.0050972
-0.00800487
0.00379295
0.0095564
-0.00224943
0.028279
0.0074879
-0.000167519
0.00208652
-0.0608527
-0.00615202
0.00452505
-0.000145206
0.000356162
-0.0123677
-0.00228376
-0.00251001
0.0195773
-0.000154593
-0.0149302
-0.000178573
0.00981402
-0.00217646
-0.0136509
0.00303105
-0.0013602
0.00964184
-0.00260594
0.0031675
0.00148974
0.00857468
0.0030597
-5.36342e-05
2.46192e-05
-0.0318776
-0.0473092
-0.0533172
8.90773e-06
0.00758111
0.0395657
-0.00995894
-0.000182511
0.0110614
0.000513663
-0.00456269
-0.0231034
-0.00786463
-0.00112025
-0.0139023
0.000109975
0.001063
-0.0010157
0.0116921
-0.0544128
-0.00280925
-0.00282078
-0.0036392
0.00114912
-1.42723e-05
-0.00172722
-0.000175872
-0.00679619
0.000207204
-0.0444173
-0.00627683
0.0103347
0.0124294
0.00481267
0.00357921
-0.0024719
-0.00128751
0.00506537
-0.0005113
0.0201303
0.0103917
-0.0273748
1.00277e-05
-0.00115252
0.0880032
0.019067
-0.00215905
0.0272354
0.00632639
-0.000842997
0.00897132
0.000213158
0.00408731
-0.00986396
-0.00203182
0.00564422
-0.00101087
0.0248246
-0.00095174
7.02523e-05
0.0166144
-0.00085279
-0.00666889
0.00575853
0.0178149
-0.000220824
0.0175441
-0.00852512
-0.0204206
0.000158209
0.0361701
-0.0497536
0.00716581
-0.000288255
-0.00255465
-0.0024189
0.00284506
0.00637439
0.00728026
-0.023771
0.00607112
-0.0256738
-0.027473
-0.0380062
0.00306832
-0.00260803
-0.041792
8.67395e-05
0.0229922
-0.00177003
0.0585266
-0.00864057
6.76027e-05
0.00154806
-3.76649e-05
0.00775877
0.00591405
0.00538282
-0.00175909
-0.00397678
-0.0576365
-0.0157571
-0.020297
5.60518e-05
-7.11264e-05
0.00134995
0.00499686
-0.00292435
0.00971393
-0.00473888
0.00403785
0.00741942
-0.000233116
0.0328585
0.00792716
0.0307072
0.0024756
0.000115594
-0.0241677
0.00891349
-0.0575727
-0.0110712
7.44483e-06
-0.00527194
-0.00377661
0.00883144
0.00129314
0.0121635
-0.000317666
-0.00159603
2.12419e-05
0.000397298
-0.0267855
0.0212426
-0.0141304
-0.00768311
-0.0271304
-0.00174433
-0.000689471
0.0232495
0.0186237
0.000182972
1.9318e-05
0.00857388
0.00409843
-0.000719465
-0.00187116
-0.0150118
-0.0659797
-0.00106752
0.00942174
-0.00168778
-0.00458585
-0.00577858
0.0306919
0.0140045
-0.00228213
-0.00270663
0.00372208
-0.00160038
-0.0519037
0.00262644
-0.0700873
0.00554682
0.0136251
-0.000855934
-0.0101079
-0.0667184
0.0774829
-9.33356e-05
-0.00295974
-0.00261813
0.000654393
0.00265659
-9.14126e-05
0.0087463
0.0225948
-0.00226888
0.0081458
-0.0655184
0.00690743
-0.00640961
-0.0260632
-0.0129907
0.0321572
-0.000125354
-0.0661768
0.00701277
0.000501233
1.331e-05
-0.0335582
-0.00019888
-0.0136031
0.0069556
-0.0259564
0.00769891
0.0141292
-0.00837145
0.00907153
-0.00105034
0.00957602
-0.0465669
0.012364
0.00672743
-9.41277e-06
0.0167165
0.00552958
-0.000411319
0.00742604
0.00487377
0.00561269
-0.0709058
-0.000733737
-0.0405493
-0.00179299
0.0296532
5.21273e-05
-0.000580289
0.0148071
-0.0280667
-0.0129325
0.00121294
-0.000118756
0.0345252
0.00600253
0.0174446
-1.17039e-05
-0.00121229
-0.0711985
0.00582065
0.00450417
-4.08515e-05
0.00765686
-0.000841906
-0.00248976
-0.00040745
-0.00472475
0.000255508
2.85017e-06
-0.00291986
0.00939515
-0.00766391
0.00352366
-0.0188747
0.000161876
-0.0309769
-0.000829338
-0.00674699
-0.00547616
-0.00156203
0.00350982
-0.00660627
0.0119158
-0.0101067
0.0229185
-0.00204022
-0.00458913
0.00681025
-0.000179558
0.00741658
0.00233719
0.022061
0.00790011
0.0801928
-0.0011416
0.00371166
0.00760943
0.0165505
0.0207605
0.0015578
-1.6023e-05
9.42889e-05
-0.000260048
-0.00187083
-0.00340832
0.0685455
0.0955257
-0.00665137
-0.00891269
0.00956269
0.0151689
-0.00541935
0.00136357
-0.081418
0.00989718
0.00104398
0.00721166
-0.00111156
-0.000173996
-0.00882036
-0.0187521
0.000783142
0.020423
-0.000106986
-0.0717929
-0.00118403
0.00720598
-0.0217862
-0.000122276
-0.0274228
0.00257575
-0.00986639
-0.000972079
-0.000681434
0.000981263
-0.0569332
-0.0198628
0.00895698
-0.00055437
0.0179948
0.0059873
-0.0451296
-0.0408439
0.0135237
0.00796854
0.00924998
0.00721146
-0.00160167
0.0081233
-0.0057737
0.00976213
-0.00321333
-0.00020219
0.00190878
-0.000430188
-0.0023495
-0.0669389
0.00255295
-0.000793562
-0.00384517
9.27645e-05
0.00344971
-0.0337168
-0.0705758
0.00617002
0.0286795
-0.0656787
-0.00227195
-0.071625
0.00274546
0.00910471
0.00967557
0.0110807
0.00733328
-0.015848
0.00196755
-0.0692341
-0.0441102
0.00299184
-0.00504613
0.00963063
-0.0503859
-0.00351479
-0.000872773
-0.0769571
-0.0678197
-0.067339
0.00458269
-0.000742275
0.0080568
-0.000369619
-0.000437285
-0.00253945
-0.00244025
0.00963444
-0.00814019
6.49473e-05
-0.0013666
0.00540537
0.00844346
0.0106948
-0.0581085
-0.00277376
-0.000116718
-4.95062e-05
0.00597397
-0.00910647
0.0178115
-0.00636586
0.00759968
-0.0101937
5.83262e-05
0.00622288
-0.000154896
0.00884833
0.00735951
-0.00327785
-0.0302077
-0.0199316
0.0288231
-0.00212684
0.00705092
-0.00234702
-0.0018479
-0.0700165
-0.00152136
-0.00725069
-0.0159501
-0.0198764
-0.00172793
-0.0743846
-0.0281784
0.00397578
0.00526954
-0.000244793
-0.000692701
0.00694441
0.0166378
-0.00294235
-0.00630241
-0.00105331
1.86816e-05
0.000460061
-0.00835706
1.71026e-05
0.00980426
-0.00099414
0.00154833
-0.00243722
0.0294581
0.00147772
0.00563018
-0.00866349
4.59422e-05
-0.0127433
4.36676e-05
0.00071429
-9.91893e-05
-0.00930766
-0.0612296
0.00198817
0.0226094
-0.0113607
-0.0366103
-0.00244128
-0.00231349
-0.00195366
-0.0395818
-0.0221625
0.00117233
2.72837e-05
-0.0754281
0.0101792
0.00115233
0.00807706
0.0399738
-0.0053619
0.00642632
-6.12135e-05
0.0466376
0.00271439
0.00620207
0.00735359
-6.93375e-05
-7.20808e-05
1.82376e-05
-0.0106695
-0.0302773
-0.0660282
-0.0119961
0.010067
-7.51533e-06
0.00712219
-0.000341724
-0.000414495
-7.91985e-05
-0.000188302
-0.00180734
-0.000108739
-0.00348801
-0.066419
-0.00065555
-0.05308
0.0114758
-0.000101934
-0.000420509
-0.00511174
-0.000754749
-0.000166821
0.00155809
-0.0107049
0.00796682
-0.000606525
2.22381e-05
-0.000390687
0.00490418
-0.00170261
-0.055677
-0.0056765
0.000910698
-0.00119853
0.00612163
0.0158652
-0.00178616
-0.00201821
-0.0549199
-8.30279e-05
0.0100948
0.00675951
0.00619789
0.00210578
0.00881597
0.00600175
0.0321373
0.00960806
0.000596354
-0.00162166
0.00183239
-0.000239822
0.00360401
-0.0248003
-0.00654649
0.00643223
1.10404e-05
-0.0122646
0.00734976
0.000918771
-0.00618602
-6.10432e-05
-0.00395301
-0.0302655
-0.00109233
0.0449573
-0.000297658
0.00723022
-0.000289182
0.00658275
-0.0613386
0.000780051
0.0329462
-0.00310004
-0.00831219
1.50755e-05
-0.000255524
-0.00240133
0.00874925
1.84783e-05
-0.00027202
0.00917306
0.0281632
0.00510481
0.00771172
-0.00595115
-0.028701
0.00876126
-0.00825839
0.000317854
-0.0182014
-0.0107921
0.000704895
0.00442096
0.00368715
0.00970353
0.0064668
0.00464411
0.00133302
-1.14997e-05
0.0420643
0.00816435
-2.24265e-05
0.00730645
-0.00923508
0.00548538
0.00583485
-0.00619297
-0.000922109
1.56017e-05
0.000663352
0.00806727
0.00106884
-0.00468968
0.0121845
-0.0042232
-0.000270967
0.00258344
0.01139
-0.00700298
-0.0177506
-4.27336e-05
-0.0318735
0.000408791
-0.00293196
-0.00121614
0.00110783
0.001109
0.000275879
-0.00924041
-0.00205923
-6.81554e-05
0.00664746
-0.0110861
-0.0326633
-8.44823e-05
-0.000103239
0.00528043
-0.00184525
-0.0143936
0.00677956
0.00299784
-0.0027879
0.000433052
-0.00335215
0.0165254
-0.00134102
0.005294
0.000269726
-0.00387229
0.0157498
-0.0243182
0.00809084
-0.0260089
-0.00270039
-0.00363129
-0.000266528
-0.0385238
0.000720319
0.00630552
-0.00138491
0.00716458
-0.000141497
-0.000296399
-0.00125229
-0.0525371
0.0155788
-0.065148
0.00537499
0.00535585
-0.00234359
-0.000410494
-0.0139761
9.0793e-05
0.000341652
-0.0012594
-0.00158915
-0.00237731
0.00659631
-0.000575003
0.00732105
-0.0187479
-0.0138597
0.000351735
-0.0102145
0.00412833
-0.0161331
0.00564683
0.0111355
-0.0223714
0.000179918
-0.00150481