/*--------------------------------*- C++ -*----------------------------------*\
  =========                 |
  \\      /  F ield         | OpenFOAM: The Open Source CFD Toolbox
   \\    /   O peration     | Website:  https://openfoam.org
    \\  /    A nd           | Version:  9
     \\/     M anipulation  |
\*---------------------------------------------------------------------------*/
FoamFile
{
    format      ascii;
    class       volVectorField;
    location    "125";
    object      U;
}
// * * * * * * * * * * * * * * * * * * * * * * * * * * * * * * * * * * * * * //

dimensions      [0 1 -1 0 0 0 0];

internalField   nonuniform List<vector> 
112055
(
(0.479164 0.0164421 0)
(0.50339 -0.0045991 0)
(0.525287 0.000566786 -1.55748e-20)
(0.532884 -0.00154595 4.69912e-21)
(0.519896 -0.0670578 -6.90717e-21)
(0.49979 0.00458503 0)
(0.480363 0.0157856 -6.64412e-20)
(0.532607 -0.00168629 0)
(0.518427 -7.09091e-05 -8.51261e-21)
(0.480512 -0.00262455 3.58204e-21)
(0.503373 -0.0046903 1.53526e-20)
(0.482009 0.019866 -4.46984e-20)
(0.518271 -0.00027667 4.05509e-21)
(0.482034 0.0194873 4.26415e-20)
(0.459496 -0.00615784 -2.63941e-20)
(0.519609 0.000703016 8.48427e-23)
(0.423272 -0.00653144 7.45701e-20)
(0.469614 -0.0476529 -2.32385e-21)
(0.503978 -0.00671032 0)
(0.518276 0.00610271 -5.58761e-21)
(0.522132 0.0053953 2.2569e-21)
(0.528238 0.0155441 0)
(0.503988 -0.00680923 -8.85446e-21)
(0.514152 -0.0105471 -1.80926e-22)
(0.452556 -0.0559233 0)
(0.522673 -0.0316457 9.97317e-21)
(0.430704 0.0256453 -2.01193e-20)
(0.500532 0.00186155 0)
(0.499838 0.0045276 0)
(0.522502 0.00534055 -2.29246e-21)
(0.499991 -2.66269e-05 -4.39264e-20)
(0.545831 0.0185889 0)
(0.518257 0.00125469 0)
(0.0297435 0.0377311 -2.21035e-20)
(0.518459 -6.30257e-05 7.86402e-21)
(0.516437 0.00114172 -3.73044e-22)
(0.518393 0.00603024 0)
(0.355442 0.119405 1.63756e-20)
(0.535768 -0.0156985 0)
(0.514686 -0.00141896 1.4864e-22)
(0.516614 0.000696559 1.95153e-21)
(0.534023 -0.015499 1.08129e-20)
(0.511646 -0.0050848 4.80989e-22)
(0.525089 0.000533602 2.61055e-20)
(0.468556 -0.0478952 0)
(0.515887 -0.00807537 0)
(0.0364306 0.0387022 0)
(0.477767 -0.0898677 0)
(0.539329 0.00868566 -7.40361e-21)
(0.533574 -0.0156945 2.21488e-21)
(0.532033 -0.00169117 1.34072e-20)
(0.540976 0.109569 0)
(0.526988 0.0076635 -2.58386e-21)
(0.535349 -0.0151272 2.92678e-20)
(0.519236 0.00176003 1.39914e-20)
(0.480091 0.0162621 3.25654e-20)
(0.375001 0.0519576 -8.30228e-22)
(0.371231 0.00462234 0)
(0.535972 0.0689268 0)
(0.515916 -0.00794194 1.4224e-21)
(0.487156 -0.008862 2.30442e-20)
(0.481657 -0.0869337 -1.80662e-20)
(0.514988 0.000836659 1.06227e-21)
(0.515078 0.00082023 -1.12222e-21)
(0.494381 -0.00110112 0)
(0.518873 -7.92524e-06 -9.66902e-21)
(0.349667 0.120304 0)
(0.523564 0.0263754 0)
(0.508782 0.0142112 7.88335e-22)
(0.520423 -0.000890916 -3.79165e-21)
(0.372035 -0.00689126 2.7355e-20)
(-0.0724879 0.0369581 3.03389e-22)
(0.513962 -0.0105469 0)
(0.439406 0.00681227 7.39546e-20)
(0.556665 -0.0184981 -7.8146e-20)
(0.257117 -0.204743 -8.63817e-21)
(0.502756 0.000705713 -2.7146e-21)
(0.479438 0.0161457 -3.43997e-20)
(0.543997 0.0464382 -2.28081e-20)
(0.53482 -0.0151439 -3.84916e-20)
(0.462835 -0.00967671 1.10845e-20)
(0.220563 -0.189934 -8.92643e-21)
(0.531974 -0.00179239 0)
(0.524623 -0.0320952 1.11207e-20)
(0.519802 0.000854188 1.6107e-22)
(0.507377 -0.00105456 5.97646e-21)
(0.524098 -0.0350666 -1.48818e-20)
(0.519151 0.0016807 1.45605e-20)
(0.0643575 -0.0885951 1.2562e-19)
(0.518977 0.00178412 0)
(0.518455 -0.00123922 4.5298e-22)
(0.516466 0.00114755 3.86155e-22)
(0.52463 -0.0350065 0)
(0.517344 -0.0652866 1.13415e-20)
(0.561024 -0.0186752 0)
(0.502842 0.000791807 4.35976e-21)
(0.553328 0.0245874 -1.05909e-19)
(0.46015 -0.00613925 4.49803e-20)
(0.49999 -3.23629e-05 2.00606e-20)
(0.372291 0.0451129 0)
(0.518242 -0.000279679 3.69688e-21)
(0.515357 0.000533013 1.08299e-24)
(0.517106 -0.00134881 3.29179e-22)
(0.502406 -0.00557774 -2.99868e-20)
(0.602404 -0.01337 0)
(0.339169 -0.00117378 -3.00531e-20)
(0.494408 -0.0012086 0)
(0.532946 -0.00553897 0)
(0.51437 0.000147704 -1.19129e-22)
(0.507404 -0.000852132 0)
(-0.0734476 0.0387044 6.68225e-20)
(0.537237 -0.0598385 -1.96155e-20)
(0.519196 5.97243e-05 0)
(0.502492 0.0231453 1.42546e-20)
(0.508731 0.0140843 0)
(0.474235 0.0093043 6.45411e-20)
(0.493195 0.0211272 0)
(0.517748 -0.000104583 0)
(0.078908 -0.0763364 -1.57223e-19)
(0.518737 -0.000352509 -4.99369e-21)
(0.500577 -0.00264878 8.56717e-21)
(0.500538 0.00190464 0)
(0.480646 -0.00235986 0)
(0.50733 0.0252483 -1.77182e-21)
(0.516644 0.00071446 -3.70902e-21)
(0.502516 -0.00560355 9.69566e-21)
(0.482609 0.0428464 -5.83064e-20)
(0.511978 0.00742785 -2.06313e-21)
(0.522508 0.00168475 -9.05995e-21)
(0.601417 -0.0124698 0)
(0.504613 0.0266123 1.42014e-22)
(0.431281 0.0269802 -7.25137e-20)
(0.512339 0.0176961 -3.3659e-21)
(0.402793 0.019019 8.43154e-20)
(0.536345 -0.0156845 1.14949e-20)
(0.514785 -0.00142554 0)
(0.517573 -0.00264246 3.28313e-22)
(0.508426 0.00666462 0)
(0.524161 0.00151478 6.63829e-21)
(0.223115 0.0416175 4.07736e-21)
(0.508558 0.00667946 0)
(0.239043 -0.0538504 0)
(0.553998 0.0347399 -1.4328e-20)
(0.447521 -0.219429 0)
(0.533504 -0.00529235 2.76543e-21)
(0.520707 0.0213024 2.88623e-21)
(0.474527 -0.0368271 8.03515e-21)
(0.529418 0.00949746 0)
(0.517687 -0.000165691 5.12076e-22)
(0.521906 0.0493498 0)
(0.352033 -0.00390362 0)
(0.527298 0.0150325 0)
(0.485381 0.00275998 0)
(0.526145 0.0080368 4.17811e-23)
(0.524079 0.00142538 0)
(0.501459 -0.012994 2.82022e-20)
(0.498426 0.000130522 -1.52636e-20)
(0.502344 0.0228115 0)
(0.534642 0.0686068 -9.76919e-21)
(0.523222 0.039725 9.64589e-21)
(0.519152 6.31843e-05 2.70085e-23)
(0.406192 -0.0439666 -2.73027e-21)
(0.521825 0.00260404 -1.5936e-21)
(0.518442 0.00575669 5.3735e-21)
(0.516322 0.000217687 -2.62613e-21)
(0.512919 0.00593912 1.39532e-21)
(0.497602 0.00369286 -4.95953e-21)
(0.54631 0.018018 9.16749e-22)
(0.518065 0.00136726 3.61767e-21)
(0.494235 0.00301586 0)
(0.498855 -0.00896785 -5.74555e-20)
(0.501514 -0.0131153 1.58737e-20)
(0.521699 0.00255384 5.69591e-21)
(0.447663 -0.212951 1.95709e-21)
(0.53695 -0.00253488 -1.13238e-20)
(0.518766 -0.000352348 7.31935e-21)
(0.538287 0.00949461 2.92667e-21)
(0.521239 -0.00130984 1.19345e-20)
(0.523693 0.0170541 1.96202e-20)
(0.544407 -0.0221803 -1.1325e-20)
(0.537058 -0.00204981 5.5698e-20)
(0.519715 -0.00561777 -8.35179e-22)
(0.526549 -0.00327071 1.91717e-21)
(0.499934 -4.75749e-05 -6.38792e-20)
(0.539 -0.0184729 -4.43485e-20)
(0.482098 -0.0509652 2.64297e-20)
(0.406719 -0.0429918 3.40837e-21)
(0.516348 0.000219533 3.07949e-21)
(0.556125 0.0348694 7.90153e-21)
(0.515908 0.012968 9.00926e-22)
(0.508866 -0.00942442 0)
(0.518252 0.00128937 -2.432e-21)
(0.518837 0.00181097 -5.57358e-21)
(0.500577 -0.00273018 1.55239e-20)
(0.522656 -0.000479699 -8.51678e-21)
(0.514681 0.000312479 -1.68761e-22)
(0.543049 0.0141558 0)
(0.541732 -0.0577752 -2.89104e-20)
(0.522214 0.00866094 3.56258e-22)
(0.498492 0.000140256 4.68867e-20)
(0.377125 -0.00261515 -2.71326e-20)
(0.491494 0.00292562 3.65881e-20)
(0.486944 -0.00854245 4.75344e-20)
(0.497386 -0.00570815 0)
(0.54367 -0.0141977 -1.90592e-21)
(0.474721 0.00909472 -5.45576e-20)
(0.360207 -0.0751598 0)
(0.495673 0.0183369 2.86393e-20)
(0.441566 -0.00734933 -7.73514e-20)
(0.517153 -0.00157738 0)
(0.510844 -0.00812672 2.02355e-21)
(0.515667 0.000183273 0)
(0.475273 -0.037123 -3.24951e-20)
(0.517147 -0.00148989 -4.68754e-24)
(0.552377 0.0245179 5.85246e-20)
(0.495429 0.0184684 1.69892e-21)
(0.498693 -0.00901096 3.56124e-20)
(0.526099 -0.0237358 0)
(0.517649 0.000230408 3.08584e-21)
(0.532721 -0.000953931 0)
(0.518098 -0.000728171 1.53171e-22)
(0.558072 0.0256658 0)
(0.518864 -1.57284e-05 8.79271e-21)
(0.523656 0.039352 -1.16187e-20)
(0.568254 -0.0201259 1.19634e-19)
(0.518071 0.00139291 -2.51924e-21)
(0.515334 0.000527333 -1.24173e-22)
(0.497317 0.0208133 -2.29888e-20)
(0.506114 -0.0118474 -6.65275e-21)
(0.517069 -0.00102855 -1.81117e-23)
(0.516325 0.0010821 -3.92476e-22)
(0.517693 0.000234437 -2.8947e-21)
(0.538728 -0.0188698 -3.03546e-20)
(0.501241 0.00097117 -1.30773e-20)
(0.554751 -0.0978264 0)
(0.403746 -0.105052 -1.01103e-20)
(0.51456 0.000376142 1.12477e-21)
(0.516347 0.00108499 0)
(-0.0109883 -0.0175212 1.00379e-20)
(0.256154 0.0514611 5.17638e-20)
(0.512544 -0.0293962 8.52869e-21)
(0.536033 0.0262498 -3.0981e-20)
(0.519821 -0.00190508 -5.47254e-21)
(0.511014 -0.0289412 3.60806e-22)
(0.517218 -0.000701012 4.63764e-21)
(0.554846 -0.0963547 2.23096e-20)
(0.538431 0.0209754 -2.76567e-20)
(0.535464 -0.00562739 3.54341e-20)
(0.523639 -0.0260951 4.09589e-21)
(0.532648 -0.00115765 8.41529e-21)
(0.516957 0.0155908 0)
(0.519476 -0.00546643 1.3669e-21)
(0.089829 -0.000291342 0)
(0.523495 0.00295901 1.01538e-20)
(0.542196 0.0141767 2.80857e-21)
(0.523598 0.0498668 1.13165e-22)
(0.50889 -0.00931785 7.27302e-21)
(0.522506 0.00168236 1.67153e-20)
(0.177548 -0.136059 7.97436e-20)
(0.517111 -0.0012764 -6.53926e-22)
(0.568486 -0.0198727 -1.29763e-19)
(0.469715 0.0680571 -4.75566e-21)
(0.513018 0.00590586 -3.00406e-21)
(0.481614 -0.0502481 -4.97782e-20)
(0.401028 0.028935 0)
(0.515765 0.0130561 -7.83024e-22)
(0.54541 -0.0117378 -4.33279e-22)
(0.521155 -0.00132289 -6.17386e-21)
(0.488884 -0.0296154 -1.66214e-20)
(0.52221 0.0268385 -2.12992e-21)
(0.516926 0.0152885 2.2219e-21)
(0.48137 0.0693806 0)
(0.522922 0.00847716 -3.52477e-22)
(0.539303 0.108761 -1.99451e-21)
(0.519842 -0.00164202 4.36058e-23)
(0.280947 -0.114755 3.19969e-20)
(0.539879 -0.0200139 3.05717e-20)
(-0.004442 -0.0107963 0)
(-0.00412637 -0.0104556 -1.02637e-20)
(0.0787946 -0.00244101 2.33838e-20)
(0.514366 0.000161509 -3.47625e-23)
(0.504626 0.0102522 -9.76563e-21)
(0.489889 -0.0398839 3.95817e-20)
(0.499508 0.00548961 0)
(0.500319 0.00102184 0)
(0.52392 0.0170156 -2.22172e-20)
(0.500193 -0.000320408 1.25049e-20)
(0.515932 -0.000437812 -2.06986e-21)
(0.512627 0.00680993 -2.29024e-22)
(0.488241 -0.0295935 -3.94064e-20)
(0.520994 -0.0126778 1.13488e-22)
(0.514232 0.00150417 0)
(0.500785 -0.00167013 0)
(0.517274 0.000439604 0)
(0.501176 0.000935279 0)
(0.500352 0.00104026 0)
(0.496064 0.00351004 0)
(0.519422 0.000811025 0)
(0.5168 0.000585047 0)
(0.518616 -0.0011759 4.38199e-22)
(0.504157 0.00986853 -2.39251e-20)
(0.499923 -2.84254e-05 2.85011e-20)
(0.497599 0.0206977 0)
(0.500442 -0.000101622 0)
(0.531176 -0.00615216 -2.40096e-20)
(0.511704 0.0188865 4.54913e-21)
(0.526427 -0.00367259 -1.92152e-21)
(0.519551 0.0121719 -1.2467e-20)
(0.519819 -0.00159674 9.06067e-23)
(0.516822 0.00553473 1.87966e-22)
(0.518298 0.00583074 -8.67887e-22)
(0.507144 0.00851194 2.29595e-22)
(0.52042 -0.00442051 -9.3396e-22)
(0.384984 0.0534294 0)
(0.543089 0.0045373 0)
(0.559234 0.0255659 2.34732e-23)
(0.53849 0.00705556 0)
(0.408299 -0.104602 -8.77719e-21)
(0.517458 -0.000641221 -2.68966e-23)
(0.516765 0.000574884 -1.5988e-21)
(0.517177 -0.000661053 -5.13691e-21)
(0.400303 0.018091 9.12534e-22)
(0.455317 -0.0258431 -2.43827e-22)
(0.519351 0.000813155 -2.4039e-21)
(0.537012 0.0205791 3.65171e-20)
(0.526646 -0.0108815 -1.67914e-20)
(0.234453 -0.0454706 1.73707e-21)
(0.511529 -0.00515095 -6.98692e-22)
(0.504501 0.0101299 0)
(0.51749 -0.00255919 0)
(0.506096 -0.0117283 7.317e-21)
(0.416379 0.0575621 1.41648e-21)
(0.493472 0.0212765 1.47867e-20)
(0.529362 -0.00121325 1.29064e-22)
(0.531137 0.00634337 3.39e-20)
(0.524428 0.00888799 2.69903e-21)
(0.517068 -0.00100329 -6.95539e-22)
(0.472693 0.027897 2.24185e-20)
(0.506968 0.00844658 2.24784e-22)
(0.275736 -0.0886787 2.73297e-20)
(0.376775 -0.00503144 -8.8547e-21)
(0.505556 0.0459571 2.9754e-20)
(0.452465 -0.0518277 1.81077e-21)
(0.515627 -0.00218487 1.80985e-23)
(0.399411 -0.0140669 -5.43922e-21)
(0.535858 -0.00549984 -3.52169e-20)
(0.529655 0.00855484 0)
(0.536588 -0.0112213 0)
(0.494384 0.00300964 1.19871e-20)
(0.467072 -0.0107284 0)
(0.46338 -0.0270201 -5.24252e-20)
(0.486925 -0.0179636 -1.0023e-20)
(0.483888 0.000301575 5.09255e-22)
(0.38963 -0.050175 -1.12231e-19)
(0.52233 -0.00169579 2.11162e-20)
(0.522304 -0.00164208 -1.99043e-20)
(0.439612 -0.0152966 0)
(0.546719 -0.0240254 0)
(0.518599 0.00135561 0)
(0.482805 -0.00402337 -1.49136e-22)
(0.579921 0.135342 -8.65406e-22)
(0.518562 0.00138107 1.56808e-21)
(0.530798 0.00658641 -1.64676e-20)
(0.222558 -0.0684926 0)
(0.526512 -0.0237895 1.61159e-21)
(-0.0121523 -0.0198204 2.0171e-20)
(0.285763 -0.0902845 -5.2467e-21)
(0.526766 0.0133254 -1.28313e-20)
(0.504308 0.00992039 7.22935e-21)
(0.524552 -0.00831365 2.2787e-21)
(0.469376 -0.0403654 -7.84357e-20)
(0.468578 -0.0398751 7.00824e-20)
(0.495014 -0.0177454 0)
(0.481449 -0.0576976 0)
(0.00883975 -0.011197 -2.12788e-20)
(0.512541 -0.000975637 -6.40283e-23)
(0.512516 -0.000982227 5.91346e-23)
(0.523219 -0.0104208 0)
(0.52303 0.0113375 2.93876e-21)
(0.531022 -0.00528588 -2.02492e-21)
(0.52056 -0.00435778 -8.36279e-22)
(0.499926 -0.00152852 4.82221e-21)
(0.482757 -0.00433867 1.90206e-22)
(0.459533 -0.0418086 -3.35986e-21)
(0.51983 0.012198 1.32299e-20)
(0.512909 0.000901327 6.40483e-23)
(0.512914 0.000916026 0)
(0.525574 -0.0236423 -2.54647e-21)
(0.490341 -0.0392006 -1.61976e-20)
(0.471526 -0.0157544 0)
(0.505098 0.0797024 1.91529e-21)
(0.510287 -0.00335124 -9.08296e-22)
(0.394874 -0.0775015 0)
(0.568381 -0.00491993 -6.58052e-20)
(0.440211 0.00605339 -5.51669e-20)
(0.519913 -0.0125891 -3.50932e-22)
(0.50825 -0.00623906 2.13907e-21)
(0.531591 -0.0193492 -2.38653e-20)
(0.356576 -0.297313 -1.50119e-21)
(0.386323 -0.0785014 0)
(0.47084 0.0686842 -6.23886e-22)
(0.503833 0.0784603 0)
(0.142751 -0.122695 0)
(0.48368 0.0196371 0)
(0.530316 0.00999036 -1.75211e-21)
(0.557551 0.150912 -3.32171e-20)
(0.529625 0.0202283 -1.16215e-20)
(0.520349 -0.000976206 2.84036e-21)
(0.530952 -0.020895 1.04127e-20)
(0.505475 0.0057626 0)
(0.529423 -0.00130063 0)
(0.51445 -0.00377471 0)
(0.519343 -0.00213906 2.46465e-21)
(0.514416 -0.00388217 -8.46617e-23)
(0.524154 0.0083934 1.27035e-21)
(0.532281 0.00595607 0)
(0.500101 0.00123312 1.79469e-20)
(0.542523 0.00423796 -1.17263e-20)
(0.517704 9.26133e-05 -1.26436e-20)
(0.500944 -0.00673218 0)
(0.454346 -0.0252723 1.43963e-20)
(0.519597 0.000379796 0)
(0.510726 0.0113139 -1.21267e-20)
(0.500237 -0.00282035 3.82061e-20)
(0.500219 -0.000347764 -5.41272e-20)
(0.532644 0.0124305 8.35898e-21)
(0.495448 -0.0223566 2.01491e-20)
(0.424465 -0.0218605 -3.52226e-21)
(0.538075 0.00627879 0)
(0.529919 0.0201141 -4.17844e-21)
(0.519205 -0.00228971 -2.20057e-21)
(0.495266 -0.0176488 0)
(0.520776 0.00215947 2.55735e-20)
(0.528029 -0.130225 0)
(0.536662 0.0473409 1.46431e-20)
(0.463964 -0.0275535 0)
(0.51638 0.00163317 0)
(0.536906 -0.0110806 -2.67543e-21)
(0.260557 0.0562478 -5.19339e-20)
(0.464011 -0.0405476 -2.51025e-20)
(0.532114 0.0122605 0)
(0.476331 0.0286476 -1.9307e-20)
(0.500087 0.0012654 4.3797e-23)
(0.149828 0.146486 -1.08372e-20)
(0.503025 0.000836873 0)
(0.51168 -0.000471473 -2.67739e-23)
(0.440715 -0.0160965 -1.69923e-20)
(0.464957 -0.039891 -1.08741e-20)
(0.417161 0.0605659 -1.2544e-21)
(0.531073 -0.0192415 3.881e-20)
(0.22388 0.0312987 -1.53197e-21)
(0.500538 -0.0023427 -2.68528e-20)
(0.519635 0.000408 3.37244e-21)
(0.499564 0.00558515 -1.20459e-20)
(0.526474 -0.0105816 1.67637e-20)
(0.0600052 0.023581 -1.04988e-19)
(0.508401 0.00155368 5.53145e-21)
(0.498938 -0.00575546 -6.30311e-21)
(0.497045 -0.0285359 0)
(0.516878 0.00587611 0)
(0.530028 -0.0215227 8.32665e-21)
(0.520397 0.0213244 0)
(0.514245 0.00151354 0)
(0.374303 0.115462 4.95263e-20)
(0.535416 0.0262845 2.54377e-20)
(0.509545 0.00167297 -2.71283e-21)
(0.515487 -0.0011821 0)
(0.483612 0.0200587 -3.81575e-22)
(0.50079 -0.00162694 0)
(0.518298 0.0119659 -6.31926e-21)
(0.499904 -0.00156097 1.94264e-20)
(0.515641 0.000174846 7.71305e-22)
(0.520672 0.00220087 -1.79326e-20)
(0.537448 0.0429137 -1.89165e-20)
(0.500359 0.0214986 1.02195e-20)
(0.532285 -0.00212047 1.07164e-20)
(0.518523 -0.00115317 0)
(0.518037 -0.000661031 0)
(0.518464 0.000528433 0)
(0.383546 0.0497889 1.13077e-21)
(0.406908 -0.0543455 2.19544e-19)
(0.0135179 -0.0116198 2.14269e-20)
(0.456819 -0.0435853 2.06604e-21)
(0.5447 0.045312 0)
(0.516533 -0.000587696 3.53888e-21)
(0.178974 -0.13504 0)
(0.491024 0.00375777 -8.77433e-21)
(0.400212 -0.0105461 6.87658e-21)
(0.519806 -0.00184959 0)
(0.518504 -0.00115766 0)
(0.512564 -0.00122019 0)
(0.557311 -0.0199664 -1.06598e-20)
(0.531203 -0.00621649 2.47606e-20)
(0.509921 0.0013283 4.58482e-21)
(0.495855 -0.0223955 6.19646e-21)
(0.519146 -0.000480502 1.2876e-20)
(0.499994 0.00165151 -3.49904e-20)
(0.521769 -0.00694462 1.15991e-21)
(0.517237 0.000447804 0)
(0.534559 -0.00858775 8.30337e-22)
(0.511737 -0.00950649 0)
(0.535014 -0.00642991 1.84976e-22)
(0.51909 -0.000505485 -9.90464e-21)
(0.496218 0.00353544 5.09679e-21)
(0.510597 0.00236765 -1.16512e-21)
(0.501016 -0.00224789 0)
(0.517207 -0.000640008 -3.35871e-21)
(0.604948 0.0532595 0)
(0.514096 -0.00141378 0)
(0.515463 -0.00115273 0)
(0.532077 -0.00203376 -1.45857e-20)
(0.461152 -0.0991464 -2.15062e-20)
(0.512304 0.0518057 -1.41418e-20)
(0.505578 0.00580128 0)
(0.278589 0.238613 0)
(0.517258 0.00692186 0)
(0.517468 0.00688758 -4.13598e-23)
(0.512543 -0.00124716 0)
(0.150161 0.145709 0)
(0.536689 0.00438984 -6.3913e-21)
(0.499547 -0.00292004 -2.64693e-20)
(0.545862 0.0199819 3.42239e-21)
(0.515923 -0.000440128 -1.26447e-21)
(0.518416 0.000411398 6.79799e-22)
(0.508192 0.0241838 4.71766e-21)
(0.509263 0.124494 3.94669e-22)
(0.520787 -0.0051524 0)
(0.361846 -0.0706985 0)
(0.518497 0.000522941 2.7375e-22)
(0.516371 0.00048167 5.49505e-22)
(0.500503 -0.00234283 0)
(0.523236 -0.0101315 0)
(0.437575 -0.0213853 -3.41979e-20)
(0.402242 0.0312175 0)
(0.514325 0.000554591 -5.45991e-23)
(0.488882 0.0222854 -5.07814e-21)
(0.533246 -0.000882997 -2.11365e-20)
(0.414529 0.20465 -2.20759e-20)
(0.52082 0.000294982 -8.50925e-21)
(0.512598 0.00701415 0)
(0.51645 0.00169209 0)
(0.512447 0.0066249 0)
(0.440065 0.21422 -4.74569e-20)
(0.46288 -0.0348978 0)
(0.54397 0.0350655 4.78761e-20)
(0.533015 -0.000858424 0)
(0.545429 0.0336175 -5.44798e-20)
(0.50823 0.0318723 1.89328e-20)
(0.501028 -0.00677357 0)
(0.519468 -0.0028892 -3.3008e-21)
(0.462503 -0.0359492 0)
(0.500159 -0.000698844 3.31196e-20)
(0.498518 -0.000835157 0)
(0.563598 0.0414442 -2.76482e-22)
(0.499991 0.00159637 1.56986e-20)
(0.515432 -0.00217809 0)
(0.548179 0.00816118 5.0118e-20)
(0.517178 -0.000646213 3.8726e-21)
(0.508908 0.00109718 -2.24438e-21)
(0.53631 0.0465878 0)
(0.148747 -0.0639387 7.37487e-21)
(0.515807 -0.000265249 -9.61681e-22)
(0.455443 -0.036119 -1.26497e-20)
(0.511596 -0.00930604 -1.83544e-22)
(0.231236 -0.0670747 -3.30807e-20)
(0.51841 0.000430911 2.16305e-21)
(0.522802 -0.00917292 5.64919e-21)
(-0.0062149 -0.0131981 1.07599e-20)
(0.51651 -0.000566096 0)
(-0.00460071 -0.0123207 2.61822e-21)
(0.515463 0.0455113 -4.52544e-20)
(0.500004 0.0215766 1.03728e-20)
(0.515511 0.000597402 -1.50549e-23)
(0.455887 -0.0101082 4.46723e-20)
(0.510613 -0.0303229 0)
(0.502138 0.00154345 0)
(0.501133 -0.00484721 -4.82179e-21)
(0.539129 0.0415066 0)
(0.497479 0.00362043 0)
(0.553808 0.150482 3.23303e-20)
(0.517735 8.81207e-05 1.00235e-20)
(0.511707 -0.000464153 -1.32039e-25)
(0.49169 -0.00203067 -1.8028e-20)
(0.500965 0.000933924 2.55329e-24)
(0.499541 -0.00058303 4.55698e-20)
(0.521225 -0.00505925 0)
(0.49908 -0.0368217 1.07633e-20)
(0.508662 0.0317332 -1.21127e-20)
(0.501265 -0.00709301 9.71635e-21)
(0.531594 -0.013123 5.46937e-21)
(0.50121 -0.00487148 0)
(0.51152 0.00961089 5.92237e-21)
(0.516514 0.000455899 -3.78221e-22)
(0.511599 0.00970363 -1.48248e-20)
(0.531786 -0.00509519 1.10945e-21)
(0.500283 -0.0028526 -4.35937e-20)
(0.504587 0.00446365 -3.67495e-22)
(0.51533 0.00237235 2.17887e-21)
(0.50091 0.00270239 -3.08093e-20)
(0.522635 -0.000445775 8.56355e-21)
(0.513372 -0.00147343 -1.20751e-21)
(0.540292 0.0376579 -3.22372e-20)
(0.382474 0.120217 -3.36601e-20)
(0.502102 -0.0062427 -1.22299e-20)
(0.523382 0.00301338 -8.33353e-21)
(0.508189 0.0238895 -5.18095e-22)
(0.520429 -0.00145611 1.54506e-21)
(0.499666 -0.00139498 5.60932e-20)
(0.49249 0.0392017 -4.18243e-20)
(0.518206 0.00306152 -1.42093e-22)
(0.519056 -0.00165321 -7.34213e-21)
(0.494153 0.00859937 1.60997e-20)
(0.496118 -0.00444645 -9.85613e-21)
(0.525156 0.000143977 1.31656e-20)
(0.391983 0.107945 5.3133e-20)
(0.500121 -0.000670744 -1.33495e-20)
(0.510635 0.00192562 -1.2404e-21)
(0.515361 -0.000290511 -1.16695e-21)
(0.53985 0.0358932 -1.0879e-21)
(0.502981 0.000809619 -4.12682e-21)
(0.564005 -0.00433577 0)
(0.499002 0.000669914 0)
(0.500404 -0.000106327 0)
(0.494042 -0.0050107 0)
(0.500963 -0.00223738 0)
(0.604826 0.0524536 -4.59767e-20)
(0.517187 -0.00439309 0)
(0.535738 -0.000677116 8.83784e-23)
(0.524394 -0.00862566 0)
(0.526467 0.0132399 1.0968e-20)
(0.354304 -0.299104 1.41666e-21)
(-0.00475859 0.00430558 0)
(0.530884 0.00510388 1.88845e-22)
(-0.0807412 0.0564684 -6.47376e-20)
(0.554363 0.054802 1.4762e-20)
(0.514346 0.000545101 1.14106e-22)
(0.522042 0.00440918 0)
(0.548517 0.0610316 0)
(0.476305 -0.0137667 -6.97192e-22)
(0.500946 0.000970367 -3.89756e-20)
(0.516186 -0.000766756 0)
(0.47861 -0.0161494 -4.93574e-21)
(0.518742 5.48864e-07 2.33973e-21)
(0.522765 -0.00927265 0)
(0.507444 0.0835091 0)
(0.46844 0.00599149 -6.05959e-20)
(0.341788 -0.0387432 0)
(0.498948 -0.0112255 5.48416e-23)
(0.130692 -0.0658102 0)
(0.525199 0.000225441 1.38316e-20)
(0.0152379 -0.0127853 -1.46642e-22)
(0.53004 -0.01694 0)
(0.509252 -0.0122122 -4.3829e-22)
(0.477987 0.000274865 0)
(0.50938 -0.0116616 0)
(0.452706 -0.0349024 0)
(0.495758 -0.00891469 1.91091e-20)
(0.487614 0.00709931 -6.92101e-20)
(0.523167 0.0115648 0)
(0.542219 0.025232 1.25956e-20)
(0.497408 -0.000800553 -4.50073e-21)
(0.498799 -0.0112317 -1.95424e-20)
(0.421035 -0.0235133 0)
(0.479412 0.034669 -3.04171e-20)
(0.514422 0.00141959 1.07302e-22)
(0.518417 0.000241116 -8.40837e-21)
(0.565409 -0.00419919 0)
(0.476088 -0.0124457 2.51051e-20)
(0.518289 0.00298755 -2.16211e-23)
(0.500857 0.00270704 3.08037e-20)
(0.534473 0.000235224 -2.35348e-20)
(0.562607 0.040359 -7.28135e-20)
(0.520668 0.045334 6.66188e-21)
(0.48166 -0.00260446 -2.82057e-20)
(0.519587 -0.00398513 -1.13132e-20)
(0.534462 -0.0037766 5.65716e-21)
(0.502532 0.00758202 0)
(0.47844 0.000375516 2.6654e-20)
(0.326861 0.0475272 7.83211e-20)
(0.521877 0.00450084 3.71864e-22)
(0.519644 0.00290454 0)
(0.530185 -0.0161193 2.05834e-22)
(0.516805 0.000436896 0)
(0.545145 -0.0199408 -2.49129e-20)
(0.518468 0.00105046 0)
(0.491455 0.00265807 0)
(0.525129 0.00208681 0)
(0.513583 -0.00125292 -9.16432e-22)
(0.560673 -0.0120851 1.0463e-20)
(0.510544 0.053833 0)
(0.392754 0.0657892 3.8359e-21)
(0.499879 -0.00254757 1.39668e-20)
(0.502137 -0.00126777 0)
(0.500232 0.018169 -3.23743e-20)
(0.468736 0.00540412 5.45303e-20)
(0.479239 0.0351367 0)
(0.462273 -0.0976104 2.22546e-20)
(0.490445 0.0170063 3.72827e-20)
(0.530983 -0.019627 -4.30869e-21)
(0.273649 -0.113883 -5.59915e-20)
(0.519159 -0.00170282 -2.9122e-21)
(0.510031 0.00239492 0)
(0.499077 -0.0361817 0)
(0.510572 0.00183017 0)
(0.518412 0.00022954 7.70096e-21)
(0.506648 0.0382823 3.62557e-21)
(0.518742 -1.65554e-06 0)
(0.519654 -0.00297339 0)
(0.0813743 0.0301401 -9.32308e-21)
(0.3941 0.0647716 -8.50383e-21)
(0.497575 -0.0285964 -2.34493e-20)
(0.517854 -0.0155474 0)
(0.516824 0.000449421 0)
(0.526946 0.0163699 1.19668e-20)
(0.510308 -0.00361201 9.38828e-22)
(0.335055 0.100558 1.27138e-20)
(0.490643 0.0167245 0)
(0.531044 0.0106952 -2.01572e-21)
(0.501539 0.000357394 1.34094e-20)
(0.517043 0.000693155 0)
(0.519457 -0.0124534 7.42457e-21)
(0.518216 -0.000180801 -5.74481e-21)
(0.515837 -0.000276742 -9.15135e-22)
(0.544766 -0.00230293 5.53973e-20)
(0.514072 -0.00141097 -7.27545e-23)
(0.497335 -0.000730139 2.93542e-20)
(0.491891 -0.0020155 -4.42747e-20)
(0.463169 0.150195 4.24778e-21)
(0.510622 0.00527129 -7.6434e-22)
(0.471557 -0.0941518 -4.80394e-20)
(0.523132 0.00419207 0)
(0.48635 -0.0190959 -4.59908e-20)
(0.461672 -0.0242901 -3.34907e-20)
(0.5195 -0.000462887 5.1261e-21)
(0.500476 -0.0035026 -4.60765e-21)
(0.516198 -0.00075338 0)
(0.395535 0.110139 -4.07754e-20)
(0.526536 0.000586985 0)
(0.52006 -0.00111896 0)
(0.451153 -0.051806 -5.67278e-20)
(0.537812 -0.028014 0)
(0.521218 -0.00682605 -9.36631e-22)
(0.275248 0.12824 -1.18115e-19)
(0.500542 0.018298 2.91752e-20)
(0.513874 -0.0636306 8.19476e-20)
(0.510867 0.0112086 1.43412e-20)
(0.535508 0.00464681 4.50387e-20)
(0.494383 0.00849719 -2.8895e-21)
(0.502937 -0.000594525 1.25071e-20)
(0.502653 0.00761677 1.91231e-20)
(0.515467 -0.00109961 1.50831e-22)
(0.516286 -0.000516789 0)
(0.514438 0.00174819 0)
(0.534434 0.000242904 2.25883e-20)
(0.515728 0.000421008 -2.60797e-22)
(0.495191 -0.00286739 -2.46556e-20)
(0.500516 -0.00353164 1.55005e-20)
(0.519377 0.00286816 1.36885e-22)
(0.483948 5.66117e-05 -3.77398e-22)
(0.532158 0.00620505 1.07104e-21)
(0.514481 0.00180024 1.9723e-22)
(0.50956 0.1221 -2.32469e-21)
(0.540879 0.0249185 -2.14754e-20)
(0.564164 -0.0299991 -7.72979e-20)
(0.433793 0.0372639 4.03568e-20)
(0.287695 0.234204 0)
(0.501173 -0.00702641 -1.12497e-20)
(0.519915 -0.00188709 0)
(0.513327 -0.000434388 -2.1345e-22)
(0.448014 -0.0311216 6.00637e-22)
(0.51626 -0.000510415 0)
(0.526377 0.000488558 6.78207e-21)
(0.525288 0.0263579 0)
(0.51565 -0.00113621 -4.80369e-22)
(0.515687 -0.0011324 -2.68734e-22)
(0.502929 -0.0103728 1.07517e-20)
(0.167586 0.00921675 8.24503e-20)
(0.517721 -0.000302973 -1.11379e-20)
(0.512353 -0.000547492 -1.57946e-22)
(0.487276 -0.0181441 5.49043e-20)
(0.536329 -0.0433406 -3.28036e-21)
(0.481821 -0.00279185 -6.32179e-22)
(0.448123 -0.0309286 1.10632e-22)
(0.515402 0.00247481 -1.82868e-21)
(0.560262 0.188829 2.04043e-20)
(0.488306 -0.0170344 -6.29463e-21)
(0.514745 -0.00130559 0)
(0.516393 -0.000887069 0)
(0.517893 0.00273464 -4.58393e-21)
(0.535924 -0.0427632 3.4227e-21)
(0.517719 -0.00028245 7.07025e-21)
(0.521728 -0.00158485 0)
(0.520131 9.33797e-05 1.31763e-21)
(0.570903 -0.0469644 0)
(0.522008 -0.000925751 8.20948e-21)
(0.518196 0.0440496 0)
(0.577686 0.136552 2.17183e-20)
(0.518487 0.00102283 7.45326e-21)
(0.504492 0.012351 0)
(0.51481 -0.00133931 -3.59356e-22)
(0.518357 -0.000247919 -1.12379e-20)
(0.486958 0.019827 0)
(0.517801 0.00275003 -8.14558e-21)
(0.51861 0.0444837 -7.10572e-21)
(0.21892 -0.0649435 -3.58179e-21)
(0.513299 -0.000404271 -1.73111e-22)
(0.54398 0.0775142 0)
(0.485116 0.0659313 0)
(0.489049 -0.0509067 1.24628e-22)
(0.51649 7.1476e-05 9.30722e-22)
(0.565811 0.0276418 0)
(0.522959 0.00421109 0)
(0.535713 -0.000602763 0)
(0.490987 0.00340732 -3.11494e-20)
(0.520829 0.000270029 7.72379e-21)
(0.550847 0.00808903 0)
(0.531656 0.00464926 -1.56166e-21)
(0.49963 -0.0014301 -3.76452e-20)
(0.515413 0.000696853 2.21555e-22)
(0.521963 -0.000955295 0)
(0.519003 -0.0194296 -2.86343e-21)
(0.500591 -0.00462422 0)
(0.543918 -0.0136485 0)
(0.499314 0.00240174 -1.38335e-20)
(0.517375 0.000581522 4.0376e-21)
(0.179793 -0.161808 4.49674e-21)
(0.485696 0.00292348 2.16721e-20)
(0.529544 -0.0194445 1.34415e-20)
(0.544366 -0.00201393 -5.91312e-20)
(0.514206 0.00139768 2.90508e-22)
(0.515463 0.000707554 0)
(0.482651 -0.0575295 0)
(0.48057 0.0205179 0)
(0.517609 -0.000649127 0)
(0.0911574 0.0401348 1.98645e-20)
(0.502704 -0.00673242 -5.07406e-21)
(0.459546 0.0483201 6.88968e-21)
(0.500024 0.000200879 2.63029e-20)
(0.495217 -0.00278267 0)
(0.529451 -0.0196878 -2.50604e-20)
(0.517586 -0.000630312 0)
(0.0147054 -0.00776529 6.57425e-20)
(0.488317 -0.0102583 -5.28008e-20)
(0.518222 -0.000134264 4.85682e-21)
(0.520063 9.56926e-06 -1.31864e-21)
(0.516433 0.00106016 0)
(0.154943 -0.116441 -4.25003e-20)
(0.519208 -0.0124728 7.80653e-21)
(0.498601 -0.0171745 0)
(0.5168 0.000551187 -3.64104e-23)
(0.521796 -0.00166293 0)
(0.487089 -0.0539069 0)
(0.43439 0.0359736 -4.03655e-20)
(0.516735 0.000579601 -1.47384e-23)
(0.550479 0.00738531 0)
(0.396519 0.0284239 -1.43515e-21)
(0.479975 0.0245412 0)
(0.531152 0.00515021 8.73186e-22)
(0.499613 0.00349082 -1.72537e-20)
(0.534559 -0.00274642 -2.41075e-21)
(0.326488 0.0512354 -8.2991e-20)
(0.52364 -0.00478445 4.99953e-23)
(0.516886 0.00466157 0)
(0.568807 -0.046903 -2.60052e-20)
(0.521355 0.042171 4.92914e-20)
(0.458992 0.0463398 0)
(0.500017 0.000175139 0)
(0.498349 -0.0171613 2.02113e-20)
(0.554102 -0.0199966 3.5169e-20)
(0.519382 -0.00391059 0)
(0.362254 -0.112723 -5.5953e-20)
(0.500669 0.0111903 -2.01915e-22)
(0.487916 0.00719101 7.69107e-20)
(0.465746 0.0589133 2.89756e-20)
(0.0362246 -0.129333 -8.17323e-20)
(0.502142 -0.00615953 0)
(0.499664 0.00351212 -6.18583e-21)
(0.510626 -0.00809998 7.34534e-21)
(0.538518 -0.0925903 -1.42289e-20)
(0.504651 0.0123289 0)
(0.516618 -0.000576675 -2.01958e-21)
(0.516333 -0.000863603 0)
(0.514433 0.00310688 -5.94745e-22)
(0.517494 -0.000634694 -4.40002e-21)
(0.51354 -0.00275071 0)
(0.516991 0.00462163 -1.00516e-21)
(0.510606 0.00509409 -3.09893e-21)
(0.488394 -0.0467017 0)
(0.515847 -0.000292317 3.48645e-23)
(0.503427 0.000345455 2.47625e-20)
(0.459176 -0.0865088 -4.69965e-20)
(0.500019 8.79061e-07 5.67135e-20)
(0.518319 -0.000206248 1.45129e-20)
(0.528448 -0.127966 0)
(0.585028 -0.0723069 0)
(0.530081 -0.0139663 1.92083e-21)
(0.525267 0.00213874 0)
(0.30941 -0.00308034 0)
(0.54668 0.0221697 3.76203e-21)
(0.0668805 0.0257541 7.34406e-20)
(0.540728 -0.0055976 9.11516e-21)
(0.503028 -0.000551077 0)
(0.535617 -0.0041278 -2.07276e-20)
(0.515543 -0.00109153 -1.66732e-22)
(0.543384 0.00286619 0)
(0.583967 -0.0736745 0)
(0.503856 -0.00262927 6.66531e-21)
(0.503899 0.00679397 0)
(0.520001 0.0145632 1.999e-21)
(0.50272 0.00205621 -1.39376e-21)
(0.480052 0.0365965 1.40425e-20)
(0.52586 -0.00641479 0)
(0.508562 0.0112792 -1.07497e-20)
(0.503536 0.000341436 -5.23689e-21)
(0.155774 0.0108624 -8.62783e-20)
(0.476037 0.125904 5.26568e-21)
(0.517013 0.000675053 0)
(0.521092 0.000414927 0)
(0.410321 0.00483439 0)
(0.5165 -0.000652512 -2.49547e-23)
(0.511743 0.00103985 -3.18066e-22)
(0.514529 0.00300649 8.91601e-22)
(0.513562 -0.00605089 -5.37245e-23)
(0.523857 0.00277303 -2.45904e-20)
(0.478051 0.0381247 -5.3211e-21)
(0.501241 0.000820542 0)
(0.514413 -0.012225 -2.6014e-21)
(0.499022 0.0027723 4.54963e-20)
(0.509003 0.0205785 -5.9535e-22)
(0.528142 -0.0021847 -2.47807e-21)
(0.514348 0.00306951 -2.78093e-22)