/*--------------------------------*- C++ -*----------------------------------*\
  =========                 |
  \\      /  F ield         | OpenFOAM: The Open Source CFD Toolbox
   \\    /   O peration     | Website:  https://openfoam.org
    \\  /    A nd           | Version:  9
     \\/     M anipulation  |
\*---------------------------------------------------------------------------*/
FoamFile
{
    format      ascii;
    class       volScalarField;
    location    "20";
    object      p;
}
// * * * * * * * * * * * * * * * * * * * * * * * * * * * * * * * * * * * * * //

dimensions      [0 2 -2 0 0 0 0];

internalField   nonuniform List<scalar> 
112055
(
0.018226
0.00460209
-0.00350416
-0.0044359
0.00189925
0.00764773
0.0176406
-0.00433653
-0.00151167
0.0178257
0.00463309
0.0167363
-0.00136176
0.0167364
0.0275593
-2.6776e-05
-0.0692284
0.0213908
0.00459581
-0.00194247
2.46108e-05
0.000111912
0.00461076
-6.1395e-05
0.000388947
0.000605352
0.039899
0.00599602
0.00760963
2.6088e-05
0.00871336
-0.0156459
-0.000174938
-0.0632916
-0.00151853
-0.000114056
-0.0019923
0.0628564
-0.00967569
-5.66176e-06
-0.000288691
-0.00880485
0.000724405
-0.00343379
0.0219162
-0.000873251
-0.0631434
0.000599245
0.000429525
-0.00862196
-0.00428892
-0.0210215
7.30212e-05
-0.00941129
-0.00214494
0.0177624
0.000226088
0.000803421
-0.013437
-0.00089099
0.0145589
0.000606995
-4.17073e-06
-4.61894e-06
0.0113219
-0.00179857
0.0653957
2.13345e-05
0.00275745
-0.000467331
0.000777211
-0.0709041
4.86409e-05
0.0365396
-0.0420458
-0.0444496
0.0044153
0.0180859
-0.0158487
-0.00914725
8.58207e-05
-0.0478804
-0.00417255
0.000608447
-2.00333e-05
0.00237487
-0.00541568
-0.00211617
0.00291957
-0.00208207
-3.03101e-06
-0.000119062
-0.00573901
0.00179788
-0.0412233
0.00438052
-0.00805293
0.0272194
0.00871013
0.000230866
-0.00135322
-0.000102885
-0.000117277
0.00542578
-0.045146
-0.0682852
0.0113084
1.2347e-05
-5.3656e-05
0.0023575
-0.0707648
-0.0262225
-0.00184294
0.00628818
0.00277379
0.0206993
0.0111474
-8.46326e-05
0.00359512
-0.00156063
0.00631897
0.00600678
0.0177751
1.75801e-05
-0.000283345
0.00534802
-0.0674296
9.70005e-05
-0.00189131
-0.0441221
1.67481e-05
0.0396017
1.87664e-05
0.0519271
-0.009934
-6.53152e-06
-0.000117952
0.00227972
-0.00287214
0.00471791
0.00220804
0.00411578
-0.00647486
0.008613
9.06726e-06
-0.00292676
0.0195498
9.96459e-06
-8.82564e-05
0.000163958
-0.0690875
0.000103376
0.0155375
6.37814e-05
-0.0028641
0.0066887
0.0094486
0.00637593
-0.0126871
-0.00461241
-0.00182372
5.19985e-06
-0.00109446
-0.00201076
-0.000446497
0.000197077
0.00953172
-0.0159491
-0.000466117
0.0113501
0.00826743
0.00666164
-0.00110539
0.00843076
-0.0115872
-0.00158266
0.000412958
-0.00195109
-0.00430028
0.000438154
-0.0114733
-1.25752e-05
7.66383e-05
0.00873981
-0.011613
0.0150575
6.68914e-06
-0.000461871
-0.00672711
-0.000754671
0.00233924
-0.000169794
-0.0020391
0.00634093
-0.002874
3.82861e-06
-0.00753516
-0.0268603
0.000242531
0.00941333
0.0620871
0.0126689
0.014656
1.14028e-05
8.59898e-05
0.0204517
0.0654134
0.00995209
-0.0688044
-0.000120869
0.00129467
-0.000263862
0.0191552
-0.000124425
-0.00782906
0.0100733
0.0083641
-0.00575771
-0.00106976
-0.0048564
-3.74129e-06
-0.0223497
-0.00178734
-0.0048133
-0.0344241
-0.000476446
-9.81373e-05
0.00904277
0.0039552
-0.000202678
-0.000112696
-0.00108235
-0.0115167
0.00515808
-0.027863
0.000480391
2.07114e-07
-0.000115333
-0.0765151
0.0989886
7.04187e-06
-0.0107322
-0.000900589
6.81005e-06
-0.000662835
-0.0277312
-0.00567126
-0.00813934
4.54943e-05
-0.00469569
-0.00114796
-2.49801e-05
-0.0543047
-0.000935847
-0.00731037
0.000174624
0.0023027
-0.00192078
-0.0208748
-0.000120423
-0.0346808
0.0200682
0.000151088
0.0154454
0.0522501
-0.000686616
8.63466e-05
-0.00191328
0.0129224
2.04396e-05
-0.00114016
0.0023663
0.000241979
-0.0199375
-0.000698244
0.00375432
-0.039662
-0.0722661
-0.0712796
-0.0531684
-4.81468e-05
0.00471147
0.0119371
0.00792558
0.00583017
-0.00445713
0.00564466
-0.000208886
9.47261e-05
0.0132062
0.000371129
-5.31787e-06
0.00566358
-0.000815324
0.00519049
0.00581042
0.0104011
-0.00155335
-0.000457341
-2.12526e-06
0.00494582
0.00874698
0.00890001
0.0054724
-0.00645868
1.83294e-05
8.42528e-05
-0.00240927
-0.000677242
2.86135e-06
-0.00196078
0.00311878
-8.14845e-05
0.000194869
-0.00919656
-0.022957
-0.00351286
0.000488351
-0.000806532
-0.000449929
-0.000672006
0.0530097
0.0289725
-0.00153332
-0.00539955
-0.00518833
0.004077
0.00077921
0.00476018
-0.000113254
0.00393971
0.000142964
0.0109781
-0.00397776
-0.00507855
5.73047e-05
-0.000192854
0.00102116
0.00321021
-0.00647076
0.062072
-0.0668129
0.00037491
-1.20737e-05
6.69316e-06
-0.00828567
1.42343e-05
-0.00942899
0.0112738
8.29244e-05
0.0252333
0.0143222
0.0162353
-0.0557853
-0.00211157
-0.00212206
0.0362955
0.000451174
-0.000157455
0.0167144
-0.0483398
-0.000157361
-0.00493641
0.108485
4.3979e-05
-0.0764
-0.00778408
-0.00570202
0.0048547
-0.00128152
0.0218245
0.0222636
0.010216
0.0151309
0.141925
-4.14287e-06
-7.62134e-07
-0.00379853
-0.00392552
0.000141511
-9.06479e-05
0.00768751
0.0167283
5.17282e-05
-0.00252846
-2.95758e-06
-3.47775e-06
-0.00548527
0.0117568
0.0217753
0.00179277
0.0012019
0.000464362
-0.020346
0.0361737
0.000380179
0.00233332
-0.00811612
-0.0102844
0.000474799
0.0193594
0.00253422
-0.0224083
0.0159198
0.000103239
-0.0368156
-0.00727977
-0.000491622
-0.00023224
0.00364548
-0.00392731
-2.69944e-06
-0.000615549
-2.20554e-06
5.628e-05
-0.00778829
0.00665947
-0.00904747
-0.00108883
0.00671685
0.0294351
-0.0018002
0.00157885
0.00692965
0.00563609
-0.00509277
0.00985597
7.28798e-06
-0.00370559
-0.00745404
-0.000600872
0.0100804
-0.00260485
-0.0161925
-0.0120384
0.0249073
-1.5351e-05
-0.00954297
0.098274
0.0244359
-0.00496376
0.000972765
0.00668921
0.00818647
0.00429406
-7.51993e-06
0.0358308
0.0240636
0.00013887
-0.00783869
0.00445354
0.0062634
-0.00180229
0.00787585
-0.00508467
-0.0722535
4.78127e-06
9.8741e-06
0.0088102
4.17879e-06
-0.000119058
-0.00274214
-2.35142e-06
0.00145425
-0.0103903
6.11127e-07
-1.35003e-05
0.015915
0.00564934
0.000339061
0.00771647
-0.000251709
-0.00256343
-0.00334059
0.00742366
-0.00405099
-0.000858167
-2.51847e-06
-0.00133946
0.00019963
-0.055687
-0.0805906
5.39692e-05
-0.0161825
-0.000412164
-0.0192225
0.0128697
8.09409e-06
-0.000878858
-0.000841392
1.19746e-06
-0.0384638
-0.00654914
-1.32829e-07
0.00963671
-0.00199998
0.00741028
0.000112557
-0.000795877
4.39822e-05
0.000978767
4.45435e-05
-0.00197711
0.0103279
7.19022e-06
0.00567372
-0.000691193
-0.0542289
-6.19088e-06
-1.64313e-05
-0.00409537
0.0215189
-0.000297851
0.00359642
0.0654214
7.27873e-06
8.66378e-07
-5.27188e-08
0.00777759
-0.00441833
0.00805853
0.000553537
-0.000205181
-0.00182824
0.00335617
-0.0054807
-4.19112e-06
0.0661148
-0.00136039
1.19078e-06
0.00631129
-0.00379358
-0.067981
0.0518194
-3.38649e-05
0.0132833
-0.00501611
-0.0881446
-0.00214743
5.17231e-05
-1.47817e-05
4.80867e-05
-0.0857187
0.0252411
-0.00495916
-0.00501013
-0.00534204
0.00322767
0.00665499
-0.000232757
0.0253027
0.00597081
0.00935478
-0.0261459
0.00741772
-8.86944e-06
-0.0170698
-0.000680071
2.98144e-06
-0.0117955
-0.0484066
-0.000274758
4.62786e-05
0.00102833
0.106275
-0.00182745
-0.00358206
-0.0724081
-0.00041963
-0.0710095
0.00259674
0.00760336
-0.000103793
-0.0486792
4.98191e-06
0.0047886
0.00629356
-0.00372386
0.0096088
-0.0345731
-0.00110992
-2.63994e-06
0.012583
0.00529867
0.00884287
-4.33339e-07
0.00745304
0.00301216
0.00649865
4.25877e-06
0.00623981
0.00106573
3.34416e-06
0.0010443
0.000178777
0.0068969
0.00393295
-0.000915925
0.00590832
-0.00284753
2.42669e-05
-0.00425465
0.00142649
0.00575491
-0.00091626
0.00334648
-0.00166915
0.00838338
0.0108543
-2.6285e-06
-0.00208355
0.0110891
0.00041072
-0.00333383
0.0500902
0.00599546
4.22299e-06
-0.000143412
-0.00440662
0.00431595
-0.0258522
0.00914306
0.00549121
0.000435586
0.00571311
-0.0532078
-0.00146283
-0.00435831
-0.00121485
-0.00555349
-0.00469604
-0.0693924
0.000269498
-0.0697282
0.00131177
-3.55539e-05
-3.23816e-06
0.00131266
8.07094e-05
0.00531658
-9.55259e-05
7.34526e-05
-0.00174155
-0.00357754
0.000300925
0.0233888
0.074946
0.00818039
-0.0480533
-0.00338631
-0.0802745
-0.000578199
2.84891e-06
0.0190187
5.14832e-06
4.51211e-05
0.010141
0.0144143
-0.00401004
-0.00597698
0.00989756
0.00826821
6.25741e-06
0.017426
-3.59599e-06
-0.00144719
-0.0265624
-0.0478166
-3.19861e-06
0.00594759
-0.00649412
-0.0255663
-0.00150991
0.0172336
-0.000772822
3.66403e-05
0.00567526
0.0187835
0.0785868
-2.37582e-06
-1.70306e-06
-0.000680719
-0.000576068
-0.0389762
-0.00189665
0.0126959
-0.00383793
2.1373e-05
-0.054793
-8.243e-05
2.00603e-05
0.007609
0.00476523
0.00751413
0.0232716
0.0175599
0.0211004
0.0126702
4.22e-05
0.00361325
-0.00211317
0.000101339
0.00747115
9.94685e-05
-0.00143364
0.00380499
-0.00174619
-0.000229493
0.131727
2.02389e-05
0.0085503
-0.00159698
-0.000582611
-0.00588511
0.00120627
0.000942076
0.0125732
0.000110908
0.00495401
-0.000452939
-0.00230059
-0.00178299
-0.000269069
-0.011089
-5.80249e-06
0.00993524
0.012471
0.0133974
0.00114202
0.00399607
-0.000632987
0.0145737
-0.0683273
-0.00178826
0.00672096
-9.70351e-05
0.0485407
-0.00387829
-0.000541541
0.000719764
-0.0121921
0.000108106
0.00836392
0.00733967
-0.0748335
0.00151163
-0.00956872
0.0109691
0.00434043
0.00560541
-6.50657e-06
-0.000346673
-4.10949e-06
-0.00666248
-3.94663e-05
0.0108525
0.00667164
-1.44101e-06
0.0162168
6.77502e-05
-2.49722e-06
-0.00516652
-0.00570122
-0.0309501
0.0382191
0.0643749
0.00656124
-0.00122746
-1.53668e-05
3.48354e-08
-0.000336676
-0.00380556
0.000546288
-4.95908e-05
-4.92789e-05
0.00567554
-0.0704583
-0.00109349
-5.82959e-06
0.0141382
-0.0128614
0.0171744
5.74353e-06
-0.000942473
-0.0819532
8.05382e-06
-6.60322e-06
-8.15307e-05
-0.00177121
-0.0125259
-0.00108992
-0.00200364
-0.000109315
-0.0339712
-0.00226383
0.000773265
-0.0466705
-0.00189268
0.00496111
-6.26243e-06
-0.00181476
0.0143086
-0.00173865
-0.0012584
-0.111661
-1.56997e-05
-0.000886936
0.00214029
0.000391529
-1.7609e-05
-0.0264699
-0.000631929
-0.00455078
0.0128955
-0.00215695
-0.0106123
0.000278595
0.00840772
-4.60938e-05
-0.00222638
-0.00212971
0.00679701
7.15613e-05
0.00848596
-0.000811399
-0.0158091
0.0153753
-0.00710836
-0.0108005
5.89626e-08
-4.42711e-05
0.014485
0.0173977
-0.00087326
0.130622
0.00541396
3.13297e-05
0.00580378
0.0108512
-0.00711265
-0.000877532
0.140688
0.013924
-0.00177441
-0.000112872
-4.43728e-05
-0.0343498
-0.00218186
0.00829159
-3.02e-05
-0.00199141
0.000404239
0.0380927
-3.18215e-05
-0.0106692
1.47581e-05
0.0175794
6.20266e-05
0.00791981
3.71738e-05
0.078679
8.18833e-05
-0.00143082
-0.0329292
0.00257772
3.03451e-05
0.00579491
0.00842896
-0.0385806
-0.000735192
0.00039798
0.00719079
0.0142642
-0.0780521
-0.00130935
0.00570489
0.00787213
0.00139473
-0.017926
0.00485916
-0.000471013
-8.51142e-05
-2.38425e-06
-0.000823171
-5.55136e-06
-0.00147365
0.00112989
0.0123445
-2.12582e-06
0.00409798
0.00415381
0.00563771
-0.00180182
-0.016381
-0.0452909
7.1662e-06
-0.00391512
0.0859417
0.000582312
-0.0716562
-0.00204458
0.00429788
-0.00791505
-5.81013e-06
-0.00943014
-0.0444502
2.57924e-05
0.00468424
-0.00226639
0.00455913
0.0169834
-0.00178112
0.0026647
0.00404597
-0.0705471
0.0106656
-0.000447563
-0.00239251
1.19318e-05
-0.000364836
0.00045927
-3.94138e-07
-2.1949e-05
-0.00216964
0.00074473
0.00513745
-1.15432e-07
0.00868778
1.45579e-05
0.000107585
1.05165e-05
0.0018073
-0.00123609
-3.60098e-06
-0.00473073
1.98144e-05
-0.010552
-0.000352671
0.008679
-3.02324e-05
0.0133244
0.00998613
-2.48495e-05
0.00290614
-0.0335282
-2.82042e-06
-0.00013101
0.00160362
-0.0120026
0.0179768
-0.0624679
0.00600324
-5.44058e-05
0.00256652
-0.00528172
0.0208003
-8.8713e-06
-0.00178841
0.000221166
-0.0350615
-2.50986e-05
-0.00150136
-0.00403384
-0.00102787
-0.00258713
0.00147836
-0.0436942
-5.29179e-06
-0.0889559
-2.80926e-05
0.00734611
-0.00389877
0.0056283
-0.0100903
-0.00701871
-0.00140034
-0.0392654
0.0339992
-0.00212649
0.0173363
0.00372983
-2.63171e-07
-0.000235216
0.00246272
0.00890164
0.00473486
-4.5793e-05
-0.0159907
0.00300758
-0.000147072
9.60372e-05
0.0168231
-0.000227668
-0.00435464
0.00917224
0.00608399
-0.00156921
0.0110312
-0.00130606
0.00878883
-0.00191976
-0.00172482
-0.00217183
-0.00274371
-0.00385749
0.039223
-0.00186333
0.00330212
0.00315013
-0.00120358
-0.0667694
0.00180677
-2.84366e-06
-0.000558509
-0.0148709
0.00430863
0.00686788
0.00855148
-0.000675759
0.00601963
0.00281294
-0.0498436
0.000414443
0.000275619
-0.00384927
0.00595127
-0.00017987
0.00447868
-2.25559e-05
4.96281e-06
0.0217708
-0.00295261
-0.00352288
-0.00174321
-2.50997e-05
0.0639541
0.00374123
0.00100165
-0.00160147
0.00327407
0.00622126
0.0152031
-2.47453e-05
-0.0490251
0.00704934
-0.00192348
1.72737e-05
0.00568554
2.54331e-05
-0.0507037
1.43296e-05
-0.0155489
-1.5725e-06
-1.09564e-05
0.00593789
-0.0164028
3.31495e-06
6.3084e-05
2.69334e-05
-0.000569672
0.00409817
0.0220376
-0.00351594
0.0765293
-0.0309003
-0.00611447
-0.0059771
-0.037655
-3.02717e-05
0.0153229
0.0087881
0.0102253
-0.0214571
1.83808e-07
-0.0805568
-0.000935991
-0.00370624
-0.0655432
-0.0020529
0.00919117
-0.000923215
5.87854e-06
-3.53625e-06
0.00474394
-0.00297383
-0.00124691
-0.000838119
1.55111e-05
-0.00175809
0.000323703
-0.0140832
-0.00476519
-0.00273744
7.31712e-06
1.94051e-06
-3.61992e-05
5.92077e-05
0.0488734
-2.93406e-06
0.008936
-0.0250669
0.00093228
0.00562369
-1.8462e-06
-8.59774e-05
0.00250553
-0.00932093
-0.00116863
-2.56137e-05
-3.40692e-05
-0.0174392
-0.00767887
-7.91678e-07
-2.67083e-05
8.38253e-06
0.000404165
0.019305
0.00452885
-4.42497e-05
-0.000382558
0.00558742
-0.00143938
0.0721832
-0.00201643
-0.00210552
0.11279
0.00479565
-0.0670467
0.0100939
0.000664486
0.00604217
-0.00224522
0.00320738
0.0134306
0.0269932
-0.0249913
-6.12584e-05
0.0798424
0.00010526
-0.0284872
-0.0362436
-0.00456443
-0.00185985
-0.01135
0.000275472
0.00012053
-0.00091683
-0.000139512
9.03693e-06
0.0151537
5.63589e-06
0.00919108
9.26786e-05
-0.00317107
-0.0220963
-0.00327499
0.00183709
-1.45328e-05
0.0146242
-0.00791088
-0.00149533
0.0154124
0.00714441
-0.000205465
-3.85376e-05
-1.39155e-05
0.00099862
-0.00286105
0.00811262
0.00630385
0.0236581
-3.80266e-06
0.00387241
-0.00201642
-0.00170144
-0.00983509
4.6882e-06
0.028916
0.00494541
-0.00144451
0.034329
-0.000104851
-0.0857138
0.0172781
-1.53282e-06
0.00529504
0.000223943
0.110915
-0.000258193
-0.0713169
4.3022e-06
8.71161e-05
-0.000514385
0.000366032
-0.00309256
1.48021e-05
-0.0063219
-0.0448933
-0.0171597
-0.00448498
-6.19767e-06
-0.0266874
-0.0428984
-0.0722742
-0.000143407
0.0907432
-0.0740554
-0.00182559
0.00491386
0.0036534
6.94083e-06
2.24717e-05
-0.00114966
-9.61043e-05
-0.000341534
-4.916e-05
0.00921534
-0.0398949
-0.00289221
0.000358771
-0.0513646
-0.0440946
0.00807778
0.000329702
-0.000818591
-0.00225836
0.00606122
-0.00185087
0.00553372
0.011371
-0.0114409
0.0561238
0.000388061
0.02926
-0.00771208
-0.000496207
0.00682907
1.02041e-06
6.54667e-06
0.0132376
-0.00973629
-0.00181938
0.013446
-0.000332351
-6.91758e-06
-0.00279404
-0.0028379
-0.0715527
-0.00977347
0.00935506
-0.000161368
-0.00174974
0.00186217
0.0735186
-0.0492976
0.00871274
-0.000464551
0.00170005
0.0411822
-0.000674026
-0.00174538
-1.00831e-05
0.00428444
-0.00364832
-0.00157987
0.00682314
-0.0130595
-0.000250708
-0.00167522
1.17955e-05
3.32737e-05
0.00772129
-0.00110779
0.000445508
0.00672756
0.00379842
-0.0137431
-0.00392237
0.00585624
0.0640702
0.0155528
-0.000159074
-0.00136332
0.00295272
0.00935369
-0.00112613
0.000404031
0.0120845
0.000151123
0.0554364
-0.0687931
1.49453e-06
-0.0040271
0.00744947
-0.000519761
-0.0263241
-0.00456394
-0.000743878
0.00367005
-0.067476
0.00869313
-0.00131721
0.090776
-0.00012573
-0.00148514
0.00723601
0.00529795
0.00601914
-0.000219563
-0.00261218
0.00994417
-0.000365847
-0.0307233
-0.0634869
-0.00980151
-0.00118359
-0.00156787
-0.00117239
-0.00070091
-0.000215458
-0.00299734
-0.00121868
-0.00269576
0.00937034
0.0151897
-0.00343016
-0.0111971
-0.00150557
4.3357e-05
0.00192831
-7.30731e-05
0.000199472
2.3364e-05
-0.0020807
-0.036371
0.00718342
-0.0648185
0.000809655
2.22736e-05
0.0106545
-1.1675e-05
-0.0198453
0.00017236
0.00781299
-0.000107983
0.000979122
-0.00572868
5.4654e-06
0.0560102
0.000114778
-0.00886689
-2.0891e-05
4.17264e-05
-0.00378344
-0.00635094
0.00693238
0.00374833
0.0460454
0.000901043
0.00966479
-0.00195667
-0.0120287
-0.00580809
-0.00151997
-7.45332e-06
5.05143e-05
-0.00673523
5.9168e-07
-0.000903388
0.00924163
-0.0159338
-0.0721101
7.77359e-06
1.70126e-05
0.00294602
0.00752351
0.00315445
0.0229222
-0.00144658
-4.90277e-06
-0.00650507
0.0051908
0.00352856
0.00756595
-0.025269
-0.020624
-0.0018292
-0.0686672
-0.00162155
0.0104929
3.47295e-05
1.44338e-07
-2.20928e-06
0.00741377
0.023345
8.43517e-06
-0.0379539
0.0589993
0.00125083
-0.0173541
4.93846e-05
0.00885321
-0.0445685
-0.0305445
-0.00361673
-0.00651339
-0.0100717
0.0058234
0.00383201
-0.0694685
-0.00395887
0.0245821
0.00860869
-6.41799e-06
0.012319
-0.0140826
-0.00126683
0.0052844
0.00765407
0.0025493
-0.00164687
-9.29872e-05
-0.00301957
-0.024165
-0.00034486
-0.070888
-0.0687031
0.000784411
2.98037e-05
-0.0173027
0.0113153
-0.00133922
-0.00151345
-0.0395693
0.0135251
2.90068e-05
0.00361166
0.0843854
0.00488119
-0.0159298
-0.00985351
0.00901335
-0.000590162
-0.071909
-0.00360555
0.00284443
-0.0901923
0.110724
0.00260443
0.00746712
-0.0159118
-0.00146388
0.00903752
0.000260768
-0.00216053
-0.00176066
1.0658e-05
0.0140435
0.0986511
0.00757342
-0.00125582
-0.0004055
-0.000883097
-0.00137733
-0.00111042
0.0452955
3.86597e-06
0.0483198
-9.12942e-05
-0.0009807
-0.0444471
-0.00268712
-0.00596016
0.000191346
-0.00252798
-5.00616e-05
0.00911252
-5.24894e-05
-7.9882e-06
0.000627022
3.46858e-05
0.0443667
0.00435605
0.0142885
-0.0516675
-7.15726e-06
0.00721093
-0.0785336
0.00279666
0.00834142
1.35159e-05
0.0215648
0.0330098
-0.0540755
-0.00597808
-0.00169198
-0.00194693
-0.00766918
-0.000261736
-0.00325277
0.0102251
-0.0017965
-0.00284552
0.0352204
-0.00352662
-0.00181234
0.0122047
-0.111937
0.00431218
-0.000731505
0.00796604
-8.01055e-05
0.00716036
-0.000313747
-5.11695e-05
0.00688602
-0.000603236
-0.00135541
0.0109334
0.00123658
-0.00186161
-0.00142316
0.00023319
0.00512993
0.00641221
5.75492e-05
-0.00452328
-0.00247491
-0.0171568
-0.000224177
0.00131079
3.39272e-06
-8.2676e-05
0.126044
0.000129373
0.00574305
-0.00278281
-0.069765
0.00380219
-3.94632e-06
0.000231587
0.00869499
5.67766e-05
0.0150387
-0.0673532
0.000425425
0.0096593
0.0474468
1.27791e-06
0.0103822
-0.000127322
0.00582257
-0.0001414
-0.0178338
0.00719219
-6.70348e-06
-0.0133367
0.00759118
0.00634567
0.0123143
-5.31423e-06
-0.00111015
4.54513e-05
-7.20044e-05
0.00852664
-0.000342242
-2.89063e-05
-0.0149311
-5.06851e-05
9.91163e-05
-5.40241e-05
-0.0563389
-2.11313e-05
0.00589013
0.00775014
-0.0124969
0.00861338
0.00502
0.00528493
-0.0127089
5.18665e-05
-3.1008e-06
0.00586381
-0.00101852
-0.00497125
-0.000218573
-0.0718849
0.00313692
0.00872391
0.0172004
-0.0020282
-0.00453838
-0.00455104
-0.0017646
0.00331594
0.00753938
0.00845023
2.91832e-05
0.0300705
0.00701779
0.00133167
-0.00048853
0.0219267
-0.000579528
0.00805367
-3.63247e-05
0.00081969
-0.0173801
-0.0503287
-0.00119744
0.00587332
0.0269599
0.0646855
0.0104765
0.00425261
-0.0183763
-0.00191088
9.29561e-07
-0.0022848
5.8023e-05
-1.07836e-05
-1.99358e-05
0.00832562
-3.98954e-05
0.00235222
0.000368276
-0.000366206
5.32214e-06
-0.0717689
-0.0701508
0.000113391
-1.0557e-05
-0.030617
-0.00023672
0.0152203
-0.00305509
0.0132845
0.00623654
-0.000397566
-0.00785995
0.00239846
-2.52749e-05
-0.000228321
-0.00111633
3.94824e-06
-0.0061024
0.00760566
0.0123965
-0.0697649
-0.00462237
0.00010327
0.000319805
-2.47558e-05
-2.88336e-05
-3.20713e-06
-0.000357219
-0.0486634
-0.0269865
6.7976e-06
3.38269e-06
-0.00123268
6.5457e-05
0.00479623
-0.00210646
-0.00383559
0.00130684
0.0104067
0.00731665
-0.00607461
0.00694568
-0.000690551
-0.00198392
-0.000143696
-0.0001101
0.0200458
-0.0693411
-0.072376
0.0345087
0.00318255
0.00596723
3.80884e-06
0.0215821
0.00191451
0.00735501
-0.055267
0.00667313
-0.0841019
-0.000807911
-0.0197034
0.00162124
0.000769138
-0.00778365
0.0455988
-0.0682827
-5.93622e-07
-0.00405563
-0.00125656
-0.0113049
-0.00118839
0.00815016
6.47865e-05
0.00525959
0.00774138
-0.000775928
0.00399691
-0.0362128
0.007228
0.00664935
-0.000866637
-0.000163108
-0.0777201
0.00529617
-0.000527826
1.25382e-06
5.44692e-06
-0.00129797
0.00822367
3.04465e-08
0.0166636
0.00776486
-1.07204e-06
-5.0926e-05
-0.0135182
-0.0728396
0.00508581
0.00906837
-6.55347e-06
2.22759e-05
0.00637003
-0.000133241
-0.00819705
0.040855
7.45479e-05
2.47042e-05
0.00991108
0.000671009
-0.0286195
-0.0713319
0.00753463
-0.0485386
-8.21128e-05
-0.0159744
-0.00216991
-0.00130376
-0.000260623
0.0100975
1.53112e-06
-0.0103262
-0.00944778
-0.0018631
-0.0715954
0.00870213
0.00565253
-0.0228302
0.00473761
0.000572263
-0.00615156
0.00620888
-0.00193151
5.35262e-05
0.0112292
0.0036496
-8.71783e-05
-0.00339367
0.00920229
-0.00186539
-0.00699243
0.00595212
3.01439e-05
-0.0102699
0.00527663
2.99815e-06
0.000468746
-0.00136105
0.00583353
-5.23819e-07
0.0106525
1.40171e-05
0.0106043
-0.00138251
0.00019249
0.00568725
0.00925348
-0.00199721
-0.00789889
-0.0015192
-0.00178058
0.0102585
-0.0420375
-7.04217e-06
-0.0520889
-0.00135215
-0.00382381
-0.00228597
-0.00971384
-0.0053283
0.00260918
5.25065e-05
0.00558797
-0.0213155
-4.15928e-05
-3.49553e-05
-0.0255558
0.0004551
-0.00196126
-0.00272266
0.00593525
-0.00823886
-0.00800705
0.00916732
-0.00219669
0.00863913
-0.00221859
0.0254616
-0.00258147
0.0009955
4.42232e-05
-5.81816e-05
8.8278e-05
-0.00243657
7.53588e-06
0.000449563
0.00677227
0.00563899
0.00769367
0.0108734
-0.00116672
0.0143977
0.00441486
-0.0701288
1.89308e-05
-1.00221e-06
-0.0618284
0.00605488
-0.0530445
0.00437535
-0.00275712
8.27142e-06
0.00714201
-0.0194025
-0.00101355
-0.00221588
-5.04575e-05
-0.000120508
1.02417e-05
0.004395
-0.0076341
2.61781e-06
0.00102088
0.00612403
-0.00165192
0.00854279
3.98935e-06
0.00724045
-0.0671719
0.0549179
0.0082018
-0.0244549
-0.000280869
0.00463438
0.00187109
-0.000213192
3.70488e-05
-6.71823e-05
-0.0138364
0.0274808
-0.000446302
2.39055e-06
-0.00460233
0.000782317
0.00159178
2.28943e-05
-0.000576084
-5.25511e-06
0.00811799
-8.35815e-06
7.54118e-06
-0.000670284
-0.0025805
0.0103178
0.0107384
6.7967e-06
0.0375525
0.00269732
2.7046e-05
0.00609505
2.486e-07
-1.61587e-06
0.00892406
-5.43386e-05
5.78903e-06
-0.00554339
-0.0050813
0.00022948
0.00108362
0.00851359
-0.00113962
0.0262909
0.00675741
1.6354e-05
0.00187537
-0.0719023
-0.00558436
0.00404223
-5.75126e-05
9.3411e-06
-0.0119366
-0.00352177
-0.0019131
0.0183587
1.37685e-05
-0.016588
-7.46789e-05
0.00892631
-0.000286148
-0.0137889
0.00270992
-0.000882171
0.00869525
-0.00125271
0.0027613
1.4357e-05
0.0077579
0.00266305
-5.44935e-05
-9.54103e-06
-0.0358991
-0.0572241
-0.0560878
-1.95356e-05
0.00684402
0.0379197
-0.0048476
-7.70366e-05
0.0101083
9.97174e-07
0.000193111
-0.0289458
-0.00731727
-0.00158015
-0.0131523
6.52653e-05
3.57686e-05
0.000115487
0.0105965
-0.0571613
-0.00199281
-0.00200116
0.000356752
0.000145304
-3.9708e-05
-0.00123802
-7.34492e-05
-0.00804469
-1.02114e-06
-0.0432919
0.000209995
0.00934497
0.0111761
0.00400174
0.00168329
-0.00226348
0.000282074
0.00431109
-0.000183185
0.0189163
0.00943163
0.00470194
-9.02957e-06
0.000126538
0.087597
0.0174187
-0.0023948
0.0260557
0.0056444
4.51152e-05
0.00801874
-1.8203e-06
0.00281589
-0.00934449
0.000453974
0.00484735
-0.000753672
0.0231968
-0.00105707
-1.06341e-06
0.0137385
-0.000563153
-0.00611844
0.00496874
0.0164787
-0.000107782
0.0163913
0.00269542
-0.00921853
4.12113e-05
0.0351567
-0.0580312
0.00627285
2.89092e-05
-0.00145569
-0.00260015
0.00219275
0.00573664
0.00639973
-0.0232896
0.00545875
-0.0312772
0.00490987
-0.044454
0.00216221
-0.00179496
0.0017835
-3.60914e-05
0.0199764
-0.00128432
0.0575483
-0.00911171
-1.15522e-06
5.90593e-05
-3.67182e-05
0.00700754
0.00511398
0.00461054
-0.00163427
-0.00185097
-0.0587074
-0.00648154
-0.022096
5.59234e-06
-1.32294e-05
0.0009823
0.00424773
-0.00200173
0.00876151
-0.00315131
0.00290532
0.00648345
2.35298e-06
0.0311059
0.00621486
0.0294725
0.000445966
0.00017606
0.00896497
0.00807905
-0.0698262
0.00136036
-0.000745826
0.00098376
-0.00255705
0.00799571
5.26848e-05
0.0110783
-0.000178322
-0.00101129
-1.6434e-05
8.53523e-06
0.008279
0.0199092
-0.01563
-0.00855087
-0.0321417
-0.00125267
-0.000296667
0.0219678
0.0169236
8.8111e-06
-6.29807e-06
0.00760716
0.00340553
-0.000375239
-0.00151855
-0.0167917
-0.071221
-0.000670469
0.0084519
-0.00126434
-0.00329255
0.000106485
0.0296963
0.012934
-0.00181483
-0.00214053
0.00291066
-0.000860873
-0.0697485
0.000189221
-0.0733111
0.00477169
0.0123446
-0.000527109
0.000292884
-0.0705262
0.0770938
-2.71552e-05
-0.00390163
-0.00183534
3.1912e-05
0.00018465
-2.57676e-05
0.00767995
0.02112
-0.000964077
0.00736474
-0.0579659
0.00604249
-0.0033693
-0.0320991
0.000710658
0.0306282
-4.52632e-05
-0.0769378
0.00610614
-5.69122e-06
-1.04453e-05
-0.0328105
-0.000129723
-0.013188
0.00558875
-0.0281042
0.00687243
0.0126336
0.00266033
0.00787572
-0.00102088
0.00859369
-0.0502682
0.0113264
0.0059863
-2.65912e-05
0.0148292
0.00494222
-0.000234683
0.00664604
0.00435286
0.00482616
-0.0808322
7.80823e-05
-0.0548222
-0.00120369
0.0284067
-3.64826e-07
-0.000330951
0.013654
-0.048186
0.00080951
0.000515107
-1.02874e-05
0.031343
0.00516545
0.0160666
-2.88294e-05
-0.00129742
-0.0802418
0.00498511
0.00380644
-1.03363e-05
0.00691389
-0.000514325
-0.00188667
-0.000231589
-0.00397557
-2.49692e-06
-1.43419e-05
9.89274e-06
0.00842541
-0.00791923
0.00268183
-0.018973
-1.39109e-06
-0.0202901
5.98124e-05
-0.00638605
-0.00468521
-0.00226409
0.00309827
-0.00624188
0.010524
-0.0101636
0.0218659
-0.00107783
-0.00212149
0.00595354
2.16342e-06
0.00250648
0.00150979
0.0206291
0.00696231
0.079261
-0.000784426
0.00306975
0.00687011
0.0153925
0.0193657
0.000335766
-3.03334e-05
1.47105e-06
-0.000175787
-0.00175232
-0.00263941
0.0686823
0.0953406
-0.00988407
-0.00756367
0.00865305
0.0139445
-0.00394728
1.19543e-05
-0.0933291
0.00880895
4.63424e-05
0.00631692
-0.000663207
-3.68288e-06
-0.00861774
-0.00137836
0.000164724
0.0194167
-3.43771e-05
-0.0739326
-0.00210901
0.00632247
-0.00920827
-4.34987e-05
-0.00977082
0.00230667
-0.00496903
-0.000588052
3.71156e-05
4.35337e-05
-0.0627726
-0.0192761
0.00800797
5.67928e-05
0.0168621
0.00516108
-0.0501561
-0.0351731
0.0122751
0.00277589
0.00829521
0.00650235
-0.00115215
0.00728401
-0.00247411
0.00769683
-0.00221633
-2.16375e-06
0.00119314
-0.000268173
-0.00171382
-0.0771481
0.000106384
-0.000481129
-0.00261832
3.1798e-05
0.00268375
-0.0620562
-0.0719281
0.0053518
0.0274065
-0.0756679
-0.00249195
-0.0815024
0.00241
0.00314159
0.00868025
0.00941923
0.00661644
-0.0157223
0.00137138
-0.07255
-0.0680395
0.00243161
-0.00506463
0.00868277
-0.0346441
-0.00443853
-0.000604408
-0.0791051
-0.0714911
-0.0648996
0.00409983
-0.000391277
0.00713907
5.69991e-06
-1.09131e-06
-0.00162933
1.43669e-05
0.00866807
-0.00719273
-0.000300585
-0.00109168
0.00470586
0.00724611
0.00965378
-0.0672965
-0.0019296
-8.72461e-05
5.2313e-06
0.00534651
-0.0114871
0.0165006
-0.00522555
0.00686121
0.00357704
-1.26245e-05
0.00540305
-5.9938e-05
0.00801936
0.0064721
-0.00243427
-0.0241013
-0.00163374
0.0277027
-0.00115984
0.0063394
-0.00166248
-0.000317214
-0.0709059
-0.00101827
-0.00575989
-0.0177412
-0.0128611
-0.00156847
-0.0763873
-0.0317844
0.00330282
0.00442316
-0.000751368
0.000429239
0.00625788
0.015404
3.12781e-05
-0.010127
-0.000616723
-1.00019e-05
0.000139733
-0.010554
-6.09746e-06
0.00884191
-0.000629743
0.00187842
-0.00186537
0.0282301
0.000681295
0.00505584
0.00142371
-2.73729e-06
-0.0127263
-1.77484e-06
0.000243933
-2.84606e-05
0.00350122
-0.0721866
0.0016491
0.0211403
-0.0112291
-0.0204843
-0.00191732
-0.00163709
-0.000845514
-0.0511283
-0.0239676
-0.000257989
-1.53153e-05
-0.0776537
0.00920883
5.31182e-05
0.00715856
0.0392787
0.000619703
0.00578201
-4.80091e-06
0.0458598
0.0019835
0.00538197
0.00642098
-5.49697e-05
-5.41512e-05
5.73066e-06
-0.0147529
-0.0283027
-0.0601843
-0.0147041
0.00912162
7.3633e-06
0.00642257
2.45813e-05
-0.000241269
-2.77746e-05
-8.43522e-05
-0.00119365
-2.94219e-06
-0.00235228
-0.0766556
6.93456e-05
-0.0573563
0.0104572
-1.35445e-05
-0.000274457
-0.002923
0.000379656
-0.000103729
5.60787e-06
-0.0155712
0.00719875
3.63214e-05
-1.81435e-05
-0.00022931
0.00417324
-0.00200139
-0.0713038
0.000200802
6.0891e-05
-0.000866183
0.00515647
0.0143289
-0.00160889
0.000467715
-0.0629773
-2.34235e-05
0.00919044
0.00590748
0.00537965
0.00149356
0.00798335
0.00539397
0.0303027
0.00860093
7.20572e-06
9.64462e-05
0.0012822
0.00183042
0.00321374
-0.0295498
0.00020751
0.00578694
4.83402e-06
-0.0111456
0.00661856
-0.000524072
-0.00438959
6.37579e-06
-0.00254855
-0.0299086
-0.000781221
0.0435835
1.42418e-05
0.00241959
4.65811e-06
0.00591186
-0.0702032
0.00016533
0.0312295
0.00170176
-0.00914541
-3.46918e-05
2.384e-05
-0.00236644
0.00780021
-7.76146e-06
6.43454e-06
0.00830066
0.0272329
0.00422905
0.00680661
0.000205152
-0.0307856
0.0079269
-0.0097259
-1.80854e-07
-0.0184653
-0.0103738
0.000571821
0.00367941
0.00266791
0.00868524
0.00563191
0.00413968
0.000967461
-3.96899e-05
0.0405602
0.00712028
-2.46686e-05
0.00642458
-0.00827462
0.00454552
0.00524171
-0.00653364
-0.000573496
3.33735e-07
-0.000204361
0.00715346
7.32005e-06
-0.00191635
0.0104592
-0.0046923
-0.000141527
8.29357e-05
0.0102939
-0.00565912
-0.00948963
-1.0736e-05
-0.0317538
-0.000692268
-0.00115237
-0.000879899
0.000745584
6.62571e-06
2.80243e-06
-0.00832268
1.02267e-05
-1.26968e-05
0.00580136
-0.010492
-0.0625576
-1.83795e-05
5.85611e-06
0.00449609
1.08783e-05
-0.0159078
0.00610815
0.00243844
-0.00192978
0.000199131
-0.00428882
0.0152675
-0.00256919
0.00451871
3.00735e-06
-0.003102
0.014637
-0.0283544
0.00712269
-0.0270106
6.29012e-06
-0.00244761
-0.00015943
-0.0365574
2.33577e-07
0.00567343
2.72917e-05
0.00625712
-5.31526e-05
3.42651e-05
-0.00132183
-0.0601578
0.0144672
-0.0588591
0.00460367
0.00456614
-0.0012386
8.71947e-05
-0.0105234
1.24084e-05
1.52804e-06
-0.00151745
-0.00101029
7.87742e-06