/*--------------------------------*- C++ -*----------------------------------*\
  =========                 |
  \\      /  F ield         | OpenFOAM: The Open Source CFD Toolbox
   \\    /   O peration     | Website:  https://openfoam.org
    \\  /    A nd           | Version:  9
     \\/     M anipulation  |
\*---------------------------------------------------------------------------*/
FoamFile
{
    format      ascii;
    class       volScalarField;
    location    "220";
    object      nuTilda;
}
// * * * * * * * * * * * * * * * * * * * * * * * * * * * * * * * * * * * * * //

dimensions      [0 2 -1 0 0 0 0];

internalField   nonuniform List<scalar> 
10720
(
0.0535611
0.0550924
0.056234
0.0565299
0.0560348
0.0542385
0.0507181
0.0449641
0.036441
0.0257741
0.0150332
0.00946177
0.0113093
0.0113066
0.0105317
0.00977527
0.00914446
0.00939188
0.0102116
0.0106816
0.0100931
0.0109082
0.012514
0.0144801
0.0187374
0.0250594
0.0307711
0.0352123
0.0382384
0.0391215
0.0365036
0.0324666
0.0326667
0.0300661
0.0266171
0.0400834
0.0466603
0.0669697
0.0734141
0.0518843
0.0499651
0.047888
0.045286
0.0423031
0.038836
0.034734
0.0298811
0.0242564
0.0184789
0.0164472
0.0148839
0.0137868
0.0165098
0.019214
0.0213331
0.0230603
0.0245957
0.0260963
0.0276413
0.0292606
0.0309583
0.0327362
0.0345824
0.0364295
0.0381992
0.0398709
0.0414513
0.0429544
0.0443907
0.0457855
0.0471624
0.0485771
0.0500689
0.0518411
0.0538292
0.0571665
0.0601364
0.0725057
0.0621774
0.0607934
0.0591654
0.0578282
0.056756
0.0580953
0.0606405
0.0630419
0.063942
0.0621499
0.0574829
0.0537836
0.0570818
0.0562492
0.0469294
0.0407113
0.0356387
0.0339227
0.0345413
0.0370874
0.0418742
0.0484132
0.0559487
0.0632729
0.0684429
0.0721156
0.0739033
0.0745868
0.0742755
0.0716755
0.065363
0.0645849
0.0885714
0.107928
0.105675
0.109613
0.118954
0.113029
0.148399
0.0634011
0.0641577
0.0650778
0.0653997
0.0653932
0.0650096
0.0641122
0.0626705
0.0607704
0.0585265
0.0557615
0.0526004
0.0494375
0.0463402
0.0434682
0.0408469
0.0384686
0.0362968
0.0343365
0.0325813
0.0310344
0.0296783
0.0284965
0.0274329
0.0264602
0.0256332
0.0249729
0.0244761
0.0241329
0.0239326
0.0238664
0.0239246
0.0241097
0.0244208
0.0250171
0.0260639
0.0280051
0.0289413
0.0283979
0.0907083
0.089365
0.0873237
0.0850248
0.0829774
0.0802494
0.0773272
0.0726212
0.0711545
0.0721709
0.0738407
0.0758251
0.0817622
0.0887713
0.0932792
0.0914156
0.0786237
0.0737317
0.0737666
0.0769171
0.0841319
0.0951133
0.108423
0.122953
0.134853
0.144509
0.150735
0.154251
0.157119
0.157036
0.148777
0.148471
0.16862
0.188543
0.193206
0.21714
0.240701
0.23162
0.320759
0.0918981
0.0926466
0.0934671
0.0938168
0.0938334
0.0934729
0.0926134
0.0912079
0.0893113
0.0869874
0.084235
0.0811474
0.0778731
0.0745153
0.0712401
0.0680917
0.065078
0.0621916
0.0594558
0.0568752
0.0544642
0.0522058
0.0500758
0.0479773
0.0458577
0.0437622
0.0417118
0.0397267
0.0378221
0.0360104
0.0343047
0.0327148
0.031314
0.0301417
0.0292015
0.0286807
0.0280843
0.0308378
0.02122
0.106992
0.105937
0.104404
0.102355
0.0997477
0.0973965
0.094992
0.0911384
0.0860632
0.0799758
0.0790079
0.0821418
0.0903821
0.103968
0.119295
0.130397
0.13266
0.123913
0.123261
0.125093
0.131673
0.144431
0.16235
0.184971
0.205982
0.222589
0.23617
0.237916
0.231765
0.220579
0.207615
0.20903
0.22994
0.256654
0.277047
0.324593
0.357429
0.365947
0.522232
0.107958
0.108642
0.109339
0.10972
0.109837
0.109654
0.109073
0.10805
0.106613
0.104801
0.102632
0.10015
0.0974277
0.0945354
0.0915827
0.0886205
0.0856803
0.0827786
0.0799459
0.0771973
0.0745577
0.0720225
0.0695725
0.0671174
0.0645975
0.062061
0.0595347
0.0570451
0.0546144
0.0522616
0.0500073
0.0478764
0.045898
0.0441244
0.0425749
0.0415133
0.0403804
0.0429611
0.0363875
0.117622
0.117036
0.116158
0.114991
0.113385
0.110878
0.108255
0.105503
0.101574
0.0955489
0.0885362
0.0855004
0.0903444
0.105248
0.128596
0.153338
0.172151
0.18184
0.183014
0.182558
0.184729
0.194488
0.21443
0.245494
0.278221
0.298647
0.305393
0.301397
0.289572
0.27122
0.254566
0.257398
0.281947
0.318747
0.355448
0.42393
0.469517
0.513233
0.717404
0.118282
0.11878
0.119328
0.119642
0.119769
0.11965
0.11922
0.118459
0.117392
0.116028
0.114336
0.112436
0.110347
0.108093
0.10573
0.103281
0.100778
0.0982402
0.0956955
0.0931599
0.0906601
0.0881986
0.0857649
0.0832804
0.0806904
0.0780374
0.0753502
0.0726586
0.0699893
0.067368
0.0648226
0.0623886
0.0601021
0.0580295
0.0562014
0.0549197
0.0536834
0.0560754
0.0517881
0.125846
0.125688
0.125224
0.124348
0.12323
0.121807
0.119777
0.117131
0.113873
0.109532
0.102837
0.0944883
0.0911787
0.100083
0.124452
0.159962
0.196032
0.22475
0.243301
0.250556
0.24542
0.246068
0.263292
0.301205
0.340296
0.355923
0.357795
0.350261
0.334954
0.311568
0.293088
0.298665
0.330365
0.378209
0.428947
0.515551
0.579732
0.668872
0.889441
0.126112
0.126195
0.12646
0.126542
0.126545
0.126359
0.125929
0.125254
0.124365
0.123285
0.12199
0.12053
0.118955
0.117252
0.115439
0.113525
0.111528
0.10946
0.107343
0.105186
0.103011
0.100821
0.09861
0.0963138
0.0938826
0.0913495
0.0887409
0.0860846
0.0834075
0.0807378
0.0781077
0.0755591
0.0731353
0.0709151
0.0689391
0.067533
0.0662678
0.0684223
0.0659644
0.132173
0.132053
0.131823
0.131388
0.130746
0.129816
0.128432
0.126422
0.123614
0.120095
0.115384
0.107861
0.0983935
0.0968806
0.113697
0.152044
0.203211
0.252335
0.289918
0.312107
0.315535
0.302779
0.309583
0.34844
0.387796
0.400146
0.398884
0.388857
0.370874
0.34338
0.325381
0.337236
0.378795
0.437155
0.499042
0.602861
0.690405
0.825126
1.03727
0.132335
0.132215
0.132053
0.131739
0.131492
0.131142
0.130625
0.129934
0.129101
0.128178
0.127165
0.126076
0.124899
0.12362
0.122242
0.120765
0.119203
0.117566
0.115862
0.114098
0.112288
0.110434
0.108529
0.106523
0.104371
0.102097
0.0997195
0.0972611
0.0947451
0.0921983
0.0896523
0.0871511
0.0847414
0.0825096
0.0805029
0.07906
0.0778176
0.079737
0.0786324
0.135816
0.135626
0.135418
0.135108
0.134688
0.134121
0.133352
0.132238
0.130481
0.127857
0.124419
0.119454
0.110644
0.100514
0.104668
0.135507
0.193949
0.263263
0.322398
0.36193
0.378004
0.367807
0.356072
0.385259
0.425751
0.436308
0.432556
0.420052
0.398992
0.368323
0.355424
0.377102
0.429571
0.497354
0.568018
0.688731
0.801697
0.969744
1.16243
0.13605
0.136074
0.135969
0.135584
0.135119
0.134615
0.134002
0.133269
0.132436
0.13162
0.130815
0.13
0.12913
0.128179
0.127144
0.12602
0.12481
0.123522
0.122163
0.12074
0.11926
0.117725
0.116128
0.114429
0.112591
0.110626
0.108548
0.106372
0.104116
0.101801
0.0994551
0.0971204
0.0948429
0.0927104
0.0907724
0.0893707
0.0881902
0.0898968
0.0896552
0.137677
0.137517
0.137366
0.137164
0.136908
0.136563
0.136107
0.13549
0.134561
0.133023
0.130633
0.127377
0.121809
0.111348
0.10372
0.119065
0.172534
0.256117
0.339328
0.399284
0.430857
0.430812
0.407305
0.415761
0.45834
0.467733
0.461567
0.445884
0.420367
0.39104
0.387713
0.421318
0.484557
0.560417
0.638415
0.774818
0.911098
1.09537
1.26687
0.137868
0.137934
0.137939
0.137786
0.137523
0.137078
0.13646
0.135714
0.134864
0.134144
0.133505
0.132892
0.132247
0.131537
0.130755
0.129896
0.128961
0.127955
0.126881
0.125742
0.124545
0.12329
0.121969
0.120552
0.11901
0.11735
0.115579
0.113707
0.111746
0.109713
0.107631
0.105536
0.103469
0.101513
0.0997187
0.0984086
0.0973251
0.0987589
0.0990032
0.138609
0.138503
0.138409
0.138285
0.138133
0.137927
0.137668
0.13732
0.136826
0.13605
0.134672
0.132498
0.129303
0.122506
0.110939
0.110019
0.14703
0.23254
0.33798
0.422709
0.472853
0.485889
0.466287
0.449186
0.488157
0.496946
0.488237
0.468781
0.43981
0.417063
0.426083
0.472261
0.545574
0.628092
0.712679
0.861548
1.01418
1.20183
1.35251
0.138737
0.138787
0.138815
0.138769
0.138692
0.138519
0.138163
0.13753
0.136691
0.13606
0.135563
0.135109
0.134631
0.134097
0.1335
0.132836
0.132107
0.131313
0.130458
0.129545
0.128576
0.12755
0.126462
0.125287
0.124001
0.12261
0.121118
0.119531
0.117857
0.116108
0.114303
0.112469
0.110645
0.108904
0.107292
0.106104
0.105132
0.106297
0.106805
0.139133
0.139066
0.139013
0.138941
0.138854
0.138735
0.138588
0.138397
0.138125
0.137729
0.137056
0.135774
0.133802
0.130309
0.121469
0.110239
0.125883
0.198466
0.316946
0.429347
0.502527
0.532719
0.520814
0.489225
0.516376
0.525679
0.514955
0.492386
0.463423
0.450848
0.473342
0.532051
0.614677
0.702651
0.793206
0.948627
1.10755
1.29171
1.42092
0.139224
0.139264
0.139299
0.139288
0.139272
0.139217
0.139076
0.138753
0.138088
0.137557
0.137186
0.13686
0.136509
0.136107
0.135645
0.135123
0.134545
0.133911
0.133225
0.132486
0.131696
0.130855
0.129956
0.128981
0.127911
0.126749
0.125497
0.124159
0.122741
0.121252
0.119705
0.118124
0.116541
0.11502
0.113602
0.112549
0.11168
0.112632
0.113313
0.139468
0.139421
0.139391
0.139351
0.139304
0.139239
0.139153
0.139052
0.138911
0.138702
0.138383
0.137756
0.136548
0.134738
0.130159
0.118299
0.115239
0.16312
0.278809
0.415658
0.517411
0.56912
0.569743
0.536951
0.543226
0.554903
0.543465
0.519853
0.495483
0.495147
0.531529
0.602898
0.694384
0.788053
0.88271
1.0356
1.19118
1.36758
1.47311
0.139542
0.139582
0.139622
0.139629
0.139639
0.139626
0.139563
0.13939
0.139076
0.138717
0.138471
0.138255
0.138007
0.13771
0.137352
0.136936
0.136472
0.135961
0.135402
0.134797
0.134149
0.133456
0.132712
0.131902
0.131012
0.130043
0.128995
0.127872
0.126676
0.125414
0.124097
0.122745
0.121384
0.120071
0.118839
0.117928
0.117141
0.118005
0.118847
0.139699
0.139663
0.139646
0.139624
0.139601
0.139569
0.139523
0.139472
0.139406
0.139303
0.139146
0.138877
0.138249
0.137163
0.135304
0.127848
0.115539
0.135536
0.231033
0.380482
0.513611
0.592471
0.612617
0.588574
0.56886
0.585124
0.574937
0.553323
0.538012
0.551309
0.602228
0.687106
0.790135
0.893872
0.982999
1.12244
1.26716
1.43123
1.50948
0.139764
0.139803
0.139844
0.139861
0.139886
0.139898
0.139873
0.139758
0.139592
0.13948
0.139381
0.139275
0.139135
0.138947
0.13869
0.138372
0.138008
0.137599
0.137142
0.136644
0.13611
0.135538
0.134921
0.13425
0.133512
0.132708
0.131837
0.130899
0.129896
0.128834
0.12772
0.126572
0.125412
0.124291
0.123235
0.122472
0.121762
0.122744
0.1237
0.139864
0.139834
0.139825
0.139815
0.139805
0.139794
0.139773
0.139755
0.139731
0.139692
0.139622
0.139511
0.139256
0.138615
0.137796
0.134765
0.123004
0.121023
0.184199
0.327626
0.48763
0.599647
0.64596
0.632908
0.597795
0.616622
0.609934
0.594308
0.591376
0.619823
0.686652
0.787818
0.914552
1.01995
1.09385
1.20983
1.33756
1.48346
1.52975
0.139923
0.139959
0.139999
0.140021
0.140055
0.140082
0.140081
0.140009
0.139904
0.139852
0.139816
0.139775
0.139719
0.139643
0.139534
0.139382
0.139168
0.138881
0.138526
0.138129
0.137699
0.137232
0.136726
0.136174
0.13557
0.134911
0.134196
0.133424
0.132595
0.131713
0.130784
0.129824
0.128852
0.127914
0.127034
0.126437
0.125837
0.127128
0.128017
0.139984
0.139958
0.139954
0.139951
0.13995
0.139952
0.139947
0.139947
0.139951
0.139951
0.139937
0.139899
0.139824
0.139531
0.139014
0.138299
0.131571
0.119308
0.148126
0.266242
0.439405
0.586855
0.666364
0.672616
0.637344
0.64923
0.648403
0.642895
0.655009
0.700548
0.786176
0.918985
1.06459
1.16584
1.21588
1.29877
1.40369
1.52404
1.53306
0.140036
0.140071
0.140112
0.140139
0.140178
0.14021
0.140218
0.140177
0.140115
0.14008
0.140061
0.140042
0.140016
0.139979
0.139927
0.139858
0.139766
0.139642
0.139472
0.139244
0.138951
0.138602
0.138207
0.137774
0.137299
0.136779
0.13621
0.135592
0.134926
0.134215
0.133466
0.13269
0.131908
0.131161
0.130472
0.130068
0.129637
0.131071
0.131724
0.14007
0.140048
0.140046
0.140048
0.140054
0.140064
0.14007
0.140079
0.140098
0.140122
0.140145
0.140155
0.140152
0.140082
0.139754
0.139653
0.137468
0.125568
0.127895
0.208031
0.374213
0.551612
0.67009
0.706138
0.684673
0.682251
0.689909
0.698175
0.727768
0.794131
0.914505
1.07784
1.23861
1.33304
1.35048
1.39029
1.46597
1.55192
1.51797
0.140118
0.140153
0.140197
0.140229
0.140268
0.140297
0.140301
0.140276
0.140243
0.140225
0.140219
0.140215
0.140207
0.140191
0.140165
0.140128
0.140076
0.14001
0.139926
0.13982
0.139683
0.139508
0.139288
0.139019
0.138704
0.138337
0.137925
0.137469
0.136972
0.136439
0.135876
0.135294
0.134713
0.134169
0.133684
0.133472
0.133207
0.134425
0.134686
0.14013
0.140111
0.140112
0.140118
0.140128
0.140143
0.140158
0.140174
0.140199
0.140234
0.140279
0.140323
0.140358
0.140392
0.140265
0.140148
0.140168
0.133408
0.122631
0.163068
0.302118
0.49513
0.654312
0.729046
0.72587
0.714893
0.733881
0.758856
0.809347
0.910873
1.06986
1.25926
1.43313
1.52122
1.49906
1.485
1.52418
1.56568
1.48221
0.140177
0.140213
0.140258
0.14029
0.140326
0.140349
0.140345
0.140329
0.140317
0.140314
0.140318
0.140325
0.140328
0.140328
0.14032
0.140304
0.140277
0.140239
0.140189
0.140125
0.140047
0.139954
0.139842
0.139704
0.139538
0.13934
0.139107
0.138838
0.138534
0.138198
0.137833
0.137451
0.137065
0.136704
0.136385
0.136259
0.136118
0.136943
0.136796
0.140174
0.140156
0.14016
0.140169
0.140182
0.140202
0.140223
0.140245
0.140275
0.140314
0.140366
0.140429
0.140492
0.140564
0.140592
0.14046
0.140897
0.138909
0.126915
0.136129
0.234741
0.423218
0.617588
0.737286
0.761429
0.749755
0.780095
0.825136
0.909647
1.04824
1.23094
1.43813
1.62302
1.71116
1.66131
1.58313
1.57782
1.56386
1.42275
0.140218
0.140252
0.140294
0.140321
0.140351
0.14037
0.140363
0.140354
0.140357
0.140366
0.140379
0.140392
0.140403
0.140412
0.140416
0.140414
0.140405
0.140387
0.14036
0.140322
0.140274
0.140216
0.140146
0.140063
0.139967
0.139855
0.139726
0.139578
0.13941
0.139222
0.139014
0.138792
0.138563
0.138345
0.13815
0.138068
0.137977
0.13852
0.138148
0.140204
0.140188
0.140195
0.140207
0.140225
0.140248
0.140273
0.140299
0.140333
0.140376
0.14043
0.140497
0.140577
0.140665
0.140769
0.140736
0.140942
0.141355
0.133994
0.125994
0.181454
0.345143
0.561321
0.728307
0.791211
0.797149
0.831875
0.905888
1.02364
1.18523
1.38791
1.61202
1.80834
1.8987
1.8365
1.68521
1.62639
1.54528
1.33677
0.140243
0.140271
0.140304
0.140324
0.140351
0.140372
0.140371
0.140366
0.140377
0.140393
0.140412
0.14043
0.140447
0.140462
0.140474
0.140481
0.140483
0.140478
0.140467
0.140448
0.140421
0.140386
0.140342
0.14029
0.140228
0.140157
0.140077
0.139986
0.139885
0.139775
0.139655
0.139527
0.139397
0.139272
0.13916
0.139114
0.139052
0.13942
0.139027
0.140224
0.140213
0.140223
0.140239
0.14026
0.140287
0.140316
0.140343
0.14038
0.140425
0.14048
0.140547
0.14063
0.140727
0.140852
0.140938
0.140957
0.141825
0.139479
0.127377
0.146871
0.271055
0.490078
0.700671
0.811572
0.843601
0.893118
0.993464
1.13313
1.31606
1.53906
1.78096
1.98998
2.08362
2.00786
1.79237
1.66962
1.50884
1.2275
0.140255
0.140275
0.140298
0.140312
0.140338
0.140367
0.140376
0.140374
0.140386
0.140406
0.140428
0.14045
0.140471
0.14049
0.140506
0.140519
0.140528
0.140532
0.140531
0.140524
0.140511
0.140493
0.140468
0.140436
0.140398
0.140353
0.140302
0.140244
0.14018
0.14011
0.140035
0.139957
0.139879
0.139806
0.139742
0.139721
0.139684
0.139936
0.139716
0.140236
0.140231
0.140246
0.140266
0.140291
0.140321
0.140353
0.140384
0.14042
0.140465
0.140521
0.140587
0.140669
0.140767
0.14089
0.141043
0.141067
0.141587
0.14212
0.133439
0.130035
0.209175
0.410751
0.65425
0.818292
0.883557
0.954183
1.07325
1.23435
1.43923
1.68353
1.94453
2.1678
2.26618
2.17705
1.90711
1.70763
1.4548
1.09945
0.140258
0.140269
0.140285
0.140296
0.140325
0.140363
0.140381
0.140381
0.140392
0.140411
0.140435
0.140459
0.140483
0.140504
0.140523
0.14054
0.140553
0.140563
0.140568
0.140569
0.140566
0.140557
0.140545
0.140527
0.140505
0.140479
0.140448
0.140412
0.140373
0.140329
0.140283
0.140234
0.140186
0.140143
0.140107
0.1401
0.140084
0.140251
0.140199
0.140245
0.140247
0.140267
0.140292
0.140321
0.140354
0.140389
0.140423
0.140459
0.140502
0.140555
0.14062
0.140698
0.140795
0.140911
0.141076
0.14119
0.141359
0.14264
0.139175
0.126981
0.164586
0.331252
0.590813
0.807848
0.914795
1.00526
1.14336
1.32619
1.5537
1.82032
2.10179
2.34094
2.44609
2.34586
2.0281
1.74112
1.38595
0.957699
0.140258
0.140264
0.140275
0.140286
0.140316
0.140359
0.140382
0.140384
0.140395
0.140414
0.140438
0.140464
0.140488
0.140511
0.140532
0.14055
0.140566
0.140579
0.140588
0.140594
0.140596
0.140594
0.14059
0.140582
0.140571
0.140557
0.14054
0.14052
0.140498
0.140473
0.140447
0.140419
0.140392
0.140368
0.14035
0.140353
0.140353
0.14047
0.140474
0.140253
0.140262
0.140288
0.140318
0.140351
0.140388
0.140425
0.140461
0.140498
0.14054
0.140589
0.14065
0.140724
0.140815
0.140926
0.141076
0.141259
0.141316
0.142246
0.142481
0.131255
0.138106
0.25908
0.51419
0.77799
0.934886
1.04642
1.20315
1.40777
1.65839
1.9482
2.25135
2.5081
2.62246
2.51408
2.15261
1.77155
1.3076
0.808676
0.14026
0.140262
0.140271
0.140281
0.14031
0.140351
0.140377
0.140383
0.140395
0.140415
0.140439
0.140464
0.140489
0.140513
0.140535
0.140554
0.140571
0.140586
0.140597
0.140605
0.140611
0.140614
0.140614
0.140613
0.140609
0.140603
0.140596
0.140587
0.140576
0.140565
0.140553
0.14054
0.140528
0.140519
0.140515
0.140525
0.140536
0.140629
0.140643
0.140263
0.140278
0.140309
0.140344
0.140381
0.140421
0.140461
0.1405
0.140538
0.14058
0.140627
0.140683
0.14075
0.140834
0.140938
0.14107
0.141267
0.141376
0.141776
0.143447
0.137299
0.127435
0.200309
0.429905
0.727432
0.940149
1.07825
1.25213
1.47813
1.75207
2.06567
2.3916
2.66772
2.79399
2.68086
2.28104
1.80127
1.22754
0.659909
0.140265
0.140265
0.140274
0.140279
0.140301
0.140338
0.140364
0.140375
0.14039
0.140411
0.140436
0.140461
0.140487
0.140511
0.140534
0.140554
0.140572
0.140587
0.140599
0.140609
0.140617
0.140622
0.140626
0.140628
0.140629
0.140628
0.140627
0.140625
0.140623
0.140621
0.140618
0.140616
0.140615
0.140617
0.140622
0.140639
0.140656
0.140738
0.14076
0.140275
0.140295
0.140331
0.14037
0.140411
0.140454
0.140497
0.140538
0.140577
0.14062
0.140667
0.140721
0.140782
0.140857
0.140951
0.141069
0.141245
0.141432
0.141541
0.14309
0.141842
0.127677
0.158586
0.344792
0.656571
0.926477
1.10019
1.28988
1.5363
1.83339
2.17116
2.52077
2.81809
2.95929
2.84542
2.41319
1.8336
1.15556
0.523002
0.140275
0.140274
0.140279
0.140278
0.14029
0.140319
0.140347
0.140362
0.140381
0.140404
0.140429
0.140455
0.140481
0.140505
0.140528
0.140549
0.140567
0.140583
0.140597
0.140608
0.140617
0.140624
0.140629
0.140633
0.140637
0.14064
0.140642
0.140645
0.140648
0.140652
0.140656
0.140661
0.140668
0.140677
0.14069
0.140712
0.140734
0.140808
0.140836
0.140291
0.140313
0.140352
0.140395
0.140438
0.140485
0.14053
0.140574
0.140615
0.140659
0.140707
0.140759
0.140818
0.140885
0.140969
0.141074
0.14122
0.141439
0.141511
0.142388
0.143919
0.133129
0.134419
0.266371
0.568198
0.889456
1.11004
1.31623
1.58129
1.90098
2.26296
2.63704
2.95746
3.11701
3.00676
2.54893
1.8726
1.10198
0.414282
0.14029
0.140287
0.140286
0.140276
0.140279
0.140301
0.140329
0.140347
0.140368
0.140393
0.140419
0.140446
0.140471
0.140496
0.140519
0.14054
0.140559
0.140576
0.14059
0.140602
0.140611
0.140619
0.140626
0.140632
0.140637
0.140642
0.140647
0.140653
0.140659
0.140667
0.140675
0.140685
0.140697
0.140712
0.140729
0.140755
0.140781
0.140849
0.140883
0.140309
0.140332
0.140373
0.140418
0.140463
0.140511
0.140558
0.140604
0.140648
0.140693
0.140742
0.140795
0.140853
0.140918
0.140993
0.141087
0.141207
0.141409
0.141554
0.141873
0.144062
0.139132
0.125919
0.201957
0.467998
0.825417
1.10321
1.33123
1.61219
1.95345
2.33942
2.73856
3.08401
3.26567
3.16415
2.68806
1.92279
1.07588
0.357575
0.140307
0.1403
0.140292
0.140272
0.140268
0.140284
0.140311
0.140332
0.140355
0.140381
0.140408
0.140434
0.14046
0.140485
0.140507
0.140528
0.140547
0.140564
0.140579
0.140591
0.140602
0.14061
0.140618
0.140624
0.140631
0.140637
0.140644
0.140651
0.14066
0.140669
0.140681
0.140694
0.140709
0.140727
0.140748
0.140776
0.140806
0.14087
0.140908
0.140329
0.140352
0.140393
0.140438
0.140484
0.140532
0.14058
0.140628
0.140674
0.14072
0.140769
0.140824
0.140884
0.140949
0.141021
0.141106
0.141209
0.141372
0.141578
0.14166
0.143304
0.143097
0.127885
0.156779
0.365071
0.733225
1.07277
1.33405
1.62808
1.98937
2.39885
2.82352
3.19594
3.40373
3.31669
2.82731
1.98917
1.08256
0.371609
0.140323
0.140309
0.140293
0.140268
0.140258
0.14027
0.140296
0.140318
0.140342
0.140368
0.140395
0.140422
0.140447
0.140471
0.140494
0.140515
0.140533
0.14055
0.140565
0.140577
0.140588
0.140597
0.140605
0.140612
0.140619
0.140627
0.140634
0.140643
0.140652
0.140663
0.140676
0.140691
0.140709
0.140729
0.140752
0.140782
0.140814
0.140875
0.140918
0.140345
0.14037
0.140411
0.140456
0.140501
0.140548
0.140596
0.140644
0.140691
0.140738
0.140789
0.140846
0.140907
0.140973
0.141045
0.141127
0.141222
0.14135
0.141562
0.141638
0.142478
0.144525
0.134297
0.132444
0.270882
0.616434
1.0106
1.3209
1.62926
2.00708
2.43958
2.89009
3.2914
3.52963
3.46405
2.97166
2.07564
1.12246
0.453884
0.140333
0.140312
0.140289
0.140262
0.140251
0.140259
0.140282
0.140305
0.14033
0.140356
0.140383
0.140409
0.140434
0.140457
0.140479
0.140499
0.140517
0.140534
0.140548
0.140561
0.140572
0.140581
0.140589
0.140597
0.140604
0.140611
0.140619
0.140628
0.140639
0.140651
0.140664
0.14068
0.140699
0.14072
0.140745
0.140777
0.14081
0.14087
0.140917
0.140355
0.140383
0.140424
0.140469
0.140512
0.140559
0.140606
0.140653
0.1407
0.140748
0.1408
0.140858
0.140921
0.140989
0.141063
0.141144
0.141236
0.141345
0.141527
0.141672
0.141965
0.144216
0.140334
0.125897
0.196839
0.485166
0.910367
1.28367
1.61553
2.00541
2.45978
2.93642
3.36845
3.64165
3.6058
3.12314
2.18614
1.19321
0.582463
0.140335
0.140309
0.140284
0.140257
0.140244
0.140249
0.140269
0.140292
0.140317
0.140343
0.14037
0.140395
0.140419
0.140442
0.140463
0.140483
0.1405
0.140516
0.14053
0.140543
0.140553
0.140562
0.14057
0.140578
0.140585
0.140592
0.140601
0.14061
0.14062
0.140632
0.140647
0.140663
0.140682
0.140705
0.140731
0.140763
0.140798
0.140858
0.140908
0.140356
0.140389
0.140431
0.140475
0.140518
0.140564
0.140609
0.140655
0.140702
0.14075
0.140802
0.140861
0.140926
0.140997
0.141073
0.141155
0.141246
0.141348
0.141495
0.141684
0.141774
0.143279
0.143705
0.12995
0.149867
0.355799
0.772193
1.21034
1.58356
1.98462
2.45661
2.96047
3.42506
3.7377
3.74075
3.28292
2.3269
1.29355
0.728944
0.140331
0.140303
0.140279
0.140252
0.140238
0.140239
0.140256
0.140279
0.140303
0.14033
0.140356
0.140381
0.140404
0.140426
0.140447
0.140466
0.140483
0.140498
0.140511
0.140523
0.140533
0.140542
0.140549
0.140557
0.140564
0.140571
0.140579
0.140588
0.140598
0.14061
0.140625
0.140642
0.140661
0.140684
0.140711
0.140744
0.140782
0.140842
0.140895
0.140353
0.140388
0.140432
0.140476
0.140518
0.140563
0.140607
0.140652
0.140698
0.140745
0.140796
0.140855
0.140921
0.140995
0.141075
0.141159
0.141251
0.141352
0.141475
0.141664
0.141755
0.142473
0.14447
0.13696
0.129865
0.247533
0.607215
1.08913
1.52394
1.94456
2.4291
2.95928
3.45894
3.81552
3.86738
3.45163
2.50169
1.42661
0.870981
0.140325
0.140299
0.140276
0.140249
0.140231
0.140227
0.140243
0.140265
0.14029
0.140316
0.140342
0.140366
0.140389
0.14041
0.14043
0.140448
0.140464
0.140478
0.140491
0.140502
0.140512
0.14052
0.140527
0.140534
0.14054
0.140547
0.140555
0.140563
0.140573
0.140586
0.1406
0.140617
0.140637
0.140661
0.140688
0.140723
0.140763
0.140825
0.140881
0.140348
0.140384
0.140428
0.140472
0.140514
0.140557
0.140601
0.140644
0.14069
0.140735
0.140785
0.140842
0.140907
0.140981
0.141064
0.141154
0.141248
0.14135
0.141463
0.141628
0.141773
0.142039
0.143831
0.142061
0.128515
0.174305
0.438396
0.917046
1.42047
1.88102
2.37732
2.92961
3.46716
3.87258
3.98391
3.62808
2.72297
1.60181
1.00167
0.140322
0.140297
0.140274
0.140245
0.140223
0.140215
0.14023
0.140251
0.140276
0.140302
0.140328
0.140351
0.140373
0.140394
0.140412
0.140429
0.140444
0.140458
0.14047
0.14048
0.140489
0.140497
0.140503
0.140509
0.140515
0.140522
0.140529
0.140537
0.140547
0.140559
0.140574
0.140591
0.140611
0.140636
0.140665
0.140702
0.140744
0.140808
0.140869
0.140345
0.140379
0.140423
0.140466
0.140507
0.140549
0.140592
0.140634
0.140678
0.140722
0.140771
0.140825
0.140887
0.140959
0.141042
0.141135
0.141235
0.141341
0.141453
0.141594
0.141766
0.141892
0.142934
0.144032
0.134757
0.138604
0.294385
0.708402
1.25683
1.78097
2.30016
2.8698
3.44519
3.9052
4.08711
3.8076
2.9723
1.83179
1.13675
0.14032
0.140297
0.140272
0.14024
0.140215
0.140203
0.140216
0.140237
0.140263
0.140289
0.140314
0.140337
0.140358
0.140377
0.140394
0.14041
0.140425
0.140437
0.140448
0.140458
0.140466
0.140473
0.140479
0.140484
0.14049
0.140496
0.140502
0.140511
0.14052
0.140533
0.140547
0.140565
0.140586
0.140612
0.140643
0.140682
0.140727
0.140794
0.140859
0.140343
0.140376
0.140418
0.14046
0.140499
0.14054
0.140581
0.140622
0.140665
0.140708
0.140754
0.140805
0.140864
0.140931
0.14101
0.141102
0.141207
0.141319
0.141437
0.141567
0.141734
0.141864
0.142328
0.143911
0.140628
0.130341
0.196312
0.496155
1.03041
1.62269
2.18943
2.77872
3.38853
3.90832
4.17041
3.98586
3.24711
2.12718
1.31513
0.140319
0.140295
0.140269
0.140235
0.140207
0.140192
0.140203
0.140224
0.140249
0.140275
0.1403
0.140322
0.140342
0.14036
0.140377
0.140391
0.140405
0.140416
0.140426
0.140435
0.140442
0.140448
0.140454
0.140459
0.140464
0.140469
0.140476
0.140484
0.140494
0.140507
0.140522
0.140541
0.140564
0.140591
0.140625
0.140667
0.140715
0.140785
0.140854
0.140342
0.140373
0.140413
0.140454
0.140492
0.140531
0.140571
0.14061
0.140651
0.140693
0.140737
0.140785
0.14084
0.140902
0.140975
0.141062
0.141164
0.14128
0.141406
0.141537
0.141693
0.141848
0.142056
0.143126
0.143361
0.134476
0.147504
0.320075
0.765293
1.38791
2.02455
2.65117
3.29308
3.87467
4.22683
4.15837
3.5419
2.49417
1.58175
0.140318
0.140293
0.140265
0.14023
0.1402
0.140182
0.140191
0.140212
0.140237
0.140262
0.140286
0.140307
0.140327
0.140344
0.140359
0.140373
0.140385
0.140395
0.140405
0.140412
0.140419
0.140424
0.140429
0.140434
0.140438
0.140444
0.14045
0.140459
0.14047
0.140483
0.1405
0.14052
0.140545
0.140575
0.140611
0.140656
0.140709
0.140783
0.140854
0.140339
0.14037
0.140409
0.140447
0.140484
0.140522
0.14056
0.140598
0.140637
0.140678
0.14072
0.140766
0.140818
0.140876
0.140942
0.14102
0.141114
0.141228
0.141357
0.141496
0.141647
0.141813
0.141964
0.142488
0.143661
0.139998
0.133836
0.205605
0.51005
1.08364
1.77797
2.46948
3.15285
3.79577
4.24662
4.31147
3.84735
2.91698
1.95915
0.140315
0.140289
0.14026
0.140225
0.140195
0.140174
0.140181
0.140201
0.140225
0.14025
0.140273
0.140294
0.140312
0.140327
0.140342
0.140354
0.140365
0.140375
0.140383
0.14039
0.140396
0.140401
0.140405
0.14041
0.140415
0.14042
0.140427
0.140437
0.140448
0.140463
0.140482
0.140505
0.140532
0.140565
0.140605
0.140654
0.14071
0.140787
0.140861
0.140335
0.140366
0.140403
0.140441
0.140476
0.140513
0.140549
0.140586
0.140624
0.140663
0.140703
0.140747
0.140796
0.140851
0.140912
0.140982
0.141067
0.14117
0.141294
0.141436
0.14159
0.141758
0.141917
0.142164
0.143062
0.14281
0.135818
0.151706
0.314142
0.75549
1.43907
2.20216
2.95177
3.66008
4.21644
4.42746
4.14388
3.37478
2.44461
0.140311
0.140285
0.140257
0.140222
0.140191
0.140169
0.140174
0.140192
0.140216
0.14024
0.140262
0.14028
0.140297
0.140312
0.140325
0.140336
0.140347
0.140356
0.140363
0.140369
0.140375
0.140379
0.140384
0.140388
0.140393
0.1404
0.140408
0.140419
0.140432
0.14045
0.140471
0.140496
0.140527
0.140564
0.140607
0.140659
0.140719
0.140798
0.140873
0.140331
0.140361
0.140398
0.140434
0.140468
0.140504
0.140539
0.140575
0.140611
0.140649
0.140688
0.14073
0.140776
0.140827
0.140884
0.140949
0.141024
0.141115
0.141228
0.141364
0.141519
0.141687
0.141859
0.142028
0.142498
0.143279
0.140261
0.136901
0.19874
0.47106
1.0427
1.82465
2.65634
3.44807
4.11708
4.48653
4.39887
3.82499
2.98613
0.140307
0.140282
0.140254
0.140219
0.140188
0.140166
0.140169
0.140187
0.140209
0.140231
0.140251
0.140268
0.140284
0.140297
0.140309
0.14032
0.140329
0.140337
0.140344
0.14035
0.140355
0.14036
0.140364
0.14037
0.140376
0.140384
0.140394
0.140407
0.140423
0.140443
0.140468
0.140497
0.140531
0.140571
0.140618
0.140673
0.140735
0.140815
0.140889
0.140327
0.140356
0.140392
0.140427
0.14046
0.140495
0.14053
0.140564
0.1406
0.140636
0.140673
0.140714
0.140757
0.140805
0.140859
0.140919
0.140987
0.141067
0.141165
0.141288
0.141435
0.141602
0.141778
0.141944
0.142185
0.142853
0.142554
0.13782
0.150441
0.278781
0.667214
1.359
2.23206
3.12359
3.91658
4.46221
4.58353
4.22577
3.52556
0.140303
0.140278
0.14025
0.140217
0.140187
0.140164
0.140167
0.140183
0.140203
0.140224
0.140242
0.140258
0.140271
0.140283
0.140294
0.140304
0.140313
0.14032
0.140327
0.140333
0.140338
0.140343
0.140349
0.140355
0.140363
0.140374
0.140386
0.140402
0.140422
0.140445
0.140473
0.140506
0.140544
0.140587
0.140637
0.140694
0.140757
0.140836
0.140908
0.140322
0.140351
0.140386
0.140421
0.140454
0.140488
0.140522
0.140556
0.14059
0.140625
0.140661
0.140699
0.14074
0.140785
0.140834
0.140889
0.140952
0.141024
0.14111
0.141217
0.141349
0.141506
0.141679
0.141852
0.142026
0.142404
0.142924
0.141006
0.138884
0.18113
0.388064
0.889742
1.6906
2.64474
3.5713
4.3066
4.66525
4.54389
4.01782
0.140298
0.140274
0.140247
0.140215
0.140185
0.140161
0.140164
0.140179
0.140199
0.140218
0.140234
0.140248
0.14026
0.140271
0.140281
0.14029
0.140298
0.140306
0.140313
0.140319
0.140325
0.140331
0.140338
0.140346
0.140357
0.14037
0.140387
0.140406
0.14043
0.140457
0.140489
0.140525
0.140566
0.140612
0.140664
0.140721
0.140784
0.14086
0.140929
0.140317
0.140346
0.140381
0.140415
0.140448
0.140482
0.140515
0.140548
0.140582
0.140616
0.14065
0.140686
0.140725
0.140766
0.14081
0.140861
0.140918
0.140983
0.141059
0.141152
0.141267
0.141408
0.14157
0.141741
0.141907
0.14213
0.142599
0.142494
0.139717
0.146648
0.22909
0.517696
1.123
2.01833
3.03402
3.95623
4.58061
4.73854
4.42669
0.140293
0.14027
0.140244
0.140212
0.140182
0.140156
0.140158
0.140174
0.140193
0.140211
0.140226
0.140239
0.14025
0.14026
0.14027
0.140278
0.140287
0.140294
0.140301
0.140309
0.140316
0.140323
0.140332
0.140344
0.140358
0.140375
0.140395
0.140419
0.140446
0.140478
0.140513
0.140552
0.140596
0.140644
0.140696
0.140752
0.140813
0.140885
0.14095
0.140312
0.140341
0.140376
0.14041
0.140443
0.140477
0.14051
0.140543
0.140576
0.140608
0.140642
0.140676
0.140712
0.14075
0.140791
0.140836
0.140887
0.140945
0.141013
0.141093