/*--------------------------------*- C++ -*----------------------------------*\
  =========                 |
  \\      /  F ield         | OpenFOAM: The Open Source CFD Toolbox
   \\    /   O peration     | Website:  https://openfoam.org
    \\  /    A nd           | Version:  9
     \\/     M anipulation  |
\*---------------------------------------------------------------------------*/
FoamFile
{
    format      ascii;
    class       volScalarField;
    location    "220";
    object      p;
}
// * * * * * * * * * * * * * * * * * * * * * * * * * * * * * * * * * * * * * //

dimensions      [0 2 -2 0 0 0 0];

internalField   nonuniform List<scalar> 
10720
(
-4.87171
-7.3608
-9.7773
-10.2863
-8.17155
-4.99009
-0.721799
3.38243
5.8058
6.55586
6.59359
6.65542
6.84951
7.06019
7.37432
7.70207
7.79612
7.51872
7.07606
6.86787
7.12185
7.63472
7.91002
7.36903
5.33363
1.23833
-5.00519
-12.5446
-19.6599
-24.6013
-26.1498
-25.5501
-26.7861
-32.4185
-44.0378
-60.354
-108.911
-163.969
-239.072
0.265879
5.26122
13.371
22.7641
32.7079
42.5863
51.6659
59.0091
64.1215
67.1349
68.3644
68.2858
67.1888
65.073
62.2584
59.2193
56.1495
52.9523
49.5277
45.8651
42.0201
37.9702
33.6808
29.1487
24.5892
20.1801
15.8314
11.4925
7.14614
2.7782
-1.67087
-6.28219
-11.1967
-16.6635
-22.9374
-30.9399
-41.0528
-58.9043
-91.2821
20.2774
16.675
13.3397
11.424
10.9245
11.1112
11.2863
10.6121
8.86053
7.43128
7.2942
7.32434
7.20554
7.24093
7.45679
7.75794
7.87974
7.62898
7.16251
6.88577
7.06239
7.5243
7.76778
7.20546
5.17283
1.11314
-5.06475
-12.5292
-19.5901
-24.4979
-26.0125
-25.3844
-26.6192
-32.3213
-44.0639
-60.5291
-109.12
-163.968
-242.217
23.7847
27.5414
31.9647
37.3079
43.1813
49.2791
55.135
60.1637
63.9553
66.3855
67.5239
67.5396
66.538
64.6071
62.0445
59.2078
56.2468
53.1091
49.7332
46.1233
42.3234
38.3214
34.0912
29.639
25.1343
20.7273
16.3626
11.9984
7.62168
3.21875
-1.26753
-5.91668
-10.8664
-16.3636
-22.6603
-30.67
-40.7639
-58.5879
-88.9206
22.5791
19.7116
17.1844
14.9503
13.3372
12.4092
12.0616
11.9993
11.5606
10.452
9.18076
8.13484
7.66721
7.53406
7.61961
7.83899
7.96325
7.73616
7.23864
6.87648
6.95338
7.34059
7.53658
6.94396
4.90472
0.874669
-5.24038
-12.6291
-19.6103
-24.4522
-25.9089
-25.2359
-26.4619
-32.244
-44.174
-60.8222
-109.508
-164.351
-245.31
25.6486
29.4603
34.1144
39.376
44.8652
50.3658
55.491
59.8224
63.1114
65.2805
66.3697
66.4708
65.6359
63.9446
61.6339
58.9719
56.0979
53.015
49.698
46.1511
42.403
38.4495
34.2729
29.8831
25.4139
21.0041
16.631
12.2583
7.87197
3.45669
-1.0432
-5.70704
-10.6697
-16.1767
-22.477
-30.4778
-40.5388
-58.2165
-86.7735
30.2796
27.7204
25.0753
22.4992
20.2833
18.4783
17.0092
15.76
14.6218
13.3625
11.7614
9.95774
8.63492
8.0538
7.95962
8.04854
8.11752
7.87145
7.30647
6.82837
6.79032
7.10119
7.25499
6.63469
4.59384
0.603134
-5.44525
-12.7657
-19.6633
-24.4301
-25.8351
-25.1579
-26.4305
-32.2746
-44.3587
-61.1666
-110.003
-165.014
-248.136
32.7868
35.6124
38.9934
42.9795
47.2184
51.5724
55.7278
59.3175
62.1169
64.0376
65.0684
65.2336
64.5481
63.0757
61.0015
58.5282
55.7836
52.8025
49.5803
46.1207
42.4439
38.5537
34.4411
30.1195
25.6984
21.304
16.9351
12.5607
8.16694
3.7385
-0.777549
-5.4599
-10.4395
-15.9603
-22.2672
-30.262
-40.2801
-57.7974
-84.7158
32.6554
30.2915
27.809
25.2861
23.091
21.2246
19.6319
18.2076
16.8434
15.4698
14.0412
12.3606
10.5068
9.11276
8.50965
8.40308
8.36994
8.05275
7.37536
6.74096
6.5647
6.80192
6.9344
6.30684
4.28832
0.358645
-5.62574
-12.8954
-19.7086
-24.3893
-25.7545
-25.1306
-26.5213
-32.4254
-44.6316
-61.5587
-110.604
-165.901
-250.879
35.0026
37.6387
40.77
44.3387
48.0399
51.8036
55.3879
58.496
60.9511
62.6827
63.6617
63.8733
63.3146
62.0419
60.1963
57.9253
55.3381
52.4834
49.3726
46.0123
42.4196
38.6033
34.5621
30.3122
25.9454
21.5749
17.2152
12.8429
8.44532
4.00747
-0.521047
-5.21836
-10.2114
-15.7422
-22.0515
-30.0337
-39.9965
-57.3256
-82.6597
35.2982
33.186
30.867
28.4619
26.2242
24.1413
22.2418
20.5157
18.905
17.3651
15.8965
14.3834
12.615
10.7647
9.42773
8.88595
8.69742
8.27909
7.4458
6.61919
6.27917
6.44601
6.58487
5.98743
4.02031
0.16282
-5.77056
-12.9965
-19.7117
-24.2958
-25.6415
-25.1439
-26.7285
-32.6973
-44.9913
-62.0103
-111.346
-166.999
-253.593
37.3385
39.5682
42.2232
45.2824
48.4514
51.6923
54.8002
57.5163
59.6892
61.2599
62.1841
62.423
61.9687
60.8739
59.241
57.1729
54.758
52.0484
49.0652
45.8193
42.3261
38.5973
34.6372
30.4652
26.1601
21.8233
17.4805
13.1168
8.7206
4.27762
-0.260255
-4.96976
-9.97395
-15.5125
-21.8209
-29.7852
-39.6805
-56.7861
-80.6009
36.6523
34.706
32.5325
30.2257
28.0562
25.9915
24.0614
22.2859
20.612
18.9991
17.4396
15.9352
14.3754
12.5884
10.7846
9.59052
9.05245
8.51173
7.51355
6.46513
5.94277
6.0454
6.22109
5.69849
3.81221
0.0303903
-5.85587
-13.0159
-19.6103
-24.1026
-25.4776
-25.2135
-27.039
-33.0734
-45.4436
-62.5395
-112.251
-168.296
-256.236
38.5178
40.5247
42.9057
45.6247
48.4147
51.2662
54.0089
56.417
58.3628
59.7962
60.6616
60.9104
60.5403
59.6001
58.159
56.2865
54.0505
51.4994
48.6581
45.54
42.16
38.5313
34.6621
30.5746
26.3383
22.045
17.7275
13.379
8.98952
4.54565
0.00210112
-4.71653
-9.72916
-15.2722
-21.5763
-29.5155
-39.3312
-56.1781
-78.5384
37.6474
35.8779
33.8559
31.6865
29.6195
27.581
25.6198
23.7884
22.0558
20.3969
18.7878
17.2341
15.7458
14.1707
12.3352
10.6026
9.48124
8.69423
7.56262
6.28544
5.56879
5.61592
5.86176
5.45792
3.6874
-0.000331134
-5.81496
-12.8595
-19.3261
-23.7631
-25.2673
-25.355
-27.4586
-33.5638
-45.9833
-63.1581
-113.333
-169.787
-258.81
39.3288
41.1105
43.2297
45.6498
48.1217
50.6515
53.0932
55.2469
57.003
58.313
59.113
59.3574
59.0548
58.2448
56.9727
55.2829
53.2255
50.8403
48.1512
45.1722
41.9176
38.4007
34.6326
30.637
26.4775
22.2373
17.9538
13.6274
9.25058
4.81082
0.26553
-4.45863
-9.47649
-15.0207
-21.3163
-29.2231
-38.9463
-55.4964
-76.4729
38.1978
36.57
34.6837
32.6363
30.6712
28.7002
26.7676
24.9456
23.2126
21.5553
19.9523
18.3773
16.857
15.3917
13.7443
11.8248
10.0901
8.84398
7.55284
6.10254
5.18521
5.18056
5.53175
5.29267
3.67994
0.126221
-5.56153
-12.4382
-18.7907
-23.2453
-25.015
-25.5674
-27.9689
-34.1562
-46.6248
-63.8864
-114.591
-171.476
-261.296
39.7309
41.3376
43.2481
45.4247
47.6353
49.9
52.0915
54.0328
55.6263
56.822
57.5523
57.7827
57.5321
56.8293
55.703
54.1803
52.2956
50.078
47.547
44.7155
41.5964
38.2021
34.5449
30.6491
26.5745
22.3968
18.1564
13.8597
9.50193
5.07165
0.529372
-4.19634
-9.21586
-14.7573
-21.0398
-28.9054
-38.5236
-54.7392
-74.4017
38.4761
36.9806
35.2236
33.2991
31.4431
29.5518
27.6689
25.8717
24.1534
22.5094
20.9249
19.365
17.8176
16.3371
14.8464
13.0296
10.9177
9.06871
7.48789
5.92167
4.85051
4.77408
5.26496
5.23911
3.83587
0.4713
-5.01947
-11.6935
-17.9661
-22.5536
-24.7387
-25.8479
-28.5801
-34.8721
-47.3667
-64.7367
-116.03
-173.37
-263.695
39.8767
41.3286
43.0587
45.0263
47.0155
49.0553
51.0341
52.7937
54.2441
55.3306
55.9896
56.2003
55.9873
55.3709
54.3688
52.996
51.2738
49.2208
46.8501
44.1716
41.1957
37.9331
34.3957
30.608
26.6261
22.5204
18.3323
14.0732
9.74128
5.32651
0.79215
-3.93048
-8.94764
-14.4818
-20.746
-28.5613
-38.0613
-53.9036
-72.325
38.5292
37.1512
35.5109
33.7012
31.9485
30.1457
28.326
26.571
24.8867
23.2726
21.715
20.1861
18.6578
17.1362
15.6691
14.0374
11.8806
9.50937
7.4681
5.76091
4.61463
4.4568
5.10575
5.34135
4.20242
1.08249
-4.15286
-10.6208
-16.8725
-21.7197
-24.452
-26.1927
-29.2798
-35.7028
-48.2262
-65.7312
-117.644
-175.451
-265.968
39.8137
41.1334
42.7078
44.4968
46.2968
48.1434
49.9391
51.5415
52.8627
53.8439
54.4317
54.6197
54.4323
53.8842
52.9865
51.7462
50.1739
48.2785
46.0666
43.5436
40.7163
37.5929
34.1833
30.5108
26.6295
22.605
18.4784
14.2652
9.96644
5.57354
1.05285
-3.66168
-8.67182
-14.1937
-20.4337
-28.1884
-37.5578
-52.9893
-70.2408
38.4149
37.1414
35.61
33.9088
32.2572
30.5425
28.7926
27.0877
25.4448
23.8702
22.348
20.8532
19.3644
17.847
16.3319
14.8008
12.8248
10.2217
7.65786
5.69758
4.50841
4.33364
5.10617
5.64426
4.81334
1.9784
-2.97574
-9.26144
-15.5686
-20.7924
-24.1793
-26.6051
-30.091
-36.6792
-49.2018
-66.8834
-119.438
-177.67
-268.113
39.5952
40.7979
42.2366
43.8685
45.5044
47.1838
48.8191
50.2829
51.485
52.3661
52.8854
53.0479
52.8759
52.3807
51.5702
50.4451
49.0086
47.2616
45.204
42.8359
40.1602
37.1813
33.906
30.3559
26.5826
22.6478
18.5919
14.4329
10.1749
5.8107
1.30967
-3.39121
-8.38918
-13.8932
-20.1028
-27.7862
-37.0114
-51.996
-68.15
38.1662
36.9884
35.5563
33.9559
32.3985
30.7705
29.0931
27.4468
25.8515
24.3218
22.8423
21.3854
19.9367
18.4595
16.9247
15.3867
13.6261
11.1285
8.20321
5.86999
4.59263
4.47428
5.32283
6.17874
5.67453
3.13714
-1.54841
-7.68907
-14.1332
-19.8238
-23.9361
-27.0904
-31.0071
-37.7874
-50.3059
-68.2187
-121.392
-179.938
-270.139
39.2532
40.3534
41.6711
43.1654
44.657
46.189
47.6837
49.0228
50.1138
50.9003
51.3546
51.4895
51.3246
50.8699
50.131
49.1054
47.7903
46.1808
44.2705
42.0545
39.5308
36.6994
33.5635
30.1418
26.4834
22.6465
18.6699
14.5737
10.3643
6.036
1.56127
-3.11985
-8.09991
-13.5799
-19.752
-27.3525
-36.4213
-50.9242
-66.0506
37.8117
36.7194
35.3798
33.873
32.4055
30.859
29.2578
27.6747
26.1281
24.6448
23.2115
21.7979
20.3898
18.9613
17.4614
15.8958
14.2561
12.067
9.11351
6.41688
4.96229
4.89582
5.81665
6.9489
6.76368
4.50495
0.0515784
-5.98807
-12.6395
-18.8605
-23.7452
-27.6575
-32.052
-39.0498
-51.5298
-69.7487
-123.463
-182.158
-272.102
38.8144
39.8226
41.0337
42.4042
43.768
45.1696
46.5389
47.7647
48.7506
49.4483
49.842
49.948
49.7838
49.3591
48.6787
47.7379
46.5304
45.0465
43.275
41.2058
38.8321
36.1493
33.1563
29.8681
26.3305
22.5989
18.7101
14.685
10.5321
6.24724
1.80566
-2.84915
-7.80515
-13.2543
-19.3815
-26.8872
-35.7862
-49.7761
-63.9416
37.3711
36.3578
35.1025
33.6829
32.2988
30.8316
29.3057
27.7861
26.2885
24.8524
23.4676
22.102
20.7394
19.359
17.9197
16.3767
14.7717
12.8993
10.2489
7.39216
5.6969
5.61283
6.61367
7.93118
8.03231
6.00521
1.74346
-4.25012
-11.1592
-17.9432
-23.6179
-28.3082
-33.2036
-40.4296
-52.8766
-71.4876
-125.563
-184.244
-274.002
38.2975
39.2236
40.3379
41.5986
42.848
44.1318
45.389
46.51
47.3974
48.012
48.349
48.4251
48.2568
47.854
47.2211
46.3523
45.2391
43.8687
42.2262
40.2968
38.0693
35.5343
32.6861
29.5349
26.1232
22.5034
18.7102
14.7645
10.6761
6.44245
2.04141
-2.58004
-7.50513
-12.9163
-18.9902
-26.3885
-35.1056
-48.5538
-61.8214
36.8606
35.9186
34.742
33.403
32.0978
30.7044
29.2521
27.7941
26.3459
24.9578
23.6229
22.3078
20.9955
19.6653
18.29
16.8188
15.2459
13.5813
11.4029
8.70946
6.81647
6.64512
7.68578
9.08563
9.41124
7.56015
3.45438
-2.54947
-9.74474
-17.1008
-23.5687
-29.0431
-34.4678
-41.9337
-54.3262
-73.4195
-127.587
-186.169
-275.724
37.718
38.5693
39.5974
40.7577
41.9042
43.0824
44.2369
45.2604
46.0559
46.5933
46.877
46.9227
46.7466
46.3588
45.7641
44.956
43.9252
42.6565
41.1326
39.335
37.2482
34.8584
32.155
29.1431
25.8615
22.3593
18.6688
14.8101
10.7942
6.61949
2.26654
-2.31421
-7.20116
-12.5665
-18.5784
-25.8567
-34.3786
-47.261
-59.6889
36.2925
35.4164
34.3115
33.0478
31.8151
30.4929
29.1085
27.7115
26.3152
24.9746
23.6889
22.4242
21.1648
19.8894
18.5771
17.1951
15.701
14.1523
12.412
10.1598
8.24525
7.95404
8.97781
10.363
10.8222
9.10433
5.10967
-0.950457
-8.44308
-16.3621
-23.605
-29.8535
-35.806
-43.4997
-55.8606
-75.516
-129.405
-187.929
-276.933
37.0866
37.8711
38.8196
39.8901
40.9433
42.0249
43.0855
44.018
44.7274
45.1932
45.4264
45.4416
45.2549
44.877
44.3126
43.5556
42.5961
41.4182
40.0024
38.3278
36.3751
34.1265
31.5662
28.6946
25.5458
22.1659
18.5844
14.8202
10.8845
6.77668
2.47968
-2.05252
-6.89344
-12.2046
-18.1451
-25.2904
-33.6052
-45.9012
-57.5424
35.6766
34.8602
33.8223
32.6281
31.4637
30.207
28.8871
27.5514
26.2083
24.9132
23.6743
22.4592
21.253
20.0359
18.7881
17.4935
16.1134
14.6644
13.221
11.5195
9.81939
9.43095
10.416
11.6999
12.2002
10.5839
6.64381
0.496777
-7.29409
-15.7561
-23.7433
-30.7356
-37.2159
-45.1204
-57.4379
-77.7047
-130.903
-189.532
-277.167
36.4131
37.1363
38.0136
39.0008
39.9696
40.964
41.9372
42.7836
43.4128
43.8122
43.9978
43.9829
43.7838
43.4114
42.8709
42.1566
41.2587
40.1611
38.8431
37.2822
35.4563
33.3434
30.9235
28.1916
25.1774
21.9236
18.4565
14.7934
10.9453
6.91227
2.67907
-1.79651
-6.58336
-11.8315
-17.6909
-24.6901
-32.7848
-44.4801
-55.3827
35.0206
34.2595
33.2829
32.1535
31.0515
29.8576
28.5979
27.3228
26.0319
24.779
23.5841
22.4177
21.2645
20.1068
18.926
17.7135
16.4525
15.1284
13.8589
12.6334
11.3339
10.9225
11.8631
13.0149
13.4821
11.929
7.98935
1.73349
-6.3483
-15.3175
-23.9908
-31.6769
-38.654
-46.7317
-59.0203
-79.8987
-131.961
-190.912
-275.956
35.7043
36.3723
37.1835
38.0958
38.9869
39.9014
40.794
41.5587
42.1129
42.451
42.5914
42.547
42.3342
41.964
41.4422
40.7635
39.9187
38.8918
37.6621
36.2055
34.498
32.5145
30.2308
27.637
24.7582
21.6329
18.2847
14.7288
10.9753
7.02465
2.86342
-1.54721
-6.27118
-11.4471
-17.2152
-24.0555
-31.9185
-43.0029
-53.2097
34.3309
33.62
32.7006
31.6309
30.5878
29.4513
28.249
27.0318
25.7897
24.576
23.4231
22.3043
21.2035
20.1042
18.9906
17.8566
16.7027
15.5186
14.3742
13.453
12.6112
12.2764
13.1538
14.2143
14.5686
13.0568
9.07492
2.70019
-5.64947
-15.0707
-24.3562
-32.6707
-40.1112
-48.3262
-60.5566
-81.9685
-132.495
-191.92
-272.979
34.9664
35.5836
36.3357
37.178
37.9982
38.84
39.6567
40.3443
40.8286
41.11
41.2079
41.1347
40.9071
40.5369
40.0293
39.3803
38.5811
37.6165
36.4657
35.1044
33.5068
31.6456
29.493
27.0344
24.2902
21.295
18.0693
14.6257
10.9733
7.11246
3.03108
-1.30624
-5.95854
-11.0527
-16.7188
-23.3878
-31.0069
-41.4764
-51.0247
33.613
32.9486
32.0812
31.0671
30.0774
28.9956
27.8459
26.6828
25.4863
24.3102
23.1975
22.1244
21.0736
20.0298
18.9803
17.921
16.8593
15.8047
14.7838
14.0115
13.5427
13.3687
14.145
15.1616
15.3291
13.8759
9.82787
3.34253
-5.23314
-15.0329
-24.8375
-33.6982
-41.5433
-49.8432
-62.0012
-83.7978
-132.425
-192.31
-267.999
34.2042
34.7756
35.4723
36.2519
37.0063
37.7803
38.527
39.1424
39.5614
39.7899
39.8474
39.7465
39.5038
39.1313
38.6346
38.0103
37.2503
36.3404
35.26
33.9852
32.489
30.7427
28.7152
26.388
23.7765
20.9118
17.811
14.4841
10.9386
7.17456
3.18087
-1.07454
-5.646
-10.6486
-16.2019
-22.6877
-30.0522
-39.9075
-48.8298
32.8711
32.2487
31.4299
30.4667
29.5272
28.4946
27.3944
26.2807
25.1273
23.9889
22.9139
21.8824
20.8774
19.8847
18.8942
17.9038
16.9213
15.9716
15.0722
14.3681
14.1021
14.1188
14.7541
15.7104
15.6991
14.2868
10.1913
3.622
-5.12087
-15.2125
-25.4346
-34.7472
-42.934
-51.2688
-63.2947
-85.2524
-131.719
-191.8
-260.906
33.4222
33.9511
34.5984
35.3188
36.0132
36.7255
37.4059
37.9535
38.3117
38.4909
38.5102
38.3825
38.1247
37.7485
37.2601
36.6563
35.9302
35.0681
34.0506
32.8538
31.4509
29.8114
27.9025
25.7018
23.2206
20.4858
17.5113
14.3045
10.8711
7.21025
3.3118
-0.853421
-5.33492
-10.2362
-15.6658
-21.957
-29.0556
-38.3035
-46.6281
32.1092
31.5256
30.7508
29.8347
28.9403
27.9542
26.8989
25.8299
24.719
23.618
22.5764
21.5813
20.6171
19.6702
18.7319
17.8021
16.8873
16.0157
15.2172
14.5603
14.3305
14.4902
14.9713
15.777
15.6469
14.1684
10.1366
3.51111
-5.32643
-15.6133
-26.1388
-35.7972
-44.244
-52.5536
-64.388
-86.2485
-130.34
-190.066
-251.691
32.6233
33.1142
33.715
34.3827
35.0213
35.6755
36.2949
36.779
37.0803
37.2135
37.1968
37.0435
36.7707
36.3899
35.9074
35.3207
34.6237
33.8036
32.8421
31.7158
30.3981
28.8579
27.0607
24.9811
22.6265
20.0199
17.1723
14.088
10.7709
7.21921
3.42321
-0.643662
-5.02586
-9.81585
-15.1107
-21.1972
-28.0208
-36.6717
-44.4237
31.3303
30.7816
30.0476
29.1746
28.3222
27.3772
26.3641
25.336
24.2658
23.1996
22.1861
21.2219
20.2934
19.3867
18.4934
17.6141
16.755
15.9394
15.2085
14.5932
14.3
14.4841
14.8292
15.3628
15.1261
13.4947
9.63551
2.99528
-5.85459
-16.2327
-26.9431
-36.8348
-45.4567
-53.6853
-65.2298
-86.7024
-128.274
-186.819
-240.505
31.811
32.2669
32.8265
33.4442
34.0321
34.6332
35.1946
35.6194
35.8679
35.9581
35.9073
35.7297
35.4421
35.056
34.5778
34.0056
33.3337
32.5507
31.639
30.5763
29.3362
27.8877
26.1951
24.2307
21.9983
19.5176
16.7962
13.8363
10.639
7.20153
3.51465
-0.445762
-4.72002
-9.38901
-14.5384
-20.4104
-26.9499
-35.0194
-42.2214
30.5377
30.021
29.3236
28.49
27.6749
26.7686
25.7932
24.8021
23.7705
22.735
21.744
20.8055
19.9077
19.0353
18.1791
17.3399
16.5231
15.7459
15.0489
14.4592
14.0734
14.1439
14.3668
14.5454
14.1328
12.3254
8.62515
2.08667
-6.7022
-17.0626
-27.8371
-37.8438
-46.5472
-54.6397
-65.7918
-86.5935
-125.491
-181.843
-227.615
30.9879
31.4124
31.9331
32.5066
33.0474
33.5981
34.1064
34.4761
34.6753
34.7252
34.6424
34.4417
34.1397
33.7479
33.2726
32.7126
32.0628
31.3124
30.4451
29.4396
28.2703
26.9062
25.3112
23.4559
21.3408
18.9828
16.3864
13.5513
10.4764
7.15789
3.58608
-0.26047
-4.4178
-8.95611
-13.95
-19.599
-25.8477
-33.3541
-40.0273
29.7335
29.2453
28.5817
27.7836
27.0031
26.1304
25.1897
24.2324
23.2348
22.2255
21.2528
20.3352
19.4628
18.6178
17.7904
16.9806
16.1923
15.4378
14.7479
14.1554
13.6821
13.5424
13.6131
13.4353
12.7243
10.7277
7.09917
0.804615
-7.85784
-18.0936
-28.8111
-38.8162
-47.5074
-55.4164
-66.0536
-85.8966
-121.986
-175.101
-213.429
30.1564
30.5522
31.0386
31.5702
32.0683
32.5734
33.0307
33.3492
33.5027
33.5151
33.4023
33.1797
32.8641
32.4662
31.993
31.4433
30.8126
30.0914
29.2638
28.31
27.2051
25.9185
24.4142
22.6615
20.6588
18.4195
15.9461
13.2356
10.285
7.08902
3.63796
-0.0878124
-4.11997
-8.51859
-13.3471
-18.7657
-24.717
-31.6827
-37.8477
28.9205
28.4581
27.8245
27.0586
26.3082
25.4668
24.5564
23.6282
22.6611
21.6737
20.7159
19.8146
18.9617
18.137
17.3296
16.5388
15.7658
15.019
14.3166
13.691
13.1354
12.7567
12.604
12.1312
11.0257
8.7908
5.12833
-0.850727
-9.29178
-19.3114
-29.8569
-39.746
-48.332
-56.0154
-66.0232
-84.6435
-117.78
-166.771
-198.42
29.3187
29.689
30.1432
30.638
31.0966
31.5585
31.9689
32.2398
32.3511
32.3286
32.1877
31.9446
31.6157
31.2119
30.74
30.1992
29.5858
28.8902
28.0985
27.1911
26.1448
24.9295
23.5095
21.8533
19.9572
17.8324
15.4791
12.8924
10.0671
6.99649
3.67075
0.0722309
-3.82696
-8.07741
-12.7312
-17.9137
-23.5639
-30.0121
-35.6899
28.1004
27.6608
27.0544
26.3172
25.5943
24.7792
23.8959
22.9937
22.0515
21.0829
20.1376
19.2477
18.4075
17.5956
16.7997
16.0176
15.248
14.4947
13.7656
13.083
12.4383
11.8413
11.3959
10.6801
9.18056
6.62492
2.81714
-2.85815
-10.9672
-20.7004
-30.9701
-40.6363
-49.0259
-56.4478
-65.721
-82.8711
-112.968
-157.258
-183.1
28.4768
28.824
29.2503
29.7101
30.1333
30.5561
30.9216
31.1483
31.2207
31.1659
30.9988
30.7365
30.3954
29.9858
29.5149
28.982
28.3835
27.7115
26.9517
26.0867
25.0935
23.9439
22.6019
21.0361
19.2411
17.226
14.9896
12.5249
9.82504
6.88202
3.68581
0.219991
-3.53924
-7.6334
-12.1045
-17.0456
-22.3918
-28.3489
-33.5609
27.2757
26.8564
26.2736
25.5621
24.8624
24.0716
23.2112
22.3303
21.4091
20.4572
19.5224
18.6378
17.8035
16.9971
16.2044
15.4219
14.645
13.8728
13.1056
12.3512
11.6036
10.8211
10.0606
9.10497
7.30614
4.37212
0.309913
-5.1643
-12.85
-22.2285
-32.1499
-41.4983
-49.6046
-56.7173
-65.1981
-80.6773
-107.712
-147.088
-167.958
27.6326
27.9597
28.3597
28.7891
29.1796
29.5654
29.89
30.0758
30.1124
30.0277
29.8364
29.5563
29.2037
28.7888
28.3184
27.7926
27.2079
26.5567
25.8264
24.9995
24.0552
22.9656
21.696
20.2146
18.5152
16.6051
14.4818
12.137
9.56205
6.74789
3.68409
0.356135
-3.25687
-7.18788
-11.469
-16.1653
-21.2076
-26.6993
-31.4685
26.4479
26.0459
25.4846
24.7953
24.1166
23.3452
22.5046
21.6426
20.7374
19.8005
18.8729
17.9874
17.1524
16.345
15.5483
14.757
13.9635
13.1622
12.3472
11.5137
10.6519
9.70726
8.66099
7.43438
5.44727
2.17771
-2.22924
-7.67807
-14.9104
-23.8574
-33.3909
-42.3532
-50.096
-56.8401
-64.516
-78.1852
-102.224
-136.79
-153.443
26.7879
27.097
27.4745
27.8751
28.2366
28.5891
28.8745
29.0226
29.0266
28.9143
28.7007
28.4043
28.0411
27.6213
27.1517
26.6323
26.0601
25.4282
24.7244
23.9326
23.0329
21.9987
20.796
19.3937
17.7844
15.9744
13.9602
11.7324
9.28127
6.59658
3.66775
0.481392
-2.97983
-6.74171
-10.8268
-15.2761
-20.0154
-25.0687
-29.419
25.6191
25.2324
24.689
24.0193
23.3576
22.6041
21.7794
20.9319
20.0402
19.1157
18.1912
17.2993
16.4578
15.6438
14.8368
14.0293
13.2114
12.373
11.5028
10.5868
9.60668
8.51137
7.23201
5.72236
3.59957
0.139932
-4.63153
-10.2505
-17.1129
-25.5577
-34.6674
-43.228
-50.5469
-56.8585
-63.7633
-75.5734
-96.7289
-126.796
-139.918
25.9444
26.238
26.5945
26.9706
27.3052
27.6263
27.8765
27.9901
27.9642
27.8265
27.5925
27.2811
26.9084
26.4843
26.0155
25.5022
24.9417
24.3275
23.6482
22.8886
22.03
21.0467
19.9062
18.5777
17.0534
15.3387
13.4294
11.3155
8.98639
6.43097
3.63847
0.596893
-2.70818
-6.29584
-10.1802
-14.3818
-18.8217
-23.4631
-27.4198
24.7908
24.4167
23.8893
23.2361
22.5895
21.8491
21.0379
20.2027
19.3203
18.4048
17.4797
16.5774
15.7245
14.8988
14.076
13.2462
12.3974
11.5159
10.5857
9.5864
8.49056
7.25228
5.78646
4.02539
1.75891
-1.7281
-6.75716
-12.6888
-19.3855
-27.3128
-35.9552
-44.1248
-51.0163
-56.8466
-63.0264
-73.0297
-91.4288
-117.385
-127.644
25.1038
25.3837
25.7227
26.0752
26.3864
26.6796
26.8965
26.9785
26.9254
26.7647
26.512
26.1873
25.8061
25.3782
24.9105
24.4032
23.8538
23.2562
22.5995
21.8698
21.049
20.1131
19.0303
17.7708
16.3266
14.7025
12.8939
10.8905
8.68108
6.25402
3.59868
0.704043
-2.44154
-5.85118
-9.53142
-13.4858
-17.6313
-21.8871
-25.4759
23.9649
23.6017
23.0871
22.4481
21.8128
21.0845
20.2832
19.4562
18.581
17.6714
16.7424
15.8265
14.9584
14.1164
13.2728
12.4156
11.5311
10.6024
9.60955
8.52768
7.32289
5.9513
4.33248
2.37881
-0.0439826
-3.47471
-8.54701
-14.8003
-21.5825
-29.0995
-37.2479
-45.0323
-51.5562
-56.895
-62.3812
-70.7445
-86.4839
-108.69
-116.77
24.2673
24.5361
24.8587
25.1916
25.481
25.7481
25.9356
25.989
25.9112
25.7296
25.4601
25.1233
24.7347
24.3039
23.8377
23.3363
22.7975
22.2155
21.5803
20.8783
20.0929
19.2008
18.1718
16.9769
15.6083
14.0701
12.3581
10.4616
8.3692
6.06908
3.55065
0.804132
-2.17963
-5.4087
-8.8829
-12.5924
-16.4501
-20.3455
-23.5934
23.1428
22.7879
22.2847
21.6571
21.0316
20.3111
19.5176
18.6972
17.8253
16.9186
15.9833
15.0515
14.1648
13.3025
12.4342
11.5458
10.6219
9.64371
8.58744
7.4256
6.12092
4.62969
2.88178
0.79131
-1.76394
-5.14134
-10.0485
-16.4574
-23.5003
-30.8455
-38.5438
-45.9511
-52.1781
-57.0931
-61.8956
-68.8584
-82.0411
-100.757
-107.351
23.4368
23.6958
24.0053
24.3195
24.5901
24.8345
24.9943
25.0217
24.9217
24.7214
24.437
24.0897
23.6948
23.2618
22.7976
22.3024
21.7739
21.207
20.5918
19.916
19.1635
18.3124
17.3337
16.1995
14.9022
13.4459
11.8262
10.0329
8.05454
5.87932
3.49697
0.898879
-1.92192
-4.96914
-8.23678
-11.7043
-15.2828
-18.8423
-21.7756
22.3264
21.9784
21.4836
20.8655
20.2466
19.533
18.7443
17.9268
17.0567
16.1496
15.207
14.2587
13.3499
12.4638
11.5679
10.6454
9.67996
8.65098
7.53265
6.29525
4.90024
3.30546
1.4508
-0.735168
-3.37317
-6.72331
-11.3665
-17.658
-24.9434
-32.3937
-39.8115
-46.8826
-52.8792
-57.5029
-61.6744
-67.4528
-78.2403
-93.6609
-99.3968
22.6133
22.8647
23.162
23.4614
23.7146
23.9378
24.0737
24.0778
23.958
23.7409
23.4434
23.087
22.687
22.2529
21.791
21.3023
20.784
20.2317
19.6356
18.9847
18.2631
17.4507
16.519
15.4419
14.2122
12.8337
11.3024
9.60844
7.74086
5.688
3.44023
0.989832
-1.66795
-4.53329
-7.59545
-10.8259
-14.1347
-17.3819
-20.0266
21.5167
21.1736
20.6861
20.0751
19.4617
18.7514
17.9659
17.15
16.2786
15.3679
14.4187
13.4537
12.5196
11.6066
10.6812
9.72322
8.71511
7.63579
6.45793
5.15046
3.67545
1.99343
0.0534873
-2.19846
-4.86986
-8.19026
-12.5783
-18.5232
-25.8252
-33.5283
-40.9471
-47.8119
-53.6561
-58.13
-61.8305
-66.5694
-75.2239
-87.5752
-92.9094
21.7986
22.0437
22.3317
22.6166
22.8555
23.0604
23.174
23.1573
23.0202
22.7885
22.4797
22.1157
21.7119
21.2771
20.8189
20.3364
19.8289
19.2903
18.7133
18.0855
17.3936
16.6174
15.7303
14.7072
13.5414
12.237
10.7903
9.19198
7.43171
5.49834
3.38286
1.07869
-1.41713
-4.10178
-6.96082
-9.96006
-13.0098
-15.9669
-18.3482
20.7157
20.3763
19.8936
19.2882
18.6775
17.9702
17.1855
16.3682
15.4947
14.5788
13.6227
12.6408
11.6795
10.7374
9.78109
8.78739
7.73715
6.60906
5.37529
4.00444
2.45996
0.706529
-1.29783
-3.59133
-6.26081
-9.52454
-13.6988
-19.2083
-26.2229
-34.0798
-41.7515
-48.6591
-54.4798
-58.9491
-62.4163
-66.2817
-73.0871
-82.723
-87.904
20.9938
21.2343
21.5138
21.7878
22.0135
22.2016
22.2963
22.2614
22.1089
21.8646
21.5463
21.1763
20.7698
20.3358
19.8811
19.4062
18.9088
18.3846
17.8253
17.2204
16.5565
15.8147
14.9698
13.9979
12.8928
11.659
10.2933
8.78699
7.13044
5.3133
3.32732
1.16709
-1.16888
-3.67538
-6.33506
-9.11025
-11.9127
-14.6011
-16.743
19.9245
19.587
19.1082
18.5065
17.8979
17.1905
16.4056
15.5865
14.7086
13.7865
12.8231
11.8239
10.835
9.86298
8.87537
7.84637
6.75547
5.58134
4.29623
2.86925
1.26614
-0.543872
-2.5935
-4.90724
-7.55172
-10.7298
-14.7111
-19.8077
-26.3251
-34.043
-42.005
-49.2418
-55.2714
-59.9063
-63.3882
-66.6751
-71.9259
-79.2439
-84.3646
20.2003
20.4375
20.7108
20.9744
21.1894
21.3636
21.4408
21.39
21.2245
20.9696
20.6436
20.2691
19.8612
19.4288
18.9788
18.5115
18.0248
17.5146
16.973
16.3901
15.7531
15.0443
14.2394
13.3161
12.269
11.1026
9.81439
8.39654
6.8401
5.13565
3.27594
1.2565
-0.922672
-3.25457
-5.71987
-8.27898
-10.8464
-13.286
-15.2109
19.1448
18.8083
18.3314
17.7322
17.1235
16.4161
15.6293
14.8064
13.9241
12.9952
12.024
11.0077
9.99176
8.98992
7.97157
6.90855
5.7792
4.56243
3.23135
1.75609
0.104712
-1.74788
-3.82585
-6.14107
-8.7435
-11.8172
-15.6063
-20.342
-26.3059
-33.5866
-41.6104
-49.3056
-55.8363
-60.8801
-64.6309
-67.7068
-71.8165
-77.1934
-82.2737
19.4194
19.6546
19.9225
20.1787
20.384
20.5455
20.6085
20.5441
20.3676
20.104
19.772
19.3944
18.9865
18.5568
18.1122
17.6531
17.1774
16.6813
16.1572
15.5956
14.9846
14.3074
13.5409
12.664
11.6721
10.5702
9.3563
8.02339
6.56339
4.96791
3.2307
1.34834
-0.67802
-2.84001
-5.11714
-7.46914
-9.8144
-12.0245
-13.7534
18.3778
18.0408
17.5651
16.9671
16.358
15.6482
14.8591
14.0325
13.1445
12.2085
11.2297
10.1973
9.15522
8.12447
7.07669
5.98191
4.81705
3.56176
2.19048
0.674813
-1.01418
-2.89644
-4.98776
-7.28884
-9.83577
-12.795
-16.3888
-20.8019
-26.2503
-32.9345
-40.677
-48.6711
-55.8787
-61.6354
-65.9486
-69.2023
-72.7138
-76.5502
-81.556
18.6524
18.8867
19.1513
19.4002
19.5982
19.7494
19.7994
19.7235
19.5381
19.2678
18.9315
18.5526
18.1457
17.7199
17.2816
16.8313
16.367
15.8851
15.3783
14.8377
14.252
13.6052
12.8755
12.043
11.104
10.0639
8.92122
7.66983
6.3026
4.81221
3.19339
1.4438
-0.434527
-2.43222
-4.5282
-6.68278
-8.81896
-10.8174
-12.3691
17.6251
17.287
16.8109
16.2132
15.602
14.8905
14.0979
13.2664
12.3732
11.4303
10.4441
9.39774
8.33161
7.27287
6.1973
5.07358
3.87703
2.58806
1.18281
-0.365247
-2.0818
-3.98185
-6.0734
-8.3473
-10.828
-13.6672
-17.0666
-21.181
-26.1726
-32.2408
-39.4413
-47.3707
-55.1365
-61.8051
-67.0172
-70.8526
-74.3317
-77.1393
-82.0268
17.9005
18.1349
18.3965
18.6408
18.8322
18.9742
19.0142
18.929
18.7367
18.4615
18.1227
17.7437
17.3394
16.9183
16.4872
16.0463
15.5939
15.1264
14.6369
14.1169
13.5558
12.9384
12.2441
11.4544
10.5662
9.58526
8.51087
7.3377
6.05964
4.67035
3.16556
1.5438
-0.191927
-2.03172
-3.95456
-5.92204
-7.86247
-9.66645
-11.0584
16.8876
16.5474
16.0707
15.4724
14.859
14.1439
13.3481
12.5122
11.613
10.6638
9.67016
8.61321
7.52705
6.4419
5.34005
4.19046
2.96664
1.64927
0.216471
-1.35593
-3.09046
-4.99726
-7.07747
-9.31322
-11.7195
-14.4354
-17.6446
-21.4787
-26.0633
-31.563
-38.1156
-45.6272
-53.565
-61.0377
-67.359
-72.1809
-76.1803
-78.5755
-83.3486
17.1648
17.3999
17.6604
17.9001
18.0869
18.2219
18.2529
18.1604
17.963
17.6848
17.3452
16.9679
16.5673
16.1521
15.729
15.2983
14.8582
14.4054
13.9331
13.4335
12.8964
12.3076
11.6476
10.899
10.0596
9.13553
8.12664
7.0285
5.83598
4.54367
3.14823
1.64909
0.0499048
-1.63907
-3.39731
-5.18835
-6.94617
-8.57147
-9.81919
16.1669
15.8242
15.3457
14.7462
14.1298
13.412
12.6123
11.7716
10.8675
9.91248
8.91194
7.84767
6.74588
5.63713
4.51123
3.33894
2.09253
0.752452
-0.701211
-2.29001
-4.03315
-5.93658
-7.99523
-10.1839
-12.5099
-15.1008
-18.1251
-21.6955
-25.9117
-30.9036
-36.8131
-43.7004
-51.3688
-59.2204
-66.5214
-72.5595
-77.5589
-80.2456
-85.0672
16.4463
16.6829
16.9423
17.1797
17.3625
17.4915
17.5162
17.4183
17.2177
16.9382
16.5994
16.2249
15.8295
15.4213
15.0071
14.5872
14.1599
13.722
13.2671
12.7877
12.2742
11.7132
11.0864
10.3775
9.58506
8.71564
7.7695
6.74327
5.63263
4.43312
3.14218
1.76007
0.290951
-1.2548
-2.85753
-4.4831
-6.07139
-7.53319
-8.65115
15.4636
15.1178
14.6375
14.0367
13.4174
12.6959
11.8929
11.0483
10.1394
9.17967
8.17375
7.10465
5.99101
4.86249
3.716
2.52491
1.26061
-0.0963363
-1.564
-3.16126
-4.90434
-6.79482
-8.82295
-10.957
-13.198
-15.6633
-18.5084
-21.8303
-25.7091
-30.2472
-35.5649
-41.7677
-48.857
-56.5593
-64.3561
-71.4456
-77.6607
-81.3027
-86.506
15.7458
15.9844
16.2441
16.4791
16.6597
16.7846
16.8039
16.7024
16.5004
16.2213
15.8849
15.5149
15.1256
14.7256
14.3211
13.9128
13.4988
13.0761
12.6386
12.1793
11.689
11.1552
10.5606
9.89008
9.14296
8.32592
7.44005
6.48262
5.45027
4.33921
3.14778
1.87687
0.531053
-0.879459
-2.33603
-3.80718
-5.23863
-6.5508
-7.55135
14.7791
14.4301
13.9475
13.345
12.7227
11.9985
11.1923
10.344
9.43185
8.46863
7.45922
6.38773
5.26588
4.12181
2.95886
1.75346
0.476525
-0.891401
-2.36637
-3.96458
-5.69896
-7.56806
-9.55721
-11.6306
-13.7827
-16.1231
-18.7941
-21.8812
-25.4483
-29.5767
-34.3619
-39.9053
-46.2828
-53.4339
-61.1187
-68.7097
-75.8936
-80.783
-86.636
15.0642
15.3052
15.5653
15.7999
15.9787
16.1002
16.1166
16.0133
15.8114
15.5343
15.2017
14.8375
14.4557
14.0647
13.6708
13.2747
12.8744
12.4672
12.0473
11.608
11.1406
10.6334
10.0701
9.43671
8.73326
7.96672
7.13847
6.24687
5.28903
4.26214
3.16514
1.99947
0.76991
-0.513563
-1.83352
-3.1613
-4.4483
-5.62422
-6.51925
14.1138
13.7613
13.2767
12.6729
12.0479
11.3208
10.5125
9.6619
8.74718
7.7822
6.7714
5.70011
4.57391
3.41867
2.24351
1.02851
-0.255405
-1.62803
-3.10357
-4.69541
-6.41343
-8.2531
-10.1964
-12.203
-14.2641
-16.4796
-18.9823
-21.8464
-25.1235
-28.8781
-33.1842
-38.1238
-43.7815
-50.1871
-57.2913
-64.7212
-72.242
-78.1042
-84.5096
14.4022
14.6459
14.9076
15.1414
15.32
15.4399
15.4539
15.3504
15.1503
14.8767
14.5495
14.1924
13.8192
13.4382
13.0557
12.6724
12.2863
11.8949
11.4927
11.0732
10.6284
10.1472
9.61435
9.017
8.35577
7.63764
6.86473
6.03573
5.14884
4.20175
3.194
2.12746
1.00705
-0.157678
-1.3506