/*--------------------------------*- C++ -*----------------------------------*\
  =========                 |
  \\      /  F ield         | OpenFOAM: The Open Source CFD Toolbox
   \\    /   O peration     | Website:  https://openfoam.org
    \\  /    A nd           | Version:  9
     \\/     M anipulation  |
\*---------------------------------------------------------------------------*/
FoamFile
{
    format      ascii;
    class       volScalarField;
    location    "0.13";
    object      k;
}
// * * * * * * * * * * * * * * * * * * * * * * * * * * * * * * * * * * * * * //

dimensions      [0 2 -2 0 0 0 0];

internalField   nonuniform List<scalar> 
12225
(
0.353921
0.335043
0.316966
0.300961
0.288126
0.278908
0.273301
0.271008
0.271574
0.274481
0.279217
0.285313
0.292362
0.300029
0.308059
0.316241
0.324629
0.336791
0.436864
0.44898
0.438086
0.433064
0.438794
0.453598
0.474819
0.500009
0.52718
0.554847
0.581982
0.607921
0.632289
0.654911
0.675905
0.695169
0.714887
0.730285
0.395187
0.410873
0.410631
0.405747
0.402011
0.400926
0.402619
0.406815
0.413093
0.420996
0.43009
0.439996
0.450404
0.461074
0.471869
0.482683
0.493827
0.504651
0.379641
0.38484
0.386546
0.38573
0.383905
0.382027
0.380568
0.379741
0.379609
0.380153
0.381309
0.382997
0.385135
0.387648
0.390487
0.393618
0.397069
0.400737
0.374976
0.3759
0.376239
0.375721
0.37457
0.373083
0.371496
0.369967
0.368593
0.367427
0.366486
0.365771
0.365273
0.364976
0.364869
0.364945
0.365199
0.365602
0.373488
0.372554
0.371759
0.370807
0.369631
0.368275
0.366809
0.3653
0.363803
0.362357
0.360989
0.359713
0.358537
0.357462
0.356491
0.355623
0.354856
0.354187
0.373012
0.371296
0.369813
0.368416
0.367025
0.36561
0.364168
0.36271
0.361256
0.359822
0.358424
0.357071
0.355771
0.354531
0.353352
0.352239
0.351192
0.350219
0.372865
0.370838
0.369004
0.36731
0.365711
0.364174
0.362678
0.361215
0.359781
0.358379
0.357013
0.355685
0.354399
0.353158
0.351963
0.350818
0.349725
0.348693
0.37282
0.37068
0.368691
0.366836
0.365095
0.363448
0.361879
0.360375
0.358927
0.357529
0.35618
0.354877
0.353619
0.352405
0.351237
0.350113
0.349037
0.348018
0.372806
0.370628
0.368578
0.366648
0.364828
0.36311
0.361481
0.359933
0.358456
0.357044
0.355691
0.354394
0.353149
0.351954
0.350808
0.349708
0.348654
0.347658
0.372801
0.370609
0.368537
0.366576
0.36472
0.362963
0.361298
0.359718
0.358215
0.356783
0.355418
0.354116
0.352871
0.351681
0.350543
0.349455
0.348416
0.347435
0.372799
0.370602
0.368522
0.366549
0.36468
0.362907
0.361224
0.359626
0.358107
0.356663
0.355287
0.353976
0.352726
0.351534
0.350397
0.349311
0.348275
0.3473
0.372797
0.370599
0.368514
0.366537
0.36466
0.362879
0.361188
0.359581
0.358052
0.356599
0.355215
0.353897
0.352642
0.351446
0.350305
0.349218
0.348182
0.347207
0.372796
0.370596
0.368509
0.366528
0.364649
0.362863
0.361167
0.359555
0.358021
0.356562
0.355173
0.35385
0.35259
0.35139
0.350246
0.349155
0.348116
0.347139
0.372795
0.370593
0.368505
0.366523
0.364641
0.362853
0.361154
0.359539
0.358002
0.35654
0.355148
0.353822
0.352559
0.351355
0.350208
0.349115
0.348073
0.347093
0.372794
0.370592
0.368502
0.366518
0.364634
0.362845
0.361144
0.359527
0.357989
0.356525
0.355131
0.353803
0.352538
0.351332
0.350183
0.349087
0.348043
0.347061
0.372794
0.37059
0.368499
0.366515
0.36463
0.362839
0.361137
0.359519
0.357979
0.356513
0.355118
0.353789
0.352523
0.351316
0.350165
0.349067
0.348022
0.347037
0.372794
0.37059
0.368498
0.366512
0.364627
0.362835
0.361132
0.359513
0.357972
0.356506
0.355109
0.353779
0.352512
0.351304
0.350152
0.349053
0.348006
0.34702
0.372793
0.370589
0.368497
0.366512
0.364626
0.362834
0.361131
0.359511
0.35797
0.356503
0.355106
0.353775
0.352507
0.351298
0.350145
0.349046
0.347998
0.347012
0.372794
0.37059
0.368498
0.366513
0.364628
0.362836
0.361133
0.359514
0.357973
0.356507
0.35511
0.35378
0.352512
0.351303
0.35015
0.349051
0.348003
0.347017
0.372794
0.370591
0.3685
0.366516
0.364632
0.362842
0.36114
0.359522
0.357983
0.356518
0.355123
0.353794
0.352527
0.35132
0.350169
0.349071
0.348025
0.34704
0.372795
0.370593
0.368504
0.366522
0.364642
0.362855
0.361159
0.359546
0.358012
0.356553
0.355164
0.35384
0.352579
0.351377
0.35023
0.349136
0.348093
0.347111
0.372796
0.370598
0.368518
0.366547
0.364681
0.362913
0.361235
0.359642
0.358127
0.356686
0.355312
0.354002
0.352752
0.351558
0.350417
0.349326
0.348284
0.3473
0.372804
0.370631
0.368592
0.366676
0.364872
0.363167
0.361548
0.360006
0.358533
0.357121
0.355768
0.354468
0.35322
0.352021
0.350869
0.349763
0.348703
0.347699
0.372856
0.370818
0.368973
0.367264
0.365645
0.364085
0.362567
0.361083
0.359632
0.358214
0.356833
0.355494
0.354198
0.352947
0.351745
0.350591
0.349488
0.348447
0.373166
0.37177
0.370579
0.369371
0.368049
0.366605
0.365072
0.363493
0.361906
0.360343
0.358826
0.357372
0.355991
0.354689
0.353468
0.35233
0.351272
0.350303
0.374797
0.375829
0.376175
0.375401
0.373834
0.371876
0.369792
0.36774
0.365814
0.364066
0.362524
0.361194
0.360074
0.359155
0.358422
0.35786
0.357453
0.357185
0.382729
0.39167
0.392375
0.388805
0.384384
0.380403
0.377247
0.374996
0.373619
0.373035
0.373148
0.37386
0.375075
0.376706
0.378673
0.380906
0.383346
0.385924
0.407499
0.414513
0.405423
0.395991
0.390553
0.389288
0.391449
0.396206
0.402822
0.410708
0.419409
0.428589
0.437991
0.447428
0.456764
0.465905
0.474805
0.483379
0.360554
0.347547
0.334933
0.322917
0.311965
0.302352
0.294189
0.28747
0.282113
0.278002
0.274998
0.272962
0.27176
0.271266
0.271366
0.27196
0.27296
0.274284
0.00207463
0.00938426
0.0146757
0.0193473
0.0240415
0.0292977
0.0351888
0.0418615
0.049436
0.0574162
0.0654839
0.0734923
0.0813054
0.0888146
0.0959408
0.102631
0.10885
0.114578
0.119801
0.124511
0.128699
0.132355
0.135466
0.138014
0.139953
0.141147
0.141289
0.140158
0.139527
0.142767
0.140831
0.140613
0.140938
0.142031
0.143744
0.144217
0.145039
0.144583
0.145077
0.150975
0.157303
0.163857
0.170597
0.177509
0.184586
0.191822
0.199216
0.206767
0.214475
0.222339
0.23036
0.238537
0.246871
0.255361
0.264005
0.272803
0.281753
0.290852
0.300099
0.309489
0.319021
0.328689
0.338491
0.34842
0.358473
0.368643
0.378926
0.389314
0.399802
0.410383
0.421049
0.431793
0.442608
0.453486
0.464418
0.475397
0.486414
0.49746
0.508527
0.519605
0.530686
0.541761
0.55282
0.563853
0.574853
0.585808
0.596708
0.607546
0.618309
0.628988
0.639572
0.650052
0.660416
0.670657
0.680765
0.690739
0.700582
0.710313
0.719972
0.729479
0.738766
0.747835
0.756681
0.765294
0.773665
0.781781
0.789631
0.797205
0.804491
0.81148
0.818162
0.824526
0.830564
0.836267
0.841628
0.846637
0.851289
0.855577
0.859494
0.863036
0.866198
0.868975
0.871364
0.873363
0.874969
0.87618
0.876996
0.877417
0.877443
0.877075
0.876316
0.875168
0.873635
0.871721
0.869429
0.866767
0.863739
0.860353
0.856616
0.852536
0.848121
0.84338
0.838324
0.832962
0.827305
0.821363
0.815149
0.808673
0.80195
0.79499
0.787806
0.780412
0.77282
0.765044
0.757098
0.748995
0.740744
0.73237
0.72387
0.715281
0.706599
0.697845
0.689112
0.680732
0.675674
0.67189
0.668144
0.664374
0.660577
0.656759
0.652919
0.649058
0.645166
0.641222
0.637178
0.632935
0.628259
0.622547
0.614245
0.597467
0.0059541
0.0203353
0.0296152
0.0370341
0.0439474
0.0507312
0.0576849
0.0650346
0.0728305
0.0809675
0.0892833
0.0976207
0.105845
0.113853
0.121571
0.128953
0.135972
0.142621
0.148899
0.154816
0.160388
0.165632
0.170578
0.175259
0.179716
0.183998
0.188264
0.1929
0.197671
0.203029
0.209034
0.214666
0.221272
0.228523
0.23696
0.245658
0.255026
0.264774
0.276664
0.287691
0.298424
0.309469
0.320855
0.332562
0.344573
0.356879
0.369474
0.382358
0.395532
0.408997
0.422755
0.436807
0.451157
0.465804
0.480751
0.495997
0.511543
0.527388
0.54353
0.559968
0.5767
0.593721
0.611029
0.628619
0.646485
0.664621
0.683022
0.701678
0.720583
0.739727
0.759101
0.778696
0.7985
0.818503
0.838692
0.859056
0.879583
0.900258
0.921068
0.942
0.96304
0.984172
1.00538
1.02666
1.04798
1.06933
1.0907
1.11207
1.13342
1.15474
1.17601
1.19722
1.21833
1.23935
1.26024
1.28099
1.30158
1.32198
1.34203
1.36171
1.38109
1.40019
1.41898
1.43745
1.45557
1.47333
1.49069
1.50764
1.52416
1.54022
1.55581
1.5709
1.58547
1.59951
1.61299
1.6259
1.63822
1.64994
1.66103
1.67149
1.68131
1.69046
1.69895
1.70675
1.71386
1.72028
1.72599
1.73098
1.73527
1.73884
1.74168
1.74381
1.74522
1.74592
1.7459
1.74517
1.74374
1.74162
1.73881
1.73532
1.73116
1.72636
1.72091
1.71484
1.70816
1.70088
1.69303
1.68462
1.67567
1.6662
1.65624
1.64579
1.6349
1.62357
1.61184
1.59973
1.58724
1.57444
1.56129
1.5479
1.53422
1.52028
1.5063
1.49231
1.47882
1.4655
1.45214
1.4387
1.4252
1.41167
1.39811
1.38453
1.37096
1.35737
1.34376
1.33009
1.31622
1.30206
1.28637
1.26619
0.0110199
0.031726
0.0437547
0.0529478
0.0609832
0.068659
0.0763636
0.0843013
0.0925421
0.101053
0.109741
0.118489
0.127188
0.135752
0.144118
0.152251
0.160138
0.167785
0.17521
0.182445
0.189533
0.196523
0.203479
0.210474
0.217595
0.224938
0.232619
0.240742
0.249259
0.258305
0.267887
0.277906
0.288516
0.299687
0.311473
0.323824
0.336724
0.350121
0.363991
0.378035
0.39228
0.406842
0.421766
0.437058
0.452717
0.468741
0.485129
0.501883
0.519002
0.536488
0.554344
0.572571
0.591169
0.61014
0.629485
0.649202
0.669292
0.689752
0.71058
0.731773
0.753327
0.775238
0.7975
0.820107
0.843052
0.866326
0.889921
0.913827
0.938034
0.962531
0.987305
1.01234
1.03763
1.06316
1.08891
1.11487
1.14101
1.16733
1.19381
1.22043
1.24717
1.27401
1.30094
1.32793
1.35497
1.38204
1.40911
1.43617
1.4632
1.49017
1.51708
1.54388
1.57057
1.59713
1.62353
1.64976
1.67579
1.7016
1.72703
1.75211
1.77685
1.80123
1.82522
1.8488
1.87193
1.89459
1.91675
1.93839
1.95946
1.97995
1.99983
2.01906
2.03764
2.05553
2.0727
2.08914
2.10482
2.11973
2.13383
2.14713
2.15959
2.1712
2.18195
2.19182
2.20081
2.2089
2.21609
2.22237
2.22772
2.23216
2.23567
2.23826
2.23993
2.24068
2.24052
2.23944
2.23747
2.2346
2.23086
2.22624
2.22078
2.21448
2.20735
2.19943
2.19072
2.18125
2.17105
2.16013
2.14852
2.13625
2.12334
2.10982
2.09572
2.08106
2.06589
2.05022
2.03407
2.01753
2.00052
1.98323
1.96566
1.94782
1.92981
1.91172
1.89379
1.87589
1.85793
1.83989
1.82179
1.80364
1.78549
1.76735
1.74924
1.73118
1.7132
1.69533
1.67756
1.66002
1.6422
1.62385
0.017041
0.042776
0.0570324
0.0674106
0.0763514
0.0847327
0.0929862
0.101343
0.109906
0.11869
0.127648
0.136704
0.14578
0.154804
0.16373
0.172532
0.181206
0.189766
0.198243
0.206681
0.215131
0.223656
0.232324
0.241209
0.250388
0.259935
0.269921
0.280397
0.291382
0.302897
0.314951
0.327541
0.340673
0.354346
0.36856
0.383299
0.398535
0.414227
0.43033
0.44678
0.463565
0.480708
0.498234
0.516154
0.534477
0.553207
0.572348
0.591904
0.611878
0.632272
0.65309
0.674334
0.696005
0.718107
0.740638
0.763601
0.786993
0.810815
0.835063
0.859735
0.884827
0.910334
0.936251
0.962571
0.989286
1.01639
1.04387
1.07171
1.09991
1.12845
1.15732
1.1865
1.21599
1.24575
1.27578
1.30605
1.33656
1.36727
1.39817
1.42923
1.46045
1.49179
1.52323
1.55475
1.58633
1.61794
1.64957
1.68118
1.71276
1.74428
1.77571
1.80704
1.83824
1.86928
1.90016
1.93083
1.96129
1.9914
2.02115
2.05051
2.07947
2.10801
2.13608
2.16367
2.19072
2.21722
2.24312
2.2684
2.29301
2.31693
2.34012
2.36255
2.3842
2.40503
2.42501
2.44412
2.46233
2.47963
2.49597
2.51135
2.52575
2.53914
2.55151
2.56285
2.57314
2.58236
2.59052
2.59761
2.60361
2.60852
2.61234
2.61508
2.61673
2.6173
2.61679
2.61521
2.61258
2.6089
2.60418
2.59845
2.59171
2.584
2.57532
2.5657
2.55517
2.54375
2.53147
2.51835
2.50443
2.48973
2.47429
2.45813
2.44131
2.42383
2.40575
2.38711
2.36786
2.34822
2.32813
2.30768
2.28688
2.26578
2.24446
2.22299
2.20153
2.18002
2.15844
2.13677
2.11505
2.0933
2.07155
2.04985
2.02823
2.00675
1.98546
1.96446
1.94386
1.92392
1.90453
1.88598
0.0229966
0.0530018
0.0689638
0.0804761
0.0902321
0.0992138
0.107906
0.116574
0.12536
0.134316
0.143438
0.152688
0.162016
0.171374
0.180728
0.190063
0.199383
0.208706
0.218069
0.227517
0.237105
0.246894
0.256948
0.267331
0.278104
0.289322
0.301031
0.313264
0.326037
0.339356
0.353224
0.367635
0.382584
0.398062
0.414059
0.43056
0.447548
0.465
0.482892
0.5012
0.519915
0.539043
0.558595
0.57858
0.599007
0.619883
0.641216
0.66301
0.685271
0.708005
0.731215
0.754906
0.779081
0.803743
0.828894
0.854536
0.88067
0.907294
0.934409
0.962011
0.990099
1.01867
1.04771
1.07722
1.10719
1.13762
1.16848
1.19978
1.2315
1.26362
1.29613
1.32901
1.36225
1.39582
1.42971
1.4639
1.49837
1.53308
1.56803
1.60318
1.63851
1.674
1.70962
1.74534
1.78113
1.81698
1.85285
1.88871
1.92454
1.96031
1.996
2.03157
2.06699
2.10225
2.13731
2.17214
2.20671
2.24087
2.27461
2.30793
2.3408
2.37317
2.40501
2.43628
2.46695
2.49697
2.52631
2.55492
2.58277
2.60982
2.63603
2.66137
2.68581
2.7093
2.73182
2.75334
2.77382
2.79325
2.81159
2.82882
2.84492
2.85987
2.87364
2.88623
2.89763
2.90781
2.91676
2.92448
2.93097
2.93622
2.94022
2.94298
2.94451
2.9448
2.94387
2.94172
2.93837
2.93383
2.92811
2.92124
2.91324
2.90413
2.89392
2.88266
2.87036
2.85706
2.84278
2.82755
2.81143
2.79443
2.77659
2.75794
2.73856
2.71841
2.69761
2.67622
2.65423
2.63174
2.60877
2.58536
2.56158
2.53746
2.51306
2.48847
2.46378
2.43901
2.41413
2.38918
2.36417
2.33914
2.31415
2.28925
2.26448
2.23993
2.2157
2.19193
2.16882
2.14669
2.12559
2.10579
0.0285152
0.0617414
0.079357
0.0919433
0.102456
0.111979
0.121049
0.129969
0.138913
0.147973
0.15718
0.166531
0.176006
0.185581
0.195237
0.204969
0.214787
0.224714
0.234786
0.245048
0.25555
0.266347
0.277495
0.289045
0.301045
0.313535
0.326546
0.340099
0.354206
0.368869
0.384085
0.39985
0.416156
0.432992
0.45035
0.468218
0.486586
0.505441
0.524772
0.54457
0.564829
0.585552
0.606745
0.628418
0.650578
0.673233
0.696393
0.720066
0.744258
0.768977
0.794229
0.820021
0.846358
0.873244
0.900684
0.928682
0.957238
0.986356
1.01603
1.04627
1.07707
1.10842
1.14032
1.17276
1.20574
1.23925
1.27328
1.30781
1.34284
1.37834
1.4143
1.4507
1.48753
1.52476
1.56237
1.60033
1.63863
1.67723
1.71612
1.75525
1.7946
1.83415
1.87386
1.9137
1.95364
1.99365
2.0337
2.07375
2.11378
2.15375
2.19363
2.23339
2.27299
2.3124
2.35159
2.39053
2.4291
2.46724
2.50491
2.54211
2.57878
2.6149
2.65041
2.68528
2.71947
2.75292
2.78559
2.81744
2.84842
2.8785
2.90762
2.93576
2.96287
2.98892
3.01387
3.03768
3.06033
3.08177
3.10199
3.12096
3.13865
3.15505
3.17012
3.18386
3.19625
3.20727
3.21692
3.22519
3.23207
3.23756
3.24165
3.24436
3.24568
3.24562
3.2442
3.24142
3.23729
3.23184
3.22508
3.21704
3.20774
3.1972
3.18545
3.17252
3.15845
3.14327
3.12701
3.10969
3.09138
3.07212
3.05191
3.03081
3.00894
2.98627
2.96289
2.93884
2.91415
2.8889
2.86312
2.83686
2.81018
2.78313
2.75577
2.72816
2.7004
2.6725
2.64448
2.61639
2.58825
2.56012
2.53204
2.50409
2.47634
2.44889
2.42187
2.39547
2.36993
2.34559
2.32252
2.30087
0.0331108
0.0690938
0.0881458
0.101687
0.112881
0.12289
0.132294
0.141429
0.150498
0.159621
0.168865
0.178258
0.187806
0.197508
0.207363
0.217376
0.227563
0.237948
0.248566
0.259457
0.270668
0.282243
0.294229
0.306666
0.31959
0.333033
0.347014
0.36155
0.376647
0.392308
0.408529
0.425307
0.442635
0.460507
0.478914
0.497851
0.517312
0.537291
0.557784
0.578787
0.600301
0.622328
0.644876
0.667952
0.691566
0.715727
0.740446
0.765732
0.791595
0.818046
0.845091
0.872741
0.901003
0.929884
0.95939
0.989526
1.0203
1.05171
1.08376
1.11645
1.14978
1.18375
1.21835
1.25359
1.28944
1.32591
1.36298
1.40064
1.43888
1.47768
1.51701
1.55687
1.59723
1.63807
1.67936
1.72107
1.76317
1.80565
1.84845
1.89156
1.93494
1.97855
2.02236
2.06633
2.11043
2.15463
2.19887
2.24314
2.28739
2.33158
2.37568
2.41964
2.46343
2.50702
2.55035
2.59339
2.63597
2.67807
2.71967
2.76072
2.8012
2.84104
2.8802
2.91864
2.95631
2.99314
3.02911
3.06414
3.09821
3.13126
3.16324
3.19412
3.22384
3.25238
3.27968
3.30571
3.33044
3.35383
3.37585
3.39647
3.41567
3.43342
3.44971
3.46451
3.47781
3.48959
3.49985
3.50858
3.51577
3.52142
3.52552
3.5281
3.52914
3.52866
3.52667
3.52319
3.51824
3.51182
3.50396
3.4947
3.48405
3.47205
3.45873
3.4441
3.42823
3.41115
3.3929
3.37347
3.35297
3.33147
3.30896
3.28551
3.26119
3.23602
3.21008
3.18341
3.15605
3.12808
3.09954
3.07048
3.04095
3.01102
2.98075
2.95019
2.91943
2.8885
2.85745
2.82631
2.79513
2.76398
2.73292
2.70202
2.67138
2.64112
2.61139
2.58241
2.55444
2.52779
2.50251
2.47867
0.0368754
0.0750882
0.0953217
0.109667
0.121445
0.131878
0.141576
0.150899
0.160072
0.169241
0.178498
0.187898
0.197473
0.207241
0.217216
0.227415
0.237859
0.248572
0.259589
0.270944
0.282676
0.294823
0.307421
0.320504
0.334099
0.348229
0.36291
0.378154
0.393967
0.410351
0.427306
0.444828
0.462916
0.481565
0.500772
0.520534
0.54085
0.561718
0.58314
0.605116
0.62765
0.650748
0.674417
0.698669
0.723512
0.748959
0.775023
0.801714
0.829046
0.85703
0.885679
0.915003
0.945013
0.975719
1.00713
1.03925
1.07209
1.10566
1.13995
1.17498
1.21073
1.24722
1.28443
1.32237
1.36103
1.40039
1.44045
1.48119
1.52261
1.56467
1.60736
1.65066
1.69455
1.73899
1.78396
1.82943
1.87537
1.92173
1.96849
2.01561
2.06304
2.11075
2.1587
2.20685
2.25515
2.30356
2.35205
2.40057
2.44907
2.49752
2.54586
2.59407
2.64208
2.68986
2.73736
2.78448
2.83108
2.87715
2.92266
2.96757
3.01182
3.05537
3.09815
3.14013
3.18123
3.22141
3.26062
3.29879
3.33588
3.37183
3.4066
3.44014
3.4724
3.50334
3.53291
3.56108
3.58781
3.61305
3.63677
3.65895
3.67956
3.69858
3.71598
3.73174
3.74586
3.75831
3.76909
3.77818
3.78559
3.79131
3.79534
3.7977
3.79838
3.79741
3.79479
3.79054
3.78468
3.77724
3.76823
3.75769
3.74565
3.73215
3.71722
3.70087
3.68316
3.66418
3.64394
3.62246
3.59984
3.57611
3.55131
3.52552
3.49877
3.47113
3.44265
3.41339
3.3834
3.35275
3.32148
3.28966
3.25735
3.22459
3.19146
3.15802
3.12433
3.09045
3.05643
3.02233
2.98821
2.95412
2.92014
2.88637
2.85292
2.81991
2.78753
2.75599
2.72555
2.69651
2.66884
2.6426
0.0398336
0.0797722
0.10093
0.115919
0.128173
0.138957
0.148905
0.158389
0.167652
0.176857
0.186116
0.195507
0.205079
0.214869
0.224906
0.235213
0.245817
0.256745
0.268027
0.279695
0.291781
0.304316
0.317331
0.330851
0.344898
0.359492
0.374646
0.39037
0.406671
0.423553
0.441016
0.459063
0.477692
0.496905
0.516701
0.537081
0.558049
0.579606
0.601757
0.624508
0.647866
0.671839
0.696439
0.721677
0.747566
0.77412
0.801355
0.829284
0.857924
0.887288
0.917392
0.94825
0.979876
1.01228
1.04548
1.07948
1.11429
1.14992
1.18637
1.22366
1.26177
1.30072
1.34049
1.3811
1.42252
1.46475
1.50778
1.5516
1.59618
1.64151
1.68757
1.73433
1.78176
1.82984
1.87852
1.92778
1.97758
2.02787
2.07862
2.12978
2.18131
2.23316
2.28529
2.33764
2.39017
2.44284
2.49559
2.54838
2.60115
2.65387
2.70647
2.75892
2.81116
2.86313
2.91479
2.96593
3.01651
3.06652
3.1159
3.16461
3.21258
3.25977
3.30611
3.35154
3.39601
3.43944
3.48179
3.523
3.56301
3.60176
3.6392
3.67528
3.70996
3.74318
3.7749
3.80508
3.83367
3.86064
3.88594
3.90955
3.93145
3.9516
3.96998
3.98659
4.0014
4.0144
4.02558
4.03493
4.04245
4.04813
4.05199
4.05404
4.05428
4.05272
4.04939
4.0443
4.03748
4.02896
4.01874
4.00686
3.9934
3.97837
3.96181
3.94376
3.92426
3.90339
3.88117
3.85766
3.83291
3.80699
3.77994
3.75182
3.7227
3.69262
3.66165
3.62985
3.59729
3.56401
3.53008
3.49557
3.46053
3.42502
3.3891
3.35284
3.31632
3.27958
3.2427
3.20573
3.16874
3.13181
3.09501
3.05845
3.02226
2.98657
2.95158
2.9175
2.88458
2.85308
2.82293
2.79418
0.0420141
0.0832269
0.105066
0.120538
0.133156
0.144217
0.154363
0.163979
0.173315
0.182547
0.191802
0.201172
0.210721
0.220501
0.23055
0.2409
0.251581
0.262622
0.274052
0.285898
0.298189
0.310951
0.32421
0.337987
0.352301
0.367169
0.382604
0.398616
0.415213
0.432401
0.450185
0.468569
0.487556
0.50715
0.527356
0.548179
0.569625
0.5917
0.614413
0.637773
0.661792
0.686481
0.711854
0.737927
0.764715
0.792235
0.820506
0.849545
0.879371
0.910002
0.941456
0.97375
1.0069
1.04093
1.07584
1.11165
1.14837
1.18602
1.22459
1.2641
1.30455
1.34594
1.38827
1.43153
1.47573
1.52084
1.56685
1.61376
1.66154
1.71017
1.75962
1.80987
1.86088
1.91263
1.96506
2.01814
2.07184
2.12609
2.18086
2.2361
2.29174
2.34775
2.40406
2.46062
2.51739
2.57429
2.63129
2.68833
2.74535
2.80231
2.85913
2.91578
2.97219
3.02831
3.08397
3.13905
3.19353
3.24737
3.30051
3.3529
3.40447
3.45517
3.50493
3.55367
3.60134
3.64787
3.6932
3.73727
3.78002
3.82139
3.86132
3.89977
3.93668
3.97199
4.00568
4.03768
4.06797
4.09648
4.12318
4.14804
4.17104
4.19216
4.21137
4.22865
4.244
4.2574
4.26884
4.27831
4.2858
4.29133
4.2949
4.29653
4.29622
4.29399
4.28985
4.28385
4.276
4.26634
4.25489
4.24169
4.22678
4.21022
4.19204
4.17229
4.15101
4.12827
4.10411
4.07859
4.05176
4.02369
3.99444
3.96406
3.93261
3.90017
3.86679
3.83253
3.79747
3.76166
3.72517
3.68805
3.65038
3.61221
3.57362
3.53466
3.49541
3.45594
3.4163
3.37658
3.33685
3.29718
3.25767
3.21844
3.1796
3.14131
3.10377
3.06719
3.0318
2.99782
2.96514
2.93385
0.0434701
0.0855635
0.107863
0.123667
0.136542
0.147799
0.158089
0.167799
0.177186
0.186433
0.195674
0.205011
0.21452
0.224261
0.234279
0.244615
0.2553
0.266365
0.277838
0.289745
0.302111
0.314961
0.328316
0.342196
0.356618
0.3716
0.387153
0.403291
0.420022
0.437357
0.455302
0.473867
0.493057
0.512882
0.53335
0.554469
0.576251
0.598705
0.621845
0.645684
0.670236
0.695518
0.721548
0.748344
0.775926
0.804315
0.833531
0.863598
0.894536
0.926368
0.959115
0.992798
1.02744
1.06305
1.09965
1.13727
1.1759
1.21556
1.25627
1.29802
1.34083
1.38469
1.4296
1.47557
1.52257
1.57061
1.61966
1.66971
1.72073
1.7727
1.8256
1.87938
1.93401
1.98946
2.04567
2.10261
2.16022
2.21845
2.27725
2.33655
2.3963
2.45644
2.5169
2.57763
2.63857
2.69966
2.76083
2.82204
2.88321
2.94429
3.00522
3.06594
3.1264
3.18646
3.24594
3.30479
3.36298
3.42045
3.47714
3.533
3.58796
3.64195
3.69488
3.74669
3.79732
3.84669
3.89474
3.94141
3.98663
4.03035
4.07251
4.11306
4.15193
4.18908
4.22447
4.25805
4.28977
4.31958
4.34744
4.37332
4.3972
4.41905
4.43887
4.45663
4.47232
4.48593
4.49746
4.50687
4.51419
4.51941
4.52256
4.52364
4.52268
4.51968
4.51468
4.5077
4.49878
4.48795
4.47523
4.46068
4.44434
4.42625
4.40646
4.38503
4.362
4.33743
4.31138
4.28391
4.25507
4.22493
4.19355
4.161
4.12734
4.09264
4.05696
4.02036
3.98292
3.9447
3.90577
3.86619
3.82603
3.78535
3.74422
3.70271
3.66088
3.61882
3.57659
3.53428
3.49194
3.44969
3.40761
3.36583
3.32447
3.2837
3.2437
3.20469
3.16688
3.13046
3.09528
3.06147
0.0442753
0.0869133
0.109479
0.12548
0.138508
0.149883
0.160258
0.17002
0.179429
0.18867
0.197881
0.207169
0.216618
0.226291
0.236242
0.246512
0.257137
0.268149
0.279575
0.291442
0.303773
0.316591
0.329917
0.343771
0.35817
0.373131
0.388669
0.404798
0.421532
0.438882
0.456861
0.475481
0.494753
0.514691
0.535306
0.556612
0.578625
0.601359
0.624832
0.649062
0.674067
0.699868
0.726488
0.75395
0.782276
0.811492
0.841624
0.872696
0.904736
0.937767
0.971816
1.00691
1.04306
1.0803
1.11865
1.15811
1.19872
1.24047
1.28338
1.32746
1.37271
1.41913
1.46672
1.51547
1.56538
1.61642
1.66859
1.72185
1.77619
1.83158
1.88797
1.94533
2.00363
2.0628
2.12281
2.1836
2.24512
2.3073
2.37009
2.43341
2.4972
2.56138
2.6259
2.69068
2.75566
2.82077
2.88595
2.95114
3.01627
3.08128
3.14611
3.21068
3.27492
3.33856
3.40157
3.4639
3.52548
3.58627
3.64619
3.70518
3.76317
3.8201
3.87586
3.93038
3.98359
4.03543
4.08583
4.13472
4.18205
4.22776
4.27178
4.31405
4.35453
4.39316
4.4299
4.46472
4.49758
4.52835
4.55705
4.58364
4.60811
4.63043
4.65059
4.66856
4.68435
4.69794
4.70933
4.7185
4.72547
4.73024
4.73283
4.73326
4.73153
4.72769
4.72174
4.71373
4.70368
4.69164
4.67765
4.66174
4.64396
4.62437
4.60301
4.57994
4.55522
4.5289
4.50104
4.4717
4.44096
4.40886
4.37549
4.3409
4.30516
4.26834
4.23051
4.19173
4.15208
4.11163
4.07043
4.02857
3.9861
3.94309
3.89962
3.85574
3.81154
3.76709
3.72246
3.67774
3.633
3.58835
3.54388
3.49972
3.456
3.41289
3.37057
3.32925
3.28911
3.25032
3.21273
3.17649
0.0445175
0.087419
0.110084
0.126161
0.139247
0.150664
0.161064
0.170832
0.180227
0.189434
0.198593
0.207812
0.217176
0.226754
0.236601
0.24676
0.257271
0.268164
0.279469
0.291212
0.303418
0.316108
0.329304
0.343028
0.357298
0.372134
0.387553
0.403572
0.420208
0.437479
0.4554
0.473988
0.493261
0.513235
0.53393
0.555362
0.577553
0.600523
0.624293
0.648886
0.674328
0.700643
0.727858
0.756001
0.785101
0.815185
0.846285
0.878429
0.911647
0.945967
0.981419
1.01803
1.05582
1.09482
1.13505
1.17652
1.21926
1.26326
1.30854
1.35511
1.40296
1.4521
1.50251
1.5542
1.60715
1.66134
1.71674
1.77333
1.83108
1.88995
1.9499
2.01088
2.07285
2.13576
2.19954
2.26413
2.32949
2.39553
2.4622
2.52942
2.59709
2.66513
2.73349
2.80209
2.87085
2.93972
3.00862
3.07749
3.14625
3.21485
3.28322
3.35127
3.41873
3.48554
3.55165
3.617
3.68151
3.74513
3.80779
3.86941
3.92995
3.98935
4.04744
4.10415
4.15944
4.21324
4.26548
4.3161
4.36504
4.41224
4.45763
4.50116
4.54278
4.58243
4.62008
4.65568
4.68919
4.72054
4.7497
4.77665
4.80137
4.82384
4.84403
4.86195
4.87757
4.8909
4.90193
4.91066
4.91709
4.92124
4.92312
4.92275
4.92016
4.91536
4.9084
4.89929
4.88809
4.87482
4.85954
4.84228
4.8231
4.80205
4.77918
4.75456
4.72823
4.70026
4.67071
4.63964
4.60713
4.57324
4.53803
4.50157
4.46394
4.4252
4.38542
4.34467
4.30303
4.26056
4.21733
4.17341
4.12887
4.08378
4.0382
3.9922
3.94587
3.89927
3.85249
3.8056
3.75869
3.71187
3.66523
3.61891
3.57304
3.52778
3.48332
3.43984
3.39752
3.35651
3.31664
3.2781
0.0442945
0.0872267
0.109849
0.125898
0.138957
0.150344
0.160708
0.170433
0.179773
0.188914
0.197992
0.207117
0.216372
0.225828
0.235538
0.245549
0.2559
0.266623
0.277749
0.289305
0.301316
0.313808
0.326803
0.340324
0.354394
0.369035
0.384269
0.400117
0.4166
0.433742
0.451563
0.470087
0.489336
0.509334
0.530105
0.551674
0.574067
0.59731
0.621429
0.646453
0.672412
0.699338
0.727263
0.756218
0.786237
0.817354
0.849602
0.883013
0.917621
0.953455
0.990547
1.02893
1.06862
1.10965
1.15204
1.1958
1.24096
1.28749
1.33542
1.38474
1.43545
1.48755
1.54103
1.59587
1.65206
1.70955
1.76834
1.82838
1.88963
1.95204
2.01558
2.08018
2.14579
2.21235
2.27979
2.34806
2.41707
2.48676
2.55708
2.62796
2.6992
2.77077
2.8426
2.91462
2.98675
3.05893
3.13108
3.20313
3.27503
3.34671
3.41804
3.48878
3.55887
3.62823
3.6968
3.76452
3.8313
3.89709
3.96181
4.02539
4.08775
4.14884
4.20853
4.26677
4.32347
4.37857
4.43202
4.48374
4.53367
4.58176
4.62793
4.67215
4.71435
4.75449
4.79253
4.82841
4.8621
4.89356
4.92275
4.94964
4.97422
4.99646
5.01635
5.03388
5.04904
5.06183
5.07224
5.08029
5.08598
5.08932
5.09034
5.08904
5.08547
5.07963
5.07158
5.06134
5.04895
5.03446
5.0179
4.99934
4.97881
4.95638
4.9321
4.90603
4.87822
4.84875
4.81767
4.78506
4.75097
4.71547
4.67865
4.64055
4.60127
4.56085
4.51939
4.47694
4.43357
4.38937
4.34439
4.2987
4.25238
4.20549
4.1581
4.11029
4.06212
4.01367
3.96503
3.91627
3.86749
3.81878
3.77025
3.72203
3.67425
3.62709
3.5807
3.53528
3.49098
3.44793
3.40598
3.36532
0.0437103
0.0864793
0.108939
0.124869
0.137825
0.149116
0.159387
0.169019
0.178264
0.187302
0.196271
0.205275
0.214397
0.223705
0.233253
0.243087
0.253246
0.263765
0.274676
0.286007
0.297787
0.310042
0.322801
0.336089
0.349934
0.364363
0.379402
0.395078
0.41142
0.428455
0.446212
0.464721
0.484014
0.504121
0.525074
0.546908
0.569654
0.593343
0.618007
0.64368
0.670399
0.698202
0.727126
0.757209
0.788487
0.820997
0.854775
0.889855
0.92627
0.964052
1.00323
1.04383
1.08588
1.1294
1.17441
1.22095
1.269
1.31851
1.36949
1.42196
1.4759
1.53131
1.58815
1.6464
1.70604
1.76704
1.82934
1.89291
1.95769
2.02364
2.0907
2.15881
2.22789
2.29789
2.36872
2.44033
2.51263
2.58554
2.65899
2.73289
2.80714
2.88164
2.95632
3.03112
3.10595
3.18074
3.25543
3.32994
3.40424
3.47811
3.55138
3.62398
3.69584
3.76689
3.83705
3.90626
3.97443
4.0415
4.1074
4.17204
4.23538
4.29731
4.35777
4.41669
4.47398
4.52958
4.58344
4.63549
4.68566
4.7339
4.78015
4.82437
4.86649
4.90648
4.94429
4.97988
5.01321
5.04425
5.07296
5.09932
5.1233
5.1449
5.1641
5.18088
5.19525
5.2072
5.21674
5.22387
5.2286
5.23096
5.23095
5.2286
5.22394
5.217
5.20781
5.19641
5.18284
5.16715
5.14938
5.12958
5.10781
5.08411
5.05856
5.0312
5.0021
4.97132
4.93893
4.90499
4.86958
4.83275
4.79458
4.75514
4.71449
4.67272
4.62988
4.58605
4.5413
4.4957
4.44932
4.40222
4.35447
4.30614
4.25731
4.20803
4.15839
4.10845
4.0583
4.00802
3.9577
3.90744
3.85735
3.80755
3.75818
3.70939
3.66136
3.61426
3.56823
3.5234
3.4796
3.43706
0.042834
0.0852719
0.107461
0.123188
0.13597
0.147101
0.157222
0.166711
0.175817
0.184717
0.193544
0.2024
0.211364
0.220502
0.229868
0.239507
0.249459
0.259761
0.270447
0.281548
0.293098
0.305128
0.31767
0.330757
0.344424
0.358705
0.373634
0.389242
0.405565
0.422643
0.440513
0.459215
0.478791
0.49928
0.520728
0.543181
0.56669
0.591279
0.616971
0.643815
0.671859
0.701146
0.731717
0.763612
0.796869
0.831525
0.867614
0.905166
0.94421
0.984771
1.02687
1.07053
1.11576
1.16257
1.21097
1.26096
1.31253
1.36565
1.42031
1.47648
1.53415
1.59329
1.65386
1.71583
1.77916
1.84379
1.90968
1.97677
2.04501
2.11434
2.18468
2.25597
2.32815
2.40112
2.47483
2.54919
2.62413
2.69955
2.77539
2.85155
2.92795
3.00449
3.08111
3.15773
3.23427
3.31068
3.38691
3.46282
3.53818
3.61292
3.68698
3.76028
3.83274
3.90429
3.97486
4.04438
4.11277
4.17996
4.24589
4.31048
4.37366
4.43537
4.49552
4.55406
4.61091
4.66601
4.7193
4.77072
4.82021
4.86772
4.91319
4.95657
4.99783
5.0369
5.07376
5.10837
5.14069
5.17068
5.19832
5.22359
5.24647
5.26694
5.285
5.30063
5.31383
5.3246
5.33296
5.3389
5.34244
5.34359
5.34239
5.33885
5.333
5.32487
5.3145
5.30192
5.28719
5.27033
5.25141
5.23048
5.20757
5.18276
5.1561
5.12764
5.09746
5.0656
5.03215
4.99716
4.96069
4.92283
4.88363
4.84316
4.8015
4.75871
4.71486
4.67002
4.62426
4.57764
4.53024
4.48212
4.43334
4.38397
4.33409
4.28374
4.23302
4.18199
4.13072
4.0793
4.02783
3.97639
3.92509
3.87406
3.82343
3.77335
3.72398
3.67549
3.62802
3.58168
3.53632
3.49218
0.0419197
0.0838907
0.105718
0.121169
0.133711
0.144627
0.154551
0.163858
0.172794
0.181532
0.190201
0.198899
0.207705
0.216681
0.225882
0.235355
0.245141
0.255281
0.265813
0.276776
0.288208
0.300147
0.312631
0.325704
0.339414
0.353816
0.368949
0.384833
0.401527
0.419085
0.437559
0.457002
0.477468
0.49901
0.521681
0.545535
0.570623
0.596988
0.624672
0.653721
0.68418
0.716089
0.749488
0.784409
0.820885
0.858939
0.898594
0.939866
0.982767
1.0273
1.07348
1.12129
1.17073
1.22179
1.27445
1.32868
1.38447
1.44177
1.50055
1.56076
1.62238
1.68535
1.74963
1.81517
1.88192
1.94981
2.01879
2.08881
2.1598
2.23168
2.30441
2.3779
2.45208
2.52689
2.60225
2.67809
2.75432
2.83088
2.90769
2.98466