/*--------------------------------*- C++ -*----------------------------------*\
  =========                 |
  \\      /  F ield         | OpenFOAM: The Open Source CFD Toolbox
   \\    /   O peration     | Website:  https://openfoam.org
    \\  /    A nd           | Version:  9
     \\/     M anipulation  |
\*---------------------------------------------------------------------------*/
FoamFile
{
    format      ascii;
    class       volScalarField;
    location    "0.13";
    object      p;
}
// * * * * * * * * * * * * * * * * * * * * * * * * * * * * * * * * * * * * * //

dimensions      [0 2 -2 0 0 0 0];

internalField   nonuniform List<scalar> 
12225
(
-1.22009
-3.50303
-4.66536
-4.97334
-5.14134
-5.30071
-5.42487
-5.51276
-5.58172
-5.64194
-5.69518
-5.74118
-5.78018
-5.81131
-5.83324
-5.83493
-5.82607
-5.70658
-4.6876
-5.38965
-5.47975
-5.34448
-5.30415
-5.37111
-5.45144
-5.51678
-5.57317
-5.62579
-5.67441
-5.7178
-5.7556
-5.78677
-5.81075
-5.81995
-5.8279
-5.80493
-4.89236
-4.78934
-4.94599
-5.06792
-5.17503
-5.29702
-5.40491
-5.48708
-5.55368
-5.6128
-5.66605
-5.71317
-5.75424
-5.78886
-5.81741
-5.83647
-5.8611
-5.88976
-4.75508
-4.67689
-4.95282
-5.13136
-5.22556
-5.32238
-5.41711
-5.4942
-5.55822
-5.61574
-5.66819
-5.71517
-5.75677
-5.79307
-5.82508
-5.85279
-5.88864
-5.93935
-4.76206
-4.77926
-5.01921
-5.16893
-5.24472
-5.32913
-5.41838
-5.494
-5.55743
-5.61451
-5.66689
-5.71436
-5.75713
-5.79574
-5.8317
-5.8668
-5.91026
-5.96942
-4.82377
-4.86618
-5.04384
-5.17439
-5.25215
-5.3344
-5.42036
-5.49479
-5.55791
-5.6148
-5.66728
-5.71534
-5.75938
-5.80025
-5.83971
-5.88021
-5.92833
-5.98996
-4.88355
-4.92302
-5.0593
-5.18134
-5.2635
-5.34295
-5.42431
-5.49678
-5.55939
-5.61604
-5.66856
-5.7172
-5.76243
-5.80531
-5.84762
-5.89181
-5.94244
-6.00336
-4.93675
-4.97159
-5.08178
-5.19424
-5.27659
-5.35224
-5.42889
-5.49921
-5.5612
-5.61758
-5.67012
-5.71927
-5.7656
-5.81017
-5.85465
-5.90112
-5.95262
-6.01123
-4.9866
-5.01828
-5.10896
-5.20961
-5.28949
-5.36172
-5.4342
-5.50223
-5.56339
-5.6194
-5.67188
-5.72144
-5.76864
-5.8145
-5.86043
-5.90805
-5.95926
-6.01496
-5.03403
-5.06261
-5.13768
-5.22644
-5.30264
-5.37182
-5.4405
-5.50603
-5.56608
-5.62157
-5.67387
-5.72364
-5.77145
-5.81814
-5.86485
-5.91275
-5.96294
-6.01561
-5.07889
-5.10413
-5.16683
-5.24476
-5.31649
-5.38258
-5.44771
-5.51062
-5.56932
-5.62413
-5.6761
-5.72587
-5.77395
-5.82104
-5.86796
-5.9155
-5.96425
-6.01401
-5.11749
-5.13979
-5.19354
-5.26269
-5.32981
-5.39292
-5.455
-5.5155
-5.57279
-5.62681
-5.67832
-5.72788
-5.77593
-5.82301
-5.8697
-5.91652
-5.96377
-6.01109
-5.1533
-5.17306
-5.21951
-5.28094
-5.34338
-5.40346
-5.46268
-5.52082
-5.5766
-5.62972
-5.68064
-5.72981
-5.77761
-5.8244
-5.87059
-5.91647
-5.96217
-6.00728
-5.19097
-5.20824
-5.24797
-5.30187
-5.35911
-5.41568
-5.47183
-5.52737
-5.58133
-5.63327
-5.68335
-5.73187
-5.77911
-5.82529
-5.87063
-5.91526
-5.95918
-6.00203
-5.22928
-5.24416
-5.27796
-5.3249
-5.37673
-5.42942
-5.48232
-5.53509
-5.58696
-5.6374
-5.68634
-5.73391
-5.78024
-5.82544
-5.86958
-5.91268
-5.95469
-5.99531
-5.2663
-5.27903
-5.30787
-5.34875
-5.39536
-5.44405
-5.49365
-5.54359
-5.59319
-5.64186
-5.68936
-5.73565
-5.78074
-5.82462
-5.86728
-5.90866
-5.94871
-5.98719
-5.29916
-5.31016
-5.33513
-5.37113
-5.41323
-5.45822
-5.50472
-5.55198
-5.59929
-5.64605
-5.6919
-5.73667
-5.78026
-5.82258
-5.86358
-5.90317
-5.94128
-5.97778
-5.3235
-5.33331
-5.35571
-5.38842
-5.4273
-5.4695
-5.51355
-5.55862
-5.60395
-5.64895
-5.69319
-5.7364
-5.77842
-5.81915
-5.85848
-5.89633
-5.93266
-5.96739
-5.33238
-5.34175
-5.36326
-5.39486
-5.43264
-5.47375
-5.51672
-5.56067
-5.60489
-5.64876
-5.69183
-5.73381
-5.77453
-5.81389
-5.85179
-5.88818
-5.92303
-5.95632
-5.31781
-5.3279
-5.35094
-5.38468
-5.4246
-5.46735
-5.51141
-5.55609
-5.60077
-5.64481
-5.68778
-5.72945
-5.76969
-5.80842
-5.84559
-5.88117
-5.91516
-5.94759
-5.29189
-5.30311
-5.32898
-5.36682
-5.41072
-5.45647
-5.50273
-5.54919
-5.59521
-5.64011
-5.68354
-5.72539
-5.76564
-5.80421
-5.8411
-5.87632
-5.90989
-5.94188
-5.25715
-5.26957
-5.29969
-5.34428
-5.39395
-5.44328
-5.49225
-5.54122
-5.58924
-5.63542
-5.6796
-5.72189
-5.76235
-5.80097
-5.83776
-5.87279
-5.90613
-5.93784
-5.21669
-5.22933
-5.26479
-5.31951
-5.3768
-5.43002
-5.48184
-5.53351
-5.58361
-5.63113
-5.67619
-5.71909
-5.7599
-5.79866
-5.83546
-5.87041
-5.90362
-5.93518
-5.17296
-5.18456
-5.22704
-5.29379
-5.35867
-5.41652
-5.47268
-5.52765
-5.57949
-5.62791
-5.67364
-5.71704
-5.75813
-5.79699
-5.83378
-5.86865
-5.90175
-5.93317
-5.12617
-5.13397
-5.19511
-5.27504
-5.34035
-5.40023
-5.46239
-5.52226
-5.57634
-5.62574
-5.67216
-5.71604
-5.75736
-5.79626
-5.83298
-5.86775
-5.90073
-5.93209
-5.07827
-5.05466
-5.16555
-5.27462
-5.33538
-5.38969
-5.45337
-5.51601
-5.57161
-5.62196
-5.66919
-5.71367
-5.75532
-5.79437
-5.83114
-5.8659
-5.89885
-5.93015
-5.06899
-4.9247
-5.08383
-5.25017
-5.33483
-5.39606
-5.46109
-5.52252
-5.57657
-5.62603
-5.67279
-5.71683
-5.75802
-5.79662
-5.83298
-5.86735
-5.89999
-5.93108
-5.21441
-4.93064
-4.96547
-5.09606
-5.2158
-5.32301
-5.4173
-5.49332
-5.55585
-5.6114
-5.66247
-5.7094
-5.75256
-5.79253
-5.82985
-5.86489
-5.89816
-5.9303
-5.15122
-5.65095
-5.66115
-5.50203
-5.42122
-5.44561
-5.49997
-5.54963
-5.59501
-5.63987
-5.68383
-5.7256
-5.76481
-5.80167
-5.83636
-5.86898
-5.8998
-5.93066
-1.81254
-3.68314
-4.7545
-5.04768
-5.18267
-5.31961
-5.43174
-5.51198
-5.57521
-5.63152
-5.68314
-5.73014
-5.77308
-5.81272
-5.84945
-5.88329
-5.9139
-5.9395
-6.84253
-6.8423
-6.84257
-6.84333
-6.8444
-6.84571
-6.84727
-6.84912
-6.85131
-6.85387
-6.85685
-6.86029
-6.86426
-6.86882
-6.87401
-6.87989
-6.88651
-6.89392
-6.90216
-6.91129
-6.92136
-6.93243
-6.94453
-6.95774
-6.97234
-6.98823
-7.004
-7.02132
-7.04251
-7.06271
-7.07372
-7.09363
-7.12818
-7.15994
-7.17733
-7.18817
-7.20826
-7.24388
-7.27361
-7.29094
-7.31535
-7.34145
-7.36878
-7.3969
-7.42563
-7.45483
-7.48439
-7.51422
-7.54424
-7.57437
-7.60454
-7.63468
-7.66471
-7.69454
-7.72409
-7.75327
-7.78198
-7.81011
-7.83757
-7.86422
-7.88996
-7.91465
-7.93816
-7.96034
-7.98106
-8.00016
-8.01748
-8.03286
-8.04614
-8.05715
-8.06571
-8.07164
-8.07477
-8.07491
-8.07188
-8.0655
-8.05558
-8.04194
-8.02439
-8.00275
-7.97685
-7.94649
-7.91151
-7.87173
-7.82699
-7.77711
-7.72193
-7.66131
-7.59509
-7.52312
-7.44528
-7.36143
-7.27145
-7.17523
-7.07269
-6.9638
-6.84858
-6.72693
-6.59865
-6.4634
-6.32114
-6.17199
-6.01599
-5.85315
-5.68348
-5.50702
-5.32379
-5.13386
-4.9373
-4.73418
-4.52462
-4.30872
-4.08663
-3.85849
-3.62446
-3.38473
-3.13948
-2.88893
-2.6333
-2.37281
-2.10772
-1.83829
-1.56478
-1.28748
-1.00666
-0.722625
-0.435678
-0.146127
0.145715
0.439527
0.73499
1.03178
1.32957
1.62805
1.92687
2.22574
2.52432
2.82231
3.1194
3.41529
3.70969
4.00231
4.29287
4.58112
4.8668
5.14966
5.42948
5.70602
5.9791
6.2485
6.51405
6.77558
7.03293
7.28597
7.53455
7.77857
8.01791
8.25248
8.48219
8.70699
8.92681
9.14162
9.3514
9.55611
9.75561
9.94975
10.1385
10.3219
10.4999
10.6726
10.8399
11.0019
11.1586
11.31
11.4564
11.5981
11.7361
11.8721
12.0161
12.1691
-6.84121
-6.84134
-6.84168
-6.8423
-6.84288
-6.84335
-6.8438
-6.84446
-6.84549
-6.84699
-6.849
-6.85157
-6.85471
-6.85844
-6.86282
-6.86787
-6.87364
-6.88019
-6.88754
-6.89574
-6.90481
-6.91477
-6.92562
-6.93738
-6.9499
-6.96261
-6.97676
-6.99292
-7.00806
-7.02132
-7.04581
-7.07047
-7.08443
-7.09567
-7.11662
-7.1484
-7.18035
-7.20024
-7.22334
-7.25899
-7.28925
-7.31813
-7.34681
-7.37559
-7.40458
-7.43383
-7.46331
-7.493
-7.52284
-7.55278
-7.58277
-7.61272
-7.64257
-7.67225
-7.70166
-7.73073
-7.75935
-7.78742
-7.81484
-7.84149
-7.86726
-7.89201
-7.91561
-7.93792
-7.9588
-7.9781
-7.99566
-8.01132
-8.02491
-8.03627
-8.04523
-8.05159
-8.0552
-8.05586
-8.0534
-8.04762
-8.03835
-8.0254
-8.00859
-7.98774
-7.96266
-7.93318
-7.89912
-7.86031
-7.81658
-7.76777
-7.71372
-7.65427
-7.58928
-7.5186
-7.4421
-7.35964
-7.27112
-7.17641
-7.07541
-6.96798
-6.854
-6.7333
-6.60569
-6.47142
-6.33056
-6.18297
-6.02859
-5.86741
-5.69942
-5.52465
-5.34313
-5.1549
-4.96004
-4.75863
-4.55076
-4.33654
-4.11612
-3.88963
-3.65724
-3.41911
-3.17545
-2.92645
-2.67233
-2.41332
-2.14967
-1.88163
-1.60947
-1.33347
-1.0539
-0.771057
-0.485247
-0.196776
0.0940454
0.3869
0.681468
0.977427
1.27446
1.57223
1.87042
2.16872
2.46681
2.76437
3.0611
3.35669
3.65086
3.94331
4.23377
4.52198
4.80768
5.09062
5.37056
5.6473
5.92061
6.1903
6.45619
6.71809
6.97587
7.22936
7.47844
7.72298
7.96288
8.19803
8.42837
8.65381
8.8743
9.0898
9.30028
9.50569
9.70589
9.90074
10.0902
10.2744
10.4531
10.6266
10.7947
10.9575
11.1151
11.2675
11.415
11.558
11.6979
11.836
11.983
12.1294
-6.83719
-6.83839
-6.83963
-6.84078
-6.84156
-6.84201
-6.84237
-6.84286
-6.84366
-6.84488
-6.8466
-6.84888
-6.85176
-6.85527
-6.85945
-6.86433
-6.86996
-6.87637
-6.8836
-6.89168
-6.90064
-6.9105
-6.92129
-6.93303
-6.9457
-6.95909
-6.97336
-6.98915
-7.00574
-7.02286
-7.04274
-7.06404
-7.08356
-7.10291
-7.1246
-7.14972
-7.1752
-7.19871
-7.22248
-7.24945
-7.27676
-7.30443
-7.33241
-7.36066
-7.38917
-7.41794
-7.44694
-7.47613
-7.50547
-7.53492
-7.56442
-7.5939
-7.6233
-7.65255
-7.68155
-7.71024
-7.7385
-7.76625
-7.79337
-7.81976
-7.84529
-7.86985
-7.89329
-7.91548
-7.93629
-7.95555
-7.97312
-7.98883
-8.00253
-8.01404
-8.02319
-8.02981
-8.03372
-8.03474
-8.03269
-8.02738
-8.01864
-8.00628
-7.99011
-7.96996
-7.94564
-7.91698
-7.8838
-7.84594
-7.80321
-7.75546
-7.70253
-7.64426
-7.5805
-7.51111
-7.43595
-7.3549
-7.26782
-7.1746
-7.07512
-6.96926
-6.85684
-6.73788
-6.61221
-6.47985
-6.34083
-6.1951
-6.04261
-5.88334
-5.71729
-5.54448
-5.36492
-5.17868
-4.9858
-4.78638
-4.5805
-4.36827
-4.14982
-3.92529
-3.69483
-3.45863
-3.21685
-2.96972
-2.71742
-2.46021
-2.19831
-1.93197
-1.66147
-1.38706
-1.10904
-0.827683
-0.543299
-0.256189
0.033339
0.32497
0.618385
0.913265
1.20929
1.50613
1.80348
2.10101
2.3984
2.69534
2.99154
3.28667
3.58046
3.87261
4.16286
4.45092
4.73654
5.01947
5.29949
5.57636
5.84987
6.11982
6.38603
6.64832
6.90652
7.1605
7.4101
7.65522
7.89573
8.13153
8.36254
8.58868
8.80988
9.0261
9.23727
9.44334
9.64426
9.83994
10.0303
10.2154
10.3951
10.5695
10.7386
10.9024
11.061
11.2146
11.3634
11.508
11.6499
11.7896
11.9389
12.0739
-6.83067
-6.83304
-6.83568
-6.83788
-6.83936
-6.84032
-6.84104
-6.84177
-6.8427
-6.84396
-6.84568
-6.84791
-6.85073
-6.85418
-6.85831
-6.86314
-6.86872
-6.87508
-6.88226
-6.89029
-6.89918
-6.90897
-6.91967
-6.9313
-6.94385
-6.95732
-6.97172
-6.98718
-7.00369
-7.02121
-7.03991
-7.05962
-7.07974
-7.10053
-7.12248
-7.14581
-7.1699
-7.19427
-7.21905
-7.24468
-7.27099
-7.29783
-7.3251
-7.35274
-7.3807
-7.40896
-7.43747
-7.46621
-7.49511
-7.52414
-7.55324
-7.58235
-7.6114
-7.64031
-7.66902
-7.69743
-7.72544
-7.75297
-7.77991
-7.80614
-7.83155
-7.85602
-7.8794
-7.90157
-7.92238
-7.94169
-7.95934
-7.97517
-7.98902
-8.00072
-8.01011
-8.017
-8.02122
-8.02259
-8.02093
-8.01606
-8.00779
-7.99595
-7.98034
-7.96079
-7.93712
-7.90916
-7.87671
-7.83962
-7.79771
-7.75083
-7.6988
-7.64147
-7.5787
-7.51033
-7.43623
-7.35627
-7.27031
-7.17822
-7.0799
-6.97522
-6.86411
-6.74638
-6.62208
-6.49117
-6.3536
-6.20933
-6.05832
-5.90054
-5.736
-5.56471
-5.38668
-5.20198
-5.01065
-4.81276
-4.60842
-4.39773
-4.18081
-3.9578
-3.72885
-3.49414
-3.25383
-3.00814
-2.75727
-2.50145
-2.24091
-1.9759
-1.70668
-1.43352
-1.15671
-0.876516
-0.593249
-0.307205
-0.0186933
0.271974
0.564481
0.858508
1.15374
1.44984
1.74651
2.04342
2.34026
2.63671
2.93247
3.22724
3.52071
3.81262
4.10267
4.3906
4.67615
4.95907
5.23912
5.51608
5.78974
6.05989
6.32634
6.58891
6.84745
7.1018
7.35181
7.59737
7.83836
8.07466
8.3062
8.5329
8.75469
8.9715
9.18326
9.38988
9.59133
9.78759
9.97861
10.1643
10.3447
10.5198
10.6896
10.8542
11.0136
11.168
11.3177
11.4632
11.606
11.7457
11.8935
12.0156
-6.82305
-6.82667
-6.83096
-6.83449
-6.83694
-6.83865
-6.83999
-6.84121
-6.84253
-6.8441
-6.84607
-6.84852
-6.85153
-6.85516
-6.85946
-6.86447
-6.87023
-6.87677
-6.88413
-6.89233
-6.9014
-6.91137
-6.92224
-6.93404
-6.94676
-6.96042
-6.97505
-6.99064
-7.00721
-7.02472
-7.04318
-7.0625
-7.08256
-7.10338
-7.12509
-7.1477
-7.17109
-7.19512
-7.21976
-7.24502
-7.27083
-7.29713
-7.32387
-7.35101
-7.37851
-7.40633
-7.43444
-7.46279
-7.49134
-7.52005
-7.54884
-7.57767
-7.60646
-7.63515
-7.66365
-7.69187
-7.71974
-7.74714
-7.77397
-7.80012
-7.82548
-7.84992
-7.8733
-7.8955
-7.91636
-7.93574
-7.95349
-7.96945
-7.98346
-7.99534
-8.00494
-8.01206
-8.01655
-8.01821
-8.01687
-8.01234
-8.00445
-7.99301
-7.97783
-7.95874
-7.93555
-7.9081
-7.8762
-7.83967
-7.79836
-7.7521
-7.70073
-7.64408
-7.58202
-7.51438
-7.44104
-7.36186
-7.2767
-7.18545
-7.08797
-6.98417
-6.87396
-6.75724
-6.63395
-6.50406
-6.36751
-6.22425
-6.07427
-5.91753
-5.75403
-5.58378
-5.4068
-5.22315
-5.03287
-4.83604
-4.63275
-4.42311
-4.20723
-3.98525
-3.75732
-3.52361
-3.28431
-3.0396
-2.78969
-2.53481
-2.27519
-2.01109
-1.74274
-1.47044
-1.19444
-0.915045
-0.632539
-0.347223
-0.0594054
0.230603
0.522487
0.815929
1.11061
1.40621
1.70241
1.9989
2.29535
2.59146
2.88691
3.18142
3.47467
3.7664
4.05631
4.34415
4.62964
4.91254
5.19262
5.46964
5.74339
6.01367
6.28028
6.54306
6.80182
7.05643
7.30672
7.55259
7.79391
8.03059
8.26251
8.48962
8.71181
8.92903
9.14118
9.34817
9.54997
9.74657
9.93796
10.1241
10.3049
10.4804
10.6507
10.8157
10.9756
11.1304
11.2806
11.4264
11.5691
11.7076
11.8522
11.9621
-6.81582
-6.82067
-6.8265
-6.83136
-6.83487
-6.83746
-6.83955
-6.84143
-6.84332
-6.84541
-6.84783
-6.85071
-6.85411
-6.85813
-6.8628
-6.86818
-6.8743
-6.8812
-6.88891
-6.89747
-6.90688
-6.91717
-6.92836
-6.94046
-6.95346
-6.96737
-6.9822
-6.99794
-7.01459
-7.0321
-7.05047
-7.06965
-7.08958
-7.11028
-7.13175
-7.15396
-7.17687
-7.20042
-7.22459
-7.24936
-7.27468
-7.3005
-7.32679
-7.35351
-7.38063
-7.40809
-7.43587
-7.46393
-7.49221
-7.52066
-7.54924
-7.57787
-7.60649
-7.63503
-7.66341
-7.69153
-7.71932
-7.74667
-7.77347
-7.79961
-7.82498
-7.84945
-7.87289
-7.89515
-7.91611
-7.9356
-7.95348
-7.96959
-7.98375
-7.99582
-8.00561
-8.01295
-8.01767
-8.01958
-8.0185
-8.01426
-8.00666
-7.99553
-7.98068
-7.96194
-7.93912
-7.91204
-7.88054
-7.84443
-7.80355
-7.75774
-7.70683
-7.65067
-7.58911
-7.52199
-7.44919
-7.37056
-7.28598
-7.19532
-7.09846
-6.99529
-6.88574
-6.76971
-6.64713
-6.51793
-6.38208
-6.23952
-6.09023
-5.93419
-5.77138
-5.60183
-5.42556
-5.2426
-5.05302
-4.85689
-4.6543
-4.44534
-4.23015
-4.00886
-3.78161
-3.54857
-3.30993
-3.06587
-2.81661
-2.56236
-2.30336
-2.03985
-1.7721
-1.50037
-1.22493
-0.94607
-0.664081
-0.379263
-0.0919212
0.197634
0.489087
0.782122
1.07642
1.37166
1.66754
1.96372
2.25989
2.55575
2.85098
3.14529
3.43838
3.72996
4.01976
4.30751
4.59295
4.87583
5.1559
5.43294
5.70675
5.9771
6.24381
6.50671
6.76562
7.02039
7.27088
7.51696
7.75851
7.99543
8.22761
8.45498
8.67744
8.89491
9.10732
9.31456
9.5166
9.71345
9.90508
10.0915
10.2726
10.4484
10.6189
10.7842
10.9443
11.0994
11.2497
11.3955
11.5376
11.6742
11.8154
11.9146
-6.81061
-6.81634
-6.82337
-6.82936
-6.83384
-6.83728
-6.84014
-6.84272
-6.84526
-6.84794
-6.85092
-6.85432
-6.85824
-6.86274
-6.86789
-6.87373
-6.88031
-6.88765
-6.8958
-6.90476
-6.91456
-6.92522
-6.93674
-6.94912
-6.96238
-6.9765
-6.99148
-7.00731
-7.02398
-7.04146
-7.05974
-7.07878
-7.09856
-7.11907
-7.14029
-7.16221
-7.18479
-7.20799
-7.2318
-7.25619
-7.28113
-7.30659
-7.33254
-7.35895
-7.38577
-7.41297
-7.44052
-7.46836
-7.49646
-7.52476
-7.5532
-7.58172
-7.61026
-7.63874
-7.66708
-7.69519
-7.72298
-7.75034
-7.77718
-7.80338
-7.82883
-7.85338
-7.87692
-7.8993
-7.92038
-7.94001
-7.95804
-7.97431
-7.98865
-8.00089
-8.01087
-8.01841
-8.02333
-8.02545
-8.02459
-8.02057
-8.01321
-8.00232
-7.98772
-7.96923
-7.94667
-7.91986
-7.88863
-7.85281
-7.81222
-7.76671
-7.71612
-7.66028
-7.59905
-7.53228
-7.45984
-7.38158
-7.29738
-7.20711
-7.11067
-7.00793
-6.89882
-6.78324
-6.66111
-6.53236
-6.39695
-6.25484
-6.10598
-5.95038
-5.78801
-5.61889
-5.44305
-5.26053
-5.07138
-4.87569
-4.67353
-4.46501
-4.25025
-4.02938
-3.80256
-3.56996
-3.33174
-3.0881
-2.83925
-2.58541
-2.32682
-2.06371
-1.79635
-1.525
-1.24993
-0.971438
-0.689803
-0.405327
-0.118317
0.170919
0.462067
0.754809
1.04883
1.34381
1.63944
1.93538
2.23134
2.527
2.82205
3.1162
3.40915
3.70061
3.9903
4.27796
4.56333
4.84615
5.12619
5.40322
5.67703
5.9474
6.21416
6.47711
6.7361
6.99096
7.24156
7.48777
7.72946
7.96653
8.19887
8.4264
8.64903
8.86667
9.07924
9.28665
9.48888
9.6859
9.87772
10.0643
10.2456
10.4216
10.5923
10.7578
10.918
11.0732
11.2234
11.3687
11.5099
11.6444
11.7825
11.8723
-6.80797
-6.81432
-6.82219
-6.82903
-6.8343
-6.83849
-6.84205
-6.8453
-6.84847
-6.85176
-6.85531
-6.85926
-6.8637
-6.86872
-6.87436
-6.88069
-6.88773
-6.89552
-6.90409
-6.91345
-6.92362
-6.9346
-6.94641
-6.95905
-6.97251
-6.98679
-7.00187
-7.01776
-7.03442
-7.05186
-7.07004
-7.08895
-7.10858
-7.12891
-7.14992
-7.1716
-7.19392
-7.21686
-7.2404
-7.26453
-7.28921
-7.31443
-7.34014
-7.36634
-7.39297
-7.42001
-7.44742
-7.47515
-7.50316
-7.53139
-7.55979
-7.5883
-7.61684
-7.64533
-7.67371
-7.70188
-7.72974
-7.7572
-7.78414
-7.81045
-7.83602
-7.86071
-7.88439
-7.90692
-7.92815
-7.94795
-7.96614
-7.98257
-7.99708
-8.0095
-8.01965
-8.02736
-8.03245
-8.03474
-8.03405
-8.0302
-8.023
-8.01228
-7.99784
-7.97952
-7.95712
-7.93048
-7.89942
-7.86377
-7.82336
-7.77802
-7.72761
-7.67196
-7.61092
-7.54435
-7.47211
-7.39407
-7.31009
-7.22006
-7.12385
-7.02137
-6.91251
-6.79718
-6.67529
-6.54679
-6.41162
-6.26974
-6.12112
-5.96574
-5.8036
-5.63471
-5.45909
-5.2768
-5.08789
-4.89242
-4.6905
-4.48221
-4.26769
-4.04707
-3.82049
-3.58813
-3.35015
-3.10676
-2.85816
-2.60457
-2.34623
-2.08337
-1.81626
-1.54515
-1.27033
-0.992079
-0.710682
-0.426442
-0.139662
0.149348
0.440275
0.732803
1.02661
1.32139
1.61683
1.91259
2.20837
2.50386
2.79876
3.09276
3.38557
3.67691
3.96649
4.25405
4.53932
4.82207
5.10204
5.37902
5.65279
5.92314
6.18989
6.45285
6.71186
6.96676
7.2174
7.46367
7.70542
7.94257
8.175
8.40262
8.62534
8.84308
9.05575
9.26329
9.46563
9.66279
9.85473
10.0414
10.2228
10.399
10.5698
10.7354
10.8956
11.0507
11.2007
11.3454
11.4854
11.6178
11.753
11.8347
-6.80827
-6.81493
-6.82328
-6.83066
-6.8365
-6.84127
-6.84542
-6.84924
-6.85297
-6.85679
-6.86087
-6.86533
-6.87025
-6.87574
-6.88183
-6.88859
-6.89604
-6.90422
-6.91315
-6.92284
-6.93331
-6.94456
-6.9566
-6.96942
-6.98303
-6.99741
-7.01255
-7.02846
-7.0451
-7.06248
-7.08058
-7.09939
-7.11888
-7.13906
-7.15991
-7.18141
-7.20355
-7.22631
-7.24968
-7.27363
-7.29815
-7.32322
-7.34882
-7.3749
-7.40145
-7.42842
-7.45579
-7.4835
-7.51151
-7.53977
-7.56821
-7.59678
-7.6254
-7.65399
-7.68248
-7.71077
-7.73876
-7.76636
-7.79346
-7.81993
-7.84566
-7.87051
-7.89436
-7.91706
-7.93847
-7.95843
-7.97678
-7.99338
-8.00804
-8.0206
-8.03089
-8.03874
-8.04395
-8.04637
-8.04579
-8.04204
-8.03494
-8.02431
-8.00996
-7.99172
-7.9694
-7.94283
-7.91183
-7.87624
-7.83589
-7.79062
-7.74027
-7.68469
-7.62372
-7.55722
-7.48506
-7.4071
-7.32321
-7.23327
-7.13716
-7.03477
-6.926
-6.81076
-6.68896
-6.56054
-6.42544
-6.28363
-6.13507
-5.97975
-5.81768
-5.64885
-5.47331
-5.29109
-5.10225
-4.90686
-4.70502
-4.49683
-4.2824
-4.06188
-3.83541
-3.60316
-3.3653
-3.12204
-2.87356
-2.62011
-2.36191
-2.09919
-1.83223
-1.56128
-1.28662
-1.00853
-0.727293
-0.443217
-0.156604
0.132238
0.422996
0.715356
1.009
1.30361
1.59888
1.89448
2.19011
2.48544
2.78019
3.07404
3.3667
3.6579
3.94736
4.23479
4.51996
4.8026
5.08248
5.35938
5.63307
5.90336
6.17005
6.43297
6.69194
6.94682
7.19745
7.44372
7.68549
7.92265
8.15511
8.38276
8.60553
8.82331
9.03604
9.24364
9.44607
9.6433
9.83532
10.0221
10.2036
10.3798
10.5507
10.7162
10.8765
11.0313
11.1809
11.3249
11.4637
11.5938
11.7264
11.8011
-6.81149
-6.81819
-6.82666
-6.83427
-6.84044
-6.8456
-6.85017
-6.85444
-6.85861
-6.86287
-6.86737
-6.87224
-6.87756
-6.88342
-6.88987
-6.89696
-6.90473
-6.91321
-6.9224
-6.93233
-6.94301
-6.95444
-6.96663
-6.97956
-6.99325
-7.00768
-7.02285
-7.03874
-7.05536
-7.07268
-7.09071
-7.10942
-7.12883
-7.1489
-7.16964
-7.19103
-7.21306
-7.23572
-7.259
-7.28288
-7.30734
-7.33236
-7.35793
-7.384
-7.41056
-7.43756
-7.46498
-7.49275
-7.52085
-7.54921
-7.57777
-7.60647
-7.63523
-7.66398
-7.69263
-7.7211
-7.74927
-7.77705
-7.80433
-7.83098
-7.85689
-7.88193
-7.90595
-7.92882
-7.95038
-7.9705
-7.989
-8.00572
-8.0205
-8.03317
-8.04356
-8.05149
-8.05677
-8.05924
-8.05871
-8.05499
-8.04792
-8.03729
-8.02294
-8.00469
-7.98235
-7.95576
-7.92473
-7.88911
-7.84872
-7.80341
-7.75302
-7.69739
-7.63638
-7.56985
-7.49765
-7.41966
-7.33575
-7.24578
-7.14965
-7.04723
-6.93842
-6.82313
-6.70127
-6.57279
-6.43764
-6.29576
-6.14714
-5.99177
-5.82963
-5.66075
-5.48516
-5.30289
-5.11402
-4.9186
-4.71674
-4.50853
-4.2941
-4.07359
-3.84714
-3.61491
-3.37709
-3.13387
-2.88545
-2.63206
-2.37393
-2.1113
-1.84443
-1.57358
-1.29903
-1.02106
-0.739948
-0.456003
-0.169527
0.119172
0.409783
0.701991
0.995481
1.28993
1.58503
1.88047
2.17593
2.4711
2.76568
3.05936
3.35187
3.64291
3.93221
4.2195
4.50452
4.78702
5.06677
5.34354
5.61712
5.8873
6.15389
6.41671
6.67561
6.93041
7.18099
7.4272
7.66893
7.90606
8.1385
8.36614
8.5889
8.80669
9.01943
9.22706
9.42953
9.62681
9.81887
10.0057
10.1872
10.3634
10.5343
10.6998
10.8599
11.0145
11.1636
11.3067
11.4442
11.5722
11.7025
11.7712
-6.81734
-6.82384
-6.83211
-6.83967
-6.84594
-6.8513
-6.85612
-6.86066
-6.86513
-6.86969
-6.87449
-6.87964
-6.88524
-6.89135
-6.89804
-6.90535
-6.91332
-6.92196
-6.93132
-6.94138
-6.95217
-6.96369
-6.97594
-6.98893
-7.00264
-7.01707
-7.03223
-7.04809
-7.06467
-7.08195
-7.09992
-7.11858
-7.13792
-7.15794
-7.17863
-7.19998
-7.22198
-7.24462
-7.2679
-7.29178
-7.31627
-7.34134
-7.36696
-7.39311
-7.41976
-7.44688
-7.47442
-7.50234
-7.53059
-7.55911
-7.58785
-7.61673
-7.64569
-7.67463
-7.70348
-7.73214
-7.76051
-7.78849
-7.81595
-7.84279
-7.86887
-7.89407
-7.91825
-7.94125
-7.96295
-7.98317
-8.00176
-8.01856
-8.03341
-8.04612
-8.05654
-8.06447
-8.06975
-8.07219
-8.07162
-8.06785
-8.06071
-8.05
-8.03556
-8.01721
-7.99476
-7.96804
-7.9369
-7.90114
-7.86063
-7.81518
-7.76465
-7.70889
-7.64775
-7.58109
-7.50877
-7.43066
-7.34663
-7.25655
-7.16028
-7.05771
-6.94875
-6.8333
-6.71128
-6.58264
-6.44733
-6.30529
-6.15652
-6.00099
-5.83871
-5.66969
-5.49397
-5.31159
-5.1226
-4.92709
-4.72514
-4.51686
-4.30237
-4.08181
-3.85532
-3.62308
-3.38525
-3.14204
-2.89364
-2.64029
-2.3822
-2.11963
-1.85283
-1.58207
-1.30761
-1.02974
-0.748756
-0.464946
-0.178613
0.109935
0.400388
0.692431
0.985749
1.28002
1.57494
1.87019
2.16545
2.46043
2.75482
3.04831
3.34062
3.63146
3.92056
4.20766
4.49249
4.77481
5.05438
5.33098
5.60439
5.87441
6.14085
6.40354
6.6623
6.91699
7.16745
7.41357
7.65521
7.89227
8.12463
8.35222
8.57493
8.79268
9.00541
9.21303
9.41551
9.6128
9.80489
9.99172
10.1733
10.3495
10.5203
10.6857
10.8455
10.9998
11.1483
11.2906
11.4267
11.5527
11.6807
11.7445
-6.82534
-6.83145
-6.83928
-6.84655
-6.85271
-6.85806
-6.86296
-6.86761
-6.87221
-6.87692
-6.88187
-6.88716
-6.89288
-6.89911
-6.9059
-6.9133
-6.92134
-6.93004
-6.93944
-6.94953
-6.96034
-6.97186
-6.98411
-6.99707
-7.01076
-7.02516
-7.04028
-7.05611
-7.07265
-7.08989
-7.10783
-7.12647
-7.1458
-7.16582
-7.18652
-7.20789
-7.22993
-7.25263
-7.27597
-7.29994
-7.32453
-7.34972
-7.37548
-7.40178
-7.42859
-7.45588
-7.4836
-7.51172
-7.54017
-7.5689
-7.59784
-7.62693
-7.65609
-7.68524
-7.71429
-7.74314
-7.77169
-7.79984
-7.82746
-7.85444
-7.88066
-7.90597
-7.93024
-7.95332
-7.97507
-7.99532
-8.01393
-8.03073
-8.04554
-8.05821
-8.06856
-8.07641
-8.08158
-8.0839
-8.08319
-8.07927
-8.07196
-8.06108
-8.04645
-8.0279
-8.00525
-7.97833
-7.94697
-7.911
-7.87027
-7.82461
-7.77388
-7.71791
-7.65656
-7.58971
-7.5172
-7.4389
-7.35467
-7.26437
-7.16787
-7.06507
-6.95587
-6.84018
-6.71793
-6.58906
-6.45352
-6.31126
-6.16227
-6.00654
-5.84406
-5.67486
-5.49897
-5.31643
-5.1273
-4.93166
-4.7296
-4.52122
-4.30666
-4.08603
-3.8595
-3.62722
-3.38939
-3.14618
-2.89781
-2.6445
-2.38648
-2.12398
-1.85728
-1.58661
-1.31228
-1.03454
-0.7537
-0.47005
-0.183889
0.104476
0.394736
0.686576
0.979683
1.27374
1.56843
1.86344
2.15847
2.4532
2.74734
3.04058
3.33264
3.62324
3.91209
4.19894
4.48353
4.76561
5.04495
5.32132
5.59451
5.86432
6.13056
6.39305
6.65163
6.90615
7.15645
7.40242
7.64393
7.88086
8.11312
8.34061
8.56324
8.78093
8.9936
9.20119
9.40364
9.60093
9.793
9.97982
10.1613
10.3375
10.5082
10.6735
10.8331
10.9869
11.1348
11.2761
11.4109
11.535
11.661
11.7206
-6.83494
-6.84054
-6.84775
-6.85454
-6.8604
-6.86557
-6.87035
-6.87494
-6.87951
-6.88419
-6.88912
-6.8944
-6.9001
-6.9063
-6.91305
-6.9204
-6.92839
-6.93704
-6.94637
-6.9564
-6.96713
-6.97859
-6.99076
-7.00366
-7.01728
-7.03163
-7.0467
-7.06249
-7.07899
-7.09622
-7.11416
-7.13281
-7.15217
-7.17224
-7.193
-7.21445
-7.2366
-7.25941
-7.28289
-7.30701
-7.33176
-7.35713
-7.38307
-7.40956
-7.43658
-7.46408
-7.49201
-7.52034
-7.54899
-7.57793
-7.60707
-7.63635
-7.66569
-7.695
-7.7242
-7.75319
-7.78186
-7.81011
-7.83781
-7.86486
-7.89111
-7.91643
-7.94069
-7.96374
-7.98544
-8.00562
-8.02413
-8.0408
-8.05547
-8.06797
-8.07813
-8.08578
-8.09074
-8.09282
-8.09186
-8.08768
-8.08011
-8.06895
-8.05404
-8.0352
-8.01227
-7.98506
-7.95341
-7.91717
-7.87616
-7.83023
-7.77923
-7.723
-7.66141
-7.59431
-7.52157
-7.44302
-7.35852
-7.26793
-7.17114
-7.06804
-6.95855
-6.84258
-6.72005
-6.5909
-6.4551
-6.3126
-6.16338
-6.00743
-5.84475
-5.67537
-5.4993
-5.31661
-5.12735
-4.93159
-4.72943
-4.52098
-4.30635
-4.08569
-3.85914
-3.62687
-3.38906
-3.1459
-2.89759
-2.64436
-2.38644
-2.12407
-1.85749
-1.58699
-1.31282
-1.03527
-0.754632
-0.4712
-0.185272
0.102849
0.392851
0.684424
0.977252
1.27102
1.56542
1.86013
2.15485
2.44927
2.74309
3.03602
3.32776
3.61803
3.90657
4.19311
4.47739
4.75917
5.03821
5.31429
5.5872
5.85673
6.12271
6.38496
6.6433
6.89759
7.14769
7.39346
7.63479
7.87156
8.10367
8.33103
8.55354
8.77113
8.98372
9.19125
9.39366
9.59091
9.78295
9.96974
10.1512
10.3273
10.4979
10.663
10.8223
10.9757
11.1229
11.2633
11.3967
11.519
11.643
11.6993
-6.84565
-6.85066
-6.85713
-6.8633
-6.86869
-6.87351
-6.878
-6.88234
-6.88668
-6.89117
-6.8959
-6.90099
-6.90651
-6.91254
-6.91911
-6.92629
-6.93411
-6.94259
-6.95176
-6.96163
-6.97223
-6.98355
-6.9956
-7.00839
-7.02192
-7.0362
-7.05121
-7.06696
-7.08346
-7.10069
-7.11866
-7.13736
-7.15679
-7.17694
-7.19781
-7.2194
-7.24168
-7.26466
-7.28831
-7.31262
-7.33756
-7.36312
-7.38926
-7.41596
-7.44317
-7.47086
-7.49897
-7.52747
-7.55629
-7.58536
-7.61463
-7.64402
-7.67345
-7.70283
-7.73208
-7.76109
-7.78975
-7.81797
-7.84562
-7.87258
-7.89873
-7.92392
-7.94803
-7.9709
-7.99239
-8.01234
-8.0306
-8.04701
-8.0614
-8.0736
-8.08344
-8.09076
-8.09537
-8.09711
-8.09579
-8.09125
-8.08331
-8.07179
-8.05652
-8.03733
-8.01405
-7.9865
-7.95453
-7.91796
-7.87664
-7.83042
-7.77913
-7.72264
-7.66079
-7.59344
-7.52042
-7.44157
-7.35674
-7.26582
-7.16871
-7.06531
-6.95551
-6.83925
-6.71644
-6.58704
-6.45098
-6.30825
-6.15882
-6.00268
-5.83982
-5.67028
-5.49409
-5.31128
-5.12193
-4.9261
-4.7239
-4.51542
-4.3008
-4.08016
-3.85365
-3.62145
-3.38373
-3.14069
-2.89252
-2.63945
-2.38171
-2.11953
-1.85318
-1.58291
-1.309
-1.03172
-0.751377
-0.46825
-0.182641
0.105145
0.394802
0.686017
0.978478
1.27187
1.56588
1.8602
2.15453
2.44855
2.74197
3.0345
3.32584
3.61571
3.90386
4.19
4.4739
4.75529
5.03396
5.30968
5.58224
5.85145
6.1171
6.37904
6.63709
6.8911
7.14094
7.38646
7.62757
7.86413
8.09605
8.32324
8.5456
8.76306
8.97555
9.18299
9.38534
9.58254
9.77454
9.96127
10.1427
10.3187
10.4892
10.654
10.8131
10.966
11.1125
11.2519
11.384
11.5047
11.6267
11.6804
-6.85702
-6.86144
-6.86712
-6.87257
-6.87736
-6.88164
-6.88563
-6.88952
-6.89344
-6.89752
-6.90187
-6.9066
-6.91178
-6.91747
-6.92373
-6.93061
-6.93815
-6.94637
-6.95529
-6.96494
-6.97533
-6.98647
-6.99836
-7.01101
-7.02443
-7.03862
-7.05358
-7.0693
-7.08579
-7.10304
-7.12106
-7.13983
-7.15935
-7.17962
-7.20062
-7.22235
-7.24479
-7.26792
-7.29174
-7.31621
-7.34132
-7.36703
-7.39332
-7.42014
-7.44747
-7.47525
-7.50345
-7.53199
-7.56084
-7.58992
-7.61916
-7.6485
-7.67784
-7.70712
-7.73622
-7.76506
-7.79354
-7.82154
-7.84894
-7.87564
-7.90149
-7.92637
-7.95014
-7.97266
-7.99377
-8.01334
-8.0312
-8.04719
-8.06115
-8.07292
-8.08232
-8.0892
-8.09337
-8.09466
-8.09291
-8.08794
-8.07957
-8.06764
-8.05196
-8.03239
-8.00873
-7.98083
-7.94852
-7.91163
-7.87002
-7.82351
-7.77197
-7.71523
-7.65314
-7.58551
-7.51216
-7.43297
-7.34781
-7.25658
-7.15917
-7.05548
-6.94541
-6.82889
-6.70585
-6.57623
-6.43998
-6.29708
-6.1475
-5.99123
-5.82828
-5.65866
-5.48241
-5.29958
-5.11022
-4.91442
-4.71226
-4.50386
-4.28933
-4.06882
-3.84246
-3.61044
-3.37292
-3.13009
-2.88217
-2.62937
-2.37192
-2.11006
-1.84404
-1.57413
-1.30058
-1.0237
-0.743757
-0.461049
-0.175874
0.111465
0.400663
0.691408
0.98339
1.2763
1.56982
1.86364
2.15747
2.45099
2.7439
3.03593
3.32677
3.61616
3.90381
4.18947
4.4729
4.75383
5.03205
5.30733
5.57947
5.84826
6.11353
6.37509
6.63279
6.88647
7.13599
7.38122
7.62205
7.85837
8.09007
8.31705
8.53924
8.75655
8.96891
9.17626
9.37852
9.57566
9.7676
9.95428
10.1356
10.3115
10.4819
10.6465
10.8052
10.9577
11.1035
11.2419
11.3728
11.4918
11.6121
11.6638
-6.86926
-6.87311
-6.87799
-6.88263
-6.88663
-6.89015
-6.89341
-6.89657
-6.8998
-6.90323
-6.90697
-6.91111
-6.91575
-6.92093
-6.92673
-6.93317
-6.9403
-6.94815
-6.95673
-6.96607
-6.97619
-6.98708
-6.99876
-7.01123
-7.02451
-7.03858
-7.05345
-7.06912
-7.08559
-7.10285
-7.12089
-7.13971
-7.15929
-7.17964
-7.20072
-7.22254
-7.24506
-7.26828
-7.29216
-7.31668
-7.34182
-7.36754
-7.39381
-7.42059
-7.44784
-7.47552
-7.50357
-7.53194
-7.56058
-7.58942
-7.6184
-7.64743
-7.67645
-7.70536
-7.73408
-7.76252
-7.79056
-7.8181
-7.84503
-7.87123
-7.89658
-7.92094
-7.94418
-7.96616
-7.98673
-8.00575
-8.02305
-8.03849
-8.05191
-8.06313
-8.07199
-8.07834
-8.08199
-8.08278
-8.08054
-8.0751
-8.06628
-8.05392
-8.03785
-8.01789
-7.99388
-7.96566
-7.93305
-7.8959
-7.85405
-7.80735
-7.75561
-7.69866
-7.6363
-7.56835
-7.4947
-7.41521
-7.32978
-7.2383
-7.14065
-7.03675
-6.92649
-6.80981
-6.68662
-6.55689
-6.42056
-6.27759
-6.12797
-5.9717
-5.80876
-5.63919
-5.46302
-5.28029
-5.09106
-4.89542
-4.69345
-4.48527
-4.27098
-4.05074
-3.82468
-3.59298
-3.35581
-3.11336
-2.86584
-2.61346
-2.35646
-2.09506
-1.82953
-1.56012
-1.28711
-1.01077
-0.73138
-0.449244
-0.164654
0.122088
0.410679
0.700809
0.992169
1.28445