/*--------------------------------*- C++ -*----------------------------------*\
  =========                 |
  \\      /  F ield         | OpenFOAM: The Open Source CFD Toolbox
   \\    /   O peration     | Website:  https://openfoam.org
    \\  /    A nd           | Version:  9
     \\/     M anipulation  |
\*---------------------------------------------------------------------------*/
FoamFile
{
    format      ascii;
    class       surfaceScalarField;
    location    "0.25";
    object      alphaPhi0.water;
}
// * * * * * * * * * * * * * * * * * * * * * * * * * * * * * * * * * * * * * //

dimensions      [0 3 -1 0 0 0 0];

internalField   nonuniform List<scalar> 
3742
(
-7.97338e-16
-1.19711e-15
-2.21327e-15
-3.00798e-15
-5.65137e-15
-4.25693e-15
-7.45302e-15
-4.35343e-15
-5.09981e-15
-3.04932e-15
-9.35122e-16
-8.3793e-16
-8.7972e-16
-3.06172e-16
-9.44599e-16
-2.19842e-16
-7.8707e-16
-1.15134e-16
-4.50795e-16
-1.70372e-17
-3.592e-16
1.50864e-17
-2.79107e-16
3.19898e-17
-2.00893e-16
3.5777e-17
-1.37384e-16
3.18163e-17
-9.39179e-17
2.6121e-17
-6.3329e-17
2.07416e-17
-4.40238e-17
1.62411e-17
-3.77253e-17
1.38214e-17
-3.7917e-17
1.39376e-17
-5.54251e-17
1.8461e-17
-1.44112e-16
4.10669e-17
-4.63598e-16
1.31421e-16
-1.55432e-15
4.80183e-16
-8.35592e-15
1.92114e-15
6.53634e-15
3.23057e-24
1.31351e-22
2.27637e-22
3.57037e-21
2.88493e-21
4.57667e-20
2.24882e-20
3.80726e-19
1.21627e-19
2.2529e-18
5.24671e-19
9.58752e-18
1.50284e-18
2.86006e-17
1.74542e-18
5.14735e-17
3.16151e-18
4.62434e-17
1.12205e-17
6.26897e-17
2.68805e-17
1.17334e-16
3.42682e-17
1.69499e-16
4.47799e-17
1.95524e-16
6.58217e-17
2.3968e-16
6.64902e-17
2.50934e-16
1.07796e-17
1.2937e-16
-6.79386e-17
-9.22406e-17
-7.04689e-17
-2.74834e-16
-7.34108e-17
-1.62833e-16
-1.46086e-16
-1.36746e-16
-6.69827e-16
-3.19838e-16
-1.35353e-15
-5.61865e-16
-1.63709e-15
-5.89653e-16
-1.67294e-15
-3.84707e-16
-7.15056e-16
-1.98612e-16
-3.11466e-16
-1.30659e-16
-3.28759e-16
-8.81746e-17
-3.31025e-16
-4.71853e-17
-1.87673e-16
-1.57707e-17
-1.13501e-16
-1.6579e-18
-8.80926e-17
3.65108e-18
-6.33507e-17
6.14507e-18
-4.25303e-17
6.09812e-18
-2.837e-17
5.2256e-18
-1.905e-17
4.30116e-18
-1.27085e-17
3.42863e-18
-8.89158e-18
2.73424e-18
-7.81476e-18
2.4096e-18
-7.84452e-18
2.50237e-18
-1.13793e-17
3.44333e-18
-2.76523e-17
7.79369e-18
-8.61773e-17
2.50295e-17
-3.06899e-16
9.55527e-17
-1.13867e-15
4.21261e-16
1.92496e-15
2.71479e-23
1.1027e-22
7.30813e-22
2.80374e-21
8.72624e-21
3.3999e-20
6.54964e-20
2.6159e-19
3.35185e-19
1.39105e-18
1.1764e-18
5.16981e-18
2.4766e-18
1.28832e-17
2.60756e-18
1.95034e-17
4.16167e-18
1.79236e-17
9.21041e-18
2.28881e-17
1.57801e-17
3.47709e-17
2.16202e-17
4.74553e-17
3.14861e-17
6.32443e-17
3.9148e-17
7.78171e-17
2.39569e-17
6.32333e-17
-2.00281e-17
4.81246e-19
-5.29011e-17
-8.48037e-17
-3.87434e-17
-9.58899e-17
-3.31467e-17
-5.29491e-17
-5.59135e-17
-3.44231e-17
-1.52468e-16
-3.9382e-17
-2.18586e-16
-6.93425e-17
-2.09667e-16
-8.39617e-17
-1.34932e-16
-7.81254e-17
-1.18816e-16
-5.58126e-17
-1.14473e-16
-3.90909e-17
-9.63344e-17
-2.0864e-17
-6.18645e-17
-7.08809e-18
-3.33296e-17
-1.67832e-18
-2.16344e-17
-8.03354e-20
-1.59513e-17
5.86698e-19
-1.06562e-17
8.33062e-19
-7.0022e-18
7.82491e-19
-4.71874e-18
6.88538e-19
-3.19743e-18
5.85986e-19
-2.16238e-18
4.81607e-19
-1.5557e-18
3.99821e-19
-1.4327e-18
3.70074e-19
-1.44753e-18
3.99011e-19
-2.14638e-18
5.77393e-19
-5.10931e-18
1.34076e-18
-1.55706e-17
4.35443e-18
-5.68698e-17
1.7033e-17
-2.55062e-16
8.10325e-17
4.49781e-16
3.70138e-23
6.91504e-23
8.88048e-22
1.66219e-21
9.9019e-21
1.89588e-20
6.78239e-20
1.34486e-19
3.06637e-19
6.43734e-19
9.01933e-19
2.10194e-18
1.58628e-18
4.52518e-18
1.68055e-18
6.08602e-18
2.46611e-18
5.71075e-18
4.30208e-18
6.97202e-18
6.74553e-18
9.64335e-18
1.03389e-17
1.30213e-17
1.46498e-17
1.70328e-17
1.37307e-17
1.7577e-17
1.20767e-19
7.32245e-18
-2.08358e-17
-1.28908e-17
-2.28933e-17
-3.0297e-17
-1.71704e-17
-2.76985e-17
-9.93634e-18
-1.69271e-17
-1.11225e-17
-7.95568e-18
-2.05516e-17
-6.96565e-18
-3.63125e-17
-1.2128e-17
-4.75903e-17
-1.84054e-17
-4.857e-17
-2.06445e-17
-4.56421e-17
-1.8206e-17
-3.56636e-17
-1.03967e-17
-1.9155e-17
-3.94274e-18
-8.49735e-18
-9.08224e-19
-4.33822e-18
-1.47325e-19
-3.00094e-18
1.82644e-21
-2.10893e-18
6.40038e-20
-1.37339e-18
8.2688e-20
-9.35156e-19
8.07735e-20
-6.5527e-19
7.64777e-20
-4.58235e-19
6.8574e-20
-3.20956e-19
5.91391e-20
-2.42787e-19
5.17884e-20
-2.30713e-19
5.04544e-20
-2.40909e-19
5.71751e-20
-3.71544e-19
8.79275e-20
-8.93101e-19
2.13132e-19
-2.76397e-18
7.11906e-19
-1.03917e-17
2.85976e-18
-4.66653e-17
1.33764e-17
6.64826e-17
2.99855e-23
3.07676e-23
6.70727e-22
7.00763e-22
6.93798e-21
7.49997e-21
4.31229e-20
4.90791e-20
1.72369e-19
2.12864e-19
4.39339e-19
6.20692e-19
6.85898e-19
1.1916e-18
7.38439e-19
1.485e-18
1.02748e-18
1.42862e-18
1.61401e-18
1.68309e-18
2.47142e-18
2.13919e-18
3.66553e-18
2.65602e-18
4.29263e-18
2.96205e-18
2.03269e-18
1.99499e-18
-4.01378e-18
-9.4914e-19
-6.93291e-18
-6.28453e-18
-7.61759e-18
-7.51955e-18
-6.73742e-18
-7.72558e-18
-2.99015e-18
-5.07368e-18
-2.70567e-18
-1.89604e-18
-3.8994e-18
-1.3069e-18
-8.37263e-18
-1.82652e-18
-1.35306e-17
-3.12528e-18
-1.63465e-17
-3.75724e-18
-1.4733e-17
-3.46603e-18
-8.3593e-18
-2.01742e-18
-3.08711e-18
-4.98318e-19
-9.51016e-19
-8.69064e-20
-4.23551e-19
-1.06192e-20
-3.00049e-19
6.42138e-22
-2.08672e-19
4.90796e-21
-1.43489e-19
6.50251e-21
-1.05677e-19
7.14987e-21
-7.83964e-20
7.40941e-21
-5.74302e-20
7.05805e-21
-4.21145e-20
6.44323e-21
-3.4201e-20
5.98941e-21
-3.30569e-20
6.17286e-21
-3.64139e-20
7.3987e-21
-5.94752e-20
1.22944e-20
-1.481e-19
3.16538e-20
-4.74329e-19
1.09976e-19
-1.8245e-18
4.50625e-19
-7.92732e-18
2.05132e-18
9.42299e-18
1.56327e-23
8.71366e-24
3.2859e-22
1.88151e-22
3.15163e-21
1.89122e-21
1.78467e-20
1.14724e-20
6.3987e-20
4.55834e-20
1.45839e-19
1.20982e-19
2.11139e-19
2.13115e-19
2.32754e-19
2.54707e-19
3.11514e-19
2.53408e-19
4.47453e-19
2.8871e-19
6.26074e-19
3.23401e-19
7.85953e-19
3.18706e-19
5.95999e-19
2.28847e-19
-3.19633e-19
-2.20111e-20
-1.24177e-18
-5.8133e-19
-1.88607e-18
-1.16053e-18
-2.38263e-18
-1.64341e-18
-2.26786e-18
-1.74076e-18
-9.36926e-19
-1.19118e-18
-5.7903e-19
-3.82788e-19
-6.97586e-19
-1.96601e-19
-1.48498e-18
-2.14843e-19
-2.567e-18
-3.50585e-19
-3.19601e-18
-3.878e-19
-2.9947e-18
-3.29279e-19
-1.23763e-18
-1.31525e-19
-3.44382e-19
-2.77744e-20
-8.38007e-20
-4.31649e-21
-3.1646e-20
-4.6962e-22
-2.23412e-20
5.11735e-23
-1.65415e-20
2.91932e-22
-1.28631e-20
4.43985e-22
-1.04199e-20
5.64541e-22
-8.25397e-21
6.36711e-22
-6.3785e-21
6.46519e-22
-4.93458e-21
6.26978e-22
-4.3597e-21
6.22535e-22
-4.26347e-21
6.78494e-22
-5.0352e-21
8.7205e-22
-8.85365e-21
1.58673e-21
-2.32484e-20
4.38685e-21
-7.7403e-20
1.58736e-20
-3.00326e-19
6.56226e-20
-1.25218e-18
2.88607e-19
1.24435e-18
4.91968e-24
1.18829e-24
9.73991e-23
2.43698e-23
8.69637e-22
2.3096e-22
4.53006e-21
1.30876e-21
1.4835e-20
4.82321e-21
3.11019e-20
1.18579e-20
4.32395e-20
1.95808e-20
4.9298e-20
2.27638e-20
6.3734e-20
2.27007e-20
8.05025e-20
2.35313e-20
8.91201e-20
2.05624e-20
7.17513e-20
1.1622e-20
-7.73203e-21
-2.75888e-22
-8.05911e-20
-1.28757e-20
-2.27501e-19
-6.83126e-20
-4.49011e-19
-1.77204e-19
-5.90515e-19
-2.75269e-19
-5.73636e-19
-2.94868e-19
-2.3202e-19
-2.12919e-19
-9.5e-20
-6.39698e-20
-1.03215e-19
-1.94147e-20
-1.87164e-19
-1.3366e-20
-2.97e-19
-1.42542e-20
-3.1727e-19
-1.40446e-20
-2.29294e-19
-9.0589e-21
-7.48709e-20
-2.42981e-21
-1.87503e-20
-4.72171e-22
-4.04291e-21
-6.18052e-23
-1.69503e-21
-1.09891e-23
-1.34029e-21
2.41694e-24
-1.14104e-21
1.56576e-23
-1.02649e-21
2.77732e-23
-9.12794e-22
4.03338e-23
-7.73986e-22
4.88809e-23
-6.32782e-22
5.29856e-23
-5.20703e-22
5.47814e-23
-4.96172e-22
5.81714e-23
-4.99932e-22
6.73354e-23
-6.40239e-22
9.41194e-23
-1.22753e-21
1.89277e-22
-3.42769e-21
5.63814e-22
-1.1817e-20
2.11353e-21
-4.56939e-20
8.73341e-21
-1.82295e-19
3.69846e-20
1.50389e-19
7.21619e-25
-6.56544e-42
1.351e-23
-1.29987e-39
1.1308e-22
-1.31458e-37
5.48193e-22
-9.09329e-36
1.66773e-21
-4.83536e-34
3.28493e-21
-2.10258e-32
4.44889e-21
-7.75854e-31
5.08757e-21
-2.45853e-29
5.98359e-21
-5.10081e-28
5.89065e-21
-3.89694e-27
3.73424e-21
-5.89376e-26
-9.91431e-23
-1.19019e-24
-2.38275e-21
-3.97508e-23
-7.88921e-21
-5.38425e-22
-3.45138e-20
-5.94252e-21
-8.02481e-20
-1.91892e-20
-1.07491e-19
-3.02286e-20
-1.06942e-19
-3.27494e-20
-4.61453e-20
-2.53703e-20
-1.26689e-20
-8.06736e-21
-7.85052e-21
-1.86577e-21
-9.00002e-21
-5.22763e-22
-1.15036e-20
-2.44339e-22
-1.10608e-20
-1.44864e-22
-4.88788e-21
-6.49901e-23
-1.39218e-21
-1.63624e-23
-2.7163e-22
-2.70668e-24
-7.45705e-23
-6.59111e-25
-7.24795e-23
-3.06134e-25
-7.48282e-23
8.68543e-26
-7.2325e-23
7.96518e-25
-7.48913e-23
1.61405e-24
-7.1614e-23
2.60476e-24
-6.49961e-23
3.35925e-24
-5.65274e-23
3.89625e-24
-5.08626e-23
4.31154e-24
-4.94814e-23
4.87931e-24
-5.34762e-23
6.06273e-24
-7.50903e-23
9.32694e-24
-1.58212e-22
2.08452e-23
-4.69873e-22
6.66845e-23
-1.6648e-21
2.56955e-22
-6.36387e-21
1.05452e-21
-2.42913e-20
4.30013e-21
1.65601e-20
-6.34612e-42
-2.19323e-43
-1.26547e-39
-4.0754e-41
-1.28762e-37
-3.96188e-39
-8.96106e-36
-2.60998e-37
-4.79364e-34
-1.31332e-35
-2.09677e-32
-5.37468e-34
-7.78236e-31
-1.85857e-32
-2.48066e-29
-5.56975e-31
-5.20165e-28
-1.47227e-29
-4.06954e-27
-3.47568e-28
-5.56298e-26
-7.37679e-27
-1.10202e-24
-1.43885e-25
-3.79835e-23
-2.39396e-24
-5.44999e-22
-3.52948e-23
-3.86386e-21
-3.35159e-22
-9.22228e-21
-1.02118e-21
-1.25751e-20
-1.62404e-21
-1.28191e-20
-1.78615e-21
-6.21539e-21
-1.48007e-21
-1.66676e-21
-5.22444e-22
-4.70819e-22
-1.30236e-22
-2.23987e-22
-3.15924e-23
-1.57544e-22
-7.62496e-24
-9.78541e-23
-2.22226e-24
-3.62579e-23
-7.5817e-25
-8.08276e-24
-2.04767e-25
-2.06322e-24
-4.61053e-26
-2.08339e-24
-2.13572e-26
-2.91842e-24
-1.49248e-26
-3.64167e-24
2.37602e-27
-4.31252e-24
3.53237e-26
-4.97519e-24
8.77519e-26
-5.12389e-24
1.4985e-25
-4.91265e-24
2.06364e-25
-4.57137e-24
2.57244e-25
-4.41861e-24
3.04438e-25
-4.47387e-24
3.68795e-25
-5.22993e-24
4.96699e-25
-8.13169e-24
8.49266e-25
-1.88748e-23
2.11224e-24
-5.93028e-23
7.20426e-24
-2.14209e-22
2.83182e-23
-8.05804e-22
1.1501e-22
-2.94906e-21
4.52593e-22
1.65915e-21
-3.84886e-43
1.65563e-43
-3.86015e-41
-2.50607e-42
-3.75909e-39
-2.33117e-40
-2.4934e-37
-1.46383e-38
-1.2633e-35
-6.99904e-37
-5.2054e-34
-2.71408e-35
-1.81231e-32
-8.87173e-34
-5.46805e-31
-2.50804e-32
-1.45526e-29
-6.23567e-31
-3.46081e-28
-1.35906e-29
-7.43956e-27
-2.78428e-28
-1.46118e-25
-5.58604e-27
-2.1838e-24
-9.72872e-26
-3.51365e-23
-1.07317e-24
-2.14998e-22
-3.0775e-24
-5.10321e-22
-4.57997e-24
-7.12113e-22
-4.80701e-24
-7.38642e-22
-3.4294e-24
-4.03079e-22
-1.3636e-24
-1.2126e-22
-7.3024e-25
-3.41361e-23
-5.32669e-25
-9.34052e-24
-3.38744e-25
-3.0886e-24
-1.48675e-25
-1.29667e-24
-5.47411e-26
-4.68482e-25
-1.69606e-26
-1.20642e-25
-4.20457e-27
-7.09718e-26
-1.45497e-27
-8.67253e-26
-9.27149e-28
-1.31433e-25
-7.2574e-28
-1.80207e-25
7.77553e-30
-2.43907e-25
1.56115e-27
-2.97896e-25
4.25533e-27
-3.24235e-25
7.62644e-27
-3.33657e-25
1.13483e-26
-3.33502e-25
1.51681e-26
-3.37993e-25
1.92874e-26
-3.67266e-25
2.51276e-26
-4.68321e-25
3.70722e-26
-8.12384e-25
7.09979e-26
-2.07213e-24
1.95924e-25
-6.83261e-24
7.06151e-25
-2.49895e-23
2.81436e-24
-9.23399e-23
1.12971e-23
-3.25095e-22
4.30504e-23
1.5104e-22
-5.68537e-44
2.64888e-44
-2.38461e-42
-1.79421e-43
-2.17304e-40
-1.8054e-41
-1.36091e-38
-1.23305e-39
-6.489e-37
-6.37839e-38
-2.50881e-35
-2.6632e-36
-8.1748e-34
-9.33413e-35
-2.3033e-32
-2.81862e-33
-5.70256e-31
-7.43e-32
-1.24145e-29
-1.44102e-30
-2.66121e-28
-2.7881e-29
-5.4057e-27
-4.83238e-28
-1.16688e-25
-1.11077e-26
-6.98009e-25
-1.31806e-25
-1.53738e-24
-4.54618e-25
-1.96472e-24
-7.34318e-25
-1.90345e-24
-7.9461e-25
-9.21288e-25
-5.87018e-25
-4.69774e-25
-1.73845e-25
-3.78825e-25
-4.23814e-26
-3.00629e-25
-1.92332e-26
-1.74e-25
-1.23209e-26
-8.0862e-26
-7.16805e-27
-3.21264e-26
-3.06089e-27
-9.74558e-27
-9.16545e-28
-3.30294e-27
-2.06338e-28
-3.15878e-27
-6.18114e-29
-4.01964e-27
-3.71051e-29
-6.01376e-27
-2.93972e-29
-8.768e-27
-4.90114e-30
-1.24665e-26
5.98365e-29
-1.5851e-26
1.77757e-28
-1.8499e-26
3.44402e-28
-2.03089e-26
5.54136e-28
-2.16068e-26
7.9684e-28
-2.33611e-26
1.09137e-27
-2.73569e-26
1.54443e-27
-3.83968e-26
2.51858e-27
-7.46673e-26
5.43422e-27
-2.07953e-25
1.65342e-26
-7.13578e-25
6.24259e-26
-2.62958e-24
2.51257e-25
-9.546e-24
9.97362e-25
-3.24586e-23
3.69568e-24
1.24776e-23
-4.41056e-45
-1.52518e-48
-1.90453e-43
-3.49515e-46
-1.88559e-41
-3.16771e-44
-1.28997e-39
-1.96156e-42
-6.68622e-38
-9.21036e-41
-2.7975e-36
-3.50027e-39
-9.82597e-35
-1.1203e-37
-2.97395e-33
-3.10166e-36
-7.86757e-32
-7.5572e-35
-1.57345e-30
-1.63963e-33
-2.94174e-29
-3.21301e-32
-5.12042e-28
-4.89762e-31
-1.29494e-26
-1.15442e-29
-1.01801e-25
-1.54632e-28
-2.56308e-25
-6.18843e-28
-3.46675e-25
-1.19583e-27
-3.44216e-25
-1.55169e-27
-1.4614e-25
-1.61207e-27
-3.59396e-26
-1.47361e-27
-1.58527e-26
-1.00173e-27
-1.13366e-26
-7.13607e-28
-8.21087e-27
-4.79935e-28
-4.65974e-27
-2.72912e-28
-1.85181e-27
-1.12332e-28
-5.1931e-28
-3.28131e-29
-1.54239e-28
-7.51941e-30
-1.26043e-28
-2.12924e-30
-1.49954e-28
-1.20704e-30
-2.40826e-28
-9.96747e-31
-3.77246e-28
-3.89862e-31
-5.59063e-28
1.80034e-30
-7.53559e-28
6.3326e-30
-9.39933e-28
1.36276e-29
-1.10233e-27
2.38443e-29
-1.25325e-27
3.70873e-29
-1.453e-27
5.5128e-29
-1.84626e-27
8.54103e-29
-2.87892e-27
1.55486e-28
-6.28506e-27
3.79045e-28
-1.89482e-26
1.26115e-27
-6.71642e-26
4.95188e-27
-2.48659e-25
2.00896e-26
-8.88228e-25
7.90092e-26
-2.92961e-24
2.85985e-25
9.34354e-25
-1.49335e-48
-3.18317e-50
-3.46787e-46
-4.08173e-48
-3.15716e-44
-3.7263e-46
-1.96615e-42
-2.31753e-44
-9.28114e-41
-1.09121e-42
-3.54582e-39
-4.13903e-41
-1.14087e-37
-1.31653e-39
-3.17521e-36
-3.61681e-38
-7.77774e-35
-8.73397e-37
-1.69683e-33
-1.8687e-35
-3.33904e-32
-3.63459e-34
-5.5727e-31
-5.69971e-33
-1.34273e-29
-1.02105e-31
-1.1994e-28
-2.18994e-30
-3.63085e-28
-1.61114e-29
-6.22322e-28
-4.77096e-29
-7.85865e-28
-8.00584e-29
-8.23899e-28
-9.46986e-29
-7.10793e-28
-9.16805e-29
-5.74252e-28
-5.91161e-29
-4.59091e-28
-3.03534e-29
-3.28487e-28
-1.80273e-29
-1.77813e-28
-9.6475e-30
-6.79305e-29
-3.82779e-30
-1.93819e-29
-1.07462e-30
-5.60791e-30
-2.23909e-31
-4.01581e-30
-5.48073e-32
-4.58277e-30
-3.03907e-32
-8.06126e-30
-2.92489e-32
-1.37442e-29
-1.89996e-32
-2.17611e-29
4.07618e-32
-3.15583e-29
1.90743e-31
-4.22396e-29
4.66017e-31
-5.30975e-29
8.96591e-31
-6.48094e-29
1.52215e-30
-8.10504e-29
2.47474e-30
-1.12693e-28
4.24003e-30
-1.9689e-28
8.6956e-30
-4.81614e-28
2.39479e-29
-1.55737e-27
8.63725e-29
-5.67079e-27
3.50935e-28
-2.10713e-26
1.43503e-27
-7.42555e-26
5.60828e-27
-2.38665e-25
1.99278e-26
6.3358e-26
-3.12293e-50
-5.30711e-52
-4.0342e-48
-7.98797e-50
-3.68412e-46
-7.66813e-48
-2.29965e-44
-4.94485e-46
-1.08706e-42
-2.40245e-44
-4.14388e-41
-9.39888e-43
-1.32417e-39
-3.0908e-41
-3.65437e-38
-8.75457e-40
-8.86571e-37
-2.17553e-38
-1.88902e-35
-4.54494e-37
-3.75243e-34
-8.8918e-36
-6.06467e-33
-1.5544e-34
-1.1934e-31
-2.793e-33
-2.2702e-30
-6.23845e-32
-1.254e-29
-5.00547e-31
-3.09881e-29
-1.59103e-30
-4.7551e-29
-2.81252e-30
-5.34409e-29
-3.46979e-30
-4.73893e-29
-3.46637e-30
-2.78718e-29
-2.55118e-30
-1.87049e-29
-1.32501e-30
-1.22967e-29
-7.72992e-31
-6.3425e-30
-4.27796e-31
-2.32767e-30
-1.81686e-31
-6.09119e-31
-5.45769e-32
-1.4928e-31
-1.16161e-32
-9.81975e-32
-2.17357e-33
-1.14883e-31
-8.47024e-34
-2.27748e-31
-6.83732e-34
-4.23861e-31
-6.70683e-34
-7.31761e-31
6.03519e-34
-1.15284e-30
4.7683e-33
-1.66639e-30
1.36076e-32
-2.25727e-30
2.92391e-32
-2.97246e-30
5.474e-32
-4.03951e-30
9.82404e-32
-6.20583e-30
1.88246e-31
-1.22324e-29
4.38575e-31
-3.33673e-29
1.36074e-30
-1.14774e-28
5.27896e-30
-4.27845e-28
2.21367e-29
-1.59652e-27
9.13826e-29
-5.56924e-27
3.56243e-28
-1.75276e-26
1.2491e-27
3.88677e-27
-5.40439e-52
-4.45481e-54
-8.05056e-50
-7.89008e-52
-7.73295e-48
-7.59321e-50
-5.00651e-46
-4.93543e-48
-2.44158e-44
-2.41947e-46
-9.59293e-43
-9.54191e-45
-3.16746e-41
-3.15671e-43
-9.00954e-40
-8.99638e-42
-2.24928e-38
-2.25268e-40
-4.78928e-37
-4.9704e-39
-9.26361e-36
-1.00151e-37
-1.63523e-34
-1.81338e-36
-3.31091e-33
-3.1951e-35
-6.87854e-32
-7.28837e-34
-4.14175e-31
-7.67944e-33
-1.08431e-30
-3.05855e-32
-1.738e-30
-6.37911e-32
-2.05771e-30
-8.83111e-32
-1.98487e-30
-9.37168e-32
-1.25422e-30
-8.44121e-32
-8.22621e-31
-4.79828e-32
-5.4953e-31
-2.60682e-32
-3.00871e-31
-1.40847e-32
-1.18515e-31
-6.11669e-33
-3.27358e-32
-1.90721e-33
-6.8947e-33
-4.16013e-34
-2.63289e-33
-6.96554e-35
-2.73416e-33
-1.95867e-35
-5.17565e-33
-1.38556e-35
-1.10485e-32
-1.80387e-35
-2.106e-32
9.33485e-37
-3.6369e-32
9.53704e-35
-5.72587e-32
3.34405e-34
-8.41202e-32
8.18692e-34
-1.20284e-31
1.71157e-33
-1.79131e-31
3.43125e-33
-3.07242e-31
7.43841e-33
-6.86534e-31
1.98301e-32
-2.07523e-30
6.90118e-32
-7.54418e-30
2.86344e-31
-2.8751e-29
1.23881e-30
-1.07947e-28
5.17762e-30
-3.74249e-28
2.02246e-29
-1.15912e-27
7.03587e-29
2.15511e-28
-4.43689e-54
-1.61419e-56
-7.90135e-52
-2.98982e-54
-7.6395e-50
-2.9946e-52
-4.99001e-48
-2.01667e-50
-2.45847e-46
-1.02125e-48
-9.74401e-45
-4.15059e-47
-3.23946e-43
-1.41233e-45
-9.27789e-42
-4.13403e-44
-2.33471e-40
-1.06206e-42
-5.1799e-39
-2.40286e-41
-1.0475e-37
-4.95613e-40
-1.91176e-36
-9.30847e-39
-3.50817e-35
-1.63831e-37
-8.75297e-34
-3.13158e-36
-7.08412e-33
-5.8439e-35
-2.3095e-32
-4.1116e-34
-4.33135e-32
-1.27408e-33
-5.7056e-32
-2.27902e-33
-5.92372e-32
-2.85014e-33
-4.65249e-32
-2.85578e-33
-2.88177e-32
-2.13996e-33
-1.83521e-32
-9.18264e-34
-1.00679e-32
-3.8331e-34
-4.08411e-33
-1.56098e-34
-1.16251e-33
-5.15859e-35
-2.35115e-34
-1.2499e-35
-5.80489e-35
-2.22832e-36
-5.81169e-35
-4.80338e-37
-9.67484e-35
-2.70132e-37
-2.37575e-34
-3.63209e-37
-5.10188e-34
-2.16537e-37
-9.80112e-34
1.4294e-36
-1.69783e-33
6.77617e-36
-2.72628e-33
1.94277e-35
-4.26806e-33
4.61085e-35
-7.03458e-33
1.04748e-34
-1.36125e-32
2.60117e-34
-3.45695e-32
7.97817e-34
-1.15052e-31
3.10068e-33
-4.40198e-31
1.37164e-32
-1.71591e-30
6.13207e-32
-6.50193e-30
2.60528e-31
-2.25051e-29
1.0249e-30
-6.89536e-29
3.55777e-30
1.07907e-29
-1.61033e-56
-3.57052e-59
-2.99928e-54
-7.1673e-57
-3.01673e-52
-7.62763e-55
-2.04133e-50
-5.40989e-53
-1.03879e-48
-2.87277e-51
-4.24237e-47
-1.22007e-49
-1.45052e-45
-4.32607e-48
-4.26632e-44
-1.31666e-46
-1.10135e-42
-3.51143e-45
-2.48998e-41
-8.15488e-44
-5.19467e-40
-1.7477e-42
-9.80393e-39
-3.43179e-41
-1.74415e-37
-6.21541e-40
-4.07394e-36
-1.07003e-38
-6.79553e-35
-2.35556e-37
-3.82174e-34
-2.71344e-36
-1.0087e-33
-1.25027e-35
-1.65192e-33
-2.91679e-35
-1.98369e-33
-4.35222e-35
-1.94524e-33
-4.82983e-35
-1.11768e-33
-4.48969e-35
-5.34111e-34
-2.52822e-35
-2.58859e-34
-9.8091e-36
-1.07674e-34
-3.75653e-36
-3.37602e-35
-1.26115e-36
-7.5864e-36
-3.25365e-37
-1.57815e-36
-6.11624e-38
-1.10131e-36
-1.07969e-38
-1.48544e-36
-4.63121e-39
-4.201e-36
-5.52121e-39
-1.03119e-35
-7.15917e-39
-2.2244e-35
1.33708e-38
-4.29374e-35
1.09654e-37
-7.61423e-35
3.84241e-37
-1.31851e-34
1.0588e-36
-2.43279e-34
2.77262e-36
-5.36547e-34
7.99266e-36
-1.54978e-33
2.83248e-35
-5.64837e-33
1.22536e-34
-2.27043e-32
5.77605e-34
-9.07134e-32
2.67739e-33
-3.48278e-31
1.16209e-32
-1.20954e-30
4.63004e-32
-3.68601e-30
1.61334e-31
4.8745e-31
-3.58525e-59
-2.73962e-62
-7.20558e-57
-6.08404e-60
-7.69769e-55
-6.81772e-58
-5.4848e-53
-5.06286e-56
-2.92563e-51
-2.80652e-54
-1.24839e-49
-1.24211e-52
-4.44684e-48
-4.58135e-51
-1.35972e-46
-1.44948e-49
-3.6438e-45
-4.01873e-48
-8.56078e-44
-9.85635e-47
-1.83183e-42
-2.19262e-45
-3.61226e-41
-4.48106e-44
-6.57092e-40
-8.42907e-43
-1.18264e-38
-1.47565e-41
-3.15646e-37
-2.72251e-40
-3.0152e-36
-5.24193e-39
-1.13762e-35
-4.62826e-38
-2.35258e-35
-1.81177e-37
-3.31768e-35
-3.88705e-37
-3.51996e-35
-5.54654e-37
-2.9181e-35
-5.9777e-37
-1.39988e-35
-5.39925e-37
-6.27404e-36
-2.76249e-37
-2.58253e-36
-9.17205e-38
-8.49406e-37
-2.80519e-38
-2.04424e-37
-7.3608e-39
-3.89355e-38
-1.51315e-39
-1.7108e-38
-2.60145e-40
-1.9677e-38
-7.97175e-41
-5.79897e-38
-6.62326e-41
-1.68155e-37
-1.30506e-40
-4.17485e-37
3.37368e-42
-9.13432e-37
1.34264e-39
-1.81307e-36
6.19631e-39
-3.51651e-36
2.04471e-38
-7.35971e-36
6.30188e-38
-1.86805e-35
2.13963e-37
-6.13614e-35
8.79568e-37
-2.44044e-34
4.23049e-36
-1.03107e-33
2.12922e-35
-4.2373e-33
1.02835e-34
-1.65625e-32
4.5866e-34
-5.80261e-32
1.86215e-33
-1.76877e-31
6.55389e-33
1.98483e-32
-2.73809e-62
-1.63891e-65
-6.10787e-60
-3.87098e-63
-6.87467e-58
-4.59599e-61
-5.12842e-56
-3.60464e-59
-2.85598e-54
-2.10513e-57
-1.26983e-52
-9.79552e-56
-4.70516e-51
-3.79229e-54
-1.4955e-49
-1.25777e-52
-4.16534e-48
-3.65201e-51
-1.02655e-46
-9.37619e-50
-2.29543e-45
-2.1856e-48
-4.70829e-44
-4.67177e-47
-8.89508e-43
-9.19206e-46
-1.57196e-41
-1.67793e-44
-3.55624e-40
-2.88402e-43
-7.09032e-39
-5.67471e-42
-5.28391e-38
-9.29019e-41
-1.75576e-37
-7.03501e-40
-3.42037e-37
-2.43772e-39
-4.66284e-37
-4.73543e-39
-4.82293e-37
-6.21224e-39
-3.7579e-37
-6.31099e-39
-1.5704e-37
-5.16255e-39
-5.72622e-38
-2.14394e-39
-1.85508e-38
-6.38984e-40
-4.83694e-39
-1.71427e-40
-9.80562e-40
-3.91047e-41
-2.67797e-40
-7.24902e-42
-2.70874e-40
-1.50454e-42
-5.95506e-40
-7.98271e-43
-2.12201e-39
-1.54199e-42
-6.32748e-39
-1.80575e-42
-1.6068e-38
1.10011e-41
-3.63306e-38
7.89001e-41
-8.0172e-38
3.26378e-40
-1.93231e-37
1.21574e-39
-5.69752e-37
4.94065e-39
-2.12824e-36
2.36707e-38
-9.22576e-36
1.26771e-37
-4.10753e-35
6.84275e-37
-1.74449e-34
3.46515e-36
-6.98039e-34
1.59878e-35
-2.48151e-33
6.65848e-35
-7.61087e-33
2.38253e-34
7.27856e-34
-1.63864e-65
-3.23224e-69
-3.88679e-63
-8.21949e-67
-4.63385e-61
-1.04227e-64
-3.65012e-59
-8.69453e-63
-2.1411e-57
-5.38708e-61
-1.0007e-55
-2.65384e-59
-3.89131e-54
-1.08584e-57
-1.29633e-52
-3.80087e-56
-3.78058e-51
-1.16347e-54
-9.7326e-50
-3.14183e-53
-2.2835e-48
-7.72939e-52
-4.89955e-47
-1.73713e-50
-9.68088e-46
-3.59365e-49
-1.77452e-44
-6.8972e-48
-3.10959e-43
-1.23659e-46
-8.03317e-42
-2.10156e-45
-1.33717e-40
-4.10007e-44
-8.54892e-40
-6.55827e-43
-2.52097e-39
-5.37028e-42
-4.4371e-39
-2.01561e-41
-5.5287e-39
-4.10123e-41
-5.57153e-39
-5.48255e-41
-3.48223e-39
-5.57796e-41
-1.28295e-39
-4.60419e-41
-4.15511e-40
-1.88304e-41
-1.17916e-40
-4.85927e-42
-2.72522e-41
-1.03536e-42
-5.61588e-42
-1.83635e-43
-3.48354e-42
-3.14545e-44
-4.90631e-42
-1.13488e-44
-2.11192e-41
-1.29759e-44
-7.64871e-41
-3.15364e-44
-2.28615e-40
3.42044e-44
-6.03091e-40
7.5249e-43
-1.54458e-39
4.20875e-42
-4.36226e-39
1.96264e-41
-1.50823e-38
9.72783e-41
-6.41376e-38
5.46868e-40
-3.03465e-37
3.27634e-39
-1.43019e-36
1.90935e-38
-6.31414e-36
1.02155e-37
-2.60254e-35
4.91243e-37
-9.447e-35
2.11377e-36
-2.9333e-34
7.74241e-36
2.40173e-35
-3.21996e-69
-8.47867e-73
-8.23204e-67
-2.35284e-70
-1.04831e-64
-3.18029e-68
-8.78365e-63
-2.82086e-66
-5.46596e-61
-1.85589e-64
-2.70469e-59
-9.69862e-63
-1.11148e-57
-4.20533e-61
-3.90768e-56
-1.55914e-59
-1.20149e-54
-5.05392e-58
-3.2667e-53
-1.45267e-56
-8.05693e-52
-3.78136e-55
-1.81748e-50
-8.98643e-54
-3.77501e-49
-1.9659e-52
-7.27398e-48
-3.99048e-51
-1.30923e-46
-7.5679e-50
-2.27186e-45
-1.35269e-48
-5.98658e-44
-2.50138e-47
-1.04873e-42
-4.71701e-46
-7.4638e-42
-6.03456e-45
-2.36618e-41
-3.66533e-44
-4.30867e-41
-1.07959e-43
-5.43089e-41
-1.86885e-43
-5.47479e-41
-2.26382e-43
-3.47725e-41
-2.19766e-43
-1.14495e-41
-1.60684e-43
-3.00315e-42
-5.99712e-44
-6.6291e-43
-1.71242e-44
-1.27478e-43
-4.21142e-45
-4.32392e-44
-8.28545e-46
-4.59405e-44
-1.78974e-46
-1.50131e-43
-1.02435e-46
-6.90445e-43
-2.87604e-46
-2.55649e-42
-3.33718e-46
-8.13493e-42
4.80119e-45
-2.48065e-41
4.24313e-44
-8.37611e-41
2.60459e-43
-3.43032e-40
1.61173e-42
-1.66587e-39
1.07403e-41
-8.63781e-39
7.25605e-41
-4.33635e-38
4.60648e-40
-2.00396e-37
2.62736e-39
-8.56731e-37
1.32783e-38
-3.19685e-36
5.9489e-38
-1.01143e-35
2.24674e-37
7.1253e-37
-8.47836e-73
-4.62254e-77
-2.36123e-70
-1.36589e-74
-3.20378e-68
-1.96681e-72
-2.85278e-66
-1.8583e-70
-1.88433e-64
-1.30192e-68
-9.8866e-63
-7.24174e-67
-4.30399e-61
-3.34053e-65
-1.6021e-59
-1.31699e-63
-5.21387e-58
-4.53771e-62
-1.50474e-56
-1.38612e-60
-3.93205e-55
-3.83365e-59
-9.37957e-54
-9.67788e-58
-2.05969e-52
-2.24902e-56
-4.19646e-51
-4.85012e-55
-7.98758e-50
-9.77422e-54
-1.43782e-48
-1.85244e-52
-3.17428e-47
-3.35004e-51
-7.70568e-46
-6.16438e-50
-9.74496e-45
-1.10683e-48
-5.01594e-44
-1.61385e-47
-1.27299e-43
-1.24709e-46
-2.02107e-43
-4.48284e-46
-2.36486e-43
-8.71971e-46
-2.28439e-43
-1.11371e-45
-1.24051e-43
-1.09529e-45
-4.40956e-44
-8.43701e-46
-1.35713e-44
-3.13888e-46
-3.35555e-45
-7.53374e-47
-6.91634e-46
-1.45331e-47
-4.96415e-46
-2.65035e-48
-7.99052e-46
-1.03111e-48
-4.64653e-45
-1.70652e-48
-2.20774e-44
-5.42591e-48
-8.70214e-44
1.30379e-47
-3.26815e-43
3.17101e-46
-1.35084e-42
2.77623e-45
-6.6304e-42
2.21299e-44
-3.69852e-41
1.7745e-43
-2.11578e-40
1.3678e-42
-1.14054e-39
9.56662e-42
-5.5616e-39
5.87749e-41
-2.4851e-38
3.15079e-40
-9.60142e-38
1.48211e-39
-3.1164e-37
5.81586e-39
1.89912e-38
-4.6224e-77
-2.28491e-81
-1.37036e-74
-7.20593e-79
-1.98033e-72
-1.1077e-76
-1.8779e-70
-1.11743e-74
-1.32055e-68
-8.36106e-73
-7.37288e-67
-4.96696e-71
-3.41386e-65
-2.44667e-69
-1.35098e-63
-1.02985e-67
-4.67235e-62
-3.78772e-66
-1.43274e-60
-1.23509e-64
-3.97719e-59
-3.64599e-63
-1.00756e-57
-9.81918e-62
-2.3498e-56
-2.43458e-60
-5.08518e-55
-5.60262e-59
-1.02829e-53
-1.20512e-57
-1.95504e-52
-2.43808e-56
-3.53677e-51
-4.67296e-55
-7.73998e-50
-8.90063e-54
-1.85764e-48
-1.59696e-52
-3.01054e-47
-2.79338e-51
-2.04319e-46
-4.0443e-50
-6.19114e-46
-3.25891e-49
-1.07267e-45
-1.25273e-48
-1.2986e-45
-2.60664e-48
-1.28031e-45
-3.52173e-48
-7.34712e-46
-3.56399e-48
-2.28209e-46
-3.00111e-48
-5.51964e-47
-1.32128e-48
-1.11746e-47
-3.26172e-49
-4.21846e-48
-6.06214e-50
-4.76984e-48
-1.32992e-50
-2.248e-47
-9.00193e-51
-1.39756e-46
-3.78406e-50
-7.16095e-46
-5.69245e-50
-3.46688e-45
1.56966e-48
-1.80387e-44
2.30119e-47
-1.07643e-43
2.47291e-46
-6.95929e-43
2.43808e-45
-4.43382e-42
2.17858e-44
-2.59174e-41
1.70209e-43
-1.34579e-40
1.13995e-42
-6.33817e-40
6.54914e-42
-2.55529e-39
3.26397e-41
-8.56989e-39
1.3416e-40
4.54432e-40
-2.27582e-81
-1.15286e-85
-7.21406e-79
-3.91335e-83
-1.11314e-76
-6.41961e-81
-1.1271e-74
-6.91803e-79
-8.46455e-73
-5.5352e-77
-5.04717e-71
-3.51851e-75
-2.49534e-69
-1.85521e-73
-1.0542e-67
-8.36159e-72
-3.8916e-66
-3.29404e-70
-1.27498e-64
-1.153e-68
-3.77364e-63
-3.64441e-67
-1.01968e-61
-1.05121e-65
-2.53662e-60
-2.79207e-64
-5.8565e-59
-6.88464e-63
-1.26377e-57
-1.58719e-61
-2.56455e-56
-3.44257e-60
-4.91288e-55
-7.07115e-59
-9.99332e-54
-1.42333e-57
-2.12403e-52
-2.68654e-56
-4.90213e-51
-4.81209e-55
-8.05256e-50
-8.47054e-54
-5.85065e-49
-1.24793e-52
-1.92231e-48
-1.0162e-51
-3.5993e-48
-3.86137e-51
-4.62267e-48
-7.79696e-51
-4.64129e-48
-1.01445e-50
-3.28279e-48
-9.97263e-51
-1.10528e-48
-7.9821e-51
-2.57618e-49
-3.19549e-51
-5.18944e-50
-7.73443e-52
-4.08951e-50
-1.66442e-52
-8.03456e-50
-6.97721e-53
-6.47951e-49
-1.69771e-52
-4.512e-48
-7.88972e-52
-2.90201e-47
3.2269e-51
-1.96364e-46
1.40905e-49
-1.44945e-45
2.19884e-48
-1.0998e-44
2.7491e-47
-7.89986e-44
2.90805e-46
-5.06602e-43
2.58084e-45
-2.83046e-42
1.91031e-44
-1.41814e-41
1.18971e-43
-6.01606e-41
6.34431e-43
-2.10069e-40
2.75526e-42
9.75659e-42
-1.15285e-85
-1.74854e-90
-3.92485e-83
-6.31626e-88
-6.45881e-81
-1.10572e-85
-6.98256e-79
-1.27416e-83
-5.60498e-77
-1.09169e-81
-3.57453e-75
-7.43845e-80
-1.89094e-73
-4.20716e-78
-8.5506e-72
-2.03511e-76
-3.37951e-70
-8.60824e-75
-1.18679e-68
-3.23644e-73
-3.76319e-67
-1.09915e-71
-1.08885e-65
-3.40736e-70
-2.90099e-64
-9.72936e-69
-7.17486e-63
-2.57992e-67
-1.65898e-61
-6.39826e-66
-3.60855e-60
-1.49337e-64
-7.43446e-59
-3.30047e-63
-1.54839e-57
-7.06828e-62
-3.20105e-56
-1.44373e-60
-6.80394e-55
-2.73836e-59
-1.60027e-53
-4.9035e-58
-2.70465e-52
-8.61008e-57
-1.9753e-51
-1.43005e-55
-6.34457e-51
-1.5691e-54
-1.14149e-50
-8.05188e-54
-1.40928e-50
-1.98297e-53
-1.4008e-50
-2.85549e-53
-8.95103e-51
-2.90379e-53
-2.89207e-51
-2.41061e-53
-6.96577e-52
-1.01968e-53
-2.92519e-52
-2.29397e-54
-3.46896e-52
-6.15415e-55
-2.25518e-51
-6.97209e-55
-2.14861e-50
-4.82217e-54
-1.88589e-49
-1.27366e-53
-1.71556e-48
5.71438e-52
-1.5972e-47
1.51213e-50
-1.44546e-46
2.63889e-49
-1.18857e-45
3.24056e-48
-8.47739e-45
3.31451e-47
-5.15667e-44
2.75551e-46
-2.77689e-43
1.88427e-45
-1.25083e-42
1.08678e-44
-4.58428e-42
5.03319e-44
1.87857e-43
-1.74853e-90
-3.14259e-95
-6.33327e-88
-1.21285e-92
-1.11201e-85
-2.27256e-90
-1.28521e-83
-2.80675e-88
-1.10448e-81
-2.58091e-86
-7.54845e-80
-1.88936e-84
-4.28242e-78
-1.1491e-82
-2.07784e-76
-5.98143e-81
-8.81573e-75
-2.72427e-79
-3.32457e-73
-1.10351e-77
-1.13244e-71
-4.03986e-76
-3.52066e-70
-1.35027e-74
-1.00816e-68
-4.15883e-73
-2.6808e-67
-1.19002e-71
-6.66654e-66
-3.18601e-70
-1.56009e-64
-8.03073e-69
-3.45641e-63
-1.91686e-67
-7.53582e-62
-4.39134e-66
-1.66328e-60
-9.78111e-65
-3.42016e-59
-2.02451e-63
-6.94358e-58
-3.91373e-62
-1.58297e-56
-7.16168e-61
-3.41026e-55
-1.28139e-59
-3.67448e-54
-2.18087e-58
-1.58392e-53
-2.57546e-57
-3.3505e-53
-1.48145e-56
-4.45155e-53
-4.08184e-56
-4.44621e-53
-6.42381e-56
-3.12203e-53
-6.94423e-56
-9.41992e-54
-6.01627e-56
-2.20376e-54
-3.09383e-56
-2.20825e-54
-8.49348e-57
-6.5328e-54
-4.34269e-57
-8.40804e-53
-2.26154e-56
-9.92108e-52
-1.60813e-55
-1.18968e-50
9.16417e-55
-1.43962e-49
8.191e-53
-1.6576e-48
2.12725e-51
-1.50612e-47
3.25542e-50
-1.20775e-46
3.58498e-49
-8.10787e-46
3.40629e-48
-4.74634e-45
2.59524e-47
-2.29252e-44
1.63819e-46
-8.89507e-44
8.17166e-46
3.24269e-45
-3.13619e-95
-4.99874e-100
-1.21485e-92
-2.07892e-97
-2.28305e-90
-4.18034e-95
-2.82792e-88
-5.54581e-93
-2.60792e-86
-5.48412e-91
-1.9147e-84
-4.32208e-89
-1.16789e-82
-2.83274e-87
-6.09682e-81
-1.59051e-85
-2.78489e-79
-7.8207e-84
-1.1319e-77
-3.42511e-82
-4.15313e-76
-1.35513e-80
-1.39183e-74
-4.89848e-79
-4.29812e-73
-1.63262e-77
-1.23304e-71
-5.05791e-76
-3.30943e-70
-1.46682e-74
-8.362e-69
-4.00675e-73
-2.00002e-67
-1.03664e-71
-4.56234e-66
-2.55486e-70
-1.09917e-64
-6.17692e-69
-2.46052e-63
-1.40449e-67
-5.15429e-62
-2.99237e-66
-1.06359e-60
-5.98839e-65
-2.42585e-59