/*--------------------------------*- C++ -*----------------------------------*\
  =========                 |
  \\      /  F ield         | OpenFOAM: The Open Source CFD Toolbox
   \\    /   O peration     | Website:  https://openfoam.org
    \\  /    A nd           | Version:  9
     \\/     M anipulation  |
\*---------------------------------------------------------------------------*/
FoamFile
{
    format      ascii;
    class       volScalarField;
    location    "0.25";
    object      alpha.water;
}
// * * * * * * * * * * * * * * * * * * * * * * * * * * * * * * * * * * * * * //

dimensions      [0 0 0 0 0 0 0];

internalField   nonuniform List<scalar> 
1915
(
2.70975e-11
7.40109e-11
1.52355e-10
2.52827e-10
2.7638e-10
1.05526e-10
2.53676e-11
2.41382e-11
2.45323e-11
1.54714e-11
9.11142e-12
7.1721e-12
5.23453e-12
3.58712e-12
2.39496e-12
1.62146e-12
1.11196e-12
8.40542e-13
7.51497e-13
8.35269e-13
1.52159e-12
3.92313e-12
8.83275e-12
2.5215e-11
1.16301e-10
-1.53089e-18
-4.47813e-17
-6.13331e-16
-5.57608e-15
-3.75588e-14
-1.8127e-13
-6.70162e-13
-1.53861e-12
-1.35554e-12
-1.81311e-12
-4.74011e-12
-8.46557e-12
-8.19469e-12
-8.29654e-12
-9.63614e-12
-7.83376e-12
-1.03391e-12
5.51083e-12
4.4466e-12
3.99083e-12
1.4193e-11
3.81605e-11
5.30258e-11
5.52453e-11
4.202e-11
1.45975e-11
8.21226e-12
8.21447e-12
6.97213e-12
3.36338e-12
2.14672e-12
1.61953e-12
1.08493e-12
7.02565e-13
4.61645e-13
3.07924e-13
2.11111e-13
1.62677e-13
1.48109e-13
1.68821e-13
3.07905e-13
7.88157e-13
2.19959e-12
6.75155e-12
2.38768e-11
-1.67726e-18
-4.50187e-17
-5.85563e-16
-4.94356e-15
-2.96275e-14
-1.27405e-13
-3.83213e-13
-6.94147e-13
-6.26852e-13
-8.53667e-13
-1.60528e-12
-2.33214e-12
-2.7106e-12
-3.35745e-12
-3.56566e-12
-1.87409e-12
1.38421e-12
3.06767e-12
1.73014e-12
1.44101e-12
3.29227e-12
6.07718e-12
7.03404e-12
5.23398e-12
3.32042e-12
2.87936e-12
2.57926e-12
1.85545e-12
1.06997e-12
5.81344e-13
3.82913e-13
2.69179e-13
1.68636e-13
1.08452e-13
7.2253e-14
4.87648e-14
3.43126e-14
2.75701e-14
2.57567e-14
3.0921e-14
5.8809e-14
1.58091e-13
5.08144e-13
2.14358e-12
1.14354e-11
-1.419e-18
-3.56422e-17
-4.37898e-16
-3.4164e-15
-1.83951e-14
-6.91028e-14
-1.73778e-13
-2.6513e-13
-2.45342e-13
-3.15379e-13
-4.82504e-13
-6.63992e-13
-8.94147e-13
-1.11508e-12
-9.22154e-13
-6.64256e-15
1.09661e-12
9.76654e-13
5.71928e-13
3.67378e-13
4.13889e-13
8.09113e-13
1.136e-12
1.27708e-12
1.15249e-12
9.75131e-13
6.39832e-13
3.0171e-13
1.34051e-13
7.37856e-14
5.02905e-14
3.29618e-14
2.0521e-14
1.37941e-14
9.54051e-15
6.66721e-15
4.89797e-15
4.14175e-15
4.01064e-15
5.11172e-15
1.02127e-14
2.88036e-14
9.98965e-14
4.50963e-13
2.52798e-12
-9.01906e-19
-2.13995e-17
-2.46953e-16
-1.77469e-15
-8.59801e-15
-2.83814e-14
-6.16991e-14
-8.37202e-14
-7.92214e-14
-9.75426e-14
-1.36166e-13
-1.85844e-13
-2.46294e-13
-2.58355e-13
-1.09878e-13
2.00058e-13
2.96333e-13
2.90031e-13
1.89121e-13
8.88984e-14
7.89909e-14
1.51098e-13
2.67102e-13
3.5412e-13
3.84781e-13
2.64688e-13
1.25423e-13
4.19812e-14
1.36976e-14
6.9821e-15
4.80743e-15
3.10555e-15
2.07937e-15
1.50878e-15
1.09789e-15
8.05638e-16
6.24451e-16
5.55819e-16
5.64146e-16
7.72169e-16
1.64468e-15
4.91139e-15
1.80131e-14
7.99706e-14
3.89971e-13
-4.08762e-19
-9.17718e-18
-9.92353e-17
-6.57244e-16
-2.88386e-15
-8.50109e-15
-1.6488e-14
-2.075e-14
-2.01574e-14
-2.39903e-14
-3.0835e-14
-3.87846e-14
-4.39316e-14
-3.01585e-14
1.43787e-14
6.08635e-14
7.4634e-14
8.18826e-14
5.70473e-14
2.18346e-14
1.54484e-14
2.32061e-14
4.56106e-14
6.36569e-14
7.06268e-14
5.06856e-14
1.61238e-14
4.26462e-15
1.11771e-15
5.0425e-16
3.47975e-16
2.4419e-16
1.85346e-16
1.45991e-16
1.12372e-16
8.7111e-17
7.18033e-17
6.6967e-17
7.22151e-17
1.0763e-16
2.47932e-16
7.87031e-16
2.99496e-15
1.29132e-14
5.72864e-14
-1.18446e-19
-2.51702e-18
-2.55247e-17
-1.56554e-16
-6.28964e-16
-1.68745e-15
-3.00414e-15
-3.62856e-15
-3.64956e-15
-4.20671e-15
-4.77384e-15
-4.77581e-15
-3.49106e-15
1.63071e-16
5.77883e-15
1.0784e-14
1.63444e-14
1.83014e-14
1.32935e-14
4.46313e-15
2.36684e-15
2.76417e-15
5.1059e-15
6.52109e-15
6.66676e-15
3.23099e-15
9.18844e-16
2.21718e-16
5.44271e-17
2.79841e-17
2.13292e-17
1.73162e-17
1.49911e-17
1.26835e-17
1.03425e-17
8.48325e-18
7.47816e-18
7.28504e-18
8.46882e-18
1.38969e-17
3.48844e-17
1.1709e-16
4.54352e-16
1.88819e-15
7.76351e-15
-1.65934e-20
-3.34336e-19
-3.19206e-18
-1.82703e-17
-6.80429e-17
-1.69076e-16
-2.82237e-16
-3.31817e-16
-3.34855e-16
-3.51643e-16
-3.11803e-16
-1.79238e-16
-1.00156e-23
1.36949e-16
5.83796e-16
1.65595e-15
2.7085e-15
3.07038e-15
2.36704e-15
7.5515e-16
2.40155e-16
1.7566e-16
2.09734e-16
2.40734e-16
1.84967e-16
6.16247e-17
1.62535e-17
3.35473e-18
1.39208e-18
1.33166e-18
1.26978e-18
1.14092e-18
1.11502e-18
9.96874e-19
8.61274e-19
7.50337e-19
7.00057e-19
7.22061e-19
9.13814e-19
1.6635e-18
4.54865e-18
1.59786e-17
6.24095e-17
2.49264e-16
9.57734e-16
1.1103e-54
-3.94506e-41
-2.74529e-40
-2.59438e-38
-1.79727e-36
-9.53708e-35
-4.10228e-33
-1.48432e-31
-4.69298e-30
-1.76149e-28
-2.42843e-26
-3.50366e-24
9.4024e-21
3.34373e-18
5.1121e-17
1.77482e-16
2.93483e-16
3.36884e-16
2.7963e-16
9.53112e-17
2.38266e-17
7.23343e-18
3.76935e-18
2.58384e-18
1.38543e-18
4.37544e-19
9.89633e-20
3.90121e-20
4.0926e-20
6.11525e-20
6.66763e-20
7.22599e-20
7.52498e-20
7.08828e-20
6.50953e-20
6.02603e-20
5.9103e-20
6.54227e-20
9.08888e-20
1.84302e-19
5.45471e-19
1.98259e-18
7.72684e-18
2.96755e-17
1.07283e-16
1.38787e-55
7.61406e-40
1.79957e-37
1.74935e-35
1.15381e-33
5.81931e-32
2.38892e-30
8.29341e-29
2.4971e-27
6.52356e-26
9.18351e-25
1.61507e-23
-3.47738e-22
2.42691e-19
2.88195e-18
9.32765e-18
1.55936e-17
1.81655e-17
1.61455e-17
6.09858e-18
1.6708e-18
4.51383e-19
1.22902e-19
4.17786e-20
1.71459e-20
5.82304e-21
1.81347e-21
1.3172e-21
2.0332e-21
2.90431e-21
3.55314e-21
4.26568e-21
4.57481e-21
4.57679e-21
4.46066e-21
4.36318e-21
4.53943e-21
5.42568e-21
8.33511e-21
1.88282e-20
5.97326e-20
2.2233e-19
8.60159e-19
3.1845e-18
1.09034e-17
-2.55891e-39
-2.89497e-41
5.77137e-39
5.74794e-37
3.7741e-35
1.88419e-33
7.63667e-32
2.59666e-30
6.48139e-29
-7.63142e-27
-2.15143e-25
-4.03167e-24
6.28095e-22
9.9092e-21
3.01606e-20
4.7114e-20
5.22559e-20
3.93472e-20
1.61697e-20
9.04744e-21
7.188e-21
5.11089e-21
2.56918e-21
1.10832e-21
4.10787e-22
1.27901e-22
6.07737e-23
5.8562e-23
9.57959e-23
1.38021e-22
1.81732e-22
2.25628e-22
2.5229e-22
2.67441e-22
2.75439e-22
2.85488e-22
3.17194e-22
4.11732e-22
7.03871e-22
1.76435e-21
5.93434e-21
2.24379e-20
8.59676e-20
3.07885e-19
1.00454e-18
-4.25967e-40
-2.10747e-40
-2.0741e-38
-1.38393e-36
-6.99484e-35
-2.8522e-33
-9.75468e-32
-2.87012e-30
-7.28746e-29
-4.38749e-28
2.5255e-28
3.55875e-27
7.39575e-23
1.22891e-21
4.61163e-21
7.8551e-21
8.99682e-21
7.04493e-21
2.15301e-21
5.53287e-22
2.76674e-22
1.9867e-22
1.31991e-22
6.54201e-23
2.33273e-23
6.56178e-24
2.65306e-24
2.35027e-24
3.65449e-24
5.84948e-24
8.18661e-24
1.05686e-23
1.25125e-23
1.4049e-23
1.52972e-23
1.68641e-23
2.01106e-23
2.85526e-23
5.45518e-23
1.50711e-22
5.31789e-22
2.03138e-21
7.70556e-21
2.68062e-20
8.38373e-20
-1.65441e-53
4.00132e-45
2.34024e-42
1.72776e-40
8.24728e-39
3.16621e-37
1.01858e-35
2.8345e-34
6.95995e-33
1.5286e-31
1.83647e-30
1.43712e-28
6.73595e-26
1.38626e-24
6.0896e-24
1.25002e-23
1.72147e-23
1.90557e-23
1.88419e-23
1.38971e-23
1.08596e-23
8.13275e-24
5.22687e-24
2.47928e-24
8.60016e-25
2.44774e-25
9.23674e-26
7.5671e-26
1.14989e-25
2.10496e-25
3.17673e-25
4.36559e-25
5.52406e-25
6.58633e-25
7.61605e-25
8.96832e-25
1.1547e-24
1.80476e-24
3.86118e-24
1.16544e-23
4.27702e-23
1.64561e-22
6.18876e-22
2.10075e-21
6.3342e-21
2.94721e-48
-2.77397e-47
2.25496e-44
2.1788e-42
1.39567e-40
6.40721e-39
2.10501e-37
5.99595e-36
1.51197e-34
-1.05095e-33
-4.43993e-32
2.38041e-30
2.21258e-28
1.83979e-26
1.65414e-25
5.31105e-25
9.48769e-25
1.19776e-24
1.25213e-24
8.68239e-25
4.85007e-25
3.20415e-25
1.93796e-25
8.8566e-26
2.94292e-26
7.54873e-27
2.41556e-27
1.87084e-27
3.11078e-27
6.43926e-27
1.06471e-26
1.58506e-26
2.15351e-26
2.74251e-26
3.3846e-26
4.27414e-26
5.98477e-26
1.03588e-25
2.47998e-25
8.10282e-25
3.07413e-24
1.19037e-23
4.45016e-23
1.48111e-22
4.33021e-22
-5.60893e-49
-4.18005e-47
-3.27699e-45
-1.85541e-43
-8.17e-42
-2.89983e-40
-8.79805e-39
-2.27726e-37
-5.02064e-36
-6.30035e-36
1.06989e-33
3.17542e-32
4.93734e-30
5.34036e-28
5.33308e-27
1.83594e-26
3.44609e-26
4.52907e-26
4.87297e-26
3.88942e-26
2.2127e-26
1.435e-26
8.96611e-27
4.37563e-27
1.54858e-27
4.01898e-28
9.64224e-29
5.19186e-29
6.60015e-29
1.63633e-28
3.09224e-28
5.00523e-28
7.36042e-28
1.00837e-27
1.33516e-27
1.81839e-27
2.78627e-27
5.37187e-27
1.43457e-26
5.03297e-26
1.96735e-25
7.67454e-25
2.8626e-24
9.38955e-24
2.67705e-23
1.37951e-52
2.83923e-50
2.87528e-48
1.97119e-46
1.00784e-44
4.14002e-43
1.42482e-41
4.22864e-40
1.10511e-38
2.58482e-37
4.83689e-36
1.66641e-34
2.58815e-32
5.67664e-30
8.281e-29
3.65024e-28
8.15499e-28
1.206e-27
1.37356e-27
1.35304e-27
8.40633e-28
5.03546e-28
3.04857e-28
1.51225e-28
5.51743e-29
1.45448e-29
3.08594e-30
1.18888e-30
1.21644e-30
3.4212e-30
7.6036e-30
1.35938e-29
2.18784e-29
3.24919e-29
4.6445e-29
6.86943e-29
1.15893e-28
2.49954e-28
7.41461e-28
2.77681e-27
1.11738e-26
4.40237e-26
1.64578e-25
5.34915e-25
1.49591e-24
3.22944e-55
5.9019e-54
5.39015e-51
3.58402e-49
1.81522e-47
7.56124e-46
2.70123e-44
8.39303e-43
2.34501e-41
-3.86938e-40
1.16958e-39
6.81821e-37
2.24128e-35
1.17894e-32
5.85781e-31
5.00555e-30
1.69351e-29
3.24876e-29
4.36804e-29
4.7562e-29
3.91042e-29
1.83867e-29
8.57523e-30
3.978e-30
1.53038e-30
4.44228e-31
9.89944e-32
2.83606e-32
2.22067e-32
5.55224e-32
1.54064e-31
3.13313e-31
5.59092e-31
9.08862e-31
1.41443e-30
2.28892e-30
4.2778e-30
1.03506e-29
3.39701e-29
1.35366e-28
5.61533e-28
2.24305e-27
8.44869e-27
2.73664e-26
7.55104e-26
-1.85201e-56
-1.75593e-54
-1.51516e-52
-9.28019e-51
-4.30437e-49
-1.59085e-47
-4.94272e-46
-1.28945e-44
-2.80063e-43
-1.52832e-43
2.85551e-41
1.00531e-39
1.84282e-38
7.00499e-36
1.94927e-33
3.29762e-32
1.71564e-31
4.32291e-31
6.92404e-31
8.30644e-31
8.49561e-31
5.25892e-31
2.28013e-31
9.89284e-32
3.8375e-32
1.17406e-32
2.71492e-33
6.22631e-34
3.63395e-34
6.96791e-34
2.49274e-33
6.01154e-33
1.21188e-32
2.18354e-32
3.73801e-32
6.67132e-32
1.3898e-31
3.78015e-31
1.36883e-30
5.80203e-30
2.4897e-29
1.0133e-28
3.86855e-28
1.25638e-27
3.4412e-27
1.83468e-61
4.48472e-59
5.2948e-57
4.21508e-55
2.4737e-53
1.15838e-51
4.52157e-50
1.51628e-48
4.4658e-47
1.17554e-45
4.42801e-44
1.09896e-42
2.10331e-41
1.0045e-39
8.92184e-37
5.53759e-35
6.36592e-34
2.77977e-33
6.46293e-33
9.97021e-33
1.1687e-32
1.17529e-32
6.65591e-33
2.48936e-33
8.74579e-34
2.69939e-34
6.73829e-35
1.47302e-35
6.10751e-36
7.02339e-36
3.03591e-35
9.3799e-35
2.1905e-34
4.44722e-34
8.48081e-34
1.68445e-33
3.9362e-33
1.20556e-32
4.81387e-32
2.17607e-31
9.71054e-31
4.05108e-30
1.5781e-29
5.17185e-29
1.41497e-28
3.79504e-65
-1.9498e-62
-1.96356e-61
-3.22015e-59
-2.61902e-57
-1.34427e-55
-4.88761e-54
-1.34075e-52
-2.19039e-51
-4.14413e-49
1.53803e-47
4.22514e-46
9.07223e-45
1.69426e-43
5.45704e-41
3.33235e-38
1.16129e-36
1.09541e-35
4.21167e-35
8.88377e-35
1.26744e-34
1.41468e-34
1.29246e-34
6.00755e-35
2.04982e-35
6.41162e-36
1.75137e-36
4.04193e-37
1.10012e-37
7.69405e-38
2.63302e-37
1.14243e-36
3.22552e-36
7.5597e-36
1.63118e-35
3.64305e-35
9.60843e-35
3.32114e-34
1.4659e-33
7.10639e-33
3.32134e-32
1.43034e-31
5.7278e-31
1.90724e-30
5.24604e-30
-8.12916e-67
-9.39634e-65
-9.37623e-63
-6.55932e-61
-3.42391e-59
-1.41108e-57
-4.81835e-56
-1.35617e-54
-3.08144e-53
7.14691e-53
8.85287e-51
2.31671e-49
5.24809e-48
1.10384e-46
2.05594e-45
4.95509e-43
2.65188e-40
8.84331e-39
9.28125e-38
3.91277e-37
8.70573e-37
1.2735e-36
1.43323e-36
1.33603e-36
6.15711e-37
1.83346e-37
4.62847e-38
1.00623e-38
2.21409e-39
1.06827e-39
1.70258e-39
1.01166e-38
3.75841e-38
1.052e-37
2.6197e-37
6.65923e-37
1.99434e-36
7.80777e-36
3.83236e-35
2.00996e-34
9.92827e-34
4.4499e-33
1.84704e-32
6.29478e-32
1.75253e-31
6.2764e-73
1.86354e-70
2.44171e-68
2.4544e-66
1.68435e-64
9.18164e-63
4.18936e-61
1.65309e-59
5.77119e-58
1.82353e-56
8.52529e-55
2.53497e-53
6.08599e-52
1.36166e-50
2.69538e-49
7.24031e-47
7.81575e-44
5.02171e-42
1.00782e-40
7.28377e-40
2.37534e-39
4.50043e-39
6.00235e-39
6.51091e-39
5.37465e-39
2.29286e-39
7.69284e-40
2.28201e-40
5.62767e-41
1.59878e-41
1.14519e-41
6.05703e-41
3.31865e-40
1.16778e-39
3.45076e-39
1.01251e-38
3.46249e-38
1.54393e-37
8.51624e-37
4.89345e-36
2.58359e-35
1.21666e-34
5.2833e-34
1.85745e-33
5.2716e-33
3.24081e-77
-4.76306e-74
-2.04967e-72
-2.62323e-70
-2.17794e-68
-1.24721e-66
-5.34457e-65
-1.77299e-63
-4.05534e-62
-2.88954e-61
8.86806e-59
2.72069e-57
6.96497e-56
1.66245e-54
3.52474e-53
1.00229e-51
1.08908e-48
2.11711e-46
1.09877e-44
2.81826e-43
2.74517e-42
1.11381e-41
2.39216e-41
3.38665e-41
3.74631e-41
3.30166e-41
1.41482e-41
4.03569e-42
9.5643e-43
2.24346e-43
1.13323e-43
2.52789e-43
2.07934e-42
9.99275e-42
3.65161e-41
1.25653e-40
4.92509e-40
2.52003e-39
1.58837e-38
1.01778e-37
5.82564e-37
2.91457e-36
1.3381e-35
4.89462e-35
1.42669e-34
-2.70046e-79
-3.77282e-77
-4.47829e-75
-3.72425e-73
-2.29712e-71
-1.11804e-69
-4.47132e-68
-1.46038e-66
-3.79095e-65
6.37189e-65
9.82865e-63
3.07252e-61
8.42529e-60
2.15407e-58
5.13363e-57
1.12181e-55
2.85778e-53
1.70233e-50
7.90359e-49
3.1874e-47
7.8397e-46
8.03217e-45
3.51787e-44
8.14828e-44
1.2289e-43
1.40523e-43
1.37184e-43
7.039e-44
2.09329e-44
4.8821e-45
1.40725e-45
1.06345e-45
8.58298e-45
6.33749e-44
3.03364e-43
1.24643e-42
5.58096e-42
3.30236e-41
2.44246e-40
1.79065e-39
1.13168e-38
6.09518e-38
2.99456e-37
1.15039e-36
3.47125e-36
2.7726e-86
9.95078e-84
1.51378e-81
1.88565e-79
1.55316e-77
1.01789e-75
5.6404e-74
2.72901e-72
1.18077e-70
4.67954e-69
2.75105e-67
1.00373e-65
2.94804e-64
8.08772e-63
2.089e-61
4.86015e-60
2.4038e-57
1.92577e-54
8.49473e-53
2.99831e-51
1.11108e-49
2.74321e-48
2.83939e-47
1.23217e-46
2.78125e-46
4.06492e-46
4.55723e-46
4.2541e-46
2.00879e-46
5.96884e-47
1.64668e-47
8.46926e-48
2.39807e-47
2.84175e-46
1.95007e-45
9.72159e-45
4.83615e-44
3.30902e-43
3.00828e-42
2.62764e-41
1.87971e-40
1.10777e-39
5.90751e-39
2.40822e-38
7.58667e-38
5.19342e-91
-1.19542e-87
-7.26533e-86
-1.09172e-83
-1.07887e-81
-7.31926e-80
-3.71229e-78
-1.41772e-76
-3.40625e-75
1.04069e-74
1.16034e-71
4.27479e-70
1.35584e-68
4.01398e-67
1.11767e-65
2.81016e-64
5.60823e-62
6.16182e-59
3.5936e-57
1.13741e-55
3.18657e-54
1.02359e-52
3.12097e-51
4.78022e-50
2.89718e-49
8.07298e-49
1.31589e-48
1.53637e-48
1.50759e-48
7.62625e-49
2.14231e-49
7.41716e-50
6.84506e-50
8.89267e-49
9.80559e-48
6.05157e-47
3.08007e-46
2.85997e-45
2.96732e-44
3.12502e-43
2.6418e-42
1.73953e-41
1.02442e-40
4.48333e-40
1.48813e-39
-1.67061e-93
-2.78187e-91
-3.96324e-89
-3.97686e-87
-2.95912e-85
-1.74292e-83
-8.38922e-82
-3.26996e-80
-9.94142e-79
-1.42541e-79
4.21359e-76
1.62876e-74
5.58878e-73
1.79022e-71
5.39329e-70
1.47227e-68
1.05962e-66
1.8397e-63
2.02827e-61
7.61211e-60
2.17252e-58
5.75438e-57
1.73106e-55
5.21422e-54
8.71903e-53
6.01497e-52
1.89442e-51
3.40382e-51
4.26477e-51
4.4133e-51
2.76963e-51
9.59279e-52
4.75023e-52
2.19716e-51
3.72418e-50
3.49631e-49
1.83647e-48
2.29455e-47
2.82301e-46
3.00556e-45
3.07584e-44
2.34155e-43
1.55621e-42
7.40967e-42
2.61733e-41
5.90374e-101
2.61124e-98
5.04854e-96
7.68329e-94
7.95518e-92
6.58649e-90
4.62389e-88
2.83253e-86
1.55051e-84
7.74086e-83
5.7574e-81
2.5035e-79
9.29779e-78
3.22893e-76
1.05644e-74
3.27539e-73
9.31338e-72
7.69904e-69
8.46964e-66
4.19909e-64
1.40911e-62
3.90988e-61
1.02008e-59
3.05544e-58
1.00056e-56
1.92989e-55
1.491e-54
4.99204e-54
9.16483e-54
1.14654e-53
1.17399e-53
7.26043e-54
3.52156e-54
6.22256e-54
1.22318e-52
2.00546e-51
1.14e-50
1.4997e-49
2.18072e-48
2.7667e-47
2.86487e-46
2.66818e-45
2.06204e-44
1.08495e-43
4.12336e-43
4.60397e-106
-1.33349e-102
-9.98493e-101
-1.83851e-98
-2.21935e-96
-1.79912e-94
-1.07149e-92
-4.46106e-91
-7.4121e-90
6.67099e-88
1.05175e-85
4.80063e-84
1.94394e-82
7.35821e-81
2.62254e-79
8.85707e-78
2.74323e-76
5.30146e-74
1.02384e-70
8.82418e-69
3.6555e-67
1.1947e-65
3.3599e-64
8.67489e-63
2.41392e-61
8.39443e-60
2.29912e-58
2.62689e-57
1.15865e-56
2.46136e-56
3.25863e-56
3.37344e-56
2.55878e-56
2.56069e-56
3.78592e-55
8.03036e-54
9.1676e-53
8.30978e-52
1.34311e-50
2.0977e-49
2.49088e-48
2.48692e-47
2.36982e-46
1.40408e-45
5.81222e-45
-5.77172e-109
-1.17647e-106
-2.05265e-104
-2.52976e-102
-2.30858e-100
-1.67224e-98
-9.83767e-97
-4.63095e-95
-1.66313e-93
-9.3177e-93
1.6393e-90
7.96419e-89
3.52519e-87
1.45937e-85
5.69067e-84
2.10316e-82
7.38551e-81
2.43535e-79
1.79012e-76
2.12779e-73
1.17466e-71
4.56398e-70
1.49127e-68
4.30621e-67
1.14791e-65
3.21263e-64
1.11996e-62
3.49177e-61
4.90911e-60
2.58642e-59
6.13931e-59
8.72777e-59
9.75924e-59
1.21829e-58
1.11488e-57
2.91317e-56
6.48656e-55
4.36897e-54
6.57596e-53
1.27501e-51
1.87932e-50
2.01899e-49
2.32837e-48
1.6014e-47
7.32142e-47
1.24153e-116
6.89621e-114
1.77167e-111
3.32375e-109
4.44691e-107
4.78043e-105
4.3486e-103
3.44042e-101
2.42242e-99
1.55567e-97
1.50303e-95
8.0079e-94
3.88884e-92
1.76838e-90
7.58204e-89
3.08365e-87
1.19595e-85
4.30009e-84
7.24306e-82
2.23067e-78
2.78248e-76
1.39142e-74
5.44262e-73
1.85117e-71
5.66139e-70
1.60429e-68
4.7127e-67
1.75431e-65
6.42131e-64
1.07272e-62
6.28592e-62
1.58357e-61
2.47382e-61
3.86777e-61
3.20498e-60
8.69733e-59
2.3154e-57
2.77355e-56
2.70299e-55
6.02235e-54
1.15928e-52
1.52609e-51
1.92368e-50
1.60383e-49
8.2307e-49
5.54121e-122
-1.3332e-118
-9.52051e-117
-2.28457e-114
-3.42197e-112
-3.09474e-110
-1.74608e-108
-1.16496e-107
1.11306e-104
1.33656e-102
1.64455e-100
9.55768e-99
5.1307e-97
2.58031e-95
1.22384e-93
5.5062e-92
2.36211e-90
9.70706e-89
3.72164e-87
1.17785e-84
2.82407e-81
2.39116e-79
1.1842e-77
4.81589e-76
1.73928e-74
5.7256e-73
1.74612e-71
5.37487e-70
2.10805e-68
9.44326e-67
1.99461e-65
1.3861e-64
4.18207e-64
9.48622e-64
7.70605e-63
2.12608e-61
7.27845e-60
1.89468e-58
1.1343e-57
2.12385e-56
5.66056e-55
9.57249e-54
1.31582e-52
1.40374e-51
8.24539e-51
-2.71809e-125
-6.82661e-123
-1.46879e-120
-2.24423e-118
-2.53268e-116
-2.27091e-114
-1.63088e-112
-9.03143e-111
-3.10415e-109
1.12937e-107
1.42608e-105
9.15669e-104
5.47067e-102
3.0653e-100
1.62101e-98
8.1357e-97
3.89448e-95
1.78608e-93
7.87958e-92
3.26435e-90
1.61376e-87
3.87911e-84
2.98437e-82
1.52993e-80
6.60239e-79
2.55818e-77
9.09967e-76
3.01454e-74
1.01269e-72
4.33953e-71
2.02998e-69
4.42902e-68
3.52455e-67
1.59037e-66
1.60298e-65
4.81884e-64
1.82311e-62
5.65022e-61
5.94178e-60
5.47044e-59
2.0497e-57
4.8617e-56
8.15141e-55
1.05842e-53
7.34856e-53
2.93561e-132
2.09492e-129
7.31712e-127
1.71835e-124
3.03782e-122
4.35124e-120
5.27687e-118
5.57827e-116
5.42684e-114
6.18233e-112
4.86032e-110
3.50636e-108
2.35741e-106
1.48728e-104
8.8578e-103
5.00652e-101
2.69836e-99
1.3929e-97
6.91455e-96
3.31337e-94
1.49915e-92
1.74961e-90
3.3193e-87
2.81609e-85
1.58949e-83
7.58345e-82
3.26715e-80
1.30176e-78
4.8617e-77
1.81735e-75
8.02246e-74
3.7946e-72
1.02618e-70
1.46123e-69
2.60786e-68
8.58283e-67
3.37567e-65
1.70025e-63
4.2385e-62
1.35217e-61
4.56139e-60
1.90417e-58
4.58811e-57
6.80839e-56
5.81557e-55
5.18488e-137
2.18657e-134
1.34492e-131
3.37916e-129
6.60849e-127
1.09101e-124
1.54464e-122
2.06056e-120
2.81627e-118
2.75998e-116
2.44355e-114
2.00461e-112
1.53527e-110
1.10467e-108
7.50907e-107
4.84614e-105
2.98285e-103
1.75838e-101
9.96662e-100
5.45191e-98
2.88833e-96
1.45519e-94
7.97618e-93
4.29921e-90
6.46755e-88
4.51623e-86
2.55422e-84
1.29609e-82
6.133e-81
2.76226e-79
1.21783e-77
5.5103e-76
2.51014e-74
9.81195e-73
3.4942e-71
1.38342e-69
6.26251e-68
3.88973e-66
1.15277e-64
6.87226e-64
4.01708e-63
4.91698e-61
2.14505e-59
3.68133e-58
4.07776e-57
-9.21117e-141
-2.60141e-138
-5.91165e-136
-9.03566e-134
-7.24419e-132
2.81859e-130
2.67832e-127
5.89185e-125
7.23579e-123
8.02142e-121
8.19791e-119
7.78544e-117
6.91543e-115
5.77768e-113
4.56313e-111
3.42244e-109
2.44805e-107
1.67672e-105
1.10383e-103
7.01002e-102
4.30941e-100
2.573e-98
1.4954e-96
8.34286e-95
6.43123e-93
4.90301e-90
4.62785e-88
3.18197e-86
1.91559e-84
1.06945e-82
5.68754e-81
2.93011e-79
1.48212e-77
7.39542e-76
3.6061e-74
1.73624e-72
8.70094e-71
4.85574e-69
2.56902e-67
4.90731e-66
1.09044e-65
4.54092e-64
8.01103e-62
1.78766e-60
2.51323e-59
2.71435e-147
2.62412e-144
1.16379e-141
3.48841e-139
8.19512e-137
1.75995e-134
3.78142e-132
5.9004e-130
8.37565e-128
1.09323e-125
1.32201e-123
1.49012e-121
1.5738e-119
1.56482e-117
1.47124e-115
1.31347e-113
1.11791e-111
9.10588e-110
7.12473e-108
5.37401e-106
3.92105e-104
2.77662e-102
1.91434e-100
1.28893e-98
8.35599e-97
5.8056e-95
3.57551e-92
5.96162e-90
5.22364e-88
3.79582e-86
2.51171e-84
1.57109e-82
9.47406e-81
5.57594e-79
3.22885e-77
1.84895e-75
1.05292e-73
6.23255e-72
6.39612e-70
2.07427e-68
2.55075e-68
1.40579e-66
2.15209e-64
8.14566e-63
1.35547e-61
3.02897e-151
4.8388e-150
1.92699e-147
6.04095e-145
1.56786e-142
4.8082e-140
1.00396e-137
1.8635e-135
3.19503e-133
5.0847e-131
7.53954e-129
1.04531e-126
1.35994e-124
1.66632e-122
1.93018e-120
2.12171e-118
2.22164e-116
2.22428e-114
2.13711e-112
1.97759e-110
1.76853e-108
1.53357e-106
1.29358e-104
1.06465e-102
8.57438e-101
6.77576e-99
5.18739e-97
4.71801e-95
5.80895e-92
7.86715e-90
7.39348e-88
6.04409e-86
4.58454e-84
3.32084e-82
2.33444e-80
1.60817e-78
1.08932e-76
7.6522e-75
9.50308e-73
3.67441e-71
5.30787e-71
3.84969e-69
2.37436e-67
3.16804e-65
6.39138e-64
2.56046e-152
2.67677e-151
2.60798e-151
-3.15802e-150
-3.01158e-148
2.0211e-146
5.09401e-144
1.17929e-141
2.57309e-139
5.27146e-137
1.01225e-134
1.82219e-132
3.07995e-130
4.90076e-128
7.36444e-126
1.04885e-123
1.421e-121
1.83829e-119
2.27923e-117
2.71829e-115
3.12943e-113
3.48954e-111
3.78103e-109
3.99329e-107
4.12286e-105
4.17255e-103
4.15004e-101
4.06194e-99
3.88478e-97
5.51432e-95
8.38263e-92
1.22836e-89
1.34529e-87
1.3042e-85
1.18166e-83
1.02585e-81
8.63339e-80
7.34905e-78
8.50168e-76
5.0622e-74
5.85387e-73
9.5766e-72
5.74295e-70
1.01717e-67
2.83814e-66
1.15321e-155
2.73002e-154
7.31166e-153
2.16086e-151
2.71935e-151
2.76279e-151
5.36667e-151
5.15876e-149
1.57966e-146
4.6166e-144
1.26765e-141
3.26046e-139
7.85698e-137
1.77761e-134
3.78774e-132
7.62915e-130
1.45822e-127
2.65552e-125
4.62556e-123
7.73638e-121
1.24703e-118
1.94411e-116
2.94124e-114
4.33199e-112
6.22992e-110
8.77234e-108
1.21251e-105
1.64882e-103
2.21026e-101
2.91998e-99
3.79322e-97
8.51493e-95
1.52065e-91
2.76369e-89
3.77812e-87
4.56729e-85
5.13935e-83
5.58815e-81
6.45426e-79
6.80754e-77
4.42923e-75
2.2553e-74
1.80018e-72
2.5068e-70
1.23869e-68
3.89898e-159
6.9285e-158
9.8021e-157
1.18031e-155
1.41707e-154
4.21527e-153
1.8901e-151
2.69049e-151
2.7036e-151
2.30041e-151
-1.03435e-150
-2.92605e-148
-3.02695e-146
1.64017e-143
1.35735e-140
6.39288e-138
2.44493e-135
8.26952e-133
2.56501e-130
7.44366e-128
2.0473e-125
5.38593e-123
1.36475e-120
3.34926e-118
7.99662e-116
1.86442e-113
4.25812e-111
9.5509e-109
2.1082e-106
4.58632e-104
9.84117e-102
2.08172e-99
4.31209e-97
1.22628e-94
4.60333e-91
1.15028e-88
2.09263e-86
3.31096e-84
4.92733e-82
7.84538e-80
9.28777e-78
5.36872e-77
5.66657e-75
3.23529e-73
5.12855e-71
1.43916e-165
2.09942e-164
3.57169e-163
7.38859e-162
1.79877e-160
4.66471e-159
1.16516e-157
2.77253e-156
1.06612e-154
1.24251e-152
2.1467e-151
1.65304e-151
8.72526e-152
-3.47121e-153
-2.26749e-149
-8.89006e-147
-3.24285e-144
-1.10931e-141
-3.57142e-139
-1.0862e-136
-3.13146e-134
-8.57807e-132
-2.23166e-129
-5.46463e-127
-1.21335e-124
-2.07103e-122
1.00533e-120
5.19892e-117
4.37631e-114
3.0184e-111
1.95071e-108
1.22063e-105
7.44632e-103
4.41297e-100
2.50889e-97
2.26761e-94
3.13854e-90
1.1629e-87
2.95891e-85
6.94335e-83
1.35763e-80
1.47138e-79
1.97341e-77
1.39327e-75
2.08408e-73
3.24946e-181
4.26009e-180
1.13712e-178
5.60809e-177
4.35034e-175
4.59582e-173
5.7681e-171
7.553e-169
9.339e-167
1.02524e-164
9.77039e-163
8.77462e-161
1.15981e-158
3.25983e-156
1.16519e-153
1.80563e-151
1.64612e-151
9.52294e-152
-1.12571e-151
-1.5331e-150
-1.27278e-147
-2.80435e-144
-3.92733e-141
-3.4669e-138
-2.53991e-135
-1.79877e-132
-1.23129e-129
-8.17874e-127
-5.28147e-124
-3.32106e-121
-2.03578e-118
-1.21694e-115
-7.08872e-113
-4.01446e-110
-2.1999e-107
-1.15675e-104
-5.75289e-102
3.96912e-95
2.38138e-89
3.79695e-86
1.49302e-83
6.69349e-82
1.47138e-79
1.97341e-77
1.39328e-75
)
;

boundaryField
{
    leftWall
    {
        type            zeroGradient;
    }
    rightWall
    {
        type            zeroGradient;
    }
    lowerWall
    {
        type            zeroGradient;
    }
    atmosphere
    {
        type            inletOutlet;
        inletValue      uniform 0;
        value           nonuniform List<scalar> 
45
(
0
0
0
0
0
0
0
0
0
0
0
0
0
0
0
0
0
0
0
0
0
0
0
0
0
0
0
0
0
0
0
0
0
0
0
0
0
0
0
0
1.49302e-83
6.69349e-82
1.47138e-79
1.97341e-77
1.39328e-75
)
;
    }
    defaultFaces
    {
        type            empty;
    }
    procBoundary2to0
    {
        type            processor;
        value           nonuniform List<scalar> 
46
(
3.84186e-11
7.14125e-11
1.3664e-10
3.25474e-10
5.11468e-10
4.84085e-10
1.32827e-10
5.80577e-11
5.51147e-11
5.11584e-11
3.05216e-11
2.40133e-11
1.87565e-11
1.40391e-11
9.79362e-12
6.89034e-12
4.86059e-12
3.70568e-12
3.31863e-12
3.84464e-12
8.47823e-12
2.90285e-11
8.20849e-11
1.60137e-10
6.43932e-10
-1.30524e-18
-3.95945e-17
-5.66851e-16
-5.55449e-15
-4.32549e-14
-2.20837e-13
-9.8299e-13
-2.83009e-12
-2.60591e-12
-3.07327e-12
-1.10688e-11
-2.67264e-11
-2.49028e-11
-1.89268e-11
-2.08904e-11
-2.09594e-11
-1.01461e-11
5.66405e-12
9.50637e-12
8.80284e-12
8.80284e-12
)
;
    }
    procBoundary2to3
    {
        type            processor;
        value           nonuniform List<scalar> 
43
(
6.08012e-10
1.35757e-10
4.96954e-11
1.26791e-11
1.89903e-12
2.50399e-13
3.10142e-14
3.53043e-15
3.67517e-16
3.49461e-17
3.0321e-18
2.39849e-19
1.72852e-20
1.13428e-21
6.77334e-23
3.6787e-24
1.8163e-25
8.14819e-27
3.31944e-28
1.22736e-29
4.11692e-31
1.25217e-32
3.45176e-34
8.62123e-36
1.94996e-37
3.99235e-39
7.3967e-41
1.23957e-42
1.87831e-44
2.57277e-46
3.1848e-48
3.56278e-50
3.60268e-52
3.29526e-54
2.72989e-56
2.05296e-58
1.40685e-60
8.8402e-63
5.13041e-65
2.79804e-67
1.47537e-69
7.77024e-72
6.30747e-74
)
;
    }
}


// ************************************************************************* //
