/*--------------------------------*- C++ -*----------------------------------*\
  =========                 |
  \\      /  F ield         | OpenFOAM: The Open Source CFD Toolbox
   \\    /   O peration     | Website:  https://openfoam.org
    \\  /    A nd           | Version:  9
     \\/     M anipulation  |
\*---------------------------------------------------------------------------*/
FoamFile
{
    format      ascii;
    class       volScalarField;
    location    "0.25";
    object      epsilon;
}
// * * * * * * * * * * * * * * * * * * * * * * * * * * * * * * * * * * * * * //

dimensions      [0 2 -3 0 0 0 0];

internalField   nonuniform List<scalar> 
1915
(
0.566148
0.605502
0.640999
0.670508
0.692014
0.70393
0.705397
0.696485
0.678227
0.652475
0.621603
0.58853
0.555333
0.523927
0.495884
0.472353
0.454081
0.441496
0.434806
0.434101
0.439429
0.450841
0.468395
0.492094
0.521707
1.0144
0.353204
0.236714
0.198035
0.183407
0.179963
0.183189
0.191124
0.202801
0.217704
0.235548
0.256176
0.279491
0.305414
0.333864
0.364707
0.397694
0.432413
0.468226
0.504218
0.539169
0.571597
0.599831
0.622182
0.637154
0.643691
0.641375
0.630543
0.612275
0.588242
0.560464
0.531192
0.502062
0.474572
0.449918
0.428942
0.412149
0.399767
0.391828
0.388238
0.388833
0.393408
0.401705
0.413379
0.427896
1.05075
0.359998
0.240394
0.200966
0.186016
0.182349
0.185364
0.193063
0.204445
0.218957
0.236263
0.256142
0.278425
0.302959
0.329567
0.35802
0.387982
0.418974
0.450328
0.481157
0.510361
0.536664
0.558709
0.575199
0.585069
0.587665
0.58287
0.571166
0.553588
0.531592
0.506861
0.481089
0.455571
0.431475
0.409713
0.390903
0.375384
0.363264
0.354482
0.348863
0.346156
0.346058
0.348213
0.352189
0.357434
1.07865
0.36577
0.243947
0.204004
0.188784
0.184851
0.187548
0.194851
0.20574
0.21963
0.236148
0.255021
0.276021
0.298928
0.323494
0.349417
0.376304
0.403642
0.430767
0.456859
0.480953
0.501988
0.518893
0.530705
0.536697
0.536507
0.530213
0.518351
0.501863
0.481982
0.460084
0.43743
0.415047
0.393846
0.374524
0.35754
0.343124
0.33132
0.322029
0.315052
0.310125
0.306937
0.305137
0.304325
0.304041
1.09806
0.369967
0.246944
0.20679
0.191402
0.187211
0.189535
0.196343
0.206601
0.219706
0.235255
0.252939
0.272482
0.293614
0.316035
0.339395
0.363271
0.38714
0.410374
0.432235
0.451901
0.468511
0.481243
0.489404
0.492524
0.490443
0.483351
0.471784
0.456568
0.438725
0.419363
0.399421
0.379714
0.360954
0.343679
0.328236
0.314789
0.303347
0.293808
0.285983
0.279633
0.274479
0.270219
0.266527
0.263054
1.109
0.372337
0.249096
0.209038
0.193603
0.18919
0.191125
0.197383
0.206925
0.21914
0.233604
0.249983
0.26797
0.28726
0.307519
0.328373
0.349386
0.370053
0.389794
0.407962
0.423872
0.436843
0.446255
0.451625
0.452674
0.449371
0.441963
0.430952
0.417047
0.401081
0.38393
0.366306
0.348858
0.332146
0.316589
0.302456
0.289868
0.278826
0.269239
0.260945
0.253744
0.247406
0.24169
0.236346
0.231123
1.11146
0.372705
0.250185
0.210517
0.19516
0.190578
0.192132
0.197816
0.206599
0.217866
0.231185
0.246204
0.262601
0.280049
0.2982
0.31667
0.335031
0.352808
0.369479
0.384487
0.397272
0.407301
0.41412
0.417403
0.416999
0.412962
0.405554
0.39523
0.382585
0.368293
0.353046
0.337389
0.321841
0.306845
0.292736
0.279726
0.267914
0.2573
0.247813
0.239326
0.231679
0.224693
0.218184
0.211969
0.205874
1.10553
0.370972
0.25006
0.211053
0.195893
0.191197
0.192393
0.197505
0.205516
0.215816
0.227971
0.241627
0.256452
0.272112
0.288259
0.304514
0.320469
0.335687
0.349706
0.362057
0.372282
0.379974
0.384802
0.386555
0.38517
0.380745
0.373539
0.363948
0.35247
0.339651
0.32603
0.312036
0.298087
0.284539
0.271662
0.259629
0.248526
0.238362
0.229085
0.220602
0.212792
0.205521
0.198654
0.19206
0.185621
1.09151
0.367128
0.248636
0.210533
0.195674
0.190917
0.191784
0.196339
0.203587
0.212928
0.223937
0.23626
0.249568
0.263534
0.277815
0.29205
0.30586
0.318847
0.330611
0.340756
0.348916
0.354776
0.358102
0.358763
0.35675
0.35218
0.345296
0.336439
0.326022
0.314485
0.302258
0.289678
0.277085
0.26477
0.252955
0.241787
0.231345
0.221646
0.21266
0.204321
0.196543
0.189232
0.182289
0.175625
0.169159
1.06996
0.361257
0.245903
0.208905
0.19443
0.189658
0.190224
0.194244
0.200751
0.209163
0.219063
0.23011
0.241985
0.254371
0.266943
0.279364
0.291285
0.302354
0.312221
0.320558
0.327069
0.331516
0.33373
0.333635
0.331253
0.326708
0.320217
0.312071
0.302611
0.292197
0.281172
0.269805
0.258377
0.247128
0.236246
0.225859
0.216042
0.206821
0.198184
0.19009
0.182481
0.175293
0.168458
0.161914
0.155611
1.04171
0.35353
0.241917
0.206181
0.192151
0.187395
0.187683
0.191193
0.196989
0.204508
0.213353
0.223196
0.233734
0.244668
0.255694
0.266503
0.276779
0.28621
0.294498
0.301365
0.306576
0.309944
0.311352
0.310757
0.308198
0.303794
0.297735
0.290269
0.281676
0.27225
0.262278
0.251969
0.241559
0.23125
0.221205
0.211538
0.202321
0.19359
0.185346
0.177569
0.170225
0.16327
0.156661
0.150358
0.144326
1.00776
0.344192
0.236799
0.202433
0.188882
0.184158
0.184185
0.187205
0.19232
0.198992
0.206841
0.215558
0.224861
0.234471
0.244111
0.253497
0.262349
0.270392
0.27737
0.283051
0.287243
0.289801
0.290639
0.289737
0.287139
0.282954
0.277349
0.270529
0.262728
0.25419
0.245152
0.235783
0.226281
0.21682
0.207541
0.198552
0.189921
0.181691
0.173875
0.166469
0.159455
0.152809
0.146504
0.140513
0.134816
0.969247
0.33355
0.230721
0.197784
0.184719
0.180028
0.179799
0.182346
0.18681
0.192677
0.199591
0.207263
0.215431
0.223842
0.232242
0.240378
0.248
0.25487
0.260764
0.26549
0.268888
0.270843
0.271292
0.270225
0.267687
0.263776
0.258632
0.252428
0.24536
0.237629
0.229437
0.22092
0.212246
0.203567
0.195008
0.186668
0.178617
0.170899
0.163538
0.156543
0.149908
0.143623
0.137671
0.132038
0.12671
0.927403
0.321944
0.223891
0.192395
0.1798
0.175128
0.17464
0.176724
0.180562
0.185667
0.191705
0.198408
0.205537
0.212862
0.220156
0.227193
0.233753
0.239628
0.244625
0.24858
0.251361
0.252873
0.253067
0.251939
0.249531
0.245927
0.241244
0.23563
0.229246
0.222262
0.214849
0.20712
0.199217
0.191273
0.183402
0.175695
0.16822
0.161027
0.154146
0.147592
0.141371
0.135481
0.129915
0.124666
0.119725
0.883501
0.309733
0.216534
0.186451
0.174289
0.169611
0.168853
0.17048
0.173714
0.178095
0.183312
0.189118
0.195296
0.201639
0.207944
0.214013
0.219652
0.224679
0.228929
0.232259
0.234558
0.235746
0.235784
0.234668
0.232436
0.229157
0.224932
0.219881
0.214141
0.207856
0.201166
0.194181
0.187009
0.179769
0.172565
0.165481
0.158586
0.151928
0.145544
0.139454
0.133672
0.128202
0.123043
0.118192
0.113643
0.838785
0.297264
0.208882
0.180147
0.168367
0.163649
0.162606
0.163779
0.166428
0.170121
0.174568
0.179543
0.184849
0.190302
0.195723
0.200935
0.205771
0.21007
0.21369
0.216508
0.218427
0.21938
0.21933
0.218277
0.216248
0.213303
0.209524
0.205012
0.199881
0.194253
0.188245
0.181968
0.175496
0.168937
0.162384
0.155918
0.149604
0.143491
0.137618
0.132009
0.126683
0.121647
0.116905
0.112458
0.108302
0.794413
0.284862
0.201153
0.173675
0.162216
0.157421
0.156077
0.156796
0.158879
0.161919
0.165644
0.169849
0.174357
0.179002
0.183627
0.188078
0.192208
0.195877
0.198961
0.201353
0.202968
0.203747
0.203659
0.202697
0.200886
0.198273
0.194925
0.190926
0.186373
0.181367
0.17601
0.170403
0.164604
0.158705
0.152792
0.146937
0.141204
0.13564
0.130286
0.125168
0.120305
0.115711
0.111391
0.107346
0.103575
0.751382
0.272807
0.193542
0.167213
0.156013
0.151104
0.149443
0.149712
0.151248
0.153668
0.156719
0.160212
0.163987
0.167899
0.171807
0.175579
0.179084
0.182202
0.184823
0.186855
0.188222
0.188871
0.188773
0.187921
0.18633
0.184039
0.181103
0.177591
0.173583
0.169166
0.164427
0.159453
0.154303
0.149044
0.143754
0.138502
0.133344
0.128329
0.123495
0.118869
0.114472
0.110319
0.106416
0.102767
0.0993713
0.710484
0.26132
0.186214
0.160918
0.149914
0.144859
0.14287
0.142696
0.143707
0.145541
0.147964
0.1508
0.153906
0.157152
0.160416
0.163579
0.166529
0.169161
0.171379
0.173101
0.17426
0.174809
0.174719
0.173981
0.172605
0.170621
0.168074
0.165019
0.161524
0.15766
0.153503
0.149126
0.144596
0.139954
0.135269
0.130604
0.126011
0.121536
0.117214
0.113074
0.109137
0.105417
0.101922
0.0986562
0.0956196
0.672278
0.250562
0.179294
0.154916
0.144053
0.138828
0.136507
0.135901
0.136413
0.137699
0.139539
0.141773
0.14427
0.146914
0.149597
0.152216
0.154672
0.156874
0.158737
0.160189
0.161171
0.161639
0.161565
0.160939
0.159767
0.15807
0.155884
0.153254
0.150236
0.146889
0.143278
0.139466
0.135516
0.131459
0.127353
0.123252
0.119205
0.115252
0.111429
0.107761
0.104269
0.100967
0.0978637
0.094964
0.0922678
0.637092
0.240633
0.17287
0.149303
0.138536
0.133126
0.130476
0.129457
0.129498
0.130276
0.131582
0.133267
0.135213
0.137316
0.139479
0.141612
0.143629
0.145449
0.146999
0.148214
0.149041
0.149441
0.149387
0.148866
0.147882
0.146448
0.144593
0.142354
0.139774
0.136905
0.133799
0.130512
0.127094
0.123591
0.120031
0.116465
0.112936
0.109481
0.106133
0.102915
0.0998465
0.0969417
0.0942091
0.0916535
0.0892754
0.605053
0.231577
0.166996
0.144144
0.133441
0.12784
0.124873
0.123464
0.123069
0.12338
0.124201
0.125391
0.126843
0.128462
0.130163
0.131865
0.133493
0.134976
0.136249
0.137255
0.137947
0.138288
0.138253
0.137828
0.137012
0.135816
0.13426
0.132374
0.130193
0.127758
0.125115
0.122308
0.119383
0.116384
0.113329
0.110261
0.107215
0.104227
0.101323
0.0985259
0.095854
0.0933198
0.0909318
0.088695
0.0866103
0.576135
0.223399
0.161693
0.139478
0.128817
0.123028
0.119763
0.117993
0.1172
0.117089
0.117473
0.118222
0.119235
0.120427
0.12172
0.123043
0.124329
0.125516
0.126546
0.127368
0.127941
0.128229
0.12821
0.127869
0.127203
0.126217
0.124927
0.123356
0.121531
0.119487
0.11726
0.114888
0.112409
0.10986
0.107267
0.104653
0.102051
0.0994898
0.0969941
0.0945843
0.0922762
0.0900817
0.0880091
0.0860631
0.0842452
0.550213
0.216077
0.156962
0.135317
0.124688
0.118724
0.115184
0.113087
0.111936
0.111447
0.111444
0.111804
0.112433
0.11325
0.114187
0.11518
0.116169
0.117098
0.117916
0.118578
0.119045
0.119287
0.119281
0.119012
0.118475
0.117673
0.116615
0.11532
0.113809
0.11211
0.110252
0.108266
0.106184
0.104037
0.101853
0.0996459
0.0974416
0.0952649
0.0931373
0.0910763
0.0890963
0.0872081
0.0854192
0.0837345
0.0821557
0.527109
0.209575
0.152789
0.131658
0.121058
0.114935
0.11115
0.108761
0.107291
0.106471
0.10613
0.106151
0.106446
0.106941
0.107571
0.10828
0.109013
0.10972
0.110355
0.110878
0.111254
0.111454
0.111457
0.111248
0.11082
0.110175
0.109317
0.10826
0.107021
0.105622
0.104085
0.102437
0.100703
0.0989082
0.0970776
0.0952289
0.0933753
0.0915383
0.089736
0.087984
0.0862947
0.0846777
0.0831401
0.0816866
0.0803192
0.506635
0.203854
0.149152
0.128486
0.117915
0.111654
0.107652
0.105007
0.103261
0.102153
0.10152
0.101251
0.10126
0.10148
0.10185
0.102317
0.102832
0.10335
0.103829
0.104233
0.104529
0.104692
0.1047
0.10454
0.104204
0.10369
0.103001
0.102146
0.101138
0.0999944
0.0987328
0.0973739
0.0959389
0.0944485
0.0929229
0.0913808
0.08983
0.0882872
0.0867676
0.0852842
0.083848
0.0824674
0.0811489
0.079897
0.078714
0.488636
0.198886
0.146035
0.125784
0.115241
0.10886
0.10467
0.101804
0.0998193
0.0984653
0.0975846
0.0970693
0.0968385
0.0968268
0.0969783
0.0972431
0.0975758
0.0979347
0.0982823
0.0985846
0.0988125
0.0989414
0.0989521
0.0988305
0.0985681
0.0981614
0.0976119
0.0969251
0.0961107
0.0951809
0.0941505
0.0930356
0.0918532
0.0906202
0.0893531
0.0880672
0.0867743
0.0854819
0.0842033
0.0829496
0.08173
0.0805521
0.0794217
0.0783431
0.0773188
0.473019
0.194662
0.143427
0.123538
0.113018
0.106531
0.102178
0.0991209
0.0969329
0.0953706
0.0942816
0.0935609
0.0931303
0.092927
0.0928975
0.0929947
0.0931761
0.0934031
0.0936407
0.0938577
0.0940269
0.0941256
0.0941354
0.0940428
0.0938385
0.0935181
0.0930812
0.0925312
0.0918746
0.0911206
0.0902806
0.0893674
0.0883942
0.087375
0.086323
0.085251
0.0841708
0.0830874
0.0820107
0.0809498
0.0799126
0.0789058
0.0779345
0.0770028
0.0761133
0.45978
0.191204
0.14134
0.121747
0.111235
0.104648
0.100149
0.0969261
0.0945642
0.0928265
0.0915637
0.0906732
0.0900785
0.0897182
0.0895408
0.0895011
0.0895586
0.089677
0.0898235
0.089969
0.0900881
0.0901593
0.0901654
0.090093
0.0899327
0.0896794
0.0893311
0.0888894
0.0883588
0.087746
0.0870594
0.0863091
0.0855057
0.0846603
0.0837838
0.0828867
0.0819784
0.0810666
0.0801558
0.0792539
0.0783676
0.0775027
0.0766638
0.0758546
0.0750778
0.449025
0.188577
0.139814
0.12043
0.109895
0.103202
0.0985651
0.0951926
0.0926792
0.0907922
0.0893845
0.0883544
0.0876259
0.0871385
0.0868414
0.0866908
0.0866478
0.0866774
0.0867488
0.0868345
0.0869104
0.0869565
0.0869561
0.0868962
0.0867674
0.086564
0.086283
0.0859248
0.0854918
0.0849891
0.0844228
0.0838009
0.0831318
0.0824243
0.0816874
0.0809297
0.0801593
0.0793836
0.0786059
0.0778323
0.0770682
0.0763187
0.0755877
0.0748787
0.0741946
0.440982
0.186905
0.138928
0.119637
0.109025
0.102202
0.0974197
0.0939028
0.0912511
0.0892337
0.0877034
0.0865578
0.0857204
0.0851305
0.0847373
0.0844977
0.0843734
0.084331
0.0843405
0.0843759
0.0844145
0.0844369
0.0844273
0.0843731
0.084265
0.0840966
0.0838645
0.0835677
0.0832078
0.0827878
0.0823128
0.0817885
0.081222
0.0806203
0.0799909
0.079341
0.0786774
0.0780063
0.0773324
0.076659
0.0759909
0.0753323
0.0746869
0.0740578
0.0734478
0.436023
0.186389
0.138814
0.119455
0.108677
0.101673
0.096721
0.0930508
0.0902633
0.0881257
0.086488
0.0852451
0.0843185
0.0836458
0.0831758
0.0828649
0.0826754
0.0825743
0.0825328
0.0825258
0.0825314
0.0825314
0.0825103
0.0824559
0.082359
0.082213
0.0820139
0.0817599
0.0814515
0.0810908
0.0806814
0.080228
0.079736
0.0792115
0.0786607
0.0780898
0.0775046
0.0769107
0.0763129
0.0757138
0.0751173
0.0745269
0.0739461
0.0733776
0.0728243
0.434713
0.187335
0.139674
0.120013
0.108932
0.101664
0.0964913
0.0926413
0.0897082
0.0874516
0.0857148
0.0843873
0.0833863
0.0826467
0.0821153
0.0817476
0.0815057
0.0813571
0.0812734
0.0812303
0.0812068
0.0811852
0.0811506
0.0810913
0.0809979
0.0808637
0.0806844
0.0804575
0.0801826
0.0798611
0.0794953
0.0790891
0.0786469
0.078174
0.0776756
0.0771572
0.0766242
0.0760815
0.0755337
0.0749841
0.0744356
0.0738913
0.0733543
0.0728277
0.0723139
0.437905
0.190193
0.14179
0.121491
0.109899
0.102235
0.0967609
0.0926853
0.0895837
0.0872007
0.0853672
0.0839633
0.0828994
0.0821054
0.0815254
0.0811131
0.0808299
0.0806431
0.0805247
0.0804511
0.0804017
0.0803596
0.0803103
0.0802424
0.0801466
0.080016
0.0798459
0.0796334
0.0793773
0.0790781
0.0787375
0.0783582
0.0779441
0.0774996
0.0770295
0.0765389
0.0760327
0.0755159
0.0749928
0.0744675
0.0739426
0.0734214
0.0729069
0.0724022
0.07191
0.446922
0.195603
0.145537
0.124103
0.111696
0.103446
0.097556
0.0931889
0.0898854
0.0873627
0.0854315
0.0839574
0.0828403
0.0820036
0.0813866
0.0809408
0.0806262
0.0804098
0.0802638
0.0801648
0.0800931
0.0800321
0.079968
0.0798894
0.0797872
0.0796544
0.0794858
0.0792781
0.0790295
0.0787394
0.0784088
0.0780396
0.0776348
0.0771982
0.0767342
0.0762475
0.0757431
0.0752262
0.0747013
0.0741732
0.0736456
0.0731219
0.0726058
0.0721007
0.0716102
0.463835
0.204468
0.151377
0.128079
0.114424
0.10533
0.0988761
0.094138
0.0905945
0.0879189
0.0858909
0.0843547
0.0831962
0.0823294
0.0816881
0.0812204
0.0808847
0.0806475
0.0804812
0.0803626
0.0802728
0.0801956
0.0801177
0.0800281
0.0799178
0.0797795
0.079608
0.0793991
0.0791502
0.0788602
0.0785286
0.0781566
0.077746
0.0772996
0.0768214
0.0763157
0.0757876
0.0752427
0.0746866
0.074125
0.0735635
0.0730069
0.0724603
0.0719284
0.0714157
0.491952
0.218037
0.159831
0.133596
0.118101
0.107842
0.100659
0.0954736
0.0916628
0.0888329
0.0867195
0.085138
0.0839561
0.0830765
0.0824266
0.0819508
0.081606
0.0813581
0.0811797
0.0810484
0.0809458
0.0808565
0.0807677
0.0806688
0.080551
0.0804071
0.0802313
0.0800191
0.079767
0.0794725
0.0791342
0.0787514
0.0783246
0.0778551
0.0773454
0.0767992
0.0762213
0.0756178
0.074996
0.0743636
0.0737293
0.0731013
0.0724876
0.0718955
0.0713313
0.536911
0.238044
0.171376
0.140643
0.122554
0.110785
0.102733
0.0970637
0.0929965
0.0900422
0.0878783
0.0862854
0.0851101
0.0842434
0.0836063
0.0831402
0.0828009
0.0825543
0.0823739
0.082238
0.0821293
0.0820335
0.0819384
0.0818341
0.0817122
0.0815655
0.081388
0.0811746
0.0809211
0.0806237
0.0802792
0.0798849
0.0794387
0.0789392
0.0783863
0.0777812
0.0771274
0.0764311
0.0757013
0.07495
0.0741912
0.0734402
0.0727108
0.0720153
0.0713631
0.609543
0.266884
0.186171
0.148749
0.127232
0.113696
0.10476
0.0986777
0.0944471
0.0914571
0.0893182
0.0877744
0.0866534
0.0858368
0.0852413
0.0848074
0.0844913
0.0842604
0.0840894
0.0839585
0.0838519
0.0837565
0.0836615
0.0835578
0.0834375
0.0832939
0.083121
0.0829135
0.0826662
0.0823741
0.0820322
0.081635
0.0811768
0.0806517
0.0800542
0.07938
0.0786277
0.0778008
0.0769097
0.0759726
0.0750149
0.0740666
0.0731543
0.0722988
0.0715134
0.732293
0.307608
0.20328
0.156417
0.130905
0.115725
0.106196
0.0999864
0.0958265
0.0929787
0.0909953
0.0895951
0.0885965
0.0878791
0.0873612
0.0869861
0.0867135
0.0865139
0.086365
0.0862496
0.086154
0.0860672
0.0859799
0.0858844
0.0857737
0.0856419
0.0854835
0.0852933
0.0850656
0.0847948
0.0844739
0.0840946
0.0836469
0.0831184
0.0824946
0.0817603
0.0809015
0.0799103
0.0787914
0.0775688
0.0762905
0.0750271
0.0738338
0.072744
0.0717724
0.956092
0.362331
0.218427
0.160044
0.131311
0.115581
0.106342
0.100633
0.0969694
0.0945469
0.0929065
0.0917745
0.0909816
0.09042
0.0900189
0.0897305
0.0895218
0.0893689
0.0892544
0.0891646
0.0890892
0.0890195
0.0889484
0.0888699
0.0887785
0.0886696
0.0885386
0.0883809
0.0881916
0.0879648
0.0876931
0.0873665
0.0869711
0.0864882
0.0858921
0.08515
0.0842227
0.0830695
0.0816597
0.0799957
0.0781551
0.0763615
0.0747349
0.0733161
0.0721043
1.44584
0.421166
0.217898
0.152462
0.125181
0.111858
0.104645
0.100448
0.0978737
0.0962284
0.0951429
0.0944087
0.0939026
0.0935486
0.0932984
0.09312
0.0929917
0.0928981
0.092828
0.0927727
0.0927256
0.0926813
0.0926351
0.0925831
0.0925221
0.0924487
0.0923601
0.0922531
0.0921243
0.0919693
0.0917823
0.0915544
0.0912726
0.0909165
0.0904549
0.0898401
0.0890006
0.0878301
0.0861776
0.0838602
0.080813
0.0780497
0.0757612
0.0739158
0.0724316
3.1969
0.385718
0.167629
0.124328
0.110252
0.104336
0.101428
0.0998377
0.0988991
0.0983144
0.0979356
0.0976831
0.0975115
0.0973933
0.0973114
0.0972545
0.0972149
0.0971873
0.0971677
0.0971529
0.0971408
0.0971293
0.0971167
0.0971016
0.0970829
0.0970593
0.0970299
0.0969935
0.0969491
0.0968952
0.0968296
0.0967492
0.0966486
0.0965183
0.0963417
0.0960875
0.0956927
0.0950182
0.0937265
0.0909462
0.0841813
0.0797008
0.0765882
0.0743324
0.0726323
)
;

boundaryField
{
    leftWall
    {
        type            epsilonWallFunction;
        value           nonuniform List<scalar> 
42
(
1.0144
1.05075
1.07865
1.09806
1.109
1.11146
1.10553
1.09151
1.06996
1.04171
1.00776
0.969247
0.927403
0.883501
0.838785
0.794413
0.751382
0.710484
0.672278
0.637092
0.605053
0.576135
0.550213
0.527109
0.506635
0.488636
0.473019
0.45978
0.449025
0.440982
0.436023
0.434713
0.437905
0.446922
0.463835
0.491952
0.536911
0.609543
0.732293
0.956092
1.44584
3.1969
)
;
    }
    rightWall
    {
        type            epsilonWallFunction;
        value           nonuniform List<scalar> 0();
    }
    lowerWall
    {
        type            epsilonWallFunction;
        value           nonuniform List<scalar> 0();
    }
    atmosphere
    {
        type            inletOutlet;
        inletValue      uniform 0.1;
        value           nonuniform List<scalar> 
45
(
0.1
0.1
0.1
0.1
0.1
0.1
0.1
0.1
0.1
0.1
0.1
0.1
0.1
0.1
0.1
0.1
0.1
0.1
0.1
0.1
0.1
0.1
0.1
0.1
0.1
0.1
0.1
0.1
0.1
0.1
0.1
0.1
0.1
0.1
0.1
0.1
0.1
0.1
0.1
0.1
0.0841813
0.0797008
0.0765882
0.0743324
0.0726323
)
;
    }
    defaultFaces
    {
        type            empty;
    }
    procBoundary2to0
    {
        type            processor;
        value           nonuniform List<scalar> 
46
(
0.58983
0.63677
0.680539
0.718548
0.748183
0.767189
0.774096
0.76854
0.75138
0.72458
0.690878
0.653818
0.616177
0.580362
0.548415
0.521902
0.501916
0.489192
0.484233
0.487463
0.499338
0.520442
0.551525
0.59345
0.646971
0.973453
0.348456
0.23379
0.195713
0.181324
0.177973
0.181225
0.189166
0.200868
0.215862
0.233921
0.254966
0.278992
0.305976
0.335961
0.368937
0.404764
0.443131
0.483482
0.524918
0.524918
)
;
    }
    procBoundary2to3
    {
        type            processor;
        value           nonuniform List<scalar> 
43
(
0.556598
0.444407
0.363221
0.303749
0.259436
0.225786
0.199749
0.179244
0.162835
0.149511
0.138544
0.129398
0.121678
0.115084
0.109392
0.104432
0.100075
0.0962245
0.0928086
0.0897721
0.0870726
0.0846761
0.0825544
0.0806827
0.0790386
0.0776012
0.0763505
0.0752678
0.0743355
0.0735374
0.0728591
0.0722883
0.0718153
0.0714329
0.0711368
0.0709255
0.0707996
0.0707599
0.0708042
0.0709208
0.0710809
0.0712328
0.0713128
)
;
    }
}


// ************************************************************************* //
