/*--------------------------------*- C++ -*----------------------------------*\
  =========                 |
  \\      /  F ield         | OpenFOAM: The Open Source CFD Toolbox
   \\    /   O peration     | Website:  https://openfoam.org
    \\  /    A nd           | Version:  9
     \\/     M anipulation  |
\*---------------------------------------------------------------------------*/
FoamFile
{
    format      ascii;
    class       volScalarField;
    location    "0.25";
    object      k;
}
// * * * * * * * * * * * * * * * * * * * * * * * * * * * * * * * * * * * * * //

dimensions      [0 2 -2 0 0 0 0];

internalField   nonuniform List<scalar> 
1915
(
0.284959
0.295277
0.304212
0.31136
0.316358
0.318935
0.318965
0.316497
0.311765
0.305162
0.297183
0.288445
0.279418
0.270527
0.262111
0.254411
0.247567
0.241646
0.236663
0.23261
0.22948
0.227276
0.226013
0.225709
0.226357
0.0402716
0.065816
0.0821526
0.0944249
0.105177
0.11538
0.125468
0.135647
0.146015
0.15661
0.167437
0.178487
0.189739
0.201156
0.2127
0.224311
0.235906
0.247361
0.258511
0.269136
0.278967
0.287691
0.294978
0.300507
0.304012
0.305319
0.304388
0.301327
0.296392
0.28996
0.282479
0.274461
0.266297
0.258335
0.250845
0.244008
0.23792
0.232612
0.228072
0.224265
0.221152
0.218699
0.216878
0.215656
0.214981
0.0412192
0.0678091
0.0844033
0.0967501
0.107488
0.117618
0.127587
0.137612
0.147792
0.158164
0.168725
0.179453
0.190311
0.201252
0.212215
0.223126
0.233883
0.244357
0.25438
0.263745
0.272209
0.279505
0.285362
0.289535
0.291839
0.292178
0.290571
0.287162
0.28221
0.276063
0.269117
0.261787
0.254399
0.247236
0.240511
0.234361
0.228851
0.223987
0.219742
0.216065
0.212902
0.210198
0.207903
0.205961
0.204304
0.041937
0.0695359
0.0864209
0.0988752
0.109617
0.11967
0.129498
0.139328
0.149266
0.159347
0.169567
0.179898
0.190292
0.20069
0.211019
0.221191
0.231097
0.240604
0.24955
0.257745
0.264975
0.271019
0.275663
0.278727
0.28009
0.279714
0.277658
0.274083
0.269237
0.263431
0.257011
0.250306
0.243589
0.237088
0.230975
0.225352
0.220261
0.215699
0.211628
0.207993
0.204732
0.201785
0.199092
0.196592
0.194219
0.0424303
0.0709715
0.0881514
0.10073
0.111488
0.121466
0.131143
0.140754
0.150411
0.160155
0.169984
0.179864
0.189743
0.199555
0.209219
0.218641
0.227706
0.236285
0.244226
0.251357
0.257498
0.262468
0.266103
0.268278
0.268921
0.268035
0.265703
0.262089
0.257422
0.251974
0.246039
0.239882
0.233726
0.227761
0.222121
0.216887
0.212088
0.207713
0.203724
0.200067
0.196681
0.193507
0.190485
0.187559
0.184669
0.0427034
0.0720837
0.0895403
0.102246
0.113026
0.122933
0.132453
0.141832
0.151188
0.160568
0.169973
0.179371
0.188707
0.197913
0.206904
0.215583
0.223839
0.231547
0.238567
0.244751
0.249948
0.254013
0.256825
0.2583
0.258405
0.257169
0.254688
0.251119
0.246666
0.241565
0.236063
0.230371
0.224677
0.219134
0.213853
0.208898
0.20429
0.200017
0.196046
0.192328
0.188807
0.185429
0.182141
0.178894
0.175642
0.0427578
0.0728434
0.0905388
0.103361
0.114162
0.123998
0.133362
0.142503
0.151549
0.160554
0.169521
0.178422
0.187206
0.195804
0.204133
0.212097
0.21959
0.226496
0.232689
0.238043
0.242433
0.245747
0.247897
0.248833
0.248546
0.247083
0.244541
0.241067
0.23684
0.232061
0.226936
0.221634
0.216314
0.211102
0.20609
0.20133
0.196842
0.192616
0.188624
0.184825
0.181172
0.177621
0.174125
0.170647
0.167151
0.0425965
0.0732297
0.0911093
0.104025
0.114836
0.124599
0.133805
0.14271
0.151446
0.160073
0.168601
0.177008
0.185247
0.193252
0.200944
0.208233
0.215019
0.221198
0.22666
0.231296
0.235007
0.237707
0.239334
0.239861
0.239297
0.237697
0.235156
0.231805
0.227801
0.223314
0.218513
0.213538
0.208521
0.203569
0.19876
0.194139
0.189726
0.185514
0.181484
0.177604
0.173837
0.170147
0.166499
0.162865
0.159218
0.0422264
0.073233
0.0912277
0.104201
0.115006
0.124687
0.133733
0.142403
0.150834
0.159089
0.167188
0.175114
0.182825
0.190263
0.197354
0.204016
0.210159
0.215689
0.220511
0.224535
0.227681
0.229884
0.231104
0.231327
0.230576
0.228905
0.226405
0.223192
0.219402
0.215176
0.210656
0.205957
0.201192
0.19645
0.191801
0.187285
0.182923
0.178715
0.174649
0.170701
0.166847
0.163058
0.159311
0.155585
0.151865
0.0416598
0.0728561
0.0908864
0.103874
0.114645
0.12423
0.133112
0.141549
0.14968
0.157575
0.165259
0.172723
0.179932
0.186836
0.193369
0.199457
0.205021
0.209978
0.214247
0.217754
0.220435
0.222241
0.223147
0.223151
0.22228
0.220588
0.218157
0.21509
0.211501
0.207512
0.203239
0.19878
0.194229
0.189667
0.185153
0.180727
0.176412
0.172213
0.168125
0.164135
0.160227
0.156384
0.152588
0.148829
0.145099
0.0409139
0.0721146
0.0900947
0.103043
0.113748
0.123218
0.131927
0.140129
0.147966
0.155514
0.162801
0.169826
0.176564
0.182971
0.188991
0.194559
0.199606
0.20406
0.207855
0.210928
0.213229
0.214723
0.215392
0.215243
0.214304
0.212627
0.210284
0.207365
0.203968
0.200195
0.196148
0.191904
0.187547
0.183148
0.178761
0.174426
0.170166
0.165993
0.16191
0.157911
0.153989
0.150135
0.14634
0.1426
0.138912
0.0400103
0.0710363
0.0888785
0.101732
0.112332
0.121662
0.130184
0.138148
0.145696
0.152907
0.159815
0.166426
0.172723
0.17867
0.184221
0.189321
0.19391
0.197927
0.201317
0.204028
0.206021
0.207269
0.207763
0.207513
0.206546
0.204911
0.202671
0.199902
0.196691
0.193123
0.189287
0.185245
0.181073
0.176833
0.172577
0.168342
0.164157
0.160037
0.15599
0.15202
0.148125
0.144304
0.140556
0.13688
0.13328
0.0389744
0.0696601
0.0872791
0.09998
0.110433
0.119594
0.127912
0.135631
0.142891
0.149774
0.156319
0.16254
0.168425
0.173949
0.179073
0.183751
0.187934
0.191571
0.194615
0.197025
0.198769
0.199827
0.200195
0.199884
0.198921
0.197348
0.195221
0.192607
0.189578
0.186209
0.182577
0.178734
0.174746
0.170671
0.166557
0.162443
0.158358
0.154321
0.150347
0.146444
0.142618
0.138873
0.135213
0.131642
0.128166
0.0378344
0.068034
0.0853504
0.0978412
0.108105
0.117066
0.125159
0.132621
0.139592
0.146154
0.152351
0.158201
0.163701
0.168833
0.173568
0.177867
0.181691
0.184996
0.187745
0.189903
0.191446
0.192359
0.19264
0.192299
0.191363
0.189868
0.187864
0.185407
0.18256
0.179389
0.17596
0.172319
0.168523
0.164625
0.160672
0.156701
0.152744
0.148824
0.144959
0.141162
0.137445
0.133815
0.130281
0.126849
0.123527
0.0366206
0.0662127
0.0831559
0.0953827
0.105414
0.114143
0.121989
0.129182
0.135859
0.142104
0.147963
0.153461
0.158599
0.163368
0.167746
0.171702
0.175205
0.17822
0.180715
0.182663
0.184043
0.184845
0.185067
0.184722
0.183831
0.182427
0.180553
0.178257
0.175595
0.172623
0.1694
0.165968
0.162375
0.158671
0.154899
0.151097
0.147299
0.143528
0.139808
0.136154
0.132582
0.129102
0.125725
0.122461
0.119318
0.0353643
0.0642545
0.0807652
0.0926795
0.102439
0.110904
0.118481
0.125391
0.131768
0.137697
0.143227
0.148386
0.153183
0.157613
0.161661
0.165306
0.16852
0.171278
0.173553
0.175322
0.17657
0.177287
0.177475
0.177143
0.176311
0.175008
0.173269
0.171139
0.168665
0.165895
0.162882
0.15967
0.156294
0.1528
0.149231
0.145625
0.142013
0.138424
0.134881
0.131403
0.128007
0.124706
0.121514
0.118439
0.115493
0.0340961
0.0622185
0.0782501
0.089811
0.0992627
0.107436
0.114722
0.121335
0.127406
0.133019
0.138227
0.14306
0.147531
0.151642
0.155385
0.158742
0.161696
0.164223
0.166304
0.16792
0.169058
0.169712
0.169882
0.169577
0.168814
0.167618
0.166021
0.16406
0.161776
0.159214
0.156419
0.153435
0.150288
0.147022
0.143676
0.140288
0.136889
0.133509
0.13017
0.126895
0.123702
0.120605
0.117617
0.11475
0.112012
0.032844
0.0601612
0.0756812
0.0868564
0.0959713
0.103829
0.110805
0.117108
0.122867
0.128165
0.133056
0.137572
0.141733
0.145543
0.148999
0.152091
0.154805
0.157124
0.159032
0.160515
0.161561
0.162165
0.162329
0.162061
0.161374
0.16029
0.158838
0.157049
0.154959
0.152609
0.150037
0.147285
0.14438
0.141356
0.138252
0.135101
0.131937
0.128787
0.125677
0.122627
0.119656
0.11678
0.114012
0.111363
0.108841
0.0316321
0.0581338
0.0731238
0.0838913
0.0926477
0.10017
0.106822
0.112807
0.11825
0.123234
0.127812
0.132022
0.135885
0.139409
0.142596
0.145441
0.147934
0.150062
0.151814
0.153178
0.154145
0.154711
0.154878
0.154651
0.154045
0.153076
0.15177
0.150154
0.14826
0.146123
0.143778
0.141261
0.138608
0.135838
0.132987
0.13009
0.127176
0.124274
0.121407
0.118597
0.115863
0.11322
0.11068
0.108255
0.105952
0.0304792
0.0561793
0.0706355
0.0809837
0.0893685
0.0965438
0.102863
0.108525
0.11365
0.118322
0.122596
0.12651
0.130086
0.133338
0.136272
0.138885
0.141172
0.143125
0.144734
0.145991
0.146888
0.147424
0.147599
0.147418
0.146893
0.14604
0.144879
0.143435
0.141736
0.139813
0.137697
0.135421
0.133018
0.130507
0.127918
0.125283
0.12263
0.119985
0.117373
0.114812
0.112322
0.109917
0.107609
0.105408
0.103321
0.0293984
0.0543315
0.0682635
0.0781921
0.0862013
0.0930256
0.09901
0.104347
0.109159
0.113525
0.117502
0.121129
0.124432
0.127427
0.130122
0.132518
0.134613
0.136403
0.137881
0.13904
0.139876
0.140386
0.140572
0.140438
0.139994
0.139255
0.138237
0.136962
0.135454
0.133742
0.131852
0.129815
0.127659
0.12541
0.123085
0.120715
0.118326
0.115943
0.113587
0.111279
0.109034
0.106866
0.104788
0.102808
0.100932
0.0283974
0.0526139
0.0660439
0.0755629
0.0832022
0.0896794
0.0953327
0.100352
0.104856
0.108925
0.112617
0.11597
0.119014
0.121765
0.124235
0.126428
0.128345
0.129984
0.13134
0.132409
0.133189
0.133677
0.133876
0.133788
0.133424
0.132793
0.131913
0.130801
0.12948
0.127972
0.126303
0.124499
0.122587
0.120591
0.118527
0.116419
0.114292
0.112167
0.110065
0.108005
0.106
0.104065
0.10221
0.100442
0.0987682
0.0274792
0.0510408
0.0640009
0.0731303
0.080414
0.0865561
0.0918893
0.0966009
0.100809
0.104595
0.108014
0.111109
0.113907
0.11643
0.11869
0.120694
0.122446
0.123944
0.125189
0.126176
0.126904
0.127373
0.127584
0.12754
0.127251
0.126724
0.125975
0.125019
0.123874
0.122562
0.121105
0.119525
0.117847
0.116092
0.11428
0.112425
0.11055
0.108676
0.10682
0.104998
0.103225
0.101512
0.0998682
0.0983017
0.0968172
0.0266434
0.0496184
0.0621486
0.0709166
0.0778669
0.0836927
0.088723
0.0931436
0.0970724
0.10059
0.103754
0.106606
0.109176
0.111487
0.113552
0.115382
0.116981
0.118351
0.119492
0.120403
0.121084
0.121535
0.121758
0.121756
0.121535
0.121106
0.120478
0.119667
0.118689
0.117561
0.116302
0.114934
0.113476
0.111949
0.110372
0.108757
0.107121
0.105483
0.103858
0.102262
0.100706
0.0992013
0.0977558
0.0963763
0.0950672
0.0258879
0.0483473
0.0604931
0.0689336
0.0755788
0.0811131
0.0858628
0.0900133
0.0936825
0.0969516
0.0998787
0.102507
0.104867
0.106983
0.10887
0.11054
0.112
0.113252
0.114299
0.115141
0.115779
0.116213
0.116446
0.116481
0.116324
0.115982
0.115466
0.114788
0.113962
0.113003
0.111928
0.110755
0.109502
0.108186
0.106824
0.10543
0.104016
0.102596
0.101186
0.0997978
0.0984423
0.0971288
0.0958648
0.0946562
0.0935069
0.0252095
0.0472254
0.0590345
0.0671853
0.0735579
0.0788294
0.0833248
0.0872295
0.0906622
0.0937048
0.0964164
0.0988407
0.10101
0.10295
0.104676
0.106201
0.107534
0.10868
0.109642
0.110421
0.111018
0.111437
0.111678
0.111745
0.111644
0.111381
0.110965
0.110407
0.109718
0.108912
0.108004
0.107008
0.10594
0.104814
0.103648
0.102453
0.101239
0.100018
0.0988016
0.0976015
0.0964271
0.0952863
0.0941858
0.0931307
0.0921247
0.024606
0.0462501
0.0577712
0.0656713
0.0718054
0.0768451
0.0811145
0.0847999
0.088021
0.0908607
0.0933791
0.095621
0.0976199
0.0994011
0.100983
0.10238
0.1036
0.10465
0.105535
0.106257
0.106818
0.107221
0.107468
0.107562
0.10751
0.107315
0.106987
0.106534
0.105967
0.105296
0.104535
0.103696
0.102792
0.101837
0.100844
0.0998239
0.0987877
0.0977423
0.0966984
0.0956654
0.0946515
0.0936637
0.0927078
0.0917883
0.0909088
0.024077
0.0454208
0.0567018
0.0643901
0.0703199
0.0751588
0.0792311
0.0827241
0.0857588
0.0884196
0.0907675
0.0928483
0.0946966
0.0963383
0.097793
0.0990752
0.100195
0.101161
0.101977
0.102647
0.103175
0.103563
0.103813
0.10393
0.103918
0.103782
0.103528
0.103166
0.102703
0.10215
0.101516
0.100813
0.100053
0.0992459
0.0984033
0.0975356
0.0966526
0.0957599
0.0948656
0.0939778
0.0931035
0.0922486
0.0914184
0.0906168
0.0898471
0.0236246
0.0447413
0.055829
0.0633426
0.0691007
0.0737686
0.0776713
0.0809976
0.0838704
0.0863752
0.0885743
0.0905145
0.092231
0.0937507
0.0950939
0.0962761
0.0973083
0.0981989
0.098954
0.0995781
0.100075
0.100447
0.100698
0.100832
0.100852
0.100764
0.100573
0.100287
0.0999118
0.0994572
0.0989318
0.0983448
0.097706
0.0970248
0.0963106
0.0955723
0.0948183
0.0940555
0.0932886
0.0925244
0.0917689
0.0910274
0.0903043
0.0896033
0.0889274
0.0232548
0.0442214
0.0551618
0.0625357
0.068152
0.0726757
0.0764335
0.0796164
0.082349
0.0847185
0.0867882
0.088606
0.0902077
0.091621
0.092867
0.0939614
0.0949164
0.0957408
0.0964415
0.0970235
0.0974911
0.0978477
0.0980968
0.098242
0.0982872
0.0982369
0.0980964
0.0978716
0.0975689
0.0971956
0.0967594
0.0962681
0.0957299
0.0951531
0.0945455
0.0939148
0.0932682
0.0926123
0.091951
0.0912895
0.090633
0.0899859
0.0893522
0.0887352
0.0881376
0.0229774
0.0438791
0.0547183
0.061985
0.0674859
0.0718882
0.0755216
0.07858
0.0811903
0.0834413
0.0853977
0.087108
0.0886091
0.0899289
0.0910891
0.0921061
0.0929925
0.0937577
0.0944092
0.0949526
0.0953924
0.0957326
0.0959767
0.0961284
0.0961913
0.0961696
0.096068
0.0958916
0.0956461
0.0953376
0.0949727
0.0945581
0.0941009
0.093608
0.0930863
0.0925424
0.0919824
0.091412
0.0908358
0.0902573
0.0896807
0.0891101
0.0885489
0.0880001
0.0874665
0.022807
0.0437422
0.0545282
0.061718
0.0671253
0.0714235
0.0749474
0.0778948
0.0803954
0.0825398
0.0843942
0.0860078
0.0874182
0.0886538
0.0897367
0.0906837
0.0915078
0.092219
0.0928249
0.0933318
0.0937444
0.0940669
0.094303
0.0944563
0.0945302
0.0945286
0.0944556
0.0943157
0.0941137
0.093855
0.0935451
0.0931899
0.0927953
0.0923675
0.0919124
0.0914356
0.0909427
0.0904386
0.0899279
0.0894134
0.0888988
0.0883875
0.0878827
0.0873871
0.0869035
0.0227646
0.0438515
0.0546355
0.0617758
0.0671058
0.0713104
0.0747325
0.0775753
0.079972
0.0820155
0.0837735
0.0852961
0.0866212
0.0877779
0.0887882
0.0896695
0.0904349
0.0910947
0.091657
0.0921282
0.0925132
0.0928164
0.0930415
0.0931919
0.0932708
0.0932818
0.0932284
0.0931144
0.092944
0.0927217
0.0924523
0.0921409
0.0917925
0.0914125
0.0910062
0.0905785
0.0901344
0.0896784
0.0892146
0.0887463
0.0882763
0.0878079
0.0873438
0.0868869
0.0864397
0.0228799
0.0442633
0.055101
0.0622152
0.0674765
0.0715893
0.0749084
0.0776443
0.079935
0.0818762
0.083537
0.0849682
0.0862084
0.0872866
0.0882252
0.0890416
0.0897491
0.0903582
0.090877
0.091312
0.0916683
0.0919502
0.0921612
0.0923047
0.0923834
0.0924006
0.092359
0.0922621
0.0921133
0.0919162
0.0916749
0.0913937
0.091077
0.0907294
0.0903557
0.0899603
0.0895478
0.0891225
0.0886882
0.0882485
0.0878061
0.0873639
0.0869249
0.086492
0.0860677
0.0231975
0.0450556
0.0560057
0.0631101
0.0683006
0.0723114
0.0755148
0.0781314
0.0803049
0.0821341
0.0836896
0.0850232
0.0861733
0.0871691
0.0880331
0.0887823
0.0894301
0.0899868
0.0904606
0.0908578
0.0911836
0.0914418
0.091636
0.091769
0.0918433
0.0918615
0.0918259
0.0917391
0.0916038
0.0914229
0.0911996
0.0909374
0.09064
0.0903114
0.0899558
0.0895773
0.0891802
0.0887686
0.0883466
0.0879177
0.0874853
0.0870523
0.086622
0.0861975
0.085782
0.0237838
0.0463345
0.0574551
0.0645529
0.0696536
0.0735363
0.0765971
0.0790696
0.0811043
0.0828032
0.0842383
0.0854616
0.0865116
0.0874171
0.0881998
0.0888767
0.0894607
0.0899618
0.0903879
0.090745
0.0910378
0.0912702
0.091445
0.0915647
0.0916313
0.0916468
0.0916129
0.0915313
0.0914039
0.0912328
0.0910201
0.0907685
0.0904807
0.09016
0.0898098
0.0894341
0.0890368
0.0886222
0.0881945
0.0877579
0.0873164
0.0868738
0.086434
0.0860011
0.0855788
0.0247396
0.0482464
0.059585
0.0666544
0.0716211
0.0753274
0.0782007
0.0804901
0.0823532
0.0838949
0.0851877
0.0862831
0.0872187
0.0880224
0.0887151
0.0893126
0.0898273
0.0902685
0.0906434
0.0909575
0.0912151
0.0914193
0.0915727
0.0916771
0.0917341
0.0917447
0.09171
0.0916309
0.0915085
0.0913435
0.0911373
0.090891
0.0906064
0.0902855
0.0899308
0.0895454
0.0891331
0.0886983
0.0882456
0.0877803
0.0873079
0.0868337
0.0863633
0.0859023
0.0854556
0.0262276
0.0509995
0.0625705
0.0695443
0.0742927
0.0777436
0.0803624
0.0824142
0.0840623
0.0854125
0.0865359
0.0874822
0.088287
0.088976
0.0895686
0.0900791
0.0905185
0.0908952
0.0912153
0.0914837
0.0917038
0.0918783
0.0920088
0.0920968
0.0921431
0.0921481
0.0921122
0.0920354
0.0919176
0.0917587
0.0915585
0.0913166
0.0910331
0.0907082
0.0903426
0.089938
0.0894972
0.0890242
0.0885246
0.0880055
0.0874749
0.0869416
0.0864144
0.0859015
0.0854099
0.0285432
0.0549074
0.0666394
0.0733653
0.0777486
0.0808244
0.0830966
0.084842
0.0862238
0.0873442
0.0882698
0.0890457
0.0897036
0.090266
0.0907494
0.091166
0.091525
0.0918333
0.0920958
0.0923162
0.0924972
0.0926407
0.0927477
0.0928189
0.0928547
0.0928548
0.0928189
0.0927463
0.092636
0.0924865
0.0922963
0.0920632
0.0917848
0.0914586
0.0910822
0.0906542
0.0901745
0.0896457
0.0890734
0.0884676
0.0878414
0.0872111
0.0865921
0.0859977
0.0854373
0.0322566
0.0604717
0.0720828
0.0782514
0.0820297
0.0845624
0.0863747
0.0877374
0.0888017
0.0896575
0.0903614
0.0909505
0.0914499
0.0918774
0.0922458
0.0925643
0.0928399
0.0930774
0.0932805
0.0934518
0.0935928
0.0937047
0.0937881
0.0938429
0.0938692
0.0938661
0.093833
0.0937685
0.0936709
0.093538
0.0933667
0.093153
0.0928919
0.0925771
0.0922014
0.0917575
0.0912386
0.090641
0.0899667
0.0892274
0.0884462
0.0876597
0.0868987
0.0861843
0.0855278
0.0385401
0.0685175
0.0792187
0.0842471
0.0870671
0.0888554
0.0900952
0.0910125
0.0917243
0.0922963
0.092768
0.0931646
0.0935028
0.0937943
0.0940473
0.0942676
0.0944597
0.0946265
0.0947702
0.094892
0.094993
0.0950735
0.0951335
0.0951728
0.0951909
0.0951871
0.0951603
0.095109
0.0950315
0.094925
0.0947859
0.094609
0.0943871
0.0941104
0.0937661
0.0933378
0.0928059
0.0921494
0.0913508
0.0904078
0.0893557
0.0883058
0.0873248
0.0864412
0.0856603
0.0508091
0.0803755
0.0881286
0.0910728
0.0925484
0.0934432
0.0940599
0.0945218
0.0948871
0.0951865
0.0954382
0.0956535
0.0958401
0.0960034
0.0961471
0.096274
0.0963861
0.0964845
0.0965703
0.0966438
0.0967054
0.0967549
0.0967922
0.0968168
0.0968283
0.0968261
0.0968092
0.0967766
0.0967267
0.0966576
0.0965661
0.0964477
0.0962954
0.0960989
0.0958427
0.0955035
0.0950455
0.0944144
0.0935306
0.0922952
0.0906658
0.0891382
0.087822
0.0867182
0.0857961
0.0862313
0.0967512
0.0973864
0.0976201
0.0977648
0.0978844
0.0979919
0.098089
0.0981763
0.0982545
0.0983247
0.0983878
0.0984448
0.0984964
0.0985432
0.0985856
0.098624
0.0986586
0.0986894
0.0987164
0.0987397
0.0987589
0.0987741
0.0987849
0.098791
0.0987923
0.0987884
0.0987788
0.0987632
0.0987407
0.0987102
0.0986702
0.0986178
0.0985483
0.0984538
0.0983192
0.0981137
0.0977677
0.0971106
0.0957059
0.0923085
0.0899491
0.0882227
0.0869097
0.0858764
)
;

boundaryField
{
    leftWall
    {
        type            kqRWallFunction;
        value           nonuniform List<scalar> 
42
(
0.0402716
0.0412192
0.041937
0.0424303
0.0427034
0.0427578
0.0425965
0.0422264
0.0416598
0.0409139
0.0400103
0.0389744
0.0378344
0.0366206
0.0353643
0.0340961
0.032844
0.0316321
0.0304792
0.0293984
0.0283974
0.0274792
0.0266434
0.0258879
0.0252095
0.024606
0.024077
0.0236246
0.0232548
0.0229774
0.022807
0.0227646
0.0228799
0.0231975
0.0237838
0.0247396
0.0262276
0.0285432
0.0322566
0.0385401
0.0508091
0.0862313
)
;
    }
    rightWall
    {
        type            kqRWallFunction;
        value           nonuniform List<scalar> 0();
    }
    lowerWall
    {
        type            kqRWallFunction;
        value           nonuniform List<scalar> 0();
    }
    atmosphere
    {
        type            inletOutlet;
        inletValue      uniform 0.1;
        value           nonuniform List<scalar> 
45
(
0.1
0.1
0.1
0.1
0.1
0.1
0.1
0.1
0.1
0.1
0.1
0.1
0.1
0.1
0.1
0.1
0.1
0.1
0.1
0.1
0.1
0.1
0.1
0.1
0.1
0.1
0.1
0.1
0.1
0.1
0.1
0.1
0.1
0.1
0.1
0.1
0.1
0.1
0.1
0.1
0.0923085
0.0899491
0.0882227
0.0869097
0.0858764
)
;
    }
    defaultFaces
    {
        type            empty;
    }
    procBoundary2to0
    {
        type            processor;
        value           nonuniform List<scalar> 
46
(
0.289855
0.301904
0.312688
0.32172
0.328527
0.332717
0.33405
0.332489
0.32822
0.321633
0.313265
0.303816
0.293873
0.283944
0.274453
0.265713
0.257926
0.251206
0.245611
0.241176
0.23794
0.235967
0.235349
0.236195
0.238602
0.0391869
0.0635258
0.0797133
0.091967
0.102753
0.11302
0.123189
0.133464
0.143942
0.15467
0.165667
0.176944
0.188498
0.200303
0.212347
0.224598
0.236987
0.249408
0.261703
0.27365
0.27365
)
;
    }
    procBoundary2to3
    {
        type            processor;
        value           nonuniform List<scalar> 
43
(
0.227892
0.214754
0.202838
0.191893
0.181757
0.172342
0.163608
0.155544
0.148142
0.141395
0.135279
0.12976
0.124792
0.120325
0.116304
0.112681
0.109411
0.106453
0.103776
0.101354
0.0991646
0.0971909
0.0954176
0.0938314
0.0924196
0.0911703
0.0900716
0.0891116
0.0882787
0.0875618
0.0869501
0.0864338
0.0860045
0.0856546
0.0853782
0.0851704
0.0850274
0.0849448
0.0849167
0.084933
0.0849766
0.0850217
0.0850401
)
;
    }
}


// ************************************************************************* //
