/*--------------------------------*- C++ -*----------------------------------*\
  =========                 |
  \\      /  F ield         | OpenFOAM: The Open Source CFD Toolbox
   \\    /   O peration     | Website:  https://openfoam.org
    \\  /    A nd           | Version:  9
     \\/     M anipulation  |
\*---------------------------------------------------------------------------*/
FoamFile
{
    format      ascii;
    class       volVectorField;
    location    "0.25";
    object      U;
}
// * * * * * * * * * * * * * * * * * * * * * * * * * * * * * * * * * * * * * //

dimensions      [0 1 -1 0 0 0 0];

internalField   nonuniform List<vector> 
1915
(
(-0.16796 -0.642936 0)
(-0.198094 -0.597947 0)
(-0.229473 -0.5462 0)
(-0.26149 -0.487972 0)
(-0.293435 -0.423833 0)
(-0.324529 -0.354643 0)
(-0.353976 -0.28153 0)
(-0.381015 -0.205834 0)
(-0.404979 -0.129019 0)
(-0.425343 -0.0525652 0)
(-0.441751 0.0221191 0)
(-0.453997 0.0937017 0)
(-0.462042 0.161011 0)
(-0.466026 0.223186 0)
(-0.466239 0.279696 0)
(-0.463079 0.330313 0)
(-0.457008 0.375075 0)
(-0.448513 0.414245 0)
(-0.438066 0.448286 0)
(-0.42608 0.477833 0)
(-0.412864 0.503688 0)
(-0.398546 0.526786 0)
(-0.383002 0.548145 0)
(-0.365791 0.568828 0)
(-0.345997 0.589748 0)
(-0.000647024 -0.846456 0)
(-0.0021074 -0.857286 0)
(-0.00512018 -0.844865 0)
(-0.00612473 -0.832424 0)
(-0.00687873 -0.821935 0)
(-0.00778983 -0.813591 0)
(-0.00930373 -0.807217 0)
(-0.0118069 -0.802472 0)
(-0.0156199 -0.798896 0)
(-0.0210025 -0.795941 0)
(-0.02816 -0.792991 0)
(-0.0372527 -0.78938 0)
(-0.0484084 -0.784412 0)
(-0.0617298 -0.777367 0)
(-0.0772935 -0.767518 0)
(-0.0951449 -0.754144 0)
(-0.115289 -0.736549 0)
(-0.13768 -0.714089 0)
(-0.162198 -0.686195 0)
(-0.188635 -0.652416 0)
(-0.216684 -0.612451 0)
(-0.245931 -0.566197 0)
(-0.275859 -0.513776 0)
(-0.305859 -0.455566 0)
(-0.33525 -0.392202 0)
(-0.363316 -0.324574 0)
(-0.389348 -0.253788 0)
(-0.412693 -0.181108 0)
(-0.4328 -0.107873 0)
(-0.449247 -0.0354118 0)
(-0.461771 0.0350358 0)
(-0.470241 0.10229 0)
(-0.47468 0.165359 0)
(-0.475267 0.223533 0)
(-0.472301 0.276397 0)
(-0.466162 0.323801 0)
(-0.457275 0.365821 0)
(-0.446071 0.402721 0)
(-0.432951 0.434921 0)
(-0.418263 0.462973 0)
(-0.402254 0.487529 0)
(-0.385013 0.50932 0)
(-0.366427 0.529099 0)
(-0.34613 0.547586 0)
(-0.323563 0.56539 0)
(-0.00431439 -0.841756 0)
(-0.00966857 -0.852571 0)
(-0.0157187 -0.841199 0)
(-0.0204667 -0.829432 0)
(-0.024811 -0.819141 0)
(-0.0291249 -0.810519 0)
(-0.0338199 -0.803435 0)
(-0.0392684 -0.797604 0)
(-0.0457927 -0.792629 0)
(-0.0536631 -0.788019 0)
(-0.063099 -0.783209 0)
(-0.0742731 -0.777578 0)
(-0.0873175 -0.770464 0)
(-0.102328 -0.761185 0)
(-0.119361 -0.74905 0)
(-0.138434 -0.733383 0)
(-0.159507 -0.713544 0)
(-0.182486 -0.688959 0)
(-0.207199 -0.659143 0)
(-0.23339 -0.623741 0)
(-0.260713 -0.582557 0)
(-0.28873 -0.535589 0)
(-0.316919 -0.483053 0)
(-0.34469 -0.425397 0)
(-0.371408 -0.363298 0)
(-0.396427 -0.297647 0)
(-0.419127 -0.229507 0)
(-0.438957 -0.160055 0)
(-0.455466 -0.090508 0)
(-0.468329 -0.022051 0)
(-0.47736 0.0442261 0)
(-0.482496 0.107287 0)
(-0.483812 0.166295 0)
(-0.481514 0.220671 0)
(-0.475898 0.270091 0)
(-0.467325 0.31446 0)
(-0.456184 0.353874 0)
(-0.44286 0.388585 0)
(-0.4277 0.418962 0)
(-0.410998 0.44547 0)
(-0.39296 0.468644 0)
(-0.373677 0.489059 0)
(-0.353082 0.507278 0)
(-0.330932 0.523803 0)
(-0.306859 0.538996 0)
(-0.00673906 -0.832774 0)
(-0.015867 -0.843653 0)
(-0.0251547 -0.833572 0)
(-0.0332969 -0.822631 0)
(-0.0409654 -0.812697 0)
(-0.0484619 -0.80399 0)
(-0.056163 -0.79641 0)
(-0.0644208 -0.789716 0)
(-0.0735462 -0.783563 0)
(-0.0838046 -0.777513 0)
(-0.0954146 -0.77105 0)
(-0.108548 -0.763603 0)
(-0.123331 -0.754556 0)
(-0.139847 -0.743269 0)
(-0.15813 -0.729103 0)
(-0.178166 -0.711434 0)
(-0.199883 -0.689687 0)
(-0.223143 -0.66336 0)
(-0.247738 -0.632053 0)
(-0.273379 -0.595498 0)
(-0.299697 -0.553593 0)
(-0.326248 -0.50642 0)
(-0.352524 -0.454264 0)
(-0.377967 -0.397622 0)
(-0.401997 -0.337189 0)
(-0.424043 -0.273836 0)
(-0.443572 -0.208568 0)
(-0.460128 -0.142472 0)
(-0.473351 -0.076646 0)
(-0.482999 -0.0121415 0)
(-0.488954 0.0500847 0)
(-0.49121 0.109131 0)
(-0.489882 0.164294 0)
(-0.485191 0.215099 0)
(-0.477429 0.261294 0)
(-0.466933 0.30282 0)
(-0.454058 0.339783 0)
(-0.43915 0.372411 0)
(-0.422514 0.401028 0)
(-0.404409 0.426025 0)
(-0.385016 0.447836 0)
(-0.364428 0.466909 0)
(-0.342634 0.483679 0)
(-0.319501 0.498514 0)
(-0.294819 0.511667 0)
(-0.00866806 -0.819453 0)
(-0.0210691 -0.831132 0)
(-0.0333529 -0.822325 0)
(-0.0445556 -0.812286 0)
(-0.055244 -0.802829 0)
(-0.0656566 -0.794188 0)
(-0.0761331 -0.786289 0)
(-0.0870008 -0.778929 0)
(-0.0985516 -0.771804 0)
(-0.111037 -0.764526 0)
(-0.124663 -0.75663 0)
(-0.139591 -0.747594 0)
(-0.155933 -0.736852 0)
(-0.173754 -0.723819 0)
(-0.193066 -0.707908 0)
(-0.213826 -0.688558 0)
(-0.235933 -0.665261 0)
(-0.25922 -0.637588 0)
(-0.283448 -0.605219 0)
(-0.308312 -0.567967 0)
(-0.333434 -0.525805 0)
(-0.358379 -0.478884 0)
(-0.382662 -0.427541 0)
(-0.40577 -0.372298 0)
(-0.427183 -0.313849 0)
(-0.446404 -0.253031 0)
(-0.462985 -0.190784 0)
(-0.476554 -0.128101 0)
(-0.486835 -0.0659684 0)
(-0.493656 -0.00531427 0)
(-0.496956 0.0530217 0)
(-0.496775 0.108261 0)
(-0.493257 0.159812 0)
(-0.486632 0.207284 0)
(-0.477181 0.250479 0)
(-0.465219 0.289363 0)
(-0.451069 0.324039 0)
(-0.435041 0.354712 0)
(-0.417411 0.381664 0)
(-0.398408 0.405224 0)
(-0.378206 0.425745 0)
(-0.356905 0.443587 0)
(-0.334533 0.459083 0)
(-0.311044 0.47252 0)
(-0.286349 0.484089 0)
(-0.0102174 -0.80263 0)
(-0.0253866 -0.815283 0)
(-0.0403278 -0.807788 0)
(-0.0542295 -0.798705 0)
(-0.0676041 -0.789811 0)
(-0.0806288 -0.781352 0)
(-0.0936071 -0.77328 0)
(-0.106839 -0.765421 0)
(-0.120592 -0.757514 0)
(-0.135095 -0.749214 0)
(-0.150538 -0.740105 0)
(-0.167061 -0.729717 0)
(-0.184759 -0.717538 0)
(-0.203674 -0.703036 0)
(-0.223797 -0.685685 0)
(-0.245061 -0.66499 0)
(-0.267338 -0.640508 0)
(-0.29044 -0.611884 0)
(-0.314112 -0.578868 0)
(-0.33804 -0.541345 0)
(-0.361851 -0.499351 0)
(-0.385128 -0.453087 0)
(-0.407418 -0.402924 0)
(-0.428259 -0.349394 0)
(-0.447192 -0.293174 0)
(-0.463792 -0.235058 0)
(-0.477689 -0.175914 0)
(-0.488589 -0.116644 0)
(-0.496285 -0.058129 0)
(-0.500667 -0.00118624 0)
(-0.50172 0.0534484 0)
(-0.49952 0.105105 0)
(-0.494231 0.153284 0)
(-0.486083 0.197662 0)
(-0.475346 0.23808 0)
(-0.462312 0.274519 0)
(-0.447277 0.307076 0)
(-0.430521 0.335934 0)
(-0.412293 0.361333 0)
(-0.392805 0.383552 0)
(-0.372221 0.402884 0)
(-0.350654 0.419621 0)
(-0.328163 0.434031 0)
(-0.304761 0.446341 0)
(-0.280436 0.456713 0)
(-0.0114549 -0.78285 0)
(-0.0289102 -0.796508 0)
(-0.0461145 -0.790331 0)
(-0.0623369 -0.782228 0)
(-0.078043 -0.773951 0)
(-0.0933507 -0.76576 0)
(-0.108528 -0.757629 0)
(-0.123846 -0.749418 0)
(-0.139543 -0.7409 0)
(-0.155824 -0.731774 0)
(-0.172853 -0.72167 0)
(-0.190749 -0.710169 0)
(-0.209583 -0.696813 0)
(-0.229378 -0.681128 0)
(-0.250101 -0.66265 0)
(-0.271664 -0.640945 0)
(-0.293922 -0.61564 0)
(-0.316669 -0.586443 0)
(-0.339646 -0.55317 0)
(-0.362538 -0.515766 0)
(-0.384985 -0.474317 0)
(-0.406594 -0.42906 0)
(-0.426954 -0.380383 0)
(-0.44565 -0.328814 0)
(-0.462287 -0.275003 0)
(-0.476507 -0.219693 0)
(-0.48801 -0.163681 0)
(-0.496568 -0.107779 0)
(-0.502037 -0.0527718 0)
(-0.504356 0.000621608 0)
(-0.503547 0.0517585 0)
(-0.499713 0.100062 0)
(-0.493027 0.145107 0)
(-0.483718 0.186622 0)
(-0.472043 0.224477 0)
(-0.458273 0.258664 0)
(-0.442677 0.289268 0)
(-0.425512 0.31645 0)
(-0.407006 0.340418 0)
(-0.387355 0.361406 0)
(-0.366719 0.379662 0)
(-0.345218 0.395428 0)
(-0.322935 0.408927 0)
(-0.299918 0.420346 0)
(-0.276207 0.429834 0)
(-0.0124024 -0.760632 0)
(-0.0316964 -0.775236 0)
(-0.0507605 -0.770344 0)
(-0.0689198 -0.763215 0)
(-0.086592 -0.755579 0)
(-0.10384 -0.747715 0)
(-0.120898 -0.73962 0)
(-0.138004 -0.731182 0)
(-0.155367 -0.72221 0)
(-0.173164 -0.712441 0)
(-0.19153 -0.701552 0)
(-0.21056 -0.689172 0)
(-0.230305 -0.674897 0)
(-0.250763 -0.658312 0)
(-0.271884 -0.639011 0)
(-0.293562 -0.616624 0)
(-0.315637 -0.590837 0)
(-0.337898 -0.561421 0)
(-0.360082 -0.528248 0)
(-0.381883 -0.49131 0)
(-0.40296 -0.450733 0)
(-0.422952 -0.406774 0)
(-0.441487 -0.359829 0)
(-0.458201 -0.310409 0)
(-0.472756 -0.25913 0)
(-0.484856 -0.20668 0)
(-0.494263 -0.153785 0)
(-0.500807 -0.101175 0)
(-0.504394 -0.0495447 0)
(-0.505003 0.000472896 0)
(-0.502686 0.0483179 0)
(-0.497562 0.0934917 0)
(-0.489812 0.135629 0)
(-0.479656 0.1745 0)
(-0.467339 0.209996 0)
(-0.453112 0.242112 0)
(-0.437223 0.270923 0)
(-0.419907 0.296567 0)
(-0.401375 0.319224 0)
(-0.381811 0.339095 0)
(-0.361371 0.356391 0)
(-0.340177 0.371315 0)
(-0.318329 0.384059 0)
(-0.295898 0.394785 0)
(-0.272953 0.403629 0)
(-0.0130853 -0.736472 0)
(-0.0337977 -0.751906 0)
(-0.054324 -0.748228 0)
(-0.0740398 -0.74204 0)
(-0.0933124 -0.735048 0)
(-0.112156 -0.727548 0)
(-0.130769 -0.719563 0)
(-0.149356 -0.711008 0)
(-0.168096 -0.701722 0)
(-0.187133 -0.69148 0)
(-0.206578 -0.680004 0)
(-0.226501 -0.666968 0)
(-0.246927 -0.652022 0)
(-0.267839 -0.634806 0)
(-0.289166 -0.614972 0)
(-0.310792 -0.592206 0)
(-0.332547 -0.566254 0)
(-0.354217 -0.536939 0)
(-0.375544 -0.504181 0)
(-0.396237 -0.46801 0)
(-0.415977 -0.428578 0)
(-0.434433 -0.386156 0)
(-0.451277 -0.341131 0)
(-0.466192 -0.293996 0)
(-0.478894 -0.245324 0)
(-0.489141 -0.195747 0)
(-0.496748 -0.145923 0)
(-0.501593 -0.0965048 0)
(-0.503622 -0.0481084 0)
(-0.502847 -0.00129006 0)
(-0.49934 0.043463 0)
(-0.493234 0.0857182 0)
(-0.484709 0.12516 0)
(-0.473977 0.161589 0)
(-0.461269 0.194912 0)
(-0.446819 0.225123 0)
(-0.430856 0.252289 0)
(-0.413596 0.276527 0)
(-0.395237 0.297992 0)
(-0.375952 0.316855 0)
(-0.355891 0.333299 0)
(-0.335179 0.347501 0)
(-0.313923 0.359625 0)
(-0.292209 0.369819 0)
(-0.270122 0.378206 0)
(-0.0135363 -0.710833 0)
(-0.0352664 -0.726947 0)
(-0.0568721 -0.724387 0)
(-0.0777749 -0.719085 0)
(-0.0982914 -0.71272 0)
(-0.118391 -0.705606 0)
(-0.138236 -0.697788 0)
(-0.157997 -0.689206 0)
(-0.177821 -0.679731 0)
(-0.197823 -0.669172 0)
(-0.218086 -0.657289 0)
(-0.238658 -0.643806 0)
(-0.259544 -0.628419 0)
(-0.280706 -0.610822 0)
(-0.302063 -0.590721 0)
(-0.323487 -0.567855 0)
(-0.344806 -0.542021 0)
(-0.365806 -0.513088 0)
(-0.386239 -0.481015 0)
(-0.405831 -0.445863 0)
(-0.424289 -0.4078 0)
(-0.441314 -0.367099 0)
(-0.456617 -0.324136 0)
(-0.469927 -0.279373 0)
(-0.481006 -0.233343 0)
(-0.489661 -0.186619 0)
(-0.495749 -0.139795 0)
(-0.49919 -0.0934548 0)
(-0.499961 -0.048143 0)
(-0.498097 -0.00434946 0)
(-0.493686 0.0375019 0)
(-0.486867 0.0770346 0)
(-0.477817 0.113973 0)
(-0.466741 0.148143 0)
(-0.453855 0.179461 0)
(-0.439377 0.20792 0)
(-0.42352 0.233576 0)
(-0.406485 0.256528 0)
(-0.388456 0.276909 0)
(-0.369597 0.294868 0)
(-0.350052 0.310561 0)
(-0.329948 0.324145 0)
(-0.309392 0.335764 0)
(-0.28848 0.345553 0)
(-0.267304 0.353628 0)
(-0.0137822 -0.684143 0)
(-0.0361497 -0.700775 0)
(-0.0584752 -0.699217 0)
(-0.0802146 -0.694727 0)
(-0.101635 -0.688955 0)
(-0.122664 -0.682232 0)
(-0.143426 -0.674623 0)
(-0.16406 -0.666092 0)
(-0.184681 -0.656535 0)
(-0.205376 -0.645796 0)
(-0.226205 -0.633672 0)
(-0.247191 -0.61993 0)
(-0.268322 -0.604312 0)
(-0.289545 -0.586561 0)
(-0.310769 -0.566432 0)
(-0.331859 -0.543712 0)
(-0.352643 -0.518243 0)
(-0.372914 -0.489933 0)
(-0.392436 -0.458773 0)
(-0.410953 -0.424844 0)
(-0.428199 -0.388324 0)
(-0.443907 -0.349482 0)
(-0.457824 -0.308675 0)
(-0.469721 -0.266334 0)
(-0.4794 -0.222944 0)
(-0.486708 -0.179028 0)
(-0.491541 -0.135118 0)
(-0.493847 -0.0917316 0)
(-0.493629 -0.0493538 0)
(-0.49094 -0.00841518 0)
(-0.485878 0.0307136 0)
(-0.478582 0.0677046 0)
(-0.469226 0.102315 0)
(-0.458004 0.13439 0)
(-0.44512 0.163853 0)
(-0.430779 0.190696 0)
(-0.415178 0.214963 0)
(-0.398505 0.236738 0)
(-0.380931 0.256134 0)
(-0.362613 0.273281 0)
(-0.34369 0.288314 0)
(-0.324285 0.30137 0)
(-0.304506 0.31258 0)
(-0.284452 0.322065 0)
(-0.264218 0.329935 0)
(-0.0138384 -0.656801 0)
(-0.0364896 -0.673782 0)
(-0.059205 -0.673093 0)
(-0.0814566 -0.669328 0)
(-0.103463 -0.664103 0)
(-0.125112 -0.657763 0)
(-0.146492 -0.65039 0)
(-0.167711 -0.641971 0)
(-0.188855 -0.632425 0)
(-0.209985 -0.621627 0)
(-0.231136 -0.60941 0)
(-0.252314 -0.595578 0)
(-0.27349 -0.579917 0)
(-0.2946 -0.562212 0)
(-0.315543 -0.542264 0)
(-0.336183 -0.519903 0)
(-0.356352 -0.495009 0)
(-0.375849 -0.467523 0)
(-0.394456 -0.437459 0)
(-0.411935 -0.404913 0)
(-0.428045 -0.370065 0)
(-0.442553 -0.333176 0)
(-0.455237 -0.29458 0)
(-0.465902 -0.254674 0)
(-0.474389 -0.213899 0)
(-0.480576 -0.172725 0)
(-0.48439 -0.131627 0)
(-0.485804 -0.0910677 0)
(-0.484838 -0.0514745 0)
(-0.481556 -0.0132281 0)
(-0.476062 0.0233458 0)
(-0.468495 0.0579615 0)
(-0.459021 0.0904033 0)
(-0.447826 0.120532 0)
(-0.4351 0.148276 0)
(-0.421035 0.173624 0)
(-0.405816 0.19661 0)
(-0.389618 0.217305 0)
(-0.372603 0.235804 0)
(-0.354918 0.252219 0)
(-0.336698 0.266669 0)
(-0.318061 0.279274 0)
(-0.299114 0.290152 0)
(-0.279957 0.299413 0)
(-0.260682 0.307159 0)
(-0.0137141 -0.629187 0)
(-0.0363297 -0.646337 0)
(-0.059138 -0.646371 0)
(-0.0816071 -0.643231 0)
(-0.103908 -0.638496 0)
(-0.12589 -0.632519 0)
(-0.14761 -0.625399 0)
(-0.169145 -0.617139 0)
(-0.190555 -0.607684 0)
(-0.211877 -0.596933 0)
(-0.233126 -0.584751 0)
(-0.25429 -0.570977 0)
(-0.275327 -0.555436 0)
(-0.296164 -0.537952 0)
(-0.316696 -0.518365 0)
(-0.336786 -0.496543 0)
(-0.356272 -0.472397 0)
(-0.374965 -0.445894 0)
(-0.39266 -0.417068 0)
(-0.409143 -0.386023 0)
(-0.424197 -0.352936 0)
(-0.437616 -0.318055 0)
(-0.449209 -0.28169 0)
(-0.458812 -0.244202 0)
(-0.466295 -0.205992 0)
(-0.471564 -0.167478 0)
(-0.474569 -0.129085 0)
(-0.475302 -0.0912215 0)
(-0.473797 -0.0542675 0)
(-0.470125 -0.018559 0)
(-0.46439 0.0156162 0)
(-0.456729 0.0480094 0)
(-0.447301 0.0784273 0)
(-0.43628 0.106743 0)
(-0.423846 0.132889 0)
(-0.410177 0.15685 0)
(-0.395447 0.178652 0)
(-0.37982 0.198352 0)
(-0.363449 0.216031 0)
(-0.346473 0.231786 0)
(-0.329021 0.245719 0)
(-0.311206 0.257936 0)
(-0.293133 0.268544 0)
(-0.274898 0.277642 0)
(-0.256594 0.285326 0)
(-0.013422 -0.601657 0)
(-0.0357225 -0.618784 0)
(-0.0583598 -0.61938 0)
(-0.0807817 -0.616756 0)
(-0.103111 -0.612445 0)
(-0.125166 -0.606804 0)
(-0.146971 -0.599943 0)
(-0.168576 -0.591881 0)
(-0.190018 -0.582581 0)
(-0.211311 -0.571967 0)
(-0.232453 -0.559931 0)
(-0.253417 -0.546343 0)
(-0.27415 -0.531062 0)
(-0.294573 -0.513947 0)
(-0.314578 -0.494871 0)
(-0.334033 -0.473733 0)
(-0.352781 -0.450472 0)
(-0.370646 -0.425076 0)
(-0.387441 -0.397591 0)
(-0.402972 -0.368126 0)
(-0.417045 -0.336852 0)
(-0.42948 -0.304 0)
(-0.440112 -0.269855 0)
(-0.448803 -0.234745 0)
(-0.455449 -0.199029 0)
(-0.459978 -0.16308 0)
(-0.462357 -0.127276 0)
(-0.462593 -0.0919779 0)
(-0.460728 -0.0575217 0)
(-0.456838 -0.0242053 0)
(-0.451026 0.00771639 0)
(-0.443423 0.0380269 0)
(-0.43418 0.066552 0)
(-0.423461 0.0931748 0)
(-0.411432 0.117831 0)
(-0.398263 0.140502 0)
(-0.384113 0.161204 0)
(-0.369139 0.179985 0)
(-0.353483 0.196912 0)
(-0.337278 0.212065 0)
(-0.320646 0.225537 0)
(-0.303696 0.237419 0)
(-0.286528 0.247805 0)
(-0.269234 0.256788 0)
(-0.251906 0.264454 0)
(-0.0129838 -0.574542 0)
(-0.0347307 -0.591434 0)
(-0.056966 -0.592422 0)
(-0.0791059 -0.5902 0)
(-0.101227 -0.586242 0)
(-0.12312 -0.580901 0)
(-0.144782 -0.574298 0)
(-0.166238 -0.566461 0)
(-0.187501 -0.55737 0)
(-0.208567 -0.546969 0)
(-0.229419 -0.535172 0)
(-0.250017 -0.521878 0)
(-0.270301 -0.506973 0)
(-0.290187 -0.490348 0)
(-0.309568 -0.471902 0)
(-0.328315 -0.451563 0)
(-0.346281 -0.429291 0)
(-0.363305 -0.40509 0)
(-0.379214 -0.379015 0)
(-0.393834 -0.351174 0)
(-0.406996 -0.321731 0)
(-0.41854 -0.2909 0)
(-0.428326 -0.25894 0)
(-0.436239 -0.226146 0)
(-0.442192 -0.192838 0)
(-0.446134 -0.159349 0)
(-0.448044 -0.126012 0)
(-0.447939 -0.0931472 0)
(-0.445867 -0.0610514 0)
(-0.441904 -0.0299884 0)
(-0.436153 -0.000184243 0)
(-0.428735 0.0281719 0)
(-0.419794 0.0549233 0)
(-0.409483 0.0799617 0)
(-0.397957 0.103225 0)
(-0.385373 0.124691 0)
(-0.371882 0.144369 0)
(-0.357628 0.162296 0)
(-0.342747 0.178527 0)
(-0.327364 0.193131 0)
(-0.311594 0.206187 0)
(-0.295542 0.217775 0)
(-0.279301 0.227978 0)
(-0.262961 0.236878 0)
(-0.24661 0.244556 0)
(-0.0124288 -0.548128 0)
(-0.0334243 -0.564563 0)
(-0.0550594 -0.565769 0)
(-0.0767129 -0.563829 0)
(-0.0984179 -0.560147 0)
(-0.119945 -0.555069 0)
(-0.141264 -0.548715 0)
(-0.162376 -0.541122 0)
(-0.183274 -0.532283 0)
(-0.20394 -0.522155 0)
(-0.224342 -0.510675 0)
(-0.24443 -0.497762 0)
(-0.264139 -0.483327 0)
(-0.283383 -0.467286 0)
(-0.302056 -0.449564 0)
(-0.320037 -0.430109 0)
(-0.337189 -0.408898 0)
(-0.353362 -0.385949 0)
(-0.368402 -0.361322 0)
(-0.382153 -0.335122 0)
(-0.394466 -0.307502 0)
(-0.405202 -0.278658 0)
(-0.414243 -0.248825 0)
(-0.42149 -0.218267 0)
(-0.426875 -0.187269 0)
(-0.430358 -0.156126 0)
(-0.431931 -0.125131 0)
(-0.431616 -0.0945673 0)
(-0.429463 -0.0646968 0)
(-0.425548 -0.0357535 0)
(-0.41997 -0.00793792 0)
(-0.412843 0.0185832 0)
(-0.404301 0.0436703 0)
(-0.394485 0.0672226 0)
(-0.383541 0.0891799 0)
(-0.371613 0.109517 0)
(-0.358844 0.128236 0)
(-0.345366 0.145366 0)
(-0.331308 0.160951 0)
(-0.316787 0.175048 0)
(-0.301911 0.187724 0)
(-0.286779 0.199049 0)
(-0.271482 0.209096 0)
(-0.256103 0.217938 0)
(-0.240725 0.225646 0)
(-0.0117912 -0.522646 0)
(-0.0318765 -0.538406 0)
(-0.0527475 -0.539657 0)
(-0.0737417 -0.537879 0)
(-0.0948545 -0.534397 0)
(-0.115839 -0.529537 0)
(-0.136641 -0.523419 0)
(-0.157241 -0.516082 0)
(-0.177615 -0.507525 0)
(-0.197731 -0.49772 0)
(-0.217544 -0.486616 0)
(-0.237 -0.474153 0)
(-0.256028 -0.460261 0)
(-0.274543 -0.444877 0)
(-0.292442 -0.427946 0)
(-0.309611 -0.409433 0)
(-0.325924 -0.389331 0)
(-0.341244 -0.367664 0)
(-0.355433 -0.344494 0)
(-0.368353 -0.319925 0)
(-0.379874 -0.294097 0)
(-0.389875 -0.267188 0)
(-0.398255 -0.239409 0)
(-0.404932 -0.210995 0)
(-0.409851 -0.182198 0)
(-0.412983 -0.15328 0)
(-0.414327 -0.124498 0)
(-0.413907 -0.0961029 0)
(-0.411776 -0.0683249 0)
(-0.408008 -0.0413716 0)
(-0.402694 -0.0154212 0)
(-0.395942 0.00937809 0)
(-0.387875 0.0329033 0)
(-0.378624 0.0550606 0)
(-0.368324 0.0757914 0)
(-0.357109 0.0950675 0)
(-0.345109 0.112887 0)
(-0.332449 0.129269 0)
(-0.319249 0.144248 0)
(-0.305618 0.157872 0)
(-0.291658 0.170196 0)
(-0.277464 0.181281 0)
(-0.263117 0.19119 0)
(-0.248699 0.199985 0)
(-0.234288 0.207731 0)
(-0.0111062 -0.498271 0)
(-0.0301631 -0.513151 0)
(-0.0501409 -0.514283 0)
(-0.0703355 -0.51255 0)
(-0.0907097 -0.509192 0)
(-0.111003 -0.504508 0)
(-0.131141 -0.498608 0)
(-0.151087 -0.491531 0)
(-0.170801 -0.483279 0)
(-0.190238 -0.473831 0)
(-0.209348 -0.463149 0)
(-0.22807 -0.451187 0)
(-0.24633 -0.437892 0)
(-0.264046 -0.423216 0)
(-0.281119 -0.407121 0)
(-0.297442 -0.389586 0)
(-0.3129 -0.370614 0)
(-0.32737 -0.350236 0)
(-0.340729 -0.328514 0)
(-0.352854 -0.305545 0)
(-0.363633 -0.281458 0)
(-0.372961 -0.256415 0)
(-0.380752 -0.230602 0)
(-0.386939 -0.20423 0)
(-0.391476 -0.17752 0)
(-0.394343 -0.150702 0)
(-0.395543 -0.124004 0)
(-0.395104 -0.0976451 0)
(-0.393077 -0.0718291 0)
(-0.389529 -0.0467397 0)
(-0.38455 -0.0225356 0)
(-0.378238 0.000650533 0)
(-0.370704 0.0227109 0)
(-0.36207 0.0435586 0)
(-0.352459 0.0631365 0)
(-0.341995 0.0814147 0)
(-0.330799 0.0983862 0)
(-0.318987 0.114063 0)
(-0.306667 0.128471 0)
(-0.293944 0.141649 0)
(-0.280913 0.153642 0)
(-0.267661 0.164501 0)
(-0.254266 0.174281 0)
(-0.240804 0.183034 0)
(-0.227347 0.190818 0)
(-0.0104084 -0.47511 0)
(-0.0283618 -0.488941 0)
(-0.0473521 -0.489806 0)
(-0.0666382 -0.488014 0)
(-0.086156 -0.484708 0)
(-0.105636 -0.480157 0)
(-0.124989 -0.474455 0)
(-0.14416 -0.467636 0)
(-0.1631 -0.459701 0)
(-0.181755 -0.450634 0)
(-0.200067 -0.440406 0)
(-0.217972 -0.42898 0)
(-0.235396 -0.416317 0)
(-0.252258 -0.402382 0)
(-0.268467 -0.387149 0)
(-0.283922 -0.370608 0)
(-0.298518 -0.35277 0)
(-0.312146 -0.333667 0)
(-0.324696 -0.313363 0)
(-0.336061 -0.291946 0)
(-0.346142 -0.269536 0)
(-0.35485 -0.246276 0)
(-0.362113 -0.222334 0)
(-0.367874 -0.197894 0)
(-0.372097 -0.173151 0)
(-0.374767 -0.148307 0)
(-0.375891 -0.123562 0)
(-0.375496 -0.0991083 0)
(-0.373632 -0.0751266 0)
(-0.370362 -0.0517788 0)
(-0.365767 -0.0292065 0)
(-0.359939 -0.00752843 0)
(-0.352979 0.0131593 0)
(-0.344996 0.032778 0)
(-0.336105 0.0512723 0)
(-0.326418 0.0686103 0)
(-0.316045 0.0847811 0)
(-0.305095 0.0997901 0)
(-0.293667 0.113656 0)
(-0.281859 0.126409 0)
(-0.269757 0.138086 0)
(-0.257444 0.148729 0)
(-0.244994 0.158383 0)
(-0.232477 0.167093 0)
(-0.219956 0.174908 0)
(-0.00972812 -0.453214 0)
(-0.0265485 -0.465876 0)
(-0.0444902 -0.466351 0)
(-0.0627887 -0.46441 0)
(-0.0813584 -0.461094 0)
(-0.0999278 -0.456635 0)
(-0.118395 -0.451109 0)
(-0.136696 -0.44454 0)
(-0.154771 -0.436927 0)
(-0.172559 -0.428254 0)
(-0.189998 -0.418498 0)
(-0.207021 -0.40763 0)
(-0.223558 -0.395619 0)
(-0.239528 -0.382441 0)
(-0.254845 -0.368079 0)
(-0.26942 -0.352531 0)
(-0.283155 -0.33581 0)
(-0.295953 -0.317955 0)
(-0.307717 -0.299023 0)
(-0.318353 -0.279099 0)
(-0.327777 -0.258288 0)
(-0.335913 -0.236721 0)
(-0.342697 -0.214545 0)
(-0.348085 -0.191921 0)
(-0.352045 -0.169023 0)
(-0.35457 -0.146025 0)
(-0.355667 -0.123103 0)
(-0.355363 -0.100427 0)
(-0.353704 -0.078155 0)
(-0.350749 -0.0564306 0)
(-0.346571 -0.0353798 0)
(-0.341255 -0.0151093 0)
(-0.334892 0.00429409 0)
(-0.327579 0.0227604 0)
(-0.319421 0.0402358 0)
(-0.31052 0.0566877 0)
(-0.300977 0.0721011 0)
(-0.290891 0.0864763 0)
(-0.280355 0.0998258 0)
(-0.269455 0.112171 0)
(-0.258275 0.123542 0)
(-0.246889 0.133972 0)
(-0.23537 0.143498 0)
(-0.223777 0.152159 0)
(-0.21217 0.159996 0)
(-0.0090891 -0.432574 0)
(-0.0247893 -0.444008 0)
(-0.0416522 -0.44401 0)
(-0.058911 -0.441851 0)
(-0.0764656 -0.438473 0)
(-0.0940494 -0.43407 0)
(-0.111555 -0.428697 0)
(-0.128909 -0.422366 0)
(-0.146047 -0.415071 0)
(-0.162904 -0.406796 0)
(-0.179413 -0.397519 0)
(-0.19551 -0.387217 0)
(-0.211121 -0.375865 0)
(-0.226173 -0.363445 0)
(-0.240586 -0.349947 0)
(-0.254276 -0.335375 0)
(-0.267156 -0.319745 0)
(-0.27914 -0.303094 0)
(-0.290143 -0.285479 0)
(-0.300083 -0.266975 0)
(-0.308886 -0.247679 0)
(-0.316488 -0.227706 0)
(-0.322835 -0.207186 0)
(-0.32789 -0.186262 0)
(-0.33163 -0.165083 0)
(-0.334046 -0.143803 0)
(-0.335151 -0.122578 0)
(-0.334968 -0.101553 0)
(-0.33354 -0.08087 0)
(-0.330921 -0.0606545 0)
(-0.327178 -0.0410194 0)
(-0.322385 -0.0220605 0)
(-0.316625 -0.00385648 0)
(-0.309987 0.0135298 0)
(-0.302561 0.0300477 0)
(-0.294443 0.0456636 0)
(-0.285723 0.0603597 0)
(-0.276492 0.0741315 0)
(-0.266833 0.0869857 0)
(-0.256827 0.0989375 0)
(-0.24655 0.110009 0)
(-0.236072 0.120227 0)
(-0.225459 0.129621 0)
(-0.214767 0.138223 0)
(-0.204047 0.146068 0)
(-0.00850536 -0.41314 0)
(-0.0231306 -0.423352 0)
(-0.0389119 -0.422841 0)
(-0.0551039 -0.420421 0)
(-0.0716004 -0.416944 0)
(-0.0881472 -0.412566 0)
(-0.104635 -0.407323 0)
(-0.120989 -0.401215 0)
(-0.13714 -0.394228 0)
(-0.153018 -0.386345 0)
(-0.16856 -0.377545 0)
(-0.183697 -0.367804 0)
(-0.198362 -0.357105 0)
(-0.212483 -0.345432 0)
(-0.225987 -0.33278 0)
(-0.238796 -0.319155 0)
(-0.250834 -0.304576 0)
(-0.262023 -0.289078 0)
(-0.272289 -0.272713 0)
(-0.281562 -0.255551 0)
(-0.289776 -0.237678 0)
(-0.296878 -0.219197 0)
(-0.302823 -0.200221 0)
(-0.307578 -0.180876 0)
(-0.311126 -0.161292 0)
(-0.313461 -0.141606 0)
(-0.314595 -0.12195 0)
(-0.314551 -0.102455 0)
(-0.313367 -0.0832429 0)
(-0.311092 -0.0644263 0)
(-0.307785 -0.0461052 0)
(-0.303513 -0.0283659 0)
(-0.298351 -0.0112799 0)
(-0.292376 0.00509526 0)
(-0.28567 0.0207136 0)
(-0.278318 0.0355407 0)
(-0.270403 0.0495565 0)
(-0.262005 0.0627527 0)
(-0.253201 0.0751309 0)
(-0.244064 0.0867005 0)
(-0.234664 0.0974771 0)
(-0.225064 0.107481 0)
(-0.215328 0.116736 0)
(-0.205505 0.125269 0)
(-0.195641 0.133106 0)
(-0.00798028 -0.394832 0)
(-0.0215934 -0.403891 0)
(-0.0363122 -0.402872 0)
(-0.0514339 -0.400174 0)
(-0.0668535 -0.396575 0)
(-0.0823352 -0.3922 0)
(-0.0977741 -0.387066 0)
(-0.113094 -0.381162 0)
(-0.128225 -0.37447 0)
(-0.143099 -0.366966 0)
(-0.15765 -0.35863 0)
(-0.171812 -0.349438 0)
(-0.18552 -0.339375 0)
(-0.198708 -0.328428 0)
(-0.211305 -0.316593 0)
(-0.223245 -0.303877 0)
(-0.234457 -0.2903 0)
(-0.244873 -0.275894 0)
(-0.254428 -0.260708 0)
(-0.263061 -0.244804 0)
(-0.270716 -0.228259 0)
(-0.277347 -0.211164 0)
(-0.282917 -0.19362 0)
(-0.287397 -0.175735 0)
(-0.290775 -0.157625 0)
(-0.293046 -0.139407 0)
(-0.294221 -0.121199 0)
(-0.294322 -0.103114 0)
(-0.293383 -0.0852604 0)
(-0.291447 -0.0677366 0)
(-0.288567 -0.050632 0)
(-0.284803 -0.0340242 0)
(-0.28022 -0.0179785 0)
(-0.274887 -0.00254796 0)
(-0.268877 0.0122256 0)
(-0.262265 0.0263087 0)
(-0.255125 0.0396791 0)
(-0.247529 0.0523254 0)
(-0.239548 0.0642448 0)
(-0.231247 0.0754419 0)
(-0.222689 0.0859268 0)
(-0.213934 0.0957141 0)
(-0.205038 0.104822 0)
(-0.196048 0.113271 0)
(-0.187004 0.121084 0)
(-0.00750704 -0.377563 0)
(-0.0201734 -0.385586 0)
(-0.0338654 -0.384102 0)
(-0.047934 -0.381135 0)
(-0.0622814 -0.377405 0)
(-0.0766938 -0.373017 0)
(-0.0910738 -0.367975 0)
(-0.105348 -0.362258 0)
(-0.119448 -0.355843 0)
(-0.133306 -0.348702 0)
(-0.146859 -0.340812 0)
(-0.160043 -0.332149 0)
(-0.172796 -0.322698 0)
(-0.185056 -0.312446 0)
(-0.196761 -0.301391 0)
(-0.207847 -0.289539 0)
(-0.218253 -0.276908 0)
(-0.22792 -0.263528 0)
(-0.236789 -0.249444 0)
(-0.244809 -0.234712 0)
(-0.251931 -0.219399 0)
(-0.258116 -0.203586 0)
(-0.263332 -0.187361 0)
(-0.267556 -0.17082 0)
(-0.270777 -0.154064 0)
(-0.272993 -0.137195 0)
(-0.274213 -0.120317 0)
(-0.274457 -0.103528 0)
(-0.273755 -0.0869228 0)
(-0.272146 -0.07059 0)
(-0.269674 -0.0546085 0)
(-0.266394 -0.0390482 0)
(-0.262363 -0.0239684 0)
(-0.257643 -0.00941822 0)
(-0.252295 0.00456332 0)
(-0.246388 0.0179449 0)
(-0.239985 0.0307031 0)
(-0.233154 0.0428237 0)
(-0.225956 0.0543005 0)
(-0.21845 0.0651339 0)
(-0.210695 0.0753293 0)
(-0.202743 0.0848963 0)
(-0.194646 0.0938477 0)
(-0.186449 0.102201 0)
(-0.178188 0.109971 0)
(-0.00707129 -0.361261 0)
(-0.0188489 -0.368391 0)
(-0.0315606 -0.366507 0)
(-0.0446111 -0.363296 0)
(-0.0579122 -0.359442 0)
(-0.0712731 -0.355035 0)
(-0.0846059 -0.350072 0)
(-0.0978423 -0.344529 0)
(-0.110917 -0.338373 0)
(-0.123765 -0.331576 0)
(-0.136326 -0.32411 0)
(-0.148541 -0.315951 0)
(-0.160352 -0.307081 0)
(-0.1717 -0.297489 0)
(-0.182529 -0.28717 0)
(-0.192782 -0.276131 0)
(-0.202407 -0.264386 0)
(-0.211348 -0.251965 0)
(-0.219558 -0.238904 0)
(-0.226989 -0.225255 0)
(-0.233601 -0.211078 0)
(-0.239361 -0.196444 0)
(-0.244241 -0.181429 0)
(-0.248222 -0.16612 0)
(-0.251294 -0.150602 0)
(-0.253458 -0.134968 0)
(-0.25472 -0.119305 0)
(-0.255098 -0.103702 0)
(-0.254619 -0.0882425 0)
(-0.253315 -0.0730035 0)
(-0.251228 -0.0580559 0)
(-0.248402 -0.0434626 0)
(-0.244889 -0.0292777 0)
(-0.240743 -0.0155465 0)
(-0.236018 -0.00230585 0)
(-0.230773 0.0104153 0)
(-0.225065 0.0225931 0)
(-0.218953 0.0342116 0)
(-0.212493 0.0452616 0)
(-0.205738 0.0557399 0)
(-0.19874 0.065648 0)
(-0.191547 0.0749912 0)
(-0.184206 0.083778 0)
(-0.176757 0.0920217 0)
(-0.169237 0.0997332 0)
(-0.00665613 -0.345875 0)
(-0.0175924 -0.352255 0)
(-0.0293763 -0.350044 0)
(-0.0414565 -0.346628 0)
(-0.0537542 -0.342664 0)
(-0.0660996 -0.338242 0)
(-0.078415 -0.333356 0)
(-0.0906383 -0.327974 0)
(-0.102709 -0.322064 0)
(-0.114567 -0.315591 0)
(-0.126156 -0.308527 0)
(-0.137421 -0.300844 0)
(-0.148308 -0.292523 0)
(-0.158766 -0.28355 0)
(-0.168743 -0.273921 0)
(-0.178189 -0.26364 0)
(-0.187057 -0.252719 0)
(-0.195299 -0.241184 0)
(-0.202874 -0.229068 0)
(-0.20974 -0.216415 0)
(-0.215865 -0.203279 0)
(-0.221217 -0.189723 0)
(-0.225775 -0.175814 0)
(-0.229522 -0.161627 0)
(-0.23245 -0.147239 0)
(-0.234558 -0.132728 0)
(-0.235854 -0.118174 0)
(-0.236353 -0.103654 0)
(-0.236077 -0.0892407 0)
(-0.235054 -0.0750034 0)
(-0.23332 -0.0610051 0)
(-0.230914 -0.0473024 0)
(-0.227881 -0.0339446 0)
(-0.224266 -0.0209737 0)
(-0.220119 -0.00842427 0)
(-0.21549 0.00367608 0)
(-0.210429 0.0153049 0)
(-0.204988 0.0264443 0)
(-0.199217 0.0370832 0)
(-0.193163 0.0472155 0)
(-0.186874 0.0568393 0)
(-0.180393 0.0659565 0)
(-0.17376 0.0745717 0)
(-0.167016 0.0826945 0)
(-0.160194 0.090332 0)
(-0.00624825 -0.331382 0)
(-0.0163825 -0.337131 0)
(-0.0272935 -0.334662 0)
(-0.0384588 -0.331081 0)
(-0.0498071 -0.327033 0)
(-0.0611856 -0.322608 0)
(-0.0725261 -0.3178 0)
(-0.0837736 -0.312577 0)
(-0.094873 -0.306902 0)
(-0.105771 -0.300737 0)
(-0.116416 -0.294052 0)
(-0.126758 -0.286816 0)
(-0.13675 -0.279009 0)
(-0.146345 -0.270615 0)
(-0.155498 -0.261627 0)
(-0.164164 -0.252048 0)
(-0.172303 -0.241887 0)
(-0.179873 -0.231166 0)
(-0.186838 -0.219915 0)
(-0.193163 -0.208173 0)
(-0.198819 -0.195987 0)
(-0.20378 -0.183412 0)
(-0.208027 -0.170508 0)
(-0.211546 -0.15734 0)
(-0.21433 -0.143977 0)
(-0.216378 -0.130487 0)
(-0.217697 -0.11694 0)
(-0.218299 -0.103405 0)
(-0.218202 -0.089945 0)
(-0.217432 -0.0766225 0)
(-0.216018 -0.0634936 0)
(-0.213994 -0.0506092 0)
(-0.211398 -0.0380143 0)
(-0.20827 -0.0257477 0)
(-0.204653 -0.0138418 0)
(-0.200591 -0.00232319 0)
(-0.196126 0.00878705 0)
(-0.191305 0.0194707 0)
(-0.186172 0.0297148 0)
(-0.180769 0.039511 0)
(-0.175139 0.048855 0)
(-0.169319 0.0577454 0)
(-0.163348 0.0661838 0)
(-0.157262 0.0741763 0)
(-0.151093 0.081727 0)
(-0.00584303 -0.317771 0)
(-0.0152112 -0.322976 0)
(-0.0253043 -0.320303 0)
(-0.0356126 -0.316598 0)
(-0.0460693 -0.312495 0)
(-0.0565352 -0.308088 0)
(-0.0669503 -0.303369 0)
(-0.0772665 -0.298306 0)
(-0.0874356 -0.29286 0)
(-0.0974104 -0.286991 0)
(-0.107146 -0.280664 0)
(-0.116599 -0.273849 0)
(-0.125727 -0.266521 0)
(-0.13449 -0.258663 0)
(-0.142849 -0.250267 0)
(-0.150766 -0.241333 0)
(-0.158205 -0.231868 0)
(-0.16513 -0.221891 0)
(-0.171511 -0.211428 0)
(-0.177317 -0.200513 0)
(-0.182523 -0.189188 0)
(-0.187107 -0.177501 0)
(-0.191053 -0.165506 0)
(-0.194349 -0.15326 0)
(-0.196987 -0.140824 0)
(-0.198968 -0.128257 0)
(-0.200296 -0.115623 0)
(-0.200981 -0.10298 0)
(-0.20104 -0.0903866 0)
(-0.200492 -0.0778974 0)
(-0.199363 -0.0655627 0)
(-0.197682 -0.0534285 0)
(-0.19548 -0.0415357 0)
(-0.192794 -0.0299201 0)