/*--------------------------------*- C++ -*----------------------------------*\
  =========                 |
  \\      /  F ield         | OpenFOAM: The Open Source CFD Toolbox
   \\    /   O peration     | Website:  https://openfoam.org
    \\  /    A nd           | Version:  9
     \\/     M anipulation  |
\*---------------------------------------------------------------------------*/
FoamFile
{
    format      ascii;
    class       volScalarField;
    location    "0.2";
    object      epsilon;
}
// * * * * * * * * * * * * * * * * * * * * * * * * * * * * * * * * * * * * * //

dimensions      [0 2 -3 0 0 0 0];

internalField   nonuniform List<scalar> 
1915
(
0.554918
0.628708
0.699505
0.758293
0.795834
0.805546
0.786003
0.74131
0.679048
0.607925
0.534675
0.464595
0.401201
0.346307
0.300366
0.262893
0.232873
0.209086
0.190319
0.17548
0.163641
0.154047
0.146096
0.139323
0.133374
0.876238
0.324951
0.218403
0.179237
0.16111
0.152896
0.150528
0.152213
0.157154
0.165085
0.176047
0.190298
0.20824
0.230302
0.257056
0.289119
0.327065
0.371344
0.422031
0.478454
0.538706
0.599073
0.653913
0.696363
0.720054
0.721016
0.699048
0.657734
0.603101
0.541855
0.479305
0.419662
0.365709
0.318857
0.279422
0.246982
0.220703
0.1996
0.182692
0.169094
0.158052
0.148949
0.141291
0.134696
0.128879
0.914766
0.322129
0.215115
0.176609
0.159338
0.152064
0.150718
0.153494
0.159572
0.16863
0.180635
0.195759
0.214296
0.236604
0.263086
0.294138
0.330059
0.370921
0.416357
0.465269
0.515498
0.563597
0.604965
0.634557
0.648109
0.643361
0.620795
0.583502
0.536242
0.484075
0.431124
0.380682
0.33494
0.295008
0.261134
0.232982
0.209895
0.19109
0.175786
0.163275
0.152948
0.144302
0.136936
0.130537
0.124872
0.949155
0.323769
0.214795
0.176034
0.158959
0.152076
0.151264
0.154688
0.161476
0.171241
0.183882
0.199471
0.218188
0.240265
0.265938
0.295389
0.328661
0.365529
0.405331
0.446764
0.487713
0.525205
0.555656
0.575472
0.581886
0.573736
0.551837
0.518799
0.478351
0.434253
0.389671
0.347158
0.308428
0.274371
0.2452
0.220673
0.20029
0.183442
0.169519
0.157956
0.148265
0.140043
0.132962
0.126767
0.121265
0.975349
0.327401
0.216115
0.176949
0.159791
0.152938
0.152252
0.155894
0.162958
0.173003
0.185851
0.201477
0.219943
0.241345
0.265757
0.293171
0.323421
0.356071
0.390299
0.424771
0.457576
0.486281
0.508192
0.520815
0.52243
0.51255
0.492106
0.463254
0.428885
0.39177
0.354323
0.318511
0.28568
0.256549
0.231321
0.209838
0.191734
0.176548
0.163807
0.153068
0.143945
0.136112
0.129306
0.123318
0.117989
0.992037
0.330548
0.218107
0.178757
0.161464
0.154456
0.153624
0.157152
0.164124
0.174061
0.186716
0.201977
0.219798
0.240147
0.262955
0.288059
0.315137
0.343627
0.372652
0.400956
0.426904
0.448578
0.464011
0.471521
0.470089
0.459627
0.441052
0.416108
0.38702
0.35582
0.324347
0.294115
0.266185
0.241148
0.219203
0.200264
0.184075
0.170296
0.158568
0.148547
0.139929
0.132456
0.125915
0.120136
0.114987
1.00043
0.332609
0.220146
0.180932
0.16358
0.156358
0.155229
0.158418
0.165019
0.174532
0.18666
0.201218
0.21807
0.237076
0.258053
0.280721
0.304657
0.329241
0.353613
0.376652
0.397012
0.413225
0.423884
0.427887
0.424671
0.414365
0.3978
0.376369
0.351771
0.325503
0.298965
0.273328
0.249435
0.227779
0.208555
0.191738
0.177158
0.164572
0.153715
0.144323
0.136161
0.129024
0.122741
0.117172
0.112209
1.00139
0.333327
0.221788
0.183027
0.165747
0.158337
0.156849
0.159567
0.165611
0.17447
0.185819
0.199419
0.215064
0.232534
0.251561
0.271788
0.29274
0.313787
0.334129
0.352803
0.368729
0.380802
0.388037
0.389731
0.385603
0.375885
0.361296
0.342934
0.322097
0.299893
0.277396
0.255519
0.234934
0.216062
0.199094
0.184049
0.170826
0.159261
0.149161
0.140329
0.132585
0.125767
0.119738
0.114384
0.109614
0.995561
0.332562
0.222723
0.18469
0.167622
0.160086
0.158239
0.160428
0.165804
0.173864
0.184266
0.196737
0.211025
0.226855
0.243906
0.26178
0.279982
0.297909
0.314844
0.329976
0.342452
0.351452
0.356293
0.356536
0.352073
0.343164
0.330416
0.314687
0.29697
0.278096
0.258895
0.240085
0.222214
0.205639
0.190549
0.176995
0.16493
0.15425
0.14482
0.136498
0.129146
0.122639
0.116866
0.111734
0.107165
0.983544
0.330278
0.222761
0.185666
0.16893
0.16134
0.159164
0.160813
0.165472
0.172655
0.182015
0.193264
0.206121
0.220284
0.235403
0.251068
0.266795
0.282021
0.296119
0.308418
0.318248
0.325003
0.32821
0.3276
0.323161
0.315148
0.304058
0.290564
0.275427
0.25928
0.242773
0.226477
0.210841
0.196178
0.182669
0.170387
0.159328
0.149433
0.140613
0.132768
0.125796
0.1196
0.114091
0.109191
0.104832
0.965976
0.326532
0.221819
0.185806
0.169484
0.161901
0.159435
0.160557
0.164492
0.17077
0.179051
0.189044
0.20046
0.212985
0.226265
0.239898
0.253426
0.26634
0.2781
0.28815
0.295966
0.301097
0.303212
0.302151
0.297948
0.290833
0.28121
0.269606
0.25661
0.242711
0.228423
0.214207
0.200437
0.187386
0.175231
0.164059
0.153895
0.144716
0.13647
0.129087
0.122495
0.116617
0.111384
0.106728
0.102592
0.943608
0.321457
0.219902
0.185051
0.169186
0.161647
0.158924
0.159545
0.162768
0.168147
0.175354
0.184103
0.194109
0.205065
0.216628
0.228416
0.240008
0.250953
0.260787
0.269053
0.275337
0.279296
0.280698
0.279445
0.27559
0.269331
0.260994
0.250994
0.239791
0.227766
0.215331
0.202864
0.19068
0.17902
0.168052
0.157875
0.148533
0.140029
0.132337
0.125416
0.119211
0.113667
0.108725
0.104329
0.100427
0.917308
0.315248
0.217089
0.183423
0.168019
0.160537
0.157577
0.157721
0.160259
0.164765
0.170928
0.178474
0.187133
0.196611
0.206589
0.216714
0.226607
0.235873
0.244115
0.250956
0.256063
0.259174
0.260118
0.258833
0.255375
0.249909
0.242698
0.234067
0.224382
0.213949
0.203094
0.192129
0.181324
0.170894
0.160997
0.151736
0.14317
0.135321
0.128182
0.12173
0.115929
0.110735
0.106102
0.101982
0.0983272
0.888014
0.308144
0.213513
0.181009
0.166039
0.158605
0.155416
0.155101
0.156981
0.160651
0.165815
0.172219
0.179608
0.187712
0.196239
0.204871
0.213271
0.221097
0.22801
0.233698
0.237888
0.240375
0.241027
0.239803
0.236752
0.23201
0.225784
0.218333
0.209943
0.200898
0.19142
0.181778
0.172203
0.162888
0.153982
0.145588
0.137774
0.130572
0.123992
0.118025
0.112645
0.10782
0.103513
0.0996829
0.096287
0.856685
0.300401
0.209338
0.177941
0.163357
0.155944
0.15252
0.15176
0.153011
0.155885
0.160107
0.165437
0.171643
0.178481
0.185687
0.19298
0.200065
0.206646
0.212436
0.217173
0.220633
0.222648
0.223113
0.221998
0.219343
0.215255
0.209899
0.203482
0.196234
0.188397
0.180139
0.171682
0.163228
0.154948
0.146977
0.139419
0.132343
0.125791
0.11978
0.114311
0.10937
0.104931
0.100965
0.0974363
0.0943076
0.824249
0.292275
0.204746
0.174377
0.160119
0.15269
0.149019
0.147824
0.148473
0.150597
0.153935
0.158268
0.163383
0.169061
0.17507
0.181163
0.187086
0.192583
0.197411
0.201348
0.20421
0.205856
0.2062
0.205214
0.202928
0.199428
0.194844
0.18934
0.183106
0.176338
0.169178
0.161804
0.154388
0.14708
0.140004
0.133259
0.126912
0.12101
0.115576
0.110618
0.106127
0.102086
0.0984709
0.095251
0.0923944
0.791546
0.284005
0.199913
0.170485
0.156487
0.149005
0.145072
0.143451
0.143528
0.144949
0.147467
0.150881
0.154998
0.159623
0.164553
0.169573
0.174466
0.179013
0.183007
0.186262
0.188622
0.189968
0.190227
0.189372
0.187425
0.184451
0.180552
0.175859
0.170524
0.164706
0.158554
0.152179
0.145732
0.139343
0.133125
0.127168
0.121539
0.116283
0.111428
0.106983
0.102948
0.0993104
0.0960494
0.0931405
0.0905564
0.759294
0.275797
0.195003
0.166426
0.152627
0.145057
0.140853
0.138816
0.138352
0.13912
0.140885
0.143461
0.146673
0.150351
0.154314
0.158381
0.162363
0.166075
0.169343
0.172008
0.173939
0.175033
0.175228
0.174498
0.172854
0.170348
0.167057
0.163087
0.158559
0.153605
0.148358
0.1429
0.137353
0.131831
0.12643
0.121232
0.1163
0.111676
0.10739
0.103455
0.0998719
0.0966328
0.0937224
0.0911207
0.0888043
0.728063
0.267816
0.190154
0.162344
0.148694
0.141008
0.136528
0.134092
0.133123
0.13329
0.134371
0.136192
0.138594
0.141427
0.144534
0.147758
0.150939
0.153921
0.156555
0.158708
0.160267
0.161147
0.16129
0.160672
0.159298
0.157204
0.154453
0.151125
0.147319
0.143141
0.138701
0.134084
0.129369
0.124653
0.120021
0.115543
0.111276
0.10726
0.103523
0.100081
0.0969352
0.094083
0.0915124
0.0892075
0.0871494
0.698273
0.260186
0.185476
0.158358
0.144818
0.137
0.132247
0.129434
0.127999
0.127622
0.12809
0.129239
0.130926
0.133015
0.135372
0.137861
0.140344
0.142691
0.144775
0.146485
0.147724
0.148418
0.148517
0.147997
0.146859
0.145128
0.14285
0.14009
0.136924
0.133437
0.129719
0.125856
0.121898
0.117921
0.113998
0.110189
0.106544
0.1031
0.0998812
0.0969039
0.0941734
0.0916878
0.0894392
0.0874155
0.0856016
0.670194
0.252989
0.181047
0.154561
0.141103
0.133147
0.128133
0.124969
0.123112
0.12225
0.122176
0.122738
0.123802
0.125248
0.126957
0.128812
0.130696
0.132497
0.13411
0.135439
0.136403
0.136939
0.137001
0.136566
0.135631
0.134214
0.132349
0.130084
0.12748
0.124603
0.121526
0.11832
0.115038
0.111727
0.108446
0.105246
0.10217
0.0992493
0.0965083
0.0939613
0.0916148
0.089469
0.0875191
0.0857563
0.0841689
0.643962
0.246273
0.176918
0.151014
0.137623
0.129533
0.124276
0.120796
0.118564
0.117275
0.116732
0.116787
0.117318
0.118216
0.119374
0.120691
0.122068
0.123409
0.124623
0.125631
0.126363
0.126764
0.126794
0.126432
0.125672
0.124524
0.123013
0.121175
0.119056
0.11671
0.114191
0.111558
0.108864
0.106137
0.103424
0.100766
0.0981975
0.0957476
0.0934365
0.0912779
0.0892789
0.0874414
0.0857628
0.0842372
0.0828562
0.619624
0.240058
0.17312
0.147756
0.134426
0.126212
0.120737
0.116977
0.114417
0.112761
0.111817
0.111444
0.111527
0.111965
0.112664
0.113534
0.114489
0.115446
0.11633
0.117071
0.11761
0.1179
0.117905
0.117605
0.116992
0.116072
0.11486
0.113385
0.11168
0.109786
0.107746
0.105605
0.103407
0.101186
0.0989642
0.0967768
0.0946526
0.0926151
0.0906824
0.0888668
0.0871758
0.0856122
0.0841753
0.0828616
0.0816652
0.597175
0.234349
0.16966
0.144803
0.131535
0.123213
0.117547
0.113544
0.110704
0.108738
0.107458
0.106729
0.106441
0.106501
0.106823
0.107328
0.107938
0.108584
0.109198
0.109723
0.110105
0.110306
0.110292
0.110045
0.109555
0.108824
0.107862
0.106689
0.10533
0.103816
0.102179
0.100454
0.0986756
0.0968757
0.0950697
0.0932829
0.0915382
0.0898548
0.0882483
0.0867296
0.0853061
0.0839813
0.0827559
0.0816282
0.0805945
0.576594
0.229138
0.166536
0.142157
0.128953
0.120543
0.114713
0.110505
0.10743
0.105206
0.10365
0.10263
0.102041
0.101796
0.101816
0.102027
0.102362
0.102758
0.103158
0.10351
0.103769
0.103899
0.103872
0.103669
0.103281
0.102705
0.101948
0.101024
0.0999499
0.0987486
0.0974447
0.0960644
0.0946338
0.093178
0.0917188
0.0902665
0.0888398
0.0874547
0.086124
0.0848577
0.0836625
0.0825424
0.0814992
0.0805324
0.0796398
0.557851
0.224414
0.163738
0.139807
0.126674
0.118193
0.112228
0.107849
0.10458
0.102146
0.100366
0.0991124
0.0982843
0.0977973
0.0975775
0.0975579
0.0976769
0.0978782
0.0981104
0.0983279
0.0984911
0.0985677
0.0985321
0.0983667
0.0980609
0.0976111
0.0970203
0.0962966
0.0954528
0.094505
0.0934714
0.0923717
0.0912259
0.0900535
0.0888732
0.0876944
0.0865296
0.0853912
0.0842901
0.0832348
0.0822315
0.0812845
0.0803959
0.0795663
0.0787949
0.540902
0.220167
0.161254
0.137742
0.124682
0.116147
0.110072
0.105553
0.102127
0.0995236
0.097566
0.0961283
0.0951124
0.094437
0.0940318
0.093834
0.0937867
0.0938382
0.0939421
0.0940572
0.0941479
0.0941848
0.0941445
0.09401
0.0937707
0.0934214
0.0929624
0.0923983
0.0917377
0.0909919
0.0901744
0.0892996
0.0883826
0.0874384
0.0864811
0.0855235
0.0845711
0.0836341
0.0827212
0.08184
0.0809959
0.0801932
0.0794343
0.0787206
0.078052
0.525706
0.21639
0.159076
0.135949
0.122962
0.114387
0.108223
0.103592
0.100039
0.0973016
0.0952046
0.0936239
0.0924634
0.0916439
0.0910975
0.0907644
0.0905912
0.0905298
0.0905371
0.0905754
0.0906121
0.0906201
0.0905776
0.0904685
0.0902817
0.0900112
0.0896553
0.0892161
0.0886991
0.088112
0.0874644
0.0867671
0.0860314
0.0852689
0.0844905
0.0837069
0.0829246
0.0821496
0.0813894
0.08065
0.0799366
0.079253
0.0786019
0.0779849
0.0774026
0.512255
0.213093
0.157206
0.134423
0.121502
0.112896
0.10666
0.101937
0.0982846
0.0954418
0.0932371
0.0915474
0.0902774
0.0893494
0.0886972
0.0882632
0.0879962
0.0878506
0.0877862
0.0877676
0.0877644
0.0877514
0.0877081
0.0876189
0.0874728
0.0872629
0.0869863
0.0866433
0.0862369
0.0857724
0.0852565
0.0846973
0.0841032
0.0834831
0.0828456
0.082199
0.0815511
0.0809051
0.080267
0.079642
0.0790346
0.0784483
0.0778857
0.0773487
0.0768382
0.500611
0.210309
0.155658
0.133167
0.120299
0.111663
0.105365
0.100567
0.0968353
0.093911
0.0916245
0.0898529
0.0885016
0.0874935
0.0867635
0.0862552
0.085919
0.0857114
0.085594
0.0855333
0.0855006
0.085472
0.085428
0.0853537
0.0852379
0.0850735
0.0848566
0.084586
0.0842633
0.0838918
0.0834763
0.0830226
0.0825373
0.0820271
0.081499
0.0809596
0.0804154
0.0798707
0.0793292
0.0787953
0.0782727
0.0777648
0.0772741
0.0768023
0.0763508
0.490944
0.208112
0.154475
0.132204
0.119361
0.110688
0.10433
0.0994681
0.0956714
0.092684
0.090336
0.0885044
0.0870942
0.0860283
0.085242
0.0846798
0.0842933
0.0840402
0.0838835
0.0837913
0.0837361
0.0836951
0.0836498
0.0835854
0.0834911
0.0833595
0.0831859
0.0829684
0.0827073
0.0824046
0.0820636
0.0816887
0.0812849
0.0808577
0.0804125
0.0799549
0.0794901
0.0790229
0.078556
0.0780929
0.0776369
0.0771909
0.0767572
0.0763377
0.0759336
0.483568
0.206647
0.153742
0.131587
0.118719
0.109984
0.10356
0.0986348
0.0947821
0.0917447
0.0893511
0.0874767
0.0860253
0.0849192
0.0840936
0.0834932
0.0830705
0.082784
0.082598
0.0824815
0.0824084
0.0823566
0.0823083
0.0822492
0.0821687
0.082059
0.0819152
0.0817347
0.0815171
0.0812632
0.0809754
0.080657
0.080312
0.0799448
0.07956
0.0791621
0.0787558
0.0783451
0.0779335
0.0775233
0.0771173
0.0767181
0.0763279
0.0759484
0.075581
0.479017
0.206166
0.153617
0.131414
0.118433
0.109586
0.10307
0.0980733
0.0941662
0.091087
0.0886596
0.0867562
0.0852781
0.084146
0.0832945
0.0826682
0.08222
0.0819092
0.081701
0.0815654
0.081477
0.0814149
0.0813616
0.0813034
0.0812298
0.0811329
0.0810076
0.0808509
0.0806615
0.0804397
0.0801872
0.0799064
0.0796006
0.0792734
0.0789288
0.0785709
0.0782036
0.0778309
0.0774561
0.0770816
0.0767096
0.0763426
0.0759824
0.0756308
0.0752894
0.478194
0.207101
0.154358
0.131842
0.118595
0.109548
0.102891
0.0977993
0.093831
0.0907129
0.0882606
0.0863397
0.0848473
0.0837017
0.0828358
0.0821939
0.081729
0.0814011
0.081176
0.0810248
0.0809231
0.0808504
0.0807901
0.0807288
0.0806562
0.0805644
0.0804482
0.080304
0.0801303
0.0799266
0.0796941
0.0794344
0.0791503
0.078845
0.078522
0.0781851
0.0778381
0.0774846
0.0771282
0.0767714
0.0764166
0.0760659
0.0757213
0.0753845
0.0750573
0.482606
0.210149
0.156363
0.133102
0.119335
0.10994
0.103059
0.0978322
0.0937869
0.0906292
0.0881591
0.0862318
0.0847376
0.0835905
0.0827213
0.0820735
0.0816001
0.0812615
0.0810244
0.0808608
0.0807472
0.0806639
0.0805949
0.0805272
0.0804509
0.080358
0.0802432
0.0801026
0.0799341
0.0797369
0.0795113
0.0792585
0.0789806
0.0786803
0.078361
0.0780261
0.0776796
0.0773252
0.0769667
0.0766075
0.0762502
0.0758971
0.0755507
0.075213
0.074886
0.494732
0.216399
0.160202
0.135488
0.1208
0.11083
0.103604
0.0981833
0.0940396
0.090841
0.0883622
0.0864419
0.0849604
0.0838257
0.0829658
0.0823229
0.0818497
0.0815073
0.0812634
0.081091
0.0809674
0.080874
0.0807955
0.0807195
0.0806361
0.0805378
0.0804188
0.0802751
0.080104
0.0799041
0.0796749
0.079417
0.0791317
0.0788211
0.0784879
0.0781356
0.0777682
0.0773899
0.0770052
0.0766185
0.0762337
0.0758543
0.0754836
0.0751245
0.0747799
0.518652
0.227473
0.166606
0.13931
0.123099
0.112238
0.104514
0.0988346
0.0945752
0.0913423
0.0888718
0.0869792
0.0855307
0.084427
0.0835923
0.0829674
0.0825051
0.0821675
0.0819233
0.0817467
0.0816164
0.0815149
0.0814275
0.0813427
0.081251
0.081145
0.0810188
0.0808681
0.0806897
0.0804814
0.0802417
0.0799702
0.0796669
0.0793328
0.0789696
0.0785803
0.0781686
0.0777395
0.0772985
0.0768518
0.0764061
0.0759672
0.0755409
0.0751325
0.0747461
0.561542
0.245695
0.176349
0.14474
0.126184
0.114059
0.105687
0.0997081
0.0953431
0.092106
0.0896797
0.0878493
0.0864645
0.0854178
0.0846296
0.08404
0.0836026
0.0832806
0.0830446
0.0828704
0.0827384
0.0826323
0.0825387
0.0824469
0.0823479
0.0822347
0.0821015
0.0819435
0.0817572
0.0815393
0.0812873
0.0809989
0.0806724
0.0803067
0.0799014
0.0794574
0.0789774
0.078466
0.0779303
0.0773797
0.0768253
0.0762792
0.0757526
0.0752552
0.0747941
0.637146
0.274189
0.189889
0.151484
0.129632
0.115932
0.106861
0.100633
0.0962404
0.0930782
0.0907654
0.0890542
0.0877789
0.086825
0.0861115
0.0855793
0.085184
0.0848913
0.0846743
0.0845112
0.0843845
0.0842795
0.0841846
0.0840901
0.0839878
0.0838712
0.0837348
0.0835739
0.0833841
0.0831616
0.0829023
0.0826019
0.0822561
0.0818602
0.0814096
0.0809007
0.0803318
0.0797044
0.0790257
0.0783091
0.0775748
0.076849
0.0761552
0.0755123
0.0749318
0.772168
0.31649
0.206396
0.158141
0.132315
0.117092
0.107562
0.101332
0.0971174
0.0941879
0.0921057
0.0905998
0.0894967
0.0886821
0.0880779
0.0876292
0.0872961
0.0870484
0.086863
0.0867213
0.0866085
0.0865125
0.0864234
0.0863329
0.0862343
0.0861218
0.0859904
0.0858356
0.0856531
0.0854382
0.0851857
0.0848895
0.0845418
0.0841333
0.0836525
0.0830868
0.0824233
0.0816523
0.0807729
0.0797996
0.0787696
0.0777466
0.0767838
0.0759161
0.0751591
1.02099
0.373971
0.221242
0.161049
0.132004
0.116301
0.107137
0.10148
0.0978299
0.0953875
0.0937038
0.0925147
0.0916595
0.0910362
0.0905782
0.09024
0.0899892
0.0898024
0.0896613
0.0895519
0.0894629
0.089385
0.0893106
0.0892335
0.0891484
0.0890508
0.0889367
0.0888023
0.0886437
0.0884564
0.088235
0.087972
0.0876576
0.0872776
0.0868125
0.086236
0.0855138
0.0846056
0.0834741
0.0821069
0.0805606
0.0790334
0.0776456
0.0764498
0.0754534
1.54177
0.43277
0.219818
0.152898
0.12543
0.112165
0.10504
0.100911
0.0983721
0.0967354
0.0956387
0.0948808
0.0943446
0.0939585
0.0936774
0.0934712
0.0933189
0.0932054
0.0931195
0.0930521
0.0929961
0.0929458
0.0928963
0.0928436
0.0927844
0.0927157
0.0926349
0.0925395
0.0924267
0.0922935
0.0921355
0.0919466
0.0917175
0.0914338
0.0910723
0.0905958
0.0899436
0.0890187
0.0876753
0.0857304
0.083105
0.0806794
0.0786509
0.0770257
0.0757501
3.2142
0.386551
0.167795
0.124404
0.110324
0.104437
0.101563
0.0999991
0.099077
0.0984992
0.0981199
0.097862
0.0976821
0.0975546
0.0974634
0.0973978
0.0973506
0.0973166
0.0972918
0.0972729
0.0972575
0.0972435
0.0972292
0.0972131
0.0971939
0.0971707
0.0971425
0.0971084
0.0970675
0.0970189
0.0969611
0.0968918
0.0968077
0.0967024
0.096564
0.0963684
0.0960636
0.0955282
0.0944623
0.0920926
0.086215
0.0822574
0.079461
0.077432
0.0759347
)
;

boundaryField
{
    leftWall
    {
        type            epsilonWallFunction;
        value           nonuniform List<scalar> 
42
(
0.876238
0.914766
0.949155
0.975349
0.992037
1.00043
1.00139
0.995561
0.983544
0.965976
0.943608
0.917308
0.888014
0.856685
0.824249
0.791546
0.759294
0.728063
0.698273
0.670194
0.643962
0.619624
0.597175
0.576594
0.557851
0.540902
0.525706
0.512255
0.500611
0.490944
0.483568
0.479017
0.478194
0.482606
0.494732
0.518652
0.561542
0.637146
0.772168
1.02099
1.54177
3.2142
)
;
    }
    rightWall
    {
        type            epsilonWallFunction;
        value           nonuniform List<scalar> 0();
    }
    lowerWall
    {
        type            epsilonWallFunction;
        value           nonuniform List<scalar> 0();
    }
    atmosphere
    {
        type            inletOutlet;
        inletValue      uniform 0.1;
        value           nonuniform List<scalar> 
45
(
0.1
0.1
0.1
0.1
0.1
0.1
0.1
0.1
0.1
0.1
0.1
0.1
0.1
0.1
0.1
0.1
0.1
0.1
0.1
0.1
0.1
0.1
0.1
0.1
0.1
0.1
0.1
0.1
0.1
0.1
0.1
0.1
0.1
0.1
0.1
0.1
0.1
0.1
0.1
0.1
0.086215
0.0822574
0.079461
0.077432
0.0759347
)
;
    }
    defaultFaces
    {
        type            empty;
    }
    procBoundary2to0
    {
        type            processor;
        value           nonuniform List<scalar> 
46
(
0.5619
0.649254
0.737978
0.816733
0.872538
0.894854
0.880215
0.833317
0.763666
0.682272
0.597498
0.515889
0.441851
0.377752
0.324287
0.280959
0.246581
0.219679
0.198769
0.182518
0.169796
0.159682
0.151449
0.144532
0.138501
0.835502
0.330526
0.224747
0.183818
0.164015
0.154275
0.150441
0.150675
0.154178
0.160713
0.170368
0.183437
0.200364
0.221692
0.248132
0.280507
0.319615
0.366347
0.421355
0.484629
0.484629
)
;
    }
    procBoundary2to3
    {
        type            processor;
        value           nonuniform List<scalar> 
43
(
0.128033
0.12365
0.119777
0.116321
0.113206
0.110372
0.107769
0.105354
0.103093
0.100956
0.0989216
0.0969715
0.095095
0.093286
0.0915432
0.0898691
0.0882688
0.0867494
0.085318
0.0839812
0.0827442
0.0816098
0.0805789
0.0796496
0.0788183
0.0780798
0.0774275
0.0768547
0.0763544
0.0759201
0.0755457
0.0752266
0.0749589
0.0747406
0.0745711
0.0744515
0.0743844
0.0743728
0.0744177
0.0745132
0.0746399
0.0747582
0.0748173
)
;
    }
}


// ************************************************************************* //
