/*--------------------------------*- C++ -*----------------------------------*\
  =========                 |
  \\      /  F ield         | OpenFOAM: The Open Source CFD Toolbox
   \\    /   O peration     | Website:  https://openfoam.org
    \\  /    A nd           | Version:  9
     \\/     M anipulation  |
\*---------------------------------------------------------------------------*/
FoamFile
{
    format      ascii;
    class       volScalarField;
    location    "0.2";
    object      p_rgh;
}
// * * * * * * * * * * * * * * * * * * * * * * * * * * * * * * * * * * * * * //

dimensions      [1 -1 -2 0 0 0 0];

internalField   nonuniform List<scalar> 
1915
(
-0.504507
-0.520971
-0.530943
-0.531847
-0.522806
-0.504451
-0.476887
-0.44136
-0.399039
-0.35127
-0.299598
-0.245648
-0.190988
-0.13706
-0.0851205
-0.0362023
0.008881
0.049502
0.0851878
0.115604
0.14055
0.159957
0.173869
0.182417
0.185845
-0.0626093
-0.0724409
-0.0751993
-0.0817564
-0.0917094
-0.105782
-0.123863
-0.145321
-0.169295
-0.194877
-0.221307
-0.247982
-0.274473
-0.300619
-0.326467
-0.352076
-0.377368
-0.401999
-0.425243
-0.446112
-0.463573
-0.476533
-0.483668
-0.483404
-0.474936
-0.458201
-0.433564
-0.401776
-0.363849
-0.321
-0.274628
-0.226205
-0.177146
-0.128754
-0.082157
-0.0382793
0.00215146
0.0385757
0.0705748
0.0978577
0.120259
0.137737
0.150365
0.158266
0.161565
-0.0680656
-0.0782437
-0.0817061
-0.0890364
-0.098771
-0.111617
-0.127633
-0.1464
-0.167266
-0.189545
-0.212628
-0.236028
-0.259409
-0.282624
-0.305635
-0.328378
-0.350645
-0.372049
-0.391967
-0.409552
-0.42389
-0.434075
-0.438992
-0.437574
-0.42921
-0.413703
-0.391279
-0.362552
-0.328428
-0.289993
-0.248501
-0.205255
-0.161506
-0.118394
-0.0769036
-0.037847
-0.00187075
0.0305268
0.0589776
0.0832329
0.103158
0.118728
0.130018
0.13715
0.140209
-0.0695678
-0.0775636
-0.0839051
-0.0919659
-0.101824
-0.113953
-0.128453
-0.145066
-0.16333
-0.182724
-0.202789
-0.223183
-0.243669
-0.264098
-0.284344
-0.304234
-0.3235
-0.341757
-0.358474
-0.373002
-0.384602
-0.39245
-0.395634
-0.393358
-0.38507
-0.37057
-0.350041
-0.324032
-0.293357
-0.258988
-0.222038
-0.183646
-0.144894
-0.106762
-0.0700979
-0.035607
-0.00385638
0.0247146
0.0497845
0.0711422
0.0886779
0.102374
0.112296
0.118554
0.121232
-0.0659956
-0.073552
-0.0816876
-0.090793
-0.100982
-0.112697
-0.126068
-0.140945
-0.157012
-0.173909
-0.191339
-0.209074
-0.226931
-0.24473
-0.262279
-0.279361
-0.295722
-0.311028
-0.324851
-0.336681
-0.345901
-0.351787
-0.35359
-0.350625
-0.34243
-0.328851
-0.310073
-0.286594
-0.259147
-0.228599
-0.195916
-0.162078
-0.128009
-0.0945404
-0.0623968
-0.032185
-0.00439832
0.0205798
0.0424699
0.0610907
0.0763492
0.0882296
0.0967823
0.102105
0.104299
-0.0587343
-0.066629
-0.0760455
-0.0861461
-0.0967392
-0.108224
-0.120745
-0.134219
-0.148453
-0.16325
-0.178442
-0.19387
-0.209359
-0.224701
-0.239683
-0.254103
-0.267761
-0.280405
-0.291699
-0.301204
-0.308375
-0.312585
-0.313187
-0.309623
-0.301539
-0.288847
-0.27174
-0.250673
-0.226293
-0.199356
-0.170686
-0.141107
-0.111398
-0.0822595
-0.0543066
-0.0280595
-0.00394436
0.0177055
0.0366465
0.0527193
0.0658405
0.0759908
0.0832043
0.0875709
0.0892248
-0.0488797
-0.0572862
-0.067728
-0.0786853
-0.0896754
-0.101026
-0.112879
-0.125211
-0.137951
-0.15103
-0.164357
-0.177792
-0.191152
-0.204234
-0.216855
-0.228866
-0.240129
-0.250458
-0.259571
-0.267069
-0.272459
-0.275193
-0.274741
-0.270679
-0.262759
-0.250958
-0.235477
-0.216723
-0.195253
-0.171709
-0.146778
-0.121143
-0.0954488
-0.0702849
-0.04617
-0.0235488
-0.00278858
0.0158204
0.0320635
0.0457976
0.0569437
0.0654769
0.071417
0.0748494
0.0759462
-0.0372413
-0.0461266
-0.0573855
-0.069031
-0.0803338
-0.0915534
-0.102839
-0.114235
-0.125775
-0.137466
-0.149238
-0.160945
-0.172407
-0.183464
-0.193999
-0.203924
-0.213148
-0.221519
-0.228778
-0.234556
-0.238409
-0.239881
-0.238561
-0.234145
-0.226483
-0.215604
-0.201709
-0.185155
-0.166411
-0.146007
-0.124506
-0.102465
-0.0804149
-0.0588466
-0.0381969
-0.018845
-0.00110846
0.0147584
0.0285643
0.0401787
0.0495259
0.0565771
0.0613415
0.0639016
0.0644575
-0.0245284
-0.0337586
-0.0456246
-0.0577571
-0.0692313
-0.0802679
-0.0910435
-0.101672
-0.112246
-0.122794
-0.133239
-0.143431
-0.153223
-0.162522
-0.171284
-0.179471
-0.187016
-0.193771
-0.199487
-0.203828
-0.206411
-0.20687
-0.204904
-0.20031
-0.193018
-0.183094
-0.170735
-0.156244
-0.140008
-0.12246
-0.10405
-0.0852296
-0.0664335
-0.0480676
-0.0305
-0.0140556
0.000989401
0.0144108
0.0260374
0.0357508
0.0434806
0.0491979
0.0529071
0.0546864
0.0547435
-0.0113223
-0.0207502
-0.0329976
-0.0453933
-0.0568809
-0.0676762
-0.0779942
-0.0879854
-0.0977495
-0.1073
-0.116559
-0.125404
-0.133749
-0.141574
-0.148887
-0.155682
-0.161887
-0.167347
-0.171819
-0.175004
-0.176587
-0.176287
-0.173897
-0.1693
-0.162485
-0.153542
-0.142653
-0.130073
-0.116114
-0.101121
-0.0854542
-0.0694757
-0.0535405
-0.0379864
-0.0231261
-0.00924008
0.00343015
0.0146867
0.0243784
0.0324005
0.0386916
0.0432267
0.0460106
0.0471143
0.0467301
0.00186637
-0.00761957
-0.0200111
-0.0324468
-0.043805
-0.0543141
-0.0642129
-0.073642
-0.0826695
-0.0912935
-0.0994605
-0.107115
-0.114245
-0.120884
-0.127069
-0.132788
-0.137951
-0.14239
-0.145874
-0.148147
-0.148964
-0.148127
-0.14551
-0.141064
-0.134817
-0.126869
-0.117379
-0.106554
-0.0946389
-0.0819066
-0.0686432
-0.0551412
-0.0416934
-0.0285852
-0.0160859
-0.00443936
0.00614312
0.0154894
0.0234692
0.0299942
0.0350148
0.0385134
0.0404976
0.0410281
0.0402624
0.0145653
0.00516091
-0.00715402
-0.0194386
-0.0305553
-0.0407384
-0.0502187
-0.0590979
-0.0674088
-0.0751542
-0.082336
-0.0889778
-0.0951306
-0.100855
-0.10618
-0.111068
-0.115405
-0.119015
-0.121693
-0.123238
-0.123476
-0.122287
-0.119611
-0.115446
-0.10984
-0.102887
-0.0947168
-0.0854887
-0.0753922
-0.064641
-0.0534653
-0.0421059
-0.0308104
-0.019825
-0.00938397
0.000300089
0.00904489
0.0167042
0.0231703
0.0283729
0.0322753
0.0348683
0.0361635
0.036208
0.0351125
0.026372
0.0171789
0.00511345
-0.00688233
-0.0176754
-0.027484
-0.0365065
-0.0448088
-0.0524119
-0.0593489
-0.0656838
-0.0715027
-0.0768912
-0.0819057
-0.0865463
-0.0907437
-0.0943692
-0.0972611
-0.0992558
-0.100213
-0.10003
-0.0986508
-0.0960613
-0.0922837
-0.0873685
-0.0813899
-0.0744444
-0.0666508
-0.0581538
-0.0491242
-0.0397534
-0.0302462
-0.0208175
-0.0116827
-0.00304593
0.00490965
0.0120303
0.0181962
0.0233221
0.0273558
0.0302731
0.0320724
0.0327683
0.0323928
0.0310061
0.0370021
0.0281188
0.0164252
0.00481485
-0.0055864
-0.0149594
-0.0234679
-0.0311672
-0.0380954
-0.0443257
-0.0499665
-0.0551315
-0.0599079
-0.0643291
-0.068364
-0.0719256
-0.0748935
-0.0771403
-0.0785551
-0.079058
-0.0786042
-0.0771801
-0.0747958
-0.0714777
-0.0672636
-0.062204
-0.0563657
-0.0498365
-0.0427302
-0.0351899
-0.0273806
-0.0194826
-0.0116852
-0.00417683
0.00286663
0.00929119
0.0149712
0.0198123
0.0237506
0.0267499
0.0287965
0.0298944
0.0300595
0.0293094
0.0276586
0.0462834
0.0377747
0.026552
0.015418
0.00548256
-0.00339186
-0.0113492
-0.0184559
-0.0247812
-0.0304273
-0.0355155
-0.0401535
-0.0444079
-0.0482864
-0.0517419
-0.0546936
-0.0570509
-0.0587326
-0.0596803
-0.0598633
-0.0592742
-0.0579206
-0.0558169
-0.0529803
-0.0494315
-0.0452002
-0.0403325
-0.0348974
-0.0289913
-0.0227397
-0.0162892
-0.00980089
-0.00344143
0.00262702
0.00825665
0.0133219
0.0177238
0.0213912
0.0242786
0.0263628
0.0276378
0.0281107
0.0277968
0.0267024
0.0248078
0.0541122
0.0460272
0.0353702
0.0248094
0.0154156
0.00708131
-0.000331818
-0.00690647
-0.0127325
-0.017917
-0.0225659
-0.026761
-0.0305422
-0.033902
-0.036799
-0.0391792
-0.040993
-0.0422056
-0.0428016
-0.0427822
-0.0421584
-0.0409414
-0.0391388
-0.036755
-0.0337967
-0.0302812
-0.0262445
-0.021747
-0.0168762
-0.0117455
-0.00648694
-0.0012432
0.00384194
0.00863257
0.0130084
0.0168706
0.0201441
0.0227775
0.0247399
0.0260176
0.0266094
0.0265234
0.0257732
0.0243578
0.0222385
0.0604343
0.052816
0.042804
0.032895
0.0240898
0.0162937
0.00937165
0.00323738
-0.00219604
-0.00701672
-0.0113006
-0.0150994
-0.0184339
-0.021298
-0.0236727
-0.0255403
-0.0268925
-0.0277327
-0.0280741
-0.0279346
-0.0273289
-0.0262633
-0.0247361
-0.0227424
-0.0202825
-0.0173697
-0.0140378
-0.0103446
-0.00637236
-0.00222439
0.00198201
0.00612375
0.0100804
0.0137417
0.0170131
0.0198197
0.0221067
0.0238381
0.024994
0.0255667
0.0255577
0.0249747
0.0238291
0.0221171
0.0197955
0.0652621
0.0581387
0.0488105
0.0395806
0.0313596
0.0240571
0.0175519
0.0117726
0.00665635
0.0021456
-0.00180524
-0.00522606
-0.00813251
-0.0105333
-0.012439
-0.0138669
-0.0148419
-0.0153935
-0.0155507
-0.0153364
-0.0147625
-0.0138289
-0.0125283
-0.010853
-0.00880355
-0.00639535
-0.00366399
-0.000666707
0.00251937
0.0058015
0.00907815
0.0122471
0.015211
0.0178834
0.0201929
0.0220848
0.0235202
0.024475
0.0249366
0.0249014
0.0243719
0.0233547
0.021859
0.0198815
0.0173869
0.0686802
0.0620545
0.0534022
0.0448255
0.0371432
0.0302758
0.0241283
0.0186569
0.0138297
0.00961794
0.00599696
0.00294538
0.000440407
-0.001547
-0.00305409
-0.0041247
-0.0048052
-0.00513923
-0.00516182
-0.00489505
-0.00434693
-0.00351454
-0.0023904
-0.000970018
0.000741217
0.0027228
0.00493641
0.00732605
0.0098209
0.0123402
0.0147991
0.0171157
0.0192149
0.0210318
0.0225146
0.0236246
0.0243356
0.0246319
0.0245063
0.0239576
0.0229885
0.0216042
0.0198113
0.0176098
0.0149792
0.0708218
0.0646734
0.0566604
0.048688
0.0414953
0.0350252
0.0292146
0.0240478
0.0195179
0.0156148
0.0123227
0.00961792
0.0074656
0.00581947
0.00462454
0.00382209
0.0033556
0.00317686
0.00325088
0.00355766
0.00409016
0.00484927
0.00583728
0.00705151
0.00847916
0.0100941
0.011856
0.0137116
0.015598
0.0174474
0.0191921
0.0207691
0.0221236
0.0232095
0.0239909
0.0244423
0.0245471
0.0242962
0.023686
0.0227167
0.021391
0.0197121
0.0176839
0.0153097
0.0125873
0.0718323
0.066132
0.0587179
0.051312
0.044587
0.0385124
0.0330529
0.0282121
0.0239971
0.0204054
0.0174215
0.0150156
0.013144
0.0117517
0.0107763
0.0101551
0.00983037
0.00975537
0.00989704
0.0102354
0.0107603
0.0114658
0.0123454
0.0133871
0.0145701
0.0158635
0.0172262
0.0186095
0.01996
0.0212236
0.0223489
0.0232903
0.0240104
0.0244793
0.0246744
0.0245806
0.0241892
0.0234959
0.0224999
0.0212023
0.0196046
0.017708
0.0155127
0.013025
0.0102595
0.0718517
0.0665741
0.0597307
0.0528772
0.0466271
0.0409702
0.0358876
0.0313922
0.0274961
0.0241973
0.0214784
0.019307
0.0176378
0.0164154
0.0155793
0.0150698
0.0148334
0.0148266
0.0150168
0.0153809
0.0159013
0.0165627
0.0173482
0.0182361
0.0191987
0.0202016
0.0212053
0.0221675
0.0230453
0.023798
0.0243898
0.0247905
0.0249771
0.0249335
0.0246482
0.0241147
0.0233303
0.0222947
0.0210085
0.0194728
0.0176874
0.0156505
0.0133587
0.010819
0.00805938
0.0710192
0.0661474
0.0598582
0.0535562
0.0477963
0.0425767
0.0378847
0.0337357
0.0301423
0.0271021
0.0245986
0.0226026
0.0210736
0.0199618
0.0192132
0.0187743
0.0185969
0.0186392
0.0188662
0.0192486
0.0197597
0.020374
0.0210647
0.021802
0.0225533
0.0232839
0.023958
0.024541
0.0250011
0.0253107
0.0254475
0.0253951
0.0251426
0.0246844
0.0240187
0.0231455
0.0220666
0.0207839
0.0192988
0.0176108
0.0157175
0.0136137
0.0112918
0.00875817
0.00604836
0.0694785
0.0650003
0.059251
0.0534941
0.0482257
0.0434422
0.0391324
0.0353126
0.0319953
0.0291802
0.0268561
0.0250008
0.0235807
0.0225534
0.0218721
0.0214893
0.0213596
0.0214402
0.0216917
0.0220773
0.0225618
0.023111
0.0236906
0.0242661
0.0248035
0.0252702
0.0256366
0.0258769
0.0259701
0.0259005
0.0256577
0.0252364
0.0246359
0.0238585
0.0229089
0.0217921
0.0205124
0.0190724
0.0174725
0.0157102
0.01378
0.0116732
0.00937831
0.00689922
0.00427408
0.0673674
0.0632685
0.0580368
0.0528031
0.0480055
0.0436355
0.0396845
0.0361702
0.0331069
0.0304995
0.0283432
0.0266222
0.0253086
0.024366
0.0237526
0.0234243
0.0233354
0.0234404
0.0236949
0.0240561
0.0244827
0.0249354
0.0253763
0.02577
0.0260848
0.0262933
0.0263733
0.0263082
0.0260868
0.0257035
0.0251576
0.0244527
0.0235949
0.0225921
0.0214528
0.020184
0.0187904
0.0172741
0.0156334
0.013863
0.0119544
0.00989525
0.00767101
0.00528229
0.00276533
0.064796
0.0610547
0.0563068
0.0515603
0.0471979
0.0432103
0.0395938
0.0363685
0.0335522
0.0311547
0.0291754
0.0276009
0.0264064
0.0255583
0.025017
0.0247384
0.0246752
0.0247794
0.0250033
0.0253012
0.0256297
0.0259484
0.0262204
0.0264136
0.0265014
0.0264636
0.0262858
0.0259598
0.025483
0.0248575
0.0240895
0.0231882
0.022164
0.0210272
0.0197867
0.0184496
0.0170193
0.0154958
0.0138747
0.0121481
0.0103044
0.00832869
0.00620425
0.00392842
0.0015325
0.0618323
0.0584185
0.0541129
0.0498106
0.0458466
0.0422155
0.038919
0.0359796
0.0334177
0.0312447
0.029459
0.0280464
0.0269818
0.026232
0.0257568
0.0255108
0.0254458
0.0255131
0.0256655
0.0258581
0.0260496
0.0262026
0.0262852
0.0262715
0.0261421
0.0258842
0.0254908
0.0249606
0.024297
0.0235073
0.0226016
0.0215912
0.0204877
0.019301
0.0180387
0.0167051
0.0153015
0.013825
0.0122688
0.0106222
0.00887166
0.00700084
0.00499198
0.00283999
0.000569913
0.058508
0.0553881
0.051481
0.0475815
0.0439869
0.0406969
0.0377168
0.0350696
0.0327747
0.0308396
0.0292582
0.0280129
0.0270767
0.0264144
0.0259847
0.0257422
0.02564
0.0256324
0.0256759
0.0257302
0.0257593
0.0257326
0.0256254
0.0254195
0.0251028
0.0246691
0.0241174
0.0234509
0.0226764
0.0218033
0.0208425
0.0198049
0.0187001
0.0175358
0.0163165
0.0150431
0.0137138
0.0123229
0.0108611
0.00931639
0.00767394
0.00591725
0.0040291
0.00200327
-0.000141055
0.0548432
0.0519844
0.0484347
0.0449032
0.0416576
0.0387005
0.0360373
0.0336876
0.0316649
0.0299691
0.028588
0.0274997
0.0266743
0.0260751
0.0256611
0.0253894
0.0252179
0.0251067
0.0250187
0.0249211
0.0247856
0.0245898
0.0243169
0.0239561
0.0235016
0.0229521
0.02231
0.0215806
0.0207716
0.0198919
0.0189503
0.0179552
0.0169128
0.0158269
0.0146985
0.0135252
0.0123015
0.0110196
0.00966867
0.00823574
0.00670626
0.00506465
0.00329543
0.0013928
-0.000628181
0.050867
0.04824
0.0450125
0.0418212
0.0389087
0.0362759
0.0339244
0.0318663
0.0301056
0.0286339
0.027433
0.026477
0.0257339
0.0251675
0.02474
0.024414
0.0241545
0.0239293
0.0237095
0.0234708
0.0231934
0.022863
0.02247
0.0220093
0.0214793
0.0208813
0.0202188
0.0194971
0.0187224
0.017901
0.0170384
0.016139
0.0152049
0.014236
0.0132293
0.0121795
0.0110785
0.00991674
0.00868269
0.0073636
0.00594599
0.00441619
0.00276124
0.000977041
-0.000923411
0.0466208
0.0442004
0.0412669
0.0383931
0.0357963
0.0334721
0.0314149
0.0296271
0.0281028
0.0268262
0.0257743
0.0249189
0.0242282
0.0236692
0.0232097
0.0228198
0.0224727
0.0221445
0.021815
0.021468
0.0210918
0.0206784
0.0202236
0.0197257
0.0191849
0.0186031
0.0179833
0.0173287
0.0166427
0.0159281
0.0151864
0.0144176
0.0136198
0.0127893
0.0119199
0.0110039
0.0100318
0.00899273
0.0078755
0.00666834
0.00535954
0.00393784
0.00239317
0.000723773
-0.00105767
0.0421439
0.0399102
0.0372482
0.0346699
0.032366
0.0303249
0.028533
0.0269829
0.0256605
0.0245445
0.0236092
0.0228261
0.0221662
0.0216019
0.0211083
0.0206632
0.0202479
0.0198465
0.0194466
0.0190391
0.0186181
0.0181802
0.0177238
0.0172485
0.0167548
0.0162435
0.0157155
0.0151715
0.0146113
0.0140339
0.0134369
0.0128165
0.0121675
0.0114831
0.0107551
0.00997417
0.00913004
0.00821189
0.00720915
0.0061116
0.00490965
0.00359456
0.00215909
0.000604008
-0.00105738
0.0374605
0.0353981
0.0329863
0.0306773
0.0286364
0.0268459
0.0252849
0.0239377
0.0227842
0.0217994
0.0209567
0.0202298
0.0195942
0.019029
0.0185161
0.0180409
0.0175917
0.0171594
0.016738
0.0163233
0.0159132
0.0155062
0.0151016
0.0146989
0.0142971
0.0138955
0.0134923
0.0130853
0.0126709
0.0122447
0.011801
0.0113332
0.0108336
0.0102936
0.00970384
0.00905422
0.00833454
0.00753457
0.00664474
0.00565641
0.00456207
0.00335532
0.00203144
0.000593494
-0.000944231
0.032578
0.0306704
0.0284831
0.0264097
0.0245968
0.0230233
0.0216622
0.0204908
0.0194839
0.0186143
0.0178561
0.0171864
0.0165861
0.0160402
0.0155372
0.0150686
0.0146285
0.0142132
0.0138208
0.0134501
0.0131004
0.0127706
0.0124596
0.0121655
0.0118859
0.0116177
0.0113569
0.0110981
0.0108353
0.0105614
0.0102686
0.00994837
0.0095918
0.00918942
0.00873148
0.00820812
0.00760959
0.00692651
0.00615027
0.00527353
0.00429035
0.00319622
0.00198857
0.000672372
-0.000737257
0.0274826
0.0257133
0.0237166
0.0218387
0.0202192
0.0188362
0.0176559
0.0166481
0.0157825
0.0150303
0.0143667
0.0137723
0.013233
0.012739
0.0122841
0.0118647
0.0114794
0.0111279
0.0108106
0.0105272
0.0102773
0.0100591
0.00987015
0.00970726
0.00956623
0.00944188
0.00932798
0.0092173
0.00910181
0.00897295
0.00882182
0.0086393
0.00841612
0.00814292
0.00781034
0.00740915
0.00693035
0.00636528
0.00570592
0.00494544
0.00407858
0.00310211
0.00201521
0.00082446
-0.000454523
0.022129
0.0205003
0.0186569
0.0169333
0.0154815
0.0142779
0.0132778
0.012441
0.0117307
0.0111156
0.010572
0.0100835
0.00964016
0.00923661
0.00887094
0.00854335
0.00825524
0.0080082
0.00780323
0.0076402
0.00751771
0.00743313
0.00738271
0.00736171
0.00736436
0.0073839
0.00741261
0.0074421
0.00746352
0.0074679
0.0074463
0.00738988
0.00728994
0.00713795
0.00692549
0.0066443
0.00628614
0.00584275
0.00530586
0.00466779
0.00392243
0.00306708
0.00210263
0.00103736
-0.000112672
0.0164951
0.015024
0.0132981
0.0116897
0.010395
0.00938209
0.00858481
0.00794658
0.00742173
0.00697576
0.00658557
0.00623794
0.00592688
0.00565117
0.00541234
0.00521319
0.00505667
0.00494497
0.00487891
0.00485772
0.00487907
0.00493923
0.00503328
0.00515524
0.00529818
0.00545438
0.0056155
0.00577287
0.00591779
0.00604177
0.00613666
0.00619465
0.00620834
0.00617059
0.00607447
0.005913
0.00567878
0.0053635
0.00495741
0.00444938
0.00382964
0.00309494
0.00224903
0.00130316
0.000274651
0.0107867
0.00931348
0.00764661
0.00612666
0.0050107
0.00423467
0.00368988
0.00329493
0.00299406
0.00275107
0.00254566
0.00236921
0.0022205
0.00210227
0.00201883
0.00197458
0.00197301
0.00201613
0.00210413
0.00223541
0.00240668
0.00261327
0.00284929
0.00310797
0.00338179
0.00366278
0.00394275
0.00421353
0.00446727
0.00469659
0.00489474
0.00505555
0.0051735
0.00524354
0.0052609
0.00522057
0.00511654
0.00494046
0.00467941
0.00431383
0.00382279
0.00320145
0.00246078
0.00161911
0.000697289
0.00543707
0.00329034
0.0015815
0.000203082
-0.000622859
-0.00105061
-0.00125823
-0.00135373
-0.00139458
-0.00140975
-0.00141049
-0.00139734
-0.00136549
-0.00130835
-0.0012196
-0.0010942
-0.000928905
-0.000722404
-0.000475373
-0.000190333
0.000128584
0.000475934
0.000845287
0.00122954
0.00162119
0.00201264
0.00239636
0.00276523
0.00311262
0.0034327
0.00372047
0.00397194
0.00418413
0.004355
0.00448319
0.00456732
0.00460465
0.00458824
0.00450049
0.00430376
0.00394641
0.00341731
0.00275186
0.00198522
0.0011452
1.02222e-05
-0.00343884
-0.00513531
-0.0061041
-0.00638908
-0.00630014
-0.00607985
-0.00583706
-0.00560609
-0.00539167
-0.00518707
-0.00498149
-0.00476392
-0.00452501
-0.00425781
-0.00395781
-0.00362278
-0.00325257
-0.00284895
-0.00241535
-0.0019566
-0.00147859
-0.000987882
-0.000491433
3.73491e-06
0.000490747
0.000963089
0.0014148
0.00184069
0.00223655
0.00259941
0.00292778
0.00322191
0.00348402
0.00371814
0.00392943
0.00412249
0.00429783
0.00443769
0.0044719
0.00426167
0.00377188
0.00312269
0.00238388
0.00159093
-0.00754487
-0.0121046
-0.0130611
-0.0125388
-0.0117811
-0.0110807
-0.0104701
-0.00994939
-0.0095006
-0.00909586
-0.00871001
-0.00832444
-0.00792633
-0.00750731
-0.00706239
-0.00658921
-0.00608749
-0.00555869
-0.00500578
-0.00443302
-0.00384565
-0.00324963
-0.00265128
-0.00205704
-0.00147321
-0.000905778
-0.000360262
0.000158474
0.000646449
0.00110086
0.00152044
0.00190595
0.00226083
0.00259209
0.00291084
0.00323158
0.00357396
0.00397405
0.00447334
0.00495764
0.00491557
0.0043245
0.00356548
0.00277664
0.00198619
-0.0135403
-0.029114
-0.0263735
-0.0198973
-0.0166478
-0.015248
-0.0143831
-0.0136953
-0.0130985
-0.0125411
-0.0119898
-0.0114277
-0.0108471
-0.0102448
-0.00962005
-0.00897371
-0.00830785
-0.0076255
-0.00693061
-0.00622785
-0.00552248
-0.0048201
-0.00412647
-0.00344727
-0.002788
-0.00215383
-0.00154949
-0.000979118
-0.000446066
4.73883e-05
0.000500445
0.000914472
0.0012943
0.00165053
0.00200217
0.00237889
0.00283818
0.0035535
0.0049125
0.0068931
0.00698751
0.0058095
0.004515
0.00344488
0.00251841
0.0122087
-0.0668602
-0.0489421
-0.0305926
-0.0241384
-0.0216299
-0.0200932
-0.018941
-0.017988
-0.0171232
-0.0162892
-0.0154614
-0.0146296
-0.0137907
-0.0129441
-0.0120913
-0.0112344
-0.0103766
-0.0095214
-0.00867302
-0.00783587
-0.00701464
-0.00621405
-0.00543876
-0.00469325
-0.0039817
-0.00330784
-0.00267484
-0.002085
-0.00153931
-0.00103675
-0.000572821
-0.000136696
0.000294258
0.000763866
0.00135021
0.00219825
0.00368301
0.00680731
0.0124063
0.0130417
0.0090365
0.00623706
0.00451431
0.00324686
)
;

boundaryField
{
    leftWall
    {
        type            fixedFluxPressure;
        gradient        uniform 0;
        value           nonuniform List<scalar> 
42
(
-0.0626093
-0.0680656
-0.0695678
-0.0659956
-0.0587343
-0.0488797
-0.0372413
-0.0245284
-0.0113223
0.00186637
0.0145653
0.026372
0.0370021
0.0462834
0.0541122
0.0604343
0.0652621
0.0686802
0.0708218
0.0718323
0.0718517
0.0710192
0.0694785
0.0673674
0.064796
0.0618323
0.058508
0.0548432
0.050867
0.0466208
0.0421439
0.0374605
0.032578
0.0274826
0.022129
0.0164951
0.0107867
0.00543707
1.02222e-05
-0.00754487
-0.0135403
0.0122087
)
;
    }
    rightWall
    {
        type            fixedFluxPressure;
        gradient        nonuniform List<scalar> 0();
        value           nonuniform List<scalar> 0();
    }
    lowerWall
    {
        type            fixedFluxPressure;
        gradient        nonuniform List<scalar> 0();
        value           nonuniform List<scalar> 0();
    }
    atmosphere
    {
        type            totalPressure;
        rho             rho;
        psi             none;
        gamma           1;
        p0              uniform 0;
        value           nonuniform List<scalar> 
45
(
-0.00604558
-0.0324473
-0.0307177
-0.0284431
-0.0266439
-0.0251251
-0.0237928
-0.0225853
-0.0214589
-0.0203841
-0.0193419
-0.0183205
-0.0173128
-0.0163148
-0.0153246
-0.0143418
-0.0133673
-0.0124028
-0.0114508
-0.0105144
-0.00959711
-0.00870274
-0.00783526
-0.00699869
-0.0061969
-0.00543359
-0.00471213
-0.00403555
-0.00340643
-0.00282695
-0.00229883
-0.00182341
-0.00140168
-0.00103443
-0.000722356
-0.000466294
-0.000267268
-0.000126072
-4.16117e-05
-6.51479e-06
0
0
0
0
0
)
;
    }
    defaultFaces
    {
        type            empty;
    }
    procBoundary2to0
    {
        type            processor;
        value           nonuniform List<scalar> 
46
(
-0.548927
-0.569606
-0.583207
-0.58443
-0.573877
-0.552876
-0.521025
-0.480641
-0.433069
-0.379757
-0.322344
-0.262569
-0.202098
-0.142469
-0.0850359
-0.0309271
0.0189603
0.0639283
0.103441
0.137103
0.164657
0.185992
0.201134
0.210269
0.213705
-0.0540636
-0.0611498
-0.0633852
-0.0700128
-0.0810571
-0.0971627
-0.118065
-0.142967
-0.170767
-0.200188
-0.23025
-0.260321
-0.290004
-0.319166
-0.347922
-0.376426
-0.404708
-0.432525
-0.459168
-0.48352
-0.48352
)
;
    }
    procBoundary2to3
    {
        type            processor;
        value           nonuniform List<scalar> 
43
(
0.184464
0.160485
0.139304
0.120404
0.103444
0.0882744
0.0748559
0.0631953
0.0532845
0.0450561
0.0383646
0.0329912
0.0286688
0.0251183
0.0220847
0.0193614
0.0168012
0.0143167
0.0118762
0.00949454
0.00721619
0.00509706
0.00318938
0.00153299
0.000151153
-0.000950591
-0.00178272
-0.00236742
-0.00273309
-0.00290942
-0.00292396
-0.00280056
-0.00256003
-0.0022222
-0.00180728
-0.00133524
-0.000824283
-0.000290707
0.000248065
0.000760418
0.00119684
0.00167151
0.00221902
)
;
    }
}


// ************************************************************************* //
