/*--------------------------------*- C++ -*----------------------------------*\
  =========                 |
  \\      /  F ield         | OpenFOAM: The Open Source CFD Toolbox
   \\    /   O peration     | Website:  https://openfoam.org
    \\  /    A nd           | Version:  9
     \\/     M anipulation  |
\*---------------------------------------------------------------------------*/
FoamFile
{
    format      ascii;
    class       volScalarField;
    location    "125";
    object      epsilon;
}
// * * * * * * * * * * * * * * * * * * * * * * * * * * * * * * * * * * * * * //

dimensions      [0 2 -3 0 0 0 0];

internalField   nonuniform List<scalar> 
12225
(
285.516
270.706
257.907
243.824
232.437
223.121
216.759
212.717
212.745
213.972
217.241
220.913
228.143
232.85
241.426
246.968
254.379
265.025
52.4854
91.9054
106.947
114.789
124.805
136.852
152.645
169.996
191.134
211.048
235.385
255.644
281.484
299.617
325.753
339.986
367.024
376.073
20.318
34.8696
44.6591
50.4912
55.3723
59.642
64.6309
69.6916
76.2885
83.2591
91.4322
99.4529
108.207
117.221
125.657
135.957
142.969
155.544
15.3453
19.7028
24.104
27.5791
30.4857
32.885
35.1409
37.314
39.4867
41.9474
44.3253
47.2507
49.6836
53.1229
55.4646
59.3874
61.6559
66.1013
14.6498
15.863
17.3639
19.079
20.633
22.0324
23.2401
24.4394
25.4383
26.6054
27.52
28.7738
29.6362
31.0102
31.838
33.3116
34.1559
35.7803
14.7065
14.8767
15.2005
15.8688
16.5642
17.2894
17.9212
18.5874
19.1173
19.7379
20.1929
20.8044
21.2117
21.8316
22.2094
22.8439
23.2082
23.9047
14.7421
14.6201
14.6247
14.737
14.929
15.22
15.4904
15.81
16.0704
16.384
16.6184
16.9223
17.1328
17.4309
17.621
17.9204
18.0935
18.4248
14.7626
14.5867
14.4636
14.3813
14.3667
14.39
14.4379
14.5341
14.6184
14.7371
14.831
14.9572
15.0486
15.1779
15.2633
15.3955
15.4752
15.6278
14.7666
14.5908
14.4345
14.2964
14.1849
14.1044
14.0396
14.0067
13.9814
13.9786
13.981
13.9918
14.0044
14.0301
14.0481
14.0809
14.1055
14.1497
14.7663
14.594
14.432
14.2821
14.1429
14.0219
13.9115
13.8193
13.7369
13.6698
13.6102
13.5633
13.5181
13.4873
13.4519
13.4347
13.4031
13.4026
14.7658
14.5945
14.4321
14.2803
14.1361
14.0032
13.8781
13.7644
13.6581
13.5628
13.4734
13.3951
13.3197
13.256
13.1915
13.1409
13.0841
13.0458
14.7657
14.5943
14.4321
14.2798
14.1353
13.9998
13.8715
13.7518
13.6384
13.5336
13.434
13.3429
13.2556
13.177
13.1002
13.0328
12.9648
12.9077
14.7657
14.5941
14.432
14.2794
14.1349
13.9989
13.8698
13.7484
13.6331
13.5249
13.4219
13.3256
13.2337
13.1483
13.0662
12.9906
12.9173
12.8505
14.7657
14.5939
14.4318
14.279
14.1346
13.9983
13.8691
13.7472
13.6315
13.5222
13.4184
13.3203
13.227
13.1389
13.055
12.9759
12.9004
12.8294
14.7657
14.5938
14.4317
14.2787
14.1342
13.9977
13.8686
13.7464
13.6307
13.5211
13.4171
13.3185
13.2249
13.1361
13.0517
12.9716
12.8954
12.8231
14.7657
14.5938
14.4316
14.2785
14.1339
13.9973
13.8681
13.7458
13.63
13.5202
13.4162
13.3174
13.2237
13.1347
13.0502
12.9699
12.8935
12.8208
14.7657
14.5937
14.4315
14.2783
14.1337
13.997
13.8677
13.7453
13.6294
13.5196
13.4154
13.3166
13.2228
13.1338
13.0491
12.9687
12.8921
12.8194
14.7657
14.5937
14.4314
14.2782
14.1335
13.9968
13.8674
13.745
13.629
13.5191
13.4149
13.316
13.2221
13.133
13.0483
12.9678
12.8911
12.8183
14.7657
14.5937
14.4314
14.2782
14.1335
13.9967
13.8673
13.7449
13.6288
13.5189
13.4146
13.3157
13.2218
13.1326
13.0478
12.9672
12.8906
12.8176
14.7657
14.5937
14.4314
14.2783
14.1336
13.9968
13.8674
13.745
13.629
13.5191
13.4148
13.3159
13.222
13.1328
13.048
12.9674
12.8907
12.8178
14.7657
14.5937
14.4315
14.2784
14.1338
13.997
13.8678
13.7453
13.6295
13.5196
13.4155
13.3166
13.2229
13.1339
13.0494
12.969
12.8927
12.82
14.7657
14.5937
14.4316
14.2785
14.1341
13.9975
13.8685
13.7464
13.6312
13.522
13.4191
13.3214
13.2293
13.1419
13.0595
12.981
12.9074
12.8368
14.7658
14.5937
14.4318
14.2788
14.1353
14.0002
13.8742
13.756
13.6463
13.5435
13.4485
13.3592
13.277
13.1993
13.1282
13.0602
12.9988
12.9387
14.7655
14.5928
14.4328
14.2844
14.1515
14.0321
13.929
13.8375
13.7593
13.6894
13.6307
13.5769
13.5328
13.4905
13.4574
13.423
13.3989
13.3693
14.7592
14.5932
14.4603
14.3602
14.3029
14.2766
14.2805
14.2921
14.321
14.3531
14.3959
14.4345
14.4824
14.5217
14.5721
14.609
14.6618
14.6941
14.7213
14.6911
14.754
14.9176
15.1828
15.4611
15.7475
16.0119
16.2723
16.5038
16.7361
16.9386
17.1508
17.3311
17.5312
17.694
17.8893
18.0367
14.7477
15.5124
16.5472
17.6841
18.7043
19.5675
20.3371
20.9967
21.6194
22.166
22.7189
23.2109
23.7402
24.2047
24.7334
25.1837
25.7265
26.168
15.9871
20.9921
25.0237
27.7604
29.7845
31.3584
32.7768
34.0578
35.3592
36.6163
37.9755
39.2976
40.7625
42.1472
43.7201
45.1772
46.8888
48.3654
29.9032
47.2182
54.8693
58.6733
61.6135
64.4316
67.58
70.9771
74.7382
78.7148
82.9864
87.3472
91.9094
96.4574
101.111
105.637
110.195
114.602
165.798
160.075
154.899
149.564
144.479
139.677
135.614
132.108
129.27
126.973
125.319
124.044
123.34
122.825
122.843
122.962
123.287
123.832
2.24853
1.59705
2.50821
3.34614
4.15556
4.93556
5.67675
6.36606
6.9899
7.53947
8.00019
8.3904
8.75143
39.1465
41.4067
42.808
43.59
42.8825
41.2061
40.7354
44.0274
43.8704
39.8933
46.3334
50.8675
56.2921
61.8709
67.8013
73.9967
80.4779
87.2051
94.1875
101.39
108.826
116.463
124.32
132.369
140.638
149.099
157.78
166.656
175.758
185.064
194.606
204.367
214.377
224.625
235.14
245.913
256.974
268.314
279.956
291.884
304.111
316.628
329.452
342.574
356.005
369.74
383.784
398.131
412.78
427.727
442.962
458.482
474.265
490.312
506.587
523.089
539.768
556.622
573.581
590.642
607.712
624.788
641.761
658.639
675.336
691.952
708.566
724.955
741.061
756.898
772.317
787.36
801.856
815.848
829.17
841.821
853.678
864.645
874.732
883.85
892.006
899.134
905.277
910.451
914.875
917.697
919.151
918.286
917.625
916.267
913.92
910.515
906.277
901.268
895.542
889.201
882.29
874.922
867.14
859.055
850.708
842.208
833.592
824.954
816.328
807.801
799.413
791.246
783.319
775.664
768.277
761.17
754.392
747.873
741.638
735.707
730.09
724.687
719.511
714.484
709.661
704.925
700.365
695.855
691.436
687.009
682.641
678.281
673.936
669.544
665.037
660.384
655.531
650.46
645.121
639.501
633.559
627.291
620.663
613.674
606.31
598.567
590.468
582.02
573.185
563.985
554.494
544.598
534.55
524.403
517.666
513.138
508.661
503.973
499.032
493.815
488.325
482.499
476.427
469.957
463.055
455.739
448.008
439.636
429.866
420.747
385.703
5.97351
3.4891
3.36514
3.67287
4.1697
4.77882
5.46936
6.23045
7.07136
8.0386
9.25538
10.9909
13.7742
18.6574
21.1045
22.6705
23.8812
24.8848
25.9044
27.1098
28.6922
29.9973
31.4063
34.2797
37.0994
40.0139
43.0005
46.0701
49.2124
52.4291
55.7167
59.0783
62.5119
66.0224
69.6114
73.2881
77.0467
80.885
84.8022
88.8035
92.8881
97.0616
101.324
105.68
110.131
114.682
119.333
124.089
128.95
133.922
139.002
144.192
149.489
154.894
160.406
166.025
171.751
177.582
183.516
189.552
195.687
201.917
208.239
214.647
221.137
227.701
234.332
241.021
247.759
254.534
261.334
268.145
274.954
281.743
288.504
295.222
301.9
308.545
315.198
321.918
328.67
335.307
341.825
348.193
354.398
360.404
366.195
371.738
377.013
381.982
386.627
390.927
394.865
398.424
401.59
404.35
406.687
408.588
409.956
410.816
411.057
411.264
411.036
410.425
409.392
408.01
406.304
404.303
402.035
399.531
396.818
393.928
390.89
387.734
384.488
381.179
377.833
374.474
371.126
367.81
364.547
361.348
358.224
355.179
352.225
349.363
346.591
343.909
341.322
338.821
336.398
334.047
331.761
329.541
327.37
325.253
323.171
321.12
319.089
317.084
315.101
313.13
311.151
309.144
307.099
304.998
302.835
300.593
298.268
295.843
293.319
290.682
287.932
285.061
282.07
278.959
275.733
272.383
268.91
265.33
261.632
257.855
254.082
250.874
248.13
245.407
242.592
239.653
236.576
233.364
230.001
226.51
222.871
219.066
215.102
211.007
206.742
202.387
198.873
193.632
10.8172
5.62125
4.91673
4.96643
5.31575
5.85164
6.53217
7.34105
8.27985
9.37026
10.6531
12.1832
14.0011
16.0422
17.8216
19.4163
20.9456
22.489
24.1042
25.8142
27.6439
29.5597
31.6473
33.9353
36.2649
38.6475
41.0899
43.5946
46.1596
48.784
51.4671
54.2144
57.0222
59.891
62.8212
65.8143
68.8695
71.9876
75.1687
78.4147
81.7263
85.1055
88.5531
92.0713
95.6609
99.3241
103.062
106.875
110.765
114.733
118.779
122.902
127.102
131.379
135.733
140.163
144.669
149.25
153.906
158.634
163.432
168.299
173.232
178.227
183.282
188.392
193.553
198.76
204.007
209.29
214.6
219.932
225.28
230.637
235.999
241.363
246.728
252.094
257.465
262.841
268.188
273.47
278.671
283.773
288.759
293.61
298.306
302.828
307.156
311.268
315.144
318.767
322.121
325.188
327.956
330.408
332.532
334.31
335.724
336.78
337.474
337.892
338.008
337.852
337.364
336.585
335.537
334.245
332.728
331.012
329.116
327.065
324.881
322.587
320.203
317.752
315.253
312.725
310.184
307.646
305.126
302.633
300.176
297.762
295.395
293.079
290.815
288.603
286.446
284.338
282.279
280.262
278.285
276.345
274.436
272.555
270.695
268.852
267.02
265.201
263.391
261.582
259.761
257.919
256.046
254.133
252.173
250.157
248.079
245.932
243.709
241.408
239.023
236.551
233.989
231.34
228.601
225.78
222.865
219.866
216.783
213.632
210.457
207.43
204.54
201.65
198.699
195.666
192.543
189.334
186.033
182.65
179.187
175.642
172.029
168.386
164.699
161.136
158.174
155.603
15.9383
7.97326
6.69073
6.53439
6.79741
7.30558
7.99364
8.83331
9.81088
10.9205
12.1603
13.5286
15.014
16.5797
18.1596
19.7511
21.376
23.0566
24.8078
26.6403
28.5545
30.5433
32.6088
34.7653
36.9815
39.2508
41.5752
43.9585
46.397
48.8866
51.4222
54.0105
56.6542
59.355
62.1132
64.9296
67.8042
70.7378
73.7306
76.7834
79.8965
83.0712
86.3081
89.6084
92.9728
96.4025
99.8982
103.461
107.091
110.789
114.555
118.39
122.292
126.263
130.302
134.408
138.582
142.825
147.137
151.515
155.959
160.466
165.036
169.666
174.354
179.099
183.897
188.745
193.64
198.58
203.558
208.571
213.617
218.692
223.792
228.914
234.054
239.209
244.376
249.54
254.682
259.782
264.824
269.793
274.673
279.445
284.092
288.594
292.934
297.09
301.043
304.774
308.264
311.497
314.454
317.122
319.485
321.531
323.248
324.638
325.705
326.472
326.907
327.052
326.912
326.475
325.768
324.81
323.622
322.224
320.637
318.883
316.982
314.957
312.826
310.611
308.329
305.998
303.634
301.252
298.865
296.482
294.113
291.764
289.441
287.147
284.884
282.655
280.46
278.297
276.164
274.059
271.98
269.922
267.882
265.856
263.84
261.831
259.825
257.821
255.815
253.801
251.769
249.712
247.623
245.496
243.323
241.098
238.815
236.47
234.057
231.572
229.012
226.375
223.66
220.865
217.99
215.037
211.993
208.869
205.671
202.409
199.113
195.853
192.63
189.395
186.116
182.781
179.385
175.932
172.424
168.867
165.268
161.633
157.982
154.353
150.774
147.404
144.49
142.289
20.96
10.3627
8.5032
8.14468
8.31225
8.77751
9.44849
10.2834
11.2584
12.3573
13.5672
14.8767
16.2731
17.7416
19.2674
20.8466
22.4829
24.1825
25.9501
27.7889
29.6975
31.6735
33.7156
35.8223
37.9874
40.2079
42.4826
44.8105
47.1934
49.633
52.1311
54.6885
57.304
59.9775
62.7093
65.4998
68.3496
71.2596
74.2301
77.2608
80.3518
83.5039
86.7177
89.9939
93.3333
96.7366
100.205
103.738
107.337
111.003
114.736
118.536
122.404
126.34
130.343
134.413
138.549
142.758
147.037
151.385
155.802
160.287
164.839
169.457
174.141
178.888
183.698
188.568
193.497
198.484
203.521
208.61
213.748
218.932
224.158
229.422
234.72
240.045
245.391
250.744
256.09
261.413
266.7
271.935
277.102
282.183
287.16
292.014
296.724
301.271
305.63
309.783
313.706
317.382
320.789
323.91
326.727
329.226
331.397
333.234
334.736
335.907
336.748
337.244
337.418
337.288
336.86
336.153
335.187
333.982
332.559
330.939
329.145
327.197
325.119
322.928
320.645
318.289
315.876
313.421
310.938
308.439
305.933
303.428
300.931
298.446
295.975
293.523
291.089
288.673
286.274
283.891
281.52
279.159
276.804
274.453
272.102
269.748
267.388
265.019
262.639
260.24
257.816
255.362
252.872
250.339
247.76
245.128
242.438
239.688
236.873
233.989
231.036
228.01
224.912
221.742
218.497
215.184
211.796
208.338
204.818
201.245
197.64
194.036
190.439
186.83
183.192
179.52
175.809
172.058
168.272
164.465
160.645
156.825
153.025
149.282
145.641
142.24
139.243
136.898
25.6718
12.6565
10.2344
9.67055
9.73129
10.1363
10.7679
11.572
12.5186
13.5876
14.7636
16.0343
17.3887
18.8177
20.3143
21.8752
23.5
25.1902
26.9471
28.7717
30.6634
32.6211
34.6437
36.7297
38.8769
41.0842
43.3507
45.6765
48.062
50.5083
53.016
55.5855
58.2169
60.9103
63.6658
66.4838
69.3642
72.3073
75.3132
78.3827
81.5164
84.7147
87.9783
91.3077
94.7035
98.1666
101.697
105.297
108.966
112.705
116.515
120.397
124.351
128.377
132.477
136.652
140.901
145.227
149.629
154.109
158.665
163.298
168.007
172.794
177.657
182.596
187.611
192.7
197.863
203.099
208.405
213.78
219.221
224.726
230.29
235.91
241.58
247.291
253.034
258.8
264.577
270.352
276.111
281.839
287.519
293.133
298.661
304.082
309.375
314.515
319.48
324.244
328.783
333.073
337.091
340.814
344.222
347.298
350.025
352.395
354.4
356.038
357.308
358.213
358.736
358.905
358.741
358.257
357.471
356.405
355.079
353.518
351.743
349.779
347.648
345.372
342.973
340.471
337.884
335.23
332.522
329.776
327.002
324.21
321.407
318.6
315.792
312.986
310.185
307.389
304.597
301.808
299.02
296.23
293.436
290.635
287.823
284.999
282.159
279.301
276.421
273.514
270.575
267.599
264.581
261.518
258.406
255.24
252.017
248.734
245.389
241.979
238.503
234.961
231.353
227.679
223.94
220.14
216.281
212.369
208.409
204.412
200.392
196.369
192.35
188.328
184.297
180.253
176.195
172.123
168.052
163.985
159.932
155.905
151.927
148.033
144.27
140.757
137.598
134.973
29.9209
14.7611
11.8081
11.0362
10.9881
11.322
11.9016
12.6615
13.5666
14.5947
15.7302
16.961
18.2776
19.6727
21.1407
22.6785
24.2844
25.9581
27.6996
29.5092
31.3865
33.3312
35.3427
37.4202
39.5632
41.7711
44.0438
46.3814
48.7845
51.2535
53.7892
56.3919
59.062
61.8001
64.6062
67.4808
70.4241
73.4364
76.5181
79.6698
82.8917
86.1846
89.5488
92.9852
96.4942
100.077
103.733
107.465
111.273
115.158
119.121
123.163
127.284
131.487
135.772
140.141
144.593
149.131
153.756
158.468
163.267
168.156
173.133
178.2
183.358
188.605
193.943
199.371
204.889
210.495
216.19
221.971
227.837
233.784
239.809
245.908
252.075
258.303
264.582
270.904
277.258
283.631
290.009
296.376
302.715
309.006
315.229
321.36
327.374
333.248
338.952
344.458
349.74
354.766
359.511
363.945
368.046
371.789
375.156
378.131
380.702
382.862
384.606
385.937
386.853
387.341
387.445
387.177
386.557
385.604
384.343
382.797
380.992
378.954
376.707
374.277
371.688
368.961
366.118
363.179
360.159
357.076
353.942
350.769
347.566
344.34
341.097
337.842
334.576
331.3
328.016
324.722
321.417
318.098
314.764
311.411
308.036
304.639
301.216
297.765
294.281
290.762
287.203
283.601
279.952
276.255
272.505
268.701
264.84
260.922
256.944
252.906
248.808
244.652
240.438
236.17
231.852
227.488
223.083
218.643
214.178
209.695
205.208
200.729
196.266
191.818
187.383
182.959
178.548
174.153
169.782
165.439
161.136
156.884
152.707
148.636
144.717
141.048
137.691
134.764
33.621
16.6193
13.1813
12.2044
12.0519
12.3129
12.8369
13.5487
14.4087
15.3931
16.4858
17.6754
18.9534
20.3131
21.7497
23.2601
24.8423
26.4952
28.2182
30.0114
31.8745
33.8075
35.8103
37.8829
40.0253
42.2379
44.5207
46.8745
49.2998
51.7974
54.3679
57.0123
59.7314
62.5257
65.3959
68.3425
71.3659
74.4668
77.6454
80.9024
84.2383
87.6537
91.1491
94.7254
98.3832
102.124
105.947
109.855
113.849
117.929
122.097
126.355
130.703
135.143
139.677
144.305
149.029
153.851
158.772
163.794
168.917
174.142
179.471
184.905
190.443
196.088
201.84
207.698
213.663
219.735
225.913
232.195
238.58
245.066
251.65
258.326
265.089
271.933
278.851
285.831
292.864
299.938
307.037
314.145
321.245
328.315
335.332
342.273
349.109
355.812
362.351
368.694
374.808
380.659
386.214
391.442
396.31
400.791
404.86
408.496
411.683
414.408
416.664
418.448
419.762
420.6
420.976
420.926
420.464
419.609
418.388
416.829
414.958
412.805
410.397
407.763
404.928
401.918
398.758
395.468
392.069
388.579
385.014
381.387
377.709
373.989
370.235
366.45
362.64
358.805
354.947
351.066
347.16
343.227
339.266
335.275
331.251
327.192
323.097
318.962
314.784
310.562
306.292
301.972
297.601
293.176
288.697
284.163
279.573
274.928
270.229
265.476
260.673
255.823
250.929
245.998
241.034
236.045
231.038
226.022
221.005
215.997
211.01
206.052
201.132
196.251
191.409
186.607
181.846
177.129
172.46
167.846
163.295
158.82
154.441
150.188
146.1
142.257
138.689
135.476
36.7372
18.2049
14.3379
13.1712
12.919
13.1096
13.5789
14.2434
15.0593
16.001
17.0521
18.2013
19.4406
20.7639
22.1671
23.647
25.2016
26.8298
28.531
30.305
32.1516
34.0711
36.0638
38.1306
40.2719
42.4886
44.7815
47.1514
49.5993
52.1262
54.7331
57.4218
60.1937
63.0499
65.9913
69.0187
72.133
75.3348
78.6248
82.0037
85.4723
89.0314
92.6816
96.424
100.259
104.189
108.214
112.335
116.554
120.872
125.291
129.812
134.437
139.168
144.006
148.952
154.01
159.179
164.463
169.862
175.378
181.013
186.767
192.642
198.639
204.759
211.002
217.37
223.862
230.479
237.219
244.083
251.068
258.172
265.392
272.725
280.164
287.703
295.336
303.051
310.84
318.688
326.582
334.504
342.436
350.354
358.235
366.052
373.775
381.373
388.811
396.052
403.059
409.793
416.214
422.286
427.971
433.235
438.047
442.381
446.214
449.53
452.317
454.57
456.289
457.477
458.133
458.295
457.977
457.204
456.001
454.4
452.432
450.129
447.521
444.64
441.515
438.174
434.646
430.954
427.122
423.169
419.115
414.974
410.761
406.485
402.155
397.778
393.357
388.896
384.396
379.858
375.281
370.663
366.003
361.3
356.551
351.754
346.908
342.011
337.061
332.055
326.993
321.874
316.696
311.462
306.171
300.824
295.424
289.974
284.476
278.935
273.356
267.745
262.109
256.456
250.794
245.133
239.481
233.85
228.249
222.689
217.179
211.729
206.345
201.03
195.785
190.61
185.507
180.476
175.521
170.646
165.858
161.168
156.595
152.162
147.904
143.885
140.109
136.631
39.2678
19.5135
15.2807
13.9449
13.6003
13.7249
14.1426
14.7623
15.5366
16.4381
17.4499
18.5606
19.7624
21.0498
22.4187
23.8666
25.3915
26.9926
28.6695
30.4227
32.2505
34.1538
36.1341
38.1928
40.3312
42.5507
44.8524
47.238
49.7082
52.2641
54.9055
57.6383
60.4647
63.3862
66.404
69.5193
72.7333
76.0469
79.4613
82.9775
86.5964
90.3192
94.1468
98.0805
102.122
106.271
110.531
114.902
119.386
123.985
128.7
133.533
138.486
143.562
148.761
154.086
159.538
165.12
170.832
176.678
182.657
188.773
195.026
201.417
207.948
214.619
221.431
228.385
235.481
242.718
250.097
257.616
265.274
273.068
280.996
289.053
297.234
305.533
313.942
322.452
331.051
339.728
348.467
357.25
366.058
374.867
383.651
392.382
401.028
409.552
417.92
426.088
434.014
441.656
448.967
455.905
462.425
468.487
474.054
479.094
483.579
487.488
490.806
493.523
495.638
497.154
498.078
498.434
498.242
497.525
496.31
494.637
492.538
490.049
487.203
484.036
480.579
476.866
472.925
468.786
464.474
460.011
455.419
450.716
445.916
441.033
436.075
431.051
425.965
420.822
415.624
410.371
405.063
399.7
394.279
388.8
383.261
377.66
371.996
366.269
360.475
354.616
348.69
342.699
336.643
330.526
324.351
318.121
311.842
305.518
299.156
292.764
286.35
279.923
273.493
267.07
260.668
254.296
247.967
241.692
235.484
229.352
223.307
217.358
211.509
205.764
200.123
194.587
189.154
183.824
178.598
173.479
168.47
163.581
158.825
154.224
149.804
145.614
141.643
137.93
41.2336
20.5541
16.0225
14.5414
14.1137
14.1785
14.5484
15.1264
15.862
16.7263
17.7015
18.7763
19.9429
21.1961
22.5322
23.949
25.4438
27.0163
28.6676
30.3998
32.2083
34.0956
36.0636
38.114
40.2487
42.4698
44.7792
47.1791
49.6714
52.2576
54.9372
57.717
60.6015
63.5936
66.6951
69.9076
73.2328
76.6722
80.2272
83.8993
87.6899
91.6006
95.6327
99.7878
104.068
108.474
113.008
117.671
122.466
127.395
132.459
137.661
143.002
148.484
154.109
159.88
165.797
171.863
178.08
184.449
190.971
197.647
204.48
211.469
218.615
225.92
233.383
241.004
248.784
256.721
264.815
273.065
281.468
290.021
298.722
307.565
316.547
325.659
334.894
344.242
353.692
363.231
372.843
382.511
392.214
401.927
411.623
421.272
430.84
440.29
449.579
458.665
467.5
476.035
484.22
492.005
499.34
506.178
512.477
518.197
523.306
527.779
531.595
534.744
537.221
539.031
540.183
540.697
540.593
539.893
538.623
536.835
534.565
531.849
528.725
525.23
521.401
517.273
512.879
508.251
503.417
498.402
493.231
487.922
482.493
476.957
471.327
465.611
459.814
453.942
447.997
441.981
435.893
429.732
423.499
417.191
410.807
404.346
397.808
391.192
384.497
377.724
370.874
363.951
356.957
349.897
342.778
335.605
328.388
321.134
313.854
306.56
299.261
291.973
284.707
277.478
270.3
263.189
256.158
249.22
242.389
235.675
229.09
222.641
216.332
210.165
204.142
198.258
192.513
186.904
181.428
176.085
170.876
165.807
160.888
156.135
151.566
147.221
143.073
139.158
42.6667
21.3423
16.5806
14.9806
14.4807
14.4926
14.8193
15.3592
16.0595
16.89
17.8325
18.8751
20.0102
21.2329
22.5394
23.9294
25.3981
26.9456
28.5715
30.2757
32.0605
33.9288
35.883
37.9256
40.0593
42.2865
44.6101
47.0332
49.5589
52.1904
54.923
57.7581
60.7108
63.7848
66.984
70.3105
73.7663
77.3536
81.0742
84.9304
88.9239
93.0569
97.3313
101.749
106.313
111.024
115.885
120.897
126.064
131.386
136.867
142.507
148.31
154.277
160.409
166.709
173.178
179.817
186.628
193.612
200.77
208.103
215.61
223.292
231.15
239.182
247.389
255.769
264.321
273.044
281.936
290.995
300.217
309.599
319.137
328.825
338.658
348.627
358.725
368.941
379.262
389.676
400.167
410.715
421.3
431.897
442.478
453.011
463.461
473.787
483.948
493.895
503.578
512.944
521.936
530.501
538.583
546.128
553.088
559.418
565.081
570.046
574.292
577.804
580.578
582.616
583.931
584.54
584.465
583.723
582.34
580.384
577.89
574.897
571.445
567.576
563.329
558.743
553.854
548.695
543.299
537.693
531.903
525.951
519.854
513.629
507.288
500.842
494.296
487.656
480.925
474.105
467.195
460.196
453.107
445.927
438.654
431.289
423.83
416.278
408.634
400.9
393.079
385.174
377.193
369.142
361.031
352.869
344.667
336.44
328.199
319.961
311.741
303.556
295.423
287.36
279.385
271.515
263.766
256.154
248.693
241.396
234.273
227.331
220.573
214
207.611
201.402
195.368
189.503
183.804
178.263
172.879
167.654
162.595
157.711
153.014
148.534
144.233
140.149
43.6139
21.899
16.9747
15.2834
14.7228
14.6913
14.9797
15.4862
16.1559
16.9578
17.8733
18.8893
19.999
21.1989
22.4805
23.842
25.2828
26.8049
28.4102
30.0994
31.8741
33.7369
35.691
37.7398
39.8877
42.1355
44.4866
46.9455
49.5163
52.2024
54.9989
57.9158
60.9635
64.148
67.4735
70.9449
74.5662
78.3397
82.268
86.354
90.6001
95.0091
99.5836
104.326
109.24
114.327
119.59
125.031
130.653
136.457
142.446
148.622
154.986
161.54
168.285
175.223
182.354
189.68
197.2
204.915
212.825
220.929
229.226
237.716
246.397
255.267
264.325
273.567
282.992
292.595
302.374
312.325
322.442
332.721
343.155
353.739
364.464
375.322
386.302
397.394
408.584
419.857
431.198
442.587
454.003
465.421
476.813
488.145
499.382
510.485
521.406
532.099
542.508
552.579
562.252
571.467
580.165
588.289
595.783
602.598
608.693
614.032
618.593
622.357
625.321
627.487
628.868
629.479
629.347
628.475
626.905
624.709
621.925
618.593
614.756
610.458
605.742
600.649
595.22
589.489
583.491
577.256
570.811
564.18
557.382
550.435
543.351
536.142
528.815
521.375
513.826
506.17
498.407
490.537
482.559
474.472
466.276
457.97
449.556
441.033
432.404
423.672
414.842
405.921
396.916
387.838
378.699
369.512
360.294
351.06
341.828
332.619
323.452
314.348
305.328
296.415
287.629
278.992
270.521
262.234
254.147
246.274
238.625
231.206
224.019
217.061
210.331
203.822
197.528
191.437
185.545
179.837
174.308
168.956
163.783
158.795
153.995
149.405
144.978
140.761
44.132
22.2489
17.224
15.4684
14.8608
14.7953
15.0541
15.5346
16.1814
16.9632
17.8608
18.8589
19.9504
21.1287
22.395
23.746
25.1802
26.6987
28.303
29.9953
31.7783
33.6552
35.6298
37.7063
39.8891
42.1752
44.573
47.0887
49.7279
52.4961
55.3989
58.4434
61.6367
64.9854
68.4955
72.1725
76.0228
80.0501
84.258
88.6504
93.2307
98.0023
102.969
108.134
113.5
119.071
124.848
130.836
137.035
143.448
150.077
156.922
163.986
171.268
178.769
186.49
194.429
202.587
210.963
219.554
228.36
237.378
246.605
256.038
265.674
275.509
285.539
295.757
306.161
316.743
327.499
338.421
349.502
360.736
372.113
383.625
395.262
407.013
418.867
430.809
442.825
454.901
467.018
479.158
491.298
503.416
515.481
527.463
539.326
551.028
562.527
573.772
584.71
595.282
605.43
615.091
624.202
632.702
640.533
647.642
653.983
659.52
664.225
668.081
671.083
673.235
674.549
675.032
674.731
673.61
671.756
669.233
666.078
662.333
658.043
653.254
648.012
642.362
636.344
629.998
623.358
616.458
609.324
601.983
594.455
586.757
578.904
570.906
562.772
554.508
546.116
537.599
528.957
520.19
511.297
502.279
493.134
483.863
474.466
464.946
455.307
445.552
435.688
425.724
415.671
405.542
395.353
385.12
374.863
364.604
354.364
344.169
334.042
324.009
314.097
304.331
294.735
285.334
276.149
267.201
258.503
250.072
241.922
234.041
226.44
219.12
212.076
205.298
198.779
192.499
186.464
180.636
175.006
169.569
164.323
159.268
154.402
149.738
145.226
140.916
44.1282
22.3758
17.3326
15.5488
14.9149
14.8292
15.0709
15.5374
16.1743
16.9488
17.8369
18.831
19.9233
21.109
22.3857
23.7473
25.196
26.7334
28.3616
30.0835
31.9027
33.8233
35.8498
37.9872
40.2411
42.6167
45.1205
47.7592
50.54
53.4703
56.5579
59.8105
63.2357
66.8414
70.6349
74.6237
78.8139
83.2115
87.8222
92.6509
97.702
102.98
108.488
114.232
120.213
126.436
132.903
139.615
146.575
153.784
161.242
168.95
176.906
185.111
193.562
202.258
211.196
220.375
229.789
239.437
249.312
259.411
269.728
280.257
290.991
301.924
313.047
324.354
335.835
347.481
359.285
371.235
383.322
395.536
407.864
420.296
432.818
445.417
458.077
470.785
483.523
496.275
509.023
521.747
534.426
547.038
559.555
571.948
584.182
596.22
608.017
619.526
630.697
641.473
651.794
661.6
670.828
679.417
687.304
694.437
700.767
706.257
710.877
714.609
717.449
719.401
720.484
720.677
720.047
718.541
716.293
713.338
709.718
705.476
700.657
695.311
689.483
683.222
676.568
669.564
662.246
654.647
646.795
638.717
630.433
621.962
613.317
604.511
595.551
586.442
577.189
567.792
558.253
548.572
538.748
528.78
518.668
508.414
498.019
487.486
476.819
466.025
455.113
444.092
432.978
421.786
410.535
399.246
387.944
376.653
365.402
354.219
343.135
332.178
321.382
310.775
300.385
290.24
280.356
270.751
261.45
252.479
243.85
235.582
227.645
220.037
212.751
205.771
199.088
192.676
186.542
180.627
174.931
169.444
164.158
159.068
154.165
149.456
144.885
140.537
43.9221
22.3615
17.3406
15.5574
14.9175
14.8295
15.0725
15.5433
16.1874
16.9712
17.8765
18.8924
20.0118
21.2305
22.5459
23.9573
25.4659
27.0735
28.7834
30.5993
32.526
34.5689
36.734
39.0282
41.4585
44.0328
46.7591
49.6459
52.702
55.9366
59.3592
62.9791
66.8054
70.8474
75.1137
79.6121
84.3502
89.3374
94.5831
100.092
105.867
111.914
118.237
124.838
131.722
138.89
146.342
154.081
162.105
170.413
179.004
187.874
197.02
206.438
216.124
226.073
236.279
246.735
257.435
268.371
279.535
290.919
302.513
314.308
326.293
338.457
350.79
363.278
375.91
388.674
401.556
414.543
427.622
440.777
453.996
467.261
480.559
493.871
507.181
520.47
533.722
546.918
560.039
573.066
585.981
598.76
611.384
623.825
636.051
648.028
659.718
671.077
682.057
692.608
702.677
712.206
721.137
729.411
736.968
743.755
749.725
754.839
759.068
762.392
764.807
766.315
766.923
766.65
765.465
763.437
760.646
757.128
752.924
748.078
742.637
736.646
730.156
723.213
715.862
708.143
700.095
691.749
683.135
674.279
665.202
655.921
646.451
636.802
626.982
616.997
606.85
596.543
586.076
575.449
564.661
553.714
542.606
531.339
519.916
508.342
496.621
484.763
472.778
460.68
448.484
436.211
423.884
411.528
399.171
386.843
374.579
362.412
350.377
338.507
326.822
315.366
304.181
293.29
282.769
272.608
262.81
253.4
244.419
235.796
227.555
219.694
212.202
205.061
198.252
191.751
185.541
179.588
173.875
168.387
163.105
158.025
153.123
148.416
143.849
139.528
43.4477
22.231
17.2866
15.5326
14.9138
14.8512
15.1228
15.6281
16.3141
17.151
18.1212
19.2145
20.4249
21.7494
23.1872
24.7391
26.4073
28.1952
30.1075
32.1499
34.3286
36.6513
39.1259
41.7615
44.5674
47.5535
50.7299
54.1073
57.6965
61.5089
65.5555
69.8475
74.3956
79.2107
84.3028
89.6825
95.3615
101.348
107.642
114.252
121.18
128.431
136.006
143.906
152.13
160.677
169.545
178.729
188.224
198.025
208.125
218.515
229.189
240.137
251.349
262.816
274.526
286.47
298.635
311.011
323.585
336.344
349.276
362.367
375.602
388.968
402.448
416.027
429.691
443.423
457.206
471.025
484.863
498.701
512.525
526.314
540.052
553.72
567.297
580.766
594.107
607.301
620.33
633.178
645.823
658.254
670.45
682.394
694.06
705.417
716.434
727.073
737.295
747.056
756.313
765.019
773.125
780.579
787.329
793.322
798.517
802.877
806.37
808.974
810.686
811.505
811.424
810.429
808.544
805.862
802.411
798.23
793.361
787.844
781.727
775.052
767.869
760.223
752.16
743.719
734.937
725.847
716.478
706.852
696.991
686.911
676.626
666.147
655.479
644.63
633.601
622.393
611.007
599.444
587.702
575.783
563.687
551.417
538.976
526.37
513.607
500.698
487.655
474.493
461.234
447.9
434.52
421.123
407.741
394.407
381.147
368.005
355.032
342.262
329.792
317.624
305.785
294.301
283.255
272.579
262.323
252.512
243.163
234.258
225.792
217.756
210.136
202.91
196.05
189.529
183.323
177.397
171.726
166.294
161.068
156.047
151.215
146.579
142.081
137.849
42.6405
21.9807
17.1676
15.4935
14.9473
14.9519
15.303
15.902
16.6986
17.6652
18.7868
20.0551
21.4664
23.0198
24.717
26.5611
28.5568
30.7104
33.0289
35.5206
38.1947
41.0615
44.132
47.4176
50.9302
54.6818
58.6847
62.9515
67.4946
72.3265
77.4589
82.9034
88.6707
94.7712
101.214
108.01
115.167
122.694
130.587
138.847
147.469
156.451
165.789
175.475
185.503
195.864
206.548
217.545
228.84
240.423
252.28
264.396
276.759
289.353
302.163
315.175
328.374
341.746
355.276
368.95
382.753
396.669
410.685
424.784
438.951
453.169
467.42
481.69
495.958
510.21
524.426
538.591
552.683
566.688
580.584
594.355
607.979
621.439
634.715
647.788
660.637
673.247
685.601
697.683
709.479
720.976
732.168
743.042
753.58
763.759
773.554
782.933
791.866
800.32
808.267
815.674
822.504
828.721
834.278
839.129
843.24
846.579
849.102
850.786
851.633
851.6
850.674
848.868
846.267
842.885
838.753
833.903
828.374
822.207
815.444
808.126
800.298