/*--------------------------------*- C++ -*----------------------------------*\
  =========                 |
  \\      /  F ield         | OpenFOAM: The Open Source CFD Toolbox
   \\    /   O peration     | Website:  https://openfoam.org
    \\  /    A nd           | Version:  9
     \\/     M anipulation  |
\*---------------------------------------------------------------------------*/
FoamFile
{
    format      ascii;
    class       volScalarField;
    location    "125";
    object      nut;
}
// * * * * * * * * * * * * * * * * * * * * * * * * * * * * * * * * * * * * * //

dimensions      [0 2 -1 0 0 0 0];

internalField   nonuniform List<scalar> 
12225
(
4.14971e-05
3.93427e-05
3.7482e-05
3.54352e-05
3.37802e-05
3.24265e-05
3.15015e-05
3.09143e-05
3.09182e-05
3.1099e-05
3.15685e-05
3.21141e-05
3.31526e-05
3.38283e-05
3.51203e-05
3.56975e-05
3.76702e-05
3.56426e-05
0.000332402
0.000215156
0.000179322
0.000157622
0.000146257
0.000138148
0.000132679
0.000131758
0.000129386
0.000130203
0.000128908
0.000129594
0.000128524
0.000128712
0.000127951
0.000127587
0.000127531
0.000126318
0.000675176
0.000450651
0.000355905
0.000309695
0.000275412
0.000250952
0.00023181
0.000217135
0.00020265
0.000192118
0.000182558
0.000175158
0.000169317
0.000163543
0.000160248
0.000155314
0.000153693
0.000149477
0.000833792
0.000684707
0.000572195
0.000499776
0.000449631
0.000411765
0.000380915
0.000355818
0.00033411
0.000314563
0.000298418
0.00028143
0.000270306
0.000255812
0.000248066
0.000235826
0.00022995
0.000219777
0.000861319
0.000802501
0.00074227
0.00067639
0.000624159
0.000581201
0.000545998
0.000514383
0.000489613
0.00046424
0.000445897
0.000423861
0.000409855
0.00039056
0.00037962
0.000362755
0.000353893
0.000338694
0.000854997
0.000840351
0.000822261
0.000786387
0.000750977
0.000715786
0.000685846
0.000656014
0.000632595
0.000607392
0.000588981
0.000567101
0.000552166
0.000532891
0.00052051
0.000503381
0.000492763
0.000476771
0.000852913
0.000850687
0.000844247
0.000832824
0.000817453
0.000796944
0.000777925
0.000756675
0.00073891
0.000719076
0.000703497
0.000685524
0.000672016
0.00065576
0.000644088
0.000629237
0.000619097
0.000604607
0.000851926
0.00085181
0.000850179
0.000847387
0.000841461
0.000833723
0.0008249
0.000813389
0.000802805
0.000790436
0.000779683
0.00076748
0.000757348
0.00074567
0.000736388
0.00072532
0.000716876
0.000705672
0.000851753
0.000851539
0.000851038
0.000850335
0.000848882
0.000846165
0.000843036
0.000838294
0.000833396
0.000827345
0.000821193
0.00081474
0.000808362
0.00080146
0.000795149
0.000788293
0.000782003
0.000775022
0.000851771
0.000851388
0.000851047
0.000850631
0.000850248
0.000849366
0.000848405
0.000846777
0.000844952
0.000842523
0.000839912
0.000836782
0.00083377
0.000830117
0.000826924
0.000822861
0.000819817
0.000815173
0.000851787
0.000851358
0.000851012
0.000850613
0.000850329
0.000849904
0.000849525
0.000848927
0.000848301
0.000847389
0.00084646
0.000845168
0.000843979
0.000842335
0.000840976
0.000839002
0.000837606
0.000835315
0.000851789
0.000851359
0.000850996
0.000850605
0.000850292
0.000849938
0.000849645
0.000849279
0.000848953
0.000848502
0.000848096
0.000847503
0.000846992
0.000846236
0.000845632
0.000844708
0.000844045
0.00084296
0.000851786
0.000851363
0.000850986
0.000850604
0.000850269
0.000849926
0.000849629
0.000849312
0.000849041
0.000848727
0.00084846
0.000848124
0.000847841
0.000847462
0.000847153
0.000846722
0.000846384
0.0008459
0.000851783
0.000851364
0.000850978
0.000850602
0.000850256
0.000849916
0.000849607
0.000849299
0.000849022
0.00084874
0.000848487
0.000848223
0.000847987
0.000847734
0.000847508
0.000847258
0.000847035
0.000846787
0.000851781
0.000851364
0.000850973
0.000850598
0.000850246
0.000849908
0.000849591
0.000849286
0.000849
0.000848723
0.000848463
0.000848211
0.000847975
0.000847746
0.000847529
0.000847319
0.000847119
0.000846925
0.00085178
0.000851363
0.000850969
0.000850594
0.000850239
0.000849901
0.00084958
0.000849274
0.000848984
0.000848707
0.000848444
0.000848192
0.000847952
0.000847723
0.000847505
0.000847297
0.000847098
0.000846908
0.000851779
0.000851362
0.000850967
0.000850591
0.000850234
0.000849895
0.000849572
0.000849265
0.000848973
0.000848695
0.000848429
0.000848176
0.000847935
0.000847704
0.000847484
0.000847274
0.000847073
0.000846881
0.000851779
0.000851362
0.000850965
0.000850588
0.000850231
0.000849891
0.000849567
0.000849259
0.000848966
0.000848686
0.000848419
0.000848165
0.000847922
0.00084769
0.000847468
0.000847256
0.000847053
0.00084686
0.000851779
0.000851362
0.000850965
0.000850588
0.00085023
0.000849889
0.000849565
0.000849257
0.000848963
0.000848682
0.000848415
0.000848159
0.000847915
0.000847682
0.000847459
0.000847246
0.000847042
0.000846847
0.000851779
0.000851362
0.000850966
0.000850589
0.000850231
0.000849892
0.000849568
0.00084926
0.000848965
0.000848686
0.000848418
0.000848163
0.000847918
0.000847685
0.000847461
0.000847248
0.000847042
0.000846846
0.000851779
0.000851363
0.000850967
0.000850592
0.000850235
0.000849897
0.000849573
0.000849267
0.000848973
0.000848694
0.000848425
0.000848169
0.00084792
0.000847684
0.000847452
0.000847231
0.000847013
0.000846806
0.000851778
0.000851366
0.000850968
0.000850599
0.00085024
0.000849908
0.00084958
0.000849274
0.000848965
0.000848672
0.000848365
0.000848072
0.000847757
0.000847456
0.000847123
0.000846811
0.000846456
0.000846135
0.000851777
0.000851374
0.000850971
0.000850615
0.000850241
0.00084989
0.000849478
0.000849054
0.00084853
0.000847978
0.000847301
0.000846604
0.000845766
0.000844939
0.000843953
0.000843028
0.000841915
0.000840936
0.000851802
0.00085141
0.00085097
0.000850549
0.000849861
0.000848967
0.000847607
0.00084598
0.000843903
0.000841635
0.000838954
0.000836213
0.000833115
0.000830111
0.000826759
0.000823675
0.000820177
0.000817168
0.000852138
0.000851403
0.000850234
0.000848252
0.000844472
0.000839356
0.000832712
0.000825763
0.000817914
0.00081
0.000801614
0.000793625
0.000785328
0.000777701
0.000769735
0.000762689
0.000755108
0.000748775
0.000854143
0.000847718
0.000840126
0.000827122
0.000808708
0.000789647
0.000769973
0.000751417
0.000733304
0.000716894
0.000700931
0.000686776
0.000672824
0.000660662
0.000648366
0.000637924
0.000626932
0.000617993
0.000854971
0.000818336
0.000776231
0.000726635
0.00068494
0.000649857
0.000618462
0.000592022
0.000568381
0.00054831
0.000529686
0.000513988
0.000498742
0.000486007
0.000473188
0.00046269
0.000451599
0.000442777
0.000807488
0.000666878
0.000570554
0.000509855
0.000465651
0.000431194
0.000404135
0.0003825
0.000364194
0.000349065
0.000335938
0.000325074
0.000314474
0.00030624
0.000297952
0.000291354
0.000284264
0.00027891
0.000501854
0.000348404
0.000292691
0.000259174
0.000236323
0.000221177
0.000211544
0.000204015
0.00019848
0.000195058
0.000192217
0.000190365
0.00018858
0.000187436
0.000186162
0.00018547
0.000184552
0.000184139
7.27285e-05
7.0223e-05
6.79539e-05
6.56135e-05
6.33827e-05
6.12764e-05
5.94929e-05
5.79571e-05
5.67102e-05
5.57028e-05
5.49773e-05
5.44182e-05
5.41083e-05
5.38871e-05
5.38762e-05
5.39623e-05
5.40721e-05
5.43233e-05
2.35608e-06
3.56454e-05
5.6207e-05
7.50896e-05
9.34415e-05
0.000111314
0.000128646
0.00014522
0.000160485
0.000173413
0.000182371
0.00018403
0.000173037
3.32177e-05
3.18807e-05
3.31343e-05
3.49356e-05
3.84789e-05
4.28845e-05
4.54333e-05
4.40039e-05
4.51364e-05
4.87097e-05
4.94511e-05
5.09642e-05
5.24906e-05
5.40506e-05
5.56284e-05
5.71869e-05
5.87313e-05
6.02458e-05
6.17381e-05
6.31983e-05
6.46351e-05
6.6041e-05
6.74253e-05
6.87822e-05
7.0121e-05
7.14346e-05
7.2733e-05
7.40096e-05
7.52739e-05
7.65198e-05
7.77568e-05
7.89788e-05
8.01952e-05
8.14001e-05
8.26024e-05
8.37963e-05
8.49895e-05
8.6174e-05
8.7354e-05
8.85231e-05
8.96897e-05
9.08483e-05
9.20053e-05
9.31551e-05
9.43035e-05
9.5445e-05
9.6585e-05
9.77182e-05
9.8849e-05
9.99729e-05
0.000101094
0.000102206
0.000103315
0.000104414
0.000105507
0.000106589
0.000107663
0.000108724
0.000109773
0.000110807
0.000111824
0.000112823
0.000113801
0.000114755
0.000115682
0.00011658
0.000117446
0.000118318
0.000119154
0.000119966
0.00012075
0.000121506
0.000122228
0.000122916
0.000123564
0.000124172
0.000124737
0.000125254
0.000125723
0.00012614
0.000126505
0.000126813
0.000127063
0.000127247
0.000127344
0.000127454
0.000127512
0.000127373
0.000127324
0.000127104
0.000126908
0.000126619
0.000126282
0.000125889
0.000125445
0.000124955
0.000124419
0.000123843
0.000123228
0.00012258
0.000121903
0.000121201
0.000120478
0.00011974
0.000118988
0.000118228
0.000117461
0.00011669
0.000115921
0.000115158
0.000114408
0.000113673
0.000112942
0.000112234
0.000111543
0.000110856
0.000110176
0.000109515
0.000108881
0.000108266
0.000107678
0.000107108
0.000106556
0.000106017
0.000105489
0.00010497
0.000104463
0.000103971
0.000103489
0.000103017
0.000102551
0.000102089
0.000101629
0.00010117
0.000100708
0.000100243
9.97709e-05
9.9292e-05
9.8804e-05
9.83066e-05
9.77973e-05
9.72748e-05
9.67343e-05
9.61796e-05
9.5616e-05
9.50363e-05
9.44307e-05
9.3821e-05
9.31538e-05
9.25205e-05
9.16922e-05
9.12578e-05
9.08857e-05
9.05168e-05
9.01468e-05
8.97636e-05
8.93727e-05
8.89712e-05
8.85405e-05
8.81151e-05
8.76661e-05
8.71734e-05
8.66477e-05
8.60738e-05
8.54708e-05
8.47523e-05
8.24421e-05
6.35325e-06
6.70266e-05
0.000133493
0.000181751
0.000215822
0.000241411
0.000261551
0.00027732
0.000288308
0.000292676
0.000286976
0.000266943
0.000230491
0.000181957
0.000175396
0.000180186
0.000189625
0.000202579
0.000216921
0.000231514
0.000243524
0.000263427
0.000294792
0.000309309
0.00031926
0.000328957
0.00033944
0.000350494
0.00036194
0.000373615
0.000385412
0.000397248
0.00040907
0.000420822
0.000432459
0.000443929
0.000455257
0.000466477
0.000477584
0.000488576
0.000499457
0.000510233
0.000520915
0.000531516
0.000542051
0.000552538
0.000562999
0.000573459
0.000583947
0.000594505
0.000605144
0.000615807
0.000626511
0.000637273
0.000648107
0.000659029
0.000670049
0.000681182
0.000692437
0.000703829
0.000715366
0.000727061
0.000738921
0.000750957
0.000763172
0.000775577
0.000788173
0.000800969
0.000813963
0.000827164
0.000840565
0.000854168
0.00086796
0.00088193
0.000896045
0.00091026
0.00092448
0.000938562
0.000952264
0.000965231
0.000977615
0.000989968
0.00100224
0.00101443
0.00102649
0.00103845
0.00105019
0.00106168
0.00107286
0.0010837
0.00109415
0.00110413
0.00111361
0.00112254
0.00113088
0.00113859
0.00114565
0.00115205
0.00115802
0.00116339
0.00116848
0.0011714
0.00117383
0.0011763
0.00117787
0.00117866
0.00117874
0.00117814
0.0011769
0.00117506
0.00117266
0.00116974
0.00116634
0.0011625
0.00115828
0.00115371
0.00114884
0.00114371
0.00113836
0.00113283
0.00112716
0.00112139
0.00111557
0.00110971
0.00110385
0.001098
0.00109221
0.00108648
0.00108083
0.00107528
0.00106987
0.0010646
0.00105951
0.00105454
0.00104975
0.00104509
0.00104057
0.00103617
0.00103191
0.00102777
0.00102377
0.00101989
0.00101614
0.00101251
0.00100898
0.00100552
0.00100213
0.000998771
0.000995433
0.000992095
0.000988736
0.000985337
0.000981882
0.000978358
0.000974745
0.000971011
0.000967148
0.000963156
0.00095905
0.000954755
0.000950307
0.00094554
0.000940344
0.00093306
0.0009241
0.000914482
0.000904465
0.000894125
0.000883471
0.000872491
0.000861235
0.000849622
0.000837728
0.00082555
0.000812905
0.000799927
0.000786523
0.000773017
0.00075845
0.000720061
1.15584e-05
9.81487e-05
0.000191266
0.00026388
0.0003179
0.000357692
0.000387129
0.000408902
0.00042438
0.000433806
0.000436875
0.000433481
0.000424923
0.000415971
0.000419844
0.000432215
0.000449457
0.000469708
0.000491531
0.000514314
0.000537849
0.000564462
0.000592243
0.000616548
0.000639848
0.000663125
0.000686752
0.000710726
0.000734968
0.00075937
0.000783822
0.000808153
0.00083235
0.000856368
0.000880166
0.000903717
0.000927019
0.000950073
0.000972881
0.000995446
0.00101778
0.00103989
0.0010618
0.00108353
0.00110511
0.00112656
0.00114791
0.00116919
0.00119044
0.00121168
0.00123294
0.00125423
0.00127558
0.00129701
0.00131855
0.00134023
0.00136206
0.00138405
0.00140624
0.00142863
0.00145125
0.00147412
0.00149724
0.00152063
0.00154431
0.00156827
0.00159252
0.00161706
0.0016419
0.00166702
0.00169242
0.00171808
0.00174396
0.00177004
0.00179624
0.00182251
0.00184872
0.00187477
0.00190051
0.00192584
0.00195088
0.0019758
0.00200055
0.00202511
0.00204939
0.00207334
0.00209688
0.00211992
0.00214238
0.00216417
0.00218519
0.00220535
0.00222456
0.00224274
0.00225981
0.00227569
0.00229036
0.00230379
0.002316
0.00232686
0.00233647
0.00234417
0.00235007
0.00235433
0.00235805
0.0023602
0.0023609
0.00236023
0.00235828
0.0023551
0.00235078
0.0023454
0.00233904
0.00233178
0.0023237
0.00231491
0.00230549
0.00229551
0.00228507
0.00227425
0.00226312
0.00225176
0.00224026
0.00222866
0.00221701
0.00220537
0.00219378
0.00218229
0.00217092
0.00215971
0.0021487
0.00213791
0.00212734
0.00211699
0.00210688
0.00209697
0.00208727
0.00207777
0.00206845
0.00205932
0.00205036
0.00204156
0.00203293
0.00202443
0.00201603
0.0020077
0.0019994
0.00199109
0.00198272
0.00197426
0.00196567
0.00195692
0.00194795
0.00193876
0.0019293
0.00191953
0.00190944
0.00189895
0.00188815
0.00187695
0.00186533
0.00185315
0.00184013
0.00182516
0.00180817
0.00179002
0.00177112
0.00175161
0.00173155
0.00171093
0.0016898
0.00166813
0.00164595
0.00162332
0.00160015
0.0015764
0.00155232
0.00152768
0.00150056
0.00144383
1.70375e-05
0.00012362
0.000238465
0.000329945
0.000399438
0.000451559
0.00049096
0.000521304
0.000545261
0.000564655
0.000580708
0.000594397
0.000606955
0.000620437
0.000637517
0.000658141
0.000681541
0.000707061
0.000734193
0.000762592
0.000792487
0.000824209
0.000857275
0.000890206
0.000923292
0.000956718
0.00099047
0.00102444
0.00105862
0.001093
0.00112759
0.00116214
0.00119652
0.00123065
0.00126449
0.00129801
0.00133119
0.00136403
0.00139654
0.00142871
0.00146058
0.00149214
0.00152344
0.00155448
0.0015853
0.00161593
0.00164641
0.00167677
0.00170704
0.00173726
0.00176747
0.00179769
0.00182796
0.00185832
0.00188879
0.00191942
0.00195022
0.00198118
0.00201232
0.0020437
0.00207532
0.00210721
0.00213939
0.00217186
0.00220465
0.00223774
0.00227115
0.00230487
0.0023389
0.00237322
0.00240783
0.0024427
0.00247777
0.00251301
0.00254836
0.00258375
0.00261909
0.00265429
0.00268926
0.00272399
0.00275853
0.0027929
0.00282706
0.00286094
0.00289445
0.00292752
0.00296004
0.00299191
0.00302302
0.00305326
0.0030825
0.00311063
0.00313752
0.00316307
0.00318718
0.00320973
0.00323067
0.00324991
0.0032674
0.00328304
0.00329673
0.00330823
0.00331797
0.0033253
0.00333064
0.00333463
0.0033366
0.00333666
0.0033349
0.00333142
0.00332631
0.00331968
0.00331162
0.00330226
0.00329172
0.0032801
0.00326754
0.00325414
0.00324003
0.00322532
0.00321011
0.00319452
0.00317864
0.00316256
0.00314634
0.00313007
0.0031138
0.00309759
0.00308148
0.00306552
0.00304975
0.0030342
0.00301888
0.00300379
0.00298896
0.00297435
0.00295999
0.00294584
0.0029319
0.00291816
0.00290462
0.00289125
0.00287804
0.00286497
0.00285199
0.00283906
0.00282612
0.00281313
0.00280003
0.00278678
0.00277332
0.00275961
0.00274559
0.00273123
0.00271648
0.00270131
0.00268569
0.00266958
0.00265312
0.00263613
0.00261856
0.00260029
0.00258104
0.0025602
0.00253759
0.0025137
0.00248885
0.00246321
0.00243686
0.00240977
0.00238202
0.00235359
0.00232452
0.00229487
0.0022646
0.00223367
0.00220222
0.00217012
0.00213575
0.00207391
2.2418e-05
0.000146
0.000279755
0.000387968
0.000472158
0.000536615
0.000586511
0.000626107
0.000658743
0.000686938
0.000712536
0.000736893
0.000761092
0.000786119
0.000812784
0.000841362
0.000871817
0.000904011
0.000937796
0.00097309
0.00100992
0.00104825
0.00108783
0.00112828
0.00116941
0.00121112
0.00125327
0.00129578
0.00133848
0.00138121
0.00142383
0.00146624
0.00150841
0.00155031
0.00159188
0.0016331
0.00167394
0.00171437
0.00175439
0.00179404
0.00183333
0.00187227
0.00191088
0.0019492
0.00198725
0.00202505
0.00206265
0.00210008
0.00213737
0.00217458
0.00221172
0.00224884
0.00228598
0.00232318
0.00236048
0.00239791
0.00243553
0.00247325
0.00251113
0.00254922
0.00258753
0.0026261
0.00266493
0.00270403
0.00274343
0.00278311
0.00282309
0.00286336
0.00290391
0.00294471
0.00298582
0.00302715
0.00306868
0.00311035
0.00315212
0.00319394
0.00323575
0.00327749
0.00331909
0.00336057
0.0034019
0.00344306
0.00348399
0.00352461
0.00356484
0.00360456
0.00364369
0.0036821
0.00371967
0.00375627
0.00379178
0.00382604
0.00385894
0.00389033
0.00392009
0.00394809
0.00397424
0.00399842
0.00402054
0.00404049
0.00405817
0.00407347
0.00408642
0.00409725
0.00410547
0.00411139
0.00411536
0.00411702
0.00411647
0.0041138
0.00410912
0.00410254
0.00409417
0.00408414
0.00407258
0.00405964
0.00404545
0.00403014
0.00401387
0.00399675
0.00397892
0.00396051
0.00394162
0.00392237
0.00390284
0.00388312
0.0038633
0.00384343
0.00382358
0.0038038
0.00378414
0.00376464
0.00374532
0.0037262
0.0037073
0.00368862
0.00367016
0.00365192
0.00363389
0.00361607
0.00359844
0.003581
0.00356373
0.0035466
0.00352957
0.00351258
0.00349559
0.00347855
0.00346139
0.00344407
0.00342652
0.00340869
0.00339054
0.003372
0.00335303
0.00333359
0.00331365
0.0032931
0.00327206
0.00325042
0.00322811
0.00320504
0.003181
0.00315561
0.00312874
0.00310061
0.00307146
0.00304142
0.00301061
0.00297913
0.00294701
0.00291416
0.00288062
0.00284644
0.00281165
0.00277626
0.00274036
0.00270385
0.00266497
0.00260368
2.74718e-05
0.000165234
0.000315422
0.000438837
0.000537003
0.000613698
0.000674309
0.000723394
0.000764616
0.000800826
0.000834171
0.000866226
0.00089813
0.000930697
0.00096448
0.000999775
0.0010367
0.00107525
0.00111538
0.00115702
0.00120011
0.00124455
0.00129017
0.00133675
0.00138411
0.00143208
0.00148049
0.00152919
0.00157805
0.00162692
0.00167568
0.00172426
0.00177258
0.00182059
0.00186825
0.00191553
0.00196241
0.00200887
0.00205492
0.00210054
0.00214574
0.00219053
0.00223493
0.00227896
0.00232266
0.00236605
0.00240917
0.00245205
0.00249473
0.00253724
0.00257963
0.00262194
0.00266419
0.00270643
0.00274869
0.00279101
0.00283339
0.00287587
0.00291847
0.00296121
0.00300414
0.00304725
0.00309058
0.00313413
0.00317792
0.00322195
0.00326623
0.00331075
0.00335551
0.00340049
0.0034457
0.00349111
0.0035367
0.00358243
0.00362828
0.00367423
0.00372022
0.00376625
0.00381229
0.00385828
0.0039042
0.00394999
0.00399558
0.00404091
0.00408588
0.0041304
0.00417435
0.00421763
0.00426011
0.00430164
0.0043421
0.00438134
0.00441921
0.00445557
0.00449026
0.00452315
0.0045541
0.00458298
0.00460966
0.00463403
0.00465597
0.00467541
0.00469228
0.00470658
0.00471859
0.00472775
0.00473437
0.00473864
0.00474037
0.00473968
0.00473664
0.00473136
0.00472397
0.00471457
0.00470332
0.00469035
0.00467583
0.00465989
0.0046427
0.00462439
0.00460511
0.004585
0.00456418
0.00454277
0.00452089
0.00449863
0.00447609
0.00445334
0.00443047
0.00440753
0.00438459
0.00436169
0.00433888
0.00431618
0.00429363
0.00427125
0.00424903
0.00422701
0.00420517
0.00418352
0.00416206
0.00414079
0.00411969
0.00409874
0.0040779
0.00405713
0.00403639
0.00401562
0.00399476
0.00397377
0.00395259
0.00393116
0.00390942
0.00388733
0.00386483
0.00384188
0.00381843
0.00379445
0.00376993
0.0037448
0.00371902
0.00369248
0.00366506
0.0036365
0.00360672
0.00357579
0.00354386
0.00351104
0.0034774
0.00344306
0.00340787
0.00337195
0.00333537
0.0032982
0.0032605
0.00322235
0.00318386
0.00314498
0.00310403
0.00304579
3.20257e-05
0.000181246
0.000345393
0.000482606
0.000593643
0.00068223
0.000753471
0.000812056
0.000861802
0.000905726
0.000946146
0.000984794
0.00102292
0.0010614
0.00110082
0.00114152
0.00118369
0.00122738
0.00127259
0.00131925
0.00136727
0.00141653
0.00146688
0.00151816
0.00157018
0.00162278
0.00167581
0.00172911
0.00178254
0.00183598
0.00188931
0.00194245
0.00199532
0.00204787
0.00210003
0.00215179
0.0022031
0.00225395
0.00230434
0.00235425
0.00240369
0.00245267
0.0025012
0.00254931
0.00259702
0.00264437
0.00269137
0.00273807
0.0027845
0.0028307
0.00287671
0.00292255
0.00296828
0.00301391
0.0030595
0.00310506
0.00315063
0.00319623
0.00324189
0.00328764
0.0033335
0.0033795
0.00342564
0.00347196
0.00351846
0.00356515
0.00361204
0.00365913
0.00370644
0.00375395
0.00380166
0.00384958
0.00389767
0.00394594
0.00399437
0.00404295
0.00409165
0.00414045
0.00418934
0.00423829
0.00428724
0.00433617
0.004385
0.00443368
0.00448212
0.00453023
0.00457792
0.00462506
0.00467154
0.00471722
0.00476197
0.00480562
0.00484803
0.00488903
0.00492846
0.00496616
0.00500196
0.00503572
0.00506727
0.00509648
0.00512322
0.00514737
0.00516886
0.00518761
0.00520363
0.00521723
0.00522762
0.00523535
0.00524039
0.00524272
0.0052424
0.00523953
0.00523418
0.0052265
0.00521661
0.00520467
0.00519083
0.00517525
0.00515809
0.00513951
0.00511964
0.00509865
0.00507668
0.00505385
0.00503028
0.0050061
0.00498141
0.0049563
0.00493087
0.00490519
0.00487934
0.00485337
0.00482736
0.00480134
0.00477535
0.00474944
0.00472363
0.00469794
0.00467239
0.00464701
0.0046218
0.00459677
0.00457192
0.00454722
0.00452267
0.00449822
0.00447384
0.00444949
0.00442512
0.00440068
0.00437612
0.00435138
0.00432641
0.00430117
0.00427559
0.00424963
0.00422326
0.00419643
0.0041691
0.00414124
0.00411279
0.00408367
0.00405377
0.00402294
0.0039911
0.00395827
0.00392452
0.00388991
0.0038545
0.00381835
0.00378145
0.00374387
0.00370569
0.003667
0.0036279
0.00358851
0.00354899
0.00350931
0.00346806
0.00341374
3.59788e-05
0.000194146
0.000369859
0.000519417
0.000642029
0.000741744
0.000823169
0.000890968
0.000948995
0.00100034
0.00104743
0.00109208
0.00113567
0.00117916
0.00122322
0.00126826
0.00131455
0.00136218
0.00141119
0.00146154
0.00151314
0.00156589
0.00161964
0.00167425
0.00172956
0.00178541
0.00184166
0.00189816
0.00195477
0.00201139
0.00206789
0.00212419
0.0021802
0.00223586
0.00229111
0.00234591
0.00240023
0.00245405
0.00250736
0.00256015
0.00261242
0.00266418
0.00271544
0.00276623
0.00281656
0.00286646
0.00291596
0.0029651
0.0030139
0.00306241
0.00311065
0.00315866
0.00320648
0.00325414
0.00330168
0.00334913
0.00339651
0.00344387
0.00349121
0.00353859
0.00358601
0.00363351
0.0036811
0.00372881
0.00377666
0.00382465
0.00387281
0.00392114
0.00396967
0.00401839
0.00406731
0.00411645
0.0041658
0.00421537
0.00426515
0.00431516
0.00436537
0.00441579
0.00446641
0.0045172
0.00456814
0.00461921
0.00467034
0.0047215
0.00477261
0.00482359
0.00487436
0.00492482
0.00497484
0.0050243
0.00507305
0.00512094
0.00516782
0.00521349
0.00525779
0.00530053
0.00534152
0.00538057
0.00541751
0.00545216
0.00548436
0.00551396
0.00554084
0.0055649
0.00558605
0.00560441
0.00561992
0.00563204
0.00564131
0.00564764
0.00565104
0.00565153
0.0056492
0.00564416
0.00563654
0.00562649
0.00561418
0.00559976
0.00558339
0.00556525
0.00554548
0.00552424
0.0055017
0.00547798
0.00545322
0.00542757
0.00540113
0.00537401
0.00534633
0.00531818
0.00528965
0.00526081
0.00523174
0.00520252
0.00517319
0.00514381
0.00511443
0.0050851
0.00505584
0.0050267
0.00499771
0.00496888
0.00494022
0.00491174
0.00488343
0.00485528
0.00482726
0.00479935
0.00477151
0.00474369
0.00471586
0.00468796
0.00465996
0.00463179
0.00460341
0.00457478
0.00454586
0.0045166
0.00448697
0.00445692
0.00442639
0.00439532
0.00436362
0.0043312
0.00429797
0.00426393
0.00422909
0.00419348
0.00415713
0.0041201
0.00408241
0.00404413
0.00400536
0.0039662
0.00392678
0.00388725
0.00384781
0.00380847
0.00376809
0.00371795
3.92905e-05
0.000204177
0.000389189
0.000549328
0.000682254
0.000792121
0.000883021
0.000959494
0.00102536
0.00108371
0.00113701
0.00118718
0.00123564
0.00128346
0.00133137
0.00137989
0.00142933
0.00147987
0.00153157
0.00158445
0.00163845
0.00169348
0.00174942
0.00180614
0.00186349
0.00192133
0.00197953
0.00203795
0.00209648
0.00215502
0.00221343
0.00227162
0.00232949
0.00238696
0.00244399
0.00250052
0.00255654
0.00261201
0.00266693
0.00272129
0.00277508
0.00282832
0.00288101
0.00293318
0.00298485
0.00303604
0.00308677
0.00313709
0.00318702
0.00323659
0.00328585
0.00333481
0.00338353
0.00343203
0.00348034
0.00352851
0.00357655
0.00362451
0.00367241
0.00372027
0.00376814
0.00381603
0.00386398
0.003912
0.00396012
0.00400836
0.00405674
0.00410529
0.00415402
0.00420296
0.00425212
0.00430153
0.00435119
0.00440114
0.00445138
0.00450193
0.00455281
0.00460401
0.00465556
0.00470744
0.00475965
0.00481217
0.00486499
0.00491806
0.00497133
0.00502475
0.00507824
0.00513172
0.00518506
0.00523816
0.00529087
0.00534304
0.0053945
0.00544506
0.00549452
0.00554267
0.0055893
0.0056342
0.00567714
0.0057179
0.0057563
0.00579213
0.00582523
0.00585545
0.00588267
0.0059068
0.00592795
0.00594569
0.00596013
0.00597142
0.00597948
0.00598428
0.00598586
0.00598431
0.00597978
0.00597242
0.00596238
0.00594982
0.00593492
0.00591784
0.00589875
0.00587781
0.00585519
0.00583104
0.00580551
0.00577875
0.00575089
0.00572206
0.00569238
0.00566197
0.00563092
0.00559935
0.00556734
0.00553498
0.00550235
0.00546952
0.00543657
0.00540356
0.00537054
0.00533757
0.0053047
0.00527197
0.00523941
0.00520705
0.00517489
0.00514294
0.00511121
0.00507967
0.00504832
0.00501711
0.00498602
0.00495501
0.00492405
0.00489308
0.00486207
0.00483098
0.00479976
0.00476838
0.00473679
0.00470494
0.00467279
0.00464026
0.0046073
0.00457381
0.00453974
0.00450505
0.00446971
0.00443373
0.00439712
0.00435992
0.00432218
0.00428399
0.00424545
0.00420666
0.00416777
0.00412896
0.00409045
0.00405231
0.00401364
0.00396789
4.19606e-05
0.000211621
0.000403816
0.000572738
0.000714628
0.00083351
0.000932985
0.0010174
0.00109047
0.00115527
0.00121426
0.00126938
0.00132213
0.00137364
0.00142471
0.00147593
0.00152769
0.00158021
0.00163361
0.00168792
0.00174324
0.00179948
0.00185651
0.00191421
0.00197245
0.0020311
0.00209005
0.00214919
0.00220843
0.00226768
0.00232692
0.00238585
0.00244438
0.00250245
0.00256002
0.00261704
0.00267349
0.00272936
0.00278463
0.00283929
0.00289336
0.00294683
0.00299973
0.00305206
0.00310386
0.00315514
0.00320594
0.00325628
0.0033062
0.00335573
0.0034049
0.00345375
0.0035023
0.0035506
0.00359867
0.00364656
0.00369428
0.00374189
0.00378939
0.00383684
0.00388425
0.00393166
0.00397909
0.00402658
0.00407415
0.00412183
0.00416966
0.00421765
0.00426585
0.00431427
0.00436295
0.00441193
0.00446123
0.00451089
0.00456094
0.0046114
0.00466232
0.00471372
0.00476563
0.00481806
0.00487103
0.00492455
0.00497862
0.00503321
0.00508832
0.00514389
0.00519988
0.0052562
0.00531277
0.00536948
0.00542619
0.00548275
0.00553898
0.00559468
0.00564964
0.00570363
0.00575641
0.00580771
0.00585727
0.00590486
0.0059502
0.00599306
0.00603322
0.00607047
0.00610464
0.00613559
0.00616325
0.00618741
0.00620806
0.00622524
0.00623891
0.00624895
0.00625531
0.0062581
0.00625746
0.00625354
0.0062465
0.0062365
0.0062237
0.0062083
0.00619046
0.00617034
0.00614814
0.006124
0.00609811
0.00607061
0.00604166
0.0060114
0.00597997
0.00594751
0.00591414
0.00587998
0.00584515
0.00580974
0.00577386
0.00573762
0.00570109
0.00566437
0.00562755
0.00559069
0.00555386
0.00551714
0.00548058
0.00544421
0.0054081
0.00537225
0.0053367
0.00530144
0.00526649
0.00523184
0.00519746
0.00516333
0.00512943
0.00509573
0.00506218
0.00502876
0.00499542
0.00496213
0.00492884
0.0048955
0.00486206
0.00482847
0.00479465
0.00476053
0.00472607
0.0046912
0.00465587
0.00462005
0.00458374
0.00454698
0.00450982
0.00447237
0.00443472
0.00439699
0.00435934
0.00432196
0.00428508
0.00424881
0.00421249
0.00417119
4.40148e-05
0.000216779
0.000414206
0.000590129
0.000739556
0.000866193
0.000973188
0.00106465
0.00114415
0.00121468
0.00127869
0.00133813
0.00139452
0.00144903
0.00150253
0.00155566
0.00160894
0.00166265
0.00171688
0.00177163
0.00182724
0.0018836
0.00194062
0.00199819
0.00205623
0.0021146
0.00217323
0.00223199
0.0022908
0.00234961
0.00240842
0.00246692
0.00252497
0.00258245
0.00263935
0.00269564
0.00275129
0.00280631
0.00286068
0.00291442
0.00296753
0.00302003
0.00307193
0.00312326
0.00317403
0.00322428
0.00327404
0.00332333
0.00337219
0.00342066
0.00346875
0.00351652
0.00356399
0.00361119
0.00365817
0.00370494
0.00375155
0.00379802
0.00384439
0.0038907
0.00393696
0.00398322
0.00402951
0.00407585
0.00412228
0.00416884
0.00421555
0.00426246
0.0043096
0.00435701
0.00440473
0.00445281
0.00450128
0.0045502
0.00459961
0.00464956
0.0047001
0.00475129
0.00480316
0.00485576
0.00490913
0.0049633
0.0050183
0.00507413
0.00513081
0.00518831
0.00524661
0.00530565
0.00536537
0.00542566
0.00548641
0.00554746
0.00560864
0.00566974
0.00573052
0.00579074
0.00585011
0.00590835
0.00596515
0.0060202
0.00607321
0.00612387
0.0061719
0.00621704
0.00625904
0.00629771
0.00633287
0.00636437
0.00639211
0.00641613
0.0064364
0.00645268
0.00646471
0.00647269
0.00647676
0.00647706
0.00647376
0.00646702
0.00645701
0.00644391
0.00642791
0.00640918
0.0063879
0.00636427
0.00633845
0.00631062
0.00628095
0.0062496
0.00621673
0.00618249
0.00614703
0.00611048
0.00607299
0.00603468
0.00599567
0.00595608
0.00591604
0.00587565
0.00583502
0.00579425
0.00575344
0.00571267
0.00567204
0.0056316
0.00559144
0.00555161
0.00551215
0.0054731
0.00543448
0.00539631
0.0053586
0.00532133
0.0052845
0.00524808
0.00521205
0.00517639
0.00514105
0.005106
0.00507121
0.00503663
0.00500218
0.00496782
0.00493347
0.00489909
0.00486461
0.00482997
0.00479508
0.00475988
0.00472436
0.00468855
0.00465251
0.00461634
0.00458017
0.0045441
0.00450829
0.00447292
0.00443826
0.00440442
0.00437097
0.00433423
4.5489e-05
0.000219932
0.000420803
0.000601973
0.000757442
0.000890459
0.00100377
0.00110121
0.00118618
0.00126157
0.00132978
0.00139273
0.00145197
0.0015087
0.00156385
0.00161801
0.00167191
0.00172587
0.00178016
0.00183496
0.00189026
0.00194601
0.00200215
0.00205863
0.00211534
0.00217223
0.00222921
0.00228619
0.00234309
0.00239983
0.00245669
0.0025136
0.00256996
0.00262569
0.00268071
0.00273503
0.00278864
0.00284155
0.00289377
0.00294534
0.00299629
0.00304661
0.00309634
0.00314551
0.00319415
0.0032423
0.00328998
0.00333724
0.0033841
0.0034306
0.00347677
0.00352264
0.00356825
0.00361363
0.00365881
0.00370382
0.0037487
0.00379348
0.00383819
0.00388286
0.00392752
0.0039722
0.00401694
0.00406176
0.00410671
0.00415182
0.00419712
0.00424265
0.00428846
0.0043346
0.0043811
0.00442802
0.00447542
0.00452335
0.00457187
0.00462106
0.00467097
0.00472169
0.00477326
0.00482577
0.00487927
0.00493384
0.00498951