/*--------------------------------*- C++ -*----------------------------------*\
  =========                 |
  \\      /  F ield         | OpenFOAM: The Open Source CFD Toolbox
   \\    /   O peration     | Website:  https://openfoam.org
    \\  /    A nd           | Version:  9
     \\/     M anipulation  |
\*---------------------------------------------------------------------------*/
FoamFile
{
    format      ascii;
    class       volScalarField;
    location    "125";
    object      p;
}
// * * * * * * * * * * * * * * * * * * * * * * * * * * * * * * * * * * * * * //

dimensions      [0 2 -2 0 0 0 0];

internalField   nonuniform List<scalar> 
12225
(
-2.08485
-4.27278
-5.37246
-5.69276
-5.87347
-6.04177
-6.17242
-6.26632
-6.34132
-6.40656
-6.46374
-6.51471
-6.55908
-6.59746
-6.62898
-6.64432
-6.66066
-6.56145
-5.24728
-6.01591
-6.17621
-6.08358
-6.07052
-6.13767
-6.21429
-6.2788
-6.33683
-6.39219
-6.44405
-6.49118
-6.53388
-6.57143
-6.60422
-6.62467
-6.6496
-6.63545
-5.64794
-5.63356
-5.76074
-5.83876
-5.93313
-6.05262
-6.15889
-6.24256
-6.31283
-6.37618
-6.43364
-6.485
-6.53135
-6.57229
-6.6091
-6.63732
-6.67258
-6.69801
-5.52655
-5.46978
-5.71116
-5.86914
-5.97035
-6.07587
-6.17265
-6.25155
-6.31881
-6.38
-6.4361
-6.48687
-6.53323
-6.57511
-6.61399
-6.64853
-6.69
-6.73673
-5.51664
-5.5409
-5.7687
-5.90989
-5.993
-6.08438
-6.17472
-6.25134
-6.31749
-6.37795
-6.43382
-6.48493
-6.53212
-6.57571
-6.61732
-6.65743
-6.7039
-6.75978
-5.57478
-5.62347
-5.79747
-5.921
-6.00202
-6.08919
-6.1764
-6.25188
-6.31755
-6.37766
-6.43346
-6.48498
-6.53298
-6.57814
-6.62208
-6.66616
-6.71577
-6.77457
-5.63515
-5.67917
-5.81409
-5.93006
-6.01332
-6.09684
-6.17998
-6.25366
-6.31859
-6.37819
-6.4338
-6.4856
-6.53431
-6.5808
-6.62661
-6.67332
-6.72459
-6.78323
-5.68868
-5.72617
-5.83589
-5.94384
-6.02639
-6.10541
-6.18412
-6.25575
-6.31979
-6.37883
-6.43419
-6.4862
-6.53552
-6.58308
-6.63024
-6.67849
-6.7302
-6.78711
-5.73843
-5.77144
-5.86215
-5.9598
-6.03947
-6.11432
-6.18885
-6.25824
-6.32122
-6.37959
-6.43459
-6.48667
-6.53642
-6.58471
-6.63268
-6.68154
-6.73279
-6.78726
-5.78552
-5.81469
-5.89002
-5.97695
-6.05279
-6.12388
-6.19446
-6.26136
-6.32302
-6.38057
-6.43507
-6.48702
-6.53693
-6.58556
-6.63381
-6.68257
-6.73273
-6.78454
-5.82989
-5.85532
-5.91836
-5.99529
-6.06666
-6.1341
-6.20089
-6.26513
-6.32525
-6.3818
-6.43565
-6.48725
-6.53704
-6.58562
-6.63368
-6.68181
-6.7305
-6.77965
-5.86799
-5.89028
-5.94434
-6.01297
-6.07983
-6.1439
-6.2074
-6.26912
-6.32766
-6.38316
-6.43624
-6.48731
-6.53673
-6.58496
-6.63249
-6.6797
-6.72686
-6.77369
-5.90319
-5.92286
-5.96958
-6.03081
-6.09309
-6.15385
-6.21423
-6.27346
-6.33032
-6.38465
-6.43684
-6.48722
-6.53608
-6.58371
-6.63047
-6.67658
-6.72214
-6.76684
-5.9401
-5.95725
-5.9972
-6.0511
-6.10828
-6.1653
-6.22231
-6.27876
-6.3336
-6.38645
-6.43748
-6.48689
-6.53485
-6.58157
-6.62721
-6.67188
-6.71559
-6.75803
-5.97746
-5.99223
-6.02619
-6.07323
-6.12505
-6.17799
-6.23146
-6.28488
-6.33739
-6.38844
-6.43798
-6.48607
-6.53279
-6.57822
-6.62239
-6.66533
-6.70699
-6.74713
-6.01333
-6.02596
-6.0549
-6.09586
-6.14245
-6.19122
-6.24109
-6.2914
-6.34134
-6.3903
-6.43803
-6.48446
-6.52959
-6.57338
-6.61578
-6.65676
-6.69626
-6.7341
-6.0448
-6.05569
-6.08069
-6.11671
-6.15869
-6.20357
-6.25005
-6.29734
-6.34465
-6.39135
-6.43705
-6.48159
-6.52484
-6.56673
-6.60715
-6.64604
-6.68334
-6.71896
-6.06749
-6.07718
-6.09952
-6.1321
-6.1707
-6.21256
-6.25631
-6.30105
-6.34603
-6.39059
-6.43429
-6.47688
-6.51817
-6.55808
-6.59649
-6.63331
-6.66848
-6.702
-6.0745
-6.08369
-6.10501
-6.13629
-6.17355
-6.21406
-6.2564
-6.29969
-6.34318
-6.38623
-6.42836
-6.46931
-6.50891
-6.54705
-6.58363
-6.61861
-6.65192
-6.68363
-6.05852
-6.06832
-6.09101
-6.12421
-6.16336
-6.20525
-6.24844
-6.29222
-6.33589
-6.37881
-6.42054
-6.46088
-6.49967
-6.53689
-6.57241
-6.60626
-6.63839
-6.66892
-6.03174
-6.04257
-6.06791
-6.10504
-6.14794
-6.19261
-6.23787
-6.28328
-6.32812
-6.3717
-6.41371
-6.45404
-6.49266
-6.52948
-6.56453
-6.59778
-6.62931
-6.65918
-5.99657
-6.00841
-6.03783
-6.0815
-6.12988
-6.17799
-6.22593
-6.27378
-6.32046
-6.36517
-6.40781
-6.44847
-6.48717
-6.52388
-6.55867
-6.59158
-6.62271
-6.65216
-5.95605
-5.96796
-6.00247
-6.05582
-6.11145
-6.1635
-6.21447
-6.26499
-6.31358
-6.35951
-6.40296
-6.44415
-6.48311
-6.51989
-6.55456
-6.58731
-6.6182
-6.6474
-5.91237
-5.92336
-5.96518
-6.02965
-6.0919
-6.14865
-6.20433
-6.25823
-6.30852
-6.35534
-6.39944
-6.44105
-6.4802
-6.51697
-6.55156
-6.58414
-6.61484
-6.6438
-5.86549
-5.87096
-5.93366
-6.01191
-6.07391
-6.13222
-6.1934
-6.25178
-6.30429
-6.35231
-6.39725
-6.4394
-6.47877
-6.51556
-6.55005
-6.58249
-6.61304
-6.64187
-5.82224
-5.78581
-5.89538
-6.0064
-6.0687
-6.12402
-6.18626
-6.24601
-6.2992
-6.34786
-6.39347
-6.43613
-6.47578
-6.51273
-6.54729
-6.57974
-6.61027
-6.63904
-5.83634
-5.67736
-5.80633
-5.96047
-6.05063
-6.12203
-6.19097
-6.25188
-6.30464
-6.35285
-6.39801
-6.44009
-6.47914
-6.5155
-6.54949
-6.58142
-6.61151
-6.63997
-5.95907
-5.77908
-5.79334
-5.86552
-5.95395
-6.0532
-6.1439
-6.21767
-6.27933
-6.33438
-6.38456
-6.43014
-6.47169
-6.50986
-6.54515
-6.57802
-6.60892
-6.63843
-5.66638
-6.25797
-6.34687
-6.22267
-6.16837
-6.19557
-6.24256
-6.28578
-6.32729
-6.36938
-6.41073
-6.44987
-6.48657
-6.52096
-6.55311
-6.58319
-6.61139
-6.63947
-2.67813
-4.44092
-5.44565
-5.74484
-5.89404
-6.0377
-6.15174
-6.23268
-6.29685
-6.35362
-6.40473
-6.45057
-6.49199
-6.52988
-6.56475
-6.59642
-6.62472
-6.64785
-7.7823
-7.78173
-7.78219
-7.78463
-7.78832
-7.79287
-7.79823
-7.80437
-7.81132
-7.81901
-7.82689
-7.83415
-7.84207
-7.85287
-7.86616
-7.88056
-7.8954
-7.91026
-7.92669
-7.94614
-7.96495
-7.97883
-7.99207
-8.01013
-8.03214
-8.05614
-8.08179
-8.10878
-8.13687
-8.16584
-8.19551
-8.22565
-8.25611
-8.28668
-8.31722
-8.34755
-8.37755
-8.40705
-8.43595
-8.46413
-8.49147
-8.51786
-8.54323
-8.56743
-8.59041
-8.61204
-8.63223
-8.65086
-8.66784
-8.68301
-8.69628
-8.70747
-8.71647
-8.72307
-8.72714
-8.72845
-8.72685
-8.72208
-8.71394
-8.70218
-8.68656
-8.6668
-8.64264
-8.61376
-8.57989
-8.54068
-8.49585
-8.44502
-8.3879
-8.32412
-8.2534
-8.17539
-8.08986
-7.99651
-7.89521
-7.78574
-7.66795
-7.54133
-7.40539
-7.25979
-7.10463
-6.93996
-6.76596
-6.58263
-6.3902
-6.18876
-5.9788
-5.76076
-5.53535
-5.30307
-5.0642
-4.81942
-4.56946
-4.31519
-4.05745
-3.79714
-3.53515
-3.27239
-3.00974
-2.74808
-2.48825
-2.23109
-1.97732
-1.72772
-1.48293
-1.24354
-1.01
-0.782669
-0.561816
-0.347628
-0.140215
0.060398
0.254244
0.441433
0.622169
0.796682
0.965276
1.12836
1.28638
1.43974
1.58888
1.73426
1.87647
2.01606
2.15373
2.29002
2.42565
2.56113
2.69722
2.83445
2.97358
3.11511
3.2598
3.40812
3.56078
3.71817
3.88096
4.04959
4.22463
4.40631
4.5949
4.79066
4.99387
5.2048
5.42361
5.65036
5.88499
6.12743
6.37746
6.63484
6.89921
7.17016
7.44721
7.72979
8.01727
8.30897
8.60419
8.90216
9.20209
9.50317
9.80456
10.1054
10.4049
10.7018
10.995
11.2836
11.567
11.8443
12.1146
12.3774
12.6318
12.8773
13.1134
13.3399
13.5569
13.7649
13.9666
14.1644
14.3817
14.6078
-7.77841
-7.779
-7.78
-7.78195
-7.78419
-7.7866
-7.78948
-7.79307
-7.79737
-7.80218
-7.80712
-7.81242
-7.81975
-7.82914
-7.83859
-7.84762
-7.85644
-7.866
-7.87783
-7.89057
-7.90257
-7.91928
-7.94349
-7.96934
-7.99429
-8.01983
-8.0463
-8.07374
-8.10209
-8.13123
-8.16099
-8.19119
-8.22166
-8.25222
-8.2827
-8.31296
-8.34286
-8.37225
-8.40103
-8.42908
-8.4563
-8.48257
-8.50783
-8.53195
-8.55487
-8.57647
-8.59666
-8.61534
-8.63241
-8.64774
-8.66122
-8.67269
-8.68202
-8.68906
-8.69363
-8.69555
-8.69463
-8.69066
-8.68343
-8.67269
-8.65821
-8.63972
-8.61695
-8.58962
-8.55744
-8.52009
-8.47726
-8.42863
-8.37387
-8.31265
-8.24466
-8.16955
-8.08704
-7.99681
-7.89857
-7.79197
-7.67665
-7.55232
-7.41892
-7.2764
-7.1247
-6.96371
-6.79344
-6.61389
-6.42522
-6.22753
-6.02116
-5.80656
-5.58442
-5.35505
-5.11892
-4.87657
-4.62876
-4.37629
-4.12001
-3.86076
-3.59943
-3.33692
-3.07413
-2.81194
-2.55123
-2.29281
-2.03748
-1.786
-1.53905
-1.29727
-1.06113
-0.831056
-0.607349
-0.390233
-0.179851
0.0237332
0.220521
0.410631
0.594186
0.771398
0.942522
1.10796
1.26811
1.42339
1.57418
1.72101
1.86438
2.00496
2.14329
2.28005
2.41582
2.55127
2.68702
2.82374
2.96206
3.10265
3.24614
3.39313
3.54423
3.69996
3.86091
4.02763
4.20059
4.38013
4.56649
4.75996
4.96084
5.16944
5.3859
5.61032
5.84268
6.08291
6.33081
6.58616
6.84862
7.11779
7.39317
7.67422
7.96032
8.2508
8.54492
8.84196
9.14111
9.44156
9.7424
10.0427
10.3416
10.6378
10.9306
11.2191
11.5024
11.7799
12.0506
12.314
12.5692
12.8157
13.0531
13.2812
13.5001
13.7105
13.9152
14.1156
14.3325
14.5443
-7.76815
-7.77122
-7.7751
-7.77869
-7.78137
-7.78351
-7.78565
-7.78813
-7.79106
-7.7944
-7.79808
-7.80237
-7.80805
-7.81538
-7.8235
-7.83197
-7.84089
-7.85086
-7.86252
-7.87534
-7.88864
-7.90419
-7.92369
-7.94604
-7.96989
-7.99496
-8.02105
-8.04805
-8.07584
-8.1043
-8.13329
-8.16264
-8.1922
-8.22184
-8.2514
-8.28075
-8.30977
-8.33834
-8.36635
-8.39368
-8.42025
-8.44594
-8.47068
-8.49437
-8.51691
-8.5382
-8.55817
-8.57669
-8.59367
-8.60899
-8.62254
-8.63416
-8.64373
-8.65108
-8.65607
-8.6585
-8.6582
-8.65495
-8.64856
-8.63878
-8.62538
-8.6081
-8.58668
-8.56084
-8.5303
-8.49475
-8.45389
-8.40739
-8.35494
-8.29622
-8.23089
-8.15865
-8.07917
-7.99214
-7.89724
-7.79411
-7.68242
-7.56187
-7.43234
-7.29376
-7.14609
-6.98921
-6.8231
-6.64776
-6.4633
-6.26979
-6.06749
-5.85686
-5.63838
-5.41252
-5.17957
-4.94015
-4.69499
-4.4448
-4.19043
-3.93267
-3.67242
-3.41054
-3.14796
-2.88554
-2.62417
-2.36466
-2.10787
-1.85459
-1.60553
-1.36134
-1.12254
-0.889591
-0.66285
-0.442599
-0.229011
-0.0222128
0.177765
0.370997
0.557562
0.737639
0.911489
1.07944
1.24186
1.39915
1.55167
1.69994
1.84445
1.98588
2.12472
2.2617
2.39734
2.53241
2.66742
2.80318
2.9402
3.07929
3.22098
3.36599
3.51484
3.66817
3.82653
3.9905
4.16055
4.33702
4.52023
4.71045
4.90807
5.11332
5.32644
5.54749
5.77652
6.01345
6.25814
6.51036
6.76982
7.0361
7.30876
7.58724
7.87097
8.15928
8.45149
8.74687
9.04464
9.34404
9.64417
9.94412
10.2429
10.5395
10.8329
11.1224
11.407
11.6859
11.9583
12.2235
12.4809
12.7297
12.9697
13.2006
13.4227
13.6365
13.8449
14.0482
14.2636
14.4546
-7.75134
-7.75732
-7.76525
-7.77166
-7.77593
-7.77889
-7.78127
-7.78352
-7.7859
-7.78857
-7.79168
-7.79546
-7.80027
-7.80635
-7.81355
-7.8217
-7.83079
-7.8411
-7.85295
-7.86638
-7.8813
-7.89803
-7.91703
-7.93821
-7.96108
-7.9853
-8.01062
-8.03686
-8.06388
-8.09155
-8.11971
-8.14823
-8.17697
-8.20578
-8.23453
-8.26311
-8.29139
-8.31926
-8.34662
-8.37336
-8.39939
-8.4246
-8.44893
-8.47226
-8.49451
-8.51559
-8.5354
-8.55384
-8.57082
-8.58621
-8.59989
-8.61174
-8.62161
-8.62936
-8.63482
-8.63781
-8.63817
-8.63567
-8.63012
-8.62127
-8.60891
-8.59278
-8.57262
-8.54814
-8.51906
-8.48509
-8.44591
-8.40121
-8.35068
-8.29398
-8.23079
-8.16078
-8.08362
-7.999
-7.90658
-7.80603
-7.69703
-7.57932
-7.45273
-7.31714
-7.17244
-7.01855
-6.85541
-6.68303
-6.50147
-6.31082
-6.11129
-5.90324
-5.68722
-5.46346
-5.23246
-4.99478
-4.75109
-4.50213
-4.24866
-3.99153
-3.73156
-3.46968
-3.20676
-2.9437
-2.68139
-2.42069
-2.16244
-1.90746
-1.65652
-1.41026
-1.16922
-0.933903
-0.704693
-0.481913
-0.265775
-0.0564353
0.146044
0.341683
0.530554
0.712812
0.888713
1.05853
1.2226
1.3813
1.53504
1.6843
1.8296
1.97155
2.1107
2.24771
2.38317
2.5178
2.65219
2.78707
2.92304
3.06087
3.20112
3.34452
3.4916
3.64304
3.79938
3.96118
4.12892
4.30296
4.48363
4.67129
4.86629
5.0689
5.27932
5.49766
5.72396
5.95817
6.20016
6.44972
6.70655
6.97027
7.24045
7.51656
7.79802
8.0842
8.37445
8.66805
8.96423
9.26219
9.56107
9.86001
10.1581
10.4543
10.7477
11.0375
11.3227
11.6025
11.876
12.1425
12.4014
12.652
12.8939
13.1269
13.3513
13.5674
13.7777
13.9814
14.1921
14.3644
-7.73214
-7.74107
-7.7535
-7.76324
-7.76969
-7.77413
-7.77752
-7.7804
-7.78316
-7.7861
-7.78947
-7.79353
-7.79852
-7.80462
-7.81187
-7.82029
-7.82992
-7.84089
-7.85336
-7.8674
-7.8831
-7.90054
-7.91977
-7.94069
-7.96309
-7.98675
-8.01149
-8.03712
-8.06349
-8.09047
-8.1179
-8.14567
-8.17364
-8.20169
-8.2297
-8.25754
-8.28513
-8.31235
-8.3391
-8.36528
-8.39082
-8.41561
-8.43957
-8.46261
-8.48464
-8.50557
-8.5253
-8.54374
-8.56079
-8.57632
-8.59022
-8.60236
-8.6126
-8.6208
-8.62678
-8.63038
-8.63141
-8.62967
-8.62496
-8.61705
-8.60569
-8.59064
-8.57164
-8.5484
-8.52065
-8.48807
-8.45037
-8.40721
-8.35829
-8.30325
-8.24178
-8.17354
-8.0982
-8.01541
-7.92485
-7.82621
-7.71916
-7.60344
-7.47885
-7.3452
-7.20237
-7.05026
-6.8888
-6.718
-6.5379
-6.34858
-6.15022
-5.94321
-5.72788
-5.50476
-5.27404
-5.0365
-4.79271
-4.54347
-4.28947
-4.03162
-3.77073
-3.50776
-3.24356
-2.97908
-2.71523
-2.4529
-2.19298
-1.93626
-1.68355
-1.43548
-1.19267
-0.955586
-0.724663
-0.50022
-0.28252
-0.0717089
0.132124
0.328971
0.518896
0.702054
0.878691
1.04906
1.21348
1.37231
1.52604
1.67508
1.82008
1.96146
2.09997
2.23608
2.37061
2.50404
2.63723
2.77067
2.90523
3.04142
3.18008
3.32169
3.46703
3.61661
3.77109
3.93096
4.0967
4.26871
4.44733
4.633
4.82601
5.02669
5.23516
5.45161
5.67602
5.9084
6.14855
6.39633
6.65143
6.91349
7.18201
7.45656
7.73653
8.02133
8.31026
8.60263
8.89768
9.19462
9.49261
9.79081
10.0883
10.3842
10.6776
10.9676
11.2532
11.5337
11.8081
12.0756
12.3357
12.5876
12.831
13.0655
13.2914
13.5088
13.7194
13.9215
14.1261
14.2831
-7.71473
-7.72629
-7.7427
-7.75554
-7.76427
-7.77053
-7.77538
-7.77944
-7.78319
-7.78701
-7.79122
-7.79609
-7.80183
-7.8086
-7.8165
-7.82562
-7.83602
-7.84778
-7.86099
-7.87568
-7.8919
-7.90966
-7.92896
-7.94969
-7.97174
-7.99493
-8.01913
-8.04418
-8.06995
-8.09628
-8.12306
-8.15016
-8.17747
-8.20486
-8.23223
-8.25947
-8.28648
-8.31317
-8.33944
-8.3652
-8.39037
-8.41485
-8.43858
-8.46144
-8.48338
-8.50428
-8.52405
-8.54261
-8.55984
-8.57562
-8.58985
-8.60239
-8.6131
-8.62183
-8.62843
-8.63271
-8.63449
-8.63358
-8.62976
-8.62281
-8.61248
-8.59852
-8.58067
-8.55865
-8.53216
-8.50091
-8.46457
-8.42283
-8.37535
-8.32179
-8.26181
-8.19506
-8.12121
-8.03991
-7.95082
-7.8536
-7.74797
-7.63361
-7.51031
-7.37784
-7.23607
-7.08485
-6.92413
-6.75389
-6.57417
-6.38503
-6.18665
-5.97934
-5.76364
-5.53964
-5.30803
-5.06926
-4.8241
-4.57325
-4.31752
-4.05775
-3.79485
-3.52973
-3.26334
-2.99663
-2.73055
-2.46606
-2.20404
-1.94535
-1.69073
-1.4409
-1.19647
-0.957939
-0.725725
-0.500179
-0.281569
-0.0700551
0.134276
0.331415
0.521419
0.704457
0.880747
1.05056
1.21422
1.37212
1.52471
1.67251
1.81606
1.95592
2.09272
2.22707
2.35968
2.49117
2.62229
2.75367
2.88608
3.02013
3.15659
3.29604
3.43919
3.58666
3.73901
3.89677
4.0604
4.23032
4.40693
4.59067
4.78187
4.98081
5.18761
5.40244
5.62534
5.85627
6.09505
6.34149
6.59533
6.85621
7.12367
7.39724
7.67634
7.96035
8.24862
8.54042
8.83501
9.1316
9.42936
9.72743
10.0249
10.321
10.6148
10.9053
11.1916
11.473
11.7484
12.0171
12.2784
12.5317
12.7764
13.0123
13.2393
13.4573
13.6675
13.8672
14.066
14.2102
-7.7022
-7.71583
-7.73516
-7.75042
-7.76117
-7.76922
-7.77562
-7.78105
-7.78602
-7.79095
-7.7962
-7.80205
-7.80871
-7.81635
-7.82509
-7.83501
-7.84619
-7.85869
-7.87256
-7.88782
-7.90447
-7.92251
-7.94189
-7.96254
-7.98436
-8.00723
-8.03103
-8.05563
-8.08091
-8.10673
-8.13298
-8.15955
-8.18632
-8.2132
-8.24007
-8.26684
-8.29343
-8.31973
-8.34566
-8.37114
-8.39609
-8.42041
-8.44404
-8.46688
-8.48885
-8.50986
-8.52982
-8.54862
-8.56616
-8.58233
-8.59701
-8.61006
-8.62135
-8.63073
-8.63803
-8.64308
-8.6457
-8.64567
-8.6428
-8.63685
-8.62757
-8.61472
-8.59802
-8.57719
-8.55194
-8.52194
-8.48689
-8.44645
-8.40028
-8.34803
-8.28935
-8.22388
-8.15126
-8.07114
-7.98317
-7.88701
-7.78233
-7.66884
-7.54626
-7.41438
-7.273
-7.122
-6.96127
-6.7908
-6.61061
-6.42077
-6.22142
-6.01295
-5.79566
-5.57003
-5.33638
-5.09539
-4.84783
-4.59439
-4.33595
-4.07333
-3.80753
-3.53946
-3.27013
-3.00055
-2.7317
-2.46459
-2.20012
-1.93919
-1.68254
-1.43092
-1.18492
-0.945095
-0.711859
-0.485588
-0.266511
-0.0548204
0.149418
0.346195
0.535597
0.71778
0.892969
1.06146
1.22356
1.37974
1.53041
1.6762
1.81752
1.95512
2.08947
2.22141
2.35141
2.48039
2.60883
2.73766
2.86738
2.99889
3.13272
3.26968
3.41033
3.55539
3.70536
3.86078
4.02213
4.18981
4.36434
4.54608
4.73545
4.93263
5.1378
5.35102
5.57243
5.80193
6.03942
6.28468
6.53746
6.79739
7.06404
7.33692
7.61546
7.89906
8.18704
8.47869
8.77327
9.06997
9.36796
9.6664
9.96439
10.2611
10.5556
10.847
11.1344
11.417
11.6937
11.9638
12.2265
12.4812
12.7273
12.9645
13.1924
13.4108
13.6202
13.8173
14.0109
14.1446
-7.69634
-7.71119
-7.73223
-7.74908
-7.76136
-7.77089
-7.77871
-7.78543
-7.79159
-7.79764
-7.80394
-7.81076
-7.81834
-7.82684
-7.83638
-7.84705
-7.85893
-7.87207
-7.88648
-7.90219
-7.91918
-7.93744
-7.9569
-7.97752
-7.9992
-8.02184
-8.04535
-8.06961
-8.09452
-8.11995
-8.14581
-8.17198
-8.19837
-8.22487
-8.2514
-8.27786
-8.30417
-8.33025
-8.35601
-8.38137
-8.40626
-8.43058
-8.45427
-8.47724
-8.49941
-8.52067
-8.54095
-8.56014
-8.57814
-8.59482
-8.61007
-8.62376
-8.63575
-8.64588
-8.65399
-8.6599
-8.66342
-8.66436
-8.66249
-8.65758
-8.64939
-8.63766
-8.62211
-8.60246
-8.5784
-8.54961
-8.51577
-8.47653
-8.43155
-8.38046
-8.3229
-8.2585
-8.18688
-8.10767
-8.02052
-7.92506
-7.82095
-7.70787
-7.58555
-7.45372
-7.31218
-7.16078
-6.99942
-6.82804
-6.64667
-6.45536
-6.25429
-6.04376
-5.82423
-5.59593
-5.35945
-5.11543
-4.8646
-4.60778
-4.34581
-4.07963
-3.8102
-3.53855
-3.26572
-2.99277
-2.72076
-2.45071
-2.18358
-1.92025
-1.66153
-1.40813
-1.16069
-0.919757
-0.685807
-0.459159
-0.240041
-0.028627
0.17501
0.370879
0.559087
0.739797
0.913255
1.07976
1.23969
1.39348
1.54166
1.68476
1.82333
1.95803
2.08947
2.21838
2.34541
2.47132
2.59678
2.72259
2.8494
2.978
3.10902
3.24322
3.38125
3.52371
3.67119
3.82417
3.98317
4.14863
4.32102
4.50076
4.6882
4.88358
5.08706
5.29874
5.5187
5.74689
5.98318
6.22738
6.47923
6.73837
7.00436
7.27673
7.5549
7.83827
8.12617
8.4179
8.71267
9.00972
9.3082
9.60727
9.90602
10.2036
10.4992
10.7918
11.0804
11.3643
11.6425
11.9141
12.1784
12.4346
12.6821
12.9205
13.1492
13.3678
13.5763
13.7708
13.9598
14.0852
-7.69747
-7.71275
-7.73434
-7.7519
-7.76511
-7.77571
-7.7846
-7.79238
-7.79956
-7.80658
-7.8138
-7.82148
-7.82986
-7.83909
-7.84931
-7.86061
-7.87305
-7.88667
-7.90151
-7.91755
-7.93479
-7.9532
-7.97273
-7.99332
-8.01489
-8.03738
-8.06068
-8.08469
-8.10933
-8.13449
-8.16008
-8.18599
-8.21213
-8.23841
-8.26475
-8.29105
-8.31725
-8.34326
-8.36901
-8.39442
-8.4194
-8.44389
-8.46781
-8.49106
-8.51357
-8.53525
-8.556
-8.57572
-8.5943
-8.61163
-8.62758
-8.64202
-8.65481
-8.66579
-8.6748
-8.68165
-8.68615
-8.68811
-8.68729
-8.68347
-8.67639
-8.66579
-8.65139
-8.63289
-8.60999
-8.58235
-8.54965
-8.51153
-8.46762
-8.41755
-8.36095
-8.29743
-8.22659
-8.14806
-8.06144
-7.96636
-7.86247
-7.74942
-7.62691
-7.49467
-7.35248
-7.20015
-7.03757
-6.86468
-6.68149
-6.48806
-6.28453
-6.07128
-5.84862
-5.61706
-5.37695
-5.12915
-4.87434
-4.61343
-4.34727
-4.07687
-3.80325
-3.5275
-3.25073
-2.97404
-2.69859
-2.4254
-2.15549
-1.88971
-1.62895
-1.37387
-1.12519
-0.883443
-0.649109
-0.42245
-0.203721
0.00694494
0.209466
0.403892
0.59033
0.768979
0.940109
1.10403
1.2612
1.41203
1.55716
1.69701
1.83233
1.96361
2.09171
2.21713
2.34081
2.46326
2.58545
2.70792
2.83159
2.95701
3.08507
3.21634
3.35159
3.49133
3.63614
3.78657
3.9431
4.10627
4.2765
4.45426
4.63984
4.8335
5.03538
5.24563
5.46426
5.69128
5.92652
6.16982
6.4209
6.67941
6.94492
7.21695
7.49492
7.77824
8.06624
8.35819
8.65336
8.95093
9.25009
9.54997
9.84971
10.1484
10.4452
10.7391
11.0293
11.3147
11.5945
11.8678
12.1337
12.3914
12.6404
12.8799
13.1093
13.3279
13.5355
13.7276
13.9127
14.0317
-7.70503
-7.72002
-7.74117
-7.75864
-7.77218
-7.78335
-7.79293
-7.80144
-7.80937
-7.81713
-7.82506
-7.83342
-7.84242
-7.85222
-7.86295
-7.8747
-7.88754
-7.90151
-7.91662
-7.93288
-7.95027
-7.96876
-7.98832
-8.00888
-8.03038
-8.05274
-8.07589
-8.09974
-8.12421
-8.14921
-8.17464
-8.20041
-8.22644
-8.25264
-8.27893
-8.30524
-8.33148
-8.35758
-8.38347
-8.40908
-8.43433
-8.45913
-8.48342
-8.50711
-8.53011
-8.55234
-8.5737
-8.59407
-8.61337
-8.63146
-8.64821
-8.66351
-8.67719
-8.6891
-8.69907
-8.70692
-8.71245
-8.71546
-8.71573
-8.713
-8.70704
-8.69756
-8.68429
-8.66692
-8.64512
-8.61858
-8.58693
-8.54982
-8.50687
-8.45769
-8.40189
-8.33907
-8.2688
-8.19071
-8.10436
-8.00937
-7.90537
-7.79199
-7.66891
-7.53584
-7.39253
-7.23879
-7.07448
-6.89953
-6.71395
-6.51778
-6.31119
-6.09452
-5.86823
-5.63258
-5.3883
-5.13602
-4.87664
-4.611
-4.3401
-4.06495
-3.78667
-3.50641
-3.22535
-2.94469
-2.6656
-2.38917
-2.1164
-1.84823
-1.5855
-1.32896
-1.07929
-0.837062
-0.602679
-0.376419
-0.158497
0.0509504
0.251877
0.444346
0.628492
0.804543
0.97279
1.13361
1.28746
1.43485
1.57634
1.71252
1.84403
1.97153
2.09575
2.21739
2.33724
2.45601
2.57451
2.69342
2.81358
2.93564
3.06043
3.18859
3.32081
3.45766
3.59971
3.7475
3.90157
4.06245
4.23058
4.40638
4.59017
4.7822
4.98261
5.19152
5.40899
5.63496
5.86933
6.11189
6.36238
6.62044
6.88564
7.15749
7.43544
7.71886
8.0071
8.29943
8.59513
8.89337
9.19335
9.49419
9.79504
10.095
10.3932
10.6886
10.9804
11.2675
11.549
11.824
12.0916
12.351
12.6013
12.8419
13.072
13.2907
13.4973
13.6872
13.869
13.9831
-7.7179
-7.73205
-7.75196
-7.76866
-7.78197
-7.79322
-7.80306
-7.81194
-7.82032
-7.82855
-7.83695
-7.84576
-7.85517
-7.86535
-7.87642
-7.88846
-7.90155
-7.91571
-7.93097
-7.94734
-7.96479
-7.9833
-8.00284
-8.02335
-8.04477
-8.06704
-8.09009
-8.11384
-8.13822
-8.16315
-8.18853
-8.21429
-8.24034
-8.26658
-8.29297
-8.31941
-8.34584
-8.37218
-8.39837
-8.42432
-8.44997
-8.47523
-8.50004
-8.52429
-8.54792
-8.57082
-8.59289
-8.61403
-8.63413
-8.65306
-8.67071
-8.68691
-8.70154
-8.71443
-8.7254
-8.73427
-8.74085
-8.74492
-8.74626
-8.74462
-8.73974
-8.73135
-8.71916
-8.70284
-8.68209
-8.65654
-8.62585
-8.58964
-8.54751
-8.49907
-8.4439
-8.38159
-8.31169
-8.23379
-8.14746
-8.05228
-7.94786
-7.83382
-7.70981
-7.57552
-7.43068
-7.27508
-7.10857
-6.93108
-6.7426
-6.54317
-6.33297
-6.11238
-5.88176
-5.64163
-5.39253
-5.13526
-4.87076
-4.59992
-4.3238
-4.04349
-3.76018
-3.47512
-3.18955
-2.90477
-2.62192
-2.34219
-2.06655
-1.79603
-1.53144
-1.27363
-1.02321
-0.780788
-0.546693
-0.321234
-0.10456
0.103186
0.302026
0.492017
0.673346
0.846265
1.01109
1.16829
1.31829
1.46174
1.59909
1.73111
1.85832
1.9816
2.10149
2.21896
2.33456
2.44928
2.5637
2.67879
2.79512
2.91362
3.03491
3.15978
3.28881
3.42263
3.56181
3.7069
3.8585
4.01708
4.18315
4.35704
4.53913
4.72959
4.92864
5.13634
5.35277
5.57785
5.81148
6.05345
6.3035
6.56126
6.82631
7.09815
7.37621
7.6599
7.94853
8.24141
8.53776
8.83683
9.13776
9.43973
9.74182
10.0432
10.3429
10.64
10.9335
11.2224
11.5057
11.7826
12.0519
12.3129
12.5647
12.8065
13.0373
13.2559
13.4617
13.6498
13.8288
13.9392
-7.73473
-7.74761
-7.76569
-7.78109
-7.79368
-7.80456
-7.81427
-7.82318
-7.83168
-7.84009
-7.8487
-7.85773
-7.86735
-7.87772
-7.88895
-7.90112
-7.9143
-7.92853
-7.94382
-7.96018
-7.97761
-7.99608
-8.01556
-8.036
-8.05736
-8.07956
-8.10255
-8.12626
-8.15061
-8.17554
-8.20097
-8.2268
-8.25297
-8.27939
-8.30599
-8.3327
-8.35945
-8.38616
-8.41276
-8.43919
-8.46537
-8.49121
-8.51664
-8.54156
-8.5659
-8.58956
-8.61243
-8.6344
-8.65536
-8.67518
-8.69374
-8.71088
-8.72646
-8.74032
-8.75228
-8.76216
-8.76975
-8.77484
-8.7772
-8.77658
-8.77272
-8.76533
-8.75412
-8.73877
-8.71893
-8.69427
-8.6644
-8.62894
-8.58749
-8.53961
-8.48489
-8.42288
-8.35312
-8.27519
-8.18861
-8.09297
-7.98785
-7.87283
-7.74755
-7.61169
-7.46495
-7.3071
-7.13799
-6.95753
-6.76571
-6.56258
-6.34832
-6.1233
-5.88799
-5.6428
-5.38844
-5.12577
-4.85571
-4.57926
-4.29752
-4.01168
-3.72301
-3.43285
-3.14255
-2.85342
-2.56672
-2.28359
-2.00515
-1.73237
-1.46615
-1.20729
-0.956457
-0.714186
-0.480833
-0.256644
-0.0417726
0.163713
0.359862
0.546787
0.724698
0.893887
1.05474
1.20771
1.35335
1.49223
1.62498
1.75227
1.87479
1.99331
2.10857
2.22138
2.33249
2.44277
2.55293
2.66385
2.77623
2.89091
3.00859
3.12999
3.25575
3.38646
3.52271
3.66511
3.81423
3.97056
4.13457
4.30663
4.48704
4.67604
4.87378
5.08038
5.29585
5.52015
5.75316
5.99467
6.2444
6.502
6.76702
7.03897
7.31728
7.60135
7.89049
8.18402
8.48116
8.78115
9.08315
9.38633
9.68979
9.99264
10.2939
10.5928
10.8881
11.1789
11.4642
11.7429
12.0141
12.2768
12.5301
12.773
13.0045
13.2232
13.4283
13.6148
13.7915
13.8993
-7.75408
-7.76542
-7.78128
-7.795
-7.80648
-7.81662
-7.82583
-7.83443
-7.84274
-7.85105
-7.85962
-7.86862
-7.87824
-7.88861
-7.89983
-7.91197
-7.9251
-7.93927
-7.95448
-7.97076
-7.9881
-8.00647
-8.02586
-8.04623
-8.06752
-8.08968
-8.11264
-8.13635
-8.16073
-8.18571
-8.21123
-8.23722
-8.26359
-8.29028
-8.31721
-8.34429
-8.37146
-8.39865
-8.42578
-8.45277
-8.47956
-8.50605
-8.53217
-8.55782
-8.58292
-8.60737
-8.63105
-8.65386
-8.67568
-8.69637
-8.71581
-8.73385
-8.75033
-8.7651
-8.77797
-8.78877
-8.79727
-8.80328
-8.80655
-8.80683
-8.80385
-8.79734
-8.78697
-8.77243
-8.75337
-8.72942
-8.70021
-8.66533
-8.62435
-8.57685
-8.52236
-8.46044
-8.3906
-8.31238
-8.22531
-8.12895
-8.02284
-7.90655
-7.77971
-7.64195
-7.49299
-7.33257
-7.16052
-6.97676
-6.78124
-6.57405
-6.35534
-6.12551
-5.885
-5.6344
-5.37431
-5.10576
-4.82969
-4.54721
-4.25946
-3.96774
-3.67343
-3.37795
-3.08277
-2.78923
-2.49871
-2.21233
-1.93131
-1.65657
-1.38911
-1.12965
-0.878915
-0.637334
-0.405302
-0.182999
0.029413
0.231975
0.424761
0.607966
0.781824
0.946663
1.10294
1.25113
1.39187
1.52568
1.65336
1.77546
1.89291
2.00629
2.11659
2.22442
2.33081
2.43636
2.54209
2.64862
2.75692
2.86762
2.98158
3.09941
3.22177
3.34931
3.4826
3.6223
3.76894
3.92306
4.08504
4.25531
4.43412
4.62173
4.81826
5.02384
5.23847
5.4621
5.6946
5.93576
6.1853
6.44284
6.70796
6.98013
7.2588
7.54336
7.83313
8.12739
8.42543
8.72644
9.02962
9.3341
9.63903
9.94347
10.2465
10.5471
10.8444
11.1372
11.4244
11.7051
11.9782
12.2427
12.4975
12.7415
12.9738
13.1926
13.3972
13.5824
13.7572
13.8632
-7.77466
-7.78433
-7.79777
-7.80954
-7.81962
-7.8287
-7.8371
-7.84507
-7.8529
-7.86084
-7.86909
-7.87785
-7.88724
-7.89741
-7.90843
-7.92039
-7.93335
-7.94734
-7.96238
-7.9785
-7.99568
-8.01392
-8.03318
-8.05344
-8.07464
-8.09674
-8.11968
-8.14341
-8.16785
-8.19294
-8.21861
-8.24481
-8.27146
-8.29848
-8.3258
-8.35332
-8.38098
-8.4087
-8.4364
-8.464
-8.49142
-8.51858
-8.54538
-8.57175
-8.59758
-8.62277
-8.64721
-8.67078
-8.69337
-8.71483
-8.73504
-8.75384
-8.77109
-8.78662
-8.80025
-8.8118
-8.82106
-8.82781
-8.83181
-8.83281
-8.83055
-8.82472
-8.81501
-8.8011
-8.78263
-8.75923
-8.73049
-8.696
-8.65532
-8.60799
-8.55356
-8.49152
-8.4214
-8.3427
-8.25494
-8.15764
-8.05031
-7.93252
-7.80385
-7.66394
-7.51246
-7.34916
-7.17386
-6.98644
-6.78689
-6.57525
-6.35172
-6.11667
-5.87066
-5.61412
-5.34799
-5.07316
-4.79076
-4.50193
-4.20792
-3.91014
-3.61008
-3.30928
-3.00927
-2.71153
-2.41739
-2.12813
-1.8449
-1.56873
-1.30055
-1.04112
-0.791063
-0.550842
-0.320771
-0.101056
0.108219
0.307141
0.495884
0.674697
0.843867
1.00378
1.15491
1.29781
1.43311
1.56147
1.68359
1.80022
1.91217
2.02019
2.12517
2.22788
2.32922
2.42996
2.53101
2.6331
2.73713
2.84382
2.95394
3.06815
3.1871
3.31145
3.44182
3.57885
3.72308
3.87502
4.03505
4.20359
4.38088
4.56716
4.76258
4.96722
5.18109
5.40414
5.63623
5.87713
6.12658
6.38416
6.64945
6.92193
7.20105
7.48617
7.77663
8.07171
8.37069
8.67279
8.9772
9.28306
9.5895
9.89559
10.2004
10.5029
10.8021
11.0969
11.3862
11.6689
11.9439
12.2102
12.4665
12.7118
12.9448
13.1639
13.3681
13.5523
13.7256
13.8305
-7.7954
-7.80336
-7.81432
-7.82401
-7.83247
-7.84023
-7.84754
-7.85459
-7.86165
-7.86892
-7.8766
-7.88484
-7.89379
-7.90354
-7.91419
-7.9258
-7.93843
-7.95212
-7.96689
-7.98275
-7.9997
-8.01773
-8.03681
-8.05691
-8.078
-8.10002
-8.12293
-8.14667
-8.17118
-8.19639
-8.22225
-8.24868
-8.27561
-8.30297
-8.33066
-8.35862
-8.38675
-8.41498
-8.44322
-8.47139
-8.49941
-8.52717
-8.55459
-8.58158
-8.60802
-8.63382
-8.65885
-8.68302
-8.70618
-8.72822
-8.749
-8.76837
-8.78617
-8.80226
-8.81644
-8.82853
-8.83832
-8.8456
-8.85013
-8.85165
-8.84988
-8.84454
-8.83531
-8.82184
-8.80377
-8.78072
-8.75227
-8.71799
-8.67743
-8.63011
-8.57554
-8.51322
-8.44264
-8.3633
-8.27466
-8.17622
-8.06748
-7.94798
-7.81727
-7.67497
-7.52073
-7.35431
-7.17545
-6.98411
-6.78021
-6.56386
-6.3352
-6.09468
-5.84276
-5.58015
-5.30766
-5.02639
-4.73751
-4.44223
-4.14194
-3.83815
-3.53246
-3.22657
-2.92202
-2.62043
-2.32313
-2.03151
-1.74667
-1.46972
-1.20148
-0.942787
-0.694124
-0.455974
-0.228581
-0.0121781
0.193256
0.387844
0.571876
0.74566
0.909557
1.06401
1.2095
1.34669
1.47615
1.59871
1.71497
1.82588
1.93207
2.03457
2.13404
2.23153
2.32769
2.42358
2.51986
2.61752
2.71724
2.81991
2.92619
3.03677
3.15235
3.27354
3.40107
3.53549
3.6774
3.82721
3.98539
4.15227
4.32813
4.51318
4.70757
4.91136
5.12457
5.34713
5.57887
5.81959
6.06898
6.32666
6.59217
6.865
7.14457
7.43029
7.72146
8.01739
8.31733
8.62054
8.92619
9.23346
9.54142
9.84921
10.1558
10.4602
10.7614
11.0583
11.3496
11.6344
11.9114
12.1794
12.4373
12.6839
12.9177
13.1372
13.3412
13.5246
13.6965
13.801
-7.81625
-7.82253
-7.8311
-7.83865
-7.84528
-7.85142
-7.85729
-7.86306
-7.86896
-7.87521
-7.88196
-7.88937
-7.89756
-7.90663
-7.91665
-7.92768
-7.93979
-7.95299
-7.96731
-7.98275
-7.99931
-8.01699
-8.03576
-8.0556
-8.07646
-8.09831
-8.12109
-8.14475
-8.16923
-8.19448
-8.22042
-8.24699
-8.2741
-8.30168
-8.32964
-8.35789
-8.38636
-8.41497
-8.44363
-8.47224
-8.5007
-8.52893
-8.5568
-8.58422
-8.61107
-8.63725
-8.66265
-8.68715
-8.71064
-8.73299
-8.75407
-8.77373
-8.79183
-8.8082
-8.82268
-8.83507
-8.84517
-8.85275
-8.85759
-8.85941
-8.85795
-8.85291
-8.84395
-8.83074
-8.8129
-8.79003
-8.7617
-8.72747
-8.68686
-8.63939
-8.58453
-8.52178
-8.4506
-8.37043
-8.28074
-8.18098
-8.07066
-7.94922
-7.8163
-7.67137
-7.51421
-7.34439
-7.16184
-6.96633
-6.75793
-6.53657
-6.30265
-6.05645
-5.79858
-5.52973
-5.25088
-4.96319
-4.66787
-4.36627
-4.05987
-3.75031
-3.43936
-3.12876
-2.82023
-2.51533
-2.21557
-1.92227
-1.63662
-1.35966
-1.09224
-0.835051
-0.588613
-0.353303
-0.129406
0.0829374
0.283779
0.473356
0.652012
0.820154
0.97823
1.12671
1.26617
1.39723
1.52059
1.63701
1.74726
1.85217
1.95257
2.04934
2.14332
2.23544
2.3265
2.41743
2.50903
2.60221
2.69773
2.79637
2.89887
3.0059
3.11816
3.23633
3.36109
3.49302
3.63266
3.78045
3.93683
4.10212
4.27661
4.46048
4.65387
4.85685
5.06943
5.29152
5.52294
5.76349
6.01283
6.2706
6.53631
6.80946
7.08947
7.37575
7.6676
7.96434
8.26523
8.56951