/*--------------------------------*- C++ -*----------------------------------*\
  =========                 |
  \\      /  F ield         | OpenFOAM: The Open Source CFD Toolbox
   \\    /   O peration     | Website:  https://openfoam.org
    \\  /    A nd           | Version:  9
     \\/     M anipulation  |
\*---------------------------------------------------------------------------*/
FoamFile
{
    format      ascii;
    class       volScalarField::Internal;
    location    "125";
    object      tmp<kEpsilon:G>;
}
// * * * * * * * * * * * * * * * * * * * * * * * * * * * * * * * * * * * * * //

dimensions      [0 2 -3 0 0 0 0];

value           nonuniform List<scalar> 
12225
(
0
0
0
0
0
0
0
0
0
0
0
0
0
0
0
0
0
0
947.574
499.204
262.408
277.557
379.98
495.252
605.032
716.21
802.406
890.343
950.384
1011.88
1050.3
1090.71
1118.83
1144.25
1194.59
1171.17
85.4692
123.06
55.5227
17.2232
5.18183
4.38951
8.79302
16.6778
26.6089
38.4087
50.9142
64.157
77.6517
90.6344
104.62
116.192
132.532
138.305
5.03542
1.74207
0.640796
0.702814
0.465958
0.185728
0.0277092
0.190947
0.794843
1.89073
3.46669
5.46009
7.91935
10.5722
13.8099
16.9416
21.0603
24.3024
0.224568
0.131559
0.147121
0.312124
0.423189
0.402462
0.284924
0.148827
0.0529088
0.0227317
0.0760574
0.222141
0.47472
0.822039
1.30967
1.87784
2.62228
3.3233
0.177392
0.188223
0.263104
0.317677
0.31938
0.313151
0.284452
0.232316
0.174537
0.118327
0.0707072
0.0366086
0.0219539
0.0314117
0.0718896
0.146658
0.257824
0.389877
0.126789
0.211051
0.229466
0.210724
0.209181
0.22643
0.233098
0.22041
0.199204
0.173274
0.145207
0.115975
0.0891959
0.0675277
0.0548598
0.0572348
0.0777449
0.118334
0.0976483
0.148507
0.158505
0.155241
0.164921
0.184321
0.195407
0.193643
0.186304
0.176078
0.163594
0.148784
0.133767
0.120315
0.111727
0.112682
0.128117
0.158486
0.0743167
0.104362
0.121174
0.128848
0.139703
0.154605
0.164678
0.166794
0.165176
0.162034
0.157547
0.151825
0.146032
0.141851
0.141807
0.149212
0.167856
0.196378
0.0563748
0.0773884
0.096573
0.107574
0.117615
0.129798
0.139321
0.143506
0.144698
0.144874
0.14444
0.143563
0.143241
0.144765
0.150092
0.1611
0.180173
0.20492
0.0426329
0.0583729
0.0766438
0.0888653
0.0988607
0.109691
0.118741
0.123949
0.126652
0.128518
0.130166
0.131856
0.13439
0.13876
0.146287
0.157905
0.174743
0.194521
0.0327021
0.0452056
0.0618876
0.074653
0.0847453
0.0946993
0.103235
0.108873
0.112396
0.115159
0.117832
0.120747
0.12453
0.129901
0.137698
0.148293
0.162144
0.177242
0.024805
0.0348654
0.0498465
0.0627654
0.0729825
0.0823788
0.0905263
0.0964204
0.100501
0.103816
0.107038
0.110521
0.114732
0.12016
0.127302
0.136214
0.146993
0.158224
0.0178095
0.0258656
0.0389569
0.0514488
0.0616614
0.0706577
0.0784646
0.0845069
0.0890051
0.0927123
0.0962321
0.0999161
0.104075
0.109021
0.114963
0.12186
0.129563
0.137293
0.0118605
0.0183918
0.029692
0.0413841
0.0513659
0.0600015
0.0674799
0.0735398
0.0782751
0.0821993
0.0857919
0.0893625
0.0931173
0.0972184
0.101743
0.106571
0.111601
0.116415
0.00705582
0.0124408
0.0221532
0.032864
0.0424227
0.0506942
0.0578416
0.0637676
0.0685319
0.0724474
0.0758777
0.079066
0.0821711
0.0852549
0.0883645
0.0913793
0.0942818
0.0969287
0.00348075
0.00804095
0.016474
0.0262072
0.0352269
0.0430975
0.0498751
0.0555292
0.0600956
0.063774
0.0668273
0.0694486
0.0717639
0.0738301
0.0756686
0.0772474
0.0785541
0.079686
0.00125067
0.00527893
0.012823
0.0217517
0.0301983
0.0375892
0.0439028
0.0491194
0.0532664
0.0564876
0.0589808
0.0609153
0.0624061
0.0635272
0.0643122
0.0647859
0.0649631
0.0650171
0.000665373
0.00449573
0.0117072
0.0202612
0.0282979
0.0352248
0.0410193
0.0456812
0.0492227
0.0517887
0.0535639
0.054729
0.0553968
0.0556686
0.0555918
0.055236
0.0546217
0.0539313
0.00200027
0.00608496
0.0137726
0.0226078
0.0305163
0.0370841
0.0424473
0.0465989
0.0495188
0.0513876
0.0524416
0.052894
0.0528612
0.0524557
0.0517363
0.0507885
0.0496388
0.0484221
0.00466668
0.00941756
0.0182486
0.0277229
0.0354929
0.0416294
0.0465868
0.0502713
0.0526224
0.0538639
0.0543377
0.0542266
0.0536822
0.0527772
0.0516379
0.0502995
0.0488526
0.0473049
0.00864705
0.0148618
0.0253923
0.035434
0.0430339
0.0488618
0.0533996
0.0564001
0.0579166
0.0584203
0.0583193
0.0577452
0.0567804
0.0555136
0.0540488
0.0524567
0.0507668
0.0490133
0.0139114
0.0239408
0.0363471
0.0446487
0.0511418
0.0575135
0.0626538
0.0652614
0.0657362
0.0652543
0.0643619
0.063153
0.0615997
0.0598559
0.057961
0.0560241
0.0539847
0.0519106
0.0213927
0.0424147
0.0595448
0.0607781
0.060068
0.0641244
0.0700448
0.0738088
0.0749507
0.0747935
0.0738457
0.0721146
0.0696751
0.0668118
0.0636664
0.0603985
0.0569852
0.053561
0.0432574
0.0760634
0.0939845
0.105131
0.097642
0.0906288
0.0880367
0.0866587
0.0850535
0.0830795
0.0799785
0.0753231
0.0692873
0.0624953
0.0554016
0.048455
0.0419041
0.0360002
0.0804414
0.213019
0.0681555
0.0790022
0.167858
0.215306
0.214587
0.189651
0.15839
0.127628
0.0983556
0.0719093
0.0499563
0.0342014
0.0257408
0.0253514
0.033158
0.0490739
0.660073
0.125002
0.315737
0.505465
0.372961
0.295392
0.229294
0.141472
0.0604063
0.0115705
0.0106615
0.0684875
0.18976
0.37587
0.621909
0.925915
1.27404
1.66447
31.8781
71.0711
43.2511
18.2757
7.07063
2.67356
1.11504
1.00824
1.81729
3.28582
5.25841
7.63516
10.2762
13.1575
16.1294
19.2247
22.2418
25.2871
455.411
257.648
100.982
70.5549
91.6281
128.066
168.016
205.854
241.256
273.936
303.056
329.742
353.08
374.512
393.085
410.592
426.031
441.149
0
0
0
0
0
0
0
0
0
0
0
0
0
0
0
0
0
0
0
0
0
0
0
0
0
0
0
0
0
0
0
2.24153
2.76166
3.30774
3.87636
4.40621
4.89511
5.48174
6.48909
7.29261
7.62887
9.15766
10.3895
11.9321
13.6192
15.4646
17.4449
19.5572
21.7908
24.1427
26.6039
29.1727
31.8409
34.6089
37.4697
40.4262
43.4721
46.6109
49.8376
53.1567
56.5641
60.0651
63.6563
67.3435
71.1241
75.0039
78.9805
83.0597
87.2389
91.5219
95.904
100.386
104.965
109.64
114.408
119.266
124.21
129.235
134.335
139.504
144.734
150.014
155.336
160.686
166.054
171.42
176.774
182.09
187.354
192.537
197.62
202.567
207.358
211.95
216.322
220.432
224.276
227.842
231.124
234.098
236.761
239.076
241.043
242.624
243.82
244.602
244.969
244.901
244.383
243.423
242.018
240.184
237.927
235.273
232.247
228.907
225.151
221.045
216.49
211.876
207.106
202.172
197.102
191.957
186.78
181.605
176.472
171.412
166.458
161.633
156.965
152.471
148.172
144.078
140.202
136.547
133.119
129.917
126.942
124.185
121.639
119.29
117.123
115.128
113.281
111.565
109.963
108.457
107.017
105.625
104.253
102.887
101.497
100.071
98.581
97.0094
95.3295
93.5342
91.6127
89.5561
87.3472
84.966
82.3982
79.6312
76.6581
73.4716
70.0696
66.4501
62.6154
58.5687
54.3173
49.8694
45.2361
40.4314
35.4697
30.3667
25.1402
19.817
14.4355
9.09368
4.18653
3.70582
8.54824
14.1763
20.05
26.0806
32.2271
38.4579
44.7356
51.0288
57.2889
63.4583
69.4828
75.2609
80.7165
85.1902
89.6406
84.919
0
0.0329404
0.0545784
0.14304
0.369272
0.740621
1.23337
1.81943
2.47248
3.16755
3.90226
4.70134
5.55926
6.4133
7.23502
8.00282
8.69877
9.37013
9.91671
9.81879
8.80751
7.47604
7.68871
9.69499
9.82968
9.54061
9.32418
9.12368
8.89983
8.64037
8.34871
8.03339
7.70318
7.3669
7.03137
6.70232
6.38368
6.07986
5.79284
5.52463
5.27569
5.04693
4.83808
4.64951
4.48066
4.33177
4.20229
4.09249
4.00194
3.93123
3.88038
3.85024
3.8408
3.85326
3.88829
3.9474
4.0316
4.14267
4.28204
4.45184
4.65389
4.89036
5.16327
5.47481
5.82715
6.22219
6.66188
7.14745
7.68013
8.25973
8.88583
9.55573
10.2659
11.0096
11.7789
12.5638
13.3522
14.1272
14.875
15.5603
16.2443
16.9275
17.6235
18.3365
19.0645
19.8048
20.5515
21.2998
22.0416
22.7723
23.4786
24.1479
24.7668
25.3231
25.8075
26.2094
26.5206
26.7334
26.8402
26.849
26.7229
26.4948
26.1471
25.7033
25.1559
24.5213
23.8137
23.0493
22.242
21.4071
20.5573
19.7068
18.8671
18.0505
17.2657
16.5229
15.8287
15.1891
14.6067
14.0844
13.6235
13.2257
12.8914
12.6217
12.4156
12.2716
12.1887
12.1661
12.202
12.2961
12.4481
12.6592
12.929
13.259
13.6491
14.1015
14.6191
15.2004
15.8444
16.5488
17.3216
18.1666
19.0901
20.0922
21.172
22.3281
23.5615
24.8721
26.2606
27.7262
29.2697
30.8909
32.5894
34.3655
36.2189
38.1484
40.1428
42.199
44.3272
46.5417
48.8586
51.2911
53.8748
56.5995
59.2867
61.7562
64.0176
66.033
67.772
69.2157
70.3512
71.1737
71.6881
71.8919
71.8058
71.5585
71.0635
71.982
73.4882
89.0688
0
0.290383
0.574184
0.862786
1.22899
1.72225
2.36171
3.13821
4.02036
4.96904
5.95633
6.98103
8.03146
9.03341
9.89468
10.5824
11.1203
11.5453
11.8251
11.8093
11.3888
10.9466
10.8536
11.0373
10.9124
10.6685
10.4507
10.2847
10.1711
10.1035
10.0763
10.0863
10.1324
10.2146
10.332
10.4851
10.6726
10.8945
11.1494
11.4371
11.756
12.1056
12.4843
12.8916
13.3257
13.7861
14.2711
14.7801
15.3112
15.8638
16.4361
17.027
17.6348
18.2582
18.8954
19.5454
20.2063
20.8768
21.5551
22.24
22.93
23.6239
24.3202
25.018
25.7163
26.4144
27.1117
27.8075
28.502
29.1951
29.8872
30.5796
31.2746
31.9763
32.6915
33.4316
34.2134
35.0608
35.9956
37.0616
38.1968
39.3881
40.6262
41.905
43.2173
44.5561
45.9095
47.2672
48.62
49.9589
51.2692
52.5232
53.6963
54.7645
55.7098
56.5115
57.1539
57.6176
57.8923
57.9706
57.8378
57.5163
56.9765
56.2415
55.33
54.2566
53.0482
51.7338
50.3381
48.8897
47.4119
45.931
44.4675
43.0434
41.6747
40.379
39.1693
38.0565
37.0449
36.138
35.3387
34.6515
34.0784
33.62
33.2745
33.0374
32.9059
32.8766
32.947
33.1142
33.3768
33.7337
34.184
34.7262
35.3598
36.0859
36.9087
37.8234
38.8225
39.8983
41.0535
42.2965
43.6355
45.0716
46.5978
48.2083
49.8962
51.658
53.4849
55.371
57.3075
59.2887
61.3011
63.3313
65.3496
67.3611
69.366
71.3663
73.3372
75.3488
77.3711
79.2636
80.9144
82.2242
83.2836
84.1501
84.8156
85.2635
85.4759
85.4405
85.1493
84.6001
83.8025
82.7734
81.551
80.3257
79.2201
79.8925
82.7912
95.3014
0
0.870503
1.555
2.10472
2.57596
3.07828
3.67927
4.39521
5.2099
6.08966
6.99655
7.9001
8.76794
9.54771
10.1783
10.6296
10.9157
11.0736
11.1377
11.0832
10.9276
10.7888
10.9046
11.2487
11.5144
11.6905
11.83
11.9708
12.135
12.3323
12.5673
12.8398
13.1497
13.4962
13.8787
14.2966
14.7493
15.2365
15.7574
16.3115
16.8976
17.515
18.1624
18.8386
19.5423
20.2722
21.0267
21.8045
22.6039
23.4233
24.261
25.1153
25.9843
26.8663
27.7594
28.6623
29.573
30.4904
31.4123
32.338
33.2662
34.196
35.127
36.0588
36.9918
37.9264
38.8638
39.8055
40.7543
41.7132
42.6867
43.6803
44.7016
45.7601
46.868
48.0383
49.2833
50.6104
52.0196
53.5117
55.0826
56.7355
58.4688
60.2781
62.1567
64.096
66.0826
68.1034
70.1507
72.2099
74.2625
76.2757
78.2158
80.0521
81.754
83.2946
84.6451
85.7813
86.6794
87.33
87.7126
87.8297
87.6737
87.2331
86.5377
85.6119
84.4813
83.1787
81.7372
80.1899
78.5705
76.9107
75.2415
73.5893
71.979
70.4324
68.9704
67.6069
66.3514
65.209
64.1879
63.2953
62.5386
61.9187
61.4356
61.0848
60.8644
60.77
60.8001
60.9508
61.2213
61.6092
62.1127
62.7296
63.4577
64.3009
65.2587
66.3273
67.4896
68.7362
70.0627
71.4814
73.0009
74.6233
76.3378
78.134
80.0002
81.9283
83.9051
85.9161
87.943
89.9577
91.957
93.93
95.8682
97.7567
99.6005
101.401
103.093
104.61
105.901
106.938
107.691
108.095
108.203
108.055
107.665
107.035
106.162
105.043
103.684
102.094
100.299
98.3402
96.3002
94.4333
93.0034
93.6648
96.9454
106.977
0
1.60207
2.75272
3.62291
4.21281
4.69803
5.19558
5.74388
6.34484
6.9819
7.6311
8.26954
8.87421
9.41388
9.85553
10.1818
10.3993
10.5343
10.6181
10.6668
10.6976
10.7666
10.9472
11.244
11.5799
11.9189
12.259
12.6107
12.9847
13.3895
13.8302
14.3099
14.8304
15.3922
15.9956
16.6403
17.3262
18.0524
18.8182
19.6227
20.4646
21.3425
22.2548
23.1998
24.1757
25.1807
26.2128
27.2703
28.351
29.4533
30.5752
31.7149
32.8704
34.04
35.2218
36.4145
37.6163
38.8264
40.0423
41.2635
42.4893
43.7191
44.9529
46.1913
47.4351
48.686
49.9462
51.2187
52.5083
53.8199
55.1599
56.5363
57.9585
59.4376
60.9856
62.6137
64.3308
66.1405
68.0446
70.0474
72.1566
74.3806
76.7228
79.183
81.758
84.4403
87.2182
90.0828
93.0151
96.0056
99.0294
102.051
105.03
107.929
110.706
113.326
115.747
117.936
119.859
121.491
122.81
123.798
124.435
124.724
124.662
124.286
123.624
122.702
121.559
120.229
118.752
117.166
115.509
113.811
112.107
110.423
108.786
107.214
105.724
104.325
103.032
101.856
100.811
99.9004
99.1272
98.4906
97.9896
97.6227
97.3882
97.2845
97.3098
97.4628
97.7401
98.1399
98.6599
99.3052
100.071
100.949
101.921
102.971
104.098
105.312
106.625
108.035
109.535
111.107
112.741
114.405
116.094
117.799
119.503
121.194
122.863
124.482
126.068
127.566
128.931
130.118
131.098
131.848
132.348
132.568
132.486
132.064
131.333
130.32
129.046
127.525
125.767
123.78
121.577
119.18
116.628
113.994
111.397
109.142
107.571
108.192
111.254
119.132
0
2.26924
3.80785
4.971
5.67304
6.13434
6.51356
6.87024
7.22825
7.59372
7.96268
8.32637
8.67312
8.98865
9.25892
9.47644
9.64504
9.77937
9.89787
10.0153
10.1484
10.3225
10.5638
10.8794
11.2538
11.6712
12.1246
12.6135
13.1414
13.7122
14.3291
14.9943
15.7092
16.4747
17.2911
18.1583
19.0757
20.0425
21.0574
22.1189
23.225
24.3739
25.5633
26.791
28.0546
29.3519
30.6805
32.0381
33.4226
34.832
36.2643
37.7175
39.1898
40.6794
42.1848
43.7043
45.2365
46.7803
48.3346
49.8985
51.4716
53.0537
54.6453
56.2471
57.8607
59.4885
61.1336
62.8
64.4931
66.2193
67.9866
69.804
71.6821
73.6325
75.6676
77.7986
80.0354
82.3862
84.859
87.4628
90.2091
93.1093
96.1718
99.4012
102.798
106.36
110.08
113.945
117.94
122.055
126.258
130.513
134.778
139.002
143.139
147.138
150.95
154.523
157.819
160.791
163.407
165.626
167.426
168.789
169.728
170.241
170.373
170.144
169.585
168.735
167.636
166.331
164.861
163.266
161.583
159.846
158.086
156.329
154.595
152.906
151.279
149.737
148.293
146.96
145.744
144.652
143.683
142.841
142.125
141.538
141.077
140.742
140.532
140.442
140.476
140.632
140.908
141.285
141.749
142.281
142.884
143.567
144.328
145.167
146.086
147.072
148.108
149.18
150.282
151.395
152.501
153.605
154.662
155.628
156.469
157.147
157.643
157.934
157.997
157.813
157.363
156.631
155.601
154.263
152.633
150.733
148.581
146.198
143.602
140.805
137.832
134.719
131.518
128.325
125.288
122.736
121.03
121.486
123.952
129.998
0
2.73566
4.49146
5.848
6.62762
7.06993
7.35363
7.55437
7.71364
7.85614
7.99447
8.13338
8.27258
8.40875
8.53778
8.65808
8.7729
8.89044
9.02128
9.1758
9.36466
9.60017
9.89381
10.2516
10.6726
11.1532
11.6906
12.2842
12.9345
13.643
14.4113
15.2409
16.1325
17.087
18.1044
19.1843
20.3257
21.5272
22.7872
24.1035
25.4738
26.8956
28.366
29.8823
31.4417
33.0415
34.679
36.3518
38.0574
39.7938
41.559
43.3511
45.1684
47.0094
48.8726
50.7566
52.6604
54.5829
56.5233
58.481
60.4557
62.4474
64.4566
66.4845
68.533
70.6048
72.7035
74.8337
77.0013
79.2137
81.4795
83.8088
86.213
88.7046
91.2969
94.0034
96.8369
99.8111
102.94
106.237
109.717
113.397
117.288
121.402
125.743
130.316
135.116
140.131
145.356
150.77
156.349
162.051
167.825
173.615
179.368
185.018
190.503
195.761
200.73
205.353
209.57
213.33
216.589
219.328
221.535
223.229
224.402
225.101
225.34
225.159
224.599
223.713
222.543
221.136
219.532
217.775
215.898
213.937
211.918
209.871
207.826
205.809
203.842
201.943
200.128
198.405
196.783
195.267
193.862
192.572
191.399
190.342
189.4
188.568
187.85
187.244
186.743
186.329
185.982
185.696
185.476
185.331
185.267
185.285
185.379
185.537
185.739
185.996
186.279
186.556
186.794
186.967
187.036
186.981
186.771
186.383
185.794
184.988
183.946
182.659
181.114
179.303
177.221
174.871
172.27
169.434
166.383
163.138
159.721
156.155
152.469
148.706
144.932
141.256
137.844
135.02
133.123
133.268
134.903
139.332
0
2.94913
4.72674
6.14836
6.95315
7.37718
7.59712
7.69572
7.7242
7.71851
7.70177
7.68802
7.68517
7.69726
7.72633
7.7744
7.8448
7.94266
8.07427
8.24626
8.46539
8.73868
9.07271
9.47243
9.94064
10.4786
11.0872
11.7672
12.5198
13.346
14.2469
15.2233
16.276
17.4054
18.6114
19.8932
21.2495
22.6787
24.1785
25.7464
27.3795
29.0749
30.8293
32.6397
34.5029
36.416
38.376
40.3806
42.4273
44.514
46.6388
48.8003
50.9969
53.2274
55.4905
57.7852
60.1106
62.466
64.8507
67.2641
69.7059
72.1763
74.6757
77.2051
79.7664
82.3624
84.9966
87.6739
90.4002
93.1832
96.032
98.9573
101.971
105.088
108.322
111.69
115.208
118.896
122.771
126.853
131.161
135.715
140.534
145.633
151.025
156.718
162.714
169.006
175.594
182.457
189.57
196.885
204.349
211.904
219.478
227
234.387
241.567
248.453
254.969
261.027
266.56
271.509
275.839
279.53
282.581
284.992
286.77
287.947
288.549
288.626
288.229
287.411
286.219
284.704
282.912
280.886
278.666
276.292
273.8
271.231
268.619
265.996
263.385
260.811
258.287
255.832
253.453
251.162
248.963
246.865
244.867
242.971
241.185
239.506
237.933
236.445
235.03
233.668
232.361
231.116
229.944
228.864
227.869
226.939
226.059
225.209
224.368
223.51
222.615
221.659
220.613
219.451
218.151
216.687
215.04
213.193
211.132
208.85
206.34
203.599
200.625
197.423
194.005
190.391
186.595
182.638
178.54
174.327
170.023
165.665
161.299
157.002
152.887
149.126
146.021
143.861
143.576
144.271
147.274
0
2.93557
4.56092
5.92184
6.69569
7.09237
7.27169
7.31448
7.27401
7.1903
7.09114
6.99525
6.91506
6.8588
6.83204
6.83903
6.88374
6.97035
7.10341
7.2877
7.52822
7.82995
8.19793
8.63683
9.15063
9.7427
10.4159
11.1728
12.0155
12.9458
13.965
15.0741
16.2739
17.565
18.9471
20.4194
21.9806
23.6287
25.3612
27.1755
29.0684
31.0366
33.0771
35.1865
37.3616
39.5995
41.8975
44.2532
46.6644
49.1294
51.6469
54.2154
56.834
59.5019
62.2181
64.9819
67.7927
70.6498
73.5525
76.5003
79.4927
82.5295
85.6108
88.7373
91.9103
95.1321
98.4057
101.735
105.127
108.588
112.127
115.756
119.486
123.333
127.314
131.447
135.752
140.255
144.975
149.937
155.166
160.685
166.519
172.692
179.221
186.122
193.403
201.071
209.116
217.531
226.286
235.333
244.616
254.07
263.611
273.154
282.606
291.867
300.835
309.399
317.456
324.908
331.687
337.739
343.033
347.546
351.279
354.221
356.398
357.833
358.576
358.68
358.205
357.205
355.737
353.853
351.607
349.051
346.234
343.203
340.009
336.695
333.3
329.858
326.399
322.946
319.522
316.144
312.824
309.574
306.403
303.317
300.32
297.428
294.64
291.944
289.317
286.743
284.21
281.723
279.292
276.919
274.605
272.338
270.112
267.912
265.723
263.521
261.286
258.997
256.636
254.175
251.597
248.877
246.001
242.95
239.717
236.29
232.67
228.855
224.85
220.661
216.299
211.784
207.137
202.374
197.514
192.579
187.593
182.585
177.591
172.666
167.883
163.36
159.258
155.851
153.361
152.565
152.306
154.061
0
2.75411
4.10194
5.30401
5.99656
6.3499
6.49874
6.51557
6.45023
6.34151
6.21718
6.09678
5.99404
5.9187
5.87777
5.87664
5.91983
6.01157
6.15608
6.35765
6.62105
6.95087
7.352
7.82934
8.3877
9.0316
9.76531
10.5927
11.5174
12.542
13.6688
14.8991
16.2344
17.6756
19.2227
20.8753
22.632
24.4911
26.4504
28.5071
30.6583
32.9011
35.2325
37.6496
40.1495
42.7296
45.3877
48.122
50.9309
53.8134
56.7686
59.7959
62.8947
66.0648
69.3057
72.617
75.9979
79.448
82.9664
86.5522
90.2044
93.9223
97.7052
101.553
105.466
109.444
113.491
117.61
121.804
126.081
130.448
134.915
139.497
144.207
149.065
154.089
159.305
164.739
170.415
176.361
182.607
189.182
196.116
203.439
211.177
219.352
227.984
237.08
246.64
256.665
267.118
277.957
289.125
300.541
312.121
323.757
335.347
346.762
357.882
368.561
378.685
388.124
396.788
404.61
411.538
417.535
422.586
426.687
429.841
432.077
433.439
433.992
433.797
432.923
431.43
429.381
426.837
423.861
420.514
416.864
412.961
408.859
404.604
400.24
395.803
391.328
386.84
382.363
377.916
373.513
369.167
364.885
360.682
356.557
352.511
348.52
344.573
340.65
336.753
332.886
329.059
325.27
321.517
317.789
314.079
310.377
306.666
302.929
299.147
295.304
291.383
287.366
283.236
278.977
274.577
270.026
265.319
260.453
255.432
250.262
244.954
239.522
233.982
228.359
222.674
216.948
211.197
205.444
199.71
194.027
188.431
182.976
177.733
172.816
168.37
164.633
161.761
160.402
159.224
159.892
0
2.47138
3.47118
4.45269
5.02705
5.3199
5.43825
5.44324
5.37836
5.27799
5.16705
5.06323
4.97918
4.924
4.90447
4.92595
4.9931
5.11034
5.28205
5.51244
5.80689
6.17031
6.60829
7.12646
7.73049
8.426
9.21847
10.1131
11.1146
12.227
13.454
14.7976
16.2602
17.8434
19.548
21.3739
23.3207
25.3872
27.5719
29.8726
32.287
34.8132
37.449
40.1922
43.0408
45.993
49.0477
52.2039
55.4613
58.8197
62.279
65.8396
69.5017
73.2653
77.1305
81.097
85.1641
89.331
93.5964
97.9588
102.416
106.967
111.609
116.341
121.161
126.068
131.063
136.146
141.32
146.589
151.96
157.442
163.047
168.789
174.686
180.758
187.034
193.539
200.302
207.352
214.723
222.448
230.564
239.108
248.112
257.608
267.62
278.163
289.255
300.886
313.041
325.672
338.718
352.1
365.717
379.451
393.174
406.74
419.986
432.754
444.885
456.241
466.704
476.2
484.656
492.03
498.287
503.424
507.435
510.37
512.257
513.163
513.15
512.302
510.691
508.387
505.46
501.983
498.027
493.663
488.955
483.964
478.747
473.357
467.838
462.23
456.568
450.881
445.191
439.518
433.875
428.275
422.733
417.246
411.806
406.392
400.987
395.585
390.192
384.815
379.458
374.121
368.796
363.479
358.158
352.828
347.475
342.087
336.648
331.148
325.572
319.91
314.149
308.279
302.292
296.186
289.96
283.617
277.165
270.618
263.993
257.31
250.591
243.863
237.151
230.475
223.85
217.298
210.841
204.508
198.337
192.373
186.688
181.38
176.58
172.483
169.189
167.241
165.203
164.923
0
2.14715
2.7775
3.51287
3.94887
4.1679
4.25079
4.24702
4.19313
4.11803
4.04247
3.98092
3.94344
3.93706
3.96711
4.03788
4.15302
4.3172
4.53463
4.81025
5.14935
5.55766
6.04145
6.6073
7.26197
8.01233
8.8652
9.82713
10.9044
12.1023
13.4263
14.8812
16.4695
18.1939
20.0561
22.0572
24.1979
26.4786
28.8988
31.4577
34.1546
36.9889
39.96
43.0672
46.3095
49.6869
53.1998
56.8489
60.6351
64.5596
68.6235
72.828
77.174
81.6622
86.2926
91.0651
95.9786
101.032
106.222
111.548
117.005
122.59
128.299
134.128
140.073
146.131
152.297
158.571
164.952
171.441
178.04
184.758
191.602
198.585
205.723
213.038
220.556
228.303
236.307
244.599
253.217
262.197
271.581
281.409
291.725
302.565
313.96
325.94
338.531
351.734
365.534
379.878
394.703
409.932
425.451
441.137
456.832
472.375
487.561
502.212
516.135
529.185
541.237
552.191
561.967
570.508
577.78
583.776
588.49
591.966
594.225
595.325
595.334
594.346
592.455
589.737
586.274
582.144
577.433
572.217
566.573
560.569
554.274
547.743
541.035
534.192
527.257
520.262
513.236
506.199
499.169
492.165
485.192
478.254
471.326
464.396
457.447
450.483
443.513
436.544
429.576
422.609
415.637
408.654
401.652
394.626
387.568
380.471
373.324
366.118
358.846
351.502
344.08
336.574
328.982
321.307
313.555
305.731
297.85
289.932
281.999
274.078
266.196
258.382
250.665
243.06
235.586
228.26
221.102
214.144
207.417
200.963
194.843
189.144
183.974
179.493
175.747
173.202
170.37
169.262
0
1.82779
2.10546
2.59918
2.8934
3.03205
3.07446
3.05975
3.0186
2.97477
2.9449
2.93983
2.96649
3.02889
3.13021
3.27272
3.45918
3.69249
3.97651
4.31597
4.71649
5.18452
5.72725
6.35244
7.06816
7.8828
8.80485
9.8426
11.0041
12.2963
13.7271
15.302
17.0264
18.9046
20.94
23.1357
25.4939
28.017
30.7061
33.5633
36.5896
39.7869
43.1565
46.6999
50.4184
54.3144
58.3903
62.6489
67.0928
71.7245
76.5465
81.5607
86.7686
92.171
97.7679
103.558
109.541
115.713
122.07
128.609
135.324
142.208
149.255
156.457
163.806
171.295
178.916
186.663
194.53
202.516
210.618
218.837
227.181
235.655
244.274
253.059
262.031
271.214
280.634
290.325
300.321
310.662
321.385
332.54
344.179
356.342
369.071
382.407
396.376
411.001
426.259
442.109
458.48
475.284
492.417
509.743
527.099
544.283
561.087
577.293
592.715
607.176
620.528
632.645
643.444
652.854
660.84
667.394
672.507
676.235
678.587
679.602
679.38
677.999
675.584
672.225
668.012
663.034
657.386
651.154
644.423
637.271
629.771
621.99
613.988
605.816
597.521
589.139
580.702
572.234
563.754
555.284
546.825
538.372
529.903
521.401
512.863
504.296
495.712
487.113
478.501
469.872
461.224
452.551
443.849
435.111
426.337
417.524
408.667
399.758
390.797
381.783
372.717
363.594
354.419
345.202
335.952
326.691
317.425
308.177
298.977
289.85
280.836
271.967
263.272
254.77
246.474
238.404
230.575
223.021
215.761
208.83
202.28
196.185
190.63
185.744
181.527
178.392
174.835
173.002
0
1.54455
1.51357
1.79267
1.95566
2.01584
2.01579
1.98768
1.95798
1.94669
1.96699
2.02634
2.12855
2.27467
2.46462
2.69831
2.97625
3.30002
3.67247
4.09788
4.58195
5.13168
5.75521
6.46157
7.26066
8.16272
9.17798
10.3168
11.5892
13.0044
14.5714
16.2987
18.1944
20.266
22.5199
24.962
27.5974
30.4314
33.4674
36.711
40.165
43.8346
47.7228
51.8359
56.1779
60.7541
65.5697
70.6293
75.9374
81.4976
87.3132
93.3864
99.7185
106.31
113.159
120.264
127.622
135.227
143.073
151.154
159.46
167.982
176.708
185.624
194.72
203.983
213.398
222.955
232.643
242.45
252.371
262.402
272.538
282.783
293.15
303.652
314.304
325.123
336.135
347.368
358.855
370.632
382.741
395.229
408.145
421.542
435.463
449.965
465.083
480.849
497.251
514.246
531.785
549.781
568.138
586.704
605.305
623.71
641.69
659.007
675.453
690.835
704.987
717.774
729.099
738.894
747.116
753.782
758.861
762.437
764.479
765.062
764.27
762.182
758.939
754.66
749.441
743.385
736.591
729.158
721.175
712.731
703.901
694.76
685.367
675.784
666.056
656.226
646.326
636.38
626.417
616.446
606.471
596.473
586.438
576.348
566.213
556.041
545.842
535.617
525.365
515.086
504.775
494.432
484.052
473.632
463.174
452.681
442.153
431.589
420.989
410.366
399.723
389.057
378.371
367.681
356.995
346.323
335.694
325.14
314.701
304.414
294.328
284.467
274.858
265.518
256.458
247.696
239.235
231.112
223.343
215.955
208.988
202.501
196.56
191.26
186.572
182.862
178.656
176.193
0
1.31329
1.03032
1.13543
1.18846
1.18048
1.14259
1.1033
1.08686
1.11101
1.18645
1.31798
1.50627
1.74936
2.04458
2.38923
2.78144
3.22119
3.71026
4.25245
4.8535
5.52086
6.2636
7.09205
8.01749
9.05228
10.2093
11.5015
12.9417
14.5425
16.3157
18.2733
20.4271
22.7882
25.367
28.1734
31.2169
34.5058
38.0474
41.8485
45.9171
50.2628
54.8907
59.8131
65.037
70.5705
76.4209
82.5945
89.0968
95.9316
103.102
110.609
118.451
126.628
135.136
143.969
153.121
162.583
172.344
182.394
192.718
203.302
214.127
225.176
236.428
247.864
259.464
271.21
283.081
295.063
307.141
319.3
331.531
343.835
356.212
368.666
381.2
393.831
406.572
419.446
432.48
445.704
459.157
472.887
486.942
501.388
516.29
531.684
547.649
564.195
581.325
599.021
617.22
635.864
654.849
674.038
693.229
712.187
730.648
748.371
765.128
780.718
794.958
807.715
818.883
828.405
836.244
842.41
846.909
849.785
851.028
850.733
848.935
845.779
841.348
835.82
829.302
821.903
813.733
804.897
795.491
785.608
775.327
764.722
753.859
742.798
731.587
720.27
708.879
697.442
685.984
674.512
663.018
651.484
639.892
628.239
616.535
604.793
593.016
581.206
569.361
557.48
545.559
533.602
521.606
509.573
497.509
485.425
473.321
461.198
449.056
436.908
424.729
412.547
400.376
388.243
376.161
364.218
352.383
340.679
329.152
317.813
306.725
295.931
285.461
275.329
265.547
256.129
247.068
238.413
230.161
222.331
214.954
208.074
201.737
196.014
190.856
186.602
181.815
178.815
0
1.13997
0.65985
0.634898
0.604923
0.546035
0.483123
0.44383
0.451912
0.523892
0.668691
0.888908
1.1827
1.54564
1.97239
2.45804
2.99926
3.59491
4.24627
4.9572
5.73399
6.58528
7.52171
8.55577
9.70135
10.9736
12.3887
13.9632
15.7141
17.658
19.8116
22.1915
24.8143
27.6966
30.854
34.3028
38.056
42.1265
46.5256
51.2657
56.358
61.8153
67.6469
73.8676
80.4865
87.5127
94.9544
102.818
111.107
119.825
128.97
138.54
148.529
158.93
169.734
180.93
192.504
204.443
216.727
229.34
242.259
255.462
268.924
282.62
296.515
310.586
324.803
339.139
353.569
368.064
382.602
397.157
411.722
426.278
440.817
455.335
469.843
484.33
498.811
513.299
527.815
542.382
557.035
571.807
586.78
602.005
617.549
633.501
649.892
666.764
684.127
701.946
720.186
738.798
757.682
776.708
795.66
814.291
832.32
849.501
865.605
880.428
893.793
905.566
915.666
924.013
930.646
935.496
938.666
940.093
939.848
938.009
934.652
929.885
923.766
916.506
908.244
899.095
889.18
878.605
867.478
855.886
843.916
831.635
819.114
806.406
793.566
780.633
767.641
754.621
741.586
728.543
715.468
702.35
689.17
675.936
662.66
649.351
636.011
622.641
609.241
595.812
582.351
568.862
555.345
541.799
528.233
514.628
501.009
487.38
473.755
460.167
446.641
433.187
419.797
406.492
393.272
380.195
367.243
354.472
341.936
329.639
317.693
306.102
294.894
284.083
273.679
263.693
254.124
244.988
236.293
228.05
220.278
213.01
206.276
200.133
194.517
189.737
184.416
180.961
0
1.0091
0.403509
0.303759
0.231838
0.155527
0.0974719
0.0860181
0.144969
0.289877
0.528162
0.860893
1.28485
1.7945
2.38386
3.04792
3.7837
4.5908
5.47159
6.43148
7.47876
8.62494
9.88409
11.2726
12.8083
14.5106
16.4011
18.501
20.8333
23.4209
26.2864
29.4522
32.941
36.7749
40.9745
45.5596
50.5453
55.9512
61.795
68.0924
74.8582
82.108
89.8543
98.1079
106.875
116.162
125.97
136.302
147.155
158.525
170.4
182.774
195.628
208.947
222.713
236.904
251.499
266.473
281.798
297.447
313.392
329.598
346.039
362.668
379.457
396.359
413.345
430.377
447.42
464.437
481.399
498.278
515.048
531.683
548.18
564.531
580.727
596.773
612.659
628.396
643.996
659.48
674.872
690.232
705.594
721.075
736.749
752.668
768.894
785.424
802.254
819.383
836.793
854.436
872.242
890.081
907.754
924.987
941.506
957.068
971.465
984.503
996.019
1005.9
1014.06
1020.44
1025.04
1027.94
1029.07
1028.47
1026.21
1022.37
1017.07
1010.3
1002.23
992.961
982.709
971.6
959.757
947.292
934.315
920.912
907.166
893.142
878.906
864.511
850.009
835.439
820.833
806.221
791.61
776.992
762.346
747.654
732.914
718.136
703.331
688.504
673.656
658.788
643.898
628.984
614.029
599.048
584.043
569.018
553.993
539.002
524.034
509.136
494.293
479.561
464.85
450.203
435.666
421.258
406.958
392.904
379.058
365.451
352.126
339.115
326.474
314.241
302.44
291.086
280.185
269.747
259.767
250.251
241.198
232.616
224.512
216.917
209.845
203.333
197.309
192.072
186.293
182.498
0
0.90434
0.241237
0.126268
0.0627944
0.014682
0.00403178
0.0595282
0.204339
0.452981
0.812397
1.28421
1.86657
2.5559
3.34872
4.24332
5.24113
6.34665
7.56715
8.91337
10.3988
12.0419
13.8641
15.8892
18.1416
20.6464
23.4302
26.5218
29.9529
33.7535
37.9512
42.5734
47.6472
53.1996
59.2536
65.8318
72.9511
80.6317
88.8859
97.7276
107.167
117.214
127.873
139.146
151.03
163.519
176.607
190.278
204.518
219.302
234.618
250.434
266.73
283.467
300.622
318.161
336.053
354.261
372.751
391.486
410.432
429.551
448.806
468.153
487.545
506.938
526.295
545.575
564.736
583.742
602.553
621.14
639.47
657.533