/*--------------------------------*- C++ -*----------------------------------*\
  =========                 |
  \\      /  F ield         | OpenFOAM: The Open Source CFD Toolbox
   \\    /   O peration     | Website:  https://openfoam.org
    \\  /    A nd           | Version:  9
     \\/     M anipulation  |
\*---------------------------------------------------------------------------*/
FoamFile
{
    format      ascii;
    class       volVectorField;
    location    "125";
    object      U;
}
// * * * * * * * * * * * * * * * * * * * * * * * * * * * * * * * * * * * * * //

dimensions      [0 1 -1 0 0 0 0];

internalField   nonuniform List<vector> 
12225
(
(9.857 -0.886592 0)
(9.66626 -0.740728 0)
(9.45571 -0.429402 0)
(9.22435 -0.222141 0)
(9.00625 -0.106373 0)
(8.81396 -0.0457825 0)
(8.64682 -0.0151003 0)
(8.5045 0.000545681 0)
(8.38242 0.00848961 0)
(8.27935 0.0124067 0)
(8.19024 0.0141526 0)
(8.11337 0.0152286 0)
(8.04532 0.0157196 0)
(7.98471 0.0160893 0)
(7.92847 0.0165506 0)
(7.87837 0.0171909 0)
(7.81286 0.0206693 0)
(7.80237 0.0226015 0)
(10.0545 0.227688 0)
(10.1213 0.326992 0)
(10.1196 0.261658 0)
(10.0855 0.186625 0)
(10.0433 0.134729 0)
(9.99655 0.101185 0)
(9.94378 0.0793758 0)
(9.88482 0.0646659 0)
(9.82335 0.0543964 0)
(9.76053 0.0468577 0)
(9.69883 0.0411765 0)
(9.63854 0.0367477 0)
(9.58075 0.0332899 0)
(9.52561 0.0307687 0)
(9.47262 0.0288327 0)
(9.42415 0.0293256 0)
(9.3733 0.0279988 0)
(9.34317 0.0454821 0)
(10.0035 0.0581585 0)
(10.0305 0.0559584 0)
(10.056 0.0338011 0)
(10.0703 0.0329196 0)
(10.0768 0.0406911 0)
(10.0776 0.0466082 0)
(10.0723 0.0494494 0)
(10.061 0.0504316 0)
(10.0456 0.0503855 0)
(10.0269 0.0497484 0)
(10.0061 0.0488193 0)
(9.98349 0.0478269 0)
(9.95984 0.0469073 0)
(9.93548 0.0462911 0)
(9.9105 0.0459412 0)
(9.88591 0.0470623 0)
(9.86076 0.0484028 0)
(9.83901 0.056546 0)
(9.99772 0.0109539 0)
(10.0111 0.0266348 0)
(10.035 0.0371536 0)
(10.0524 0.0481131 0)
(10.0642 0.0555056 0)
(10.0732 0.0582657 0)
(10.0792 0.0584746 0)
(10.082 0.0577841 0)
(10.0822 0.0568078 0)
(10.0805 0.0557147 0)
(10.0771 0.0545924 0)
(10.0724 0.0535881 0)
(10.0665 0.0527374 0)
(10.0598 0.0522455 0)
(10.0523 0.0521103 0)
(10.0445 0.0531389 0)
(10.0367 0.0547695 0)
(10.0303 0.0594747 0)
(9.99935 0.00710704 0)
(10.009 0.0317177 0)
(10.0274 0.0439483 0)
(10.0417 0.0499709 0)
(10.0526 0.0536884 0)
(10.0627 0.0553464 0)
(10.0713 0.0556742 0)
(10.0779 0.0554465 0)
(10.0829 0.0549917 0)
(10.0865 0.0544119 0)
(10.0891 0.0537823 0)
(10.0907 0.0532279 0)
(10.0915 0.0528091 0)
(10.0916 0.0526915 0)
(10.0912 0.0529302 0)
(10.0908 0.0539851 0)
(10.0905 0.0556103 0)
(10.0914 0.0584718 0)
(10.0003 0.00915872 0)
(10.0083 0.03124 0)
(10.0227 0.0409958 0)
(10.0349 0.0454632 0)
(10.0449 0.0491386 0)
(10.0546 0.0515126 0)
(10.0635 0.0525484 0)
(10.071 0.0528546 0)
(10.0773 0.052823 0)
(10.0827 0.0526029 0)
(10.0873 0.0522907 0)
(10.0913 0.0520043 0)
(10.0946 0.0518228 0)
(10.0975 0.0518752 0)
(10.1 0.0522294 0)
(10.1026 0.0531208 0)
(10.1055 0.0544111 0)
(10.1092 0.0560938 0)
(10.0004 0.00893522 0)
(10.0071 0.0271468 0)
(10.019 0.0364773 0)
(10.0301 0.04148 0)
(10.0395 0.0455372 0)
(10.0485 0.0482475 0)
(10.057 0.0495782 0)
(10.0645 0.0501307 0)
(10.0712 0.0503181 0)
(10.0771 0.0502989 0)
(10.0825 0.0501707 0)
(10.0873 0.0500389 0)
(10.0917 0.0499854 0)
(10.0958 0.0501056 0)
(10.0996 0.0504554 0)
(10.1036 0.0511349 0)
(10.1078 0.0520293 0)
(10.1127 0.0529322 0)
(10.0004 0.00791436 0)
(10.0059 0.0234301 0)
(10.0161 0.0328095 0)
(10.0262 0.0382071 0)
(10.035 0.0422407 0)
(10.0434 0.0449749 0)
(10.0515 0.0464543 0)
(10.0588 0.0471793 0)
(10.0655 0.0475253 0)
(10.0715 0.0476498 0)
(10.0771 0.0476494 0)
(10.0823 0.0476187 0)
(10.0872 0.0476348 0)
(10.0918 0.047766 0)
(10.0963 0.0480483 0)
(10.1008 0.0485046 0)
(10.1056 0.049025 0)
(10.1109 0.0493802 0)
(10.0004 0.00696669 0)
(10.005 0.020474 0)
(10.0136 0.0295359 0)
(10.0228 0.0349806 0)
(10.0311 0.038876 0)
(10.039 0.0415947 0)
(10.0466 0.0432014 0)
(10.0537 0.0440738 0)
(10.0602 0.0445447 0)
(10.0663 0.0447761 0)
(10.0719 0.0448648 0)
(10.0772 0.0448962 0)
(10.0822 0.0449385 0)
(10.0871 0.04504 0)
(10.0919 0.0452177 0)
(10.0967 0.0454559 0)
(10.1017 0.0456508 0)
(10.107 0.0456161 0)
(10.0004 0.00614152 0)
(10.0043 0.0179101 0)
(10.0116 0.0263658 0)
(10.0198 0.0317135 0)
(10.0275 0.0354879 0)
(10.035 0.0381763 0)
(10.0422 0.0398682 0)
(10.049 0.0408492 0)
(10.0554 0.0414119 0)
(10.0613 0.0417197 0)
(10.0669 0.0418674 0)
(10.0722 0.0419314 0)
(10.0773 0.0419695 0)
(10.0823 0.042016 0)
(10.0872 0.0420745 0)
(10.0921 0.0421132 0)
(10.0971 0.0420423 0)
(10.1023 0.04173 0)
(10.0003 0.00538531 0)
(10.0036 0.0156052 0)
(10.0099 0.0233351 0)
(10.0172 0.0284889 0)
(10.0244 0.0321255 0)
(10.0314 0.0347413 0)
(10.0382 0.036462 0)
(10.0448 0.0375101 0)
(10.0509 0.0381348 0)
(10.0567 0.038493 0)
(10.0623 0.0386757 0)
(10.0675 0.0387497 0)
(10.0726 0.0387641 0)
(10.0776 0.038743 0)
(10.0825 0.038683 0)
(10.0874 0.0385501 0)
(10.0923 0.0382723 0)
(10.0973 0.0377667 0)
(10.0003 0.00472265 0)
(10.0032 0.0136693 0)
(10.0086 0.0206952 0)
(10.0152 0.0255862 0)
(10.0219 0.0290595 0)
(10.0284 0.0315722 0)
(10.0349 0.0332754 0)
(10.0412 0.0343504 0)
(10.0472 0.0350067 0)
(10.0528 0.0353896 0)
(10.0583 0.0355848 0)
(10.0635 0.0356524 0)
(10.0686 0.0356333 0)
(10.0735 0.0355459 0)
(10.0783 0.0353849 0)
(10.0831 0.0351205 0)
(10.0879 0.0346983 0)
(10.0926 0.034072 0)
(10.0003 0.00410947 0)
(10.0027 0.0119043 0)
(10.0075 0.0182014 0)
(10.0134 0.0227528 0)
(10.0196 0.0260274 0)
(10.0258 0.0284102 0)
(10.032 0.0300617 0)
(10.038 0.0311338 0)
(10.0437 0.0318001 0)
(10.0493 0.0321902 0)
(10.0546 0.0323845 0)
(10.0597 0.0324358 0)
(10.0647 0.0323789 0)
(10.0696 0.0322287 0)
(10.0743 0.0319806 0)
(10.079 0.0316122 0)
(10.0836 0.0310833 0)
(10.0882 0.030378 0)
(10.0002 0.00347577 0)
(10.0024 0.0100701 0)
(10.0064 0.0155262 0)
(10.0117 0.0196122 0)
(10.0174 0.0226034 0)
(10.0232 0.0247948 0)
(10.0289 0.0263415 0)
(10.0347 0.02737 0)
(10.0402 0.0280168 0)
(10.0456 0.0283925 0)
(10.0508 0.028568 0)
(10.0558 0.0285897 0)
(10.0607 0.0284859 0)
(10.0654 0.0282706 0)
(10.07 0.0279403 0)
(10.0746 0.0274828 0)
(10.079 0.0268705 0)
(10.0833 0.0261119 0)
(10.0002 0.00281735 0)
(10.002 0.00816436 0)
(10.0055 0.0126787 0)
(10.0101 0.0161686 0)
(10.0153 0.0187726 0)
(10.0206 0.020695 0)
(10.026 0.0220696 0)
(10.0314 0.0229985 0)
(10.0367 0.0235842 0)
(10.0419 0.0239136 0)
(10.0469 0.0240467 0)
(10.0518 0.0240219 0)
(10.0565 0.0238635 0)
(10.0611 0.0235827 0)
(10.0656 0.0231824 0)
(10.0699 0.0226552 0)
(10.0741 0.0219911 0)
(10.0782 0.0212069 0)
(10.0002 0.00213322 0)
(10.0017 0.00618812 0)
(10.0047 0.00966573 0)
(10.0087 0.0124242 0)
(10.0134 0.0145197 0)
(10.0183 0.0160772 0)
(10.0233 0.017197 0)
(10.0284 0.0179555 0)
(10.0334 0.0184245 0)
(10.0384 0.0186661 0)
(10.0432 0.0187274 0)
(10.0479 0.0186377 0)
(10.0524 0.0184173 0)
(10.0568 0.0180765 0)
(10.0611 0.0176207 0)
(10.0652 0.0170507 0)
(10.0692 0.0163626 0)
(10.0731 0.0155854 0)
(10.0002 0.00142013 0)
(10.0015 0.00412604 0)
(10.0041 0.00646915 0)
(10.0076 0.00835905 0)
(10.0118 0.00981196 0)
(10.0163 0.0108925 0)
(10.021 0.0116616 0)
(10.0258 0.0121679 0)
(10.0305 0.0124549 0)
(10.0352 0.012562 0)
(10.0398 0.0125186 0)
(10.0443 0.0123469 0)
(10.0487 0.0120596 0)
(10.0529 0.0116674 0)
(10.057 0.0111742 0)
(10.0609 0.0105874 0)
(10.0646 0.00990444 0)
(10.0682 0.00915944 0)
(10.0001 0.000661144 0)
(10.0013 0.00192501 0)
(10.0036 0.00301397 0)
(10.0069 0.0038898 0)
(10.0107 0.00455512 0)
(10.0149 0.00503217 0)
(10.0193 0.0053433 0)
(10.0238 0.00550748 0)
(10.0283 0.00554212 0)
(10.0328 0.00546336 0)
(10.0372 0.00528374 0)
(10.0415 0.00501305 0)
(10.0456 0.00465766 0)
(10.0497 0.00422317 0)
(10.0535 0.00371346 0)
(10.0572 0.00313378 0)
(10.0608 0.00248532 0)
(10.0641 0.00179665 0)
(10.0001 -0.000186785 0)
(10.0013 -0.000538533 0)
(10.0035 -0.000874299 0)
(10.0066 -0.00117657 0)
(10.0103 -0.00144369 0)
(10.0144 -0.00168933 0)
(10.0186 -0.00193339 0)
(10.023 -0.00218794 0)
(10.0273 -0.0024635 0)
(10.0317 -0.00276606 0)
(10.0359 -0.00310371 0)
(10.04 -0.00347956 0)
(10.044 -0.00389813 0)
(10.0478 -0.00435938 0)
(10.0515 -0.0048652 0)
(10.055 -0.00541279 0)
(10.0584 -0.00600364 0)
(10.0616 -0.00661485 0)
(10.0001 -0.000998282 0)
(10.0013 -0.00290509 0)
(10.0037 -0.00461481 0)
(10.007 -0.00603997 0)
(10.0109 -0.00717565 0)
(10.0151 -0.00808324 0)
(10.0194 -0.00882394 0)
(10.0238 -0.00944265 0)
(10.0282 -0.00997306 0)
(10.0325 -0.0104504 0)
(10.0367 -0.0108986 0)
(10.0408 -0.0113385 0)
(10.0447 -0.0117797 0)
(10.0485 -0.012234 0)
(10.052 -0.0127041 0)
(10.0555 -0.0131964 0)
(10.0587 -0.0137099 0)
(10.0618 -0.0142335 0)
(10.0002 -0.00169775 0)
(10.0015 -0.00497173 0)
(10.0041 -0.00788256 0)
(10.0078 -0.0102218 0)
(10.012 -0.0120089 0)
(10.0165 -0.0133958 0)
(10.0211 -0.0144884 0)
(10.0257 -0.0153461 0)
(10.0302 -0.0160255 0)
(10.0346 -0.0165881 0)
(10.0388 -0.0170775 0)
(10.0429 -0.0175259 0)
(10.0468 -0.0179506 0)
(10.0505 -0.018369 0)
(10.054 -0.0187881 0)
(10.0574 -0.0192164 0)
(10.0606 -0.0196557 0)
(10.0636 -0.0200972 0)
(10.0002 -0.00236139 0)
(10.0017 -0.0070117 0)
(10.0047 -0.0111453 0)
(10.009 -0.0143073 0)
(10.0137 -0.0165982 0)
(10.0186 -0.0183287 0)
(10.0234 -0.0196607 0)
(10.0283 -0.0206649 0)
(10.033 -0.0214249 0)
(10.0375 -0.022021 0)
(10.0418 -0.022513 0)
(10.0459 -0.0229357 0)
(10.0498 -0.0233196 0)
(10.0535 -0.0236808 0)
(10.0571 -0.0240371 0)
(10.0604 -0.0243915 0)
(10.0635 -0.0247545 0)
(10.0665 -0.0251132 0)
(10.0002 -0.00298154 0)
(10.0018 -0.00907591 0)
(10.0054 -0.014428 0)
(10.0105 -0.0183132 0)
(10.0159 -0.0210543 0)
(10.0212 -0.0230761 0)
(10.0264 -0.0245343 0)
(10.0315 -0.0255554 0)
(10.0364 -0.026294 0)
(10.041 -0.0268607 0)
(10.0454 -0.0273127 0)
(10.0496 -0.0276863 0)
(10.0536 -0.0280115 0)
(10.0573 -0.0283113 0)
(10.0608 -0.0285998 0)
(10.0641 -0.0288856 0)
(10.0672 -0.0291739 0)
(10.0702 -0.0294603 0)
(10.0001 -0.00352641 0)
(10.0018 -0.0115379 0)
(10.0063 -0.0178742 0)
(10.0123 -0.0219687 0)
(10.0183 -0.0250335 0)
(10.0241 -0.0274435 0)
(10.0297 -0.0290849 0)
(10.0351 -0.0301018 0)
(10.0402 -0.0307652 0)
(10.045 -0.0312408 0)
(10.0495 -0.0315958 0)
(10.0537 -0.0318726 0)
(10.0577 -0.0321037 0)
(10.0615 -0.0323152 0)
(10.065 -0.0325184 0)
(10.0683 -0.0327236 0)
(10.0714 -0.0329304 0)
(10.0742 -0.0331386 0)
(9.99991 -0.00337112 0)
(10.0016 -0.014974 0)
(10.0073 -0.0227228 0)
(10.0143 -0.0262288 0)
(10.0206 -0.0288128 0)
(10.0269 -0.0311786 0)
(10.0331 -0.0329031 0)
(10.0391 -0.0339975 0)
(10.0445 -0.0347066 0)
(10.0495 -0.0351836 0)
(10.0541 -0.0354996 0)
(10.0584 -0.0357091 0)
(10.0624 -0.035858 0)
(10.0661 -0.0359769 0)
(10.0695 -0.0360848 0)
(10.0726 -0.036191 0)
(10.0755 -0.0363003 0)
(10.0782 -0.0364105 0)
(9.99859 -0.000379132 0)
(9.99904 -0.0157882 0)
(10.0076 -0.0274247 0)
(10.0166 -0.0324787 0)
(10.0238 -0.0348544 0)
(10.0307 -0.0362112 0)
(10.0377 -0.0369662 0)
(10.0442 -0.0374389 0)
(10.0499 -0.0377958 0)
(10.055 -0.0380537 0)
(10.0596 -0.0382128 0)
(10.0637 -0.0383002 0)
(10.0672 -0.0383433 0)
(10.0704 -0.038364 0)
(10.0731 -0.0383777 0)
(10.0755 -0.0383928 0)
(10.0776 -0.0384139 0)
(10.0794 -0.0384361 0)
(9.99487 0.0014075 0)
(9.99287 -0.00811705 0)
(10.0061 -0.0203221 0)
(10.0202 -0.0322528 0)
(10.0307 -0.0404601 0)
(10.0393 -0.0441352 0)
(10.0468 -0.0450512 0)
(10.0529 -0.0449124 0)
(10.0578 -0.0444526 0)
(10.0617 -0.0438648 0)
(10.0647 -0.043232 0)
(10.0668 -0.0426106 0)
(10.0683 -0.0420335 0)
(10.0691 -0.0415093 0)
(10.0694 -0.0410474 0)
(10.0692 -0.0406457 0)
(10.0687 -0.0403004 0)
(10.0679 -0.0399864 0)
(9.9947 -0.0305761 0)
(9.99944 -0.0228451 0)
(10.0146 -0.00261267 0)
(10.0304 -0.00189263 0)
(10.0435 -0.0116448 0)
(10.0533 -0.0209121 0)
(10.0594 -0.027273 0)
(10.0619 -0.0315035 0)
(10.0616 -0.0342832 0)
(10.0591 -0.0359855 0)
(10.0551 -0.0369268 0)
(10.0498 -0.0373706 0)
(10.0435 -0.0375086 0)
(10.0365 -0.0374603 0)
(10.0289 -0.037315 0)
(10.0209 -0.0371307 0)
(10.0127 -0.0369712 0)
(10.0044 -0.036804 0)
(10.0274 -0.183006 0)
(10.0766 -0.288322 0)
(10.0871 -0.247817 0)
(10.0777 -0.186554 0)
(10.0664 -0.140317 0)
(10.0538 -0.108237 0)
(10.0365 -0.0858908 0)
(10.0146 -0.0704337 0)
(9.98942 -0.0596647 0)
(9.96239 -0.0518928 0)
(9.93442 -0.0460759 0)
(9.90609 -0.041584 0)
(9.87791 -0.0380354 0)
(9.85019 -0.0351682 0)
(9.82317 -0.0328155 0)
(9.79697 -0.0309038 0)
(9.77183 -0.0294004 0)
(9.74779 -0.0286001 0)
(9.93575 0.689542 0)
(9.86828 0.609597 0)
(9.7646 0.380609 0)
(9.62665 0.217414 0)
(9.48592 0.119246 0)
(9.35724 0.0631639 0)
(9.24274 0.031551 0)
(9.14116 0.0135984 0)
(9.0515 0.00324324 0)
(8.97251 -0.00282026 0)
(8.90258 -0.00637706 0)
(8.84037 -0.00849865 0)
(8.78463 -0.0097496 0)
(8.73446 -0.0105131 0)
(8.68896 -0.0109997 0)
(8.64753 -0.0112831 0)
(8.60923 -0.0115163 0)
(8.57377 -0.0121647 0)
(0.012764 -0.0237431 -6.3001e-19)
(0.0292652 -0.0240496 3.43168e-19)
(0.0395712 -0.0149188 0)
(0.0439942 -0.00364575 0)
(0.0411951 0.00636788 0)
(0.032295 0.0139663 -1.38881e-19)
(0.0188535 0.0191289 0)
(0.00202431 0.0222865 0)
(-0.0174143 0.0239291 0)
(-0.0389064 0.0246237 0)
(-0.0618347 0.0248611 8.96097e-20)
(-0.0856859 0.0248051 0)
(-0.110106 0.0252255 0)
(-0.13506 0.0268735 0)
(-0.161328 0.0296315 0)
(-0.189677 0.0330825 6.44153e-20)
(-0.219871 0.0381094 0)
(-0.252398 0.0431675 0)
(-0.286769 0.0508147 0)
(-0.322677 0.0603982 0)
(-0.362433 0.0787271 0)
(-0.403516 0.107422 0)
(-0.452967 0.0917202 0)
(-0.505414 0.0427921 1.02193e-19)
(-0.542354 0.0431688 -9.56933e-20)
(-0.586148 0.045826 9.00335e-20)
(-0.632185 0.0477259 8.504e-20)
(-0.679552 0.0485783 0)
(-0.727438 0.0487801 0)
(-0.775464 0.0485741 -7.31402e-20)
(-0.82335 0.0481119 -6.99818e-20)
(-0.870918 0.0474637 0)
(-0.918036 0.0466957 0)
(-0.964614 0.0458384 -6.22514e-20)
(-1.01059 0.044934 0)
(-1.05593 0.0439979 0)
(-1.10061 0.0430628 5.6459e-20)
(-1.14464 0.0421344 0)
(-1.18802 0.0412334 5.33502e-20)
(-1.23077 0.0403562 1.03939e-19)
(-1.2729 0.0395188 0)
(-1.31446 0.0387135 0)
(-1.35545 0.0379521 0)
(-1.39591 0.0372238 0)
(-1.43586 0.0365378 0)
(-1.47533 0.0358811 9.08277e-20)
(-1.51433 0.035261 8.9068e-20)
(-1.55288 0.0346639 8.73966e-20)
(-1.59101 0.0340958 0)
(-1.62871 0.0335427 -8.42897e-20)
(-1.666 0.03301 0)
(-1.70287 0.0324819 8.14479e-20)
(-1.73931 0.0319601 8.01131e-20)
(-1.77531 0.0314301 0)
(-1.81086 0.030896 0)
(-1.84592 0.0303444 0)
(-1.88047 0.0297788 7.52395e-20)
(-1.91447 0.0291867 0)
(-1.94789 0.028571 0)
(-1.98068 0.0279188 0)
(-2.01278 0.0272322 0)
(-2.04415 0.0265003 0)
(-2.07472 0.0257236 0)
(-2.10442 0.0248912 0)
(-2.13319 0.0240027 0)
(-2.16094 0.023048 -6.60693e-20)
(-2.1876 0.0220235 0)
(-2.21308 0.0209197 0)
(-2.23729 0.0197299 6.32973e-20)
(-2.26013 0.018445 6.23819e-20)
(-2.2815 0.0170559 0)
(-2.30128 0.0155553 -6.05474e-20)
(-2.31937 0.0139347 5.96231e-20)
(-2.33562 0.0121952 0)
(-2.34991 0.0103362 -5.77512e-20)
(-2.36211 0.00838014 0)
(-2.37204 0.00635558 0)
(-2.37953 0.00429969 5.48621e-20)
(-2.38444 0.00223075 0)
(-2.38656 0.000254858 -5.28022e-20)
(-2.38639 -0.00161933 0)
(-2.3839 -0.00347242 5.05457e-20)
(-2.37908 -0.00534355 4.93455e-20)
(-2.37192 -0.00723326 4.80924e-20)
(-2.36239 -0.00915195 9.35619e-20)
(-2.35048 -0.0110875 -9.08154e-20)
(-2.33619 -0.0130422 0)
(-2.31954 -0.0149991 0)
(-2.30055 -0.0169481 0)
(-2.27925 -0.018876 -7.84418e-20)
(-2.25567 -0.0207415 -7.49847e-20)
(-2.22984 -0.0225504 7.13756e-20)
(-2.20186 -0.0242751 0)
(-2.17183 -0.0259158 -6.36967e-20)
(-2.13986 -0.0274493 -5.96266e-20)
(-2.10609 -0.0288699 -5.54048e-20)
(-2.07067 -0.0301494 0)
(-2.03375 -0.0312694 0)
(-1.99551 -0.0322604 0)
(-1.95612 -0.0330466 -3.71062e-20)
(-1.91582 -0.0336921 0)
(-1.87473 -0.034206 0)
(-1.83311 -0.0344475 2.21595e-20)
(-1.79119 -0.0345196 0)
(-1.7492 -0.0344139 0)
(-1.70738 -0.0341323 6.53133e-21)
(-1.66594 -0.0336885 0)
(-1.62511 -0.0330761 0)
(-1.58506 -0.0323186 9.30854e-21)
(-1.546 -0.03141 1.4551e-20)
(-1.50807 -0.0303774 0)
(-1.47143 -0.0292179 -2.487e-20)
(-1.43621 -0.0279611 0)
(-1.40253 -0.0266029 3.48495e-20)
(-1.37047 -0.0251715 0)
(-1.34012 -0.0236697 4.43551e-20)
(-1.31152 -0.0221257 4.88916e-20)
(-1.2847 -0.0205427 0)
(-1.25965 -0.0189494 0)
(-1.23636 -0.0173597 0)
(-1.21481 -0.0158018 0)
(-1.19492 -0.014288 0)
(-1.17664 -0.0128303 0)
(-1.15985 -0.0114372 0)
(-1.14444 -0.0101184 7.8759e-20)
(-1.13029 -0.00888172 -8.16386e-20)
(-1.11724 -0.0077314 0)
(-1.10514 -0.00668634 0)
(-1.09381 -0.00573843 0)
(-1.08307 -0.00490399 0)
(-1.07273 -0.00417447 -1.87276e-19)
(-1.06261 -0.00357051 0)
(-1.05249 -0.00307244 1.9522e-19)
(-1.04219 -0.00270284 -1.98985e-19)
(-1.0315 -0.00243515 0)
(-1.02024 -0.00229638 0)
(-1.00821 -0.00225042 0)
(-0.995194 -0.0023117 2.13883e-19)
(-0.980998 -0.00244983 2.17857e-19)
(-0.96548 -0.00270003 0)
(-0.948559 -0.00306501 2.26506e-19)
(-0.930123 -0.00356674 2.31293e-19)
(-0.910032 -0.00419786 -2.36484e-19)
(-0.888113 -0.00494704 0)
(-0.864215 -0.00579805 0)
(-0.838217 -0.00674342 -2.55405e-19)
(-0.810024 -0.00777441 0)
(-0.779553 -0.00888593 0)
(-0.746739 -0.0100698 0)
(-0.71153 -0.0113222 0)
(-0.673888 -0.0126344 3.04535e-19)
(-0.633793 -0.0140024 3.1821e-19)
(-0.59124 -0.0154214 0)
(-0.546234 -0.0168958 3.50842e-19)
(-0.498793 -0.0184191 0)
(-0.448949 -0.0199964 0)
(-0.396736 -0.0216242 4.16807e-19)
(-0.342208 -0.0233004 0)
(-0.285389 -0.025046 4.76116e-19)
(-0.226338 -0.0269385 0)
(-0.165172 -0.0289637 0)
(-0.102129 -0.030997 5.98966e-19)
(-0.0372908 -0.0327936 0)
(0.0287323 -0.0336628 6.53098e-19)
(0.0967754 -0.0338607 0)
(0.167314 -0.0341251 0)
(0.240159 -0.0344112 0)
(0.315232 -0.0346909 -5.88113e-19)
(0.392403 -0.034933 0)
(0.471495 -0.0351215 5.63682e-19)
(0.552261 -0.0352248 0)
(0.634407 -0.0352185 0)
(0.717595 -0.0350829 0)
(0.801317 -0.034774 0)
(0.885045 -0.0342125 0)
(0.967646 -0.0332767 0)
(1.04861 -0.0315971 0)
(1.1207 -0.0284495 -1.01624e-18)
(1.19339 -0.0213247 0)
(1.19023 0.00163826 0)
(0.00627065 -0.0600167 1.40522e-18)
(0.0118797 -0.0415418 -6.06643e-19)
(0.00992667 -0.0190239 0)
(0.00404201 0.00186292 1.81687e-19)
(-0.00540549 0.0198704 0)
(-0.0183745 0.0345402 6.76198e-20)
(-0.0346455 0.0459641 -1.23619e-19)
(-0.0540574 0.0545923 -1.15074e-19)
(-0.0764418 0.0610385 0)
(-0.101561 0.0659359 -1.02675e-19)
(-0.129093 0.0698387 -4.88777e-20)
(-0.158905 0.0730712 0)
(-0.191019 0.0758931 0)
(-0.225457 0.0789614 0)
(-0.262253 0.0828746 0)
(-0.301303 0.0875862 -4.0641e-20)
(-0.34223 0.0927609 0)
(-0.385267 0.0978353 7.74655e-20)
(-0.430373 0.102302 0)
(-0.478072 0.107127 0)
(-0.525693 0.112879 -7.53092e-20)
(-0.570967 0.119199 0)
(-0.618476 0.122653 7.9341e-20)
(-0.669169 0.122558 -3.91766e-20)
(-0.721068 0.123783 3.774e-20)
(-0.770138 0.124679 -3.63672e-20)
(-0.817337 0.124767 -3.50983e-20)
(-0.863343 0.124111 0)
(-0.908428 0.122842 0)
(-0.952694 0.121109 3.18715e-20)
(-0.996169 0.119047 -3.07343e-20)
(-1.03886 0.116749 0)
(-1.08079 0.114305 0)
(-1.12194 0.111776 2.86383e-20)
(-1.16236 0.109218 0)
(-1.20205 0.106665 0)
(-1.24105 0.104155 -2.67994e-20)
(-1.27938 0.101703 0)
(-1.31707 0.0993318 2.55682e-20)
(-1.35415 0.097043 -5.06185e-20)
(-1.39065 0.0948489 0)
(-1.42659 0.0927419 0)
(-1.462 0.0907274 -9.58689e-20)
(-1.49689 0.0887924 -9.43877e-20)
(-1.53128 0.0869378 -9.29776e-20)
(-1.56519 0.0851473 4.56172e-20)
(-1.59862 0.0834193 -4.53679e-20)
(-1.63158 0.0817355 -1.33849e-19)
(-1.66407 0.0800934 8.79073e-20)
(-1.69608 0.0784742 4.35684e-20)
(-1.72761 0.0768749 0)
(-1.75864 0.0752767 -4.24571e-20)
(-1.78916 0.0736764 4.15493e-20)
(-1.81915 0.0720569 0)
(-1.84857 0.0704157 0)
(-1.8774 0.0687357 0)
(-1.90561 0.0670143 -3.99038e-20)
(-1.93315 0.0652362 0)
(-1.95998 0.0633993 7.75434e-20)
(-1.98607 0.0614895 0)
(-2.01135 0.0595053 7.56689e-20)
(-2.03578 0.0574343 0)
(-2.05929 0.0552749 -7.38111e-20)
(-2.08184 0.0530168 0)
(-2.10335 0.0506583 7.19509e-20)
(-2.12377 0.0481913 -3.53739e-20)
(-2.14303 0.0456136 0)
(-2.16106 0.042919 -6.91131e-20)
(-2.1778 0.0401042 -3.41814e-20)
(-2.19316 0.0371641 -3.36794e-20)
(-2.20709 0.0340937 0)
(-2.21951 0.0308895 -3.24877e-20)
(-2.23036 0.0275443 -3.21061e-20)
(-2.23958 0.0240568 0)
(-2.24713 0.0204202 3.09892e-20)
(-2.25298 0.0166427 -6.07713e-20)
(-2.25714 0.0127407 0)
(-2.25965 0.00876637 -2.91997e-20)
(-2.26055 0.00478168 0)
(-2.25993 0.00088376 8.37221e-20)
(-2.25738 -0.0029271 0)
(-2.25276 -0.00670345 -7.95146e-20)
(-2.24598 -0.0104719 -2.57075e-20)
(-2.23701 -0.0142232 2.51329e-20)
(-2.2258 -0.0179571 4.87238e-20)
(-2.21233 -0.0216537 -4.71228e-20)
(-2.19661 -0.0253081 0)
(-2.17864 -0.0289008 0)
(-2.15848 -0.0324204 0)
(-2.13617 -0.0358324 1.18314e-19)
(-2.11175 -0.0390984 3.71015e-20)
(-2.08528 -0.0421891 -3.50284e-20)
(-2.05683 -0.0450726 0)
(-2.02652 -0.0477435 -3.20378e-20)
(-1.99446 -0.050172 2.84654e-20)
(-1.96079 -0.0523514 2.61734e-20)
(-1.92566 -0.0542506 0)
(-1.88923 -0.0558651 0)
(-1.85168 -0.0571733 0)
(-1.8132 -0.0581834 1.66004e-20)
(-1.77397 -0.0588625 0)
(-1.7342 -0.0592114 -2.51064e-20)
(-1.69409 -0.0592259 -2.93293e-20)
(-1.65386 -0.0589209 1.51873e-20)
(-1.61371 -0.0583255 0)
(-1.57388 -0.0574447 3.54283e-21)
(-1.53456 -0.0563076 0)
(-1.49595 -0.0549229 -4.47029e-21)
(-1.45822 -0.0533212 3.77653e-21)
(-1.42153 -0.0515122 6.15625e-21)
(-1.38601 -0.0495311 0)
(-1.3518 -0.0473908 3.54388e-20)
(-1.31899 -0.0451301 -2.75189e-20)
(-1.28769 -0.0427631 -1.65993e-20)
(-1.25795 -0.0403304 0)
(-1.22982 -0.0378505 -2.05966e-20)
(-1.20334 -0.0353612 -6.62949e-20)
(-1.17851 -0.0328769 0)
(-1.15529 -0.030433 -5.10466e-20)
(-1.13367 -0.028052 -5.44145e-20)
(-1.11357 -0.025774 -5.76116e-20)
(-1.09495 -0.0236204 0)
(-1.0777 -0.0216146 0)
(-1.06172 -0.0197663 0)
(-1.04687 -0.0180898 3.40871e-20)
(-1.03303 -0.0165962 3.56739e-20)
(-1.02002 -0.0152941 0)
(-1.0077 -0.0141978 7.50841e-20)
(-0.995879 -0.0133074 7.69088e-20)
(-0.984381 -0.0126342 0)
(-0.973018 -0.0121683 8.02106e-20)
(-0.9616 -0.0119218 1.63059e-19)
(-0.949933 -0.0118755 -8.28141e-20)
(-0.937824 -0.0120418 -8.40213e-20)
(-0.92508 -0.0123974 0)
(-0.911518 -0.0129536 0)
(-0.896952 -0.0136796 0)
(-0.881188 -0.0145689 -8.77464e-20)
(-0.86404 -0.0155918 8.88496e-20)
(-0.845358 -0.0167536 1.7911e-19)
(-0.825036 -0.0180666 -9.02556e-20)
(-0.802967 -0.0195394 9.13771e-20)
(-0.779023 -0.0211764 9.20133e-20)
(-0.753053 -0.0229407 0)
(-0.724922 -0.0248165 0)
(-0.69451 -0.026768 -9.5308e-20)
(-0.661721 -0.0287904 0)
(-0.626472 -0.0308526 0)
(-0.588696 -0.0329508 1.99008e-19)
(-0.548339 -0.0350581 0)
(-0.505361 -0.0371748 1.03196e-19)
(-0.459737 -0.0392733 -1.05758e-19)
(-0.411455 -0.0413558 0)
(-0.360516 -0.0434077 1.10742e-19)
(-0.306932 -0.0454262 0)
(-0.250721 -0.0473994 0)
(-0.191916 -0.0493498 -1.22219e-19)
(-0.130562 -0.0512642 2.52293e-19)
(-0.066701 -0.0531353 -1.31588e-19)
(-0.000608903 -0.0548395 0)
(0.0677482 -0.05635 0)
(0.138575 -0.0577591 1.3811e-19)
(0.211985 -0.0591148 0)
(0.28785 -0.0603958 1.42533e-19)
(0.365816 -0.0615873 0)
(0.445601 -0.0627233 0)
(0.527076 -0.0637567 0)
(0.6101 -0.0646592 1.56247e-19)
(0.694512 -0.0653944 0)
(0.780122 -0.0659345 -1.62946e-19)
(0.866698 -0.066243 0)
(0.953965 -0.0662832 0)
(1.0416 -0.0660043 3.44734e-19)
(1.12916 -0.065335 -3.51969e-19)
(1.21611 -0.064119 0)
(1.3015 -0.0621149 0)
(1.38454 -0.0585846 0)
(1.46081 -0.0524112 1.15128e-18)
(1.53482 -0.0389379 0)
(1.57393 -0.00498828 -8.2563e-19)
(-0.00459512 -0.0623899 -1.20465e-21)
(-0.00917859 -0.0288307 5.96816e-19)
(-0.0196448 0.000991781 0)
(-0.0330796 0.0273894 -2.46163e-19)
(-0.0487674 0.0503572 0)
(-0.0665167 0.0701021 0)
(-0.0864318 0.0868485 -7.38079e-23)
(-0.108714 0.100934 7.77836e-20)
(-0.133519 0.112803 7.42738e-20)
(-0.160904 0.122951 7.1335e-20)
(-0.190802 0.131853 0)
(-0.223096 0.139893 0)
(-0.257721 0.147408 -6.44479e-20)
(-0.294583 0.15479 -1.24641e-19)
(-0.333376 0.162366 1.20611e-19)
(-0.373637 0.170175 0)
(-0.414931 0.177982 1.13277e-19)
(-0.45698 0.185403 -5.51147e-20)
(-0.499611 0.192092 0)
(-0.542314 0.197956 1.03861e-19)
(-0.584221 0.202937 5.07756e-20)
(-0.624839 0.206515 -9.90547e-20)
(-0.665166 0.206902 -4.85217e-20)
(-0.706302 0.204677 0)
(-0.747935 0.202669 9.11777e-20)
(-0.788996 0.200612 8.83954e-20)
(-0.829255 0.198207 0)
(-0.868726 0.195361 8.33236e-20)
(-0.907478 0.192096 0)
(-0.945573 0.188489 7.88951e-20)
(-0.983055 0.184632 3.85539e-20)
(-1.01996 0.180609 0)
(-1.0563 0.176496 0)
(-1.0921 0.172358 0)
(-1.12737 0.168248 0)
(-1.16214 0.164206 0)
(-1.19641 0.160262 0)
(-1.23019 0.156435 6.63169e-20)
(-1.26352 0.15274 -9.78564e-20)
(-1.29638 0.14918 0)
(-1.32881 0.145759 0)
(-1.36081 0.142472 0)
(-1.39238 0.139312 2.12327e-22)
(-1.42355 0.136268 6.05176e-20)
(-1.45431 0.13333 1.19154e-19)
(-1.48466 0.130482 -1.17556e-19)
(-1.51462 0.127711 -5.79047e-20)
(-1.54417 0.124999 5.73771e-20)
(-1.57332 0.122332 -2.10386e-22)
(-1.60205 0.119692 5.57592e-20)
(-1.63036 0.117065 0)
(-1.65823 0.114433 5.44296e-20)
(-1.68564 0.111784 -2.03332e-22)
(-1.71258 0.109101 0)
(-1.73901 0.106371 0)
(-1.76491 0.103578 -5.19314e-20)
(-1.79025 0.100711 0)
(-1.815 0.097756 0)
(-1.83911 0.0947019 4.9956e-20)
(-1.86254 0.0915367 9.90927e-20)
(-1.88526 0.0882518 -4.91267e-20)
(-1.9072 0.0848366 0)
(-1.92833 0.0812837 4.79274e-20)
(-1.94858 0.0775841 0)
(-1.96791 0.0737319 4.64221e-20)
(-1.98625 0.0697206 4.60905e-20)
(-2.00354 0.0655461 -9.06709e-20)
(-2.01973 0.0612041 -4.45892e-20)
(-2.03474 0.0566923 0)
(-2.04853 0.0520094 8.68231e-20)
(-2.06102 0.0471558 0)
(-2.07215 0.0421348 1.26249e-19)
(-2.08188 0.0369519 8.27183e-20)
(-2.09013 0.031619 8.12806e-20)
(-2.09687 0.0261508 -7.98046e-20)
(-2.10205 0.0205723 1.17438e-19)
(-2.10562 0.0149112 0)
(-2.10752 0.00919651 0)
(-2.10768 0.00344156 -7.3402e-20)
(-2.10601 -0.00236253 -1.07353e-19)
(-2.10242 -0.00822075 0)
(-2.09684 -0.0141079 3.38197e-20)
(-2.08921 -0.0200037 0)
(-2.07949 -0.025881 -9.56295e-20)
(-2.06766 -0.0317174 3.7135e-22)
(-2.0537 -0.0374831 -4.22621e-22)
(-2.03761 -0.0431536 5.73279e-20)
(-2.0194 -0.0486989 0)
(-1.99912 -0.0540893 -5.26072e-20)
(-1.97682 -0.0592814 6.3462e-22)
(-1.95255 -0.0642262 0)
(-1.92636 -0.0688759 0)
(-1.89834 -0.0731976 0)
(-1.8686 -0.0771573 3.87678e-20)
(-1.83725 -0.080729 0)
(-1.80443 -0.0838822 0)
(-1.77029 -0.0865928 0)
(-1.73499 -0.0888372 0)
(-1.69869 -0.0906012 0)
(-1.66159 -0.0918735 2.22109e-20)
(-1.62386 -0.0926432 0)
(-1.5857 -0.0929087 1.5136e-20)
(-1.54731 -0.0926667 1.21138e-20)
(-1.50888 -0.0919332 -9.10299e-21)
(-1.47061 -0.0907466 0)
(-1.43271 -0.0891423 -3.15086e-21)
(-1.39537 -0.0871454 0)
(-1.35875 -0.0847913 2.64973e-21)
(-1.32302 -0.0821118 -5.47464e-21)
(-1.28831 -0.079146 -2.28075e-20)
(-1.25476 -0.0759312 0)
(-1.22246 -0.0725091 -3.89406e-20)
(-1.19151 -0.0689209 -1.4439e-20)
(-1.16198 -0.0652094 0)
(-1.13391 -0.061418 -4.04629e-20)
(-1.10736 -0.0575911 -4.51575e-20)
(-1.08232 -0.0537716 7.51574e-20)
(-1.0588 -0.0499976 0)
(-1.03675 -0.0463104 2.96123e-20)
(-1.01614 -0.0427515 3.15286e-20)
(-0.996895 -0.0393661 9.91445e-20)
(-0.978951 -0.036189 0)
(-0.962209 -0.033251 0)
(-0.946556 -0.0305712 0)
(-0.931866 -0.0281694 3.90866e-20)
(-0.917992 -0.0260602 0)
(-0.904784 -0.0242589 0)
(-0.892077 -0.0227764 -4.32474e-20)
(-0.879703 -0.0216206 -4.42779e-20)
(-0.867483 -0.0207949 0)
(-0.855238 -0.0202981 0)
(-0.842782 -0.0201291 -9.3745e-20)
(-0.829928 -0.0202782 0)
(-0.816491 -0.0207401 9.6472e-20)
(-0.802286 -0.0215008 9.77267e-20)
(-0.787135 -0.0225513 0)
(-0.770858 -0.0238665 0)
(-0.753277 -0.0254203 -1.00787e-19)
(-0.734216 -0.0271903 1.40795e-22)
(-0.713531 -0.0291694 1.43843e-22)
(-0.691105 -0.0313684 0)
(-0.666832 -0.0337909 -2.0825e-19)
(-0.640588 -0.0364294 0)
(-0.612238 -0.0392444 0)
(-0.581656 -0.0422062 0)
(-0.548732 -0.0452745 1.07883e-19)
(-0.513372 -0.0484297 0)
(-0.475497 -0.051635 -2.20809e-19)
(-0.435041 -0.0548715 -1.11919e-19)
(-0.391955 -0.0581082 0)
(-0.3462 -0.0613337 -1.15541e-19)
(-0.297755 -0.0645149 0)
(-0.246608 -0.067642 0)
(-0.192762 -0.0707025 -3.68002e-19)
(-0.136237 -0.0736914 2.51097e-19)
(-0.0770476 -0.0765836 0)
(-0.0152906 -0.0793584 2.64316e-19)
(0.0489603 -0.0819759 -1.35372e-19)
(0.115736 -0.0844467 0)
(0.185025 -0.086819 0)
(0.256791 -0.0891173 0)
(0.33095 -0.0913008 -4.36743e-19)
(0.407409 -0.0933566 0)
(0.486051 -0.0953253 -1.53261e-19)
(0.566621 -0.0971874 0)
(0.648894 -0.0989069 0)
(0.732689 -0.100445 0)
(0.817828 -0.101767 0)
(0.904119 -0.10283 0)
(0.991351 -0.103596 0)
(1.07928 -0.10401 -3.68333e-19)
(1.16764 -0.104022 0)
(1.25608 -0.103547 -1.96223e-19)
(1.3442 -0.102473 6.02008e-19)
(1.43148 -0.100571 0)
(1.51708 -0.0974616 0)
(1.60033 -0.0922486 -4.34321e-19)
(1.67831 -0.0834277 -4.49278e-19)
(1.75482 -0.0665955 4.60948e-19)
(1.8114 -0.0311293 4.84939e-19)
(-0.0140442 -0.039745 -1.98531e-18)
(-0.0259467 0.00138727 -7.14614e-19)
(-0.0425387 0.034968 -2.66223e-19)
(-0.061766 0.0642782 -9.66367e-20)
(-0.0823893 0.0901205 0)
(-0.104138 0.113016 1.41016e-19)
(-0.127213 0.133294 -6.47783e-20)
(-0.151875 0.151246 0)
(-0.178318 0.167185 -5.78753e-20)
(-0.206631 0.181433 0)
(-0.23679 0.194278 1.07432e-19)
(-0.268687 0.205948 0)
(-0.302181 0.216633 5.02031e-20)
(-0.337097 0.226539 9.7151e-20)
(-0.373139 0.235818 -9.39792e-20)
(-0.409915 0.244487 0)
(-0.44704 0.25242 -8.78554e-20)
(-0.484213 0.259394 0)
(-0.521198 0.265189 0)
(-0.557811 0.269706 -7.92524e-20)
(-0.593861 0.272884 0)
(-0.629281 0.274423 -4.47672e-23)
(-0.664352 0.274002 0)
(-0.699444 0.271916 0)
(-0.734593 0.26899 -3.71223e-23)
(-0.769574 0.265517 -6.61455e-20)
(-0.80423 0.261588 -6.4268e-20)
(-0.838487 0.257253 -6.26294e-20)
(-0.872328 0.25257 0)
(-0.905755 0.247611 -1.18977e-19)
(-0.938777 0.242455 0)
(-0.971402 0.237178 -5.67152e-20)
(-1.00364 0.231851 0)
(-1.0355 0.226533 0)
(-1.06698 0.221274 5.32359e-20)
(-1.0981 0.21611 0)
(-1.12885 0.211071 -5.12694e-20)
(-1.15923 0.206175 -8.34507e-23)
(-1.18926 0.201436 9.91497e-20)
(-1.21893 0.196857 -9.74735e-20)
(-1.24825 0.19244 0)
(-1.27722 0.188177 0)
(-1.30584 0.184062 -4.65007e-20)
(-1.33412 0.180081 0)
(-1.36205 0.17622 -4.54209e-20)
(-1.38963 0.172462 4.4829e-20)
(-1.41687 0.168789 4.42599e-20)
(-1.44376 0.165181 0)
(-1.47028 0.161619 -4.31802e-20)
(-1.49644 0.158084 -4.26652e-20)
(-1.52222 0.154554 8.41456e-20)
(-1.54761 0.151012 -4.16748e-20)
(-1.57258 0.147437 -4.11959e-20)
(-1.59712 0.143811 0)
(-1.62121 0.140116 0)