/*--------------------------------*- C++ -*----------------------------------*\
  =========                 |
  \\      /  F ield         | OpenFOAM: The Open Source CFD Toolbox
   \\    /   O peration     | Website:  https://openfoam.org
    \\  /    A nd           | Version:  9
     \\/     M anipulation  |
\*---------------------------------------------------------------------------*/
FoamFile
{
    format      ascii;
    class       surfaceScalarField;
    location    "0.35";
    object      alphaPhi0.water;
}
// * * * * * * * * * * * * * * * * * * * * * * * * * * * * * * * * * * * * * //

dimensions      [0 3 -1 0 0 0 0];

internalField   nonuniform List<scalar> 
3782
(
0
3.36402e-12
-1.15671e-11
8.27228e-12
-1.84735e-11
2.70644e-11
-2.24062e-11
2.08212e-11
-2.01088e-11
1.22851e-11
-1.40349e-11
3.13175e-12
-1.0633e-11
0
-8.24188e-12
0
-6.36216e-12
0
-5.02026e-12
0
-4.06527e-12
0
-2.80703e-12
-9.65603e-13
-1.35361e-12
-1.87308e-12
-3.80668e-13
-1.36454e-12
-6.76442e-14
-4.56042e-13
-8.10115e-15
-8.58747e-14
-9.56121e-16
-1.07674e-14
-9.56649e-17
-2.35411e-15
-7.05097e-18
-2.43711e-16
-4.28384e-19
-1.98681e-17
-2.37602e-20
-1.33851e-18
-1.21435e-21
-8.21225e-20
-5.68719e-23
-4.61831e-21
-2.42345e-24
-2.36677e-22
-9.23602e-26
-1.09706e-23
-3.11837e-27
-4.52121e-25
-9.38641e-29
-1.64268e-26
-2.52768e-30
-5.29015e-28
-6.09147e-32
-1.51543e-29
-1.3323e-33
-3.86256e-31
-2.6688e-35
-8.85613e-33
-4.87713e-37
-1.84181e-34
-8.12171e-39
-3.45558e-36
-1.21368e-40
-5.83011e-38
-1.62386e-42
-8.70445e-40
-1.93399e-44
-1.14955e-41
-2.00866e-46
-1.33096e-43
-1.77269e-48
-1.32035e-45
-1.28863e-50
-1.08342e-47
-7.42773e-53
-7.13315e-50
-3.20285e-55
-3.70081e-52
-1.09985e-57
-1.37224e-54
-2.71168e-57
4.00018e-12
-8.39385e-13
4.35717e-09
-1.20019e-10
7.05992e-09
1.97448e-09
5.3356e-09
3.05618e-09
1.05241e-11
-2.79714e-12
4.28289e-09
-1.26839e-11
6.65472e-09
2.4217e-09
5.61705e-09
2.63892e-09
2.94203e-11
-5.03488e-12
9.08171e-10
-8.78978e-10
1.23606e-08
1.78844e-09
8.13589e-09
3.83981e-09
4.64859e-11
-1.81319e-11
3.26318e-09
-5.09568e-10
1.42766e-08
5.56813e-10
1.07512e-08
5.42191e-09
9.93756e-11
-7.08459e-11
1.49964e-09
-5.90439e-11
1.37845e-08
-1.08014e-09
7.80583e-09
7.69324e-09
3.2472e-11
-5.57873e-11
1.97535e-10
-1.82653e-10
8.40315e-09
-2.50445e-09
6.16378e-09
1.52341e-08
0
-4.50689e-11
1.09438e-10
-1.77906e-10
1.14351e-09
-7.20234e-10
1.12364e-09
1.14208e-08
0
-3.46901e-11
0
-1.43525e-10
-2.13579e-10
-4.74205e-10
-2.86539e-09
4.68626e-09
0
-2.65837e-11
0
-1.04718e-10
0
-3.60474e-10
-1.53168e-09
-8.47177e-09
0
-2.08088e-11
0
-8.10546e-11
0
-2.91879e-10
-9.22642e-10
0
0
-1.68644e-11
0
-6.56961e-11
0
-2.29639e-10
-7.10657e-10
0
-3.54412e-12
-1.19572e-11
-1.14231e-11
-4.74546e-11
-3.16225e-11
-1.68334e-10
-5.39906e-10
-5.96272e-11
-8.01661e-12
-5.99824e-12
-3.17192e-11
-2.47167e-11
-1.1271e-10
-9.16091e-11
-3.09072e-10
-3.60184e-10
-6.22421e-12
-1.76809e-12
-2.655e-11
-7.50999e-12
-1.04445e-10
-2.88119e-11
-1.01248e-10
-3.79858e-10
-2.11929e-12
-3.36289e-13
-9.10954e-12
-1.50421e-12
-3.59436e-11
-5.95324e-12
-2.11175e-11
-1.31236e-10
-4.16648e-13
-4.0323e-14
-1.87426e-12
-1.95576e-13
-7.62644e-12
-8.09327e-13
-2.91439e-12
-2.81884e-11
-5.2219e-14
-3.69755e-15
-2.41444e-13
-1.64663e-14
-1.04278e-12
-7.43882e-14
-2.78032e-13
-3.94055e-12
-6.52651e-15
-3.66311e-16
-2.13245e-14
-1.32948e-15
-9.8666e-14
-5.12694e-15
-2.08654e-14
-3.79788e-13
-1.08429e-15
-2.74985e-17
-4.45011e-15
-1.02775e-16
-1.24324e-14
-3.45747e-16
-1.05397e-15
-3.21913e-14
-9.11769e-17
-1.69074e-18
-4.02693e-16
-6.35737e-18
-1.553e-15
-2.10078e-17
-5.80137e-17
-5.24341e-15
-6.32435e-18
-9.54815e-20
-2.89924e-17
-3.63862e-19
-1.19689e-16
-1.19942e-18
-3.14658e-18
-4.50538e-16
-4.01646e-19
-4.99644e-21
-1.9207e-18
-1.93998e-20
-8.2583e-18
-6.4113e-20
-1.58827e-19
-3.255e-17
-2.34915e-20
-2.40878e-22
-1.17875e-19
-9.5647e-22
-5.30359e-19
-3.16749e-21
-7.18124e-21
-2.19373e-18
-1.25825e-21
-1.06244e-23
-6.6636e-21
-4.33037e-23
-3.16352e-20
-1.43202e-22
-2.79347e-22
-1.37384e-19
-6.12918e-23
-4.20985e-25
-3.44025e-22
-1.76375e-24
-1.74441e-21
-5.76395e-24
-8.253e-24
-8.03028e-21
-2.66681e-24
-1.48584e-26
-1.59202e-23
-6.39992e-26
-8.63495e-23
-2.03123e-25
-1.1592e-25
-4.2419e-22
-1.02802e-25
-4.69749e-28
-6.55068e-25
-2.0803e-27
-3.7922e-24
-6.26726e-27
6.01776e-27
-1.99315e-23
-3.52562e-27
-1.33615e-29
-2.41834e-26
-6.07682e-29
-1.4962e-25
-1.67336e-28
6.2575e-28
-8.32697e-25
-1.07935e-28
-3.42332e-31
-8.03101e-28
-1.59608e-30
-5.31359e-27
-3.75597e-30
3.41118e-29
-3.10457e-26
-2.9532e-30
-7.98285e-33
-2.39615e-29
-3.80789e-32
-1.69088e-28
-6.71494e-32
1.43099e-30
-1.03745e-27
-7.28926e-32
-1.71188e-34
-6.49077e-31
-8.34272e-34
-4.87475e-30
-7.64651e-34
5.14932e-32
-3.15081e-29
-1.63836e-33
-3.36661e-36
-1.60542e-32
-1.67751e-35
-1.29401e-31
5.31007e-36
1.82768e-33
-8.8869e-31
-3.34715e-35
-6.0707e-38
-3.62343e-34
-3.10468e-37
-3.15496e-33
6.8308e-37
6.35191e-35
-2.52607e-32
-6.2413e-37
-9.88333e-40
-7.54803e-36
-5.19283e-39
-6.97177e-35
2.52161e-38
1.99489e-36
-7.12503e-34
-1.03314e-38
-1.45353e-41
-1.52643e-37
-7.80947e-41
-1.4005e-36
7.09213e-40
7.3821e-38
-1.8375e-35
-1.49686e-40
-1.92914e-43
-2.45381e-39
-1.06735e-42
-2.73131e-38
1.84321e-41
2.48058e-39
-4.6847e-37
-1.93478e-42
-2.27419e-45
-3.17897e-41
-1.31659e-44
-5.3714e-40
4.21621e-43
7.06966e-41
-1.12346e-38
-2.2298e-44
-2.32154e-47
-3.67276e-43
-1.45833e-46
-9.62909e-42
8.44525e-45
1.75139e-42
-2.44101e-40
-2.58339e-46
-2.00569e-49
-3.88284e-45
-1.42863e-48
-1.51843e-43
2.52926e-46
3.8293e-44
-4.78515e-42
-1.8949e-48
-1.43786e-51
-3.64503e-47
-1.20921e-50
-2.41893e-45
5.56017e-48
7.44184e-46
-8.46372e-44
-1.06754e-50
-8.289e-54
-2.83199e-49
-8.45363e-53
-3.40847e-47
1.03203e-49
1.31394e-47
-1.35167e-45
-4.50502e-53
-5.50036e-56
-1.82424e-51
-1.98416e-55
-4.38785e-49
1.83511e-51
2.20109e-49
-2.00065e-47
-1.3823e-55
-1.12219e-53
-5.86101e-51
-3.04379e-49
5.58444e-10
2.13948e-09
1.48273e-10
6.911e-10
1.80347e-10
6.08917e-10
5.86061e-10
5.18944e-10
7.63813e-07
3.31748e-07
1.39422e-05
1.59159e-05
5.04318e-05
7.91071e-05
5.39259e-05
8.76051e-05
5.43045e-05
9.20012e-05
5.46139e-05
9.47817e-05
5.14809e-05
9.49412e-05
2.26204e-05
5.01099e-05
0
8.36999e-06
0
2.28932e-06
0
6.20474e-07
0
1.54876e-07
0
3.40079e-08
0
6.79267e-09
0
1.27493e-09
0
2.30046e-10
0
3.97137e-11
0
6.52265e-12
0
1.0273e-12
2.87891e-15
1.60348e-13
3.48982e-15
2.52038e-14
8.92934e-16
4.38378e-15
1.06036e-16
5.96088e-16
1.00126e-17
6.89494e-17
8.73535e-19
7.20167e-18
6.8069e-20
6.80375e-19
4.68291e-21
5.7878e-20
2.81308e-22
4.40381e-21
1.45293e-23
2.96873e-22
6.31292e-25
1.74994e-23
2.23547e-26
8.85576e-25
6.14633e-28
3.74787e-26
1.21073e-29
1.27526e-27
1.46332e-31
3.27166e-29
1.23942e-32
5.58924e-31
7.62183e-33
5.93197e-10
2.28219e-09
4.07078e-10
2.18507e-09
1.94482e-09
9.0646e-09
3.23432e-09
1.56265e-09
3.92512e-06
9.29703e-07
3.93608e-05
5.59208e-05
4.86801e-05
8.25093e-05
4.99887e-05
8.57438e-05
5.07912e-05
9.04667e-05
5.10829e-05
9.35008e-05
3.6184e-05
7.23201e-05
3.05289e-06
1.42151e-05
0
2.87689e-06
0
1.00396e-06
0
2.91603e-07
0
7.56083e-08
0
1.7005e-08
0
3.4324e-09
0
6.48537e-10
0
1.16725e-10
0
2.00511e-11
0
3.28905e-12
0
5.2578e-13
2.54566e-15
8.60248e-14
2.54824e-15
1.45624e-14
5.04545e-16
2.45368e-15
5.3361e-17
3.18946e-16
5.15712e-18
3.67215e-17
4.52537e-19
3.83045e-18
3.53964e-20
3.61665e-19
2.44535e-21
3.07728e-20
1.47577e-22
2.34375e-21
7.66104e-24
1.58275e-22
3.34721e-25
9.35338e-24
1.19247e-26
4.7493e-25
3.30017e-28
2.01844e-26
6.54668e-30
6.9026e-28
7.97502e-32
1.78123e-29
5.11312e-33
3.0655e-31
3.80176e-33
1.50344e-09
3.15184e-09
6.05314e-09
7.73117e-09
3.59496e-08
5.78587e-08
3.85712e-07
4.37878e-07
1.2701e-05
1.53698e-05
4.32212e-05
7.14275e-05
4.51973e-05
7.30936e-05
4.67944e-05
8.21848e-05
4.79448e-05
8.87599e-05
4.10494e-05
7.52553e-05
1.08082e-05
2.37509e-05
7.17125e-09
2.96675e-06
0
1.00113e-06
0
3.31591e-07
0
1.17178e-07
0
3.31028e-08
0
7.73209e-09
0
1.59974e-09
0
3.05689e-10
0
5.50299e-11
0
9.41859e-12
0
1.55293e-12
2.98051e-15
2.57524e-13
4.68442e-15
4.44546e-14
1.59348e-15
8.32564e-15
2.35647e-16
1.25422e-15
2.49863e-17
1.58402e-16
2.43724e-18
1.80841e-17
2.14066e-19
1.87631e-18
1.67548e-20
1.76459e-19
1.15909e-21
1.49729e-20
7.0092e-23
1.13845e-21
3.64824e-24
7.68276e-23
1.59918e-25
4.54149e-24
5.71953e-27
2.30893e-25
1.59011e-28
9.8351e-27
3.17076e-30
3.3743e-28
3.88597e-32
8.74384e-30
1.86404e-33
1.51335e-31
1.72691e-33
3.65719e-09
3.87081e-09
4.37059e-08
1.67871e-08
4.36344e-07
5.2255e-07
6.60522e-06
1.02783e-05
3.40507e-05
6.42572e-05
4.40761e-05
7.01102e-05
3.23945e-05
4.9224e-05
3.50228e-05
3.7482e-05
3.15196e-05
3.42933e-05
1.37854e-05
1.45386e-05
8.40236e-07
1.2203e-06
4.31639e-08
7.18285e-07
0
3.49803e-07
0
1.1418e-07
0
3.74199e-08
0
1.22936e-08
0
3.12747e-09
0
6.73724e-10
0
1.31363e-10
0
2.3838e-11
0
4.09743e-12
0
6.91577e-13
3.49923e-15
1.22543e-13
3.64727e-15
2.27362e-14
8.23639e-16
4.15337e-15
1.01333e-16
5.84743e-16
1.08384e-17
7.26849e-17
1.05681e-18
8.22021e-18
9.2551e-20
8.46229e-19
7.22831e-21
7.90731e-20
4.9945e-22
6.675e-21
3.01924e-23
5.05534e-22
1.57224e-24
3.40219e-23
6.90043e-26
2.00792e-24
2.47286e-27
1.02037e-25
6.89328e-29
4.34905e-27
1.37902e-30
1.4946e-28
1.69654e-32
3.88308e-30
6.06377e-34
6.7463e-32
7.15545e-34
3.5926e-09
4.50707e-09
9.7703e-09
8.95302e-09
5.83001e-06
5.16993e-06
2.85849e-05
5.41055e-05
3.33963e-05
7.10734e-05
3.19672e-05
7.20682e-05
1.46186e-05
6.10911e-05
5.48594e-06
2.22564e-05
4.94556e-06
7.90273e-06
2.3539e-06
2.93439e-06
5.62253e-07
8.09084e-07
7.83444e-08
2.76909e-07
1.063e-08
1.25573e-07
1.71992e-10
4.49512e-08
0
1.2632e-08
0
3.64602e-09
0
1.07009e-09
0
2.5025e-10
0
5.06453e-11
0
9.37059e-12
0
1.64898e-12
2.26554e-15
2.96718e-13
5.3897e-15
5.72411e-14
2.07866e-15
1.14714e-14
3.4421e-16
1.86603e-15
4.0388e-17
2.51813e-16
4.32732e-18
3.08289e-17
4.19602e-19
3.44568e-18
3.65417e-20
3.51162e-19
2.84122e-21
3.25351e-20
1.95657e-22
2.72707e-21
1.18001e-23
2.05359e-22
6.13651e-25
1.37601e-23
2.69217e-26
8.09611e-25
9.65222e-28
4.10684e-26
2.69391e-29
1.74945e-27
5.39878e-31
6.01561e-29
6.65568e-33
1.56524e-30
1.70548e-34
2.72593e-32
2.68078e-34
8.3038e-09
7.3801e-09
9.16182e-09
8.40857e-09
2.26426e-05
1.59865e-05
3.52512e-05
7.22785e-05
3.57485e-05
7.17596e-05
3.45161e-05
7.28857e-05
2.54519e-05
7.15111e-05
4.67745e-06
3.63352e-05
9.32051e-07
7.90575e-06
5.96284e-07
1.47922e-06
1.86242e-07
4.59236e-07
3.70736e-08
1.54918e-07
5.67427e-09
5.10243e-08
1.07639e-09
1.66561e-08
3.09784e-11
4.91466e-09
0
1.20025e-09
0
3.0278e-10
0
7.93993e-11
0
1.72158e-11
0
3.32628e-12
0
6.26419e-13
3.94704e-15
1.26786e-13
4.06254e-15
2.65656e-14
9.50745e-16
5.13901e-15
1.27399e-16
7.59594e-16
1.4876e-17
1.00092e-16
1.58277e-18
1.20592e-17
1.52141e-19
1.32948e-18
1.31493e-20
1.33905e-19
1.01601e-21
1.22818e-20
6.96147e-23
1.02074e-21
4.18233e-24
7.63304e-23
2.1691e-25
5.08645e-24
9.50062e-27
2.98065e-25
3.40406e-28
1.50798e-26
9.50246e-30
6.41548e-28
1.90577e-31
2.20585e-29
2.35151e-33
5.74463e-31
3.90574e-35
1.00205e-32
9.12033e-35
5.86278e-09
1.01643e-08
1.00256e-08
8.40233e-09
2.27049e-05
1.39567e-05
3.50226e-05
6.12194e-05
3.604e-05
7.06773e-05
3.56685e-05
7.29434e-05
3.41637e-05
7.28666e-05
1.3743e-05
6.42913e-05
1.12211e-06
2.00622e-05
2.20353e-07
1.85225e-06
5.21611e-08
3.43964e-07
1.33772e-08
8.1363e-08
2.45654e-09
2.22877e-08
4.35489e-10
6.34519e-09
8.07963e-11
1.74252e-09
9.52564e-13
4.40888e-10
0
9.64596e-11
0
2.16652e-11
0
5.12578e-12
0
1.08929e-12
3.86031e-15
2.37921e-13
5.96336e-15
5.48323e-14
2.0354e-15
1.20074e-14
3.39375e-16
1.999e-15
4.32407e-17
2.82995e-16
5.01265e-18
3.65684e-17
5.27477e-19
4.33337e-18
5.01819e-20
4.70836e-19
4.29899e-21
4.6825e-20
3.29714e-22
4.24809e-21
2.24544e-23
3.49804e-22
1.3426e-24
2.59594e-23
6.93865e-26
1.71944e-24
3.03201e-27
1.00309e-25
1.08499e-28
5.05984e-27
3.0276e-30
2.14935e-28
6.07308e-32
7.38835e-30
7.49464e-34
1.92555e-31
6.81236e-36
3.36284e-33
2.87654e-35
1.66423e-08
1.12088e-08
1.96511e-08
7.38384e-09
1.11123e-05
2.55797e-06
3.21249e-05
3.84649e-05
3.52545e-05
6.72051e-05
3.61427e-05
7.22922e-05
3.56807e-05
7.29996e-05
2.95587e-05
7.10739e-05
1.76627e-06
5.24983e-05
2.02151e-07
3.20176e-06
3.49024e-08
4.25295e-07
4.94875e-09
7.17002e-08
8.34383e-10
1.1938e-08
1.52555e-10
2.49007e-09
2.73206e-11
6.0423e-10
4.43288e-12
1.44856e-10
0
3.24988e-11
0
6.48928e-12
0
1.42004e-12
2.58971e-15
3.61623e-13
5.79814e-15
9.60525e-14
3.52306e-15
2.35172e-14
7.55864e-16
4.59244e-15
1.06329e-16
7.00334e-16
1.33747e-17
9.66264e-17
1.53162e-18
1.22434e-17
1.59206e-19
1.42629e-18
1.49837e-20
1.52683e-19
1.27179e-21
1.49893e-20
9.67807e-23
1.34483e-21
6.54889e-24
1.09706e-22
3.89599e-25
8.07926e-24
2.00596e-26
5.31942e-25
8.74362e-28
3.08977e-26
3.12451e-29
1.55426e-27
8.71458e-31
6.59388e-29
1.74816e-32
2.26675e-30
2.15706e-34
5.91366e-32
1.10656e-36
1.03402e-33
8.6589e-36
3.61136e-09
6.33998e-09
1.39526e-08
7.19881e-09
2.30038e-06
2.93114e-07
2.46464e-05
6.78021e-06
3.22335e-05
5.29767e-05
3.51284e-05
7.03616e-05
3.57137e-05
7.30284e-05
3.45032e-05
7.27348e-05
1.06513e-05
5.78968e-05
2.8144e-07
7.1111e-06
2.0612e-08
5.99986e-07
2.2594e-09
7.24653e-08
2.80532e-10
8.61742e-09
4.59218e-11
1.10894e-09
8.11282e-12
2.03406e-10
1.37191e-12
4.51399e-11
1.85998e-13
9.69888e-12
0
2.01816e-12
2.32497e-15
4.4025e-13
5.42557e-15
1.37951e-13
5.07376e-15
3.99216e-14
1.37544e-15
9.12098e-15
2.1976e-16
1.51597e-15
2.99933e-17
2.23062e-16
3.72411e-18
3.01134e-17
4.20832e-19
3.74363e-18
4.32282e-20
4.28916e-19
4.02675e-21
4.52542e-20
3.38777e-22
4.38736e-21
2.55902e-23
3.89453e-22
1.72125e-24
3.14894e-23
1.01924e-25
2.3026e-24
5.23039e-27
1.50789e-25
2.27502e-28
8.72615e-27
8.12148e-30
4.38041e-28
2.26482e-31
1.8573e-29
4.54465e-33
6.3895e-31
5.6072e-35
1.66973e-32
2.85934e-37
2.92426e-34
2.4482e-36
-3.02823e-09
-1.94185e-09
2.3774e-08
2.91326e-08
2.37668e-07
1.14536e-07
6.37527e-06
7.59133e-07
2.84628e-05
7.96764e-06
2.98504e-05
4.8511e-05
3.3211e-05
7.06558e-05
3.29651e-05
7.21512e-05
9.82823e-06
4.36181e-05
8.57431e-08
7.46442e-06
0
6.23484e-07
0
6.66987e-08
3.09638e-11
7.06943e-09
9.5775e-12
6.98133e-10
2.08945e-12
7.10528e-11
3.78659e-13
1.34378e-11
5.78048e-14
2.7869e-12
0
5.9838e-13
4.88434e-15
1.67729e-13
6.0145e-15
5.76509e-14
2.03045e-15
1.5404e-14
3.75174e-16
2.86021e-15
5.58174e-17
4.49661e-16
7.5159e-18
6.45638e-17
9.21659e-19
8.5397e-18
1.02971e-19
1.04291e-18
1.04719e-20
1.17652e-19
9.67029e-22
1.22476e-20
8.07586e-23
1.17383e-21
6.06325e-24
1.03199e-22
4.05875e-25
8.27927e-24
2.39493e-26
6.01759e-25
1.22615e-27
3.92378e-26
5.32699e-29
2.26474e-27
1.90127e-30
1.13573e-28
5.30482e-32
4.81781e-30
1.06534e-33
1.66032e-31
1.31459e-35
4.35007e-33
6.671e-38
7.63622e-35
6.36277e-37
-2.57535e-10
-1.96726e-09
-4.70803e-09
1.03754e-09
5.89497e-08
5.24053e-08
7.01217e-07
8.49006e-08
5.89097e-06
5.01263e-07
1.97211e-05
2.54427e-06
1.98593e-05
1.39312e-05
1.379e-05
1.26745e-05
3.57752e-06
6.24465e-06
0
5.62934e-06
0
5.92933e-07
0
5.91943e-08
0
5.06928e-09
0
4.17038e-10
4.24165e-13
3.25051e-11
9.20326e-14
4.23842e-12
1.0264e-14
8.2008e-13
3.33936e-15
1.89035e-13
5.16193e-15
7.22693e-14
2.32712e-15
2.22386e-14
5.07715e-16
4.67125e-15
8.35195e-17
7.89022e-16
1.22805e-17
1.20553e-16
1.64049e-18
1.69425e-17
1.99616e-19
2.20004e-18
2.21438e-20
2.6444e-19
2.2376e-21
2.9424e-20
2.05477e-22
3.02718e-21
1.70798e-23
2.87274e-22
1.2776e-24
2.50533e-23
8.52947e-26
1.99733e-24
5.02468e-27
1.44513e-25
2.57086e-28
9.39634e-27
1.11718e-29
5.417e-28
3.9913e-31
2.71755e-29
1.11524e-32
1.15488e-30
2.24278e-34
3.9918e-32
2.76806e-36
1.0497e-33
1.39687e-38
1.8484e-35
1.53088e-37
0
-1.59856e-09
-3.65776e-09
-3.66377e-09
-1.38627e-09
3.78448e-09
0
3.58204e-08
4.95255e-07
1.75379e-08
1.85746e-06
1.69715e-07
2.31476e-06
6.05642e-07
1.75273e-06
7.45178e-07
7.47216e-07
7.0343e-07
2.36626e-07
1.08065e-06
0
4.38911e-07
0
3.75806e-08
0
2.44099e-09
0
1.57459e-10
4.044e-14
1.29508e-11
1.21376e-14
1.64944e-12
1.31224e-15
2.84434e-13
2.78845e-15
7.92542e-14
1.76502e-15
2.80962e-14
4.82232e-16
6.58028e-15
9.20528e-17
1.19873e-15
1.52068e-17
1.95378e-16
2.25449e-18
2.91924e-17
3.02517e-19
4.02746e-18
3.68945e-20
5.14824e-19
4.09641e-21
6.10514e-20
4.13991e-22
6.71539e-21
3.80115e-23
6.84251e-22
3.15944e-24
6.44257e-23
2.36393e-25
5.58433e-24
1.57932e-26
4.43246e-25
9.31532e-28
3.19831e-26
4.77459e-29
2.0773e-27
2.07946e-30
1.19816e-28
7.44776e-32
6.02269e-30
2.08614e-33
2.56789e-31
4.20275e-35
8.91435e-33
5.18532e-37
2.35548e-34
2.59591e-39
4.16365e-36
3.42363e-38
-1.00714e-09
-1.01032e-09
-1.98484e-09
-2.47157e-09
-7.29182e-09
-3.18554e-09
-1.6127e-08
5.6182e-09
-1.07528e-07
4.7072e-09
-1.82123e-07
0
-1.0189e-07
6.25215e-08
-8.88156e-08
1.81665e-07
-1.08665e-07
2.51237e-07
-7.29395e-08
2.19477e-07
-1.72279e-08
7.03695e-08
-9.9701e-10
8.33034e-09
-5.82023e-11
5.42945e-10
-4.37424e-12
4.01645e-11
-4.51079e-13
4.04804e-12
-4.75163e-14
5.45965e-13
-3.27254e-15
9.42524e-14
1.40675e-16
3.1166e-14
1.63795e-16
8.0745e-15
5.06591e-17
1.5766e-15
1.11369e-17
2.74003e-16
2.01604e-18
4.34991e-17
3.16282e-19
6.38378e-18
4.406e-20
8.6784e-19
5.51384e-21
1.09561e-19
6.23571e-22
1.28564e-20
6.38853e-23
1.40165e-21
5.92805e-24
1.41795e-22
4.96958e-25
1.32771e-23
3.74535e-26
1.14636e-24
2.51835e-27
9.07832e-26
1.49412e-28
6.54603e-27
7.6998e-30
4.25526e-28
3.37018e-31
2.46008e-29
1.21233e-32
1.24115e-30
3.4071e-34
5.31771e-32
6.874e-36
1.85663e-33
8.45922e-38
4.93523e-35
4.17301e-40
8.76228e-37
7.13795e-39
-1.36247e-09
-3.46167e-10
-3.59223e-09
-9.44204e-10
-7.90939e-09
-2.22035e-09
-3.49847e-08
0
-1.12729e-07
0
-2.13597e-07
0
-2.54551e-07
0
-2.35836e-07
3.74869e-08
-1.58205e-07
6.82099e-08
-5.24931e-08
6.87812e-08
-6.04783e-09
2.06216e-08
-3.9041e-10
2.4859e-09
-2.75187e-11
1.67492e-10
-2.47277e-12
1.21586e-11
-2.79143e-13
1.18635e-12
-3.14003e-14
1.55334e-13
-3.95352e-15
2.97595e-14
-5.16993e-16
8.91537e-15
-5.91414e-17
1.8571e-15
-4.73748e-18
3.42445e-16
-1.49498e-20
5.748e-17
9.10106e-20
8.82733e-18
2.29414e-20
1.27448e-18
3.96042e-21
1.70922e-19
5.60547e-22
2.13244e-20
6.86134e-23
2.47622e-21
7.42234e-24
2.68306e-22
7.16559e-25
2.70224e-23
6.18983e-26
2.52283e-24
4.7754e-27
2.17509e-25
3.27146e-28
1.72256e-26
1.97045e-29
1.24392e-27
1.02789e-30
8.10963e-29
4.54215e-32
4.70822e-30
1.6451e-33
2.38833e-31
4.63988e-35
1.02991e-32
9.35073e-37
3.62155e-34
1.13926e-38
9.69478e-36
5.41049e-41
1.72948e-37
1.38941e-39
-4.63709e-10
-7.48118e-11
-1.31215e-09
-2.1177e-10
-5.50636e-09
-4.68669e-10
-1.87564e-08
0
-4.36894e-08
0
-7.104e-08
0
-9.58151e-08
0
-9.08279e-08
6.5917e-09
-5.9044e-08
1.3832e-08
-1.71659e-08
1.50521e-08
-2.00642e-09
4.55356e-09
-1.33552e-10
5.60118e-10
-9.40275e-12
3.9183e-11
-8.34074e-13
2.93043e-12
-8.92436e-14
2.8585e-13
-1.02034e-14
3.65963e-14
-1.53513e-15
8.80947e-15
-2.37001e-16
2.04612e-15
-3.3797e-17
3.93257e-16
-4.31624e-18
7.008e-17
-4.84038e-19
1.14463e-17
-4.77292e-20
1.71482e-18
-3.89828e-21
2.4208e-19
-2.26773e-22
3.18077e-20
-1.80826e-24
3.89414e-21
1.96214e-24
4.44083e-22
3.66128e-25
4.78062e-23
4.554e-26
4.79558e-24
4.56657e-27
4.46608e-25
3.88455e-28
3.84693e-26
2.84744e-29
3.04858e-27
1.79942e-30
2.20647e-28
9.70941e-32
1.44396e-29
4.38737e-33
8.43207e-31
1.60809e-34
4.30817e-32
4.5386e-36
1.87278e-33
9.01642e-38
6.64135e-35
1.05447e-39
1.79213e-36
4.14773e-42
3.21592e-38
2.53807e-40
-1.02242e-10
-1.05867e-11
-2.78314e-10
-2.88278e-11
-1.44599e-09
-4.59976e-11
-4.27768e-09
0
-9.52673e-09
0
-1.59126e-08
0
-2.22025e-08
0
-2.13031e-08
1.01374e-09
-1.40728e-08
2.26256e-09
-3.96226e-09
2.68397e-09
-4.7085e-10
8.37041e-10
-3.25271e-11
1.08883e-10
-2.36673e-12
8.03342e-12
-2.12656e-13
6.1018e-13
-2.06905e-14
5.58225e-14
-2.72978e-15
7.94621e-15
-4.62886e-16
2.03307e-15
-7.41976e-17
4.10923e-16
-1.10754e-17
7.70719e-17
-1.50907e-18
1.34848e-17
-1.86601e-19
2.16659e-18
-2.13833e-20
3.19917e-19
-2.24726e-21
4.43758e-20
-2.15955e-22
5.7368e-21
-1.88799e-23
6.91965e-22
-1.51165e-24
7.78767e-23
-1.08714e-25
8.28648e-24
-6.90359e-27
8.23433e-25
-3.77279e-28
7.61233e-26
-1.68987e-29
6.52344e-27
-5.49495e-31
5.15519e-28
-6.84311e-33
3.72966e-29
6.06173e-34
2.44542e-30
5.29379e-35
1.43664e-31
2.25658e-36
7.40107e-33
5.42439e-38
3.24716e-34
3.97143e-40
1.16289e-35
-1.29772e-41
3.16777e-37
-1.4666e-43
5.73816e-39
4.48094e-41
-1.45741e-11
-1.0389e-12
-3.87387e-11
-2.52741e-12
-2.14397e-10
-9.7341e-13
-6.3754e-10
0
-1.46091e-09
0
-2.69387e-09
0
-3.8512e-09
0
-3.79023e-09
1.41058e-10
-2.60797e-09
3.14699e-10
-7.48149e-10
4.08448e-10
-9.43534e-11
1.33853e-10
-6.88199e-12
1.83781e-11
-5.07811e-13
1.43163e-12
-4.30407e-14
1.07263e-13
-4.00628e-15
9.22342e-15
-6.67618e-16
1.71504e-15
-1.17081e-16
3.7665e-16
-1.90532e-17
7.55816e-17
-2.89126e-18
1.40494e-17
-4.02248e-19
2.43416e-18
-5.11493e-20
3.872e-19
-6.07654e-21
5.6618e-20
-6.6946e-22
7.7779e-21
-6.84001e-23
9.96441e-22
-6.47719e-24
1.19203e-22
-5.74953e-25
1.33242e-23
-4.73864e-26
1.4064e-24
-3.613e-27
1.38855e-25
-2.54138e-28
1.27777e-26
-1.64272e-29
1.09213e-27
-9.70317e-31
8.626e-29
-5.19372e-32
6.25061e-30
-2.49356e-33
4.11363e-31
-1.05121e-34
2.43067e-32
-3.76752e-36
1.26195e-33
-1.09076e-37
5.59024e-35
-2.3368e-39
2.0245e-36
-3.16443e-41
5.58235e-38
-9.72456e-44
1.0231e-39
7.90039e-42
-1.44312e-12
-8.01237e-14
-4.88524e-12
-1.5157e-13
-2.32199e-11
0
-7.36529e-11
0
-1.86322e-10
0
-3.76111e-10
0
-5.59683e-10
0
-5.62508e-10
1.77674e-11
-4.07835e-10
3.84863e-11
-1.21637e-10
5.44915e-11
-1.62764e-11
1.89337e-11
-1.2546e-12
2.69995e-12
-9.10609e-14
2.17897e-13
-6.57742e-15
1.47466e-14
-8.09815e-16
1.42788e-15
-1.4559e-16
3.09013e-16
-2.58289e-17
6.40227e-17
-4.24903e-18
1.28862e-17
-6.51151e-19
2.392e-18
-9.15503e-20
4.12961e-19
-1.17878e-20
6.5381e-20
-1.42082e-21
9.51197e-21
-1.59288e-22
1.29959e-21
-1.66176e-23
1.65622e-22
-1.61319e-24
1.97181e-23
-1.47374e-25
2.19517e-24
-1.25561e-26
2.31012e-25
-9.93785e-28
2.27687e-26
-7.28217e-29
2.09449e-27
-4.91524e-30
1.79229e-28
-3.03324e-31
1.41954e-29
-1.69282e-32
1.03321e-30
-8.42958e-34
6.84153e-32
-3.65493e-35
4.07242e-33
-1.33219e-36
2.13326e-34
-3.87e-38
9.55024e-36
-8.19316e-40
3.50008e-37
-1.07291e-41
9.77639e-39
-2.82848e-44
1.81428e-40
1.37854e-42
-1.11701e-13
-3.53392e-15
-4.99101e-13
-4.44275e-15
-2.04795e-12
0
-7.11597e-12
0
-2.02949e-11
0
-4.55187e-11
0
-7.16048e-11
0
-7.29632e-11
1.62973e-12
-5.58617e-11
4.42854e-12
-1.72964e-11
6.54709e-12
-2.43161e-12
2.41635e-12
-1.93461e-13
3.38324e-13
-1.23863e-14
2.65271e-14
-9.50054e-16
1.77143e-15
-1.52001e-16
2.28327e-16
-2.8247e-17
4.74417e-17
-5.08437e-18
1.00983e-17
-8.45956e-19
2.04753e-18
-1.30841e-19
3.81632e-19
-1.85504e-20
6.59792e-20
-2.40901e-21
1.04446e-20
-2.9291e-22
1.51823e-21
-3.3156e-23
2.07099e-22
-3.49656e-24
2.63485e-23
-3.43653e-25
3.13211e-24
-3.18319e-26
3.48346e-25
-2.75454e-27
3.66467e-26
-2.21774e-28
3.61449e-27
-1.65521e-29
3.33113e-28
-1.13887e-30
2.85948e-29
-7.16623e-32
2.27509e-30
-4.07632e-33
1.66588e-31
-2.06639e-34
1.11138e-32
-9.10307e-36
6.67529e-34
-3.36212e-37
3.53325e-35
-9.86298e-39
1.60025e-36
-2.09878e-40
5.939e-38
-2.73327e-42
1.68091e-39
-6.5847e-45
3.16146e-41
2.35756e-43
-1.92002e-14
-1.38522e-16
-5.85966e-14
3.69551e-17
-1.81786e-13
1.21722e-16
-6.2331e-13
0
-1.98305e-12
0
-4.8498e-12
0
-7.99375e-12
0
-8.68158e-12
1.37458e-13
-6.83502e-12
4.72847e-13
-2.18783e-12
7.18235e-13
-3.06097e-13
2.77602e-13
-2.33445e-14
3.52521e-14
-1.34975e-15
2.54681e-15
-1.48627e-16
2.28154e-16
-2.60234e-17
3.2898e-17
-4.95201e-18
6.82677e-18
-9.06335e-19
1.48351e-18
-1.52802e-19
3.04322e-19
-2.38822e-20
5.72058e-20
-3.41628e-21
9.94621e-21
-4.47355e-22
1.58062e-21
-5.48165e-23
2.30434e-22
-6.25393e-24
3.1494e-23
-6.6499e-25
4.01334e-24
-6.59485e-26
4.77817e-25
-6.16853e-27
5.32418e-26
-5.39572e-28
5.61402e-27
-4.39561e-29
5.55438e-28
-3.32247e-30
5.13968e-29
-2.31693e-31
4.43465e-30
-1.4784e-32
3.55074e-31
-8.53013e-34
2.61977e-32
-4.38602e-35
1.76339e-33
-1.95907e-36
1.07e-34
-7.33074e-38
5.72857e-36
-2.17599e-39
2.62717e-37
-4.67381e-41
9.88153e-39
-6.09813e-43
2.83622e-40
-1.37067e-45
5.41096e-42
3.95103e-44
-1.92269e-15
-5.60861e-18
-6.45172e-15
1.9996e-17
-1.93938e-14
1.91958e-16
-6.00644e-14
6.10409e-16
-1.85458e-13
4.4555e-16
-4.75826e-13
0
-8.18008e-13
0
-9.39897e-13
1.15166e-14
-7.53066e-13
4.70465e-14
-2.43786e-13
7.27301e-14
-3.09977e-14
2.89816e-14
-2.10131e-15
3.34692e-15
-1.65166e-16
2.78957e-16
-2.21856e-17
2.88616e-17
-4.05608e-18
4.24303e-18
-7.92378e-19
9.17526e-19
-1.47788e-19
2.0373e-19
-2.53015e-20
4.24392e-20
-4.00378e-21
8.07561e-21
-5.78766e-22
1.41722e-21
-7.65139e-23
2.26899e-22
-9.45655e-24
3.32885e-23
-1.08789e-24
4.57326e-24
-1.16644e-25
5.85506e-25
-1.16687e-26
7.00178e-26
-1.10139e-27
7.8376e-27
-9.72866e-29
8.3039e-28
-8.00906e-30
8.2601e-29
-6.12219e-31
7.6904e-30
-4.32068e-32
6.68225e-31
-2.79193e-33
5.39349e-32
-1.63217e-34
4.0158e-33
-8.50615e-36
2.73089e-34
-3.85152e-37
1.67598e-35
-1.46081e-38
9.0849e-37
-4.39257e-40
4.22237e-38
-9.54241e-42
1.6107e-39
-1.25209e-43
4.69138e-41
-2.65698e-46
9.08484e-43
6.48259e-45
-1.4899e-16
-1.50653e-19
-5.94287e-16
2.60985e-18
-2.05965e-15
2.39197e-17
-6.14215e-15
1.242e-16
-1.77789e-14
4.3558e-16
-4.51143e-14
1.04966e-15
-8.10344e-14
1.24452e-15
-9.39842e-14
1.47856e-15
-7.50324e-14
5.14993e-15
-2.39557e-14
7.02412e-15
-2.77047e-15
2.9424e-15
-2.16603e-16
3.45708e-16
-2.14398e-17
3.16997e-17
-3.04708e-18
3.43767e-18
-5.80214e-19
5.24815e-19
-1.16574e-19
1.15357e-19
-2.22046e-20
2.62421e-20
-3.86876e-21
5.56841e-21
-6.21153e-22
1.07603e-21
-9.09193e-23
1.91216e-22
-1.21567e-23
3.09395e-23
-1.5179e-24
4.58187e-24
-1.76322e-25
6.34608e-25
-1.90847e-26
8.18565e-26
-1.92754e-27
9.85835e-27
-1.83713e-28
1.11133e-27
-1.63936e-29
1.18584e-28
-1.36415e-30
1.18849e-29
-1.05466e-31
1.11551e-30
-7.53287e-33
9.77844e-32
-4.92933e-34
7.96892e-33
-2.91994e-35
5.99624e-34
-1.54268e-36
4.12478e-35
-7.08357e-38
2.5631e-36
-2.72482e-39
1.40801e-37
-8.3073e-41
6.637e-39
-1.82765e-42
2.5694e-40
-2.41792e-44
7.59862e-42
-4.8799e-47
1.49437e-43
1.04025e-45
-1.07559e-17
4.09895e-21
-4.54116e-17
2.45781e-19
-1.75381e-16
2.01147e-18
-6.24332e-16
1.16744e-17
-1.96427e-15
5.43126e-17
-4.4569e-15
1.76885e-16
-7.20264e-15
3.76856e-16
-8.74935e-15
5.75646e-16
-7.03105e-15
7.07925e-16
-2.40971e-15
6.25888e-16
-2.79353e-16
2.71793e-16
-2.44075e-17
3.49371e-17
-2.60828e-18
3.32921e-18
-3.89077e-19
3.80713e-19
-7.67034e-20
6.09685e-20
-1.5858e-20
1.36117e-20
-3.09122e-21
3.18009e-21
-5.49312e-22
6.89223e-22
-8.96817e-23
1.35627e-22
-1.33205e-23
2.44746e-23
-1.80506e-24
4.01352e-24
-2.28132e-25
6.01611e-25
-2.68048e-26
8.42309e-26
-2.93341e-27
1.09742e-26
-2.99529e-28
1.33429e-27
-2.88608e-29
1.51824e-28
-2.60436e-30
1.63508e-29
-2.19237e-31
1.65438e-30
-1.71553e-32
1.56823e-31
-1.24084e-33
1.38914e-32
-8.22733e-35
1.14473e-33
-4.9408e-36
8.71631e-35
-2.64764e-37
6.07222e-36
-1.23355e-38
3.82427e-37
-4.81543e-40
2.13081e-38
-1.48961e-41
1.0194e-39
-3.32218e-43
4.00733e-41
-4.43983e-45
1.20388e-42
-8.55999e-48
2.40536e-44
1.63106e-46
-7.27461e-19
1.04844e-21
-3.2569e-18
1.96968e-20
-1.32745e-17
1.51753e-19
-5.03461e-17
8.66202e-19
-1.69761e-16
4.02482e-18
-4.3483e-16
1.46186e-17
-7.39786e-16
3.79003e-17
-8.54456e-16
7.04371e-17
-6.43399e-16
7.66796e-17
-2.2563e-16
5.05962e-17
-2.79e-17
2.32415e-17
-2.5944e-18
3.22452e-18
-2.94032e-19
3.24283e-19
-4.60408e-20
3.92874e-20
-9.40353e-21
6.59191e-21
-2.00409e-21
1.51237e-21
-4.00588e-22
3.63601e-22
-7.27555e-23
8.06781e-23
-1.21046e-23
1.6207e-23
-1.82839e-24
2.97741e-24
-2.51623e-25
4.96099e-25
-3.22534e-26
7.54563e-26
-3.84036e-27
1.07052e-26
-4.25649e-28
1.41206e-27
-4.40083e-29
1.73707e-28
-4.2928e-30
1.99925e-29
-3.92216e-31
2.17735e-30
-3.34377e-32
2.2281e-31
-2.65079e-33
2.13663e-32
-1.94329e-34
1.9154e-33
-1.30655e-35
1.59822e-34
-7.96011e-37
1.23294e-35
-4.32934e-38
8.7079e-37
-2.04788e-39
5.56346e-38
-8.1178e-41
3.14653e-39
-2.54953e-42
1.52876e-40
-5.76851e-44
6.10542e-42
-7.79847e-46
1.86396e-43
-1.44021e-48
3.78472e-45
2.49688e-47
-4.55492e-20
1.00485e-22
-2.15791e-19
1.3756e-21
-9.23442e-19
1.03399e-20
-3.61409e-18
5.89168e-20
-1.23946e-17
2.709e-19
-3.31019e-17
9.77393e-19
-6.1899e-17
2.58219e-18
-7.22552e-17
4.73253e-18
-5.31571e-17
5.80391e-18
-1.94994e-17
3.80511e-18
-2.58736e-18
1.85265e-18
-2.56478e-19
2.75495e-19
-3.07846e-20
2.95868e-20
-5.06261e-21
3.7904e-21
-1.07356e-21
6.67296e-22
-2.36265e-22
1.58715e-22
-4.8518e-23
3.93351e-23
-9.02453e-24
8.95414e-24
-1.53326e-24
1.84026e-24
-2.36013e-25
3.44953e-25
-3.30526e-26
5.85314e-26
-4.30527e-27
9.05348e-27
-5.2042e-28
1.30436e-27
-5.85183e-29
1.74551e-28
-6.13578e-30
2.17689e-29
-6.06784e-31
2.53901e-30
-5.62049e-32
2.80129e-31
-4.85838e-33
2.90395e-32
-3.90608e-34
2.82138e-33
-2.90504e-35
2.56322e-34
-1.98223e-36
2.1683e-35
-1.2261e-37
1.69661e-36
-6.7727e-39
1.21597e-37
-3.25458e-40
7.8876e-39
-1.31076e-41
4.53125e-40
-4.18175e-43
2.23703e-41
-9.60456e-45
9.08027e-43
-1.31483e-46
2.81807e-44
-2.32973e-49
5.816e-46
3.72937e-48
-2.59614e-21
7.02993e-24
-1.30454e-20
8.44528e-23
-5.84783e-20
6.3477e-22
-2.35488e-19
3.66138e-21
-8.25246e-19
1.70274e-20
-2.29984e-18
6.26375e-20
-4.50998e-18
1.70504e-19
-5.41582e-18
3.19379e-19
-4.05697e-18
4.00072e-19
-1.56821e-18
2.74266e-19
-2.23427e-19
1.38299e-19
-2.36263e-20
2.2108e-20
-3.00407e-21
2.53062e-21
-5.192e-22
3.43113e-22
-1.14582e-22
6.34617e-23
-2.60822e-23
1.57799e-23
-5.51243e-24
4.03761e-24
-1.05205e-24
9.44671e-25
-1.82886e-25
1.99013e-25
-2.87438e-26
3.81391e-26
-4.10407e-27
6.60344e-27
-5.44209e-28
1.04076e-27
-6.68999e-29
1.52566e-28
-7.64403e-30
2.07518e-29
-8.14045e-31
2.62845e-30
-8.1729e-32
3.11199e-31
-7.68466e-33
3.48382e-32
-6.743e-34
3.66398e-33
-5.50386e-35
3.61157e-34
-4.15659e-36
3.3293e-35
-2.88081e-37
2.85844e-36
-1.81046e-38
2.27079e-37
-1.01634e-39
1.65297e-38
-4.96443e-41
1.08941e-39
-2.03238e-42
6.3608e-41
-6.58944e-44
3.1924e-42
-1.53705e-45
1.3175e-43
-2.13228e-47
4.15753e-45
-3.62872e-50
8.7221e-47
5.432e-49
-1.32506e-22
3.99435e-25
-7.11213e-22
4.55693e-24
-3.36242e-21
3.50716e-23
-1.40101e-20
2.08226e-22
-5.04984e-20
9.91653e-22
-1.47159e-19
3.75552e-21
-3.04787e-19
1.06512e-20
-3.78316e-19
2.07384e-20
-2.90129e-19
2.65145e-20
-1.17984e-19
1.87541e-20
-1.80408e-20
9.70681e-21
-2.03528e-21
1.66888e-21