/*--------------------------------*- C++ -*----------------------------------*\
  =========                 |
  \\      /  F ield         | OpenFOAM: The Open Source CFD Toolbox
   \\    /   O peration     | Website:  https://openfoam.org
    \\  /    A nd           | Version:  9
     \\/     M anipulation  |
\*---------------------------------------------------------------------------*/
FoamFile
{
    format      ascii;
    class       volScalarField;
    location    "0.35";
    object      k;
}
// * * * * * * * * * * * * * * * * * * * * * * * * * * * * * * * * * * * * * //

dimensions      [0 2 -2 0 0 0 0];

internalField   nonuniform List<scalar> 
1935
(
0.479121
0.486221
0.492751
0.496785
0.496822
0.491754
0.481585
0.467418
0.449802
0.430547
0.41139
0.392864
0.373998
0.353088
0.328977
0.301959
0.273663
0.246134
0.22096
0.198932
0.180168
0.164403
0.151237
0.140268
0.131146
0.123577
0.117312
0.112135
0.107857
0.104315
0.101377
0.0989348
0.0969045
0.0952247
0.0938528
0.0927646
0.0919556
0.0914457
0.0912901
0.0915984
0.09258
0.0946248
0.0981399
0.508002
0.532382
0.548481
0.553196
0.523464
0.556041
0.57831
0.585967
0.539032
0.580923
0.610751
0.623525
0.55194
0.604277
0.644457
0.665711
0.559788
0.623189
0.675681
0.707927
0.559471
0.632401
0.696964
0.741495
0.549035
0.627247
0.70239
0.761225
0.530814
0.608116
0.689847
0.761799
0.505744
0.57715
0.660005
0.738537
0.476928
0.537388
0.613916
0.696667
0.448469
0.495262
0.557057
0.632899
0.423191
0.457887
0.501992
0.559055
0.400892
0.428163
0.45869
0.495655
0.378867
0.403382
0.427557
0.452405
0.354081
0.378077
0.401039
0.422589
0.325394
0.348476
0.371193
0.392853
0.294144
0.314823
0.33581
0.356537
0.26292
0.280075
0.297785
0.31566
0.234024
0.247383
0.26123
0.275303
0.208728
0.218668
0.228914
0.239289
0.187329
0.194503
0.201812
0.209136
0.169542
0.174609
0.179695
0.184719
0.154857
0.158366
0.16183
0.165196
0.142759
0.145127
0.147422
0.149611
0.132799
0.134336
0.13579
0.137144
0.124614
0.125545
0.126395
0.127157
0.117901
0.118395
0.118815
0.119158
0.112403
0.112589
0.112706
0.112757
0.107901
0.107874
0.107784
0.107637
0.104207
0.104037
0.10381
0.103534
0.101166
0.100902
0.100587
0.100229
0.0986547
0.0983293
0.097958
0.0975492
0.0965756
0.0962085
0.0958009
0.0953605
0.0948564
0.0944573
0.0940229
0.0935605
0.0934454
0.0930151
0.0925551
0.0920721
0.0923093
0.09184
0.0913476
0.0908376
0.0914334
0.0909074
0.0903661
0.0898143
0.0908246
0.0902113
0.0895917
0.0889713
0.0905197
0.0897687
0.0890219
0.0882884
0.0906027
0.0896302
0.0886738
0.0877551
0.09125
0.0898995
0.0885865
0.0873672
0.0928498
0.0907345
0.0887834
0.0871014
0.0962301
0.0920576
0.0890681
0.0868546
0.544137
0.521286
0.492249
0.462589
0.433239
0.404538
0.377506
0.35346
0.333756
0.319766
0.312182
0.310598
0.313614
0.319171
0.324571
0.3264
0.320132
0.303198
0.278019
0.249594
0.222114
0.197828
0.177376
0.160473
0.146476
0.134715
0.12463
0.1158
0.107918
0.100765
0.094177
0.0880177
0.0821611
0.0764702
0.0707768
0.0648526
0.0583516
0.0506508
0.0401786
0.0222667
0.574413
0.542838
0.504493
0.468141
0.433489
0.401013
0.372309
0.347859
0.328629
0.31554
0.308777
0.307543
0.310278
0.314861
0.318721
0.318764
0.311085
0.293786
0.269387
0.242422
0.216515
0.193569
0.17411
0.157881
0.144319
0.132834
0.12293
0.114228
0.106449
0.099391
0.0928969
0.0868362
0.081084
0.0755027
0.0699227
0.0641146
0.0577328
0.0501582
0.0398363
0.0222593
0.611018
0.569315
0.520667
0.476718
0.436524
0.400665
0.369921
0.344662
0.325519
0.312892
0.306489
0.305217
0.307424
0.310936
0.313292
0.311637
0.30261
0.284903
0.261149
0.235441
0.210911
0.189159
0.170608
0.155014
0.141877
0.130675
0.120967
0.112411
0.104757
0.0978134
0.0914345
0.0854931
0.0798651
0.074412
0.0689625
0.0632861
0.0570378
0.0496029
0.0394458
0.0222233
0.655085
0.602541
0.542749
0.490375
0.444341
0.404674
0.371442
0.344888
0.325275
0.312524
0.30594
0.304227
0.305636
0.307905
0.308577
0.305157
0.294715
0.276503
0.253247
0.228618
0.205296
0.184613
0.166892
0.151895
0.139171
0.128257
0.118758
0.110369
0.102859
0.0960532
0.0898111
0.0840096
0.0785252
0.0732178
0.0679144
0.0623831
0.0562801
0.0489955
0.0390139
0.0221596
0.705623
0.644331
0.572789
0.511206
0.458528
0.41419
0.37785
0.349374
0.328614
0.315097
0.307846
0.305344
0.305569
0.306099
0.304773
0.299393
0.287347
0.26852
0.245636
0.221926
0.199661
0.179934
0.162972
0.148538
0.136219
0.1256
0.116327
0.108124
0.100781
0.0941342
0.088051
0.0824103
0.0770881
0.0719426
0.0667987
0.0614234
0.0554743
0.0483473
0.0385483
0.0220702
0.754959
0.694037
0.611143
0.539887
0.479733
0.429918
0.389766
0.358696
0.336169
0.321398
0.313115
0.309447
0.307779
0.305785
0.302106
0.294462
0.280605
0.261017
0.238333
0.215363
0.194004
0.175125
0.158859
0.144958
0.133039
0.122724
0.113694
0.105699
0.0985466
0.0920834
0.0861817
0.0807222
0.0755798
0.0706106
0.065637
0.0604256
0.0546359
0.0476701
0.0380569
0.0219577
0.801921
0.752698
0.657862
0.576158
0.507805
0.451875
0.407285
0.373051
0.34829
0.331989
0.32241
0.316977
0.312505
0.307421
0.300974
0.290636
0.27468
0.254081
0.231357
0.208923
0.18832
0.170188
0.154562
0.141171
0.12965
0.119651
0.110885
0.103123
0.0961863
0.089931
0.0842335
0.0789747
0.074028
0.0692467
0.0644514
0.0594085
0.0537802
0.0469758
0.0375482
0.021825
0.823418
0.814823
0.712323
0.618827
0.541799
0.479413
0.429995
0.392157
0.364797
0.346942
0.336208
0.328114
0.31991
0.31139
0.301658
0.288067
0.2696
0.247671
0.224652
0.202564
0.182583
0.165117
0.150087
0.137191
0.126073
0.116408
0.10793
0.100427
0.0937322
0.08771
0.0822388
0.0771989
0.0724612
0.0678765
0.063264
0.0583906
0.0529223
0.0462763
0.0370302
0.0216748
0.807645
0.847855
0.770606
0.665571
0.580128
0.511451
0.457162
0.415489
0.385236
0.365709
0.35456
0.343226
0.330023
0.317697
0.30401
0.286506
0.265093
0.241558
0.218059
0.196189
0.176746
0.159895
0.145437
0.133033
0.122331
0.113023
0.10486
0.0976445
0.0912204
0.0854564
0.0802321
0.0754266
0.0709081
0.0665251
0.0620962
0.0573899
0.0520766
0.0455827
0.0365107
0.0215098
0.770827
0.821296
0.807898
0.714671
0.621639
0.547034
0.488066
0.442477
0.408906
0.387594
0.377502
0.361721
0.342577
0.325904
0.307371
0.28531
0.260647
0.235387
0.211358
0.189676
0.170748
0.154498
0.140613
0.128716
0.118454
0.109531
0.101713
0.0948159
0.0886902
0.0832078
0.0782487
0.0736898
0.0693967
0.0652164
0.0609679
0.0564225
0.0512564
0.0449051
0.0359968
0.0213324
0.712542
0.775028
0.799899
0.756297
0.665616
0.585641
0.522329
0.472999
0.435244
0.410263
0.400026
0.381814
0.35763
0.335536
0.310926
0.283721
0.255698
0.228789
0.204327
0.182903
0.164532
0.148912
0.135626
0.124265
0.114474
0.10597
0.0985319
0.0919838
0.086183
0.0810032
0.0763236
0.0720189
0.0679527
0.0639718
0.0598967
0.0555029
0.0504729
0.0442523
0.0354944
0.0211446
0.62983
0.702908
0.751813
0.756362
0.704606
0.627144
0.56005
0.50809
0.4653
0.432465
0.416226
0.39875
0.374242
0.34561
0.313644
0.280935
0.24971
0.221436
0.196781
0.175778
0.158064
0.143138
0.1305
0.119716
0.110437
0.102389
0.0953639
0.0891943
0.0837417
0.0788811
0.0744901
0.0704418
0.0665991
0.0628097
0.0588973
0.0546427
0.0497355
0.0436315
0.0350088
0.0209482
0.543377
0.603104
0.65915
0.692422
0.692337
0.653125
0.591912
0.540653
0.495623
0.454686
0.431033
0.412899
0.388586
0.352769
0.313487
0.27588
0.242167
0.213078
0.188593
0.168257
0.151347
0.137203
0.125277
0.115121
0.106396
0.098842
0.0922613
0.0864954
0.0814091
0.0768776
0.0727779
0.0689823
0.0653543
0.0617443
0.0579808
0.0538508
0.0490514
0.0430485
0.0345441
0.020745
0.480563
0.515372
0.554011
0.589834
0.610033
0.607059
0.578987
0.539543
0.50062
0.465522
0.44278
0.425295
0.394958
0.351836
0.307223
0.266772
0.232159
0.20337
0.179739
0.160393
0.144452
0.131173
0.120025
0.110549
0.102418
0.0953894
0.089279
0.083935
0.0792251
0.0750253
0.0712122
0.067659
0.064232
0.0607859
0.0571549
0.053133
0.0484251
0.0425071
0.0341034
0.0205361
0.443392
0.464431
0.485261
0.505826
0.522813
0.530184
0.524147
0.506452
0.483649
0.462496
0.446433
0.424158
0.385875
0.338671
0.292768
0.252655
0.219267
0.192065
0.170028
0.152106
0.137383
0.125138
0.114841
0.106088
0.0985815
0.0920967
0.0864722
0.0815585
0.0772256
0.0733506
0.0698117
0.066485
0.0632408
0.0599399
0.0564233
0.0524922
0.0478592
0.0420095
0.0336885
0.0203221
0.413471
0.432724
0.449098
0.462685
0.473704
0.480407
0.48103
0.475051
0.463866
0.449709
0.431082
0.401161
0.359336
0.313506
0.270773
0.234117
0.203925
0.179457
0.159658
0.143523
0.130224
0.119125
0.109761
0.101783
0.0949369
0.0890252
0.0838941
0.0794074
0.0754405
0.0718738
0.0685892
0.0654672
0.062384
0.0592078
0.0557867
0.0519289
0.0473541
0.0415552
0.0332946
0.0201109
0.377019
0.396736
0.413654
0.427185
0.437404
0.443569
0.444917
0.440894
0.431274
0.415663
0.392501
0.359986
0.320816
0.280778
0.244256
0.213052
0.187265
0.166219
0.149034
0.134894
0.123137
0.113254
0.104869
0.0976992
0.0915324
0.0862001
0.0815624
0.0774938
0.0738768
0.0705977
0.0675441
0.0646035
0.0616595
0.0585875
0.055243
0.0514413
0.0469091
0.0411468
0.0329315
0.0199163
0.333796
0.351722
0.367472
0.380365
0.390023
0.395572
0.396292
0.391558
0.380912
0.363982
0.340445
0.310939
0.278255
0.246027
0.216815
0.191671
0.170604
0.153129
0.138625
0.126513
0.116315
0.107659
0.100261
0.0939031
0.0884147
0.0836532
0.0794946
0.0758243
0.0725335
0.069516
0.0666678
0.0638842
0.0610574
0.0580702
0.0547855
0.0510251
0.0465219
0.0407832
0.0326008
0.0197332
0.289731
0.304102
0.31675
0.327364
0.335034
0.338997
0.338598
0.333326
0.322896
0.307322
0.287051
0.263283
0.238072
0.21357
0.191241
0.17171
0.155003
0.140839
0.128842
0.118646
0.109937
0.102462
0.096022
0.0904532
0.0856203
0.0814048
0.0776977
0.0743963
0.0714014
0.0686166
0.0659469
0.0632965
0.0605662
0.0576461
0.054406
0.0506739
0.0461881
0.0404623
0.0323032
0.0195585
0.249916
0.260454
0.269692
0.277254
0.282386
0.284493
0.283101
0.277894
0.268791
0.256022
0.24019
0.222323
0.203744
0.185697
0.169029
0.15414
0.141093
0.129767
0.119966
0.111486
0.104138
0.0977604
0.0922174
0.0873895
0.0831703
0.0794608
0.0761669
0.0731978
0.070465
0.0678824
0.0653647
0.0628252
0.0601725
0.057304
0.0540957
0.0503808
0.0459029
0.0401816
0.0320378
0.01939
0.21657
0.223824
0.230114
0.234981
0.23792
0.238543
0.236562
0.23183
0.224389
0.214504
0.20268
0.189627
0.176147
0.162961
0.150574
0.139261
0.12911
0.120098
0.112143
0.105146
0.0990011
0.093611
0.0888831
0.08473
0.0810675
0.0778134
0.074887
0.0722094
0.0697035
0.0672933
0.0649028
0.0624539
0.0598625
0.0570325
0.0538451
0.0501386
0.0456611
0.0399376
0.0318027
0.0192264
0.189752
0.194555
0.198597
0.20147
0.202859
0.202532
0.200339
0.196237
0.190311
0.182788
0.174026
0.164479
0.154628
0.144899
0.135608
0.126952
0.119024
0.11185
0.105411
0.0996651
0.0945595
0.0900343
0.0860263
0.0824699
0.0792978
0.0764419
0.0738341
0.0714067
0.0690933
0.0668275
0.064542
0.0621661
0.0596223
0.05682
0.0536451
0.0499402
0.0454575
0.0397269
0.0315954
0.019067
0.168515
0.171605
0.174057
0.175589
0.176
0.175157
0.172991
0.16951
0.1648
0.159034
0.152454
0.145345
0.138001
0.130687
0.123607
0.116907
0.110671
0.104943
0.0997328
0.0950278
0.0908015
0.0870165
0.0836279
0.0805849
0.0778334
0.0753172
0.0729793
0.0707626
0.0686099
0.0664636
0.0642637
0.0619462
0.0594388
0.0566556
0.0534868
0.0497787
0.0452869
0.039546
0.0314137
0.0189117
0.151724
0.153632
0.155017
0.155688
0.15552
0.154438
0.152415
0.149475
0.145695
0.141198
0.136148
0.130728
0.125127
0.119514
0.114031
0.108782
0.103841
0.0992506
0.0950295
0.0911782
0.0876827
0.0845174
0.0816487
0.0790366
0.0766374
0.0744049
0.0722917
0.0702497
0.0682297
0.0661813
0.0640509
0.0617796
0.0592998
0.0565295
0.0533624
0.0496477
0.0451446
0.0393914
0.0312553
0.0187608
0.138413
0.139505
0.140178
0.140305
0.139806
0.138638
0.136796
0.134306
0.131229
0.127654
0.123694
0.119471
0.115109
0.110726
0.106418
0.102264
0.0983208
0.0946249
0.0911952
0.0880351
0.0851358
0.0824786
0.0800369
0.0777789
0.0756692
0.0736698
0.0717411
0.0698423
0.0679311
0.0659627
0.0638885
0.0616539
0.059195
0.0564331
0.0532646
0.0495417
0.0450263
0.0392603
0.0311185
0.0186147
0.127839
0.12836
0.128556
0.128338
0.127654
0.12648
0.124818
0.122694
0.120154
0.117263
0.114099
0.110748
0.107296
0.103822
0.100398
0.0970787
0.0939081
0.0909139
0.088111
0.0855024
0.0830814
0.0808328
0.0787356
0.0767638
0.0748885
0.0730782
0.0712997
0.0695178
0.0676954
0.0657922
0.0637635
0.0615583
0.0591155
0.0563589
0.0531876
0.0494559
0.0449283
0.0391499
0.0310016
0.0184741
0.119428
0.119555
0.119431
0.118996
0.118213
0.117071
0.115575
0.113746
0.111621
0.109247
0.106681
0.103981
0.101209
0.0984211
0.0956673
0.0929883
0.0904146
0.0879666
0.0856545
0.0834799
0.0814366
0.0795121
0.0776888
0.0759456
0.0742584
0.0726006
0.0709436
0.0692569
0.067507
0.0656572
0.0636658
0.0614843
0.059054
0.0563011
0.0531263
0.0493863
0.0448476
0.0390581
0.0309032
0.0183398
0.112742
0.1126
0.112266
0.111696
0.110868
0.109776
0.108427
0.106838
0.105037
0.10306
0.100947
0.0987398
0.0964827
0.0942151
0.0919721
0.0897824
0.0876673
0.0856405
0.0837087
0.0818716
0.0801233
0.078453
0.0768459
0.0752841
0.073747
0.0722117
0.0706533
0.069044
0.0673536
0.0655478
0.0635871
0.0614252
0.0590052
0.0562549
0.0530771
0.0493299
0.0447816
0.038983
0.030822
0.0182125
0.107429
0.107109
0.10664
0.105993
0.105154
0.10412
0.102898
0.101504
0.099958
0.098287
0.0965201
0.0946883
0.0928218
0.0909489
0.089094
0.0872767
0.0855117
0.0838077
0.0821682
0.0805917
0.0790725
0.0776008
0.0761636
0.0747454
0.0733282
0.0718915
0.0704129
0.0688671
0.0672257
0.0654563
0.0635214
0.0613761
0.0589649
0.0562172
0.053037
0.0492842
0.0447286
0.0389229
0.0307568
0.0180927
0.103199
0.102764
0.102215
0.10153
0.100701
0.0997267
0.0986154
0.0973791
0.0960344
0.0946007
0.0930997
0.0915536
0.0899839
0.0884102
0.0868495
0.0853151
0.0838165
0.0823589
0.0809437
0.0795683
0.0782267
0.0769101
0.0756067
0.0743025
0.0729811
0.0716242
0.0702106
0.0687169
0.0671162
0.0653775
0.0634645
0.0613335
0.0589304
0.0561855
0.0530042
0.0492476
0.0446869
0.0388766
0.0307067
0.017981
0.099814
0.0993113
0.0987184
0.0980208
0.0972135
0.0962983
0.0952818
0.0941743
0.0929887
0.0917399
0.0904436
0.089116
0.0877722
0.086426
0.0850889
0.0837698
0.0824745
0.0812056
0.0799629
0.078743
0.0775399
0.076345
0.0751474
0.0739341
0.07269
0.0713977
0.0700375
0.068587
0.0670204
0.0653077
0.0634137
0.0612955
0.0589
0.0561585
0.0529775
0.0492191
0.0446557
0.0388432
0.0306709
0.0178779
0.0970863
0.0965448
0.095932
0.0952375
0.0944589
0.0935988
0.0926635
0.0916614
0.0906028
0.0894989
0.0883616
0.0872024
0.0860321
0.0848602
0.0836944
0.0825404
0.0814013
0.0802782
0.0791693
0.0780707
0.0769763
0.0758776
0.0747644
0.0736242
0.0724426
0.0712032
0.0698871
0.0684727
0.0669349
0.0652446
0.0633672
0.0612608
0.0588728
0.0561356
0.0529563
0.0491981
0.0446344
0.0388219
0.0306484
0.0177838
0.0948689
0.0943068
0.0936876
0.0930045
0.0922564
0.0914465
0.0905804
0.0896651
0.0887089
0.0877202
0.0867079
0.0856803
0.084645
0.0836084
0.0825755
0.0815498
0.0805325
0.0795232
0.0785194
0.0775166
0.0765085
0.0754868
0.0744414
0.0733605
0.0722301
0.0710344
0.069755
0.0683709
0.0668578
0.065187
0.0633245
0.061229
0.0588488
0.0561167
0.0529406
0.0491843
0.0446224
0.0388121
0.0306387
0.017699
0.0930499
0.092476
0.0918569
0.0911879
0.090469
0.0897035
0.0888962
0.0880531
0.0871804
0.0862848
0.0853726
0.0844497
0.0835214
0.0825918
0.0816641
0.0807398
0.079819
0.0789002
0.0779802
0.0770541
0.0761155
0.0751561
0.0741661
0.0731338
0.0720457
0.0708864
0.0696379
0.0682797
0.0667878
0.0651342
0.0632854
0.0612004
0.0588281
0.0561019
0.0529303
0.0491778
0.0446196
0.0388133
0.030641
0.0176237
0.0915443
0.0909603
0.0903417
0.0896855
0.0889922
0.0882649
0.0875077
0.0867251
0.085922
0.0851031
0.0842728
0.0834353
0.0825938
0.081751
0.0809083
0.080066
0.0792233
0.0783779
0.0775261
0.0766627
0.0757811
0.074873
0.0739287
0.0729369
0.0718843
0.0707556
0.0695335
0.0681976
0.0667244
0.0650863
0.06325
0.0611752
0.0588111
0.0560916
0.0529258
0.0491786
0.0446257
0.038825
0.0306547
0.017558
0.0902872
0.0896882
0.0890655
0.0884174
0.0877446
0.0870494
0.0863348
0.085604
0.0848601
0.0841062
0.0833451
0.0825792
0.0818104
0.0810398
0.0802678
0.0794938
0.0787161
0.0779318
0.0771369
0.0763258
0.0754919
0.0746269
0.0737213
0.0727639
0.0717415
0.0706392
0.0694399
0.0681237
0.0666672
0.0650431
0.0632187
0.0611539
0.0587983
0.0560862
0.0529272
0.0491866
0.0446404
0.0388466
0.0306789
0.017502
0.0892275
0.0886017
0.0879657
0.0873183
0.0866596
0.0859907
0.0853128
0.0846273
0.0839355
0.0832388
0.0825382
0.0818347
0.0811289
0.0804208
0.0797098
0.0789945
0.0782727
0.0775409
0.0767948
0.0760289
0.0752362
0.0744086
0.0735366
0.0726091
0.0716132
0.0705343
0.0693554
0.0680567
0.0666155
0.0650046
0.0631915
0.0611366
0.0587898
0.0560858
0.0529344
0.0492014
0.044663
0.0388771
0.0307125
0.0174554
0.088324
0.0876514
0.0869875
0.0863306
0.085679
0.0850313
0.0843859
0.0837418
0.0830979
0.0824536
0.0818083
0.0811616
0.0805128
0.0798611
0.0792049
0.0785423
0.0778705
0.0771858
0.0764835
0.075758
0.0750023
0.0742084
0.0733668
0.0724665
0.0714948
0.0704373
0.0692772
0.0679951
0.0665683
0.0649699
0.063168
0.061123
0.0587853
0.0560898
0.0529468
0.0492222
0.0446926
0.0389153
0.0307541
0.0174177
0.0875416
0.086792
0.0860803
0.0854017
0.0847503
0.08412
0.0835049
0.0829004
0.0823027
0.0817089
0.0811165
0.0805238
0.0799291
0.0793304
0.0787257
0.0781125
0.0774876
0.076847
0.0761858
0.0754983
0.0747776
0.0740156
0.0732028
0.0723285
0.0713801
0.0703434
0.0692016
0.0679357
0.0665232
0.0649376
0.0631469
0.0611121
0.0587838
0.0560973
0.0529631
0.0492475
0.0447272
0.0389589
0.0308012
0.0173879
0.0868495
0.0859822
0.0851988
0.0844864
0.0838298
0.083215
0.08263
0.0820655
0.0815141
0.0809704
0.0804304
0.0798907
0.0793487
0.0788018
0.0782472
0.0776821
0.0771028
0.0765052
0.0758843
0.0752343
0.0745481
0.0738177
0.0730339
0.0721858
0.0712611
0.0702456
0.0691229
0.067874
0.0664766
0.0649044
0.0631257
0.0611017
0.0587834
0.0561063
0.0529812
0.0492748
0.0447639
0.0390047
0.0308505
0.0173643
0.0862218
0.0851907
0.0843147
0.0835609
0.0828978
0.0822996
0.081746
0.0812221
0.0807171
0.0802232
0.0797345
0.0792466
0.0787561
0.0782596
0.077754
0.0772359
0.0767016
0.0761466
0.0755658
0.0749533
0.074302
0.0736039
0.0728498
0.072029
0.0711292
0.0701363
0.0690341
0.0678037
0.0664229
0.0648656
0.0631003
0.0610883
0.0587808
0.0561136
0.0529978
0.0493004
0.0447983
0.0390476
0.0308966
0.0173435
0.0856377
0.0844183
0.0834493
0.0826606
0.081997
0.0814185
0.0808966
0.0804115
0.0799494
0.0795006
0.0790583
0.0786172
0.0781731
0.0777224
0.0772614
0.0767867
0.0762939
0.0757787
0.0752357
0.0746588
0.074041
0.0733743
0.0726495
0.0718558
0.0709811
0.0700114
0.0689306
0.0677198
0.066357
0.0648161
0.0630658
0.0610674
0.0587721
0.0561158
0.0530098
0.049321
0.0448264
0.0390815
0.0309298
0.0173231
0.0851191
0.0837781
0.0827645
0.081968
0.0813148
0.0807559
0.0802585
0.0798008
0.0793678
0.0789492
0.0785377
0.0781277
0.0777149
0.0772953
0.0768651
0.0764204
0.075957
0.0754702
0.0749544
0.0744036
0.0738106
0.0731674
0.0724647
0.0716919
0.0708368
0.0698855
0.0688219
0.0676273
0.0662797
0.0647531
0.0630162
0.0610303
0.0587467
0.0561011
0.0530046
0.049324
0.0448356
0.0390938
0.0309388
0.0172811
)
;

boundaryField
{
    leftWall
    {
        type            kqRWallFunction;
        value           nonuniform List<scalar> 0();
    }
    rightWall
    {
        type            kqRWallFunction;
        value           nonuniform List<scalar> 
43
(
0.0222667
0.0222593
0.0222233
0.0221596
0.0220702
0.0219577
0.021825
0.0216748
0.0215098
0.0213324
0.0211446
0.0209482
0.020745
0.0205361
0.0203221
0.0201109
0.0199163
0.0197332
0.0195585
0.01939
0.0192264
0.019067
0.0189117
0.0187608
0.0186147
0.0184741
0.0183398
0.0182125
0.0180927
0.017981
0.0178779
0.0177838
0.017699
0.0176237
0.017558
0.017502
0.0174554
0.0174177
0.0173879
0.0173643
0.0173435
0.0173231
0.0172811
)
;
    }
    lowerWall
    {
        type            kqRWallFunction;
        value           nonuniform List<scalar> 0();
    }
    atmosphere
    {
        type            inletOutlet;
        inletValue      uniform 0.1;
        value           nonuniform List<scalar> 
45
(
0.1
0.1
0.0920576
0.0890681
0.0868546
0.0851191
0.0837781
0.0827645
0.081968
0.0813148
0.0807559
0.0802585
0.0798008
0.0793678
0.0789492
0.0785377
0.0781277
0.0777149
0.0772953
0.0768651
0.0764204
0.075957
0.0754702
0.0749544
0.0744036
0.0738106
0.0731674
0.0724647
0.0716919
0.0708368
0.0698855
0.0688219
0.0676273
0.0662797
0.0647531
0.0630162
0.0610303
0.0587467
0.0561011
0.0530046
0.049324
0.0448356
0.0390938
0.0309388
0.0172811
)
;
    }
    defaultFaces
    {
        type            empty;
    }
    procBoundary3to1
    {
        type            processor;
        value           nonuniform List<scalar> 
45
(
0.4733
0.49505
0.512648
0.523737
0.526488
0.519674
0.503517
0.482227
0.458834
0.434863
0.410247
0.384589
0.360434
0.339971
0.32483
0.316137
0.313909
0.317003
0.323432
0.330471
0.334303
0.329615
0.313077
0.287008
0.256928
0.227674
0.201901
0.180372
0.162759
0.148323
0.136296
0.126049
0.11711
0.109146
0.10192
0.0952575
0.08902
0.083079
0.0772979
0.0715093
0.0654862
0.0588822
0.0510714
0.0404671
0.0222455
)
;
    }
    procBoundary3to2
    {
        type            processor;
        value           nonuniform List<scalar> 
43
(
0.449983
0.450487
0.450508
0.448981
0.445229
0.438963
0.430867
0.420583
0.408343
0.394786
0.3803
0.364642
0.347057
0.326832
0.303921
0.279192
0.254134
0.230242
0.208555
0.189534
0.173199
0.159321
0.147595
0.137715
0.129413
0.122457
0.116642
0.111789
0.10774
0.104358
0.10153
0.0991632
0.0971893
0.0955569
0.0942331
0.0932026
0.0924713
0.0920711
0.092071
0.0925922
0.0938292
0.0960344
0.0991089
)
;
    }
}


// ************************************************************************* //
