/*--------------------------------*- C++ -*----------------------------------*\
  =========                 |
  \\      /  F ield         | OpenFOAM: The Open Source CFD Toolbox
   \\    /   O peration     | Website:  https://openfoam.org
    \\  /    A nd           | Version:  9
     \\/     M anipulation  |
\*---------------------------------------------------------------------------*/
FoamFile
{
    format      ascii;
    class       surfaceScalarField;
    location    "0.35";
    object      phi;
}
// * * * * * * * * * * * * * * * * * * * * * * * * * * * * * * * * * * * * * //

dimensions      [0 3 -1 0 0 0 0];

internalField   nonuniform List<scalar> 
3782
(
-4.33089e-05
6.34066e-05
-4.94117e-05
5.41977e-05
-5.55488e-05
4.38875e-05
-6.15546e-05
3.22905e-05
-6.725e-05
1.95577e-05
-7.24042e-05
5.93785e-06
-7.66357e-05
-8.39006e-06
-7.9585e-05
-2.2943e-05
-8.09101e-05
-3.73037e-05
-8.02631e-05
-5.11159e-05
-7.74747e-05
-6.37555e-05
-7.2715e-05
-7.4423e-05
-6.64827e-05
-8.24651e-05
-5.94459e-05
-8.76343e-05
-5.22616e-05
-9.01194e-05
-4.54359e-05
-9.04341e-05
-3.92686e-05
-8.9215e-05
-3.38795e-05
-8.70295e-05
-2.92652e-05
-8.4295e-05
-2.53537e-05
-8.12731e-05
-2.20467e-05
-7.81019e-05
-1.9245e-05
-7.48409e-05
-1.68611e-05
-7.15106e-05
-1.48245e-05
-6.8118e-05
-1.30806e-05
-6.46723e-05
-1.1586e-05
-6.11899e-05
-1.03057e-05
-5.7693e-05
-9.20998e-06
-5.42032e-05
-8.27271e-06
-5.07372e-05
-7.47124e-06
-4.73057e-05
-6.7861e-06
-4.39141e-05
-6.20088e-06
-4.0564e-05
-5.70201e-06
-3.72541e-05
-5.27847e-06
-3.39821e-05
-4.92134e-06
-3.07459e-05
-4.62334e-06
-2.7544e-05
-4.37787e-06
-2.4377e-05
-4.17717e-06
-2.12468e-05
-4.00816e-06
-1.81559e-05
-3.84228e-06
-1.51015e-05
-3.61018e-06
-1.20584e-05
-3.14528e-06
-8.8959e-06
-4.67933e-06
6.82155e-05
-2.63121e-05
7.16565e-05
-8.87741e-06
7.36579e-05
1.02756e-05
3.03138e-05
7.39449e-05
5.92744e-05
-3.13888e-05
6.31191e-05
-1.2722e-05
6.56683e-05
7.72632e-06
2.93803e-05
6.66017e-05
4.93725e-05
-3.68739e-05
5.38606e-05
-1.72101e-05
5.71899e-05
4.39704e-06
2.73398e-05
5.92304e-05
3.80954e-05
-4.26788e-05
4.34148e-05
-2.25296e-05
4.79214e-05
-1.09545e-07
2.34862e-05
5.1775e-05
2.57296e-05
-4.88507e-05
3.22177e-05
-2.90176e-05
3.83088e-05
-6.20062e-06
1.73309e-05
4.44641e-05
1.2249e-05
-5.51619e-05
1.97931e-05
-3.65617e-05
2.74492e-05
-1.38567e-05
9.49342e-06
3.52866e-05
-2.47554e-06
-6.10765e-05
5.24802e-06
-4.42853e-05
1.38753e-05
-2.24839e-05
5.20707e-07
2.2848e-05
-1.78355e-05
-6.61839e-05
-1.03207e-05
-5.18001e-05
-1.02325e-06
-3.17813e-05
-8.60178e-06
8.09927e-06
-3.34893e-05
-6.99982e-05
-2.66944e-05
-5.85951e-05
-1.72128e-05
-4.12629e-05
-1.87038e-05
-7.11072e-06
-4.92657e-05
-7.18485e-05
-4.40575e-05
-6.38032e-05
-3.48639e-05
-5.04566e-05
-3.12731e-05
-2.22945e-05
-6.44565e-05
-7.11475e-05
-6.20926e-05
-6.6167e-05
-5.54649e-05
-5.70843e-05
-4.29412e-05
-4.37968e-05
-7.77784e-05
-6.77921e-05
-7.89824e-05
-6.49631e-05
-7.67531e-05
-5.93135e-05
-4.98488e-05
-6.98456e-05
-8.79821e-05
-6.22751e-05
-9.24197e-05
-6.05255e-05
-9.4767e-05
-5.69662e-05
-5.08421e-05
-9.37737e-05
-9.44713e-05
-5.54382e-05
-0.000101089
-5.39081e-05
-0.000106874
-5.11809e-05
-4.673e-05
-0.000110986
-9.73805e-05
-4.8177e-05
-0.000104907
-4.63814e-05
-0.000112386
-4.37026e-05
-3.97614e-05
-0.000119354
-9.74135e-05
-4.11976e-05
-0.000104809
-3.89855e-05
-0.000112448
-3.60636e-05
-3.21551e-05
-0.000120055
-9.5498e-05
-3.49146e-05
-0.000102158
-3.23257e-05
-0.000109073
-2.91481e-05
-2.51864e-05
-0.000116042
-9.24521e-05
-2.9492e-05
-9.81388e-05
-2.6639e-05
-0.00010399
-2.32973e-05
-1.93356e-05
-0.00010984
-8.88568e-05
-2.49302e-05
-9.35611e-05
-2.19347e-05
-9.8321e-05
-1.85374e-05
-1.46539e-05
-0.000103003
-8.50617e-05
-2.11415e-05
-8.889e-05
-1.81065e-05
-9.26824e-05
-1.4745e-05
-1.10044e-05
-9.63319e-05
-8.12381e-05
-1.80053e-05
-8.43381e-05
-1.50065e-05
-8.73383e-05
-1.17448e-05
-8.18901e-06
-9.01537e-05
-7.74449e-05
-1.54014e-05
-7.9963e-05
-1.24884e-05
-8.23429e-05
-9.36488e-06
-6.01438e-06
-8.45175e-05
-7.36852e-05
-1.32268e-05
-7.57459e-05
-1.04277e-05
-7.76498e-05
-7.46103e-06
-4.3199e-06
-7.93443e-05
-6.99449e-05
-1.14e-05
-7.16454e-05
-8.7272e-06
-7.3184e-05
-5.92246e-06
-2.98387e-06
-7.452e-05
-6.6214e-05
-9.85817e-06
-6.76267e-05
-7.31456e-06
-6.88811e-05
-4.66802e-06
-1.91904e-06
-6.9946e-05
-6.24945e-05
-8.55365e-06
-6.36726e-05
-6.1364e-06
-6.47014e-05
-3.63926e-06
-1.06422e-06
-6.55562e-05
-5.87975e-05
-7.44922e-06
-5.97815e-05
-5.15234e-06
-6.06273e-05
-2.79346e-06
-3.75937e-07
-6.13156e-05
-5.51378e-05
-6.51462e-06
-5.59598e-05
-4.33029e-06
-5.66554e-05
-2.09787e-06
1.78255e-07
-5.72096e-05
-5.15277e-05
-5.7241e-06
-5.22144e-05
-3.6436e-06
-5.27863e-05
-1.52597e-06
6.23958e-07
-5.3232e-05
-4.79744e-05
-5.05542e-06
-4.85482e-05
-3.06978e-06
-4.90185e-05
-1.05567e-06
9.82159e-07
-4.93767e-05
-4.448e-05
-4.4896e-06
-4.49597e-05
-2.59e-06
-4.53468e-05
-6.6857e-07
1.27014e-06
-4.56348e-05
-4.10426e-05
-4.01095e-06
-4.14438e-05
-2.18879e-06
-4.17627e-05
-3.49684e-07
1.50195e-06
-4.19945e-05
-3.76583e-05
-3.60671e-06
-3.79934e-05
-1.85366e-06
-3.82561e-05
-8.69969e-08
1.68874e-06
-3.84429e-05
-3.43221e-05
-3.26673e-06
-3.46011e-05
-1.57469e-06
-3.48169e-05
1.28872e-07
1.83926e-06
-3.49675e-05
-3.10296e-05
-2.98302e-06
-3.12601e-05
-1.34423e-06
-3.14364e-05
3.05219e-07
1.96031e-06
-3.15575e-05
-2.77777e-05
-2.74938e-06
-2.79654e-05
-1.15647e-06
-2.81079e-05
4.47688e-07
2.05738e-06
-2.8205e-05
-2.45654e-05
-2.56089e-06
-2.47149e-05
-1.007e-06
-2.48281e-05
5.60902e-07
2.13543e-06
-2.49062e-05
-2.13948e-05
-2.41291e-06
-2.15098e-05
-8.91926e-07
-2.15986e-05
6.49676e-07
2.20046e-06
-2.16636e-05
-1.82701e-05
-2.29872e-06
-1.8356e-05
-8.05995e-07
-1.84281e-05
7.2178e-07
2.26272e-06
-1.84904e-05
-1.51963e-05
-2.20388e-06
-1.52641e-05
-7.38175e-07
-1.53374e-05
7.95e-07
2.34404e-06
-1.54187e-05
-1.21676e-05
-2.09466e-06
-1.22448e-05
-6.60976e-07
-1.23666e-05
9.16834e-07
2.49535e-06
-1.25179e-05
-9.10649e-06
-1.88406e-06
-9.29075e-06
-4.76702e-07
-9.59944e-06
1.22554e-06
2.8308e-06
-9.93489e-06
-5.58982e-06
-6.53906e-06
-7.40355e-06
-8.06812e-06
7.18043e-05
5.72558e-05
6.77115e-05
7.76557e-05
6.37268e-05
8.92951e-05
6.09885e-05
9.23949e-05
5.99738e-05
9.09944e-05
5.88776e-05
9.30846e-05
5.86109e-05
9.39433e-05
5.85503e-05
9.46656e-05
5.84872e-05
9.60616e-05
5.86786e-05
9.80318e-05
5.92171e-05
0.000100164
5.9963e-05
0.000102223
6.02833e-05
0.000105007
6.02615e-05
0.000109065
6.03129e-05
0.000112084
5.98315e-05
0.00011121
5.87362e-05
0.00010502
5.6977e-05
9.57675e-05
5.4514e-05
8.661e-05
5.1528e-05
7.89729e-05
4.82892e-05
7.29684e-05
4.50055e-05
6.82443e-05
4.17904e-05
6.44431e-05
3.86911e-05
6.13267e-05
3.57201e-05
5.87575e-05
3.28746e-05
5.66557e-05
3.01455e-05
5.4968e-05
2.75216e-05
5.36536e-05
2.49912e-05
5.2678e-05
2.25427e-05
5.20112e-05
2.01644e-05
5.16275e-05
1.78447e-05
5.1504e-05
1.55718e-05
5.16199e-05
1.33337e-05
5.19556e-05
1.1118e-05
5.24912e-05
8.91205e-06
5.32044e-05
6.7033e-06
5.40663e-05
4.47961e-06
5.50276e-05
2.233e-06
5.59607e-05
5.58718e-05
6.48919e-05
5.89656e-05
6.10406e-05
8.15069e-05
5.81777e-05
9.2158e-05
5.69061e-05
9.36665e-05
5.50891e-05
9.28115e-05
5.44102e-05
9.37634e-05
5.44622e-05
9.38914e-05
5.45386e-05
9.45891e-05
5.47687e-05
9.58315e-05
5.53102e-05
9.74903e-05
5.6178e-05
9.92963e-05
5.69412e-05
0.00010146
5.70258e-05
0.000104923
5.69225e-05
0.000109168
5.64156e-05
0.000112591
5.56288e-05
0.000111997
5.46646e-05
0.000105984
5.31891e-05
9.72431e-05
5.10681e-05
8.87311e-05
4.84585e-05
8.15825e-05
4.55987e-05
7.58282e-05
4.26692e-05
7.11738e-05
3.9769e-05
6.73434e-05
3.69416e-05
6.41541e-05
3.4202e-05
6.14971e-05
3.15527e-05
5.9305e-05
2.89903e-05
5.75304e-05
2.6509e-05
5.61349e-05
2.41019e-05
5.50851e-05
2.17609e-05
5.43521e-05
1.9478e-05
5.39104e-05
1.72443e-05
5.37377e-05
1.50506e-05
5.38136e-05
1.28873e-05
5.4119e-05
1.07439e-05
5.46346e-05
8.60959e-06
5.53387e-05
6.47326e-06
5.62026e-05
4.32398e-06
5.71769e-05
2.15474e-06
5.813e-05
5.80266e-05
5.85285e-05
5.96676e-05
5.45341e-05
8.55013e-05
5.27402e-05
9.39519e-05
5.24082e-05
9.39986e-05
5.12286e-05
9.39911e-05
5.11444e-05
9.38476e-05
5.1208e-05
9.38277e-05
5.14486e-05
9.43486e-05
5.19401e-05
9.534e-05
5.2782e-05
9.66485e-05
5.37814e-05
9.82969e-05
5.41148e-05
0.000101127
5.3857e-05
0.000105181
5.30124e-05
0.000110013
5.19143e-05
0.000113689
5.11448e-05
0.000112766
5.04594e-05
0.000106669
4.92689e-05
9.84335e-05
4.74575e-05
9.05426e-05
4.5197e-05
8.3843e-05
4.26993e-05
7.83259e-05
4.0114e-05
7.37592e-05
3.75237e-05
6.99337e-05
3.49684e-05
6.67094e-05
3.24655e-05
6.4e-05
3.00217e-05
6.17488e-05
2.76384e-05
5.99137e-05
2.5314e-05
5.84593e-05
2.3045e-05
5.73541e-05
2.0827e-05
5.65701e-05
1.86547e-05
5.60827e-05
1.65222e-05
5.58702e-05
1.44229e-05
5.59129e-05
1.23493e-05
5.61926e-05
1.02932e-05
5.66907e-05
8.24554e-06
5.73863e-05
6.19683e-06
5.82514e-05
4.13749e-06
5.92362e-05
2.06084e-06
6.02067e-05
6.00874e-05
5.35953e-05
5.78473e-05
4.96039e-05
8.94927e-05
4.93212e-05
9.42347e-05
4.89952e-05
9.43246e-05
4.884e-05
9.41463e-05
4.89355e-05
9.37521e-05
4.90092e-05
9.3754e-05
4.92672e-05
9.40905e-05
4.99393e-05
9.46679e-05
5.09028e-05
9.5685e-05
5.1534e-05
9.76657e-05
5.13631e-05
0.000101297
5.0229e-05
0.000106315
4.83101e-05
0.000111932
4.69031e-05
0.000115096
4.64266e-05
0.000113243
4.60599e-05
0.000107036
4.51666e-05
9.93269e-05
4.36736e-05
9.20356e-05
4.17575e-05
8.57591e-05
3.96082e-05
8.04752e-05
3.73547e-05
7.60128e-05
3.50688e-05
7.22195e-05
3.27867e-05
6.89915e-05
3.05261e-05
6.62606e-05
2.8296e-05
6.39789e-05
2.61015e-05
6.21082e-05
2.3945e-05
6.06158e-05
2.1827e-05
5.94722e-05
1.97459e-05
5.86512e-05
1.76993e-05
5.81294e-05
1.56831e-05
5.78863e-05
1.3693e-05
5.7903e-05
1.17235e-05
5.81621e-05
9.7685e-06
5.86457e-05
7.82092e-06
5.93339e-05
5.87306e-06
6.01992e-05
3.91706e-06
6.11922e-05
1.94786e-06
6.21759e-05
6.20353e-05
5.01028e-05
5.22086e-05
4.75852e-05
9.20103e-05
4.75508e-05
9.4269e-05
4.75825e-05
9.42929e-05
4.77825e-05
9.39462e-05
4.78148e-05
9.37198e-05
4.79478e-05
9.3621e-05
4.80546e-05
9.39837e-05
4.83426e-05
9.438e-05
4.85491e-05
9.54784e-05
4.84364e-05
9.77784e-05
4.76971e-05
0.000102037
4.55384e-05
0.000108473
4.30502e-05
0.00011442
4.17818e-05
0.000116365
4.16708e-05
0.000113354
4.15872e-05
0.00010712
4.0952e-05
9.99621e-05
3.97509e-05
9.32367e-05
3.81595e-05
8.73505e-05
3.63432e-05
8.22916e-05
3.44104e-05
7.79456e-05
3.24222e-05
7.42077e-05
3.04111e-05
7.10027e-05
2.83949e-05
6.82768e-05
2.63849e-05
6.59889e-05
2.43887e-05
6.41045e-05
2.24115e-05
6.25929e-05
2.04567e-05
6.1427e-05
1.85255e-05
6.05824e-05
1.66176e-05
6.00374e-05
1.47315e-05
5.97725e-05
1.28645e-05
5.977e-05
1.10134e-05
6.00132e-05
9.17363e-06
6.04854e-05
7.34003e-06
6.11675e-05
5.50662e-06
6.20327e-05
3.66738e-06
6.30315e-05
1.81955e-06
6.40237e-05
6.38548e-05
4.56862e-05
4.18091e-05
4.63838e-05
9.13128e-05
4.67539e-05
9.3899e-05
4.7181e-05
9.38657e-05
4.74732e-05
9.36541e-05
4.76202e-05
9.35728e-05
4.75226e-05
9.37186e-05
4.75001e-05
9.40061e-05
4.71272e-05
9.47529e-05
4.67777e-05
9.5828e-05
4.59867e-05
9.85694e-05
4.37057e-05
0.000104318
4.04945e-05
0.000111684
3.80184e-05
0.000116896
3.71374e-05
0.000117246
3.71902e-05
0.000113301
3.71869e-05
0.000107123
3.66926e-05
0.000100456
3.57233e-05
9.4206e-05
3.44226e-05
8.86512e-05
3.29184e-05
8.37958e-05
3.12936e-05
7.95703e-05
2.95963e-05
7.5905e-05
2.78543e-05
7.27448e-05
2.60848e-05
7.00463e-05
2.43005e-05
6.77733e-05
2.25108e-05
6.58941e-05
2.07233e-05
6.43805e-05
1.89432e-05
6.32071e-05
1.7174e-05
6.23516e-05
1.54175e-05
6.17938e-05
1.36744e-05
6.15156e-05
1.1944e-05
6.15004e-05
1.02245e-05
6.17327e-05
8.5134e-06
6.21966e-05
6.80697e-06
6.28739e-05
5.10103e-06
6.37386e-05
3.39145e-06
6.47411e-05
1.67792e-06
6.57373e-05
6.55327e-05
3.48658e-05
2.97913e-05
4.47833e-05
8.13952e-05
4.6215e-05
9.24673e-05
4.69273e-05
9.31535e-05
4.73915e-05
9.31898e-05
4.76715e-05
9.32929e-05
4.77067e-05
9.36833e-05
4.72811e-05
9.44317e-05
4.65324e-05
9.55016e-05
4.54353e-05
9.69251e-05
4.37704e-05
0.000100234
4.0237e-05
0.000107851
3.62645e-05
0.000115657
3.37981e-05
0.000119362
3.29833e-05
0.00011806
3.29143e-05
0.00011337
3.28126e-05
0.000107225
3.23708e-05
0.000100898
3.15869e-05
9.49898e-05
3.05494e-05
8.96887e-05
2.93397e-05
8.50056e-05
2.80123e-05
8.08977e-05
2.6601e-05
7.73164e-05
2.51275e-05
7.42183e-05
2.36078e-05
7.15659e-05
2.20551e-05
6.93261e-05
2.048e-05
6.74692e-05
1.88915e-05
6.59689e-05
1.72968e-05
6.48019e-05
1.57012e-05
6.39473e-05
1.41083e-05
6.33866e-05
1.25206e-05
6.31033e-05
1.09392e-05
6.30818e-05
9.36402e-06
6.33079e-05
7.79393e-06
6.37667e-05
6.22694e-06
6.44409e-05
4.66052e-06
6.5305e-05
3.09251e-06
6.63091e-05
1.52501e-06
6.73048e-05
6.70577e-05
1.9906e-05
1.79846e-05
4.10024e-05
6.02988e-05
4.48281e-05
8.86415e-05
4.62445e-05
9.17371e-05
4.69777e-05
9.24566e-05
4.7417e-05
9.28537e-05
4.7611e-05
9.34893e-05
4.73993e-05
9.46434e-05
4.65083e-05
9.63927e-05
4.47321e-05
9.87014e-05
4.21196e-05
0.000102847
3.72702e-05
0.000112701
3.26176e-05
0.00012031
2.99135e-05
0.000122066
2.88502e-05
0.000119124
2.85201e-05
0.0001137
2.82874e-05
0.000107457
2.78939e-05
0.000101292
2.72948e-05
9.55889e-05
2.65181e-05
9.04654e-05
2.55999e-05
8.59238e-05
2.45681e-05
8.19296e-05
2.3443e-05
7.84415e-05
2.22408e-05
7.54205e-05
2.0976e-05
7.28308e-05
1.96615e-05
7.06406e-05
1.83092e-05
6.88216e-05
1.69292e-05
6.73489e-05
1.55302e-05
6.62009e-05
1.4119e-05
6.53585e-05
1.2701e-05
6.48046e-05
1.12803e-05
6.4524e-05
9.85953e-06
6.45026e-05
8.44007e-06
6.47273e-05
7.02235e-06
6.51844e-05
5.60591e-06
6.58574e-05
4.18993e-06
6.6721e-05
2.77421e-06
6.77248e-05
1.36311e-06
6.87158e-05
6.84209e-05
4.12146e-06
6.75249e-06
2.75183e-05
3.6902e-05
4.21806e-05
7.39792e-05
4.44666e-05
8.94511e-05
4.56393e-05
9.12839e-05
4.63233e-05
9.21697e-05
4.66686e-05
9.3144e-05
4.66914e-05
9.46206e-05
4.59706e-05
9.71135e-05
4.38049e-05
0.000100867
4.01901e-05
0.000106462
3.34506e-05
0.00011944
2.81465e-05
0.000125614
2.52747e-05
0.000124938
2.40658e-05
0.000120333
2.3621e-05
0.000114145
2.33951e-05
0.000107683
2.31443e-05
0.000101543
2.27848e-05
9.59483e-05
2.22986e-05
9.09517e-05
2.1688e-05
8.65344e-05
2.09614e-05
8.26561e-05
2.01299e-05
7.9273e-05
1.9206e-05
7.63444e-05
1.82031e-05
7.38337e-05
1.71348e-05
7.1709e-05
1.60137e-05
6.99426e-05
1.48514e-05
6.85113e-05
1.36578e-05
6.73946e-05
1.24412e-05
6.6575e-05
1.12086e-05
6.60372e-05
9.96533e-06
6.57672e-05
8.71554e-06
6.57524e-05
7.46205e-06
6.59808e-05
6.20667e-06
6.64398e-05
4.95049e-06
6.71136e-05
3.69444e-06
6.79771e-05
2.44022e-06
6.8979e-05
1.19424e-06
6.99618e-05
6.96151e-05
-7.95619e-06
-7.58588e-06
8.37077e-06
2.0575e-05
3.03949e-05
5.19551e-05
4.0635e-05
7.9211e-05
4.28764e-05
8.90424e-05
4.38539e-05
9.11922e-05
4.43146e-05
9.26833e-05
4.45362e-05
9.4399e-05
4.40895e-05
9.75602e-05
4.06416e-05
0.000104315
3.37224e-05
0.000113381
2.62727e-05
0.00012689
2.14306e-05
0.000130456
1.90857e-05
0.000127283
1.81928e-05
0.000121226
1.7974e-05
0.000114364
1.79959e-05
0.000107661
1.80421e-05
0.000101497
1.80146e-05
9.59758e-05
1.78722e-05
9.10941e-05
1.76004e-05
8.68062e-05
1.71984e-05
8.3058e-05
1.66737e-05
7.97977e-05
1.60384e-05
7.69798e-05
1.53065e-05
7.45656e-05
1.4493e-05
7.25225e-05
1.36118e-05
7.08238e-05
1.26759e-05
6.94472e-05
1.16967e-05
6.83738e-05
1.06839e-05
6.75878e-05
9.64582e-06
6.70753e-05
8.58912e-06
6.68239e-05
7.51924e-06
6.68223e-05
6.44035e-06
6.70597e-05
5.35564e-06
6.75245e-05
4.26779e-06
6.82015e-05
3.17943e-06
6.90654e-05
2.09413e-06
7.00643e-05
1.02007e-06
7.10359e-05
7.06352e-05
-2.6697e-05
-2.46857e-05
-9.77805e-06
3.65605e-06
1.09444e-05
3.12326e-05
3.06218e-05
5.95335e-05
3.80366e-05
8.16277e-05
3.97425e-05
8.94863e-05
4.02179e-05
9.22079e-05
4.00295e-05
9.45875e-05
3.97167e-05
9.7873e-05
3.59105e-05
0.000108121
2.60523e-05
0.000123239
1.74541e-05
0.000135488
1.31615e-05
0.000134748
1.15485e-05
0.000128896
1.12673e-05
0.000121507
1.15707e-05
0.00011406
1.20726e-05
0.00010716
1.25756e-05
0.000100994
1.29816e-05
9.55698e-05
1.32452e-05
9.08304e-05
1.33501e-05
8.67014e-05
1.32967e-05
8.31115e-05
1.3095e-05
7.99994e-05
1.27601e-05
7.73148e-05
1.2309e-05
7.50167e-05
1.17588e-05
7.30728e-05
1.11256e-05
7.1457e-05
1.0424e-05
7.01487e-05
9.667e-06
6.91309e-05
8.86567e-06
6.83892e-05
8.02959e-06
6.79114e-05
7.16677e-06
6.76867e-05
6.28385e-06
6.77052e-05
5.38627e-06
6.79573e-05
4.47869e-06
6.84321e-05
3.56531e-06
6.91148e-05
2.65049e-06
6.99803e-05
1.73952e-06
7.09753e-05
8.42235e-07
7.19332e-05
7.14774e-05
-5.56359e-05
-3.88953e-05
-3.70545e-05
-1.49254e-05
-1.70172e-05
1.11953e-05
5.6788e-06
3.68375e-05
2.48788e-05
6.24278e-05
3.27522e-05
8.16128e-05
3.38133e-05
9.11468e-05
3.19083e-05
9.64925e-05
2.74077e-05
0.000102374
2.34191e-05
0.00011211
1.46611e-05
0.000131997
6.73455e-06
0.000143415
3.30759e-06
0.000138175
2.67725e-06
0.000129527
3.33084e-06
0.000120853
4.45825e-06
0.000112933
5.66955e-06
0.000105948
6.78495e-06
9.98782e-05
7.72292e-06
9.46318e-05
8.45276e-06
9.01006e-05
8.97105e-06
8.61831e-05
9.2891e-06
8.27934e-05
9.4256e-06
7.9863e-05
9.40201e-06
7.73384e-05
9.24005e-06
7.51787e-05
8.96032e-06
7.33525e-05
8.58156e-06
7.18358e-05
8.12042e-06
7.06099e-05
7.59143e-06
6.96599e-05
7.00719e-06
6.89734e-05
6.37855e-06
6.85401e-05
5.71473e-06
6.83506e-05
5.02359e-06
6.83964e-05
4.31191e-06
6.8669e-05
3.58576e-06
6.91583e-05
2.85092e-06
6.98496e-05
2.11336e-06
7.07178e-05
1.38003e-06
7.17087e-05
6.62301e-07
7.26509e-05
7.21397e-05
-8.71815e-05
-4.54876e-05
-7.39665e-05
-2.81403e-05
-5.6653e-05
-6.11827e-06
-3.73698e-05
1.75544e-05
-1.62008e-05
4.12588e-05
9.8016e-07
6.44318e-05
8.76077e-06
8.33662e-05
8.05687e-06
9.71964e-05
2.92219e-06
0.000107508
-4.11469e-06
0.000119147
-9.86678e-06
0.000137749
-1.13621e-05
0.00014491
-1.03681e-05
0.000137181
-8.24149e-06
0.0001274
-5.75493e-06
0.000118367
-3.32209e-06
0.0001105
-1.12649e-06
0.000103753
7.57836e-07
9.79938e-05
2.31563e-06
9.3074e-05
3.56054e-06
8.88557e-05
4.51963e-06
8.5224e-05
5.2251e-06
8.2088e-05
5.70971e-06
7.93784e-05
6.00417e-06
7.70439e-05
6.13643e-06
7.50464e-05
6.13135e-06
7.33576e-05
6.01071e-06
7.19565e-05
5.79335e-06
7.08273e-05
5.49555e-06
6.99577e-05
5.13135e-06
6.93376e-05
4.71286e-06
6.89586e-05
4.25055e-06
6.88129e-05
3.75352e-06
6.88934e-05
3.2299e-06
6.91926e-05
2.68722e-06
6.97009e-05
2.13275e-06
7.04041e-05
1.57398e-06
7.12766e-05
1.01931e-06
7.22634e-05
4.8151e-07
7.31887e-05
7.26212e-05
-0.000112373
-4.41011e-05
-0.000108965
-3.15477e-05
-0.00010035
-1.47338e-05
-8.8253e-05
5.45765e-06
-7.44284e-05
2.74342e-05
-6.04587e-05
5.04621e-05
-4.98554e-05
7.27629e-05
-4.43059e-05
9.16468e-05
-4.37532e-05
0.000106955
-4.53581e-05
0.000120752
-4.17482e-05
0.000134139
-3.35367e-05
0.000136698
-2.63331e-05
0.000129978
-2.03815e-05
0.000121448
-1.54696e-05
0.000113455
-1.14067e-05
0.000106437
-8.06145e-06
0.000100407
-5.32708e-06
9.52595e-05
-3.11127e-06
9.08582e-05
-1.334e-06
8.70784e-05
7.33948e-08
8.38166e-05
1.16938e-06
8.0992e-05
2.00293e-06
7.85448e-05
2.61539e-06
7.64315e-05
3.0415e-06
7.46204e-05
3.31066e-06
7.30885e-05
3.44778e-06
7.18194e-05
3.47388e-06
7.08012e-05
3.40694e-06
7.00246e-05
3.26241e-06
6.94822e-05
3.05367e-06
6.91673e-05
2.79245e-06
6.90741e-05
2.48914e-06
6.91968e-05
2.15324e-06
6.95285e-05
1.79367e-06
7.00605e-05
1.41912e-06
7.07787e-05
1.03845e-06
7.16573e-05
6.6114e-07
7.26407e-05
3.00131e-07
7.35497e-05
7.29213e-05
-0.00012579
-3.7665e-05
-0.000129812
-2.75257e-05
-0.000130439
-1.41071e-05
-0.00012745
2.46931e-06
-0.000121575
2.15589e-05
-0.000113387
4.22737e-05
-0.000103973
6.33493e-05
-9.52017e-05
8.28754e-05
-8.75066e-05
9.92604e-05
-7.90887e-05
0.000112334
-6.60976e-05
0.000121148
-5.1977e-05
0.000122578
-4.04421e-05
0.000118443
-3.15175e-05
0.000112524
-2.45627e-05
0.0001065
-1.90747e-05
0.000100949
-1.47037e-05
9.60364e-05
-1.11988e-05
9.17547e-05
-8.37739e-06
8.80368e-05
-6.10268e-06
8.48037e-05
-4.2707e-06
8.19846e-05
-2.80126e-06
7.95226e-05
-1.63118e-06
7.73748e-05
-7.10114e-07
7.55104e-05
2.54617e-09
7.39077e-05
5.39997e-07
7.25511e-05
9.29655e-07
7.14298e-05
1.19449e-06
7.05364e-05
1.35403e-06
6.98651e-05
1.42509e-06
6.94111e-05
1.42233e-06
6.91701e-05
1.35871e-06
6.91378e-05
1.24595e-06
6.93095e-05
1.09488e-06
6.96796e-05
9.1574e-07
7.02396e-05
7.18495e-07
7.09759e-05
5.13128e-07
7.18627e-05
3.10343e-07
7.28434e-05
1.15296e-07
7.37447e-05
7.30366e-05
-0.000128035
-2.96845e-05
-0.000134802
-2.07589e-05
-0.000139576
-9.33311e-06
-0.000141647
4.54078e-06
-0.000140615
2.05261e-05
-0.00013632
3.79794e-05
-0.00012889
5.59192e-05
-0.000118957
7.2942e-05
-0.000107162
8.74658e-05
-9.34217e-05
9.85931e-05
-7.77689e-05
0.000105495
-6.26622e-05
0.000107471
-5.00339e-05
0.000105814
-3.99651e-05
0.000102455
-3.2004e-05
9.8539e-05
-2.56901e-05
9.46354e-05
-2.06465e-05
9.09928e-05
-1.65856e-05
8.76937e-05
-1.32921e-05
8.47433e-05
-1.06058e-05
8.21174e-05
-8.40621e-06
7.9785e-05
-6.60195e-06
7.77183e-05
-5.1227e-06
7.58955e-05
-3.91334e-06
7.43011e-05
-2.92999e-06
7.29244e-05
-2.13736e-06
7.17584e-05
-1.50641e-06
7.07988e-05
-1.01276e-06
7.00427e-05
-6.35599e-07
6.94879e-05
-3.56914e-07
6.91325e-05
-1.60869e-07
6.89741e-05
-3.33062e-08
6.90102e-05
3.86962e-08
6.92375e-05
6.7181e-08
6.96511e-05
6.36104e-08
7.02432e-05
3.90809e-08
7.10005e-05
4.20703e-09
7.18976e-05
-3.32699e-08
7.28809e-05
-7.9459e-08
7.37909e-05
7.29572e-05
-0.000123526
-2.22003e-05
-0.000130165
-1.41195e-05
-0.000135349
-4.14978e-06
-0.000138432
7.62376e-06
-0.000138829
2.0923e-05
-0.000136108
3.52591e-05
-0.000130059
4.987e-05
-0.000120835
6.37183e-05
-0.000109062
7.56926e-05
-9.54517e-05
8.49825e-05
-8.09924e-05
9.10358e-05
-6.7297e-05
9.37757e-05
-5.54357e-05
9.39529e-05
-4.55864e-05
9.26057e-05
-3.75442e-05
9.04968e-05
-3.10053e-05
8.80964e-05
-2.56762e-05
8.56638e-05
-2.13096e-05
8.33272e-05
-1.7709e-05
8.11427e-05
-1.4722e-05
7.91304e-05
-1.22315e-05
7.72946e-05
-1.01475e-05
7.56343e-05
-8.39998e-06
7.4148e-05
-6.93388e-06
7.2835e-05
-5.70523e-06
7.16957e-05
-4.67841e-06
7.07316e-05
-3.82393e-06
6.99444e-05
-3.11681e-06
6.93356e-05
-2.53549e-06
6.89066e-05
-2.06109e-06
6.86581e-05
-1.67684e-06
6.85898e-05
-1.36755e-06
6.87009e-05
-1.11928e-06
6.89892e-05
-9.18962e-07
6.94508e-05
-7.54133e-07
7.00784e-05
-6.12902e-07
7.08593e-05
-4.84501e-07
7.17692e-05
-3.63314e-07
7.27598e-05
-2.80033e-07
7.37077e-05
7.26772e-05
-0.000116085
-1.59558e-05
-0.000121593
-8.61112e-06
-0.000125882
1.38624e-07
-0.000128431
1.01732e-05
-0.000128756
2.12478e-05
-0.000126464
3.2967e-05
-0.000121352
4.47577e-05
-0.000113535
5.59011e-05
-0.000103502
6.56597e-05
-9.19771e-05
7.3458e-05
-7.99095e-05
7.89682e-05
-6.83357e-05
8.22018e-05
-5.79531e-05
8.35703e-05
-4.89938e-05
8.36465e-05
-4.14181e-05
8.2921e-05
-3.50676e-05
8.1746e-05
-2.97531e-05
8.03493e-05
-2.52956e-05
7.88697e-05
-2.15416e-05
7.73887e-05
-1.83654e-05
7.59542e-05
-1.56666e-05
7.45959e-05
-1.33657e-05
7.33334e-05
-1.13992e-05
7.21815e-05
-9.71616e-06
7.11519e-05
-8.27521e-06
7.02548e-05
-7.04214e-06
6.94986e-05
-5.98813e-06
6.88903e-05
-5.08833e-06
6.84358e-05
-4.321e-06
6.81393e-05
-3.6668e-06
6.80039e-05
-3.10836e-06
6.80314e-05
-2.62978e-06
6.82224e-05
-2.21636e-06
6.85758e-05
-1.85427e-06
6.90887e-05
-1.5304e-06
6.97546e-05
-1.23244e-06
7.05613e-05
-9.50097e-07
7.14868e-05
-6.80937e-07
7.24906e-05
-4.56294e-07
7.34831e-05
7.22209e-05
-0.000107909
-1.10498e-05
-0.000112135
-4.38475e-06
-0.000115308
3.31153e-06
-0.000117039
1.1904e-05
-0.000116971
2.11796e-05
-0.000114828
3.08249e-05
-0.000110495
4.04245e-05
-0.000104084
4.94903e-05
-9.59648e-05
5.75401e-05
-8.6702e-05
6.41952e-05
-7.69816e-05
6.92477e-05
-6.74833e-05
7.27036e-05
-5.86928e-05
7.47799e-05
-5.08411e-05
7.57947e-05
-4.39753e-05
7.60552e-05
-3.80389e-05
7.58096e-05
-3.29302e-05
7.52406e-05
-2.85368e-05
7.44763e-05
-2.47527e-05
7.36046e-05
-2.14855e-05
7.2687e-05
-1.86573e-05
7.17677e-05
-1.62036e-05
7.08797e-05
-1.40712e-05
7.0049e-05
-1.22159e-05
6.92966e-05
-1.06008e-05
6.86397e-05
-9.19432e-06
6.80921e-05
-7.96931e-06
6.76653e-05
-6.90172e-06
6.73682e-05
-5.97014e-06
6.72078e-05
-5.15527e-06
6.71891e-05
-4.43951e-06
6.73157e-05
-3.80662e-06
6.75895e-05
-3.24149e-06
6.80107e-05
-2.72984e-06
6.8577e-05
-2.25822e-06
6.92829e-05
-1.81414e-06
7.01172e-05
-1.38761e-06
7.10603e-05
-9.7681e-07
7.20798e-05
-6.0628e-07
7.31126e-05
7.16147e-05
-0.000100061
-7.32102e-06
-0.000103165
-1.28028e-06
-0.000105365
5.51122e-06
-0.000106384
1.29228e-05
-0.000105977
2.07728e-05
-0.000103972
2.88201e-05
-0.000100315
3.67675e-05
-9.51098e-05
4.42849e-05
-8.86254e-05
5.10556e-05
-8.12617e-05
5.68315e-05
-7.34863e-05
6.14724e-05
-6.57509e-05
6.49681e-05
-5.83983e-05
6.74273e-05
-5.16296e-05
6.90261e-05
-4.55275e-05
6.99531e-05
-4.00957e-05
7.03778e-05
-3.52942e-05
7.04392e-05
-3.10637e-05
7.02457e-05
-2.734e-05
6.98809e-05
-2.40619e-05
6.94089e-05
-2.11743e-05
6.888e-05
-1.86288e-05
6.83342e-05
-1.63836e-05
6.78039e-05
-1.44026e-05
6.73156e-05
-1.26539e-05
6.6891e-05
-1.11097e-05
6.65479e-05
-9.74494e-06
6.63005e-05
-8.53696e-06
6.61603e-05
-7.46525e-06
6.61361e-05
-6.51097e-06
6.62348e-05
-5.65675e-06
6.64614e-05
-4.88639e-06
6.68191e-05
-4.18471e-06
6.7309e-05
-3.53733e-06
6.79297e-05
-2.93065e-06
6.86762e-05
-2.35214e-06
6.95387e-05
-1.79176e-06
7.04999e-05
-1.24683e-06
7.15349e-05
-7.33124e-07
7.25989e-05
7.08815e-05
-9.29447e-05
-4.53006e-06
-9.51698e-05
9.44891e-07
-9.66257e-05
6.96706e-06
-9.71213e-05
1.34184e-05
-9.64969e-05
2.01484e-05
-9.46505e-05
2.69737e-05
-9.15647e-05
3.36817e-05
-8.73263e-05
4.00465e-05
-8.21274e-05
4.58568e-05
-7.62415e-05
5.09456e-05
-6.99828e-05
5.52137e-05
-6.36548e-05
5.86401e-05
-5.7502e-05
6.12745e-05
-5.1689e-05
6.3213e-05
-4.63064e-05
6.45705e-05
-4.13892e-05
6.54607e-05
-3.69363e-05
6.59862e-05
-3.29254e-05
6.62348e-05
-2.93244e-05
6.628e-05
-2.60979e-05
6.61824e-05
-2.32104e-05
6.59925e-05
-2.06285e-05
6.57523e-05
-1.83212e-05
6.54965e-05
-1.62599e-05
6.52543e-05
-1.44184e-05
6.50495e-05
-1.27725e-05
6.49021e-05
-1.13e-05
6.4828e-05
-9.97998e-06
6.48403e-05
-8.79329e-06
6.49494e-05
-7.72199e-06
6.51635e-05
-6.74932e-06
6.54888e-05
-5.85951e-06
6.59293e-05
-5.03762e-06
6.64871e-05
-4.26945e-06
6.71615e-05
-3.54149e-06
6.79482e-05
-2.84126e-06
6.88385e-05
-2.15847e-06
6.98171e-05
-1.48903e-06
7.08655e-05
-8.41022e-07
7.19509e-05
7.00405e-05
-8.66025e-05
-2.44515e-06
-8.81811e-05
2.52353e-06
-8.91085e-05
7.89443e-06
-8.92546e-05
1.35645e-05
-8.85179e-05
1.94118e-05
-8.68409e-05
2.52967e-05
-8.42246e-05
3.10654e-05
-8.07385e-05
3.65604e-05
-7.65178e-05
4.16362e-05
-7.1749e-05
4.61767e-05
-6.66437e-05
5.01085e-05
-6.14093e-05
5.34057e-05
-5.62221e-05
5.60872e-05
-5.12133e-05
5.82043e-05
-4.64693e-05
5.98265e-05
-4.20383e-05
6.10298e-05
-3.7941e-05
6.18889e-05
-3.41791e-05
6.24729e-05
-3.07427e-05
6.28436e-05
-2.76156e-05
6.30552e-05
-2.47776e-05
6.31546e-05
-2.22076e-05
6.31823e-05
-1.98837e-05
6.31726e-05
-1.77844e-05
6.31549e-05
-1.58885e-05
6.31536e-05
-1.41757e-05
6.31893e-05
-1.26265e-05
6.32788e-05
-1.12224e-05
6.34362e-05
-9.94582e-06
6.36728e-05
-8.78008e-06
6.39978e-05
-7.70938e-06
6.44181e-05
-6.71869e-06
6.49387e-05
-5.79361e-06
6.55621e-05
-4.92035e-06
6.62882e-05
-4.08571e-06
6.71136e-05
-3.27733e-06
6.80301e-05
-2.48476e-06
6.90246e-05
-1.70245e-06
7.00832e-05
-9.32529e-07
7.1181e-05
6.9108e-05
-8.09133e-05
-8.76172e-07
-8.20339e-05
3.64418e-06
-8.2603e-05
8.46348e-06
-8.25324e-05
1.3494e-05
-8.17585e-05
1.86378e-05
-8.02497e-05
2.37879e-05
-7.80153e-05
2.8831e-05
-7.51091e-05
3.36542e-05
-7.1627e-05
3.81541e-05
-6.76972e-05
4.22469e-05
-6.34649e-05
4.58762e-05
-5.90749e-05
4.90157e-05
-5.46564e-05
5.16687e-05
-5.03136e-05
5.38615e-05
-4.61233e-05
5.56362e-05
-4.21373e-05
5.70438e-05
-3.83868e-05
5.81384e-05
-3.48874e-05
5.89735e-05
-3.16433e-05
5.95996e-05
-2.86512e-05
6.00631e-05
-2.59024e-05
6.04058e-05
-2.33846e-05
6.06645e-05
-2.10835e-05
6.08715e-05
-1.89833e-05
6.10547e-05
-1.70676e-05
6.12379e-05
-1.53196e-05
6.14413e-05
-1.37228e-05
6.16821e-05
-1.22611e-05
6.19745e-05
-1.09187e-05
6.23305e-05
-9.68052e-06
6.27596e-05
-8.53198e-06
6.32696e-05
-7.459e-06
6.38657e-05
-6.44798e-06
6.45511e-05
-5.48571e-06
6.5326e-05
-4.55949e-06
6.61874e-05
-3.65725e-06
6.71279e-05
-2.76847e-06
6.81358e-05
-1.88638e-06
6.92011e-05
-1.00861e-06
7.03032e-05
6.80994e-05
-7.5715e-05
3.1889e-07
-7.65162e-05
4.44528e-06
-7.6849e-05
8.79628e-06
-7.66534e-05
1.32985e-05
-7.5889e-05
1.78733e-05
-7.45391e-05
2.2438e-05
-7.26155e-05
2.69074e-05
-7.01595e-05
3.11982e-05
-6.72399e-05
3.52345e-05
-6.39469e-05
3.89539e-05
-6.03827e-05
4.2312e-05
-5.66513e-05
4.52844e-05
-5.28495e-05
4.78669e-05
-4.90601e-05
5.0072e-05
-4.53495e-05
5.19256e-05
-4.17675e-05
5.34618e-05
-3.8349e-05
5.47199e-05
-3.51164e-05
5.57409e-05
-3.20821e-05
5.65653e-05
-2.92509e-05
5.72318e-05
-2.66213e-05
5.77762e-05
-2.41878e-05
5.8231e-05
-2.19417e-05
5.86254e-05
-1.98719e-05
5.89849e-05
-1.7966e-05
5.9332e-05
-1.62107e-05
5.9686e-05
-1.45924e-05
6.00637e-05
-1.30972e-05
6.04793e-05
-1.17115e-05
6.09448e-05
-1.04218e-05
6.14699e-05
-9.21491e-06
6.20627e-05
-8.07783e-06
6.27286e-05
-6.99794e-06
6.34712e-05
-5.96281e-06
6.42909e-05
-4.96034e-06
6.51849e-05
-3.97895e-06
6.61465e-05
-3.00819e-06
6.7165e-05
-2.04041e-06
6.82333e-05
-1.06978e-06
6.93326e-05
6.70296e-05
-7.0867e-05
1.23991e-06
-7.14438e-05
5.02212e-06
-7.1622e-05
8.97444e-06
-7.13597e-05
1.30362e-05
-7.06304e-05
1.71441e-05
-6.94258e-05
2.12334e-05
-6.77573e-05
2.52389e-05
-6.56568e-05
2.90976e-05
-6.31747e-05
3.27524e-05
-6.03762e-05
3.61554e-05
-5.73355e-05
3.92712e-05
-5.41295e-05
4.20784e-05
-5.08321e-05
4.45695e-05
-4.75098e-05
4.67497e-05
-4.42188e-05
4.86346e-05
-4.10044e-05
5.02475e-05
-3.79013e-05
5.16168e-05
-3.4934e-05
5.27737e-05
-3.21189e-05
5.37503e-05
-2.94652e-05
5.45781e-05
-2.69762e-05
5.52872e-05
-2.46509e-05
5.59057e-05
-2.24846e-05
5.64591e-05
-2.04702e-05
5.69705e-05
-1.85987e-05
5.74605e-05
-1.68599e-05
5.79472e-05
-1.52427e-05
5.84466e-05
-1.37357e-05
5.89723e-05
-1.23272e-05
5.95362e-05
-1.10054e-05
6.01481e-05
-9.75842e-06
6.08157e-05
-8.57469e-06
6.15449e-05
-7.44254e-06
6.23391e-05
-6.35045e-06
6.31988e-05
-5.28706e-06
6.41216e-05
-4.24138e-06
6.51008e-05
-3.20324e-06
6.61269e-05
-2.16437e-06
6.71944e-05
-1.11636e-06
6.82846e-05