/*--------------------------------*- C++ -*----------------------------------*\
  =========                 |
  \\      /  F ield         | OpenFOAM: The Open Source CFD Toolbox
   \\    /   O peration     | Website:  https://openfoam.org
    \\  /    A nd           | Version:  9
     \\/     M anipulation  |
\*---------------------------------------------------------------------------*/
FoamFile
{
    format      ascii;
    class       volVectorField;
    location    "0.35";
    object      U;
}
// * * * * * * * * * * * * * * * * * * * * * * * * * * * * * * * * * * * * * //

dimensions      [0 1 -1 0 0 0 0];

internalField   nonuniform List<vector> 
1935
(
(0.624927 -0.434858 0)
(0.524099 -0.500451 0)
(0.413331 -0.566859 0)
(0.292245 -0.632641 0)
(0.162931 -0.696276 0)
(0.0283875 -0.755515 0)
(-0.108457 -0.806915 0)
(-0.242695 -0.846596 0)
(-0.370425 -0.870747 0)
(-0.488147 -0.875176 0)
(-0.591104 -0.856505 0)
(-0.674236 -0.814675 0)
(-0.734039 -0.75361 0)
(-0.769934 -0.680141 0)
(-0.78429 -0.601875 0)
(-0.781503 -0.525306 0)
(-0.766604 -0.454758 0)
(-0.74399 -0.392356 0)
(-0.716904 -0.338571 0)
(-0.687406 -0.29285 0)
(-0.656626 -0.254193 0)
(-0.625112 -0.221502 0)
(-0.593123 -0.193749 0)
(-0.560819 -0.170073 0)
(-0.528367 -0.149807 0)
(-0.495971 -0.132443 0)
(-0.463858 -0.117567 0)
(-0.432226 -0.104829 0)
(-0.401222 -0.0939283 0)
(-0.370934 -0.0846049 0)
(-0.341403 -0.0766341 0)
(-0.31264 -0.0698227 0)
(-0.284634 -0.0640084 0)
(-0.257366 -0.0590588 0)
(-0.230812 -0.0548678 0)
(-0.204957 -0.0513509 0)
(-0.179794 -0.0484373 0)
(-0.155323 -0.0460565 0)
(-0.131536 -0.0441066 0)
(-0.108352 -0.0423966 0)
(-0.0854317 -0.0405934 0)
(-0.0613832 -0.0378136 0)
(-0.0295554 -0.0270262 0)
(0.682605 -0.272679 0)
(0.726258 -0.0812161 0)
(0.755058 0.129767 0)
(0.767783 0.348875 0)
(0.582664 -0.328899 0)
(0.629363 -0.122816 0)
(0.664108 0.103584 0)
(0.682152 0.34345 0)
(0.473317 -0.389194 0)
(0.527284 -0.168789 0)
(0.566875 0.0724915 0)
(0.594877 0.326824 0)
(0.353062 -0.453133 0)
(0.413166 -0.224377 0)
(0.459423 0.0274434 0)
(0.504945 0.295882 0)
(0.222757 -0.522024 0)
(0.291255 -0.290905 0)
(0.349067 -0.0319845 0)
(0.414952 0.237795 0)
(0.0848584 -0.59424 0)
(0.158014 -0.37291 0)
(0.233764 -0.110146 0)
(0.308274 0.157083 0)
(-0.0593015 -0.66495 0)
(0.0105017 -0.461237 0)
(0.0974919 -0.20445 0)
(0.166687 0.0592132 0)
(-0.204709 -0.72921 0)
(-0.142813 -0.549773 0)
(-0.0534751 -0.308926 0)
(0.0298111 -0.0432969 0)
(-0.347612 -0.78201 0)
(-0.297866 -0.633329 0)
(-0.214597 -0.416976 0)
(-0.112825 -0.149527 0)
(-0.484839 -0.816401 0)
(-0.45376 -0.705447 0)
(-0.386061 -0.528621 0)
(-0.275299 -0.284725 0)
(-0.610013 -0.823843 0)
(-0.605292 -0.751573 0)
(-0.566327 -0.624717 0)
(-0.481573 -0.434122 0)
(-0.71416 -0.799802 0)
(-0.738211 -0.758299 0)
(-0.737128 -0.677627 0)
(-0.698534 -0.54567 0)
(-0.789813 -0.746919 0)
(-0.837779 -0.72356 0)
(-0.871949 -0.674803 0)
(-0.882386 -0.590324 0)
(-0.834391 -0.673731 0)
(-0.89718 -0.656782 0)
(-0.955651 -0.623661 0)
(-1.00372 -0.567109 0)
(-0.85038 -0.590988 0)
(-0.918122 -0.572714 0)
(-0.987111 -0.543141 0)
(-1.05419 -0.497285 0)
(-0.843908 -0.508252 0)
(-0.908909 -0.485402 0)
(-0.977036 -0.453683 0)
(-1.04654 -0.409465 0)
(-0.8223 -0.431892 0)
(-0.88022 -0.404224 0)
(-0.94106 -0.369239 0)
(-1.0036 -0.324298 0)
(-0.791886 -0.364977 0)
(-0.841141 -0.333582 0)
(-0.89235 -0.296101 0)
(-0.944522 -0.250725 0)
(-0.757167 -0.308215 0)
(-0.797887 -0.274538 0)
(-0.839501 -0.235824 0)
(-0.881191 -0.190899 0)
(-0.720871 -0.260908 0)
(-0.754049 -0.226266 0)
(-0.787242 -0.187507 0)
(-0.819789 -0.143889 0)
(-0.684364 -0.221746 0)
(-0.711281 -0.187158 0)
(-0.737602 -0.149245 0)
(-0.762788 -0.107553 0)
(-0.64816 -0.189307 0)
(-0.670063 -0.155477 0)
(-0.690999 -0.11898 0)
(-0.710529 -0.0795613 0)
(-0.612365 -0.162301 0)
(-0.630311 -0.129658 0)
(-0.647095 -0.0948828 0)
(-0.662375 -0.0578594 0)
(-0.576961 -0.139666 0)
(-0.591772 -0.108424 0)
(-0.605352 -0.0754935 0)
(-0.617444 -0.0408363 0)
(-0.541956 -0.12059 0)
(-0.554249 -0.0908235 0)
(-0.565324 -0.0597368 0)
(-0.574987 -0.0273257 0)
(-0.507432 -0.104465 0)
(-0.517668 -0.0761675 0)
(-0.526747 -0.0468458 0)
(-0.534516 -0.0165121 0)
(-0.473524 -0.0908181 0)
(-0.482057 -0.063937 0)
(-0.489514 -0.0362596 0)
(-0.495774 -0.00781568 0)
(-0.440375 -0.0792661 0)
(-0.447485 -0.0537185 0)
(-0.453609 -0.0275504 0)
(-0.458654 -0.000808606 0)
(-0.408087 -0.069489 0)
(-0.41401 -0.0451763 0)
(-0.419037 -0.0203831 0)
(-0.423101 0.00483468 0)
(-0.376715 -0.0612169 0)
(-0.381649 -0.0380365 0)
(-0.385777 -0.014488 0)
(-0.389054 0.00937195 0)
(-0.346272 -0.0542194 0)
(-0.350384 -0.0320704 0)
(-0.353778 -0.00964084 0)
(-0.356421 0.013016 0)
(-0.316739 -0.0483002 0)
(-0.320167 -0.0270839 0)
(-0.322959 -0.00565179 0)
(-0.325093 0.0159456 0)
(-0.288079 -0.0432952 0)
(-0.290933 -0.0229149 0)
(-0.293228 -0.00236384 0)
(-0.294952 0.0183072 0)
(-0.260248 -0.0390731 0)
(-0.262615 -0.0194338 0)
(-0.264495 0.000346265 0)
(-0.265884 0.0202147 0)
(-0.233206 -0.0355314 0)
(-0.235153 -0.0165419 0)
(-0.236681 0.00257142 0)
(-0.237795 0.0217533 0)
(-0.206919 -0.0325922 0)
(-0.208498 -0.0141661 0)
(-0.209723 0.0043807 0)
(-0.21061 0.0229881 0)
(-0.181373 -0.0301961 0)
(-0.182623 -0.0122527 0)
(-0.183585 0.00582766 0)
(-0.184285 0.0239734 0)
(-0.15657 -0.028293 0)
(-0.157525 -0.0107582 0)
(-0.15826 0.00696148 0)
(-0.158817 0.0247667 0)
(-0.132523 -0.0268233 0)
(-0.133227 -0.0096337 0)
(-0.133783 0.00784831 0)
(-0.134266 0.0254539 0)
(-0.109231 -0.0257064 0)
(-0.109768 -0.00882611 0)
(-0.110246 0.00859177 0)
(-0.110806 0.026182 0)
(-0.0865675 -0.0248732 0)
(-0.0871534 -0.00831462 0)
(-0.0878133 0.00937031 0)
(-0.088813 0.0272191 0)
(-0.0636163 -0.0234749 0)
(-0.0651989 -0.00711554 0)
(-0.0668055 0.0114542 0)
(-0.0691078 0.0297228 0)
(-0.0340049 -0.0142875 0)
(-0.0442534 0.00119356 0)
(-0.0493724 0.021035 0)
(-0.0543906 0.0380016 0)
(0.759642 0.574903 0)
(0.723794 0.773168 0)
(0.679276 0.893524 0)
(0.646465 0.929248 0)
(0.624708 0.923167 0)
(0.605772 0.947083 0)
(0.603621 0.961909 0)
(0.606433 0.969203 0)
(0.604824 0.982869 0)
(0.604475 1.0042 0)
(0.60864 1.02854 0)
(0.615819 1.05157 0)
(0.621032 1.07577 0)
(0.625673 1.11473 0)
(0.625278 1.14488 0)
(0.621508 1.13332 0)
(0.612906 1.06809 0)
(0.599045 0.970689 0)
(0.577528 0.873692 0)
(0.548854 0.793087 0)
(0.516017 0.730448 0)
(0.481833 0.681853 0)
(0.448026 0.64322 0)
(0.415383 0.611826 0)
(0.384097 0.586105 0)
(0.354108 0.565161 0)
(0.325322 0.54842 0)
(0.297662 0.535455 0)
(0.271048 0.525912 0)
(0.245372 0.519481 0)
(0.2205 0.51589 0)
(0.196287 0.514901 0)
(0.172595 0.516302 0)
(0.149296 0.519893 0)
(0.126276 0.525472 0)
(0.103414 0.532812 0)
(0.0805937 0.541612 0)
(0.0578763 0.551362 0)
(0.0351832 0.560771 0)
(0.0133554 0.559886 0)
(0.679856 0.595841 0)
(0.647179 0.81488 0)
(0.61308 0.931011 0)
(0.595781 0.956931 0)
(0.563228 0.935734 0)
(0.554724 0.958276 0)
(0.557278 0.962259 0)
(0.558364 0.968358 0)
(0.559007 0.98163 0)
(0.562789 1.00089 0)
(0.570377 1.0222 0)
(0.578285 1.04294 0)
(0.584116 1.07211 0)
(0.587618 1.11459 0)
(0.582484 1.14648 0)
(0.57305 1.14006 0)
(0.56428 1.07881 0)
(0.553343 0.987172 0)
(0.535174 0.897068 0)
(0.510405 0.821649 0)
(0.481794 0.761571 0)
(0.45174 0.713569 0)
(0.421714 0.674472 0)
(0.39238 0.642149 0)
(0.363932 0.615336 0)
(0.336381 0.593285 0)
(0.309707 0.575497 0)
(0.283885 0.56158 0)
(0.258874 0.551187 0)
(0.234605 0.544005 0)
(0.210984 0.53976 0)
(0.187906 0.538215 0)
(0.165267 0.539162 0)
(0.14297 0.54241 0)
(0.120918 0.547765 0)
(0.0990073 0.555008 0)
(0.0771362 0.563841 0)
(0.0553722 0.573752 0)
(0.0336196 0.583403 0)
(0.0127629 0.582399 0)
(0.605613 0.609357 0)
(0.57637 0.855495 0)
(0.547951 0.954133 0)
(0.532647 0.954584 0)
(0.516702 0.956951 0)
(0.518357 0.959922 0)
(0.519671 0.961311 0)
(0.520227 0.968348 0)
(0.523717 0.980343 0)
(0.530521 0.996321 0)
(0.539275 1.01334 0)
(0.546339 1.03442 0)
(0.55161 1.07184 0)
(0.546575 1.1181 0)
(0.532778 1.15445 0)
(0.520766 1.14862 0)
(0.515206 1.0874 0)
(0.50721 1.00085 0)
(0.491953 0.917166 0)
(0.47073 0.846461 0)
(0.446092 0.78885 0)
(0.419997 0.741681 0)
(0.393609 0.702493 0)
(0.367484 0.669641 0)
(0.341843 0.642127 0)
(0.316767 0.619332 0)
(0.292289 0.600809 0)
(0.268415 0.586186 0)
(0.245129 0.575129 0)
(0.222395 0.567343 0)
(0.200156 0.562564 0)
(0.178347 0.560567 0)
(0.1569 0.561148 0)
(0.135741 0.564118 0)
(0.114794 0.569286 0)
(0.0939739 0.576435 0)
(0.0731917 0.585276 0)
(0.0525192 0.595297 0)
(0.0318503 0.605135 0)
(0.0120916 0.603985 0)
(0.542154 0.609761 0)
(0.519608 0.892823 0)
(0.497978 0.959891 0)
(0.49082 0.963031 0)
(0.489054 0.965447 0)
(0.491864 0.95979 0)
(0.492425 0.957405 0)
(0.493538 0.964789 0)
(0.498114 0.975217 0)
(0.505793 0.987341 0)
(0.51307 1.0027 0)
(0.518555 1.0318 0)
(0.516383 1.07739 0)
(0.497793 1.13033 0)
(0.476752 1.16836 0)
(0.466743 1.15593 0)
(0.464993 1.09311 0)
(0.459912 1.01155 0)
(0.447699 0.933991 0)
(0.430025 0.867746 0)
(0.409176 0.812573 0)
(0.386804 0.766398 0)
(0.36388 0.727392 0)
(0.340889 0.694335 0)
(0.318056 0.666455 0)
(0.295492 0.643225 0)
(0.273259 0.624234 0)
(0.251397 0.609126 0)
(0.229923 0.59759 0)
(0.208832 0.589347 0)
(0.188103 0.584156 0)
(0.167699 0.581801 0)
(0.147576 0.582087 0)
(0.127683 0.58483 0)
(0.107963 0.589841 0)
(0.0883482 0.59691 0)
(0.0687685 0.605751 0)
(0.0493025 0.615856 0)
(0.0298369 0.625836 0)
(0.0113075 0.624481 0)
(0.490725 0.571137 0)
(0.485122 0.930201 0)
(0.473588 0.965263 0)
(0.472113 0.968068 0)
(0.474925 0.963404 0)
(0.476501 0.958644 0)
(0.476431 0.956133 0)
(0.477844 0.956528 0)
(0.480499 0.964225 0)
(0.48373 0.974533 0)
(0.481945 0.993364 0)
(0.480402 1.03496 0)
(0.469136 1.09319 0)
(0.440617 1.15517 0)
(0.418789 1.18386 0)
(0.413786 1.15899 0)
(0.415239 1.09514 0)
(0.412433 1.01917 0)
(0.402953 0.947684 0)
(0.388565 0.885638 0)
(0.37125 0.832817 0)
(0.352384 0.787775 0)
(0.332768 0.749227 0)
(0.312818 0.716279 0)
(0.292755 0.688326 0)
(0.272704 0.664915 0)
(0.252755 0.645675 0)
(0.232969 0.630278 0)
(0.21339 0.618434 0)
(0.194042 0.609883 0)
(0.17493 0.6044 0)
(0.156044 0.601779 0)
(0.137363 0.601834 0)
(0.118855 0.60439 0)
(0.10048 0.609268 0)
(0.0821876 0.616267 0)
(0.0639255 0.625108 0)
(0.0457786 0.635285 0)
(0.0276312 0.645378 0)
(0.0104409 0.643776 0)
(0.414094 0.486629 0)
(0.462394 0.946295 0)
(0.460921 0.967803 0)
(0.463184 0.964599 0)
(0.467181 0.959543 0)
(0.469441 0.957523 0)
(0.4696 0.958303 0)
(0.469443 0.957083 0)
(0.468508 0.957824 0)
(0.463488 0.97089 0)
(0.457715 0.998371 0)
(0.445436 1.0493 0)
(0.417913 1.12213 0)
(0.38426 1.18231 0)
(0.36699 1.19474 0)
(0.365673 1.15864 0)
(0.367834 1.09511 0)
(0.365715 1.02473 0)
(0.358176 0.958687 0)
(0.346601 0.900374 0)
(0.332498 0.849757 0)
(0.31691 0.805936 0)
(0.300447 0.768053 0)
(0.283447 0.735464 0)
(0.26611 0.707687 0)
(0.248571 0.684327 0)
(0.230932 0.665046 0)
(0.213276 0.649543 0)
(0.195666 0.637548 0)
(0.178149 0.628824 0)
(0.160752 0.623158 0)
(0.143488 0.62036 0)
(0.126354 0.620252 0)
(0.109337 0.622671 0)
(0.092415 0.627447 0)
(0.0755524 0.634389 0)
(0.0587134 0.643227 0)
(0.0419895 0.653453 0)
(0.0252666 0.66361 0)
(0.0095155 0.661687 0)
(0.252949 0.371288 0)
(0.441011 0.929702 0)
(0.449985 0.959203 0)
(0.456148 0.957844 0)
(0.460857 0.955465 0)
(0.465076 0.955462 0)
(0.466457 0.958494 0)
(0.465713 0.965878 0)
(0.462999 0.971137 0)
(0.452334 0.980983 0)
(0.433916 1.01389 0)
(0.412591 1.08119 0)
(0.373567 1.16028 0)
(0.338255 1.20753 0)
(0.323202 1.20255 0)
(0.321488 1.15819 0)
(0.321974 1.0954 0)
(0.319502 1.0294 0)
(0.3133 0.967588 0)
(0.304152 0.912287 0)
(0.292992 0.863602 0)
(0.280489 0.821008 0)
(0.267051 0.783935 0)
(0.252924 0.751903 0)
(0.238279 0.724509 0)
(0.223251 0.7014 0)
(0.207949 0.682263 0)
(0.19247 0.666819 0)
(0.176895 0.65482 0)
(0.161288 0.646048 0)
(0.145694 0.640304 0)
(0.130144 0.637412 0)
(0.114654 0.637209 0)
(0.0992247 0.639539 0)
(0.0838504 0.644245 0)
(0.0685122 0.651147 0)
(0.05319 0.659979 0)
(0.0379809 0.670231 0)
(0.0227758 0.680406 0)
(0.00854941 0.678081 0)
(0.103826 0.245357 0)
(0.333846 0.747367 0)
(0.434677 0.930507 0)
(0.445644 0.949719 0)
(0.450983 0.950466 0)
(0.457456 0.951869 0)
(0.460745 0.956897 0)
(0.460508 0.967697 0)
(0.45939 0.982451 0)
(0.452404 0.998924 0)
(0.417327 1.03979 0)
(0.382743 1.12534 0)
(0.335788 1.20516 0)
(0.298453 1.23373 0)
(0.281796 1.21191 0)
(0.277163 1.16026 0)
(0.275424 1.09726 0)
(0.272599 1.03379 0)
(0.26772 0.974726 0)
(0.260938 0.921592 0)
(0.252638 0.874492 0)
(0.243139 0.833073 0)
(0.232663 0.796907 0)
(0.221374 0.76559 0)
(0.209411 0.738755 0)
(0.196904 0.716071 0)
(0.18397 0.697243 0)
(0.170715 0.682011 0)
(0.157236 0.670144 0)
(0.143608 0.66144 0)
(0.129896 0.655718 0)
(0.116142 0.652815 0)
(0.102377 0.65258 0)
(0.0886193 0.65487 0)
(0.074876 0.659542 0)
(0.0611436 0.66642 0)
(0.047418 0.675246 0)
(0.0338016 0.685504 0)
(0.020193 0.695652 0)
(0.00755849 0.692861 0)
(-0.0342155 0.125442 0)
(0.114479 0.461372 0)
(0.404415 0.881384 0)
(0.424682 0.930743 0)
(0.433458 0.942866 0)
(0.441241 0.947427 0)
(0.446828 0.954441 0)
(0.447995 0.967923 0)
(0.447924 0.991031 0)
(0.44297 1.01856 0)
(0.416997 1.06164 0)
(0.338514 1.1822 0)
(0.28832 1.25676 0)
(0.252246 1.2629 0)
(0.234284 1.22421 0)
(0.227944 1.16484 0)
(0.22557 1.10008 0)
(0.223555 1.0374 0)
(0.220665 0.979808 0)
(0.216584 0.928146 0)
(0.211293 0.882358 0)
(0.204856 0.842091 0)
(0.197365 0.80693 0)
(0.188927 0.776476 0)
(0.179664 0.750363 0)
(0.169704 0.728267 0)
(0.159173 0.709903 0)
(0.14819 0.695023 0)
(0.13686 0.683415 0)
(0.125275 0.674892 0)
(0.113509 0.669288 0)
(0.10162 0.666453 0)
(0.0896505 0.666252 0)
(0.0776332 0.668554 0)
(0.0655884 0.673225 0)
(0.0535276 0.680101 0)
(0.0414626 0.688923 0)
(0.0295004 0.69917 0)
(0.0175498 0.709251 0)
(0.00655537 0.705949 0)
(-0.14366 0.00727614 0)
(-0.0188388 0.287562 0)
(0.184654 0.626739 0)
(0.384463 0.895418 0)
(0.404563 0.927562 0)
(0.412948 0.941622 0)
(0.419601 0.953484 0)
(0.422388 0.970155 0)
(0.422109 0.999141 0)
(0.420074 1.04311 0)
(0.386408 1.10834 0)
(0.24959 1.25489 0)
(0.215011 1.30924 0)
(0.189345 1.2905 0)
(0.175226 1.23583 0)
(0.171029 1.16898 0)
(0.170834 1.10169 0)
(0.171455 1.03882 0)
(0.171644 0.982013 0)
(0.170867 0.931489 0)
(0.168905 0.886943 0)
(0.165699 0.847904 0)
(0.161283 0.813892 0)
(0.15575 0.784469 0)
(0.149226 0.759249 0)
(0.14185 0.737903 0)
(0.133762 0.720153 0)
(0.125093 0.705764 0)
(0.115961 0.694539 0)
(0.106468 0.686305 0)
(0.0967017 0.680913 0)
(0.0867306 0.678227 0)
(0.0766107 0.678126 0)
(0.0663856 0.680493 0)
(0.0560896 0.685203 0)
(0.0457487 0.692097 0)
(0.0353901 0.70092 0)
(0.0251249 0.711142 0)
(0.0148741 0.721123 0)
(0.00554889 0.71728 0)
(-0.331186 -0.166194 0)
(-0.175009 0.137755 0)
(-0.0147073 0.423748 0)
(0.220797 0.71597 0)
(0.355317 0.892288 0)
(0.372155 0.926193 0)
(0.37812 0.947743 0)
(0.379593 0.969161 0)
(0.371726 1.0081 0)
(0.369305 1.09023 0)
(0.338759 1.20748 0)
(0.163939 1.33609 0)
(0.128903 1.35677 0)
(0.113123 1.31161 0)
(0.10579 1.24266 0)
(0.106789 1.16929 0)
(0.111231 1.09957 0)
(0.116258 1.03639 0)
(0.120659 0.980304 0)
(0.123861 0.931002 0)
(0.125612 0.887875 0)
(0.125849 0.850279 0)
(0.124628 0.817636 0)
(0.122073 0.789451 0)
(0.118338 0.765312 0)
(0.113584 0.744887 0)
(0.107973 0.727906 0)
(0.101652 0.714146 0)
(0.0947515 0.703426 0)
(0.0873874 0.695591 0)
(0.079656 0.690506 0)
(0.0716386 0.688052 0)
(0.063402 0.68812 0)
(0.0550019 0.690607 0)
(0.0464853 0.695397 0)
(0.037893 0.702336 0)
(0.0292671 0.711169 0)
(0.020722 0.721355 0)
(0.0121922 0.731208 0)
(0.00454634 0.726806 0)
(-0.600233 -0.34295 0)
(-0.434658 -0.0633843 0)
(-0.255947 0.221689 0)
(-0.0575227 0.491245 0)
(0.158602 0.755867 0)
(0.299004 0.895649 0)
(0.319523 0.936946 0)
(0.315106 0.967532 0)
(0.278436 1.0063 0)
(0.230632 1.1362 0)
(0.213334 1.31983 0)
(0.0795769 1.43997 0)
(0.0303366 1.40341 0)
(0.0244779 1.32606 0)
(0.0267035 1.24244 0)
(0.0359059 1.16301 0)
(0.0473584 1.09145 0)
(0.0584669 1.02849 0)
(0.0681399 0.973645 0)
(0.0759488 0.926042 0)
(0.0817662 0.884755 0)
(0.0856428 0.848965 0)
(0.087727 0.817993 0)
(0.088211 0.791297 0)
(0.0872998 0.768455 0)
(0.0851937 0.749137 0)
(0.0820785 0.733085 0)
(0.0781213 0.720097 0)
(0.073469 0.710007 0)
(0.068248 0.702681 0)
(0.0625665 0.698 0)
(0.0565163 0.695862 0)
(0.0501754 0.696172 0)
(0.0436113 0.698838 0)
(0.0368838 0.703753 0)
(0.0300479 0.710765 0)
(0.0231603 0.719619 0)
(0.0163374 0.729763 0)
(0.00952881 0.739467 0)
(0.00355472 0.7345 0)
(-0.8532 -0.451621 0)
(-0.756845 -0.246238 0)
(-0.605955 0.00594 0)
(-0.440327 0.268764 0)
(-0.258652 0.524766 0)
(-0.0630704 0.760492 0)
(0.089836 0.911111 0)
(0.0945081 0.986471 0)
(0.0472173 1.05907 0)
(0.0037104 1.16062 0)
(-0.0598562 1.38668 0)
(-0.120868 1.49722 0)
(-0.108602 1.42094 0)
(-0.0869424 1.32154 0)
(-0.0646997 1.22815 0)
(-0.0416338 1.14578 0)
(-0.0199427 1.07456 0)
(-0.000995645 1.01344 0)
(0.0149063 0.961042 0)
(0.0278198 0.916027 0)
(0.0379522 0.877241 0)
(0.045585 0.843749 0)
(0.0510238 0.814822 0)
(0.0545646 0.789912 0)
(0.0564799 0.768604 0)
(0.0570151 0.75059 0)
(0.056387 0.735636 0)
(0.0547841 0.723563 0)
(0.0523687 0.714233 0)
(0.0492799 0.707528 0)
(0.0456369 0.703352 0)
(0.0415422 0.701618 0)
(0.0370851 0.702245 0)
(0.0323447 0.705151 0)
(0.0273938 0.710237 0)
(0.0223009 0.717354 0)
(0.0171361 0.726244 0)
(0.0120165 0.736345 0)
(0.00690605 0.745883 0)
(0.00257908 0.740346 0)
(-1.03353 -0.472684 0)
(-1.02659 -0.324993 0)
(-0.969237 -0.129348 0)
(-0.869076 0.099208 0)
(-0.753599 0.340373 0)
(-0.619888 0.584979 0)
(-0.486348 0.812179 0)
(-0.414834 0.995886 0)
(-0.397342 1.13227 0)
(-0.399319 1.25466 0)
(-0.412435 1.41605 0)
(-0.357265 1.45473 0)
(-0.273866 1.37782 0)
(-0.21141 1.28033 0)
(-0.16243 1.19048 0)
(-0.121589 1.11262 0)
(-0.0878155 1.04621 0)
(-0.0601528 0.989771 0)
(-0.0376475 0.941697 0)
(-0.019503 0.90054 0)
(-0.00503874 0.865122 0)
(0.00632134 0.834525 0)
(0.0150673 0.80807 0)
(0.0216114 0.785261 0)
(0.0262999 0.765735 0)
(0.0294254 0.749226 0)
(0.031236 0.735539 0)
(0.0319413 0.72453 0)
(0.0317188 0.716087 0)
(0.0307198 0.710119 0)
(0.0290743 0.706549 0)
(0.0268959 0.705307 0)
(0.0242846 0.706328 0)
(0.0213319 0.709537 0)
(0.0181225 0.714841 0)
(0.0147377 0.722096 0)
(0.0112598 0.731039 0)
(0.00780424 0.741102 0)
(0.00433995 0.750469 0)
(0.00161892 0.744336 0)
(-1.11764 -0.424514 0)
(-1.16778 -0.312453 0)
(-1.19045 -0.162675 0)
(-1.17883 0.0214401 0)
(-1.13753 0.230013 0)
(-1.07172 0.453965 0)
(-0.986377 0.686345 0)
(-0.897837 0.902131 0)
(-0.826409 1.07461 0)
(-0.75923 1.21902 0)
(-0.666948 1.32232 0)
(-0.535954 1.33445 0)
(-0.414192 1.27646 0)
(-0.322126 1.20089 0)
(-0.251282 1.12789 0)
(-0.195523 1.06268 0)
(-0.15132 1.00609 0)
(-0.115986 0.957458 0)
(-0.0875819 0.915676 0)
(-0.0646872 0.879643 0)
(-0.0462302 0.848433 0)
(-0.0313899 0.821319 0)
(-0.019526 0.797764 0)
(-0.0101292 0.777379 0)
(-0.0027919 0.759885 0)
(0.00281773 0.745082 0)
(0.00697254 0.732828 0)
(0.00989884 0.723026 0)
(0.0117875 0.715597 0)
(0.0128014 0.710478 0)
(0.0130812 0.707614 0)
(0.0127511 0.706952 0)
(0.0119223 0.708439 0)
(0.0106975 0.712012 0)
(0.00917317 0.717582 0)
(0.00744206 0.725007 0)
(0.00559677 0.734022 0)
(0.00375131 0.744051 0)
(0.00182827 0.753258 0)
(0.000642808 0.746498 0)
(-1.11821 -0.344341 0)
(-1.1863 -0.248691 0)
(-1.23993 -0.124326 0)
(-1.27204 0.0280742 0)
(-1.27728 0.204624 0)
(-1.25287 0.398333 0)
(-1.19836 0.59889 0)
(-1.11763 0.790734 0)
(-1.01985 0.954558 0)
(-0.905605 1.08033 0)
(-0.771782 1.159 0)
(-0.6281 1.17523 0)
(-0.501376 1.1463 0)
(-0.400066 1.09955 0)
(-0.319927 1.04904 0)
(-0.256545 1.00077 0)
(-0.206115 0.95699 0)
(-0.165662 0.918174 0)
(-0.132956 0.884025 0)
(-0.106341 0.85402 0)
(-0.0845794 0.82764 0)
(-0.0667361 0.80445 0)
(-0.0520975 0.784118 0)
(-0.0401081 0.766406 0)
(-0.030329 0.751148 0)
(-0.0224087 0.738227 0)
(-0.0160615 0.727566 0)
(-0.0110499 0.719112 0)
(-0.00717317 0.712823 0)
(-0.00425908 0.708665 0)
(-0.00215715 0.706605 0)
(-0.000733606 0.706607 0)
(0.000133035 0.708632 0)
(0.000555529 0.712624 0)
(0.000640471 0.718502 0)
(0.000490378 0.726127 0)
(0.000204974 0.735235 0)
(-9.27908e-05 0.745254 0)
(-0.00063695 0.754416 0)
(-0.000414469 0.746765 0)
(-1.06921 -0.262452 0)
(-1.13342 -0.176121 0)
(-1.18751 -0.0677546 0)
(-1.22569 0.0619872 0)
(-1.24231 0.210161 0)
(-1.23237 0.371318 0)
(-1.19283 0.536581 0)
(-1.12353 0.693416 0)
(-1.02861 0.828661 0)
(-0.913884 0.932868 0)
(-0.786136 0.998549 0)
(-0.657725 1.02346 0)
(-0.54277 1.01764 0)
(-0.446211 0.995143 0)
(-0.367058 0.965382 0)
(-0.302706 0.933785 0)
(-0.250369 0.903099 0)
(-0.20761 0.874505 0)
(-0.172455 0.848377 0)
(-0.143369 0.824733 0)
(-0.119169 0.803458 0)
(-0.0989466 0.784418 0)
(-0.0820001 0.767503 0)
(-0.0677811 0.752633 0)
(-0.0558545 0.73976 0)
(-0.0458703 0.728857 0)
(-0.0375423 0.719912 0)
(-0.0306307 0.712919 0)
(-0.0249306 0.707875 0)
(-0.0202639 0.704771 0)
(-0.0164732 0.703598 0)
(-0.0134169 0.704337 0)
(-0.0109652 0.706961 0)
(-0.00899724 0.711424 0)
(-0.00739817 0.717651 0)
(-0.00605795 0.725506 0)
(-0.0048716 0.734733 0)
(-0.00372674 0.744804 0)
(-0.00300793 0.754261 0)
(-0.00147327 0.744845 0)
(-0.998939 -0.191682 0)
(-1.0518 -0.113138 0)
(-1.09614 -0.0180717 0)
(-1.12739 0.0924421 0)
(-1.14099 0.215753 0)
(-1.13281 0.347425 0)
(-1.1 0.480748 0)
(-1.0421 0.607014 0)
(-0.961941 0.716956 0)
(-0.864988 0.803442 0)
(-0.758714 0.862424 0)
(-0.652554 0.893816 0)
(-0.554762 0.903161 0)
(-0.469249 0.89805 0)
(-0.396496 0.884647 0)
(-0.335385 0.867147 0)
(-0.284265 0.848102 0)
(-0.241458 0.828946 0)
(-0.205483 0.810436 0)
(-0.175112 0.792962 0)
(-0.149354 0.776725 0)
(-0.127424 0.76184 0)
(-0.108698 0.748385 0)
(-0.0926779 0.736426 0)
(-0.0789612 0.726022 0)
(-0.0672184 0.717227 0)
(-0.0571743 0.710088 0)
(-0.0485948 0.704644 0)
(-0.0412763 0.700926 0)
(-0.0350391 0.698953 0)
(-0.0297222 0.698735 0)
(-0.0251792 0.70027 0)
(-0.0212748 0.703542 0)
(-0.0178824 0.708516 0)
(-0.0148821 0.715122 0)
(-0.0121597 0.723232 0)
(-0.00960901 0.732607 0)
(-0.0071321 0.74279 0)
(-0.00518241 0.752707 0)
(-0.00242343 0.740997 0)
(-0.924001 -0.134964 0)
(-0.96467 -0.0636113 0)
(-0.997831 0.0199137 0)
(-1.02005 0.114287 0)
(-1.02797 0.217164 0)
(-1.01864 0.324967 0)
(-0.990222 0.4328 0)
(-0.94262 0.534695 0)
(-0.878016 0.624637 0)
(-0.800627 0.697913 0)
(-0.716139 0.751919 0)
(-0.63088 0.786753 0)
(-0.550184 0.805375 0)
(-0.477145 0.812004 0)
(-0.412804 0.810542 0)
(-0.35698 0.804001 0)
(-0.308888 0.79449 0)
(-0.267544 0.783403 0)
(-0.231972 0.771644 0)
(-0.201297 0.759805 0)
(-0.174775 0.748287 0)
(-0.151787 0.737378 0)
(-0.131822 0.727298 0)
(-0.114458 0.718223 0)
(-0.0993448 0.710299 0)
(-0.0861851 0.703646 0)
(-0.0747247 0.69836 0)
(-0.0647412 0.694519 0)
(-0.0560376 0.692181 0)
(-0.048437 0.69139 0)
(-0.0417787 0.692174 0)
(-0.0359148 0.694545 0)
(-0.030708 0.698501 0)
(-0.026029 0.704015 0)
(-0.0217555 0.711024 0)
(-0.0177718 0.719409 0)
(-0.0139723 0.728957 0)
(-0.0102717 0.739294 0)
(-0.00710491 0.749665 0)
(-0.00320393 0.735511 0)
(-0.85251 -0.0913856 0)
(-0.88264 -0.0266758 0)
(-0.906179 0.0469118 0)
(-0.920666 0.128012 0)
(-0.923733 0.21461 0)
(-0.913477 0.303923 0)
(-0.888832 0.39242 0)
(-0.849978 0.476079 0)
(-0.798573 0.550982 0)
(-0.73762 0.614063 0)
(-0.671037 0.663606 0)
(-0.602996 0.699557 0)
(-0.537063 0.723417 0)
(-0.475591 0.737529 0)
(-0.419737 0.744301 0)
(-0.369794 0.745809 0)
(-0.325547 0.743683 0)
(-0.286527 0.739144 0)
(-0.252178 0.733087 0)
(-0.221946 0.726177 0)
(-0.195325 0.718911 0)
(-0.171865 0.71168 0)
(-0.151178 0.704792 0)
(-0.132928 0.698497 0)
(-0.116821 0.693001 0)
(-0.102601 0.688471 0)
(-0.0900391 0.685039 0)
(-0.0789312 0.682813 0)
(-0.0690908 0.681876 0)
(-0.0603479 0.682288 0)
(-0.0525461 0.684096 0)
(-0.0455398 0.687325 0)
(-0.0391927 0.691983 0)
(-0.033376 0.698052 0)
(-0.0279675 0.705476 0)
(-0.0228515 0.71415 0)
(-0.0179235 0.723884 0)
(-0.0131093 0.734387 0)
(-0.00877498 0.745129 0)
(-0.00381913 0.728623 0)
(-0.787498 -0.058649 0)
(-0.80939 -5.70737e-06 0)
(-0.825569 0.0651014 0)
(-0.834306 0.135395 0)
(-0.834008 0.20919 0)
(-0.823495 0.284363 0)
(-0.802212 0.358392 0)
(-0.770439 0.428545 0)
(-0.729405 0.492236 0)
(-0.681176 0.547425 0)
(-0.628377 0.592929 0)
(-0.573763 0.628554 0)
(-0.519755 0.65502 0)
(-0.468121 0.67361 0)
(-0.419924 0.685791 0)
(-0.375666 0.692964 0)
(-0.335455 0.696341 0)
(-0.299163 0.696926 0)
(-0.266542 0.695529 0)
(-0.237292 0.692798 0)
(-0.211104 0.68926 0)
(-0.187679 0.685344 0)
(-0.166741 0.681402 0)
(-0.148033 0.677724 0)
(-0.131322 0.674549 0)
(-0.116391 0.672073 0)
(-0.103042 0.670454 0)
(-0.0910892 0.669817 0)
(-0.0803624 0.670265 0)
(-0.0707021 0.671875 0)
(-0.0619595 0.674704 0)
(-0.0539947 0.67879 0)
(-0.0466755 0.684151 0)
(-0.0398763 0.690775 0)
(-0.0334771 0.698616 0)
(-0.0273638 0.707579 0)
(-0.021433 0.717498 0)
(-0.0156201 0.728154 0)
(-0.010209 0.739164 0)
(-0.00429989 0.720537 0)
(-0.729196 -0.0342351 0)
(-0.745015 0.0189486 0)
(-0.755924 0.0768657 0)
(-0.760722 0.138382 0)
(-0.758361 0.202123 0)
(-0.748131 0.266472 0)
(-0.729773 0.329617 0)
(-0.70358 0.389669 0)
(-0.670443 0.444875 0)
(-0.631773 0.493839 0)
(-0.589324 0.535698 0)
(-0.544936 0.570194 0)
(-0.500283 0.597626 0)
(-0.456684 0.618685 0)
(-0.415056 0.634262 0)
(-0.375951 0.645291 0)
(-0.339643 0.652657 0)
(-0.306211 0.657157 0)
(-0.275609 0.659482 0)
(-0.247717 0.660225 0)
(-0.222375 0.659889 0)
(-0.199406 0.658902 0)
(-0.178625 0.657624 0)
(-0.159845 0.656357 0)
(-0.142886 0.655353 0)
(-0.127569 0.65482 0)
(-0.113727 0.65493 0)
(-0.101197 0.655822 0)
(-0.0898259 0.657609 0)
(-0.0794677 0.660381 0)
(-0.0699843 0.664205 0)
(-0.0612444 0.669129 0)
(-0.0531225 0.675176 0)
(-0.0454981 0.682343 0)
(-0.0382556 0.69059 0)
(-0.0312837 0.699831 0)
(-0.024481 0.709923 0)
(-0.0177912 0.720702 0)
(-0.0114192 0.731883 0)
(-0.004673 0.711435 0)
(-0.676598 -0.0159468 0)
(-0.688083 0.0323818 0)
(-0.695367 0.084212 0)
(-0.697617 0.13857 0)
(-0.694145 0.194345 0)
(-0.684532 0.250305 0)
(-0.668676 0.305124 0)
(-0.646842 0.357463 0)
(-0.619673 0.406094 0)
(-0.588139 0.450027 0)
(-0.55343 0.48861 0)
(-0.5168 0.521567 0)
(-0.479429 0.548982 0)
(-0.442313 0.571217 0)
(-0.406211 0.588811 0)
(-0.37166 0.602386 0)
(-0.338998 0.612587 0)
(-0.308414 0.62003 0)
(-0.279983 0.625288 0)
(-0.253703 0.628876 0)
(-0.22952 0.631249 0)
(-0.207343 0.632808 0)
(-0.187056 0.633895 0)
(-0.168531 0.634805 0)
(-0.151632 0.635788 0)
(-0.136219 0.637054 0)
(-0.12215 0.638778 0)
(-0.109287 0.641108 0)
(-0.0974964 0.644162 0)
(-0.0866476 0.648038 0)
(-0.0766152 0.65281 0)
(-0.0672781 0.658533 0)
(-0.0585195 0.665236 0)
(-0.050226 0.672919 0)
(-0.0422876 0.68155 0)
(-0.0345971 0.69105 0)
(-0.0270564 0.701293 0)
(-0.0196172 0.71216 0)
(-0.0124142 0.723425 0)
(-0.00495684 0.701479 0)
(-0.628412 -0.00209065 0)
(-0.636839 0.041956 0)
(-0.641679 0.0886219 0)
(-0.642349 0.137087 0)
(-0.638392 0.18646 0)
(-0.629558 0.235792 0)
(-0.615824 0.284094 0)
(-0.597411 0.330389 0)
(-0.57479 0.37379 0)
(-0.54864 0.413568 0)
(-0.519785 0.449214 0)
(-0.489107 0.480468 0)
(-0.45746 0.507306 0)
(-0.425601 0.52991 0)
(-0.394158 0.548605 0)
(-0.363612 0.563811 0)
(-0.334313 0.575992 0)
(-0.306496 0.585624 0)
(-0.280302 0.593169 0)
(-0.255797 0.599061 0)
(-0.232993 0.603696 0)
(-0.211857 0.607431 0)
(-0.192329 0.610581 0)
(-0.174323 0.613419 0)
(-0.157741 0.616185 0)
(-0.142473 0.619081 0)
(-0.128408 0.622282 0)
(-0.11543 0.625935 0)
(-0.103423 0.630162 0)
(-0.0922747 0.635065 0)
(-0.0818723 0.640722 0)
(-0.0721069 0.647191 0)
(-0.0628711 0.654505 0)
(-0.05406 0.662669 0)
(-0.0455703 0.671653 0)
(-0.0373004 0.681385 0)
(-0.0291568 0.691752 0)
(-0.0210986 0.702668 0)
(-0.0132005 0.713939 0)
(-0.0051626 0.690821 0)
(-0.583542 0.00853706 0)
(-0.589793 0.0488305 0)
(-0.592985 0.0911013 0)
(-0.592702 0.134669 0)
(-0.58863 0.178817 0)
(-0.58062 0.222807 0)
(-0.568681 0.265887 0)
(-0.552995 0.307327 0)
(-0.533908 0.346463 0)
(-0.51191 0.382745 0)
(-0.487589 0.415769 0)
(-0.461583 0.4453 0)
(-0.434527 0.471268 0)
(-0.407007 0.493755 0)
(-0.379536 0.512959 0)
(-0.352533 0.529164 0)
(-0.326328 0.542706 0)
(-0.301164 0.553949 0)
(-0.277208 0.56326 0)
(-0.254561 0.570996 0)
(-0.233274 0.577492 0)
(-0.213354 0.583058 0)
(-0.194775 0.587974 0)
(-0.177488 0.592488 0)
(-0.161424 0.596822 0)
(-0.146502 0.601167 0)
(-0.132634 0.605691 0)
(-0.119727 0.610539 0)
(-0.107683 0.615831 0)
(-0.0964062 0.62167 0)
(-0.0857979 0.628135 0)
(-0.0757608 0.635286 0)
(-0.0661983 0.643158 0)
(-0.0570142 0.651756 0)
(-0.0481132 0.661055 0)
(-0.0394001 0.670986 0)
(-0.0307868 0.681446 0)
(-0.0222405 0.692374 0)
(-0.0137847 0.703582 0)
(-0.00529684 0.679614 0)
(-0.54124 0.0167638 0)
(-0.545907 0.053783 0)
(-0.547965 0.0923049 0)
(-0.547113 0.131769 0)
(-0.543129 0.171597 0)
(-0.535918 0.211209 0)
(-0.525504 0.250022 0)
(-0.512032 0.287479 0)
(-0.495764 0.323071 0)
(-0.47706 0.356374 0)
(-0.456354 0.387063 0)
(-0.434119 0.414934 0)
(-0.41084 0.439902 0)
(-0.386974 0.461993 0)
(-0.362939 0.481328 0)
(-0.339093 0.4981 0)
(-0.315729 0.512554 0)
(-0.293078 0.524964 0)
(-0.271309 0.535619 0)
(-0.250539 0.544808 0)
(-0.230838 0.552811 0)
(-0.212236 0.559892 0)
(-0.194734 0.566292 0)
(-0.178308 0.572236 0)
(-0.162913 0.577924 0)
(-0.148493 0.583532 0)
(-0.13498 0.589221 0)
(-0.122299 0.595126 0)
(-0.110373 0.601366 0)
(-0.0991187 0.608041 0)
(-0.0884515 0.61523 0)
(-0.0782862 0.622991 0)
(-0.0685366 0.631359 0)
(-0.0591158 0.640342 0)
(-0.0499367 0.649912 0)
(-0.0409114 0.660006 0)
(-0.0319584 0.670527 0)
(-0.0230524 0.681429 0)
(-0.0141747 0.692514 0)
(-0.00536457 0.668004 0)
(-0.501078 0.0231618 0)
(-0.504559 0.0573343 0)
(-0.505817 0.0926541 0)
(-0.504629 0.128659 0)
(-0.500832 0.164881 0)
(-0.494365 0.200858 0)
(-0.485255 0.236133 0)
(-0.47362 0.270272 0)
(-0.459659 0.302882 0)
(-0.443643 0.333626 0)
(-0.4259 0.362246 0)
(-0.40679 0.388566 0)
(-0.386685 0.412499 0)
(-0.365949 0.434044 0)
(-0.344918 0.453272 0)
(-0.323892 0.470314 0)
(-0.303125 0.485348 0)
(-0.282825 0.498581 0)
(-0.263152 0.510238 0)
(-0.244224 0.520553 0)
(-0.226119 0.529753 0)
(-0.208883 0.538062 0)
(-0.192531 0.545689 0)
(-0.177059 0.552831 0)
(-0.162442 0.559665 0)
(-0.148641 0.566356 0)
(-0.135607 0.57305 0)
(-0.123282 0.579875 0)
(-0.111604 0.586944 0)
(-0.100502 0.594351 0)