/*--------------------------------*- C++ -*----------------------------------*\
  =========                 |
  \\      /  F ield         | OpenFOAM: The Open Source CFD Toolbox
   \\    /   O peration     | Website:  https://openfoam.org
    \\  /    A nd           | Version:  9
     \\/     M anipulation  |
\*---------------------------------------------------------------------------*/
FoamFile
{
    format      ascii;
    class       volScalarField;
    location    "1250";
    object      epsilon;
}
// * * * * * * * * * * * * * * * * * * * * * * * * * * * * * * * * * * * * * //

dimensions      [0 2 -3 0 0 0 0];

internalField   nonuniform List<scalar> 
4000
(
4.16011e-07
3.39128e-07
2.31944e-07
1.13234e-07
3.66878e-08
2.39937e-08
1.8953e-08
1.52252e-08
1.33788e-08
1.22347e-08
1.18414e-08
1.17822e-08
1.23091e-08
1.4326e-08
1.85794e-08
2.49238e-08
5.19887e-08
1.47508e-07
2.51531e-07
3.34279e-07
5.23119e-07
4.53791e-07
3.49719e-07
2.39984e-07
1.72619e-07
1.09924e-07
3.36289e-08
2.57934e-08
2.33178e-08
2.40206e-08
2.39465e-08
2.26952e-08
2.30862e-08
2.49998e-08
8.42802e-08
1.6803e-07
2.35888e-07
3.22048e-07
4.1953e-07
4.70132e-07
5.86052e-07
5.29028e-07
4.24926e-07
3.21109e-07
2.33798e-07
1.62012e-07
1.08088e-07
5.73675e-08
3.19981e-08
3.49592e-08
3.4913e-08
3.15294e-08
4.43641e-08
9.63202e-08
1.50511e-07
2.29777e-07
3.27504e-07
4.20522e-07
5.04138e-07
5.41584e-07
6.23296e-07
5.86111e-07
4.91878e-07
3.81025e-07
2.7964e-07
1.98743e-07
1.4576e-07
1.11931e-07
8.73483e-08
7.76574e-08
7.63293e-08
8.43583e-08
1.04802e-07
1.39657e-07
1.96506e-07
2.80817e-07
3.84245e-07
4.85469e-07
5.62229e-07
5.82366e-07
6.49111e-07
6.37585e-07
5.74484e-07
4.95397e-07
4.21646e-07
3.62878e-07
3.19801e-07
2.88014e-07
2.65044e-07
2.50215e-07
2.50866e-07
2.64011e-07
2.84455e-07
3.14954e-07
3.58547e-07
4.18709e-07
4.90832e-07
5.61278e-07
6.11446e-07
6.09682e-07
6.70534e-07
6.90057e-07
6.7058e-07
6.3562e-07
5.98822e-07
5.62916e-07
5.29033e-07
4.97206e-07
4.68134e-07
4.44779e-07
4.51154e-07
4.78309e-07
5.05417e-07
5.33713e-07
5.63559e-07
5.94827e-07
6.24987e-07
6.5064e-07
6.59288e-07
6.31602e-07
6.9237e-07
7.45695e-07
7.70232e-07
7.7727e-07
7.75132e-07
7.63596e-07
7.42674e-07
7.1354e-07
6.78253e-07
6.42521e-07
6.54291e-07
6.97575e-07
7.31017e-07
7.54308e-07
7.67459e-07
7.70044e-07
7.62568e-07
7.45491e-07
7.11581e-07
6.53723e-07
7.17915e-07
8.07432e-07
8.75563e-07
9.22058e-07
9.52536e-07
9.66409e-07
9.62562e-07
9.3971e-07
8.98188e-07
8.45762e-07
8.63199e-07
9.25156e-07
9.64034e-07
9.78163e-07
9.70975e-07
9.45651e-07
9.03645e-07
8.46862e-07
7.7081e-07
6.79255e-07
7.53543e-07
8.8919e-07
1.00401e-06
1.09204e-06
1.15815e-06
1.20002e-06
1.21766e-06
1.20584e-06
1.15963e-06
1.08454e-06
1.10977e-06
1.19347e-06
1.23464e-06
1.2344e-06
1.2031e-06
1.14795e-06
1.06913e-06
9.70608e-07
8.49158e-07
7.14389e-07
8.08329e-07
9.91904e-07
1.157e-06
1.28752e-06
1.39366e-06
1.4765e-06
1.53273e-06
1.55472e-06
1.53309e-06
1.45704e-06
1.48733e-06
1.56144e-06
1.57499e-06
1.54039e-06
1.47056e-06
1.37482e-06
1.25757e-06
1.11898e-06
9.50075e-07
7.68386e-07
3.39128e-07
2.91921e-07
2.02827e-07
1.02416e-07
4.88643e-08
3.92834e-08
3.5553e-08
2.62731e-08
2.22627e-08
2.01323e-08
1.90646e-08
1.85631e-08
2.03402e-08
2.71958e-08
3.45179e-08
3.9651e-08
5.22411e-08
1.08476e-07
1.79142e-07
2.25644e-07
4.53791e-07
5.37225e-07
4.1344e-07
2.85029e-07
2.18036e-07
1.64234e-07
8.39353e-08
3.85133e-08
2.9348e-08
2.46101e-08
2.34221e-08
2.46365e-08
3.13789e-08
5.59605e-08
1.50799e-07
2.34392e-07
2.98329e-07
3.98278e-07
5.02738e-07
3.90956e-07
5.29028e-07
5.48445e-07
4.84301e-07
3.57645e-07
2.51273e-07
1.77883e-07
1.27236e-07
8.54038e-08
5.11372e-08
3.38161e-08
3.11887e-08
4.04798e-08
7.49481e-08
1.219e-07
1.70942e-07
2.45452e-07
3.43337e-07
4.52605e-07
5.16993e-07
4.70459e-07
5.86111e-07
5.39945e-07
4.78768e-07
3.78415e-07
2.70468e-07
1.93929e-07
1.42108e-07
1.03796e-07
7.4354e-08
5.36209e-08
5.05457e-08
6.84179e-08
9.80787e-08
1.36627e-07
1.92225e-07
2.74954e-07
3.84389e-07
4.64654e-07
5.09451e-07
5.30244e-07
6.37585e-07
5.747e-07
5.28222e-07
4.46432e-07
3.51218e-07
2.69099e-07
2.14964e-07
1.7333e-07
1.43595e-07
1.32295e-07
1.3165e-07
1.41547e-07
1.69045e-07
2.1166e-07
2.71574e-07
3.62171e-07
4.50103e-07
5.12253e-07
5.42411e-07
5.84778e-07
6.90057e-07
6.21408e-07
5.87021e-07
5.30636e-07
4.65958e-07
3.88338e-07
3.21632e-07
2.73715e-07
2.42784e-07
2.27573e-07
2.284e-07
2.44668e-07
2.78641e-07
3.29773e-07
4.00857e-07
4.79926e-07
5.29586e-07
5.6949e-07
5.86886e-07
6.40093e-07
7.45695e-07
6.72376e-07
6.43113e-07
6.04933e-07
5.7535e-07
5.34421e-07
4.67718e-07
4.01209e-07
3.52713e-07
3.24207e-07
3.30575e-07
3.69209e-07
4.24297e-07
4.94017e-07
5.56615e-07
5.84431e-07
5.99708e-07
6.24927e-07
6.34799e-07
6.97514e-07
8.07432e-07
7.48285e-07
7.33579e-07
7.13966e-07
7.14876e-07
7.12357e-07
6.90539e-07
6.50891e-07
5.96314e-07
5.38892e-07
5.56446e-07
6.36171e-07
6.92787e-07
7.24663e-07
7.3306e-07
7.20297e-07
7.02202e-07
7.10034e-07
7.06508e-07
7.59281e-07
8.8919e-07
9.22587e-07
9.79077e-07
1.01725e-06
1.05466e-06
1.07741e-06
1.08289e-06
1.05493e-06
9.75668e-07
8.52621e-07
8.91062e-07
1.03455e-06
1.10785e-06
1.11797e-06
1.09294e-06
1.05081e-06
9.93245e-07
9.39364e-07
8.73358e-07
8.39165e-07
9.91904e-07
1.21785e-06
1.4287e-06
1.60689e-06
1.76426e-06
1.89984e-06
2.00489e-06
2.06061e-06
2.04658e-06
1.94886e-06
1.99695e-06
2.09219e-06
2.09179e-06
2.01505e-06
1.88908e-06
1.73486e-06
1.56257e-06
1.37557e-06
1.16301e-06
9.42703e-07
2.31944e-07
2.02827e-07
1.35309e-07
7.32499e-08
5.50661e-08
5.00926e-08
4.49015e-08
3.40292e-08
2.9054e-08
2.67186e-08
2.55068e-08
2.46548e-08
2.72933e-08
3.61304e-08
4.73869e-08
4.99804e-08
4.98909e-08
6.48253e-08
1.0192e-07
1.21999e-07
3.49719e-07
4.1344e-07
3.38086e-07
2.64374e-07
2.2099e-07
1.67753e-07
8.89212e-08
4.86449e-08
3.68341e-08
3.07979e-08
2.91991e-08
3.12842e-08
3.95818e-08
6.22478e-08
1.48289e-07
2.38146e-07
2.9005e-07
3.35929e-07
3.73553e-07
2.79382e-07
4.24926e-07
4.84301e-07
4.32023e-07
3.29824e-07
2.45077e-07
1.8165e-07
1.37225e-07
9.73517e-08
6.18582e-08
4.17041e-08
3.77553e-08
5.0803e-08
8.6111e-08
1.32803e-07
1.73029e-07
2.34731e-07
3.06152e-07
3.83005e-07
4.23754e-07
3.74347e-07
4.91878e-07
4.78768e-07
4.22188e-07
3.40265e-07
2.52023e-07
1.8638e-07
1.40696e-07
1.06422e-07
7.95482e-08
5.78424e-08
5.35266e-08
7.47998e-08
1.03364e-07
1.37227e-07
1.83735e-07
2.50912e-07
3.35373e-07
4.00388e-07
4.33898e-07
4.31365e-07
5.74484e-07
5.28222e-07
4.57581e-07
3.74863e-07
2.86271e-07
2.14616e-07
1.66836e-07
1.30569e-07
1.00677e-07
7.96285e-08
7.75882e-08
9.76429e-08
1.26654e-07
1.6421e-07
2.15605e-07
2.89231e-07
3.70018e-07
4.34552e-07
4.86837e-07
5.13271e-07
6.7058e-07
5.87021e-07
5.05836e-07
4.20015e-07
3.37269e-07
2.61903e-07
2.04916e-07
1.62888e-07
1.31914e-07
1.16411e-07
1.1629e-07
1.32939e-07
1.64931e-07
2.09109e-07
2.68921e-07
3.42511e-07
4.10759e-07
4.79167e-07
5.47299e-07
6.12995e-07
7.70232e-07
6.43113e-07
5.59425e-07
4.57228e-07
3.73838e-07
3.09151e-07
2.54118e-07
2.08895e-07
1.77369e-07
1.6126e-07
1.63442e-07
1.84572e-07
2.19698e-07
2.66819e-07
3.21575e-07
3.78192e-07
4.42713e-07
5.22393e-07
5.97e-07
7.147e-07
8.75563e-07
7.33579e-07
6.74885e-07
5.61129e-07
4.38788e-07
3.961e-07
3.5482e-07
3.11565e-07
2.67605e-07
2.32646e-07
2.41112e-07
2.84626e-07
3.29195e-07
3.68576e-07
4.03076e-07
4.36647e-07
5.36092e-07
6.19459e-07
6.76338e-07
8.18874e-07
1.00401e-06
9.79077e-07
1.07372e-06
1.15654e-06
1.21671e-06
1.21209e-06
1.20926e-06
1.171e-06
1.0343e-06
8.35816e-07
8.92796e-07
1.12376e-06
1.24667e-06
1.25062e-06
1.2193e-06
1.1912e-06
1.09386e-06
9.94851e-07
9.07576e-07
9.42893e-07
1.157e-06
1.4287e-06
1.68304e-06
1.90667e-06
2.11377e-06
2.30263e-06
2.46204e-06
2.5595e-06
2.55856e-06
2.43405e-06
2.50188e-06
2.62172e-06
2.59945e-06
2.47148e-06
2.28386e-06
2.07061e-06
1.84512e-06
1.61355e-06
1.36127e-06
1.09911e-06
1.13234e-07
1.02416e-07
7.32499e-08
6.10951e-08
6.03428e-08
5.8449e-08
4.9034e-08
3.88417e-08
3.41878e-08
3.28539e-08
3.208e-08
3.01778e-08
3.29018e-08
4.11357e-08
5.46759e-08
5.68706e-08
5.36591e-08
4.95593e-08
4.80789e-08
3.7774e-08
2.39984e-07
2.85029e-07
2.64374e-07
2.36959e-07
2.02187e-07
1.42909e-07
7.71316e-08
5.05793e-08
4.08425e-08
3.64299e-08
3.53264e-08
3.57326e-08
4.28846e-08
5.89207e-08
1.14827e-07
2.02236e-07
2.6257e-07
2.87436e-07
2.83996e-07
2.08354e-07
3.21109e-07
3.57645e-07
3.29824e-07
2.72542e-07
2.16907e-07
1.69419e-07
1.34858e-07
9.57004e-08
6.36233e-08
4.75241e-08
4.37902e-08
5.3896e-08
8.27192e-08
1.28366e-07
1.61794e-07
2.05213e-07
2.5441e-07
2.9417e-07
3.05661e-07
2.81019e-07
3.81025e-07
3.78415e-07
3.40265e-07
2.82885e-07
2.21438e-07
1.71729e-07
1.35023e-07
1.06813e-07
8.29457e-08
6.21334e-08
5.69846e-08
7.83451e-08
1.05647e-07
1.32911e-07
1.67526e-07
2.13752e-07
2.67585e-07
3.08389e-07
3.27797e-07
3.20804e-07
4.95397e-07
4.46432e-07
3.74863e-07
3.05787e-07
2.38771e-07
1.84067e-07
1.45491e-07
1.16213e-07
9.06145e-08
6.7352e-08
6.38578e-08
8.76278e-08
1.1356e-07
1.43209e-07
1.81597e-07
2.32622e-07
2.89482e-07
3.41601e-07
3.95132e-07
4.28654e-07
6.3562e-07
5.30636e-07
4.20015e-07
3.36373e-07
2.65094e-07
2.05405e-07
1.6099e-07
1.26756e-07
9.74073e-08
7.51491e-08
7.47508e-08
9.72062e-08
1.2676e-07
1.61602e-07
2.05539e-07
2.59324e-07
3.1728e-07
3.86603e-07
4.87864e-07
5.74074e-07
7.7727e-07
6.04933e-07
4.57228e-07
3.56292e-07
2.83215e-07
2.27716e-07
1.8537e-07
1.51309e-07
1.22611e-07
1.02665e-07
1.05296e-07
1.26452e-07
1.55114e-07
1.893e-07
2.29519e-07
2.75525e-07
3.31338e-07
4.14632e-07
5.64303e-07
7.18197e-07
9.22058e-07
7.13966e-07
5.61129e-07
4.37808e-07
3.86934e-07
3.60685e-07
3.4193e-07
3.17544e-07
2.73257e-07
2.20353e-07
2.34759e-07
2.87989e-07
3.22764e-07
3.39376e-07
3.50671e-07
3.64397e-07
3.95055e-07
4.86594e-07
6.59819e-07
8.6035e-07
1.09204e-06
1.01725e-06
1.15654e-06
1.29348e-06
1.4122e-06
1.55924e-06
1.68735e-06
1.71559e-06
1.54157e-06
1.23973e-06
1.32556e-06
1.64579e-06
1.77657e-06
1.70143e-06
1.52932e-06
1.3386e-06
1.16008e-06
1.03644e-06
9.32227e-07
1.02281e-06
1.28752e-06
1.60689e-06
1.90667e-06
2.18017e-06
2.44983e-06
2.71145e-06
2.94532e-06
3.10764e-06
3.1444e-06
3.02607e-06
3.11012e-06
3.22122e-06
3.15308e-06
2.95268e-06
2.68351e-06
2.39144e-06
2.10071e-06
1.82234e-06
1.5296e-06
1.22326e-06
3.66878e-08
4.88643e-08
5.50661e-08
6.03428e-08
6.32069e-08
6.01369e-08
4.96628e-08
4.18251e-08
3.82916e-08
3.85401e-08
3.85883e-08
3.52405e-08
3.72368e-08
4.3853e-08
5.41928e-08
6.09983e-08
5.61884e-08
4.92047e-08
3.82074e-08
2.21016e-08
1.72619e-07
2.18036e-07
2.2099e-07
2.02187e-07
1.6046e-07
1.05263e-07
6.4117e-08
4.93499e-08
4.25546e-08
4.06246e-08
4.09179e-08
3.86237e-08
4.34804e-08
5.53338e-08
8.06738e-08
1.38748e-07
2.0239e-07
2.36512e-07
2.27725e-07
1.49196e-07
2.33798e-07
2.51273e-07
2.45077e-07
2.16907e-07
1.82264e-07
1.51125e-07
1.21003e-07
8.52985e-08
6.09013e-08
4.99601e-08
4.79925e-08
5.31343e-08
7.32968e-08
1.11539e-07
1.45767e-07
1.71574e-07
2.02881e-07
2.25331e-07
2.23289e-07
2.01928e-07
2.7964e-07
2.70468e-07
2.52023e-07
2.21438e-07
1.848e-07
1.51923e-07
1.24461e-07
1.02039e-07
8.11586e-08
6.38979e-08
5.98877e-08
7.60687e-08
1.01056e-07
1.23981e-07
1.48375e-07
1.76532e-07
2.06437e-07
2.26219e-07
2.28966e-07
2.23906e-07
4.21646e-07
3.51218e-07
2.86271e-07
2.38771e-07
1.95071e-07
1.57887e-07
1.29253e-07
1.06903e-07
8.76752e-08
7.1243e-08
6.86461e-08
8.57644e-08
1.05655e-07
1.27622e-07
1.54123e-07
1.85757e-07
2.18896e-07
2.50124e-07
2.93226e-07
3.52444e-07
5.98822e-07
4.65958e-07
3.37269e-07
2.65094e-07
2.12138e-07
1.69637e-07
1.36965e-07
1.1115e-07
8.90193e-08
7.3062e-08
7.20917e-08
8.79574e-08
1.09982e-07
1.35356e-07
1.65552e-07
2.0087e-07
2.4119e-07
2.98837e-07
4.14518e-07
5.3505e-07
7.75132e-07
5.75351e-07
3.73838e-07
2.83215e-07
2.28773e-07
1.88957e-07
1.58808e-07
1.35089e-07
1.15212e-07
1.02915e-07
1.03458e-07
1.14882e-07
1.3369e-07
1.56628e-07
1.83521e-07
2.14827e-07
2.57033e-07
3.37533e-07
5.339e-07
7.14302e-07
9.52536e-07
7.14876e-07
4.38788e-07
3.86934e-07
3.77452e-07
3.76765e-07
3.78571e-07
3.68159e-07
3.25569e-07
2.64824e-07
2.76768e-07
3.33875e-07
3.63917e-07
3.63972e-07
3.53698e-07
3.42959e-07
3.42043e-07
3.94915e-07
6.62609e-07
8.88296e-07
1.15815e-06
1.05466e-06
1.21671e-06
1.4122e-06
1.73933e-06
2.05122e-06
2.30722e-06
2.36986e-06
2.10006e-06
1.62645e-06
1.72649e-06
2.22483e-06
2.4348e-06
2.29702e-06
2.00062e-06
1.63231e-06
1.26074e-06
1.04994e-06
9.63032e-07
1.0841e-06
1.39366e-06
1.76426e-06
2.11377e-06
2.44983e-06
2.80987e-06
3.16953e-06
3.5013e-06
3.75125e-06
3.85442e-06
3.77259e-06
3.87415e-06
3.94715e-06
3.80691e-06
3.51107e-06
3.13837e-06
2.74292e-06
2.3582e-06
2.01967e-06
1.68107e-06
1.32555e-06
2.39937e-08
3.92834e-08
5.00926e-08
5.8449e-08
6.01369e-08
5.52565e-08
4.88646e-08
4.40866e-08
4.19969e-08
4.44977e-08
4.56159e-08
4.00914e-08
4.0313e-08
4.43606e-08
4.98267e-08
5.46775e-08
5.41926e-08
4.64316e-08
3.38181e-08
1.79865e-08
1.09924e-07
1.64234e-07
1.67753e-07
1.42909e-07
1.05263e-07
7.19819e-08
5.48911e-08
4.75618e-08
4.39545e-08
4.58759e-08
4.86119e-08
4.21087e-08
4.34662e-08
5.16087e-08
6.28066e-08
8.39325e-08
1.18801e-07
1.48577e-07
1.46043e-07
7.20814e-08
1.62012e-07
1.77883e-07
1.8165e-07
1.69419e-07
1.51125e-07
1.28866e-07
9.89715e-08
7.23201e-08
5.68304e-08
5.21956e-08
5.28615e-08
5.18354e-08
6.34877e-08
8.89157e-08
1.20972e-07
1.43832e-07
1.5817e-07
1.6659e-07
1.5888e-07
1.3341e-07
1.98743e-07
1.93929e-07
1.8638e-07
1.71729e-07
1.51923e-07
1.30906e-07
1.10956e-07
9.24924e-08
7.52417e-08
6.45715e-08
6.298e-08
7.07955e-08
9.07576e-08
1.11686e-07
1.29007e-07
1.46255e-07
1.60947e-07
1.68292e-07
1.64332e-07
1.54404e-07
3.62878e-07
2.69099e-07
2.14616e-07
1.84067e-07
1.57887e-07
1.34041e-07
1.13787e-07
9.74746e-08
8.43961e-08
7.63964e-08
7.55792e-08
8.34673e-08
9.7222e-08
1.1304e-07
1.31132e-07
1.50613e-07
1.69478e-07
1.89024e-07
2.25756e-07
2.93875e-07
5.62916e-07
3.88338e-07
2.61903e-07
2.05405e-07
1.69637e-07
1.41258e-07
1.18269e-07
1.00034e-07
8.67145e-08
8.37605e-08
8.33872e-08
8.56082e-08
9.86063e-08
1.16025e-07
1.36381e-07
1.59012e-07
1.85179e-07
2.27822e-07
3.32777e-07
4.97961e-07
7.63596e-07
5.34421e-07
3.09151e-07
2.27716e-07
1.88957e-07
1.63018e-07
1.43431e-07
1.29023e-07
1.2032e-07
1.2525e-07
1.22941e-07
1.16691e-07
1.24493e-07
1.3788e-07
1.54571e-07
1.74508e-07
2.04685e-07
2.74416e-07
4.74987e-07
7.01626e-07
9.66409e-07
7.12357e-07
3.961e-07
3.60685e-07
3.76765e-07
4.01746e-07
4.2429e-07
4.23575e-07
3.75447e-07
3.0892e-07
3.14436e-07
3.78039e-07
4.13609e-07
4.01776e-07
3.70976e-07
3.38208e-07
3.18747e-07
3.57629e-07
6.59262e-07
9.01672e-07
1.20002e-06
1.07741e-06
1.21209e-06
1.55924e-06
2.05122e-06
2.52299e-06
2.90841e-06
2.99761e-06
2.56746e-06
1.90935e-06
1.99332e-06
2.70202e-06
3.07226e-06
2.8872e-06
2.45689e-06
1.92964e-06
1.41187e-06
1.0519e-06
9.9128e-07
1.12551e-06
1.4765e-06
1.89984e-06
2.30263e-06
2.71145e-06
3.16953e-06
3.6403e-06
4.09214e-06
4.46471e-06
4.68675e-06
4.71502e-06
4.83932e-06
4.79973e-06
4.53703e-06
4.11258e-06
3.61417e-06
3.10416e-06
2.62063e-06
2.20822e-06
1.81559e-06
1.40701e-06
1.8953e-08
3.55531e-08
4.49015e-08
4.9034e-08
4.96628e-08
4.88646e-08
4.74543e-08
4.58935e-08
4.59962e-08
5.21728e-08
5.4881e-08
4.54089e-08
4.27283e-08
4.33765e-08
4.4145e-08
4.39716e-08
4.21083e-08
3.76406e-08
2.88897e-08
1.38196e-08
3.36289e-08
8.39353e-08
8.89212e-08
7.71316e-08
6.4117e-08
5.48911e-08
4.96009e-08
4.65925e-08
4.69845e-08
5.80995e-08
6.61834e-08
4.89577e-08
4.44158e-08
4.80959e-08
5.33985e-08
5.90839e-08
6.52831e-08
7.01447e-08
6.12588e-08
2.57648e-08
1.08088e-07
1.27236e-07
1.37225e-07
1.34858e-07
1.21003e-07
9.89715e-08
7.687e-08
6.1375e-08
5.47005e-08
6.37354e-08
7.06749e-08
5.39109e-08
5.63593e-08
7.03835e-08
9.07978e-08
1.12056e-07
1.25442e-07
1.2767e-07
1.15529e-07
8.64384e-08
1.4576e-07
1.42108e-07
1.40696e-07
1.35023e-07
1.24461e-07
1.10956e-07
9.58665e-08
8.02603e-08
6.99774e-08
7.98085e-08
8.6562e-08
6.86387e-08
7.81437e-08
9.57922e-08
1.10336e-07
1.21157e-07
1.27978e-07
1.28118e-07
1.19386e-07
1.06406e-07
3.19801e-07
2.14964e-07
1.66836e-07
1.45491e-07
1.29253e-07
1.13787e-07
9.95655e-08
8.79199e-08
8.22977e-08
1.02695e-07
1.11304e-07
8.33116e-08
8.80647e-08
9.92299e-08
1.11736e-07
1.24007e-07
1.34888e-07
1.4677e-07
1.75202e-07
2.47133e-07
5.29033e-07
3.21632e-07
2.04916e-07
1.6099e-07
1.36965e-07
1.18269e-07
1.02472e-07
9.05432e-08
8.85015e-08
1.27422e-07
1.35101e-07
8.85596e-08
8.93206e-08
1.00304e-07
1.13849e-07
1.28451e-07
1.45925e-07
1.79322e-07
2.76162e-07
4.64365e-07
7.42674e-07
4.67718e-07
2.54118e-07
1.8537e-07
1.58808e-07
1.43431e-07
1.32314e-07
1.25699e-07
1.31249e-07
1.91618e-07
1.91092e-07
1.25999e-07
1.19578e-07
1.2506e-07
1.33841e-07
1.4524e-07
1.65559e-07
2.21684e-07
4.00039e-07
6.81387e-07
9.62562e-07
6.90539e-07
3.5482e-07
3.4193e-07
3.78571e-07
4.2429e-07
4.61132e-07
4.5905e-07
4.00112e-07
3.74459e-07
3.72995e-07
3.97828e-07
4.47828e-07
4.35462e-07
3.88542e-07
3.37896e-07
3.01225e-07
3.20923e-07
6.409e-07
8.99713e-07
1.21766e-06
1.08289e-06
1.20926e-06
1.68735e-06
2.30722e-06
2.90841e-06
3.39837e-06
3.43913e-06
2.78356e-06
2.31969e-06
2.372e-06
2.89543e-06
3.54103e-06
3.39137e-06
2.81979e-06
2.17294e-06
1.54655e-06
1.07214e-06
1.00575e-06
1.14518e-06
1.53273e-06
2.00489e-06
2.46204e-06
2.94532e-06
3.5013e-06
4.09214e-06
4.68957e-06
5.23957e-06
5.6908e-06
6.0293e-06
6.1975e-06
5.82963e-06
5.33418e-06
4.72839e-06
4.07749e-06
3.4444e-06
2.86211e-06
2.37083e-06
1.92206e-06
1.46376e-06
1.52252e-08
2.62731e-08
3.40292e-08
3.88418e-08
4.18251e-08
4.40866e-08
4.58935e-08
4.76477e-08
5.10731e-08
6.21205e-08
6.73158e-08
5.2441e-08
4.58124e-08
4.28392e-08
4.02852e-08
3.71228e-08
3.31875e-08
2.82192e-08
2.1274e-08
1.2229e-08
2.57934e-08
3.85133e-08
4.86449e-08
5.05793e-08
4.93499e-08
4.75618e-08
4.65925e-08
4.77911e-08
5.57967e-08
9.08895e-08
1.10534e-07
6.49545e-08
4.91426e-08
4.6254e-08
4.70214e-08
4.7913e-08
4.75841e-08
4.37422e-08
3.39404e-08
2.39681e-08
5.73675e-08
8.54038e-08
9.73517e-08
9.57004e-08
8.52984e-08
7.23201e-08
6.1375e-08
5.54726e-08
6.50048e-08
1.75286e-07
2.09009e-07
7.19735e-08
5.46176e-08
5.83171e-08
6.75726e-08
7.86606e-08
8.76263e-08
8.89547e-08
7.64842e-08
4.17088e-08
1.11931e-07
1.03796e-07
1.06422e-07
1.06813e-07
1.02039e-07
9.24924e-08
8.02603e-08
7.07691e-08
8.67143e-08
3.11276e-07
3.75366e-07
9.55581e-08
7.04096e-08
7.93755e-08
9.10657e-08
9.90102e-08
1.01311e-07
9.67808e-08
8.46767e-08
7.02659e-08
2.88014e-07
1.7333e-07
1.30569e-07
1.16213e-07
1.06903e-07
9.74746e-08
8.79199e-08
8.21417e-08
1.14311e-07
5.17423e-07
6.12847e-07
1.26543e-07
8.28748e-08
8.71916e-08
9.51716e-08
1.01937e-07
1.06587e-07
1.11767e-07
1.33599e-07
2.09917e-07
4.97206e-07
2.73715e-07
1.62888e-07
1.26756e-07
1.1115e-07
1.00034e-07
9.05432e-08
8.75097e-08
1.41603e-07
7.44339e-07
8.5999e-07
1.52605e-07
8.66082e-08
8.82253e-08
9.58077e-08
1.0365e-07
1.13874e-07
1.4055e-07
2.32301e-07
4.33243e-07
7.1354e-07
4.01209e-07
2.08895e-07
1.51309e-07
1.35089e-07
1.29023e-07
1.25699e-07
1.30484e-07
2.12362e-07
9.81574e-07
1.0754e-06
2.13553e-07
1.22595e-07
1.16639e-07
1.18156e-07
1.21584e-07
1.33405e-07
1.80646e-07
3.43085e-07
6.54764e-07
9.3971e-07
6.50891e-07
3.11565e-07
3.17544e-07
3.68159e-07
4.23575e-07
4.5905e-07
4.46256e-07
4.47484e-07
1.10041e-06
1.15624e-06
4.40955e-07
4.32509e-07
4.33891e-07
3.86343e-07
3.26681e-07
2.78144e-07
2.84542e-07
6.0182e-07
8.80646e-07
1.20584e-06
1.05493e-06
1.171e-06
1.71559e-06
2.36986e-06
2.99761e-06
3.43913e-06
3.2912e-06
2.91313e-06
3.96678e-06
4.07137e-06
2.93974e-06
3.38746e-06
3.47506e-06
2.92295e-06
2.24467e-06
1.58339e-06
1.05135e-06
9.89698e-07
1.13837e-06
1.55472e-06
2.06061e-06
2.5595e-06
3.10764e-06
3.75125e-06
4.46471e-06
5.23957e-06
6.0686e-06
6.99893e-06
8.10168e-06
8.3771e-06
7.17039e-06
6.18294e-06
5.29885e-06
4.46704e-06
3.70825e-06
3.03569e-06
2.47602e-06
1.98335e-06
1.48907e-06
1.33788e-08
2.22627e-08
2.9054e-08
3.41878e-08
3.82916e-08
4.19969e-08
4.59962e-08
5.10731e-08
5.76921e-08
7.03854e-08
7.61507e-08
6.13691e-08
5.21788e-08
4.52862e-08
4.01069e-08
3.54183e-08
3.07036e-08
2.54139e-08
1.91918e-08
1.16668e-08
2.33178e-08
2.9348e-08
3.68341e-08
4.08424e-08
4.25546e-08
4.39545e-08
4.69845e-08
5.57967e-08
9.09675e-08
5.80338e-07
7.08169e-07
1.08296e-07
6.33407e-08
4.95469e-08
4.45114e-08
4.15722e-08
3.85529e-08
3.32542e-08
2.54971e-08
2.21651e-08
3.19981e-08
5.11372e-08
6.18582e-08
6.36233e-08
6.09013e-08
5.68304e-08
5.47005e-08
6.50048e-08
2.20233e-07
2.52089e-06
2.74759e-06
2.51953e-07
6.97463e-08
5.4203e-08
5.42864e-08
5.67438e-08
5.81813e-08
5.50934e-08
4.23138e-08
2.77115e-08
8.73483e-08
7.4354e-08
7.95482e-08
8.29457e-08
8.11586e-08
7.52417e-08
6.99774e-08
8.67143e-08
4.32642e-07
4.78383e-06
5.18576e-06
4.97699e-07
9.16752e-08
6.92208e-08
7.33127e-08
7.80703e-08
7.85281e-08
7.29353e-08
5.9572e-08
4.39012e-08
2.65044e-07
1.43595e-07
1.00677e-07
9.06145e-08
8.76752e-08
8.43961e-08
8.22977e-08
1.14311e-07
7.43236e-07
7.43105e-06
8.0307e-06
8.32188e-07
1.19027e-07
8.09347e-08
8.18532e-08
8.32992e-08
8.24089e-08
8.33928e-08
1.04557e-07
1.85451e-07
4.68134e-07
2.42784e-07
1.31914e-07
9.74073e-08
8.90193e-08
8.67145e-08
8.85015e-08
1.41603e-07
1.08243e-06
9.93735e-06
1.06879e-05
1.19384e-06
1.42511e-07
8.50824e-08
8.27637e-08
8.3075e-08
8.67915e-08
1.1183e-07
2.04579e-07
4.05651e-07
6.78254e-07
3.52713e-07
1.77369e-07
1.22611e-07
1.15212e-07
1.2032e-07
1.31249e-07
2.12362e-07
1.41856e-06
1.13485e-05
1.21107e-05
1.51718e-06
2.0026e-07
1.18013e-07
1.07605e-07
1.0208e-07
1.0719e-07
1.53736e-07
3.07787e-07
6.22828e-07
8.98188e-07
5.96314e-07
2.67605e-07
2.73257e-07
3.25569e-07
3.75447e-07
4.00112e-07
4.47484e-07
1.52853e-06
1.06949e-05
1.13635e-05
1.59103e-06
4.24997e-07
3.74834e-07
3.42257e-07
2.89027e-07
2.40245e-07
2.49159e-07
5.46859e-07
8.44073e-07
1.15963e-06
9.75668e-07
1.0343e-06
1.54157e-06
2.10006e-06
2.56746e-06
2.78356e-06
2.91313e-06
4.28864e-06
9.24669e-06
9.62256e-06
4.34125e-06
2.92867e-06
2.84182e-06
2.55553e-06
2.02802e-06
1.44792e-06
9.40893e-07
9.24752e-07
1.09882e-06
1.53309e-06
2.04658e-06
2.55856e-06
3.1444e-06
3.85442e-06
4.68675e-06
5.6908e-06
6.99893e-06
8.83551e-06
1.12298e-05
1.17001e-05
9.06536e-06
7.1243e-06
5.76117e-06
4.70493e-06
3.82842e-06
3.08758e-06
2.48599e-06
1.97668e-06
1.47143e-06
1.22347e-08
2.01323e-08
2.67186e-08
3.28539e-08
3.85401e-08
4.44977e-08
5.21728e-08
6.21205e-08
7.03854e-08
7.77964e-08
8.48341e-08
7.56869e-08
6.70657e-08
5.44463e-08
4.47273e-08
3.7496e-08
3.10494e-08
2.4762e-08
1.8676e-08
1.15639e-08
2.40206e-08
2.46101e-08
3.07979e-08
3.64299e-08
4.06246e-08
4.58759e-08
5.80995e-08
9.08895e-08
5.80338e-07
8.83522e-07
9.81495e-07
6.83453e-07
1.08008e-07
6.73693e-08
5.00289e-08
4.18287e-08
3.54241e-08
2.83561e-08
2.20756e-08
2.22289e-08
3.49592e-08
3.38161e-08
4.17041e-08
4.75241e-08
4.996e-08
5.21956e-08
6.37353e-08
1.75286e-07
2.52089e-06
2.08005e-06
2.20571e-06
2.66458e-06
1.91876e-07
6.77308e-08
5.24923e-08
4.81993e-08
4.3846e-08
3.71095e-08
2.93903e-08
3.00952e-08
7.76574e-08
5.36209e-08
5.78424e-08
6.21334e-08
6.38979e-08
6.45715e-08
7.98085e-08
3.11276e-07
4.78383e-06
3.67333e-06
3.78565e-06
4.95931e-06
3.32506e-07
8.09698e-08
6.36589e-08
6.22271e-08
5.96115e-08
5.38212e-08
4.70989e-08
3.6866e-08
2.50215e-07
1.32295e-07
7.96285e-08
6.7352e-08
7.1243e-08
7.63964e-08
1.02695e-07
5.17424e-07
7.43106e-06
5.65635e-06
5.72457e-06
7.62293e-06
5.25593e-07
1.01475e-07
7.54407e-08
7.01577e-08
6.35065e-08
6.51749e-08
9.61801e-08
1.75125e-07
4.44779e-07
2.27573e-07
1.16411e-07
7.51491e-08
7.3062e-08
8.37605e-08
1.27422e-07
7.44339e-07
9.93736e-06
7.88677e-06
7.89673e-06
1.01497e-05
7.37476e-07
1.20668e-07
8.06823e-08
7.00604e-08
6.71445e-08
9.83324e-08
1.92807e-07
3.84777e-07
6.42522e-07
3.24207e-07
1.6126e-07
1.02665e-07
1.02915e-07
1.2525e-07
1.91618e-07
9.81574e-07
1.13485e-05
9.98071e-06
9.93595e-06
1.15303e-05
9.41157e-07
1.69913e-07
1.11886e-07
9.2085e-08
9.02679e-08
1.41124e-07
2.88705e-07
5.90559e-07
8.45762e-07
5.38892e-07
2.32646e-07
2.20353e-07
2.64824e-07
3.0892e-07
3.74459e-07
1.10041e-06
1.06949e-05
1.11862e-05
1.11298e-05
1.07742e-05
1.03365e-06
3.4153e-07
2.81858e-07
2.38461e-07
1.97469e-07
2.19432e-07
4.89411e-07
7.95839e-07
1.08454e-06
8.52621e-07
8.35816e-07
1.23973e-06
1.62645e-06
1.90935e-06
2.31969e-06
3.96678e-06
9.24669e-06
1.13337e-05
1.13729e-05
9.27634e-06
3.95065e-06
2.31216e-06
1.90821e-06
1.59995e-06
1.18851e-06
7.62806e-07
8.10607e-07
1.02825e-06
1.45704e-06
1.94886e-06
2.43406e-06
3.02607e-06
3.77259e-06
4.71503e-06
6.02931e-06
8.10169e-06
1.12298e-05
1.28056e-05
1.3257e-05
1.1474e-05
8.2123e-06
6.08008e-06
4.72887e-06
3.753e-06
2.97909e-06
2.36827e-06
1.88283e-06
1.3974e-06
1.18414e-08
1.90646e-08
2.55068e-08
3.208e-08
3.85883e-08
4.56159e-08
5.4881e-08
6.73158e-08
7.61507e-08
8.48341e-08
8.49341e-08
7.50652e-08
6.4924e-08
5.29234e-08
4.37485e-08
3.69162e-08
3.07927e-08
2.47167e-08
1.86552e-08
1.15403e-08
2.39465e-08
2.34221e-08
2.91991e-08
3.53264e-08
4.09179e-08
4.86119e-08
6.61834e-08
1.10534e-07
7.0817e-07
9.81495e-07
9.69271e-07
6.63498e-07
1.05161e-07
6.69447e-08
4.96369e-08
4.15245e-08
3.53572e-08
2.84735e-08
2.23368e-08
2.2364e-08
3.4913e-08
3.11887e-08
3.77553e-08
4.37902e-08
4.79925e-08
5.28615e-08
7.06749e-08
2.09009e-07
2.74759e-06
2.20571e-06
2.18033e-06
2.59744e-06
1.95931e-07
7.0758e-08
5.28762e-08
4.7333e-08
4.22543e-08
3.63842e-08
2.98825e-08
3.19609e-08
7.63293e-08
5.05457e-08
5.35266e-08
5.69846e-08
5.98877e-08
6.298e-08
8.6562e-08
3.75366e-07
5.18576e-06
3.78565e-06
3.77258e-06
4.93872e-06
3.60879e-07
8.77119e-08
6.2607e-08
5.83069e-08
5.43644e-08
5.03908e-08
4.70095e-08
4.34605e-08
2.50866e-07
1.3165e-07
7.75882e-08
6.38578e-08
6.86461e-08
7.55792e-08
1.11304e-07
6.12847e-07
8.03071e-06
5.72457e-06
5.76953e-06
7.76992e-06
6.07506e-07
1.15424e-07
7.65376e-08
6.83535e-08
5.9964e-08
6.46963e-08
1.02336e-07
1.9301e-07
4.51154e-07
2.284e-07
1.1629e-07
7.47508e-08
7.20917e-08
8.33872e-08
1.35101e-07
8.5999e-07
1.06879e-05
7.89673e-06
8.04e-06
1.04517e-05
8.70644e-07
1.4092e-07
8.36664e-08
6.9009e-08
6.58033e-08
1.01102e-07
2.01121e-07
4.03532e-07
6.54291e-07
3.30575e-07
1.63442e-07
1.05296e-07
1.03458e-07
1.22941e-07
1.91092e-07
1.0754e-06
1.21107e-05
9.93595e-06
1.01894e-05
1.19217e-05
1.11018e-06
1.99745e-07
1.21818e-07
9.71954e-08
9.38326e-08
1.45773e-07
2.97336e-07
6.14056e-07
8.63199e-07
5.56446e-07
2.41112e-07
2.34759e-07
2.76768e-07
3.14436e-07
3.72995e-07
1.15624e-06
1.13635e-05
1.11298e-05
1.14646e-05
1.12338e-05
1.19006e-06
3.70061e-07
2.9962e-07
2.58104e-07
2.14513e-07
2.29019e-07
5.17694e-07
8.25563e-07
1.10977e-06
8.91062e-07
8.92796e-07
1.32556e-06
1.72649e-06
1.99332e-06
2.372e-06
4.07137e-06
9.62256e-06
1.13729e-05
1.17721e-05
9.54695e-06
4.06775e-06
2.36495e-06
1.92497e-06
1.65785e-06
1.26748e-06
8.36546e-07
8.59057e-07
1.0693e-06
1.48733e-06
1.99695e-06
2.50188e-06
3.11012e-06
3.87415e-06
4.83932e-06
6.1975e-06
8.3771e-06
1.17001e-05
1.3257e-05
1.3902e-05
1.19873e-05
8.5478e-06
6.2938e-06
4.87084e-06
3.86832e-06
3.08382e-06
2.46437e-06
1.95789e-06
1.45051e-06
1.17822e-08
1.85631e-08
2.46548e-08
3.01778e-08
3.52405e-08
4.00914e-08
4.54089e-08
5.24409e-08
6.13691e-08
7.56869e-08
7.50652e-08
5.92902e-08
5.14488e-08
4.54826e-08
4.08245e-08
3.64675e-08
3.17103e-08
2.60601e-08
1.93845e-08
1.16638e-08
2.26952e-08
2.46365e-08
3.12842e-08
3.57326e-08
3.86237e-08
4.21087e-08
4.89577e-08
6.49545e-08
1.08296e-07
6.83453e-07
6.63498e-07
9.93527e-08
6.04873e-08
4.85169e-08
4.34922e-08
4.06083e-08
3.77262e-08
3.24859e-08
2.49701e-08
2.21299e-08
3.15294e-08
4.04798e-08
5.0803e-08
5.3896e-08
5.31343e-08
5.18354e-08
5.39109e-08
7.19735e-08
2.51953e-07
2.66458e-06
2.59744e-06
2.43973e-07
7.04249e-08
5.34913e-08
5.0871e-08
5.13548e-08
5.14975e-08
4.77607e-08
3.80053e-08
3.12772e-08
8.43583e-08
6.84179e-08
7.47997e-08
7.83451e-08
7.60687e-08
7.07955e-08
6.86387e-08
9.55581e-08
4.97699e-07
4.95931e-06
4.93872e-06
4.98087e-07
9.71594e-08
6.59057e-08
6.54958e-08
6.97327e-08
7.24471e-08
6.98379e-08
5.94715e-08
5.59079e-08
2.64011e-07
1.41547e-07
9.76429e-08
8.76278e-08
8.57644e-08
8.34673e-08
8.33116e-08
1.26543e-07
8.32189e-07
7.62293e-06
7.76992e-06
8.91317e-07
1.35537e-07
8.22349e-08
8.03827e-08
8.13159e-08
8.00918e-08
8.46853e-08
1.16855e-07
2.18039e-07
4.78309e-07
2.44668e-07
1.32939e-07
9.72062e-08
8.79574e-08
8.56082e-08
8.85596e-08
1.52605e-07
1.19384e-06
1.01497e-05
1.04517e-05
1.31116e-06
1.69455e-07
8.94996e-08
8.25344e-08
8.14121e-08
8.62788e-08
1.17126e-07
2.19298e-07
4.36386e-07
6.97575e-07
3.69209e-07
1.84572e-07
1.26452e-07
1.14882e-07
1.16691e-07
1.25999e-07
2.13553e-07
1.51718e-06
1.15304e-05
1.19217e-05
1.67846e-06
2.41068e-07
1.3163e-07
1.16428e-07
1.09315e-07
1.14786e-07
1.65014e-07
3.29051e-07
6.60619e-07
9.25156e-07
6.36171e-07
2.84626e-07
2.87989e-07
3.33875e-07
3.78039e-07
3.97828e-07
4.40955e-07
1.59103e-06
1.07742e-05
1.12338e-05
1.73711e-06
4.58618e-07
3.95973e-07
3.78063e-07
3.3294e-07
2.79577e-07
2.73619e-07
5.99582e-07
8.90866e-07
1.19347e-06
1.03455e-06
1.12376e-06
1.64579e-06
2.22483e-06
2.70202e-06
2.89543e-06
2.93974e-06
4.34125e-06
9.27634e-06
9.54695e-06
4.47634e-06
2.9465e-06
2.75207e-06
2.61533e-06
2.21366e-06
1.6496e-06
1.10281e-06
1.0062e-06
1.15974e-06
1.56144e-06
2.09219e-06
2.62172e-06
3.22122e-06
3.94715e-06
4.79973e-06
5.82963e-06
7.17039e-06
9.06537e-06
1.1474e-05
1.19873e-05
9.36662e-06
7.33179e-06
5.89512e-06
4.82352e-06
3.95488e-06
3.21743e-06
2.60554e-06
2.0691e-06
1.53529e-06
1.23091e-08
2.03402e-08
2.72933e-08
3.29018e-08
3.72368e-08
4.0313e-08
4.27283e-08
4.58124e-08
5.21788e-08
6.70657e-08
6.4924e-08
5.14488e-08
4.67306e-08
4.47542e-08
4.30513e-08
4.05061e-08
3.65005e-08
3.05191e-08
2.21003e-08
1.21991e-08
2.30862e-08
3.13789e-08
3.95818e-08
4.28846e-08
4.34804e-08
4.34662e-08
4.44158e-08
4.91426e-08
6.33407e-08
1.08008e-07
1.05161e-07
6.04873e-08
4.70887e-08
4.44737e-08
4.49758e-08
4.55458e-08
4.50088e-08
4.16397e-08
3.21733e-08
2.21859e-08
4.43641e-08
7.49481e-08
8.6111e-08
8.27192e-08
7.32968e-08
6.34877e-08
5.63593e-08
5.46176e-08
6.97463e-08
1.91876e-07
1.95931e-07
7.04249e-08
5.27508e-08
5.32892e-08
5.85452e-08
6.554e-08
7.2299e-08
7.41991e-08
6.41201e-08
3.46422e-08
1.04802e-07
9.80787e-08
1.03364e-07
1.05647e-07
1.01056e-07
9.07576e-08
7.81437e-08