/*--------------------------------*- C++ -*----------------------------------*\
  =========                 |
  \\      /  F ield         | OpenFOAM: The Open Source CFD Toolbox
   \\    /   O peration     | Website:  https://openfoam.org
    \\  /    A nd           | Version:  9
     \\/     M anipulation  |
\*---------------------------------------------------------------------------*/
FoamFile
{
    format      ascii;
    class       surfaceScalarField;
    location    "1250";
    object      phi;
}
// * * * * * * * * * * * * * * * * * * * * * * * * * * * * * * * * * * * * * //

dimensions      [1 0 -1 0 0 0 0];

internalField   nonuniform List<scalar> 
11200
(
0.00275566
-0.00551129
0.00275566
0.003027
-0.00230912
0.0020378
0.000982233
0.00105272
0.000992119
-0.00128623
0.00210572
0.000162669
-0.002029
0.000705522
3.72503e-05
-0.00210034
5.92307e-05
1.21189e-05
-0.00153025
-0.000662547
9.25049e-05
-0.0010167
-0.000579414
6.59234e-05
-0.000479166
-0.000605366
6.78955e-05
4.63288e-05
-0.000564723
3.929e-05
0.000467554
-0.000478352
5.71751e-05
0.000781775
-0.000409832
9.56504e-05
0.00104921
-0.000355631
8.82292e-05
0.00143355
-0.000425736
4.14105e-05
0.00138192
6.20649e-05
-1.044e-05
0.000963835
0.00051083
-9.27341e-05
7.22935e-06
0.000973515
-1.69328e-05
-0.00160704
0.00137278
0.000241569
-0.00191459
-0.000902088
0.00120965
-0.00378564
0.00187108
0.00198106
-0.0094734
0.00198106
0.00340396
-0.00565574
0.00192373
0.00416288
-0.00139304
0.00168679
0.00391332
0.000921611
0.00143358
0.00219167
0.00135692
0.00107019
0.000178953
0.00128882
0.000783113
-0.000915329
0.000209859
0.000221892
-0.000902864
-0.000442705
-0.000149145
-0.000533751
-0.000632412
-0.000342026
-3.83057e-05
-0.000557714
-0.000502417
0.000472898
-0.000446811
-0.000542716
0.000844343
-0.000353131
-0.000428127
0.000992231
-0.000275522
-0.000227985
0.000266438
0.000281511
1.85559e-05
-0.00163457
0.00126015
0.000702931
-0.00366818
0.0013699
0.00117448
-0.00462958
0.000144638
0.00179019
-0.00380096
-0.00171004
0.00225413
-0.00209721
-0.00499883
0.00239299
-0.00825296
0.00237011
0.00118027
-0.0118339
0.00118027
0.00216659
-0.00816089
0.00151885
0.00333324
-0.00422835
0.00166867
0.00385872
-0.00123065
0.00162675
0.00342752
0.000377501
0.0014106
0.00264645
0.000921007
0.00114887
0.00128658
0.000708566
0.000861158
0.00010702
0.000274608
0.000462257
-0.000386846
5.23183e-05
-0.000190859
-0.000266142
-4.71234e-05
-0.000631287
6.15961e-05
-9.33246e-05
-0.000681216
1.99002e-05
3.04804e-05
-0.00034191
-0.000884701
0.000307634
0.000321451
-0.00227177
0.000827598
0.000840974
-0.00316857
0.0010395
0.00111743
-0.00362279
0.000424721
0.0013994
-0.00353546
-0.00164761
0.00170491
-0.00260974
-0.00459351
0.00195775
-0.00138833
-0.00808376
0.00186353
-0.0111088
0.00146748
0.00059566
-0.0130252
0.00059566
0.000746543
-0.00956074
0.00124897
0.000957217
-0.00600775
0.00156873
0.00125946
-0.00334304
0.00181016
0.0013745
-0.00158192
0.00184436
0.00125623
-0.000638366
0.00167763
0.000805508
-0.000278941
0.00143821
0.000129988
-0.000177296
0.00112741
-0.000342767
-0.000174186
0.000699255
-0.000356347
-0.000232666
0.000199124
-0.000233562
-0.000323348
0.000107245
-0.000595438
-0.000260104
0.000652465
-0.00129256
-0.000144029
0.00114877
-0.00170104
-0.000214215
0.00145028
-0.00172625
-0.000586551
0.00165124
-0.00144819
-0.00162979
0.00177645
-0.00121225
-0.0036347
0.00175115
-0.00108907
-0.0063276
0.00161091
-0.000813945
-0.00969319
0.00133431
-0.0125866
0.000663893
0.000143683
-0.0133126
0.000143683
-0.000316425
-0.0101828
0.00108219
-0.000708431
-0.00714775
0.00153201
-0.000905273
-0.00497331
0.00182712
-0.000967666
-0.00352653
0.00200702
-0.000923957
-0.00264959
0.00196751
-0.000831206
-0.00215056
0.00177887
-0.000703737
-0.00187661
0.00157185
-0.0005166
-0.0017593
0.00139798
-0.00029549
-0.00172851
0.00127474
-3.00379e-05
-0.00184402
0.00125522
0.000166287
-0.00185827
0.00140185
0.0003456
-0.00194365
0.00162031
0.000498792
-0.00221402
0.00184661
0.000636379
-0.00273004
0.0020059
0.000681307
-0.00366039
0.00198568
0.000484852
-0.00520087
0.00176263
4.12221e-05
-0.00737331
0.00148935
-0.000376976
-0.0103049
0.00102993
-0.0130343
7.07565e-05
-0.000200651
-0.0129113
-0.000200651
-0.00104768
-0.0102651
0.000929322
-0.00171075
-0.00786382
0.00137914
-0.00205372
-0.00624019
0.00160984
-0.00208812
-0.00518566
0.00169353
-0.00190346
-0.00452093
0.00168669
-0.00155358
-0.00409137
0.00159092
-0.00110751
-0.00381029
0.00148761
-0.000643693
-0.00365109
0.00142797
-0.000197299
-0.00357385
0.00139895
0.000291374
-0.00371888
0.00138619
0.000806705
-0.00380793
0.00143432
0.00130213
-0.00396499
0.00152591
0.00168679
-0.00424608
0.0016474
0.00190454
-0.00467633
0.00172854
0.00189734
-0.00534499
0.0016918
0.00154222
-0.00641157
0.00156582
0.000854265
-0.00801078
0.00132542
4.4537e-05
-0.0103328
0.000837629
-0.0127013
-0.000288431
-0.000508534
-0.0118942
-0.000508534
-0.00164277
-0.00980605
0.000675198
-0.00249096
-0.00804663
0.00103101
-0.00290541
-0.00697668
0.00115093
-0.00289259
-0.00632271
0.00112423
-0.00256802
-0.00590916
0.00106366
-0.0020256
-0.0056384
0.0010046
-0.00136613
-0.00544541
0.000975646
-0.000704121
-0.0053116
0.000998491
-0.000102832
-0.00521846
0.00104332
0.000520237
-0.00536228
0.00102032
0.00122557
-0.00548628
0.000973011
0.00191561
-0.00562584
0.00097081
0.00246914
-0.00581323
0.00101362
0.00279967
-0.00606962
0.00106276
0.00281129
-0.00646312
0.00110651
0.0023812
-0.00710006
0.00111858
0.00150542
-0.00812957
0.000994567
0.000387353
-0.00981664
0.000601889
-0.011733
-0.000581041
-0.000954018
-0.00998617
-0.000954018
-0.00234919
-0.00841031
-5.78125e-07
-0.00334278
-0.00729967
0.000246626
-0.00379105
-0.00672114
0.000192725
-0.00370837
-0.00639924
-6.14572e-06
-0.00324808
-0.0062227
-0.000146776
-0.00252004
-0.00611237
-0.000254077
-0.00164254
-0.00600947
-0.000313445
-0.000772104
-0.00589424
-0.000287815
-4.41038e-05
-0.00576466
-0.000181816
0.000704008
-0.00588811
-0.000222294
0.00160579
-0.00604644
-0.00034164
0.00249631
-0.0061648
-0.000351567
0.00322035
-0.00625915
-0.000278136
0.00367052
-0.00635187
-0.000167927
0.00374438
-0.00649992
-3.70801e-05
0.0032878
-0.0067907
0.000147205
0.00226179
-0.00733644
0.000232874
0.000874109
-0.00838823
-4.07352e-05
-0.00986576
-0.000993086
-0.00175438
-0.00647741
-0.00175438
-0.00343949
-0.00557679
-0.00114842
-0.00448308
-0.00512387
-0.00113222
-0.00488135
-0.00501719
-0.00130569
-0.00471888
-0.00503784
-0.00152388
-0.00412479
-0.00512356
-0.00169324
-0.00320243
-0.00520774
-0.001827
-0.00207077
-0.00524883
-0.00189231
-0.000918746
-0.00521441
-0.00183186
8.32959e-06
-0.00510479
-0.00158696
0.000961799
-0.00517845
-0.00166315
0.00212376
-0.00529786
-0.00191056
0.00324433
-0.00532809
-0.0019573
0.00414571
-0.00527825
-0.0018823
0.00471888
-0.0051812
-0.00174386
0.00486916
-0.00507841
-0.0015718
0.00445692
-0.00504149
-0.00133698
0.00339303
-0.00513083
-0.00114173
0.00170308
-0.0055547
-0.00114359
-0.00639909
-0.0017636
-0.00323871
-0.00323871
-0.00531337
-0.00350213
-0.00632807
-0.00410919
-0.00662306
-0.00472221
-0.00633995
-0.00532097
-0.0055823
-0.00588123
-0.00442896
-0.0063611
-0.0029683
-0.00670951
-0.00133785
-0.00684489
9.65162e-05
-0.00653918
0.00153606
-0.00661801
0.00313284
-0.00689465
0.00455378
-0.00674906
0.00566409
-0.00638857
0.00638468
-0.00590181
0.00664043
-0.00533418
0.00632131
-0.00472239
0.00528145
-0.00409099
0.00319055
-0.00346381
-0.00320855
0.0020378
-0.00230912
0.00302701
0.00215808
-0.000240512
0.00215808
0.000530935
0.00188399
0.000735338
-0.000983188
0.00176234
-8.55979e-05
-0.00152241
0.000614555
-3.80983e-05
-0.00158704
5.95892e-05
1.7164e-05
-0.00116796
-0.000501276
0.000174733
-0.000724601
-0.000599875
0.0002225
-0.000304315
-0.000576138
0.000223811
7.18901e-05
-0.000514696
0.000177837
0.000337064
-0.000390644
0.000182683
0.000517424
-0.000316889
0.000232205
0.00069568
-0.000307419
0.000217413
0.000966001
-0.00035676
0.000127862
0.000890112
6.92601e-05
-3.82839e-06
0.000617412
0.000357247
-0.000177275
0.000205356
0.000628515
-0.000233397
-0.000613283
0.00126556
-0.000205353
-0.00103141
0.00120802
0.000419813
-0.000130878
0.000970546
0.00192373
-0.00565574
0.00340396
0.00338835
-0.00316974
0.00338835
0.00423294
-0.000375617
0.00310174
0.00384261
0.00111108
0.00247508
0.00244673
0.00137676
0.00170381
0.000953265
0.0012399
0.00109625
-8.59139e-05
0.000293029
0.000466778
-0.000361299
-0.000483499
9.89412e-06
-0.000240143
-0.000795344
-0.000243935
-9.16274e-06
-0.000780367
-0.000467686
0.000265204
-0.000671687
-0.000536009
0.000433462
-0.000543992
-0.000369262
0.000336655
-0.000329024
-0.000109563
-0.000452503
0.000232073
0.00021889
-0.00188126
0.00125298
0.000947961
-0.00346405
0.00148221
0.00163227
-0.00435848
0.000705502
0.00260756
-0.00378285
-0.00065026
0.00359422
-0.00206468
-0.0022185
0.00410127
-0.00385978
0.00403434
0.00151885
-0.00816089
0.00216659
0.00293091
-0.00599387
0.00293091
0.00411563
-0.00306772
0.00317606
0.0044587
-0.000492395
0.00288713
0.00389731
0.00100406
0.00234467
0.00308716
0.00134817
0.00185074
0.00191488
0.000955976
0.00137049
0.000851745
0.000315572
0.000726324
0.000102009
-0.000242419
5.96729e-06
-0.000133835
-0.000562837
-0.000612956
-0.000155531
-0.000602975
-0.000728215
-0.000550467
-0.000253228
-0.000237727
-0.00144471
0.000344276
0.000542402
-0.00266696
0.00102936
0.00126592
-0.00354451
0.00144849
0.00179947
-0.00411538
0.00114243
0.00231005
-0.00407666
-0.000581949
0.00295363
-0.00319658
-0.00307471
0.00350212
-0.00168897
-0.00541339
0.00355081
-0.00702453
0.00294325
0.00124897
-0.00956074
0.000746543
0.00202926
-0.00755443
0.00202926
0.0025328
-0.00464598
0.00264346
0.00287754
-0.00183347
0.00280649
0.00285854
0.000219167
0.00264826
0.00243577
0.00110886
0.00233971
0.00178133
0.00110542
0.0019432
0.000977692
0.000814931
0.00143169
0.000236926
0.000492165
0.000705446
-0.000201255
0.000208883
-0.000134404
-0.000527276
0.000138243
-0.000307941
-0.00115934
0.000459377
0.000571933
-0.00197656
0.000890585
0.00141968
-0.00263596
0.00118672
0.00195231
-0.00304356
0.00115361
0.00235371
-0.00298646
0.000201017
0.00266076
-0.0026847
-0.00198687
0.0028543
-0.00224012
-0.00470304
0.00279467
-0.0013732
-0.00720357
0.00225756
-0.00879284
0.00105901
0.00108219
-0.0101828
-0.000316425
0.00138076
-0.00815157
0.00138076
0.00127737
-0.00528345
0.00227289
0.00108608
-0.00247142
0.00265637
0.000968452
-0.000435658
0.00277948
0.000797641
0.000643478
0.0026037
0.000456613
0.000971755
0.00225356
7.20698e-05
0.000962085
0.00180924
-0.00019949
0.000839444
0.00132227
-0.000272135
0.000725882
0.000830392
-0.000324204
0.000673047
0.000772499
-0.000600764
0.000821026
0.00131676
-0.000950705
0.000995109
0.00186573
-0.00125705
0.00101218
0.0023275
-0.00137992
0.000625819
0.00265657
-0.00140561
-0.000580519
0.00279291
-0.00156728
-0.00269316
0.00263059
-0.00163011
-0.00540518
0.00225432
-0.00122584
-0.00793152
0.00135361
-0.00965388
-0.000294041
0.000929322
-0.0102651
-0.00104768
0.00088772
-0.00806836
0.00088772
0.000428837
-0.00535984
0.00191442
1.42695e-05
-0.00281031
0.0023633
-0.000227162
-0.00103253
0.00253184
-0.000302011
-6.48856e-05
0.0024699
-0.000395038
0.000449449
0.00220626
-0.000463395
0.000634426
0.00188363
-0.000432507
0.00065471
0.00158182
-0.000252969
0.000614304
0.00133099
-6.72261e-05
0.000549826
0.00132367
-3.40249e-05
0.00060456
0.00161759
-9.32671e-05
0.00061792
0.00196234
-0.000154763
0.000430608
0.00229046
-0.000187004
-0.000123141
0.00250974
-0.000376256
-0.00119785
0.00249839
-0.000781073
-0.00299326
0.00227073
-0.00115673
-0.00551154
0.00180744
-0.00107689
-0.0079323
0.00075857
-0.00989983
-0.00111938
0.000675198
-0.00980605
-0.00164277
0.000345728
-0.00740941
0.000345728
-0.00031553
-0.00505926
0.00139169
-0.000759013
-0.0030757
0.00185981
-0.000979915
-0.00168967
0.00200227
-0.00100131
-0.000903864
0.00192404
-0.000859216
-0.000465617
0.00177758
-0.000661197
-0.00020956
0.00162162
-0.000443857
-5.8841e-05
0.0014947
-0.000229765
5.38477e-05
0.00138969
-9.96124e-06
-4.20608e-05
0.00139241
0.000232725
-0.000193871
0.00152876
0.000450647
-0.000308139
0.00167895
0.000614233
-0.000547093
0.00182773
0.000632532
-0.000997328
0.00191865
0.000432646
-0.00180424
0.00191278
3.42175e-05
-0.00318462
0.00170837
-0.000588161
-0.00515779
0.00126319
-0.000805808
-0.00733521
0.000222435
-0.00957177
-0.00171491
-5.78117e-07
-0.00841031
-0.00234919
-0.00054577
-0.00631903
-0.00054577
-0.00128248
-0.00448631
0.000410387
-0.00169489
-0.00321781
0.000747229
-0.00182083
-0.00234725
0.000777374
-0.00171354
-0.00183588
0.000677944
-0.00141885
-0.00154519
0.0005308
-0.00100754
-0.0013662
0.000431867
-0.000559018
-0.00122638
0.000431198
-0.000160633
-0.00104255
0.000516191
0.000230033
-0.00112792
0.000472891
0.000678987
-0.00135718
0.000372711
0.0011001
-0.00148331
0.000402489
0.00140484
-0.00164396
0.000513976
0.00153224
-0.00192162
0.000628963
0.00143318
-0.00242037
0.000678103
0.00105606
-0.00326539
0.00060509
0.000331946
-0.00451383
0.000313025
-0.000117318
-0.0062796
-0.000647088
-0.00829085
-0.00239133
-0.00114842
-0.00557679
-0.00343949
-0.00227054
-0.0040748
-0.00227054
-0.00304787
-0.00311081
-0.0017304
-0.00333963
-0.0025999
-0.00163185
-0.00316907
-0.00230634
-0.00173537
-0.00275066
-0.0021699
-0.00177764
-0.00214429
-0.00208163
-0.00189694
-0.0014201
-0.00198311
-0.00199959
-0.000694604
-0.00183755
-0.0019462
-8.83528e-05
-0.0015539
-0.00168187
0.000528761
-0.00162458
-0.00178361
0.00124596
-0.00192372
-0.00206123
0.00196063
-0.00206072
-0.00209457
0.00256325
-0.00214655
-0.00198235
0.00298483
-0.00221969
-0.00186738
0.003173
-0.00233691
-0.00184344
0.00290369
-0.00261502
-0.00171805
0.00215209
-0.0031164
-0.00178756
0.00108841
-0.00406057
-0.00229895
-0.00552312
-0.00344294
-0.00350213
-0.00531337
-0.00553954
-0.00553954
-0.00651675
-0.00624281
-0.0067878
-0.00705109
-0.00652323
-0.0078919
-0.00583222
-0.00874217
-0.00477688
-0.0094981
-0.00340664
-0.0100629
-0.00177245
-0.0103166
0.000109779
-0.00997534
0.00194738
-0.0100802
0.00352044
-0.0103914
0.00483584
-0.0101252
0.00584341
-0.00954271
0.00649963
-0.00877775
0.00674596
-0.00791744
0.0064684
-0.00705987
0.00549119
-0.0062302
0.00346514
-0.00549836
-0.00526654
0.000992119
0.00105272
0.000982234
0.000735337
0.00188399
0.000530936
-0.000228878
0.00192844
-0.000228877
-0.000944473
0.00106858
-0.00043863
-0.00118104
0.000407907
-0.000209451
-0.00119782
2.7818e-05
6.11002e-06
-0.000825644
-0.000475416
0.000277999
-0.000460237
-0.000579766
0.000436917
-0.000140591
-0.000572798
0.000477027
9.81051e-05
-0.000490099
0.000429292
0.000215516
-0.000349965
0.000415266
0.000274639
-0.000271419
0.000444519
0.00036633
-0.000269638
0.000395373
0.000586594
-0.000350135
0.000257741
0.000579242
-2.93522e-05
3.28494e-05
0.000437317
0.00021605
-0.000251401
0.00030905
0.00035405
-0.000459173
8.16852e-05
0.000653489
-0.000631496
-0.000159969
0.00132596
-0.000664538
0.00171279
-0.000902273
0.00168679
-0.00139304
0.00416288
0.00310174
-0.000375617
0.00423294
0.00370985
0.000712134
0.00370985
0.0032217
0.00124771
0.00278401
0.00212819
0.00137818
0.001827
0.000987986
0.00113218
0.00113208
0.000212668
0.000217459
0.000549232
-3.05731e-05
-0.000540111
0.000213508
-2.377e-05
-0.000864357
4.08614e-05
4.42802e-05
-0.000868708
-0.000157087
0.000144385
-0.000745395
-0.000240654
0.000193374
-0.000602053
-8.75972e-05
0.000119989
-0.000417599
0.000111793
-0.000444612
9.62194e-05
0.000337142
-0.00144703
0.00101684
0.000904197
-0.00267497
0.00153603
0.00154021
-0.00343966
0.00121721
0.00250904
-0.00320189
0.000396218
0.00361363
-0.00187954
-0.000304452
0.00440924
-0.000712852
0.00458036
0.00166867
-0.00422836
0.00333324
0.00317606
-0.00306772
0.00411563
0.00422148
-0.00137873
0.00422148
0.00442124
0.000238856
0.00369618
0.00388429
0.00132632
0.00293345
0.00310138
0.0014818
0.00228402
0.00203206
0.000987616
0.00166965
0.001052
0.000203631
0.000962641
0.000375653
-0.000493657
0.000311636
-7.91092e-06
-0.000843614
-0.000254465
-0.000234408
-0.000837105
-0.00040999
-0.000628258
-0.000498503
5.25847e-05
-0.00142433
0.000190674
0.000730204
-0.00250312
0.000981787
0.00145914
-0.00335702
0.00152671
0.0021435
-0.00386432
0.00156539
0.00278799
-0.00381716
0.000572186
0.00355149
-0.003065
-0.00106851
0.00421467
-0.00172493
-0.00247036
0.00437665
-0.00337502
0.00388048
0.00156873
-0.00600775
0.000957217
0.00264346
-0.00464598
0.0025328
0.00338427
-0.00286035
0.00338427
0.00372756
-0.000811774
0.00351383
0.0036195
0.00086065
0.00322199
0.00309697
0.00155541
0.00278862
0.00236522
0.001381
0.00228156
0.00149489
0.000816013
0.00168965
0.000636189
0.000200459
0.000870039
-2.9353e-05
-0.000284002
-2.84602e-05
-0.000594671
-0.000338521
-0.000241193
-0.00135313
0.000177751
0.000654144
-0.00224529
0.0008909
0.00161161
-0.00300955
0.00143809
0.00226026
-0.00355961
0.00162399
0.00280647
-0.00365568
0.00103566
0.00328657
-0.00331001
-0.000540568
0.00362139
-0.00265392
-0.00249151
0.00356158
-0.00163316
-0.00402982
0.00279626
-0.00529973
0.00135056
0.00153201
-0.00714775
-0.000708431
0.00227289
-0.00528345
0.00127737
0.00254339
-0.00340135
0.00254339
0.00255863
-0.0012662
0.00309556
0.00242173
0.000573805
0.00320322
0.0020548
0.00154254
0.00298351
0.00148511
0.00162642
0.00257783
0.00081482
0.00126326
0.00203228
0.000190494
0.000812623
0.00133443
-0.000189683
0.000455176
0.000471402
-0.00050261
0.00040928
0.000337637
-0.001099
0.000825573
0.00126534
-0.00175598
0.00135392
0.0020597
-0.00233917
0.00170523
0.00264355
-0.0027063
0.00157869
0.00306899
-0.0027948
0.000621531
0.00329554
-0.00272932
-0.00113933
0.00316388
-0.00244074
-0.00308729
0.00256152
-0.00166263
-0.0047307
0.00127638
-0.00660268
-0.000653718
0.00137914
-0.00786382
-0.00171075
0.00191442
-0.00535984
0.000428837
0.00188757
-0.00334764
0.00188757
0.00160194
-0.00121443
0.00259715
0.00133774
0.000460772
0.00290909
0.00103328
0.00146972
0.00284718
0.000648566
0.00167294
0.00254445
0.000228826
0.00146484
0.0021018
-9.9028e-05
0.00116943
0.00155288
-0.000214325
0.000945118
0.000956353
-0.00032747
0.000907637
0.000938468
-0.000669179
0.00119359
0.00159129
-0.00109736
0.00155902
0.00218541
-0.00148673
0.00175149
0.00263357
-0.00178111
0.00147723
0.00290558
-0.00201037
0.000442864
0.00290632
-0.00224085
-0.00116374
0.00252562
-0.00218332
-0.00309114
0.00175376
-0.00153049
-0.00490871
0.000283751
-0.00748773
-0.00176482
0.00103101
-0.00804663
-0.00249096
0.00139169
-0.00505926
-0.00031553
0.00123454
-0.00303335
0.00123455
0.000856073
-0.000997239
0.00202109
0.000509854
0.000479485
0.00232978
0.000295334
0.0012755
0.00233279
0.000115125
0.00148969
0.00214104
-6.07713e-05
0.00140427
0.00185808
-0.000189675
0.00125369
0.00153935
-0.000219186
0.00115615
0.00120818
-0.000287021
0.0011312
0.00123669
-0.000449234
0.00127618
0.00160838
-0.000631776
0.00147829
0.00194222
-0.000811238
0.0015624
0.00219629
-0.00101975
0.00129555
0.00230884
-0.00134312
0.000485052
0.00219396
-0.00164162
-0.00095668
0.00179981
-0.00168941
-0.0028068
0.00102664
-0.00116338
-0.00477146
-0.000440838
-0.00782065
-0.00254538
0.000246626
-0.00729967
-0.00334278
0.000410387
-0.00448631
-0.00128248
9.28791e-05
-0.00239833
9.28792e-05
-0.000107983
-0.000905925
0.000856777
-0.000153753
4.7081e-05
0.00125555
-0.000194608
0.000733706
0.00126059
-0.000194597
0.000902029
0.00111845
-0.000184753
0.000881134
0.000945157
-0.000166307
0.000853732
0.000812707
-0.000249772
0.00101823
0.00073757
-0.000349978
0.000966948
0.000737348
-0.000347934
0.000819424
0.000827423
-0.000338026
0.000903756
0.000967119
-0.000331899
0.000959217
0.00111103
-0.000364657
0.000786622
0.00117065
-0.000365365
0.000102472
0.00106139
-0.000518047
-0.000827918
0.000629007
-0.000654675
-0.00226324
-9.39146e-05
-0.000354272
-0.00435383
-0.00136514
-0.00719907
-0.0033672
-0.00113222
-0.00512387
-0.00448308
-0.0017304
-0.00311081
-0.00304787
-0.00201134
-0.00183645
-0.00201134
-0.00199869
-0.00108838
-0.00146206
-0.00166171
-0.000565391
-0.00145988
-0.00114398
-0.000189688
-0.00137198
-0.000705611
-1.87227e-05
-0.00141457
-0.000409337
9.85063e-05
-0.00151324
-0.000248425
0.00025385
-0.00150723
-0.000206421
0.000600144
-0.00130579
-0.000190031
0.000550202
-0.00138326
-5.92728e-05
0.000207157
-0.00157973
0.000245778
6.58372e-05
-0.00156171
0.000711714
-2.71737e-05
-0.0014619
0.00126807
-0.000182457
-0.00145467
0.0016707
-0.000537787
-0.00160582
0.00175183
-0.0010417
-0.0015854
0.00157137
-0.00179909
-0.00207127
0.00107974
-0.00308093
-0.00308023
-0.00508908
-0.0044732
-0.00410919
-0.00632807
-0.00624281
-0.00651675
-0.00716105
-0.00716105
-0.00733791
-0.00796263
-0.00701166
-0.00878356
-0.00626899
-0.00967457
-0.00520606
-0.0105798
-0.00381716
-0.0113533
-0.00208146
-0.0117985
8.9229e-05
-0.0115459
0.00220492
-0.0116457
0.0038794
-0.0118588
0.00520889
-0.0113889
0.00622849
-0.0105895
0.00694203
-0.00967376
0.00726069
-0.00877392
0.00710229
-0.00794319
0.0062068
-0.00713382
0.00408998
-0.00646249
-0.00626566
0.000162669
0.00210572
-0.00128623
-8.55991e-05
0.00176234
-0.000983187
-0.000438632
0.00106858
-0.000944472
-0.000701808
0.000526337
-0.000701807
-0.000801002
0.000230508
-0.000340783
-0.000760298
-6.89303e-05
3.43096e-05
-0.000472038
-0.000443863
0.000433622
-0.000204135
-0.000526094
0.00069516
6.47643e-06
-0.000559721
0.000826198
0.000113788
-0.000497424
0.000819455
8.49213e-05
-0.000351337
0.000795496
3.40588e-05
-0.000259372
0.000754768
4.80738e-05
-0.00024758
0.000628946
0.000190077
-0.000300164
0.000415907
0.000298252
-0.000196955
0.000121614
0.000231928
6.74478e-05
-0.000252541
0.000129174
0.000199674
-0.00055609
5.721e-06
0.000315853
-0.000823885
-5.93476e-05
0.000524166
-0.00112362
0.000693427
-0.00165503
0.00143358
0.000921611
0.00391332
0.00247508
0.00111108
0.00384261
0.00278401
0.00124771
0.0032217
0.00236158
0.00137114
0.00236158
0.00154786
0.00133646
0.00153473
0.000791448
0.000856754
0.000962807
0.000309106
3.13812e-05
0.000556339
0.000185698
-0.000619262
0.000430111
0.000162888
-0.000881741
0.000385731
0.000103809
-0.000880486
0.000285095
4.56812e-05
-0.000753123
0.000219291
7.94432e-06
-0.000607961
0.000298747
-2.20913e-05
-0.000498673
0.000392932
-0.00030116
-0.000114638
0.000430686
-0.000861791
0.00055627
0.000711612
-0.00168574
0.00132569
0.00110591
-0.00226972
0.00149498
0.00179769
-0.00222026
0.00123168
0.00264832
-0.00140639
0.000914168
0.00320532
0.000739515
0.00312784
0.00162675
-0.00123065
0.00385872
0.00288713
-0.000492396
0.0044587
0.00369618
0.000238855
0.00442124
0.00382639
0.00111069
0.00382639
0.00345031
0.00156259
0.00308338
0.00277364
0.00141345
0.00240398
0.0018831
0.000839792
0.00175177
0.00108466
1.46713e-05
0.00112716
0.000531154
-0.00065702
0.000640432
8.74996e-05
-0.000900865
0.000209589
-0.000257269
-0.000874621
5.62959e-05
-0.000575494
-0.000637747
0.000400607
-0.00118602
-4.9977e-05
0.000892039
-0.00202932
0.00071642
0.00147137
-0.00279797
0.00134387
0.00212455
-0.00317772
0.00170298
0.00279045
-0.00310591
0.00151074
0.00346392
-0.00251418
0.000808964
0.00404565
-0.00146109
2.45261e-05
0.0042132
-0.000569815
0.0037287
0.00181016
-0.00334304
0.00125946
0.00280649
-0.00183347
0.00287754
0.00351383
-0.000811774
0.00372756
0.0038728
0.000392761
0.0038728
0.00376102
0.00135259
0.00354376
0.00326344
0.00165227
0.00304738
0.00257022
0.00130715
0.00250743
0.00172393
0.000637694
0.00191292
0.000863427
-6.81249e-05
0.00114165
9.72026e-05
-0.00052238
0.000359291
-0.000575283
-0.000582378
0.00013906
-0.00131945
-0.0001201
0.000880667
-0.00216626
0.000650501
0.00175795
-0.00291255
0.00130403
0.00241894
-0.00344252
0.00169407
0.00298623
-0.00356945
0.00159198
0.00352448
-0.00323335
0.0008972
0.00389881
-0.00259396
-0.000111754
0.00384291
-0.00174501
-0.00107776
0.0030496
-0.00265088
0.00168662
0.00182712
-0.00497331
-0.000905273
0.00265637
-0.00247142
0.00108608
0.00309556
-0.0012662
0.00255863
0.00327844
2.70042e-05
0.00327844
0.0031921
0.00121213
0.00343002
0.00280336
0.00180528
0.00321924
0.00218597
0.00168389
0.00281848
0.00144129
0.00113984
0.00227482
0.000662001
0.000515231
0.00153038
-1.95947e-05
4.21162e-05
0.00058851
-0.000659774
-3.90127e-06
0.000399349
-0.00141419
0.000511132
0.00138853
-0.00216348
0.00121331
0.00224619
-0.00281314
0.00175561
0.00284163
-0.0032305
0.00189703
0.00328338
-0.00332504
0.00145099
0.00353107
-0.00314847
0.00048388
0.00340063
-0.00274427
-0.000624624
0.00267019
-0.00197207
-0.0017827
0.00120913
-0.00442374
-0.000852936
0.00160984
-0.00624019
-0.00205372
0.0023633
-0.00281031
1.42696e-05
0.00259715
-0.00121443
0.00160194
0.00257438
7.2554e-05
0.00257438
0.00240289
0.00127189
0.00302082
0.00208006
0.0019294
0.00304589
0.00159594
0.0019229
0.00278957
0.000991585
0.00151001
0.00233599
0.000366011
0.00100381
0.00168988
-0.000123782
0.000596901
0.000891366
-0.000604196
0.000575926
0.000839061
-0.00123334
0.00104164
0.00168994
-0.00184667
0.00162123
0.00239081
-0.00234959
0.00203254
0.00285956
-0.00269057
0.00203574
0.00310786
-0.00286418
0.00147735
0.00305358
-0.00289541
0.000484197
0.00255653
-0.00262343
-0.000683294
0.00154045
-0.0017855
-0.00225769
-7.92003e-05
-0.0058757
-0.00209836
0.00115093
-0.00697668
-0.00290541
0.00185981
-0.0030757
-0.000759013
0.00202109
-0.000997239
0.000856073
0.00182319
0.000468372
0.00182319
0.00164357
0.00138779
0.0023935
0.0014386
0.00190474
0.00256241
0.00115345
0.00189769
0.0024514
0.000749113
0.00160908
0.00216335
0.000270758
0.00128625
0.00173527
-0.000192093
0.00107311
0.00119482
-0.000687237
0.00107809
0.00122967
-0.00118269
0.00134348
0.001802
-0.00157951
0.00172101
0.00223926
-0.0018706
0.00202025
0.00249968
-0.00209189
0.00202128
0.00254458
-0.00228139
0.0015736
0.00228721
-0.00241382
0.000766293
0.00165014
-0.00216515
-0.00056081
0.00065548
-0.00129216
-0.00272108
-0.000850447
-0.00677187
-0.00294138
0.000192725
-0.00672114
-0.00379105
0.000747229
-0.00321781
-0.00169489
0.000856777
-0.000905925
-0.000107983
0.000862703
0.000456522
0.000862704
0.00083296
0.00129113
0.00138196
0.000834836
0.0015974
0.00156606
0.000778319
0.00155066
0.001522
0.000593634
0.00137808
0.00136084
0.000275337
0.00125085
0.00116641
-0.000282577
0.0013921
0.000976489
-0.000842632
0.00136699
0.00100849
-0.00115014
0.00126221
0.00121619
-0.00129971
0.00143285
0.00140485
-0.00133337
0.00163837
0.00152657
-0.00132885
0.00170056
0.00148684
-0.00133716
0.00144087
0.00120242
-0.00130539
0.000741923
0.000621609
-0.0010154
-0.000641244
-0.000303481
-0.000303689
-0.00303827
-0.00175967
-0.00664126
-0.00380151
-0.00130569
-0.00501719
-0.00488135
-0.00163185
-0.0025999
-0.00333963
-0.00146206
-0.00108838
-0.00199869
-0.00119703
-7.35461e-05
-0.00119703
-0.000840387
0.000379716
-0.000905119
-0.000403831
0.00057599
-0.000787131
-7.23234e-05
0.000654573
-0.000849998
7.51726e-05
0.00073491
-0.00101758
7.78854e-06
0.000918171
-0.00110718
-0.000253497
0.00139009
-0.0010425
-0.000526745
0.00135276
-0.00109578
-0.000597821
0.000891862
-0.00113831
-0.000444788
0.000725575
-0.00100748
-8.75818e-05
0.000657094
-0.000837841
0.000364299
0.000594802
-0.000800804
0.000746954
0.000429248
-0.000976856
0.00115424
4.07608e-05
-0.00129153
0.00146096
-0.000997833
-0.00202142
0.00126565
-0.00256259
-0.00336061
-0.00499479
-0.00485404
-0.00472221
-0.00662306
-0.00705109
-0.0067878
-0.00796263
-0.00733791
-0.00799942
-0.00799942
-0.00757737
-0.00882592
-0.00684247
-0.00983351
-0.00582015
-0.0109476
-0.00442323
-0.0120154
-0.00253193
-0.0127717
7.09002e-05
-0.0127587
0.00261481
-0.0128369
0.00444703
-0.0127992
0.00578958
-0.0120059
0.00676727
-0.0109101
0.00746701
-0.00977872
0.00788093
-0.00875861
0.00789322
-0.00791474
0.00703646
-0.00727492
0.0047197
-0.00670834
-0.00654076
3.72501e-05
0.000705522
-0.002029
-3.80987e-05
0.000614555
-0.00152241
-0.000209452
0.000407907
-0.00118104
-0.000340784
0.000230508
-0.000801
-0.000373643
6.56857e-05
-0.000373642
-0.000268345
-0.000189012
0.000118004
-8.3607e-05
-0.000355416
0.000604314
7.22898e-05
-0.000450138
0.000989442
0.00017926
-0.000548392
0.00126768
0.000119441
-0.000512438
0.00139176
-7.82887e-05
-0.000368222
0.00136148
-0.000237264
-0.000264809
0.00117857
-0.000285977
-0.000230872
0.000908538
-0.000227448
-0.000231992
0.000589371
-5.82935e-05
-0.000303265
0.00025572
3.48766e-06
-0.000130148
-0.000184194
2.49253e-06
3.19902e-05
-0.000587099
-8.00579e-06
0.000121257
-0.00093464
1.86244e-06
0.000187265
-0.00132074
0.000245377
-0.00189852
0.00107019
0.00135692
0.00219167
0.00170381
0.00137676
0.00244673
0.001827
0.00137818
0.00212819
0.00153473
0.00133646
0.00154786
0.00104317
0.00104879
0.00104317
0.000645871
0.000428602
0.000742496
0.000430214
-0.000189181
0.00060577
0.000407333
-0.000678406
0.000681287
0.000330338
-0.00087111
0.000785485
0.000156944
-0.000857872
0.000803963
-4.00364e-05
-0.000723236
0.000771316
-0.000175369
-0.000585127
0.000754416
-0.000203397
-0.000517522
0.00070762
-0.000268183
-0.000326319
0.000589802
-0.000509998
9.10929e-05
0.000559073
-0.000929632
0.000726561
0.000668838
-0.00131585
0.00127126
0.00094464
-0.00136475
0.00144048
0.00137798
-0.000961043
0.00140469
0.00158418
0.00136316
0.001049
0.0014106
0.0003775
0.00342752
0.00234467
0.00100406
0.00389731
0.00293345
0.00132632
0.00388429
0.00308338
0.00156259
0.00345031
0.00284063
0.00153426
0.00284063
0.00229275
0.00116501
0.00221544
0.00164959
0.000533759
0.00167199
0.00106956
-0.000238635
0.00126743
0.000615871
-0.000758269
0.000981303
0.000148993
-0.000879171
0.000697787
-0.000266888
-0.000820543
0.000569501
-0.000545209
-0.000685108
0.00077892
-0.000943601
-0.000292718
0.00106563
-0.00152496
0.000337023
0.00138939
-0.00213262
0.00097435
0.00184894
-0.00246062
0.00143934
0.00240566
-0.00238421
0.0017022
0.00295657
-0.00192948
0.00166925
0.00336215
-0.00116156
0.00145362
0.00339634
0.00103666
0.00289363
0.00184436
-0.00158192
0.0013745
0.00264826
0.000219167
0.00285854
0.00322199
0.00086065
0.0036195
0.00354376
0.00135259
0.00376102
0.00347953
0.00166272
0.00347953
0.00308663
0.00157779
0.00302749
0.00248552
0.00109212
0.00255018
0.0017323
0.000405222
0.00202228
0.000942903
-0.000238052
0.00141085
0.000175825
-0.000545581
0.000792787
-0.000517503
-0.00057614
0.000587994
-0.00118275
-0.00028547
0.00114628
-0.00190641
0.000370425
0.00181848
-0.00257086