/*--------------------------------*- C++ -*----------------------------------*\
  =========                 |
  \\      /  F ield         | OpenFOAM: The Open Source CFD Toolbox
   \\    /   O peration     | Website:  https://openfoam.org
    \\  /    A nd           | Version:  9
     \\/     M anipulation  |
\*---------------------------------------------------------------------------*/
FoamFile
{
    format      ascii;
    class       volVectorField;
    location    "1250";
    object      U;
}
// * * * * * * * * * * * * * * * * * * * * * * * * * * * * * * * * * * * * * //

dimensions      [0 1 -1 0 0 0 0];

internalField   nonuniform List<vector> 
4000
(
(0.00620405 -0.0158676 0.00620405)
(0.0108934 -0.0052734 0.00533622)
(0.00890031 0.0052326 0.00353554)
(-0.000616507 0.00738639 0.00115779)
(-0.00774249 -0.000196626 0.000310039)
(-0.0073789 -0.00308516 0.000107787)
(-0.0063927 -0.00224753 0.000105788)
(-0.00435754 -0.00151443 2.38273e-05)
(-0.00262928 -0.00155045 -1.00375e-05)
(-0.000737711 -0.00140539 -8.39934e-05)
(0.000992281 -0.00128337 -3.23323e-05)
(0.0022073 -0.00117983 7.24529e-05)
(0.00313245 -0.000868752 8.96632e-05)
(0.00433551 -0.00112944 -6.62258e-06)
(0.00517354 -0.00226684 1.25957e-05)
(0.00458973 -0.000705331 -1.77746e-05)
(0.00291105 0.00468551 0.000356798)
(-0.00318864 0.00970584 0.00190429)
(-0.00729659 0.00313674 0.00429691)
(-0.00482565 -0.00801371 0.00506301)
(0.0036645 -0.0270725 0.0036645)
(0.00914031 -0.0139649 0.00399673)
(0.0140249 0.000341043 0.00397135)
(0.0141869 0.00663066 0.0034615)
(0.0115716 0.00566588 0.00278641)
(0.00519764 0.00372832 0.00215227)
(-0.00371897 -0.00198151 8.5276e-05)
(-0.00317818 -0.00283689 -0.000594507)
(-0.0026943 -0.00254022 -0.00109667)
(-0.00110151 -0.00219956 -0.00141638)
(0.00082959 -0.00174168 -0.00150535)
(0.00236392 -0.00142662 -0.00127212)
(0.00323901 -0.0017152 -0.00079236)
(0.00398178 -0.00165177 -0.000367607)
(-0.00184436 0.00291501 0.00193497)
(-0.0108271 0.00480239 0.00333085)
(-0.0154255 0.00323057 0.00450946)
(-0.0148484 -0.000977173 0.00522865)
(-0.0103346 -0.0113881 0.00506346)
(-0.00405955 -0.0223297 0.00412912)
(0.00204222 -0.038015 0.00204222)
(0.00576723 -0.0251055 0.00299955)
(0.00892461 -0.0109957 0.00348679)
(0.012883 -0.000962627 0.00373393)
(0.013768 0.00365915 0.00347813)
(0.0108515 0.00473786 0.00302156)
(0.00732081 0.003344 0.00240943)
(0.00214053 0.000209522 0.001293)
(-0.0014525 -0.00151468 -0.000817082)
(-0.0013611 -0.00164183 -0.00172456)
(-0.000345237 -0.00154058 -0.00178616)
(0.000691313 -0.0012012 -0.00105628)
(-0.000486405 2.02119e-05 0.000790909)
(-0.00611337 0.00352314 0.00235685)
(-0.00955404 0.00522587 0.00295326)
(-0.0130403 0.00407413 0.00352102)
(-0.0128622 -0.00269107 0.00390273)
(-0.0102124 -0.0124111 0.00403666)
(-0.00697898 -0.0242372 0.0035323)
(-0.00264068 -0.0349579 0.00224735)
(0.00101959 -0.0436723 0.00101959)
(0.00277406 -0.031298 0.00240254)
(0.0022918 -0.0181306 0.00304754)
(0.00379219 -0.00807384 0.00389765)
(0.00462961 -0.00152767 0.00451952)
(0.00519946 0.00179012 0.00444)
(0.00388622 0.00213191 0.00400691)
(0.00164451 0.00198997 0.00333837)
(-0.000717041 0.00196604 0.00229829)
(-0.00153354 0.00147134 0.00139068)
(-0.000787816 0.00111541 0.0012338)
(-0.000937273 0.00149917 0.00223306)
(-0.00333091 0.00243709 0.00342438)
(-0.00557124 0.00281672 0.00406038)
(-0.00655304 0.00223273 0.00435562)
(-0.00564479 -0.00155181 0.00430688)
(-0.00444655 -0.00929005 0.00368682)
(-0.00336576 -0.0194654 0.00309316)
(-0.00380358 -0.0315537 0.00247093)
(-0.00161211 -0.0417993 0.000894153)
(0.000237505 -0.0460985 0.000237506)
(0.000471296 -0.0345247 0.00187629)
(-0.00247296 -0.0229288 0.0024424)
(-0.00282986 -0.0145522 0.0031141)
(-0.00335589 -0.00909532 0.00366475)
(-0.00326688 -0.00597936 0.0038466)
(-0.0030328 -0.00416519 0.00363622)
(-0.00265982 -0.00320947 0.00339873)
(-0.00210113 -0.00294467 0.0032844)
(-0.00146448 -0.00285669 0.00323528)
(-0.000526117 -0.0031368 0.00316101)
(0.000289265 -0.00308584 0.00322762)
(0.000871845 -0.0032821 0.00350285)
(0.00143777 -0.00421161 0.00384592)
(0.00194673 -0.00607202 0.00400745)
(0.00243448 -0.0094306 0.00365647)
(0.00206989 -0.0153985 0.00298193)
(0.00164929 -0.0238504 0.00238993)
(-0.00142235 -0.0351213 0.00177435)
(-0.000809312 -0.0449128 -5.03917e-05)
(-0.000501647 -0.0459474 -0.000501646)
(-0.00131079 -0.0358577 0.00120323)
(-0.0055281 -0.026472 0.00135751)
(-0.00671967 -0.0199608 0.00148379)
(-0.00738941 -0.0156939 0.00144357)
(-0.00702602 -0.0130185 0.00133176)
(-0.00604837 -0.0113459 0.00118655)
(-0.00462819 -0.0103025 0.00110234)
(-0.00294451 -0.00975382 0.00115033)
(-0.00152793 -0.00955061 0.0012839)
(0.00017655 -0.0100558 0.00118561)
(0.00183733 -0.0102826 0.00106363)
(0.00369271 -0.0107893 0.00109522)
(0.00524559 -0.0118313 0.00124625)
(0.00633954 -0.013523 0.00140619)
(0.00681228 -0.0162606 0.00148607)
(0.0061618 -0.0206473 0.00147114)
(0.00493789 -0.0270942 0.00134526)
(0.000552826 -0.0361322 0.00112735)
(-1.8886e-05 -0.0451267 -0.000804615)
(-0.0014244 -0.0434904 -0.0014244)
(-0.00288505 -0.0353939 0.000169159)
(-0.00794798 -0.028314 -0.000215778)
(-0.00966275 -0.0237985 -0.00061957)
(-0.0103119 -0.0209664 -0.00110545)
(-0.00961535 -0.0191987 -0.001537)
(-0.00805217 -0.0180549 -0.00191445)
(-0.00590841 -0.0172787 -0.00214136)
(-0.00342681 -0.0167861 -0.00212652)
(-0.00151103 -0.0164835 -0.00189791)
(0.000789528 -0.0170354 -0.00202553)
(0.0028793 -0.0174411 -0.00225876)
(0.00549788 -0.0179426 -0.00222203)
(0.00770146 -0.0187002 -0.00195588)
(0.00929017 -0.0198035 -0.00156147)
(0.00999091 -0.0215172 -0.00111267)
(0.0093167 -0.0243053 -0.000604987)
(0.00753793 -0.0286914 -0.000178194)
(0.00235573 -0.0355003 0.000173985)
(0.00103081 -0.0428533 -0.00163845)
(-0.0028848 -0.0378233 -0.0028848)
(-0.00501941 -0.0318994 -0.00160931)
(-0.0106625 -0.0273302 -0.00241583)
(-0.0127447 -0.0248298 -0.00325893)
(-0.0132863 -0.023419 -0.00406427)
(-0.0122261 -0.0225789 -0.00472582)
(-0.0101059 -0.0220654 -0.00528449)
(-0.00725622 -0.0216887 -0.00567221)
(-0.00396883 -0.0213884 -0.00577887)
(-0.00160106 -0.0211093 -0.0055075)
(0.00129732 -0.0215717 -0.0056371)
(0.00379859 -0.0219494 -0.00586543)
(0.00716567 -0.0222672 -0.00573743)
(0.0100251 -0.0226178 -0.00534343)
(0.0121174 -0.0230663 -0.00477956)
(0.0131376 -0.0238081 -0.00409268)
(0.0125741 -0.0251377 -0.00325263)
(0.010431 -0.0275062 -0.00236011)
(0.00468755 -0.0318419 -0.00153971)
(0.00259182 -0.0373415 -0.00299049)
(-0.00540403 -0.0281357 -0.00540403)
(-0.00866449 -0.0240453 -0.00492025)
(-0.0145173 -0.0217283 -0.00596823)
(-0.0166256 -0.0208953 -0.00713828)
(-0.0169108 -0.0207015 -0.00822275)
(-0.0155041 -0.0208782 -0.00910932)
(-0.0128245 -0.0211303 -0.00982732)
(-0.00920068 -0.0212836 -0.0103078)
(-0.00495587 -0.0212348 -0.0103854)
(-0.00193387 -0.0209384 -0.00978516)
(0.00200778 -0.0212204 -0.00999051)
(0.00513039 -0.0215722 -0.0105539)
(0.00936671 -0.0216065 -0.0104485)
(0.0129359 -0.0214128 -0.009948)
(0.01554 -0.0211068 -0.00921256)
(0.0168853 -0.0208623 -0.0082997)
(0.0165569 -0.0209906 -0.00716427)
(0.0143971 -0.021759 -0.00592879)
(0.00848919 -0.0239521 -0.00483592)
(0.00516379 -0.0278026 -0.00542461)
(-0.00948635 -0.0173539 -0.00948635)
(-0.0151479 -0.0136132 -0.0107287)
(-0.0209222 -0.0118089 -0.0128346)
(-0.0228254 -0.0111049 -0.0148479)
(-0.0227193 -0.0107424 -0.016784)
(-0.0208282 -0.0104857 -0.0185732)
(-0.0174709 -0.0101565 -0.0200982)
(-0.0128804 -0.009674 -0.0212242)
(-0.00732007 -0.0089982 -0.0217048)
(-0.00286407 -0.00827471 -0.0208098)
(0.00359498 -0.00849958 -0.0210559)
(0.00794808 -0.00926123 -0.0218501)
(0.0133732 -0.0099392 -0.0213463)
(0.0178241 -0.0104159 -0.020191)
(0.0210436 -0.0107198 -0.0186432)
(0.0228212 -0.0109317 -0.0168259)
(0.0228383 -0.0112416 -0.0148434)
(0.0208552 -0.0118852 -0.0127666)
(0.0150072 -0.0136013 -0.0106011)
(0.00925332 -0.0171628 -0.00941396)
(0.00533622 -0.0052734 0.0108934)
(0.00817806 0.00250646 0.00817806)
(0.00586491 0.00776243 0.00378708)
(-0.00121084 0.00614386 0.000261753)
(-0.00550105 -0.00057444 5.08487e-05)
(-0.00572626 -0.00288717 4.58787e-05)
(-0.0047445 -0.00218854 0.000500696)
(-0.00326418 -0.00144488 0.000455313)
(-0.00179942 -0.00121992 0.000431522)
(-0.000368034 -0.00107597 0.000293879)
(0.000793395 -0.00082736 0.000354229)
(0.00152694 -0.000613489 0.000513815)
(0.00206593 -0.000500819 0.000484748)
(0.00287104 -0.00111318 0.000281052)
(0.00350581 -0.00227914 -6.93158e-05)
(0.00283854 -0.00172217 -0.000534991)
(0.00187419 0.00168188 -0.000463406)
(-0.0007275 0.00800482 0.000233266)
(-0.00361418 0.0095894 0.00370613)
(-0.00350223 0.00592627 0.00654999)
(0.00399673 -0.0139649 0.00914031)
(0.00945725 -0.00526948 0.00945725)
(0.0137493 0.0040738 0.00853014)
(0.0142312 0.00658315 0.00682189)
(0.0118009 0.00541728 0.00491107)
(0.00644322 0.00351885 0.00337803)
(0.000443655 -0.000969462 0.0014223)
(-0.00117194 -0.00293021 -0.000350074)
(-0.00114893 -0.0028978 -0.00117514)
(-0.000532462 -0.00255844 -0.00189871)
(0.000461183 -0.00204283 -0.00208918)
(0.00129646 -0.00172534 -0.00156302)
(0.00154637 -0.00184899 -0.000701695)
(0.000956027 -0.00147097 0.00052457)
(-0.00372949 0.00295994 0.00308931)
(-0.0103071 0.00472176 0.00513291)
(-0.0146164 0.00370163 0.00791247)
(-0.0143755 0.00190368 0.0103557)
(-0.0103732 -0.00208754 0.0116694)
(-0.00455798 -0.00766958 0.0115888)
(0.00299955 -0.0251055 0.00576723)
(0.00785149 -0.0172669 0.00785149)
(0.0119204 -0.00737849 0.00856094)
(0.0154083 0.000644689 0.0079244)
(0.0153088 0.00425283 0.00655492)
(0.0123508 0.00490301 0.00520749)
(0.00897303 0.00308599 0.00385201)
(0.00464415 -0.000118537 0.00206076)
(0.00117713 -0.00254291 -0.000403745)
(-0.00042581 -0.00304767 -0.00235325)
(-0.000463941 -0.00286677 -0.00264392)
(-0.000697725 -0.00228928 -0.0011149)
(-0.00291313 -0.000269855 0.0015753)
(-0.0075447 0.00321825 0.00368154)
(-0.0108432 0.00544874 0.00510755)
(-0.014034 0.0051234 0.00656998)
(-0.0148828 0.000431764 0.00831662)
(-0.0124548 -0.0074469 0.00964444)
(-0.00867283 -0.0148413 0.00948674)
(-0.00344139 -0.0203643 0.00755461)
(0.00240254 -0.031298 0.00277406)
(0.006299 -0.0242186 0.006299)
(0.00753964 -0.0141159 0.00788244)
(0.00918783 -0.00462331 0.00834217)
(0.0104792 0.00210455 0.00787987)
(0.00963066 0.00458107 0.00697151)
(0.00751617 0.00403434 0.00584686)
(0.00481511 0.00264947 0.00441424)
(0.0019638 0.00120776 0.00241474)
(-0.000232628 -0.000361746 -0.000127577)
(-0.00108983 -0.000788294 -0.000599456)
(-0.00264274 0.000912801 0.00212119)
(-0.00548918 0.00301629 0.00445159)
(-0.00822769 0.00444531 0.00588872)
(-0.0102556 0.00490775 0.00694885)
(-0.010979 0.00236977 0.00778367)
(-0.00963104 -0.00503347 0.00829596)
(-0.00824944 -0.0142791 0.00811924)
(-0.00689874 -0.0227214 0.0066846)
(-0.00273139 -0.0281206 0.00331622)
(0.00187629 -0.0345247 0.000471296)
(0.00533802 -0.0276423 0.00533802)
(0.00423699 -0.0176146 0.00764416)
(0.00407979 -0.00775463 0.00864241)
(0.00335728 -0.000614607 0.00904856)
(0.00340903 0.00298846 0.00854685)
(0.00232548 0.00364047 0.00754109)
(0.000912662 0.00322668 0.00639652)
(-0.000397833 0.00252471 0.00531847)
(-0.000966535 0.00205706 0.00451958)
(-0.000882108 0.00194569 0.00444039)
(-0.00139928 0.0025801 0.00537326)
(-0.00270434 0.00345306 0.00658717)
(-0.00399447 0.00385062 0.00776278)
(-0.00489524 0.00296724 0.00865059)
(-0.00462167 -0.000981438 0.00896862)
(-0.00509867 -0.00847054 0.00842752)
(-0.00524175 -0.0179629 0.00746141)
(-0.00601967 -0.0266993 0.00506753)
(-0.00219369 -0.032301 0.000335221)
(0.00120323 -0.0358577 -0.00131079)
(0.00461267 -0.028558 0.00461267)
(0.00179805 -0.0188343 0.00724889)
(0.000795176 -0.00939462 0.00835554)
(-0.000681842 -0.0025699 0.0087606)
(-0.000870754 0.00116731 0.00871279)
(-0.00112977 0.00264052 0.00814715)
(-0.00151493 0.00299259 0.00750824)
(-0.00161637 0.00292657 0.00705027)
(-0.00127909 0.00274163 0.00672885)
(-0.000464745 0.0025106 0.00672148)
(-5.15417e-05 0.00274433 0.00713183)
(-0.000200552 0.00297551 0.00771706)
(-0.000508568 0.00266647 0.00840694)
(-0.00061643 0.000997511 0.00886679)
(-0.000689438 -0.00329754 0.00868827)
(-0.0020199 -0.0102172 0.00810583)
(-0.00294365 -0.0193261 0.00694196)
(-0.00533491 -0.0279536 0.00411782)
(-0.0014685 -0.034344 -0.0016718)
(0.000169159 -0.0353939 -0.00288505)
(0.00353203 -0.02751 0.00353203)
(-0.000697572 -0.0184575 0.00613698)
(-0.00186296 -0.0104759 0.0071218)
(-0.00317912 -0.00505372 0.0073252)
(-0.00353577 -0.00183108 0.00726905)
(-0.00322738 -1.83167e-05 0.00722398)
(-0.00262702 0.000763512 0.00722619)
(-0.00188741 0.00086292 0.00730274)
(-0.00121209 0.000717829 0.00732769)
(-0.00041142 0.000530993 0.00729992)
(0.000375155 0.000746789 0.00727228)
(0.00118431 0.000682724 0.00726273)
(0.00184695 -0.00016525 0.00730038)
(0.00227734 -0.00211781 0.00726634)
(0.00203152 -0.00547166 0.0071942)
(0.000761345 -0.0109635 0.0068715)
(-0.000382802 -0.0190184 0.00586774)
(-0.00420123 -0.0271599 0.00308259)
(-0.000351708 -0.0343963 -0.00320568)
(-0.00160931 -0.0318994 -0.00501941)
(0.0010582 -0.0240177 0.0010582)
(-0.00410615 -0.0169531 0.00320795)
(-0.00529507 -0.0113159 0.00373074)
(-0.00619846 -0.00710398 0.00335411)
(-0.0061904 -0.00453451 0.00288491)
(-0.0054729 -0.00292402 0.00247081)
(-0.00421339 -0.00185141 0.00235939)
(-0.00263001 -0.000996169 0.00270347)
(-0.00130217 -9.80631e-05 0.00339248)
(0.00013756 -0.000565073 0.00315274)
(0.00151288 -0.00168605 0.00230125)
(0.00310864 -0.00246694 0.00207272)
(0.00438903 -0.00345291 0.00230122)
(0.00515413 -0.00500798 0.00273032)
(0.00524517 -0.00753033 0.00315675)
(0.0044222 -0.0116031 0.00349666)
(0.00336889 -0.0171119 0.00307305)
(-0.00164171 -0.0238731 0.000710921)
(0.001481 -0.0313281 -0.00520681)
(-0.00492025 -0.0240453 -0.00866449)
(-0.00490857 -0.0182226 -0.00490857)
(-0.0099329 -0.0140418 -0.00383706)
(-0.0113258 -0.0118103 -0.00409805)
(-0.0114639 -0.0105499 -0.00482066)
(-0.0103449 -0.0100488 -0.00545692)
(-0.00852256 -0.00996042 -0.00596073)
(-0.00618047 -0.010014 -0.00612209)
(-0.00352655 -0.0100315 -0.00568732)
(-0.00159223 -0.00957692 -0.00443867)
(0.000999008 -0.00978271 -0.00484354)
(0.00293436 -0.0103188 -0.00615035)
(0.00555848 -0.0102398 -0.00651305)
(0.00788468 -0.010104 -0.00629317)
(0.00969871 -0.01012 -0.00576385)
(0.0108488 -0.0105456 -0.00513013)
(0.0107678 -0.0117585 -0.00432705)
(0.00947758 -0.0139822 -0.00396486)
(0.00457052 -0.0180891 -0.00496789)
(0.0047873 -0.0237806 -0.00871014)
(-0.0107287 -0.0136132 -0.0151479)
(-0.0158901 -0.00824824 -0.0158901)
(-0.0216825 -0.00534227 -0.0182629)
(-0.0234205 -0.00379364 -0.0209001)
(-0.0233102 -0.00277434 -0.0235749)
(-0.0215844 -0.00197477 -0.0261601)
(-0.0185443 -0.00111432 -0.0283918)
(-0.0143141 -0.00010986 -0.0300321)
(-0.00893477 0.00107265 -0.0307366)
(-0.00396554 0.00243365 -0.0296393)
(0.00469951 0.002226 -0.0299648)
(0.00942744 0.000831816 -0.0309611)
(0.0146056 -0.000373618 -0.0302256)
(0.0186561 -0.00139709 -0.0285405)
(0.0215543 -0.00224854 -0.0262853)
(0.0231839 -0.00300917 -0.023673)
(0.0232483 -0.00397206 -0.020945)
(0.0215114 -0.00545552 -0.0182271)
(0.0157395 -0.00827751 -0.0157592)
(0.0105955 -0.0135 -0.0150159)
(0.00353554 0.00523259 0.00890031)
(0.00378708 0.00776243 0.00586491)
(0.00125679 0.00745201 0.0012568)
(-0.00261906 0.00231337 -0.000841753)
(-0.00413282 -0.00162101 -0.000334957)
(-0.00440635 -0.00262479 5.1856e-05)
(-0.00347724 -0.00197532 0.000798785)
(-0.00219432 -0.00132958 0.00112948)
(-0.00103313 -0.00112129 0.00116793)
(-8.50273e-06 -0.00100505 0.000972078)
(0.000621254 -0.000638238 0.000953398)
(0.000865801 -0.000356666 0.00112329)
(0.0010439 -0.000296122 0.00104601)
(0.00160778 -0.000960443 0.000674284)
(0.00220431 -0.00207676 4.84461e-05)
(0.00191469 -0.00255335 -0.000694047)
(0.00127924 -0.00108369 -0.00114951)
(0.000727016 0.00227102 -0.00156023)
(-0.000216609 0.00750184 -0.00037479)
(-0.00114918 0.00957484 0.000613672)
(0.00397135 0.000341041 0.0140249)
(0.00853014 0.0040738 0.0137493)
(0.0120363 0.00643807 0.0120363)
(0.0125727 0.0059099 0.00949481)
(0.0100466 0.00489139 0.00653238)
(0.00558815 0.00295016 0.00416958)
(0.00123788 -0.00112848 0.00192065)
(7.66389e-06 -0.00288598 0.000434026)
(-0.000175233 -0.00302565 -0.00042056)
(5.39895e-07 -0.00264122 -0.0012472)
(0.000317307 -0.00204787 -0.00152339)
(0.000596664 -0.00174041 -0.000910319)
(0.000680322 -0.00184087 -1.79408e-05)
(0.000180594 -0.00173223 0.0010492)
(-0.00289352 0.00197317 0.00348369)
(-0.00769925 0.00442452 0.00596983)
(-0.0115327 0.00420225 0.00954464)
(-0.0120802 0.00336843 0.0131427)
(-0.00891128 0.00289854 0.0150894)
(-0.00429857 0.00234398 0.0151654)
(0.00348679 -0.0109957 0.00892461)
(0.00856094 -0.00737849 0.0119204)
(0.0128428 -0.00202633 0.0128428)
(0.01554 0.00273196 0.0116378)
(0.0149779 0.00499702 0.00941643)
(0.0122829 0.00494856 0.00736196)
(0.00918301 0.00279159 0.00543053)
(0.00517233 -0.000564137 0.00304333)
(0.00214866 -0.00285751 0.000482208)
(0.000416393 -0.00337804 -0.00168331)
(-0.00047036 -0.00312123 -0.00217027)
(-0.00118656 -0.00257112 -0.000391553)
(-0.00303115 -0.000853777 0.00229865)
(-0.00718108 0.00255992 0.00493453)
(-0.0102917 0.0051721 0.00705546)
(-0.012904 0.00605751 0.00915724)
(-0.0139107 0.00376262 0.0116823)
(-0.0121168 -0.00120984 0.0137013)
(-0.0084942 -0.00572487 0.0137298)
(-0.00375467 -0.00836653 0.0115173)
(0.00304754 -0.0181306 0.0022918)
(0.00788244 -0.0141159 0.00753964)
(0.0103244 -0.00820611 0.0103244)
(0.0123426 -0.00153473 0.0109902)
(0.0132208 0.00360816 0.0102958)
(0.0120003 0.00530807 0.00900801)
(0.00963707 0.00428107 0.00741908)
(0.0067704 0.0021384 0.0054609)
(0.00364998 -0.000312667 0.00266658)
(0.000859678 -0.00222389 -0.000663811)
(-0.00103536 -0.00242541 -0.00129167)
(-0.0031727 -0.000584159 0.0020448)
(-0.00633634 0.00234902 0.00534121)
(-0.00929897 0.00447421 0.00742895)
(-0.0117263 0.00561616 0.00910621)
(-0.012907 0.00446493 0.0104774)
(-0.0121598 -0.000348712 0.0113146)
(-0.0102614 -0.00690875 0.0108293)
(-0.00796439 -0.0119719 0.00840405)
(-0.00337272 -0.0154265 0.00362237)
(0.0024424 -0.0229288 -0.00247296)
(0.00764416 -0.0176146 0.00423699)
(0.0082951 -0.0113484 0.0082951)
(0.00879105 -0.0040649 0.0100903)
(0.0087054 0.00215985 0.0106042)
(0.00807031 0.00525007 0.00991368)
(0.00633705 0.00520681 0.0085515)
(0.00404833 0.0036502 0.00673374)
(0.00158726 0.00185843 0.0045072)
(-0.000230316 0.000425336 0.00185532)
(-0.00100986 0.000251223 0.00152991)
(-0.00257442 0.0019512 0.00440997)
(-0.00499987 0.00399729 0.00691318)
(-0.00729415 0.00547198 0.00880999)
(-0.00903787 0.00540539 0.0101488)
(-0.00961599 0.00249233 0.0107478)
(-0.00951513 -0.00347614 0.0100784)
(-0.00899131 -0.0101685 0.00820304)
(-0.00808492 -0.0155554 0.00416167)
(-0.0028597 -0.0207171 -0.00227874)
(0.00135751 -0.026472 -0.0055281)
(0.00724889 -0.0188343 0.00179806)
(0.00650575 -0.0120575 0.00650575)
(0.00610385 -0.00456054 0.00879789)
(0.00498117 0.0018702 0.00976668)
(0.00422686 0.00534841 0.00948753)
(0.00305023 0.00594526 0.00835478)
(0.00152707 0.00507763 0.00682335)
(5.12677e-05 0.0039428 0.00516155)
(-0.000697866 0.00303769 0.00365741)
(-0.000769351 0.00290006 0.00362682)
(-0.00154449 0.00399974 0.00535775)
(-0.00307802 0.00538395 0.00717806)
(-0.0046079 0.00620325 0.00869665)
(-0.00576446 0.00536588 0.00964484)
(-0.00648685 0.00175013 0.00963106)
(-0.00741436 -0.00434614 0.00839035)
(-0.0077082 -0.0110864 0.00599652)
(-0.0079002 -0.0170944 0.00129971)
(-0.00169101 -0.024895 -0.00571471)
(-0.000215778 -0.028314 -0.00794798)
(0.00613698 -0.0184575 -0.000697571)
(0.00426366 -0.011297 0.00426366)
(0.003774 -0.00422301 0.00682963)
(0.00227279 0.000852201 0.00781121)
(0.00138008 0.00414287 0.00751999)
(0.000741176 0.00487045 0.00665269)
(7.19312e-05 0.00422202 0.00562837)
(-0.000508268 0.00329282 0.00470342)
(-0.000764637 0.00268452 0.00393808)
(-0.000799211 0.00256498 0.00399691)
(-0.0011959 0.00340084 0.00496816)
(-0.00186486 0.00458255 0.00599146)
(-0.00252585 0.00517634 0.0069275)
(-0.00315384 0.00419114 0.00748497)
(-0.00404737 0.000871881 0.00732843)
(-0.00528948 -0.00405278 0.00604992)
(-0.00564774 -0.0105234 0.00359229)
(-0.00680856 -0.0171438 -0.00119971)
(3.53854e-05 -0.0273292 -0.00815157)
(-0.00241583 -0.0273302 -0.0106626)
(0.00320795 -0.0169531 -0.00410615)
(0.000325463 -0.00940329 0.000325463)
(9.02673e-05 -0.00213944 0.00243589)
(-0.000580882 0.00319519 0.00332156)
(-0.000583 0.00580685 0.00308118)
(-0.00065557 0.00675737 0.00238047)
(-0.000652122 0.00695407 0.00171402)
(-0.000558093 0.00689252 0.00136705)
(-0.000703259 0.00675768 0.00134921)
(-0.00103708 0.00670407 0.00125309)
(-0.00124477 0.0069405 0.00132052)
(-0.00120566 0.00708403 0.00178502)
(-0.00117559 0.00689973 0.0024308)
(-0.00120603 0.00583568 0.00286599)
(-0.00126323 0.00316811 0.00275712)
(-0.00159904 -0.00203227 0.00164834)
(-0.00158972 -0.00872656 -0.000302691)
(-0.00373266 -0.0162931 -0.00441365)
(0.00234782 -0.026823 -0.0107698)
(-0.00596823 -0.0217283 -0.0145173)
(-0.00383706 -0.0140418 -0.0099329)
(-0.00713524 -0.00865093 -0.00713524)
(-0.0070033 -0.00551799 -0.00610443)
(-0.00648061 -0.00345743 -0.00596263)
(-0.00467309 -0.00247204 -0.00525318)
(-0.00306391 -0.00258631 -0.00522697)
(-0.00187543 -0.00306088 -0.00553599)
(-0.000988027 -0.00325854 -0.00547749)
(-0.000818409 -0.00210592 -0.00489658)
(-0.000652999 -0.00236249 -0.00514237)
(-0.000588701 -0.00351025 -0.00575344)
(0.000234124 -0.00305712 -0.00573902)
(0.0015284 -0.00237707 -0.00542483)
(0.00323843 -0.00217167 -0.00552318)
(0.00523691 -0.00307852 -0.00638359)
(0.00592027 -0.00504935 -0.00648919)
(0.00641648 -0.00832179 -0.00739005)
(0.00348734 -0.0138065 -0.010056)
(0.00590973 -0.0215335 -0.0145082)
(-0.0128346 -0.0118089 -0.0209222)
(-0.0182629 -0.00534227 -0.0216825)
(-0.024067 -0.00199628 -0.024067)
(-0.02547 -0.000164463 -0.026919)
(-0.0250374 0.00110463 -0.0298493)
(-0.023138 0.00219328 -0.0328344)
(-0.0200622 0.00339475 -0.0356436)
(-0.0158235 0.0047754 -0.0378296)
(-0.010267 0.00637991 -0.0388776)
(-0.00477639 0.00819533 -0.0376264)
(0.00534078 0.00803892 -0.0380142)
(0.0105935 0.00619295 -0.0391462)
(0.0159345 0.00455774 -0.0380263)
(0.0199866 0.00313541 -0.0357439)
(0.0229357 0.00192782 -0.0329029)
(0.0247605 0.000878755 -0.0298985)
(0.0251996 -0.000324625 -0.0269333)
(0.0239016 -0.00208399 -0.024029)
(0.0181843 -0.0053616 -0.0215353)
(0.0127724 -0.0117443 -0.0207375)
(0.00115779 0.0073864 -0.0006165)
(0.00026175 0.00614386 -0.00121083)
(-0.000841757 0.00231337 -0.00261906)
(-0.00207415 -0.000944424 -0.00207415)
(-0.00281368 -0.0023012 -0.0010109)
(-0.00283424 -0.00213198 5.73525e-05)
(-0.00212652 -0.0015509 0.00123357)
(-0.0011299 -0.00105108 0.00195756)
(-0.000306801 -0.00104077 0.00222934)
(0.000312766 -0.00106795 0.00210065)
(0.00042235 -0.000688663 0.00202883)
(0.000183784 -0.000337477 0.00204553)
(5.99929e-05 -0.000206173 0.00177017)
(0.000303034 -0.000562953 0.00117506)
(0.000939144 -0.00167586 0.000260316)
(0.00106045 -0.00267262 -0.000955957)
(0.000636796 -0.00252021 -0.00182427)
(0.000157461 -0.00124665 -0.00269443)
(-0.000138789 0.000769103 -0.00381661)
(-0.000335869 0.00200267 -0.00596977)
(0.0034615 0.00663066 0.0141869)
(0.00682189 0.00658315 0.0142312)
(0.00949481 0.0059099 0.0125727)
(0.00955662 0.00511845 0.00955662)
(0.00723063 0.00414456 0.00625659)
(0.00395784 0.00172675 0.00383599)
(0.00125917 -0.00167514 0.00194153)
(0.000745689 -0.00276715 0.00112327)
(0.000636688 -0.00294492 0.00073302)
(0.000511213 -0.00263083 0.000198972)
(0.000243149 -0.00203304 -8.42873e-05)
(9.99766e-06 -0.00166715 0.000337421)
(5.77257e-05 -0.00176108 0.000876482)
(-0.000243349 -0.00185275 0.00133789)
(-0.00156229 0.000133252 0.00287197)
(-0.00458686 0.00331673 0.00488136)
(-0.00747325 0.00431045 0.00806717)
(-0.00839618 0.00407823 0.0118018)
(-0.00649736 0.00378507 0.0143225)
(-0.00348432 0.00383401 0.0145719)
(0.00373393 -0.000962627 0.012883)
(0.0079244 0.000644689 0.0154083)
(0.0116378 0.00273196 0.01554)
(0.0135149 0.00471864 0.0135149)
(0.0129729 0.00547503 0.0107675)
(0.0109546 0.00445856 0.00837608)
(0.00832992 0.00199783 0.00614968)
(0.0048862 -0.00128876 0.00368745)
(0.00261026 -0.00313556 0.00165748)
(0.00103724 -0.00340952 -9.24601e-05)
(-0.000404081 -0.0030925 -0.000678604)
(-0.00136675 -0.00268877 0.000772625)
(-0.00256633 -0.00159604 0.00283184)
(-0.00573296 0.00126563 0.0052682)
(-0.0086523 0.00404479 0.00766306)
(-0.0105597 0.00595784 0.00994882)
(-0.011301 0.00592119 0.0126238)
(-0.0100562 0.00403346 0.0150693)
(-0.00703169 0.00196347 0.015924)
(-0.00348637 0.00056822 0.0142966)
(0.00389765 -0.00807384 0.00379219)
(0.00834217 -0.00462331 0.00918783)
(0.0109902 -0.00153473 0.0123426)
(0.0130081 0.00234885 0.0130081)
(0.0135768 0.00502547 0.0119506)
(0.0124549 0.00541109 0.0103072)
(0.0102513 0.00389063 0.00843383)
(0.00757806 0.00143861 0.00633153)
(0.00445345 -0.00120845 0.00347834)
(0.00159873 -0.00262971 0.000498133)
(-0.000876733 -0.00276119 -0.000291651)
(-0.00311019 -0.00148591 0.00262098)
(-0.00615188 0.00134099 0.00593889)
(-0.00897159 0.00377408 0.00826625)
(-0.0113156 0.00545121 0.0102785)
(-0.0124578 0.0058246 0.0120886)
(-0.0119871 0.00409841 0.0133653)
(-0.010185 0.000934467 0.0131666)
(-0.00778408 -0.0019817 0.0101282)
(-0.00409426 -0.00529785 0.00498932)
(0.0031141 -0.0145522 -0.00282986)
(0.00864241 -0.00775463 0.00407979)
(0.0100903 -0.0040649 0.00879105)
(0.011103 0.000177533 0.011103)
(0.0113796 0.00409409 0.0116)
(0.010651 0.00584568 0.0108483)
(0.00883447 0.00516949 0.00940928)
(0.00638172 0.00308781 0.00745717)
(0.00357601 0.000769375 0.00485381)
(0.00108092 -0.0010983 0.00150501)
(-0.00119092 -0.0013864 0.000891904)
(-0.00350446 0.000705222 0.00448253)
(-0.00627236 0.0032968 0.00747389)
(-0.00880896 0.00534083 0.00959696)
(-0.0107331 0.00612349 0.0111548)
(-0.0115245 0.00496269 0.0119918)
(-0.0112867 0.0018904 0.0114903)
(-0.0104079 -0.00176791 0.00896726)
(-0.0089388 -0.00519172 0.00410759)
(-0.0037449 -0.0123256 -0.0026537)
(0.00148379 -0.0199608 -0.00671967)
(0.00835554 -0.00939462 0.000795176)
(0.00879789 -0.00456054 0.00610385)
(0.00901357 3.77811e-05 0.00901357)
(0.00864816 0.00426761 0.0103444)
(0.00792178 0.00657234 0.0102565)
(0.0065171 0.00647215 0.00921955)
(0.00454776 0.00493025 0.00756618)
(0.00227875 0.0030863 0.00536623)
(0.00036203 0.00155142 0.00276128)
(-0.0011999 0.00143029 0.00267236)
(-0.00310255 0.00314173 0.00545505)
(-0.00539367 0.00525475 0.00783427)
(-0.00740277 0.00678368 0.0095179)
(-0.00887134 0.00688232 0.0104785)
(-0.00966722 0.00494723 0.0103932)
(-0.0100662 0.00143941 0.00882141)
(-0.00990099 -0.00245272 0.00566671)
(-0.00903409 -0.00713425 0.000355488)
(-0.00193717 -0.0184072 -0.00689097)
(-0.00061957 -0.0237985 -0.00966275)
(0.0071218 -0.0104759 -0.00186296)
(0.00682962 -0.00422301 0.003774)
(0.00679153 0.000292807 0.00679153)
(0.00599904 0.00403407 0.00828076)
(0.00537971 0.00625383 0.00851341)
(0.00456776 0.00624219 0.00789248)
(0.0033474 0.00484207 0.0067964)
(0.00177364 0.00314135 0.00539784)
(0.000148371 0.00192148 0.00381491)
(-0.00153098 0.00191759 0.00396034)
(-0.00324806 0.00336619 0.00566131)
(-0.00483103 0.00530957 0.00709706)
(-0.00602793 0.00670326 0.00808472)
(-0.00689227 0.00667748 0.00843144)
(-0.00760222 0.00477934 0.00781651)
(-0.00827516 0.0015635 0.00603326)
(-0.0082598 -0.00263883 0.00300929)
(-0.00781408 -0.00898505 -0.00226047)
(0.000419759 -0.0228908 -0.00981644)
(-0.00325893 -0.0248298 -0.0127447)
(0.00373074 -0.0113159 -0.00529507)
(0.00243589 -0.00213944 9.02678e-05)
(0.00328285 0.00358957 0.00328285)
(0.0029066 0.00646774 0.00478741)
(0.00292654 0.0079153 0.00508475)
(0.00285629 0.00806392 0.00474438)
(0.00244382 0.00766346 0.00415865)
(0.00168487 0.00720755 0.00356818)
(0.000105395 0.00689311 0.0030704)
(-0.00210864 0.00691902 0.00316176)
(-0.0035714 0.00735437 0.00371377)
(-0.00430041 0.00793018 0.00427157)
(-0.00459311 0.00839061 0.00471461)
(-0.0046254 0.00821252 0.00475479)
(-0.00464361 0.00691165 0.00408827)
(-0.00487308 0.00441804 0.0024044)
(-0.00390247 -0.000783386 -0.000573082)
(-0.00426325 -0.0103786 -0.00557257)
(0.00322665 -0.0244088 -0.0128028)
(-0.00713828 -0.0208953 -0.0166256)
(-0.00409805 -0.0118103 -0.0113258)
(-0.00610443 -0.00551799 -0.0070033)
(-0.00413282 -0.00164508 -0.00413282)
(-0.00348707 0.000610368 -0.00349268)
(-0.00209395 0.00101589 -0.00343013)
(-0.000723759 0.000330201 -0.0037729)
(0.000111291 -0.000623337 -0.00426178)
(0.00039633 -0.00112187 -0.00441567)
(-0.000366865 0.000101816 -0.00393913)
(-0.00140667 -5.83961e-05 -0.00416295)
(-0.00209395 -0.00116859 -0.00458174)
(-0.00188962 -0.00050696 -0.00432065)
(-0.00101843 0.000587148 -0.00383373)
(0.000436281 0.00141492 -0.0036248)
(0.00196776 0.00120175 -0.00391425)
(0.00262604 -0.000746152 -0.00442208)
(0.00524131 -0.00486506 -0.00722205)
(0.00381671 -0.0115136 -0.011438)
(0.00712433 -0.0207479 -0.0165641)
(-0.0148479 -0.0111049 -0.0228254)
(-0.0209001 -0.00379364 -0.0234205)
(-0.026919 -0.000164463 -0.02547)
(-0.0279609 0.0018092 -0.0279609)
(-0.0270474 0.00320373 -0.0306046)
(-0.0250641 0.00444451 -0.0337627)
(-0.0221378 0.00588421 -0.0371988)
(-0.0180237 0.00763965 -0.0403598)
(-0.0122237 0.00972384 -0.042364)
(-0.00595082 0.0120961 -0.0417905)
(0.00637265 0.0119522 -0.0420948)
(0.0124286 0.00955678 -0.0425012)
(0.0180088 0.0074426 -0.0403801)
(0.0219538 0.00565343 -0.0371309)
(0.024738 0.00419897 -0.0336395)
(0.0266206 0.00299782 -0.0304379)
(0.0275677 0.00168145 -0.0277638)
(0.0267713 -0.000240964 -0.0253173)
(0.0209099 -0.00382623 -0.0231993)
(0.0148441 -0.0110778 -0.0225761)
(0.000310038 -0.000196622 -0.00774249)
(5.08469e-05 -0.000574437 -0.00550105)
(-0.000334959 -0.00162101 -0.00413281)
(-0.0010109 -0.0023012 -0.00281367)
(-0.00135064 -0.00217864 -0.00135063)
(-0.00115187 -0.00153612 0.000254906)
(-0.000591709 -0.000875465 0.00182322)
(2.01965e-05 -0.000691257 0.0029466)
(0.000476367 -0.000968835 0.00360924)
(0.000636541 -0.00116013 0.00375171)
(0.000129615 -0.000810938 0.00365592)
(-0.00061889 -0.00040743 0.00332357)
(-0.00100387 -0.000175334 0.00267392)
(-0.00101467 -0.000186986 0.00176141)
(-0.000455454 -0.00103991 0.000662847)
(-3.0752e-05 -0.00194397 -0.000790112)
(7.53144e-05 -0.00273923 -0.00210615)