/*--------------------------------*- C++ -*----------------------------------*\
  =========                 |
  \\      /  F ield         | OpenFOAM: The Open Source CFD Toolbox
   \\    /   O peration     | Website:  https://openfoam.org
    \\  /    A nd           | Version:  9
     \\/     M anipulation  |
\*---------------------------------------------------------------------------*/
FoamFile
{
    format      ascii;
    class       volScalarField;
    location    "850";
    object      epsilon;
}
// * * * * * * * * * * * * * * * * * * * * * * * * * * * * * * * * * * * * * //

dimensions      [0 2 -3 0 0 0 0];

internalField   nonuniform List<scalar> 
4000
(
4.9122e-07
3.83521e-07
2.38647e-07
1.28554e-07
7.31079e-08
5.74261e-08
4.6659e-08
4.1693e-08
3.85921e-08
3.60009e-08
3.35223e-08
3.14411e-08
3.44277e-08
3.9715e-08
4.60832e-08
5.41842e-08
5.5285e-08
7.62654e-08
1.62646e-07
2.65506e-07
7.05776e-07
6.21453e-07
4.94459e-07
3.4306e-07
2.2653e-07
1.16597e-07
5.69946e-08
4.89288e-08
4.84845e-08
4.89928e-08
4.72841e-08
4.28049e-08
4.35504e-08
5.10675e-08
6.64085e-08
1.22386e-07
2.2542e-07
3.66931e-07
4.97046e-07
5.8248e-07
8.27363e-07
7.63564e-07
6.29553e-07
4.79459e-07
3.30771e-07
2.22176e-07
1.33918e-07
6.5593e-08
5.9569e-08
6.12097e-08
5.82568e-08
5.45346e-08
6.47115e-08
9.9305e-08
1.71016e-07
2.72126e-07
4.0602e-07
5.44033e-07
6.65923e-07
7.28782e-07
9.09354e-07
8.7841e-07
7.61823e-07
6.0615e-07
4.493e-07
3.09954e-07
2.09074e-07
1.297e-07
8.35111e-08
7.41211e-08
7.50815e-08
8.78003e-08
1.23493e-07
1.82396e-07
2.63523e-07
3.8088e-07
5.22094e-07
6.71503e-07
7.82656e-07
8.17782e-07
9.74493e-07
9.86198e-07
9.16544e-07
8.10381e-07
6.97246e-07
5.93126e-07
5.03294e-07
4.22691e-07
3.48441e-07
2.8209e-07
2.49301e-07
2.78752e-07
3.3744e-07
4.10416e-07
4.91342e-07
5.88601e-07
7.02101e-07
8.14071e-07
8.85316e-07
8.83645e-07
1.03417e-06
1.09802e-06
1.09704e-06
1.06081e-06
1.01019e-06
9.51922e-07
8.89142e-07
8.24579e-07
7.60086e-07
6.97312e-07
6.80214e-07
7.16532e-07
7.61487e-07
8.0773e-07
8.53595e-07
8.99164e-07
9.42689e-07
9.79182e-07
9.87102e-07
9.40864e-07
1.09552e-06
1.21761e-06
1.28975e-06
1.32415e-06
1.33531e-06
1.32543e-06
1.29499e-06
1.24592e-06
1.18074e-06
1.10213e-06
1.09414e-06
1.142e-06
1.18594e-06
1.21504e-06
1.22736e-06
1.22231e-06
1.20043e-06
1.16304e-06
1.09833e-06
9.9831e-07
1.16395e-06
1.35106e-06
1.49936e-06
1.60456e-06
1.6779e-06
1.71908e-06
1.72598e-06
1.69694e-06
1.62969e-06
1.52368e-06
1.51585e-06
1.58177e-06
1.62715e-06
1.63655e-06
1.61122e-06
1.55477e-06
1.4718e-06
1.36402e-06
1.22465e-06
1.06218e-06
1.25041e-06
1.52335e-06
1.75813e-06
1.94272e-06
2.0864e-06
2.18626e-06
2.23865e-06
2.23669e-06
2.16861e-06
2.02323e-06
2.01312e-06
2.10679e-06
2.15279e-06
2.13533e-06
2.06404e-06
1.94869e-06
1.79695e-06
1.6126e-06
1.38907e-06
1.14287e-06
1.37028e-06
1.73611e-06
2.06597e-06
2.33304e-06
2.55539e-06
2.73578e-06
2.86878e-06
2.94092e-06
2.9318e-06
2.79687e-06
2.77576e-06
2.85171e-06
2.84233e-06
2.7537e-06
2.60574e-06
2.41302e-06
2.1827e-06
1.91408e-06
1.5938e-06
1.25503e-06
3.83521e-07
3.30644e-07
2.04448e-07
1.24928e-07
9.24946e-08
8.82711e-08
7.71054e-08
6.60891e-08
5.79457e-08
5.22145e-08
4.73444e-08
4.50956e-08
5.18986e-08
6.31082e-08
7.69273e-08
8.63452e-08
8.21465e-08
8.60474e-08
1.25874e-07
1.65127e-07
6.21453e-07
6.92491e-07
5.64233e-07
3.8151e-07
2.639e-07
1.69706e-07
9.42594e-08
6.46011e-08
5.67103e-08
5.44673e-08
5.22728e-08
5.13788e-08
5.57681e-08
6.97915e-08
1.0123e-07
1.6132e-07
2.4998e-07
3.93804e-07
5.54821e-07
4.91093e-07
7.63564e-07
7.35117e-07
6.40379e-07
4.88848e-07
3.3468e-07
2.42277e-07
1.7782e-07
1.09125e-07
6.78645e-08
5.99124e-08
5.92564e-08
6.51403e-08
8.48353e-08
1.30764e-07
2.05066e-07
2.91058e-07
4.19721e-07
5.85699e-07
6.79925e-07
6.59444e-07
8.7841e-07
7.77012e-07
6.95424e-07
5.64449e-07
4.00907e-07
2.79822e-07
1.98527e-07
1.37072e-07
9.80217e-08
8.04219e-08
7.79178e-08
8.96064e-08
1.19218e-07
1.68136e-07
2.3797e-07
3.44505e-07
4.98332e-07
6.31828e-07
7.10293e-07
7.80974e-07
9.86198e-07
8.62522e-07
7.99745e-07
6.94933e-07
5.58336e-07
4.14875e-07
3.18142e-07
2.41758e-07
1.82389e-07
1.4213e-07
1.22471e-07
1.43468e-07
1.93017e-07
2.63188e-07
3.51125e-07
4.79761e-07
6.11248e-07
7.14769e-07
7.77393e-07
8.91816e-07
1.09802e-06
9.68529e-07
9.21331e-07
8.463e-07
7.59068e-07
6.39002e-07
5.1619e-07
4.31098e-07
3.7337e-07
3.36075e-07
3.22667e-07
3.45829e-07
3.92185e-07
4.65088e-07
5.72712e-07
6.81619e-07
7.62839e-07
8.29137e-07
8.74597e-07
1.00342e-06
1.21761e-06
1.09238e-06
1.05431e-06
9.97517e-07
9.59071e-07
9.04841e-07
8.05771e-07
6.91352e-07
5.97483e-07
5.34569e-07
5.31059e-07
5.79384e-07
6.53431e-07
7.45793e-07
8.32656e-07
8.89211e-07
9.20731e-07
9.63683e-07
9.95045e-07
1.12164e-06
1.35106e-06
1.27088e-06
1.26536e-06
1.23559e-06
1.24188e-06
1.25398e-06
1.23476e-06
1.18005e-06
1.08751e-06
9.64877e-07
9.55487e-07
1.05266e-06
1.13345e-06
1.1785e-06
1.19094e-06
1.17284e-06
1.15987e-06
1.17569e-06
1.17196e-06
1.24984e-06
1.52335e-06
1.62087e-06
1.75351e-06
1.84161e-06
1.92383e-06
1.98638e-06
2.01094e-06
1.97925e-06
1.8576e-06
1.63584e-06
1.66046e-06
1.85292e-06
1.9665e-06
1.98417e-06
1.93494e-06
1.84537e-06
1.74802e-06
1.64913e-06
1.50778e-06
1.41105e-06
1.73611e-06
2.18757e-06
2.61081e-06
2.97529e-06
3.30193e-06
3.59087e-06
3.82674e-06
3.97776e-06
4.0024e-06
3.84497e-06
3.82363e-06
3.91538e-06
3.86673e-06
3.6961e-06
3.44464e-06
3.14377e-06
2.81117e-06
2.44747e-06
2.03576e-06
1.61018e-06
2.38647e-07
2.04448e-07
1.45971e-07
1.11723e-07
1.07803e-07
1.08895e-07
9.68488e-08
8.41596e-08
7.34809e-08
6.67959e-08
6.0388e-08
5.8144e-08
6.70618e-08
8.09926e-08
9.73285e-08
1.08776e-07
1.03903e-07
9.07001e-08
9.09849e-08
9.07413e-08
4.94459e-07
5.64233e-07
4.60438e-07
3.37047e-07
2.49768e-07
1.67491e-07
1.04925e-07
7.9772e-08
7.15127e-08
6.92698e-08
6.56855e-08
6.34235e-08
6.77379e-08
8.21284e-08
1.10443e-07
1.58449e-07
2.16299e-07
2.9758e-07
3.92058e-07
3.57825e-07
6.29553e-07
6.40379e-07
5.68928e-07
4.35877e-07
3.1993e-07
2.54045e-07
1.99991e-07
1.29654e-07
8.57054e-08
7.41686e-08
7.27199e-08
7.84874e-08
9.91968e-08
1.44972e-07
2.16357e-07
2.87922e-07
3.7687e-07
5.04816e-07
5.86249e-07
5.40449e-07
7.61823e-07
6.95424e-07
6.06732e-07
4.90229e-07
3.56239e-07
2.62773e-07
2.01369e-07
1.55385e-07
1.2015e-07
9.62423e-08
9.09024e-08
1.0255e-07
1.30755e-07
1.74155e-07
2.31956e-07
3.15925e-07
4.37512e-07
5.57195e-07
6.32703e-07
6.7122e-07
9.16544e-07
7.99745e-07
6.85771e-07
5.65235e-07
4.31645e-07
3.1787e-07
2.41566e-07
1.83986e-07
1.39074e-07
1.12327e-07
1.0402e-07
1.19334e-07
1.55825e-07
2.08294e-07
2.77367e-07
3.77785e-07
5.0624e-07
6.22461e-07
7.23075e-07
8.25853e-07
1.09704e-06
9.21331e-07
7.87144e-07
6.5456e-07
5.29013e-07
4.11347e-07
3.16514e-07
2.49065e-07
2.02409e-07
1.75579e-07
1.67663e-07
1.86537e-07
2.26162e-07
2.85435e-07
3.67919e-07
4.74889e-07
5.96563e-07
7.22692e-07
8.46034e-07
1.00706e-06
1.28975e-06
1.05431e-06
9.15843e-07
7.48115e-07
6.03511e-07
5.01328e-07
4.16427e-07
3.46238e-07
2.93451e-07
2.59884e-07
2.52505e-07
2.76329e-07
3.20692e-07
3.84691e-07
4.64302e-07
5.63313e-07
7.0318e-07
8.60152e-07
9.86606e-07
1.20047e-06
1.49936e-06
1.26536e-06
1.17339e-06
9.93473e-07
7.89966e-07
6.88525e-07
6.29701e-07
5.68992e-07
5.01457e-07
4.3747e-07
4.33705e-07
4.91711e-07
5.52165e-07
6.05831e-07
6.59629e-07
7.7768e-07
9.635e-07
1.12862e-06
1.19857e-06
1.40461e-06
1.75813e-06
1.75351e-06
1.93727e-06
2.08651e-06
2.18757e-06
2.22685e-06
2.21716e-06
2.15551e-06
1.94021e-06
1.57948e-06
1.60523e-06
1.95785e-06
2.22444e-06
2.30599e-06
2.27178e-06
2.15274e-06
2.0346e-06
1.87356e-06
1.66429e-06
1.64801e-06
2.06597e-06
2.61081e-06
3.1224e-06
3.57897e-06
4.00529e-06
4.40348e-06
4.75192e-06
4.99858e-06
5.07216e-06
4.8911e-06
4.86378e-06
4.97345e-06
4.87197e-06
4.60798e-06
4.24741e-06
3.83899e-06
3.40968e-06
2.95518e-06
2.4534e-06
1.92987e-06
1.28554e-07
1.24928e-07
1.11723e-07
1.1297e-07
1.23954e-07
1.19508e-07
1.08925e-07
9.69884e-08
8.64792e-08
8.06843e-08
7.30956e-08
7.05212e-08
7.93822e-08
9.25792e-08
1.06555e-07
1.15681e-07
1.14988e-07
9.94954e-08
7.95908e-08
6.1325e-08
3.4306e-07
3.8151e-07
3.37047e-07
2.73716e-07
2.10031e-07
1.44478e-07
1.05678e-07
8.82743e-08
8.48596e-08
8.48411e-08
7.84448e-08
7.35268e-08
7.68299e-08
8.82199e-08
1.07259e-07
1.37575e-07
1.80195e-07
2.22614e-07
2.59402e-07
2.31882e-07
4.79459e-07
4.88848e-07
4.35877e-07
3.53596e-07
2.90312e-07
2.51348e-07
1.96715e-07
1.30712e-07
9.7243e-08
8.99072e-08
8.50978e-08
8.71412e-08
1.04563e-07
1.43814e-07
2.07933e-07
2.70908e-07
3.21977e-07
3.81879e-07
4.24005e-07
4.03223e-07
6.0615e-07
5.64449e-07
4.90229e-07
3.96162e-07
3.06818e-07
2.44336e-07
2.01873e-07
1.67425e-07
1.33314e-07
1.10053e-07
1.01769e-07
1.10159e-07
1.36227e-07
1.75275e-07
2.21343e-07
2.80979e-07
3.60231e-07
4.48217e-07
5.12739e-07
5.32563e-07
8.10381e-07
6.94933e-07
5.65235e-07
4.52721e-07
3.47837e-07
2.66611e-07
2.1222e-07
1.71747e-07
1.39752e-07
1.20865e-07
1.13289e-07
1.2235e-07
1.48769e-07
1.87853e-07
2.3977e-07
3.13583e-07
4.12991e-07
5.22297e-07
6.33311e-07
7.26217e-07
1.06081e-06
8.463e-07
6.5456e-07
5.14045e-07
4.01262e-07
3.10288e-07
2.43193e-07
1.93382e-07
1.56057e-07
1.35173e-07
1.29376e-07
1.42896e-07
1.74778e-07
2.20651e-07
2.82156e-07
3.67692e-07
4.80172e-07
6.18856e-07
7.93589e-07
9.79359e-07
1.32415e-06
9.97517e-07
7.48115e-07
5.64026e-07
4.43137e-07
3.58957e-07
2.97235e-07
2.48396e-07
2.08777e-07
1.8328e-07
1.77427e-07
1.94911e-07
2.29081e-07
2.75899e-07
3.36763e-07
4.22673e-07
5.50426e-07
7.41424e-07
9.63952e-07
1.24605e-06
1.60456e-06
1.23559e-06
9.93473e-07
7.44943e-07
6.67944e-07
6.35541e-07
6.18164e-07
5.85336e-07
5.15391e-07
4.25402e-07
4.19555e-07
5.00046e-07
5.68113e-07
6.00964e-07
6.18137e-07
6.63173e-07
7.77836e-07
1.02611e-06
1.2085e-06
1.52106e-06
1.94272e-06
1.84161e-06
2.08651e-06
2.36087e-06
2.52182e-06
2.77816e-06
2.99791e-06
3.04916e-06
2.78159e-06
2.30103e-06
2.32703e-06
2.809e-06
3.11209e-06
3.08709e-06
2.84267e-06
2.5639e-06
2.41407e-06
2.09443e-06
1.78938e-06
1.84152e-06
2.33304e-06
2.97529e-06
3.57897e-06
4.13567e-06
4.68139e-06
5.22163e-06
5.72272e-06
6.11461e-06
6.29638e-06
6.1694e-06
6.1e-06
6.14623e-06
5.94525e-06
5.55314e-06
5.05102e-06
4.50978e-06
3.96728e-06
3.41171e-06
2.81399e-06
2.1888e-06
7.31079e-08
9.24946e-08
1.07803e-07
1.23954e-07
1.27673e-07
1.22696e-07
1.15724e-07
1.06416e-07
9.91135e-08
9.56207e-08
8.66169e-08
8.30623e-08
8.99789e-08
9.96951e-08
1.07263e-07
1.08539e-07
1.04606e-07
9.3793e-08
7.33254e-08
4.84013e-08
2.2653e-07
2.639e-07
2.49768e-07
2.10031e-07
1.60488e-07
1.21837e-07
1.03646e-07
9.43458e-08
9.90626e-08
1.03539e-07
9.25175e-08
8.40606e-08
8.53683e-08
9.30368e-08
1.03492e-07
1.13672e-07
1.34774e-07
1.60837e-07
1.73765e-07
1.34483e-07
3.30771e-07
3.3468e-07
3.1993e-07
2.90312e-07
2.65323e-07
2.30095e-07
1.72351e-07
1.23541e-07
1.06816e-07
1.0715e-07
9.77962e-08
9.31813e-08
1.03974e-07
1.32132e-07
1.82425e-07
2.39903e-07
2.77865e-07
2.98324e-07
2.99911e-07
2.77444e-07
4.493e-07
4.00907e-07
3.56239e-07
3.06818e-07
2.60046e-07
2.23891e-07
1.9698e-07
1.68357e-07
1.38969e-07
1.24606e-07
1.12817e-07
1.13514e-07
1.34977e-07
1.70257e-07
2.06886e-07
2.45107e-07
2.89327e-07
3.33411e-07
3.64567e-07
3.91048e-07
6.97246e-07
5.58337e-07
4.31645e-07
3.47837e-07
2.80199e-07
2.29178e-07
1.94018e-07
1.67393e-07
1.47834e-07
1.40291e-07
1.29587e-07
1.28524e-07
1.46044e-07
1.74855e-07
2.12315e-07
2.61983e-07
3.27686e-07
4.08314e-07
5.17897e-07
6.20431e-07
1.01019e-06
7.59068e-07
5.29013e-07
4.01262e-07
3.1504e-07
2.52266e-07
2.07315e-07
1.74057e-07
1.51447e-07
1.4594e-07
1.40261e-07
1.39073e-07
1.58469e-07
1.91392e-07
2.36557e-07
3.00165e-07
3.89908e-07
5.18902e-07
7.30966e-07
9.39447e-07
1.33531e-06
9.59071e-07
6.03511e-07
4.43137e-07
3.54126e-07
2.96558e-07
2.56258e-07
2.25456e-07
2.02069e-07
1.93615e-07
1.90917e-07
1.93395e-07
2.13448e-07
2.4471e-07
2.88314e-07
3.54011e-07
4.57531e-07
6.28722e-07
9.47761e-07
1.26962e-06
1.6779e-06
1.24188e-06
7.89966e-07
6.67944e-07
6.61572e-07
6.81214e-07
6.99555e-07
6.87352e-07
6.17107e-07
5.18475e-07
5.15166e-07
6.12824e-07
6.90845e-07
7.09558e-07
6.94631e-07
6.88805e-07
7.30206e-07
8.95962e-07
1.23702e-06
1.60569e-06
2.0864e-06
1.92383e-06
2.18757e-06
2.52182e-06
3.066e-06
3.61232e-06
4.02545e-06
4.12e-06
3.71135e-06
3.0549e-06
3.06628e-06
3.72252e-06
4.19509e-06
4.16253e-06
3.75295e-06
3.1855e-06
2.66514e-06
2.27289e-06
1.90563e-06
1.99606e-06
2.55539e-06
3.30193e-06
4.00529e-06
4.68139e-06
5.40474e-06
6.14494e-06
6.85248e-06
7.44743e-06
7.81442e-06
7.83479e-06
7.69379e-06
7.58119e-06
7.20104e-06
6.62322e-06
5.93535e-06
5.21286e-06
4.50597e-06
3.83066e-06
3.13077e-06
2.40091e-06
5.74261e-08
8.82711e-08
1.08895e-07
1.19508e-07
1.22696e-07
1.22284e-07
1.1929e-07
1.15425e-07
1.1343e-07
1.1366e-07
1.02743e-07
9.70526e-08
1.00375e-07
1.0523e-07
1.0653e-07
1.01873e-07
9.22424e-08
7.92197e-08
6.22882e-08
4.06552e-08
1.16597e-07
1.69706e-07
1.67491e-07
1.44478e-07
1.21837e-07
1.09402e-07
1.01556e-07
1.01548e-07
1.16778e-07
1.3061e-07
1.12421e-07
9.79054e-08
9.42207e-08
9.54574e-08
9.95805e-08
1.02895e-07
1.02077e-07
1.04512e-07
1.0181e-07
6.58429e-08
2.22176e-07
2.42277e-07
2.54045e-07
2.51348e-07
2.30095e-07
1.87252e-07
1.42772e-07
1.18506e-07
1.20798e-07
1.33946e-07
1.17469e-07
1.01637e-07
1.02987e-07
1.18109e-07
1.48341e-07
1.93828e-07
2.31925e-07
2.42255e-07
2.25283e-07
1.85393e-07
3.09954e-07
2.79822e-07
2.62773e-07
2.44336e-07
2.23891e-07
2.04972e-07
1.85006e-07
1.59554e-07
1.44899e-07
1.51664e-07
1.32559e-07
1.16471e-07
1.28527e-07
1.59356e-07
1.92954e-07
2.1745e-07
2.3763e-07
2.53727e-07
2.61546e-07
2.7006e-07
5.93126e-07
4.14875e-07
3.17871e-07
2.66611e-07
2.29178e-07
2.00272e-07
1.7851e-07
1.62368e-07
1.57363e-07
1.74909e-07
1.58285e-07
1.35016e-07
1.42067e-07
1.62859e-07
1.89591e-07
2.21398e-07
2.60667e-07
3.12451e-07
3.96853e-07
5.26175e-07
9.51922e-07
6.39002e-07
4.11347e-07
3.10288e-07
2.52266e-07
2.12219e-07
1.83456e-07
1.64038e-07
1.6008e-07
1.87714e-07
1.82438e-07
1.49202e-07
1.51618e-07
1.72801e-07
2.05301e-07
2.5113e-07
3.17949e-07
4.26307e-07
6.35337e-07
8.91996e-07
1.32543e-06
9.04841e-07
5.01328e-07
3.58957e-07
2.96558e-07
2.60931e-07
2.37363e-07
2.2185e-07
2.19203e-07
2.49108e-07
2.53556e-07
2.19532e-07
2.19247e-07
2.36174e-07
2.65439e-07
3.12901e-07
3.93231e-07
5.47982e-07
9.12322e-07
1.27015e-06
1.71908e-06
1.25398e-06
6.88525e-07
6.35541e-07
6.81214e-07
7.43907e-07
7.91816e-07
7.88874e-07
7.11949e-07
6.24582e-07
6.27897e-07
7.19695e-07
8.10873e-07
8.27827e-07
7.8886e-07
7.40471e-07
7.19816e-07
7.92821e-07
1.26412e-06
1.65622e-06
2.18626e-06
1.98638e-06
2.22685e-06
2.77816e-06
3.61232e-06
4.38521e-06
4.94044e-06
5.00349e-06
4.40909e-06
3.70907e-06
3.68569e-06
4.35981e-06
5.02154e-06
5.06927e-06
4.56197e-06
3.78565e-06
2.95723e-06
2.40242e-06
1.99312e-06
2.10352e-06
2.73578e-06
3.59087e-06
4.40348e-06
5.22163e-06
6.14494e-06
7.112e-06
8.07511e-06
8.95748e-06
9.64596e-06
9.99528e-06
9.73967e-06
9.28151e-06
8.58901e-06
7.74692e-06
6.82983e-06
5.90409e-06
5.01477e-06
4.20377e-06
3.39854e-06
2.56656e-06
4.6659e-08
7.71054e-08
9.68488e-08
1.08925e-07
1.15724e-07
1.1929e-07
1.21631e-07
1.25102e-07
1.30582e-07
1.37736e-07
1.24468e-07
1.14389e-07
1.12855e-07
1.10904e-07
1.05363e-07
9.65062e-08
8.47203e-08
7.06196e-08
5.43624e-08
3.56153e-08
5.69946e-08
9.42594e-08
1.04925e-07
1.05678e-07
1.03646e-07
1.01556e-07
1.0255e-07
1.13159e-07
1.44137e-07
1.79404e-07
1.49544e-07
1.20673e-07
1.0683e-07
9.87e-08
9.47934e-08
9.21277e-08
8.80675e-08
7.95791e-08
6.51982e-08
4.86691e-08
1.33918e-07
1.7782e-07
1.99991e-07
1.96715e-07
1.72351e-07
1.42772e-07
1.23518e-07
1.22924e-07
1.50861e-07
2.02708e-07
1.70748e-07
1.22477e-07
1.07887e-07
1.08895e-07
1.19393e-07
1.39559e-07
1.66477e-07
1.79574e-07
1.61832e-07
1.0739e-07
2.09074e-07
1.98527e-07
2.01369e-07
2.01873e-07
1.9698e-07
1.85006e-07
1.66047e-07
1.5285e-07
1.75975e-07
2.61711e-07
2.18207e-07
1.36159e-07
1.2368e-07
1.42429e-07
1.72451e-07
1.96019e-07
2.04025e-07
2.0188e-07
1.94244e-07
1.93409e-07
5.03294e-07
3.18142e-07
2.41566e-07
2.1222e-07
1.94018e-07
1.7851e-07
1.65495e-07
1.61107e-07
1.95455e-07
3.38404e-07
2.94434e-07
1.60767e-07
1.39759e-07
1.52176e-07
1.7086e-07
1.9126e-07
2.14027e-07
2.46897e-07
3.14393e-07
4.44756e-07
8.89143e-07
5.1619e-07
3.16514e-07
2.43193e-07
2.07315e-07
1.83456e-07
1.66761e-07
1.62428e-07
2.06199e-07
4.06834e-07
3.81043e-07
1.87609e-07
1.50687e-07
1.59225e-07
1.81473e-07
2.13905e-07
2.62114e-07
3.4697e-07
5.32745e-07
8.39902e-07
1.29499e-06
8.05771e-07
4.16427e-07
2.97235e-07
2.56258e-07
2.37363e-07
2.2711e-07
2.28324e-07
2.79529e-07
5.13891e-07
5.08907e-07
2.80738e-07
2.3256e-07
2.34467e-07
2.51669e-07
2.83905e-07
3.44196e-07
4.77598e-07
8.31609e-07
1.24653e-06
1.72598e-06
1.23476e-06
6.29701e-07
6.18164e-07
6.99555e-07
7.91816e-07
8.53909e-07
8.49169e-07
8.02773e-07
9.10096e-07
9.05066e-07
8.10708e-07
8.80105e-07
9.05723e-07
8.57808e-07
7.80139e-07
7.17588e-07
7.45737e-07
1.24859e-06
1.66661e-06
2.23865e-06
2.01094e-06
2.21716e-06
2.99791e-06
4.02545e-06
4.94044e-06
5.518e-06
5.44979e-06
4.90044e-06
4.85537e-06
4.7164e-06
4.77678e-06
5.41242e-06
5.59861e-06
5.09003e-06
4.18915e-06
3.16113e-06
2.38451e-06
2.01151e-06
2.15347e-06
2.86878e-06
3.82674e-06
4.75192e-06
5.72272e-06
6.85248e-06
8.07511e-06
9.36302e-06
1.06774e-05
1.19605e-05
1.3061e-05
1.26145e-05
1.13991e-05
1.01361e-05
8.89377e-06
7.68319e-06
6.5287e-06
5.45358e-06
4.5042e-06
3.60128e-06
2.68074e-06
4.1693e-08
6.60891e-08
8.41596e-08
9.69884e-08
1.06416e-07
1.15425e-07
1.25102e-07
1.3682e-07
1.51311e-07
1.6829e-07
1.54351e-07
1.36962e-07
1.27781e-07
1.17538e-07
1.05452e-07
9.2509e-08
7.90519e-08
6.50205e-08
4.988e-08
3.27074e-08
4.89288e-08
6.46011e-08
7.9772e-08
8.82743e-08
9.43458e-08
1.01548e-07
1.13159e-07
1.38319e-07
1.96002e-07
2.99823e-07
2.39563e-07
1.63732e-07
1.30786e-07
1.09507e-07
9.70179e-08
8.77006e-08
7.87098e-08
6.82503e-08
5.50992e-08
4.56195e-08
6.5593e-08
1.09125e-07
1.29654e-07
1.30712e-07
1.23541e-07
1.18506e-07
1.22924e-07
1.50712e-07
2.44381e-07
5.83054e-07
4.91027e-07
1.94747e-07
1.30687e-07
1.10929e-07
1.06146e-07
1.07258e-07
1.09967e-07
1.10184e-07
9.52591e-08
5.92775e-08
1.297e-07
1.37072e-07
1.55385e-07
1.67425e-07
1.68357e-07
1.59554e-07
1.5285e-07
1.80611e-07
3.4979e-07
1.07465e-06
9.25827e-07
2.69153e-07
1.43863e-07
1.28988e-07
1.42819e-07
1.63227e-07
1.73733e-07
1.66063e-07
1.48484e-07
1.41233e-07
4.22691e-07
2.41758e-07
1.83986e-07
1.71747e-07
1.67393e-07
1.62368e-07
1.61107e-07
1.98211e-07
4.70971e-07
1.73135e-06
1.52337e-06
3.72456e-07
1.63132e-07
1.46198e-07
1.56607e-07
1.68162e-07
1.79826e-07
1.99606e-07
2.53163e-07
3.82528e-07
8.24579e-07
4.31098e-07
2.49065e-07
1.93382e-07
1.74057e-07
1.64038e-07
1.62428e-07
2.08652e-07
5.93036e-07
2.4373e-06
2.17827e-06
4.8532e-07
1.81667e-07
1.54115e-07
1.64384e-07
1.85085e-07
2.18747e-07
2.86348e-07
4.55671e-07
7.85091e-07
1.24592e-06
6.91352e-07
3.46238e-07
2.48396e-07
2.25456e-07
2.2185e-07
2.28324e-07
2.88055e-07
7.59302e-07
2.99315e-06
2.70369e-06
6.58505e-07
2.80204e-07
2.39889e-07
2.43391e-07
2.61111e-07
3.02471e-07
4.10957e-07
7.25624e-07
1.20092e-06
1.69694e-06
1.18005e-06
5.68992e-07
5.85336e-07
6.87352e-07
7.88874e-07
8.49169e-07
8.85092e-07
1.26722e-06
3.40651e-06
3.1135e-06
1.15759e-06
8.99692e-07
9.0616e-07
8.65419e-07
7.78393e-07
6.90851e-07
6.85503e-07
1.1892e-06
1.63636e-06
2.23669e-06
1.97925e-06
2.15551e-06
3.04916e-06
4.12e-06
5.00349e-06
5.44979e-06
5.43625e-06
5.87578e-06
8.2036e-06
7.76304e-06
5.52124e-06
5.3091e-06
5.48577e-06
5.10308e-06
4.23182e-06
3.15499e-06
2.26979e-06
1.95812e-06
2.1436e-06
2.94092e-06
3.97776e-06
4.99858e-06
6.11461e-06
7.44743e-06
8.95748e-06
1.06774e-05
1.26831e-05
1.50744e-05
1.77291e-05
1.69826e-05
1.42023e-05
1.1895e-05
1.00236e-05
8.42777e-06
7.01955e-06
5.76597e-06
4.69512e-06
3.71597e-06
2.73355e-06
3.85921e-08
5.79457e-08
7.34809e-08
8.64792e-08
9.91135e-08
1.1343e-07
1.30582e-07
1.51311e-07
1.74583e-07
2.13361e-07
1.9189e-07
1.5871e-07
1.41599e-07
1.22241e-07
1.04246e-07
8.84189e-08
7.41592e-08
6.04316e-08
4.61596e-08
3.04821e-08
4.84845e-08
5.67103e-08
7.15127e-08
8.48596e-08
9.90626e-08
1.16778e-07
1.44137e-07
1.96002e-07
3.28599e-07
1.36705e-06
1.14848e-06
2.68425e-07
1.76683e-07
1.34157e-07
1.08755e-07
9.15925e-08
7.79517e-08
6.5238e-08
5.20376e-08
4.46582e-08
5.9569e-08
6.78645e-08
8.57054e-08
9.7243e-08
1.06816e-07
1.20798e-07
1.50861e-07
2.44381e-07
7.50739e-07
4.68743e-06
4.25514e-06
6.08794e-07
2.02478e-07
1.32499e-07
1.07808e-07
9.63856e-08
8.8994e-08
7.94639e-08
6.4195e-08
5.79316e-08
8.35111e-08
9.80217e-08
1.2015e-07
1.33314e-07
1.38969e-07
1.44899e-07
1.75975e-07
3.4979e-07
1.51702e-06
8.93539e-06
8.25152e-06
1.25528e-06
2.75558e-07
1.43797e-07
1.2265e-07
1.24113e-07
1.29764e-07
1.27755e-07
1.11606e-07
1.01617e-07
3.48441e-07
1.82389e-07
1.39074e-07
1.39752e-07
1.47834e-07
1.57363e-07
1.95455e-07
4.70971e-07
2.57783e-06
1.3795e-05
1.28323e-05
2.18255e-06
3.70331e-07
1.63772e-07
1.4607e-07
1.48832e-07
1.52019e-07
1.62889e-07
2.0793e-07
3.38805e-07
7.60086e-07
3.73371e-07
2.02409e-07
1.56057e-07
1.51447e-07
1.6008e-07
2.06199e-07
5.93036e-07
3.76461e-06
1.8396e-05
1.70687e-05
3.16439e-06
4.57865e-07
1.80988e-07
1.58084e-07
1.63195e-07
1.82494e-07
2.37212e-07
3.94698e-07
7.29543e-07
1.18074e-06
5.97483e-07
2.93451e-07
2.08777e-07
2.02069e-07
2.19203e-07
2.79529e-07
7.59302e-07
4.72034e-06
2.1262e-05
1.95361e-05
3.9291e-06
6.16374e-07
2.78851e-07
2.44663e-07
2.42613e-07
2.63716e-07
3.51034e-07
6.29678e-07
1.13904e-06
1.62969e-06
1.08751e-06
5.01457e-07
5.15391e-07
6.17107e-07
7.11949e-07
8.02773e-07
1.26722e-06
5.35043e-06
2.12311e-05
1.93812e-05
4.35985e-06
1.12055e-06
8.44395e-07
7.95192e-07
7.15896e-07
6.2149e-07
6.03853e-07
1.09075e-06
1.56783e-06
2.16861e-06
1.8576e-06
1.94021e-06
2.78159e-06
3.71135e-06
4.40909e-06
4.90044e-06
5.87578e-06
9.43738e-06
1.77821e-05
1.66219e-05
8.41061e-06
5.41521e-06
4.80483e-06
4.46644e-06
3.79074e-06
2.85191e-06
2.01341e-06
1.81923e-06
2.06953e-06
2.9318e-06
4.0024e-06
5.07216e-06
6.29638e-06
7.81442e-06
9.64596e-06
1.19605e-05
1.50744e-05
1.93729e-05
2.43033e-05
2.32614e-05
1.80021e-05
1.39171e-05
1.10685e-05
8.96751e-06
7.29006e-06
5.88166e-06
4.72533e-06
3.71389e-06
2.71148e-06
3.60009e-08
5.22145e-08
6.67959e-08
8.06843e-08
9.56206e-08
1.1366e-07
1.37736e-07
1.6829e-07
2.13361e-07
2.45544e-07
2.17873e-07
1.85588e-07
1.46088e-07
1.21184e-07
1.00488e-07
8.35174e-08
6.9219e-08
5.64729e-08
4.3402e-08
2.91147e-08
4.89928e-08
5.44673e-08
6.92698e-08
8.48411e-08
1.03539e-07
1.3061e-07
1.79404e-07
2.99823e-07
1.36705e-06
1.93861e-06
1.76358e-06
1.0759e-06
2.35878e-07
1.54367e-07
1.17064e-07
9.48728e-08
7.83058e-08
6.40093e-08
5.08369e-08
4.31943e-08
6.12097e-08
5.99124e-08
7.41686e-08
8.99072e-08
1.0715e-07
1.33946e-07
2.02708e-07
5.83054e-07
4.68743e-06
4.02806e-06
3.78021e-06
3.80379e-06
4.21784e-07
1.64624e-07
1.1606e-07
9.50286e-08
8.07886e-08
6.79206e-08
5.6151e-08
5.57097e-08
7.41211e-08
8.04219e-08
9.62423e-08
1.10053e-07
1.24606e-07
1.51664e-07
2.61711e-07
1.07465e-06
8.93539e-06
6.61877e-06
6.39321e-06
7.55112e-06
8.06208e-07
2.05779e-07
1.25299e-07
1.05134e-07
9.53572e-08
8.94918e-08
8.23309e-08
7.18268e-08
2.8209e-07
1.42131e-07
1.12327e-07
1.20865e-07
1.40291e-07
1.74909e-07
3.38404e-07
1.73135e-06
1.3795e-05
9.66433e-06
9.57641e-06
1.21336e-05
1.37856e-06
2.64484e-07
1.48166e-07
1.3071e-07
1.2524e-07
1.29989e-07
1.70501e-07
2.99982e-07
6.97312e-07
3.36075e-07
1.75579e-07
1.35173e-07
1.4594e-07
1.87714e-07
4.06834e-07
2.4373e-06
1.8396e-05
1.29011e-05
1.30535e-05
1.64733e-05
1.94659e-06
3.25623e-07
1.75686e-07
1.51555e-07
1.53621e-07
1.99028e-07
3.50183e-07
6.78598e-07
1.10213e-06
5.34569e-07
2.59884e-07
1.8328e-07
1.93615e-07
2.49108e-07
5.13891e-07
2.99315e-06
2.1262e-05
1.57255e-05
1.61793e-05
1.89483e-05
2.40461e-06
4.60177e-07
2.75336e-07
2.3334e-07
2.29164e-07
3.01575e-07
5.58214e-07
1.07519e-06
1.52368e-06
9.64877e-07
4.3747e-07
4.25402e-07
5.18475e-07
6.24582e-07
9.10096e-07
3.40651e-06
2.12311e-05
1.7159e-05
1.78769e-05
1.84752e-05
2.69568e-06
8.9051e-07
7.14179e-07
6.25124e-07
5.27238e-07
5.18429e-07
9.81197e-07
1.4806e-06
2.02323e-06
1.63584e-06
1.57948e-06
2.30103e-06
3.0549e-06
3.70907e-06
4.85537e-06
8.2036e-06
1.77821e-05
1.80429e-05
1.86618e-05
1.57474e-05
7.15102e-06
4.45118e-06
3.66606e-06
3.12724e-06
2.3782e-06
1.67512e-06
1.61894e-06
1.94853e-06
2.79687e-06
3.84497e-06
4.8911e-06
6.1694e-06
7.83479e-06
9.99528e-06
1.3061e-05
1.77291e-05
2.43033e-05
2.57513e-05
2.58187e-05
2.2382e-05
1.60786e-05
1.18879e-05
9.18943e-06
7.26336e-06
5.74683e-06
4.55878e-06
3.57816e-06
2.60424e-06
3.35223e-08
4.73444e-08
6.0388e-08
7.30956e-08
8.66169e-08
1.02743e-07
1.24468e-07
1.54351e-07
1.9189e-07
2.17873e-07
1.93976e-07
1.66577e-07
1.34772e-07
1.15248e-07
9.84755e-08
8.40964e-08
7.11622e-08
5.9031e-08
4.61344e-08
3.15242e-08
4.72841e-08
5.22728e-08
6.56855e-08
7.84448e-08
9.25175e-08
1.12421e-07
1.49544e-07
2.39563e-07
1.14848e-06
1.76358e-06
1.50662e-06
8.6739e-07
1.89786e-07
1.33164e-07
1.05935e-07
8.88777e-08
7.55204e-08
6.33526e-08
5.10419e-08
4.11461e-08
5.82568e-08
5.92564e-08
7.27199e-08
8.50978e-08
9.77962e-08
1.17469e-07
1.70748e-07
4.91026e-07
4.25514e-06
3.78021e-06
3.18616e-06
3.32914e-06
3.37364e-07
1.41037e-07
1.05417e-07
8.84983e-08
7.62231e-08
6.47974e-08
5.34882e-08
5.15793e-08
7.50815e-08
7.79178e-08
9.09024e-08
1.01769e-07
1.12817e-07
1.32559e-07
2.18207e-07
9.25827e-07
8.25152e-06
6.39321e-06
5.45271e-06
6.83991e-06
6.56494e-07
1.78058e-07
1.16753e-07
9.76806e-08
8.62609e-08
7.85254e-08
7.22484e-08
6.69616e-08
2.49301e-07
1.22471e-07
1.0402e-07
1.13289e-07
1.29587e-07
1.58285e-07
2.94434e-07
1.52337e-06
1.28323e-05
9.57641e-06
8.40491e-06
1.11661e-05
1.15915e-06
2.47311e-07
1.47029e-07
1.23735e-07
1.12062e-07
1.12054e-07
1.46885e-07
2.77219e-07
6.80214e-07
3.22667e-07
1.67664e-07
1.29376e-07
1.40261e-07
1.82438e-07
3.81043e-07
2.17827e-06
1.70687e-05
1.30535e-05
1.18852e-05
1.51657e-05
1.71495e-06
3.48674e-07
1.94146e-07
1.51946e-07
1.39658e-07
1.80012e-07
3.31161e-07
6.69992e-07
1.09414e-06
5.31059e-07
2.52505e-07
1.77427e-07
1.90917e-07
2.53556e-07
5.08907e-07
2.70369e-06
1.95361e-05
1.61793e-05
1.52789e-05
1.71577e-05
2.16531e-06
5.16815e-07
3.10868e-07
2.369e-07
2.11609e-07
2.7932e-07
5.40157e-07
1.08202e-06
1.51585e-06
9.55487e-07
4.33705e-07
4.19555e-07
5.15166e-07
6.27896e-07
9.05066e-07
3.1135e-06
1.93812e-05
1.78769e-05
1.74687e-05
1.6388e-05
2.43035e-06
9.3376e-07
7.40247e-07
6.21988e-07
5.06736e-07
4.9824e-07
9.85606e-07
1.49786e-06
2.01312e-06
1.66046e-06
1.60523e-06
2.32703e-06
3.06628e-06
3.68569e-06
4.7164e-06
7.76304e-06
1.66219e-05
1.86618e-05
1.84583e-05
1.44493e-05
6.67645e-06
4.34184e-06
3.64332e-06
3.10924e-06
2.38575e-06
1.70091e-06
1.65753e-06
1.97599e-06
2.77576e-06
3.82363e-06
4.86378e-06
6.1e-06
7.69379e-06
9.73967e-06
1.26145e-05
1.69826e-05
2.32614e-05
2.58187e-05
2.52912e-05
2.1203e-05
1.53534e-05
1.15195e-05
9.00786e-06
7.17873e-06
5.7232e-06
4.57577e-06
3.60794e-06
2.63639e-06
3.14411e-08
4.50956e-08
5.8144e-08
7.05212e-08
8.30623e-08
9.70526e-08
1.14389e-07
1.36962e-07
1.5871e-07
1.85588e-07
1.66577e-07
1.40544e-07
1.26745e-07
1.1348e-07
1.01223e-07
8.97083e-08
7.83444e-08
6.65542e-08
5.27618e-08
3.58228e-08
4.28049e-08
5.13788e-08
6.34235e-08
7.35268e-08
8.40606e-08
9.79054e-08
1.20673e-07
1.63732e-07
2.68425e-07
1.0759e-06
8.6739e-07
1.93077e-07
1.34398e-07
1.10019e-07
9.52704e-08
8.47202e-08
7.55067e-08
6.58983e-08
5.42432e-08
4.07812e-08
5.45346e-08
6.51403e-08
7.84874e-08
8.71412e-08
9.31813e-08
1.01637e-07
1.22477e-07
1.94747e-07
6.08794e-07
3.80379e-06
3.32914e-06
4.19916e-07
1.48197e-07
1.06644e-07
9.17012e-08
8.37722e-08
7.78276e-08
7.059e-08
5.9035e-08
5.27778e-08
8.78004e-08
8.96064e-08
1.0255e-07
1.10159e-07
1.13514e-07
1.16471e-07
1.36159e-07
2.69153e-07
1.25528e-06
7.55112e-06
6.83991e-06
8.9441e-07
2.0099e-07
1.19047e-07
1.04153e-07
1.0184e-07
1.02209e-07
9.99313e-08
8.99105e-08
8.76473e-08
2.78752e-07
1.43468e-07
1.19334e-07
1.2235e-07
1.28524e-07
1.35016e-07
1.60767e-07
3.72456e-07
2.18255e-06
1.21336e-05
1.11661e-05
1.62998e-06
2.85624e-07
1.49258e-07
1.33399e-07
1.30692e-07
1.27558e-07
1.26427e-07
1.55427e-07
2.98998e-07
7.16532e-07
3.4583e-07
1.86537e-07
1.42896e-07
1.39073e-07
1.49202e-07
1.87609e-07
4.8532e-07
3.16439e-06
1.64733e-05
1.51657e-05
2.42197e-06
3.96366e-07
1.95087e-07
1.63904e-07
1.50537e-07
1.48691e-07
1.884e-07
3.46482e-07
7.11199e-07
1.142e-06
5.79384e-07
2.76329e-07
1.94911e-07
1.93395e-07
2.19532e-07
2.80738e-07
6.58505e-07
3.9291e-06
1.89483e-05
1.71577e-05
3.04893e-06
5.89272e-07
3.2645e-07
2.68369e-07
2.31127e-07
2.20807e-07
2.96021e-07
5.88455e-07
1.13806e-06
1.58177e-06
1.05266e-06
4.91711e-07
5.00046e-07
6.12824e-07
7.19695e-07
8.10708e-07
1.15759e-06
4.35984e-06
1.84752e-05
1.6388e-05
3.34171e-06
1.09493e-06
8.93085e-07
8.11135e-07
6.93809e-07
5.68562e-07
5.47688e-07
1.07934e-06
1.57186e-06
2.10679e-06
1.85292e-06
1.95785e-06
2.809e-06
3.72252e-06
4.35981e-06
4.77678e-06
5.52124e-06
8.4106e-06
1.57474e-05
1.44493e-05
7.24081e-06
5.094e-06
4.70814e-06
4.31573e-06
3.64711e-06
2.76734e-06
1.99585e-06
1.83438e-06
2.07255e-06
2.85171e-06
3.91538e-06
4.97345e-06
6.14623e-06
7.58119e-06
9.28151e-06
1.13991e-05
1.42023e-05
1.80021e-05
2.2382e-05
2.1203e-05
1.66225e-05
1.31131e-05
1.05854e-05
8.65358e-06
7.08273e-06
5.75377e-06
4.66143e-06
3.68615e-06
2.70561e-06
3.44277e-08
5.18986e-08
6.70618e-08
7.93822e-08
8.99789e-08
1.00375e-07
1.12855e-07
1.27781e-07
1.41599e-07
1.46088e-07
1.34772e-07
1.26745e-07
1.20522e-07
1.14025e-07
1.06998e-07
9.90975e-08
9.00783e-08
7.82572e-08
6.23633e-08
4.08307e-08
4.35504e-08
5.57681e-08
6.77379e-08
7.68299e-08
8.53683e-08
9.42207e-08
1.0683e-07
1.30786e-07
1.76683e-07
2.35878e-07
1.89786e-07
1.34398e-07
1.11701e-07
9.92285e-08
9.21835e-08
8.66664e-08
8.08026e-08
7.28352e-08
6.08768e-08
4.41013e-08
6.47115e-08
8.48353e-08
9.91968e-08
1.04563e-07
1.03974e-07
1.02987e-07
1.07887e-07
1.30687e-07
2.02478e-07
4.21784e-07
3.37364e-07
1.48197e-07
1.08371e-07
9.52455e-08
9.19933e-08
9.22639e-08
9.19605e-08
8.70961e-08
7.41213e-08
5.75504e-08
1.23493e-07
1.19218e-07
1.30755e-07
1.36227e-07
1.34977e-07
1.28527e-07
1.2368e-07
1.43863e-07