/*--------------------------------*- C++ -*----------------------------------*\
  =========                 |
  \\      /  F ield         | OpenFOAM: The Open Source CFD Toolbox
   \\    /   O peration     | Website:  https://openfoam.org
    \\  /    A nd           | Version:  9
     \\/     M anipulation  |
\*---------------------------------------------------------------------------*/
FoamFile
{
    format      ascii;
    class       volVectorField;
    location    "850";
    object      U;
}
// * * * * * * * * * * * * * * * * * * * * * * * * * * * * * * * * * * * * * //

dimensions      [0 1 -1 0 0 0 0];

internalField   nonuniform List<vector> 
4000
(
(0.00683868 -0.0160574 0.00683868)
(0.012303 -0.0057028 0.00591513)
(0.012217 0.00347881 0.00397893)
(0.00665611 0.00447678 0.00189367)
(0.000891861 -0.000454262 0.000942377)
(-0.000300586 -0.00342797 0.000852878)
(0.000446425 -0.00261515 0.000745417)
(0.00142231 -0.00176124 0.000825238)
(0.00141728 -0.00162953 0.000946538)
(0.00124788 -0.00128674 0.00090808)
(0.00117682 -0.00046105 0.000738196)
(0.000358553 0.000566598 0.000789093)
(-0.00144652 0.000329742 0.000891094)
(-0.00169663 -0.000889574 0.000774623)
(-0.00058102 -0.00289864 0.000694896)
(0.000483945 -0.00406633 0.000570568)
(0.000304624 -0.00215178 0.000419892)
(-0.00253912 0.00354917 0.00146309)
(-0.00521319 0.00382457 0.00351498)
(-0.0036533 -0.00228889 0.004774)
(0.0045154 -0.0311616 0.0045154)
(0.011036 -0.0187743 0.00496488)
(0.0157456 -0.00631562 0.00486753)
(0.0168645 0.00269431 0.0043008)
(0.0127335 0.00501646 0.0032457)
(0.00386128 0.00144034 0.00180781)
(-0.00338123 -0.00215177 1.94288e-05)
(-0.00404876 -0.00173837 -0.000632835)
(-0.00404843 -0.00146543 -0.000627204)
(-0.00368941 -0.00160022 -0.000627226)
(-0.00228528 -0.00141188 -0.000582402)
(-0.000137531 -0.00122101 -0.000212853)
(0.00170948 -0.00203288 0.000300938)
(0.00283836 -0.00267866 0.000513046)
(0.00189791 -0.0022934 0.0010846)
(-0.00538187 0.00144138 0.00241683)
(-0.0125257 0.00347957 0.00399607)
(-0.014849 -0.00245707 0.00536896)
(-0.0114161 -0.0131231 0.00579948)
(-0.00519248 -0.0232183 0.00523269)
(0.00246823 -0.0436743 0.00246823)
(0.00665421 -0.0305553 0.00346851)
(0.00917298 -0.0165017 0.00380435)
(0.0121443 -0.00460055 0.00409738)
(0.0135485 0.00348703 0.00400729)
(0.0101704 0.00528135 0.00337164)
(0.00419529 0.00358248 0.00235896)
(-0.00206203 -2.29098e-05 0.000374816)
(-0.00264213 -0.00161489 -0.000841355)
(-0.00216726 -0.00253782 -0.000861091)
(-0.00120236 -0.00320679 -0.000553802)
(-0.000246766 -0.00364161 2.314e-05)
(-0.000477961 -0.00380548 0.000831706)
(-0.00302251 -0.00207435 0.00174925)
(-0.00868191 0.00140723 0.00293032)
(-0.013824 0.0022518 0.0039785)
(-0.0150205 -0.00267295 0.00451446)
(-0.0120518 -0.0132997 0.00446484)
(-0.00832848 -0.0260265 0.00406088)
(-0.00334987 -0.037109 0.00284272)
(0.00119689 -0.0502032 0.00119689)
(0.00309575 -0.0371507 0.00262034)
(0.00190303 -0.023329 0.00313891)
(0.00282517 -0.0117497 0.00391633)
(0.0035227 -0.00291107 0.00472261)
(0.00484359 0.00259069 0.00479224)
(0.00398375 0.00384242 0.00419013)
(0.00211291 0.00319962 0.00298885)
(0.000313313 0.00134458 0.00150783)
(-0.000228102 -0.00083808 0.000518111)
(-0.000398355 -0.0025185 0.000870893)
(-0.00176749 -0.0025577 0.0018845)
(-0.00418333 -0.00173222 0.00277924)
(-0.00675673 -0.00046695 0.00364192)
(-0.00836772 0.000133973 0.00443506)
(-0.00835789 -0.00256524 0.00481831)
(-0.0070157 -0.0102675 0.00437857)
(-0.00505073 -0.0218586 0.00355922)
(-0.004785 -0.0347272 0.00283204)
(-0.00203675 -0.0455124 0.00112613)
(0.000274931 -0.0529604 0.000274932)
(0.000486304 -0.0403821 0.00198937)
(-0.00324332 -0.0277664 0.00242635)
(-0.00398213 -0.0181713 0.00299478)
(-0.00446339 -0.0112285 0.00357637)
(-0.00374667 -0.00671543 0.00396666)
(-0.00255793 -0.00416727 0.00400854)
(-0.00135282 -0.00308795 0.00395716)
(-0.000249443 -0.00262512 0.00384801)
(0.000581177 -0.00256321 0.0036767)
(0.00134221 -0.00337954 0.00376379)
(0.00118181 -0.00424387 0.00407905)
(0.000997744 -0.00523843 0.00424537)
(0.000903669 -0.00633862 0.00445133)
(0.00103858 -0.00778552 0.00469019)
(0.00139394 -0.0110364 0.00443516)
(0.00113255 -0.017522 0.00362442)
(0.000834445 -0.0272854 0.00276621)
(-0.00211672 -0.0392797 0.00201021)
(-0.00113353 -0.0495758 -5.57012e-05)
(-0.000587665 -0.052791 -0.000587665)
(-0.00151092 -0.0415852 0.0012325)
(-0.00652119 -0.0312099 0.00125624)
(-0.0079988 -0.02374 0.00125527)
(-0.00861011 -0.0185212 0.00115284)
(-0.00778137 -0.0150816 0.00107536)
(-0.00606494 -0.0129195 0.00104039)
(-0.00388055 -0.0116351 0.00113012)
(-0.00154736 -0.0111206 0.00138802)
(0.000226246 -0.0112031 0.00179791)
(0.00212478 -0.012181 0.00203174)
(0.00335643 -0.0129872 0.00183151)
(0.00480434 -0.013755 0.00167735)
(0.00601106 -0.0147359 0.00168766)
(0.00686678 -0.0162727 0.00182188)
(0.00716176 -0.0190179 0.00189646)
(0.00629307 -0.0237229 0.00185213)
(0.00481332 -0.0308885 0.00159443)
(4.55024e-05 -0.0408199 0.00121946)
(-0.000306082 -0.0502928 -0.00102944)
(-0.00166354 -0.0499864 -0.00166354)
(-0.00328489 -0.0408534 7.95305e-05)
(-0.00916101 -0.0329168 -0.000423366)
(-0.0111327 -0.0276964 -0.000956606)
(-0.0116942 -0.024215 -0.00154463)
(-0.0105794 -0.0219927 -0.00205782)
(-0.00836061 -0.0205744 -0.00246208)
(-0.00549919 -0.0196454 -0.00266733)
(-0.00236998 -0.0190762 -0.0025799)
(2.89427e-05 -0.0189411 -0.00214337)
(0.0025141 -0.0199222 -0.00206243)
(0.00444614 -0.0207242 -0.0022549)
(0.00683317 -0.0214153 -0.00228388)
(0.00891214 -0.0221783 -0.00207117)
(0.0104068 -0.0232418 -0.00165884)
(0.0109522 -0.0250046 -0.00112631)
(0.00995579 -0.0279755 -0.000543133)
(0.00781561 -0.0328054 -0.000137316)
(0.00207553 -0.0402348 9.75096e-05)
(0.000807845 -0.0480339 -0.00207879)
(-0.00336391 -0.0434949 -0.00336391)
(-0.00573615 -0.0367031 -0.00192565)
(-0.0122258 -0.0315161 -0.00282369)
(-0.0145706 -0.0285782 -0.00377362)
(-0.0149929 -0.026755 -0.00466844)
(-0.0135356 -0.025702 -0.0054462)
(-0.0107812 -0.0250961 -0.00608396)
(-0.00718961 -0.0247196 -0.00651431)
(-0.00316927 -0.0244702 -0.00663363)
(-0.000109915 -0.0244746 -0.00626472)
(0.00291184 -0.0253307 -0.00630486)
(0.0054473 -0.0259474 -0.00651485)
(0.0087407 -0.0263019 -0.00639597)
(0.0116463 -0.026554 -0.00597578)
(0.0137737 -0.026894 -0.00532047)
(0.014696 -0.0276047 -0.0045219)
(0.0137759 -0.0289203 -0.00353809)
(0.0111775 -0.0314509 -0.00259943)
(0.0047498 -0.0361604 -0.00184611)
(0.00256938 -0.0419804 -0.00366184)
(-0.00629321 -0.0323945 -0.00629321)
(-0.0099668 -0.027636 -0.0057204)
(-0.0166691 -0.0249444 -0.0068839)
(-0.0190665 -0.0239306 -0.00819865)
(-0.0192795 -0.0236415 -0.00944334)
(-0.0174594 -0.0237804 -0.0105071)
(-0.0141192 -0.0240495 -0.0113722)
(-0.00969096 -0.0242316 -0.0119697)
(-0.00460615 -0.0242018 -0.0121044)
(-0.000654866 -0.024058 -0.0113309)
(0.00352741 -0.0245411 -0.0114197)
(0.00697627 -0.025019 -0.0119558)
(0.0113458 -0.0250733 -0.0118599)
(0.0151229 -0.0247958 -0.0112982)
(0.0178689 -0.0243811 -0.0104205)
(0.0191615 -0.0240695 -0.00930421)
(0.0185257 -0.0241399 -0.00799591)
(0.0158607 -0.0248903 -0.00665614)
(0.00915352 -0.0272241 -0.00555471)
(0.00551056 -0.0313287 -0.00642617)
(-0.0110375 -0.0200437 -0.0110375)
(-0.017475 -0.0156624 -0.012413)
(-0.0240792 -0.013531 -0.0147882)
(-0.0262558 -0.0126582 -0.0170876)
(-0.0260529 -0.0121775 -0.0193306)
(-0.0237227 -0.0118359 -0.0214293)
(-0.0196449 -0.0114488 -0.0232537)
(-0.0141379 -0.0109042 -0.0246218)
(-0.0076004 -0.010148 -0.0252424)
(-0.00188016 -0.00942233 -0.0241691)
(0.00506778 -0.00995912 -0.0242246)
(0.0100701 -0.0107913 -0.0249566)
(0.0158909 -0.011479 -0.024365)
(0.0207133 -0.0119491 -0.0229883)
(0.0241577 -0.0122514 -0.0211623)
(0.0259506 -0.0125026 -0.0190593)
(0.0257338 -0.0128682 -0.0167858)
(0.0232644 -0.0135972 -0.014448)
(0.0165882 -0.0155069 -0.0120844)
(0.0101677 -0.0194028 -0.0109402)
(0.00591513 -0.0057028 0.012303)
(0.00986963 0.00079162 0.00986963)
(0.00955024 0.00487511 0.00593571)
(0.00562188 0.00287109 0.00282766)
(0.00183994 -0.00145532 0.00171242)
(0.00118301 -0.00318751 0.00193161)
(0.00180478 -0.0023571 0.00224546)
(0.00222169 -0.00129142 0.00251793)
(0.00168089 -0.00110141 0.00270639)
(0.00105681 -0.000950824 0.00253768)
(0.000956134 -0.000180109 0.00216652)
(-0.000343863 0.000841528 0.00231514)
(-0.00191028 0.000225626 0.00262005)
(-0.00220833 -0.00101113 0.00250025)
(-0.00139016 -0.00279404 0.00232702)
(-0.000282981 -0.0040474 0.0019331)
(-0.000167713 -0.00339041 0.0016899)
(-0.00170797 0.000630793 0.00310447)
(-0.00315304 0.00440417 0.00555452)
(-0.0022264 0.00453918 0.00747878)
(0.00496488 -0.0187743 0.011036)
(0.0113294 -0.0110279 0.0113294)
(0.0160805 -0.0023582 0.0102597)
(0.0167787 0.00370913 0.00813676)
(0.0129418 0.0047321 0.00561674)
(0.00567565 0.00117075 0.0033221)
(-2.11814e-05 -0.00188887 0.00127124)
(-0.00194212 -0.00148827 5.45318e-05)
(-0.00260085 -0.00142501 -0.000133864)
(-0.00298056 -0.00210238 -6.50479e-05)
(-0.00224728 -0.00222864 0.000144595)
(-0.00074298 -0.00194328 0.000794725)
(0.000716088 -0.00220824 0.00140536)
(0.0013972 -0.00251204 0.0016394)
(7.87317e-05 -0.00220542 0.0023981)
(-0.0052536 0.000785131 0.00405067)
(-0.0111514 0.00375184 0.00667825)
(-0.0134029 0.00168365 0.00981059)
(-0.010695 -0.005105 0.0119772)
(-0.00523955 -0.0113155 0.0122694)
(0.00346851 -0.0305553 0.00665421)
(0.00878487 -0.0225822 0.00878487)
(0.0124921 -0.0119977 0.00921902)
(0.0155938 -0.00189624 0.00854094)
(0.015815 0.00432352 0.00722787)
(0.0122314 0.00543531 0.00556656)
(0.00642553 0.00325231 0.00356838)
(0.00109737 -0.000119553 0.00119572)
(-0.000944356 -0.00184633 -0.000800248)
(-0.001541 -0.0031667 -0.000908175)
(-0.00173762 -0.00420394 -0.000300027)
(-0.00177881 -0.00440894 0.000637418)
(-0.00225265 -0.00374002 0.00166181)
(-0.00443801 -0.00165469 0.00299659)
(-0.00949298 0.00174328 0.00493051)
(-0.0145232 0.00316256 0.00707451)
(-0.0163497 0.000276021 0.00893614)
(-0.0138354 -0.00776148 0.0101091)
(-0.00944491 -0.0168654 0.0100907)
(-0.0038623 -0.023562 0.00838494)
(0.00262034 -0.0371507 0.00309575)
(0.00692159 -0.0296515 0.00692159)
(0.00779971 -0.0187624 0.00845932)
(0.0091732 -0.00742719 0.00885698)
(0.0104237 0.00161898 0.00853972)
(0.00989333 0.00577646 0.00744813)
(0.00756247 0.00577683 0.00592348)
(0.00464879 0.00382561 0.00387576)
(0.00196074 0.00102145 0.00154903)
(0.000110858 -0.00180521 -2.54495e-05)
(-0.00151907 -0.00324953 0.000683298)
(-0.00349683 -0.00292954 0.00216346)
(-0.00637348 -0.00130602 0.00358991)
(-0.00969628 0.00121495 0.00520634)
(-0.0123065 0.00293609 0.00683606)
(-0.0135794 0.00137951 0.00827717)
(-0.0121192 -0.00560598 0.00916864)
(-0.00969226 -0.0159226 0.00896601)
(-0.00755882 -0.0257499 0.00754901)
(-0.00293196 -0.0319768 0.00399487)
(0.00198937 -0.0403821 0.000486304)
(0.00588224 -0.0330167 0.00588224)
(0.00433425 -0.022101 0.00826761)
(0.00390999 -0.0106837 0.00922538)
(0.00305778 -0.00157265 0.00968397)
(0.00356698 0.00383401 0.00925323)
(0.00300091 0.00513261 0.00808324)
(0.00194573 0.0043238 0.00660293)
(0.00103975 0.00292365 0.00508453)
(0.000624511 0.00157498 0.00400968)
(0.000100462 0.000517025 0.00432654)
(-0.00138939 0.000343368 0.00554675)
(-0.00323748 0.000630945 0.00666875)
(-0.00510879 0.00126121 0.00794189)
(-0.00641793 0.00117947 0.00922157)
(-0.00621244 -0.00230675 0.00997013)
(-0.00628732 -0.0101549 0.0095535)
(-0.00595603 -0.0207445 0.00841496)
(-0.00649091 -0.0305104 0.00588721)
(-0.00233656 -0.0365511 0.000631199)
(0.0012325 -0.0415852 -0.00151092)
(0.0051108 -0.0337506 0.0051108)
(0.00170104 -0.0231489 0.0078977)
(0.000388022 -0.0123594 0.00896365)
(-0.00115852 -0.00399868 0.00933409)
(-0.00119051 0.00100503 0.00938621)
(-0.00072119 0.00324376 0.00892101)
(-0.000509697 0.00341343 0.0082336)
(-0.00015499 0.00263877 0.00765075)
(0.000287119 0.00176545 0.00721123)
(0.000981843 0.0008636 0.00745862)
(0.000949086 0.00059171 0.00800689)
(0.000624945 0.000553366 0.00854622)
(5.91437e-05 0.000382786 0.00924945)
(-0.000287631 -0.000909647 0.0099453)
(-0.000793021 -0.00497937 0.0100186)
(-0.00216901 -0.0126516 0.00937654)
(-0.00317554 -0.0227036 0.00788891)
(-0.00576085 -0.0321446 0.00474226)
(-0.00163824 -0.0386023 -0.0018743)
(7.95301e-05 -0.0408534 -0.00328489)
(0.00390585 -0.0323185 0.00390585)
(-0.0010923 -0.0224164 0.00668238)
(-0.00257417 -0.0134744 0.00759532)
(-0.00393794 -0.00698578 0.00766473)
(-0.00393391 -0.00274059 0.00755251)
(-0.00304193 -0.000265795 0.00759589)
(-0.00178281 0.000778625 0.00778017)
(-0.000485828 0.000738316 0.00804544)
(0.000374279 0.000248052 0.00818821)
(0.00127178 -0.000514248 0.00834437)
(0.00174507 -0.000960702 0.0084266)
(0.00232168 -0.00149538 0.00833441)
(0.00277941 -0.00247882 0.00829781)
(0.00297481 -0.00432639 0.00839435)
(0.00259433 -0.00792427 0.00846859)
(0.00114162 -0.0140257 0.00801417)
(-0.00032741 -0.0226292 0.00663512)
(-0.00458254 -0.0313272 0.00343587)
(-0.000491935 -0.0386047 -0.00382419)
(-0.00192565 -0.0367031 -0.00573615)
(0.00106805 -0.0280783 0.00106805)
(-0.00494037 -0.0204089 0.00334485)
(-0.0064687 -0.0142022 0.00378854)
(-0.00745305 -0.00961625 0.00310903)
(-0.00704007 -0.00660494 0.0024303)
(-0.00567509 -0.00469055 0.00198539)
(-0.00371219 -0.00345723 0.00201862)
(-0.0015626 -0.00249622 0.0027409)
(3.05852e-05 -0.00143475 0.00423161)
(0.00157958 -0.00202206 0.00447537)
(0.00281363 -0.0035585 0.00350579)
(0.00437734 -0.00483671 0.00288855)
(0.00573302 -0.00607774 0.00284665)
(0.00655859 -0.0077127 0.0032531)
(0.00658703 -0.010437 0.00380547)
(0.00551584 -0.0148946 0.00406916)
(0.00388984 -0.0205871 0.00337803)
(-0.0017458 -0.0275409 0.000664993)
(0.00151944 -0.0351199 -0.00620892)
(-0.0057204 -0.027636 -0.0099668)
(-0.00576186 -0.0211698 -0.00576186)
(-0.0116345 -0.0165825 -0.00471019)
(-0.0133268 -0.014056 -0.00510307)
(-0.013445 -0.0125368 -0.00601152)
(-0.0119545 -0.011841 -0.00685219)
(-0.0094985 -0.0116715 -0.0074513)
(-0.00644828 -0.0117314 -0.00766744)
(-0.00306903 -0.0118127 -0.00713857)
(-0.000519687 -0.0116388 -0.00549749)
(0.00260898 -0.012116 -0.00584412)
(0.00498736 -0.0128391 -0.0071377)
(0.00783538 -0.0128982 -0.00760246)
(0.010376 -0.0127369 -0.00742656)
(0.0123639 -0.0127349 -0.00678935)
(0.0133908 -0.0132003 -0.00588099)
(0.0128751 -0.0144396 -0.00496939)
(0.0108991 -0.0166397 -0.0046256)
(0.00515677 -0.0207745 -0.00584988)
(0.00523752 -0.0266654 -0.0102107)
(-0.012413 -0.0156624 -0.017475)
(-0.0183121 -0.0095177 -0.0183121)
(-0.0250614 -0.00617638 -0.021029)
(-0.027172 -0.00435648 -0.024089)
(-0.0270495 -0.00312721 -0.0272384)
(-0.0249448 -0.00215833 -0.0302931)
(-0.0212185 -0.00118867 -0.0329877)
(-0.0160636 -8.32072e-05 -0.0349973)
(-0.00964677 0.00122215 -0.0359166)
(-0.00328984 0.00269064 -0.0347033)
(0.00629235 0.00215505 -0.0350007)
(0.0119658 0.000697764 -0.0359334)
(0.0177284 -0.000542713 -0.0349828)
(0.0221696 -0.00160942 -0.0328825)
(0.0252482 -0.00254986 -0.0301639)
(0.0268393 -0.00349431 -0.0271081)
(0.0265879 -0.00467401 -0.0239131)
(0.0242418 -0.00638896 -0.0207991)
(0.0175518 -0.00951102 -0.0180782)
(0.0117684 -0.0151976 -0.0173445)
(0.00397893 0.00347881 0.012217)
(0.00593571 0.00487511 0.00955024)
(0.00573126 0.00376626 0.00573126)
(0.00363643 0.000159304 0.00305644)
(0.0021104 -0.00277165 0.00239138)
(0.00224324 -0.00321479 0.00302885)
(0.0029348 -0.00203725 0.00371508)
(0.00293553 -0.00092755 0.00425789)
(0.00193906 -0.0007596 0.00464907)
(0.000837938 -0.000830761 0.00454098)
(0.000687791 -0.000147807 0.00420893)
(-0.00111831 0.000699142 0.00431328)
(-0.00231842 -7.475e-06 0.00450583)
(-0.00279738 -0.000935915 0.00422222)
(-0.00225359 -0.00232821 0.00382898)
(-0.00114075 -0.00364426 0.00319785)
(-0.000445725 -0.00397265 0.00251961)
(-0.00050619 -0.00232717 0.00301853)
(-0.00103485 0.00152317 0.0045868)
(-0.000688585 0.00484024 0.00569721)
(0.00486753 -0.00631562 0.0157456)
(0.0102597 -0.0023582 0.0160805)
(0.0141904 0.00219366 0.0141904)
(0.0143653 0.00466523 0.0108859)
(0.0107193 0.00368785 0.00728711)
(0.00487656 -9.08587e-05 0.00420749)
(0.000791716 -0.00189452 0.00215253)
(-0.000742634 -0.00114212 0.00125152)
(-0.00163061 -0.00100625 0.00111076)
(-0.00252277 -0.00214241 0.00130879)
(-0.00221181 -0.0026042 0.00166974)
(-0.00112585 -0.00225031 0.00230765)
(8.10179e-05 -0.00211207 0.00259779)
(0.000636569 -0.00223106 0.00253767)
(-0.000149697 -0.00238712 0.00301119)
(-0.00349598 -0.000619419 0.00466957)
(-0.00786252 0.00273294 0.00774034)
(-0.00998898 0.00435835 0.0117656)
(-0.00831012 0.00240007 0.0150026)
(-0.00450483 -0.000306319 0.0159583)
(0.00380435 -0.0165017 0.00917298)
(0.00921902 -0.0119977 0.0124921)
(0.0134379 -0.00541171 0.0134379)
(0.0163355 0.00161631 0.0124703)
(0.0158723 0.00518432 0.0103367)
(0.0121857 0.00523554 0.00768733)
(0.00656587 0.00258635 0.00480849)
(0.001887 -0.000429858 0.00197572)
(-2.08285e-05 -0.00166212 -9.89467e-05)
(-0.00109812 -0.00334893 -0.000401763)
(-0.00189015 -0.00459173 0.000264204)
(-0.0023163 -0.00453179 0.0012844)
(-0.00277205 -0.00347087 0.00238955)
(-0.00432501 -0.00145338 0.00396532)
(-0.0083511 0.00171754 0.0064881)
(-0.0129861 0.00379184 0.00958594)
(-0.0151749 0.00292284 0.0126017)
(-0.0135147 -0.00142936 0.014586)
(-0.00918414 -0.00696785 0.0145198)
(-0.00396175 -0.0105821 0.0122407)
(0.00313891 -0.023329 0.00190303)
(0.00845932 -0.0187624 0.00779971)
(0.0108363 -0.0118149 0.0108363)
(0.0129058 -0.00337086 0.0116748)
(0.0139762 0.00368853 0.0111136)
(0.0126427 0.00663955 0.00951912)
(0.00963652 0.00597274 0.00741882)
(0.00606613 0.00346235 0.0047202)
(0.00279926 0.000382623 0.00165547)
(0.000429387 -0.00235992 -0.000314161)
(-0.00176809 -0.00365376 0.000488061)
(-0.00400168 -0.00324844 0.00236474)
(-0.00683495 -0.00137247 0.00436942)
(-0.0102435 0.00157693 0.00665355)
(-0.0132592 0.0038982 0.00894045)
(-0.01517 0.00350822 0.0110203)
(-0.014553 -0.00111882 0.0124367)
(-0.0118082 -0.00853807 0.0121695)
(-0.00859081 -0.0148902 0.00961647)
(-0.00337333 -0.0186392 0.00439311)
(0.00242635 -0.0277664 -0.00324332)
(0.00826761 -0.022101 0.00433425)
(0.00879987 -0.0149548 0.00879987)
(0.00930598 -0.00614822 0.0107706)
(0.00930885 0.00192322 0.0114294)
(0.00884012 0.00658499 0.010675)
(0.00720228 0.00717261 0.00902515)
(0.00488893 0.00537859 0.00675483)
(0.00264171 0.00287946 0.00415696)
(0.000950259 0.000659248 0.00213279)
(-0.000881001 -0.000484241 0.0027719)
(-0.00326957 -7.66584e-05 0.00491875)
(-0.00604363 0.00127627 0.00695222)
(-0.00882344 0.00308455 0.00893429)
(-0.0109862 0.00388909 0.0107626)
(-0.0117108 0.00139575 0.0119341)
(-0.0110527 -0.00514545 0.0116429)
(-0.00981243 -0.0131965 0.0096607)
(-0.00850687 -0.019577 0.00518678)
(-0.00284753 -0.0241801 -0.00214687)
(0.00125624 -0.0312099 -0.00652119)
(0.0078977 -0.0231489 0.00170104)
(0.00690079 -0.0156052 0.00690079)
(0.00643043 -0.00678508 0.00940454)
(0.00524935 0.00136269 0.0105541)
(0.00464403 0.0062682 0.0102862)
(0.00384735 0.00758571 0.00908535)
(0.0026951 0.00653686 0.00744754)
(0.00158399 0.00464814 0.00576607)
(0.000766724 0.00308444 0.00439636)
(4.21857e-05 0.00229743 0.0048492)
(-0.001279 0.00251471 0.00642181)
(-0.00303545 0.00336839 0.00794814)
(-0.00491636 0.00440536 0.00954617)
(-0.00638582 0.00421181 0.0109832)
(-0.00715092 0.000704942 0.0115371)
(-0.00789891 -0.0065986 0.0102911)
(-0.00800129 -0.0148293 0.0074007)
(-0.00829849 -0.0215372 0.00187179)
(-0.00180464 -0.028415 -0.0063411)
(-0.000423366 -0.0329168 -0.00916101)
(0.00668238 -0.0224164 -0.00109229)
(0.00435991 -0.014603 0.00435991)
(0.00377695 -0.00637794 0.00710073)
(0.00220828 -2.38751e-05 0.00831899)
(0.00146884 0.00456814 0.00801317)
(0.00126519 0.00604522 0.00712764)
(0.00108438 0.00551506 0.00619436)
(0.00089443 0.00427536 0.00540421)
(0.000625029 0.003328 0.00461435)
(0.000390154 0.00265889 0.00480116)
(-0.000231111 0.00250237 0.00576821)
(-0.00105169 0.00292277 0.00671694)
(-0.00193207 0.00342118 0.00781797)
(-0.00267621 0.00276582 0.00895987)
(-0.00364803 -0.000759778 0.00940278)
(-0.0050476 -0.00671743 0.007882)
(-0.00551335 -0.0144974 0.00464357)
(-0.00715918 -0.0214643 -0.00120727)
(-8.68743e-05 -0.03085 -0.00933472)
(-0.00282369 -0.0315161 -0.0122258)
(0.00334485 -0.0204089 -0.00494037)
(-0.000219002 -0.0121814 -0.000219)
(-0.000580031 -0.00419857 0.00179329)
(-0.00132052 0.00225196 0.00249287)
(-0.000879394 0.00597599 0.00257177)
(-0.000404967 0.0074819 0.00192383)
(0.000132444 0.00773859 0.00139129)
(0.000576151 0.00745014 0.00133451)
(0.00046038 0.00708689 0.00172926)
(0.000142903 0.0066732 0.00187459)
(6.32007e-05 0.00643335 0.00171428)
(0.000310922 0.00623177 0.0018443)
(0.000440243 0.00584949 0.00245963)
(0.000549064 0.00465889 0.00335169)
(0.000855034 0.00117929 0.00333539)
(-0.000166615 -0.00496537 0.00247918)
(-0.000772251 -0.012561 -1.47808e-05)
(-0.00381067 -0.0198669 -0.00511245)
(0.00239971 -0.0300862 -0.0124192)
(-0.0068839 -0.0249444 -0.0166691)
(-0.00471019 -0.0165825 -0.0116345)
(-0.00885713 -0.0107765 -0.00885713)
(-0.00902841 -0.00730386 -0.00796202)
(-0.00843628 -0.00487365 -0.00802874)
(-0.00637509 -0.00356408 -0.00771833)
(-0.00400295 -0.00331482 -0.00755863)
(-0.00201055 -0.00356244 -0.00777007)
(-0.000317427 -0.00361761 -0.00751225)
(0.000475355 -0.00253157 -0.00641166)
(0.00123504 -0.00308048 -0.00644412)
(0.00193659 -0.00478642 -0.00730283)
(0.00321951 -0.00490592 -0.00788415)
(0.00490416 -0.00450797 -0.00807962)
(0.00678149 -0.0045215 -0.00805082)
(0.00822944 -0.00547031 -0.00780211)
(0.00857734 -0.0076323 -0.00770916)
(0.00815242 -0.0108435 -0.0087201)
(0.00417318 -0.0162061 -0.0116576)
(0.00641597 -0.0240914 -0.0166997)
(-0.0147882 -0.013531 -0.0240792)
(-0.021029 -0.00617638 -0.0250614)
(-0.0279068 -0.00230929 -0.0279068)
(-0.0297673 -0.000136445 -0.0313292)
(-0.0293693 0.00140803 -0.0348856)
(-0.0270992 0.00271507 -0.038446)
(-0.0233184 0.00405817 -0.0417869)
(-0.0180891 0.00557111 -0.0444292)
(-0.0113572 0.00732787 -0.045753)
(-0.00426558 0.009359 -0.0444595)
(0.00720425 0.00882898 -0.0449514)
(0.0136448 0.00689854 -0.0460638)
(0.0197265 0.00517687 -0.0446617)
(0.0241935 0.00366248 -0.0418777)
(0.0272876 0.00231851 -0.0384806)
(0.0290511 0.00102579 -0.0348453)
(0.029103 -0.000480654 -0.0311755)
(0.027024 -0.00256765 -0.0276656)
(0.0202445 -0.00622834 -0.0247792)
(0.0141224 -0.0131701 -0.0237962)
(0.00189368 0.00447678 0.00665611)
(0.00282766 0.00287109 0.00562188)
(0.00305644 0.000159304 0.00363643)
(0.00260249 -0.00245169 0.00260249)
(0.0027748 -0.00342561 0.00305235)
(0.00348304 -0.00295253 0.00416759)
(0.00411979 -0.00156907 0.00516566)
(0.00369938 -0.000586577 0.0059725)
(0.00224619 -0.000492132 0.006612)
(0.00070369 -0.000768931 0.00670903)
(0.000281477 -0.000162564 0.00657402)
(-0.00179141 0.000427558 0.00649188)
(-0.00272317 -0.000100278 0.00635012)
(-0.00339372 -0.000620947 0.00579708)
(-0.00311841 -0.00154332 0.0051503)
(-0.00211863 -0.00278156 0.0043298)
(-0.0010297 -0.00357386 0.00334516)
(-0.000311477 -0.00350329 0.00281056)
(-2.56312e-05 -0.00198212 0.00275605)
(-6.32345e-05 0.000266838 0.00266505)
(0.00430081 0.00269431 0.0168645)
(0.00813676 0.00370913 0.0167787)
(0.0108859 0.00466523 0.0143653)
(0.0105714 0.00420902 0.0105714)
(0.0073926 0.00131078 0.00671688)
(0.00346224 -0.00155603 0.00396026)
(0.0011837 -0.00176269 0.00273255)
(0.000210029 -0.000634693 0.00245211)
(-0.000757342 -0.000440748 0.00264276)
(-0.00210131 -0.00189426 0.00309849)
(-0.00222109 -0.00261104 0.00352948)
(-0.00156408 -0.00219017 0.00387399)
(-0.000638922 -0.00176226 0.00362545)
(-0.000127248 -0.00182129 0.00306887)
(-0.000271361 -0.00237324 0.00296946)
(-0.00167542 -0.00203425 0.0037635)
(-0.00437086 0.000374422 0.00617981)
(-0.00608059 0.00342104 0.00994067)
(-0.00526223 0.00501701 0.0132725)
(-0.00315059 0.00522716 0.0142668)
(0.00409738 -0.00460055 0.0121443)
(0.00854094 -0.00189624 0.0155938)
(0.0124703 0.00161631 0.0163355)
(0.0146247 0.00459342 0.0146247)
(0.0138398 0.00553063 0.0116989)
(0.010287 0.00435955 0.00827413)
(0.00544935 0.00130238 0.00511611)
(0.00198774 -0.000740112 0.00257348)
(0.000579097 -0.00125333 0.00110024)
(-0.000744549 -0.00298928 0.000933323)
(-0.00200829 -0.00437886 0.00144799)
(-0.00267622 -0.00420716 0.002129)
(-0.00293696 -0.00314811 0.00286793)
(-0.00369798 -0.00163347 0.00413667)
(-0.00632489 0.00100038 0.00655128)
(-0.0099685 0.003714 0.00992289)
(-0.0121737 0.00454627 0.0136222)
(-0.0113731 0.00348415 0.0164609)
(-0.00791836 0.00155018 0.017246)
(-0.00386444 -1.3025e-05 0.0155524)
(0.00391633 -0.0117497 0.00282517)
(0.00885698 -0.00742719 0.0091732)
(0.0116748 -0.00337086 0.0129058)
(0.013964 0.00183897 0.013964)
(0.014584 0.00570067 0.0128788)
(0.0130498 0.00682986 0.0107852)
(0.0100565 0.00540803 0.00830799)
(0.00640576 0.00276553 0.00534695)
(0.00319879 1.33788e-05 0.0023486)
(0.000705022 -0.00227212 0.000612737)
(-0.00191188 -0.0035717 0.00117182)
(-0.00412858 -0.00326278 0.00283378)
(-0.00653225 -0.0015342 0.00485935)
(-0.00952416 0.00135067 0.00739602)
(-0.0123588 0.00406067 0.0100715)
(-0.0142395 0.00505803 0.012652)
(-0.0141306 0.00326818 0.0146639)
(-0.0118637 -0.000725752 0.0148237)
(-0.00860216 -0.00442349 0.0119413)
(-0.004009 -0.0075013 0.0064764)
(0.00299478 -0.0181713 -0.00398213)
(0.00922538 -0.0106837 0.00390999)
(0.0107706 -0.00614822 0.00930598)
(0.0119284 -0.000673043 0.0119284)
(0.0123999 0.0046766 0.0125793)
(0.0116828 0.00749518 0.011657)
(0.00970545 0.00722989 0.00980182)
(0.00693935 0.00505565 0.00727021)
(0.00406947 0.00233592 0.00430131)
(0.00143037 1.90346e-05 0.00185037)
(-0.00154483 -0.00119768 0.00235609)
(-0.0044458 -0.000719223 0.00478159)
(-0.00754906 0.00103228 0.00726716)
(-0.0105092 0.00333063 0.00959522)
(-0.0128389 0.00484864 0.0117288)
(-0.0138154 0.00397095 0.0132215)
(-0.0131565 0.000140308 0.0132289)
(-0.0114096 -0.00485543 0.0107942)
(-0.00935353 -0.00890115 0.00551358)
(-0.00359221 -0.0148312 -0.00225715)
(0.00125527 -0.02374 -0.0079988)
(0.00896365 -0.0123594 0.000388023)
(0.00940454 -0.00678509 0.00643043)
(0.00973958 -0.00100814 0.00973958)
(0.00941158 0.00462589 0.0112725)
(0.00879898 0.00806415 0.0111381)
(0.00754516 0.00852016 0.00989354)
(0.00569821 0.00688209 0.00798288)
(0.00357935 0.00453694 0.00568151)
(0.00148843 0.00270889 0.00355901)
(-0.000869552 0.0018958 0.00388034)
(-0.00328636 0.00231159 0.00604388)
(-0.00591644 0.0036506 0.00817178)
(-0.00836103 0.00531549 0.0101334)
(-0.0101528 0.00590991 0.0117131)
(-0.0109333 0.00383183 0.0122676)
(-0.0109605 -0.000976003 0.0108483)
(-0.0103211 -0.00637359 0.00727021)
(-0.00942624 -0.0114238 0.00092433)
(-0.00205274 -0.0211872 -0.00766194)
(-0.000956607 -0.0276964 -0.0111327)
(0.00759532 -0.0134744 -0.00257416)
(0.00710073 -0.00637794 0.00377695)
(0.00728033 -0.000877568 0.00728033)
(0.00635554 0.00419327 0.00884192)
(0.0058441 0.00749277 0.00906813)
(0.00529348 0.00810772 0.0083673)
(0.00435232 0.00684844 0.00722305)
(0.00301359 0.00505417 0.00590588)
(0.00139986 0.00383612 0.00458768)
(-0.000505411 0.003187 0.00468579)
(-0.0023846 0.00325957 0.00608066)
(-0.00424797 0.00420918 0.00745637)
(-0.00581632 0.00546038 0.0087751)
(-0.0068755 0.00566245 0.00982598)
(-0.00760449 0.00332441 0.00988852)
(-0.00844824 -0.00132745 0.00821531)
(-0.00808832 -0.00650376 0.00417189)
(-0.00817392 -0.0129396 -0.00256509)
(0.000272128 -0.0258359 -0.011297)
(-0.00377362 -0.0285782 -0.0145706)
(0.00378854 -0.0142022 -0.0064687)
(0.00179329 -0.00419857 -0.000580029)
(0.00303793 0.00301555 0.00303793)
(0.00264234 0.0068647 0.00445618)
(0.00280697 0.00900422 0.00479992)
(0.00316134 0.00951825 0.00448903)
(0.00320235 0.00914256 0.00400323)
(0.00275417 0.00857841 0.00368864)
(0.00141564 0.00822166 0.00358678)
(-0.000590752 0.00782749 0.00366028)
(-0.00190344 0.00761898 0.00392758)
(-0.00261451 0.0077287 0.00428922)
(-0.00305586 0.00803856 0.00488352)
(-0.00315094 0.00791624 0.00551042)
(-0.00321574 0.00616674 0.0053938)
(-0.00357878 0.00220715 0.00371493)
(-0.00264028 -0.00492492 -0.000434558)
(-0.00430152 -0.0139027 -0.00663127)
(0.00327338 -0.0273035 -0.0147997)
(-0.00819865 -0.0239306 -0.0190665)
(-0.00510307 -0.014056 -0.0133268)
(-0.00796203 -0.00730386 -0.00902841)
(-0.00658552 -0.00301663 -0.00658552)
(-0.00545085 -0.000119481 -0.00564429)
(-0.00383948 0.000857327 -0.00583053)
(-0.00193354 0.000531005 -0.00637944)
(-0.000329383 -0.000204549 -0.00697975)
(0.000840987 -0.000460419 -0.00705445)
(0.000947083 0.000874239 -0.00620911)
(0.000825074 0.000523546 -0.00647583)
(0.000975026 -0.00127664 -0.00734532)
(0.00161869 -0.00130029 -0.00730837)
(0.00251708 -0.000636174 -0.00659055)
(0.00377781 -7.69567e-05 -0.00566943)
(0.00497958 -0.000782157 -0.00511669)
(0.00623892 -0.0034023 -0.00638995)
(0.0072915 -0.00737671 -0.00900527)
(0.00457636 -0.0137048 -0.01347)
(0.00768353 -0.023125 -0.0191085)
(-0.0170876 -0.0126582 -0.0262558)
(-0.024089 -0.00435648 -0.027172)
(-0.0313292 -0.000136445 -0.0297673)
(-0.0329335 0.00221437 -0.0329335)
(-0.0320759 0.00392982 -0.0362275)
(-0.0296424 0.00543513 -0.0399345)
(-0.025966 0.00705766 -0.043914)
(-0.0208315 0.00897638 -0.0476201)
(-0.0137421 0.0112679 -0.0500455)
(-0.00561773 0.0139925 -0.049508)
(0.0084521 0.0133979 -0.0499084)
(0.0158346 0.0108508 -0.0502402)
(0.0222847 0.00863489 -0.0478791)
(0.0267436 0.00672027 -0.0442313)
(0.0297684 0.00507358 -0.0401958)
(0.0317076 0.00355698 -0.0363522)
(0.0321668 0.00186608 -0.0328861)
(0.0303099 -0.000399795 -0.0296053)
(0.0231901 -0.00441893 -0.0269585)
(0.0163311 -0.0123277 -0.0259952)
(0.000942377 -0.000454262 0.00089186)
(0.00171242 -0.00145532 0.00183994)
(0.00239138 -0.00277165 0.0021104)
(0.00305236 -0.00342561 0.0027748)
(0.00395654 -0.0032468 0.00395654)
(0.00495301 -0.00220295 0.00537931)
(0.00531647 -0.00101235 0.00654637)
(0.00455267 -0.000211246 0.00763201)
(0.00267351 -0.000216544 0.00859857)
(0.000722375 -0.000701766 0.00911377)
(-0.000342279 -0.000181791 0.00918629)
(-0.00238691 0.000201899 0.00877573)
(-0.00332079 -5.06114e-05 0.00805711)
(-0.00409226 -0.000231207 0.00710514)
(-0.00400528 -0.000724332 0.00618692)
(-0.00327538 -0.00146415 0.00527296)
(-0.00217504 -0.00234933 0.00411628)
(-0.00114901 -0.0029134 0.00296958)
(-0.000384833 -0.00299862 0.00196964)
(-0.000165423 -0.00284304 0.000894335)
(0.0032457 0.00501646 0.0127335)