/*--------------------------------*- C++ -*----------------------------------*\
  =========                 |
  \\      /  F ield         | OpenFOAM: The Open Source CFD Toolbox
   \\    /   O peration     | Website:  https://openfoam.org
    \\  /    A nd           | Version:  9
     \\/     M anipulation  |
\*---------------------------------------------------------------------------*/
FoamFile
{
    format      ascii;
    class       volScalarField;
    location    "1150";
    object      k;
}
// * * * * * * * * * * * * * * * * * * * * * * * * * * * * * * * * * * * * * //

dimensions      [0 2 -2 0 0 0 0];

internalField   nonuniform List<scalar> 
4000
(
3.04526e-05
2.4682e-05
1.70881e-05
1.14296e-05
8.82345e-06
6.97222e-06
5.82001e-06
5.12038e-06
4.64625e-06
4.32819e-06
4.17549e-06
4.18848e-06
4.42801e-06
4.92643e-06
5.9066e-06
7.22112e-06
7.87127e-06
1.25385e-05
2.229e-05
2.90965e-05
4.46283e-05
4.10472e-05
3.51536e-05
2.75682e-05
1.90697e-05
1.07318e-05
7.08287e-06
6.43217e-06
6.31267e-06
6.4372e-06
6.48511e-06
6.3655e-06
6.41034e-06
6.92006e-06
1.00917e-05
1.95793e-05
2.71252e-05
3.48909e-05
4.03947e-05
4.34962e-05
5.01087e-05
4.76775e-05
4.22443e-05
3.55021e-05
2.80917e-05
2.08442e-05
1.50207e-05
9.52768e-06
7.57019e-06
8.0441e-06
7.98569e-06
7.62548e-06
8.5402e-06
1.43622e-05
2.03184e-05
2.69385e-05
3.4618e-05
4.13792e-05
4.65863e-05
4.87064e-05
5.32685e-05
5.2246e-05
4.77692e-05
4.12734e-05
3.42358e-05
2.78208e-05
2.24671e-05
1.76708e-05
1.37558e-05
1.11405e-05
1.02442e-05
1.1056e-05
1.51976e-05
2.04346e-05
2.61535e-05
3.30503e-05
4.01624e-05
4.66852e-05
5.08874e-05
5.17147e-05
5.55736e-05
5.62578e-05
5.38756e-05
4.99753e-05
4.56866e-05
4.16902e-05
3.81385e-05
3.49016e-05
3.21158e-05
2.98684e-05
2.82808e-05
2.94035e-05
3.22414e-05
3.56652e-05
3.94018e-05
4.37337e-05
4.82952e-05
5.22877e-05
5.45165e-05
5.3868e-05
5.76076e-05
6.02477e-05
6.05957e-05
5.96915e-05
5.82387e-05
5.64414e-05
5.4332e-05
5.20052e-05
4.96059e-05
4.74237e-05
4.64719e-05
4.81652e-05
5.02486e-05
5.22859e-05
5.41864e-05
5.59311e-05
5.73834e-05
5.8305e-05
5.80164e-05
5.57473e-05
5.96889e-05
6.43868e-05
6.73013e-05
6.8879e-05
6.95763e-05
6.94122e-05
6.83978e-05
6.6583e-05
6.41605e-05
6.16146e-05
6.09543e-05
6.33892e-05
6.53049e-05
6.65812e-05
6.71527e-05
6.70008e-05
6.61137e-05
6.44866e-05
6.17496e-05
5.76644e-05
6.20194e-05
6.88857e-05
7.41903e-05
7.79198e-05
8.04752e-05
8.17705e-05
8.17641e-05
8.04302e-05
7.7868e-05
7.46907e-05
7.41822e-05
7.7483e-05
7.93685e-05
7.99423e-05
7.93139e-05
7.75919e-05
7.47691e-05
7.09677e-05
6.59442e-05
5.98366e-05
6.49749e-05
7.45537e-05
8.23446e-05
8.82185e-05
9.25939e-05
9.53776e-05
9.65081e-05
9.57921e-05
9.31154e-05
8.90048e-05
8.85374e-05
9.27796e-05
9.46141e-05
9.43997e-05
9.25454e-05
8.93343e-05
8.46935e-05
7.87699e-05
7.12813e-05
6.26219e-05
6.90433e-05
8.13249e-05
9.16447e-05
9.95011e-05
0.000105645
0.000110247
0.000113216
0.00011429
0.000113162
0.000109488
0.000108869
0.000112428
0.000112765
0.000110845
0.000107173
0.000102068
9.56483e-05
8.77903e-05
7.7838e-05
6.65252e-05
2.4682e-05
2.24915e-05
1.65955e-05
1.28819e-05
1.1742e-05
1.04309e-05
8.61296e-06
7.21524e-06
6.31166e-06
5.73859e-06
5.57247e-06
5.66853e-06
6.20173e-06
7.50751e-06
9.47708e-06
1.02006e-05
9.33275e-06
1.14149e-05
1.76093e-05
2.1323e-05
4.10472e-05
5.01008e-05
4.34552e-05
3.26467e-05
2.4916e-05
1.87083e-05
1.39559e-05
1.18557e-05
1.09817e-05
1.07214e-05
1.05472e-05
1.03232e-05
1.09682e-05
1.28921e-05
1.87771e-05
2.72664e-05
3.47241e-05
4.45059e-05
5.12759e-05
3.94733e-05
4.76775e-05
5.41475e-05
5.11112e-05
4.27397e-05
3.31776e-05
2.66224e-05
2.13465e-05
1.6422e-05
1.38534e-05
1.28419e-05
1.25133e-05
1.29193e-05
1.59343e-05
2.12598e-05
2.65338e-05
3.26726e-05
4.21242e-05
5.11734e-05
5.35452e-05
4.53413e-05
5.2246e-05
5.67091e-05
5.46101e-05
4.71987e-05
3.73285e-05
2.91613e-05
2.33997e-05
1.90102e-05
1.6111e-05
1.49623e-05
1.47141e-05
1.48948e-05
1.79119e-05
2.26766e-05
2.86684e-05
3.70235e-05
4.79555e-05
5.5149e-05
5.60831e-05
4.96628e-05
5.62578e-05
6.12477e-05
6.06991e-05
5.53025e-05
4.67387e-05
3.78079e-05
3.16713e-05
2.6591e-05
2.2797e-05
2.08966e-05
1.98787e-05
2.04899e-05
2.41818e-05
2.96284e-05
3.63417e-05
4.61532e-05
5.51677e-05
6.00819e-05
5.9781e-05
5.35854e-05
6.02477e-05
6.6566e-05
6.7453e-05
6.47112e-05
5.94357e-05
5.22296e-05
4.36157e-05
3.79325e-05
3.42292e-05
3.22029e-05
3.12295e-05
3.22341e-05
3.57851e-05
4.14787e-05
5.01777e-05
5.89156e-05
6.38532e-05
6.58531e-05
6.42743e-05
5.76319e-05
6.43868e-05
7.2185e-05
7.39645e-05
7.35268e-05
7.25719e-05
6.93438e-05
6.36545e-05
5.60775e-05
4.94791e-05
4.48322e-05
4.34947e-05
4.68716e-05
5.3609e-05
6.18223e-05
6.84046e-05
7.1376e-05
7.1746e-05
7.15306e-05
6.89914e-05
6.18112e-05
6.88857e-05
7.90969e-05
8.23369e-05
8.42352e-05
8.693e-05
8.81434e-05
8.68346e-05
8.33457e-05
7.83008e-05
7.33592e-05
7.2966e-05
7.87303e-05
8.31895e-05
8.60124e-05
8.66713e-05
8.4847e-05
8.133e-05
7.90461e-05
7.50084e-05
6.62481e-05
7.45537e-05
8.87842e-05
9.72847e-05
0.000103483
0.00010885
0.000111932
0.000112271
0.000108926
0.000101387
9.17258e-05
9.18654e-05
0.000102199
0.000108268
0.000109887
0.000108477
0.000105173
9.93837e-05
9.28216e-05
8.43385e-05
7.17075e-05
8.13249e-05
9.52229e-05
0.000107322
0.000117101
0.000125343
0.000132091
0.000136981
0.000139349
0.00013858
0.000134274
0.000133777
0.000137763
0.000137526
0.000134083
0.000128341
0.00012105
0.000112567
0.000102902
9.13244e-05
7.84463e-05
1.70881e-05
1.65955e-05
1.41821e-05
1.34818e-05
1.35427e-05
1.23799e-05
1.04516e-05
8.75784e-06
7.55785e-06
6.83109e-06
6.75093e-06
6.89428e-06
7.57895e-06
9.15388e-06
1.12826e-05
1.23719e-05
1.0789e-05
1.00749e-05
1.14101e-05
1.21369e-05
3.51536e-05
4.34552e-05
3.82444e-05
3.09102e-05
2.60403e-05
2.12701e-05
1.69431e-05
1.46182e-05
1.35101e-05
1.33196e-05
1.32119e-05
1.28266e-05
1.36535e-05
1.59132e-05
2.10424e-05
2.86814e-05
3.45282e-05
4.00403e-05
4.36937e-05
3.33203e-05
4.22443e-05
5.11112e-05
4.94135e-05
4.18947e-05
3.46994e-05
2.99122e-05
2.52161e-05
2.01924e-05
1.71271e-05
1.57701e-05
1.553e-05
1.63904e-05
1.96084e-05
2.51475e-05
2.9938e-05
3.40674e-05
4.08514e-05
4.85507e-05
4.96845e-05
3.94273e-05
4.77692e-05
5.46101e-05
5.26059e-05
4.56249e-05
3.66858e-05
3.00219e-05
2.52886e-05
2.18528e-05
1.96749e-05
1.82672e-05
1.79176e-05
1.91474e-05
2.16067e-05
2.54386e-05
3.02719e-05
3.69268e-05
4.61018e-05
5.2837e-05
5.32706e-05
4.43063e-05
5.38756e-05
6.06991e-05
5.8251e-05
5.14994e-05
4.20322e-05
3.38819e-05
2.82778e-05
2.39315e-05
2.06293e-05
1.87262e-05
1.80859e-05
1.91218e-05
2.25978e-05
2.74787e-05
3.349e-05
4.18767e-05
5.11826e-05
5.7163e-05
5.85335e-05
5.03286e-05
6.05957e-05
6.7453e-05
6.49152e-05
5.83767e-05
4.94709e-05
4.06905e-05
3.33415e-05
2.79743e-05
2.40964e-05
2.20736e-05
2.14577e-05
2.27984e-05
2.66632e-05
3.23172e-05
3.99195e-05
4.91171e-05
5.72461e-05
6.27503e-05
6.47142e-05
5.72304e-05
6.73013e-05
7.39645e-05
7.21332e-05
6.5018e-05
5.6367e-05
4.84813e-05
4.16231e-05
3.57118e-05
3.10475e-05
2.82138e-05
2.75931e-05
2.98139e-05
3.4558e-05
4.08583e-05
4.80665e-05
5.56117e-05
6.28281e-05
6.85215e-05
7.02697e-05
6.40697e-05
7.41903e-05
8.23369e-05
8.39851e-05
7.84284e-05
6.93363e-05
6.38434e-05
5.93384e-05
5.40145e-05
4.78591e-05
4.26349e-05
4.24924e-05
4.71141e-05
5.25084e-05
5.7577e-05
6.2172e-05
6.6443e-05
7.49371e-05
7.85277e-05
7.73452e-05
7.09472e-05
8.23446e-05
9.72847e-05
0.000112979
0.000126706
0.000136701
0.000140798
0.000140932
0.000134943
0.000120764
0.000102936
0.000103779
0.000121526
0.000133362
0.000136429
0.000134865
0.000131247
0.000120181
0.000106098
9.12784e-05
7.88722e-05
9.16447e-05
0.000107322
0.000120921
0.000132307
0.000142358
0.00015107
0.000157896
0.000161696
0.000161439
0.00015634
0.00015603
0.00016056
0.000159552
0.000154434
0.000146609
0.000137314
0.000127026
0.000115844
0.000102876
8.8247e-05
1.14296e-05
1.28819e-05
1.34818e-05
1.44052e-05
1.45413e-05
1.32638e-05
1.14824e-05
9.82138e-06
8.5742e-06
7.80652e-06
7.79311e-06
7.90946e-06
8.595e-06
1.00932e-05
1.19826e-05
1.35662e-05
1.27948e-05
1.07176e-05
9.25569e-06
7.53819e-06
2.75682e-05
3.26467e-05
3.09102e-05
2.81191e-05
2.54878e-05
2.15544e-05
1.84035e-05
1.63384e-05
1.53439e-05
1.56525e-05
1.58687e-05
1.48976e-05
1.53998e-05
1.74433e-05
2.09284e-05
2.70486e-05
3.22055e-05
3.50921e-05
3.49597e-05
2.62387e-05
3.55021e-05
4.27397e-05
4.18947e-05
3.77449e-05
3.42029e-05
3.1132e-05
2.6621e-05
2.16509e-05
1.88916e-05
1.82303e-05
1.83811e-05
1.8441e-05
2.098e-05
2.63807e-05
3.13231e-05
3.38283e-05
3.68872e-05
4.0546e-05
4.04598e-05
3.26805e-05
4.12734e-05
4.71987e-05
4.56249e-05
4.03299e-05
3.45463e-05
3.0108e-05
2.67828e-05
2.41397e-05
2.18615e-05
2.01842e-05
2.01068e-05
2.1765e-05
2.42555e-05
2.73275e-05
3.07093e-05
3.48837e-05
4.03002e-05
4.48032e-05
4.49832e-05
3.73186e-05
4.99753e-05
5.53025e-05
5.14994e-05
4.5217e-05
3.77745e-05
3.173e-05
2.75239e-05
2.4314e-05
2.18355e-05
2.02405e-05
1.98272e-05
2.10071e-05
2.37768e-05
2.75103e-05
3.19089e-05
3.76863e-05
4.42652e-05
4.94309e-05
5.18151e-05
4.58344e-05
5.96915e-05
6.47112e-05
5.83767e-05
5.07625e-05
4.26604e-05
3.55154e-05
3.00393e-05
2.57763e-05
2.23437e-05
2.02862e-05
1.97635e-05
2.12936e-05
2.48883e-05
2.95906e-05
3.52918e-05
4.2209e-05
4.9238e-05
5.54344e-05
6.10648e-05
5.58179e-05
6.8879e-05
7.35268e-05
6.5018e-05
5.57968e-05
4.77121e-05
4.09377e-05
3.57096e-05
3.1296e-05
2.7314e-05
2.45403e-05
2.39643e-05
2.60303e-05
3.00082e-05
3.48889e-05
4.04795e-05
4.67888e-05
5.34214e-05
6.06889e-05
6.97241e-05
6.51713e-05
7.79198e-05
8.42352e-05
7.84284e-05
6.92739e-05
6.52513e-05
6.27541e-05
6.10027e-05
5.78199e-05
5.16135e-05
4.40467e-05
4.38076e-05
4.95123e-05
5.441e-05
5.75575e-05
5.99575e-05
6.22825e-05
6.51688e-05
7.15479e-05
7.94626e-05
7.41719e-05
8.82185e-05
0.000103483
0.000126706
0.000148676
0.000159257
0.000170183
0.000177719
0.000175895
0.000159557
0.000135741
0.000137726
0.000160543
0.000172573
0.000170953
0.000161624
0.000149709
0.000137222
0.000117731
9.65671e-05
8.41981e-05
9.95011e-05
0.000117101
0.000132307
0.000145448
0.000157707
0.000168994
0.000178396
0.000184502
0.000185786
0.000181548
0.000181248
0.000184705
0.000181959
0.000174406
0.000163882
0.000151922
0.000139414
0.000126609
0.000112157
9.56551e-05
8.82345e-06
1.1742e-05
1.35427e-05
1.45413e-05
1.43461e-05
1.32996e-05
1.19029e-05
1.05413e-05
9.46225e-06
8.76963e-06
8.78573e-06
8.80398e-06
9.35852e-06
1.05839e-05
1.19733e-05
1.32734e-05
1.37125e-05
1.2296e-05
9.80447e-06
6.64158e-06
1.90697e-05
2.4916e-05
2.60403e-05
2.54878e-05
2.34373e-05
2.08888e-05
1.89499e-05
1.72849e-05
1.67446e-05
1.78617e-05
1.86169e-05
1.67643e-05
1.6539e-05
1.81767e-05
2.02821e-05
2.36799e-05
2.79419e-05
3.02651e-05
2.88947e-05
1.99908e-05
2.80917e-05
3.31776e-05
3.46994e-05
3.42029e-05
3.30326e-05
3.03697e-05
2.58915e-05
2.16595e-05
1.9806e-05
2.01685e-05
2.08733e-05
1.97014e-05
2.10242e-05
2.54603e-05
3.05525e-05
3.33098e-05
3.38799e-05
3.40434e-05
3.21056e-05
2.5855e-05
3.42358e-05
3.73285e-05
3.66858e-05
3.45463e-05
3.19008e-05
2.95489e-05
2.74814e-05
2.5107e-05
2.26433e-05
2.15711e-05
2.19092e-05
2.28978e-05
2.53746e-05
2.81536e-05
3.0325e-05
3.25158e-05
3.47274e-05
3.61049e-05
3.50903e-05
3.04463e-05
4.56866e-05
4.67387e-05
4.20322e-05
3.77745e-05
3.34339e-05
2.98323e-05
2.71347e-05
2.49701e-05
2.3355e-05
2.25836e-05
2.24763e-05
2.30247e-05
2.49372e-05
2.75329e-05
3.03478e-05
3.36654e-05
3.72012e-05
4.01225e-05
4.27569e-05
4.13129e-05
5.82387e-05
5.94357e-05
4.94709e-05
4.26604e-05
3.69614e-05
3.2243e-05
2.85934e-05
2.56909e-05
2.35023e-05
2.27417e-05
2.22566e-05
2.26062e-05
2.50886e-05
2.84747e-05
3.23025e-05
3.66457e-05
4.12016e-05
4.63269e-05
5.47256e-05
5.40466e-05
6.95763e-05
7.25719e-05
5.6367e-05
4.77121e-05
4.19648e-05
3.75819e-05
3.42787e-05
3.15984e-05
2.93307e-05
2.8276e-05
2.70553e-05
2.73932e-05
2.99651e-05
3.33015e-05
3.69911e-05
4.09779e-05
4.54492e-05
5.2473e-05
6.80034e-05
6.55079e-05
8.04752e-05
8.693e-05
6.93363e-05
6.52513e-05
6.51827e-05
6.58428e-05
6.64233e-05
6.5022e-05
5.96447e-05
5.20358e-05
5.07903e-05
5.62234e-05
6.04952e-05
6.20068e-05
6.20636e-05
6.15212e-05
6.07445e-05
6.32742e-05
8.19082e-05
7.63044e-05
9.25939e-05
0.00010885
0.000136701
0.000159257
0.000183474
0.000204979
0.000219391
0.000219154
0.000196932
0.000164667
0.00016709
0.00019878
0.000215413
0.000211358
0.000194402
0.000172166
0.000146541
0.000125461
0.000101087
8.81135e-05
0.000105645
0.000125343
0.000142358
0.000157707
0.000173201
0.000187756
0.000200274
0.00020926
0.000213064
0.000210985
0.000210448
0.000211696
0.0002064
0.000195932
0.000182225
0.000166953
0.000151138
0.000136175
0.000120001
0.000101451
6.97222e-06
1.04309e-05
1.23799e-05
1.32638e-05
1.32996e-05
1.27733e-05
1.19163e-05
1.1036e-05
1.02964e-05
9.81608e-06
9.82418e-06
9.66508e-06
9.95144e-06
1.0743e-05
1.1517e-05
1.20673e-05
1.22181e-05
1.1571e-05
9.63425e-06
5.64998e-06
1.07318e-05
1.87083e-05
2.12701e-05
2.15544e-05
2.08888e-05
1.99716e-05
1.88309e-05
1.77642e-05
1.79614e-05
2.01733e-05
2.17394e-05
1.87503e-05
1.74504e-05
1.83504e-05
1.9592e-05
2.075e-05
2.21799e-05
2.32127e-05
2.11555e-05
1.12941e-05
2.08442e-05
2.66224e-05
2.99123e-05
3.1132e-05
3.03697e-05
2.76199e-05
2.39038e-05
2.11258e-05
2.04165e-05
2.18789e-05
2.31476e-05
2.07705e-05
2.06647e-05
2.35613e-05
2.76619e-05
3.09368e-05
3.1749e-05
3.01743e-05
2.65989e-05
2.02607e-05
2.78208e-05
2.91613e-05
3.00219e-05
3.0108e-05
2.95489e-05
2.86543e-05
2.7104e-05
2.45852e-05
2.2588e-05
2.27921e-05
2.35297e-05
2.31142e-05
2.49781e-05
2.76987e-05
2.93567e-05
3.02834e-05
3.06941e-05
3.01398e-05
2.81807e-05
2.45067e-05
4.16902e-05
3.78079e-05
3.38819e-05
3.173e-05
2.98323e-05
2.80878e-05
2.65157e-05
2.51454e-05
2.43356e-05
2.47434e-05
2.48818e-05
2.42943e-05
2.53566e-05
2.70469e-05
2.87151e-05
3.03418e-05
3.17952e-05
3.30094e-05
3.52646e-05
3.73888e-05
5.64414e-05
5.22296e-05
4.06905e-05
3.55154e-05
3.2243e-05
2.95844e-05
2.73923e-05
2.57418e-05
2.51451e-05
2.66668e-05
2.60463e-05
2.42773e-05
2.53177e-05
2.74406e-05
2.9803e-05
3.21966e-05
3.4573e-05
3.79436e-05
4.62825e-05
5.20475e-05
6.94122e-05
6.93438e-05
4.84813e-05
4.09377e-05
3.75819e-05
3.53358e-05
3.3652e-05
3.25439e-05
3.25015e-05
3.47338e-05
3.24604e-05
2.98186e-05
3.06457e-05
3.25254e-05
3.46202e-05
3.66562e-05
3.90748e-05
4.49382e-05
6.3445e-05
6.50708e-05
8.17705e-05
8.81434e-05
6.38434e-05
6.27541e-05
6.58428e-05
6.92858e-05
7.17554e-05
7.12266e-05
6.59575e-05
5.89854e-05
5.64249e-05
6.15986e-05
6.6151e-05
6.66553e-05
6.46466e-05
6.15378e-05
5.82826e-05
5.88726e-05
8.2298e-05
7.73006e-05
9.53776e-05
0.000111932
0.000140798
0.000170183
0.000204979
0.000234513
0.000253641
0.000251633
0.000219552
0.000178359
0.000179576
0.000222283
0.000248805
0.000245051
0.000222297
0.000191836
0.000157064
0.000127861
0.000103522
9.05743e-05
0.000110247
0.000132091
0.00015107
0.000168994
0.000187756
0.00020567
0.000221722
0.00023446
0.000242338
0.000244658
0.000243629
0.000240528
0.000231296
0.000217102
0.000199834
0.00018118
0.000162155
0.000144582
0.000126462
0.000105803
5.82001e-06
8.61296e-06
1.04516e-05
1.14824e-05
1.19029e-05
1.19163e-05
1.17097e-05
1.14012e-05
1.11365e-05
1.10184e-05
1.10951e-05
1.05804e-05
1.04462e-05
1.06849e-05
1.08293e-05
1.07227e-05
1.02561e-05
9.29334e-06
7.52787e-06
4.61563e-06
7.08287e-06
1.39559e-05
1.69431e-05
1.84035e-05
1.89499e-05
1.88309e-05
1.83208e-05
1.81321e-05
1.92945e-05
2.32153e-05
2.59837e-05
2.12073e-05
1.84888e-05
1.8333e-05
1.87365e-05
1.88402e-05
1.84055e-05
1.72907e-05
1.45455e-05
7.02432e-06
1.50207e-05
2.13465e-05
2.52161e-05
2.6621e-05
2.58915e-05
2.39038e-05
2.18694e-05
2.06933e-05
2.12917e-05
2.42248e-05
2.63224e-05
2.22708e-05
2.05322e-05
2.17866e-05
2.40185e-05
2.63861e-05
2.7571e-05
2.64262e-05
2.25112e-05
1.5438e-05
2.24671e-05
2.33997e-05
2.52886e-05
2.67828e-05
2.74814e-05
2.7104e-05
2.5416e-05
2.32803e-05
2.27145e-05
2.53571e-05
2.69138e-05
2.3593e-05
2.37857e-05
2.59922e-05
2.76516e-05
2.80252e-05
2.73871e-05
2.57702e-05
2.31059e-05
1.97237e-05
3.81385e-05
3.16713e-05
2.82778e-05
2.75239e-05
2.71347e-05
2.65157e-05
2.56614e-05
2.48554e-05
2.50679e-05
2.85939e-05
2.94727e-05
2.53273e-05
2.51437e-05
2.61419e-05
2.70657e-05
2.76664e-05
2.78721e-05
2.79908e-05
2.9796e-05
3.40072e-05
5.4332e-05
4.36157e-05
3.33415e-05
3.00393e-05
2.85934e-05
2.73923e-05
2.62915e-05
2.57259e-05
2.70475e-05
3.34575e-05
3.29148e-05
2.61294e-05
2.53494e-05
2.63622e-05
2.76406e-05
2.87236e-05
2.96331e-05
3.16864e-05
3.966e-05
4.98812e-05
6.83978e-05
6.36545e-05
4.16231e-05
3.57096e-05
3.42787e-05
3.3652e-05
3.32399e-05
3.34823e-05
3.60976e-05
4.49328e-05
4.14829e-05
3.26905e-05
3.1341e-05
3.19215e-05
3.27431e-05
3.33008e-05
3.40307e-05
3.81043e-05
5.57241e-05
6.39048e-05
8.17641e-05
8.68346e-05
5.93384e-05
6.10027e-05
6.64233e-05
7.17554e-05
7.50236e-05
7.40696e-05
6.87214e-05
6.6526e-05
6.23265e-05
6.36644e-05
6.89317e-05
6.95914e-05
6.64114e-05
6.13904e-05
5.60154e-05
5.40116e-05
8.05486e-05
7.71615e-05
9.65081e-05
0.000112271
0.000140932
0.000177719
0.000219391
0.000253641
0.000273203
0.000264087
0.000222493
0.00018985
0.000188289
0.000222964
0.000263102
0.000265466
0.000240861
0.00020516
0.000164028
0.000127482
0.000103679
9.15678e-05
0.000113216
0.000136981
0.000157896
0.000178396
0.000200274
0.000221722
0.000241977
0.000260042
0.000275216
0.000287357
0.000285695
0.000272586
0.000256365
0.000237019
0.000215616
0.000193463
0.000171386
0.000151144
0.000131135
0.000108614
5.12038e-06
7.21524e-06
8.75784e-06
9.82139e-06
1.05413e-05
1.1036e-05
1.14012e-05
1.16989e-05
1.19849e-05
1.23161e-05
1.27093e-05
1.16133e-05
1.09386e-05
1.05768e-05
1.01403e-05
9.54661e-06
8.741e-06
7.64929e-06
6.12605e-06
4.14702e-06
6.43217e-06
1.18557e-05
1.46182e-05
1.63384e-05
1.72849e-05
1.77642e-05
1.81321e-05
1.89384e-05
2.10478e-05
2.63226e-05
3.04421e-05
2.42842e-05
2.01565e-05
1.85534e-05
1.79627e-05
1.73838e-05
1.64182e-05
1.4737e-05
1.18146e-05
6.5422e-06
9.52768e-06
1.6422e-05
2.01924e-05
2.16509e-05
2.16595e-05
2.11258e-05
2.06933e-05
2.10315e-05
2.30973e-05
3.16287e-05
3.60079e-05
2.48438e-05
2.11675e-05
2.06723e-05
2.11851e-05
2.18507e-05
2.20929e-05
2.09176e-05
1.72677e-05
1.01473e-05
1.76708e-05
1.90102e-05
2.18528e-05
2.41397e-05
2.5107e-05
2.45852e-05
2.32803e-05
2.26487e-05
2.52716e-05
4.22257e-05
4.75695e-05
2.68701e-05
2.3153e-05
2.38038e-05
2.5092e-05
2.55127e-05
2.45242e-05
2.22264e-05
1.89509e-05
1.54788e-05
3.49016e-05
2.6591e-05
2.39315e-05
2.4314e-05
2.49701e-05
2.51454e-05
2.48554e-05
2.48877e-05
2.92828e-05
5.98416e-05
6.53089e-05
3.03164e-05
2.51484e-05
2.51625e-05
2.55325e-05
2.54276e-05
2.47393e-05
2.38777e-05
2.49912e-05
3.09063e-05
5.20052e-05
3.79325e-05
2.79743e-05
2.57763e-05
2.56909e-05
2.57418e-05
2.57259e-05
2.66341e-05
3.41002e-05
8.04149e-05
8.3668e-05
3.35512e-05
2.6115e-05
2.56557e-05
2.5927e-05
2.58919e-05
2.56159e-05
2.67099e-05
3.45177e-05
4.75445e-05
6.6583e-05
5.60775e-05
3.57118e-05
3.1296e-05
3.15984e-05
3.25439e-05
3.34823e-05
3.5664e-05
4.64112e-05
0.000102948
0.000100663
4.25061e-05
3.30519e-05
3.18081e-05
3.13444e-05
3.0453e-05
2.96131e-05
3.22806e-05
4.79026e-05
6.20973e-05
8.04302e-05
8.33457e-05
5.40145e-05
5.78199e-05
6.5022e-05
7.12266e-05
7.40696e-05
7.25303e-05
7.35991e-05
0.000119527
0.000114013
6.77707e-05
6.70654e-05
6.83915e-05
6.53497e-05
5.93089e-05
5.22682e-05
4.84893e-05
7.70662e-05
7.58747e-05
9.57921e-05
0.000108926
0.000134943
0.000175895
0.000219154
0.000251633
0.000264087
0.000245644
0.000220596
0.000259892
0.000255539
0.000214948
0.000242261
0.000256838
0.000239409
0.000204891
0.000162174
0.000121783
0.00010058
9.09122e-05
0.00011429
0.000139349
0.000161696
0.000184502
0.00020926
0.00023446
0.000260042
0.000286468
0.000315417
0.000348153
0.000346178
0.000311448
0.000281669
0.000254395
0.000227943
0.000202189
0.000177344
0.000154856
0.000133446
0.00010967
4.64625e-06
6.31166e-06
7.55785e-06
8.5742e-06
9.46225e-06
1.02964e-05
1.11365e-05
1.19849e-05
1.28489e-05
1.43876e-05
1.45128e-05
1.25597e-05
1.1448e-05
1.05253e-05
9.65352e-06
8.7859e-06
7.86311e-06
6.82399e-06
5.5822e-06
4.03924e-06
6.31267e-06
1.09817e-05
1.35101e-05
1.53439e-05
1.67446e-05
1.79614e-05
1.92945e-05
2.10478e-05
2.41194e-05
6.02002e-05
6.98588e-05
2.74015e-05
2.31028e-05
1.99908e-05
1.81718e-05
1.68167e-05
1.54255e-05
1.36654e-05
1.0917e-05
6.32597e-06
7.57019e-06
1.38534e-05
1.71271e-05
1.88916e-05
1.9806e-05
2.04165e-05
2.12917e-05
2.30973e-05
3.40718e-05
0.000140577
0.000152363
3.63235e-05
2.32052e-05
2.07743e-05
1.99249e-05
1.93911e-05
1.85957e-05
1.69774e-05
1.37237e-05
7.28246e-06
1.37558e-05
1.6111e-05
1.96749e-05
2.18615e-05
2.26433e-05
2.2588e-05
2.27145e-05
2.52716e-05
5.05388e-05
0.000236995
0.000246143
5.30263e-05
2.54323e-05
2.26311e-05
2.27362e-05
2.28771e-05
2.2099e-05
1.99033e-05
1.61029e-05
1.17859e-05
3.21158e-05
2.2797e-05
2.06293e-05
2.18355e-05
2.3355e-05
2.43356e-05
2.50679e-05
2.92828e-05
7.55505e-05
0.000350343
0.000352264
7.65219e-05
2.91318e-05
2.49887e-05
2.45208e-05
2.37467e-05
2.23001e-05
2.06417e-05
2.1148e-05
2.80088e-05
4.96059e-05
3.42292e-05
2.40964e-05
2.23437e-05
2.35023e-05
2.51451e-05
2.70475e-05
3.41002e-05
0.00010319
0.000458432
0.000450978
0.000100916
3.28124e-05
2.65201e-05
2.5184e-05
2.37356e-05
2.22299e-05
2.28181e-05
3.08631e-05
4.51511e-05
6.41605e-05
4.94791e-05
3.10475e-05
2.7314e-05
2.93307e-05
3.25015e-05
3.60976e-05
4.64112e-05
0.000131563
0.00052823
0.000512202
0.000124314
4.2303e-05
3.35611e-05
3.08819e-05
2.80417e-05
2.56555e-05
2.79406e-05
4.23616e-05
5.97817e-05
7.7868e-05
7.83008e-05
4.78591e-05
5.16135e-05
5.96447e-05
6.59575e-05
6.87214e-05
7.35991e-05
0.00015041
0.000533065
0.000516069
0.000141311
6.69422e-05
6.24462e-05
5.96334e-05
5.35368e-05
4.59354e-05
4.28125e-05
7.17555e-05
7.34846e-05
9.31154e-05
0.000101387
0.000120764
0.000159557
0.000196932
0.000219552
0.000222493
0.000220596
0.000283571
0.000480649
0.00046955
0.000271654
0.000212534
0.000213552
0.000207456
0.000183092
0.00014658
0.000108547
9.36174e-05
8.84421e-05
0.000113162
0.00013858
0.000161439
0.000185786
0.000213064
0.000242338
0.000275216
0.000315417
0.000367844
0.000428857
0.000428054
0.000361846
0.000308771
0.000268335
0.000235048
0.000205524
0.000178384
0.000154423
0.000132609
0.000108559
4.32819e-06
5.73859e-06
6.83109e-06
7.80652e-06
8.76963e-06
9.81608e-06
1.10184e-05
1.23161e-05
1.43876e-05
1.58862e-05
1.59023e-05
1.44237e-05
1.25959e-05
1.09018e-05
9.5778e-06
8.55004e-06
7.62582e-06
6.68721e-06
5.59055e-06
4.09226e-06
6.4372e-06
1.07214e-05
1.33196e-05
1.56525e-05
1.78617e-05
2.01733e-05
2.32153e-05
2.63226e-05
6.02002e-05
6.19518e-05
6.57388e-05
6.22645e-05
2.78566e-05
2.42863e-05
2.03758e-05
1.77904e-05
1.55305e-05
1.32278e-05
1.05545e-05
6.24501e-06
8.0441e-06
1.28419e-05
1.57701e-05
1.82303e-05
2.01685e-05
2.18789e-05
2.42248e-05
3.16287e-05
0.000140577
0.000111142
0.000118478
0.000135323
3.067e-05
2.3194e-05
2.07092e-05
1.91407e-05
1.74574e-05
1.53045e-05
1.24814e-05
7.55863e-06
1.11405e-05
1.49623e-05
1.82672e-05
2.01842e-05
2.15711e-05
2.27921e-05
2.53571e-05
4.22257e-05
0.000236995
0.000169393
0.000180174
0.000219824
3.99948e-05
2.44219e-05
2.2288e-05
2.14337e-05
2.03319e-05
1.86733e-05
1.53723e-05
9.1567e-06
2.98684e-05
2.08966e-05
1.87262e-05
2.02405e-05
2.25836e-05
2.47434e-05
2.85939e-05
5.98416e-05
0.000350343
0.000238196
0.000252417
0.000317151
5.50724e-05
2.80208e-05
2.5007e-05
2.32563e-05
2.09462e-05
1.88757e-05
1.93921e-05
2.56408e-05
4.74237e-05
3.22029e-05
2.20736e-05
2.02862e-05
2.27417e-05
2.66668e-05
3.34575e-05
8.04149e-05
0.000458432
0.000314278
0.000332036
0.000408885
7.18327e-05
3.20199e-05
2.66491e-05
2.31289e-05
2.0183e-05
2.08876e-05
2.89692e-05
4.29353e-05
6.16146e-05
4.48322e-05
2.82138e-05
2.45403e-05
2.8276e-05
3.47338e-05
4.49328e-05
0.000102948
0.00052823
0.000386925
0.00040842
0.000467287
8.99883e-05
4.06988e-05
3.2534e-05
2.6895e-05
2.30638e-05
2.58562e-05
3.97446e-05
5.72954e-05
7.46907e-05
7.33592e-05
4.26349e-05
4.40467e-05
5.20358e-05
5.89854e-05
6.6526e-05
0.000119527
0.000533065
0.000435603
0.000460622
0.000473263
0.000105561
5.90804e-05
5.20818e-05
4.57906e-05
3.88601e-05
3.85208e-05
6.59166e-05
7.03802e-05
8.90048e-05
9.17258e-05
0.000102936
0.000135741
0.000164667
0.000178359
0.00018985
0.000259892
0.000480649
0.000463099
0.000486501
0.000442546
0.000244398
0.000178282
0.000163816
0.000149886
0.000123108
9.14089e-05
8.42067e-05
8.43981e-05
0.000109488
0.000134274
0.00015634
0.000181548
0.000210985
0.000244658
0.000287357
0.000348153
0.000428857
0.000442481
0.00045693
0.000418116
0.000337997
0.000278358
0.000235884
0.000202437
0.000173518
0.000148814
0.000128002
0.000104721
4.17549e-06
5.57247e-06
6.75093e-06
7.79311e-06
8.78573e-06
9.82418e-06
1.10951e-05
1.27093e-05
1.45127e-05
1.59023e-05
1.63679e-05
1.49941e-05
1.32934e-05
1.14194e-05
9.97906e-06
8.86753e-06
7.86485e-06
6.86037e-06
5.73129e-06
4.17886e-06
6.48511e-06
1.05472e-05
1.32119e-05
1.58687e-05
1.86169e-05
2.17394e-05
2.59837e-05
3.0442e-05
6.98588e-05
6.57388e-05
6.7204e-05
6.57051e-05
2.94425e-05
2.54826e-05
2.11697e-05
1.81959e-05
1.5561e-05
1.29691e-05
1.03409e-05
6.14509e-06
7.98569e-06
1.25133e-05
1.553e-05
1.83811e-05
2.08733e-05
2.31476e-05
2.63224e-05
3.60079e-05
0.000152363
0.000118478
0.000122295
0.000140661
3.43938e-05
2.53953e-05
2.21693e-05
2.00081e-05
1.7582e-05
1.51741e-05
1.25028e-05
7.74023e-06
1.02442e-05
1.47141e-05
1.79176e-05
2.01068e-05
2.19092e-05
2.35297e-05
2.69138e-05
4.75695e-05
0.000246143
0.000180174
0.000187504
0.000224813
4.63107e-05
2.7027e-05
2.36737e-05
2.21427e-05
2.03585e-05
1.86325e-05
1.62223e-05
8.92221e-06
2.82808e-05
1.98787e-05
1.80859e-05
1.98272e-05
2.24763e-05
2.48818e-05
2.94727e-05
6.53089e-05
0.000352264
0.000252417
0.000264042
0.000321815
6.50623e-05
3.09867e-05
2.63399e-05
2.40524e-05
2.11369e-05
1.87095e-05
1.88572e-05
2.40469e-05
4.64719e-05
3.12295e-05
2.14577e-05
1.97635e-05
2.22566e-05
2.60463e-05
3.29148e-05
8.3668e-05
0.000450978
0.000332035
0.000347826
0.000413602
8.40327e-05
3.39335e-05
2.68147e-05
2.29439e-05
1.99e-05
2.06341e-05
2.84385e-05
4.2222e-05
6.09543e-05
4.34947e-05
2.75931e-05
2.39643e-05
2.70553e-05
3.24604e-05
4.14829e-05
0.000100663
0.000512202
0.00040842
0.0004271
0.000472508
0.000100595
4.02307e-05
3.10137e-05
2.58522e-05
2.27252e-05
2.56883e-05
3.92996e-05
5.7055e-05
7.41822e-05
7.2966e-05
4.24924e-05
4.38076e-05
5.07903e-05
5.64249e-05
6.23265e-05
0.000114013
0.000516069
0.000460622
0.000479907
0.00048259
0.000112859
5.68601e-05
4.99916e-05
4.5062e-05
3.92115e-05
3.90008e-05
6.57966e-05
7.04504e-05
8.85374e-05
9.18654e-05
0.000103779
0.000137726
0.00016709
0.000179576
0.000188289
0.000255539
0.00046955
0.000486501
0.000503809
0.000446625
0.000248765
0.000179434
0.000164915
0.000153895
0.000127366
9.37504e-05
8.5366e-05
8.47124e-05
0.000108869
0.000133777
0.00015603
0.000181248
0.000210448
0.000243629
0.000285695
0.000346178
0.000428054
0.00045693
0.000466315
0.000421918
0.000340908
0.000280464
0.000237696
0.000204438
0.000175571
0.000150586
0.000129112
0.000105173
4.18848e-06
5.66853e-06
6.89428e-06
7.90945e-06
8.80398e-06
9.66508e-06
1.05804e-05
1.16133e-05
1.25597e-05
1.44237e-05
1.49941e-05
1.33301e-05
1.18748e-05
1.0673e-05
9.73488e-06
8.8855e-06
8.01432e-06
7.04072e-06
5.85728e-06
4.24597e-06
6.3655e-06
1.03232e-05
1.28266e-05
1.48976e-05
1.67643e-05
1.87503e-05
2.12073e-05
2.42842e-05
2.74015e-05
6.22645e-05
6.57051e-05
2.72788e-05
2.37348e-05
2.06976e-05
1.85626e-05
1.685e-05
1.50909e-05
1.29666e-05
1.03362e-05
6.05881e-06
7.62548e-06
1.29193e-05
1.63904e-05
1.8441e-05
1.97014e-05
2.07705e-05
2.22708e-05
2.48438e-05
3.63235e-05
0.000135323
0.000140661
3.78607e-05
2.50389e-05
2.22417e-05
2.07883e-05
1.97453e-05
1.83899e-05
1.62605e-05
1.30009e-05
7.57549e-06
1.1056e-05
1.48948e-05
1.91474e-05
2.1765e-05
2.28978e-05
2.31142e-05
2.3593e-05
2.68701e-05
5.30263e-05
0.000219824
0.000224813
5.71927e-05
2.84975e-05
2.42799e-05
2.34548e-05
2.31772e-05
2.23652e-05
2.02618e-05
1.58802e-05
9.41777e-06
2.94035e-05
2.04899e-05
1.91218e-05
2.10071e-05
2.30247e-05
2.42943e-05
2.53273e-05
3.03164e-05
7.65219e-05
0.000317151
0.000321815
8.46408e-05
3.3279e-05
2.64114e-05
2.5237e-05
2.40107e-05
2.17997e-05
1.92859e-05
1.90387e-05
2.53374e-05
4.81652e-05
3.22341e-05
2.27984e-05
2.12936e-05
2.26062e-05
2.42773e-05
2.61294e-05
3.35512e-05
0.000100916
0.000408886
0.000413602
0.000112502
3.62473e-05
2.63957e-05
2.43035e-05
2.25241e-05
2.09141e-05
2.16564e-05
2.94308e-05
4.41489e-05
6.33892e-05
4.68716e-05
2.98139e-05
2.60303e-05
2.73932e-05
2.98186e-05
3.26905e-05
4.25061e-05
0.000124314
0.000467287
0.000472508
0.000136658
4.38289e-05
3.14394e-05
2.83775e-05
2.59844e-05
2.45325e-05
2.75016e-05
4.1435e-05
5.96438e-05
7.7483e-05
7.87303e-05
4.71141e-05
4.95124e-05
5.62234e-05
6.15986e-05
6.36644e-05
6.77707e-05
0.000141311
0.000473263
0.00048259
0.000151967
6.51961e-05
5.84249e-05
5.66533e-05
5.18657e-05
4.56536e-05
4.38732e-05
7.25295e-05
7.39074e-05
9.27796e-05
0.000102199
0.000121526
0.000160543
0.00019878
0.000222283
0.000222964
0.000214948
0.000271654
0.000442546
0.000446625
0.000275768
0.000210284
0.000209539
0.000211622
0.000192443
0.000155363
0.000115233
9.655e-05
8.92861e-05
0.000112428
0.000137763
0.00016056
0.000184705
0.000211696
0.000240528
0.000272586
0.000311448
0.000361846
0.000418116
0.000421918
0.000361606
0.000309216
0.000269054
0.00023666
0.000207963
0.000181119
0.000156961
0.000134316
0.000109414
4.42801e-06
6.20173e-06
7.57895e-06
8.595e-06
9.35852e-06
9.95144e-06
1.04461e-05
1.09386e-05
1.1448e-05
1.25959e-05
1.32934e-05
1.18748e-05
1.08369e-05
1.02392e-05
9.73956e-06
9.16857e-06
8.44065e-06
7.47153e-06
6.13671e-06
4.34464e-06
6.41034e-06
1.09682e-05
1.36535e-05
1.53998e-05
1.6539e-05
1.74504e-05
1.84888e-05
2.01565e-05
2.31028e-05
2.78566e-05
2.94425e-05
2.37348e-05
1.9807e-05
1.80994e-05
1.73263e-05
1.66148e-05
1.55974e-05
1.39177e-05
1.10048e-05
6.07801e-06
8.5402e-06
1.59343e-05
1.96084e-05
2.098e-05
2.10242e-05
2.06647e-05
2.05322e-05
2.11675e-05
2.32052e-05
3.067e-05
3.43938e-05
2.50389e-05
2.12772e-05
2.03402e-05
2.03822e-05
2.04972e-05
2.0189e-05
1.88117e-05
1.53734e-05
7.39229e-06
1.51976e-05
1.79119e-05
2.16067e-05
2.42555e-05
2.53746e-05
2.49781e-05
2.37857e-05