/*--------------------------------*- C++ -*----------------------------------*\
  =========                 |
  \\      /  F ield         | OpenFOAM: The Open Source CFD Toolbox
   \\    /   O peration     | Website:  https://openfoam.org
    \\  /    A nd           | Version:  9
     \\/     M anipulation  |
\*---------------------------------------------------------------------------*/
FoamFile
{
    format      ascii;
    class       volScalarField;
    location    "1150";
    object      nut;
}
// * * * * * * * * * * * * * * * * * * * * * * * * * * * * * * * * * * * * * //

dimensions      [0 2 -1 0 0 0 0];

internalField   nonuniform List<scalar> 
4000
(
0.000318829
0.000288052
0.000239609
0.000193384
0.000167764
0.000148882
0.000135254
0.000126526
0.000120217
0.000115861
0.000113925
0.000114268
0.000117552
0.00012412
0.000136437
0.000150176
0.000159462
0.000204904
0.000271638
0.0003084
0.000377988
0.000362702
0.000336165
0.000298652
0.000250835
0.000188107
0.000148892
0.000141569
0.000139921
0.000141278
0.000141925
0.000140683
0.000141336
0.00014719
0.000180439
0.000251418
0.00029487
0.000333723
0.000358455
0.000371667
0.000399367
0.000389459
0.000366355
0.000335625
0.000298512
0.000257417
0.000218439
0.000173746
0.000153591
0.000158321
0.000157745
0.000154202
0.000163777
0.000213307
0.000253887
0.000292061
0.000331289
0.000362281
0.000384344
0.000392834
0.000411408
0.000407291
0.000389246
0.000361651
0.000329265
0.000296854
0.000266865
0.000237222
0.000210077
0.00018975
0.000181848
0.000189211
0.000221042
0.000255021
0.000287907
0.000323481
0.000356668
0.000384541
0.000401454
0.000404623
0.000420005
0.000422355
0.000413078
0.000397704
0.000380228
0.000363276
0.000347622
0.000332862
0.000319695
0.000308761
0.000301129
0.000307044
0.000320746
0.000336567
0.000353299
0.00037199
0.000390848
0.000406684
0.000415342
0.000412873
0.000427446
0.000436836
0.000437767
0.000434199
0.000428662
0.000421862
0.00041385
0.000404917
0.000395542
0.000386861
0.000383257
0.000390242
0.000398452
0.000406317
0.000413577
0.000420193
0.000425698
0.00042923
0.000428303
0.000419933
0.000434912
0.000451339
0.000461037
0.000466052
0.000468117
0.000467359
0.000463804
0.000457554
0.000449156
0.000440189
0.000438063
0.000446815
0.000453532
0.000457966
0.000459983
0.000459562
0.000456663
0.000451197
0.000441708
0.000426995
0.000443116
0.000466577
0.000483765
0.000495397
0.000503136
0.000506923
0.000506737
0.000502498
0.000494403
0.0004842
0.000482794
0.00049351
0.000499569
0.000501461
0.000499598
0.000494291
0.000485404
0.000473119
0.000456288
0.000434842
0.000453321
0.000485091
0.000509354
0.000526813
0.000539378
0.000547147
0.000550189
0.000548041
0.000540292
0.000528186
0.000527068
0.000539661
0.000545105
0.000544599
0.000539357
0.000530087
0.000516345
0.000498197
0.000474174
0.0004447
0.000467043
0.000506301
0.000536997
0.000559163
0.000575861
0.000588025
0.00059571
0.000598406
0.000595378
0.000585543
0.000584144
0.000593688
0.000594718
0.000589776
0.000580083
0.000566289
0.000548408
0.00052565
0.000495249
0.000458176
0.000288052
0.000274137
0.000233385
0.000202542
0.000191918
0.000181188
0.000164355
0.00014994
0.000139973
0.000133486
0.000131956
0.000133207
0.000139385
0.000153464
0.000172649
0.000177978
0.000171824
0.000193356
0.000241768
0.000265293
0.000362702
0.000470632
0.000449402
0.000386195
0.000349005
0.000335384
0.000333982
0.00033866
0.000355096
0.000374755
0.000379012
0.000358323
0.000326247
0.00031847
0.000330748
0.000366031
0.000398904
0.000451877
0.000474682
0.00035386
0.000389459
0.000510189
0.000518857
0.000471973
0.000409016
0.000369628
0.000343016
0.000330011
0.000370561
0.000418696
0.000431505
0.000384497
0.00033508
0.000348327
0.000373578
0.000408666
0.000469778
0.00052193
0.000509279
0.00037872
0.000407291
0.000535159
0.000552898
0.000509926
0.000439253
0.000381413
0.000342678
0.000316887
0.000316235
0.000362036
0.000389347
0.000319977
0.000313151
0.000341442
0.00038176
0.000441226
0.000519807
0.000561321
0.000535539
0.000396234
0.000422355
0.00056628
0.000596427
0.000566896
0.000498279
0.000426044
0.000378348
0.000339623
0.000313099
0.000308518
0.000306873
0.000298608
0.00032328
0.000366107
0.000419641
0.000499592
0.000572706
0.000598909
0.000562034
0.000411512
0.000436836
0.000597216
0.00064037
0.00063571
0.000592772
0.000527508
0.000453168
0.00040595
0.000376306
0.000362358
0.000355797
0.000359838
0.000388653
0.00043736
0.000514329
0.000596136
0.000638273
0.000637517
0.000588249
0.000426695
0.000451339
0.000623539
0.000676389
0.000701263
0.000706588
0.000686293
0.000642687
0.000578352
0.000519632
0.000477336
0.000465083
0.000493489
0.000553801
0.000625881
0.000682298
0.000705821
0.000698473
0.000668421
0.000609412
0.000441764
0.000466577
0.000643378
0.000701883
0.000751034
0.000789989
0.000807474
0.000802592
0.000780837
0.000751191
0.000728805
0.000727511
0.000753965
0.000781649
0.000801414
0.000804902
0.000785291
0.000741821
0.000690567
0.000624279
0.000457175
0.000485091
0.000635588
0.000707238
0.000763294
0.000807088
0.000828934
0.000830377
0.000807393
0.000761537
0.000711188
0.00071054
0.000763424
0.000801615
0.000816811
0.000812853
0.000793672
0.000749508
0.000691525
0.000618409
0.000475436
0.000506301
0.000547326
0.000580606
0.000606089
0.000626723
0.000643096
0.00065469
0.000660183
0.000658278
0.000647872
0.000647014
0.000656678
0.000656253
0.000648118
0.000634239
0.000616147
0.000594385
0.000568552
0.000535908
0.000497032
0.000239609
0.000233385
0.000212965
0.000205012
0.000205761
0.000197185
0.000180916
0.000165225
0.000153218
0.000145818
0.000145478
0.000147052
0.000154217
0.000169527
0.000188369
0.000196406
0.000183151
0.000179145
0.000193527
0.000201163
0.000336165
0.000449402
0.000438923
0.000406517
0.000404839
0.000411256
0.000407632
0.000410566
0.000430535
0.000464094
0.000475575
0.000442302
0.000402584
0.000394016
0.000406572
0.000424913
0.000434208
0.000447766
0.000446763
0.00032513
0.000366355
0.000518857
0.000546125
0.000506375
0.000463434
0.000443091
0.00042946
0.000425811
0.000464449
0.000520591
0.000546944
0.000484918
0.000434049
0.000439987
0.000451989
0.000464476
0.000501284
0.000543095
0.000514239
0.000352876
0.000389246
0.000552898
0.000590694
0.000556122
0.000489814
0.000442108
0.000414392
0.000404351
0.000425401
0.000485827
0.000516472
0.000438775
0.000409689
0.000422121
0.000449521
0.000495695
0.000563027
0.000597619
0.000550035
0.000373982
0.000413078
0.000596427
0.000643146
0.000613887
0.000534389
0.000462508
0.000416006
0.000384812
0.000371985
0.000391372
0.00040183
0.00036742
0.000377148
0.000413716
0.00046449
0.000538614
0.000617765
0.000642704
0.000588101
0.000398557
0.000437767
0.00064037
0.000697819
0.000681259
0.000604314
0.000516487
0.00044511
0.00039487
0.000361186
0.000351617
0.00034939
0.000349145
0.000382393
0.000437861
0.00051456
0.000609001
0.000681977
0.000692391
0.000629089
0.000424917
0.000461037
0.000676389
0.000747073
0.00075006
0.000695746
0.000618522
0.000549418
0.000488731
0.000439466
0.000411395
0.000405605
0.000423752
0.000473091
0.000540382
0.00061863
0.00069863
0.000746867
0.00073584
0.000660962
0.000449434
0.000483765
0.000701883
0.000797897
0.000842177
0.000849271
0.000813345
0.000771214
0.000717968
0.000656041
0.000604271
0.000599448
0.00064075
0.000696239
0.00075181
0.000803656
0.000846347
0.000835077
0.000778981
0.0006799
0.00047275
0.000509354
0.000707238
0.000868015
0.00101267
0.00110936
0.00115426
0.00116184
0.00111465
0.00102556
0.000922924
0.000924421
0.00102315
0.00110085
0.00113785
0.00113345
0.00109326
0.00099363
0.000842835
0.000682004
0.000498223
0.000536997
0.000580606
0.000615869
0.000643831
0.000667491
0.000687313
0.000702448
0.000710698
0.000710026
0.000698601
0.000698327
0.000708524
0.000706432
0.000695127
0.000677427
0.000655782
0.000630952
0.000602794
0.000568349
0.000526754
0.000193384
0.000202542
0.000205012
0.000211877
0.000213512
0.0002041
0.000189589
0.000175039
0.000163223
0.000155888
0.000156486
0.000157579
0.000164235
0.000178006
0.000194111
0.000206289
0.000198947
0.000182659
0.000171201
0.000155968
0.000298652
0.000386195
0.000406517
0.000423209
0.000448705
0.000454537
0.000451551
0.000457206
0.000478395
0.000524149
0.000546824
0.00050478
0.000459412
0.000444514
0.000450777
0.00046074
0.000457494
0.000439437
0.000401771
0.000288641
0.000335625
0.000471973
0.000506375
0.00049745
0.000491261
0.000493082
0.000488597
0.000490121
0.000530988
0.000599581
0.00063729
0.000564038
0.000501638
0.000501706
0.000508191
0.000498978
0.000498243
0.000501086
0.000461191
0.000321016
0.000361651
0.000509926
0.000556122
0.000539242
0.000504949
0.000482163
0.000473397
0.000477966
0.00050603
0.000570019
0.00060656
0.000527273
0.000489346
0.000487035
0.000495205
0.000513683
0.000543184
0.000554451
0.000500533
0.000342879
0.000397704
0.000566896
0.000613887
0.00059711
0.000542214
0.000493461
0.000464145
0.000450084
0.000457303
0.000503123
0.000524127
0.000462655
0.00045051
0.000469453
0.000500827
0.00054673
0.000593691
0.00060289
0.000546348
0.000380108
0.000434199
0.00063571
0.000681259
0.000663834
0.000601626
0.000532649
0.000480608
0.000444532
0.000424114
0.000434449
0.00043836
0.000415847
0.000435909
0.000478976
0.000535855
0.000604192
0.000657468
0.000663229
0.000613293
0.000419369
0.000466052
0.000701263
0.00075006
0.000739022
0.00068803
0.000620506
0.000565488
0.000520989
0.000484081
0.000468437
0.000462095
0.000465994
0.000503203
0.00055684
0.000620863
0.000688007
0.000729738
0.000726888
0.000681116
0.000452991
0.000495397
0.000751034
0.000842177
0.000889941
0.000872337
0.000829835
0.000792476
0.000751126
0.000695628
0.000638727
0.00062947
0.000668315
0.000718156
0.000766372
0.000815577
0.000860134
0.000869696
0.000815256
0.000730916
0.000483067
0.000526813
0.000763294
0.00101267
0.00123439
0.0012831
0.00130608
0.00131752
0.0012883
0.00119479
0.00106916
0.00107409
0.00118992
0.00126263
0.0012788
0.00126541
0.00124104
0.00119797
0.000980295
0.000732574
0.000514429
0.000559163
0.000606089
0.000643831
0.000674673
0.000702175
0.000726548
0.000746249
0.000758748
0.000761243
0.000752353
0.000752145
0.000759458
0.000753951
0.000738268
0.000715788
0.000689356
0.000660586
0.000629777
0.000593048
0.000548075
0.000167764
0.000191918
0.000205761
0.000213512
0.00021234
0.000204322
0.000192956
0.00018134
0.000171443
0.000165013
0.000166232
0.0001662
0.000171233
0.000182161
0.000193959
0.000204364
0.000207147
0.000195071
0.000174342
0.000144123
0.000250835
0.000349005
0.000404839
0.000448705
0.000472346
0.000475855
0.00048205
0.000488973
0.000513128
0.000572518
0.000609008
0.000558792
0.000503883
0.000483048
0.000477086
0.000477026
0.000468644
0.000439578
0.000381026
0.000252469
0.000298512
0.000409016
0.000463434
0.000491261
0.000513143
0.000526022
0.000525742
0.000534066
0.000581931
0.000660294
0.000705545
0.000626431
0.00054935
0.000539464
0.00054396
0.000530258
0.000501133
0.000468096
0.000408951
0.000285351
0.000329265
0.000439253
0.000489814
0.000504949
0.000506378
0.000510412
0.000519558
0.000531666
0.000562747
0.000634828
0.000676915
0.000592506
0.000547042
0.000536374
0.000527697
0.000520991
0.000514397
0.000492897
0.000430681
0.000309178
0.000380228
0.000498279
0.000534389
0.000542214
0.000526718
0.000510447
0.000503309
0.000506409
0.000530785
0.000593761
0.000618774
0.000542684
0.000512733
0.000513739
0.000522634
0.000536244
0.000544286
0.000525312
0.000473175
0.000360657
0.000428662
0.000592772
0.000604314
0.000601626
0.000576033
0.000542834
0.000517185
0.000502386
0.000506581
0.000549759
0.000556495
0.000501093
0.000497143
0.000519418
0.00054928
0.000579759
0.000594115
0.000580424
0.000558061
0.000412424
0.000468117
0.000706588
0.000695746
0.00068803
0.000665331
0.000630833
0.000600359
0.000577578
0.000567274
0.000585332
0.000570996
0.000541983
0.000557724
0.000591768
0.0006299
0.000661687
0.000670847
0.000662803
0.000677142
0.000453921
0.000503136
0.000789989
0.000849271
0.000872337
0.000860778
0.000835762
0.000813192
0.000786682
0.000746373
0.000702675
0.000680826
0.000705463
0.000745189
0.000780918
0.000814535
0.000840348
0.000840542
0.000806832
0.000769595
0.000489707
0.000539378
0.000807088
0.00110936
0.0012831
0.0013669
0.00143222
0.00146973
0.00144551
0.00132946
0.00116821
0.00117291
0.00132614
0.00141758
0.00142477
0.00138144
0.00131413
0.00122237
0.00106752
0.000770315
0.000525969
0.000575861
0.000626723
0.000667491
0.000702175
0.000735499
0.000765464
0.000790331
0.000807685
0.000814814
0.000810623
0.000810025
0.000812614
0.000802564
0.000782091
0.000754384
0.000722259
0.00068742
0.00065278
0.000613111
0.000564147
0.000148882
0.000181188
0.000197185
0.000204101
0.000204322
0.000200039
0.00019299
0.000185449
0.000178755
0.000174442
0.000175718
0.000173923
0.000176303
0.00018327
0.000189974
0.000194712
0.00019602
0.0001905
0.00017351
0.000133254
0.000188107
0.000335384
0.000411256
0.000454537
0.000475855
0.000490171
0.000503335
0.000510487
0.000539685
0.000611608
0.000661925
0.000605557
0.000540506
0.000512696
0.000496752
0.000481005
0.000460428
0.000422696
0.000350654
0.000190723
0.000257417
0.000369628
0.000443091
0.000493082
0.000526022
0.000541768
0.000547409
0.000566063
0.000619982
0.000694456
0.000737222
0.000669674
0.000584575
0.000561658
0.000558211
0.00054605
0.000512463
0.000457393
0.000378279
0.000252317
0.000296854
0.000381413
0.000442108
0.000482163
0.000510412
0.000534366
0.000552111
0.000565101
0.000601562
0.000668153
0.00070217
0.000636251
0.000583009
0.000568982
0.000551764
0.000527773
0.000497617
0.00045299
0.000382547
0.000277078
0.000363276
0.000426044
0.000462508
0.000493461
0.000510447
0.000521414
0.000532483
0.000549026
0.000586103
0.00064725
0.000665072
0.000599684
0.000558072
0.00054489
0.000535886
0.000524468
0.000503628
0.000464339
0.000413979
0.000342908
0.000421862
0.000527508
0.000516487
0.000532649
0.000542834
0.00054327
0.00054235
0.000548559
0.000577967
0.000636739
0.00063758
0.000571865
0.000545327
0.000546889
0.000552293
0.000550609
0.000531733
0.000497957
0.000483131
0.000404531
0.000467359
0.000686293
0.000618522
0.000620506
0.000630833
0.000628997
0.000621597
0.000618962
0.000637561
0.000684667
0.000661036
0.000604911
0.000597868
0.000613031
0.000627438
0.000627441
0.000605923
0.00058696
0.000643059
0.000452224
0.000506923
0.000807474
0.000813345
0.000829835
0.000835762
0.0008333
0.000826218
0.000809264
0.000778926
0.000749786
0.000715569
0.000728178
0.000762383
0.000788177
0.000804773
0.000809457
0.000795541
0.000766749
0.000779533
0.000492708
0.000547147
0.000828934
0.00115426
0.00130608
0.00143222
0.00152978
0.00157793
0.00153543
0.00137024
0.00115351
0.00115353
0.00137149
0.00151214
0.00153252
0.00147303
0.00137131
0.0012414
0.00110151
0.000786298
0.000533047
0.000588025
0.000643096
0.000687313
0.000726548
0.000765464
0.000800856
0.000831294
0.000854648
0.000868677
0.000872585
0.000871227
0.000865847
0.000849248
0.000822931
0.000789675
0.00075209
0.000711728
0.00067234
0.000629134
0.000575886
0.000135254
0.000164355
0.000180916
0.000189589
0.000192956
0.00019299
0.00019113
0.0001883
0.000185746
0.000184714
0.000186498
0.000181593
0.000180312
0.000182458
0.000183797
0.000183046
0.000179133
0.000170546
0.000153471
0.000120008
0.000148892
0.000333982
0.000407632
0.000451551
0.00048205
0.000503335
0.00051429
0.00052635
0.00056
0.000635929
0.00069193
0.00064199
0.000573336
0.000537259
0.000514149
0.000487142
0.000453143
0.000407666
0.000335701
0.000148012
0.000218439
0.000343016
0.00042946
0.000488597
0.000525742
0.000547409
0.000565004
0.000593844
0.000639064
0.000660517
0.000681837
0.000681351
0.000613227
0.000578709
0.000561411
0.000541212
0.000507322
0.000449644
0.000360068
0.000220133
0.000266865
0.000342678
0.000414392
0.000473397
0.000519558
0.000552111
0.000569843
0.000585871
0.000615571
0.00059661
0.00060309
0.000643005
0.000603663
0.000585057
0.000566345
0.000533703
0.000488197
0.000428009
0.000348497
0.000248081
0.000347622
0.000378348
0.000416006
0.000464145
0.000503309
0.000532483
0.000555698
0.000580249
0.00060947
0.00056979
0.000567886
0.000618086
0.000588666
0.00056668
0.000545583
0.000517411
0.00047741
0.0004239
0.000372255
0.00032687
0.00041385
0.000453168
0.00044511
0.000480608
0.000517185
0.00054235
0.000560949
0.000584016
0.000615748
0.000581999
0.000570609
0.000605812
0.00058077
0.000565638
0.000552026
0.000527714
0.000486696
0.000439137
0.000428306
0.000395895
0.000463804
0.000642687
0.000549418
0.000565488
0.000600359
0.000621597
0.000631838
0.000646283
0.000678899
0.000672459
0.000641867
0.000641385
0.000623763
0.000622503
0.000619094
0.000597471
0.000554102
0.000518649
0.000578625
0.000448029
0.000506737
0.000802592
0.000771214
0.000792476
0.000813192
0.000826218
0.000826403
0.000810055
0.000783411
0.00075383
0.000715724
0.000728607
0.000761063
0.000784272
0.000790657
0.000780077
0.000753653
0.000718086
0.000768585
0.000492143
0.000550189
0.000830377
0.00116184
0.00131752
0.00146973
0.00157793
0.00161128
0.00152295
0.00129814
0.00106879
0.00106333
0.0012977
0.0015087
0.00157194
0.00152015
0.00140358
0.00124749
0.00108644
0.000783551
0.000535814
0.00059571
0.00065469
0.000702448
0.000746249
0.000790331
0.000831294
0.000868208
0.000899819
0.000925452
0.000945398
0.000943252
0.00092148
0.000893819
0.000859603
0.000820031
0.000776941
0.000731495
0.000687206
0.000640444
0.000583301
0.000126526
0.00014994
0.000165225
0.000175039
0.00018134
0.000185449
0.0001883
0.000190452
0.000192465
0.000195115
0.000199165
0.000189809
0.00018425
0.000181284
0.000177554
0.00017227
0.000164776
0.0001541
0.000137845
0.00011366
0.000141569
0.00033866
0.000410566
0.000457206
0.000488973
0.000510487
0.00052635
0.000543488
0.0005645
0.000562062
0.000603326
0.000647656
0.000602954
0.000559936
0.000530522
0.000500633
0.000462816
0.000411994
0.00033654
0.000142771
0.000173746
0.000330011
0.000425811
0.000490121
0.000534066
0.000566063
0.000593844
0.000616355
0.000583578
0.000436444
0.000459006
0.000602616
0.000629584
0.00060018
0.000570475
0.000537837
0.000494544
0.000431776
0.000335998
0.000178368
0.000237222
0.000316887
0.000404351
0.000477966
0.000531666
0.000565101
0.000585871
0.000596896
0.000522572
0.000400801
0.000437242
0.000532985
0.0006076
0.000594735
0.000573268
0.000539126
0.000485783
0.00041264
0.000321259
0.000219
0.000332862
0.000339623
0.000384812
0.000450084
0.000506409
0.000549026
0.000580249
0.00059446
0.000502206
0.000449251
0.000490415
0.000507917
0.000598745
0.000586032
0.000557416
0.000517356
0.000462589
0.000394418
0.000335256
0.000311536
0.000404917
0.00040595
0.00039487
0.000444532
0.000502386
0.000548559
0.000584016
0.000602872
0.000510937
0.000531161
0.000560921
0.000504295
0.000598197
0.000586156
0.00055699
0.000513993
0.000454481
0.000394216
0.000386258
0.000386453
0.000457554
0.000578352
0.000488731
0.000520989
0.000577578
0.000618962
0.000646283
0.000665608
0.000609771
0.000649982
0.000649604
0.00057623
0.000641475
0.000634165
0.000614399
0.000574194
0.000510994
0.000459297
0.000510123
0.000441585
0.000502498
0.000780837
0.000717968
0.000751126
0.000786682
0.000809264
0.000810055
0.000791678
0.000757219
0.000777058
0.000760987
0.000710345
0.000741702
0.000763952
0.000766385
0.000745134
0.000705233
0.000659885
0.000744393
0.000487957
0.000548041
0.000807393
0.00111465
0.0012883
0.00144551
0.00153543
0.00152295
0.00137654
0.00117727
0.0011762
0.00118037
0.00116584
0.0013593
0.00148593
0.00147758
0.00137595
0.00121394
0.00103386
0.000759505
0.000533813
0.000598406
0.000660183
0.000710698
0.000758748
0.000807685
0.000854648
0.000899819
0.000944177
0.000990458
0.00104036
0.0010382
0.000984751
0.000936642
0.000890345
0.000842971
0.000794116
0.000743966
0.00069547
0.000645935
0.000586002
0.000120217
0.000139973
0.000153218
0.000163223
0.000171443
0.000178755
0.000185746
0.000192465
0.000199073
0.000210688
0.00021226
0.000197018
0.000188247
0.000180627
0.000173015
0.000165028
0.000156062
0.000145367
0.000131635
0.000112261
0.000139921
0.000355096
0.000430535
0.000478395
0.000513128
0.000539685
0.00056
0.0005645
0.00048424
0.000516692
0.00057279
0.000538824
0.000624441
0.000599466
0.000564324
0.000528913
0.000489165
0.000440092
0.000360564
0.00014044
0.000153591
0.000370561
0.000464449
0.000530988
0.000581931
0.000619982
0.000639064
0.000583578
0.000401118
0.000669759
0.000738013
0.000419331
0.000582008
0.000628752
0.000604009
0.000564416
0.000514766
0.000449663
0.000356099
0.000150655
0.000210077
0.000316235
0.000425401
0.00050603
0.000562747
0.000601562
0.000615571
0.000522572
0.000409483
0.000913043
0.000985228
0.000436193
0.000524877
0.000608033
0.000593018
0.000556543
0.000502384
0.000424049
0.000315555
0.000191015
0.000319695
0.000313099
0.000371985
0.000457303
0.000530785
0.000586103
0.00060947
0.000502206
0.000490343
0.00119594
0.00126066
0.000514874
0.000508717
0.000606573
0.000585618
0.000535693
0.000466953
0.000381637
0.000307931
0.000296467
0.000395542
0.000376306
0.000361186
0.000424114
0.000506581
0.000577967
0.000615748
0.000510937
0.000592894
0.00146304
0.00151261
0.000604965
0.000511036
0.000613344
0.000583169
0.000518565
0.000436089
0.000361406
0.000356668
0.000376625
0.000449156
0.000519632
0.000439466
0.000484081
0.000567274
0.000637561
0.000678899
0.000609771
0.000724332
0.00165643
0.00168657
0.000713607
0.000585716
0.000660016
0.000628797
0.000563225
0.000475383
0.000413345
0.000459268
0.000433251
0.000494403
0.000751191
0.000656041
0.000695628
0.000746373
0.000778926
0.000783411
0.000757219
0.000868687
0.00175095
0.00177243
0.000846958
0.000709419
0.000730785
0.000727593
0.000696211
0.0006439
0.000598738
0.000710202
0.00048015
0.000540292
0.000761537
0.00102556
0.00119479
0.00132946
0.00137024
0.00129814
0.00117727
0.00127303
0.0017153
0.00173405
0.00125925
0.00115403
0.00125617
0.00130781
0.00125502
0.00111753
0.000944256
0.000714649
0.000526443
0.000595378
0.000658278
0.000710026
0.000761243
0.000814814
0.000868677
0.000925452
0.000990458
0.00106932
0.00115431
0.00115438
0.00106119
0.000980363
0.000914151
0.000855812
0.000800489
0.000746028
0.000694397
0.000643794
0.000582909
0.000115861
0.000133486
0.000145818
0.000155888
0.000165013
0.000174442
0.000184714
0.000195115
0.000210688
0.000221362
0.000222009
0.000211373
0.000197694
0.000184091
0.000172689
0.000163251
0.000154216
0.00014441
0.00013204
0.00011305
0.000141278
0.000374755
0.000464094
0.000524149
0.000572518
0.000611608
0.000635929
0.000562062
0.000516692
0.000340393
0.000363421
0.000555089
0.00059034
0.00066849
0.000637861
0.000591601
0.000538047
0.000476314
0.000385748
0.000139564
0.000158321
0.000418696
0.000520591
0.000599581
0.000660294
0.000694456
0.000660517
0.000436444
0.000669759
0.000498945
0.000535173
0.000672264
0.000428649
0.000640625
0.000668013
0.000631355
0.000572325
0.000498694
0.000405993
0.000153634
0.00018975
0.000362036
0.000485827
0.000570019
0.000634828
0.000668153
0.00059661
0.000400801
0.000913043
0.000670051
0.000718491
0.000892073
0.000398303
0.000586448
0.000647497
0.000615929
0.000558387
0.000484224
0.000368876
0.000168902
0.000308761
0.000308518
0.000391372
0.000503123
0.000593761
0.00064725
0.00056979
0.000449251
0.00119594
0.000861963
0.000922009
0.00114775
0.000443479
0.000577642
0.000646578
0.000599278
0.00051643
0.000408772
0.000308081
0.00028421
0.000386861
0.000362358
0.000351617
0.000434449
0.000549759
0.000636739
0.000581999
0.000531161
0.00146304
0.00107109
0.00114181
0.00138765
0.000511483
0.000587137
0.000643562
0.000566386
0.000451846
0.000355945
0.000344739
0.000367369
0.000440189
0.000477336
0.000411395
0.000468437
0.000585332
0.000684667
0.000672459
0.000649982
0.00165643
0.00127737
0.0013573
0.00156096
0.000610904
0.000648996
0.0006707
0.000580993
0.000462873
0.000394315
0.000436354
0.000424123
0.0004842
0.000728805
0.000604271
0.000638727
0.000702675
0.000749786
0.00075383
0.000777058
0.00175095
0.00144032
0.00152786
0.00165673
0.00073003
0.000694343
0.000686659
0.000643439
0.000585097
0.000553795
0.000679742
0.0004698
0.000528186
0.000711188
0.000922924
0.00106916
0.00116821
0.00115351
0.00106879
0.0011762
0.0017153
0.00155928
0.00164313
0.00166027
0.00114484
0.00101885
0.00107177
0.00107975
0.000986471
0.000841075
0.000664351
0.000514117
0.000585543
0.000647872
0.000698601
0.000752353
0.000810623
0.000872585
0.000945398
0.00104036
0.00115431
0.00117141
0.00119236
0.00114035
0.00102533
0.000930691
0.00085701
0.000794185
0.000735566
0.000681492
0.000632338
0.000572337
0.000113925
0.000131956
0.000145478
0.000156486
0.000166232
0.000175718
0.000186498
0.000199165
0.00021226
0.000222009
0.000225557
0.000215901
0.000203457
0.00018883
0.000176726
0.000166712
0.000157027
0.00014659
0.000133899
0.000114315
0.000141925
0.000379012
0.000475575
0.000546824
0.000609008
0.000661925
0.00069193
0.000603326
0.000572789
0.000363421
0.000380222
0.000573012
0.000597061
0.000686159
0.00066802
0.000623592
0.00056468
0.000494653
0.000397249
0.000138581
0.000157745
0.000431505
0.000546944
0.00063729
0.000705545
0.000737222
0.000681837
0.000459006
0.000738013
0.000535173
0.000561237
0.000711218
0.000452082
0.000662975
0.000721375
0.000694169
0.000626272
0.000548887
0.000446449
0.000155639
0.000181848
0.000389346
0.000516472
0.000606559
0.000676915
0.00070217
0.00060309
0.000437242
0.000985228
0.000718491
0.000757518
0.000946986
0.000445541
0.000600906
0.000704973
0.00068897
0.000623206
0.000547442
0.000443824
0.000167324
0.000301129
0.000306873
0.00040183
0.000524127
0.000618774
0.000665072
0.000567885
0.000490415
0.00126066
0.000922009
0.000976379
0.00121884
0.000513749
0.000585683
0.000694046
0.000658718
0.000567313
0.000440673
0.000319666
0.000276379
0.000383257
0.000355797
0.00034939
0.00043836
0.000556495
0.00063758
0.000570609
0.000560921
0.00151261
0.00114181
0.00121116
0.00147226
0.000590321
0.000578481
0.000661182
0.000590101
0.000468322
0.000361897
0.000343125
0.00036484
0.000438063
0.000465083
0.000405605
0.000462095
0.000570996
0.000661036
0.000641867
0.000649603
0.00168657
0.0013573
0.00143782
0.00165311
0.000673243
0.000619039
0.000651758
0.000568831
0.000459659
0.000393657
0.000431429
0.00042364
0.000482794
0.000727511
0.000599448
0.00062947
0.000680826
0.000715569
0.000715724
0.000760987
0.00177243
0.00152786
0.00161357
0.00175726
0.000769979
0.00065752
0.000648735
0.000619914
0.000578631
0.000554653
0.000676963
0.000470403
0.000527068
0.00071054
0.000924421
0.00107409
0.00117291
0.00115353
0.00106333
0.00118037
0.00173405
0.00164313
0.00172533
0.00172757
0.0011866
0.00102067
0.00106447
0.00108885
0.00100228
0.00085126
0.000666187
0.000515464
0.000584144
0.000647014
0.000698327
0.000752145
0.000810025
0.000871227
0.000943252
0.0010382
0.00115438
0.00119236
0.00120614
0.00114612
0.00103017
0.000934607
0.000860607
0.000798396
0.000740267
0.000685997
0.000635507
0.000573958
0.000114268
0.000133207
0.000147052
0.000157579
0.0001662
0.000173923
0.000181593
0.000189808
0.000197018
0.000211373
0.000215901
0.000203327
0.000192163
0.000182515
0.00017459
0.000166996
0.000158702
0.000148736
0.000135543
0.000115287
0.000140683
0.000358323
0.000442302
0.00050478
0.000558792
0.000605556
0.00064199
0.000647656
0.000538824
0.000555089
0.000573012
0.000537188
0.00063366
0.000639786
0.000614497
0.000575871
0.000527318
0.00046806
0.000382921
0.000137754
0.000154202
0.000384497
0.000484918
0.000564038
0.000626431
0.000669674
0.000681351
0.000602616
0.000419331
0.000672264
0.000711218
0.000438211
0.000594159
0.000677768
0.000673472
0.000635652
0.000577868
0.000507322
0.000414393
0.000154164
0.000189211
0.000319977
0.000438775
0.000527273
0.000592506
0.000636251
0.000643005
0.000532985
0.000436193
0.000892073
0.000946986
0.000481911
0.000546521
0.000662086
0.000667524
0.000630957
0.000571418
0.000488125
0.000362736
0.000173478
0.000307044
0.000298608
0.00036742
0.000462655
0.000542684
0.000599684
0.000618086
0.000507917
0.000514874
0.00114775
0.00121884
0.000586243
0.000528401
0.000644474
0.000637694
0.000581742
0.00049879
0.000395586
0.000303418
0.000284592
0.000390242
0.000359838
0.000349145
0.000415847
0.000501093
0.000571865
0.000605812
0.000504295
0.000604965
0.00138765
0.00147226
0.000692207
0.000511818
0.000613171
0.000589337
0.00051897
0.000430474
0.00035269
0.000344955
0.000373417
0.000446816
0.000493489
0.000423752
0.000465994
0.000541983
0.000604911
0.000641385
0.000576229
0.000713607
0.00156096
0.00165311
0.000799294
0.00056252
0.000620531
0.000589582
0.000529645
0.000454571
0.000403842
0.000446109
0.000433373
0.00049351
0.000753965
0.00064075
0.000668315
0.000705463
0.000728178
0.000728607
0.000710345
0.000846958
0.00165673
0.00175726
0.000917768
0.000673603
0.000670706
0.00067099
0.000653223
0.00062183
0.000595636
0.000708279
0.000482021
0.000539661
0.000763424
0.00102315
0.00118992
0.00132614
0.00137149
0.0012977
0.00116584
0.00125925
0.00166027
0.00172757
0.00130736
0.00114481
0.00122417
0.00130632
0.00128005
0.00114827
0.000973609
0.00072298
0.000529419
0.000593688
0.000656678
0.000708524
0.000759458
0.000812614
0.000865847
0.00092148
0.000984751
0.00106119
0.00114035
0.00114612
0.00106097
0.000981235
0.000915441
0.000858784
0.000805378
0.000752039
0.000700517
0.000648343
0.000585567
0.000117552
0.000139385
0.000154217
0.000164235
0.000171233
0.000176303
0.000180312
0.00018425
0.000188247
0.000197694
0.000203457
0.000192163
0.00018389
0.000179078
0.000174928
0.000169937
0.000163177
0.00015353
0.000138995
0.000116667
0.000141336
0.000326247
0.000402584
0.000459412
0.000503883
0.000540506
0.000573336
0.000602954
0.000624441
0.00059034
0.000597061
0.00063366
0.000611613
0.000579343
0.000548502
0.000514869
0.000474282
0.000422256
0.000345238
0.000137959
0.000163777
0.00033508
0.000434049
0.000501638
0.00054935
0.000584575
0.000613227
0.000629584
0.000582008
0.000428649
0.000452082
0.000594159
0.000637908
0.000620119
0.000590884
0.000556659
0.000512762
0.000452211
0.000362395
0.000152647
0.000221042
0.000313151
0.000409689
0.000489346
0.000547042
0.000583009
0.000603663
0.0006076
0.000524877
0.000398303
0.000445541
0.000546521
0.000625695
0.000619761
0.000596165
0.000561987
0.00050788
0.000427597
0.000321294
0.00020752
0.000320746
0.00032328
0.000377148
0.00045051