/*--------------------------------*- C++ -*----------------------------------*\
  =========                 |
  \\      /  F ield         | OpenFOAM: The Open Source CFD Toolbox
   \\    /   O peration     | Website:  https://openfoam.org
    \\  /    A nd           | Version:  9
     \\/     M anipulation  |
\*---------------------------------------------------------------------------*/
FoamFile
{
    format      ascii;
    class       surfaceScalarField;
    location    "1150";
    object      phi;
}
// * * * * * * * * * * * * * * * * * * * * * * * * * * * * * * * * * * * * * //

dimensions      [1 0 -1 0 0 0 0];

internalField   nonuniform List<scalar> 
11200
(
0.00244524
-0.00489005
0.00244524
0.00306323
-0.0025382
0.00192063
0.00241415
-0.000559601
0.00120898
0.00151991
0.000179407
0.000714916
0.00112387
-0.000136116
0.000532162
0.00113263
-0.000470081
0.000461368
0.000982037
-0.000320365
0.000470981
0.000629556
-0.000121503
0.000473965
0.000214687
4.17627e-05
0.000373061
-6.74245e-05
4.06998e-05
0.00024137
-0.000190159
-7.47775e-05
0.000197486
-0.00027424
-0.000163226
0.0002473
-0.000360202
-0.00020018
0.000286144
-0.000322891
-0.000300804
0.000263506
-0.000174505
-0.000433749
0.000285391
-0.000519588
4.07261e-05
0.000304313
-0.00121729
0.000330793
0.000366913
-0.00194089
-7.7125e-05
0.000800936
-0.00178491
-0.00166073
0.00150515
-0.00379455
0.00201
0.0024616
-0.00981321
0.0024616
0.0040962
-0.00661739
0.00244465
0.0046417
-0.00327156
0.00216657
0.00376993
-0.000667524
0.00171888
0.00188012
0.000497537
0.00125635
0.000239012
0.000466566
0.0007045
-0.000358762
6.97733e-05
0.000207629
-0.000297324
-0.000209617
2.66818e-05
-2.93324e-05
-0.00018657
-3.96595e-05
0.000286106
-0.000231538
-4.31973e-05
0.000529954
-0.000252368
-6.62497e-05
0.000684684
-0.000261907
-5.60446e-05
0.000764644
-0.00032239
4.22584e-05
0.000407975
-0.000135072
0.000190946
-0.00111836
0.000401558
0.00069107
-0.00328827
0.000912506
0.00129826
-0.00451205
-0.00031099
0.00186567
-0.00413643
-0.00286579
0.00241311
-0.00245795
-0.0060807
0.00274151
-0.00894718
0.00269469
0.00148957
-0.0127923
0.00148957
0.00253807
-0.00950117
0.00183528
0.00330968
-0.00594314
0.00189998
0.00362763
-0.00285574
0.00187028
0.00320388
-0.000761898
0.00168323
0.00214712
0.000134559
0.00138881
0.000963754
0.000244338
0.00100884
0.000125431
0.000108769
0.000519943
-1.89434e-05
-5.25422e-05
1.03496e-05
0.000151868
-0.000179008
-0.000223333
0.00036393
-0.000220031
-0.000244389
0.000366492
-0.000217042
-4.74175e-05
-0.000398713
-3.87512e-05
0.000481575
-0.00182155
0.000270216
0.00101758
-0.00321975
0.000448511
0.00135129
-0.00369347
-0.000263424
0.00164967
-0.00348452
-0.00237322
0.00185329
-0.0026874
-0.00567581
0.00201289
-0.00155204
-0.00919927
0.00198322
-0.0120721
0.00157292
0.000733106
-0.0142585
0.000733106
0.000850743
-0.0110308
0.00141204
0.000840802
-0.00764169
0.0017085
0.000944667
-0.00490478
0.00194518
0.00103795
-0.00291577
0.00206059
0.00102215
-0.00175007
0.00190045
0.000799391
-0.00116539
0.00163251
0.000378566
-0.000806245
0.00133586
3.10798e-05
-0.000656432
0.0009514
2.92361e-05
-0.000603207
0.000426065
0.000112343
-0.000535142
0.000232026
-0.000287842
-0.000566463
0.000749632
-0.00100428
-0.000641158
0.00131888
-0.00154277
-0.000827396
0.00163612
-0.00170605
-0.00128206
0.00189387
-0.00155023
-0.00246606
0.00204681
-0.00128381
-0.0045949
0.00195526
-0.00117527
-0.00750916
0.00172481
-0.000909974
-0.0108732
0.00140864
-0.0136263
0.000644207
0.000192391
-0.0146433
0.000192391
-0.000384368
-0.0116349
0.00118081
-0.000967241
-0.00867725
0.00161845
-0.0013066
-0.00647679
0.00191138
-0.00140537
-0.0049287
0.0021117
-0.0013432
-0.00393605
0.00212382
-0.00119971
-0.00330675
0.00199787
-0.000969543
-0.00288089
0.00184449
-0.000689874
-0.00261134
0.00167525
-0.000329958
-0.00244343
0.00148032
3.86614e-05
-0.00231168
0.00140793
0.000229806
-0.00236948
0.00161189
0.000358023
-0.00260901
0.00183965
0.000480341
-0.00298444
0.00203474
0.00059947
-0.00358571
0.00218452
0.000610991
-0.00462874
0.00215116
0.000405804
-0.00628366
0.00189395
-8.80237e-05
-0.00858563
0.0015703
-0.000505245
-0.0115192
0.00106328
-0.0140836
-4.79934e-05
-0.00021184
-0.0142196
-0.00021184
-0.00120928
-0.0116319
0.000994516
-0.00204401
-0.00926917
0.00142667
-0.00251557
-0.00763222
0.00162702
-0.00261157
-0.00652094
0.00168825
-0.00243294
-0.0058121
0.00169743
-0.00205865
-0.00532997
0.00164895
-0.00155208
-0.00497019
0.00158273
-0.00099358
-0.00470796
0.00153813
-0.000431673
-0.00451011
0.00150478
0.000158824
-0.00440496
0.00150279
0.00071933
-0.00448782
0.00155784
0.00123013
-0.0047481
0.00162829
0.00163722
-0.00510918
0.00171766
0.0018707
-0.00560116
0.00178198
0.00184246
-0.00633807
0.00173758
0.0014486
-0.0074962
0.00160641
0.000682809
-0.00917208
0.00135225
-0.000146008
-0.0115004
0.000809959
-0.0137617
-0.000467829
-0.000559415
-0.0131008
-0.000559414
-0.00186352
-0.0110315
0.000703646
-0.00287359
-0.00928838
0.00102931
-0.00339399
-0.00819229
0.00108047
-0.00343599
-0.00746613
0.000987207
-0.00311457
-0.00701439
0.000880888
-0.0025405
-0.00671084
0.000806809
-0.00183361
-0.0064789
0.000801837
-0.00110703
-0.00628564
0.000851115
-0.000428678
-0.00611568
0.000927221
0.000287335
-0.00607114
0.000950179
0.00106462
-0.0061721
0.000907011
0.00180496
-0.00637102
0.000882582
0.00240544
-0.0066091
0.000899449
0.00276192
-0.00691193
0.0009543
0.00275985
-0.00736279
0.0010268
0.0022851
-0.00809396
0.00107253
0.00134058
-0.00918863
0.000961083
0.000219201
-0.0108749
0.000495952
-0.0127248
-0.000817728
-0.00105654
-0.0109877
-0.00105654
-0.00264435
-0.00939499
-4.86406e-05
-0.00379177
-0.0082617
0.000120767
-0.00432231
-0.00765342
-8.30457e-06
-0.00427599
-0.0072896
-0.000222823
-0.00380705
-0.00708468
-0.000398628
-0.00303947
-0.0069466
-0.000531805
-0.00211148
-0.00681989
-0.00058697
-0.00118152
-0.00667597
-0.00053963
-0.000384484
-0.00651185
-0.000400841
0.000429329
-0.00651548
-0.000369461
0.00142077
-0.00665133
-0.000512203
0.00238844
-0.00679737
-0.000541309
0.0031768
-0.0069212
-0.000476232
0.00366311
-0.00704819
-0.00035004
0.00373504
-0.0072356
-0.000199109
0.00323631
-0.00758423
-1.09954e-05
0.00214759
-0.00817231
7.24248e-05
0.000722517
-0.0092575
-0.00019236
-0.0107128
-0.00128949
-0.00193738
-0.00711289
-0.00193738
-0.00383625
-0.00618828
-0.00130782
-0.00503638
-0.00571683
-0.0013447
-0.0055204
-0.00558994
-0.00157945
-0.0053713
-0.00558759
-0.00185109
-0.00474283
-0.00565254
-0.00206059
-0.00376103
-0.00572013
-0.00220826
-0.00255956
-0.00574676
-0.00227459
-0.001332
-0.00570021
-0.0022033
-0.000325826
-0.00557156
-0.00194646
0.000693524
-0.00559305
-0.00194176
0.00197005
-0.00570925
-0.0022186
0.0031958
-0.00575295
-0.00227017
0.00418355
-0.00571962
-0.00218933
0.00481211
-0.00564128
-0.00203545
0.00497715
-0.00555874
-0.00184188
0.00452155
-0.00554753
-0.00158108
0.00338119
-0.00565901
-0.00137292
0.00162825
-0.00610647
-0.00139807
-0.00695192
-0.00213258
-0.00355644
-0.00355643
-0.00587977
-0.00386492
-0.0070458
-0.00455078
-0.00740613
-0.00522958
-0.00711543
-0.00587828
-0.00629631
-0.00647164
-0.00504894
-0.00696748
-0.00348113
-0.00731456
-0.00174055
-0.00744077
-0.000196161
-0.00711595
0.00131107
-0.00710028
0.00304705
-0.00744522
0.00459803
-0.00730392
0.00582118
-0.00694275
0.00662301
-0.0064431
0.00691273
-0.00584845
0.00657112
-0.00520591
0.00545827
-0.00454615
0.00325532
-0.0039035
-0.00369659
0.00192063
-0.0025382
0.00306323
0.0025527
-0.00126379
0.0025527
0.00221144
-0.000198584
0.00174899
0.00165042
0.000111428
0.00116454
0.00146117
-0.000240144
0.000961561
0.00148462
-0.000487719
0.00092565
0.00123416
-0.000218199
0.00093964
0.00076301
-3.4733e-06
0.000948554
0.000250393
3.91216e-05
0.000846516
-0.000128709
-5.2868e-05
0.000673313
-0.000316658
-0.000210452
0.000595891
-0.00045545
-0.000260026
0.000646129
-0.000606043
-0.000239253
0.000676002
-0.000633527
-0.000348963
0.00063997
-0.000454171
-0.000513636
0.000619692
-0.000624547
-8.23368e-05
0.000556996
-0.00107039
0.000214529
0.000598214
-0.00147326
0.000186703
0.00101718
-0.00118767
-0.000456752
0.00167658
-0.00120394
0.00202663
0.00244465
-0.00661739
0.0040962
0.00408478
-0.00454395
0.00408478
0.00457671
-0.0020692
0.0035454
0.00382239
-0.000131223
0.00271604
0.00232028
0.000632703
0.00188579
0.00101065
0.000389284
0.00113718
0.000349144
8.12928e-05
0.000569626
0.000241802
-0.000194613
0.000325162
0.000275292
-0.000251942
0.000217918
0.000285792
-0.000260537
0.000153982
0.000235949
-0.000338227
0.000111381
0.000187056
-0.000430901
0.000163739
0.000112038
-0.000448223
0.000326258
-0.000332577
-0.000232513
0.000519122
-0.00153308
0.000332958
0.00104503
-0.00311987
0.0010175
0.00178533
-0.00423289
0.00051078
0.00268255
-0.00394401
-0.00137796
0.00368895
-0.00240118
-0.00359645
0.00433841
-0.00531143
0.00440101
0.00183528
-0.00950117
0.00253807
0.00325173
-0.00737684
0.00325173
0.00420119
-0.00451075
0.00339208
0.00445327
-0.00165809
0.00314509
0.00388809
0.000209674
0.00267146
0.00270791
0.000889711
0.00206862
0.00164462
0.00069954
0.00145391
0.000894492
0.000280464
0.000795001
0.00045129
1.23104e-05
0.000189297
0.00024729
-0.000110774
-0.000169096
7.543e-05
-0.000177459
-0.000233295
-0.000269017
-0.000234303
0.000100437
-0.00105271
3.86128e-05
0.000778439
-0.00225821
0.000554776
0.00143582
-0.00360973
0.000988032
0.00204777
-0.00426957
0.000688026
0.00263901
-0.00408166
-0.000971003
0.00314718
-0.00318685
-0.00378258
0.00352271
-0.00176984
-0.00648987
0.00345963
-0.00827879
0.00277044
0.00141204
-0.0110308
0.000850743
0.00220721
-0.00896716
0.00220721
0.00259065
-0.00600774
0.00282205
0.00281714
-0.00294174
0.00300234
0.00279119
-0.000582227
0.00287846
0.00248287
0.00057628
0.00252221
0.00191216
0.000811233
0.00209154
0.00119923
0.000743229
0.00158604
0.000607105
0.000607685
0.000948154
0.0001976
0.000498135
0.000226662
-0.000195364
0.00043976
7.77141e-06
-0.000866261
0.000420752
0.000765483
-0.00173446
0.000623158
0.00160255
-0.00257374
0.000876979
0.00215322
-0.0031224
0.000824452
0.00260613
-0.0031595
-0.000207611
0.00297955
-0.00279681
-0.00250263
0.0031242
-0.00229147
-0.00548409
0.00292098
-0.00141603
-0.00819918
0.00224251
-0.0098967
0.000846099
0.00118081
-0.0116349
-0.000384368
0.00146549
-0.00953651
0.00146549
0.00125426
-0.00657149
0.00239342
0.00094814
-0.00352213
0.0027979
0.000750399
-0.00122467
0.00295189
0.000620605
1.01976e-05
0.0028197
0.000333435
0.000612721
0.00248355
2.69707e-05
0.000812873
0.00208131
-0.000181211
0.00087993
0.00161119
-0.000157264
0.000882552
0.00107196
-9.52504e-05
0.000869454
0.000916235
-0.000357201
0.000808543
0.00148607
-0.000775373
0.000805868
0.00207512
-0.0011763
0.000773437
0.00253921
-0.00138268
0.000315354
0.0029
-0.00149538
-0.000996404
0.00305264
-0.00165852
-0.00329791
0.00285237
-0.00171503
-0.00622746
0.00237019
-0.00128767
-0.00889227
0.00132902
-0.0106699
-0.00056249
0.000994515
-0.0116319
-0.00120927
0.000906632
-0.00936073
0.000906632
0.000314969
-0.00653043
0.00197729
-0.000234647
-0.00378068
0.00243519
-0.000584018
-0.00179816
0.00261111
-0.000739096
-0.000676162
0.00253887
-0.000743859
-5.68271e-05
0.00232326
-0.000720075
0.00032108
0.00205074
-0.000591383
0.000508787
0.00178058
-0.000310845
0.000600748
0.00150605
-1.93807e-05
0.00063825
0.00144253
5.13966e-05
0.000551314
0.0017443
-1.43992e-05
0.000411641
0.00208832
-8.09278e-05
0.00014829
0.00240933
-0.0001847
-0.000434748
0.00263585
-0.000444486
-0.00164416
0.00264513
-0.000882487
-0.00364271
0.00238922
-0.00127543
-0.00633051
0.00184824
-0.00117229
-0.00884276
0.000657314
-0.0108488
-0.0014612
0.000703646
-0.0110315
-0.00186352
0.000293035
-0.00853949
0.000293036
-0.000517942
-0.00605773
0.0013676
-0.00110197
-0.00392987
0.00181371
-0.00139423
-0.0024575
0.00193882
-0.00144637
-0.00155677
0.00181365
-0.00130467
-0.00103279
0.00164108
-0.00103786
-0.000677341
0.00153344
-0.000717005
-0.000417423
0.00145647
-0.000387159
-0.000178129
0.00137625
-6.81815e-05
-0.000103037
0.00137249
0.000199629
-0.000321002
0.00151152
0.000422309
-0.000562657
0.0016342
0.000581175
-0.000870275
0.00175915
0.000604937
-0.00138187
0.00187766
0.000383534
-0.0022989
0.00190295
-6.59409e-05
-0.00380596
0.00168526
-0.000713377
-0.00590285
0.00118087
-0.000912155
-0.00817882
3.08043e-05
-0.0104375
-0.0021411
-4.86408e-05
-0.00939499
-0.00264435
-0.0007199
-0.00719695
-0.0007199
-0.0016225
-0.00528
0.000245655
-0.00218675
-0.00388443
0.000510524
-0.00236462
-0.00294462
0.00044217
-0.00224912
-0.00237256
0.000301665
-0.0019268
-0.00203377
0.000146863
-0.0014791
-0.00179847
8.64695e-05
-0.000979839
-0.00158662
0.000130304
-0.000493766
-0.00132975
0.000264709
3.34932e-05
-0.00130468
0.000304923
0.000569185
-0.00155817
0.000189276
0.00104637
-0.00175311
0.000171965
0.00141344
-0.00196286
0.000249288
0.00159056
-0.00228357
0.000374546
0.00148734
-0.0028531
0.000458309
0.00104248
-0.00378178
0.000409696
0.00023902
-0.00513261
0.000105664
-0.000194248
-0.0069384
-0.000999499
-0.00901652
-0.00290475
-0.00130782
-0.00618828
-0.00383624
-0.00261747
-0.00457764
-0.00261747
-0.00355509
-0.00353683
-0.00215023
-0.00393144
-0.0029531
-0.00213441
-0.00379538
-0.00260103
-0.00233072
-0.00335005
-0.00241811
-0.00246036
-0.00270599
-0.00230017
-0.0025859
-0.00193023
-0.00217945
-0.00266937
-0.00113594
-0.00201455
-0.00256966
-0.000441776
-0.00171175
-0.00225862
0.000314424
-0.0017552
-0.00224743
0.00115647
-0.0020669
-0.0025519
0.00197431
-0.00222208
-0.00261903
0.00265653
-0.00232591
-0.00250849
0.00313393
-0.00242374
-0.00237267
0.00333878
-0.00257572
-0.00232411
0.00304231
-0.00290304
-0.00216334
0.00223011
-0.00345549
-0.00223782
0.00112067
-0.0044488
-0.00277822
-0.00598503
-0.00404338
-0.00386492
-0.00587977
-0.00615373
-0.00615373
-0.00728963
-0.00695169
-0.0076292
-0.00784309
-0.00736091
-0.00874758
-0.00661082
-0.00963983
-0.00545807
-0.0104204
-0.00396909
-0.010983
-0.00219998
-0.0112244
-0.000166382
-0.0108613
0.00183638
-0.0108582
0.00356145
-0.0112372
0.00501076
-0.0109753
0.00613453
-0.0103924
0.00687699
-0.00960929
0.0071639
-0.00871108
0.00687152
-0.00781656
0.00582302
-0.00695313
0.00367236
-0.00620164
-0.00600924
0.00120898
-0.000559601
0.00241415
0.00174899
-0.000198584
0.00221144
0.00170369
9.06608e-05
0.00170369
0.00155943
-5.16539e-05
0.00136044
0.00164469
-0.000440023
0.00131633
0.00172203
-0.000529178
0.00137749
0.00144065
-0.000191299
0.00141231
0.000883524
6.59485e-05
0.00143969
0.000276157
6.86265e-05
0.00138522
-0.000189354
-0.000101862
0.00124067
-0.000437108
-0.00029328
0.00113694
-0.000628037
-0.000311814
0.00114889
-0.00081076
-0.000265076
0.00112382
-0.000856066
-0.000355053
0.00104035
-0.000624094
-0.00057003
0.00095777
-0.000557042
-0.000277596
0.00076753
-0.000739101
0.000133481
0.000646754
-0.00083786
0.000285725
0.000830212
-0.000590328
0.000317933
0.0011112
0.000306469
0.00113001
0.00216657
-0.00327156
0.0046417
0.0035454
-0.0020692
0.00457671
0.00390462
-0.000627589
0.00390462
0.00322628
0.000441092
0.00290186
0.00209183
0.000589003
0.00199136
0.00114702
0.00028383
0.001269
0.000675727
3.24985e-05
0.000817102
0.00058861
-0.000168843
0.00064705
0.000509775
-0.000214322
0.000579695
0.000310214
-0.000252352
0.00050404
6.1738e-05
-0.000392763
0.000459357
-0.000102649
-0.000499222
0.000515554
-0.000173925
-0.000510577
0.000643046
-0.000441504
-0.000319861
0.000751516
-0.00123682
0.000162196
0.00110815
-0.0023605
0.000896183
0.00173533
-0.00326821
0.00112089
0.00260295
-0.00320925
0.000184441
0.00373135
-0.00204339
-0.00108257
0.0045731
-0.00205369
0.00471782
0.00189998
-0.00594314
0.00330968
0.00339208
-0.00451075
0.00420119
0.00436661
-0.00257665
0.00436661
0.00455209
-0.000546236
0.00394697
0.003848
0.000784679
0.00317991
0.00270985
0.00114278
0.00234785
0.00175991
0.000802317
0.00163407
0.00113283
0.000274607
0.000978642
0.000718092
-2.31757e-05
0.00041288
0.000362217
-0.000122866
5.72895e-05
-3.50339e-05
-0.000199632
-2.91735e-05
-0.000454046
-0.00030239
0.00032262
-0.00110209
-3.5741e-05
0.000951658
-0.0021343
0.000563542
0.00158465
-0.00336157
0.001148
0.00228927
-0.00410666
0.00116341
0.0031169
-0.00397503
0.000270464
0.00386601
-0.00312284
-0.00149875
0.00435372
-0.00175476
-0.00330029
0.00430926
-0.00461587
0.00357786
0.0017085
-0.00764169
0.000840802
0.00282205
-0.00600774
0.00259065
0.00351514
-0.00396284
0.00351514
0.0038353
-0.00156524
0.00370119
0.00369032
0.000412673
0.00339546
0.00315101
0.0013156
0.00288871
0.00239695
0.00131444
0.0023335
0.00157403
0.000987629
0.00169594
0.000869556
0.000675768
0.000953681
0.000272642
0.000510796
0.000189909
-0.000309047
0.000417486
-2.76608e-05
-0.00104868
0.000406161
0.000796564
-0.00197728
0.000774524
0.00172091
-0.00294008
0.00127239
0.00240718
-0.00365546
0.00147037
0.00299916
-0.00388217
0.000820608
0.00354907
-0.00352106
-0.000856186
0.00388973
-0.00276384
-0.00304463
0.00370963
-0.00167684
-0.00487773
0.00273295
-0.00643383
0.000987235
0.00161845
-0.00867725
-0.000967241
0.00239342
-0.00657149
0.00125427
0.00263196
-0.00443992
0.00263197
0.00260489
-0.00197362
0.00323336
0.00242629
0.000176544
0.00336661
0.00205546
0.00137459
0.00313152
0.00149539
0.00165405
0.00270402
0.000870765
0.00152553
0.00216803
0.000322363
0.00133697
0.00149839
1.68526e-05
0.00119909
0.000689175
-0.000249797
0.00111561
0.00048476
-0.000821661
0.00111725
0.00134685
-0.00155593
0.00140566
0.00217826
-0.00225473
0.00171884
0.00279156
-0.00272811
0.00158177
0.00326197
-0.00289678
0.000518271
0.00352364
-0.00283096
-0.00144665
0.00337701
-0.00250508
-0.00366759
0.00266726
-0.00169694
-0.00554208
0.00118523
-0.00765317
-0.00104009
0.00142667
-0.00926917
-0.00204401
0.00197729
-0.00653043
0.00031497
0.00190138
-0.0042881
0.00190138
0.00152578
-0.00183379
0.00267097
0.00119827
0.0001062
0.00300896
0.000846346
0.00134668
0.00291871
0.000488717
0.00172368
0.00261125
0.000137741
0.00172328
0.00220396
-0.000104213
0.00164513
0.00171436
-0.000144928
0.00159127
0.00115458
-0.000180338
0.00154529
0.00104824
-0.000501166
0.00152367
0.00165869
-0.00095288
0.0016889
0.00225678
-0.00138691
0.00184047
0.00272174
-0.00174383
0.00154209
0.00303245
-0.00202385
0.000377258
0.00306616
-0.00226997
-0.00146581
0.00265449
-0.00221718
-0.00364559
0.00177346
-0.00155265
-0.00564322
9.39228e-05
-0.00844801
-0.00221899
0.00102931
-0.00928838
-0.00287359
0.0013676
-0.00605773
-0.000517942
0.00113337
-0.00381962
0.00113337
0.000682574
-0.00152987
0.00196058
0.000247438
0.000248918
0.00223124
-8.2998e-07
0.00120779
0.00220081
-0.000186733
0.00155487
0.0019958
-0.000311999
0.00162276
0.00175922
-0.000351302
0.00163216
0.00150873
-0.000271236
0.0016628
0.00122464
-0.00020696
0.00164293
0.00121057
-0.000327774
0.001596
0.00156
-0.000525967
0.00164761
0.00187367
-0.000725403
0.00167537
0.00212368
-0.000950503
0.0013718
0.00227304
-0.00130525
0.000442161
0.00219279
-0.00162396
-0.00124703
0.0017852
-0.00169456
-0.00329392
0.000899801
-0.00116013
-0.00540184
-0.000744996
-0.00866998
-0.00307925
0.000120767
-0.0082617
-0.00379177
0.000245655
-0.00528
-0.0016225
-0.00018453
-0.00295924
-0.000184529
-0.000507459
-0.00125974
0.000563334
-0.000569131
-0.000129417
0.000882179
-0.000590885
0.000656335
0.000874868
-0.000560593
0.000944268
0.000727165
-0.000494936
0.00104383
0.000599735
-0.000405733
0.00113571
0.000537542
-0.000396066
0.00137822
0.000539609
-0.000367276
0.00134928
0.000569765
-0.000306
0.00110451
0.000619479
-0.000264965
0.00106799
0.000710542
-0.000231521
0.00105442
0.000836788
-0.000239422
0.000832639
0.000921605
-0.000231356
4.2526e-05
0.000849875
-0.000403745
-0.00104883
0.00038389
-0.000577179
-0.00262322
-0.000391596
-0.000286596
-0.00487948
-0.00181243
-0.00786865
-0.00399267
-0.0013447
-0.00571683
-0.00503638
-0.00215023
-0.00353683
-0.00355509
-0.00256229
-0.0021351
-0.00256229
-0.0026175
-0.00127616
-0.00206277
-0.00230608
-0.00066894
-0.00210261
-0.00177751
-0.000236881
-0.00209572
-0.00129885
1.52086e-06
-0.00212181
-0.000932522
0.000168347
-0.00216021
-0.000658735
0.000351749
-0.00205948
-0.000493625
0.000738703
-0.00178422
-0.000297604
0.000687196
-0.00178137
-1.90994e-05
0.000297639
-0.00202354
0.000374576
0.000132954
-0.00207767
0.000915413
9.49532e-06
-0.00200441
0.00153815
-0.000165845
-0.00199693
0.00197273
-0.000585192
-0.00213097
0.00203314
-0.00116897
-0.00210361
0.00180825
-0.00200279
-0.00263335
0.00121131
-0.003373
-0.00368775
-0.00551274
-0.00518797
-0.00455078
-0.0070458
-0.00695169
-0.00728963
-0.00801923
-0.00801923
-0.00824858
-0.00888989
-0.00790369
-0.00976141
-0.00709975
-0.0106806
-0.00592918
-0.0115894
-0.00439716
-0.0123466
-0.00249602
-0.0127738
-0.000126421
-0.0124922
0.00219604
-0.0124935
0.00402475
-0.0127683
0.00549286
-0.0123105
0.00662573
-0.0115158
0.00743552
-0.0105849
0.00780483
-0.00966559
0.00764041
-0.0088211
0.00667271
-0.00798822
0.00439988
-0.00730181
-0.00712208
0.000714916
0.000179407
0.00151991
0.00116454
0.000111428
0.00165042
0.00136044
-5.16539e-05
0.00155943
0.00155435
-0.000387818
0.00155435
0.00182108
-0.000634855
0.00168446
0.00189663
-0.000481272
0.00178322
0.00160022
-0.000135654
0.00184434
0.000988658
0.000132669
0.00191854
0.000298133
0.000126309
0.00194939
-0.000266207
-8.70604e-05
0.00189206
-0.000579642
-0.000315995
0.00176639
-0.000812757
-0.000313057
0.00169508
-0.00101672
-0.000244782
0.00157257
-0.00108276
-0.000301861
0.00140826
-0.000861322
-0.000519439
0.00125579
-0.000565078
-0.000525405
0.000996697
-0.000504858
-9.25273e-05
0.000679024
-0.000463038
0.000204688
0.000583667
-0.000277505
0.000377615
0.000548039
0.000562406
0.000290094
0.00171888
-0.000667525
0.00376993
0.00271604
-0.000131224
0.00382239
0.00290186
0.000441092
0.00322628
0.0024057
0.000604657
0.0024057
0.00166968
0.000388639
0.00170395
0.00112119
0.000108773
0.00122744
0.000910174
-0.000119307
0.00101175
0.000870702
-0.000165328
0.000984486
0.00071899
-0.000133223
0.000990921
0.00036342
-0.000175655
0.000948208
-7.40865e-05
-0.000329282
0.000910165
-0.000339955
-0.000450019
0.000918401
-0.000390017
-0.000504553
0.000952887
-0.000440371
-0.000436555
0.000936568
-0.000832168
-6.13938e-05
0.00104191
-0.00150094
0.000503523
0.00137523
-0.00209246
0.00113403
0.00196801
-0.00218017
0.00123653
0.00278731
-0.00150299
0.000831699
0.00344189
0.000287843
0.00348943
0.00187028
-0.00285574
0.00362763
0.00314509
-0.0016581
0.00445327
0.00394697
-0.000546237
0.00455208
0.00397805
0.000542543
0.00397805
0.00329548
0.00115189
0.00309926
0.00236171
0.00112369
0.00226676
0.00163162
0.000623449
0.00162143
0.00121251
0.00013934
0.00109308
0.000902394
-7.92826e-05
0.00066905
0.000470199
-7.53241e-05
0.000389146
-7.74433e-05
-0.000114122
0.000303304
-0.00048144
-0.000308596
0.000585194
-0.000928252
-0.000180456
0.00107438
-0.00170374
0.000360334
0.00156328
-0.00268674
0.00102956
0.00218134
-0.00340461
0.00133926
0.00299906
-0.00340821
0.00116623
0.00383742
-0.00270882
0.000469049
0.00442183
-0.0015704
-0.000444078
0.00444663
-0.00147599
0.00377129
0.00194518
-0.00490478
0.000944667
0.00300234
-0.00294174
0.00281714
0.00370119
-0.00156524
0.0038353
0.00400076
-5.65963e-05
0.00400076
0.00380126
0.00113028
0.00361659
0.00323041
0.00153622
0.00304704
0.00245269
0.00130491
0.00242977
0.00166975
0.000860043
0.00175818
0.000998517
0.000501614
0.00104401
0.000350588
0.000389559
0.000372946
-0.000325355
0.000344502
0.00018965
-0.00102514
0.000273767
0.000913981
-0.00188796
0.000627554
0.00177573
-0.00282222
0.00121208
0.00248971
-0.00352953
0.00161358
0.00312245
-0.00382063
0.00145842
0.00372101
-0.00355405
0.000636821
0.00415257
-0.00287045
-0.000561219
0.0040563
-0.00190719
-0.00178157
0.00310718
-0.0036966
0.00130066
0.00191138
-0.00647679
-0.0013066
0.0027979
-0.00352213
0.00094814
0.00323336
-0.00197362
0.00260489
0.00339053
-0.000370943
0.00339053
0.00326514
0.001083
0.00353928
0.00283279
0.0018168
0.00328329
0.00218456
0.00182604
0.00283111
0.00144932
0.00149832
0.00226499
0.000741705
0.0011714
0.00153621
0.000157365
0.000989362
0.0006737
-0.00040195
0.000919625
0.00046894
-0.00113628
0.00096486
0.00139009
-0.00197387
0.00136396
0.00227945
-0.00274682
0.00185424
0.00292235
-0.00328225
0.00199893
0.00341205
-0.00346318
0.00146916
0.00369384
-0.00330656
0.000300265
0.00355694
-0.00286243
-0.00105943
0.00272134
-0.00201551
-0.00245616
0.0010129
-0.00546912
-0.00128308
0.00162702
-0.00763222
-0.00251557
0.00243519
-0.00378068
-0.000234647
0.00267097
-0.00183379
0.00152578
0.00259354
-0.00021609
0.00259354
0.00237429
0.00124112
0.00307009
0.00200424
0.00203774
0.00306781
0.0015041
0.00214819
0.00278925
0.000935749
0.00191793
0.00235269
0.000402229
0.00165828
0.00176099
-8.63511e-06
0.0015211
0.00103369
-0.000426643
0.00147323
0.000912633
-0.00103097
0.00153253
0.00169534
-0.00168494
0.0018713
0.0024034
-0.00224991
0.0022404
0.00290055
-0.00264728
0.00224113
0.00318761
-0.00285717
0.00158748
0.00315772
-0.00289469
0.000362022
0.00263025
-0.00261909
-0.00105592
0.00149435
-0.00175819
-0.00288583
-0.000337303
-0.00684
-0.0026063
0.00108047
-0.00819229
-0.00339399
0.00181371
-0.00392987
-0.00110197
0.00196058
-0.00152987
0.000682575
0.00170439
0.00029628
0.00170439
0.00147208
0.00142768
0.00227698
0.00122633
0.00205783
0.00242647
0.000915146
0.00214314
0.00231201
0.000534796
0.00199105
0.00206644
0.00014938
0.00183794
0.00171448
-0.000177081
0.00181175
0.00126044
-0.00052377
0.00178819
0.00124229
-0.000974188
0.00179827
0.00174467
-0.00139688
0.00201142
0.00215623
-0.00171644
0.00226133
0.0024223
-0.00194561
0.00224347
0.00249985
-0.00213481
0.00170399
0.00226546
-0.00229676
0.000715382
0.00159379
-0.00207279
-0.000873779
0.000493693
-0.00120568
-0.00325587
-0.00124205
-0.00760884
-0.00351608
-8.30455e-06
-0.00765342
-0.00432231
0.000510524
-0.00388443
-0.00218675
0.000563333
-0.00125974
-0.000507459
0.000556346
0.000310255
0.000556346
0.000489571
0.00133499
0.00104164
0.0004891
0.00172011
0.00121304
0.000434885
0.00173867
0.00118585
0.000281057
0.00165811
0.00108649
3.07436e-05
0.00164791
0.00097787
-0.000379623
0.00188719
0.000874524
-0.000770451
0.00184232
0.000906445
-0.000999688
0.00159931
0.00104766
-0.00112522
0.00166845
0.00117903
-0.00113466
0.00182866
0.00127889
-0.0010886
0.00186459
0.00125442
-0.00106919
0.00154523
0.00098923
-0.00104531
0.000688563
0.000386824
-0.000803886
-0.000853781
-0.000653019
-0.000108041
-0.00345683
-0.00230731
-0.00726745
-0.00444209
-0.00157945
-0.00558994
-0.0055204
-0.00213441
-0.0029531
-0.00393144
-0.00206277
-0.00127616
-0.0026175
-0.00183694
-0.000141414
-0.00183694
-0.00146088
0.000413971
-0.00155764
-0.00102534
0.000659293
-0.00147043
-0.000665687
0.000774752
-0.00151756
-0.000454562
0.000888631
-0.00160186
-0.00038822
0.00111077
-0.00158868
-0.000502083
0.00163285
-0.00141602
-0.000569276
0.00155696
-0.00142882
-0.000475317
0.00103711
-0.0015553
-0.000211207
0.000841951
-0.00151529
0.000228416
0.000766552
-0.00138192
0.000756703
0.000692649
-0.00135328
0.0011859
0.000494928
-0.00150987
0.00156944
3.00294e-05
-0.00182861
0.00182349
-0.00110827
-0.00263291
0.00146682
-0.00278272
-0.00400519
-0.00539135
-0.00559724
-0.00522958
-0.00740613
-0.00784309
-0.0076292
-0.00888989
-0.00824858
-0.00896059
-0.00896059
-0.00849711
-0.00981091
-0.0076866
-0.0108319
-0.0065566
-0.0119447
-0.00501104
-0.0130036
-0.00292603
-0.0137481
-6.78395e-05
-0.0137175
0.00270743
-0.0137118
0.00469348
-0.0137172
0.00615784
-0.0129329
0.00723783
-0.0118293
0.00803006
-0.0106845
0.0085125
-0.00965311
0.00853139
-0.00880996
0.00759608
-0.00816118
0.00509781
-0.00758625
-0.00741561
0.000532162
-0.000136116
0.00112388
0.000961561
-0.000240144
0.00146117
0.00131633
-0.000440023
0.00164469
0.00168446
-0.000634855
0.00182108
0.00197638
-0.000583832
0.00197638
0.00202536
-0.000338348
0.00207257
0.00173786
-5.05844e-05
0.00218238
0.00110397
0.000221607
0.00233077
0.000339337
0.00021665
0.00249733
-0.000355118
-2.11798e-05
0.00260766
-0.000755315
-0.000297272
0.00246388
-0.00103294
-0.00027109
0.00224381
-0.00125521
-0.000176874
0.00197172
-0.00133008
-0.000215948
0.00169907
-0.00116674
-0.000381857
0.00147431
-0.000827179
-0.000562864
0.00122001
-0.000555307
-0.000455558
0.000862705
-0.000398082
-0.000100724
0.000527129
-0.000239388
0.000127346
0.000261961
0.000224923
-0.000174243
0.00125635
0.000497537
0.00188012
0.00188579
0.000632703
0.00232028
0.00199136
0.000589003
0.00209183
0.00170395
0.000388639
0.00166968
0.00134447
0.00013514
0.00134447
0.00114846
-0.000113296
0.00119836
0.0011318
-0.00024323
0.00122103
0.00110993
-0.000102666
0.00133058
0.000893949
-1.09831e-05
0.0014345
0.000414743
-5.8408e-05
0.00146464
-0.000192578
-0.000199922
0.00142014
-0.000555916
-0.000326092
0.00133675
-0.000618909
-0.000418024
0.00125703
-0.000539477
-0.000497027
0.00113821
-0.000610785
-0.000289487
0.00102085
-0.000922722
9.74492e-05
0.00102686
-0.0012668
0.000613052
0.00124354
-0.00134575
0.00113272
0.0016329
-0.000992886
0.00136138
0.00185507
0.00134993
0.00137159
0.00168323
-0.000761898
0.00320388
0.00267146
0.000209674
0.00388809
0.00317991
0.000784679
0.003848
0.00309926
0.00115189
0.00329548
0.00256763
0.00119845
0.00256763
0.00192782
0.000846006
0.0019473
0.00147272
0.000322587
0.00151072
0.00125253
8.23892e-06
0.00120236
0.00101647
-8.35019e-05
0.000977612
0.000544497
4.02873e-06
0.000798675
-8.06886e-05
8.07877e-06
0.000720477
-0.000486209
-0.000237055
0.000901673
-0.000757996
-0.000263828
0.00119197
-0.001257
0.000103044
0.00146222
-0.00194195
0.000716242
0.00186058
-0.00253388
0.00122607
0.00246239
-0.00268117
0.00142039
0.00317739
-0.00223875
0.00136596
0.00374618
-0.00137741
0.00107983
0.00386685
0.000342842
0.00340098
0.00206059
-0.00291577
0.00103795
0.00287846
-0.000582227
0.00279119
0.00339546
0.000412673
0.00369032
0.00361659
0.00113028
0.00380126
0.00344459
0.00154247
0.00344459
0.00293989
0.00149046
0.00290729
0.00225529
0.00111112
0.00232583
0.00160762
0.000651898
0.0017622
0.0010199
0.000341907
0.00120632
0.000402978
0.000298998
0.000694889
-0.000265572
0.000319846
0.000546421
-0.000910166
0.000212726
0.00110879
-0.00164162
0.000459891
0.00178347
-0.00244479
0.00101377
0.00238216
-0.00306532
0.00150713
0.0029521
-0.00332653
0.00172297
0.00348532
-0.00316946
0.0015507
0.00386519
-0.00268164