/*--------------------------------*- C++ -*----------------------------------*\
  =========                 |
  \\      /  F ield         | OpenFOAM: The Open Source CFD Toolbox
   \\    /   O peration     | Website:  https://openfoam.org
    \\  /    A nd           | Version:  9
     \\/     M anipulation  |
\*---------------------------------------------------------------------------*/
FoamFile
{
    format      ascii;
    class       surfaceScalarField;
    location    "120";
    object      phi;
}
// * * * * * * * * * * * * * * * * * * * * * * * * * * * * * * * * * * * * * //

dimensions      [0 3 -1 0 0 0 0];

internalField   nonuniform List<scalar> 
21254
(
-0.0991027
0.104334
-0.00522025
0.110256
-0.00592955
0.114615
-0.00434741
0.117934
-0.00332191
0.120622
-0.0026812
0.121757
-0.00114027
0.121413
0.000338303
0.119585
0.00182268
0.115762
0.00382079
0.110225
0.00554014
0.102914
0.00731875
0.0936349
0.00928848
0.0824411
0.0112069
0.0693642
0.0130935
0.0547471
0.0146388
0.0395171
0.0152582
0.0248425
0.0147093
0.0120117
0.0128671
0.00236329
0.00967749
-0.00390661
0.00622556
-0.00847807
0.00450046
-0.0105333
0.00201041
-0.0106643
0.000198663
-0.0113172
0.000939507
-0.00926695
-0.00174152
-0.00238052
-0.00681575
0.00119729
-0.00400311
0.00166723
0.000121571
0.012045
-0.0102477
0.0284867
-0.0170441
0.0415504
-0.0132702
0.0436223
-0.00197022
0.0281798
0.0153339
0.00444529
0.02395
-0.0206126
0.0251687
-0.0358235
0.0150525
-0.0271206
-0.00841816
-0.00816073
-0.0181862
0.0254832
-0.0216844
-0.0923006
-0.00680965
-0.0852421
-0.00705146
-0.0759556
-0.00927886
-0.0653236
-0.0106222
-0.0537334
-0.011563
-0.0413338
-0.0123858
-0.0286376
-0.0126843
-0.0163756
-0.0122581
-0.00498765
-0.0113921
0.00548111
-0.0104739
0.0150204
-0.0095462
0.0234164
-0.00840007
0.0306998
-0.00728967
0.0369909
-0.0062956
0.0425276
-0.0055427
0.0474487
-0.0049236
0.0519281
-0.00448208
0.0560693
-0.00413745
0.0599925
-0.00392172
0.063767
-0.00376509
0.0674602
-0.00369307
0.071093
-0.00362747
0.074636
-0.0035603
0.0778687
-0.0032581
0.0807078
-0.00286076
0.0832558
-0.00255876
0.0855076
-0.00224273
0.0875055
-0.00198248
0.0892644
-0.00172161
0.0907784
-0.00154446
0.0921163
-0.00132944
0.0932655
-0.00114035
0.0942456
-0.00098064
0.0950902
-0.000834904
0.0957322
-0.000672886
0.0960709
-0.000332303
0.095306
0.000705352
0.0904669
0.00470512
0.0786643
0.0113674
-0.0921237
0.0985984
-0.0116847
0.104976
-0.0123099
0.111296
-0.0106579
0.116824
-0.00885209
0.121868
-0.00772582
0.126082
-0.00536032
0.129593
-0.00318027
0.132662
-0.00125472
0.135057
0.00142531
0.136514
0.0040881
0.136664
0.00717721
0.135019
0.0109422
0.13091
0.0153262
0.123412
0.0205998
0.11157
0.0264899
0.0949607
0.0318741
0.0746691
0.0350064
0.0533113
0.0342264
0.0334692
0.0295146
0.0174025
0.022267
0.00658949
0.0152659
7.43709e-06
0.00853253
-0.00428533
0.00447833
-0.00574836
0.00246537
-0.00227603
-0.00513422
0.00290402
-0.0119621
0.0040961
-0.00528391
0.00658647
-0.00213859
0.017729
-0.0212794
0.0330336
-0.0325023
0.0447203
-0.0249334
0.0483874
-0.00547678
0.038821
0.0249437
0.00971846
0.0532369
-0.022671
0.0578253
-0.0307332
0.0232967
-0.0151668
-0.0233586
0.00611683
-0.0390054
0.0381272
-0.0477933
-0.0852771
-0.0136541
-0.0777972
-0.0145238
-0.0688088
-0.0182553
-0.0590136
-0.0203962
-0.0483082
-0.0222541
-0.0368166
-0.0238578
-0.0250664
-0.0244305
-0.0135501
-0.0237761
-0.00254475
-0.0224033
0.00770855
-0.0207331
0.0168588
-0.0187022
0.0250414
-0.0165861
0.0323786
-0.0146313
0.0389324
-0.0128509
0.0448331
-0.011445
0.0501872
-0.0102746
0.0550985
-0.00938907
0.059683
-0.00871211
0.0640383
-0.00826758
0.0682239
-0.0079367
0.0723021
-0.00776228
0.0763168
-0.00763124
0.0802378
-0.00748387
0.0839049
-0.00693184
0.0872058
-0.00617241
0.0902155
-0.00557442
0.0929315
-0.00496178
0.0953745
-0.0044228
0.0975635
-0.00389919
0.0994738
-0.00348265
0.101171
-0.00303248
0.102651
-0.00262749
0.103921
-0.00226035
0.105009
-0.00192182
0.105867
-0.00153634
0.106403
-0.000855659
0.106681
0.000435364
0.105074
0.00638057
0.0959108
0.0206916
-0.0903317
0.0968261
-0.018197
0.103148
-0.0186177
0.109638
-0.0171616
0.115242
-0.0144535
0.120144
-0.0126384
0.124396
-0.00962373
0.127596
-0.00639285
0.129896
-0.00355669
0.131333
-1.08846e-05
0.132261
0.00316694
0.132844
0.00660199
0.133265
0.0105308
0.13339
0.0152104
0.132838
0.0211606
0.130074
0.0292623
0.122923
0.0390334
0.109215
0.0487221
0.0892879
0.0541609
0.0659274
0.0528814
0.0434096
0.0447859
0.0254684
0.0332053
0.0126949
0.0213073
0.00438752
0.0128428
0.00108048
0.00590976
0.00316894
-0.00708505
0.00615654
-0.0149048
0.00657291
-0.00577956
0.00990146
-0.00531413
0.021221
-0.0325465
0.035965
-0.0474807
0.0467565
-0.0358626
0.0492132
-0.00794179
0.0407047
0.0333821
0.0146563
0.0793172
-0.0165702
0.0889776
-0.0239567
0.0304793
-0.00658623
-0.040857
0.0171834
-0.062624
0.0491739
-0.076599
-0.0835603
-0.0204099
-0.0758859
-0.0221908
-0.0664325
-0.0276928
-0.0562863
-0.0305238
-0.045385
-0.0331329
-0.0337527
-0.0354869
-0.0219279
-0.0362538
-0.010598
-0.0351124
0.000139792
-0.033148
0.0101422
-0.0307421
0.0191818
-0.0277441
0.0273565
-0.0247636
0.0347618
-0.0220372
0.0414539
-0.0195453
0.0475289
-0.0175205
0.0530912
-0.0158385
0.0582352
-0.0145325
0.0630579
-0.0135336
0.0676408
-0.0128477
0.0720535
-0.0123455
0.0763692
-0.0120768
0.0806088
-0.0118713
0.0847404
-0.0116296
0.0886564
-0.0108713
0.0922439
-0.00978496
0.0955363
-0.00888002
0.0985569
-0.00798353
0.101319
-0.00717251
0.103855
-0.00640499
0.106126
-0.00577494
0.108212
-0.0051093
0.110086
-0.0044913
0.111774
-0.00394623
0.113279
-0.00341807
0.114553
-0.0028424
0.115459
-0.00176463
0.115713
0.000101587
0.113658
0.0082912
0.106326
0.0274309
-0.0885531
0.0955344
-0.0251656
0.102252
-0.0253482
0.10932
-0.0242322
0.115444
-0.0205912
0.120981
-0.0181935
0.125827
-0.0144825
0.129819
-0.0103932
0.132847
-0.00659185
0.134996
-0.00215478
0.136202
0.0019704
0.136495
0.00631991
0.136019
0.0110176
0.135083
0.0161541
0.13415
0.0221009
0.133638
0.0297781
0.132459
0.0402148
0.127549
0.0536309
0.115289
0.0664193
0.0952646
0.0729019
0.0709406
0.0691011
0.0475751
0.0565528
0.0286306
0.0402238
0.015555
0.0259008
0.00917053
0.0122974
0.00862164
-0.00653044
0.00947689
-0.0157651
0.00915875
-0.00548792
0.0126778
-0.00873058
0.0236711
-0.0434567
0.0377789
-0.0616116
0.0477484
-0.0457773
0.048988
-0.00908142
0.0400422
0.0423682
0.0170748
0.102385
-0.0111476
0.117384
-0.0181233
0.0376299
0.000498557
-0.0590315
0.0264885
-0.0883149
0.0595418
-0.10659
-0.0814799
-0.0274802
-0.0736537
-0.0300068
-0.0638953
-0.037429
-0.0535776
-0.0408241
-0.0425201
-0.0441816
-0.030702
-0.0472953
-0.0187977
-0.0481632
-0.0074689
-0.0464499
0.00316745
-0.0437936
0.01305
-0.0406312
0.0220062
-0.0367035
0.0301229
-0.0328827
0.0375345
-0.0294487
0.0442931
-0.0263044
0.0504951
-0.0237198
0.0562223
-0.0215632
0.0615662
-0.0198693
0.066597
-0.0185574
0.0714019
-0.0176417
0.0760414
-0.0169756
0.0805626
-0.0165874
0.0850022
-0.016304
0.0893419
-0.0159668
0.0934676
-0.0150011
0.0972797
-0.0136032
0.100797
-0.0124057
0.104038
-0.0112299
0.10702
-0.0101582
0.10976
-0.00914322
0.112249
-0.00828791
0.11455
-0.00742144
0.116657
-0.00660927
0.118581
-0.00588359
0.120343
-0.0051818
0.121887
-0.00438941
0.12307
-0.00293829
0.123597
-0.000406476
0.121645
0.0103503
0.114937
0.0343355
-0.0881228
0.0954227
-0.0324471
0.102481
-0.0324126
0.110056
-0.0318175
0.116455
-0.027011
0.122376
-0.0241296
0.127624
-0.0197509
0.131966
-0.0147466
0.135378
-0.0100002
0.137965
-0.00473459
0.139557
0.000390302
0.140269
0.0056203
0.140098
0.0111985
0.139205
0.0170562
0.137656
0.023655
0.136131
0.0313078
0.135464
0.040885
0.134925
0.0541715
0.130594
0.070752
0.117931
0.0855662
0.0968171
0.0902155
0.0715733
0.0817947
0.0478071
0.0639909
0.0296896
0.0440481
0.0191072
0.0229639
0.0149816
-0.00230031
0.0134073
-0.0141256
0.0120822
-0.00416389
0.0151908
-0.0117175
0.025378
-0.0535893
0.0386648
-0.0750637
0.0477926
-0.0550167
0.047923
-0.00926079
0.0380227
0.0522214
0.0171703
0.123246
-0.0074893
0.141952
-0.0131256
0.0430187
0.00654674
-0.078855
0.0344961
-0.116285
0.0690173
-0.139551
-0.0806233
-0.0349758
-0.0724709
-0.0381378
-0.0621836
-0.0477026
-0.0514646
-0.0515228
-0.0400274
-0.055604
-0.0278635
-0.0594613
-0.0156675
-0.0603657
-0.00418566
-0.0579424
0.00648368
-0.0544742
0.0163484
-0.0505016
0.025262
-0.0456215
0.0333261
-0.0409465
0.040722
-0.0368449
0.0475097
-0.0330894
0.0537851
-0.0299942
0.0596431
-0.0274177
0.0651463
-0.0253704
0.0703633
-0.0237698
0.0753649
-0.0226399
0.0802091
-0.0218144
0.0849386
-0.0213152
0.0895781
-0.0209421
0.0941188
-0.0205179
0.0984606
-0.0193581
0.102498
-0.017665
0.106238
-0.0161616
0.109693
-0.0146953
0.112885
-0.0133431
0.115829
-0.0120736
0.118506
-0.0109762
0.120982
-0.00988925
0.123267
-0.00888125
0.125367
-0.0079808
0.127292
-0.00709664
0.129015
-0.00614031
0.130371
-0.00430585
0.131081
-0.0012033
0.129408
0.011894
0.123212
0.0398865
-0.0881469
0.0958205
-0.0401208
0.103393
-0.0399852
0.111441
-0.0398778
0.118277
-0.033864
0.124535
-0.0304174
0.130263
-0.0254896
0.134939
-0.0194273
0.138808
-0.0138695
0.141759
-0.00767394
0.143813
-0.00164888
0.145009
0.00443821
0.145274
0.0109436
0.144717
0.0176204
0.143334
0.0250419
0.141234
0.0334098
0.139344
0.0427737
0.138729
0.0547849
0.138272
0.0712053
0.133023
0.0908118
0.118385
0.104847
0.0952493
0.104918
0.0692503
0.0899711
0.0466899
0.0665908
0.0313077
0.0383371
0.022779
0.00621746
0.0182315
-0.00959597
0.0154923
-0.00144279
0.0176072
-0.0137676
0.0265096
-0.0624201
0.0387262
-0.0872647
0.0469409
-0.063167
0.0460039
-0.00824701
0.0349662
0.0632901
0.0153095
0.142976
-0.00565173
0.163072
-0.00892877
0.0464873
0.0117145
-0.0990836
0.0413939
-0.145697
0.0775324
-0.173693
-0.0802503
-0.0428569
-0.0717477
-0.0466235
-0.0609007
-0.0585245
-0.0496605
-0.0627469
-0.0377383
-0.0675176
-0.0251013
-0.0720959
-0.0125012
-0.0729741
-0.000763291
-0.0696926
0.0100514
-0.0652989
0.0199883
-0.0604453
0.0289134
-0.0545498
0.0369535
-0.0489868
0.0443304
-0.0442212
0.0511248
-0.0398807
0.0574449
-0.0363112
0.0633879
-0.033355
0.0690132
-0.0309898
0.0743887
-0.0291365
0.0795674
-0.0278099
0.0846004
-0.0268374
0.0895278
-0.0262336
0.0943692
-0.0257761
0.0991113
-0.0252556
0.103683
-0.0239301
0.107954
-0.0219391
0.111913
-0.0201278
0.115595
-0.018384
0.118997
-0.0167538
0.122144
-0.0152233
0.125018
-0.013872
0.12768
-0.0125654
0.130134
-0.011349
0.13239
-0.010252
0.134481
-0.00919158
0.136341
-0.00800052
0.137839
-0.00579567
0.138667
-0.00200469
0.137282
0.013408
0.131635
0.0457464
-0.0887861
0.0969567
-0.0483102
0.104898
-0.0479272
0.113487
-0.0484854
0.120762
-0.0411656
0.127453
-0.03712
0.133514
-0.0315705
0.138584
-0.0245027
0.142726
-0.0180024
0.146039
-0.0109736
0.148417
-0.00400973
0.149914
0.00295515
0.150599
0.0102691
0.150454
0.017771
0.149503
0.0259968
0.147746
0.0351678
0.145259
0.0452606
0.143251
0.0567917
0.142968
0.0714871
0.142085
0.0916926
0.13447
0.112459
0.116564
0.122819
0.0914081
0.115121
0.0659832
0.092031
0.0459005
0.058472
0.0324085
0.0197987
0.0241776
-0.00129554
0.0195196
0.00325222
0.0200939
-0.0142357
0.0272244
-0.0694801
0.0380704
-0.0982423
0.0452523
-0.0704524
0.0431924
-0.00625202
0.0308976
0.0755333
0.0118793
0.162006
-0.00529051
0.180129
-0.00548463
0.0464277
0.0160893
-0.120827
0.0473329
-0.177045
0.0851475
-0.210809
-0.0804099
-0.0512083
-0.0714536
-0.0555665
-0.0600142
-0.0699458
-0.0481969
-0.0745419
-0.0357195
-0.0799848
-0.0224835
-0.085334
-0.00936954
-0.086096
0.0027544
-0.0818285
0.0138219
-0.0763762
0.0239381
-0.0705691
0.0329296
-0.0635436
0.040986
-0.0570447
0.0483611
-0.0515935
0.0551531
-0.0466708
0.0614919
-0.0426448
0.0674931
-0.0393529
0.0732141
-0.0367045
0.0787146
-0.034633
0.0840492
-0.0331375
0.0892577
-0.0320422
0.0943719
-0.0313415
0.0994069
-0.0308119
0.104362
-0.0302118
0.109145
-0.0287274
0.113655
-0.0264626
0.117858
-0.0243536
0.121763
-0.0222995
0.125389
-0.0203895
0.128744
-0.0185696
0.131823
-0.0169672
0.13467
-0.0154025
0.137304
-0.0139719
0.139738
-0.0126784
0.141974
-0.011418
0.143991
-0.0100381
0.145618
-0.00743876
0.146557
-0.00303442
0.14545
0.0143887
0.140336
0.0501945
-0.0898244
0.0985233
-0.0569689
0.106978
-0.0563938
0.116149
-0.0576712
0.123826
-0.0488564
0.130931
-0.0442536
0.137391
-0.0380355
0.142775
-0.0298876
0.147317
-0.0225366
0.150869
-0.0145093
0.153558
-0.00668121
0.155419
0.00110917
0.156394
0.00930392
0.156544
0.0176254
0.155945
0.0265977
0.154605
0.0365069
0.1524
0.0474643
0.149648
0.0595398
0.147966
0.0731672
0.148021
0.091634
0.145539
0.114935
0.134149
0.134199
0.112663
0.136593
0.0865442
0.118136
0.062567
0.0824378
0.0439785
0.0383704
0.0314651
0.0111947
0.0243245
0.0103757
0.0228393
-0.0127075
0.0276894
-0.0742698
0.0367984
-0.107319
0.0427604
-0.0763469
0.0394192
-0.00284211
0.0257797
0.0891973
0.00725506
0.180589
-0.00597422
0.193504
-0.00271574
0.0433788
0.0197226
-0.142861
0.0523467
-0.209401
0.0918763
-0.248908
-0.0809976
-0.06004
-0.0715706
-0.0649767
-0.0594202
-0.0820725
-0.0469449
-0.0870052
-0.033818
-0.0931028
-0.0199332
-0.0992184
-0.00621049
-0.0998269
0.00639523
-0.0944441
0.0178037
-0.0877941
0.028155
-0.0809261
0.0372917
-0.0726833
0.0454069
-0.0651597
0.0528016
-0.0589862
0.0595974
-0.0534631
0.0659517
-0.0489946
0.0719953
-0.0453905
0.0777822
-0.042485
0.0833847
-0.0402273
0.0888477
-0.0385924
0.0942115
-0.0373966
0.0994951
-0.0366172
0.104723
-0.0360318
0.109883
-0.035367
0.114893
-0.0337347
0.119639
-0.0312091
0.124081
-0.0288
0.128226
-0.0264511
0.132084
-0.0242567
0.135659
-0.0221499
0.138943
-0.0202704
0.141993
-0.0184711
0.144813
-0.0168083
0.147422
-0.0153032
0.149827
-0.0138278
0.151985
-0.0121959
0.153747
-0.0091929
0.154809
-0.00406499
0.153979
0.0153508
0.149427
0.0549377
-0.0913775
0.100549
-0.0661699
0.109538
-0.0653895
0.119289
-0.0674378
0.12743
-0.0570221
0.135032
-0.0518622
0.141913
-0.0449312
0.147679
-0.0356498
0.152464
-0.0273092
0.156367
-0.0183953
0.159309
-0.00960669
0.161379
-0.000945192
0.162618
0.00807257
0.163065
0.017183
0.162723
0.0269394
0.161686
0.0375432
0.159948
0.0492003
0.157282
0.0622036
0.15446
0.0759855
0.153447
0.0926428
0.153268
0.115106
0.147678
0.139779
0.131617
0.152644
0.107149
0.142606
0.0807272
0.108891
0.0573667
0.0617912
0.0402335
0.0283852
0.0301009
0.0205486
0.0260578
-0.00856333
0.0281124
-0.0762511
0.0350378
-0.114348
0.0394964
-0.0808913
0.0346387
0.00192701
0.019639
0.104143
0.00182852
0.198401
-0.00727963
0.2025
-0.000525941
0.0363469
0.0226849
-0.166229
0.0565368
-0.243438
0.0977612
-0.28997
-0.0819521
-0.0694553
-0.0719801
-0.0749395
-0.059107
-0.0949385
-0.0459619
-0.100132
-0.0320927
-0.106964
-0.0174668
-0.113844
-0.00302098
-0.114279
0.0101327
-0.107607
0.0219697
-0.0996401
0.0326454
-0.0916076
0.0419785
-0.0820203
0.050209
-0.0733897
0.05766
-0.0664364
0.064479
-0.0602777
0.070844
-0.0553561
0.0769104
-0.0514508
0.082746
-0.0483161
0.0884283
-0.0459027
0.0939974
-0.044157
0.0994983
-0.0428906
0.104949
-0.0420652
0.110354
-0.0414316
0.11571
-0.0407258
0.120947
-0.0389759
0.12594
-0.0362157
0.130619
-0.0334928
0.135007
-0.0308587
0.139094
-0.0283537
0.142904
-0.025966
0.146411
-0.0237924
0.149665
-0.0217288
0.152685
-0.0198143
0.155473
-0.018084
0.15805
-0.0163916
0.160375
-0.0145369
0.162288
-0.0111259
0.163467
-0.00533815
0.162938
0.015764
0.15896
0.0583272
-0.09322
0.10301
-0.0759688
0.11256
-0.0749461
0.122968
-0.077864
0.131596
-0.0656621
0.13959
-0.0598785
0.146937
-0.0522762
0.153051
-0.0417616
0.158176
-0.0324209
0.162359
-0.0225609
0.165554
-0.0127852
0.167872
-0.00325114
0.169391
0.00656115
0.170049
0.0165278
0.169913
0.0270739
0.169125
0.0383297
0.167656
0.0506667
0.165395
0.0644619
0.162248
0.0791299
0.159826
0.0950622
0.159584
0.115342
0.157774
0.141581
0.147544
0.162863
0.12668
0.163459
0.0996188
0.135944
0.0723719
0.0890226
0.0506214
0.0501127
0.037057
0.0340972
0.0299864
-0.00146169
0.0287158
-0.074932
0.0329532
-0.118543
0.0355363
-0.0834079
0.0288881
0.00864216
0.0125969
0.120456
-0.00398962
0.215035
-0.00881601
0.20746
0.00117027
0.0265838
0.0249948
-0.189647
0.0598765
-0.278047
0.10279
-0.331766
-0.083284
-0.0793934
-0.0727287
-0.0855003
-0.0590416
-0.108606
-0.0450966
-0.114064
-0.0304799
-0.12157
-0.0149952
-0.129329
0.000195136
-0.129474
0.0139903
-0.121411
0.0263276
-0.111984
0.0374063
-0.102692
0.0469996
-0.0916152
0.0553777
-0.0817687
0.0629229
-0.0739788
0.0697892
-0.0671415
0.0761755
-0.0617369
0.0822603
-0.0575312
0.0881384
-0.0541869
0.0938738
-0.0516321
0.0995402
-0.0498149
0.105159
-0.048503
0.110746
-0.0476436
0.116326
-0.0470048
0.121883
-0.0462758
0.12734
-0.0444303
0.132566
-0.0414381
0.137497
-0.0384276
0.142125
-0.0354891
0.14646
-0.0326982
0.150502
-0.0300112
0.154237
-0.0275468
0.157714
-0.0252262
0.160933
-0.0230545
0.16392
-0.0210888
0.166681
-0.0191579
0.16917
-0.0170247
0.171234
-0.0131819
0.172567
-0.00664044
0.172359
0.0160945
0.168959
0.0618747
-0.0954761
0.105856
-0.0863406
0.115966
-0.0850677
0.127041
-0.0889541
0.136246
-0.074886
0.144775
-0.0684101
0.152568
-0.0600788
0.159001
-0.0481868
0.164487
-0.0378927
0.168958
-0.0270173
0.172415
-0.0162266
0.174939
-0.00576575
0.176614
0.00489269
0.177509
0.0156334
0.177642
0.0269403
0.17698
0.0389881
0.175704
0.0519399
0.173772
0.0663896
0.170896
0.0820022
0.167563
0.0983889
0.166008
0.116888
0.165709
0.141866
0.160335
0.168225
0.144219
0.17957
0.118419
0.161758
0.0886628
0.118811
0.0626864
0.0761241
0.0453726
0.051438
0.0348575
0.00913824
0.0297759
-0.0697888
0.0307648
-0.119591
0.0310212
-0.0837599
0.0222967
0.0172622
0.00494328
0.137723
-0.00975554
0.229729
-0.0103054
0.207899
0.00245642
0.0135379
0.0267
-0.214039
0.0624486
-0.31405
0.107007
-0.376286
-0.084894
-0.0899911
-0.0737301
-0.0966523
-0.0591929
-0.123134
-0.0444183
-0.128821
-0.0289234
-0.137058
-0.0125737
-0.145676
0.00346986
-0.145522
0.0179739
-0.135921
0.0308993
-0.124917
0.0424098
-0.114208
0.0523311
-0.10154
0.0609208
-0.0903593
0.068602
-0.0816589
0.0755297
-0.0740665
0.0819502
-0.0681535
0.0880647
-0.0636411
0.0939692
-0.0600861
0.0997622
-0.0574199
0.105492
-0.0555391
0.111211
-0.0542172
0.116938
-0.0533651
0.122675
-0.0527398
0.12842
-0.0520176
0.134098
-0.0501125
0.139563
-0.0469089
0.144738
-0.0436168
0.149622
-0.0403849
0.154202
-0.0372956
0.158492
-0.0343106
0.162464
-0.0315412
0.166159
-0.0289289
0.169603
-0.0264974
0.17279
-0.0242622
0.175743
-0.022099
0.178407
-0.0196938
0.180648
-0.0154497
0.182137
-0.00821667
0.182264
0.0158417
0.179489
0.0641229
-0.0980228
0.109075
-0.097412
0.119831
-0.0958308
0.131613
-0.100754
0.141349
-0.0846314
0.150393
-0.0774707
0.158679
-0.0683603
0.165576
-0.0550791
0.171369
-0.043674
0.176125
-0.0317577
0.179813
-0.0199016
0.182583
-0.00852671
0.184496
0.00298309
0.185535
0.0145957
0.185818
0.0266556
0.185368
0.0394352
0.184213
0.0530925
0.182451
0.0681494
0.179894
0.0845567
0.176345
0.101935
0.173414
0.119814
0.172765
0.142508
0.170597
0.170386
0.159434
0.190727
0.136485
0.184701
0.105838
0.149446
0.0763637
0.105579
0.0551667
0.0726209
0.0408852
0.0234431
0.0315824
-0.0604462
0.0287496
-0.116711
0.026174
-0.0811203
0.0151003
0.0284019
-0.00290636
0.155756
-0.0150548
0.241918
-0.0115711
0.204537
0.00339998
-0.00120707
0.0278387
-0.238064
0.0642208
-0.350158
0.110424
-0.421593
-0.0867976
-0.101208
-0.0749381
-0.10851
-0.0595235
-0.138532
-0.0438495
-0.144481
-0.0274451
-0.153451
-0.0101526
-0.162968
0.00682838
-0.162505
0.0220956
-0.151193
0.0356548
-0.138482
0.0476958
-0.126253
0.0580023
-0.11185
0.0668501
-0.0992068
0.0746797
-0.0894884
0.0817161
-0.0810993
0.0881908
-0.0746255
0.0943363
-0.069781
0.100269
-0.0660141
0.106097
-0.0632416
0.111895
-0.061332
0.117699
-0.0600124
0.123537
-0.0591977
0.129422
-0.0586167
0.135357
-0.0579478
0.141252
-0.0560017
0.146954
-0.052608
0.152378
-0.0490392
0.15751
-0.0455194
0.162349
-0.0421382
0.166879
-0.0388455
0.171102
-0.0357778
0.175034
-0.032884
0.178697
-0.030185
0.182105
-0.0276925
0.185251
-0.0252534
0.188107
-0.0225482
0.190528
-0.017864
0.192192
-0.00985184
0.192698
0.0154354
0.190575
0.0663253
-0.100935
0.112626
-0.109101
0.124059
-0.107282
0.1366
-0.113309
0.146969
-0.0950155
0.156588
-0.0870891
0.165368
-0.0771474
0.172683
-0.0623854
0.178857
-0.0498346
0.183879
-0.036766
0.187821
-0.0238331
0.190788
-0.0114858
0.192869
0.000903559
0.194129
0.0133363
0.194585
0.0261962
0.194271
0.0397459
0.193207
0.0541531
0.191532
0.0698213
0.189234
0.0868496
0.185878
0.105284
0.182017
0.123664
0.180053
0.144458
0.17913
0.171294
0.172231
0.197617
0.153262
0.203671
0.12345
0.179268
0.0915203
0.137518
0.0665106
0.0976387
0.0482444
0.0417583
0.0344476
-0.046598
0.0272313
-0.109537
0.0212839
-0.0752545
0.00768919
0.0418773
-0.0104305
0.173752
-0.0195375
0.250979
-0.0124993
0.197398
0.00406594
-0.0180377
0.0284646
-0.262607
0.0652838
-0.387268
0.113127
-0.46957
-0.0889528
-0.11319
-0.0764343
-0.121018
-0.0600383
-0.154914
-0.0434287
-0.161076
-0.0260161
-0.170855
-0.00767483
-0.181303
0.0102487
-0.18043
0.0263798
-0.167329
0.0406395
-0.152747
0.0532599
-0.13888
0.0639928
-0.122587
0.0731399
-0.108357
0.081195
-0.0975428
0.0883554
-0.0882593
0.0949106
-0.0811769
0.101104
-0.0759711
0.107066
-0.0719718
0.112924
-0.0690952
0.118767
-0.0671693
0.124649
-0.0658904
0.130591
-0.0651347
0.13662
-0.0646417
0.142723
-0.0640488
0.148834
-0.0621126
0.15477
-0.0585474
0.160441
-0.0547185
0.165828
-0.0509159
0.170915
-0.0472389
0.175707
-0.043649
0.180182
-0.0402741
0.184361
-0.0370812
0.188266
-0.0340907
0.191893
-0.0313168
0.195257
-0.0285941
0.198308
-0.0256007
0.200938
-0.0205173
0.202802
-0.0118043
0.203674
0.0144457
0.202257
0.067365
-0.104115
0.116538
-0.121536
0.128701
-0.119451
0.142051
-0.126676
0.153068
-0.106039
0.163254
-0.0972898
0.172579
-0.0864652
0.180352
-0.0701526
0.186877
-0.0563498
0.19223
-0.042106
0.196413
-0.0280057
0.199626
-0.0146929
0.201884
-0.00135163
0.2033
0.0119195
0.203898
0.0255967
0.203672
0.0399686
0.202751
0.0550724
0.201116
0.0714534
0.198903
0.0890606
0.195842
0.108342
0.191687
0.127815
0.188291
0.147849
0.187104
0.172476
0.183211
0.201507
0.168619
0.21826
0.14112
0.20676
0.107955
0.170668
0.079447
0.126136
0.057115
0.0641086
0.0386685
-0.0281166
0.0265669
-0.0973851
0.0167153
-0.065341
0.000586997
0.0580728
-0.0170508
0.191424
-0.022944
0.256911
-0.0130275
0.187587
0.00452764
-0.0353736
0.0286363
-0.286292
0.0657088
-0.424081
0.115227
-0.518418
-0.0914475
-0.125854
-0.0780858
-0.134372
-0.0607112
-0.172275
-0.0430725
-0.178699
-0.0246333
-0.189284
-0.00521678
-0.200719
0.0138014
-0.199448
0.0308325
-0.184364
0.0458812
-0.167801
0.0591304
-0.152136
0.0703537
-0.133813
0.0798441
-0.11785
0.0881411
-0.105839
0.0954632
-0.0955806
0.102106
-0.0878166
0.108361
-0.0822227
0.114367
-0.077973
0.120256
-0.07498
0.126144
-0.0730508
0.132091
-0.0718322
0.138129
-0.0711655
0.144279
-0.0707865
0.150557
-0.0703203
0.156873
-0.0684238
0.163038
-0.0647067
0.168954
-0.0606323
0.174597
-0.0565555
0.17995
-0.0525936
0.185003
-0.0487033
0.189739
-0.0450228
0.19417
-0.0415318
0.198315
-0.0382636
0.202182
-0.0352107
0.20577
-0.0321962
0.209035
-0.0288666
0.211879
-0.0233559
0.213968
-0.0138723
0.215265
0.0132183
0.214566
0.0680734
-0.107599
0.120837
-0.134778
0.133738
-0.132369
0.147949
-0.140899
0.159622
-0.117725
0.170441
-0.108106
0.180382
-0.0964123
0.188587
-0.0783508
0.19552
-0.0632682
0.201243
-0.0478187
0.2057
-0.0324525
0.209103
-0.0180903
0.211549
-0.00379601
0.213064
0.0104043
0.2138
0.0248582
0.213744
0.0400212
0.212906
0.0559074
0.211326
0.0730293
0.209115
0.0912672
0.206179
0.11127
0.202082
0.131902
0.197657
0.15226
0.195253
0.174866
0.192889
0.203858
0.182446
0.228695
0.158458
0.230742
0.125436
0.20368
0.0939788
0.157579
0.0676331
0.090475
0.0445151
-0.00497613
0.0271381
-0.0800285
0.0129237
-0.0512031
-0.00558641
0.0764506
-0.0222268
0.207915
-0.0250681
0.259638
-0.0131008
0.175517
0.00488234
-0.053601
0.0284929
-0.310013
0.0656571
-0.461599
0.116982
-0.570017
-0.0941469
-0.139303
-0.08004
-0.14847
-0.0615493
-0.19075
-0.0428428
-0.197394
-0.0232847
-0.208834
-0.00267633
-0.221319
0.0174438
-0.21957
0.0354829
-0.202407
0.0513375
-0.183663
0.0653001
-0.166104
0.0770448
-0.145565
0.0869428
-0.12775
0.0955302
-0.11443
0.103042
-0.103091
0.109819
-0.0945922
0.116143
-0.0885423
0.122194
-0.0840216
0.128131
-0.080911
0.134057
-0.0789741
0.140059
-0.0778281
0.146177
-0.0772797
0.152452
-0.0770567
0.15889
-0.0767554
0.165408
-0.07494
0.171805
-0.0711054
0.177964
-0.0667939
0.183861
-0.0624589
0.189472
-0.0582121
0.194793
-0.0540343
0.199791
-0.0500382
0.204488
-0.0462465
0.208895
-0.0426808
0.213002
-0.0393121
0.216834
-0.0360077
0.22033
-0.0323455
0.223408
-0.0264591
0.225749
-0.0162836
0.227463
0.0113838
0.227551
0.0677293
-0.111435
0.125498
-0.14885
0.139187
-0.146063
0.154286
-0.156011
0.166666
-0.13011
0.178185
-0.119639
0.188732
-0.106952
0.197443
-0.0870539
0.204807
-0.0706248
0.210858
-0.0538569
0.215571
-0.0371558
0.219194
-0.0217061
0.221819
-0.00641898
0.223542
0.00868198
0.224368
0.0240294
0.224399
0.0399894
0.223642
0.0566615
0.222108
0.0745615
0.219861
0.0935107
0.21703
0.114098
0.213111
0.135816
0.208124
0.157244
0.204305
0.178682
0.20212
0.206043
0.195098
0.235714
0.175283
0.250552
0.143699
0.235254
0.110077
0.191196
0.0798939
0.120673
0.0521805
0.0227742
0.0293186
-0.0571139
0.0104282
-0.0322483
-0.0101887
0.097133
-0.025522
0.223294
-0.025799
0.259953
-0.0126675
0.162478
0.00525038
-0.0713196
0.0281575
-0.332488
0.0653651
-0.498593
0.118702
-0.622888
-0.0971224
-0.153613
-0.0821389
-0.163445
-0.0625285
-0.210351
-0.04268
-0.217227
-0.021934
-0.22957
-7.81438e-05
-0.243175
0.0212491
-0.240897
0.0403345
-0.221495
0.0570955
-0.200431
0.0718065
-0.180821
0.0841478
-0.157911
0.0944781
-0.138083
0.103376
-0.123329
0.111127
-0.11084
0.11804
-0.101503
0.124474
-0.0949728
0.130578
-0.0901229
0.136559
-0.0868863
0.142526
-0.0849376
0.148584
-0.0838792
0.15478
-0.0834716
0.161161
-0.0834304
0.167755
-0.0833446
0.174473
-0.0816503
0.181094
-0.0777224
0.187491
-0.0731849
0.193642
-0.0686072
0.199519
-0.0640844
0.205109
-0.059626
0.210387
-0.0553225
0.215354
-0.0512326
0.220018
-0.0473703
0.224395
-0.0437211
0.228473
-0.0401069
0.232218
-0.0360988
0.235551
-0.0297912
0.238165
-0.0188874
0.240345
0.00922959
0.241257
0.0667514
-0.115549
0.13046
-0.163766
0.145018
-0.160637
0.161085
-0.172088
0.174227
-0.143263
0.186468
-0.131876
0.197632
-0.118122
0.206901
-0.0963163
0.21472
-0.0784289
0.221114
-0.0602385
0.226128
-0.0421588
0.230028
-0.0255999
0.232811
-0.00919807
0.234661
0.00683169
0.235617
0.023072
0.235715
0.0398882
0.235037
0.057337
0.233538
0.0760552
0.231281
0.0957631
0.228371
0.117
0.224639
0.139538
0.219522
0.162348
0.214472
0.183719
0.211554
0.208946
0.206878
0.240377
0.191511
0.265902
0.162514
0.264228
0.127659
0.226026
0.0938945
0.154433
0.0617457
0.0549243
0.0334349
-0.0288172
0.00974374
-0.00863223
-0.012649
0.119409
-0.0266307
0.237095
-0.0250789
0.25825
-0.0116446
0.148876
0.00577041
-0.0889178
0.0278493
-0.354665
0.0651431
-0.536212
0.120655
-0.678725
-0.100359
-0.1688
-0.0844804
-0.179317
-0.0636664
-0.231149
-0.0425861
-0.238299
-0.0205953
-0.251551
0.00256972
-0.266331
0.0252106
-0.263539
0.0453971
-0.241689
0.0631361
-0.218177
0.07865
-0.196345
0.0916223
-0.170889
0.102429
-0.148895
0.11171
-0.13261
0.119706
-0.118837
0.126806
-0.1086
0.133354
-0.101519
0.139546
-0.0963093
0.145574
-0.0929117
0.15159
-0.0909476
0.157694
-0.0899791
0.163962
-0.0897342
0.170448
-0.0899128
0.177192
-0.0900839
0.184105
-0.0885603
0.190939
-0.0845547
0.197579
-0.0798257
0.203982
-0.075011
0.210128
-0.0702345
0.215987
-0.0654909
0.221545
-0.0608925
0.226791
-0.0564919
0.231738
-0.0523285
0.23638
-0.048362
0.240722
-0.0444202
0.244735
-0.0400864
0.24834
-0.0333982
0.251271
-0.0218848
0.253928
0.00647302
0.255698
0.0648913
-0.120018
0.135853
-0.179609
0.151334
-0.176119
0.168341
-0.189108
0.182361
-0.157288
0.195283
-0.144812
0.207182
-0.130014
0.216987
-0.106113
0.225284
-0.0867165
0.232089
-0.0670288
0.23743
-0.0474877
0.241505
-0.0296678
0.244516
-0.0122053
0.246476
0.0048719
0.247539
0.022008
0.247758
0.0396667
0.247101
0.0579924
0.245665
0.0774874
0.24339
0.0980351
0.240419
0.119967
0.23672
0.143233
0.231706
0.167358
0.225893
0.189532
0.221751
0.213088
0.218268
0.243859
0.207049
0.277118
0.181634
0.289638
0.146623
0.261036
0.109657
0.191416
0.0732456
0.0913722
0.03972
0.00476584
0.0113097
0.0198461
-0.0125136
0.143301
-0.025362
0.25
-0.0228551
0.255787
-0.00990835
0.13601
0.00660887
-0.105257
0.0277722
-0.375406
0.0652553
-0.573548
0.123135
-0.736333
-0.103901
-0.184915
-0.0870452
-0.196163
-0.0649359
-0.253252
-0.0425907
-0.260628
-0.0192463
-0.274886
0.00532042
-0.290901
0.0292902
-0.287508
0.0507147
-0.263119
0.0694653
-0.236933
0.0858671
-0.212753
0.0995295
-0.184555
0.110871
-0.16024
0.120547
-0.142286
0.12884
-0.127129
0.136141
-0.115898
0.142826
-0.108201
0.149119
-0.102598
0.155206
-0.0989951
0.161269
-0.0970048
0.167428
-0.0961337
0.173767
-0.096067
0.18035
-0.0964912
0.18724
-0.0969662
0.194339
-0.0956543
0.201394
-0.0916028
0.208265
-0.0866923
0.214916
-0.0816557
0.221322
-0.0766368
0.227462
-0.0716281
0.233299
-0.066736
0.238838
-0.0620419
0.244063
-0.0575809
0.248996
-0.0533251
0.253627
-0.0490822
0.257909
-0.0443845
0.261828
-0.0373292
0.265093
-0.0251517
0.268292
0.0032514
0.270948
0.0621064
-0.124802
0.141619
-0.196429
0.15801
-0.192524
0.176147
-0.207252
0.190934
-0.172086
0.204724
-0.158597
0.217317
-0.142613
0.227775
-0.116562
0.236534
-0.0954601
0.243753
-0.0742334
0.249403
-0.0531263
0.253792
-0.0340472
0.256955
-0.0153656
0.259111
0.0027173
0.260275
0.0208411
0.260553
0.0393875
0.259954
0.058587
0.258526
0.078911
0.256231
0.100323
0.253143
0.123047
0.249401
0.146964
0.244572
0.172176
0.238372
0.195719
0.232994
0.218452
0.229724
0.247112
0.222022
0.284799
0.200864
0.310768
0.166856
0.295015
0.127308
0.230944
0.0867583
0.131913
0.0482761
0.043225
0.0154941
0.052577
-0.00945427
0.168136
-0.0216028
0.261985
-0.0190276
0.253002
-0.00727789
0.124065
0.00795663
-0.12067
0.0281523
-0.395586
0.0659533
-0.611625
0.126272
-0.797014
-0.107704
-0.202008
-0.0898241
-0.214039
-0.0663533
-0.276705
-0.0426792
-0.284295
-0.0179156
-0.299643
0.008146
-0.316953
0.0335796
-0.312948
0.0562618
-0.285808
0.0761147