/*--------------------------------*- C++ -*----------------------------------*\
  =========                 |
  \\      /  F ield         | OpenFOAM: The Open Source CFD Toolbox
   \\    /   O peration     | Website:  https://openfoam.org
    \\  /    A nd           | Version:  9
     \\/     M anipulation  |
\*---------------------------------------------------------------------------*/
FoamFile
{
    format      ascii;
    class       volVectorField;
    location    "0.4";
    object      U;
}
// * * * * * * * * * * * * * * * * * * * * * * * * * * * * * * * * * * * * * //

dimensions      [0 1 -1 0 0 0 0];

internalField   nonuniform List<vector> 
1935
(
(-0.0360576 0.0191549 0)
(-0.062019 0.00784721 0)
(-0.0616295 -0.00640697 0)
(-0.0446281 -0.0135007 0)
(-0.0200782 -0.0161093 0)
(0.00796336 -0.0165134 0)
(0.0368841 -0.0160576 0)
(0.0652122 -0.0151806 0)
(0.0924379 -0.0142055 0)
(0.118377 -0.0132819 0)
(0.143072 -0.0124692 0)
(0.166668 -0.0117857 0)
(0.189341 -0.0112275 0)
(0.211256 -0.0107795 0)
(0.232558 -0.0104218 0)
(0.253361 -0.0101336 0)
(0.27375 -0.00989529 0)
(0.293777 -0.00968874 0)
(0.313468 -0.00949767 0)
(0.332819 -0.009307 0)
(0.351798 -0.00910226 0)
(0.370349 -0.00886898 0)
(0.388386 -0.00859218 0)
(0.405791 -0.00825557 0)
(0.422412 -0.00784069 0)
(0.438056 -0.00732553 0)
(0.452478 -0.00668263 0)
(0.465369 -0.00587549 0)
(0.476327 -0.00485321 0)
(0.484842 -0.00352693 0)
(0.49017 -0.00173667 0)
(0.491517 0.000904452 0)
(0.486356 0.00451254 0)
(0.473397 0.00911638 0)
(0.451164 0.0147622 0)
(0.417915 0.0214262 0)
(0.371965 0.0288948 0)
(0.312153 0.0366172 0)
(0.238424 0.0436034 0)
(0.152358 0.0486046 0)
(0.0577096 0.0507583 0)
(-0.0397925 0.0534313 0)
(-0.157521 0.0396939 0)
(-0.2326 -0.0062914 0)
(-0.0322855 0.0472482 0)
(-0.03173 0.0157094 0)
(-0.0224339 -0.00967983 0)
(-0.00568766 -0.0237908 0)
(0.0168112 -0.0303773 0)
(0.0421164 -0.0327349 0)
(0.0685094 -0.0329539 0)
(0.0949052 -0.0321219 0)
(0.120776 -0.0308726 0)
(0.145896 -0.0295427 0)
(0.170219 -0.0282985 0)
(0.193792 -0.0272112 0)
(0.216704 -0.0262978 0)
(0.239054 -0.0255464 0)
(0.260929 -0.0249308 0)
(0.282404 -0.0244189 0)
(0.30353 -0.0239774 0)
(0.324335 -0.0235737 0)
(0.344824 -0.0231762 0)
(0.36498 -0.0227544 0)
(0.384761 -0.0222774 0)
(0.4041 -0.0217136 0)
(0.422905 -0.0210288 0)
(0.441053 -0.0201852 0)
(0.458391 -0.0191389 0)
(0.474722 -0.0178369 0)
(0.489806 -0.016214 0)
(0.503344 -0.0141858 0)
(0.514968 -0.0116389 0)
(0.524238 -0.00840682 0)
(0.530614 -0.00425113 0)
(0.533605 0.00122252 0)
(0.533102 0.00833804 0)
(0.527943 0.0172774 0)
(0.516688 0.0282337 0)
(0.497653 0.0413455 0)
(0.468854 0.0564973 0)
(0.42801 0.0730563 0)
(0.372802 0.0896266 0)
(0.301562 0.104019 0)
(0.21464 0.113739 0)
(0.119351 0.118254 0)
(0.0176512 0.106614 0)
(-0.0623181 0.0518618 0)
(-0.0140041 0.0628696 0)
(-0.00648772 0.0107985 0)
(0.00441179 -0.0208192 0)
(0.0216481 -0.038318 0)
(0.0427866 -0.0470642 0)
(0.0661672 -0.0505876 0)
(0.090574 -0.0512056 0)
(0.115214 -0.0503207 0)
(0.13965 -0.0487733 0)
(0.16367 -0.0470398 0)
(0.187196 -0.045371 0)
(0.210228 -0.0438832 0)
(0.232808 -0.0426134 0)
(0.254987 -0.041554 0)
(0.276818 -0.0406737 0)
(0.298341 -0.0399299 0)
(0.319582 -0.039276 0)
(0.340551 -0.0386647 0)
(0.361237 -0.0380493 0)
(0.381608 -0.0373832 0)
(0.401616 -0.0366194 0)
(0.421185 -0.0357085 0)
(0.440221 -0.0345969 0)
(0.458597 -0.0332246 0)
(0.476161 -0.0315222 0)
(0.492719 -0.0294066 0)
(0.508039 -0.0267768 0)
(0.521837 -0.0235066 0)
(0.533773 -0.0194361 0)
(0.543446 -0.0143589 0)
(0.550387 -0.00801629 0)
(0.554072 -7.47348e-05 0)
(0.554077 0.00990579 0)
(0.549771 0.022353 0)
(0.540355 0.0376562 0)
(0.524903 0.056125 0)
(0.502374 0.0778087 0)
(0.471563 0.102203 0)
(0.431069 0.127866 0)
(0.379407 0.15207 0)
(0.31557 0.170695 0)
(0.242532 0.178658 0)
(0.164654 0.164195 0)
(0.0877992 0.103361 0)
(0.00128689 0.0630026 0)
(0.0107581 0.00427211 0)
(0.0243468 -0.0322355 0)
(0.042539 -0.0529231 0)
(0.0632431 -0.0635695 0)
(0.0854336 -0.0680908 0)
(0.108382 -0.0690956 0)
(0.131592 -0.0682325 0)
(0.154769 -0.0665065 0)
(0.177753 -0.0645009 0)
(0.200472 -0.0625319 0)
(0.222906 -0.0607517 0)
(0.245064 -0.0592145 0)
(0.266965 -0.0579168 0)
(0.288632 -0.0568238 0)
(0.310079 -0.055885 0)
(0.331309 -0.0550428 0)
(0.352315 -0.0542376 0)
(0.373071 -0.0534091 0)
(0.393536 -0.0524969 0)
(0.413653 -0.0514386 0)
(0.433343 -0.0501685 0)
(0.452505 -0.0486148 0)
(0.471017 -0.0466963 0)
(0.488724 -0.0443196 0)
(0.505442 -0.0413735 0)
(0.520947 -0.0377245 0)
(0.534973 -0.0332096 0)
(0.547207 -0.0276281 0)
(0.557287 -0.0207331 0)
(0.564798 -0.0122246 0)
(0.56928 -0.00173697 0)
(0.570284 0.011182 0)
(0.567316 0.0270124 0)
(0.559833 0.0462058 0)
(0.547263 0.0691217 0)
(0.529022 0.0958692 0)
(0.50449 0.126042 0)
(0.47295 0.158321 0)
(0.433492 0.189963 0)
(0.385028 0.216198 0)
(0.327501 0.229722 0)
(0.262186 0.21746 0)
(0.187963 0.159175 0)
(0.00873847 0.053202 0)
(0.0214952 -0.00580266 0)
(0.0387025 -0.0453676 0)
(0.0584932 -0.0679885 0)
(0.0793846 -0.0797662 0)
(0.100942 -0.0849048 0)
(0.122881 -0.0861927 0)
(0.14499 -0.0854045 0)
(0.167134 -0.0836289 0)
(0.18923 -0.0815059 0)
(0.211229 -0.0793887 0)
(0.233108 -0.0774521 0)
(0.254858 -0.0757614 0)
(0.276476 -0.0743173 0)
(0.29796 -0.0730831 0)
(0.319302 -0.0720027 0)
(0.340489 -0.0710109 0)
(0.361496 -0.0700383 0)
(0.382286 -0.0690141 0)
(0.402809 -0.0678658 0)
(0.423002 -0.0665181 0)
(0.442781 -0.0648905 0)
(0.462045 -0.0628945 0)
(0.480673 -0.06043 0)
(0.498514 -0.0573814 0)
(0.515392 -0.0536126 0)
(0.531095 -0.0489618 0)
(0.545378 -0.0432342 0)
(0.557955 -0.0361964 0)
(0.5685 -0.0275686 0)
(0.576653 -0.0170204 0)
(0.58202 -0.00416456 0)
(0.584205 0.011457 0)
(0.58281 0.030335 0)
(0.577436 0.0529294 0)
(0.5677 0.0795947 0)
(0.553237 0.110437 0)
(0.533672 0.145081 0)
(0.508537 0.182315 0)
(0.477116 0.219572 0)
(0.438228 0.252178 0)
(0.390363 0.272401 0)
(0.331523 0.267386 0)
(0.257908 0.218778 0)
(0.0106763 0.0403748 0)
(0.0278967 -0.019781 0)
(0.0489557 -0.0605724 0)
(0.0705733 -0.0838138 0)
(0.091944 -0.0958787 0)
(0.113198 -0.101177 0)
(0.134444 -0.102561 0)
(0.155723 -0.101825 0)
(0.177048 -0.100066 0)
(0.198412 -0.0979313 0)
(0.2198 -0.0957825 0)
(0.241194 -0.0938008 0)
(0.262577 -0.0920553 0)
(0.283933 -0.0905475 0)
(0.305241 -0.089239 0)
(0.326478 -0.0880698 0)
(0.347613 -0.0869685 0)
(0.36861 -0.0858588 0)
(0.389423 -0.0846612 0)
(0.409992 -0.0832937 0)
(0.430249 -0.0816696 0)
(0.45011 -0.079696 0)
(0.469472 -0.0772695 0)
(0.488217 -0.0742731 0)
(0.506201 -0.0705721 0)
(0.523256 -0.0660084 0)
(0.539187 -0.060396 0)
(0.553768 -0.0535142 0)
(0.566739 -0.0451034 0)
(0.577814 -0.0348598 0)
(0.586682 -0.0224327 0)
(0.593012 -0.00742212 0)
(0.596476 0.0106276 0)
(0.596762 0.0321977 0)
(0.593568 0.0577352 0)
(0.586624 0.0875781 0)
(0.575675 0.121828 0)
(0.560437 0.16015 0)
(0.540499 0.201474 0)
(0.51513 0.243528 0)
(0.48297 0.282116 0)
(0.441675 0.310074 0)
(0.387166 0.31568 0)
(0.312923 0.281973 0)
(0.0115163 0.0259597 0)
(0.032638 -0.0369273 0)
(0.0567243 -0.0777321 0)
(0.0798504 -0.100455 0)
(0.101664 -0.112073 0)
(0.122734 -0.117122 0)
(0.143473 -0.118414 0)
(0.164113 -0.117677 0)
(0.184784 -0.115958 0)
(0.205547 -0.113877 0)
(0.226417 -0.111777 0)
(0.24739 -0.109834 0)
(0.268446 -0.10811 0)
(0.28956 -0.106606 0)
(0.310701 -0.10528 0)
(0.331832 -0.104067 0)
(0.352912 -0.102892 0)
(0.373892 -0.101673 0)
(0.394718 -0.100324 0)
(0.415325 -0.0987539 0)
(0.43564 -0.0968684 0)
(0.455577 -0.0945631 0)
(0.475037 -0.091722 0)
(0.493904 -0.0882137 0)
(0.512041 -0.0838864 0)
(0.529293 -0.0785638 0)
(0.54548 -0.0720393 0)
(0.560394 -0.0640716 0)
(0.573807 -0.0543807 0)
(0.585466 -0.0426463 0)
(0.595108 -0.0285069 0)
(0.602461 -0.0115585 0)
(0.607263 0.00864584 0)
(0.609282 0.0325704 0)
(0.608295 0.0606453 0)
(0.60411 0.0931957 0)
(0.596535 0.130333 0)
(0.585327 0.171794 0)
(0.570075 0.216693 0)
(0.549998 0.263148 0)
(0.523571 0.307655 0)
(0.48793 0.344156 0)
(0.437692 0.36274 0)
(0.363821 0.348741 0)
(0.0129785 0.00964269 0)
(0.0369991 -0.0565017 0)
(0.063112 -0.0963298 0)
(0.0872028 -0.11768 0)
(0.109249 -0.128319 0)
(0.130125 -0.132821 0)
(0.150438 -0.133874 0)
(0.170551 -0.133085 0)
(0.190677 -0.131416 0)
(0.210925 -0.129429 0)
(0.231343 -0.127438 0)
(0.251935 -0.125595 0)
(0.272686 -0.123956 0)
(0.293567 -0.12251 0)
(0.314539 -0.121214 0)
(0.335555 -0.119997 0)
(0.356566 -0.118781 0)
(0.377514 -0.117479 0)
(0.398338 -0.115999 0)
(0.418968 -0.114244 0)
(0.439328 -0.112113 0)
(0.459333 -0.109493 0)
(0.478884 -0.106256 0)
(0.497872 -0.102259 0)
(0.516168 -0.0973368 0)
(0.533628 -0.0912967 0)
(0.550088 -0.0839158 0)
(0.565363 -0.0749359 0)
(0.579251 -0.0640623 0)
(0.591532 -0.0509649 0)
(0.601985 -0.035279 0)
(0.610395 -0.0166062 0)
(0.616563 0.00548584 0)
(0.620331 0.0314418 0)
(0.62155 0.0616762 0)
(0.620095 0.096509 0)
(0.615832 0.136077 0)
(0.608556 0.180207 0)
(0.597883 0.228229 0)
(0.58304 0.278698 0)
(0.56248 0.328928 0)
(0.533151 0.374301 0)
(0.489047 0.407332 0)
(0.419043 0.41682 0)
(0.0149124 -0.00883427 0)
(0.041227 -0.0778516 0)
(0.068658 -0.115814 0)
(0.0932476 -0.135197 0)
(0.115312 -0.144515 0)
(0.135934 -0.148277 0)
(0.155841 -0.148992 0)
(0.175477 -0.148113 0)
(0.195109 -0.146497 0)
(0.214886 -0.144635 0)
(0.234877 -0.142795 0)
(0.255101 -0.141104 0)
(0.275547 -0.139598 0)
(0.296184 -0.138259 0)
(0.316967 -0.137035 0)
(0.337846 -0.135851 0)
(0.358762 -0.134625 0)
(0.379652 -0.133264 0)
(0.400447 -0.131674 0)
(0.421075 -0.129754 0)
(0.441458 -0.127395 0)
(0.461509 -0.124478 0)
(0.481135 -0.120867 0)
(0.500231 -0.116409 0)
(0.518677 -0.110927 0)
(0.536343 -0.104215 0)
(0.55308 -0.0960388 0)
(0.568727 -0.0861252 0)
(0.583104 -0.0741692 0)
(0.596023 -0.0598363 0)
(0.6073 -0.042767 0)
(0.61677 -0.0225768 0)
(0.624297 0.00114437 0)
(0.629795 0.0288185 0)
(0.633189 0.0608459 0)
(0.634427 0.0975462 0)
(0.633442 0.139089 0)
(0.630097 0.185394 0)
(0.624094 0.236003 0)
(0.614789 0.289899 0)
(0.600842 0.34523 0)
(0.579498 0.398938 0)
(0.545056 0.446388 0)
(0.485361 0.481365 0)
(0.0170471 -0.0295529 0)
(0.0453032 -0.100539 0)
(0.0736169 -0.135805 0)
(0.0984226 -0.152792 0)
(0.120368 -0.160567 0)
(0.140683 -0.163466 0)
(0.160173 -0.163775 0)
(0.179336 -0.16278 0)
(0.19848 -0.161218 0)
(0.217788 -0.159503 0)
(0.237346 -0.157851 0)
(0.257188 -0.156353 0)
(0.277305 -0.155024 0)
(0.297666 -0.153834 0)
(0.318226 -0.15272 0)
(0.338929 -0.151604 0)
(0.35971 -0.150397 0)
(0.380502 -0.149003 0)
(0.401229 -0.147325 0)
(0.421817 -0.145259 0)
(0.442184 -0.142691 0)
(0.462248 -0.139499 0)
(0.481917 -0.135539 0)
(0.501092 -0.13065 0)
(0.519664 -0.124646 0)
(0.537515 -0.117314 0)
(0.554515 -0.108407 0)
(0.570523 -0.0976411 0)
(0.585383 -0.084704 0)
(0.59893 -0.0692611 0)
(0.611015 -0.0509653 0)
(0.621517 -0.0294558 0)
(0.630358 -0.00435374 0)
(0.637524 0.0247344 0)
(0.643023 0.0581919 0)
(0.646885 0.096339 0)
(0.649127 0.139374 0)
(0.649715 0.187296 0)
(0.648499 0.239814 0)
(0.645092 0.296258 0)
(0.638624 0.355465 0)
(0.627198 0.41574 0)
(0.606706 0.475145 0)
(0.566665 0.533283 0)
(0.0191398 -0.0526385 0)
(0.0491261 -0.124542 0)
(0.078179 -0.156304 0)
(0.103114 -0.170524 0)
(0.124892 -0.17657 0)
(0.144868 -0.178499 0)
(0.163912 -0.178341 0)
(0.182573 -0.177204 0)
(0.2012 -0.175698 0)
(0.220005 -0.174151 0)
(0.239095 -0.172719 0)
(0.258513 -0.171452 0)
(0.278255 -0.170342 0)
(0.298293 -0.16934 0)
(0.318577 -0.168375 0)
(0.339051 -0.16736 0)
(0.359644 -0.166201 0)
(0.380283 -0.1648 0)
(0.40089 -0.163055 0)
(0.421384 -0.160862 0)
(0.441686 -0.158105 0)
(0.461712 -0.154658 0)
(0.481377 -0.150373 0)
(0.500587 -0.145082 0)
(0.519242 -0.138593 0)
(0.537238 -0.130688 0)
(0.554466 -0.121112 0)
(0.570806 -0.109572 0)
(0.586121 -0.0957475 0)
(0.600271 -0.0793065 0)
(0.613126 -0.059922 0)
(0.624606 -0.0372685 0)
(0.634689 -0.0110098 0)
(0.643431 0.0192089 0)
(0.650934 0.0537462 0)
(0.657319 0.0929198 0)
(0.662706 0.136947 0)
(0.667184 0.185876 0)
(0.670792 0.239512 0)
(0.673472 0.297379 0)
(0.674993 0.358709 0)
(0.674742 0.422578 0)
(0.671488 0.488621 0)
(0.662229 0.559931 0)
(0.0209977 -0.0781223 0)
(0.0526481 -0.149927 0)
(0.0825223 -0.177402 0)
(0.107641 -0.188476 0)
(0.129265 -0.192589 0)
(0.148879 -0.193421 0)
(0.167435 -0.192725 0)
(0.185543 -0.191415 0)
(0.203602 -0.189966 0)
(0.221852 -0.188608 0)
(0.240422 -0.187427 0)
(0.259362 -0.186431 0)
(0.278673 -0.18558 0)
(0.298327 -0.184806 0)
(0.318275 -0.184028 0)
(0.338456 -0.18315 0)
(0.358798 -0.182071 0)
(0.379222 -0.180687 0)
(0.399643 -0.178898 0)
(0.41998 -0.176598 0)
(0.440152 -0.173671 0)
(0.460077 -0.16999 0)
(0.479674 -0.165403 0)
(0.498857 -0.159739 0)
(0.517533 -0.152803 0)
(0.535613 -0.144374 0)
(0.55301 -0.134194 0)
(0.569628 -0.121961 0)
(0.585354 -0.107342 0)
(0.600057 -0.0900088 0)
(0.613624 -0.069661 0)
(0.626001 -0.0460221 0)
(0.637222 -0.0188148 0)
(0.647408 0.0122619 0)
(0.656766 0.0475309 0)
(0.665515 0.087302 0)
(0.673888 0.131801 0)
(0.682097 0.181092 0)
(0.690359 0.235 0)
(0.698918 0.293073 0)
(0.708093 0.35459 0)
(0.718342 0.418686 0)
(0.730559 0.484897 0)
(0.746525 0.555096 0)
(0.0224832 -0.105743 0)
(0.0559035 -0.176663 0)
(0.0868432 -0.199123 0)
(0.112267 -0.206636 0)
(0.133757 -0.208561 0)
(0.152978 -0.208141 0)
(0.170992 -0.206819 0)
(0.18849 -0.2053 0)
(0.205926 -0.203907 0)
(0.223571 -0.202757 0)
(0.241571 -0.201861 0)
(0.259983 -0.201171 0)
(0.27881 -0.200615 0)
(0.298022 -0.200107 0)
(0.317571 -0.199551 0)
(0.337395 -0.198843 0)
(0.357418 -0.197872 0)
(0.377556 -0.196532 0)
(0.397721 -0.19472 0)
(0.417826 -0.192332 0)
(0.437791 -0.189255 0)
(0.457537 -0.185361 0)
(0.476986 -0.180499 0)
(0.496059 -0.174494 0)
(0.514672 -0.167148 0)
(0.532746 -0.158248 0)
(0.550221 -0.147538 0)
(0.567034 -0.134703 0)
(0.583093 -0.119393 0)
(0.598274 -0.101275 0)
(0.612466 -0.0800829 0)
(0.625632 -0.0556051 0)
(0.637845 -0.0276431 0)
(0.649298 0.0040298 0)
(0.660296 0.0396869 0)
(0.67117 0.0796266 0)
(0.682257 0.124079 0)
(0.693878 0.173103 0)
(0.706371 0.226491 0)
(0.72017 0.283704 0)
(0.735896 0.343853 0)
(0.754478 0.405751 0)
(0.777397 0.468105 0)
(0.807085 0.530117 0)
(0.0234711 -0.135356 0)
(0.059082 -0.204926 0)
(0.0914033 -0.221621 0)
(0.117191 -0.225041 0)
(0.138502 -0.224447 0)
(0.157267 -0.222584 0)
(0.174682 -0.220539 0)
(0.191525 -0.218777 0)
(0.208303 -0.217444 0)
(0.225315 -0.216525 0)
(0.242718 -0.215944 0)
(0.260571 -0.215595 0)
(0.278875 -0.215367 0)
(0.297599 -0.215157 0)
(0.316693 -0.214856 0)
(0.336098 -0.214348 0)
(0.355736 -0.213514 0)
(0.375517 -0.21224 0)
(0.395348 -0.210424 0)
(0.415139 -0.207966 0)
(0.434809 -0.204757 0)
(0.454282 -0.200671 0)
(0.473486 -0.195558 0)
(0.492348 -0.18924 0)
(0.510785 -0.181521 0)
(0.528733 -0.172202 0)
(0.546159 -0.161037 0)
(0.563042 -0.147701 0)
(0.579321 -0.131811 0)
(0.594875 -0.113017 0)
(0.609583 -0.0910899 0)
(0.62341 -0.0658988 0)
(0.636456 -0.0373497 0)
(0.648975 -0.0053177 0)
(0.661364 0.0304017 0)
(0.674069 0.0700964 0)
(0.68752 0.11401 0)
(0.702119 0.162204 0)
(0.718262 0.214425 0)
(0.736442 0.270002 0)
(0.75736 0.327834 0)
(0.782004 0.386402 0)
(0.811727 0.443827 0)
(0.84842 0.497989 0)
(0.0236695 -0.166569 0)
(0.0626691 -0.235082 0)
(0.0965 -0.245012 0)
(0.122412 -0.243605 0)
(0.14335 -0.240123 0)
(0.161562 -0.236649 0)
(0.178346 -0.233816 0)
(0.194539 -0.231807 0)
(0.210683 -0.23056 0)
(0.227091 -0.229912 0)
(0.243917 -0.229689 0)
(0.261222 -0.22972 0)
(0.278999 -0.229857 0)
(0.297214 -0.22998 0)
(0.31582 -0.229968 0)
(0.334758 -0.229696 0)
(0.353953 -0.229029 0)
(0.373309 -0.227845 0)
(0.392728 -0.226043 0)
(0.412118 -0.223532 0)
(0.431398 -0.220207 0)
(0.450493 -0.215946 0)
(0.469339 -0.210603 0)
(0.487867 -0.203993 0)
(0.505994 -0.19592 0)
(0.52366 -0.186215 0)
(0.540865 -0.174659 0)
(0.557642 -0.160918 0)
(0.573974 -0.144558 0)
(0.589752 -0.125192 0)
(0.60484 -0.10262 0)
(0.619194 -0.0768113 0)
(0.632924 -0.0477982 0)
(0.646322 -0.0155912 0)
(0.65986 0.0199143 0)
(0.674091 0.058991 0)
(0.689525 0.101918 0)
(0.706613 0.148794 0)
(0.725751 0.199354 0)
(0.747395 0.252804 0)
(0.772187 0.307853 0)
(0.800994 0.362755 0)
(0.834884 0.415394 0)
(0.875104 0.463322 0)
(0.0229639 -0.199792 0)
(0.0678534 -0.267959 0)
(0.102335 -0.269297 0)
(0.12744 -0.262244 0)
(0.147603 -0.255669 0)
(0.165193 -0.25055 0)
(0.181419 -0.246946 0)
(0.197088 -0.244738 0)
(0.212738 -0.243637 0)
(0.228667 -0.243318 0)
(0.245022 -0.243509 0)
(0.261858 -0.243971 0)
(0.279161 -0.244517 0)
(0.296897 -0.245013 0)
(0.315019 -0.245329 0)
(0.333474 -0.245328 0)
(0.352189 -0.24486 0)
(0.371066 -0.243791 0)
(0.390005 -0.242023 0)
(0.408912 -0.239472 0)
(0.427709 -0.23604 0)
(0.446319 -0.231608 0)
(0.464684 -0.226038 0)
(0.48274 -0.219137 0)
(0.500401 -0.210704 0)
(0.517607 -0.200611 0)
(0.534382 -0.188686 0)
(0.550814 -0.174602 0)
(0.566952 -0.157862 0)
(0.582722 -0.13802 0)
(0.598 -0.114901 0)
(0.612747 -0.0885644 0)
(0.627067 -0.0591665 0)
(0.64124 -0.0268678 0)
(0.655772 0.00828507 0)
(0.671281 0.0465116 0)
(0.688339 0.0881431 0)
(0.707433 0.133339 0)
(0.72891 0.181894 0)
(0.753129 0.232939 0)
(0.7806 0.285049 0)
(0.812019 0.336327 0)
(0.848148 0.384617 0)
(0.889654 0.427512 0)
(0.0260054 -0.238212 0)
(0.0773176 -0.303218 0)
(0.108275 -0.293342 0)
(0.130627 -0.280721 0)
(0.149659 -0.271458 0)
(0.166788 -0.264852 0)
(0.182782 -0.260486 0)
(0.198284 -0.258035 0)
(0.213768 -0.257014 0)
(0.229499 -0.256937 0)
(0.24561 -0.257453 0)
(0.262154 -0.258251 0)
(0.279124 -0.259108 0)
(0.296487 -0.259884 0)
(0.314202 -0.260439 0)
(0.332213 -0.260631 0)
(0.350446 -0.260288 0)
(0.368814 -0.259265 0)
(0.387225 -0.257466 0)
(0.405592 -0.25482 0)
(0.423833 -0.251233 0)
(0.44187 -0.246595 0)
(0.459638 -0.240787 0)
(0.477069 -0.233608 0)
(0.494097 -0.224834 0)
(0.510674 -0.214402 0)
(0.526812 -0.202206 0)
(0.542603 -0.187963 0)
(0.558151 -0.171108 0)
(0.573497 -0.151097 0)
(0.588642 -0.127779 0)
(0.603634 -0.101299 0)
(0.618585 -0.0718911 0)
(0.633693 -0.0397868 0)
(0.649339 -0.00509626 0)
(0.666062 0.0323276 0)
(0.684449 0.0726921 0)
(0.705083 0.116148 0)
(0.728243 0.162636 0)
(0.754209 0.211221 0)
(0.783322 0.260433 0)
(0.816099 0.308304 0)
(0.853061 0.352786 0)
(0.894443 0.391698 0)
(0.0504074 -0.281544 0)
(0.0960122 -0.337998 0)
(0.111181 -0.313307 0)
(0.129145 -0.296742 0)
(0.147466 -0.285761 0)
(0.164824 -0.277896 0)
(0.181305 -0.272679 0)
(0.197303 -0.269785 0)
(0.213159 -0.268591 0)
(0.229121 -0.268491 0)
(0.245319 -0.269079 0)
(0.261817 -0.269977 0)
(0.278655 -0.270933 0)
(0.295817 -0.2718 0)
(0.313263 -0.272426 0)
(0.330917 -0.272663 0)
(0.348696 -0.272319 0)
(0.366544 -0.271239 0)
(0.38441 -0.269332 0)
(0.402218 -0.266539 0)
(0.419876 -0.26277 0)
(0.437311 -0.257925 0)
(0.454426 -0.251908 0)
(0.471093 -0.244505 0)
(0.487347 -0.235481 0)
(0.503235 -0.224849 0)
(0.518664 -0.212563 0)
(0.533534 -0.198362 0)
(0.547901 -0.181606 0)
(0.562098 -0.161705 0)
(0.576513 -0.138564 0)
(0.591438 -0.112407 0)
(0.607103 -0.0836003 0)
(0.623617 -0.0526016 0)
(0.641084 -0.0195823 0)
(0.659558 0.016165 0)
(0.679247 0.0550673 0)
(0.700933 0.0969989 0)
(0.724958 0.14181 0)
(0.751787 0.18823 0)
(0.781594 0.234866 0)
(0.814734 0.27966 0)
(0.851542 0.32086 0)
(0.891973 0.35663 0)
(0.131397 -0.341935 0)
(0.126465 -0.363671 0)
(0.104502 -0.321165 0)
(0.120985 -0.306794 0)
(0.140727 -0.295855 0)
(0.159634 -0.287321 0)
(0.177655 -0.281531 0)
(0.195002 -0.278309 0)
(0.211853 -0.276923 0)
(0.228504 -0.276696 0)
(0.245125 -0.277221 0)
(0.261808 -0.278066 0)
(0.278695 -0.278958 0)
(0.295806 -0.279759 0)
(0.313087 -0.280294 0)
(0.330437 -0.28042 0)
(0.347751 -0.279925 0)
(0.365039 -0.278651 0)
(0.382307 -0.276511 0)
(0.399487 -0.273454 0)
(0.416459 -0.269403 0)
(0.433167 -0.264268 0)
(0.449449 -0.257997 0)
(0.46504 -0.250378 0)
(0.480204 -0.241133 0)
(0.495165 -0.230405 0)
(0.509605 -0.218174 0)
(0.523048 -0.204191 0)
(0.535485 -0.187693 0)
(0.547768 -0.168111 0)
(0.560832 -0.145494 0)
(0.575447 -0.120141 0)
(0.592432 -0.092258 0)
(0.612006 -0.0619695 0)
(0.632946 -0.0302094 0)
(0.653665 0.00276924 0)
(0.674595 0.0378903 0)
(0.697242 0.0764157 0)
(0.721344 0.119195 0)
(0.747973 0.16392 0)
(0.777403 0.208664 0)
(0.809996 0.250949 0)
(0.845899 0.289457 0)
(0.884847 0.322716 0)
(0.292241 -0.447747 0)
(0.105722 -0.321543 0)
(0.084555 -0.312511 0)
(0.109735 -0.312334 0)
(0.131911 -0.302523 0)
(0.153535 -0.294336 0)
(0.174026 -0.289109 0)
(0.193324 -0.286589 0)
(0.211492 -0.286022 0)
(0.229034 -0.28677 0)
(0.246232 -0.288369 0)
(0.263255 -0.290418 0)
(0.280361 -0.292665 0)
(0.29759 -0.294824 0)
(0.314895 -0.296655 0)
(0.33217 -0.297904 0)
(0.349365 -0.298513 0)
(0.36657 -0.298487 0)
(0.38382 -0.297707 0)
(0.401044 -0.295909 0)
(0.418106 -0.292885 0)
(0.43489 -0.28838 0)
(0.450928 -0.281715 0)
(0.46591 -0.273168 0)
(0.480379 -0.263437 0)
(0.493551 -0.250931 0)
(0.505127 -0.235338 0)
(0.515171 -0.217585 0)
(0.524328 -0.198546 0)
(0.533702 -0.177798 0)
(0.544176 -0.154765 0)
(0.556338 -0.129285 0)
(0.570988 -0.101218 0)
(0.589771 -0.0702288 0)
(0.616618 -0.0378764 0)
(0.646979 -0.0062214 0)
(0.672148 0.0269765 0)
(0.695225 0.0620362 0)
(0.719085 0.0992016 0)
(0.745693 0.138843 0)
(0.773817 0.181489 0)
(0.805002 0.221868 0)
(0.839155 0.258554 0)
(0.876059 0.290027 0)
(-0.0256955 -0.671086 0)
(0.00320216 -0.261035 0)
(0.0457038 -0.304339 0)
(0.0780037 -0.362776 0)
(0.105747 -0.358989 0)
(0.135634 -0.347449 0)
(0.164421 -0.338843 0)
(0.19128 -0.333137 0)
(0.216355 -0.330007 0)
(0.240037 -0.328938 0)
(0.26265 -0.329194 0)
(0.284459 -0.330229 0)
(0.305679 -0.331603 0)
(0.326429 -0.332835 0)
(0.346814 -0.333568 0)
(0.366913 -0.333618 0)
(0.38681 -0.332979 0)
(0.406445 -0.331489 0)
(0.425812 -0.328945 0)
(0.444891 -0.325148 0)
(0.463621 -0.319974 0)
(0.481933 -0.313296 0)
(0.499888 -0.305147 0)
(0.517333 -0.295693 0)
(0.534072 -0.284839 0)
(0.550405 -0.272296 0)
(0.566114 -0.257505 0)
(0.580115 -0.240282 0)
(0.592669 -0.221834 0)
(0.604155 -0.202908 0)
(0.614781 -0.183253 0)
(0.624361 -0.16265 0)
(0.633087 -0.140984 0)
(0.643241 -0.118002 0)
(0.635003 -0.0834197 0)
(0.629635 -0.0292841 0)
(0.653511 0.0145303 0)
(0.688525 0.0528104 0)
(0.719904 0.0878288 0)
(0.745743 0.123372 0)
(0.773176 0.159217 0)
(0.803953 0.193339 0)
(0.835571 0.227706 0)
(0.869583 0.258024 0)
(0.905625 0.282858 0)
(-0.116732 -0.523489 0)
(-0.0411657 -0.350216 0)
(0.0224755 -0.356244 0)
(0.0650906 -0.373968 0)
(0.0988071 -0.368775 0)
(0.132592 -0.357489 0)
(0.165571 -0.347933 0)
(0.196772 -0.341206 0)
(0.226101 -0.33708 0)
(0.253735 -0.335042 0)
(0.279908 -0.334449 0)
(0.304903 -0.334751 0)
(0.328935 -0.335497 0)
(0.352157 -0.336275 0)
(0.374722 -0.33677 0)
(0.396772 -0.336767 0)
(0.418407 -0.336145 0)
(0.439652 -0.334774 0)
(0.460524 -0.332479 0)
(0.481019 -0.329052 0)
(0.501124 -0.324295 0)
(0.520818 -0.318023 0)
(0.540131 -0.310103 0)
(0.559012 -0.300579 0)
(0.577244 -0.289391 0)
(0.594726 -0.276049 0)
(0.611501 -0.260148 0)
(0.627483 -0.242032 0)
(0.64253 -0.222547 0)
(0.656218 -0.201905 0)
(0.668134 -0.179675 0)
(0.677914 -0.155409 0)
(0.684832 -0.128697 0)
(0.689961 -0.100159 0)
(0.69024 -0.0751056 0)
(0.696271 -0.0586856 0)
(0.690799 -0.0357472 0)
(0.679687 0.0163074 0)
(0.702154 0.0717602 0)
(0.737279 0.112887 0)
(0.779871 0.146266 0)
(0.809551 0.176087 0)
(0.838309 0.204336 0)
(0.870148 0.228625 0)
(0.902425 0.251358 0)
(-0.0583367 -0.443986 0)
(-0.0296734 -0.413055 0)
(0.0250417 -0.403917 0)
(0.0666931 -0.403951 0)
(0.102946 -0.396357 0)
(0.138461 -0.385196 0)
(0.173389 -0.374886 0)
(0.206953 -0.366855 0)
(0.238832 -0.361269 0)
(0.268986 -0.35782 0)
(0.297534 -0.355985 0)
(0.324688 -0.35524 0)
(0.350653 -0.355112 0)
(0.375618 -0.355189 0)
(0.399763 -0.355145 0)
(0.423247 -0.354735 0)
(0.446185 -0.353779 0)
(0.46864 -0.352112 0)
(0.490649 -0.34955 0)
(0.512232 -0.345881 0)
(0.533402 -0.340894 0)
(0.554159 -0.334386 0)
(0.574509 -0.3262 0)
(0.594401 -0.316274 0)
(0.613679 -0.304495 0)
(0.632232 -0.290506 0)
(0.65013 -0.274001 0)
(0.667453 -0.2552 0)
(0.684016 -0.234633 0)
(0.699341 -0.212407 0)
(0.712955 -0.18815 0)
(0.724475 -0.161384 0)
(0.733782 -0.131841 0)
(0.74094 -0.0994284 0)
(0.746517 -0.0670315 0)
(0.751177 -0.0386791 0)
(0.750472 -0.0171403 0)
(0.751456 -0.00425918 0)
(0.740877 0.0196736 0)
(0.732401 0.0688339 0)
(0.773707 0.12171 0)
(0.805396 0.162269 0)
(0.848552 0.190061 0)
(0.880142 0.211189 0)
(0.908293 0.229243 0)
(-0.0232853 -0.426653 0)
(-0.0068354 -0.445063 0)
(0.0355741 -0.442417 0)
(0.0750422 -0.437733 0)
(0.112264 -0.428473 0)
(0.148624 -0.41687 0)
(0.18437 -0.405764 0)
(0.219051 -0.396524 0)
(0.252316 -0.389531 0)
(0.284008 -0.384651 0)
(0.314129 -0.381481 0)
(0.3428 -0.379552 0)
(0.370187 -0.378409 0)
(0.396473 -0.377641 0)
(0.421839 -0.376905 0)
(0.446444 -0.375925 0)
(0.470409 -0.374478 0)
(0.493815 -0.372364 0)
(0.516711 -0.369377 0)
(0.539131 -0.365297 0)
(0.561096 -0.359905 0)
(0.582623 -0.352998 0)
(0.603715 -0.344409 0)
(0.624338 -0.334014 0)
(0.644402 -0.321673 0)
(0.663849 -0.307129 0)
(0.682739 -0.290172 0)
(0.701145 -0.270885 0)
(0.718932 -0.249537 0)
(0.735743 -0.226154 0)
(0.75124 -0.200464 0)
(0.765247 -0.172155 0)
(0.777776 -0.141076 0)
(0.789222 -0.107637 0)
(0.799601 -0.0731171 0)
(0.808514 -0.0394151 0)
(0.814211 -0.00798309 0)
(0.818145 0.0189868 0)
(0.818345 0.0344148 0)
(0.822264 0.0332076 0)
(0.81642 0.0539378 0)
(0.795921 0.123921 0)
(0.848799 0.163302 0)
(0.880865 0.196107 0)
(0.921129 0.215031 0)
(-0.0122525 -0.417957 0)
(0.00904422 -0.470997 0)
(0.047657 -0.476597 0)
(0.0861123 -0.471227 0)
(0.123566 -0.46093 0)
(0.160171 -0.448746 0)
(0.196103 -0.436934 0)
(0.231141 -0.426703 0)
(0.265005 -0.418502 0)
(0.297507 -0.412316 0)
(0.328581 -0.407858 0)
(0.358269 -0.404737 0)
(0.386682 -0.402535 0)
(0.413964 -0.400856 0)
(0.440273 -0.39935 0)
(0.465753 -0.397721 0)
(0.490524 -0.395715 0)
(0.514672 -0.393101 0)
(0.538253 -0.389653 0)
(0.56131 -0.38514 0)
(0.583875 -0.379334 0)
(0.605973 -0.372027 0)
(0.62762 -0.363035 0)
(0.64881 -0.352206 0)
(0.669508 -0.33938 0)
(0.689702 -0.324364 0)
(0.709445 -0.307002 0)
(0.728797 -0.287299 0)
(0.747678 -0.265353 0)
(0.765885 -0.241139 0)
(0.783241 -0.214478 0)
(0.799731 -0.18521 0)
(0.815498 -0.153384 0)
(0.830807 -0.119409 0)
(0.845729 -0.0843772 0)
(0.85984 -0.0494278 0)
(0.872303 -0.0153225 0)
(0.882957 0.0168682 0)
(0.89092 0.0437266 0)
(0.895952 0.0632364 0)
(0.896396 0.0786558 0)
(0.899495 0.0825787 0)
(0.910137 0.0824533 0)
(0.879747 0.157325 0)
(0.927485 0.186754 0)
(-0.00642985 -0.418923 0)
(0.0208139 -0.499321 0)
(0.059523 -0.510299 0)
(0.0976235 -0.504682 0)
(0.134832 -0.493512 0)
(0.171166 -0.48067 0)
(0.206806 -0.468185 0)
(0.241678 -0.457112 0)
(0.275589 -0.447887 0)
(0.308362 -0.440555 0)
(0.339894 -0.43492 0)
(0.370173 -0.430661 0)
(0.399253 -0.427411 0)
(0.427231 -0.4248 0)
(0.454226 -0.422483 0)
(0.480359 -0.420152 0)
(0.505736 -0.417533 0)
(0.530439 -0.414371 0)
(0.55453 -0.410422 0)
(0.578054 -0.405443 0)
(0.601054 -0.399203 0)
(0.623566 -0.391486 0)
(0.645622 -0.382099 0)
(0.667239 -0.370872 0)
(0.688428 -0.357645 0)
(0.709211 -0.342252 0)
(0.729647 -0.324565 0)
(0.749795 -0.304543 0)
(0.769641 -0.282196 0)
(0.789113 -0.257478 0)
(0.808182 -0.230289 0)
(0.826913 -0.200577 0)
(0.845497 -0.168487 0)
(0.86415 -0.134464 0)
(0.882944 -0.099297 0)
(0.901637 -0.0638915 0)
(0.91979 -0.0290694 0)
(0.937093 0.00417837 0)
(0.952327 0.0348301 0)
(0.964099 0.0627825 0)
(0.972535 0.088496 0)
(0.979209 0.107163 0)
(0.982889 0.116718 0)
(0.980984 0.125822 0)
(0.991326 0.117528 0)
(-0.000150396 -0.426942 0)
(0.0308848 -0.531268 0)
(0.0702806 -0.544625 0)
(0.107967 -0.538099 0)
(0.144481 -0.525937 0)
(0.180102 -0.512401 0)
(0.215073 -0.499307 0)
(0.24941 -0.487537 0)
(0.282981 -0.47747 0)
(0.315628 -0.469173 0)
(0.347234 -0.462506 0)
(0.377747 -0.457211 0)
(0.407171 -0.452971 0)
(0.435559 -0.449447 0)
(0.462991 -0.446309 0)
(0.489555 -0.443248 0)
(0.515337 -0.439975 0)
(0.54041 -0.436222 0)
(0.564833 -0.431731 0)
(0.588659 -0.426254 0)
(0.611933 -0.419554 0)
(0.634704 -0.411413 0)
(0.657015 -0.401634 0)
(0.678911 -0.390042 0)
(0.700429 -0.376478 0)
(0.721625 -0.360795 0)
(0.742572 -0.342877 0)
(0.763348 -0.322662 0)
(0.783999 -0.300119 0)
(0.804554 -0.275209 0)
(0.825083 -0.247885 0)
(0.845727 -0.218176 0)
(0.866679 -0.186261 0)
(0.888137 -0.152543 0)
(0.910172 -0.117658 0)
(0.932667 -0.0823371 0)
(0.955346 -0.0473225 0)
(0.977773 -0.0133842 0)
(0.999032 0.0187366 0)
(1.01803 0.0490242 0)
(1.03434 0.0781894 0)
(1.04768 0.104457 0)
(1.05665 0.127334 0)
(1.06209 0.147461 0)
(1.06522 0.15377 0)
(0.00643862 -0.441956 0)
(0.0398069 -0.565646 0)
(0.0791682 -0.57923 0)
(0.115968 -0.571119 0)
(0.151368 -0.557848 0)
(0.185933 -0.543644 0)
(0.219959 -0.530035 0)
(0.253499 -0.517711 0)
(0.286454 -0.506974 0)
(0.318682 -0.497885 0)
(0.350058 -0.49034 0)
(0.3805 -0.484131 0)
(0.40998 -0.478983 0)
(0.438508 -0.474593 0)
(0.466126 -0.470648 0)
(0.492892 -0.466845 0)
(0.518869 -0.462894 0)
(0.544116 -0.458519 0)
(0.568688 -0.453455 0)
(0.592638 -0.447452 0)
(0.616016 -0.440271 0)
(0.638878 -0.431696 0)
(0.661282 -0.42153 0)
(0.683289 -0.409599 0)
(0.704964 -0.39575 0)
(0.726385 -0.379849 0)
(0.747651 -0.361793 0)
(0.768865 -0.341513 0)
(0.790126 -0.318972 0)
(0.811538 -0.294142 0)
(0.833241 -0.267022 0)
(0.855416 -0.23768 0)
(0.878276 -0.20631 0)
(0.902005 -0.173261 0)
(0.926686 -0.139036 0)
(0.95225 -0.104221 0)
(0.978476 -0.0694175 0)
(1.00496 -0.0352309 0)
(1.03101 -0.00213727 0)
(1.05579 0.0297445 0)
(1.07878 0.0605213 0)
(1.09928 0.0895619 0)
(1.11605 0.117328 0)
(1.12914 0.143788 0)
(1.13796 0.164573 0)
(0.012698 -0.463665 0)
(0.0472965 -0.601287 0)
(0.085598 -0.613349 0)
(0.120913 -0.603283 0)
(0.154843 -0.588932 0)
(0.188109 -0.574164 0)
(0.220993 -0.560164 0)
(0.253545 -0.547431 0)
(0.285677 -0.53618 0)
(0.317254 -0.526457 0)
(0.348147 -0.518181 0)
(0.378257 -0.511178 0)
(0.407526 -0.505212 0)
(0.435934 -0.500011 0)
(0.46349 -0.495286 0)
(0.490224 -0.490746 0)
(0.516174 -0.486105 0)
(0.541388 -0.481086 0)
(0.565912 -0.475426 0)
(0.589796 -0.468874 0)
(0.613095 -0.461196 0)
(0.63587 -0.452178 0)
(0.65819 -0.441629 0)
(0.68013 -0.429382 0)
(0.701778 -0.415292 0)
(0.723234 -0.399241 0)
(0.744619 -0.381136 0)
(0.766068 -0.360919 0)
(0.787722 -0.338557 0)
(0.809739 -0.314043 0)
(0.832306 -0.287403 0)
(0.855634 -0.258731 0)
(0.879947 -0.228211 0)