/*--------------------------------*- C++ -*----------------------------------*\
  =========                 |
  \\      /  F ield         | OpenFOAM: The Open Source CFD Toolbox
   \\    /   O peration     | Website:  https://openfoam.org
    \\  /    A nd           | Version:  9
     \\/     M anipulation  |
\*---------------------------------------------------------------------------*/
FoamFile
{
    format      ascii;
    class       volScalarField;
    location    "0.22";
    object      k;
}
// * * * * * * * * * * * * * * * * * * * * * * * * * * * * * * * * * * * * * //

dimensions      [0 2 -2 0 0 0 0];

internalField   nonuniform List<scalar> 
12225
(
0.353921
0.335043
0.316966
0.300961
0.288125
0.278906
0.273297
0.271002
0.271564
0.274467
0.279197
0.285284
0.292322
0.299975
0.307987
0.316144
0.324489
0.336573
0.436864
0.448979
0.438084
0.43306
0.438786
0.453584
0.474797
0.499975
0.52713
0.554778
0.581888
0.607797
0.632126
0.654698
0.675618
0.694783
0.714259
0.729556
0.395187
0.410874
0.410631
0.405747
0.40201
0.400924
0.402614
0.406806
0.41308
0.420975
0.43006
0.439954
0.450345
0.460992
0.471752
0.482513
0.493558
0.504257
0.379641
0.38484
0.386546
0.38573
0.383905
0.382026
0.380567
0.379739
0.379605
0.380147
0.3813
0.382983
0.385114
0.387617
0.39044
0.393546
0.396955
0.400562
0.374976
0.3759
0.376239
0.375721
0.37457
0.373084
0.371496
0.369967
0.368593
0.367426
0.366484
0.365768
0.365267
0.364966
0.364853
0.364919
0.365157
0.365538
0.373488
0.372555
0.371759
0.370807
0.369631
0.368275
0.366809
0.3653
0.363803
0.362358
0.36099
0.359714
0.358537
0.357461
0.356488
0.355616
0.354844
0.354167
0.373012
0.371296
0.369813
0.368416
0.367025
0.36561
0.364168
0.362712
0.361257
0.359824
0.358425
0.357073
0.355774
0.354533
0.353354
0.35224
0.351191
0.350215
0.372865
0.370838
0.369004
0.367311
0.365711
0.364174
0.362679
0.361216
0.359783
0.358381
0.357015
0.355688
0.354402
0.353161
0.351967
0.350822
0.349728
0.348696
0.37282
0.37068
0.368691
0.366836
0.365095
0.363449
0.36188
0.360376
0.358928
0.357531
0.356182
0.35488
0.353622
0.352409
0.351241
0.350118
0.349041
0.348023
0.372806
0.370628
0.368578
0.366648
0.364829
0.36311
0.361482
0.359934
0.358457
0.357046
0.355693
0.354397
0.353153
0.351958
0.350812
0.349712
0.348659
0.347663
0.372801
0.370609
0.368537
0.366576
0.36472
0.362964
0.361299
0.359719
0.358216
0.356785
0.35542
0.354118
0.352874
0.351684
0.350547
0.349459
0.34842
0.34744
0.372799
0.370602
0.368522
0.36655
0.36468
0.362907
0.361225
0.359627
0.358109
0.356664
0.355289
0.353978
0.352729
0.351537
0.3504
0.349314
0.348279
0.347304
0.372797
0.370599
0.368514
0.366537
0.364661
0.36288
0.361188
0.359581
0.358053
0.3566
0.355216
0.353899
0.352644
0.351448
0.350308
0.349221
0.348185
0.34721
0.372796
0.370596
0.368509
0.366528
0.364649
0.362864
0.361168
0.359555
0.358022
0.356563
0.355174
0.353851
0.352592
0.351391
0.350247
0.349157
0.348118
0.347141
0.372795
0.370593
0.368505
0.366523
0.364641
0.362853
0.361154
0.359539
0.358003
0.35654
0.355148
0.353823
0.35256
0.351356
0.350209
0.349116
0.348074
0.347094
0.372794
0.370592
0.368502
0.366518
0.364634
0.362845
0.361145
0.359527
0.357989
0.356525
0.355131
0.353803
0.352538
0.351333
0.350184
0.349088
0.348044
0.347061
0.372794
0.37059
0.368499
0.366515
0.36463
0.362839
0.361137
0.359519
0.357979
0.356514
0.355118
0.353789
0.352523
0.351316
0.350165
0.349067
0.348021
0.347037
0.372794
0.370589
0.368498
0.366512
0.364627
0.362835
0.361132
0.359513
0.357972
0.356506
0.355109
0.353779
0.352511
0.351303
0.350151
0.349052
0.348005
0.347019
0.372793
0.370589
0.368497
0.366512
0.364626
0.362834
0.361131
0.359511
0.357969
0.356502
0.355105
0.353774
0.352506
0.351297
0.350144
0.349045
0.347997
0.34701
0.372794
0.37059
0.368498
0.366513
0.364628
0.362836
0.361133
0.359514
0.357973
0.356506
0.355109
0.353779
0.352511
0.351302
0.350149
0.349049
0.348001
0.347015
0.372794
0.370591
0.3685
0.366516
0.364632
0.362841
0.36114
0.359522
0.357982
0.356517
0.355122
0.353793
0.352526
0.351319
0.350167
0.349069
0.348023
0.347037
0.372795
0.370593
0.368504
0.366522
0.364641
0.362855
0.361158
0.359546
0.358012
0.356552
0.355163
0.353839
0.352578
0.351375
0.350228
0.349134
0.348091
0.347108
0.372796
0.370598
0.368518
0.366547
0.364681
0.362912
0.361235
0.359642
0.358127
0.356685
0.355311
0.354001
0.352751
0.351556
0.350415
0.349324
0.348282
0.347298
0.372804
0.370631
0.368592
0.366676
0.364872
0.363166
0.361548
0.360006
0.358532
0.357121
0.355767
0.354467
0.353219
0.35202
0.350868
0.349762
0.348701
0.347697
0.372856
0.370818
0.368973
0.367264
0.365645
0.364085
0.362567
0.361083
0.359631
0.358213
0.356833
0.355493
0.354196
0.352946
0.351744
0.35059
0.349486
0.348445
0.373166
0.37177
0.370579
0.369371
0.368049
0.366605
0.365072
0.363492
0.361905
0.360342
0.358826
0.357372
0.355991
0.354688
0.353468
0.352329
0.351272
0.350303
0.374797
0.375829
0.376175
0.375401
0.373834
0.371876
0.369792
0.36774
0.365814
0.364067
0.362524
0.361195
0.360075
0.359156
0.358424
0.357863
0.357457
0.35719
0.382729
0.39167
0.392375
0.388805
0.384384
0.380403
0.377247
0.374998
0.373621
0.373038
0.373153
0.373866
0.375083
0.376716
0.378685
0.380922
0.383364
0.385944
0.407499
0.414514
0.405423
0.395992
0.390555
0.389292
0.391456
0.396216
0.402837
0.410727
0.419434
0.42862
0.438029
0.447473
0.456817
0.465966
0.474875
0.483457
0.360554
0.347547
0.334933
0.322917
0.311965
0.302353
0.29419
0.287471
0.282115
0.278004
0.275002
0.272968
0.271767
0.271275
0.271378
0.271975
0.272977
0.274304
0.000797158
0.00436262
0.00717916
0.00971047
0.0124079
0.0155324
0.0191157
0.0232528
0.0280446
0.0331308
0.0384603
0.0440174
0.049762
0.0556504
0.0616402
0.0676916
0.0737666
0.0798281
0.0858396
0.0917647
0.0975662
0.103207
0.108647
0.113847
0.118764
0.123353
0.12757
0.131374
0.134731
0.137607
0.139945
0.14159
0.142115
0.140734
0.143863
0.144118
0.144449
0.144576
0.143518
0.145466
0.145251
0.14696
0.145301
0.145706
0.152125
0.15904
0.166237
0.173661
0.181293
0.189116
0.197122
0.205303
0.213655
0.222174
0.230857
0.239701
0.248703
0.257861
0.267171
0.27663
0.286235
0.295983
0.305868
0.315888
0.326036
0.336308
0.346699
0.357202
0.367812
0.378521
0.389323
0.400211
0.411177
0.422213
0.433312
0.444465
0.455663
0.466899
0.478162
0.489445
0.500738
0.512032
0.523318
0.534586
0.545827
0.557031
0.568189
0.579291
0.590328
0.601288
0.612163
0.622942
0.633614
0.644171
0.654601
0.664897
0.675055
0.685075
0.694972
0.704782
0.714473
0.72394
0.733187
0.74221
0.751
0.759549
0.767844
0.775875
0.783631
0.791102
0.798277
0.805146
0.811701
0.817933
0.823833
0.829392
0.834605
0.839463
0.843961
0.848092
0.851852
0.855236
0.85824
0.86086
0.863095
0.864941
0.866398
0.867465
0.868141
0.868427
0.868325
0.867836
0.866963
0.865709
0.86408
0.862078
0.859709
0.85698
0.853897
0.850467
0.846698
0.842598
0.838177
0.833444
0.828408
0.823081
0.817472
0.811594
0.805458
0.799076
0.79246
0.785622
0.778576
0.771335
0.763912
0.756317
0.74857
0.740679
0.732661
0.724529
0.716287
0.707977
0.69957
0.691146
0.682783
0.675564
0.671742
0.668316
0.664893
0.661454
0.657999
0.654528
0.651032
0.647491
0.643861
0.64004
0.635796
0.630529
0.622759
0.606009
0.00297831
0.0121286
0.0181845
0.023044
0.0275828
0.0320286
0.0366604
0.0416112
0.0469124
0.0525186
0.0583795
0.0644493
0.0706866
0.0770538
0.0835176
0.0900471
0.0966141
0.103191
0.109753
0.116274
0.12273
0.129098
0.135353
0.141474
0.147438
0.153224
0.158818
0.164215
0.169418
0.174445
0.17931
0.184021
0.188641
0.193705
0.198742
0.204339
0.210581
0.217249
0.224695
0.232515
0.241804
0.251569
0.26347
0.275592
0.287385
0.298961
0.310946
0.323342
0.336119
0.349253
0.362727
0.376533
0.390665
0.405119
0.419894
0.434985
0.450393
0.466114
0.482148
0.49849
0.51514
0.532093
0.549345
0.566892
0.58473
0.602853
0.621253
0.639926
0.658862
0.678053
0.697491
0.717166
0.737067
0.757184
0.777505
0.798018
0.81871
0.839568
0.860579
0.881729
0.903003
0.924387
0.945865
0.967423
0.989044
1.01071
1.03242
1.05413
1.07585
1.09755
1.11922
1.14084
1.16239
1.18386
1.20522
1.22646
1.24756
1.2685
1.28925
1.30972
1.32975
1.34949
1.36893
1.38808
1.4069
1.42538
1.44349
1.46122
1.47853
1.49542
1.51185
1.52781
1.54328
1.55824
1.57266
1.58654
1.59985
1.61258
1.62471
1.63622
1.64711
1.65736
1.66696
1.67589
1.68416
1.69174
1.69863
1.70482
1.71032
1.7151
1.71918
1.72255
1.72521
1.72716
1.72841
1.72895
1.72879
1.72793
1.72639
1.72418
1.72129
1.71775
1.71356
1.70874
1.7033
1.69726
1.69063
1.68344
1.67569
1.66741
1.65862
1.64934
1.63958
1.62938
1.61876
1.60772
1.59632
1.58456
1.57247
1.56008
1.54738
1.53448
1.52126
1.50794
1.49456
1.48133
1.46864
1.456
1.44332
1.43059
1.41784
1.40506
1.39227
1.37948
1.36666
1.35376
1.34066
1.32721
1.31218
1.29271
0.00591297
0.0199139
0.0280432
0.0342148
0.039672
0.0449561
0.0503298
0.0559248
0.0617899
0.067921
0.0742894
0.0808584
0.087592
0.0944579
0.101429
0.10848
0.115592
0.122747
0.129929
0.137125
0.144325
0.151518
0.1587
0.165867
0.17302
0.180165
0.187318
0.194507
0.201774
0.209172
0.216767
0.224627
0.232841
0.24154
0.250713
0.260492
0.270844
0.281766
0.29342
0.305752
0.318832
0.332588
0.347053
0.361975
0.377153
0.392596
0.408441
0.424727
0.441453
0.458609
0.476185
0.494175
0.512572
0.531371
0.550568
0.57016
0.590144
0.610516
0.631272
0.652409
0.673922
0.695806
0.718057
0.740668
0.763632
0.786942
0.810589
0.834565
0.85886
0.883462
0.908362
0.933545
0.959
0.984712
1.01067
1.03685
1.06324
1.08983
1.1166
1.14353
1.1706
1.1978
1.2251
1.25248
1.27994
1.30744
1.33496
1.3625
1.39002
1.41751
1.44494
1.4723
1.49957
1.52671
1.55373
1.58059
1.60727
1.63376
1.66004
1.68594
1.71149
1.73669
1.76153
1.78599
1.81003
1.83363
1.85676
1.8794
1.90151
1.92306
1.94404
1.96441
1.98414
2.00322
2.02161
2.0393
2.05626
2.07247
2.08791
2.10256
2.11641
2.12943
2.14161
2.15294
2.16341
2.173
2.1817
2.18951
2.19642
2.20242
2.20751
2.21169
2.21496
2.21732
2.21877
2.21932
2.21896
2.21772
2.2156
2.21261
2.20877
2.20408
2.19856
2.19223
2.18511
2.17722
2.16857
2.1592
2.14912
2.13836
2.12694
2.11489
2.10224
2.08901
2.07524
2.06094
2.04617
2.03093
2.01528
1.99924
1.98278
1.96612
1.94917
1.93202
1.91475
1.89748
1.88041
1.86336
1.84626
1.82912
1.81195
1.79478
1.77764
1.76054
1.74352
1.72659
1.70973
1.69302
1.6759
1.658
0.00930804
0.0271631
0.0369702
0.0441217
0.0503577
0.0562908
0.0622157
0.0682862
0.0745742
0.0811001
0.0878542
0.0948128
0.101948
0.109233
0.116646
0.124168
0.131785
0.139486
0.147264
0.155116
0.163041
0.171042
0.179125
0.187303
0.195591
0.204012
0.212596
0.221384
0.230425
0.239777
0.2495
0.259655
0.270304
0.281508
0.293304
0.305719
0.318763
0.332445
0.346796
0.361816
0.37749
0.393788
0.410673
0.428069
0.445894
0.464128
0.482802
0.501935
0.521535
0.541603
0.562137
0.583134
0.604592
0.626507
0.648878
0.6717
0.694973
0.718693
0.742856
0.76746
0.7925
0.817972
0.843869
0.870187
0.896917
0.924052
0.951584
0.979501
1.00779
1.03645
1.06546
1.0948
1.12447
1.15445
1.18471
1.21525
1.24604
1.27706
1.3083
1.33973
1.37134
1.4031
1.43498
1.46697
1.49904
1.53117
1.56334
1.59551
1.62768
1.65981
1.69188
1.72386
1.75574
1.78748
1.81907
1.85049
1.88171
1.9127
1.9434
1.9737
2.00362
2.03313
2.06222
2.09085
2.11899
2.14661
2.17367
2.20014
2.22598
2.25116
2.27566
2.29943
2.32245
2.34469
2.36611
2.3867
2.40643
2.42526
2.44318
2.46016
2.47619
2.49124
2.5053
2.51835
2.53038
2.54137
2.55131
2.56019
2.56801
2.57476
2.58044
2.58504
2.58856
2.59101
2.59239
2.59271
2.59197
2.59019
2.58737
2.58353
2.57868
2.57285
2.56604
2.55829
2.5496
2.54001
2.52954
2.51822
2.50607
2.49312
2.4794
2.46495
2.44979
2.43397
2.41751
2.40042
2.38281
2.36463
2.34597
2.32692
2.30745
2.28767
2.26759
2.24726
2.22675
2.20617
2.18563
2.16508
2.14448
2.12384
2.10319
2.08258
2.06203
2.04161
2.02137
2.0014
1.98179
1.96276
1.94412
1.92607
0.0126273
0.033716
0.0448899
0.0529639
0.0598985
0.0663869
0.0727635
0.0792092
0.0858199
0.0926382
0.0996738
0.106918
0.114353
0.121961
0.129725
0.137631
0.14567
0.153837
0.162133
0.17056
0.179125
0.187839
0.196719
0.205785
0.21506
0.224577
0.234372
0.244487
0.254972
0.265878
0.277256
0.289156
0.30162
0.314687
0.328384
0.342725
0.357718
0.373365
0.389668
0.406622
0.42421
0.44241
0.461194
0.480526
0.500369
0.520707
0.541541
0.562879
0.584726
0.607085
0.629958
0.653346
0.677249
0.701666
0.726597
0.752041
0.777998
0.804465
0.83144
0.858922
0.886907
0.915391
0.944369
0.973835
1.00378
1.03421
1.06509
1.09643
1.12822
1.16043
1.19307
1.2261
1.25952
1.29331
1.32744
1.36191
1.39668
1.43173
1.46705
1.5026
1.53837
1.57432
1.61044
1.64668
1.68304
1.71947
1.75595
1.79246
1.82896
1.86544
1.90184
1.93817
1.97437
2.01043
2.04632
2.08201
2.11747
2.15268
2.18749
2.22188
2.25584
2.28934
2.32235
2.35483
2.38674
2.41805
2.44872
2.4787
2.50796
2.53646
2.56417
2.59104
2.61705
2.64215
2.66632
2.68953
2.71174
2.73292
2.75306
2.77212
2.79007
2.80691
2.82261
2.83715
2.85051
2.86269
2.87367
2.88344
2.89199
2.89932
2.90542
2.91029
2.91393
2.91636
2.91756
2.91755
2.91634
2.91394
2.91037
2.90563
2.89975
2.89275
2.88465
2.87548
2.86525
2.85399
2.84175
2.82854
2.8144
2.79935
2.78344
2.76671
2.74916
2.73089
2.7119
2.69216
2.67189
2.65103
2.62964
2.60779
2.58549
2.56282
2.53981
2.51651
2.49299
2.46935
2.44565
2.4219
2.39811
2.37429
2.35048
2.32673
2.30311
2.27969
2.25656
2.23388
2.2118
2.19063
2.17033
2.1511
0.0156708
0.0393452
0.0517855
0.0607056
0.0682729
0.0752537
0.0820191
0.0887755
0.0956405
0.102677
0.109914
0.117358
0.125004
0.132842
0.140863
0.149059
0.157426
0.165964
0.174677
0.183575
0.192669
0.201977
0.21152
0.221323
0.231416
0.241833
0.252612
0.263795
0.275426
0.287549
0.300207
0.313437
0.327273
0.34174
0.356857
0.372634
0.389074
0.406178
0.423941
0.442358
0.461415
0.481098
0.501389
0.522268
0.543717
0.565725
0.588289
0.611411
0.635095
0.659346
0.684166
0.709558
0.735526
0.762072
0.789197
0.816902
0.84519
0.874059
0.903511
0.933544
0.964155
0.995344
1.0271
1.05943
1.09232
1.12577
1.15975
1.19428
1.22932
1.26488
1.30093
1.33745
1.37444
1.41186
1.44971
1.48794
1.52655
1.5655
1.60478
1.64434
1.68416
1.72421
1.76446
1.80488
1.84544
1.8861
1.92684
1.96761
2.00839
2.04915
2.08984
2.13045
2.17093
2.21125
2.25138
2.29128
2.33092
2.37025
2.40912
2.44752
2.48543
2.52283
2.55966
2.5959
2.63149
2.66639
2.70056
2.73395
2.76653
2.79824
2.82904
2.8589
2.88778
2.91564
2.94243
2.96814
2.99272
3.01614
3.03837
3.05938
3.07915
3.09766
3.11488
3.13079
3.14538
3.15864
3.17054
3.18109
3.19026
3.19807
3.20449
3.20954
3.21322
3.21552
3.21647
3.21605
3.2143
3.21122
3.20683
3.20114
3.19419
3.18598
3.17656
3.16593
3.15414
3.14121
3.12718
3.11209
3.09596
3.07882
3.06075
3.04177
3.02185
3.00116
2.97972
2.95752
2.93467
2.91119
2.88713
2.86256
2.8375
2.81202
2.78616
2.75998
2.73355
2.70694
2.68022
2.65342
2.62656
2.5997
2.57286
2.54613
2.51957
2.49329
2.46742
2.44214
2.41766
2.39431
2.37207
2.35107
0.0182581
0.0441371
0.0576631
0.0673211
0.0754435
0.0828542
0.0899539
0.0969691
0.104036
0.111235
0.118611
0.126186
0.133967
0.141955
0.150148
0.158546
0.167148
0.175961
0.184992
0.194254
0.203764
0.213542
0.223613
0.234005
0.24475
0.25588
0.267435
0.279451
0.291968
0.305023
0.318651
0.332884
0.347745
0.363256
0.37943
0.396275
0.413795
0.43199
0.450858
0.470394
0.49059
0.511439
0.532929
0.555052
0.577799
0.601163
0.625143
0.649742
0.674963
0.700812
0.727293
0.754413
0.782176
0.810587
0.839651
0.869372
0.899752
0.930796
0.962503
0.994876
1.02791
1.06162
1.09598
1.131
1.16667
1.20299
1.23994
1.27752
1.31571
1.3545
1.39387
1.43381
1.47429
1.51529
1.55678
1.59875
1.64116
1.68399
1.72719
1.77075
1.81462
1.85877
1.90317
1.94778
1.99255
2.03746
2.08246
2.12752
2.1726
2.21767
2.26267
2.30758
2.35235
2.39695
2.44134
2.48548
2.52933
2.57274
2.61565
2.65805
2.69991
2.74118
2.78182
2.82178
2.86102
2.89948
2.93711
2.97387
3.0097
3.04457
3.07841
3.1112
3.14289
3.17342
3.20278
3.23091
3.25778
3.28335
3.30759
3.33048
3.35197
3.37206
3.39071
3.4079
3.42363
3.43787
3.45061
3.46185
3.47156
3.47976
3.48642
3.49157
3.49519
3.4973
3.49791
3.49703
3.49466
3.49084
3.48557
3.47888
3.47079
3.46133
3.45053
3.43843
3.42504
3.4104
3.39457
3.37758
3.35944
3.34019
3.31996
3.29875
3.27657
3.25353
3.22965
3.20498
3.17959
3.15353
3.12683
3.09957
3.07178
3.04353
3.01487
2.98586
2.95656
2.92705
2.89738
2.86761
2.83779
2.80796
2.77818
2.74854
2.71913
2.69007
2.66151
2.63366
2.60677
2.58112
2.5567
2.53356
0.0204396
0.0481192
0.0625367
0.0728094
0.0813973
0.0891688
0.096546
0.103771
0.110993
0.118306
0.125771
0.133421
0.141276
0.149347
0.157641
0.166162
0.174918
0.183917
0.193172
0.202699
0.212517
0.222648
0.233119
0.243958
0.255196
0.266867
0.279005
0.291644
0.304819
0.318561
0.3329
0.347862
0.363469
0.379737
0.396679
0.414303
0.432616
0.451618
0.471312
0.491697
0.512769
0.534527
0.556967
0.580086
0.603882
0.628354
0.653505
0.679338
0.70586
0.733078
0.760999
0.789631
0.818983
0.849062
0.879875
0.911429
0.94373
0.976783
1.01059
1.04516
1.08049
1.11658
1.15343
1.19104
1.2294
1.26851
1.30835
1.34892
1.3902
1.43218
1.47484
1.51816
1.56211
1.60668
1.65183
1.69753
1.74376
1.79047
1.83763
1.88521
1.93317
1.98145
2.03003
2.07886
2.12789
2.17709
2.2264
2.27579
2.32521
2.37461
2.42396
2.47321
2.52231
2.57122
2.61989
2.66827
2.71631
2.76381
2.81078
2.85717
2.90296
2.94809
2.99251
3.03617
3.07901
3.12099
3.16204
3.20211
3.24114
3.2791
3.31592
3.35157
3.38598
3.41912
3.45095
3.48141
3.51048
3.53812
3.56428
3.58894
3.61207
3.63364
3.65362
3.672
3.68877
3.7039
3.71738
3.72921
3.73937
3.74785
3.75467
3.75983
3.76332
3.76515
3.76535
3.76392
3.76087
3.75623
3.75003
3.74228
3.733
3.72224
3.71003
3.69641
3.6814
3.665
3.64735
3.62845
3.60834
3.58706
3.56469
3.54126
3.51682
3.49144
3.46517
3.43805
3.41015
3.38152
3.35222
3.3223
3.29183
3.26086
3.22944
3.19764
3.16553
3.13316
3.10062
3.06796
3.03523
3.00251
2.96986
2.93738
2.90517
2.87338
2.84217
2.81177
2.78242
2.75438
2.72759
2.70208
0.0222056
0.0513166
0.0664358
0.0771956
0.0861536
0.094211
0.101805
0.109188
0.11652
0.123905
0.131414
0.139093
0.146971
0.15507
0.163403
0.171981
0.180818
0.189926
0.199321
0.209021
0.219046
0.22942
0.24017
0.251323
0.26291
0.274961
0.287508
0.300582
0.314213
0.32843
0.343258
0.358721
0.374839
0.391628
0.409101
0.427269
0.44614
0.46572
0.486014
0.507025
0.528757
0.551212
0.574393
0.598303
0.622946
0.648326
0.674449
0.701323
0.728958
0.757363
0.786549
0.816527
0.847308
0.878904
0.911323
0.944577
0.978674
1.01362
1.04943
1.0861
1.12363
1.16203
1.2013
1.24144
1.28244
1.32429
1.36699
1.41053
1.45489
1.50005
1.54599
1.5927
1.64014
1.68829
1.73712
1.78658
1.83665
1.88729
1.93845
1.99009
2.04216
2.09462
2.14742
2.20051
2.25383
2.30735
2.361
2.41474
2.46852
2.52228
2.57599
2.62958
2.68301
2.73622
2.78918
2.84182
2.89395
2.94553
2.9965
3.04685
3.09651
3.14544
3.19358
3.24086
3.28724
3.33264
3.37702
3.4203
3.46244
3.50338
3.54307
3.58145
3.61848
3.6541
3.68827
3.72095
3.75209
3.78167
3.80962
3.83593
3.86055
3.88347
3.90466
3.9241
3.94178
3.95768
3.97178
3.98409
3.99458
4.00326
4.01013
4.01519
4.01845
4.01993
4.01963
4.01756
4.01377
4.00825
4.00105
3.99219
3.98167
3.96956
3.95591
3.94075
3.92411
3.90602
3.88656
3.86577
3.8437
3.82039
3.7959
3.7703
3.74362
3.71594
3.6873
3.65777
3.62741
3.59627
3.56441
3.53191
3.4988
3.46517
3.43106
3.39654
3.36168
3.32654
3.29119
3.25572
3.22018
3.18464
3.1492
3.11395
3.07902
3.04456
3.01074
2.97779
2.94595
2.91544
2.88617
2.85818
0.0235614
0.0537699
0.0694108
0.0805327
0.089764
0.0980296
0.105777
0.113266
0.120661
0.128076
0.13559
0.143256
0.151115
0.159194
0.167514
0.176093
0.184949
0.194096
0.203554
0.213342
0.223482
0.233998
0.244914
0.256258
0.268059
0.280345
0.293144
0.306486
0.320398
0.334906
0.350034
0.365805
0.382239
0.399353
0.417161
0.435679
0.454916
0.474884
0.495592
0.517048
0.539261
0.56224
0.585993
0.610528
0.635855
0.661983
0.688924
0.71669
0.745294
0.774749
0.805071
0.836273
0.868371
0.901379
0.93531
0.970177
1.00599
1.04277
1.08051
1.11923
1.15893
1.19961
1.24127
1.28392
1.32755
1.37215
1.41772
1.46423
1.51168
1.56005
1.60931
1.65943
1.71039
1.76216
1.81469
1.86796
1.92191
1.9765
2.03169
2.08742
2.14364
2.2003
2.25733
2.31469
2.37231
2.43014
2.48812
2.5462
2.60431
2.66241
2.72043
2.77833
2.83604
2.8935
2.95068
3.00743
3.06359
3.11913
3.17401
3.22819
3.28161
3.33421
3.38593
3.4367
3.48646
3.53514
3.58267
3.629
3.67407
3.71782
3.76019
3.80112
3.84057
3.87849
3.91482
3.94953
3.98256
4.01389
4.04346
4.07123
4.09718
4.12128
4.1435
4.16384
4.18227
4.19877
4.21336
4.226
4.23669
4.24543
4.25222
4.25707
4.26
4.26101
4.26013
4.25735
4.25272
4.24627
4.23802
4.228
4.21623
4.20278
4.18769
4.17099
4.15273
4.13294
4.1117
4.08905
4.06505
4.03974
4.01319
3.98546
3.9566
3.92667
3.89575
3.86387
3.83112
3.79755
3.76323
3.72821
3.69257
3.65637
3.61966
3.58251
3.545
3.50719
3.46916
3.43098
3.39273
3.35449
3.31636
3.27844
3.24087
3.20381
3.16744
3.13198
3.09765
3.06466
3.03286
3.00234
0.0245269
0.0555356
0.0715319
0.0828974
0.092308
0.100704
0.108541
0.11608
0.123493
0.130896
0.138376
0.145993
0.153793
0.161811
0.170074
0.178604
0.187422
0.196547
0.205999
0.215799
0.225969
0.236532
0.247512
0.258936
0.270829
0.28322
0.296134
0.309599
0.323641
0.338284
0.353554
0.369473
0.386061
0.403338
0.421323
0.440033
0.459482
0.479687
0.500662
0.522421
0.544978
0.568348
0.592544
0.617581
0.643474
0.670238
0.697891
0.726448
0.755928
0.786349
0.817729
0.850088
0.883443
0.917813
0.953215
0.989666
1.02718
1.06577
1.10545
1.14622
1.18809
1.23107
1.27516
1.32036
1.36666
1.41405
1.46252
1.51206
1.56265
1.61427
1.66689
1.72048
1.77501
1.83044
1.88672
1.94381
2.00167
2.06024
2.11947
2.1793
2.23966
2.3005
2.36175
2.42334
2.48522
2.5473
2.60954
2.67187
2.73423
2.79656
2.85879
2.92086
2.98273
3.04431
3.10554
3.16618
3.22617
3.28549
3.34407
3.40187
3.45883
3.51487
3.56994
3.62396
3.67685
3.72855
3.77898
3.8281
3.87583
3.92212
3.9669
4.01012
4.05173
4.09167
4.1299
4.16637
4.20104
4.23388
4.26481
4.29381
4.32084
4.34589
4.36893
4.38995
4.40892
4.42585
4.44072
4.45353
4.46426
4.4729
4.47947
4.48398
4.48645
4.48689
4.48532
4.48177
4.47625
4.46881
4.45947
4.44827
4.43525
4.42045
4.40391
4.38569
4.36583
4.34438
4.3214
4.29695
4.27107
4.24383
4.21529
4.18552
4.15456
4.12249
4.08937
4.05526
4.02024
3.98436
3.94768
3.91029
3.87224
3.83359
3.79442
3.75479
3.71477
3.67443
3.63385
3.59311
3.55229
3.51149
3.4708
3.43034
3.39026
3.3507
3.31187
3.27396
3.23719
3.20173
3.16742
3.13438
0.025135
0.0566831
0.0728851
0.0843853
0.0938867
0.102339
0.1102
0.117736
0.125118
0.132469
0.139877
0.147409
0.155116
0.163036
0.171201
0.179638
0.188369
0.197416
0.2068
0.216543
0.226666
0.237192
0.248145
0.259549
0.27143
0.283813
0.296725
0.310191
0.324238
0.33889
0.354173
0.370112
0.386728
0.404046
0.422086
0.440871
0.46042
0.480754
0.501894
0.523859
0.54667
0.570346
0.59491
0.62038
0.646778
0.674126
0.702445
0.731758
0.762087
0.793456
0.825888
0.859405
0.894031
0.929787
0.966694
1.00477
1.04403
1.0845
1.12618
1.16909
1.21323
1.25859
1.3052
1.35303
1.40209
1.45236
1.50384
1.55649
1.61031
1.66526
1.72131
1.77843
1.83658
1.8957
1.95576
2.01671
2.07847
2.14101
2.20425
2.26813
2.33259
2.39754
2.46292
2.52863
2.59463
2.66083
2.72717
2.79358
2.85999
2.92635
2.99257
3.05861
3.12439
3.18986
3.25473
3.31896
3.38248
3.44525
3.50721
3.56829
3.62843
3.68757
3.74563
3.80254
3.8582
3.91254
3.96551
4.01703
4.06704
4.11549
4.16232
4.20745
4.25085
4.29246
4.33223
4.37011
4.40608
4.4401
4.47209
4.502
4.52982
4.55553
4.5791
4.60053
4.61981
4.63691
4.65184
4.66459
4.67515
4.68353
4.68973
4.69377
4.69567
4.69544
4.69311
4.6887
4.68224
4.67376
4.66331
4.65092
4.63662
4.62048
4.60252
4.58282
4.56141
4.53835
4.5137
4.48752
4.45986
4.4308
4.40038
4.36867
4.33575
4.30167
4.2665
4.23031
4.19317
4.15514
4.11629
4.07668
4.03639
3.99549
3.95403
3.91209
3.86975
3.82706
3.78412
3.74101
3.69781
3.65462
3.61155
3.56872
3.52627
3.48436
3.44319
3.40295
3.36383
3.32598
3.28923
3.25376
0.0254292
0.0572919
0.0735674
0.0851044
0.0946152
0.103054
0.110878
0.118356
0.125662
0.132919
0.140219
0.147632
0.155211
0.163
0.171031
0.179335
0.187935
0.196855
0.206117
0.215742
0.225751
0.236168
0.247015
0.258316
0.270097
0.282383
0.295199
0.308572
0.322529
0.337097
0.352302
0.368172
0.384733
0.402011
0.420033
0.438825
0.458413
0.478825
0.500085
0.522222
0.545262
0.569232
0.594159
0.620071
0.646994
0.674957
0.703985
0.734108
0.765354
0.797751
0.831325
0.866106
0.902118
0.939386
0.977934
1.01778
1.05895
1.10146
1.14532
1.19053
1.23711
1.28504
1.33433
1.38497
1.43695
1.49026
1.54488
1.60078
1.65794
1.71632
1.77589
1.8366
1.89841
1.96126
2.02509
2.08986
2.15549
2.22192
2.28907
2.35689
2.42529
2.4942
2.56351
2.63313
2.70301
2.77305
2.8432
2.91339
2.98353
3.05357
3.12343
3.19306
3.26239
3.33114
3.39923
3.4666
3.53319
3.59893
3.66377
3.72764
3.79046
3.85217
3.91272
3.97203
4.02994
4.08641
4.14139
4.1948
4.24659
4.29671
4.34508
4.39164
4.43636
4.47917
4.52002
4.55888
4.5957
4.63044
4.66305
4.6935
4.72174
4.74777
4.77157
4.79312
4.81241
4.82944
4.84419
4.85666
4.86686
4.87479
4.88045
4.88388
4.88507
4.88406
4.88087
4.87553
4.86807
4.85853
4.84694
4.83335
4.8178
4.80034
4.78102
4.75989
4.73701
4.71243
4.68621
4.65842
4.62911
4.59835
4.56621
4.53274
4.49802
4.46212
4.42509
4.38702
4.34796
4.30799
4.26717
4.22558
4.18328
4.14034
4.09683
4.05282
4.00838
3.96359
3.91853
3.87327
3.82792
3.78258
3.73734
3.69234
3.64773
3.60366
3.56031
3.51789
3.47656
3.43646
3.39742
3.35963
0.0254621
0.0574483
0.0736824
0.0851699
0.0946168
0.102976
0.110707
0.118076
0.125261
0.132385
0.139541
0.146803
0.154224
0.16185
0.169715
0.177851
0.186283
0.195034
0.204127
0.213584
0.223426
0.233677
0.244358
0.255496
0.267114
0.27924
0.291899
0.305121
0.318934
0.333367
0.34845
0.364214
0.380691
0.397912
0.415908
0.434711
0.454355
0.474872
0.496296
0.518662
0.542004
0.566356
0.591755
0.618235
0.645827
0.674565
0.70448
0.735607
0.767979
0.801628
0.836586
0.872884
0.910548
0.949606
0.990082
1.032
1.07537
1.12022
1.16656
1.2144
1.26372
1.3145
1.36675
1.42045
1.47559
1.53215
1.5901
1.64941
1.71005
1.77196
1.83512
1.89945
1.96492
2.03146
2.09899
2.16747
2.23681
2.30694
2.37778
2.44927
2.52133
2.59391
2.66679
2.73993
2.81326
2.88671
2.96019
3.03365
3.10701
3.1802
3.25316
3.32582
3.39788
3.46927
3.53993
3.60979
3.67877
3.74681
3.81384
3.87979
3.9446
4.00818
4.07047
4.1314
4.19085
4.24878
4.3051
4.35976
4.4127
4.46385
4.51316
4.56056
4.60602
4.64947
4.69087
4.73018
4.76735
4.80235
4.83514
4.86567
4.89394
4.9199
4.94355
4.96488
4.98386
5.00051
5.0148
5.02676
5.03637
5.04364
5.04859
5.05124
5.0516
5.0497
5.04557
5.03923
5.03073
5.02009
5.00737
4.9926
4.97583
4.95711
4.9365
4.91404
4.8898
4.86383
4.83619
4.80695
4.77617
4.74391
4.71024
4.67522
4.63893
4.60144
4.5628
4.52309
4.48238
4.44073
4.39823
4.35492
4.31089
4.26621
4.22093
4.17514
4.12889
4.08228
4.03538
3.98827
3.94105
3.89382
3.84669
3.79978
3.75325
3.70725
3.66196
3.61757
3.57422
3.53206
3.4909
3.45098
0.0252938
0.0572416
0.0733358
0.0846983
0.094016
0.102238
0.109822
0.117036
0.124057
0.131012
0.137993
0.145074
0.15231
0.159746
0.167419
0.175359
0.183592
0.192144
0.201035
0.21029
0.219931
0.229981
0.240465
0.251408
0.262838
0.274782
0.287272
0.300336
0.314009
0.328323
0.343314
0.359017
0.37547
0.392712
0.41078
0.429713
0.44955
0.470333
0.492105
0.514907
0.538785
0.563782
0.589943
0.617312
0.645925
0.675811
0.707009
0.739557
0.773493
0.808852
0.845666
0.883967
0.923781
0.965132
1.00804
1.05253
1.0986
1.14629
1.19559
1.24654
1.29906
1.35311
1.40868
1.46578
1.52437
1.58443
1.64591
1.70877
1.77298
1.83847
1.9052
1.97309
2.04209
2.11213
2.18313
2.25502
2.32772
2.40115
2.47523
2.54987
2.625
2.70053
2.77632
2.85231
2.92841
3.00454
3.08063
3.15661
3.23241
3.30799
3.38319
3.45777
3.53168
3.60484
3.67717
3.7486
3.81907
3.88849
3.95681
4.02395
4.08983
4.15439
4.21756
4.27926
4.33942
4.39795
4.45481
4.50991
4.56321
4.61465
4.66416
4.7117
4.7572
4.80064
4.84195
4.88109
4.91804
4.95275
4.98519
5.01532
5.04313
5.06858
5.09167
5.11239
5.13072
5.14666
5.16021
5.17138
5.18016
5.18657
5.19063
5.19235
5.19175
5.18887
5.18372
5.17634
5.16678
5.15506
5.14123
5.12533
5.10742
5.08755
5.06576
5.04211
5.01667
4.98949
4.96062
4.93014
4.89811
4.8646
4.82966
4.79337
4.75579
4.71699
4.67704
4.63601
4.59397
4.55098
4.50711
4.46244
4.41702
4.37093
4.32424
4.27701
4.22932
4.18123
4.13284
4.08422
4.03547
3.98668
3.93798
3.88948
3.84133
3.79369
3.74673
3.70062
3.65551
3.61153
3.5685
3.52667
0.0249749
0.0567446
0.0726087
0.0837753
0.0929006
0.100927
0.108311
0.115322
0.122138
0.128886
0.135659
0.142529
0.149553
0.156774
0.16423
0.171951
0.179965
0.188296
0.196969
0.206009
0.215441
0.22529
0.235584
0.246352
0.257625
0.269436
0.281819
0.294812
0.308453
0.322781
0.337839
0.353671
0.370325
0.387851
0.406297
0.425702
0.446115
0.467588
0.490175
0.513928
0.538902
0.565151
0.592733
0.621714
0.652138
0.683975
0.717284
0.752111
0.788495
0.826468
0.866057
0.907285
0.950171
0.994728
1.04097
1.08889
1.1385
1.18979
1.24276
1.29739
1.35363
1.41146
1.47083
1.53171
1.59406
1.65784
1.723
1.78949
1.85724
1.92621
1.99631
2.06749
2.13966
2.21277
2.28673
2.36145
2.43687
2.51289
2.58943
2.66641
2.74374
2.82133
2.89909
2.97693
3.05477
3.13254
3.21017
3.2876
3.36475
3.44139
3.5174
3.59271
3.66725
3.74094
3.81373
3.88552
3.95626
4.02587
4.09428
4.16143
4.22724
4.29165
4.35459
4.41598
4.47577
4.53388
4.59025
4.64481
4.69752
4.74832
4.79714
4.84394
4.88868
4.9313
4.97176
5.01003
5.04606
5.07983
5.1113
5.14045
5.16725
5.19168
5.21374
5.23341
5.25067
5.26554
5.27801
5.28809
5.29578
5.3011
5.30406
5.30468
5.30299
5.29901
5.29278
5.28432
5.27367
5.26088
5.24599
5.22904
5.21008
5.18916
5.16634
5.14167
5.11521
5.08702
5.05716
5.02569
4.99267
4.95817
4.92226
4.88499
4.84644
4.80668
4.76576
4.72376
4.68075
4.63678
4.59193
4.54626
4.49984
4.45273
4.40501
4.35673
4.30796
4.25879
4.20929
4.15953
4.10962
4.05965
4.00972
3.95998
3.91054
3.86158
3.81325
3.76571
3.71913
3.6736
3.62897
3.58551
0.024639
0.0561214
0.0716881
0.0826033
0.0914869
0.0992738
0.106422
0.113201
0.119789
0.126313
0.132866
0.13952
0.146329
0.153339
0.160586
0.168104
0.175921
0.184066
0.192566
0.201451
0.210751
0.220497
0.230722
0.241465
0.252763
0.264657
0.277193
0.290418
0.304384
0.319134
0.334721
0.351205
0.368653
0.387136
0.406744
0.427451
0.449338
0.472475
0.496926
0.522752
0.550013
0.578764
0.60906
0.640948
0.674463
0.709623
0.746455
0.784984
0.82523
0.867207
0.910924
0.956381
1.00357
1.0525
1.10313
1.15546
1.20945
1.26509
1.32234