/*--------------------------------*- C++ -*----------------------------------*\
  =========                 |
  \\      /  F ield         | OpenFOAM: The Open Source CFD Toolbox
   \\    /   O peration     | Website:  https://openfoam.org
    \\  /    A nd           | Version:  9
     \\/     M anipulation  |
\*---------------------------------------------------------------------------*/
FoamFile
{
    format      ascii;
    class       volVectorField;
    location    "0.22";
    object      U;
}
// * * * * * * * * * * * * * * * * * * * * * * * * * * * * * * * * * * * * * //

dimensions      [0 1 -1 0 0 0 0];

internalField   nonuniform List<vector> 
12225
(
(9.86107 -0.874318 0)
(9.67248 -0.700192 0)
(9.45896 -0.387592 0)
(9.22466 -0.188478 0)
(9.00348 -0.0843934 0)
(8.81038 -0.0328757 0)
(8.64509 -0.00755049 0)
(8.50409 0.00502502 0)
(8.38391 0.0113369 0)
(8.28102 0.014473 0)
(8.19204 0.0159683 0)
(8.1141 0.016638 0)
(8.04481 0.0169248 0)
(7.98236 0.0171204 0)
(7.92381 0.017417 0)
(7.87017 0.0185236 0)
(7.80081 0.0214906 0)
(7.77448 0.0299352 0)
(10.0547 0.263069 0)
(10.1201 0.36074 0)
(10.118 0.273821 0)
(10.0826 0.187087 0)
(10.0405 0.131162 0)
(9.99391 0.0969266 0)
(9.94011 0.0755568 0)
(9.88038 0.0617494 0)
(9.81781 0.0523437 0)
(9.75489 0.0455266 0)
(9.69305 0.040355 0)
(9.63311 0.0363682 0)
(9.57546 0.03331 0)
(9.52047 0.0311613 0)
(9.46737 0.0297562 0)
(9.41861 0.0308578 0)
(9.36723 0.0319403 0)
(9.34197 0.052296 0)
(9.99919 0.0460867 0)
(10.0244 0.0342092 0)
(10.0538 0.0149492 0)
(10.0708 0.0218097 0)
(10.0778 0.0366712 0)
(10.0783 0.0460071 0)
(10.0722 0.0499471 0)
(10.0603 0.0511376 0)
(10.0439 0.0510436 0)
(10.0245 0.0503265 0)
(10.003 0.0493573 0)
(9.97997 0.0483822 0)
(9.95582 0.0475511 0)
(9.93103 0.0470975 0)
(9.90555 0.0470944 0)
(9.88041 0.0488737 0)
(9.85485 0.0516109 0)
(9.83493 0.0629599 0)
(9.9968 0.00642771 0)
(10.0085 0.0250177 0)
(10.0342 0.0389367 0)
(10.0528 0.0503004 0)
(10.0644 0.0571047 0)
(10.0731 0.0591599 0)
(10.079 0.0588469 0)
(10.0816 0.0579256 0)
(10.0816 0.0569177 0)
(10.0795 0.0558987 0)
(10.0758 0.0549211 0)
(10.0707 0.0540716 0)
(10.0644 0.0534403 0)
(10.0572 0.0532205 0)
(10.0492 0.0535457 0)
(10.041 0.0552888 0)
(10.0331 0.0581153 0)
(10.0276 0.0645149 0)
(9.99922 0.00673712 0)
(10.0081 0.0335727 0)
(10.0271 0.0460412 0)
(10.0418 0.0508419 0)
(10.0524 0.0539091 0)
(10.0622 0.0554963 0)
(10.0708 0.0558414 0)
(10.0775 0.0556556 0)
(10.0823 0.055285 0)
(10.0857 0.0548208 0)
(10.088 0.0543371 0)
(10.0894 0.0539386 0)
(10.0899 0.0537345 0)
(10.0898 0.0538984 0)
(10.0891 0.0545804 0)
(10.0884 0.0562687 0)
(10.0882 0.0587759 0)
(10.0898 0.0625857 0)
(10.0002 0.0090736 0)
(10.0078 0.0321232 0)
(10.0225 0.0419085 0)
(10.035 0.0456613 0)
(10.0448 0.0491194 0)
(10.0542 0.0516542 0)
(10.063 0.0527913 0)
(10.0705 0.0531413 0)
(10.0767 0.0531794 0)
(10.0819 0.0530696 0)
(10.0863 0.0529036 0)
(10.09 0.0527889 0)
(10.0932 0.052836 0)
(10.0958 0.0531873 0)
(10.0981 0.0539653 0)
(10.1006 0.0554098 0)
(10.1036 0.057362 0)
(10.1079 0.0596692 0)
(10.0003 0.00879993 0)
(10.0068 0.0275162 0)
(10.019 0.0370795 0)
(10.0303 0.0417357 0)
(10.0395 0.0456545 0)
(10.0482 0.0484773 0)
(10.0566 0.0498854 0)
(10.0641 0.0504766 0)
(10.0706 0.0507367 0)
(10.0763 0.0508378 0)
(10.0815 0.0508666 0)
(10.0861 0.0509225 0)
(10.0903 0.0511067 0)
(10.0942 0.0515281 0)
(10.0979 0.0522686 0)
(10.1018 0.0534196 0)
(10.1061 0.0548202 0)
(10.1114 0.0561518 0)
(10.0004 0.00783687 0)
(10.0057 0.023693 0)
(10.016 0.0333654 0)
(10.0264 0.0385815 0)
(10.0351 0.0424743 0)
(10.0433 0.0452657 0)
(10.0512 0.0468173 0)
(10.0584 0.0475946 0)
(10.0649 0.0480223 0)
(10.0708 0.0482738 0)
(10.0762 0.0484363 0)
(10.0812 0.0486011 0)
(10.0859 0.0488561 0)
(10.0903 0.0492798 0)
(10.0947 0.0499162 0)
(10.0992 0.0507729 0)
(10.1041 0.0516897 0)
(10.1097 0.0523591 0)
(10.0004 0.00695084 0)
(10.0049 0.0207059 0)
(10.0136 0.0300312 0)
(10.023 0.0353948 0)
(10.0312 0.0391768 0)
(10.0389 0.0419345 0)
(10.0464 0.0436218 0)
(10.0534 0.0445643 0)
(10.0598 0.0451262 0)
(10.0656 0.0454889 0)
(10.0711 0.0457441 0)
(10.0762 0.0459742 0)
(10.0811 0.0462527 0)
(10.0858 0.0466331 0)
(10.0905 0.0471307 0)
(10.0953 0.0477115 0)
(10.1004 0.0482296 0)
(10.1058 0.0484459 0)
(10.0004 0.00616407 0)
(10.0042 0.0181204 0)
(10.0116 0.0267938 0)
(10.0199 0.032132 0)
(10.0277 0.0358379 0)
(10.035 0.0385647 0)
(10.0421 0.040345 0)
(10.0488 0.0414125 0)
(10.055 0.0420768 0)
(10.0608 0.0425206 0)
(10.0662 0.0428379 0)
(10.0714 0.0431015 0)
(10.0764 0.0433708 0)
(10.0812 0.0436808 0)
(10.086 0.0440289 0)
(10.0909 0.0443664 0)
(10.0959 0.0445711 0)
(10.1012 0.044478 0)
(10.0003 0.0054273 0)
(10.0036 0.0157979 0)
(10.0099 0.0237078 0)
(10.0173 0.0289027 0)
(10.0245 0.0325171 0)
(10.0314 0.0351772 0)
(10.0381 0.0369914 0)
(10.0446 0.0381399 0)
(10.0506 0.0388777 0)
(10.0563 0.0393778 0)
(10.0617 0.0397328 0)
(10.0668 0.0400063 0)
(10.0718 0.0402458 0)
(10.0767 0.0404736 0)
(10.0815 0.0406786 0)
(10.0864 0.0408127 0)
(10.0913 0.0407812 0)
(10.0963 0.0404807 0)
(10.0003 0.00477489 0)
(10.0031 0.0138528 0)
(10.0086 0.0210337 0)
(10.0152 0.0259957 0)
(10.0219 0.0294827 0)
(10.0285 0.0320481 0)
(10.0348 0.0338483 0)
(10.041 0.0350338 0)
(10.0469 0.0358127 0)
(10.0525 0.0363425 0)
(10.0578 0.0367121 0)
(10.0629 0.0369778 0)
(10.0679 0.0371778 0)
(10.0727 0.0373277 0)
(10.0775 0.0374145 0)
(10.0823 0.0373975 0)
(10.087 0.0372066 0)
(10.0918 0.0367827 0)
(10.0003 0.00416847 0)
(10.0028 0.0120858 0)
(10.0075 0.0185197 0)
(10.0134 0.0231582 0)
(10.0197 0.0264753 0)
(10.0258 0.0289221 0)
(10.0319 0.0306744 0)
(10.0378 0.0318648 0)
(10.0435 0.0326619 0)
(10.049 0.0332036 0)
(10.0542 0.033573 0)
(10.0593 0.0338203 0)
(10.0642 0.0339771 0)
(10.069 0.0340547 0)
(10.0737 0.0340418 0)
(10.0783 0.0339076 0)
(10.0829 0.0336021 0)
(10.0875 0.0330986 0)
(10.0003 0.00353666 0)
(10.0024 0.0102478 0)
(10.0064 0.0158276 0)
(10.0117 0.0200116 0)
(10.0174 0.0230709 0)
(10.0232 0.0253407 0)
(10.0289 0.0269935 0)
(10.0346 0.0281467 0)
(10.0401 0.0289319 0)
(10.0454 0.0294628 0)
(10.0505 0.0298135 0)
(10.0554 0.030028 0)
(10.0602 0.0301322 0)
(10.0649 0.0301354 0)
(10.0695 0.0300304 0)
(10.074 0.0297975 0)
(10.0784 0.0294056 0)
(10.0827 0.0288524 0)
(10.0002 0.00287786 0)
(10.002 0.00833755 0)
(10.0055 0.0129676 0)
(10.0101 0.0165622 0)
(10.0153 0.0192545 0)
(10.0206 0.0212698 0)
(10.026 0.0227568 0)
(10.0314 0.0238159 0)
(10.0366 0.0245455 0)
(10.0417 0.0250333 0)
(10.0467 0.0253409 0)
(10.0515 0.0255059 0)
(10.0562 0.0255495 0)
(10.0608 0.0254806 0)
(10.0652 0.025297 0)
(10.0696 0.02499 0)
(10.0738 0.0245437 0)
(10.0778 0.0239721 0)
(10.0002 0.00219238 0)
(10.0017 0.00635601 0)
(10.0047 0.00994482 0)
(10.0088 0.0128115 0)
(10.0134 0.0150087 0)
(10.0183 0.0166716 0)
(10.0233 0.0179104 0)
(10.0284 0.0188031 0)
(10.0334 0.0194195 0)
(10.0383 0.0198217 0)
(10.0431 0.0200564 0)
(10.0478 0.0201532 0)
(10.0523 0.0201296 0)
(10.0567 0.0199945 0)
(10.061 0.0197504 0)
(10.0651 0.0193965 0)
(10.0691 0.0189275 0)
(10.0729 0.0183662 0)
(10.0002 0.0014771 0)
(10.0015 0.00428656 0)
(10.0041 0.00673702 0)
(10.0077 0.00873594 0)
(10.0119 0.0102977 0)
(10.0164 0.0114918 0)
(10.0211 0.012385 0)
(10.0258 0.0130277 0)
(10.0306 0.0134633 0)
(10.0353 0.0137301 0)
(10.0399 0.0138582 0)
(10.0444 0.013868 0)
(10.0487 0.0137725 0)
(10.053 0.0135795 0)
(10.0571 0.0132937 0)
(10.061 0.0129187 0)
(10.0648 0.0124551 0)
(10.0684 0.0119278 0)
(10.0001 0.000714398 0)
(10.0013 0.0020734 0)
(10.0037 0.00326491 0)
(10.0069 0.00424756 0)
(10.0108 0.00502356 0)
(10.015 0.00561752 0)
(10.0194 0.00605435 0)
(10.0239 0.0063541 0)
(10.0285 0.00653448 0)
(10.033 0.00661134 0)
(10.0374 0.00659724 0)
(10.0417 0.00650109 0)
(10.0459 0.00632907 0)
(10.05 0.00608579 0)
(10.0539 0.005775 0)
(10.0577 0.00540094 0)
(10.0612 0.00496551 0)
(10.0647 0.00449138 0)
(10.0001 -0.000142349 0)
(10.0013 -0.000415383 0)
(10.0035 -0.000660261 0)
(10.0066 -0.000864435 0)
(10.0104 -0.00102543 0)
(10.0145 -0.00115706 0)
(10.0188 -0.00127855 0)
(10.0232 -0.00140376 0)
(10.0276 -0.00154136 0)
(10.032 -0.00169858 0)
(10.0363 -0.00188191 0)
(10.0405 -0.00209638 0)
(10.0445 -0.0023452 0)
(10.0485 -0.0026301 0)
(10.0522 -0.00295156 0)
(10.0558 -0.00330844 0)
(10.0593 -0.00370061 0)
(10.0625 -0.00411116 0)
(10.0001 -0.000966003 0)
(10.0014 -0.00281471 0)
(10.0037 -0.00445043 0)
(10.0071 -0.00579116 0)
(10.0111 -0.00683065 0)
(10.0153 -0.0076304 0)
(10.0197 -0.00825736 0)
(10.0242 -0.00875679 0)
(10.0287 -0.00916321 0)
(10.0331 -0.00950866 0)
(10.0373 -0.00981964 0)
(10.0415 -0.0101148 0)
(10.0455 -0.0104065 0)
(10.0494 -0.0107035 0)
(10.053 -0.0110115 0)
(10.0566 -0.0113335 0)
(10.0599 -0.0116723 0)
(10.0631 -0.0120166 0)
(10.0002 -0.00167957 0)
(10.0015 -0.00491697 0)
(10.0042 -0.00777151 0)
(10.0079 -0.0100399 0)
(10.0123 -0.0117376 0)
(10.0168 -0.0130214 0)
(10.0215 -0.0140088 0)
(10.0261 -0.0147595 0)
(10.0307 -0.0153274 0)
(10.0352 -0.0157716 0)
(10.0396 -0.0161391 0)
(10.0437 -0.0164601 0)
(10.0477 -0.0167542 0)
(10.0516 -0.0170352 0)
(10.0552 -0.0173129 0)
(10.0587 -0.0175931 0)
(10.0621 -0.0178799 0)
(10.0652 -0.0181661 0)
(10.0002 -0.00236115 0)
(10.0017 -0.0070046 0)
(10.0048 -0.0111057 0)
(10.0092 -0.0142066 0)
(10.0141 -0.0164011 0)
(10.019 -0.0180269 0)
(10.0239 -0.0192642 0)
(10.0288 -0.0201774 0)
(10.0336 -0.0208385 0)
(10.0383 -0.0213301 0)
(10.0427 -0.0217137 0)
(10.0469 -0.0220273 0)
(10.051 -0.0222973 0)
(10.0548 -0.0225427 0)
(10.0585 -0.0227767 0)
(10.0619 -0.0230071 0)
(10.0652 -0.023239 0)
(10.0684 -0.0234675 0)
(10.0002 -0.00299641 0)
(10.0018 -0.0091125 0)
(10.0056 -0.0144858 0)
(10.0108 -0.0183311 0)
(10.0163 -0.0209512 0)
(10.0217 -0.0228462 0)
(10.027 -0.0242107 0)
(10.0322 -0.0251505 0)
(10.0372 -0.0258032 0)
(10.0419 -0.0262803 0)
(10.0464 -0.0266419 0)
(10.0507 -0.0269231 0)
(10.0548 -0.0271524 0)
(10.0587 -0.0273527 0)
(10.0623 -0.0275386 0)
(10.0658 -0.0277186 0)
(10.0691 -0.027898 0)
(10.0722 -0.0280735 0)
(10.0001 -0.00357216 0)
(10.0019 -0.0115424 0)
(10.0064 -0.0179375 0)
(10.0127 -0.0220654 0)
(10.0189 -0.0250491 0)
(10.0247 -0.0273498 0)
(10.0304 -0.0288921 0)
(10.0359 -0.0298054 0)
(10.0411 -0.0303664 0)
(10.046 -0.0307533 0)
(10.0506 -0.031032 0)
(10.055 -0.0312347 0)
(10.0591 -0.0313907 0)
(10.0629 -0.0315235 0)
(10.0666 -0.0316468 0)
(10.0701 -0.0317675 0)
(10.0733 -0.0318891 0)
(10.0764 -0.0320075 0)
(9.99997 -0.00369169 0)
(10.0018 -0.0151854 0)
(10.0076 -0.0226589 0)
(10.0148 -0.0259906 0)
(10.0214 -0.0285545 0)
(10.0277 -0.0310174 0)
(10.034 -0.0327966 0)
(10.0399 -0.0338365 0)
(10.0454 -0.0344383 0)
(10.0505 -0.0348108 0)
(10.0552 -0.0350375 0)
(10.0596 -0.035167 0)
(10.0637 -0.0352417 0)
(10.0675 -0.035291 0)
(10.0711 -0.0353315 0)
(10.0744 -0.0353713 0)
(10.0774 -0.0354141 0)
(10.0803 -0.0354574 0)
(9.99898 -0.00131057 0)
(9.99999 -0.0179781 0)
(10.0085 -0.029076 0)
(10.0174 -0.0327021 0)
(10.0244 -0.0341266 0)
(10.0311 -0.0353532 0)
(10.0382 -0.0363004 0)
(10.0448 -0.0369431 0)
(10.0507 -0.0373939 0)
(10.0559 -0.0376931 0)
(10.0605 -0.0378553 0)
(10.0647 -0.0379164 0)
(10.0684 -0.0379177 0)
(10.0716 -0.0378887 0)
(10.0745 -0.0378476 0)
(10.0771 -0.0378056 0)
(10.0793 -0.0377662 0)
(10.0813 -0.0377287 0)
(9.99528 0.00386797 0)
(9.99333 -0.0103143 0)
(10.007 -0.0271073 0)
(10.0212 -0.0389312 0)
(10.0311 -0.04487 0)
(10.0391 -0.046477 0)
(10.0466 -0.0459939 0)
(10.0529 -0.0450373 0)
(10.058 -0.0441625 0)
(10.062 -0.0433904 0)
(10.0651 -0.0426777 0)
(10.0674 -0.0420215 0)
(10.0689 -0.0414282 0)
(10.0699 -0.0408974 0)
(10.0703 -0.0404268 0)
(10.0702 -0.0400152 0)
(10.0699 -0.0396533 0)
(10.0692 -0.0393141 0)
(9.99144 -0.017294 0)
(9.99188 0.000363769 0)
(10.01 0.0176626 0)
(10.0295 0.0115841 0)
(10.0441 -0.00511466 0)
(10.0541 -0.0188321 0)
(10.0599 -0.0271797 0)
(10.0622 -0.0320582 0)
(10.0616 -0.0349411 0)
(10.059 -0.036548 0)
(10.0548 -0.0373264 0)
(10.0494 -0.0376015 0)
(10.0431 -0.0375861 0)
(10.036 -0.0374097 0)
(10.0284 -0.0371562 0)
(10.0205 -0.0368866 0)
(10.0124 -0.0366564 0)
(10.0042 -0.0364345 0)
(10.0236 -0.206008 0)
(10.0684 -0.31234 0)
(10.0788 -0.255594 0)
(10.0704 -0.184179 0)
(10.0605 -0.134905 0)
(10.0498 -0.10273 0)
(10.0342 -0.0811709 0)
(10.0129 -0.0666254 0)
(9.98774 -0.0566346 0)
(9.9605 -0.0494798 0)
(9.93227 -0.0441234 0)
(9.90375 -0.0399759 0)
(9.87544 -0.0366791 0)
(9.84768 -0.0340001 0)
(9.82068 -0.031791 0)
(9.79459 -0.0299883 0)
(9.76964 -0.0285617 0)
(9.74585 -0.0278276 0)
(9.94226 0.671595 0)
(9.87995 0.567454 0)
(9.77443 0.338465 0)
(9.63236 0.183317 0)
(9.48761 0.0949042 0)
(9.35648 0.0470809 0)
(9.2409 0.0212957 0)
(9.13937 0.00707378 0)
(9.05041 -0.000986041 0)
(8.9724 -0.00562766 0)
(8.90361 -0.00831721 0)
(8.84251 -0.00987979 0)
(8.78786 -0.0107856 0)
(8.73865 -0.0113035 0)
(8.69408 -0.0115943 0)
(8.65342 -0.0117827 0)
(8.61585 -0.0119624 0)
(8.58096 -0.0124944 0)
(0.00431152 -0.0104307 -3.54111e-20)
(0.0143658 -0.0151124 3.49698e-20)
(0.0224919 -0.0121939 0)
(0.0270687 -0.00634287 0)
(0.0273411 -6.21743e-05 0)
(0.0235954 0.00525678 -3.27865e-20)
(0.0167484 0.00912689 0)
(0.00752746 0.011684 0)
(-0.00344743 0.0133219 0)
(-0.015732 0.01442 0)
(-0.0290887 0.0152308 3.00423e-20)
(-0.043357 0.0159015 0)
(-0.0584437 0.0165103 0)
(-0.0742982 0.0170942 0)
(-0.0908905 0.0176679 0)
(-0.1082 0.0182351 2.68337e-20)
(-0.126211 0.0187946 0)
(-0.144908 0.0193438 0)
(-0.164273 0.0198794 0)
(-0.18429 0.0203975 0)
(-0.20494 0.0208938 0)
(-0.2262 0.0213628 0)
(-0.248047 0.0217985 0)
(-0.270454 0.0221957 2.29334e-20)
(-0.293393 0.0225543 -2.25588e-20)
(-0.316839 0.0228809 2.22091e-20)
(-0.340771 0.0231838 2.18841e-20)
(-0.365167 0.0234602 0)
(-0.389991 0.0236984 0)
(-0.415168 0.023937 -2.10537e-20)
(-0.440729 0.0244269 -2.08252e-20)
(-0.467105 0.0263757 0)
(-0.49405 0.0357702 0)
(-0.522653 0.0273659 -2.1735e-20)
(-0.551834 0.0226263 0)
(-0.578824 0.0315552 0)
(-0.609124 0.0325282 1.97809e-20)
(-0.639855 0.0426898 0)
(-0.672344 0.0406871 2.07527e-20)
(-0.707312 0.0439895 4.06426e-20)
(-0.74314 0.0507527 0)
(-0.783236 0.0624885 0)
(-0.822713 0.0635583 0)
(-0.863012 0.0348529 0)
(-0.898451 0.0269963 0)
(-0.934212 0.0320175 4.04977e-20)
(-0.973353 0.0330835 4.00422e-20)
(-1.01312 0.0338679 3.95936e-20)
(-1.05364 0.0342411 0)
(-1.09455 0.0343857 -3.87266e-20)
(-1.13571 0.03438 0)
(-1.177 0.0342745 3.79055e-20)
(-1.21835 0.0340998 3.7512e-20)
(-1.25969 0.0338749 0)
(-1.30098 0.0336119 0)
(-1.34218 0.0333185 0)
(-1.38325 0.0329996 3.60403e-20)
(-1.42417 0.032658 0)
(-1.46491 0.0322957 0)
(-1.50543 0.0319134 0)
(-1.54571 0.0315116 0)
(-1.58573 0.0310903 0)
(-1.62544 0.0306492 0)
(-1.66483 0.0301881 0)
(-1.70385 0.0297065 0)
(-1.74248 0.0292042 -3.3147e-20)
(-1.78068 0.0286809 0)
(-1.81841 0.0281363 0)
(-1.85565 0.0275703 3.22494e-20)
(-1.89235 0.0269829 3.19523e-20)
(-1.92848 0.0263743 0)
(-1.96401 0.0257445 -3.13577e-20)
(-1.99888 0.0250941 3.10591e-20)
(-2.03307 0.0244232 0)
(-2.06653 0.0237326 -3.04563e-20)
(-2.09923 0.0230228 0)
(-2.13114 0.0222945 0)
(-2.16221 0.0215485 2.95302e-20)
(-2.1924 0.0207854 0)
(-2.22168 0.0200062 -2.88919e-20)
(-2.25001 0.0192116 0)
(-2.27737 0.0184024 2.82322e-20)
(-2.3037 0.0175793 2.78932e-20)
(-2.32898 0.0167428 2.75473e-20)
(-2.35318 0.0158935 5.43884e-20)
(-2.37625 0.0150313 -5.3667e-20)
(-2.39818 0.0141563 0)
(-2.41891 0.0132678 0)
(-2.43843 0.0123646 0)
(-2.45669 0.0114449 -5.0612e-20)
(-2.47366 0.0105057 -4.98023e-20)
(-2.48931 0.00954315 4.89729e-20)
(-2.50358 0.00855265 0)
(-2.51644 0.00752871 -4.72529e-20)
(-2.52783 0.00646466 -4.63614e-20)
(-2.53769 0.00535417 -4.54485e-20)
(-2.54594 0.00419718 0)
(-2.5525 0.00301181 0)
(-2.55727 0.00184279 0)
(-2.56011 0.000747581 -4.15778e-20)
(-2.56118 -0.000223385 0)
(-2.56085 -0.00107304 0)
(-2.55903 -0.00189228 3.84033e-20)
(-2.55575 -0.00269761 0)
(-2.55101 -0.00349644 0)
(-2.54479 -0.00429006 3.49941e-20)
(-2.53709 -0.00507852 0)
(-2.52789 -0.00586122 0)
(-2.51719 -0.00663737 -3.13463e-20)
(-2.50497 -0.00740614 -3.00775e-20)
(-2.49124 -0.00816668 0)
(-2.476 -0.00891814 2.74615e-20)
(-2.45924 -0.0096597 0)
(-2.44097 -0.0103905 -2.47429e-20)
(-2.42118 -0.0111099 0)
(-2.39989 -0.0118169 -2.19246e-20)
(-2.3771 -0.012511 -2.04793e-20)
(-2.35282 -0.0131912 0)
(-2.32707 -0.013857 0)
(-2.29984 -0.0145075 0)
(-2.27117 -0.0151422 0)
(-2.24107 -0.0157604 0)
(-2.20955 -0.0163614 0)
(-2.17664 -0.0169448 0)
(-2.14236 -0.01751 -8.13526e-21)
(-2.10673 -0.0180565 6.50686e-21)
(-2.06978 -0.0185837 0)
(-2.03153 -0.0190912 0)
(-1.99203 -0.0195786 0)
(-1.95128 -0.0200453 0)
(-1.90934 -0.0204911 -3.69916e-21)
(-1.86623 -0.0209156 0)
(-1.82198 -0.0213185 1.05405e-20)
(-1.77664 -0.0216997 -1.39845e-20)
(-1.73024 -0.0220589 0)
(-1.68282 -0.022396 0)
(-1.63442 -0.0227108 0)
(-1.58508 -0.0230033 2.78541e-20)
(-1.53485 -0.0232735 3.1331e-20)
(-1.48376 -0.0235215 0)
(-1.43186 -0.0237474 3.82766e-20)
(-1.37918 -0.0239513 4.17395e-20)
(-1.32579 -0.0241335 -4.51922e-20)
(-1.27171 -0.0242943 0)
(-1.21699 -0.024434 0)
(-1.16168 -0.0245532 -5.54604e-20)
(-1.10581 -0.0246522 0)
(-1.04944 -0.0247316 0)
(-0.992595 -0.0247919 0)
(-0.935327 -0.024834 0)
(-0.877673 -0.0248585 7.21124e-20)
(-0.81967 -0.0248661 7.53504e-20)
(-0.761357 -0.0248577 0)
(-0.702768 -0.0248342 8.17149e-20)
(-0.643939 -0.0247965 0)
(-0.584901 -0.0247455 0)
(-0.525685 -0.0246822 9.09506e-20)
(-0.466319 -0.0246072 0)
(-0.406831 -0.0245214 9.68774e-20)
(-0.347247 -0.0244248 0)
(-0.287593 -0.0243174 0)
(-0.227896 -0.0241966 1.05387e-19)
(-0.168185 -0.0240554 0)
(-0.108489 -0.0238897 1.1079e-19)
(-0.0488311 -0.0236933 0)
(0.0107471 -0.023414 0)
(0.0701178 -0.0230346 0)
(0.129377 -0.0226501 -1.17517e-19)
(0.18852 -0.0222896 0)
(0.24756 -0.021947 1.19035e-19)
(0.306502 -0.0216117 0)
(0.365334 -0.0212733 0)
(0.424008 -0.0209172 0)
(0.482419 -0.0205199 0)
(0.540389 -0.0200356 0)
(0.597414 -0.0193723 0)
(0.653074 -0.0182833 0)
(0.703287 -0.0161387 -2.45425e-19)
(0.752106 -0.0113148 0)
(0.754276 0.00630203 0)
(0.00372394 -0.028759 1.05231e-19)
(0.00762535 -0.0266464 -1.01054e-19)
(0.00669679 -0.0150535 0)
(0.00334041 -0.00298366 6.11436e-20)
(-0.00204865 0.00814558 0)
(-0.00930945 0.0176625 2.87292e-20)
(-0.0184095 0.0253239 -5.60141e-20)
(-0.0292469 0.0312452 -5.46949e-20)
(-0.041686 0.0357509 0)
(-0.055557 0.0392317 -5.21718e-20)
(-0.0706849 0.0420227 -2.54866e-20)
(-0.0869179 0.0443659 0)
(-0.104139 0.046421 0)
(-0.122263 0.0482864 0)
(-0.141232 0.0500188 0)
(-0.161008 0.0516491 -2.26974e-20)
(-0.181567 0.0531933 0)
(-0.202894 0.0546591 4.34412e-20)
(-0.224982 0.0560499 0)
(-0.247831 0.0573667 0)
(-0.271442 0.0586094 -4.09198e-20)
(-0.295825 0.059778 0)
(-0.320994 0.0608737 3.9476e-20)
(-0.346971 0.0619015 -1.94351e-20)
(-0.373786 0.0628721 1.9135e-20)
(-0.40148 0.0638009 -1.88597e-20)
(-0.430105 0.0647015 -1.86099e-20)
(-0.459727 0.0655755 0)
(-0.49043 0.06641 0)
(-0.522325 0.067192 1.80193e-20)
(-0.555614 0.0679325 -1.78084e-20)
(-0.59006 0.0687624 0)
(-0.6247 0.0703107 0)
(-0.661676 0.0724025 1.79397e-20)
(-0.699539 0.0728577 0)
(-0.739392 0.0735294 0)
(-0.779911 0.074086 -1.73771e-20)
(-0.820343 0.0757419 0)
(-0.862226 0.0781799 1.72773e-20)
(-0.903453 0.079183 -3.41582e-20)
(-0.945018 0.0805885 0)
(-0.983378 0.0814843 0)
(-1.02244 0.0834515 -6.65051e-20)
(-1.06307 0.0846135 -6.57675e-20)
(-1.10553 0.0858341 -6.4964e-20)
(-1.14708 0.0873401 3.20011e-20)
(-1.18688 0.0880645 -3.17902e-20)
(-1.22587 0.0882294 -9.41298e-20)
(-1.26436 0.0880369 6.20035e-20)
(-1.30248 0.0875876 3.07369e-20)
(-1.34028 0.0869588 0)
(-1.37779 0.0861999 -3.00881e-20)
(-1.41502 0.0853445 2.96301e-20)
(-1.45196 0.0844149 0)
(-1.48861 0.0834259 0)
(-1.52496 0.0823869 0)
(-1.56099 0.081304 -2.86157e-20)
(-1.59669 0.0801806 0)
(-1.63204 0.0790186 5.59991e-20)
(-1.66702 0.0778186 0)
(-1.70161 0.0765808 5.49565e-20)
(-1.73579 0.0753047 0)
(-1.76954 0.0739896 -5.39464e-20)
(-1.80284 0.0726348 0)
(-1.83566 0.0712395 5.29605e-20)
(-1.86797 0.0698032 -2.61658e-20)
(-1.89976 0.0683254 0)
(-1.93098 0.0668058 -5.15099e-20)
(-1.96163 0.0652443 -2.55833e-20)
(-1.99165 0.0636414 -2.53423e-20)
(-2.02104 0.0619972 0)
(-2.04976 0.0603126 -2.47299e-20)
(-2.07777 0.0585885 -2.46148e-20)
(-2.10506 0.0568259 0)
(-2.13159 0.0550261 2.41217e-20)
(-2.15734 0.0531906 -4.76285e-20)
(-2.18227 0.0513211 0)
(-2.20636 0.0494192 -2.33616e-20)
(-2.22957 0.0474869 0)
(-2.25188 0.0455259 6.84123e-20)
(-2.27327 0.0435382 0)
(-2.2937 0.0415257 -6.67923e-20)
(-2.31315 0.0394902 -2.20137e-20)
(-2.33159 0.0374336 2.16525e-20)
(-2.34899 0.0353574 4.27345e-20)
(-2.36534 0.033263 -4.2152e-20)
(-2.38059 0.0311517 0)
(-2.39474 0.0290242 0)
(-2.40775 0.0268812 0)
(-2.4196 0.0247226 1.19224e-19)
(-2.43027 0.0225478 3.91025e-20)
(-2.43973 0.0203555 -3.84217e-20)
(-2.44796 0.0181437 0)
(-2.45496 0.0159103 -3.69901e-20)
(-2.4607 0.0136522 3.62818e-20)
(-2.4652 0.0113651 3.55348e-20)
(-2.46847 0.00904593 0)
(-2.47055 0.00670477 0)
(-2.47155 0.00438282 0)
(-2.47157 0.00214265 3.23628e-20)
(-2.47052 7.78329e-06 0)
(-2.46808 -0.00203403 -6.13988e-20)
(-2.46427 -0.00403769 -8.94254e-20)
(-2.45904 -0.00601643 5.78691e-20)
(-2.45236 -0.00797683 0)
(-2.44424 -0.0099193 2.71735e-20)
(-2.43464 -0.0118426 0)
(-2.42356 -0.0137448 5.03737e-20)
(-2.411 -0.0156235 -2.43053e-20)
(-2.39695 -0.0174765 -2.33135e-20)
(-2.3814 -0.0193015 0)
(-2.36435 -0.0210963 -6.33361e-20)
(-2.3458 -0.0228589 4.02039e-20)
(-2.32576 -0.0245871 1.88947e-20)
(-2.30422 -0.026279 0)
(-2.2812 -0.0279329 1.66958e-20)
(-2.2567 -0.0295468 4.70427e-20)
(-2.23072 -0.031119 0)
(-2.20329 -0.0326479 2.6921e-20)
(-2.17441 -0.0341319 2.46053e-20)
(-2.1441 -0.0355693 2.22635e-20)
(-2.11237 -0.036959 0)
(-2.07925 -0.0382995 0)
(-2.04475 -0.0395898 0)
(-2.00889 -0.0408287 -6.54431e-21)
(-1.97171 -0.0420153 -4.88679e-21)
(-1.93322 -0.0431486 0)
(-1.89346 -0.0442279 -5.25736e-21)
(-1.85245 -0.0452523 -2.75865e-21)
(-1.81022 -0.0462212 0)
(-1.7668 -0.047134 2.75965e-21)
(-1.72223 -0.0479903 9.60894e-21)
(-1.67655 -0.04879 -7.84311e-21)
(-1.62978 -0.0495328 -9.37599e-21)
(-1.58197 -0.0502188 0)
(-1.53315 -0.050848 0)
(-1.48337 -0.0514206 0)
(-1.43267 -0.0519368 -2.05983e-20)
(-1.38108 -0.0523972 2.20721e-20)
(-1.32864 -0.0528024 5.02809e-20)
(-1.27541 -0.0531534 -2.82074e-20)
(-1.22142 -0.0534508 2.96365e-20)
(-1.16672 -0.0536956 3.32304e-20)
(-1.11135 -0.053889 0)
(-1.05535 -0.0540324 0)
(-0.998762 -0.0541274 -3.95555e-20)
(-0.941636 -0.0541753 0)
(-0.884011 -0.0541779 0)
(-0.825927 -0.0541369 9.47083e-20)
(-0.767426 -0.0540545 0)
(-0.708547 -0.0539327 5.15262e-20)
(-0.649327 -0.0537735 -5.49303e-20)
(-0.589805 -0.0535792 0)
(-0.530015 -0.0533523 5.84026e-20)
(-0.469991 -0.053095 0)
(-0.409764 -0.0528098 0)
(-0.349365 -0.0524989 -6.60517e-20)
(-0.288821 -0.0521644 1.3531e-19)
(-0.22816 -0.051808 -7.02631e-20)
(-0.167405 -0.0514305 0)
(-0.106581 -0.0510309 0)
(-0.0457103 -0.0506076 7.52964e-20)
(0.0151835 -0.0501567 0)
(0.0760755 -0.0496759 7.81669e-20)
(0.136949 -0.0491727 0)
(0.197787 -0.0486453 0)
(0.258574 -0.0480829 0)
(0.319339 -0.0475122 8.31363e-20)
(0.380069 -0.0469569 0)
(0.440757 -0.046415 -8.48898e-20)
(0.501394 -0.0458738 0)
(0.561952 -0.0453137 0)
(0.622376 -0.0447042 1.7347e-19)
(0.682557 -0.0439935 -1.74796e-19)
(0.742306 -0.0430811 0)
(0.801189 -0.0417725 0)
(0.858756 -0.0395675 0)
(0.912467 -0.0355118 5.39656e-19)
(0.96489 -0.0263613 0)
(0.995405 -0.00418822 -3.67182e-19)
(0.000622664 -0.0332214 -4.42077e-23)
(-0.00288489 -0.0200702 1.309e-19)
(-0.00944577 -0.00335421 0)
(-0.0171847 0.0118935 -1.12505e-19)
(-0.0261508 0.025533 0)
(-0.0361869 0.0374708 0)
(-0.0472894 0.0476566 1.16015e-23)
(-0.0595223 0.0561561 4.85712e-20)
(-0.072931 0.0631638 4.73587e-20)
(-0.0875096 0.0689521 4.62465e-20)
(-0.10321 0.0738048 0)
(-0.119963 0.077972 0)
(-0.137701 0.0816505 -4.31393e-20)
(-0.156364 0.0849843 -8.43731e-20)
(-0.175904 0.0880727 8.25479e-20)
(-0.19629 0.0909819 0)
(-0.217501 0.0937553 7.91435e-20)
(-0.239527 0.0964218 -3.87974e-20)
(-0.262366 0.0990011 0)
(-0.286025 0.101508 7.46553e-20)
(-0.310514 0.103956 3.66762e-20)
(-0.335853 0.106358 -7.2067e-20)
(-0.362062 0.108728 -3.54615e-20)
(-0.389169 0.111088 0)
(-0.417203 0.113462 6.87695e-20)
(-0.446196 0.11588 6.7822e-20)
(-0.476173 0.118367 0)
(-0.507157 0.120942 6.61424e-20)
(-0.539164 0.123616 0)
(-0.572197 0.126401 6.47175e-20)
(-0.606234 0.129324 3.2059e-20)
(-0.641143 0.132484 0)
(-0.676533 0.135755 0)
(-0.712563 0.138483 0)
(-0.749297 0.140821 0)
(-0.786609 0.143376 0)
(-0.823993 0.145633 0)
(-0.861046 0.147741 5.98826e-20)
(-0.897822 0.149281 -8.891e-20)
(-0.934231 0.15013 0)
(-0.970171 0.150577 0)
(-1.00502 0.150375 0)
(-1.03932 0.148887 -1.37067e-23)
(-1.0741 0.146237 5.5644e-20)
(-1.10958 0.144236 1.09819e-19)
(-1.14476 0.142954 -1.08405e-19)
(-1.17931 0.14175 -5.34815e-20)
(-1.21341 0.14051 5.28903e-20)
(-1.24716 0.139184 -7.75717e-23)
(-1.28064 0.13776 5.15381e-20)
(-1.31387 0.136242 0)
(-1.34688 0.134642 5.03314e-20)
(-1.37968 0.132972 -8.53591e-23)
(-1.41228 0.131239 0)
(-1.44467 0.12945 0)
(-1.47685 0.127609 -4.81015e-20)
(-1.5088 0.125719 0)
(-1.54051 0.123779 0)
(-1.57197 0.12179 4.64671e-20)
(-1.60315 0.11975 9.21353e-20)
(-1.63404 0.117658 -4.56781e-20)
(-1.66461 0.115513 0)
(-1.69485 0.113312 4.47316e-20)
(-1.72472 0.111055 0)
(-1.75421 0.108739 4.36183e-20)
(-1.7833 0.106364 4.33536e-20)
(-1.81194 0.10393 -8.56171e-20)
(-1.84013 0.101435 -4.22681e-20)
(-1.86782 0.0988795 0)
(-1.89499 0.0962643 8.29421e-20)
(-1.92161 0.09359 0)
(-1.94765 0.0908575 1.21838e-19)
(-1.97309 0.0880682 8.02791e-20)
(-1.99789 0.085224 7.93874e-20)
(-2.02202 0.0823267 -7.84915e-20)
(-2.04545 0.0793787 1.16462e-19)
(-2.06816 0.0763823 0)
(-2.0901 0.0733402 0)
(-2.11127 0.0702551 -7.48395e-20)
(-2.13161 0.0671299 -1.1092e-19)
(-2.15111 0.0639675 0)
(-2.16974 0.0607708 3.60552e-20)
(-2.18746 0.0575426 0)
(-2.20426 0.0542857 -1.05096e-19)
(-2.2201 0.0510028 -9.20902e-23)
(-2.23496 0.0476963 8.35438e-23)
(-2.24881 0.0443684 6.69623e-20)
(-2.26163 0.0410212 0)
(-2.27339 0.0376564 -6.48252e-20)
(-2.28408 0.0342757 -4.66907e-23)
(-2.29366 0.0308807 0)
(-2.30213 0.027473 0)
(-2.30946 0.0240547 0)
(-2.31565 0.0206291 5.91222e-20)
(-2.32067 0.0172016 0)
(-2.32454 0.0137805 0)
(-2.32725 0.0103788 0)
(-2.32879 0.00701398 0)
(-2.32916 0.00370508 0)
(-2.32833 0.000460732 5.1458e-20)
(-2.32623 -0.00274723 0)
(-2.32279 -0.00594505 4.8597e-20)
(-2.31799 -0.00912505 4.71592e-20)
(-2.31182 -0.0122837 -4.56961e-20)
(-2.30424 -0.0154176 0)
(-2.29525 -0.0185231 -4.26938e-20)
(-2.28484 -0.0215965 0)
(-2.27299 -0.0246338 -3.95912e-20)
(-2.2597 -0.0276311 3.8003e-20)
(-2.24496 -0.0305847 1.09526e-19)
(-2.22877 -0.0334907 0)
(-2.21112 -0.0363458 9.96866e-20)
(-2.19202 -0.0391463 3.18361e-20)
(-2.17146 -0.0418892 0)
(-2.14945 -0.0445714 5.64373e-20)
(-2.126 -0.0471897 5.29682e-20)
(-2.1011 -0.0497415 -7.39345e-20)
(-2.07478 -0.0522239 0)
(-2.04703 -0.0546343 -2.08896e-20)
(-2.01788 -0.0569702 -1.90709e-20)
(-1.98734 -0.0592292 -5.22972e-20)
(-1.95542 -0.0614092 0)
(-1.92214 -0.063508 0)
(-1.88752 -0.065524 0)
(-1.85159 -0.0674555 -1.04186e-20)
(-1.81436 -0.0693011 0)
(-1.77586 -0.0710593 0)
(-1.73612 -0.072729 4.03867e-21)
(-1.69516 -0.074309 2.11689e-21)
(-1.65302 -0.0757982 0)
(-1.60972 -0.077196 0)
(-1.5653 -0.0785019 -7.35022e-21)
(-1.5198 -0.0797155 0)
(-1.47324 -0.0808368 1.50906e-20)
(-1.42566 -0.081866 1.81703e-20)
(-1.37711 -0.0828034 0)
(-1.32762 -0.0836491 0)
(-1.27722 -0.0844039 -2.97059e-20)
(-1.22596 -0.0850688 -8.1697e-22)
(-1.17389 -0.0856448 -8.2223e-22)
(-1.12103 -0.0861336 0)
(-1.06744 -0.0865366 -9.06235e-20)
(-1.01315 -0.0868555 0)
(-0.958213 -0.0870923 0)
(-0.902661 -0.0872492 0)
(-0.846541 -0.087329 6.05554e-20)
(-0.789893 -0.0873341 0)
(-0.732758 -0.0872673 -1.33884e-19)
(-0.675177 -0.0871316 -7.13339e-20)
(-0.617189 -0.0869305 0)
(-0.558833 -0.0866673 -7.83235e-20)
(-0.500145 -0.0863455 0)
(-0.441161 -0.0859688 0)
(-0.381915 -0.0855412 -2.63789e-19)
(-0.322441 -0.0850664 1.819e-19)
(-0.262769 -0.0845482 0)
(-0.202927 -0.0839905 1.94765e-19)
(-0.142943 -0.0833965 -1.01314e-19)
(-0.0828413 -0.082769 0)
(-0.0226456 -0.0821107 0)
(0.0376226 -0.0814231 0)
(0.0979425 -0.0807059 -3.34246e-19)
(0.158296 -0.0799577 0)
(0.218668 -0.0791792 -1.15786e-19)
(0.279048 -0.078377 0)
(0.339439 -0.0775643 0)
(0.399863 -0.0767511 0)
(0.460314 -0.075944 0)
(0.520777 -0.0751492 0)
(0.581234 -0.0743615 0)
(0.641664 -0.0735644 -2.535e-19)
(0.702036 -0.0727297 0)
(0.762292 -0.0718106 -1.30112e-19)
(0.822324 -0.0707269 3.92888e-19)
(0.881959 -0.06933 0)
(0.940833 -0.0673371 0)
(0.998606 -0.064133 -2.68645e-19)
(1.05358 -0.0585445 -2.72174e-19)
(1.10841 -0.0476352 2.74172e-19)
(1.15107 -0.0251263 2.78969e-19)
(-0.00308959 -0.024321 -2.07629e-19)
(-0.0115684 -0.00365196 -1.91576e-19)
(-0.0216268 0.0158347 -1.14943e-19)
(-0.0324449 0.0327992 -5.28444e-20)
(-0.0440445 0.0479017 0)
(-0.0562453 0.0613158 9.51327e-20)
(-0.0690805 0.0731013 -4.5883e-20)
(-0.0826558 0.0833332 0)
(-0.0970659 0.0921489 -4.33635e-20)
(-0.11237 0.0997425 0)
(-0.128589 0.106334 8.26255e-20)
(-0.14572 0.112138 0)
(-0.163741 0.117343 3.95004e-20)
(-0.182626 0.1221 7.73089e-20)
(-0.202351 0.126526 -7.56936e-20)
(-0.222894 0.130707 0)
(-0.244242 0.134705 -7.26863e-20)
(-0.266388 0.138565 0)
(-0.289329 0.14232 0)
(-0.313068 0.145997 -6.87125e-20)
(-0.337609 0.149616 0)
(-0.362959 0.153195 5.14597e-24)
(-0.389124 0.156752 0)
(-0.416108 0.160305 0)
(-0.443908 0.163869 -5.2473e-24)
(-0.472512 0.167457 -6.24884e-20)
(-0.501893 0.171072 -6.16336e-20)
(-0.532011 0.174703 -6.08315e-20)
(-0.562805 0.178324 0)
(-0.594196 0.181895 -1.18623e-19)
(-0.62608 0.185367 0)
(-0.658312 0.188687 -5.78705e-20)
(-0.690729 0.191755 0)
(-0.72323 0.194338 0)
(-0.755779 0.196423 5.5747e-20)
(-0.788289 0.198135 0)
(-0.82062 0.199388 -5.42945e-20)
(-0.852652 0.200256 -3.7768e-24)
(-0.884313 0.200578 1.05672e-19)
(-0.915642 0.200354 -1.04199e-19)
(-0.94666 0.199709 0)
(-0.977347 0.198611 0)
(-1.00784 0.196942 -4.99198e-20)
(-1.03841 0.194723 0)
(-1.06908 0.192515 -4.85485e-20)
(-1.09968 0.190456 4.78846e-20)
(-1.13009 0.188441 4.72403e-20)
(-1.16034 0.186423 0)
(-1.19043 0.184374 -4.60074e-20)
(-1.22038 0.182277 -4.54174e-20)
(-1.25019 0.180125 8.96247e-20)
(-1.27988 0.177915 -4.4286e-20)
(-1.30944 0.175649 -4.37431e-20)
(-1.33888 0.173324 0)
(-1.36819 0.170943 0)