/*--------------------------------*- C++ -*----------------------------------*\
  =========                 |
  \\      /  F ield         | OpenFOAM: The Open Source CFD Toolbox
   \\    /   O peration     | Website:  https://openfoam.org
    \\  /    A nd           | Version:  9
     \\/     M anipulation  |
\*---------------------------------------------------------------------------*/
FoamFile
{
    format      ascii;
    class       volScalarField;
    location    "1700";
    object      alphat;
}
// * * * * * * * * * * * * * * * * * * * * * * * * * * * * * * * * * * * * * //

dimensions      [1 -1 -1 0 0 0 0];

internalField   nonuniform List<scalar> 
4000
(
0.000359151
0.00032259
0.000260383
0.000172865
0.000148666
0.000144455
0.000127115
0.000113842
0.000110122
0.000110095
0.000110223
0.000109958
0.000112881
0.000124868
0.000136869
0.000149106
0.000185942
0.000286714
0.000339713
0.000370983
0.000395583
0.000374578
0.000334642
0.000308665
0.00028449
0.000248501
0.000165805
0.000145669
0.000141125
0.00014474
0.000144745
0.000141935
0.000145784
0.000171789
0.000255052
0.000287278
0.000308882
0.000338713
0.000380661
0.000402564
0.000413358
0.000398736
0.000373632
0.000346284
0.000313884
0.000277821
0.000237819
0.000180379
0.000153347
0.000161736
0.000161306
0.000152995
0.000192887
0.000242028
0.000283727
0.000318897
0.000349639
0.000376986
0.000403916
0.00041937
0.000422566
0.000413387
0.000389848
0.000358081
0.000319953
0.00028173
0.000245788
0.000205752
0.000176548
0.000176505
0.000175654
0.000182614
0.000216969
0.000251559
0.00028611
0.000324931
0.00036254
0.000393942
0.000418549
0.000428404
0.000428393
0.000425618
0.00041075
0.000390346
0.000368085
0.000347921
0.000330828
0.000316304
0.000305263
0.000298101
0.000300143
0.000308759
0.000320428
0.000334829
0.000351803
0.000372204
0.000394653
0.000415463
0.00043095
0.000434251
0.000433
0.000437236
0.000433835
0.000427333
0.000419721
0.000411465
0.000403272
0.000394838
0.00038646
0.000378534
0.000378889
0.000387062
0.000396079
0.000405167
0.000414083
0.000423103
0.000431474
0.000438728
0.000442809
0.000438921
0.000437739
0.000449324
0.000455755
0.000459272
0.000460947
0.000460325
0.000457458
0.00045238
0.000444953
0.000435398
0.000434754
0.000444091
0.000452274
0.000458358
0.000462302
0.00046398
0.000463329
0.000460734
0.000455022
0.000443715
0.000443402
0.00046225
0.000476926
0.000487728
0.000495741
0.000500704
0.000502225
0.000499795
0.000492731
0.000481349
0.000480165
0.000491305
0.00049915
0.000502726
0.000502446
0.000498701
0.000491823
0.00048198
0.000468019
0.000449413
0.000451306
0.000478574
0.000500612
0.000517488
0.000530654
0.000540102
0.000545489
0.000545764
0.000539503
0.000526363
0.000524752
0.000537967
0.000545046
0.000545985
0.000541954
0.000533819
0.00052179
0.000505832
0.000484434
0.000457337
0.000463278
0.000499053
0.000528574
0.000550958
0.0005689
0.000582929
0.000592708
0.000597288
0.00059529
0.000585217
0.000583915
0.000595019
0.000597754
0.000594038
0.000585265
0.000572257
0.000555272
0.000533692
0.000504764
0.000469279
0.00032259
0.000302842
0.000246058
0.000193979
0.000186234
0.000189043
0.000172595
0.00014362
0.0001298
0.000128008
0.000128086
0.000129783
0.000140352
0.000164948
0.000183445
0.000190606
0.00020435
0.000266949
0.000319172
0.000340116
0.000374578
0.000494699
0.000451906
0.000424621
0.000423131
0.000399276
0.000332164
0.000299701
0.000318762
0.000377583
0.000372428
0.00032441
0.000304504
0.000349796
0.000415628
0.000424517
0.000419651
0.000453886
0.00052049
0.000382157
0.000398736
0.000567864
0.000565097
0.000506541
0.000452725
0.000410457
0.000369945
0.00033171
0.000334312
0.000413329
0.000394293
0.000335704
0.000337991
0.000377907
0.000422761
0.000464763
0.000523821
0.000590803
0.000587571
0.000405577
0.000413387
0.00056384
0.000574868
0.000522597
0.000451415
0.00039886
0.000355461
0.000317614
0.000318874
0.000411645
0.000371731
0.000304348
0.000322788
0.000363381
0.00040714
0.000459019
0.000530005
0.000585933
0.000576718
0.000420086
0.000425618
0.000585494
0.000614516
0.000574547
0.000487301
0.000417902
0.000366837
0.000322087
0.000299888
0.000313103
0.000307686
0.000303927
0.000334265
0.000378509
0.000428036
0.000496078
0.000580732
0.000622771
0.000595781
0.00043224
0.000437236
0.000607372
0.000651431
0.000641062
0.000576414
0.000483988
0.000425235
0.00038069
0.000357274
0.00035537
0.000356139
0.000364056
0.000392067
0.000437595
0.000495544
0.000584765
0.000648161
0.000660638
0.000617922
0.000443773
0.000449324
0.000621762
0.000673179
0.000697252
0.000693299
0.000644777
0.000567113
0.000496906
0.000458815
0.000442812
0.0004457
0.000466317
0.000507247
0.000578244
0.00065621
0.000702214
0.000706593
0.000684563
0.00063359
0.000455825
0.00046225
0.00062848
0.000679512
0.000731389
0.000782758
0.000798626
0.000790113
0.000766936
0.000728185
0.000692589
0.000694021
0.00072792
0.00076836
0.00079551
0.000806901
0.000792848
0.000743555
0.000692753
0.000641421
0.000468796
0.000478574
0.000612808
0.000671419
0.000718403
0.000755143
0.000776797
0.000785375
0.000775257
0.000738216
0.000681085
0.00067586
0.000728584
0.000768308
0.000784925
0.000782701
0.000765501
0.000731013
0.000684781
0.000624661
0.000485227
0.000499053
0.000536845
0.000569118
0.000595192
0.000617834
0.00063719
0.000652129
0.000660635
0.000660376
0.000649689
0.000648152
0.00066008
0.000661274
0.000653906
0.000640264
0.000622149
0.000600566
0.000575231
0.000543339
0.000505503
0.000260383
0.000246058
0.000212
0.00020172
0.000211167
0.000210869
0.000190572
0.000164367
0.00014736
0.000141062
0.000140005
0.00014352
0.000158067
0.000183762
0.00020627
0.000215284
0.000208311
0.000221315
0.000266667
0.000284844
0.000334642
0.000451906
0.000462809
0.000477213
0.000491929
0.000468669
0.000401618
0.000371995
0.000381162
0.000440043
0.000439432
0.000385589
0.000376397
0.00042469
0.00049508
0.000499479
0.000473875
0.000458186
0.000457134
0.000341071
0.000373632
0.000565097
0.000588984
0.000552853
0.00051774
0.000484615
0.00045126
0.000420909
0.00042367
0.000487876
0.000469036
0.000425228
0.000428236
0.000461693
0.000502163
0.000533808
0.000571694
0.000613601
0.000593114
0.000379618
0.000389848
0.000574868
0.00061571
0.000583038
0.00052509
0.000478146
0.000440994
0.000414561
0.000428351
0.000492575
0.000460053
0.000410315
0.00041534
0.000448147
0.000488359
0.000534764
0.000592243
0.000627382
0.000589184
0.000396752
0.00041075
0.000614516
0.000668333
0.000637827
0.000553786
0.000481693
0.000429042
0.000384732
0.000360375
0.000387347
0.000371066
0.000362564
0.000393973
0.000439238
0.000491728
0.000563524
0.000646807
0.000678491
0.00062613
0.000417764
0.000433835
0.000651431
0.000716432
0.000698146
0.000609795
0.000509755
0.00043797
0.000380159
0.00034254
0.00034457
0.000343885
0.00035376
0.00039524
0.000451878
0.000521579
0.000620245
0.000708328
0.000728175
0.000663519
0.000440518
0.000455755
0.000673179
0.000747408
0.000747593
0.00068456
0.000593446
0.000512675
0.000447101
0.000404982
0.000395367
0.000397863
0.000415537
0.000462343
0.000527971
0.000607157
0.000696894
0.000761121
0.000762616
0.000687302
0.000462329
0.000476926
0.000679512
0.000770267
0.000812921
0.000799319
0.000750403
0.000699572
0.00064955
0.000599575
0.00056244
0.000563143
0.000604199
0.000660045
0.000715676
0.000769337
0.000817586
0.000831666
0.000789922
0.000696077
0.000483599
0.000500612
0.000671419
0.000817255
0.000955129
0.00104345
0.00108689
0.00109741
0.0010777
0.00100889
0.000899958
0.000888833
0.000992073
0.00106767
0.001102
0.00110415
0.00106476
0.000977975
0.00083934
0.000687987
0.000507522
0.000528574
0.000569118
0.000603279
0.000631777
0.000657832
0.000681527
0.000701162
0.000713551
0.000715206
0.000703454
0.000701832
0.000715065
0.000714581
0.000703605
0.000685494
0.000663157
0.000638116
0.000610119
0.000576024
0.000535167
0.000172865
0.000193979
0.00020172
0.000216529
0.000224841
0.000218461
0.000198562
0.000177344
0.000161125
0.000153786
0.000151704
0.000154525
0.000168154
0.000191829
0.000215614
0.000225623
0.000222967
0.000207926
0.000203148
0.00018205
0.000308665
0.000424621
0.000477213
0.000513751
0.000527474
0.000492398
0.000435491
0.000414906
0.000432001
0.000493336
0.00049481
0.00043527
0.000417144
0.000453646
0.000528874
0.000546661
0.000516151
0.000473732
0.000422054
0.00031145
0.000346284
0.000506541
0.000552853
0.000553959
0.000543399
0.000523223
0.000498446
0.000472774
0.000482107
0.00055058
0.000533294
0.000481774
0.000481471
0.000511101
0.000543348
0.000563319
0.000571946
0.00057307
0.000527654
0.000352792
0.000358081
0.000522597
0.000583038
0.000579333
0.000551142
0.000521925
0.000497917
0.000482621
0.0004985
0.000558764
0.000527944
0.000484746
0.000481729
0.000503611
0.000533206
0.000563365
0.000590771
0.000595099
0.000535763
0.000365951
0.000390346
0.000574547
0.000637827
0.000630106
0.000580103
0.000529563
0.000490238
0.000459382
0.000454402
0.000516147
0.000482069
0.00044707
0.00046423
0.000497795
0.000538965
0.000591009
0.000642304
0.000651282
0.000588242
0.000397556
0.000427333
0.000641062
0.000698146
0.000690281
0.000627388
0.000552299
0.000491043
0.000439079
0.000403425
0.000413252
0.000408241
0.000413346
0.000452515
0.000503169
0.000563226
0.000638733
0.000703519
0.000713005
0.000654601
0.000433816
0.000459272
0.000697252
0.000747593
0.000745258
0.000690396
0.00061269
0.00054339
0.000485007
0.000442256
0.000434943
0.000437216
0.000455021
0.000501806
0.000559203
0.00062656
0.000704098
0.000761171
0.000765346
0.000711401
0.000465586
0.000487728
0.000731389
0.000812921
0.000845105
0.000820815
0.000766465
0.000714972
0.00066884
0.000619972
0.000577588
0.000578888
0.000626992
0.000683121
0.000734474
0.000787875
0.000842959
0.000869325
0.000835087
0.000747257
0.000494227
0.000517488
0.000718403
0.000955129
0.0011542
0.00119223
0.00121867
0.00125105
0.00126189
0.00120571
0.00108352
0.00107075
0.00119126
0.00125747
0.00126244
0.00124261
0.00122199
0.00118957
0.000981634
0.000736919
0.000524374
0.000550958
0.000595192
0.000631777
0.000663027
0.000693504
0.000722563
0.000747619
0.000764854
0.000769983
0.000760428
0.000759425
0.000770567
0.00076671
0.000750928
0.000727402
0.000699683
0.000670105
0.00063904
0.000602227
0.000557528
0.000148666
0.000186234
0.000211167
0.000224841
0.000226853
0.00021812
0.00020163
0.000184831
0.000170813
0.000165005
0.000163035
0.00016392
0.000175504
0.000193999
0.000213687
0.000224867
0.000225534
0.000215122
0.000189894
0.000146899
0.00028449
0.000423131
0.000491929
0.000527474
0.000523729
0.000485453
0.000453875
0.000443661
0.000465216
0.000542871
0.000549841
0.000470728
0.000443266
0.000460083
0.000517991
0.000555743
0.000543031
0.000495803
0.000423247
0.000288803
0.000313884
0.000452725
0.00051774
0.000543399
0.00054814
0.000540864
0.000521795
0.000501945
0.000518829
0.000606849
0.000593741
0.000518757
0.000508471
0.000532284
0.000557256
0.000569784
0.000562082
0.000533481
0.000466294
0.000320988
0.000319953
0.000451415
0.00052509
0.000551142
0.000550707
0.000541645
0.000532353
0.000525097
0.000543688
0.000623275
0.000594663
0.000533669
0.000523885
0.000534673
0.000550862
0.000563296
0.000563191
0.000536252
0.00046226
0.000327934
0.000368085
0.000487301
0.000553786
0.000580103
0.000570785
0.000549643
0.000529133
0.000514351
0.000530463
0.000609863
0.000573642
0.000516441
0.000515356
0.000533591
0.000556876
0.000580498
0.000592001
0.000567934
0.000503115
0.000374909
0.000419721
0.000576414
0.000609795
0.000627388
0.000608886
0.000571182
0.000532414
0.000498702
0.000489628
0.000547151
0.000524245
0.000490405
0.000508112
0.000541793
0.000580298
0.000619337
0.000641266
0.0006276
0.000594692
0.00042578
0.000460947
0.000693299
0.00068456
0.000690396
0.000670956
0.000627778
0.00058037
0.000538298
0.000516253
0.000545241
0.000540204
0.000525239
0.000553435
0.000594968
0.000640945
0.000684502
0.000706959
0.000703722
0.000709055
0.000466886
0.000495741
0.000782758
0.000799319
0.000820815
0.000806157
0.000764508
0.000723694
0.000687441
0.000648136
0.000616237
0.000616997
0.000655661
0.000702863
0.000744059
0.000786572
0.000828613
0.000845161
0.000823722
0.000797168
0.00050195
0.000530654
0.000755143
0.00104345
0.00119223
0.00127712
0.00134604
0.00141253
0.00144019
0.00136463
0.00118842
0.00117831
0.00135298
0.00143812
0.00142646
0.0013722
0.00130798
0.00122558
0.00107058
0.00077354
0.000537325
0.0005689
0.000617834
0.000657832
0.000693504
0.000730637
0.000765629
0.000795822
0.000817736
0.00082665
0.000819925
0.000819677
0.000828041
0.000820382
0.00079983
0.00077096
0.000737082
0.000700721
0.000665093
0.000624751
0.000575348
0.000144455
0.000189043
0.000210869
0.000218461
0.00021812
0.000211232
0.000200919
0.000189259
0.000178877
0.000175818
0.000174262
0.00017214
0.000179855
0.000192049
0.000204756
0.00021332
0.000214671
0.000206318
0.000183389
0.000135968
0.000248501
0.000399276
0.000468669
0.000492398
0.000485453
0.000473799
0.000466237
0.000465061
0.000493096
0.000577266
0.000587438
0.00049932
0.000461427
0.000460925
0.000480956
0.000510863
0.000518091
0.000485213
0.000409685
0.000255352
0.000277821
0.000410457
0.000484615
0.000523223
0.000540864
0.000540618
0.000528263
0.000518559
0.000544256
0.000634102
0.000626578
0.000543919
0.000519783
0.000531698
0.000550354
0.000554477
0.000539185
0.000498702
0.000421202
0.000284408
0.00028173
0.00039886
0.000478146
0.000521925
0.000541645
0.000549376
0.000550647
0.000547579
0.00057097
0.000648666
0.000626103
0.000562116
0.000545898
0.000549158
0.000552304
0.000549333
0.00053102
0.00048661
0.000406122
0.000286867
0.000347921
0.000417902
0.000481693
0.000529563
0.000549643
0.000552676
0.000549085
0.000548717
0.000578493
0.000650593
0.000622255
0.000562757
0.000546334
0.00054992
0.00055591
0.000555273
0.000537083
0.000490661
0.000427512
0.000353617
0.000411465
0.000483988
0.000509755
0.000552299
0.000571182
0.000566469
0.000551076
0.000537988
0.000555568
0.000625162
0.000602734
0.000549458
0.00054304
0.000557104
0.000572586
0.000578447
0.000562108
0.000522453
0.000497767
0.000416941
0.000460325
0.000644777
0.000593446
0.00061269
0.000627778
0.000618041
0.000594154
0.000571466
0.000575809
0.000636862
0.000626851
0.000579631
0.000583298
0.000606181
0.000629059
0.00063894
0.000625931
0.000609628
0.00066385
0.000465918
0.000500704
0.000798626
0.000750403
0.000766465
0.000764508
0.000743511
0.000719924
0.000696127
0.000663151
0.000640215
0.000639566
0.000669504
0.000710105
0.000738808
0.000763863
0.000784792
0.000786982
0.000771262
0.000814707
0.000506618
0.000540102
0.000776797
0.00108689
0.00121867
0.00134604
0.00146037
0.00155444
0.00157329
0.00143539
0.00114896
0.00114025
0.00142596
0.00157145
0.00156593
0.001484
0.00137344
0.00124616
0.00111076
0.000792206
0.000546428
0.000582929
0.00063719
0.000681527
0.000722563
0.000765629
0.000806219
0.000841912
0.000868973
0.000882949
0.000881612
0.000881962
0.000885021
0.000872305
0.000846433
0.00081187
0.000772098
0.000729519
0.00068849
0.000643897
0.000589274
0.000127115
0.000172595
0.000190572
0.000198562
0.00020163
0.000200919
0.00019721
0.000191537
0.000186522
0.000188908
0.000188254
0.000180208
0.00018222
0.000187287
0.000191708
0.000193401
0.000191288
0.000183487
0.000164517
0.000122571
0.000165805
0.000332164
0.000401618
0.000435491
0.000453875
0.000466237
0.000473737
0.000483189
0.000520567
0.000601356
0.000613147
0.000526815
0.000476077
0.000460441
0.000453743
0.000447114
0.000435742
0.000406527
0.000335497
0.000167923
0.000237819
0.000369945
0.00045126
0.000498446
0.000521795
0.000528263
0.000527542
0.000530509
0.000560574
0.000607004
0.000604848
0.000559249
0.000525581
0.00052153
0.000526966
0.000525951
0.000505188
0.000456125
0.000373831
0.000240342
0.000245788
0.000355461
0.000440994
0.000497917
0.000532353
0.000550647
0.000555956
0.000557287
0.00057989
0.000583339
0.000574019
0.000571373
0.000552979
0.000551392
0.000547232
0.000531435
0.000499489
0.00044345
0.00035859
0.000248332
0.000330828
0.000366837
0.000429042
0.000490238
0.000529133
0.000549085
0.000558473
0.000567973
0.000594192
0.000565075
0.000555893
0.000580478
0.000562642
0.000555263
0.000547581
0.000529387
0.00049224
0.000433028
0.000373019
0.000335818
0.000403272
0.000425235
0.00043797
0.000491043
0.000532414
0.000551076
0.00055524
0.000559837
0.000584018
0.00055322
0.000543855
0.000576226
0.00056053
0.00055723
0.000553292
0.000535641
0.000496302
0.000445772
0.000434922
0.000408328
0.000457458
0.000567113
0.000512675
0.00054339
0.00058037
0.000594154
0.000589886
0.000585437
0.000606305
0.000615863
0.000605145
0.000605951
0.000592677
0.000597667
0.000601153
0.000587268
0.000551482
0.000523332
0.000582326
0.000462757
0.000502225
0.000790113
0.000699572
0.000714972
0.000723694
0.000719924
0.000710275
0.000689717
0.000653873
0.000627108
0.000623436
0.000657416
0.000699531
0.000724359
0.00073553
0.000738076
0.000728144
0.000713518
0.000806753
0.000507947
0.000545489
0.000785375
0.00109741
0.00125105
0.00141253
0.00155444
0.00164743
0.00161719
0.00136092
0.000976991
0.000963892
0.00134793
0.00161287
0.00165274
0.00156902
0.0014305
0.00126748
0.00111334
0.00079693
0.000551576
0.000592708
0.000652129
0.000701162
0.000747619
0.000795822
0.000841912
0.000883455
0.000917186
0.000940049
0.000952976
0.000953751
0.000942628
0.000921128
0.000888447
0.000847778
0.000802322
0.000754372
0.000707929
0.000658769
0.000599085
0.000113842
0.00014362
0.000164367
0.000177344
0.000184831
0.000189259
0.000191537
0.000192661
0.000194735
0.000202989
0.000202561
0.000189005
0.000183854
0.000181703
0.000179263
0.000175004
0.000167767
0.000155964
0.000137421
0.000110074
0.000145669
0.000299701
0.000371995
0.000414906
0.000443661
0.000465061
0.000483189
0.000505671
0.00052983
0.000474891
0.00047547
0.000532857
0.000497097
0.000467655
0.000447733
0.00042665
0.000398925
0.000357626
0.000290973
0.000140352
0.000180379
0.00033171
0.000420909
0.000472774
0.000501945
0.000518559
0.000530509
0.000543369
0.000519353
0.00035687
0.000348554
0.000511754
0.000533747
0.000519605
0.000509677
0.000496746
0.000470434
0.000418402
0.000330276
0.000180277
0.000205752
0.000317614
0.000414561
0.000482621
0.000525097
0.000547579
0.000557287
0.000561198
0.000500725
0.000331316
0.00032087
0.00048903
0.000552477
0.000550218
0.000541913
0.000519838
0.000477392
0.000409839
0.000316018
0.000209685
0.000316304
0.000322087
0.000384732
0.000459382
0.000514351
0.000548717
0.000567973
0.000574644
0.000489431
0.000363988
0.000348515
0.000477487
0.000566008
0.000560686
0.000542295
0.000509366
0.000456377
0.000384942
0.000327021
0.000321521
0.000394838
0.00038069
0.000380159
0.000439079
0.000498702
0.000537988
0.000559837
0.000567986
0.000473858
0.000407907
0.000390091
0.000464244
0.000563452
0.000556338
0.000535034
0.000497412
0.000440769
0.00038501
0.000387656
0.000399867
0.00045238
0.000496905
0.000447101
0.000485007
0.000538298
0.000571466
0.000585437
0.00059264
0.000534412
0.000496565
0.000479251
0.000525188
0.000592922
0.000586358
0.00057182
0.000539033
0.000487654
0.000453326
0.000508868
0.000457596
0.000499795
0.000766936
0.00064955
0.00066884
0.000687441
0.000696127
0.000689717
0.000662127
0.000615646
0.000584275
0.000573317
0.000612406
0.000665597
0.000695739
0.000702832
0.000692763
0.000672908
0.000656111
0.000781547
0.000505488
0.000545764
0.000775257
0.0010777
0.00126189
0.00144019
0.00157329
0.00161719
0.00146275
0.00111946
0.00100834
0.00100134
0.00110411
0.00145149
0.00161523
0.00157828
0.00144723
0.00126762
0.00108509
0.000783496
0.000551873
0.000597288
0.000660635
0.000713551
0.000764854
0.000817736
0.000868973
0.000917186
0.000960821
0.00100275
0.00104933
0.00105056
0.00100611
0.000965487
0.000922804
0.000875298
0.000824496
0.000771756
0.000720519
0.000667551
0.000603942
0.000110122
0.0001298
0.00014736
0.000161125
0.000170813
0.000178877
0.000186522
0.000194735
0.000202795
0.000213612
0.00021196
0.000197354
0.000187259
0.000178413
0.000170755
0.000163045
0.00015405
0.000141562
0.000127247
0.000107862
0.000141125
0.000318762
0.000381162
0.000432001
0.000465216
0.000493096
0.000520567
0.00052983
0.000416473
0.000489927
0.000494718
0.000402923
0.000521095
0.000512462
0.000485598
0.000458506
0.000426002
0.000378107
0.000320193
0.000137971
0.000153346
0.000334312
0.00042367
0.000482107
0.000518829
0.000544256
0.000560573
0.000519353
0.000324643
0.000616235
0.000626019
0.000311708
0.00050455
0.000555444
0.000541587
0.000516998
0.000480224
0.000421633
0.000334759
0.000150362
0.000176548
0.000318874
0.000428351
0.0004985
0.000543688
0.000570969
0.00057989
0.000500725
0.000333655
0.000830336
0.000838079
0.000328592
0.000483907
0.000573794
0.000567738
0.000540988
0.000492995
0.000417451
0.000306604
0.00017744
0.000305263
0.000299888
0.000360375
0.000454402
0.000530463
0.000578493
0.000594192
0.000489431
0.00039323
0.00108593
0.00108737
0.000389558
0.000472904
0.000583272
0.000567899
0.000519843
0.000446145
0.000357017
0.000300354
0.000311525
0.00038646
0.000357274
0.00034254
0.000403425
0.000489628
0.000555568
0.000584018
0.000473858
0.000453255
0.00131514
0.00131611
0.000454324
0.000458262
0.000572908
0.000545603
0.000482975
0.000402514
0.000344889
0.000361911
0.000391778
0.000444953
0.000458815
0.000404982
0.000442256
0.000516253
0.000575809
0.000606305
0.000534412
0.000549439
0.00146861
0.00147444
0.000549114
0.000518852
0.000595952
0.000565916
0.000508933
0.000440055
0.000408447
0.000468701
0.000450307
0.000492731
0.000728185
0.000599575
0.000619972
0.000648136
0.000663151
0.000653873
0.000615646
0.000643378
0.00149335
0.00150328
0.00064538
0.000609097
0.000649624
0.00065904
0.000643817
0.000617048
0.000602419
0.000741146
0.000498596
0.000539503
0.000738216
0.00100889
0.00120571
0.00136463
0.00143539
0.00136092
0.00111946
0.00108049
0.00150146
0.0015025
0.00108685
0.0011044
0.00135114
0.00143289
0.00136518
0.00120644
0.00101268
0.000744937
0.000545936
0.00059529
0.000660376
0.000715206
0.000769983
0.00082665
0.000882949
0.000940049
0.00100275
0.00108104
0.00117237
0.00117236
0.0010863
0.00100899
0.000946749
0.00089006
0.000834052
0.000777497
0.000722848
0.00066794
0.000602486
0.000110095
0.000128008
0.000141062
0.000153786
0.000165005
0.000175818
0.000188908
0.000202989
0.000213612
0.00022241
0.00021813
0.000207721
0.000197492
0.000183433
0.000170946
0.000160923
0.000150581
0.000138781
0.000126989
0.000108577
0.00014474
0.000377583
0.000440043
0.000493336
0.000542871
0.000577266
0.000601356
0.000474891
0.000489927
0.000330468
0.000318883
0.000480317
0.000456501
0.000597666
0.000581698
0.000550494
0.000502241
0.000449526
0.000382368
0.000142506
0.000161736
0.000413329
0.000487876
0.00055058
0.000606849
0.000634102
0.000607004
0.00035687
0.000616235
0.000485176
0.000472517
0.000637215
0.000339882
0.000599576
0.000640219
0.000615402
0.000558076
0.000494574
0.000419845
0.000159145
0.000176505
0.000411645
0.000492575
0.000558764
0.000623275
0.000648666
0.000583339
0.000331316
0.000830336
0.000655334
0.000639466
0.000871297
0.000322253
0.000567305
0.000647153
0.000624669
0.00056007
0.000492337
0.000407438
0.00017655
0.000298101
0.000313103
0.000387347
0.000516147
0.000609863
0.000650593
0.000565075
0.000363988
0.00108593
0.00084839
0.000826554
0.00113961
0.000361247
0.000543391
0.00063988
0.000600948
0.000508574
0.000382528
0.000315049
0.00030572
0.000378534
0.00035537
0.00034457
0.000413252
0.000547151
0.000625162
0.00055322
0.000407907
0.00131514
0.0010589
0.00102956
0.00138136
0.000411686
0.000528351
0.000609759
0.000535398
0.000411447
0.000345549
0.000360324
0.000384157
0.000435398
0.000442812
0.000395367
0.000434943
0.000545241
0.000636862
0.000615863
0.000496565
0.00146861
0.00126625
0.00122887
0.00153705
0.000494526
0.000589355
0.000618195
0.000531007
0.000429419
0.000397539
0.000451773
0.000440962
0.000481349
0.000692589
0.00056244
0.000577588
0.000616237
0.000640215
0.000627108
0.000584275
0.00149335
0.00142986
0.00138438
0.00156958
0.000581644
0.000610388
0.000625432
0.000604133
0.000571156
0.00056486
0.000704778
0.000487499
0.000526363
0.000681085
0.000899958
0.00108352
0.00118842
0.00114896
0.000976991
0.00100834
0.00150146
0.00152682
0.00148169
0.00154816
0.00101791
0.000960315
0.00113255
0.00118325
0.00108373
0.000905778
0.000688533
0.000533326
0.000585217
0.000649689
0.000703454
0.000760428
0.000819925
0.000881612
0.000952976
0.00104933
0.00117237
0.00124144
0.00122801
0.00118148
0.00105919
0.00096164
0.000889728
0.000828135
0.000768781
0.000711974
0.000658067
0.000593119
0.000110223
0.000128086
0.000140005
0.000151704
0.000163035
0.000174262
0.000188254
0.000202561
0.00021196
0.00021813
0.00021104
0.000202659
0.000193415
0.000180634
0.000168733
0.000159169
0.000149348
0.000138505
0.000127218
0.00010884
0.000144745
0.000372428
0.000439432
0.000494811
0.000549841
0.000587438
0.000613147
0.00047547
0.000494718
0.000318883
0.000296255
0.000457164
0.000448759
0.000585381
0.000565311
0.000531988
0.000482489
0.000430053
0.000370409
0.000143549
0.000161306
0.000394294
0.000469036
0.000533294
0.000593741
0.000626578
0.000604848
0.000348554
0.000626019
0.000472517
0.000441766
0.000613268
0.000328784
0.000580991
0.000608542
0.000579495
0.000522389
0.000460088
0.000386259
0.000159632
0.000175654
0.000371731
0.000460053
0.000527944
0.000594663
0.000626103
0.000574019
0.00032087
0.000838079
0.000639466
0.000601944
0.000850373
0.000309857
0.000552286
0.00061408
0.000585855
0.000523892
0.000457135
0.000361369
0.000183721
0.000300143
0.000307686
0.000371066
0.000482069
0.000573642
0.000622255
0.000555893
0.000348515
0.00108737
0.000826554
0.000782159
0.00112611
0.000347914
0.000532483
0.000611243
0.000565087
0.000475032
0.000366151
0.000309288
0.000309908
0.000378889
0.000356139
0.000343885
0.000408241
0.000524245
0.000602734
0.000543855
0.000390091
0.00131611
0.00102956
0.000977764
0.00137688
0.000399556
0.000518899
0.000590442
0.000513688
0.000400956
0.000343326
0.000361712
0.000385452
0.000434754
0.0004457
0.000397863
0.000437216
0.000540204
0.000626851
0.000605145
0.000479251
0.00147444
0.00122887
0.00116912
0.00154593
0.000490546
0.000587516
0.000617347
0.000530486
0.000430711
0.000399661
0.000455066
0.00044106
0.000480165
0.000694021
0.000563143
0.000578888
0.000616997
0.000639566
0.000623436
0.000573317
0.00150328
0.00138438
0.00131497
0.00158444
0.000581659
0.000614826
0.000632094
0.000609477
0.000573427
0.000565464
0.000706503
0.000487033
0.000524752
0.00067586
0.000888833
0.00107075
0.00117831
0.00114025
0.000963892
0.00100134
0.0015025
0.00148169
0.00141125
0.00155031
0.00101644
0.000946289
0.00112069
0.001173
0.00107143
0.000895957
0.000684371
0.00053249
0.000583915
0.000648152
0.000701832
0.000759425
0.000819677
0.000881962
0.000953751
0.00105056
0.00117236
0.00122801
0.00120408
0.00117881
0.00105956
0.000961826
0.000889532
0.000827583
0.000767744
0.000710589
0.000657081
0.00059264
0.000109958
0.000129783
0.00014352
0.000154525
0.00016392
0.00017214
0.000180208
0.000189005
0.000197354
0.000207721
0.000202659
0.00018896
0.000181393
0.00017434
0.000167842
0.00016108
0.000152903
0.000141563
0.000127966
0.000107992
0.000141935
0.00032441
0.000385589
0.00043527
0.000470728
0.00049932
0.000526815
0.000532857
0.000402923
0.000480317
0.000457164
0.00038859
0.00050836
0.000504388
0.000480336
0.000454422
0.000421764
0.000372578
0.000314081
0.000140104
0.000152995
0.000335704
0.000425228
0.000481774
0.000518757
0.000543919
0.000559249
0.000511754
0.000311708
0.000637216
0.000613268
0.000301247
0.000495077
0.000543894
0.000529802
0.000505723
0.000469788
0.000415214
0.000327334
0.000150666
0.000182614
0.000304348
0.000410315
0.000484746
0.000533669
0.000562116
0.000571373
0.00048903
0.000328592
0.000871297
0.000850373
0.000321387
0.000474983
0.000560902
0.000552641
0.00052523
0.000477731
0.000404035
0.000300466
0.000197376
0.000308759
0.000303927
0.000362564
0.00044707
0.000516441
0.000562757
0.000580478
0.000477487
0.000389559
0.00113962
0.00112611
0.000388718
0.000465338
0.000573656
0.000556562
0.000510399
0.000441593
0.000359258
0.000307806
0.000318766
0.000387062
0.000364056
0.00035376
0.000413346
0.000490405
0.000549458
0.000576226
0.000464244
0.000454324
0.00138136
0.00137688
0.000460786
0.000453633
0.000571122
0.000543957
0.000484462
0.000409095
0.00035372
0.000371213
0.000394139
0.000444091
0.000466317
0.000415537
0.000455021
0.000525239
0.000579631
0.000605951
0.000525188
0.000549114
0.00153705
0.00154593
0.000561576
0.000521684
0.000607647
0.000579401
0.000523452
0.000454029
0.000418801
0.000477359
0.000450785
0.000491305
0.00072792
0.000604199
0.000626992
0.000655661
0.000669504
0.000657416
0.000612406
0.00064538
0.00156958
0.00158444
0.000658277
0.000615942
0.000663426
0.00067559
0.000660318
0.000630321
0.000609457
0.000740524
0.000498474
0.000537967
0.000728584
0.000992072
0.00119126
0.00135298
0.00142596
0.00134793
0.00110411
0.00108685
0.00154816
0.00155031
0.00110136
0.00108805
0.00133329
0.00142824
0.00136393
0.00120352
0.00100529
0.000739637
0.000545901
0.000595019
0.00066008
0.000715065
0.000770567
0.000828041
0.000885021
0.000942628
0.00100611
0.0010863
0.00118148
0.00117881
0.00109032
0.0010114
0.000948493
0.000891826
0.000835757
0.0007789
0.000723822
0.00066894
0.00060368
0.000112881
0.000140352
0.000158067
0.000168154
0.000175504
0.000179855
0.00018222
0.000183854
0.000187259
0.000197492
0.000193415
0.000181393
0.000179286
0.000179287
0.000178556
0.000175482
0.000168753
0.000156725
0.000139561
0.00011055
0.000145784
0.000304504
0.000376397
0.000417144
0.000443266
0.000461427
0.000476077
0.000497097
0.000521095
0.000456501
0.000448759
0.00050836
0.000483546
0.000463227
0.000448692
0.000431157
0.000406338
0.000365975
0.000295966
0.000143984
0.000192887
0.000337991
0.000428236
0.000481471
0.000508471
0.000519783
0.000525581
0.000533747
0.00050455
0.000339883
0.000328784
0.000495077
0.000525775
0.000518127
0.000511851
0.000500152
0.000472674
0.000420431
0.00033251
0.00019424
0.000216969
0.000322788
0.00041534
0.000481729
0.000523885
0.000545898
0.000552979
0.000552477
0.000483907
0.000322253
0.000309857
0.000474983
0.000546845
0.000548202
0.000541155
0.000519774
0.00047835
0.000413103
0.000323828
0.00022774
0.000320428
0.000334265
0.000393973