/*--------------------------------*- C++ -*----------------------------------*\
  =========                 |
  \\      /  F ield         | OpenFOAM: The Open Source CFD Toolbox
   \\    /   O peration     | Website:  https://openfoam.org
    \\  /    A nd           | Version:  9
     \\/     M anipulation  |
\*---------------------------------------------------------------------------*/
FoamFile
{
    format      ascii;
    class       volScalarField;
    location    "1700";
    object      nut;
}
// * * * * * * * * * * * * * * * * * * * * * * * * * * * * * * * * * * * * * //

dimensions      [0 2 -1 0 0 0 0];

internalField   nonuniform List<scalar> 
4000
(
0.000309914
0.000278354
0.00022465
0.000149125
0.000128251
0.000124622
0.000109665
9.82134e-05
9.50041e-05
9.49805e-05
9.50912e-05
9.4862e-05
9.73834e-05
0.000107725
0.000118076
0.00012863
0.000160408
0.000247381
0.000293135
0.000320125
0.000341378
0.000323252
0.000288773
0.000266349
0.000245485
0.000214429
0.000143071
0.000125697
0.000121776
0.000124895
0.000124899
0.000122475
0.000125796
0.000148235
0.000220082
0.00024789
0.000266535
0.000292289
0.000328501
0.000347402
0.000356734
0.000344117
0.000322454
0.000298851
0.000270884
0.000239756
0.000205233
0.000155663
0.000132335
0.000139575
0.000139203
0.000132031
0.000166456
0.000208864
0.000244853
0.00027521
0.000301746
0.000325348
0.000348587
0.000361921
0.000364695
0.000356777
0.000336464
0.000309049
0.000276141
0.000243148
0.000212126
0.000177572
0.000152366
0.00015233
0.000151595
0.000157601
0.000187252
0.000217107
0.000246928
0.000280437
0.000312897
0.000339998
0.000361232
0.000369733
0.000369738
0.000367348
0.000354519
0.000336911
0.000317698
0.000300295
0.000285541
0.000273005
0.000263475
0.000257293
0.000259056
0.000266493
0.000276564
0.000288994
0.000303645
0.000321253
0.000340628
0.000358587
0.000371949
0.000374794
0.000373729
0.00037739
0.000374459
0.00036885
0.000362281
0.000355156
0.000348084
0.000340805
0.000333573
0.000326732
0.000327039
0.000334093
0.000341876
0.00034972
0.000357415
0.0003652
0.000372423
0.000378683
0.0003822
0.00037884
0.000377834
0.000387838
0.000393394
0.000396432
0.000397881
0.000397345
0.000394872
0.000390489
0.000384078
0.00037583
0.000375275
0.000383334
0.000390397
0.000395648
0.000399052
0.000400498
0.000399935
0.000397691
0.000392756
0.000382992
0.000382736
0.00039901
0.000411682
0.00042101
0.000427929
0.000432216
0.000433531
0.000431434
0.000425336
0.000415511
0.00041449
0.000424106
0.000430877
0.000433963
0.00043372
0.000430486
0.000424546
0.000416045
0.00040399
0.000387924
0.000389572
0.000413115
0.000432142
0.000446714
0.000458083
0.000466241
0.000470894
0.000471133
0.000465729
0.000454385
0.000452995
0.000464403
0.000470514
0.000471323
0.000467841
0.000460816
0.000450428
0.000436649
0.000418173
0.000394778
0.000399917
0.000430803
0.00045629
0.000475618
0.00049111
0.000503224
0.00051167
0.000515625
0.000513902
0.000505206
0.000504083
0.000513669
0.000516029
0.000512819
0.000505242
0.00049401
0.000479343
0.00046071
0.000435733
0.000405098
0.000278354
0.000261301
0.000212279
0.000167338
0.00016066
0.000163089
0.000148902
0.000123903
0.00011198
0.000110434
0.000110501
0.000111965
0.000121084
0.000142303
0.000158258
0.000164431
0.000176286
0.000230314
0.0002754
0.000293483
0.000323252
0.000426902
0.000389955
0.000366405
0.000365117
0.00034453
0.000286619
0.00025861
0.000275059
0.000325815
0.000321366
0.000279932
0.000262754
0.000301835
0.000358641
0.000366312
0.000362114
0.000391664
0.000449163
0.000329793
0.000344117
0.000490079
0.000487692
0.000437154
0.000390703
0.000354218
0.000319254
0.000286258
0.000288504
0.000356694
0.000340266
0.000289705
0.000291677
0.000326124
0.000364837
0.000401093
0.000452066
0.000509877
0.000507086
0.000350021
0.000356777
0.000486629
0.00049615
0.000451038
0.0003896
0.000344236
0.000306777
0.000274113
0.000275199
0.000355264
0.000320816
0.000262662
0.000278577
0.000313612
0.000351382
0.000396162
0.000457431
0.000505699
0.000497743
0.000362558
0.000367348
0.000505339
0.000530392
0.000495897
0.000420595
0.000360693
0.000316617
0.000277992
0.000258832
0.000270237
0.000265562
0.000262318
0.000288503
0.00032669
0.00036944
0.00042817
0.000501235
0.000537516
0.000514217
0.000373063
0.00037739
0.000524243
0.000562277
0.00055333
0.000497531
0.000417754
0.00036704
0.00032859
0.000308379
0.000306735
0.000307399
0.000314233
0.00033841
0.000377708
0.000427728
0.000504739
0.000559458
0.000570224
0.000533349
0.000383032
0.000387838
0.000536684
0.000581073
0.000601856
0.000598446
0.000556563
0.000489526
0.000428923
0.000396044
0.00038223
0.000384723
0.000402519
0.00043785
0.000499133
0.000566432
0.000606141
0.000609919
0.000590899
0.000546894
0.000393449
0.00039901
0.000542504
0.000586563
0.000631348
0.000675694
0.000689394
0.000682047
0.00066204
0.000628589
0.000597861
0.000599097
0.00062836
0.000663269
0.000686706
0.000696538
0.000684405
0.000641851
0.000597992
0.000553676
0.00040466
0.000413115
0.000528995
0.000579597
0.000620161
0.000651882
0.000670579
0.000677987
0.000669255
0.00063728
0.000587961
0.000583451
0.000628966
0.000663257
0.000677599
0.000675677
0.000660824
0.000631048
0.000591132
0.000539228
0.000418857
0.000430803
0.00046343
0.000491295
0.000513809
0.000533359
0.000550074
0.000562975
0.000570322
0.0005701
0.000560874
0.000559549
0.000569846
0.000570875
0.000564511
0.000552729
0.000537086
0.000518449
0.000496573
0.000469037
0.000436372
0.00022465
0.000212279
0.000182885
0.000174015
0.000182171
0.000181919
0.000164411
0.000141803
0.00012713
0.000121697
0.000120784
0.000123817
0.000136367
0.000158534
0.000177949
0.000185721
0.000179701
0.000190923
0.00023007
0.000245766
0.000288773
0.000389955
0.000399357
0.000411785
0.000424481
0.000404407
0.00034655
0.000320992
0.000328904
0.000379712
0.000379184
0.000332724
0.00032479
0.000366459
0.000427199
0.000430995
0.000408903
0.000395366
0.000394467
0.000294324
0.000322454
0.000487692
0.000508307
0.00047712
0.000446809
0.000418215
0.000389427
0.000363234
0.000365618
0.000421027
0.000404768
0.000366961
0.000369556
0.000398429
0.000433358
0.000460676
0.00049338
0.00052955
0.000511871
0.00032762
0.000336464
0.00049615
0.0005314
0.000503202
0.000453185
0.000412663
0.000380596
0.000357781
0.000369682
0.00042511
0.000397042
0.000354115
0.000358452
0.000386768
0.000421477
0.000461534
0.000511146
0.000541473
0.000508505
0.000342423
0.000354519
0.000530392
0.000576843
0.000550515
0.000477977
0.000415749
0.000370303
0.000332058
0.000311035
0.000334314
0.000320263
0.000312924
0.000340034
0.000379103
0.000424411
0.000486382
0.000558265
0.000585611
0.000540416
0.000360573
0.000374459
0.000562277
0.000618385
0.000602604
0.000526344
0.000439993
0.000378029
0.000328129
0.000295658
0.00029741
0.000296819
0.000305343
0.000341147
0.000390034
0.000450197
0.000535363
0.000611392
0.00062852
0.000572711
0.000380227
0.000393394
0.000581073
0.00064515
0.000645311
0.000590903
0.000512254
0.000442532
0.000385929
0.000349573
0.000341273
0.000343428
0.000358684
0.000399086
0.000455736
0.000524089
0.00060155
0.000656989
0.000658277
0.000593263
0.000399068
0.000411682
0.000586563
0.000664909
0.000701731
0.000689991
0.000647765
0.000603886
0.000560705
0.000517565
0.000485509
0.000486116
0.000521556
0.000569764
0.000617787
0.000664109
0.000705759
0.000717912
0.000681875
0.000600862
0.000417443
0.000432142
0.000579597
0.000705497
0.000824525
0.000900774
0.000938277
0.000947364
0.00093035
0.000870948
0.000776909
0.000767305
0.000856431
0.000921693
0.000951327
0.000953182
0.000919174
0.000844247
0.000724563
0.000593899
0.000438108
0.00045629
0.000491295
0.00052079
0.000545398
0.000567896
0.000588358
0.000605314
0.000616015
0.000617447
0.000607302
0.000605903
0.000617327
0.000616906
0.000607426
0.000591784
0.000572495
0.000550871
0.000526697
0.000497257
0.000461983
0.000149125
0.000167338
0.000174015
0.000186795
0.00019397
0.00018847
0.000171305
0.000152999
0.000139006
0.000132674
0.000130878
0.000133311
0.000145069
0.000165494
0.000186012
0.000194643
0.000192348
0.000179369
0.00017525
0.00015705
0.000266349
0.000366405
0.000411785
0.000443311
0.00045515
0.000424882
0.000375779
0.000358021
0.000372773
0.000425699
0.000426971
0.000375593
0.000359951
0.000391445
0.000456358
0.000471707
0.000445382
0.00040878
0.000364189
0.000268752
0.000298851
0.000437154
0.00047712
0.000478068
0.000468948
0.00045153
0.000430146
0.000407992
0.000416048
0.000475139
0.000460221
0.00041576
0.000415496
0.000441067
0.000468897
0.000486139
0.000493592
0.000494567
0.000455375
0.000304467
0.000309049
0.000451038
0.000503202
0.000500001
0.000475666
0.000450444
0.000429721
0.000416519
0.000430223
0.000482234
0.000455635
0.000418352
0.000415748
0.000434634
0.000460181
0.000486215
0.000509873
0.000513611
0.0004624
0.000315841
0.000336911
0.000495897
0.000550515
0.00054385
0.00050069
0.000457064
0.00042312
0.000396487
0.000392188
0.00044548
0.000416067
0.000385859
0.000400671
0.000429641
0.000465179
0.000510103
0.000554378
0.000562128
0.000507717
0.000343134
0.00036885
0.00055333
0.000602604
0.000595815
0.000541528
0.000476712
0.000423837
0.000378984
0.000348208
0.000356689
0.000352364
0.000356771
0.00039058
0.000434303
0.000486144
0.000551319
0.000607241
0.000615429
0.000565017
0.000374445
0.000396432
0.000601856
0.000645311
0.000643296
0.00059594
0.000528864
0.000469043
0.000418647
0.000381745
0.000375432
0.000377394
0.000392763
0.000433148
0.000482692
0.000540836
0.000607767
0.000657032
0.000660635
0.000614069
0.000401883
0.00042101
0.000631348
0.000701731
0.000729513
0.000708546
0.000661629
0.000617178
0.000577354
0.000535169
0.000498581
0.000499704
0.000541229
0.000589681
0.000634012
0.00068011
0.00072766
0.00075042
0.000720865
0.000645046
0.000426621
0.000446714
0.000620161
0.000824525
0.00099638
0.00102921
0.00105204
0.00107999
0.00108935
0.00104086
0.000935375
0.000924347
0.00102838
0.00108554
0.00108982
0.00107271
0.0010549
0.00102691
0.000847406
0.000636147
0.000452659
0.000475618
0.000513809
0.000545398
0.000572382
0.000598699
0.000623794
0.000645433
0.000660318
0.000664751
0.000656503
0.000655639
0.000665257
0.000661923
0.000648291
0.000627973
0.000604036
0.000578494
0.000551669
0.000519883
0.00048129
0.000128251
0.00016066
0.000182171
0.00019397
0.000195709
0.000188177
0.000173952
0.000159459
0.000147364
0.000142353
0.000140654
0.000141416
0.00015141
0.000167367
0.000184351
0.000193993
0.000194566
0.000185582
0.000163816
0.000126727
0.000245485
0.000365117
0.000424481
0.00045515
0.000451917
0.000418888
0.000391645
0.000382834
0.000401435
0.000468443
0.000474458
0.000406191
0.000382492
0.000397
0.000446967
0.000479544
0.000468576
0.000427824
0.000365217
0.000249206
0.000270884
0.000390703
0.000446809
0.000468948
0.000473034
0.000466752
0.000450296
0.000433167
0.000447738
0.000523699
0.000512386
0.000447675
0.000438797
0.000459346
0.000480898
0.000491713
0.000485072
0.000460394
0.000402414
0.000277016
0.000276141
0.0003896
0.000453185
0.000475666
0.000475286
0.000467462
0.00045944
0.000453177
0.000469222
0.000537909
0.000513216
0.000460574
0.00045213
0.000461441
0.000475415
0.000486151
0.000486065
0.000462818
0.00039896
0.000283029
0.000317698
0.000420595
0.000477977
0.00050069
0.000492644
0.000474393
0.000456688
0.000443929
0.000457834
0.000526364
0.000495101
0.000445732
0.000444796
0.000460536
0.000480635
0.000501027
0.000510959
0.000490188
0.000434243
0.000323588
0.000362281
0.000497531
0.000526344
0.000541528
0.000525556
0.000493009
0.000459544
0.000430445
0.000422611
0.000472261
0.00045249
0.000423282
0.000438567
0.00046764
0.000500877
0.000534577
0.000553506
0.000541712
0.000513308
0.00036751
0.000397881
0.000598446
0.000590903
0.00059594
0.000579159
0.000541886
0.000500962
0.000464645
0.000445615
0.000470637
0.000466289
0.000453372
0.00047771
0.000513563
0.000553251
0.000590851
0.000610236
0.000607443
0.000612046
0.000403007
0.000427929
0.000675694
0.000689991
0.000708546
0.000695891
0.000659938
0.000624705
0.000593409
0.000559479
0.000531942
0.000532598
0.000565975
0.000606721
0.000642284
0.000678984
0.000715276
0.000729561
0.000711055
0.000688134
0.00043329
0.000458083
0.000651882
0.000900774
0.00102921
0.00110249
0.001162
0.00121939
0.00124328
0.00117805
0.00102593
0.0010172
0.001168
0.00124149
0.00123142
0.00118458
0.00112914
0.001058
0.000924191
0.000667765
0.000463843
0.00049111
0.000533359
0.000567896
0.000598699
0.000630765
0.000660983
0.00068706
0.000705987
0.00071369
0.000707887
0.000707675
0.000714894
0.000708275
0.000690523
0.000665589
0.000636331
0.000604932
0.000574167
0.000539333
0.000496678
0.000124622
0.000163089
0.000181919
0.00018847
0.000188177
0.000182237
0.000173339
0.000163279
0.000154322
0.000151683
0.00015034
0.000148509
0.000155164
0.000165684
0.000176647
0.000184034
0.000185198
0.00017799
0.000158209
0.0001173
0.000214429
0.00034453
0.000404407
0.000424882
0.000418888
0.000408835
0.000402314
0.000401301
0.000425493
0.000498124
0.000506901
0.000430863
0.000398164
0.000397729
0.000415011
0.000440817
0.000447054
0.000418685
0.000353513
0.000220341
0.000239756
0.000354218
0.000418215
0.00045153
0.000466752
0.000466539
0.000455877
0.000447505
0.000469683
0.000547218
0.000540724
0.00046939
0.00044856
0.000458841
0.000474941
0.000478499
0.000465306
0.000430373
0.000363492
0.000245441
0.000243148
0.000344236
0.000412664
0.000450444
0.000467462
0.000474132
0.000475227
0.00047258
0.000492768
0.000559823
0.00054035
0.000485126
0.000471128
0.000473941
0.000476657
0.000474095
0.000458293
0.000419968
0.000350504
0.000247582
0.000300295
0.000360693
0.000415749
0.000457064
0.000474393
0.000477008
0.000473907
0.000473589
0.000499288
0.000561517
0.000537058
0.000485706
0.000471532
0.000474627
0.000479799
0.000479252
0.000463554
0.000423489
0.000368987
0.00030521
0.000355156
0.000417754
0.000439993
0.000476712
0.000493009
0.000488939
0.000475651
0.000464353
0.000479525
0.000539594
0.000520235
0.000474251
0.000468713
0.000480853
0.000494219
0.00049928
0.000485178
0.000450953
0.000429647
0.000359882
0.000397345
0.000556563
0.000512254
0.000528864
0.000541886
0.000533479
0.000512859
0.000493274
0.000497022
0.00054972
0.000541079
0.00050032
0.000503486
0.00052324
0.00054299
0.00055152
0.000540292
0.000526222
0.000573027
0.000402173
0.000432216
0.000689394
0.000647765
0.000661629
0.000659938
0.000641812
0.000621449
0.000600906
0.00057244
0.000552639
0.000552078
0.000577923
0.000612972
0.00063775
0.00065938
0.000677447
0.000679339
0.000665771
0.000703276
0.000437322
0.000466241
0.000670578
0.000938277
0.00105204
0.001162
0.0012607
0.00134191
0.00135819
0.00123914
0.000991871
0.000984348
0.00123101
0.0013566
0.00135183
0.0012811
0.00118565
0.00107577
0.000958885
0.000683882
0.000471703
0.000503224
0.000550074
0.000588358
0.000623794
0.000660983
0.000696038
0.000726866
0.000750241
0.000762317
0.000761168
0.000761473
0.00076411
0.000753121
0.000730772
0.000700919
0.000666571
0.000629801
0.000594372
0.000555867
0.000508703
0.000109665
0.000148902
0.000164411
0.000171305
0.000173952
0.000173339
0.000170139
0.000165246
0.000160918
0.000162977
0.000162412
0.000155469
0.000157205
0.000161576
0.00016539
0.000166851
0.000165028
0.000158297
0.000141931
0.000105744
0.000143071
0.000286619
0.00034655
0.000375779
0.000391645
0.000402314
0.000408787
0.000416945
0.000449199
0.000518912
0.000529085
0.000454589
0.000410807
0.000397313
0.000391532
0.00038581
0.000375996
0.000350788
0.000289497
0.0001449
0.000205233
0.000319254
0.000389427
0.000430146
0.000450296
0.000455877
0.000455256
0.000457819
0.000483765
0.000523834
0.000521972
0.000482621
0.000453565
0.000450067
0.000454757
0.000453882
0.000435965
0.000393626
0.000322608
0.00020741
0.000212126
0.000306777
0.000380596
0.000429721
0.00045944
0.000475227
0.000479809
0.000480958
0.000500466
0.000503444
0.0004954
0.000493115
0.00047724
0.000475869
0.00047228
0.000458647
0.000431077
0.000382715
0.000309478
0.000214322
0.000285541
0.000316617
0.000370303
0.00042312
0.000456688
0.000473907
0.000482009
0.000490208
0.000512838
0.000487708
0.000479783
0.000501001
0.000485606
0.000479238
0.000472608
0.000456907
0.000424847
0.000373743
0.000321952
0.000289847
0.000348084
0.00036704
0.000378029
0.000423837
0.000459544
0.000475651
0.000479243
0.00048321
0.000504081
0.000477498
0.000469415
0.000497355
0.000483808
0.000480961
0.000477563
0.000462329
0.000428376
0.000384764
0.000375401
0.000352448
0.000394872
0.000489526
0.000442532
0.000469043
0.000500962
0.000512859
0.000509174
0.000505332
0.000523344
0.000531594
0.000522342
0.000523039
0.000511581
0.000515889
0.000518899
0.000506916
0.000476027
0.000451731
0.000502657
0.000399446
0.000433531
0.000682046
0.000603886
0.000617177
0.000624705
0.000621449
0.00061312
0.000595372
0.00056443
0.000541324
0.000538154
0.000567488
0.000603843
0.000625277
0.000634921
0.000637119
0.000628547
0.000615924
0.000696411
0.000438471
0.000470894
0.000677987
0.000947364
0.00107999
0.00121939
0.00134191
0.0014222
0.0013961
0.00117487
0.000843423
0.000832115
0.00116365
0.00139237
0.00142677
0.0013545
0.00123491
0.00109418
0.000961117
0.000687963
0.00047615
0.00051167
0.000562975
0.000605314
0.000645433
0.00068706
0.000726866
0.000762749
0.000791888
0.000811643
0.000822815
0.000823488
0.000813874
0.000795295
0.000767062
0.000731934
0.000692675
0.000651265
0.000611159
0.00056871
0.000517176
9.82134e-05
0.000123903
0.000141803
0.000152999
0.000159459
0.000163279
0.000165246
0.000166215
0.000168005
0.000175127
0.000174757
0.00016306
0.000158615
0.000156759
0.000154654
0.000150979
0.000144736
0.000134553
0.000118555
9.49626e-05
0.000125697
0.00025861
0.000320992
0.000358021
0.000382834
0.000401301
0.000416945
0.000436345
0.000457193
0.000409786
0.000410286
0.000459803
0.000428945
0.00040354
0.000386349
0.000368156
0.000344231
0.000308594
0.00025108
0.000121109
0.000155663
0.000286258
0.000363234
0.000407992
0.000433167
0.000447505
0.000457819
0.000468917
0.000448192
0.000307973
0.000300796
0.000441634
0.000460613
0.000448408
0.000439839
0.00042868
0.000405973
0.000361071
0.00028502
0.000155574
0.000177572
0.000274113
0.000357781
0.000416519
0.000453177
0.00047258
0.000480958
0.000484334
0.000432145
0.000285939
0.000276923
0.000422051
0.000476807
0.000474857
0.000467689
0.000448638
0.000412006
0.000353705
0.000272735
0.000180966
0.000273005
0.000277992
0.000332058
0.000396487
0.000443929
0.000473589
0.000490208
0.000495966
0.000422421
0.000314153
0.000300798
0.000412112
0.000488512
0.000483918
0.000468046
0.000439626
0.000393892
0.000332239
0.00028225
0.000277507
0.000340805
0.00032859
0.000328129
0.000378984
0.000430445
0.000464353
0.00048321
0.000490243
0.000408998
0.000352075
0.000336698
0.0004007
0.000486329
0.00048019
0.000461803
0.000429331
0.000380442
0.000332316
0.000334603
0.000345146
0.000390489
0.000428923
0.000385929
0.000418647
0.000464645
0.000493274
0.000505332
0.000511548
0.000461288
0.000428619
0.000413674
0.000453325
0.000511792
0.000506127
0.000493579
0.000465279
0.000420932
0.000391302
0.000439249
0.000394992
0.000431434
0.00066204
0.000560705
0.000577354
0.000593409
0.000600906
0.000595372
0.000571555
0.000531431
0.000504353
0.000494894
0.000528634
0.00057455
0.00060057
0.000606694
0.000598003
0.000580865
0.000566368
0.000674652
0.000436349
0.000471133
0.000669255
0.00093035
0.00108935
0.00124328
0.00135819
0.0013961
0.00126278
0.000966429
0.000870514
0.000864477
0.000953174
0.00125306
0.0013944
0.00136249
0.00124935
0.00109431
0.000936729
0.000676369
0.000476408
0.000515625
0.000570322
0.000616015
0.000660318
0.000705987
0.000750241
0.000791888
0.000829585
0.000865814
0.000906055
0.000907123
0.000868722
0.000833619
0.000796742
0.000755706
0.000711828
0.00066628
0.000622033
0.000576295
0.000521372
9.50041e-05
0.00011198
0.00012713
0.000139006
0.000147364
0.000154322
0.000160918
0.000168005
0.000174959
0.000184295
0.000182868
0.000170264
0.000161554
0.000153921
0.000147314
0.000140662
0.000132902
0.000122128
0.000109778
9.30549e-05
0.000121776
0.000275059
0.000328904
0.000372773
0.000401435
0.000425493
0.000449199
0.000457193
0.000359378
0.000422774
0.000426907
0.000347684
0.000449655
0.000442204
0.000419023
0.000395645
0.000367597
0.000326268
0.000276294
0.000119055
0.000132335
0.000288504
0.000365618
0.000416048
0.000447738
0.000469683
0.000483765
0.000448192
0.000280162
0.000531814
0.000540257
0.000268998
0.000435417
0.000479338
0.000467379
0.000446158
0.000414423
0.00036386
0.00028889
0.000129759
0.000152366
0.000275199
0.000369682
0.000430223
0.000469222
0.000492768
0.000500466
0.000432144
0.000287958
0.000716634
0.000723316
0.000283588
0.000417629
0.000495205
0.000489978
0.000466891
0.000425472
0.000360274
0.000264609
0.000153136
0.000263475
0.000258832
0.000311035
0.000392188
0.000457834
0.000499288
0.000512838
0.000422421
0.000339392
0.000937284
0.000938531
0.000336223
0.000408156
0.000503413
0.000490144
0.000448668
0.000385061
0.000308137
0.000259233
0.00026888
0.000333573
0.000308379
0.000295658
0.000348208
0.000422611
0.000479525
0.000504081
0.000408998
0.000391217
0.00113518
0.00113602
0.000392139
0.000395537
0.000494491
0.000470924
0.000416868
0.000347421
0.000297686
0.000312381
0.000338164
0.000384078
0.000396044
0.000349573
0.000381745
0.000445615
0.000497022
0.000523344
0.000461288
0.000474259
0.00126772
0.00127275
0.000473979
0.000447856
0.000514407
0.000488482
0.000439297
0.000379844
0.000352564
0.000404577
0.0003887
0.000425336
0.000628589
0.000517564
0.000535169
0.000559479
0.00057244
0.00056443
0.000531431
0.000555373
0.00128915
0.00129773
0.000557102
0.000525778
0.000560761
0.00056889
0.00055575
0.000532645
0.00052002
0.000639777
0.000430401
0.000465729
0.00063728
0.000870948
0.00104086
0.00117805
0.00123914
0.00117487
0.000966429
0.000932817
0.00129635
0.00129726
0.000938309
0.000953432
0.00116642
0.00123699
0.00117852
0.00104148
0.000874223
0.000643083
0.000471284
0.000513902
0.0005701
0.000617447
0.000664751
0.00071369
0.000762317
0.000811643
0.000865814
0.000933456
0.00101238
0.00101238
0.00093801
0.000871207
0.000817433
0.000768461
0.000720084
0.000671241
0.000624048
0.000576633
0.000520116
9.49805e-05
0.000110434
0.000121697
0.000132674
0.000142353
0.000151683
0.000162977
0.000175127
0.000184295
0.000192179
0.000188477
0.00017921
0.000170383
0.000158253
0.000147479
0.000138832
0.000129909
0.000119729
0.000109556
9.36715e-05
0.000124895
0.000325815
0.000379712
0.000425699
0.000468443
0.000498124
0.000518912
0.000409786
0.000422774
0.000285453
0.000275445
0.00041448
0.000393916
0.000515727
0.000501948
0.000475021
0.000433384
0.000387896
0.000329945
0.000122968
0.000139575
0.000356694
0.000421027
0.000475139
0.000523699
0.000547218
0.000523834
0.000307973
0.000531814
0.00041903
0.000408098
0.000549919
0.000293312
0.000517422
0.000552497
0.000531079
0.000481608
0.000426807
0.000362317
0.000137339
0.00015233
0.000355264
0.00042511
0.000482234
0.000537909
0.000559823
0.000503444
0.000285939
0.000716634
0.000565953
0.000552254
0.000751986
0.000278117
0.000489605
0.000558517
0.000539112
0.00048336
0.000424904
0.000351632
0.000152368
0.000257293
0.000270237
0.000334314
0.00044548
0.000526364
0.000561517
0.000487708
0.000314153
0.000937284
0.000732657
0.000713809
0.000983623
0.000311787
0.000468992
0.00055227
0.000518669
0.000438942
0.000330154
0.000271917
0.000263869
0.000326732
0.000306735
0.00029741
0.000356689
0.000472261
0.000539594
0.000477498
0.000352075
0.00113518
0.000914441
0.00088912
0.00119235
0.000355337
0.000456032
0.000526298
0.000462116
0.000355131
0.000298254
0.000311011
0.000331586
0.00037583
0.00038223
0.000341273
0.000375432
0.000470637
0.00054972
0.000531594
0.000428619
0.00126772
0.00109351
0.00106125
0.0013268
0.000426859
0.000508712
0.000533607
0.00045835
0.000370663
0.000343147
0.000389965
0.000380633
0.000415511
0.000597861
0.000485509
0.000498581
0.000531942
0.000552639
0.000541324
0.000504353
0.00128915
0.00123483
0.00119557
0.00135497
0.000502082
0.000526892
0.000539878
0.000521493
0.000493029
0.000487597
0.000608383
0.000420821
0.000454385
0.000587961
0.000776909
0.000935375
0.00102593
0.000991871
0.000843423
0.000870514
0.00129635
0.0013186
0.00127965
0.00133669
0.000878783
0.000829029
0.000977707
0.00102147
0.000935556
0.000781933
0.000594391
0.000460397
0.000505206
0.000560874
0.000607302
0.000656503
0.000707887
0.000761168
0.000822815
0.000906055
0.00101238
0.00107217
0.00106059
0.00102025
0.000914574
0.000830301
0.00076818
0.000714978
0.000663718
0.00061466
0.00056811
0.00051203
9.50912e-05
0.000110501
0.000120784
0.000130878
0.000140654
0.00015034
0.000162412
0.000174757
0.000182868
0.000188477
0.000182348
0.000174842
0.000166865
0.000155838
0.000145569
0.000137318
0.000128845
0.000119491
0.000109754
9.38986e-05
0.000124899
0.000321366
0.000379184
0.000426971
0.000474458
0.000506901
0.000529085
0.000410286
0.000426907
0.000275445
0.0002559
0.000394499
0.000387235
0.000505126
0.000487807
0.000459053
0.00041634
0.000371092
0.000319625
0.000123868
0.000139203
0.000340266
0.000404768
0.000460221
0.000512386
0.000540724
0.000521972
0.000300796
0.000540257
0.000408098
0.000381544
0.000529252
0.000283735
0.000501384
0.00052516
0.000500093
0.000450811
0.000397046
0.000333333
0.000137759
0.000151595
0.000320816
0.000397042
0.000455635
0.000513216
0.00054035
0.0004954
0.000276924
0.000723316
0.000552254
0.000519858
0.000733927
0.000267419
0.000476643
0.000529973
0.000505614
0.000452137
0.000394523
0.000311873
0.000158558
0.000259056
0.000265562
0.000320263
0.000416067
0.000495101
0.000537058
0.000479783
0.000300798
0.000938531
0.000713809
0.000675483
0.000971967
0.00030028
0.000459578
0.000527555
0.000487718
0.000409993
0.00031602
0.000266944
0.000267484
0.000327039
0.000307399
0.000296819
0.000352364
0.00045249
0.000520235
0.000469415
0.000336698
0.00113602
0.00088912
0.000844405
0.00118848
0.000344868
0.000447874
0.000509625
0.000443378
0.000346077
0.000296336
0.000312209
0.000332704
0.000375275
0.000384723
0.000343428
0.000377394
0.000466289
0.000541079
0.000522342
0.000413674
0.00127275
0.00106125
0.00100967
0.00133446
0.000423424
0.000507125
0.000532875
0.0004579
0.000371778
0.00034498
0.000392807
0.000380718
0.00041449
0.000599097
0.000486116
0.000499704
0.000532598
0.000552078
0.000538154
0.000494894
0.00129773
0.00119557
0.00113565
0.0013678
0.000502095
0.000530722
0.000545628
0.000526107
0.000494989
0.000488119
0.000609872
0.000420419
0.000452995
0.000583451
0.000767305
0.000924347
0.0010172
0.000984348
0.000832115
0.000864477
0.00129726
0.00127965
0.00121885
0.00133855
0.000877512
0.00081692
0.000967465
0.00101262
0.000924932
0.000773455
0.000590799
0.000459677
0.000504083
0.000559549
0.000605903
0.000655639
0.000707675
0.000761473
0.000823488
0.000907123
0.00101238
0.00106059
0.00103994
0.00101796
0.000914902
0.000830466
0.000768014
0.000714505
0.000662824
0.000613466
0.00056726
0.000511617
9.4862e-05
0.000111965
0.000123817
0.000133311
0.000141416
0.000148509
0.000155469
0.00016306
0.000170264
0.00017921
0.000174842
0.000163021
0.000156492
0.000150407
0.0001448
0.000138966
0.000131911
0.000122129
0.000110398
9.31667e-05
0.000122475
0.000279932
0.000332724
0.000375593
0.000406191
0.000430863
0.000454589
0.000459804
0.000347684
0.00041448
0.000394499
0.000335316
0.000438665
0.000435237
0.000414482
0.000392121
0.000363939
0.000321497
0.00027102
0.000120895
0.000132031
0.000289705
0.000366961
0.00041576
0.000447676
0.000469391
0.000482621
0.000441634
0.000268998
0.000549919
0.000529252
0.000259971
0.000427242
0.00046937
0.000457208
0.000436427
0.000405416
0.00035832
0.000282482
0.000130021
0.000157601
0.000262662
0.000354115
0.000418352
0.000460574
0.000485126
0.000493115
0.000422051
0.000283588
0.000751986
0.000733927
0.000277369
0.000409928
0.000484079
0.000476948
0.000453291
0.000412298
0.000348695
0.000259312
0.000170343
0.000266493
0.000262318
0.000312924
0.000385859
0.000445732
0.000485706
0.000501001
0.000412112
0.000336223
0.000983623
0.000971967
0.000335498
0.000401626
0.000495113
0.000480359
0.000440517
0.000381132
0.000310071
0.000265666
0.00027513
0.000334093
0.000314233
0.000305343
0.000356771
0.000423282
0.000474251
0.000497355
0.0004007
0.000392139
0.00119235
0.00118848
0.000397718
0.000391541
0.000492949
0.000469503
0.000418152
0.000353102
0.000305308
0.00032041
0.000340202
0.000383334
0.000402519
0.000358684
0.000392763
0.000453372
0.00050032
0.000523039
0.000453325
0.000473979
0.0013268
0.00133446
0.000484736
0.0004503
0.000524502
0.000500122
0.000451829
0.000391906
0.000361501
0.000412051
0.000389113
0.000424106
0.00062836
0.000521556
0.000541229
0.000565974
0.000577923
0.000567488
0.000528634
0.000557102
0.00135497
0.0013678
0.000568235
0.000531687
0.000572676
0.000583176
0.000569995
0.000544102
0.000526094
0.00063924
0.000430296
0.000464403
0.000628966
0.000856431
0.00102838
0.001168
0.00123101
0.00116365
0.000953174
0.000938309
0.00133669
0.00133855
0.000950838
0.000939313
0.00115101
0.00123298
0.00117745
0.00103897
0.000867839
0.000638509
0.000471254
0.000513669
0.000569846
0.000617327
0.000665257
0.000714894
0.00076411
0.000813874
0.000868722
0.00093801
0.00102025
0.00101796
0.000941486
0.000873292
0.000818944
0.00076999
0.00072156
0.000672455
0.000624891
0.000577498
0.000521149
9.73834e-05
0.000121084
0.000136367
0.000145069
0.00015141
0.000155164
0.000157205
0.000158615
0.000161554
0.000170383
0.000166865
0.000156492
0.000154674
0.000154674
0.000154043
0.000151392
0.000145586
0.000135209
0.000120401
9.53735e-05
0.000125796
0.000262754
0.00032479
0.000359951
0.000382492
0.000398164
0.000410807
0.000428945
0.000449655
0.000393916
0.000387235
0.000438665
0.000417252
0.000399719
0.000387176
0.000372044
0.000350627
0.000315798
0.000255388
0.000124243
0.000166456
0.000291677
0.000369556
0.000415496
0.000438797
0.00044856
0.000453565
0.000460613
0.000435417
0.000293312
0.000283735
0.000427242
0.000453733
0.000447132
0.000441715
0.000431618
0.000407905
0.000362821
0.000286948
0.000167624
0.000187252
0.000278577
0.000358452
0.000415748
0.00045213
0.000471128
0.00047724
0.000476807
0.000417629
0.000278117
0.000267419
0.000409928
0.000471947
0.000473117
0.000467035
0.000448582
0.000412832
0.000356522
0.000279476