/*--------------------------------*- C++ -*----------------------------------*\
  =========                 |
  \\      /  F ield         | OpenFOAM: The Open Source CFD Toolbox
   \\    /   O peration     | Website:  https://openfoam.org
    \\  /    A nd           | Version:  9
     \\/     M anipulation  |
\*---------------------------------------------------------------------------*/
FoamFile
{
    format      ascii;
    class       surfaceScalarField;
    location    "1700";
    object      phi;
}
// * * * * * * * * * * * * * * * * * * * * * * * * * * * * * * * * * * * * * //

dimensions      [1 0 -1 0 0 0 0];

internalField   nonuniform List<scalar> 
11200
(
0.0019164
-0.00383282
0.0019164
0.000932874
-0.000262689
0.00124617
-0.0010987
0.00190082
0.000130622
-0.00162109
0.000541261
-1.88586e-05
-0.00153985
0.000125463
-0.000206678
-0.00126967
-0.000205175
-6.49782e-05
-0.000878883
-0.000389089
-1.68878e-06
-0.000561584
-0.000290275
-2.70094e-05
-0.000213483
-0.000315806
-3.22759e-05
0.000180229
-0.000323924
-6.97684e-05
0.000587419
-0.000337254
-6.99139e-05
0.000964826
-0.000322973
-5.44131e-05
0.00132657
-0.000292156
-6.95707e-05
0.00171119
-0.000323403
-6.12108e-05
0.00191461
-7.21804e-05
-0.00013122
0.00191999
0.000138983
-0.00014433
0.000995094
0.000880987
4.38798e-05
-0.00167681
0.00239755
0.00027421
-0.00228776
-0.000891
0.00150191
-0.00451337
0.00222559
0.00212237
-0.00807757
0.00212237
0.00387606
-0.00411288
0.00209648
0.00482383
-0.0010809
0.00203391
0.0037153
-1.77787e-05
0.00166757
0.00195392
0.000706594
0.00118025
5.44156e-05
0.000772198
0.000922129
-0.000774523
5.76392e-05
0.000382218
-0.000665615
-0.000284548
-0.000114626
-0.000355183
-0.000242005
-0.000384224
0.000114547
-0.000230804
-0.000562843
0.000552184
-0.000207885
-0.000566998
0.000836298
-0.000213899
-0.00039318
0.000882409
-0.00019371
-0.000144551
-0.000115256
0.000241809
0.000432456
-0.0020957
0.000914129
0.000994122
-0.00384758
0.000657675
0.00123318
-0.00481115
0.000160752
0.00168379
-0.00358684
-0.000673919
0.0018471
-0.00201715
-0.00441684
0.00195614
-0.00851986
0.00198935
0.00137557
-0.0108287
0.00137557
0.00287125
-0.00737296
0.00176439
0.00389735
-0.00403951
0.00193251
0.00377914
-0.00165346
0.00175389
0.003009
3.13867e-05
0.00144535
0.00191293
0.000701745
0.00116654
0.000579444
0.000487434
0.000903702
-0.000308035
0.000148378
0.00045456
-0.000372394
9.28492e-05
-0.000270492
2.96486e-05
0.000111838
-0.000744681
0.000340585
0.00017694
-0.000695759
8.84617e-05
0.000199232
-0.000161006
-0.000909712
0.000276776
0.000527691
-0.00214934
0.000602926
0.000878515
-0.00324496
0.00081978
0.00118998
-0.00402109
-6.05487e-05
0.00149435
-0.00400176
-0.00164973
0.00179115
-0.00269393
-0.00388541
0.00190364
-0.00128707
-0.0074835
0.00165979
-0.0110974
0.0012905
0.000714354
-0.0122574
0.000714354
0.00110231
-0.00910291
0.00134198
0.00129521
-0.00588502
0.00165261
0.00127912
-0.00345019
0.00181282
0.00118385
-0.00163243
0.00175908
0.00099126
-0.000654706
0.00154904
0.000464226
-0.000296201
0.00131067
-0.000182867
-0.000152382
0.000947853
-0.000352769
-7.27619e-05
0.000335512
-2.34115e-05
-1.90145e-06
-0.000215621
0.000164459
1.89415e-05
-2.98784e-05
-0.000172212
-3.21536e-05
0.000568053
-0.000767005
-0.000158418
0.00102999
-0.00114153
-0.000317623
0.00129507
-0.00120299
-0.000661178
0.00154242
-0.00131974
-0.00172649
0.00178269
-0.00132507
-0.0035009
0.00185649
-0.00101826
-0.00586905
0.00167683
-0.000659343
-0.00917107
0.00132864
-0.0124561
0.000699315
0.000211684
-0.0126808
0.000211684
-0.000168743
-0.00982765
0.00110516
-0.000575997
-0.0070189
0.00154111
-0.000850353
-0.00499281
0.00181696
-0.000882931
-0.00356714
0.00196728
-0.000758244
-0.00268643
0.00190703
-0.000621435
-0.00216629
0.00173328
-0.000481473
-0.00183764
0.00154529
-0.000270648
-0.00165317
0.00136958
8.45104e-05
-0.00156485
0.00120778
0.000410692
-0.00157083
0.00126359
0.000618112
-0.00168147
0.00144189
0.000735576
-0.00187266
0.00159677
0.000860957
-0.00219751
0.0017545
0.000995366
-0.00271448
0.00191889
0.000908692
-0.00361839
0.00197857
0.000606965
-0.00504031
0.00184114
0.000225995
-0.00705921
0.00157112
-0.000166063
-0.00990631
0.00112729
-0.0128547
0.000232502
-0.000166146
-0.0123485
-0.000166146
-0.000981554
-0.00994524
0.000932981
-0.00163974
-0.00773344
0.00137271
-0.00199515
-0.00623862
0.00160121
-0.00200607
-0.00525026
0.00169402
-0.00177086
-0.00460303
0.00168138
-0.0013716
-0.00417203
0.00160647
-0.000885822
-0.00386688
0.00154345
-0.000369496
-0.00367294
0.00150344
0.000161014
-0.00356458
0.00146921
0.00064773
-0.00353595
0.0014784
0.00111361
-0.00366142
0.00151406
0.00154992
-0.00385972
0.00155074
0.00190979
-0.00416628
0.0016089
0.00211785
-0.00460584
0.00168329
0.00207203
-0.00527237
0.0016998
0.00169131
-0.00627865
0.00161905
0.00102765
-0.0077915
0.00139594
0.000197035
-0.0100371
0.000961362
-0.0125125
-0.000145163
-0.000475316
-0.0113979
-0.000475316
-0.00158634
-0.00952264
0.000688413
-0.00242229
-0.00792317
0.00102567
-0.00282736
-0.00696527
0.00113172
-0.00279889
-0.00638304
0.00110431
-0.00244976
-0.00600612
0.00105395
-0.00188552
-0.00575719
0.0010209
-0.00120936
-0.00556358
0.00102054
-0.000513694
-0.00540533
0.00103671
0.00013452
-0.0052745
0.00106171
0.000750054
-0.00521881
0.00106732
0.00139921
-0.00534898
0.00103839
0.00203413
-0.00551555
0.00102091
0.00256694
-0.00572144
0.00102234
0.00289346
-0.00598795
0.00105558
0.00289907
-0.00638855
0.00111055
0.0024739
-0.00699662
0.00114313
0.00162708
-0.00798294
0.00103825
0.000499933
-0.00961749
0.00070756
-0.0115481
-0.00046442
-0.000910153
-0.00957763
-0.000910153
-0.00228125
-0.00818632
3.47656e-05
-0.00326475
-0.00719871
0.000259019
-0.00369592
-0.0066951
0.000160981
-0.00360939
-0.0064355
-3.40884e-05
-0.00314098
-0.00629849
-0.000176051
-0.00240595
-0.00621264
-0.000279588
-0.00152413
-0.00612304
-0.000322369
-0.000647641
-0.0060125
-0.000269325
9.09278e-05
-0.00586717
-0.000145906
0.00080692
-0.00580148
-0.000133332
0.00164944
-0.00594009
-0.00025142
0.00250538
-0.00606233
-0.000309164
0.00322225
-0.00616803
-0.000270289
0.00367714
-0.00627316
-0.000169696
0.00375067
-0.00643413
-2.79598e-05
0.00330478
-0.00672032
0.00016958
0.00231348
-0.00724961
0.000257968
0.000928332
-0.00827026
3.79128e-05
-0.00970431
-0.0009155
-0.00168432
-0.006209
-0.00168432
-0.00334206
-0.00543866
-0.00108993
-0.00437802
-0.00505714
-0.00110562
-0.00477015
-0.00498658
-0.00131639
-0.00461128
-0.00503353
-0.00156084
-0.00402258
-0.00513332
-0.00175388
-0.0031171
-0.00522453
-0.0018936
-0.00201621
-0.00527184
-0.0019521
-0.000888897
-0.00524427
-0.00189555
4.7267e-05
-0.00513373
-0.00166961
0.000950832
-0.0050834
-0.00162165
0.00206268
-0.00519824
-0.0018537
0.00316007
-0.00523912
-0.00192061
0.00406493
-0.00520378
-0.00186911
0.00465199
-0.00512501
-0.00173521
0.00480809
-0.00503885
-0.00155139
0.0044106
-0.00500706
-0.00131578
0.00336925
-0.00509287
-0.0011154
0.00170164
-0.00549471
-0.00110795
-0.0062942
-0.00170848
-0.00310451
-0.00310451
-0.00515565
-0.00338752
-0.00617691
-0.00403589
-0.00648075
-0.00468275
-0.0062101
-0.00530419
-0.00547977
-0.00586365
-0.00437773
-0.00632658
-0.00299006
-0.00665951
-0.0014431
-0.00679123
-4.24382e-05
-0.0065344
0.00136525
-0.00649109
0.00294355
-0.00677654
0.00435789
-0.00665346
0.00548049
-0.00632638
0.006227
-0.00587152
0.00650812
-0.00531996
0.00621097
-0.00470992
0.00519271
-0.00407462
0.0031353
-0.00343731
-0.0031589
0.00124617
-0.000262689
0.000932874
0.000256252
0.0019798
0.000256252
-0.000832553
0.00160602
-0.000386719
-0.000934974
0.000256033
-0.000172465
-0.000793563
-0.000147419
-0.000200626
-0.000553607
-0.000310979
6.07171e-06
-0.000275747
-0.000431627
0.000152094
-0.000138602
-0.000284886
0.000120737
-1.94029e-06
-0.000259247
9.03208e-05
0.000168262
-0.000255937
1.59787e-05
0.000369628
-0.000271959
6.95206e-07
0.000564772
-0.000283487
3.39461e-05
0.000748819
-0.00029749
4.3883e-05
0.000955164
-0.000317791
5.02475e-05
0.00108884
-0.000196436
-6.8442e-05
0.00123899
-0.000148383
-0.000146039
0.000956625
0.000506046
-0.000179817
-0.000737617
0.00246805
-0.000499761
-0.00159585
0.00166964
0.000690471
-0.000988057
0.00161776
0.00209648
-0.00411288
0.00387606
0.0039336
-0.00169448
0.0039336
0.00453313
-0.000454537
0.00349491
0.00364909
0.000208821
0.00259882
0.00219143
0.000757241
0.00173325
0.000866819
0.000704003
0.00123176
0.000103308
2.52675e-05
0.000688842
-4.48689e-05
-0.000366221
0.000114895
-2.1e-05
-0.000344318
-0.000323015
9.00983e-05
-0.000291581
-0.000638291
0.000199931
-0.000299887
-0.000648897
0.000222338
-0.000330725
-0.000368342
-3.14269e-06
-0.000269812
5.32607e-05
-0.000931023
0.000275592
0.00076695
-0.00233114
0.00087121
0.00132658
-0.00375388
0.000713438
0.00179407
-0.00456442
0.000319411
0.00268096
-0.00372649
-6.24866e-06
0.0034834
-0.00199861
-0.00179722
0.00369507
-0.00460866
0.00361133
0.00176439
-0.00737296
0.00287125
0.00353124
-0.00522819
0.00353124
0.00442845
-0.00290955
0.0034903
0.004269
-0.000833615
0.00295578
0.00342998
0.000720397
0.00232123
0.00239339
0.00108504
0.0018221
0.00127676
0.000687817
0.00135778
0.000459536
0.000180983
0.000724589
4.18242e-05
-7.03707e-05
-0.000126722
-3.64729e-05
-0.000116822
-0.00084114
-0.000213134
-5.93983e-05
-0.000759583
-0.000740471
5.4811e-05
-1.9203e-05
-0.00156786
0.000327094
0.000758175
-0.00262576
0.000855955
0.00135606
-0.00365397
0.00123616
0.00185325
-0.00450973
0.000673022
0.00239052
-0.00458725
-0.000861704
0.00304979
-0.00344571
-0.00279288
0.00354872
-0.00166825
-0.00533579
0.00342089
-0.00766789
0.00268148
0.00134198
-0.00910291
0.00110231
0.00228224
-0.00710871
0.00228224
0.00270152
-0.00443121
0.00275498
0.00272338
-0.00179022
0.00274756
0.00245521
0.000271806
0.00247584
0.00191116
0.00104004
0.00213808
0.00120172
0.000966939
0.00174099
0.000447421
0.000719057
0.00116408
-4.43142e-05
0.000521998
0.000234879
-0.000143266
0.000448103
-0.000681592
-0.000335191
0.000489415
-0.000386766
-0.000852725
0.000606203
0.000534193
-0.00151405
0.000766715
0.00125169
-0.00211508
0.00101886
0.0017332
-0.00255584
0.00108936
0.00212998
-0.00281551
0.000219198
0.00249619
-0.00276712
-0.00185696
0.00280334
-0.00224762
-0.00444574
0.00281019
-0.00130328
-0.00722744
0.00227594
-0.0093311
0.00105924
0.00110516
-0.00982765
-0.000168743
0.00146519
-0.00782878
0.00146519
0.00134845
-0.00505069
0.00227733
0.00109085
-0.00229075
0.00257508
0.000918012
-0.000213396
0.00262532
0.000674715
0.000786204
0.00240416
0.000325159
0.00100047
0.0020493
-2.4845e-05
0.001027
0.00158735
-0.000174252
0.00100872
0.00103226
-1.2667e-05
0.000990734
0.000503566
8.1272e-05
0.000980285
0.000678774
-9.53504e-05
0.000997513
0.0012272
-0.000430199
0.00100808
0.00169025
-0.000721848
0.000983955
0.00208105
-0.000894596
0.000769749
0.00241125
-0.00105822
-0.000279635
0.00264102
-0.00132744
-0.00235709
0.00261048
-0.00142287
-0.00510244
0.00232324
-0.00107531
-0.00794805
0.00150034
-0.0100221
-0.000151827
0.000932981
-0.00994524
-0.000981554
0.000925613
-0.00781406
0.000925613
0.000491721
-0.00514419
0.0019001
6.10519e-05
-0.0025654
0.00230653
-0.000149439
-0.000760123
0.00245123
-0.000213761
0.00018646
0.00234544
-0.000309138
0.000616823
0.00208549
-0.000344224
0.000813885
0.00179165
-0.000222731
0.00089546
0.0014952
9.29391e-05
0.000913976
0.00123029
0.000362036
0.000900731
0.00128885
0.000430938
0.000866336
0.00157633
0.0003688
0.000782709
0.00183824
0.000271345
0.00058434
0.00210597
0.00023253
0.000135128
0.00235672
1.46497e-05
-0.000827547
0.00246558
-0.000422675
-0.00264016
0.00233944
-0.000870858
-0.00520163
0.00194331
-0.000902619
-0.00792481
0.00096988
-0.0101125
-0.000957429
0.000688413
-0.00952264
-0.00158634
0.000389297
-0.00721584
0.000389297
-0.000233496
-0.00488936
0.00139362
-0.000638589
-0.00285229
0.00182369
-0.000802682
-0.00143256
0.00194083
-0.000747897
-0.000692025
0.00187764
-0.000587065
-0.000282251
0.00175913
-0.000401144
5.5735e-06
0.00164292
-0.000149031
0.000163524
0.00151652
0.000141366
0.000315062
0.00137022
0.000398608
0.000330001
0.0013808
0.000602534
0.000178701
0.0015221
0.000750234
1.59494e-05
0.00163996
0.000891031
-0.000289308
0.00175519
0.000935055
-0.000730485
0.00187716
0.000749541
-0.00148845
0.00195697
0.000314839
-0.00291761
0.00185528
-0.000329215
-0.00494474
0.0014254
-0.000657792
-0.00730842
0.000419736
-0.00965764
-0.00157703
3.47656e-05
-0.00818632
-0.00228125
-0.000478619
-0.00618908
-0.000478619
-0.00118218
-0.00436952
0.000442728
-0.00155588
-0.0030789
0.000761277
-0.0016435
-0.00218295
0.000803913
-0.00149329
-0.00170988
0.000691584
-0.00115627
-0.00146047
0.000561604
-0.000689533
-0.00129057
0.000507031
-0.00023035
-0.00112014
0.000555152
0.000148631
-0.000882982
0.000673151
0.000509804
-0.00084917
0.000684661
0.000928414
-0.00106828
0.000576942
0.00135938
-0.00124613
0.000521948
0.00166608
-0.00143418
0.000567877
0.00178537
-0.00171031
0.000690827
0.00167015
-0.0022093
0.000808099
0.00126321
-0.00312008
0.000778996
0.000542313
-0.0044174
0.000451517
-5.27809e-06
-0.0062554
-0.000467527
-0.00828386
-0.00229456
-0.00108993
-0.00543866
-0.00334206
-0.0021787
-0.00401156
-0.0021787
-0.00293595
-0.00306949
-0.0016484
-0.00319871
-0.00256399
-0.00156856
-0.00302086
-0.00228898
-0.00163266
-0.0025953
-0.00217401
-0.00171533
-0.00198092
-0.00209891
-0.00186955
-0.00126916
-0.00200965
-0.00194479
-0.00054836
-0.00186929
-0.0018672
9.27385e-05
-0.00158755
-0.00160614
0.000699151
-0.00152973
-0.0015475
0.00139653
-0.00181219
-0.00180717
0.00209503
-0.00196702
-0.00189823
0.00270039
-0.00206917
-0.00183948
0.00311301
-0.00216003
-0.00169812
0.00328111
-0.00229028
-0.00163851
0.00300015
-0.00257998
-0.00157492
0.00222655
-0.00309422
-0.00166499
0.00111358
-0.00404737
-0.00220302
-0.00549668
-0.00338208
-0.00338752
-0.00515565
-0.00539331
-0.00539331
-0.00635843
-0.00614027
-0.00662208
-0.00698309
-0.00635688
-0.00785838
-0.00569089
-0.00870365
-0.00469399
-0.00942238
-0.0034077
-0.00995546
-0.00187242
-0.0101958
-8.05152e-05
-0.00991385
0.00175347
-0.0098548
0.00334086
-0.0101761
0.00467028
-0.0099499
0.00570214
-0.00942742
0.00639242
-0.00872183
0.00666982
-0.00788765
0.00641012
-0.00703021
0.0054417
-0.00620042
0.00342253
-0.0054655
-0.00523306
0.000130622
0.00190082
-0.0010987
-0.000386719
0.00160602
-0.000832553
-0.000586834
0.000400204
-0.000586834
-0.000399918
-0.000170111
-0.000189224
-0.00024955
-0.000300859
-5.00941e-05
-3.43214e-05
-0.000392915
0.000183782
0.000197699
-0.00044527
0.000365357
0.000243528
-0.000306586
0.0003815
0.000200446
-0.000235908
0.000369316
0.000161043
-0.000227811
0.0002832
0.000165255
-0.000249667
0.000246162
0.000200842
-0.000278202
0.000276575
0.000278453
-0.000313671
0.000279952
0.000422797
-0.000336487
0.000242402
0.000525573
-0.000264933
9.37365e-05
0.000688885
-0.000255744
-5.35661e-05
0.000884715
-0.000108242
-0.000267363
0.00046391
0.000731553
-0.000810564
-0.000359256
0.00241601
-0.000902528
0.00221575
-0.000957386
0.00203391
-0.0010809
0.00482383
0.00349491
-0.000454537
0.00453313
0.00374658
-0.000103127
0.00374658
0.00304767
0.000422386
0.00270523
0.0018896
0.000800574
0.00178989
0.000909737
0.000582232
0.00123647
0.000425035
-6.72604e-05
0.000795544
0.000316973
-0.000456495
0.000372874
0.000206626
-0.000423217
-2.53531e-05
7.88415e-05
-0.000342444
-0.000395868
-3.75801e-05
-0.000358324
-0.000423812
-0.000150914
-0.000425643
-0.000107561
-0.00036142
-0.000337835
0.000287937
-0.000971134
0.000212502
0.000827671
-0.00205399
0.000808271
0.00133621
-0.00320355
0.000781726
0.00190614
-0.00384371
0.000403273
0.00280959
-0.00354366
9.47012e-05
0.00382019
-0.00189414
-0.000123862
0.00458536
-0.000951337
0.00488422
0.00193251
-0.0040395
0.00389735
0.0034903
-0.00290955
0.00442845
0.0042133
-0.00154914
0.0042133
0.00410165
-6.30043e-05
0.00355283
0.00334663
0.00111123
0.00276559
0.00239037
0.00122106
0.00213955
0.00140876
0.000699775
0.00157237
0.000679024
7.22123e-05
0.000925621
0.000238279
-0.000261428
0.000152238
-8.94969e-05
-0.000287357
-0.000568447
-0.0004603
-0.00025826
-0.000488841
-0.000950244
-0.00014869
0.000193792
-0.00170151
0.000241275
0.000930335
-0.00263727
0.000911909
0.00159242
-0.00356393
0.00140992
0.00217826
-0.00434217
0.00109892
0.00285156
-0.00442115
-0.000166556
0.00369861
-0.00358187
-0.00157267
0.00437681
-0.00191246
-0.00291543
0.00454304
-0.00412483
0.0039425
0.00165261
-0.00588502
0.00129521
0.00275498
-0.00443121
0.00270152
0.00331612
-0.00267141
0.00331612
0.00337516
-0.000636213
0.00326173
0.0030525
0.00100008
0.00290965
0.0023982
0.00153116
0.00248227
0.00161118
0.0012216
0.0020062
0.000805682
0.00069232
0.00134947
0.00017115
0.00025284
0.000355145
-0.000219422
3.39069e-05
-0.000612281
-0.000631557
0.00012219
-0.00035508
-0.00123461
0.000384158
0.000604399
-0.00194839
0.000788761
0.00141798
-0.00263201
0.00133768
0.00199105
-0.00319356
0.00163052
0.00247094
-0.00348743
0.000966988
0.00292199
-0.00341798
-0.000748888
0.00331621
-0.00280477
-0.0027746
0.00339891
-0.00165237
-0.00456624
0.00277434
-0.00605191
0.00133394
0.00154111
-0.0070189
-0.000575997
0.00227733
-0.00505069
0.00134845
0.00248429
-0.00308534
0.00248429
0.0024054
-0.000899815
0.00291756
0.0021616
0.000933924
0.00293528
0.00170026
0.00171624
0.00268042
0.0010873
0.00161895
0.00226491
0.000443097
0.00125052
0.00167335
-1.79487e-05
0.000922787
0.00082336
-0.000100284
0.000698202
-7.83925e-05
-0.000262983
0.000753543
0.000210121
-0.000738181
0.000988888
0.00109767
-0.00132857
0.00128929
0.00178012
-0.00185136
0.00165359
0.00228793
-0.00221992
0.00173596
0.00267436
-0.00242174
0.000872915
0.00293692
-0.00249484
-0.00101164
0.00294632
-0.00227136
-0.00321636
0.00254152
-0.00152652
-0.00521997
0.00140922
-0.00718801
-0.000542247
0.00137271
-0.00773344
-0.00163974
0.0019001
-0.00514419
0.00049172
0.00185938
-0.00300391
0.00185938
0.00156332
-0.000799646
0.00250241
0.00128698
0.000927887
0.0027336
0.00096428
0.00175759
0.0026268
0.000559811
0.00179194
0.00231696
0.000158677
0.00157074
0.00187257
-6.68415e-05
0.0013592
0.00128431
-2.27094e-06
0.00120176
0.000662162
7.75045e-06
0.00121675
0.000815624
-0.000249533
0.00137827
0.00144423
-0.00064073
0.00157161
0.00194711
-0.00100361
0.00178036
0.00234206
-0.00126649
0.00172426
0.0026313
-0.00151473
0.000842577
0.00274416
-0.00181346
-0.000909765
0.00253628
-0.00186051
-0.00314171
0.0019157
-0.00134904
-0.00530881
0.000547251
-0.00787625
-0.00161824
0.00102567
-0.00792317
-0.00242229
0.00139362
-0.00488936
-0.000233496
0.00124297
-0.00270262
0.00124297
0.000881939
-0.000562771
0.00194784
0.00060322
0.000922803
0.00222463
0.000424014
0.00159875
0.00221568
0.000257161
0.00166823
0.0020497
9.92382e-05
0.00154981
0.00182176
1.60419e-05
0.00142567
0.00153325
6.56396e-05
0.00133317
0.00118921
8.99581e-05
0.00134197
0.00123125
-1.79036e-05
0.00143114
0.00157708
-0.00018888
0.00154355
0.001839
-0.000349795
0.00164292
0.00205355
-0.000506645
0.00154018
0.00221808
-0.000783851
0.000834867
0.00224188
-0.00116182
-0.000664405
0.00198788
-0.001334
-0.00283154
0.00128741
-0.00100171
-0.00501476
-0.000206614
-0.00803264
-0.00242236
0.000259019
-0.00719871
-0.00326475
0.000442728
-0.00436952
-0.00118218
0.000176514
-0.0021702
0.000176513
3.70061e-05
-0.000571104
0.00090911
-2.14942e-05
0.000538464
0.00124675
-1.98836e-05
0.00104984
0.00123888
7.36251e-06
0.0010784
0.00112418
4.87332e-05
0.00100485
0.00101062
0.000112949
0.000983176
0.000933427
0.000119679
0.00114362
0.000855963
0.000102355
0.00117296
0.000870993
0.000136426
0.00102018
0.000953833
0.000153134
0.00102715
0.00102164
0.000168808
0.00107018
0.00112494
0.000165215
0.000995946
0.00123866
0.000109402
0.000443119
0.00125566
-5.84924e-05
-0.000647393
0.000929874
-0.000382382
-0.00225336
0.000197221
-0.000234205
-0.00444772
-0.00118275
-0.00727225
-0.00328917
-0.00110562
-0.00505714
-0.00437802
-0.0016484
-0.00306949
-0.00293595
-0.00185499
-0.00175703
-0.00185499
-0.00172663
-0.000949363
-0.00131867
-0.00123311
-0.000374765
-0.00121295
-0.000712117
-6.08776e-05
-0.00112561
-0.000313841
2.1386e-05
-0.00121082
-5.95309e-05
0.000106224
-0.00130047
7.69291e-05
0.000251435
-0.00127193
0.00012245
0.000588358
-0.0010964
0.000149292
0.000638835
-0.00104022
0.000272739
0.000297308
-0.00120775
0.000511598
0.000146616
-0.00125656
0.000898485
4.08409e-05
-0.00119703
0.00140164
-6.84754e-05
-0.00113686
0.00185951
-0.000412128
-0.00124114
0.00194906
-0.00098933
-0.00132253
0.00170462
-0.00179167
-0.00188225
0.00112355
-0.00310207
-0.0029676
-0.00510015
-0.00443063
-0.00403589
-0.00617691
-0.00614027
-0.00635843
-0.00701879
-0.00701879
-0.00715576
-0.00779549
-0.00678727
-0.00860164
-0.00605832
-0.00949348
-0.00507175
-0.0103876
-0.00378351
-0.0111375
-0.00215674
-0.0115711
-0.00010017
-0.0113821
0.00201421
-0.0113303
0.00370205
-0.0115667
0.00505036
-0.0111516
0.00608503
-0.0104212
0.00684304
-0.00954832
0.00721692
-0.00867365
0.00707764
-0.00788026
0.00618693
-0.00710138
0.00406583
-0.00644648
-0.00626739
-1.88586e-05
0.000541261
-0.00162109
-0.000172465
0.000256033
-0.000934974
-0.000189223
-0.000170111
-0.000399919
-2.2995e-05
-0.000332407
-2.29951e-05
0.000139392
-0.000380701
0.000168253
0.000373822
-0.000480904
0.000430277
0.000569004
-0.000473402
0.00064359
0.000552899
-0.000329548
0.00072716
0.000393898
-0.000243277
0.000771597
0.00017204
-0.000226887
0.000731949
-1.39287e-05
-0.00025236
0.0006845
-0.00010949
-0.00029587
0.00066802
-0.000100781
-0.000328847
0.000600102
1.0702e-05
-0.000368178
0.000499107
0.000119737
-0.00033276
0.000317481
0.000249079
-0.000306619
0.000123743
0.000375103
-0.000285831
-0.00010751
0.000222693
-0.000105683
-0.000552432
-5.08682e-05
0.000488255
-0.00111723
0.000793143
-0.00180142
0.00166757
-1.77786e-05
0.0037153
0.00259882
0.000208821
0.00364909
0.00270523
0.000422386
0.00304767
0.00217761
0.000722838
0.00217761
0.00137172
0.000767004
0.00144807
0.000763743
0.000321055
0.0010425
0.000543858
-0.000284477
0.000826515
0.00052393
-0.000552227
0.000615489
0.000374765
-0.000484291
0.000364832
8.7854e-05
-0.000404165
6.83279e-05
-0.000189349
-0.000427743
2.8781e-05
-0.000357259
-0.000494733
0.00025922
-0.000435329
-0.00045437
0.000491538
-0.000781321
2.49508e-05
0.000780533
-0.00152376
0.00063096
0.00111492
-0.00236158
0.00085252
0.00158481
-0.00284472
0.00065762
0.00234925
-0.00273065
0.000386138
0.00321428
-0.00171597
0.000251158
0.00380778
9.89905e-06
0.00395149
0.00175389
-0.00165346
0.00377914
0.00295578
-0.000833615
0.004269
0.00355283
-6.30042e-05
0.00410165
0.00345888
0.000910744
0.00345889
0.00289077
0.0013594
0.00274131
0.002084
0.00113345
0.00213394
0.0012876
0.000498361
0.00158594
0.000721062
-0.000122927
0.00106287
0.000327035
-0.000408755
0.000470734
-0.000104992
-0.000419875
-0.000120706
-0.000546417
-0.000398969
-7.61866e-05
-0.000976548
-0.000323508
0.000452702
-0.00158249
6.02107e-05
0.0010217
-0.00234061
0.000768058
0.00160744
-0.00308755
0.00137896
0.0021772
-0.00366712
0.00145123
0.00283243
-0.00375008
0.000816902
0.00362228
-0.00309396
-0.000202134
0.00430897
-0.00180706
-0.000975039
0.00448233
-0.0018308
0.00397615
0.00181282
-0.00345019
0.00127912
0.00274756
-0.00179022
0.00272338
0.00326172
-0.000636213
0.00337516
0.00340693
0.000620342
0.00340693
0.00311039
0.00150381
0.00306178
0.00249607
0.00161275
0.00261729
0.00172935
0.00113169
0.00213959
0.000959631
0.000489917
0.00150635
0.000297404
-3.76233e-05
0.000646244
-0.000246658
-0.000297821
-0.000190268
-0.000785129
-0.000209899
-5.6758e-06
-0.00139983
0.000105426
0.000790168
-0.00208821
0.000620806
0.00154576
-0.00273756
0.00128692
0.00212154
-0.00326812
0.00176988
0.00261059
-0.00352075
0.00154521
0.00308064
-0.00336485
0.000517587
0.00345962
-0.00281846
-0.000807551
0.00345794
-0.0018371
-0.0019896
0.00280753
-0.00364541
0.00131144
0.00181696
-0.00499281
-0.000850353
0.00257508
-0.00229075
0.00109085
0.00291756
-0.000899815
0.0024054
0.00298833
0.000478801
0.00298833
0.00277597
0.00160074
0.0030507
0.002285
0.00196632
0.00281782
0.00161918
0.00164609
0.00241632
0.000895453
0.00105775
0.00182925
0.000233569
0.000502395
0.000945228
-0.000222343
0.000100088
-2.03851e-05
-0.000670502
0.000202227
0.000246155
-0.00127107
0.000623316
0.00118036
-0.00191981
0.00113781
0.00191185
-0.00249295
0.0017155
0.00243249
-0.00288818
0.00202343
0.00281603
-0.00303988
0.00157654
0.00305729
-0.00294448
0.000352966
0.00301554
-0.00258182
-0.00107841
0.00244972
-0.00179792
-0.00248559
0.00112131
-0.00514911
-0.000836478
0.00160121
-0.00623862
-0.00199515
0.00230653
-0.0025654
6.10518e-05
0.00250241
-0.000799646
0.00156332
0.00242506
0.000633505
0.00242506
0.00221715
0.0017595
0.00278275
0.00185059
0.00220193
0.00275774
0.00133839
0.001989
0.00248625
0.000748375
0.00150656
0.00201377
0.000210314
0.00102372
0.00130104
-0.000108167
0.000618574
0.000462159
-0.00044034
0.000696077
0.000653949
-0.000953385
0.00110666
0.00147394
-0.00150551
0.00154977
0.00208728
-0.00196009
0.00200359
0.00250855
-0.00225643
0.00218846
0.00276262
-0.00241583
0.00168566
0.00279445
-0.00247475
0.000490801
0.00245736
-0.00227597
-0.00097525
0.00161376
-0.00157728
-0.00273959
0.000102552
-0.00635437
-0.00199026
0.00113172
-0.00696527
-0.00282736
0.00182369
-0.00285229
-0.000638589
0.00194784
-0.000562771
0.000881939
0.00178726
0.000954663
0.00178726
0.00163171
0.00185693
0.00228274
0.00144283
0.0021897
0.00241678
0.00116776
0.00199836
0.00231541
0.000796575
0.00163363
0.00206588
0.000373093
0.00131044
0.00167
-2.3824e-05
0.00106359
0.00114112
-0.000411372
0.00110038
0.0012145
-0.000818551
0.00135434
0.00173657
-0.00117971
0.00165791
0.00209201
-0.00143363
0.00199092
0.00232014
-0.00158786
0.00214421
0.00241655
-0.0017192
0.00176412
0.00229476
-0.00188503
0.000825755
0.00181875
-0.00176983
-0.000731599
0.000928553
-0.00111169
-0.00298377
-0.000620585
-0.00704775
-0.00284068
0.000160981
-0.0066951
-0.00369592
0.000761278
-0.0030789
-0.00155588
0.000909111
-0.000571104
3.70058e-05
0.000901198
0.000970482
0.000901198
0.000937564
0.00166392
0.00140339
0.000983274
0.00180944
0.00157342
0.000955072
0.00160588
0.00154486
0.000811258
0.0013628
0.00142526
0.000553081
0.00122954
0.00127251
7.02522e-05
0.00132861
0.00107378
-0.000423901
0.00136369
0.00110184
-0.000691449
0.00127393
0.0013018
-0.000845795
0.00139839
0.00143551
-0.000880787
0.0016118
0.00153905
-0.000831323
0.00177017
0.00156323
-0.000796369
0.00158111
0.00140371
-0.000801987
0.000841718
0.000919526
-0.000698923
-0.000684615
4.71675e-05
-0.000142923
-0.00315807
-0.00156445
-0.00674925
-0.0037306
-0.00131639
-0.00498658
-0.00477015
-0.00156856
-0.00256399
-0.00319871
-0.00131867
-0.000949363
-0.00172663
-0.000898246
0.000129636
-0.000898247
-0.000415847
0.000513144
-0.000544582
7.26829e-05
0.000623958
-0.000428656
0.000383352
0.000627572
-0.000543176
0.000478004
0.000682963
-0.000715292
0.000390086
0.000853694
-0.000808164
0.000110166
0.00128638
-0.000774256
-0.000202702
0.00134306
-0.000706724
-0.000302306
0.000901445
-0.000735667
-0.000203844
0.000717052
-0.000673692
0.000103637
0.000647891
-0.00054061
0.000582525
0.000620903
-0.000466478
0.00103586
0.000484498
-0.000597869
0.0014062
8.50156e-05
-0.000936177
0.00161857
-0.000998921
-0.00178032
0.00132463
-0.00259421
-0.00323753
-0.00502151
-0.00483374
-0.00468275
-0.00648075
-0.00698309
-0.00662208
-0.00779549
-0.00715576
-0.00773067
-0.00773067
-0.00727581
-0.00854335
-0.00658182
-0.00956351
-0.00565426
-0.0106875
-0.00436585
-0.0117429
-0.00258774
-0.0124955
-0.000122496
-0.0125609
0.00242367
-0.0125334
0.00428052
-0.0125221
0.00563891
-0.0117929
0.00662323
-0.0107577
0.00735173
-0.00965591
0.0078161
-0.00865352
0.00786851
-0.00784766
0.00702629
-0.00725809
0.00470779
-0.00672218
-0.00658112
-0.000206678
0.000125463
-0.00153985
-0.000200626
-0.000147419
-0.000793563
-5.00941e-05
-0.000300859
-0.000249551
0.000168253
-0.000380701
0.000139392
0.000410126
-0.000483721
0.000410126
0.000695656
-0.000575399
0.000720165
0.000864349
-0.000487796
0.000962706
0.000810319
-0.000353621
0.00113482
0.000565067
-0.000276014
0.00129287
0.000181129
-0.000259507
0.0013754
-0.000189162
-0.000285119
0.00133992
-0.000378927
-0.000332563
0.00119037
-0.000425326
-0.000357088
0.0010036
-0.000326852
-0.000404102
0.000804747
-0.000167122
-0.00040024
0.000558005
4.76811e-06
-0.000350919
0.000302796
0.000175165
-0.00031681
3.89348e-05
0.000240857
-0.000259316
-0.000358769
0.000195502
-0.000138797
-0.000933035
0.000149938
-0.00175583
0.00118025
0.000706595
0.00195392
0.00173325
0.000757241
0.00219143
0.00178989
0.000800574
0.0018896
0.00144807
0.000767004
0.00137172
0.000977056
0.00045831
0.000977056
0.000678766
-7.51874e-05
0.000840585
0.000672813
-0.000534558
0.000879241
0.000681905
-0.000634451
0.000887237
0.000486103
-0.000526669
0.000811297
0.000104032
-0.000464074
0.000654974
-0.000278909
-0.000487829
0.000614441
-0.000509691
-0.000542968
0.000700416
-0.000554285
-0.000566674
0.000745727
-0.000678237
-0.000275056
0.000775443
-0.00107629
0.000275711
0.000837016
-0.00161486
0.000719008
0.00105344
-0.00194604
0.000843458
0.00152015
-0.00183971
0.000770663
0.00207796
-0.00126358
0.000698123
0.00239471
0.000636464
0.00220137
0.00144535
3.1387e-05
0.003009
0.00232123
0.000720397
0.00342998
0.00276559
0.00111123
0.00334663
0.00274131
0.0013594
0.00289077
0.0023338
0.00127335
0.0023338
0.00171799
0.00083002
0.00184455
0.00113298
0.000173657
0.00146273
0.000732658
-0.000333099
0.00116185
0.000391754
-0.000523021
0.000807997
-8.64414e-05
-0.000514533
0.000407956
-0.000566115
-0.000499681
0.000415344
-0.000946204
-0.000455441
0.000745268
-0.00139408
-0.00017732
0.00108023
-0.00195088
0.000435449
0.00145373
-0.00250864
0.00110985
0.00190083
-0.00289123
0.0015004
0.00243363
-0.00290835
0.00144332
0.00303953
-0.00243793
0.00107205
0.00353717
-0.00151609
0.000618917
0.00363971
-0.000118565
0.00321508
0.00175908
-0.00163243
0.00118385
0.00247584
0.000271806
0.00245521
0.00290965
0.00100008
0.0030525
0.00306178
0.00150381
0.00311039
0.00284533
0.00170624
0.00284533
0.00234762
0.00146268
0.00248234
0.00167454
0.00090982
0.00207651
0.000996994
0.000273473
0.00157733
0.000378933
-0.000209943
0.000951231
-0.000235893
-0.000397178
0.000307208
-0.000819093
-0.00033307
0.000410918
-0.00140535