/*--------------------------------*- C++ -*----------------------------------*\
  =========                 |
  \\      /  F ield         | OpenFOAM: The Open Source CFD Toolbox
   \\    /   O peration     | Website:  https://openfoam.org
    \\  /    A nd           | Version:  9
     \\/     M anipulation  |
\*---------------------------------------------------------------------------*/
FoamFile
{
    format      ascii;
    class       surfaceScalarField;
    location    "0.2";
    object      phi;
}
// * * * * * * * * * * * * * * * * * * * * * * * * * * * * * * * * * * * * * //

dimensions      [0 3 -1 0 0 0 0];

internalField   nonuniform List<scalar> 
1740
(
6.09626e-09
-6.09699e-09
5.33931e-09
7.56844e-10
-7.33632e-09
1.26756e-08
-3.15889e-08
2.42529e-08
-6.53086e-08
3.37198e-08
-1.05813e-07
4.05048e-08
-1.50333e-07
4.45194e-08
-1.9624e-07
4.59068e-08
-2.41147e-07
4.49077e-08
-2.82949e-07
4.1802e-08
-3.19833e-07
3.68839e-08
-3.50286e-07
3.04523e-08
-3.73094e-07
2.28085e-08
-3.87353e-07
1.42588e-08
-3.9247e-07
5.11782e-09
-3.88184e-07
-4.28615e-09
-3.74575e-07
-1.36087e-08
-3.52087e-07
-2.24882e-08
-3.2154e-07
-3.0547e-08
-2.84143e-07
-3.73973e-08
-2.41492e-07
-4.26507e-08
-1.9556e-07
-4.59319e-08
-1.48664e-07
-4.68968e-08
-1.03407e-07
-4.52563e-08
-6.25969e-08
-4.08105e-08
-2.90858e-08
-3.35109e-08
-5.50008e-09
-2.35854e-08
6.2747e-09
-1.17746e-08
6.28302e-09
-8.35255e-12
6.2829e-09
-4.4079e-10
-5.65619e-09
-2.00484e-08
2.03646e-08
-6.49821e-08
5.76091e-08
-1.34639e-07
9.39096e-08
-2.25135e-07
1.24216e-07
-3.30947e-07
1.46317e-07
-4.45929e-07
1.59501e-07
-5.63926e-07
1.63904e-07
-6.79134e-07
1.60115e-07
-7.8629e-07
1.48959e-07
-8.80792e-07
1.31386e-07
-9.58755e-07
1.08416e-07
-1.01706e-06
8.11144e-08
-1.05339e-06
5.05828e-08
-1.06623e-06
1.79645e-08
-1.05497e-06
-1.55499e-08
-1.01986e-06
-4.87173e-08
-9.62103e-07
-8.02434e-08
-8.83856e-07
-1.08794e-07
-7.88234e-07
-1.33019e-07
-6.79294e-07
-1.5159e-07
-5.61967e-07
-1.63259e-07
-4.41938e-07
-1.66925e-07
-3.25451e-07
-1.61742e-07
-2.19012e-07
-1.47249e-07
-1.2893e-07
-1.23593e-07
-6.06208e-08
-9.18949e-08
-1.75538e-08
-5.48418e-08
3.47482e-10
-1.79098e-08
6.63037e-09
-1.20574e-08
6.40148e-09
-5.71644e-08
6.54716e-08
-1.38059e-07
1.38504e-07
-2.52468e-07
2.08317e-07
-3.94803e-07
2.66551e-07
-5.5752e-07
3.09035e-07
-7.32166e-07
3.34147e-07
-9.10133e-07
3.41871e-07
-1.08316e-06
3.33146e-07
-1.24368e-06
3.09475e-07
-1.38498e-06
2.7269e-07
-1.5014e-06
2.24828e-07
-1.58834e-06
1.68055e-07
-1.6424e-06
1.04646e-07
-1.6614e-06
3.69682e-08
-1.64445e-06
-3.25083e-08
-1.59195e-06
-1.01212e-07
-1.50571e-06
-1.66482e-07
-1.38891e-06
-2.25591e-07
-1.24613e-06
-2.75806e-07
-1.08325e-06
-3.14466e-07
-9.07402e-07
-3.39107e-07
-7.26711e-07
-3.47617e-07
-5.50007e-07
-3.38446e-07
-3.86369e-07
-3.10886e-07
-2.44492e-07
-2.6547e-07
-1.31821e-07
-2.04566e-07
-5.34517e-08
-1.33211e-07
-1.08001e-08
-6.05617e-08
-4.16963e-09
-2.40555e-08
3.04571e-08
-9.61628e-08
1.37579e-07
-2.14174e-07
2.56515e-07
-3.72874e-07
3.67018e-07
-5.64472e-07
4.58149e-07
-7.79462e-07
5.24024e-07
-1.00749e-06
5.6217e-07
-1.23805e-06
5.72431e-07
-1.46105e-06
5.56148e-07
-1.66718e-06
5.1561e-07
-1.8482e-06
4.53704e-07
-1.99706e-06
3.73695e-07
-2.10812e-06
2.79107e-07
-2.17713e-06
1.73658e-07
-2.2014e-06
6.1242e-08
-2.17982e-06
-5.40849e-08
-2.11293e-06
-1.68105e-07
-2.00295e-06
-2.76465e-07
-1.85382e-06
-3.74725e-07
-1.67117e-06
-4.58452e-07
-1.46227e-06
-5.23362e-07
-1.23586e-06
-5.65517e-07
-1.00189e-06
-5.81586e-07
-7.71158e-07
-5.69182e-07
-5.54755e-07
-5.2729e-07
-3.63394e-07
-4.5683e-07
-2.06546e-07
-3.61414e-07
-9.1488e-08
-2.4827e-07
-2.24172e-08
-1.29633e-07
-2.65868e-08
-3.52949e-08
6.57518e-08
-1.33999e-07
2.36283e-07
-2.88869e-07
4.11386e-07
-4.91121e-07
5.69271e-07
-7.30308e-07
6.97336e-07
-9.94801e-07
7.88517e-07
-1.27242e-06
8.39787e-07
-1.55103e-06
8.51041e-07
-1.81905e-06
8.24172e-07
-2.06584e-06
7.62402e-07
-2.28197e-06
6.6983e-07
-2.4594e-06
5.51129e-07
-2.59166e-06
4.11368e-07
-2.67392e-06
2.55918e-07
-2.70308e-06
9.04024e-08
-2.67786e-06
-7.93134e-08
-2.59882e-06
-2.47141e-07
-2.46848e-06
-4.06803e-07
-2.2913e-06
-5.51908e-07
-2.07366e-06
-6.76087e-07
-1.82384e-06
-7.7319e-07
-1.55178e-06
-8.37576e-07
-1.26888e-06
-8.64482e-07
-9.87573e-07
-8.50491e-07
-7.20758e-07
-7.94105e-07
-4.81141e-07
-6.96447e-07
-2.80443e-07
-5.62112e-07
-1.28629e-07
-4.00084e-07
-3.33407e-08
-2.24921e-07
-5.99275e-08
-4.56551e-08
1.11407e-07
-1.69943e-07
3.6057e-07
-3.60847e-07
6.0229e-07
-6.05799e-07
8.14222e-07
-8.91401e-07
9.82938e-07
-1.2037e-06
1.10082e-06
-1.52864e-06
1.16473e-06
-1.85255e-06
1.17495e-06
-2.16254e-06
1.13416e-06
-2.44688e-06
1.04674e-06
-2.69523e-06
9.18175e-07
-2.8988e-06
7.54701e-07
-3.05052e-06
5.63092e-07
-3.14512e-06
3.5051e-07
-3.17917e-06
1.24456e-07
-3.15123e-06
-1.07257e-07
-3.06184e-06
-3.36523e-07
-2.91366e-06
-5.54982e-07
-2.71145e-06
-7.5412e-07
-2.46211e-06
-9.25433e-07
-2.1746e-06
-1.0607e-06
-1.85985e-06
-1.15233e-06
-1.53046e-06
-1.19387e-06
-1.20034e-06
-1.18061e-06
-8.84179e-07
-1.11026e-06
-5.96816e-07
-9.8381e-07
-3.52507e-07
-8.06421e-07
-1.64272e-07
-5.88318e-07
-4.34758e-08
-3.45717e-07
-1.03403e-07
-5.53281e-08
1.66736e-07
-2.0423e-07
5.09472e-07
-4.30321e-07
8.28381e-07
-7.17226e-07
1.10113e-06
-1.04843e-06
1.31414e-06
-1.40748e-06
1.45987e-06
-1.77837e-06
1.53562e-06
-2.14587e-06
1.54245e-06
-2.49592e-06
1.48421e-06
-2.81584e-06
1.36667e-06
-3.09458e-06
1.19691e-06
-3.32279e-06
9.82912e-07
-3.49297e-06
7.33275e-07
-3.59951e-06
4.57052e-07
-3.63876e-06
1.63702e-07
-3.60908e-06
-1.36941e-07
-3.51093e-06
-4.34674e-07
-3.34694e-06
-7.18963e-07
-3.12202e-06
-9.79046e-07
-2.84332e-06
-1.20413e-06
-2.52033e-06
-1.38369e-06
-2.16469e-06
-1.50796e-06
-1.7901e-06
-1.56847e-06
-1.41189e-06
-1.55882e-06
-1.04661e-06
-1.47554e-06
-7.11415e-07
-1.319e-06
-4.23383e-07
-1.09445e-06
-1.98871e-07
-8.1283e-07
-5.30765e-08
-4.91512e-07
-1.5648e-07
-6.45952e-08
2.31331e-07
-2.37479e-07
6.82356e-07
-4.98178e-07
1.08908e-06
-8.26534e-07
1.42948e-06
-1.2028e-06
1.69041e-06
-1.60792e-06
1.86498e-06
-2.02381e-06
1.95151e-06
-2.43374e-06
1.95237e-06
-2.82248e-06
1.87295e-06
-3.17657e-06
1.72076e-06
-3.48439e-06
1.50473e-06
-3.73621e-06
1.23473e-06
-3.92425e-06
9.2131e-07
-4.04266e-06
5.75467e-07
-4.0876e-06
2.08642e-07
-4.05724e-06
-1.67298e-07
-3.95188e-06
-5.4004e-07
-3.774e-06
-8.96841e-07
-3.52843e-06
-1.22462e-06
-3.2224e-06
-1.51015e-06
-2.86566e-06
-1.74043e-06
-2.47045e-06
-1.90317e-06
-2.05139e-06
-1.98753e-06
-1.62525e-06
-1.98497e-06
-1.21052e-06
-1.89027e-06
-8.26881e-07
-1.70264e-06
-4.94496e-07
-1.42684e-06
-2.33323e-07
-1.074e-06
-6.2508e-08
-6.62328e-07
-2.18988e-07
-7.37284e-08
3.05059e-07
-2.70382e-07
8.7901e-07
-5.65498e-07
1.3842e-06
-9.351e-07
1.79909e-06
-1.35611e-06
2.11142e-06
-1.80675e-06
2.31562e-06
-2.26683e-06
2.4116e-06
-2.71807e-06
2.40362e-06
-3.14422e-06
2.2991e-06
-3.53114e-06
2.10768e-06
-3.86681e-06
1.84039e-06
-4.14128e-06
1.50921e-06
-4.34665e-06
1.12667e-06
-4.47695e-06
7.05771e-07
-4.5282e-06
2.5989e-07
-4.49837e-06
-1.97126e-07
-4.38749e-06
-6.50915e-07
-4.19778e-06
-1.08656e-06
-3.93377e-06
-1.48863e-06
-3.60256e-06
-1.84137e-06
-3.21391e-06
-2.12908e-06
-2.78043e-06
-2.33665e-06
-2.31757e-06
-2.4504e-06
-1.84346e-06
-2.45908e-06
-1.37863e-06
-2.35509e-06
-9.45477e-07
-2.13579e-06
-5.67532e-07
-1.80478e-06
-2.68644e-07
-1.37289e-06
-7.21423e-08
-8.5883e-07
-2.9113e-07
-8.29629e-08
3.88022e-07
-3.03589e-07
1.09964e-06
-6.33323e-07
1.71393e-06
-1.04424e-06
2.21e-06
-1.50978e-06
2.57697e-06
-2.00534e-06
2.81118e-06
-2.5086e-06
2.91486e-06
-2.99979e-06
2.8948e-06
-3.46171e-06
2.76103e-06
-3.87974e-06
2.52571e-06
-4.24167e-06
2.20232e-06
-4.53754e-06
1.80508e-06
-4.75949e-06
1.34862e-06
-4.9016e-06
8.47874e-07
-4.95978e-06
3.18076e-07
-4.93183e-06
-2.2508e-07
-4.81743e-06
-7.65319e-07
-4.61833e-06
-1.28565e-06
-4.3386e-06
-1.76835e-06
-3.98488e-06
-2.19509e-06
-3.5667e-06
-2.54726e-06
-3.09676e-06
-2.80659e-06
-2.5911e-06
-2.95605e-06
-2.06915e-06
-2.98103e-06
-1.55351e-06
-2.87074e-06
-1.06944e-06
-2.61986e-06
-6.44177e-07
-2.23005e-06
-3.05835e-07
-1.71123e-06
-8.23249e-08
-1.08234e-06
-3.73455e-07
-9.24998e-08
4.80522e-07
-3.37678e-07
1.34482e-06
-7.02586e-07
2.07884e-06
-1.15507e-06
2.66248e-06
-1.6649e-06
3.0868e-06
-2.20452e-06
3.35079e-06
-2.74945e-06
3.45979e-06
-3.27852e-06
3.42388e-06
-3.77382e-06
3.25632e-06
-4.22046e-06
2.97234e-06
-4.60631e-06
2.58817e-06
-4.92166e-06
2.12044e-06
-5.15895e-06
1.58591e-06
-5.31244e-06
1.00136e-06
-5.37809e-06
3.83728e-07
-5.3535e-06
-2.49673e-07
-5.23793e-06
-8.80884e-07
-5.03253e-06
-1.49105e-06
-4.74059e-06
-2.06029e-06
-4.368e-06
-2.56769e-06
-3.92366e-06
-2.9916e-06
-3.42e-06
-3.31025e-06
-2.87337e-06
-3.50268e-06
-2.30427e-06
-3.55013e-06
-1.73731e-06
-3.4377e-06
-1.20081e-06
-3.15635e-06
-7.26013e-07
-2.70485e-06
-3.45837e-07
-2.09141e-06
-9.33737e-08
-1.3348e-06
-4.66829e-07
-1.02519e-07
5.83041e-07
-3.73173e-07
1.61547e-06
-7.74109e-07
2.47977e-06
-1.26851e-06
3.15689e-06
-1.82217e-06
3.64045e-06
-2.40442e-06
3.93304e-06
-2.98867e-06
4.04404e-06
-3.55252e-06
3.98773e-06
-4.07759e-06
3.78139e-06
-4.54908e-06
3.44383e-06
-4.95531e-06
2.9944e-06
-5.28719e-06
2.45232e-06
-5.53771e-06
1.83643e-06
-5.7016e-06
1.16525e-06
-5.775e-06
4.57127e-07
-5.75536e-06
-2.69318e-07
-5.64145e-06
-9.94789e-07
-5.43361e-06
-1.69889e-06
-5.13409e-06
-2.35981e-06
-4.74759e-06
-2.95419e-06
-4.28194e-06
-3.45725e-06
-3.74878e-06
-3.8434e-06
-3.16432e-06
-4.08715e-06
-2.54976e-06
-4.16468e-06
-1.93159e-06
-4.05587e-06
-1.34129e-06
-3.74666e-06
-8.14479e-07
-3.23166e-06
-3.89534e-07
-2.51635e-06
-1.0559e-07
-1.61875e-06
-5.72419e-07
-1.13202e-07
6.96243e-07
-4.10592e-07
1.91286e-06
-8.48663e-07
2.91784e-06
-1.3853e-06
3.69353e-06
-1.98187e-06
4.23703e-06
-2.60446e-06
4.55562e-06
-3.22442e-06
4.664e-06
-3.8184e-06
4.58171e-06
-4.36792e-06
4.33092e-06
-4.85877e-06
3.93468e-06
-5.28019e-06
3.41582e-06
-5.62414e-06
2.79627e-06
-5.88463e-06
2.09692e-06
-6.0571e-06
1.33773e-06
-6.1381e-06
5.38127e-07
-6.12502e-06
-2.82404e-07
-6.01609e-06
-1.10371e-06
-5.81065e-06
-1.90433e-06
-5.50955e-06
-2.66091e-06
-5.11586e-06
-3.34788e-06
-4.6357e-06
-3.93741e-06
-4.07931e-06
-4.39978e-06
-3.46206e-06
-4.7044e-06
-2.80535e-06
-4.8214e-06
-2.13719e-06
-4.72403e-06
-1.49222e-06
-4.39163e-06
-9.1087e-07
-3.813e-06
-4.37781e-07
-2.98944e-06
-1.19273e-07
-1.93726e-06
-6.91691e-07
-1.24757e-07
8.21e-07
-4.5052e-07
2.23862e-06
-9.27059e-07
3.39438e-06
-1.50606e-06
4.27253e-06
-2.14393e-06
4.87489e-06
-2.80328e-06
5.21497e-06
-3.45357e-06
5.31429e-06
-4.0709e-06
5.19904e-06
-4.63728e-06
4.8973e-06
-5.13969e-06
4.43708e-06
-5.56892e-06
3.84505e-06
-5.9186e-06
3.14595e-06
-6.18419e-06
2.36251e-06
-6.36231e-06
1.51584e-06
-6.45012e-06
6.25945e-07
-6.44512e-06
-2.87413e-07
-6.34498e-06
-1.20385e-06
-6.14785e-06
-2.10146e-06
-5.85283e-06
-2.95593e-06
-5.46079e-06
-3.73993e-06
-4.97546e-06
-4.42274e-06
-4.40479e-06
-4.97045e-06
-3.76244e-06
-5.34675e-06
-3.06919e-06
-5.51466e-06
-2.354e-06
-5.43921e-06
-1.65451e-06
-5.09113e-06
-1.01636e-06
-4.45115e-06
-4.91438e-07
-3.51437e-06
-1.34742e-07
-2.29395e-06
-8.26433e-07
-1.37463e-07
9.58463e-07
-4.93711e-07
2.59487e-06
-1.01029e-06
3.91096e-06
-1.63145e-06
4.89369e-06
-2.30789e-06
5.55133e-06
-2.99862e-06
5.90571e-06
-3.67147e-06
5.98715e-06
-4.3026e-06
5.83016e-06
-4.87529e-06
5.46999e-06
-5.37853e-06
4.94032e-06
-5.8055e-06
4.27201e-06
-6.15214e-06
3.49259e-06
-6.41603e-06
2.6264e-06
-6.59537e-06
1.69518e-06
-6.68833e-06
7.18914e-07
-6.69267e-06
-2.83076e-07
-6.60556e-06
-1.29097e-06
-6.42379e-06
-2.28322e-06
-6.14437e-06
-3.23535e-06
-5.76536e-06
-4.11894e-06
-5.28725e-06
-4.90084e-06
-4.71469e-06
-5.54301e-06
-4.05843e-06
-6.00301e-06
-3.33745e-06
-6.23564e-06
-2.58077e-06
-6.19589e-06
-1.82859e-06
-5.84331e-06
-1.13205e-06
-5.14769e-06
-5.51435e-07
-4.09498e-06
-1.52369e-07
-2.69302e-06
-9.78802e-07
-1.51724e-07
1.11019e-06
-5.41223e-07
2.98437e-06
-1.09967e-06
4.46941e-06
-1.76221e-06
5.55623e-06
-2.47295e-06
6.26206e-06
-3.18717e-06
6.61993e-06
-3.87162e-06
6.67161e-06
-4.5034e-06
6.46194e-06
-5.06814e-06
6.03472e-06
-5.5579e-06
5.43009e-06
-5.96921e-06
4.68332e-06
-6.30121e-06
3.82459e-06
-6.55423e-06
2.87941e-06
-6.72861e-06
1.86956e-06
-6.82392e-06
8.14227e-07
-6.83842e-06
-2.68573e-07
-6.76887e-06
-1.36052e-06
-6.61065e-06
-2.44144e-06
-6.35831e-06
-3.48769e-06
-6.00654e-06
-4.47071e-06
-5.55169e-06
-5.3557e-06
-4.99382e-06
-6.10088e-06
-4.3393e-06
-6.65752e-06
-3.60373e-06
-6.97121e-06
-2.81476e-06
-6.98486e-06
-2.01427e-06
-6.64381e-06
-1.25898e-06
-5.90298e-06
-6.18858e-07
-4.7351e-06
-1.72617e-07
-3.13926e-06
-1.15142e-06
-1.68155e-07
1.27834e-06
-5.9462e-07
3.41084e-06
-1.19711e-06
5.0719e-06
-1.89934e-06
6.25846e-06
-2.63779e-06
7.00052e-06
-3.36418e-06
7.34631e-06
-4.04504e-06
7.35247e-06
-4.65975e-06
7.07665e-06
-5.1977e-06
6.57268e-06
-5.65543e-06
5.88781e-06
-6.0339e-06
5.0618e-06
-6.3364e-06
4.12709e-06
-6.56673e-06
3.10975e-06
-6.72794e-06
2.03078e-06
-6.82142e-06
9.07699e-07
-6.84622e-06
-2.43767e-07
-6.79887e-06
-1.40788e-06
-6.67333e-06
-2.56698e-06
-6.46152e-06
-3.69951e-06
-6.15422e-06
-4.77801e-06
-5.7427e-06
-5.76721e-06
-5.22111e-06
-6.62248e-06
-4.58959e-06
-7.28904e-06
-3.85823e-06
-7.70256e-06
-3.05122e-06
-7.79187e-06
-2.21057e-06
-7.48446e-06
-1.3982e-06
-6.71534e-06
-6.95076e-07
-5.43823e-06
-1.96117e-07
-3.63822e-06
-1.34754e-06
-1.87716e-07
1.46606e-06
-6.56236e-07
3.87936e-06
-1.30525e-06
5.72091e-06
-2.04398e-06
6.9972e-06
-2.80024e-06
7.75677e-06
-3.52268e-06
8.06875e-06
-4.17921e-06
8.009e-06
-4.75342e-06
7.65086e-06
-5.24036e-06
7.05962e-06
-5.64259e-06
6.29005e-06
-5.96688e-06
5.38608e-06
-6.22156e-06
4.38177e-06
-6.41462e-06
3.30281e-06
-6.55232e-06
2.16848e-06
-6.63823e-06
9.93608e-07
-6.67257e-06
-2.0943e-07
-6.65185e-06
-1.4286e-06
-6.5688e-06
-2.65003e-06
-6.41265e-06
-3.85565e-06
-6.16998e-06
-5.02069e-06
-5.82619e-06
-6.111e-06
-5.36809e-06
-7.08058e-06
-4.78755e-06
-7.86958e-06
-4.08645e-06
-8.40367e-06
-3.28253e-06
-8.59579e-06
-2.41536e-06
-8.35163e-06
-1.55081e-06
-7.57989e-06
-7.8193e-07
-6.20711e-06
-2.23782e-07
-4.19637e-06
-1.57132e-06
-2.11929e-07
1.67799e-06
-7.2956e-07
4.39699e-06
-1.42775e-06
6.4191e-06
-2.19724e-06
7.76668e-06
-2.95633e-06
8.51586e-06
-3.65211e-06
8.76453e-06
-4.25637e-06
8.61327e-06
-4.75966e-06
8.15415e-06
-5.16509e-06
7.46505e-06
-5.48317e-06
6.60812e-06
-5.72769e-06
5.63061e-06
-5.91292e-06
4.56699e-06
-6.05154e-06
3.44143e-06
-6.15337e-06
2.27031e-06
-6.22445e-06
1.06469e-06
-6.26644e-06
-1.6744e-07
-6.2762e-06
-1.41884e-06
-6.24555e-06
-2.68068e-06
-6.16132e-06
-3.93987e-06
-6.00587e-06
-5.17614e-06
-5.75831e-06
-6.35856e-06
-5.39693e-06
-7.44197e-06
-4.90312e-06
-8.36338e-06
-4.26733e-06
-9.03945e-06
-3.49682e-06
-9.3663e-06
-2.62463e-06
-9.22382e-06
-1.71786e-06
-8.48665e-06
-8.82007e-07
-7.04297e-06
-2.5701e-07
-4.82136e-06
-1.82833e-06
-2.4324e-07
1.92123e-06
-8.19753e-07
4.9735e-06
-1.56934e-06
7.16868e-06
-2.35931e-06
8.55665e-06
-3.0986e-06
9.25515e-06
-3.73575e-06
9.40169e-06
-4.25055e-06
9.12806e-06
-4.64425e-06
8.54785e-06
-4.93097e-06
7.75178e-06
-5.13107e-06
6.80823e-06
-5.26655e-06
5.76609e-06
-5.35806e-06
4.65851e-06
-5.42318e-06
3.50654e-06
-5.47529e-06
2.32243e-06
-5.52299e-06
1.11239e-06
-5.56956e-06
-1.20866e-07
-5.6126e-06
-1.37581e-06
-5.64357e-06
-2.6497e-06
-5.64758e-06
-3.93587e-06
-5.60331e-06
-5.22041e-06
-5.48373e-06
-6.47813e-06
-5.25797e-06
-7.66773e-06
-4.89505e-06
-8.7263e-06
-4.37042e-06
-9.56409e-06
-3.67564e-06
-1.00611e-05
-2.83115e-06
-1.00683e-05
-1.90011e-06
-9.4177e-06
-9.99023e-07
-7.94405e-06
-2.98029e-07
-5.52236e-06
-2.12636e-06
-2.85647e-07
2.20687e-06
-9.34299e-07
5.62215e-06
-1.73537e-06
7.96975e-06
-2.52746e-06
9.34874e-06
-3.21251e-06
9.9402e-06
-3.74637e-06
9.93555e-06
-4.12295e-06
9.50464e-06
-4.35919e-06
8.78409e-06
-4.48346e-06
7.87604e-06
-4.52765e-06
6.85242e-06
-4.5225e-06
5.76093e-06
-4.49496e-06
4.63097e-06
-4.46704e-06
3.47862e-06
-4.45523e-06
2.31062e-06
-4.47037e-06
1.12752e-06
-4.51737e-06
-7.3866e-08
-4.59493e-06
-1.29825e-06
-4.69497e-06
-2.54966e-06
-4.80196e-06
-3.82888e-06
-4.89222e-06
-5.13015e-06
-4.9337e-06
-6.43666e-06
-4.88674e-06
-7.71469e-06
-4.70696e-06
-8.90608e-06
-4.35148e-06
-9.91957e-06
-3.79002e-06
-1.06225e-05
-3.02181e-06
-1.08365e-05
-2.09705e-06
-1.03425e-05
-1.13827e-06
-8.90283e-06
-3.50519e-07
-6.3101e-06
-2.47688e-06
-3.45765e-07
2.55264e-06
-1.08365e-06
6.36004e-06
-1.93022e-06
8.81632e-06
-2.69159e-06
1.01101e-05
-3.26995e-06
1.05186e-05
-3.63871e-06
1.03043e-05
-3.81475e-06
9.68068e-06
-3.83656e-06
8.8059e-06
-3.74968e-06
7.78917e-06
-3.59839e-06
6.70113e-06
-3.4216e-06
5.58414e-06
-3.25138e-06
4.46075e-06
-3.11281e-06
3.34005e-06
-3.02435e-06
2.22216e-06
-2.99827e-06
1.10143e-06
-3.04082e-06
-3.13081e-08
-3.15214e-06
-1.18693e-06
-3.32552e-06
-2.37627e-06
-3.54642e-06
-3.60799e-06
-3.79095e-06
-4.88562e-06
-4.02444e-06
-6.20317e-06
-4.20055e-06
-7.53858e-06
-4.26216e-06
-8.84446e-06
-4.14605e-06
-1.00357e-05
-3.79387e-06
-1.09747e-05
-3.17243e-06
-1.1458e-05
-2.30453e-06
-1.12104e-05
-1.30685e-06
-9.90051e-06
-4.20646e-07
-7.1963e-06
-2.89752e-06
-4.34594e-07
2.98723e-06
-1.28117e-06
7.20661e-06
-2.15242e-06
9.68757e-06
-2.82484e-06
1.07825e-05
-3.21732e-06
1.0911e-05
-3.33742e-06
1.04244e-05
-3.23643e-06
9.57969e-06
-2.98013e-06
8.5496e-06
-2.63269e-06
7.44173e-06
-2.24957e-06
6.31801e-06
-1.87549e-06
5.21006e-06
-1.54494e-06
4.13021e-06
-1.28362e-06
3.07873e-06
-1.10995e-06
2.04849e-06
-1.03626e-06
1.02775e-06
-1.06953e-06
1.95757e-09
-1.21141e-06
-1.04505e-06
-1.45763e-06
-2.13005e-06
-1.7966e-06
-3.26901e-06
-2.20726e-06
-4.47495e-06
-2.65625e-06
-5.75418e-06
-3.09485e-06
-7.09998e-06
-3.45694e-06
-8.48238e-06
-3.65993e-06
-9.83269e-06
-3.61298e-06
-1.10217e-05
-3.23787e-06
-1.18331e-05
-2.5088e-06
-1.19394e-05
-1.5129e-06
-1.08964e-05
-5.18739e-07
-8.19047e-06
-3.41626e-06
-5.70078e-07
3.55731e-06
-1.54014e-06
8.17668e-06
-2.38231e-06
1.05297e-05
-2.86446e-06
1.12647e-05
-2.95453e-06
1.10011e-05
-2.71811e-06
1.0188e-05
-2.25302e-06
9.1146e-06
-1.65532e-06
7.9519e-06
-1.00551e-06
6.79193e-06
-3.65671e-07
5.67816e-06
2.18683e-07
4.6257e-06
7.1515e-07
3.63374e-06
1.1011e-06
2.69278e-06
1.36091e-06
1.78867e-06
1.48404e-06
9.04622e-07
1.46382e-06
2.21736e-08
1.29718e-06
-8.78413e-07
9.85087e-07
-1.81796e-06
5.34048e-07
-2.81797e-06
-4.12822e-08
-3.89962e-06
-7.14156e-07
-5.08131e-06
-1.44049e-06
-6.37365e-06
-2.15288e-06
-7.76998e-06
-2.75594e-06
-9.22963e-06
-3.12733e-06
-1.06503e-05
-3.1334e-06
-1.1827e-05
-2.67269e-06
-1.24001e-05
-1.76107e-06
-1.1808e-05
-6.61437e-07
-9.29011e-06
-4.0777e-06
-7.78782e-07
4.33609e-06
-1.86061e-06
9.2585e-06
-2.55194e-06
1.12211e-05
-2.67435e-06
1.13871e-05
-2.29989e-06
1.06267e-05
-1.57999e-06
9.46808e-06
-6.65841e-07
8.20045e-06
3.20957e-07
6.9651e-06
1.29271e-06
5.82017e-06
2.19022e-06
4.78065e-06
2.97521e-06
3.84071e-06
3.6236e-06
2.98535e-06
4.12033e-06
2.19605e-06
4.45573e-06
1.45327e-06
4.6231e-06
7.37251e-07
4.61733e-06
2.79453e-08
4.43432e-06
-6.954e-07
4.07125e-06
-1.45489e-06
3.52782e-06
-2.27454e-06
2.8088e-06
-3.1806e-06
1.92836e-06
-4.20087e-06
9.16853e-07
-5.36215e-06
-1.69565e-07
-6.68357e-06
-1.23714e-06
-8.16205e-06
-2.14398e-06
-9.74345e-06
-2.70087e-06
-1.12701e-05
-2.70451e-06
-1.23965e-05
-2.03625e-06
-1.24763e-05
-8.71874e-07
-1.04545e-05
-4.94957e-06
-1.08673e-06
5.42282e-06
-2.1837e-06
1.03555e-05
-2.47515e-06
1.15125e-05
-1.9754e-06
1.08874e-05
-9.35881e-07
9.58713e-06
3.88716e-07
8.14348e-06
1.80488e-06
6.78428e-06
3.1853e-06
5.58468e-06
4.45406e-06
4.55141e-06
5.56958e-06
3.66513e-06
6.51121e-06
2.89909e-06
7.26996e-06
2.22659e-06
7.84267e-06
1.62335e-06
8.22826e-06
1.06768e-06
8.42559e-06
5.39916e-07
8.43218e-06
2.13583e-08
8.24357e-06
-5.06793e-07
7.85332e-06
-1.06464e-06
7.25367e-06
-1.67489e-06
6.43727e-06
-2.3642e-06
5.40079e-06
-3.16439e-06
4.15149e-06
-4.11285e-06
2.71849e-06
-5.25056e-06
1.17052e-06
-6.61408e-06
-3.59609e-07
-8.21331e-06
-1.65062e-06
-9.97909e-06
-2.39121e-06
-1.16559e-05
-2.25339e-06
-1.26141e-05
-1.16627e-06
-1.15416e-05
-6.11584e-06
-1.46923e-06
6.89205e-06
-2.26056e-06
1.11468e-05
-1.69731e-06
1.09493e-05
-2.26804e-07
9.41685e-06
1.66286e-06
7.69747e-06
3.64283e-06
6.16351e-06
5.52521e-06
4.90191e-06
7.21795e-06
3.89194e-06
8.68518e-06
3.08418e-06
9.92013e-06
2.43018e-06
1.09292e-05
1.89002e-06
1.17233e-05
1.43252e-06
1.23132e-05
1.03344e-06
1.27074e-05
6.73498e-07
1.29107e-05
3.36596e-07
1.29238e-05
8.29311e-09
1.27425e-05
-3.25553e-07
1.23579e-05
-6.80053e-07
1.17559e-05
-1.07282e-06
1.09174e-05
-1.52576e-06
9.82041e-06
-2.06739e-06
8.4433e-06
-2.73573e-06
6.77404e-06
-3.58131e-06
4.82832e-06
-4.66836e-06
2.68299e-06
-6.06798e-06
5.28852e-07
-7.82496e-06
-1.26616e-06
-9.8609e-06
-2.12781e-06
-1.17525e-05
-1.49582e-06
-1.21736e-05
-7.61166e-06
-1.68447e-06
8.57652e-06
-1.3204e-06
1.07827e-05
8.00146e-07
8.82872e-06
3.55087e-06
6.66612e-06
6.30101e-06
4.94733e-06
8.78505e-06
3.67947e-06
1.09195e-05
2.7675e-06
1.27035e-05
2.10786e-06
1.41682e-05
1.61952e-06
1.53516e-05
1.24675e-06
1.62892e-05
9.52426e-07
1.70102e-05
7.11592e-07
1.75366e-05
5.06951e-07
1.78842e-05
3.25935e-07
1.8062e-05
1.58759e-07
1.80733e-05
-2.9196e-09
1.79148e-05
-1.67071e-07
1.75769e-05
-3.42183e-07
1.70425e-05
-5.38411e-07
1.62857e-05
-7.68997e-07
1.52708e-05
-1.05246e-06
1.39511e-05
-1.41605e-06
1.2271e-05
-1.9012e-06
1.01745e-05
-2.57184e-06
7.63105e-06
-3.52453e-06
4.69604e-06
-4.88995e-06
1.63253e-06
-6.79739e-06
-8.75504e-07
-9.24443e-06
-1.57637e-06
-1.14727e-05
-9.18804e-06
-4.83317e-07
9.05984e-06
2.87259e-06
7.42683e-06
7.14143e-06
4.55988e-06
1.09523e-05
2.85525e-06
1.40423e-05
1.85731e-06
1.64703e-05
1.25153e-06
1.83621e-05
8.75635e-07
1.98363e-05
6.33683e-07
2.09861e-05
4.69723e-07
2.18805e-05
3.52377e-07
2.2569e-05
2.63909e-07
2.30867e-05
1.93876e-07
2.34579e-05
1.35765e-07
2.36986e-05
8.52201e-08
2.38183e-05
3.90582e-08
2.38207e-05
-5.32236e-09
2.3704e-05
-5.03344e-08
2.34604e-05
-9.85637e-08
2.30751e-05
-1.53153e-07
2.25245e-05
-2.18381e-07
2.17726e-05
-3.00623e-07
2.07667e-05
-4.10134e-07
1.94301e-05
-5.64533e-07
1.7654e-05
-7.95734e-07
1.52924e-05
-1.16301e-06
1.21773e-05
-1.77484e-06
8.20463e-06
-2.8247e-06
3.62215e-06
-4.66195e-06
-1.50281e-07
-7.70029e-06
-9.33832e-06
9.05984e-06
1.64867e-05
2.10465e-05
2.39018e-05
2.57591e-05
2.70106e-05
2.78863e-05
2.852e-05
2.89897e-05
2.93421e-05
2.9606e-05
2.97998e-05
2.99356e-05
3.00208e-05
3.00599e-05
3.00546e-05
3.00042e-05
2.99057e-05
2.97525e-05
2.95341e-05
2.92335e-05
2.88234e-05
2.82588e-05
2.74631e-05
2.63001e-05
2.45253e-05
2.17006e-05
1.70386e-05
9.33832e-06
)
;

boundaryField
{
    movingWall
    {
        type            calculated;
        value           uniform 0;
    }
    fixedWalls
    {
        type            calculated;
        value           uniform 0;
    }
    frontAndBack
    {
        type            empty;
        value           nonuniform List<scalar> 0();
    }
}


// ************************************************************************* //
