/*--------------------------------*- C++ -*----------------------------------*\
  =========                 |
  \\      /  F ield         | OpenFOAM: The Open Source CFD Toolbox
   \\    /   O peration     | Website:  https://openfoam.org
    \\  /    A nd           | Version:  9
     \\/     M anipulation  |
\*---------------------------------------------------------------------------*/
FoamFile
{
    format      ascii;
    class       volVectorField;
    location    "0.2";
    object      U;
}
// * * * * * * * * * * * * * * * * * * * * * * * * * * * * * * * * * * * * * //

dimensions      [0 1 -1 0 0 0 0];

internalField   nonuniform List<vector> 
900
(
(0.000361449 -0.000359522 0)
(0.000680242 -0.000169728 0)
(3.61296e-05 0.000249525 0)
(-0.0016942 0.00064536 0)
(-0.00436811 0.000954538 0)
(-0.0077468 0.00116672 0)
(-0.0115798 0.00128831 0)
(-0.0156322 0.00133085 0)
(-0.0196934 0.00130578 0)
(-0.023577 0.00122285 0)
(-0.0271199 0.00109003 0)
(-0.0301794 0.000914044 0)
(-0.0326329 0.000700986 0)
(-0.034378 0.000457153 0)
(-0.0353343 0.000189697 0)
(-0.0354468 -9.2817e-05 0)
(-0.0346901 -0.000380051 0)
(-0.0330736 -0.000659789 0)
(-0.0306451 -0.000918117 0)
(-0.027495 -0.0011399 0)
(-0.0237574 -0.00130956 0)
(-0.0196089 -0.00141199 0)
(-0.0152651 -0.00143367 0)
(-0.0109726 -0.00136373 0)
(-0.00699821 -0.0011952 0)
(-0.00361383 -0.000926966 0)
(-0.00107449 -0.000568348 0)
(0.000419301 -0.000149316 0)
(0.000818 0.000247838 0)
(0.000375634 0.000372137 0)
(0.000188311 -0.000692705 0)
(-0.00051575 0.000540191 0)
(-0.00351254 0.00250546 0)
(-0.00884006 0.00439292 0)
(-0.0162047 0.00592634 0)
(-0.0251466 0.00701667 0)
(-0.0351314 0.00765595 0)
(-0.0456187 0.00787281 0)
(-0.0560971 0.0077083 0)
(-0.066099 0.00720523 0)
(-0.0752054 0.00640469 0)
(-0.0830478 0.00534602 0)
(-0.0893101 0.00406855 0)
(-0.093732 0.00261414 0)
(-0.0961146 0.00102975 0)
(-0.096328 -0.000630457 0)
(-0.0943211 -0.00230393 0)
(-0.0901309 -0.00391966 0)
(-0.0838916 -0.00539959 0)
(-0.0758397 -0.00666142 0)
(-0.0663158 -0.00762287 0)
(-0.0557592 -0.00820708 0)
(-0.0446954 -0.00834898 0)
(-0.0337142 -0.00800221 0)
(-0.0234391 -0.00714722 0)
(-0.014484 -0.00580269 0)
(-0.00739338 -0.00404528 0)
(-0.00255642 -0.00204444 0)
(-9.67947e-05 -0.000148664 0)
(0.000271783 0.000825762 0)
(-0.000220041 -8.75915e-05 0)
(-0.00249964 0.00352888 0)
(-0.00834555 0.00825317 0)
(-0.0174127 0.0127484 0)
(-0.0291989 0.016444 0)
(-0.0430885 0.0191023 0)
(-0.0583582 0.0206621 0)
(-0.0742573 0.0211571 0)
(-0.0900609 0.0206649 0)
(-0.105094 0.0192805 0)
(-0.118744 0.0171045 0)
(-0.130471 0.0142401 0)
(-0.139809 0.0107952 0)
(-0.146379 0.00688646 0)
(-0.149893 0.0026443 0)
(-0.150168 -0.00178331 0)
(-0.147137 -0.00622866 0)
(-0.140864 -0.010505 0)
(-0.13155 -0.0144104 0)
(-0.119544 -0.0177355 0)
(-0.105341 -0.0202741 0)
(-0.0895723 -0.0218377 0)
(-0.0729867 -0.0222712 0)
(-0.0564186 -0.0214726 0)
(-0.0407417 -0.0194134 0)
(-0.0268081 -0.0161667 0)
(-0.0153647 -0.0119469 0)
(-0.00694968 -0.00716704 0)
(-0.0018532 -0.00255346 0)
(-7.81428e-05 0.00050538 0)
(-0.000634435 0.00163731 0)
(-0.00457943 0.00900252 0)
(-0.0134201 0.0174276 0)
(-0.026266 0.0252366 0)
(-0.0423269 0.0316165 0)
(-0.0608229 0.0361876 0)
(-0.0808701 0.0388294 0)
(-0.101555 0.0395759 0)
(-0.121994 0.0385427 0)
(-0.141356 0.0358855 0)
(-0.158887 0.0317788 0)
(-0.173915 0.0264094 0)
(-0.185864 0.0199773 0)
(-0.194263 0.0127009 0)
(-0.198756 0.00482388 0)
(-0.19912 -0.00337912 0)
(-0.195273 -0.0115999 0)
(-0.187294 -0.0194989 0)
(-0.175433 -0.0267121 0)
(-0.160118 -0.0328651 0)
(-0.141955 -0.0375925 0)
(-0.121716 -0.0405626 0)
(-0.100316 -0.0415073 0)
(-0.0787735 -0.0402554 0)
(-0.0581581 -0.0367698 0)
(-0.0395193 -0.0311914 0)
(-0.0237904 -0.023894 0)
(-0.0116835 -0.0155517 0)
(-0.00374758 -0.00725007 0)
(-0.000443776 -0.000814349 0)
(-0.00100835 0.00445502 0)
(-0.00656181 0.0169575 0)
(-0.0183673 0.0299699 0)
(-0.034937 0.0416622 0)
(-0.0551437 0.0510761 0)
(-0.0780193 0.0577379 0)
(-0.102522 0.0614904 0)
(-0.127596 0.0623777 0)
(-0.152228 0.0605604 0)
(-0.17547 0.0562624 0)
(-0.19646 0.0497429 0)
(-0.214428 0.0412851 0)
(-0.228714 0.0311967 0)
(-0.238776 0.0198159 0)
(-0.244204 0.00751972 0)
(-0.244737 -0.00526855 0)
(-0.240277 -0.0180768 0)
(-0.230904 -0.0303874 0)
(-0.216895 -0.0416484 0)
(-0.198727 -0.0512935 0)
(-0.177082 -0.0587711 0)
(-0.152834 -0.0635817 0)
(-0.127028 -0.0653222 0)
(-0.100834 -0.0637354 0)
(-0.0754971 -0.0587637 0)
(-0.0522569 -0.0506077 0)
(-0.0322494 -0.0397905 0)
(-0.0164007 -0.0272231 0)
(-0.00558173 -0.0142923 0)
(-0.000773776 -0.00313108 0)
(-0.00134 0.00827729 0)
(-0.00840512 0.0273035 0)
(-0.023069 0.0458112 0)
(-0.0432543 0.0619485 0)
(-0.0674765 0.0747069 0)
(-0.0945601 0.0835817 0)
(-0.123299 0.0884178 0)
(-0.152504 0.0892934 0)
(-0.181049 0.0864294 0)
(-0.207893 0.0801297 0)
(-0.232088 0.0707481 0)
(-0.252792 0.0586749 0)
(-0.269279 0.0443362 0)
(-0.280953 0.0282015 0)
(-0.287357 0.0107942 0)
(-0.288191 -0.00730004 0)
(-0.28333 -0.0254295 0)
(-0.272844 -0.0428808 0)
(-0.25701 -0.0588937 0)
(-0.236329 -0.0726872 0)
(-0.211529 -0.0834986 0)
(-0.183558 -0.0906334 0)
(-0.153566 -0.0935256 0)
(-0.122862 -0.0918051 0)
(-0.0928612 -0.0853679 0)
(-0.0650091 -0.0744495 0)
(-0.0406732 -0.0596949 0)
(-0.0210354 -0.0422166 0)
(-0.00732947 -0.0236532 0)
(-0.00106714 -0.00637491 0)
(-0.00163831 0.0130201 0)
(-0.0101201 0.0399172 0)
(-0.0275158 0.0648318 0)
(-0.0511884 0.0859782 0)
(-0.0792947 0.10238 0)
(-0.110441 0.113567 0)
(-0.143253 0.119435 0)
(-0.176409 0.120128 0)
(-0.208683 0.115951 0)
(-0.238953 0.107304 0)
(-0.266207 0.0946459 0)
(-0.289547 0.0784825 0)
(-0.308198 0.0593654 0)
(-0.321515 0.0379013 0)
(-0.328999 0.0147657 0)
(-0.330309 -0.00928681 0)
(-0.325284 -0.0334163 0)
(-0.313961 -0.0567022 0)
(-0.296598 -0.0781604 0)
(-0.27369 -0.0967749 0)
(-0.245986 -0.111545 0)
(-0.214483 -0.121551 0)
(-0.180418 -0.126027 0)
(-0.145234 -0.12445 0)
(-0.110523 -0.116631 0)
(-0.0779611 -0.1028 0)
(-0.049181 -0.0836873 0)
(-0.0256623 -0.0605708 0)
(-0.00903362 -0.0353093 0)
(-0.00133822 -0.0104931 0)
(-0.00191355 0.0186178 0)
(-0.0117338 0.0546807 0)
(-0.0317419 0.0869012 0)
(-0.058773 0.113619 0)
(-0.0906329 0.133959 0)
(-0.125708 0.14755 0)
(-0.162451 0.154388 0)
(-0.199412 0.154726 0)
(-0.235275 0.148979 0)
(-0.26885 0.13766 0)
(-0.299074 0.12135 0)
(-0.325008 0.100674 0)
(-0.345837 0.0763135 0)
(-0.360881 0.0490129 0)
(-0.369597 0.0195987 0)
(-0.3716 -0.0110054 0)
(-0.366676 -0.0417701 0)
(-0.354815 -0.0715625 0)
(-0.336227 -0.0991631 0)
(-0.311378 -0.123302 0)
(-0.281004 -0.142713 0)
(-0.246129 -0.156211 0)
(-0.208062 -0.162788 0)
(-0.168372 -0.161715 0)
(-0.128843 -0.152661 0)
(-0.0914011 -0.135802 0)
(-0.0579878 -0.111904 0)
(-0.0304223 -0.0823793 0)
(-0.0107645 -0.0492913 0)
(-0.00160549 -0.0154718 0)
(-0.00217403 0.0250234 0)
(-0.013273 0.0714963 0)
(-0.0357905 0.1119 0)
(-0.0660585 0.144743 0)
(-0.101542 0.169311 0)
(-0.140406 0.185394 0)
(-0.180937 0.19314 0)
(-0.221561 0.192954 0)
(-0.260877 0.185392 0)
(-0.297644 0.171108 0)
(-0.330761 0.15081 0)
(-0.359261 0.125254 0)
(-0.382306 0.0952484 0)
(-0.399183 0.0616719 0)
(-0.40931 0.025495 0)
(-0.412251 -0.0121974 0)
(-0.407732 -0.050192 0)
(-0.395669 -0.0871444 0)
(-0.376204 -0.121594 0)
(-0.349738 -0.151999 0)
(-0.316965 -0.176799 0)
(-0.278905 -0.194502 0)
(-0.236917 -0.203797 0)
(-0.192687 -0.203686 0)
(-0.148198 -0.193626 0)
(-0.105656 -0.173668 0)
(-0.0673468 -0.144562 0)
(-0.0354807 -0.10782 0)
(-0.0125998 -0.0657071 0)
(-0.00188714 -0.0213404 0)
(-0.00242559 0.0322043 0)
(-0.0147593 0.0902859 0)
(-0.0396994 0.139722 0)
(-0.0730901 0.179226 0)
(-0.112061 0.208301 0)
(-0.154562 0.226952 0)
(-0.198714 0.235541 0)
(-0.242828 0.234665 0)
(-0.285434 0.225062 0)
(-0.325248 0.207546 0)
(-0.361152 0.182971 0)
(-0.392169 0.152226 0)
(-0.417448 0.116244 0)
(-0.436256 0.076027 0)
(-0.447978 0.0326779 0)
(-0.452123 -0.0125728 0)
(-0.448344 -0.0583413 0)
(-0.43647 -0.103081 0)
(-0.41654 -0.145088 0)
(-0.388858 -0.182539 0)
(-0.354038 -0.213548 0)
(-0.313058 -0.236267 0)
(-0.267291 -0.249018 0)
(-0.218527 -0.250451 0)
(-0.168943 -0.239722 0)
(-0.121047 -0.21667 0)
(-0.0775162 -0.181961 0)
(-0.0410071 -0.137164 0)
(-0.014617 -0.0847471 0)
(-0.0022002 -0.0281712 0)
(-0.00267219 0.0401382 0)
(-0.0162087 0.110988 0)
(-0.0434983 0.170272 0)
(-0.0799014 0.216944 0)
(-0.122214 0.250776 0)
(-0.16817 0.272052 0)
(-0.215733 0.281401 0)
(-0.26311 0.279668 0)
(-0.308773 0.267809 0)
(-0.351422 0.246825 0)
(-0.389939 0.217732 0)
(-0.423356 0.181554 0)
(-0.450833 0.139342 0)
(-0.47163 0.0922111 0)
(-0.485107 0.0413723 0)
(-0.490722 -0.0118196 0)
(-0.488049 -0.0658335 0)
(-0.476807 -0.118938 0)
(-0.456909 -0.169197 0)
(-0.42852 -0.214497 0)
(-0.392128 -0.252601 0)
(-0.348617 -0.281256 0)
(-0.299333 -0.298341 0)
(-0.246128 -0.302055 0)
(-0.191364 -0.291141 0)
(-0.137865 -0.265117 0)
(-0.0887409 -0.224469 0)
(-0.0471665 -0.170769 0)
(-0.0168913 -0.106684 0)
(-0.00256088 -0.0360775 0)
(-0.00291678 0.0488102 0)
(-0.0176344 0.133553 0)
(-0.0472122 0.203462 0)
(-0.0865177 0.257765 0)
(-0.132005 0.296561 0)
(-0.181193 0.320476 0)
(-0.231891 0.330472 0)
(-0.282217 0.327696 0)
(-0.330609 0.313368 0)
(-0.37577 0.288707 0)
(-0.416612 0.254903 0)
(-0.452207 0.21312 0)
(-0.481746 0.164521 0)
(-0.504508 0.110308 0)
(-0.519844 0.0517788 0)
(-0.527169 -0.00962071 0)
(-0.525976 -0.0722453 0)
(-0.515862 -0.134209 0)
(-0.496586 -0.193365 0)
(-0.468132 -0.247314 0)
(-0.430806 -0.293451 0)
(-0.385334 -0.329069 0)
(-0.332969 -0.351522 0)
(-0.275569 -0.358443 0)
(-0.215647 -0.348027 0)
(-0.156343 -0.319323 0)
(-0.10124 -0.27251 0)
(-0.0541152 -0.209078 0)
(-0.0194963 -0.131871 0)
(-0.00298524 -0.0452122 0)
(-0.00316244 0.0582123 0)
(-0.019051 0.157944 0)
(-0.0508691 0.23921 0)
(-0.0929659 0.301545 0)
(-0.141435 0.34544 0)
(-0.193571 0.37194 0)
(-0.247039 0.382413 0)
(-0.299883 0.378373 0)
(-0.350536 0.361351 0)
(-0.397735 0.33282 0)
(-0.440459 0.294162 0)
(-0.477851 0.246683 0)
(-0.509171 0.191643 0)
(-0.533748 0.130312 0)
(-0.550949 0.0640391 0)
(-0.560163 -0.00567978 0)
(-0.560809 -0.0771302 0)
(-0.552357 -0.148317 0)
(-0.534385 -0.216917 0)
(-0.506657 -0.28027 0)
(-0.469233 -0.335397 0)
(-0.422603 -0.379099 0)
(-0.367836 -0.408121 0)
(-0.306713 -0.419403 0)
(-0.241835 -0.410419 0)
(-0.176632 -0.379562 0)
(-0.115198 -0.326529 0)
(-0.0619991 -0.252597 0)
(-0.0225051 -0.160732 0)
(-0.00349007 -0.0557671 0)
(-0.0034137 0.0683445 0)
(-0.0204802 0.184142 0)
(-0.0545115 0.277439 0)
(-0.0992897 0.348124 0)
(-0.150513 0.397153 0)
(-0.205239 0.426079 0)
(-0.260993 0.436768 0)
(-0.315774 0.431175 0)
(-0.368037 0.411204 0)
(-0.416602 0.378615 0)
(-0.460554 0.335006 0)
(-0.499157 0.281823 0)
(-0.531782 0.220412 0)
(-0.557847 0.152082 0)
(-0.57677 0.078194 0)
(-0.587946 0.000242968 0)
(-0.590737 -0.0800443 0)
(-0.584489 -0.160623 0)
(-0.568587 -0.239055 0)
(-0.542532 -0.312458 0)
(-0.506073 -0.377502 0)
(-0.459371 -0.430472 0)
(-0.403198 -0.467427 0)
(-0.33914 -0.484475 0)
(-0.269776 -0.47817 0)
(-0.198775 -0.446008 0)
(-0.130749 -0.386956 0)
(-0.0709527 -0.301878 0)
(-0.0259924 -0.193763 0)
(-0.00409386 -0.0679737 0)
(-0.00367846 0.0792214 0)
(-0.0219588 0.212151 0)
(-0.058212 0.318091 0)
(-0.105571 0.397324 0)
(-0.15928 0.451374 0)
(-0.21614 0.482418 0)
(-0.273549 0.492926 0)
(-0.329487 0.485393 0)
(-0.382484 0.462157 0)
(-0.431492 0.425315 0)
(-0.475759 0.376697 0)
(-0.514726 0.317894 0)
(-0.547928 0.250318 0)
(-0.574922 0.17529 0)
(-0.595227 0.0941324 0)
(-0.608279 0.00828476 0)
(-0.613419 -0.0805848 0)
(-0.609887 -0.170461 0)
(-0.596871 -0.258867 0)
(-0.573583 -0.342776 0)
(-0.539397 -0.418554 0)
(-0.494041 -0.481978 0)
(-0.437853 -0.528369 0)
(-0.372059 -0.55286 0)
(-0.299067 -0.550856 0)
(-0.222669 -0.51865 0)
(-0.147968 -0.454144 0)
(-0.0810976 -0.357492 0)
(-0.0300373 -0.231519 0)
(-0.00481809 -0.0821049 0)
(-0.00397067 0.0908815 0)
(-0.0235498 0.242024 0)
(-0.0620947 0.361136 0)
(-0.111953 0.448955 0)
(-0.167833 0.507705 0)
(-0.226249 0.540343 0)
(-0.284488 0.550086 0)
(-0.34056 0.540078 0)
(-0.39313 0.513177 0)
(-0.441352 0.47186 0)
(-0.484708 0.418212 0)
(-0.522878 0.353966 0)
(-0.555626 0.280585 0)
(-0.582707 0.199362 0)
(-0.603795 0.111537 0)
(-0.618425 0.018426 0)
(-0.625959 -0.0784403 0)
(-0.62557 -0.177169 0)
(-0.616265 -0.275354 0)
(-0.596957 -0.369925 0)
(-0.566591 -0.457039 0)
(-0.524363 -0.532019 0)
(-0.470014 -0.589425 0)
(-0.404211 -0.623298 0)
(-0.328968 -0.627645 0)
(-0.248011 -0.597183 0)
(-0.166844 -0.528296 0)
(-0.0925413 -0.419988 0)
(-0.0347277 -0.27461 0)
(-0.00568931 -0.0984796 0)
(-0.00431455 0.103406 0)
(-0.0253579 0.273891 0)
(-0.0663614 0.406598 0)
(-0.118675 0.502812 0)
(-0.176346 0.565649 0)
(-0.235576 0.599062 0)
(-0.293573 0.6072 0)
(-0.348447 0.593993 0)
(-0.399084 0.562907 0)
(-0.444927 0.516852 0)
(-0.485777 0.458185 0)
(-0.52163 0.388776 0)
(-0.552545 0.310115 0)
(-0.578542 0.223431 0)
(-0.599513 0.129828 0)
(-0.615153 0.0304316 0)
(-0.624907 -0.0734511 0)
(-0.627935 -0.180158 0)
(-0.62311 -0.287477 0)
(-0.609058 -0.392443 0)
(-0.58427 -0.491141 0)
(-0.54732 -0.578555 0)
(-0.49719 -0.648532 0)
(-0.433742 -0.693944 0)
(-0.358301 -0.707153 0)
(-0.274235 -0.680866 0)
(-0.187255 -0.609357 0)
(-0.105376 -0.489842 0)
(-0.0401684 -0.323694 0)
(-0.0067425 -0.11747 0)
(-0.00475125 0.116946 0)
(-0.0275527 0.308004 0)
(-0.0713279 0.454586 0)
(-0.1261 0.558674 0)
(-0.185086 0.624581 0)
(-0.244159 0.657551 0)
(-0.300512 0.662908 0)
(-0.352463 0.645534 0)
(-0.399241 0.609604 0)
(-0.440692 0.558502 0)
(-0.477029 0.494865 0)
(-0.508648 0.420688 0)
(-0.535978 0.337456 0)
(-0.559365 0.246293 0)
(-0.578984 0.148117 0)
(-0.594757 0.0437958 0)
(-0.606283 -0.0656742 0)
(-0.612784 -0.178974 0)
(-0.613068 -0.294231 0)
(-0.605527 -0.408758 0)
(-0.588217 -0.518766 0)
(-0.559031 -0.619092 0)
(-0.516045 -0.703006 0)
(-0.458052 -0.762221 0)
(-0.38531 -0.787258 0)
(-0.300413 -0.768336 0)
(-0.208924 -0.696869 0)
(-0.11968 -0.567383 0)
(-0.0464937 -0.379465 0)
(-0.00802722 -0.139518 0)
(-0.00535028 0.131767 0)
(-0.0304028 0.344804 0)
(-0.0774678 0.50532 0)
(-0.134743 0.616285 0)
(-0.194402 0.683675 0)
(-0.252005 0.714457 0)
(-0.304862 0.71544 0)
(-0.351668 0.692652 0)
(-0.392158 0.651068 0)
(-0.426719 0.594576 0)
(-0.456095 0.526083 0)
(-0.481162 0.447672 0)
(-0.502783 0.360785 0)
(-0.521688 0.266395 0)
(-0.538388 0.165184 0)
(-0.553093 0.0577016 0)
(-0.565631 -0.0554434 0)
(-0.575375 -0.173383 0)
(-0.581165 -0.294733 0)
(-0.581262 -0.417282 0)
(-0.573352 -0.537618 0)
(-0.554663 -0.650705 0)
(-0.522262 -0.749498 0)
(-0.473616 -0.824699 0)
(-0.407485 -0.864898 0)
(-0.325115 -0.85737 0)
(-0.231349 -0.789768 0)
(-0.13551 -0.652682 0)
(-0.0538917 -0.442645 0)
(-0.00961919 -0.165158 0)
(-0.00622983 0.148323 0)
(-0.0343294 0.385007 0)
(-0.0854664 0.55916 0)
(-0.145278 0.675292 0)
(-0.204652 0.741792 0)
(-0.258949 0.76796 0)
(-0.30583 0.762483 0)
(-0.344625 0.732739 0)
(-0.3758 0.684572 0)
(-0.400456 0.622364 0)
(-0.419979 0.549242 0)
(-0.435805 0.467319 0)
(-0.449276 0.377932 0)
(-0.461538 0.281856 0)
(-0.473473 0.179487 0)
(-0.485618 0.0710121 0)
(-0.498099 -0.0434085 0)
(-0.510529 -0.163444 0)
(-0.521905 -0.288335 0)
(-0.530496 -0.416548 0)
(-0.533767 -0.545329 0)
(-0.528383 -0.670137 0)
(-0.510401 -0.784011 0)
(-0.475772 -0.876989 0)
(-0.42131 -0.935849 0)
(-0.346197 -0.944585 0)
(-0.253684 -0.886098 0)
(-0.152894 -0.74538 0)
(-0.0626445 -0.513967 0)
(-0.0116423 -0.195069 0)
(-0.00759409 0.167363 0)
(-0.0399894 0.429715 0)
(-0.0962744 0.616584 0)
(-0.158484 0.735099 0)
(-0.216021 0.797261 0)
(-0.264342 0.815548 0)
(-0.301882 0.800994 0)
(-0.328982 0.762504 0)
(-0.347132 0.706797 0)
(-0.358338 0.638671 0)
(-0.364734 0.561362 0)
(-0.368362 0.476912 0)
(-0.37105 0.386473 0)
(-0.374357 0.290557 0)
(-0.379523 0.189238 0)
(-0.387431 0.0823132 0)
(-0.398534 -0.0305364 0)
(-0.412769 -0.149568 0)
(-0.429419 -0.27474 0)
(-0.446946 -0.405375 0)
(-0.462818 -0.539665 0)
(-0.473365 -0.673987 0)
(-0.473786 -0.802016 0)
(-0.458476 -0.913723 0)
(-0.421934 -0.99452 0)
(-0.360463 -1.02507 0)
(-0.27452 -0.982603 0)
(-0.171782 -0.844422 0)
(-0.0731929 -0.594145 0)
(-0.0143103 -0.230161 0)
(-0.00980265 0.190132 0)
(-0.0484024 0.48054 0)
(-0.11113 0.678069 0)
(-0.175043 0.794557 0)
(-0.228076 0.847499 0)
(-0.266442 0.853677 0)
(-0.290039 0.826952 0)
(-0.300757 0.777839 0)
(-0.301451 0.713809 0)
(-0.295212 0.639876 0)
(-0.284984 0.559199 0)
(-0.273396 0.473587 0)
(-0.262713 0.383897 0)
(-0.254833 0.290313 0)
(-0.251298 0.192556 0)
(-0.253286 0.0900303 0)
(-0.26158 -0.0180493 0)
(-0.276483 -0.132523 0)
(-0.297683 -0.254101 0)
(-0.32404 -0.383067 0)
(-0.353317 -0.518799 0)
(-0.381873 -0.659027 0)
(-0.404417 -0.798728 0)
(-0.414013 -0.928677 0)
(-0.402698 -1.03381 0)
(-0.363136 -1.09198 0)
(-0.291463 -1.07414 0)
(-0.1919 -0.947585 0)
(-0.0862241 -0.683778 0)
(-0.018003 -0.271743 0)
(-0.0134974 0.218697 0)
(-0.0611274 0.539686 0)
(-0.131446 0.743726 0)
(-0.194988 0.851341 0)
(-0.238836 0.888378 0)
(-0.261259 0.877275 0)
(-0.264678 0.83507 0)
(-0.253204 0.773726 0)
(-0.231391 0.701118 0)
(-0.203513 0.622115 0)
(-0.173273 0.539492 0)
(-0.14377 0.454615 0)
(-0.117551 0.367906 0)
(-0.096704 0.279156 0)
(-0.0829348 0.187719 0)
(-0.0776141 0.0926378 0)
(-0.0817858 -0.00728085 0)
(-0.0961173 -0.113388 0)
(-0.120775 -0.227082 0)
(-0.155207 -0.349608 0)
(-0.197805 -0.481657 0)
(-0.245447 -0.62266 0)
(-0.292961 -0.769589 0)
(-0.332683 -0.915128 0)
(-0.354495 -1.04518 0)
(-0.34699 -1.13609 0)
(-0.300332 -1.15288 0)
(-0.212347 -1.05067 0)
(-0.102748 -0.783107 0)
(-0.023395 -0.32182 0)
(-0.0198175 0.256494 0)
(-0.080438 0.609834 0)
(-0.158281 0.812392 0)
(-0.216334 0.900789 0)
(-0.242867 0.913241 0)
(-0.240484 0.879128 0)
(-0.215565 0.818558 0)
(-0.175115 0.744312 0)
(-0.125556 0.66397 0)
(-0.0722193 0.581679 0)
(-0.0193207 0.499426 0)
(0.0298656 0.417871 0)
(0.0727865 0.336864 0)
(0.107415 0.255751 0)
(0.132094 0.173537 0)
(0.145435 0.0889683 0)
(0.14626 0.00055877 0)
(0.133612 -0.0934071 0)
(0.106834 -0.194855 0)
(0.0657623 -0.30584 0)
(0.0110672 -0.428306 0)
(-0.055202 -0.563537 0)
(-0.128833 -0.711051 0)
(-0.202491 -0.866608 0)
(-0.264915 -1.019 0)
(-0.300975 -1.14554 0)
(-0.293622 -1.20721 0)
(-0.230567 -1.14609 0)
(-0.123989 -0.891302 0)
(-0.031628 -0.383517 0)
(-0.030659 0.309128 0)
(-0.109161 0.693355 0)
(-0.190557 0.879676 0)
(-0.23191 0.93396 0)
(-0.227567 0.911621 0)
(-0.187946 0.84938 0)
(-0.124879 0.769257 0)
(-0.0485406 0.683446 0)
(0.033103 0.598089 0)
(0.114207 0.515838 0)
(0.190618 0.437425 0)
(0.259392 0.362566 0)
(0.318393 0.290441 0)
(0.365993 0.219952 0)
(0.400859 0.149818 0)
(0.421805 0.0786058 0)
(0.4277 0.00469329 0)
(0.417433 -0.0737887 0)
(0.389936 -0.15903 0)
(0.344305 -0.253592 0)
(0.280069 -0.360374 0)
(0.197707 -0.482334 0)
(0.0995363 -0.621714 0)
(-0.00892252 -0.77827 0)
(-0.11718 -0.945809 0)
(-0.208129 -1.10621 0)
(-0.257682 -1.22071 0)
(-0.239862 -1.2206 0)
(-0.150462 -1.00471 0)
(-0.0443373 -0.461483 0)
(-0.0485002 0.385576 0)
(-0.148758 0.789767 0)
(-0.219811 0.933955 0)
(-0.222311 0.934704 0)
(-0.166351 0.86805 0)
(-0.0741023 0.775771 0)
(0.036719 0.678744 0)
(0.153706 0.586166 0)
(0.268641 0.501222 0)
(0.37637 0.424254 0)
(0.47376 0.354379 0)
(0.558912 0.290257 0)
(0.630622 0.230434 0)
(0.688037 0.173459 0)
(0.730425 0.117901 0)
(0.757024 0.0623057 0)
(0.766943 0.00511376 0)
(0.759095 -0.0554502 0)
(0.73216 -0.121514 0)
(0.684609 -0.195723 0)
(0.614829 -0.281392 0)
(0.521463 -0.38257 0)
(0.404155 -0.503784 0)
(0.264983 -0.648967 0)
(0.110905 -0.818587 0)
(-0.0426517 -1.00324 0)
(-0.167731 -1.17155 0)
(-0.223723 -1.25202 0)
(-0.178378 -1.11326 0)
(-0.0626553 -0.562402 0)
(-0.0737778 0.50088 0)
(-0.191345 0.888794 0)
(-0.216114 0.947764 0)
(-0.141317 0.874852 0)
(-0.00735241 0.761243 0)
(0.151225 0.645233 0)
(0.313938 0.540903 0)
(0.46945 0.451367 0)
(0.611955 0.375483 0)
(0.738865 0.310873 0)
(0.849279 0.255077 0)
(0.943088 0.205909 0)
(1.02047 0.16152 0)
(1.08162 0.120349 0)
(1.12657 0.0810268 0)
(1.15514 0.042279 0)
(1.16682 0.0028133 0)
(1.1607 -0.0388074 0)
(1.13542 -0.0843279 0)
(1.08911 -0.136008 0)
(1.01926 -0.196897 0)
(0.922858 -0.271172 0)
(0.796628 -0.364444 0)
(0.638047 -0.483726 0)
(0.447627 -0.636144 0)
(0.233664 -0.824118 0)
(0.0200629 -1.03272 0)
(-0.144539 -1.20424 0)
(-0.189766 -1.19324 0)
(-0.0825378 -0.696235 0)
(-0.0911723 0.671514 0)
(-0.193244 0.950099 0)
(-0.0946213 0.864393 0)
(0.110662 0.712121 0)
(0.342011 0.568678 0)
(0.565249 0.450568 0)
(0.767478 0.358199 0)
(0.94461 0.286778 0)
(1.0968 0.230953 0)
(1.22588 0.186364 0)
(1.33405 0.149766 0)
(1.42331 0.118799 0)
(1.49527 0.0917334 0)
(1.55111 0.0672646 0)
(1.59158 0.044356 0)
(1.61701 0.022114 0)
(1.62728 -0.000317378 0)
(1.62178 -0.0238625 0)
(1.59935 -0.0496473 0)
(1.5581 -0.0791735 0)
(1.49523 -0.114588 0)
(1.40677 -0.159099 0)
(1.28731 -0.217608 0)
(1.12997 -0.297579 0)
(0.927377 -0.409806 0)
(0.675233 -0.567446 0)
(0.380169 -0.778631 0)
(0.077063 -1.02352 0)
(-0.128784 -1.18747 0)
(-0.0775243 -0.861614 0)
(0.010198 0.815318 0)
(0.0266329 0.852604 0)
(0.359468 0.615928 0)
(0.72271 0.430592 0)
(1.02418 0.304793 0)
(1.26709 0.219823 0)
(1.46294 0.162422 0)
(1.62072 0.122985 0)
(1.74806 0.0949398 0)
(1.85106 0.074133 0)
(1.93427 0.0579961 0)
(2.00093 0.044916 0)
(2.05332 0.0338465 0)
(2.09302 0.0240765 0)
(2.12104 0.015089 0)
(2.13792 0.00647097 0)
(2.14378 -0.00215182 0)
(2.13831 -0.0111734 0)
(2.12071 -0.0210697 0)
(2.08953 -0.0324925 0)
(2.04247 -0.046421 0)
(1.97592 -0.0644335 0)
(1.88435 -0.089223 0)
(1.75927 -0.125586 0)
(1.58813 -0.182231 0)
(1.3537 -0.274526 0)
(1.03297 -0.426828 0)
(0.607395 -0.667131 0)
(0.174442 -0.967869 0)
(0.0770727 -0.930328 0)
(0.886963 0.431536 0)
(1.15962 0.378518 0)
(1.62532 0.230008 0)
(1.97396 0.136114 0)
(2.18834 0.0829057 0)
(2.32886 0.0522616 0)
(2.42821 0.0343894 0)
(2.50116 0.0237081 0)
(2.55616 0.0170093 0)
(2.59849 0.0125334 0)
(2.63139 0.00933328 0)
(2.65689 0.00688909 0)
(2.67628 0.00490431 0)
(2.69041 0.00319995 0)
(2.69979 0.00165907 0)
(2.70472 0.000196251 0)
(2.70529 -0.00126088 0)
(2.7014 -0.00278731 0)
(2.69274 -0.00447203 0)
(2.67871 -0.00644135 0)
(2.65833 -0.00889564 0)
(2.62994 -0.0121842 0)
(2.59083 -0.0169692 0)
(2.53622 -0.0245981 0)
(2.45758 -0.0379429 0)
(2.339 -0.0632077 0)
(2.1451 -0.113457 0)
(1.79812 -0.213469 0)
(1.28212 -0.383519 0)
(0.943183 -0.45238 0)
)
;

boundaryField
{
    movingWall
    {
        type            fixedValue;
        value           uniform (3 0 0);
    }
    fixedWalls
    {
        type            noSlip;
    }
    frontAndBack
    {
        type            empty;
    }
}


// ************************************************************************* //
