/*--------------------------------*- C++ -*----------------------------------*\
  =========                 |
  \\      /  F ield         | OpenFOAM: The Open Source CFD Toolbox
   \\    /   O peration     | Website:  https://openfoam.org
    \\  /    A nd           | Version:  9
     \\/     M anipulation  |
\*---------------------------------------------------------------------------*/
FoamFile
{
    format      ascii;
    class       volScalarField;
    location    "0.07";
    object      k;
}
// * * * * * * * * * * * * * * * * * * * * * * * * * * * * * * * * * * * * * //

dimensions      [0 2 -2 0 0 0 0];

internalField   nonuniform List<scalar> 
12225
(
0.353921
0.335043
0.316967
0.300962
0.28813
0.278916
0.273316
0.271034
0.271617
0.274549
0.279318
0.285459
0.292569
0.300319
0.308473
0.316829
0.325573
0.338679
0.436865
0.448983
0.438094
0.433081
0.438828
0.453659
0.474921
0.500169
0.527417
0.555185
0.582453
0.608571
0.633183
0.656152
0.67771
0.697773
0.71977
0.735856
0.395186
0.410872
0.410629
0.405747
0.402016
0.400938
0.402642
0.406855
0.413159
0.421098
0.430243
0.440222
0.450738
0.461569
0.472632
0.483874
0.495926
0.507951
0.379641
0.384839
0.386545
0.38573
0.383906
0.38203
0.380574
0.379751
0.379627
0.380183
0.381358
0.383074
0.385257
0.387844
0.390807
0.39415
0.397983
0.402226
0.374976
0.3759
0.376239
0.37572
0.374569
0.373083
0.371495
0.369967
0.368596
0.367433
0.366498
0.365793
0.365311
0.365043
0.364986
0.365146
0.365543
0.366154
0.373488
0.372554
0.371758
0.370806
0.369629
0.368273
0.366806
0.365296
0.363799
0.362354
0.360987
0.359713
0.358541
0.357477
0.356523
0.355686
0.354973
0.35438
0.373012
0.371296
0.369812
0.368415
0.367023
0.365607
0.364164
0.362706
0.36125
0.359815
0.358415
0.357061
0.355762
0.354523
0.35335
0.352248
0.351222
0.35028
0.372865
0.370838
0.369004
0.367309
0.365709
0.364171
0.362675
0.36121
0.359775
0.358371
0.357002
0.355672
0.354385
0.353142
0.351949
0.350808
0.349723
0.348707
0.37282
0.37068
0.368691
0.366835
0.365093
0.363446
0.361876
0.36037
0.35892
0.357521
0.35617
0.354864
0.353604
0.352389
0.35122
0.350098
0.349026
0.348016
0.372806
0.370628
0.368577
0.366647
0.364827
0.363108
0.361478
0.359929
0.35845
0.357036
0.355682
0.354383
0.353136
0.35194
0.350792
0.349693
0.348643
0.347653
0.372801
0.37061
0.368536
0.366575
0.364719
0.362962
0.361296
0.359714
0.35821
0.356777
0.35541
0.354106
0.35286
0.351669
0.350531
0.349444
0.348407
0.347431
0.372799
0.370603
0.368522
0.366549
0.364679
0.362905
0.361222
0.359623
0.358103
0.356657
0.355281
0.353969
0.352718
0.351525
0.350388
0.349303
0.34827
0.347298
0.372797
0.370599
0.368514
0.366536
0.36466
0.362878
0.361186
0.359578
0.358049
0.356595
0.35521
0.353892
0.352636
0.351439
0.350299
0.349213
0.348179
0.347207
0.372796
0.370596
0.368509
0.366528
0.364648
0.362863
0.361166
0.359553
0.358019
0.356559
0.35517
0.353847
0.352587
0.351386
0.350243
0.349153
0.348117
0.347141
0.372795
0.370594
0.368505
0.366523
0.364641
0.362853
0.361154
0.359538
0.358001
0.356539
0.355146
0.35382
0.352558
0.351355
0.350208
0.349116
0.348076
0.347097
0.372795
0.370592
0.368502
0.366518
0.364635
0.362845
0.361144
0.359527
0.357989
0.356525
0.355131
0.353803
0.352539
0.351334
0.350186
0.349091
0.348048
0.347067
0.372794
0.37059
0.368499
0.366515
0.36463
0.362839
0.361138
0.359519
0.35798
0.356514
0.355119
0.353791
0.352525
0.351319
0.350169
0.349072
0.348028
0.347045
0.372794
0.37059
0.368498
0.366513
0.364627
0.362836
0.361133
0.359514
0.357973
0.356507
0.355111
0.353782
0.352515
0.351308
0.350157
0.349059
0.348013
0.347028
0.372793
0.370589
0.368497
0.366512
0.364626
0.362835
0.361132
0.359512
0.357971
0.356505
0.355108
0.353778
0.352511
0.351303
0.350151
0.349052
0.348005
0.34702
0.372794
0.37059
0.368498
0.366513
0.364628
0.362837
0.361134
0.359515
0.357975
0.356509
0.355113
0.353783
0.352516
0.351308
0.350156
0.349057
0.34801
0.347025
0.372794
0.370591
0.3685
0.366516
0.364632
0.362842
0.361141
0.359523
0.357985
0.35652
0.355126
0.353797
0.352532
0.351325
0.350175
0.349077
0.348032
0.347047
0.372795
0.370593
0.368504
0.366523
0.364642
0.362856
0.36116
0.359548
0.358014
0.356555
0.355167
0.353844
0.352584
0.351382
0.350236
0.349142
0.3481
0.347118
0.372796
0.370598
0.368518
0.366548
0.364682
0.362914
0.361236
0.359644
0.35813
0.356688
0.355315
0.354006
0.352756
0.351563
0.350422
0.349332
0.348291
0.347308
0.372804
0.370631
0.368592
0.366677
0.364873
0.363167
0.361549
0.360008
0.358535
0.357124
0.355771
0.354472
0.353224
0.352026
0.350875
0.349769
0.34871
0.347706
0.372855
0.370818
0.368973
0.367264
0.365646
0.364086
0.362568
0.361085
0.359634
0.358216
0.356836
0.355497
0.354201
0.352952
0.35175
0.350596
0.349493
0.348452
0.373166
0.37177
0.370579
0.369371
0.36805
0.366606
0.365073
0.363494
0.361907
0.360345
0.358828
0.357375
0.355993
0.354691
0.35347
0.352332
0.351274
0.350304
0.374797
0.375829
0.376175
0.375401
0.373834
0.371876
0.369792
0.367739
0.365813
0.364065
0.362522
0.361191
0.36007
0.359149
0.358415
0.357852
0.357443
0.357174
0.382729
0.391672
0.392377
0.388807
0.384386
0.380403
0.377245
0.374992
0.373612
0.373025
0.373134
0.373841
0.375051
0.376675
0.378636
0.380863
0.383296
0.385867
0.407498
0.414512
0.40542
0.395987
0.390545
0.389274
0.391427
0.396173
0.402777
0.410647
0.419333
0.428494
0.437877
0.447295
0.456611
0.465733
0.474614
0.48317
0.360554
0.347547
0.334933
0.322917
0.311964
0.302351
0.294187
0.287466
0.282107
0.277992
0.274985
0.272945
0.271737
0.271237
0.271331
0.271918
0.27291
0.274227
0.0409392
0.0752861
0.0937354
0.107844
0.118531
0.126323
0.131565
0.134616
0.136092
0.136634
0.13683
0.137214
0.137988
0.138847
0.139593
0.140018
0.13985
0.140261
0.141393
0.140961
0.140292
0.141043
0.142694
0.14341
0.142132
0.143832
0.157304
0.173914
0.192204
0.211599
0.231643
0.251946
0.272202
0.292181
0.311716
0.330693
0.349039
0.366714
0.383705
0.400022
0.415686
0.430736
0.445215
0.459173
0.47266
0.485729
0.498431
0.510812
0.522919
0.534793
0.546474
0.557995
0.569389
0.580683
0.591903
0.603071
0.614208
0.625329
0.636451
0.647585
0.658743
0.669933
0.681162
0.692435
0.703757
0.71513
0.726554
0.73803
0.749556
0.76113
0.772747
0.784405
0.796096
0.807816
0.819557
0.831312
0.843073
0.854831
0.86658
0.878312
0.890027
0.901725
0.91342
0.925145
0.936961
0.948723
0.960369
0.97189
0.983272
0.994498
1.00555
1.01641
1.02705
1.03745
1.0476
1.05747
1.06704
1.07629
1.0852
1.09373
1.10188
1.10962
1.11693
1.12379
1.13018
1.13607
1.14147
1.14634
1.15068
1.15447
1.1577
1.16037
1.16247
1.16401
1.16497
1.16538
1.16522
1.16453
1.1633
1.16157
1.15934
1.15665
1.15351
1.14997
1.14605
1.14178
1.1372
1.13234
1.12724
1.12193
1.11646
1.11084
1.10512
1.09933
1.09349
1.08763
1.08177
1.07594
1.07015
1.06441
1.05874
1.05312
1.04758
1.0421
1.03667
1.03128
1.02592
1.02056
1.01517
1.0097
1.00415
0.998451
0.99254
0.986408
0.980086
0.974545
0.974853
0.977303
0.980029
0.982796
0.985468
0.987915
0.989998
0.991564
0.992448
0.992474
0.99146
0.989216
0.985551
0.980275
0.973204
0.964159
0.952966
0.93945
0.923412
0.904601
0.882508
0.856357
0.822897
0.780707
0.0500499
0.0922027
0.118584
0.136914
0.149966
0.159181
0.165501
0.169644
0.172213
0.173738
0.174748
0.175849
0.177215
0.179121
0.18185
0.18576
0.191358
0.199591
0.211315
0.227209
0.247953
0.270648
0.293877
0.316778
0.338576
0.362472
0.386888
0.411978
0.438106
0.465368
0.493678
0.522859
0.552698
0.582971
0.613447
0.643904
0.674137
0.703969
0.733255
0.76189
0.789807
0.816971
0.843379
0.869051
0.894027
0.918358
0.942102
0.965322
0.988084
1.01045
1.03248
1.05424
1.07577
1.09714
1.11837
1.13953
1.16063
1.18173
1.20285
1.22402
1.24526
1.26659
1.28804
1.30961
1.33132
1.35318
1.3752
1.39739
1.41974
1.44227
1.46497
1.48784
1.51087
1.53407
1.55743
1.58093
1.60459
1.62837
1.65227
1.67629
1.7004
1.72459
1.74884
1.77313
1.79726
1.82129
1.84526
1.86917
1.89298
1.91667
1.94021
1.96356
1.98669
2.00955
2.03212
2.05436
2.07621
2.09764
2.11861
2.13907
2.15898
2.17829
2.19696
2.21493
2.23218
2.24864
2.26428
2.27906
2.29294
2.30588
2.31785
2.32881
2.33875
2.34765
2.35547
2.36223
2.3679
2.3725
2.37602
2.37849
2.37992
2.38034
2.37978
2.37828
2.37588
2.37262
2.36856
2.36376
2.35826
2.35214
2.34544
2.33824
2.33059
2.32255
2.31418
2.30553
2.29667
2.28765
2.27851
2.26929
2.26004
2.25078
2.24156
2.2324
2.2233
2.21427
2.20533
2.19647
2.18767
2.17888
2.17011
2.16131
2.15232
2.14323
2.13401
2.12488
2.11646
2.10799
2.09898
2.08917
2.07832
2.0662
2.05255
2.03709
2.01955
1.99963
1.97702
1.95145
1.92263
1.89033
1.85431
1.81443
1.77054
1.72259
1.67055
1.6145
1.55443
1.49121
1.42399
1.35528
0.0721659
0.119224
0.148887
0.169483
0.184263
0.194969
0.202705
0.208257
0.212239
0.215208
0.217773
0.220362
0.223299
0.227242
0.232958
0.241346
0.253477
0.270589
0.292964
0.319853
0.349785
0.380622
0.410655
0.439313
0.467094
0.495166
0.524215
0.554659
0.586795
0.620694
0.656195
0.692991
0.730709
0.768965
0.807392
0.845667
0.883523
0.92075
0.957201
0.992781
1.02744
1.06118
1.09401
1.12597
1.15713
1.18756
1.21732
1.24648
1.27513
1.30332
1.33114
1.35863
1.38587
1.41291
1.43979
1.46657
1.49329
1.51998
1.54668
1.57342
1.60023
1.62713
1.65415
1.6813
1.70859
1.73605
1.76367
1.79146
1.81944
1.8476
1.87595
1.90448
1.9332
1.96209
1.99116
2.02039
2.04978
2.07932
2.109
2.13882
2.16874
2.19878
2.22889
2.25906
2.28915
2.3192
2.3492
2.37914
2.40897
2.43868
2.46821
2.49754
2.52661
2.55539
2.58383
2.61188
2.6395
2.66664
2.69324
2.71925
2.74461
2.76928
2.79319
2.81629
2.83853
2.85984
2.88018
2.89949
2.91773
2.93483
2.95076
2.96549
2.97896
2.99115
3.00203
3.01159
3.01981
3.02669
3.03222
3.03642
3.0393
3.04088
3.0412
3.04029
3.03821
3.03498
3.03069
3.02537
3.0191
3.01194
3.00396
2.99523
2.98583
2.97581
2.96525
2.95421
2.94277
2.93097
2.91889
2.90657
2.89405
2.8814
2.86865
2.85583
2.84295
2.83004
2.81713
2.80422
2.79127
2.77823
2.76519
2.75206
2.73876
2.72528
2.7116
2.69783
2.68408
2.66994
2.65504
2.63909
2.62185
2.60304
2.58235
2.55949
2.53411
2.50589
2.47448
2.43955
2.40079
2.35792
2.3107
2.25896
2.2026
2.14158
2.07598
2.00603
1.9321
1.85534
1.77718
1.70068
0.0957634
0.147501
0.180441
0.203253
0.2197
0.231763
0.240683
0.247346
0.252471
0.256724
0.260804
0.264864
0.269638
0.27601
0.285078
0.297823
0.315166
0.337688
0.365134
0.396296
0.429413
0.46276
0.495284
0.526891
0.558262
0.590363
0.623957
0.659449
0.696958
0.736357
0.777336
0.819487
0.862383
0.90562
0.948844
0.991763
1.03415
1.07583
1.11671
1.15669
1.19577
1.23394
1.27122
1.30765
1.34329
1.37819
1.41243
1.44607
1.47917
1.51181
1.54404
1.57593
1.60754
1.63891
1.67012
1.70119
1.73218
1.76313
1.79406
1.82503
1.85605
1.88716
1.91837
1.94971
1.98119
2.01283
2.04464
2.07663
2.10881
2.14117
2.17373
2.20648
2.23942
2.27256
2.30587
2.33937
2.37304
2.40688
2.44087
2.475
2.50927
2.54365
2.57815
2.61263
2.6471
2.68155
2.71595
2.75029
2.78452
2.81862
2.85253
2.88622
2.91965
2.95276
2.98551
3.01784
3.04971
3.08106
3.11183
3.14196
3.1714
3.20008
3.22794
3.25491
3.28095
3.30597
3.32993
3.35276
3.37439
3.39478
3.41387
3.43161
3.44795
3.46285
3.47628
3.48821
3.49861
3.50748
3.5148
3.52058
3.52483
3.52756
3.52881
3.5286
3.52699
3.52401
3.51972
3.51418
3.50747
3.49963
3.49076
3.48091
3.47018
3.45862
3.44631
3.43332
3.41974
3.40562
3.39103
3.37603
3.36066
3.34499
3.32909
3.31296
3.29663
3.28013
3.26352
3.2468
3.22994
3.21294
3.19579
3.17846
3.16089
3.14305
3.12492
3.1065
3.08775
3.06839
3.04812
3.02666
3.00375
2.9791
2.95241
2.92336
2.89161
2.8568
2.81859
2.77664
2.73064
2.68029
2.62537
2.56573
2.50129
2.43209
2.35828
2.28025
2.19862
2.11479
2.03067
1.94985
0.119805
0.17715
0.213485
0.238426
0.256431
0.269729
0.279699
0.287342
0.293501
0.298995
0.304128
0.309548
0.316083
0.324674
0.336318
0.351925
0.372132
0.397061
0.426139
0.458186
0.491801
0.525846
0.559791
0.593773
0.628378
0.66429
0.702007
0.741732
0.783408
0.826787
0.871511
0.917182
0.963414
1.00986
1.05623
1.10229
1.14786
1.19279
1.23701
1.28044
1.32307
1.36488
1.40589
1.44613
1.48562
1.52442
1.56258
1.60015
1.63719
1.67376
1.70992
1.74572
1.78121
1.81646
1.85151
1.8864
1.9212
1.95592
1.99063
2.02534
2.0601
2.09493
2.12986
2.16491
2.2001
2.23544
2.27095
2.30664
2.34253
2.3786
2.41488
2.45135
2.48802
2.5249
2.56197
2.59922
2.63666
2.67428
2.71205
2.74998
2.78804
2.82623
2.86451
2.90279
2.94106
2.97931
3.01751
3.05565
3.09368
3.13156
3.16925
3.20671
3.24389
3.28074
3.3172
3.35324
3.38878
3.42377
3.45816
3.49187
3.52485
3.55703
3.58834
3.61872
3.6481
3.67642
3.70359
3.72956
3.75425
3.77761
3.79958
3.82008
3.83907
3.8565
3.87233
3.88651
3.89901
3.90982
3.91891
3.92628
3.93194
3.93588
3.93814
3.93874
3.93772
3.93513
3.931
3.92541
3.91842
3.91009
3.9005
3.88972
3.87784
3.86492
3.85103
3.83627
3.8207
3.80442
3.78746
3.76989
3.75177
3.7332
3.71421
3.69485
3.67513
3.6551
3.6348
3.61424
3.59341
3.5723
3.55092
3.52922
3.50716
3.4847
3.46179
3.4384
3.41443
3.38965
3.36381
3.33665
3.30791
3.27733
3.24459
3.20938
3.17139
3.13027
3.08569
3.03731
2.98486
2.92807
2.86675
2.80077
2.73012
2.65489
2.57535
2.49199
2.4056
2.31766
2.23
2.14564
0.143686
0.207089
0.246804
0.274007
0.293751
0.308432
0.319576
0.328287
0.3355
0.341879
0.347871
0.35431
0.362065
0.37204
0.385111
0.401997
0.423102
0.448362
0.477218
0.508766
0.542057
0.576402
0.611535
0.647596
0.684946
0.723957
0.764848
0.807635
0.852161
0.89815
0.945271
0.993187
1.04158
1.09018
1.13875
1.18711
1.2351
1.28261
1.32956
1.37589
1.42155
1.46654
1.51085
1.55448
1.59746
1.63981
1.68156
1.72277
1.76347
1.80371
1.84354
1.88301
1.92217
1.96106
1.99975
2.03827
2.07667
2.11499
2.15327
2.19156
2.22987
2.26824
2.30671
2.34528
2.384
2.42286
2.4619
2.50111
2.54051
2.58012
2.61992
2.65993
2.70014
2.74056
2.78118
2.82199
2.86299
2.90417
2.94551
2.98701
3.02864
3.07039
3.11221
3.15402
3.19583
3.23761
3.27935
3.321
3.36253
3.4039
3.44507
3.48599
3.52661
3.56688
3.60675
3.64616
3.68505
3.72337
3.76105
3.79803
3.83424
3.86961
3.90408
3.93758
3.97002
4.00135
4.03149
4.06036
4.0879
4.11402
4.13867
4.16178
4.18328
4.20312
4.22123
4.23759
4.25213
4.26484
4.27569
4.28465
4.29173
4.29693
4.30025
4.30171
4.30136
4.29923
4.29536
4.28981
4.28263
4.2739
4.26369
4.25207
4.23913
4.22494
4.20954
4.19305
4.17557
4.15716
4.13788
4.11779
4.09697
4.07548
4.05338
4.03073
4.00754
3.98387
3.95975
3.93518
3.91019
3.88476
3.85888
3.83251
3.80563
3.77817
3.75008
3.72129
3.69168
3.66108
3.62925
3.59597
3.561
3.52406
3.4849
3.44321
3.3987
3.35107
3.30001
3.24524
3.18651
3.12362
3.05642
2.98486
2.90899
2.82898
2.74517
2.65816
2.56881
2.47856
2.38889
2.30207
0.167261
0.236241
0.279221
0.308789
0.330424
0.346732
0.359293
0.369253
0.377571
0.384616
0.391256
0.398339
0.406719
0.417238
0.430664
0.447591
0.468329
0.492826
0.520687
0.551313
0.584094
0.618594
0.65463
0.692231
0.73153
0.772646
0.815599
0.860289
0.906521
0.95404
1.00257
1.05183
1.10159
1.15163
1.20175
1.25182
1.30169
1.35128
1.4005
1.44929
1.49759
1.54538
1.59263
1.63934
1.6855
1.73112
1.77623
1.82085
1.865
1.90873
1.95207
1.99507
2.03776
2.0802
2.12242
2.16448
2.20641
2.24825
2.29005
2.33184
2.37365
2.41552
2.45747
2.49953
2.54173
2.58407
2.62658
2.66928
2.71216
2.75524
2.79852
2.84202
2.88571
2.92962
2.97372
3.01802
3.06251
3.10717
3.15199
3.19696
3.24206
3.28727
3.3325
3.37772
3.42293
3.4681
3.51321
3.55821
3.60308
3.64776
3.69221
3.73639
3.78024
3.82371
3.86675
3.9093
3.9513
3.99269
4.03342
4.0734
4.11258
4.15088
4.18825
4.22459
4.25985
4.29395
4.3268
4.35835
4.3885
4.41719
4.44433
4.46985
4.4937
4.51579
4.53608
4.5545
4.57099
4.58553
4.59807
4.60859
4.61707
4.6235
4.62788
4.63024
4.63058
4.62894
4.62537
4.6199
4.6126
4.60351
4.59272
4.58032
4.56637
4.55094
4.53411
4.51596
4.49658
4.47605
4.45443
4.4318
4.40822
4.38376
4.35848
4.33242
4.30565
4.27818
4.25005
4.22129
4.1919
4.16187
4.13118
4.09982
4.06773
4.03486
4.00114
3.96649
3.93079
3.89389
3.85559
3.81568
3.77394
3.73014
3.68403
3.63537
3.58389
3.52934
3.47147
3.41006
3.34492
3.27593
3.20302
3.12621
3.04565
2.96158
2.87444
2.78488
2.69378
2.60244
2.51196
2.42381
0.189239
0.262876
0.309296
0.34152
0.365334
0.383492
0.397647
0.408991
0.418096
0.425803
0.432974
0.440443
0.449034
0.459535
0.472652
0.488936
0.508706
0.532007
0.558633
0.588222
0.620378
0.654784
0.691243
0.729666
0.77001
0.812223
0.856206
0.901803
0.948817
0.997025
1.04621
1.09615
1.14666
1.19757
1.24873
1.30003
1.35134
1.40257
1.45365
1.5045
1.55507
1.6053
1.65518
1.70465
1.75372
1.80237
1.8506
1.89843
1.94587
1.99294
2.03966
2.08608
2.13223
2.17814
2.22385
2.2694
2.31484
2.36019
2.4055
2.45081
2.49613
2.54152
2.58698
2.63256
2.67826
2.72411
2.77013
2.81633
2.86272
2.90931
2.95609
3.00309
3.05028
3.09768
3.14528
3.19306
3.24102
3.28915
3.33743
3.38585
3.43437
3.48299
3.53158
3.58015
3.62868
3.67715
3.72553
3.77377
3.82184
3.86968
3.91727
3.96453
4.01142
4.0579
4.10389
4.14936
4.19423
4.23845
4.28195
4.32468
4.36655
4.40751
4.44748
4.48639
4.52418
4.56075
4.59605
4.62999
4.66249
4.69348
4.72287
4.75058
4.77655
4.80071
4.82298
4.84329
4.86159
4.87782
4.89194
4.90392
4.91374
4.92134
4.92675
4.92996
4.93098
4.92984
4.92656
4.9212
4.91379
4.9044
4.89309
4.87994
4.86502
4.84839
4.83013
4.81033
4.78906
4.7664
4.74242
4.7172
4.6908
4.66329
4.63472
4.60516
4.57465
4.54322
4.5109
4.47772
4.44368
4.40877
4.37298
4.33627
4.2986
4.25991
4.22012
4.17915
4.13689
4.0932
4.0479
4.00082
3.95176
3.90053
3.84692
3.79072
3.73172
3.66974
3.6046
3.53616
3.46431
3.38902
3.31032
3.22835
3.14333
3.05562
2.96573
2.87435
2.78234
2.69081
2.60049
2.51219
0.208649
0.28658
0.336297
0.371159
0.397191
0.417251
0.43304
0.445521
0.455516
0.463942
0.471644
0.479431
0.48809
0.498373
0.510958
0.526397
0.545058
0.567095
0.592459
0.620951
0.652303
0.686249
0.722564
0.761066
0.801602
0.844023
0.888167
0.933858
0.98091
1.02914
1.07837
1.12844
1.17919
1.2305
1.28225
1.33434
1.38666
1.43913
1.49167
1.54421
1.59668
1.64902
1.70119
1.75314
1.80484
1.85627
1.90741
1.95825
2.0088
2.05907
2.10907
2.15882
2.20835
2.25769
2.30687
2.35591
2.40486
2.45375
2.50261
2.55148
2.60037
2.64933
2.69838
2.74754
2.79682
2.84626
2.89586
2.94564
2.99561
3.04576
3.09612
3.14667
3.19742
3.24836
3.29948
3.35079
3.40225
3.45387
3.50562
3.55749
3.60945
3.66142
3.71334
3.76521
3.817
3.86869
3.92025
3.97162
4.02277
4.07364
4.12419
4.17437
4.22411
4.27338
4.3221
4.37024
4.41772
4.46448
4.51048
4.55564
4.5999
4.64319
4.68544
4.72657
4.76654
4.80525
4.84264
4.87864
4.91316
4.94613
4.97745
5.00705
5.03486
5.06079
5.0848
5.10678
5.12667
5.1444
5.15993
5.17322
5.18424
5.19292
5.19925
5.20325
5.2049
5.20422
5.20124
5.19599
5.1885
5.17882
5.16701
5.15314
5.13726
5.11946
5.09979
5.07833
5.05517
5.03037
5.00401
4.97616
4.94688
4.91625
4.88432
4.85113
4.81675
4.7812
4.74451
4.7067
4.66777
4.62772
4.58652
4.54415
4.50054
4.45564
4.40937
4.36164
4.31236
4.2614
4.2086
4.15383
4.0969
4.03768
3.97598
3.91167
3.84459
3.77463
3.7017
3.62575
3.54678
3.46487
3.38017
3.29293
3.2035
3.11233
3.02002
2.92729
2.83494
2.74393
2.65462
2.5673
0.225226
0.306827
0.359458
0.396727
0.424826
0.446691
0.463897
0.477478
0.488462
0.497728
0.506084
0.514304
0.523139
0.533308
0.545472
0.560192
0.577881
0.59878
0.622948
0.650299
0.680644
0.713752
0.749382
0.787307
0.827316
0.869213
0.912814
0.957942
1.00443
1.05213
1.1009
1.15062
1.20117
1.25244
1.30436
1.35683
1.40976
1.46307
1.51669
1.57054
1.62455
1.67866
1.7328
1.78692
1.84098
1.89493
1.94876
2.00242
2.05593
2.10926
2.16242
2.21543
2.26829
2.32103
2.37366
2.42621
2.4787
2.53117
2.58364
2.63614
2.68869
2.74131
2.79403
2.84687
2.89984
2.95296
3.00625
3.05971
3.11334
3.16716
3.22117
3.27536
3.32973
3.38428
3.439
3.49387
3.54888
3.60402
3.65926
3.71458
3.76995
3.82525
3.88047
3.93558
3.99058
4.04541
4.10004
4.15443
4.20852
4.26226
4.31559
4.36847
4.42084
4.47265
4.52384
4.57435
4.62413
4.67312
4.72126
4.7685
4.81477
4.86001
4.90414
4.9471
4.98882
5.02926
5.06833
5.10597
5.14211
5.17666
5.20952
5.24062
5.26989
5.29726
5.32267
5.34604
5.36722
5.38619
5.40289
5.41727
5.42929
5.43889
5.44604
5.45074
5.45296
5.4527
5.44999
5.44483
5.43725
5.42729
5.415
5.40042
5.38362
5.36465
5.34359
5.3205
5.29545
5.26852
5.23976
5.20926
5.17708
5.14327
5.10789
5.071
5.03263
4.99283
4.9516
4.90898
4.86496
4.81953
4.77266
4.72432
4.67446
4.623
4.56988
4.515
4.45828
4.39961
4.33885
4.27588
4.21058
4.14283
4.0725
3.99952
3.9238
3.84531
3.76406
3.68011
3.59358
3.50466
3.41366
3.32094
3.22699
3.13239
3.0378
2.94399
2.85171
2.76175
2.67419
2.58889
0.23876
0.323267
0.378274
0.417557
0.447426
0.470745
0.489147
0.5039
0.515989
0.526253
0.535462
0.544351
0.553629
0.563979
0.576037
0.590355
0.60737
0.62737
0.650485
0.6767
0.705891
0.73786
0.772378
0.80921
0.848131
0.888935
0.931439
0.97548
1.02092
1.06762
1.11549
1.16444
1.21437
1.26521
1.3169
1.36935
1.42249
1.47627
1.53059
1.58538
1.64058
1.69611
1.75191
1.8079
1.86404
1.92027
1.97656
2.03286
2.08915
2.14542
2.20165
2.25783
2.31398
2.37009
2.42618
2.48226
2.53834
2.59446
2.65061
2.70683
2.76313
2.81952
2.87603
2.93266
2.98944
3.04636
3.10344
3.16069
3.2181
3.27568
3.33343
3.39135
3.44942
3.50764
3.566
3.62448
3.68307
3.74175
3.80049
3.85928
3.918
3.97659
4.03504
4.09333
4.15142
4.20927
4.26684
4.32408
4.38093
4.43733
4.49323
4.54856
4.60328
4.65733
4.71065
4.7632
4.81491
4.86573
4.91561
4.9645
5.01235
5.05908
5.10462
5.14892
5.19192
5.23357
5.27382
5.3126
5.34987
5.38554
5.41946
5.4516
5.48189
5.51026
5.53665
5.56095
5.58309
5.60299
5.62059
5.63583
5.64865
5.65899
5.66681
5.67208
5.67477
5.67486
5.67236
5.66726
5.65958
5.64934
5.63657
5.62131
5.60362
5.58353
5.56111
5.53642
5.50952
5.48047
5.44935
5.4162
5.3811
5.34409
5.30523
5.26457
5.22215
5.17799
5.13211
5.08454
5.03525
4.98425
4.9315
4.87695
4.82056
4.76225
4.70196
4.6396
4.57508
4.5083
4.43917
4.36759
4.29345
4.21669
4.13724
4.05508
3.97021
3.88269
3.79263
3.70019
3.60565
3.50933
3.41168
3.31322
3.21458
3.11647
3.01963
2.92487
2.83291
2.74442
2.65923
2.57689
0.24918
0.335791
0.392554
0.433358
0.464464
0.488891
0.508456
0.524395
0.537664
0.54907
0.559345
0.569178
0.579232
0.59014
0.602496
0.616822
0.633545
0.652964
0.675247
0.700427
0.728427
0.759094
0.792231
0.827624
0.865065
0.904364
0.945358
0.987905
1.03189
1.07722
1.12382
1.17162
1.22056
1.2706
1.32168
1.37374
1.42673
1.48059
1.53525
1.59064
1.64668
1.7033
1.76044
1.81802
1.87598
1.93425
1.99278
2.05154
2.11046
2.16954
2.22874
2.28804
2.34743
2.40691
2.46647
2.52612
2.58585
2.64568
2.70561
2.76565
2.82581
2.88609
2.9465
3.00706
3.06775
3.1286
3.18959
3.25073
3.31202
3.37345
3.43503
3.49673
3.55856
3.6205
3.68253
3.74465
3.80682
3.86902
3.93124
3.99341
4.0554
4.11719
4.17876
4.24008
4.30111
4.3618
4.42211
4.48198
4.54136
4.60015
4.6583
4.71576
4.77248
4.82839
4.88345
4.93761
4.9908
5.04298
5.09411
5.14414
5.19304
5.24077
5.28716
5.33223
5.37592
5.41822
5.45905
5.49839
5.53616
5.57231
5.60673
5.63938
5.67019
5.69909
5.726
5.75085
5.77355
5.79403
5.8122
5.82801
5.84137
5.85223
5.86053
5.86622
5.86925
5.8696
5.86724
5.86217
5.85437
5.84385
5.83063
5.81473
5.79619
5.77504
5.75133
5.72511
5.69642
5.66532
5.63187
5.59613
5.55814
5.51796
5.47562
5.43119
5.38467
5.33611
5.28552
5.23289
5.17823
5.12152
5.06272
5.00178
4.93866
4.87328
4.80556
4.73544
4.66283
4.58765
4.50981
4.42925
4.3459
4.25974
4.17076
4.079
3.98454
3.88755
3.78824
3.68691
3.58396
3.47987
3.37526
3.2708
3.16728
3.06552
2.9664
2.87075
2.77928
2.69255
2.61024
2.53165
0.256585
0.344548
0.402403
0.444045
0.476
0.501376
0.521984
0.539051
0.553517
0.566162
0.57768
0.588712
0.599865
0.611711
0.624781
0.639546
0.656393
0.675608
0.697361
0.721713
0.748627
0.777993
0.809657
0.843448
0.879193
0.916738
0.955949
0.996719
1.03896
1.08262
1.12764
1.17399
1.22163
1.27054
1.32068
1.37202
1.42452
1.47812
1.53278
1.58843
1.645
1.70242
1.76061
1.81951
1.87904
1.93913
1.99972
2.06076
2.12219
2.18397
2.24606
2.30843
2.37105
2.4339
2.49696
2.56022
2.62367
2.68729
2.7511
2.81507
2.87919
2.94348
3.00791
3.07249
3.13722
3.20208
3.26708
3.3322
3.39743
3.46278
3.52821
3.59374
3.65933
3.72498
3.79067
3.85637
3.92206
3.98772
4.05332
4.11868
4.18377
4.24859
4.31308
4.37721
4.44093
4.50418
4.56692
4.6291
4.69068
4.75148
4.81149
4.87065
4.92891
4.98622
5.04252
5.09775
5.15189
5.20487
5.25666
5.30721
5.3565
5.40448
5.45107
5.49626
5.54001
5.5823
5.62308
5.66233
5.69999
5.73601
5.77034
5.80292
5.83368
5.86257
5.88951
5.91443
5.93725
5.95789
5.97627
5.99231
6.00593
6.01706
6.02562
6.03155
6.0348
6.0353
6.03303
6.02794
6.02002
6.00925
5.99562
5.97915
5.95984
5.93772
5.91282
5.88517
5.8548
5.82176
5.7861
5.74785
5.70706
5.66378
5.61803
5.56986
5.51929
5.46634
5.41101
5.35331
5.29323
5.23074
5.1658
5.09836
5.02837
4.95576
4.88046
4.80238
4.72147
4.63765
4.55086
4.46106
4.36822
4.27236
4.17354
4.07186
3.96749
3.8607
3.75182
3.64128
3.52962
3.4175
3.30568
3.19502
3.08646
2.98098
2.87953
2.78301
2.69213
2.60739
2.52835
2.45415
0.261221
0.349708
0.407995
0.450142
0.482689
0.508779
0.530245
0.548324
0.563947
0.577872
0.590756
0.603188
0.615711
0.628828
0.642993
0.658608
0.676
0.695416
0.71701
0.740846
0.766916
0.795147
0.825432
0.857648
0.89167
0.927386
0.964705
1.00356
1.0439
1.08571
1.12896
1.17364
1.21974
1.26726
1.3162
1.36655
1.41827
1.47135
1.52573
1.58137
1.6382
1.69615
1.75516
1.81516
1.87606
1.93779
2.00029
2.06349
2.12732
2.19173
2.25666
2.32207
2.38791
2.45415
2.52075
2.58767
2.6549
2.72241
2.79018
2.85818
2.92637
2.99474
3.06328
3.13197
3.2008
3.26974
3.33877
3.40789
3.47708
3.54632
3.61559
3.68487
3.75415
3.82341
3.89263
3.96177
4.03083
4.09976
4.1684
4.2367
4.30463
4.37215
4.43922
4.50578
4.57179
4.63718
4.70189
4.76587
4.82904
4.89131
4.95262
5.01292
5.07214
5.13024
5.18716
5.24285
5.29727
5.35039
5.40216
5.45255
5.50154
5.54909
5.59517
5.63977
5.68285
5.72442
5.76444
5.80289
5.83976
5.87499
5.90856
5.94042
5.97053
5.99882
6.02524
6.04972
6.07218
6.09255
6.11074
6.12666
6.14024
6.15137
6.15998
6.16599
6.16931
6.16989
6.16765
6.16254
6.15452
6.14355
6.1296
6.11265
6.09271
6.06976
6.04382
6.01489
5.98302
5.9482
5.91049
5.8699
5.82647
5.78023
5.7312
5.67941
5.62488
5.56762
5.50763
5.4449
5.37942
5.31115
5.24006
5.16609
5.08919
5.00928
4.9263
4.84018
4.75085
4.65826
4.56237
4.46317
4.36068
4.25494
4.14609
4.0343
3.91984
3.80306
3.68442
3.5645
3.44398
3.3237
3.20458
3.08765
2.97401
2.86478
2.76103
2.66371
2.57352
2.49094
2.41545
2.34611
0.263145
0.351785
0.410183
0.452493
0.485319
0.511855
0.533969
0.552915
0.569621
0.584825
0.599147
0.613121
0.627225
0.641883
0.65747
0.674305
0.692646
0.712682
0.734534
0.758258
0.783851
0.811273
0.840456
0.871323
0.903799
0.937823
0.973336
1.01031
1.04876
1.08871
1.13019
1.17313
1.21757
1.26357
1.31116
1.36035
1.41114
1.46351
1.51744
1.57288
1.6298
1.68813
1.7478
1.80875
1.8709
1.93417
1.99848
2.06377
2.12995
2.19695
2.26472
2.33317
2.40225
2.4719
2.54208
2.61271
2.68377
2.7552
2.82695
2.89899
2.97127
3.04375
3.1164
3.18919
3.26208
3.33504
3.40804
3.48106
3.55407
3.62705
3.69997
3.77281
3.84555
3.91815
3.99061
4.06289
4.13495
4.20663
4.27789
4.34867
4.41894
4.48865
4.55775
4.62618
4.69387
4.76077
4.82682
4.89193
4.95604
5.01908
5.08099
5.14169
5.20114
5.25928
5.31606
5.37143
5.42537
5.47783
5.5288
5.57824
5.62614
5.67249
5.71727
5.76048
5.80212
5.84219
5.88068
5.9176
5.95293
5.98667
6.01879
6.04927
6.07808
6.10518
6.13052
6.15403
6.17565
6.19531
6.21291
6.22837
6.2416
6.2525
6.26096
6.2669
6.27021
6.2708
6.26859
6.26349
6.25544
6.24438
6.23024
6.21299
6.19259
6.16902
6.14226
6.1123
6.07915
6.04281
6.00328
5.96059
5.91475
5.86577
5.81368
5.75847
5.70016
5.63876
5.57425
5.50662
5.43585
5.36191
5.28474
5.2043
5.12052
5.03334
4.9427
4.84853
4.75077
4.6494
4.54439
4.43575
4.32356
4.20791
4.08899
3.96705
3.84246
3.71568
3.58729
3.458
3.32868
3.2003
3.07397
2.9509
2.83233
2.71953
2.61364
2.51566
2.42632
2.34605
2.27432
2.21012
0.263198
0.351613
0.409727
0.451844
0.484643
0.511379
0.533962
0.553665
0.571415
0.587927
0.603781
0.619457
0.635363
0.651843
0.669188
0.687631
0.707351
0.728473
0.751071
0.775177
0.800787
0.827877
0.85641
0.886348
0.917663
0.950389
0.984407
1.01971
1.05639
1.09452
1.13416
1.17536
1.2182
1.26272
1.30899
1.35704
1.40691
1.45858
1.51207
1.56734
1.62436
1.68308
1.74344
1.80538
1.86882
1.93368
1.99987
2.06732
2.13594
2.20563
2.27632
2.34792
2.42035
2.49353
2.56737
2.64182
2.71678
2.79219
2.86799
2.94411
3.02048
3.09705
3.17376
3.25055
3.32739
3.40422
3.48101
3.5577
3.63428
3.71069
3.78692
3.86293
3.93871
4.0142
4.08942
4.16426
4.23858
4.31235
4.38553
4.45807
4.52992
4.60103
4.67133
4.74076
4.80927
4.87679
4.94324
5.00857
5.0727
5.13556
5.19709
5.25724
5.31593
5.37314
5.42881
5.4829
5.53538
5.58623
5.63543
5.68298
5.72886
5.77308
5.81565
5.85657
5.89588
5.93358
5.9697
6.00425
6.03726
6.06873
6.09867
6.12707
6.15392
6.1792
6.20287
6.22489
6.24518
6.2637
6.28034
6.29502
6.30764
6.31809
6.32625
6.33201
6.33526
6.33587
6.33374
6.32876
6.32082
6.30984
6.29572
6.2784
6.25781
6.2339
6.20661
6.17592
6.14181
6.10424
6.06321
6.01872
5.97075
5.91932
5.86441
5.80603
5.74418
5.67884
5.61
5.53764
5.46174
5.38224
5.29912
5.2123
5.12174
5.02737
4.92913
4.82696
4.72083
4.61072
4.49664
4.37863
4.2568
4.13132
4.00243
3.87047
3.7359
3.5993
3.46138
3.323
3.18517
3.04905
2.91592
2.78713
2.66409
2.54816
2.44055
2.3423
2.25412
2.17639
2.10859
2.04973
0.261839
0.349623
0.407076
0.448675
0.481182
0.507915
0.530823
0.551192
0.569939
0.587756
0.605179
0.622639
0.640477
0.658969
0.678326
0.698704
0.720209
0.742904
0.766817
0.79195
0.818291
0.845825
0.874534
0.904412
0.935275
0.967214
1.00028
1.03454
1.0701
1.10705
1.14551
1.18558
1.22735
1.27091
1.31635
1.36372
1.41308
1.46445
1.51785
1.57327
1.63068
1.69005
1.75133
1.81445
1.87934
1.94591
2.01408
2.08375
2.15482
2.22719
2.30076
2.37541
2.45105
2.52757
2.60488
2.68286
2.76142
2.84047
2.91992
2.99967
3.07965
3.15977
3.23996
3.32015
3.40027
3.48026
3.56008
3.63966
3.71896
3.79795
3.87658
3.95483
4.03268
4.11006
4.18684
4.26297
4.33841
4.41311
4.48703
4.56011
4.6323
4.70355
4.7738
4.84298
4.91104
4.97791
5.04352
5.10782
5.17073
5.23219
5.29215
5.35055
5.40734
5.46247
5.51591
5.56763
5.6176
5.66581
5.71225
5.75692
5.79985
5.84103
5.88051
5.9183
5.95445
5.98901
6.022
6.05348
6.08348
6.11204
6.13918
6.16493
6.1893
6.21227
6.23384
6.25396
6.2726
6.28968
6.30513
6.31885
6.33074
6.34067
6.34853
6.35417
6.35745
6.35825
6.3564
6.35178
6.34426
6.33369
6.31997
6.30299
6.28264
6.25884
6.23151
6.20058
6.166
6.12772
6.0857
6.03991
5.99032
5.93692
5.87968
5.8186
5.75365
5.68481
5.61206
5.53538
5.45472