/*--------------------------------*- C++ -*----------------------------------*\
  =========                 |
  \\      /  F ield         | OpenFOAM: The Open Source CFD Toolbox
   \\    /   O peration     | Website:  https://openfoam.org
    \\  /    A nd           | Version:  9
     \\/     M anipulation  |
\*---------------------------------------------------------------------------*/
FoamFile
{
    format      ascii;
    class       volScalarField;
    location    "0.07";
    object      nut;
}
// * * * * * * * * * * * * * * * * * * * * * * * * * * * * * * * * * * * * * //

dimensions      [0 2 -1 0 0 0 0];

internalField   nonuniform List<scalar> 
12225
(
4.04768e-05
3.83178e-05
3.62505e-05
3.44201e-05
3.29524e-05
3.18987e-05
3.12582e-05
3.09973e-05
3.1064e-05
3.13993e-05
3.19447e-05
3.2647e-05
3.34602e-05
3.43465e-05
3.5279e-05
3.62346e-05
3.72344e-05
3.87323e-05
0.000281045
0.000209261
0.000176259
0.000157431
0.000146261
0.000139676
0.000135782
0.000133419
0.000131904
0.000130848
0.000130034
0.000129348
0.000128733
0.000128158
0.000127627
0.000127078
0.000126762
0.000125484
0.000556042
0.000419894
0.000349794
0.000304707
0.000272408
0.000247932
0.000228701
0.00021322
0.000200574
0.000190151
0.000181512
0.000174316
0.000168291
0.00016321
0.000158897
0.00015513
0.000151846
0.000148344
0.000740305
0.000625809
0.000544093
0.000484962
0.000439718
0.000403577
0.000373742
0.000348475
0.000326687
0.00030768
0.000290976
0.000276227
0.000263155
0.00025152
0.000241112
0.000231665
0.000222998
0.000214646
0.000817068
0.000759134
0.000700527
0.000648543
0.000603843
0.000565505
0.000532364
0.000503366
0.000477684
0.000454706
0.000433983
0.000415174
0.000398013
0.000382271
0.000367748
0.00035421
0.00034147
0.000329333
0.0008421
0.000819684
0.000789912
0.000757581
0.000725511
0.000695098
0.00066687
0.000640884
0.000616994
0.000594997
0.000574685
0.000555865
0.000538363
0.000522018
0.000506679
0.00049218
0.000478387
0.000465312
0.000849261
0.000841806
0.000829735
0.000814173
0.000796453
0.000777716
0.00075878
0.000740155
0.000722128
0.000704841
0.000688352
0.000672664
0.000657748
0.000643556
0.000630026
0.000617084
0.00060467
0.000592911
0.00085112
0.000848747
0.000844477
0.000838229
0.000830231
0.000820868
0.000810555
0.000799656
0.000788459
0.000777179
0.00076597
0.000754933
0.000744135
0.000733611
0.000723376
0.00071343
0.000703777
0.00069458
0.00085156
0.000850665
0.000849168
0.000846883
0.000843733
0.000839744
0.000835009
0.000829655
0.000823818
0.000817623
0.000811183
0.000804591
0.000797919
0.000791226
0.000784553
0.000777934
0.000771404
0.000765104
0.000851652
0.000851133
0.000850467
0.000849562
0.000848343
0.000846764
0.000844813
0.000842499
0.000839852
0.000836912
0.000833724
0.000830333
0.00082678
0.000823105
0.000819341
0.000815518
0.00081167
0.000807897
0.000851668
0.000851231
0.000850778
0.000850277
0.000849695
0.000849002
0.000848175
0.0008472
0.00084607
0.000844789
0.000843364
0.000841805
0.000840128
0.000838347
0.000836478
0.000834537
0.000832545
0.000830559
0.000851669
0.000851245
0.000850835
0.000850428
0.000850012
0.000849572
0.000849096
0.000848573
0.000847992
0.000847351
0.000846645
0.000845875
0.000845043
0.000844153
0.00084321
0.00084222
0.000841194
0.000840166
0.000851668
0.000851245
0.000850843
0.000850459
0.000850087
0.000849724
0.000849362
0.000848997
0.000848622
0.000848234
0.000847829
0.000847406
0.000846961
0.000846496
0.00084601
0.000845505
0.000844986
0.00084447
0.000851667
0.000851242
0.00085084
0.000850458
0.000850096
0.00084975
0.000849419
0.000849099
0.000848789
0.000848486
0.000848188
0.000847894
0.000847602
0.000847311
0.000847021
0.00084673
0.000846442
0.000846168
0.000851666
0.000851239
0.000850835
0.000850452
0.00085009
0.000849746
0.000849418
0.000849107
0.00084881
0.000848526
0.000848254
0.000847993
0.000847742
0.000847501
0.000847269
0.000847046
0.000846832
0.000846639
0.000851665
0.000851237
0.000850831
0.000850447
0.000850083
0.000849737
0.000849409
0.000849097
0.000848801
0.000848519
0.00084825
0.000847994
0.00084775
0.000847518
0.000847296
0.000847085
0.000846886
0.00084671
0.000851664
0.000851235
0.000850828
0.000850443
0.000850077
0.00084973
0.000849401
0.000849088
0.000848791
0.000848508
0.000848239
0.000847982
0.000847738
0.000847505
0.000847284
0.000847073
0.000846874
0.000846698
0.000851664
0.000851234
0.000850826
0.00085044
0.000850073
0.000849726
0.000849396
0.000849082
0.000848784
0.0008485
0.00084823
0.000847972
0.000847727
0.000847493
0.00084727
0.000847058
0.000846858
0.00084668
0.000851663
0.000851233
0.000850826
0.000850439
0.000850072
0.000849724
0.000849394
0.00084908
0.000848781
0.000848497
0.000848226
0.000847968
0.000847722
0.000847487
0.000847263
0.00084705
0.000846848
0.000846669
0.000851664
0.000851234
0.000850827
0.00085044
0.000850074
0.000849727
0.000849397
0.000849083
0.000848785
0.0008485
0.000848229
0.00084797
0.000847723
0.000847487
0.000847262
0.000847046
0.000846842
0.00084666
0.000851664
0.000851235
0.000850829
0.000850444
0.000850078
0.000849731
0.0008494
0.000849084
0.000848782
0.000848493
0.000848214
0.000847946
0.000847686
0.000847435
0.000847191
0.000846955
0.000846727
0.000846518
0.000851665
0.000851237
0.00085083
0.000850442
0.000850069
0.000849707
0.000849353
0.000849002
0.000848651
0.000848298
0.00084794
0.000847577
0.000847207
0.00084683
0.000846445
0.000846053
0.000845657
0.00084527
0.000851664
0.000851228
0.000850795
0.000850348
0.000849871
0.000849347
0.000848765
0.000848115
0.000847394
0.000846601
0.000845738
0.00084481
0.000843822
0.000842781
0.000841695
0.000840571
0.000839419
0.000838263
0.000851634
0.000851073
0.000850344
0.000849364
0.000848082
0.000846472
0.000844538
0.000842302
0.000839799
0.000837071
0.000834159
0.000831105
0.000827947
0.000824717
0.000821446
0.000818158
0.000814879
0.000811653
0.000851287
0.000849596
0.000846722
0.000842581
0.000837269
0.00083099
0.000823988
0.000816494
0.000808705
0.000800778
0.000792834
0.000784963
0.00077723
0.00076968
0.000762343
0.000755238
0.000748379
0.000741821
0.000848318
0.000839427
0.000826165
0.000810025
0.000792372
0.000774247
0.00075635
0.000739082
0.000722643
0.000707111
0.000692498
0.000678776
0.0006659
0.000653814
0.000642461
0.000631788
0.000621746
0.000612346
0.000828549
0.000788846
0.000746042
0.000705716
0.000669483
0.000637528
0.000609481
0.000584784
0.000562899
0.000543371
0.00052583
0.000509977
0.00049557
0.000482416
0.000470355
0.000459256
0.000449013
0.000439578
0.000730728
0.000627352
0.000554519
0.000501076
0.00046034
0.000428374
0.000402666
0.000381507
0.000363754
0.000348631
0.000335592
0.00032424
0.000314276
0.00030547
0.000297643
0.000290651
0.000284373
0.000278728
0.000439251
0.000338475
0.000287941
0.000256876
0.00023637
0.000222519
0.000213003
0.000206321
0.000201515
0.000197968
0.000195279
0.000193184
0.000191505
0.000190122
0.000188951
0.000187936
0.000187038
0.000186211
7.16431e-05
6.90587e-05
6.65521e-05
6.41645e-05
6.19882e-05
6.00781e-05
5.84559e-05
5.71203e-05
5.60556e-05
5.52379e-05
5.46403e-05
5.42349e-05
5.39949e-05
5.38956e-05
5.39142e-05
5.40308e-05
5.4228e-05
5.44895e-05
1.26534e-05
0.000106536
0.000132687
0.000152654
0.000167776
0.000178829
0.000186353
0.000190892
0.000193161
0.000193978
0.000194146
0.000194416
0.000195245
0.000196305
0.000197295
0.000197935
0.000198193
0.000199014
0.000200553
0.000201186
0.000199134
0.000200822
0.000203885
0.000205701
4.59599e-05
4.7282e-05
4.94153e-05
5.1906e-05
5.45035e-05
5.7114e-05
5.96785e-05
6.21574e-05
6.45264e-05
6.67729e-05
6.88917e-05
7.08831e-05
7.27508e-05
7.45007e-05
7.61401e-05
7.76772e-05
7.91207e-05
8.04791e-05
8.17608e-05
8.29741e-05
8.41264e-05
8.52248e-05
8.62757e-05
8.7285e-05
8.82578e-05
8.91989e-05
9.01122e-05
9.10016e-05
9.187e-05
9.27205e-05
9.35552e-05
9.43765e-05
9.5186e-05
9.59853e-05
9.67758e-05
9.75584e-05
9.83343e-05
9.9104e-05
9.98682e-05
0.000100627
0.000101382
0.000102131
0.000102877
0.000103618
0.000104354
0.000105086
0.000105814
0.000106536
0.000107253
0.000107964
0.00010867
0.000109369
0.000110061
0.000110745
0.000111423
0.000112092
0.000112752
0.000113404
0.000114049
0.000114688
0.000115324
0.000115958
0.000116578
0.000117184
0.000117777
0.000118354
0.000118916
0.000119461
0.000119989
0.000120499
0.00012099
0.00012146
0.000121909
0.000122336
0.00012274
0.00012312
0.000123475
0.000123804
0.000124107
0.000124382
0.000124628
0.000124846
0.000125033
0.00012519
0.000125316
0.00012541
0.000125472
0.000125502
0.000125499
0.000125463
0.000125394
0.000125293
0.00012516
0.000124995
0.000124799
0.000124572
0.000124317
0.000124034
0.000123724
0.000123389
0.00012303
0.000122649
0.000122248
0.00012183
0.000121394
0.000120945
0.000120483
0.000120011
0.000119531
0.000119044
0.000118552
0.000118057
0.000117561
0.000117065
0.00011657
0.000116076
0.000115586
0.000115098
0.000114615
0.000114136
0.00011366
0.000113188
0.000112719
0.000112251
0.000111785
0.000111316
0.000110847
0.000110372
0.00010989
0.0001094
0.0001089
0.000108409
0.000108205
0.000108155
0.000108126
0.000108106
0.000108088
0.000108065
0.000108031
0.000107979
0.000107901
0.000107788
0.000107632
0.000107421
0.000107147
0.000106797
0.000106361
0.000105827
0.000105182
0.000104415
0.000103509
0.000102446
0.000101189
9.96853e-05
9.77423e-05
9.51466e-05
1.5454e-05
7.1478e-05
0.000123958
0.000167757
0.000203776
0.000232552
0.000254353
0.000269731
0.000280172
0.000287514
0.000293545
0.000299575
0.000304615
0.000307641
0.000307646
0.000303451
0.000294681
0.000286294
0.000278388
0.000266128
0.000257403
0.000256841
0.000259933
0.000262423
0.000259918
0.000264772
0.000271146
0.000279107
0.000288996
0.000300875
0.000314617
0.00032999
0.000346702
0.000364429
0.00038284
0.00040161
0.000420439
0.000439066
0.000457274
0.000474899
0.000491824
0.000507981
0.000523338
0.000537898
0.000551685
0.000564741
0.000577119
0.000588876
0.000600075
0.000610774
0.000621033
0.000630906
0.000640445
0.000649697
0.000658706
0.00066751
0.000676145
0.000684644
0.000693034
0.000701343
0.000709591
0.000717801
0.000725989
0.000734172
0.000742364
0.000750577
0.000758821
0.000767105
0.000775437
0.000783823
0.000792268
0.000800778
0.000809353
0.000817998
0.000826712
0.000835496
0.000844345
0.000853257
0.000862223
0.000871231
0.000880261
0.000889286
0.000898266
0.000907157
0.000915607
0.00092389
0.000932161
0.000940434
0.000948703
0.000956963
0.000965203
0.000973416
0.000981591
0.000989717
0.000997785
0.00100578
0.00101369
0.00102151
0.00102921
0.00103679
0.00104423
0.00105152
0.00105863
0.00106556
0.00107228
0.00107879
0.00108505
0.00109106
0.00109679
0.00110224
0.00110738
0.0011122
0.00111668
0.0011208
0.00112457
0.00112796
0.00113096
0.00113357
0.00113578
0.00113759
0.001139
0.00114
0.00114061
0.00114083
0.00114067
0.00114013
0.00113924
0.00113802
0.00113647
0.00113462
0.0011325
0.00113013
0.00112754
0.00112474
0.00112177
0.00111866
0.00111543
0.00111212
0.00110875
0.00110534
0.00110193
0.00109854
0.00109519
0.00109191
0.00108871
0.00108562
0.00108265
0.00107982
0.00107712
0.00107457
0.00107218
0.00106993
0.0010678
0.00106571
0.0010634
0.00105998
0.00105371
0.00104614
0.00103799
0.00102939
0.00102034
0.00101079
0.00100068
0.000989924
0.00097845
0.000966165
0.000952975
0.000938785
0.000923502
0.000907032
0.000889291
0.000870199
0.000849687
0.000827692
0.000804148
0.000778998
0.000752087
0.000723389
0.000691528
0.000640657
2.22888e-05
8.71512e-05
0.000151869
0.000208711
0.000257297
0.000297924
0.00033096
0.000356937
0.00037673
0.000391482
0.000402449
0.000410109
0.000414293
0.00041514
0.000412746
0.00040741
0.00040016
0.000393382
0.000389222
0.000388518
0.00039212
0.000399561
0.000409589
0.000421051
0.000433954
0.000449734
0.000468925
0.000491692
0.000518098
0.000547984
0.000580945
0.000616404
0.000653691
0.000692114
0.000731015
0.00076981
0.00080801
0.000845233
0.000881202
0.000915738
0.00094874
0.000980178
0.00101007
0.00103847
0.00106547
0.00109116
0.00111565
0.00113905
0.00116146
0.001183
0.00120375
0.00122382
0.0012433
0.00126225
0.00128076
0.00129889
0.00131671
0.00133426
0.00135161
0.00136878
0.00138583
0.00140279
0.00141969
0.00143656
0.00145342
0.00147029
0.0014872
0.00150415
0.00152116
0.00153824
0.00155539
0.00157262
0.00158994
0.00160734
0.00162482
0.00164238
0.00166001
0.00167769
0.00169541
0.00171315
0.00173088
0.00174856
0.00176616
0.0017836
0.00180071
0.00181774
0.00183474
0.00185174
0.00186873
0.00188569
0.0019026
0.00191945
0.00193622
0.00195289
0.00196943
0.00198583
0.00200205
0.00201808
0.00203389
0.00204944
0.00206472
0.00207968
0.0020943
0.00210855
0.00212238
0.00213578
0.00214869
0.00216109
0.00217294
0.0021842
0.00219484
0.00220483
0.00221414
0.00222272
0.00223056
0.00223763
0.00224391
0.00224937
0.00225401
0.00225781
0.00226076
0.00226287
0.00226414
0.00226458
0.00226421
0.00226305
0.00226111
0.00225845
0.00225508
0.00225105
0.0022464
0.00224118
0.00223544
0.00222923
0.00222259
0.00221558
0.00220826
0.00220068
0.00219288
0.00218492
0.00217683
0.00216866
0.00216046
0.00215226
0.00214408
0.00213594
0.0021279
0.00211994
0.00211207
0.00210427
0.00209658
0.00208891
0.00208122
0.00207331
0.00206478
0.00205478
0.00204225
0.00202806
0.00201286
0.00199684
0.00197999
0.00196224
0.00194348
0.00192358
0.00190238
0.00187972
0.00185543
0.00182934
0.00180127
0.00177106
0.00173856
0.0017036
0.00166608
0.00162587
0.00158285
0.00153692
0.00148788
0.00143545
0.00137819
0.00130679
2.9612e-05
0.000108654
0.000189707
0.000260809
0.000321155
0.000371428
0.000412473
0.000445134
0.000470284
0.000488829
0.000501646
0.00050864
0.000510655
0.000508523
0.000503137
0.000496199
0.000489955
0.000486751
0.000488295
0.000495156
0.000506988
0.000522953
0.000542301
0.000564707
0.000590453
0.00062016
0.000654304
0.000692965
0.000735905
0.000782616
0.000832377
0.000884357
0.000937696
0.000991587
0.00104532
0.00109829
0.00115005
0.00120026
0.00124869
0.0012952
0.00133975
0.00138234
0.00142301
0.00146186
0.00149898
0.0015345
0.00156854
0.00160123
0.00163268
0.00166303
0.00169238
0.00172085
0.00174854
0.00177555
0.00180197
0.00182787
0.00185333
0.00187843
0.00190322
0.00192776
0.0019521
0.00197628
0.00200035
0.00202434
0.00204829
0.00207221
0.00209613
0.00212007
0.00214404
0.00216806
0.00219214
0.00221628
0.00224048
0.00226474
0.00228907
0.00231344
0.00233786
0.00236231
0.00238677
0.00241123
0.00243566
0.00246005
0.00248438
0.00250846
0.00253239
0.00255626
0.00258011
0.00260394
0.00262775
0.00265151
0.00267521
0.00269882
0.00272232
0.00274568
0.00276888
0.00279189
0.00281467
0.0028372
0.00285944
0.00288135
0.0029029
0.00292405
0.00294476
0.00296498
0.00298467
0.00300378
0.00302227
0.00304009
0.00305719
0.00307352
0.00308903
0.00310367
0.00311741
0.00313018
0.00314196
0.00315269
0.00316235
0.0031709
0.00317831
0.00318456
0.00318964
0.00319354
0.00319625
0.00319778
0.00319815
0.00319736
0.00319545
0.00319244
0.00318839
0.00318332
0.0031773
0.00317038
0.00316262
0.00315408
0.00314481
0.00313489
0.00312438
0.00311335
0.00310186
0.00308995
0.00307769
0.00306514
0.00305234
0.00303933
0.00302613
0.00301278
0.00299931
0.00298573
0.00297202
0.00295818
0.00294418
0.00292994
0.00291538
0.00290027
0.00288427
0.00286677
0.00284725
0.00282606
0.00280356
0.0027799
0.00275508
0.00272901
0.00270157
0.0026726
0.00264193
0.00260936
0.00257472
0.00253779
0.0024984
0.00245637
0.00241152
0.00236372
0.00231284
0.0022588
0.00220151
0.00214091
0.00207692
0.00200942
0.00193752
0.00185808
3.70859e-05
0.000132992
0.000231314
0.000316211
0.000387147
0.000445389
0.000492319
0.000529171
0.000557035
0.000576906
0.000588989
0.000594189
0.000593834
0.0005895
0.000583107
0.000576971
0.000573535
0.00057485
0.00058211
0.000595538
0.000614694
0.000638937
0.000667805
0.000701157
0.000739134
0.000781941
0.000829622
0.000881921
0.000938305
0.00099803
0.00106024
0.00112403
0.00118856
0.00125307
0.00131692
0.00137959
0.00144069
0.00149995
0.00155719
0.00161231
0.00166528
0.00171612
0.00176489
0.00181167
0.00185657
0.00189971
0.0019412
0.00198119
0.00201979
0.00205712
0.00209332
0.00212849
0.00216274
0.00219618
0.00222889
0.00226098
0.00229252
0.00232359
0.00235426
0.00238459
0.00241464
0.00244446
0.00247409
0.00250358
0.00253297
0.00256227
0.00259152
0.00262075
0.00264996
0.00267917
0.0027084
0.00273765
0.00276692
0.00279621
0.00282554
0.00285487
0.00288422
0.00291358
0.00294292
0.00297224
0.00300151
0.00303074
0.00305989
0.00308884
0.00311769
0.00314649
0.00317528
0.00320404
0.00323277
0.00326145
0.00329005
0.00331857
0.00334697
0.00337523
0.00340332
0.00343121
0.00345886
0.00348625
0.00351334
0.00354009
0.00356646
0.0035924
0.00361787
0.00364283
0.00366722
0.003691
0.0037141
0.00373648
0.00375807
0.00377883
0.00379868
0.00381757
0.00383544
0.00385224
0.0038679
0.00388238
0.00389561
0.00390757
0.0039182
0.00392746
0.00393533
0.00394178
0.00394679
0.00395036
0.00395249
0.00395317
0.00395244
0.0039503
0.0039468
0.00394197
0.00393586
0.00392852
0.00392
0.00391037
0.00389969
0.00388802
0.00387544
0.00386201
0.00384779
0.00383284
0.00381721
0.00380099
0.00378421
0.00376692
0.00374913
0.00373088
0.00371219
0.00369307
0.00367352
0.0036535
0.00363297
0.00361188
0.00359011
0.00356748
0.0035437
0.0035184
0.00349129
0.00346248
0.00343213
0.00340031
0.00336702
0.00333217
0.00329564
0.00325727
0.00321691
0.00317439
0.00312952
0.00308214
0.00303208
0.0029792
0.00292337
0.00286449
0.00280252
0.00273741
0.00266918
0.00259788
0.00252361
0.00244647
0.00236617
0.00228206
4.4516e-05
0.000157658
0.0002722
0.000369708
0.000450146
0.000515151
0.000566698
0.000606412
0.000635665
0.000655452
0.000666683
0.00067084
0.000669646
0.000665156
0.000659746
0.000655948
0.000656102
0.000661966
0.000674478
0.000693814
0.000719674
0.000751615
0.000789268
0.00083241
0.000880894
0.000934528
0.000992967
0.00105567
0.00112191
0.00119087
0.00126167
0.00133349
0.00140555
0.0014772
0.00154787
0.00161715
0.00168471
0.00175031
0.00181381
0.00187513
0.00193425
0.0019912
0.00204602
0.00209879
0.00214961
0.00219858
0.00224583
0.00229147
0.00233562
0.00237841
0.00241994
0.00246034
0.00249971
0.00253816
0.00257578
0.00261266
0.0026489
0.00268457
0.00271975
0.0027545
0.00278888
0.00282296
0.00285677
0.00289036
0.00292377
0.00295704
0.00299019
0.00302325
0.00305624
0.00308917
0.00312207
0.00315493
0.00318777
0.0032206
0.0032534
0.00328618
0.00331894
0.00335168
0.00338438
0.00341703
0.00344963
0.00348217
0.0035146
0.00354687
0.00357908
0.00361125
0.00364341
0.00367555
0.00370766
0.00373974
0.00377176
0.0038037
0.00383555
0.00386728
0.00389885
0.00393026
0.00396146
0.00399243
0.00402313
0.00405352
0.00408357
0.00411323
0.00414246
0.0041712
0.00419942
0.00422705
0.00425404
0.00428033
0.00430586
0.00433057
0.00435438
0.00437723
0.00439905
0.00441977
0.00443933
0.00445765
0.00447467
0.00449032
0.00450456
0.00451732
0.00452855
0.0045382
0.00454625
0.00455267
0.00455744
0.00456053
0.00456196
0.00456172
0.00455984
0.00455634
0.00455124
0.00454459
0.00453644
0.00452683
0.00451581
0.00450345
0.00448981
0.00447496
0.00445896
0.00444185
0.0044237
0.00440456
0.00438449
0.00436351
0.00434167
0.00431899
0.00429548
0.00427116
0.00424601
0.00422001
0.00419313
0.00416529
0.0041364
0.00410631
0.00407482
0.00404168
0.00400673
0.00396995
0.00393141
0.00389112
0.00384907
0.00380517
0.00375932
0.0037114
0.00366129
0.00360885
0.00355394
0.00349644
0.00343625
0.00337329
0.0033075
0.00323887
0.00316742
0.00309322
0.00301638
0.00293711
0.00285564
0.00277228
0.00268708
0.00260024
5.18573e-05
0.000180482
0.000309156
0.000417673
0.000506306
0.000577413
0.000633269
0.000675813
0.000706731
0.000727113
0.000738665
0.000743198
0.000742759
0.000739678
0.000736489
0.000735715
0.000739563
0.000749635
0.00076682
0.000791368
0.000823113
0.000861693
0.000906701
0.000957729
0.00101435
0.00107605
0.00114223
0.00121218
0.0012851
0.00136015
0.00143655
0.00151353
0.00159042
0.00166666
0.00174178
0.00181541
0.00188728
0.00195718
0.00202501
0.00209067
0.00215416
0.00221549
0.0022747
0.00233185
0.00238704
0.00244036
0.0024919
0.00254179
0.00259012
0.00263702
0.00268259
0.00272694
0.00277018
0.00281241
0.00285372
0.00289421
0.00293396
0.00297305
0.00301157
0.00304957
0.00308712
0.00312427
0.00316109
0.00319761
0.00323389
0.00326994
0.00330581
0.00334152
0.0033771
0.00341256
0.00344793
0.00348321
0.00351842
0.00355357
0.00358865
0.00362368
0.00365864
0.00369355
0.0037284
0.00376319
0.00379791
0.00383256
0.00386705
0.00390144
0.00393579
0.00397013
0.00400446
0.0040388
0.00407313
0.00410745
0.00414175
0.004176
0.0042102
0.00424432
0.00427834
0.00431225
0.00434601
0.0043796
0.00441299
0.00444614
0.00447903
0.00451161
0.00454385
0.00457568
0.00460707
0.00463797
0.00466832
0.00469806
0.00472712
0.00475543
0.00478293
0.00480954
0.00483518
0.00485978
0.00488325
0.00490552
0.00492649
0.00494609
0.00496426
0.0049809
0.00499596
0.00500936
0.00502104
0.00503096
0.00503908
0.00504536
0.00504976
0.00505227
0.00505289
0.00505162
0.00504847
0.00504345
0.00503661
0.00502797
0.00501756
0.00500545
0.00499168
0.0049763
0.00495936
0.00494091
0.00492101
0.00489969
0.00487702
0.00485301
0.00482771
0.00480114
0.00477331
0.00474424
0.00471391
0.0046823
0.00464939
0.00461511
0.00457939
0.00454211
0.00450313
0.00446229
0.00441947
0.00437464
0.00432779
0.00427893
0.00422801
0.00417499
0.00411979
0.00406234
0.00400254
0.00394032
0.00387561
0.00380836
0.00373853
0.00366614
0.00359122
0.00351385
0.00343417
0.00335234
0.00326862
0.00318331
0.00309677
0.00300944
0.00292149
0.00283325
5.8694e-05
0.000199491
0.000340576
0.000459303
0.000555827
0.00063288
0.000693137
0.000738924
0.000771892
0.00079397
0.000807114
0.000813375
0.000814991
0.000814402
0.000814151
0.000816686
0.00082411
0.000837975
0.000859195
0.000888107
0.000924624
0.000968394
0.00101892
0.00107563
0.00113788
0.00120497
0.00127614
0.0013506
0.00142756
0.00150622
0.00158584
0.00166577
0.00174542
0.0018243
0.001902
0.0019782
0.00205267
0.00212523
0.00219577
0.00226423
0.00233057
0.00239481
0.00245698
0.00251712
0.00257532
0.00263166
0.00268621
0.00273909
0.00279039
0.00284021
0.00288865
0.00293582
0.00298182
0.00302674
0.00307067
0.00311371
0.00315594
0.00319744
0.00323828
0.00327853
0.00331826
0.00335752
0.00339637
0.00343485
0.00347301
0.00351089
0.00354852
0.00358593
0.00362314
0.00366018
0.00369707
0.00373382
0.00377046
0.00380698
0.0038434
0.00387972
0.00391596
0.00395211
0.00398818
0.00402416
0.00406006
0.00409587
0.00413154
0.00416715
0.00420274
0.00423835
0.00427399
0.00430965
0.00434535
0.00438107
0.00441681
0.00445256
0.00448831
0.00452405
0.00455975
0.00459542
0.00463102
0.00466654
0.00470195
0.00473723
0.00477234
0.00480726
0.00484195
0.00487636
0.00491045
0.00494417
0.00497748
0.00501031
0.0050426
0.00507427
0.00510525
0.00513546
0.00516482
0.00519325
0.00522065
0.00524694
0.005272
0.00529574
0.00531807
0.00533892
0.00535818
0.00537573
0.00539152
0.00540546
0.00541752
0.00542759
0.00543562
0.00544157
0.00544541
0.00544713
0.00544671
0.00544414
0.00543942
0.00543258
0.00542362
0.00541258
0.00539949
0.00538438
0.0053673
0.00534827
0.00532735
0.00530457
0.00527997
0.00525359
0.00522545
0.00519557
0.00516397
0.00513067
0.00509564
0.00505889
0.00502038
0.00498007
0.0049379
0.00489378
0.00484762
0.00479931
0.00474877
0.00469595
0.00464084
0.00458343
0.0045237
0.00446161
0.00439714
0.00433025
0.00426091
0.00418911
0.00411485
0.00403817
0.00395914
0.00387784
0.00379445
0.00370913
0.00362216
0.00353381
0.00344445
0.0033545
0.00326441
0.00317466
0.00308541
0.00299684
6.47294e-05
0.000215805
0.000367534
0.000495303
0.000599081
0.000681857
0.000746644
0.000795872
0.000831763
0.000856553
0.000872397
0.000881493
0.000886163
0.000888848
0.000892027
0.000898043
0.000908916
0.000926168
0.000950748
0.000983061
0.00102307
0.00107041
0.00112453
0.00118475
0.00125029
0.00132037
0.00139416
0.00147086
0.00154969
0.00162991
0.00171086
0.00179195
0.00187264
0.00195253
0.00203124
0.00210851
0.00218411
0.00225788
0.00232974
0.0023996
0.00246744
0.00253326
0.00259708
0.00265894
0.00271891
0.00277705
0.00283343
0.00288814
0.00294128
0.00299293
0.00304318
0.00309214
0.00313988
0.00318651
0.00323211
0.00327677
0.00332056
0.00336357
0.00340586
0.00344751
0.00348857
0.00352911
0.00356917
0.00360882
0.00364808
0.00368699
0.00372561
0.00376395
0.00380204
0.00383991
0.00387758
0.00391507
0.00395239
0.00398957
0.00402661
0.00406352
0.00410032
0.00413701
0.00417359
0.00421008
0.00424648
0.00428276
0.00431896
0.00435514
0.00439134
0.00442759
0.0044639
0.00450028
0.00453674
0.00457328
0.00460989
0.00464657
0.00468331
0.00472011
0.00475697
0.00479387
0.00483079
0.00486774
0.00490469
0.00494162
0.00497852
0.00501535
0.00505208
0.00508867
0.0051251
0.00516131
0.00519727
0.00523291
0.00526817
0.00530299
0.00533727
0.00537095
0.00540393
0.00543612
0.00546745
0.00549779
0.00552701
0.00555501
0.00558169
0.00560695
0.0056307
0.00565273
0.00567297
0.00569134
0.00570774
0.00572209
0.00573428
0.00574425
0.00575194
0.0057573
0.00576027
0.00576084
0.00575896
0.00575464
0.00574786
0.00573863
0.00572695
0.00571285
0.00569635
0.00567746
0.00565622
0.00563267
0.00560681
0.0055787
0.00554834
0.00551575
0.00548096
0.00544398
0.00540479
0.00536339
0.00531976
0.00527387
0.00522568
0.00517512
0.00512213
0.00506664
0.00500861
0.00494798
0.00488477
0.00481894
0.00475052
0.0046795
0.00460589
0.0045297
0.00445099
0.0043698
0.00428623
0.00420041
0.00411251
0.00402273
0.00393135
0.00383869
0.00374512
0.00365106
0.00355699
0.00346341
0.00337085
0.00327981
0.00319033
0.00310236
6.98813e-05
0.000229385
0.000390046
0.000525674
0.000636022
0.000724258
0.000793519
0.000846569
0.00088605
0.000914352
0.000933755
0.000946532
0.000955009
0.000961564
0.00096856
0.000978213
0.000992439
0.00101272
0.00104001
0.00107476
0.00111698
0.00116634
0.00122225
0.001284
0.0013508
0.00142181
0.00149621
0.00157322
0.00165209
0.00173215
0.00181278
0.00189345
0.0019737
0.00205314
0.00213146
0.0022084
0.00228377
0.00235742
0.00242926
0.00249923
0.00256728
0.00263342
0.00269766
0.00276003
0.00282058
0.00287936
0.00293645
0.00299191
0.00304582
0.00309827
0.00314934
0.00319912
0.00324769
0.00329513
0.00334152
0.00338695
0.0034315
0.00347523
0.00351822
0.00356053
0.00360221
0.00364334
0.00368395
0.00372409
0.00376382
0.00380316
0.00384215
0.00388083
0.00391923
0.00395736
0.00399526
0.00403294
0.00407042
0.00410773
0.00414487
0.00418186
0.00421872
0.00425544
0.00429206
0.00432856
0.00436496
0.00440129
0.00443759
0.00447392
0.00451032
0.00454681
0.0045834
0.00462011
0.00465694
0.00469391
0.00473101
0.00476824
0.00480561
0.00484312
0.00488076
0.00491854
0.00495644
0.00499447
0.00503261
0.00507086
0.00510921
0.00514762
0.00518608
0.00522456
0.00526303
0.00530145
0.00533978
0.00537799
0.00541601
0.00545378
0.00549119
0.00552817
0.00556464
0.00560052
0.00563571
0.00567011
0.0057035
0.00573581
0.00576692
0.0057967
0.00582503
0.00585175
0.00587672
0.00589983
0.00592096
0.00593998
0.00595678
0.00597124
0.00598329
0.00599282
0.00599977
0.00600406
0.00600565
0.00600448
0.00600053
0.00599377
0.00598418
0.00597176
0.00595651
0.00593844
0.00591755
0.00589387
0.00586741
0.0058382
0.00580624
0.00577155
0.00573415
0.00569404
0.00565123
0.00560571
0.00555746
0.00550647
0.0054527
0.00539613
0.0053367
0.00527437
0.00520913
0.00514095
0.00506983
0.00499579
0.00491885
0.00483906
0.00475648
0.00467117
0.00458325
0.00449287
0.00440019
0.00430546
0.00420895
0.004111
0.00401201
0.00391243
0.00381277
0.00371358
0.00361545
0.00351898
0.00342475
0.00333322
0.00324437
0.00315785
7.40847e-05
0.000240178
0.000408063
0.000550334
0.000666496
0.000759704
0.000833316
0.000890493
0.000934005
0.000966358
0.000989906
0.00100694
0.00101975
0.00103059
0.00104169
0.0010551
0.0010726
0.0010956
0.00112503
0.00116138
0.00120469
0.00125468
0.00131082
0.00137242
0.00143871
0.00150889
0.00158216
0.0016578
0.00173509
0.00181343
0.00189224
0.00197104
0.00204943
0.00212704
0.00220359
0.00227886
0.00235267
0.00242489
0.00249542
0.00256421
0.00263122
0.00269644
0.00275988
0.00282157
0.00288154
0.00293985
0.00299655
0.0030517
0.00310538
0.00315765
0.0032086
0.0032583
0.00330682
0.00335426
0.00340067
0.00344613
0.00349072
0.0035345
0.00357754
0.00361989
0.00366162
0.00370278
0.00374341
0.00378356
0.00382327
0.00386258
0.00390152
0.00394012
0.00397842
0.00401643
0.00405418
0.00409169
0.00412899
0.00416608
0.004203
0.00423974
0.00427634
0.0043128
0.00434913
0.00438535
0.0044215
0.00445765
0.00449384
0.00453011
0.00456649
0.004603
0.00463966
0.0046765
0.00471351
0.0047507
0.00478809
0.00482567
0.00486345
0.00490145
0.00493966
0.00497808
0.00501673
0.00505561
0.00509471
0.00513403
0.00517358
0.00521334
0.00525328
0.00529339
0.00533365
0.00537403
0.0054145
0.00545503
0.00549559
0.00553612
0.00557646
0.00561657
0.00565636
0.00569577
0.00573467
0.00577294
0.00581044
0.00584704
0.0058826
0.00591697
0.00595001
0.00598155
0.00601143
0.00603951
0.00606563
0.00608963
0.00611137
0.00613071
0.00614753
0.00616169
0.00617309
0.00618162
0.00618721
0.00618976
0.00618921
0.00618551
0.00617862
0.00616851
0.00615514
0.00613851
0.00611862
0.00609545
0.00606901
0.00603931
0.00600636
0.00597017
0.00593074
0.00588808
0.00584219
0.00579307
0.00574072
0.00568511
0.00562624
0.00556408
0.00549861
0.00542981
0.00535769
0.00528223
0.00520347
0.00512145
0.00503621
0.00494786
0.00485648
0.00476223
0.00466529
0.00456587
0.00446427
0.00436081
0.00425591
0.00415002
0.00404368
0.00393749
0.00383209
0.00372818
0.00362647
0.00352763
0.00343229
0.00334091
0.00325336
0.00316905
7.73181e-05
0.00024824
0.000421659
0.00056929
0.000690273
0.000787879
0.000865719
0.000927046
0.00097473
0.00101136
0.00103932
0.0010609
0.00107829
0.00109363
0.00110896
0.00112615
0.00114682
0.00117226
0.00120335
0.00124057
0.00128404
0.00133353
0.00138859
0.00144861
0.00151288
0.00158068
0.00165128
0.00172401
0.00179822
0.00187334
0.00194887
0.00202438
0.00209947
0.00217386
0.00224726
0.00231949
0.00239039
0.00245983
0.00252774
0.00259405
0.00265874
0.0027218
0.00278323
0.00284306
0.00290132
0.00295806
0.00301331
0.00306715
0.00311963
0.00317082
0.00322078
0.00326958
0.0033173
0.003364
0.00340975
0.00345461
0.00349866
0.00354194
0.00358453
0.00362646
0.00366781
0.0037086
0.00374888
0.0037887
0.00382809
0.00386709
0.00390572
0.00394401
0.00398199
0.00401968
0.0040571
0.00409428
0.00413122
0.00416796