/*--------------------------------*- C++ -*----------------------------------*\
  =========                 |
  \\      /  F ield         | OpenFOAM: The Open Source CFD Toolbox
   \\    /   O peration     | Website:  https://openfoam.org
    \\  /    A nd           | Version:  9
     \\/     M anipulation  |
\*---------------------------------------------------------------------------*/
FoamFile
{
    format      ascii;
    class       volScalarField;
    location    "0.07";
    object      p;
}
// * * * * * * * * * * * * * * * * * * * * * * * * * * * * * * * * * * * * * //

dimensions      [0 2 -2 0 0 0 0];

internalField   nonuniform List<scalar> 
12225
(
-1.78656
-4.06917
-5.23072
-5.53747
-5.70386
-5.8611
-5.98256
-6.06706
-6.13177
-6.18661
-6.23297
-6.27001
-6.29708
-6.3116
-6.31001
-6.27397
-6.21389
-5.98564
-5.25411
-5.95583
-6.04514
-5.90863
-5.86667
-5.93153
-6.00919
-6.07117
-6.12333
-6.17065
-6.21251
-6.24715
-6.27346
-6.28887
-6.29157
-6.26792
-6.23969
-6.14794
-5.45891
-5.35557
-5.51144
-5.63218
-5.73764
-5.85754
-5.96279
-6.04165
-6.10412
-6.15806
-6.20478
-6.24352
-6.27376
-6.29396
-6.30384
-6.29693
-6.29731
-6.29926
-5.32168
-5.24316
-5.51832
-5.69567
-5.78825
-5.88304
-5.97518
-6.04905
-6.10907
-6.16162
-6.20787
-6.24705
-6.27881
-6.30254
-6.31927
-6.32848
-6.35104
-6.39916
-5.32876
-5.34564
-5.58483
-5.73337
-5.80759
-5.89
-5.97674
-6.04925
-6.10885
-6.16123
-6.20785
-6.24821
-6.28232
-6.31048
-6.33476
-6.35799
-6.39636
-6.46353
-5.3906
-5.43271
-5.60962
-5.73903
-5.81526
-5.89558
-5.97913
-6.05059
-6.1101
-6.16263
-6.20986
-6.25165
-6.28837
-6.321
-6.35222
-6.3862
-6.4348
-6.50909
-5.45056
-5.48974
-5.6253
-5.74624
-5.82694
-5.90455
-5.98362
-6.05331
-6.11259
-6.16528
-6.21316
-6.25646
-6.29579
-6.33259
-6.36972
-6.41144
-6.46613
-6.5413
-5.50399
-5.53856
-5.64806
-5.75948
-5.84045
-5.91436
-5.98889
-6.05667
-6.11565
-6.16853
-6.2171
-6.26191
-6.30375
-6.34422
-6.38606
-6.43299
-6.49062
-6.56331
-5.55413
-5.58556
-5.6756
-5.77527
-5.85387
-5.92451
-5.99505
-6.0608
-6.11932
-6.17234
-6.22158
-6.26778
-6.31184
-6.35534
-6.40064
-6.45066
-6.50899
-6.57769
-5.60193
-5.63027
-5.70475
-5.79262
-5.86765
-5.93539
-6.00236
-6.0659
-6.12371
-6.17676
-6.22654
-6.27392
-6.31979
-6.36557
-6.41315
-6.46464
-6.52218
-6.58643
-5.64722
-5.67225
-5.73442
-5.81155
-5.88224
-5.94707
-6.01072
-6.07197
-6.12885
-6.18178
-6.23194
-6.2802
-6.32741
-6.37471
-6.42355
-6.47533
-6.53119
-6.59105
-5.6863
-5.7084
-5.76169
-5.83013
-5.89634
-5.95838
-6.01922
-6.07836
-6.13423
-6.18687
-6.23719
-6.28596
-6.33394
-6.38202
-6.43125
-6.48254
-6.53647
-6.59259
-5.72265
-5.74224
-5.78829
-5.84911
-5.91079
-5.96997
-6.02821
-6.08529
-6.14004
-6.19226
-6.24255
-6.29156
-6.33993
-6.38832
-6.43744
-6.48781
-6.53965
-6.59239
-5.76103
-5.77816
-5.81756
-5.87099
-5.92764
-5.98354
-6.03898
-6.09382
-6.14718
-6.19872
-6.24872
-6.29769
-6.34607
-6.3943
-6.44277
-6.49172
-6.54113
-6.59045
-5.80026
-5.81504
-5.84861
-5.89522
-5.94666
-5.99894
-6.05145
-6.10391
-6.15563
-6.20616
-6.25556
-6.30409
-6.35201
-6.39953
-6.44684
-6.49394
-6.54072
-6.5867
-5.83846
-5.85114
-5.87986
-5.92058
-5.96703
-6.01559
-6.06514
-6.11517
-6.16504
-6.21427
-6.26268
-6.31033
-6.35729
-6.40362
-6.4493
-6.49427
-6.53837
-6.58124
-5.87282
-5.88382
-5.90879
-5.94483
-5.987
-6.03215
-6.07894
-6.12664
-6.17462
-6.22231
-6.26942
-6.3158
-6.36139
-6.40613
-6.44991
-6.49263
-6.53414
-6.57421
-5.899
-5.90886
-5.93139
-5.96431
-6.00351
-6.04613
-6.09077
-6.13659
-6.1829
-6.2291
-6.2748
-6.31975
-6.36378
-6.40678
-6.44861
-6.48916
-6.52833
-6.56597
-5.91
-5.91948
-5.94123
-5.97321
-6.01151
-6.05328
-6.09706
-6.142
-6.18739
-6.23262
-6.27724
-6.32095
-6.3636
-6.40503
-6.44514
-6.48384
-6.52106
-6.55675
-5.8972
-5.90742
-5.93078
-5.965
-6.00556
-6.0491
-6.09409
-6.13987
-6.18581
-6.23126
-6.27579
-6.31915
-6.36121
-6.40186
-6.44103
-6.47867
-6.51474
-6.54926
-5.87249
-5.88387
-5.91008
-5.94846
-5.99307
-6.03967
-6.08693
-6.13454
-6.18186
-6.22818
-6.27315
-6.31666
-6.35865
-6.39904
-6.4378
-6.47492
-6.5104
-6.54429
-5.83864
-5.85122
-5.88171
-5.92689
-5.97729
-6.02752
-6.07753
-6.12768
-6.177
-6.22461
-6.27031
-6.31422
-6.35637
-6.39672
-6.43529
-6.47212
-6.50725
-6.54074
-5.79882
-5.81162
-5.84748
-5.9028
-5.96087
-6.015
-6.06788
-6.12075
-6.17215
-6.2211
-6.26767
-6.31215
-6.35461
-6.39505
-6.43356
-6.47024
-6.50516
-6.53842
-5.75554
-5.76732
-5.8102
-5.87757
-5.94323
-6.00202
-6.05926
-6.11543
-6.16858
-6.21842
-6.26564
-6.3106
-6.35331
-6.39381
-6.43226
-6.46881
-6.50356
-6.53662
-5.70907
-5.71705
-5.77859
-5.85915
-5.92526
-5.98609
-6.04933
-6.1104
-6.1658
-6.21661
-6.26451
-6.30994
-6.35285
-6.39336
-6.43172
-6.46812
-6.50272
-6.53567
-5.66137
-5.63796
-5.74926
-5.85896
-5.92051
-5.97578
-6.04054
-6.10439
-6.1613
-6.21305
-6.26176
-6.30777
-6.351
-6.39164
-6.43002
-6.46639
-6.50093
-6.53379
-5.65222
-5.50814
-5.66771
-5.83467
-5.92012
-5.9823
-6.04842
-6.11105
-6.1664
-6.21726
-6.26548
-6.31104
-6.35379
-6.39398
-6.43192
-6.46788
-6.50209
-6.53473
-5.79771
-5.51412
-5.54937
-5.6806
-5.80115
-5.90931
-6.00468
-6.08191
-6.14575
-6.20268
-6.25521
-6.30367
-6.34837
-6.38992
-6.42881
-6.46543
-6.50027
-6.53394
-5.73456
-6.23447
-6.2451
-6.08663
-6.00665
-6.03196
-6.08739
-6.13825
-6.18493
-6.23118
-6.2766
-6.31988
-6.36064
-6.39907
-6.43534
-6.46954
-6.50191
-6.53431
-2.39592
-4.2667
-5.33848
-5.6323
-5.76809
-5.90597
-6.01917
-6.1006
-6.16513
-6.22282
-6.27588
-6.32438
-6.36887
-6.41006
-6.44837
-6.48377
-6.51593
-6.54305
-7.81666
-7.80527
-7.79663
-7.79274
-7.79228
-7.79461
-7.79928
-7.8055
-7.81223
-7.81826
-7.8224
-7.82392
-7.82305
-7.81997
-7.81494
-7.80837
-7.80099
-7.79395
-7.78855
-7.78142
-7.77216
-7.76931
-7.77324
-7.77945
-7.78792
-7.79922
-7.81527
-7.83707
-7.86521
-7.90028
-7.94246
-7.99146
-8.04651
-8.10648
-8.16999
-8.23556
-8.30178
-8.36736
-8.43123
-8.49255
-8.55069
-8.60524
-8.65597
-8.70276
-8.74561
-8.78458
-8.81976
-8.85129
-8.8793
-8.9039
-8.9252
-8.94332
-8.95831
-8.97025
-8.97917
-8.98508
-8.98798
-8.98786
-8.98466
-8.97835
-8.96883
-8.95602
-8.93982
-8.92012
-8.89678
-8.86966
-8.8386
-8.80345
-8.76402
-8.72013
-8.67158
-8.61818
-8.55971
-8.49596
-8.42672
-8.35175
-8.27084
-8.18377
-8.09031
-7.99026
-7.88345
-7.76973
-7.6489
-7.52068
-7.38495
-7.24108
-7.08906
-6.92887
-6.76043
-6.58367
-6.39853
-6.20499
-6.00304
-5.7927
-5.57406
-5.3472
-5.11226
-4.86943
-4.61891
-4.36096
-4.0959
-3.82404
-3.54578
-3.26154
-2.97178
-2.677
-2.37773
-2.07455
-1.76805
-1.45885
-1.14761
-0.834986
-0.521654
-0.208297
0.104402
0.415769
0.725141
1.03188
1.33536
1.63502
1.93031
2.22075
2.5059
2.78539
3.0589
3.32622
3.58717
3.84167
4.08973
4.33143
4.56696
4.79656
5.02059
5.23949
5.4538
5.66412
5.87115
6.07566
6.27853
6.48066
6.68306
6.88677
7.0929
7.30257
7.51697
7.73725
7.9646
8.20016
8.44507
8.70034
8.96695
9.24575
9.53743
9.84252
10.1613
10.4937
10.8391
11.1969
11.5661
11.9452
12.3325
12.7256
13.1216
13.5172
13.9086
14.2917
14.662
15.0151
15.3465
15.6519
15.9279
16.1716
16.3815
16.5579
16.7035
16.8246
16.935
17.056
17.2634
17.5877
-7.82343
-7.8143
-7.80838
-7.80826
-7.81233
-7.81867
-7.82593
-7.8329
-7.83835
-7.84132
-7.84134
-7.83829
-7.83188
-7.82253
-7.81073
-7.79707
-7.7824
-7.7679
-7.75439
-7.74166
-7.73195
-7.72654
-7.72489
-7.72569
-7.72881
-7.73736
-7.7527
-7.77464
-7.80407
-7.84201
-7.88849
-7.94275
-8.00346
-8.06896
-8.13744
-8.20715
-8.27656
-8.34438
-8.40965
-8.47166
-8.52998
-8.58434
-8.63465
-8.6809
-8.72317
-8.76157
-8.79625
-8.82734
-8.855
-8.87933
-8.90046
-8.91849
-8.93348
-8.94548
-8.95454
-8.96066
-8.96385
-8.96407
-8.96129
-8.95545
-8.94647
-8.93428
-8.91876
-8.8998
-8.87728
-8.85105
-8.82095
-8.78684
-8.74852
-8.70582
-8.65855
-8.6065
-8.54948
-8.48726
-8.41963
-8.34637
-8.26725
-8.18205
-8.09053
-7.99247
-7.88764
-7.77578
-7.65667
-7.5301
-7.39553
-7.25342
-7.10353
-6.94562
-6.77955
-6.60521
-6.42253
-6.23148
-6.03202
-5.8242
-5.60805
-5.38367
-5.15119
-4.91078
-4.66262
-4.40699
-4.14415
-3.87444
-3.59822
-3.31591
-3.02795
-2.73483
-2.43708
-2.13524
-1.82992
-1.52172
-1.21128
-0.899268
-0.586346
-0.273198
0.0394951
0.351055
0.660816
0.968127
1.27237
1.57294
1.8693
2.16094
2.4474
2.72829
3.00327
3.2721
3.53457
3.79058
4.04011
4.28321
4.52003
4.7508
4.97585
5.19559
5.41053
5.62124
5.82842
6.03281
6.23526
6.43667
6.63802
6.84034
7.04473
7.25232
7.46427
7.68174
7.90592
8.13795
8.37897
8.63003
8.89208
9.16603
9.45255
9.75221
10.0654
10.3919
10.7314
11.0831
11.4461
11.8192
12.2006
12.5879
12.9785
13.369
13.7559
14.1351
14.5024
14.8535
15.1839
15.4896
15.7671
16.0137
16.2281
16.4105
16.5638
16.6938
16.8136
16.9402
17.123
17.3674
-7.83771
-7.82973
-7.82513
-7.82618
-7.83087
-7.8371
-7.8435
-7.84904
-7.85281
-7.85409
-7.85245
-7.84769
-7.83966
-7.82842
-7.81425
-7.79769
-7.77961
-7.76118
-7.74353
-7.72774
-7.71505
-7.70714
-7.70356
-7.70423
-7.70939
-7.72088
-7.74033
-7.76794
-7.80377
-7.84755
-7.8984
-7.95513
-8.0163
-8.08044
-8.14614
-8.21211
-8.27727
-8.34072
-8.40179
-8.45997
-8.51492
-8.56641
-8.61434
-8.65866
-8.69941
-8.73664
-8.77044
-8.80089
-8.8281
-8.85215
-8.87313
-8.89112
-8.90616
-8.91829
-8.92756
-8.93395
-8.93746
-8.93807
-8.93573
-8.93039
-8.92197
-8.91039
-8.89556
-8.87734
-8.85563
-8.83028
-8.80114
-8.76804
-8.73083
-8.68931
-8.6433
-8.59261
-8.53701
-8.47631
-8.41029
-8.33872
-8.26138
-8.17804
-8.08848
-7.99246
-7.88975
-7.78009
-7.66323
-7.53903
-7.40721
-7.26775
-7.12048
-6.96525
-6.80191
-6.63035
-6.45049
-6.26229
-6.06571
-5.86078
-5.64753
-5.42603
-5.19642
-4.95883
-4.71347
-4.46056
-4.20037
-3.93322
-3.65947
-3.3795
-3.09374
-2.80268
-2.50682
-2.2067
-1.9029
-1.59602
-1.28669
-0.975554
-0.663287
-0.350561
-0.0380554
0.273551
0.583587
0.891396
1.19635
1.49783
1.79528
2.08817
2.37603
2.65843
2.93501
3.20549
3.46964
3.72733
3.97848
4.22314
4.46141
4.69348
4.91965
5.14031
5.35591
5.56703
5.77431
5.97848
6.18036
6.38084
6.58086
6.78147
6.98372
7.18875
7.39771
7.61176
7.83207
8.05981
8.29611
8.54201
8.79849
9.06646
9.3466
9.63944
9.94536
10.2644
10.5963
10.9406
11.2964
11.6623
12.0368
12.4175
12.8019
13.1868
13.5688
13.944
14.3082
14.6573
14.9871
15.2936
15.5734
15.824
16.0439
16.2335
16.3952
16.5344
16.6626
16.7912
16.9554
17.1207
-7.85512
-7.85146
-7.84954
-7.8516
-7.85606
-7.86116
-7.86576
-7.86908
-7.87043
-7.86927
-7.86527
-7.8582
-7.84803
-7.83486
-7.81901
-7.80104
-7.78187
-7.76277
-7.74503
-7.72991
-7.7186
-7.71208
-7.71085
-7.7153
-7.72599
-7.74356
-7.76861
-7.80115
-7.84075
-7.88668
-7.93795
-7.99344
-8.05199
-8.11246
-8.17379
-8.23505
-8.29541
-8.3542
-8.41088
-8.46504
-8.51638
-8.5647
-8.60988
-8.65185
-8.69062
-8.72619
-8.75863
-8.78799
-8.81433
-8.83771
-8.85819
-8.87583
-8.89065
-8.90268
-8.91195
-8.91843
-8.92212
-8.92299
-8.92098
-8.91604
-8.9081
-8.89706
-8.88283
-8.86529
-8.84432
-8.81977
-8.7915
-8.75935
-8.72315
-8.68271
-8.63784
-8.58836
-8.53405
-8.47469
-8.41008
-8.33999
-8.26419
-8.18244
-8.09452
-8.00019
-7.89921
-7.79136
-7.6764
-7.55414
-7.42442
-7.28708
-7.14196
-6.98889
-6.82774
-6.65839
-6.48076
-6.29479
-6.10045
-5.89774
-5.68671
-5.46741
-5.23995
-5.00449
-4.7612
-4.5103
-4.25205
-3.98676
-3.71477
-3.43645
-3.15225
-2.86261
-2.56803
-2.26905
-1.96624
-1.66019
-1.35152
-1.04088
-0.728928
-0.416343
-0.103804
0.208008
0.518416
0.826758
1.13239
1.43469
1.73308
2.02702
2.31601
2.59961
2.87744
3.14919
3.4146
3.67351
3.92583
4.17157
4.4108
4.6437
4.87053
5.09164
5.30749
5.51861
5.72563
5.92925
6.13029
6.3296
6.52814
6.72691
6.92699
7.12949
7.33555
7.54635
7.76305
7.98682
8.21881
8.46007
8.7116
8.9743
9.2489
9.53595
9.83579
10.1485
10.474
10.812
11.1615
11.5215
11.8901
12.2652
12.6445
13.0247
13.4027
13.7745
14.1363
14.4838
14.813
15.12
15.4015
15.6548
15.8787
16.073
16.2401
16.3844
16.5149
16.6384
16.7779
16.8792
-7.86363
-7.8646
-7.86533
-7.86816
-7.87218
-7.87612
-7.87913
-7.88064
-7.88016
-7.87729
-7.87178
-7.86346
-7.85234
-7.83862
-7.82273
-7.80536
-7.78749
-7.77037
-7.75526
-7.74336
-7.73568
-7.73304
-7.73606
-7.74521
-7.76087
-7.78331
-7.8125
-7.84808
-7.88946
-7.93583
-7.98627
-8.03982
-8.09551
-8.15243
-8.20974
-8.26671
-8.32272
-8.37723
-8.42982
-8.48017
-8.52803
-8.57322
-8.61563
-8.65519
-8.69188
-8.7257
-8.75666
-8.78479
-8.81013
-8.83272
-8.85259
-8.86976
-8.88427
-8.89611
-8.90528
-8.91178
-8.91558
-8.91663
-8.91489
-8.91028
-8.90274
-8.89217
-8.87847
-8.86152
-8.84119
-8.81735
-8.78985
-8.75852
-8.7232
-8.6837
-8.63983
-8.59139
-8.53818
-8.47998
-8.41658
-8.34774
-8.27323
-8.19282
-8.10627
-8.01336
-7.91384
-7.80749
-7.69408
-7.57343
-7.44533
-7.30961
-7.1661
-7.01465
-6.8551
-6.68735
-6.5113
-6.3269
-6.1341
-5.9329
-5.72334
-5.50548
-5.27942
-5.0453
-4.80329
-4.5536
-4.2965
-4.03228
-3.76128
-3.48386
-3.20045
-2.91151
-2.61753
-2.31904
-2.01659
-1.71079
-1.40226
-1.09164
-0.779594
-0.466799
-0.15394
0.158296
0.469225
0.778174
1.08449
1.38754
1.68674
1.98152
2.27137
2.55584
2.83453
3.1071
3.37329
3.63292
3.88587
4.13212
4.37174
4.60489
4.83181
5.05283
5.26839
5.47902
5.68532
5.88799
6.08783
6.28569
6.48251
6.6793
6.87712
7.07708
7.28034
7.48807
7.70145
7.92165
8.14981
8.38701
8.63427
8.8925
9.16244
9.44466
9.73954
10.0472
10.3676
10.7005
11.0451
11.4002
11.7642
12.135
12.5103
12.8871
13.262
13.6313
13.9912
14.3376
14.6664
14.9738
15.2564
15.5116
15.7378
15.9348
16.1044
16.2498
16.3778
16.4911
16.6051
16.6561
-7.8573
-7.86321
-7.86707
-7.87143
-7.87583
-7.87945
-7.88174
-7.88234
-7.88092
-7.87725
-7.87114
-7.86257
-7.85164
-7.83866
-7.82417
-7.80895
-7.79401
-7.7805
-7.76959
-7.76233
-7.75956
-7.76198
-7.77006
-7.78412
-7.8043
-7.83059
-7.86271
-7.90017
-7.9423
-7.98834
-8.03745
-8.08881
-8.14162
-8.19516
-8.24877
-8.30187
-8.35397
-8.40466
-8.45361
-8.50055
-8.54527
-8.58761
-8.62749
-8.66482
-8.69956
-8.7317
-8.76124
-8.78819
-8.81255
-8.83435
-8.8536
-8.87031
-8.88449
-8.89612
-8.9052
-8.9117
-8.91558
-8.9168
-8.9153
-8.911
-8.90383
-8.8937
-8.88049
-8.86408
-8.84436
-8.82117
-8.79438
-8.7638
-8.72928
-8.69063
-8.64766
-8.60017
-8.54794
-8.49077
-8.42842
-8.36067
-8.28729
-8.20804
-8.12267
-8.03096
-7.93267
-7.82756
-7.71542
-7.59603
-7.46919
-7.33471
-7.19242
-7.04215
-6.88376
-6.71713
-6.54217
-6.35881
-6.16701
-5.96677
-5.75812
-5.54111
-5.31585
-5.08246
-4.84112
-4.59204
-4.33547
-4.0717
-3.80108
-3.52396
-3.24077
-2.95196
-2.65803
-2.3595
-2.05693
-1.75093
-1.44211
-1.13112
-0.818641
-0.505344
-0.191923
0.120927
0.432511
0.742148
1.04917
1.35294
1.65285
1.94833
2.23885
2.52394
2.80318
3.07624
3.34283
3.60275
3.85588
4.10218
4.34172
4.57463
4.80114
5.02158
5.23638
5.44605
5.65119
5.85249
6.05075
6.24681
6.44162
6.63617
6.83154
7.02884
7.22922
7.43386
7.64394
7.86066
8.08515
8.31853
8.56181
8.81591
9.08161
9.35951
9.65
9.95327
10.2693
10.5979
10.9383
11.2894
11.6496
12.017
12.3891
12.7631
13.1357
13.5033
13.8619
14.2075
14.5361
14.8438
15.1271
15.3835
15.611
15.8093
15.9793
16.1233
16.2461
16.3471
16.4374
16.4481
-7.83566
-7.84643
-7.8542
-7.86098
-7.86668
-7.87093
-7.87344
-7.87406
-7.87263
-7.86904
-7.86328
-7.85542
-7.84569
-7.8345
-7.82248
-7.81045
-7.79939
-7.79036
-7.78438
-7.78232
-7.78488
-7.79255
-7.80564
-7.82428
-7.84841
-7.87782
-7.91212
-7.95078
-7.99314
-8.03852
-8.08621
-8.1355
-8.18576
-8.23639
-8.28687
-8.33674
-8.3856
-8.43312
-8.47903
-8.52312
-8.56519
-8.60513
-8.64284
-8.67825
-8.71131
-8.742
-8.7703
-8.79621
-8.81973
-8.84084
-8.85956
-8.87588
-8.88979
-8.90126
-8.91028
-8.91681
-8.92081
-8.92221
-8.92096
-8.91698
-8.91018
-8.90047
-8.88774
-8.87187
-8.85272
-8.83015
-8.80402
-8.77416
-8.74038
-8.70252
-8.66038
-8.61374
-8.56241
-8.50616
-8.44476
-8.37798
-8.30558
-8.22733
-8.14298
-8.05229
-7.95501
-7.85092
-7.73979
-7.62139
-7.4955
-7.36195
-7.22053
-7.07109
-6.91348
-6.74758
-6.57329
-6.39055
-6.19931
-5.99957
-5.79135
-5.57471
-5.34975
-5.11659
-4.87542
-4.62644
-4.36989
-4.10608
-3.83534
-3.55803
-3.27458
-2.98544
-2.69111
-2.39211
-2.08902
-1.78243
-1.47298
-1.16131
-0.848115
-0.534072
-0.219887
0.0937375
0.406095
0.716489
1.02424
1.32871
1.62926
1.92532
2.21634
2.50184
2.78139
3.05465
3.32132
3.58118
3.83411
4.08007
4.3191
4.55133
4.77699
4.99641
5.21001
5.41829
5.62186
5.82141
6.01771
6.21163
6.40411
6.59615
6.78883
6.98325
7.18058
7.382
7.58872
7.80192
8.02277
8.25237
8.49178
8.74192
9.00359
9.27742
9.56385
9.86312
10.1752
10.5
10.8367
11.1843
11.5413
11.9057
12.2752
12.6469
13.0176
13.3837
13.7413
14.0863
14.4147
14.7226
15.0064
15.2633
15.4913
15.6896
15.8585
15.9995
16.1154
16.2033
16.2722
16.2499
-7.8029
-7.81774
-7.83003
-7.83991
-7.84757
-7.85312
-7.85656
-7.85791
-7.85718
-7.85443
-7.84976
-7.84336
-7.83558
-7.82691
-7.81801
-7.80972
-7.80296
-7.79867
-7.7977
-7.80077
-7.8084
-7.82091
-7.83844
-7.86098
-7.88833
-7.92019
-7.95611
-7.99557
-8.03797
-8.0827
-8.12916
-8.17677
-8.22499
-8.27333
-8.32135
-8.36869
-8.41502
-8.46007
-8.50361
-8.54545
-8.58545
-8.6235
-8.65951
-8.69341
-8.72515
-8.7547
-8.78205
-8.80717
-8.83004
-8.85066
-8.86901
-8.88508
-8.89883
-8.91025
-8.9193
-8.92593
-8.9301
-8.93174
-8.93078
-8.92714
-8.92074
-8.91146
-8.89921
-8.88386
-8.86527
-8.84331
-8.81781
-8.78862
-8.75555
-8.71843
-8.67705
-8.6312
-8.58069
-8.52527
-8.46472
-8.3988
-8.32727
-8.24989
-8.1664
-8.07656
-7.98012
-7.87685
-7.7665
-7.64884
-7.52366
-7.39074
-7.24991
-7.10099
-6.94383
-6.77832
-6.60434
-6.42184
-6.23077
-6.03113
-5.82294
-5.60625
-5.38117
-5.14782
-4.90638
-4.65706
-4.40011
-4.13582
-3.86453
-3.58661
-3.30249
-3.01262
-2.7175
-2.41768
-2.11371
-1.80621
-1.49582
-1.1832
-0.869044
-0.554044
-0.238916
0.0756256
0.38886
0.700077
1.00859
1.31372
1.61486
1.91139
2.20278
2.48851
2.76815
3.04135
3.30781
3.5673
3.81969
4.06493
4.30308
4.53425
4.75867
4.97667
5.18867
5.39517
5.59678
5.7942
5.9882
6.17965
6.3695
6.55876
6.74849
6.93982
7.13393
7.33201
7.53525
7.74488
7.96205
8.1879
8.42349
8.66976
8.92754
9.19748
9.48008
9.77558
10.0841
10.4053
10.7386
11.083
11.4371
11.7988
12.166
12.5357
12.9047
13.2695
13.6262
13.9706
14.2987
14.6064
14.8902
15.1471
15.3747
15.5719
15.7386
15.875
15.9829
16.0577
16.1071
16.0576
-7.76441
-7.78297
-7.79941
-7.8124
-7.82226
-7.82946
-7.83425
-7.83681
-7.8373
-7.83591
-7.83286
-7.82844
-7.82307
-7.81729
-7.81179
-7.80736
-7.80484
-7.80504
-7.80869
-7.81633
-7.82835
-7.84494
-7.86611
-7.89174
-7.92159
-7.95529
-7.99239
-8.03239
-8.07477
-8.11898
-8.1645
-8.21084
-8.25754
-8.30418
-8.35041
-8.39591
-8.4404
-8.48365
-8.52547
-8.56571
-8.60423
-8.64094
-8.67575
-8.70861
-8.73945
-8.76826
-8.79499
-8.81962
-8.84213
-8.86249
-8.88068
-8.89668
-8.91045
-8.92195
-8.93114
-8.93798
-8.9424
-8.94434
-8.94372
-8.94047
-8.93448
-8.92566
-8.9139
-8.89906
-8.88103
-8.85964
-8.83476
-8.8062
-8.7738
-8.73737
-8.6967
-8.65159
-8.60181
-8.54715
-8.48736
-8.42221
-8.35144
-8.27481
-8.19205
-8.10292
-8.00716
-7.90452
-7.79476
-7.67763
-7.55291
-7.42038
-7.27987
-7.13119
-6.9742
-6.80876
-6.63479
-6.45221
-6.26098
-6.06109
-5.85257
-5.63547
-5.4099
-5.176
-4.93392
-4.68389
-4.42616
-4.16102
-3.88882
-3.60993
-3.32478
-3.03384
-2.73762
-2.43665
-2.13151
-1.82282
-1.51124
-1.19743
-0.882098
-0.565959
-0.249737
0.0658409
0.380038
0.69213
1.00141
1.3072
1.60885
1.90577
2.19737
2.48317
2.76271
3.03563
3.30162
3.56046
3.812
4.05621
4.29313
4.52288
4.7457
4.96191
5.17194
5.3763
5.57561
5.77056
5.96194
6.15063
6.33757
6.52378
6.71035
6.8984
7.08913
7.28372
7.4834
7.68938
7.90285
8.12494
8.35674
8.5992
8.85319
9.11938
9.39828
9.6902
9.99521
10.3131
10.6433
10.9847
11.336
11.6953
12.0602
12.428
12.7954
13.1589
13.5146
13.8582
14.1857
14.4929
14.7762
15.0322
15.2587
15.4538
15.617
15.7478
15.8468
15.9083
15.94
15.8678
-7.72541
-7.74687
-7.76677
-7.78253
-7.7945
-7.80343
-7.80975
-7.81378
-7.81579
-7.81608
-7.81493
-7.81273
-7.80994
-7.80712
-7.80494
-7.80411
-7.8054
-7.80951
-7.81702
-7.82839
-7.84388
-7.8636
-7.8875
-7.91541
-7.94703
-7.982
-8.01989
-8.06024
-8.10256
-8.14638
-8.19123
-8.23668
-8.28234
-8.32784
-8.37286
-8.41714
-8.46044
-8.50254
-8.54329
-8.58254
-8.62018
-8.65611
-8.69025
-8.72256
-8.75296
-8.78143
-8.80792
-8.83241
-8.85486
-8.87523
-8.89351
-8.90965
-8.92361
-8.93535
-8.94482
-8.95197
-8.95673
-8.95904
-8.95882
-8.95598
-8.95044
-8.94208
-8.93081
-8.91648
-8.89898
-8.87816
-8.85385
-8.8259
-8.79412
-8.75832
-8.71831
-8.67387
-8.62477
-8.57079
-8.51168
-8.44719
-8.37708
-8.30108
-8.21894
-8.13038
-8.03515
-7.93299
-7.82363
-7.70683
-7.58236
-7.45
-7.30957
-7.16089
-7.0038
-6.83818
-6.66393
-6.48098
-6.2893
-6.08886
-5.87971
-5.6619
-5.43553
-5.20074
-4.95771
-4.70666
-4.44783
-4.18153
-3.90811
-3.62796
-3.3415
-3.04921
-2.75159
-2.44922
-2.14267
-1.83256
-1.51957
-1.20438
-0.887713
-0.570289
-0.252856
0.0638395
0.379053
0.692045
1.0021
1.30851
1.61062
1.90783
2.19954
2.48525
2.7645
3.03692
3.3022
3.56012
3.81054
4.05341
4.28878
4.51679
4.73768
4.95178
5.15951
5.36141
5.5581
5.75028
5.93876
6.12441
6.3082
6.49115
6.67436
6.85897
7.04617
7.23717
7.43319
7.63547
7.8452
8.06354
8.29157
8.53028
8.78054
9.04306
9.31838
9.60683
9.90849
10.2232
10.5503
10.8888
11.2375
11.5943
11.9571
12.3229
12.6887
13.0508
13.4052
13.7478
14.0742
14.3804
14.6625
14.917
15.1412
15.3332
15.4918
15.6159
15.7054
15.7538
15.7689
15.6776
-7.6897
-7.71314
-7.73565
-7.75366
-7.76746
-7.778
-7.78584
-7.79139
-7.79501
-7.79704
-7.79786
-7.79788
-7.79757
-7.79748
-7.79824
-7.80051
-7.80494
-7.81214
-7.82261
-7.83671
-7.85467
-7.87654
-7.90224
-7.93158
-7.96428
-7.99999
-8.03829
-8.07877
-8.12098
-8.16449
-8.20888
-8.25377
-8.29879
-8.34363
-8.38799
-8.43162
-8.47431
-8.51587
-8.55614
-8.59499
-8.63232
-8.66802
-8.70203
-8.73427
-8.76469
-8.79324
-8.81988
-8.84458
-8.86728
-8.88795
-8.90655
-8.92304
-8.93737
-8.9495
-8.95937
-8.96693
-8.97211
-8.97485
-8.97506
-8.97267
-8.96758
-8.95968
-8.94888
-8.93505
-8.91805
-8.89774
-8.87398
-8.84658
-8.81537
-8.78015
-8.74073
-8.69689
-8.6484
-8.59502
-8.53651
-8.47261
-8.40305
-8.32759
-8.24594
-8.15783
-8.06299
-7.96114
-7.85201
-7.73535
-7.61094
-7.47855
-7.33799
-7.18908
-7.03167
-6.86563
-6.69087
-6.5073
-6.3149
-6.11366
-5.90362
-5.68483
-5.4574
-5.22147
-4.97722
-4.72488
-4.4647
-4.197
-3.92211
-3.64045
-3.35244
-3.05857
-2.75936
-2.45537
-2.14721
-1.83553
-1.52098
-1.20428
-0.886155
-0.567348
-0.248623
0.0692524
0.38552
0.699425
1.01023
1.31723
1.61973
1.91712
2.20881
2.49427
2.77305
3.04477
3.30911
3.56587
3.81489
4.05615
4.28969
4.51567
4.73432
4.946
5.15115
5.35031
5.5441
5.73326
5.91859
6.10098
6.28141
6.46092
6.64062
6.82165
7.00521
7.19252
7.38483
7.58337
7.78935
8.00394
8.22823
8.46324
8.70985
8.96878
9.2406
9.52566
9.82405
10.1356
10.4597
10.7955
11.1414
11.4959
11.8564
12.2202
12.5842
12.9446
13.2974
13.6385
13.9634
14.2679
14.548
14.8001
15.0211
15.2089
15.3618
15.4782
15.5575
15.5927
15.5922
15.4845
-7.6597
-7.68432
-7.70861
-7.72825
-7.74349
-7.75538
-7.76457
-7.77151
-7.77661
-7.78026
-7.78288
-7.78487
-7.78671
-7.78892
-7.79207
-7.79673
-7.8035
-7.8129
-7.82536
-7.84121
-7.86064
-7.88369
-7.9103
-7.9403
-7.97342
-8.00933
-8.04767
-8.08805
-8.13006
-8.1733
-8.21738
-8.26196
-8.30668
-8.35126
-8.39541
-8.43889
-8.48151
-8.52307
-8.56342
-8.60243
-8.63998
-8.67598
-8.71034
-8.743
-8.77387
-8.80292
-8.83008
-8.85531
-8.87855
-8.89977
-8.91892
-8.93595
-8.95081
-8.96346
-8.97383
-8.98187
-8.98752
-8.99071
-8.99137
-8.98941
-8.98475
-8.97729
-8.96693
-8.95354
-8.93699
-8.91715
-8.89386
-8.86695
-8.83625
-8.80155
-8.76266
-8.71934
-8.67138
-8.61853
-8.56053
-8.49712
-8.42804
-8.353
-8.27174
-8.18396
-8.08936
-7.98766
-7.8786
-7.76192
-7.63739
-7.50478
-7.3639
-7.21457
-7.05664
-6.88997
-6.71448
-6.53009
-6.33676
-6.13451
-5.92336
-5.70337
-5.47467
-5.23739
-4.99172
-4.73789
-4.47616
-4.20686
-3.93034
-3.64699
-3.35727
-3.06167
-2.76071
-2.45497
-2.14508
-1.83169
-1.51548
-1.19717
-0.87751
-0.557258
-0.237198
0.0818832
0.399207
0.714002
1.02552
1.33302
1.63582
1.93328
2.2248
2.50986
2.78798
3.05879
3.32198
3.57733
3.82472
4.06411
4.29556
4.51924
4.7354
4.94441
5.14672
5.34288
5.53355
5.71946
5.90144
6.0804
6.25731
6.43324
6.6093
6.78665
6.96651
7.15009
7.33867
7.53346
7.73571
7.94658
8.16719
8.39856
8.64158
8.897
9.1654
9.44714
9.74233
10.0508
10.3719
10.7049
11.0482
11.4001
11.7582
12.1199
12.4817
12.8401
13.191
13.53
13.8527
14.1548
14.432
14.6806
14.8974
15.0797
15.2257
15.3334
15.4017
15.4237
15.408
15.2861
-7.63669
-7.66188
-7.68723
-7.70794
-7.72417
-7.73705
-7.74726
-7.75528
-7.76157
-7.76652
-7.77057
-7.77411
-7.7776
-7.78151
-7.78635
-7.79264
-7.80089
-7.81158
-7.8251
-7.84175
-7.86172
-7.88508
-7.9118
-7.94172
-7.97464
-8.01027
-8.04828
-8.08831
-8.13
-8.17296
-8.21684
-8.26129
-8.30599
-8.35065
-8.39498
-8.43876
-8.48178
-8.52383
-8.56476
-8.60443
-8.6427
-8.67947
-8.71464
-8.74813
-8.77986
-8.80976
-8.83776
-8.86382
-8.88786
-8.90985
-8.92972
-8.94743
-8.96293
-8.97616
-8.98708
-8.99563
-9.00175
-9.00538
-9.00645
-9.00489
-9.0006
-8.99352
-8.98352
-8.9705
-8.95433
-8.93487
-8.91198
-8.88549
-8.85521
-8.82096
-8.78251
-8.73965
-8.69214
-8.63973
-8.58217
-8.51917
-8.45047
-8.37578
-8.2948
-8.20721
-8.11271
-8.01102
-7.90187
-7.78501
-7.6602
-7.52721
-7.38585
-7.23593
-7.07731
-6.90985
-6.73346
-6.54808
-6.35367
-6.15024
-5.93783
-5.7165
-5.48637
-5.24759
-5.00036
-4.7449
-4.4815
-4.21048
-3.93219
-3.64705
-3.35552
-3.05808
-2.75528
-2.44772
-2.13603
-1.82087
-1.50294
-1.18299
-0.861768
-0.540066
-0.218681
0.101582
0.419921
0.735548
1.04769
1.35561
1.65859
1.95599
2.24719
2.53167
2.80895
3.07866
3.34049
3.59422
3.83974
4.07703
4.30615
4.5273
4.74074
4.94685
5.1461
5.33908
5.52643
5.70893
5.8874
6.06278
6.23607
6.40833
6.58068
6.75431
6.93043
7.11029
7.29514
7.48623
7.6848
7.89202
8.10903
8.33684
8.57636
8.82837
9.09343
9.37192
9.66394
9.96933
10.2875
10.6176
10.9582
11.3074
11.663
12.0222
12.3816
12.7375
13.0858
13.4222
13.742
14.0407
14.314
14.558
14.7692
14.9449
15.0827
15.1805
15.237
15.2454
15.2148
15.0801
-7.62112
-7.6466
-7.67248
-7.69372
-7.71048
-7.72389
-7.73467
-7.74333
-7.75033
-7.7561
-7.76104
-7.76555
-7.77004
-7.77493
-7.7807
-7.78779
-7.79666
-7.80776
-7.82144
-7.83802
-7.8577
-7.88058
-7.90667
-7.93588
-7.96805
-8.00294
-8.04027
-8.07972
-8.12094
-8.1636
-8.20733
-8.2518
-8.2967
-8.34172
-8.38659
-8.43104
-8.47486
-8.51784
-8.55979
-8.60056
-8.63998
-8.67794
-8.71432
-8.74902
-8.78193
-8.81298
-8.84208
-8.86918
-8.8942
-8.91709
-8.93779
-8.95626
-8.97243
-8.98626
-8.99771
-9.00673
-9.01327
-9.01726
-9.01866
-9.0174
-9.0134
-9.00658
-8.99685
-8.9841
-8.96821
-8.94906
-8.92648
-8.90031
-8.87038
-8.83649
-8.79842
-8.75595
-8.70882
-8.65679
-8.59959
-8.53695
-8.46856
-8.39412
-8.31329
-8.22575
-8.13123
-8.02942
-7.92007
-7.80291
-7.6777
-7.5442
-7.40223
-7.2516
-7.09216
-6.92379
-6.74639
-6.5599
-6.36429
-6.15958
-5.94579
-5.72302
-5.49137
-5.25102
-5.00214
-4.74499
-4.47985
-4.20705
-3.92696
-3.63998
-3.3466
-3.0473
-2.74266
-2.43327
-2.11977
-1.80285
-1.48323
-1.16165
-0.838914
-0.515809
-0.193158
0.128214
0.447486
0.763848
1.07651
1.38472
1.68774
1.98492
2.27565
2.55937
2.83563
3.10404
3.3643
3.61621
3.85965
4.09463
4.32123
4.53964
4.75016
4.95319
5.14922
5.33884
5.52275
5.7017
5.87657
6.0483
6.2179
6.38645
6.55508
6.725
6.89742
7.07359
7.25478
7.44225
7.63723
7.84091
8.05442
8.27879
8.51493
8.76362
9.02544
9.30075
9.58967
9.89202
10.2072
10.5344
10.8721
11.2185
11.5713
11.9277
12.2842
12.6372
12.9823
13.3152
13.6311
13.9255
14.1937
14.4318
14.6362
14.8037
14.932
15.0187
15.0624
15.0567
15.011
14.8646
-7.61312
-7.63888
-7.66494
-7.68626
-7.70304
-7.71644
-7.72721
-7.7359
-7.743
-7.74893
-7.75409
-7.75884
-7.76356
-7.76863
-7.77447
-7.78148
-7.79008
-7.80069
-7.81368
-7.82935
-7.84794
-7.86961
-7.89441
-7.92233
-7.95324
-7.98698
-8.02331
-8.06195
-8.10259
-8.14489
-8.18853
-8.23316
-8.27846
-8.3241
-8.3698
-8.41528
-8.46028
-8.50456
-8.54792
-8.59016
-8.63111
-8.6706
-8.7085
-8.74468
-8.77902
-8.81142
-8.8418
-8.87007
-8.89616
-8.92
-8.94155
-8.96074
-8.97755
-8.99192
-9.00381
-9.0132
-9.02003
-9.02427
-9.02588
-9.02478
-9.02094
-9.01427
-9.00468
-8.99209
-8.97638
-8.95742
-8.93507
-8.90916
-8.87951
-8.84592
-8.80817
-8.76602
-8.71924
-8.66755
-8.61068
-8.54834
-8.48018
-8.40587
-8.32507
-8.2375
-8.14285
-8.04084
-7.93119
-7.81364
-7.68793
-7.55385
-7.41119
-7.25977
-7.09944
-6.93008
-6.75161
-6.56395
-6.36709
-6.16105
-5.94586
-5.72161
-5.48844
-5.24649
-4.99598
-4.73715
-4.47029
-4.19574
-3.91387
-3.62511
-3.32992
-3.02884
-2.72241
-2.41125
-2.09603
-1.77744
-1.45621
-1.13311
-0.808956
-0.484558
-0.160757
0.161601
0.481675
0.798633
1.11167
1.42001
1.72292
2.01971
2.30978
2.59257
2.86762
3.13454
3.39304
3.64293
3.88411
4.1166
4.34049
4.556
4.76346
4.96326
5.15595
5.34212
5.52248
5.69783
5.86905
6.03711
6.20301
6.36787
6.53284
6.6991
6.8679
7.04049
7.21814
7.40211
7.59365
7.79393
8.0041
8.22518
8.45809
8.70359
8.96228
9.2345
9.52038
9.81971
10.1319
10.4561
10.7908
11.1342
11.4839
11.837
12.1902
12.5395
12.8808
13.2093
13.5203
13.8091
14.071
14.3017
14.4977
14.6555
14.7728
14.847
14.8768
14.8563
14.795
14.6373
-7.61297
-7.63917
-7.66528
-7.68631
-7.70253
-7.71523
-7.72524
-7.73319
-7.73958
-7.74486
-7.74938
-7.75349
-7.75752
-7.7618
-7.7667
-7.77261
-7.77991
-7.78902
-7.80031
-7.81413
-7.83075
-7.85039
-7.87317
-7.89913
-7.92824
-7.96039
-7.99538
-8.03298
-8.0729
-8.11483
-8.15842
-8.20334
-8.24923
-8.29576
-8.3426
-8.38944
-8.43597
-8.48194
-8.52707
-8.57114
-8.61394
-8.65527
-8.69496
-8.73285
-8.76881
-8.80271
-8.83445
-8.86394
-8.89111
-8.91589
-8.93823
-8.95808
-8.97541
-8.99019
-9.00239
-9.012
-9.01898
-9.02331
-9.02497
-9.02391
-9.02009
-9.01345
-9.00391
-8.99139
-8.97579
-8.95697
-8.93479
-8.9091
-8.87971
-8.8464
-8.80897
-8.76717
-8.72074
-8.66942
-8.61288
-8.55078
-8.48276
-8.40849
-8.32768
-8.24002
-8.1452
-8.04294
-7.93295
-7.81496
-7.68873
-7.55401
-7.41062
-7.25838
-7.09713
-6.92676
-6.74718
-6.55835
-6.36023
-6.15286
-5.93628
-5.71059
-5.47591
-5.23242
-4.98032
-4.71988
-4.45138
-4.17517
-3.89162
-3.60117
-3.3043
-3.00154
-2.69346
-2.38068
-2.06387
-1.74374
-1.42106
-1.0966
-0.771181
-0.445653
-0.120872
0.202297
0.52299
0.840358
1.15357
1.46185
1.76443
2.06063
2.34982
2.63146
2.90507
3.17029
3.42682
3.67448
3.91319
4.14299
4.36399
4.57643
4.78065
4.9771
5.16631
5.34893
5.52568
5.69737
5.86492
6.02929
6.19153
6.35275
6.51411
6.67681
6.8421
7.01124
7.18549
7.36613
7.55439
7.75146
7.95846
8.17642
8.40625
8.64872
8.90439
9.17363
9.45652
9.75284
10.062
10.3831
10.7146
11.0548
11.401
11.7505
12.0997