/*--------------------------------*- C++ -*----------------------------------*\
  =========                 |
  \\      /  F ield         | OpenFOAM: The Open Source CFD Toolbox
   \\    /   O peration     | Website:  https://openfoam.org
    \\  /    A nd           | Version:  9
     \\/     M anipulation  |
\*---------------------------------------------------------------------------*/
FoamFile
{
    format      ascii;
    class       volScalarField;
    location    "300";
    object      epsilon;
}
// * * * * * * * * * * * * * * * * * * * * * * * * * * * * * * * * * * * * * //

dimensions      [0 2 -3 0 0 0 0];

internalField   nonuniform List<scalar> 
4000
(
1.92661e-06
1.58355e-06
1.17328e-06
8.23401e-07
6.03329e-07
5.33727e-07
5.75436e-07
6.63285e-07
7.27327e-07
7.57189e-07
7.7204e-07
7.7658e-07
7.75847e-07
7.81211e-07
8.07709e-07
8.7457e-07
9.85965e-07
1.14149e-06
1.35087e-06
1.61823e-06
2.52231e-06
2.18146e-06
1.67757e-06
1.20242e-06
8.91719e-07
7.48623e-07
7.25899e-07
7.60598e-07
8.30987e-07
9.19181e-07
9.80728e-07
1.00455e-06
1.01409e-06
1.02192e-06
1.04835e-06
1.11299e-06
1.2339e-06
1.42125e-06
1.70209e-06
2.09661e-06
2.91307e-06
2.68184e-06
2.16799e-06
1.60531e-06
1.21333e-06
1.00289e-06
9.39109e-07
9.39115e-07
9.73518e-07
1.03529e-06
1.1172e-06
1.15916e-06
1.15214e-06
1.1394e-06
1.14365e-06
1.18825e-06
1.30285e-06
1.53225e-06
1.95186e-06
2.40225e-06
3.16589e-06
3.08757e-06
2.67566e-06
2.09325e-06
1.54518e-06
1.25865e-06
1.1338e-06
1.11688e-06
1.13228e-06
1.15989e-06
1.19596e-06
1.2024e-06
1.13467e-06
1.09838e-06
1.07426e-06
1.09724e-06
1.26688e-06
1.65325e-06
2.18755e-06
2.58174e-06
3.3538e-06
3.45651e-06
3.25887e-06
2.8451e-06
2.26827e-06
1.62979e-06
1.38919e-06
1.30709e-06
1.289e-06
1.29575e-06
1.30292e-06
1.28233e-06
1.21465e-06
1.13197e-06
1.0853e-06
1.23321e-06
1.57674e-06
2.02455e-06
2.46426e-06
2.71321e-06
3.51699e-06
3.82109e-06
3.91254e-06
3.81248e-06
3.5734e-06
3.18982e-06
2.50181e-06
1.85703e-06
1.59269e-06
1.5087e-06
1.47785e-06
1.45511e-06
1.45811e-06
1.61087e-06
1.86562e-06
2.15138e-06
2.43041e-06
2.68525e-06
2.8612e-06
2.85363e-06
3.68318e-06
4.19966e-06
4.60395e-06
4.86054e-06
4.9903e-06
4.98066e-06
4.80343e-06
4.40995e-06
3.37984e-06
2.76142e-06
2.72331e-06
2.95206e-06
3.28595e-06
3.5261e-06
3.6502e-06
3.66564e-06
3.60056e-06
3.48248e-06
3.29096e-06
2.98428e-06
3.87166e-06
4.61265e-06
5.32536e-06
5.91995e-06
6.3967e-06
6.72703e-06
6.8718e-06
6.76741e-06
6.19568e-06
5.73652e-06
5.70538e-06
5.71853e-06
5.66984e-06
5.5241e-06
5.2821e-06
4.95902e-06
4.57444e-06
4.14536e-06
3.65123e-06
3.09309e-06
4.11639e-06
5.14466e-06
6.19146e-06
7.14486e-06
7.99218e-06
8.68123e-06
9.14196e-06
9.27071e-06
8.8314e-06
8.33281e-06
8.24403e-06
8.06052e-06
7.73183e-06
7.27968e-06
6.7342e-06
6.12093e-06
5.45942e-06
4.76124e-06
4.00153e-06
3.21586e-06
4.43904e-06
5.68838e-06
6.96604e-06
8.10624e-06
9.12412e-06
1.00028e-05
1.0709e-05
1.11718e-05
1.12237e-05
1.09698e-05
1.07664e-05
1.03267e-05
9.70501e-06
8.9655e-06
8.15069e-06
7.28823e-06
6.39218e-06
5.46175e-06
4.45762e-06
3.42273e-06
1.58355e-06
1.44677e-06
1.11999e-06
8.4154e-07
6.89679e-07
6.74659e-07
7.52122e-07
8.76702e-07
9.78399e-07
1.03161e-06
1.05765e-06
1.08047e-06
1.08153e-06
1.07717e-06
1.09365e-06
1.1615e-06
1.28925e-06
1.4674e-06
1.6609e-06
1.77294e-06
2.18146e-06
1.93866e-06
1.56361e-06
1.15893e-06
9.2154e-07
8.42649e-07
8.79104e-07
1.04004e-06
1.28052e-06
1.2988e-06
1.10819e-06
9.80711e-07
9.42741e-07
9.48668e-07
9.88446e-07
1.0753e-06
1.22603e-06
1.46569e-06
1.84086e-06
2.33139e-06
2.68184e-06
2.42023e-06
2.12661e-06
1.66132e-06
1.27458e-06
1.07579e-06
1.02632e-06
1.08782e-06
1.25433e-06
1.45896e-06
1.5046e-06
1.3257e-06
1.16084e-06
1.10428e-06
1.10503e-06
1.15746e-06
1.29159e-06
1.56475e-06
2.03141e-06
2.68853e-06
3.08757e-06
2.71144e-06
2.51693e-06
2.11575e-06
1.62795e-06
1.31853e-06
1.17673e-06
1.15762e-06
1.2295e-06
1.36318e-06
1.49113e-06
1.52466e-06
1.39871e-06
1.27123e-06
1.20515e-06
1.21296e-06
1.33465e-06
1.64623e-06
2.1519e-06
2.91946e-06
3.45651e-06
3.03768e-06
2.97588e-06
2.68155e-06
2.19764e-06
1.70366e-06
1.43241e-06
1.31473e-06
1.29388e-06
1.33467e-06
1.39473e-06
1.42591e-06
1.41356e-06
1.37412e-06
1.32545e-06
1.355e-06
1.54118e-06
1.90852e-06
2.36445e-06
3.1065e-06
3.82109e-06
3.40491e-06
3.50636e-06
3.42157e-06
3.17931e-06
2.75441e-06
2.24359e-06
1.85468e-06
1.63062e-06
1.53344e-06
1.50579e-06
1.49038e-06
1.47034e-06
1.4941e-06
1.62915e-06
1.83237e-06
2.08449e-06
2.39344e-06
2.67271e-06
3.28582e-06
4.19966e-06
3.822e-06
4.09707e-06
4.25088e-06
4.31425e-06
4.26635e-06
4.01494e-06
3.48e-06
2.82357e-06
2.42419e-06
2.32249e-06
2.35496e-06
2.52042e-06
2.72999e-06
2.88005e-06
2.96233e-06
2.99186e-06
3.02193e-06
3.00511e-06
3.44778e-06
4.61265e-06
4.43057e-06
4.95826e-06
5.37161e-06
5.72645e-06
5.97722e-06
6.07702e-06
5.96337e-06
5.29667e-06
4.82401e-06
4.82892e-06
4.91309e-06
4.88695e-06
4.7351e-06
4.50974e-06
4.23531e-06
3.93101e-06
3.65349e-06
3.35974e-06
3.60062e-06
5.14466e-06
5.59408e-06
6.66638e-06
7.63292e-06
8.51219e-06
9.22992e-06
9.67232e-06
9.70071e-06
9.06862e-06
8.51786e-06
8.55154e-06
8.39647e-06
8.00379e-06
7.44755e-06
6.79229e-06
6.08291e-06
5.36181e-06
4.69187e-06
4.02536e-06
3.79987e-06
5.68838e-06
7.45629e-06
9.31308e-06
1.10539e-05
1.26822e-05
1.41562e-05
1.54088e-05
1.63225e-05
1.66955e-05
1.64842e-05
1.59083e-05
1.49724e-05
1.37843e-05
1.24587e-05
1.10715e-05
9.66852e-06
8.2735e-06
6.88965e-06
5.46382e-06
4.04727e-06
1.17328e-06
1.11999e-06
9.40371e-07
7.84432e-07
7.3157e-07
7.78884e-07
8.89476e-07
1.05784e-06
1.18996e-06
1.26335e-06
1.2985e-06
1.33445e-06
1.33424e-06
1.31323e-06
1.30094e-06
1.33094e-06
1.42398e-06
1.56239e-06
1.69684e-06
1.71555e-06
1.67757e-06
1.56361e-06
1.34701e-06
1.11037e-06
9.75825e-07
9.51692e-07
1.01748e-06
1.21941e-06
1.48145e-06
1.50255e-06
1.31042e-06
1.1666e-06
1.11455e-06
1.11265e-06
1.14889e-06
1.23449e-06
1.38608e-06
1.61577e-06
1.93689e-06
2.35361e-06
2.16799e-06
2.12661e-06
1.97076e-06
1.65022e-06
1.37888e-06
1.24445e-06
1.22175e-06
1.30885e-06
1.49944e-06
1.70864e-06
1.73916e-06
1.53684e-06
1.35846e-06
1.28552e-06
1.28296e-06
1.34669e-06
1.50474e-06
1.78151e-06
2.20405e-06
2.80635e-06
2.67566e-06
2.51693e-06
2.38978e-06
2.10392e-06
1.75165e-06
1.5155e-06
1.40975e-06
1.41312e-06
1.50347e-06
1.64848e-06
1.78588e-06
1.82023e-06
1.66092e-06
1.50132e-06
1.42528e-06
1.43848e-06
1.57575e-06
1.88798e-06
2.3613e-06
3.12426e-06
3.25887e-06
2.97588e-06
2.85016e-06
2.5734e-06
2.17283e-06
1.8089e-06
1.60536e-06
1.53089e-06
1.54223e-06
1.60352e-06
1.68017e-06
1.72828e-06
1.72916e-06
1.67437e-06
1.59343e-06
1.58828e-06
1.7446e-06
2.11281e-06
2.57611e-06
3.38483e-06
3.91254e-06
3.50636e-06
3.43587e-06
3.23334e-06
2.89145e-06
2.4774e-06
2.13478e-06
1.91213e-06
1.78927e-06
1.7412e-06
1.73472e-06
1.72903e-06
1.70999e-06
1.70889e-06
1.771e-06
1.90176e-06
2.13449e-06
2.50811e-06
2.87302e-06
3.63348e-06
4.60395e-06
4.09707e-06
4.18606e-06
4.14423e-06
3.96015e-06
3.67962e-06
3.33973e-06
2.98662e-06
2.64314e-06
2.41491e-06
2.32722e-06
2.3044e-06
2.33044e-06
2.43865e-06
2.58803e-06
2.73799e-06
2.89753e-06
3.11041e-06
3.25799e-06
3.90785e-06
5.32536e-06
4.95826e-06
5.47245e-06
5.84632e-06
6.04113e-06
6.09243e-06
5.92307e-06
5.46452e-06
4.925e-06
4.54225e-06
4.47603e-06
4.52226e-06
4.62066e-06
4.63261e-06
4.54188e-06
4.38001e-06
4.18756e-06
4.02602e-06
3.81285e-06
4.20633e-06
6.19146e-06
6.66638e-06
8.31598e-06
9.90652e-06
1.12998e-05
1.23583e-05
1.2889e-05
1.2753e-05
1.18593e-05
1.12188e-05
1.12204e-05
1.12126e-05
1.07768e-05
9.99554e-06
9.01687e-06
7.93814e-06
6.84845e-06
5.84096e-06
4.87346e-06
4.56654e-06
6.96604e-06
9.31308e-06
1.17692e-05
1.41293e-05
1.63849e-05
1.84787e-05
2.03306e-05
2.17989e-05
2.27034e-05
2.26867e-05
2.15588e-05
1.99995e-05
1.81698e-05
1.62098e-05
1.42247e-05
1.22682e-05
1.03658e-05
8.51766e-06
6.65522e-06
4.8192e-06
8.23401e-07
8.4154e-07
7.84432e-07
7.4502e-07
7.7192e-07
8.51272e-07
9.80844e-07
1.19246e-06
1.36207e-06
1.46061e-06
1.51895e-06
1.56585e-06
1.55428e-06
1.50532e-06
1.44623e-06
1.40711e-06
1.41411e-06
1.4645e-06
1.5132e-06
1.46459e-06
1.20242e-06
1.15893e-06
1.11037e-06
1.03096e-06
9.94288e-07
1.01313e-06
1.09701e-06
1.32781e-06
1.60081e-06
1.62753e-06
1.45709e-06
1.32123e-06
1.25856e-06
1.24334e-06
1.26402e-06
1.32743e-06
1.44287e-06
1.60943e-06
1.81911e-06
2.09173e-06
1.60531e-06
1.66132e-06
1.65022e-06
1.5174e-06
1.39387e-06
1.33897e-06
1.35384e-06
1.46446e-06
1.67196e-06
1.88306e-06
1.88912e-06
1.68056e-06
1.50654e-06
1.42757e-06
1.42352e-06
1.49075e-06
1.64011e-06
1.88106e-06
2.2039e-06
2.6247e-06
2.09325e-06
2.11575e-06
2.10392e-06
1.95746e-06
1.76658e-06
1.63599e-06
1.58814e-06
1.62269e-06
1.73275e-06
1.8928e-06
2.03003e-06
2.02319e-06
1.83019e-06
1.66888e-06
1.59796e-06
1.62914e-06
1.78318e-06
2.07571e-06
2.47136e-06
3.06924e-06
2.8451e-06
2.68155e-06
2.5734e-06
2.37187e-06
2.1012e-06
1.87907e-06
1.76966e-06
1.75619e-06
1.80708e-06
1.89253e-06
1.97942e-06
2.02454e-06
2.00418e-06
1.90955e-06
1.81799e-06
1.83198e-06
1.9987e-06
2.3456e-06
2.75698e-06
3.46512e-06
3.81248e-06
3.42157e-06
3.23334e-06
2.99637e-06
2.67537e-06
2.36214e-06
2.15754e-06
2.0604e-06
2.03176e-06
2.03662e-06
2.04751e-06
2.04155e-06
2.02062e-06
2.01762e-06
2.05206e-06
2.14895e-06
2.37008e-06
2.75399e-06
3.10329e-06
3.84425e-06
4.86054e-06
4.25088e-06
4.14423e-06
4.01196e-06
3.76231e-06
3.48961e-06
3.25691e-06
3.04872e-06
2.85899e-06
2.71908e-06
2.64293e-06
2.59592e-06
2.5721e-06
2.61323e-06
2.7392e-06
2.89929e-06
3.1049e-06
3.3863e-06
3.562e-06
4.25226e-06
5.91995e-06
5.37161e-06
5.84632e-06
6.25682e-06
6.48429e-06
6.50636e-06
6.43274e-06
6.10912e-06
5.63796e-06
5.26079e-06
5.15306e-06
5.12682e-06
5.10174e-06
5.09681e-06
5.02381e-06
4.88761e-06
4.72486e-06
4.57218e-06
4.30358e-06
4.75099e-06
7.14486e-06
7.63292e-06
9.90652e-06
1.22864e-05
1.42869e-05
1.55578e-05
1.58662e-05
1.55238e-05
1.49122e-05
1.43672e-05
1.43274e-05
1.41843e-05
1.37373e-05
1.28654e-05
1.16784e-05
1.02653e-05
8.73282e-06
7.20068e-06
5.74757e-06
5.28657e-06
8.10624e-06
1.10539e-05
1.41293e-05
1.7135e-05
2.00541e-05
2.28301e-05
2.54281e-05
2.76573e-05
2.92982e-05
2.96907e-05
2.78139e-05
2.53978e-05
2.27404e-05
2.00419e-05
1.74232e-05
1.49013e-05
1.24828e-05
1.01527e-05
7.83095e-06
5.55872e-06
6.03329e-07
6.89679e-07
7.3157e-07
7.7192e-07
8.24853e-07
9.0034e-07
1.04591e-06
1.29651e-06
1.5158e-06
1.65086e-06
1.7434e-06
1.78397e-06
1.74699e-06
1.66121e-06
1.5506e-06
1.43724e-06
1.34256e-06
1.28389e-06
1.23004e-06
1.13284e-06
8.91719e-07
9.2154e-07
9.75825e-07
9.94288e-07
1.01458e-06
1.05541e-06
1.15524e-06
1.41223e-06
1.70642e-06
1.7511e-06
1.59426e-06
1.45519e-06
1.37768e-06
1.34274e-06
1.33808e-06
1.36214e-06
1.41494e-06
1.48464e-06
1.55027e-06
1.66859e-06
1.21333e-06
1.27458e-06
1.37888e-06
1.39387e-06
1.38759e-06
1.40035e-06
1.45696e-06
1.60216e-06
1.84855e-06
2.0783e-06
2.02732e-06
1.79086e-06
1.60892e-06
1.52171e-06
1.50905e-06
1.55898e-06
1.669e-06
1.82635e-06
1.99922e-06
2.18372e-06
1.54518e-06
1.62795e-06
1.75165e-06
1.76658e-06
1.7303e-06
1.71277e-06
1.74778e-06
1.84748e-06
2.01473e-06
2.21695e-06
2.31407e-06
2.17942e-06
1.93797e-06
1.77038e-06
1.71088e-06
1.75191e-06
1.89194e-06
2.11805e-06
2.38472e-06
2.71988e-06
2.26827e-06
2.19764e-06
2.17283e-06
2.1012e-06
2.00069e-06
1.94079e-06
1.96641e-06
2.0731e-06
2.22486e-06
2.36302e-06
2.41057e-06
2.35971e-06
2.2309e-06
2.07133e-06
1.99271e-06
2.02901e-06
2.19244e-06
2.4738e-06
2.78503e-06
3.27791e-06
3.5734e-06
3.17931e-06
2.89145e-06
2.67537e-06
2.46851e-06
2.33004e-06
2.31115e-06
2.40698e-06
2.55667e-06
2.64414e-06
2.59651e-06
2.48413e-06
2.38469e-06
2.33678e-06
2.34924e-06
2.44332e-06
2.64179e-06
2.94835e-06
3.21769e-06
3.83884e-06
4.9903e-06
4.31425e-06
3.96015e-06
3.76231e-06
3.61344e-06
3.51812e-06
3.45877e-06
3.44943e-06
3.4813e-06
3.44045e-06
3.28387e-06
3.12003e-06
3.01777e-06
3.01256e-06
3.12203e-06
3.26544e-06
3.4417e-06
3.66295e-06
3.76474e-06
4.42903e-06
6.3967e-06
5.72645e-06
6.04113e-06
6.48429e-06
6.91124e-06
7.21602e-06
7.18862e-06
6.90516e-06
6.59101e-06
6.25865e-06
6.04416e-06
5.9497e-06
5.90186e-06
5.82647e-06
5.72962e-06
5.55193e-06
5.32261e-06
5.0634e-06
4.66792e-06
5.13623e-06
7.99218e-06
8.51219e-06
1.12998e-05
1.42869e-05
1.65884e-05
1.77254e-05
1.7835e-05
1.72638e-05
1.68051e-05
1.63811e-05
1.62633e-05
1.62278e-05
1.59675e-05
1.52913e-05
1.40349e-05
1.23888e-05
1.04341e-05
8.39023e-06
6.47881e-06
5.89729e-06
9.12412e-06
1.26822e-05
1.63849e-05
2.00541e-05
2.37264e-05
2.73045e-05
3.07384e-05
3.39697e-05
3.67117e-05
3.78085e-05
3.48355e-05
3.12462e-05
2.7565e-05
2.40075e-05
2.06269e-05
1.74837e-05
1.4527e-05
1.17055e-05
8.9249e-06
6.22727e-06
5.33727e-07
6.74659e-07
7.78884e-07
8.51272e-07
9.0034e-07
9.59698e-07
1.10789e-06
1.39334e-06
1.68404e-06
1.87034e-06
1.98824e-06
1.9893e-06
1.9015e-06
1.76654e-06
1.60379e-06
1.42993e-06
1.2639e-06
1.12318e-06
9.91026e-07
8.50598e-07
7.48623e-07
8.42649e-07
9.51692e-07
1.01313e-06
1.05541e-06
1.10874e-06
1.23629e-06
1.54257e-06
1.89637e-06
1.9701e-06
1.78819e-06
1.6114e-06
1.50394e-06
1.4454e-06
1.41163e-06
1.39045e-06
1.37194e-06
1.33859e-06
1.26833e-06
1.25197e-06
1.00289e-06
1.07579e-06
1.24445e-06
1.33897e-06
1.40035e-06
1.47112e-06
1.60398e-06
1.84944e-06
2.23199e-06
2.4878e-06
2.28256e-06
1.93501e-06
1.70948e-06
1.60402e-06
1.57444e-06
1.59067e-06
1.63342e-06
1.67237e-06
1.66678e-06
1.65851e-06
1.25865e-06
1.31853e-06
1.5155e-06
1.63599e-06
1.71277e-06
1.81022e-06
1.99794e-06
2.30648e-06
2.72307e-06
3.0434e-06
2.84565e-06
2.39098e-06
2.03034e-06
1.83754e-06
1.77554e-06
1.80129e-06
1.88768e-06
2.00402e-06
2.10558e-06
2.18492e-06
1.62979e-06
1.70366e-06
1.8089e-06
1.87907e-06
1.94079e-06
2.06532e-06
2.34368e-06
2.82925e-06
3.42601e-06
3.74654e-06
3.39307e-06
2.83776e-06
2.41478e-06
2.17582e-06
2.09405e-06
2.12833e-06
2.24885e-06
2.42515e-06
2.60536e-06
2.86431e-06
3.18982e-06
2.75441e-06
2.4774e-06
2.36214e-06
2.33004e-06
2.42621e-06
2.75749e-06
3.42195e-06
4.27391e-06
4.61954e-06
4.00158e-06
3.25028e-06
2.7933e-06
2.59847e-06
2.57708e-06
2.6544e-06
2.7964e-06
2.97989e-06
3.14842e-06
3.62083e-06
4.98066e-06
4.26635e-06
3.67962e-06
3.48961e-06
3.51812e-06
3.64568e-06
3.93266e-06
4.59789e-06
5.5564e-06
5.80874e-06
4.92514e-06
4.04475e-06
3.59433e-06
3.44222e-06
3.5173e-06
3.62986e-06
3.71594e-06
3.78109e-06
3.7889e-06
4.41129e-06
6.72703e-06
5.97722e-06
6.09243e-06
6.50636e-06
7.21602e-06
7.61125e-06
7.6842e-06
8.06396e-06
8.96296e-06
8.8478e-06
7.59069e-06
6.83469e-06
6.57343e-06
6.50981e-06
6.37245e-06
6.13773e-06
5.78092e-06
5.3402e-06
4.81903e-06
5.30447e-06
8.68123e-06
9.22993e-06
1.23583e-05
1.55578e-05
1.77254e-05
1.8576e-05
1.83261e-05
1.80121e-05
1.84875e-05
1.84756e-05
1.75525e-05
1.70521e-05
1.69151e-05
1.65689e-05
1.56415e-05
1.39356e-05
1.17105e-05
9.24923e-06
6.96844e-06
6.33085e-06
1.00028e-05
1.41562e-05
1.84787e-05
2.28301e-05
2.73045e-05
3.17745e-05
3.64076e-05
4.12475e-05
4.58477e-05
4.81489e-05
4.33115e-05
3.78023e-05
3.26361e-05
2.79829e-05
2.37938e-05
1.99417e-05
1.63996e-05
1.30839e-05
9.86753e-06
6.78907e-06
5.75436e-07
7.52122e-07
8.89476e-07
9.80844e-07
1.04591e-06
1.10789e-06
1.20618e-06
1.50503e-06
1.91316e-06
2.15637e-06
2.22828e-06
2.16386e-06
2.00708e-06
1.81853e-06
1.61483e-06
1.42595e-06
1.23551e-06
1.04552e-06
8.58488e-07
6.85589e-07
7.25899e-07
8.79104e-07
1.01748e-06
1.09701e-06
1.15524e-06
1.23629e-06
1.4338e-06
1.88781e-06
2.48985e-06
2.58305e-06
2.20302e-06
1.87071e-06
1.69702e-06
1.60251e-06
1.53659e-06
1.4674e-06
1.38116e-06
1.26433e-06
1.09627e-06
9.6607e-07
9.39109e-07
1.02632e-06
1.22175e-06
1.35384e-06
1.45696e-06
1.60398e-06
1.93041e-06
2.55557e-06
3.57133e-06
3.97709e-06
3.11289e-06
2.26714e-06
1.88125e-06
1.72714e-06
1.66786e-06
1.63797e-06
1.59839e-06
1.51796e-06
1.3708e-06
1.27113e-06
1.1338e-06
1.17673e-06
1.40975e-06
1.58814e-06
1.74778e-06
1.99794e-06
2.55558e-06
3.64319e-06
5.29716e-06
6.10555e-06
4.49534e-06
2.95443e-06
2.20655e-06
1.91664e-06
1.82297e-06
1.80664e-06
1.81161e-06
1.79238e-06
1.70768e-06
1.60698e-06
1.38919e-06
1.43241e-06
1.60536e-06
1.76966e-06
1.96641e-06
2.34368e-06
3.23963e-06
5.09262e-06
7.79467e-06
8.98382e-06
6.25482e-06
3.8339e-06
2.68824e-06
2.25136e-06
2.12077e-06
2.11382e-06
2.15265e-06
2.19971e-06
2.23137e-06
2.27914e-06
2.50181e-06
2.24359e-06
2.13478e-06
2.15754e-06
2.31115e-06
2.75749e-06
3.95903e-06
6.6533e-06
1.05598e-05
1.20435e-05
8.20886e-06
4.78543e-06
3.29969e-06
2.78448e-06
2.67386e-06
2.69596e-06
2.7449e-06
2.79919e-06
2.88888e-06
3.21807e-06
4.80343e-06
4.01494e-06
3.33973e-06
3.25691e-06
3.45877e-06
3.93266e-06
5.22689e-06
8.45099e-06
1.3263e-05
1.4666e-05
9.98129e-06
5.98554e-06
4.31538e-06
3.82591e-06
3.76078e-06
3.79953e-06
3.76065e-06
3.67029e-06
3.63574e-06
4.19652e-06
6.8718e-06
6.07702e-06
5.92307e-06
6.43274e-06
7.18862e-06
7.6842e-06
8.62977e-06
1.17997e-05
1.64433e-05
1.78643e-05
1.27398e-05
8.63421e-06
7.2152e-06
6.93934e-06
6.83688e-06
6.49258e-06
5.96149e-06
5.32645e-06
4.75628e-06
5.24203e-06
9.14196e-06
9.67232e-06
1.2889e-05
1.58662e-05
1.7835e-05
1.83261e-05
1.85189e-05
2.01483e-05
2.3346e-05
2.45219e-05
2.09158e-05
1.8065e-05
1.71853e-05
1.69537e-05
1.63141e-05
1.48287e-05
1.24544e-05
9.69811e-06
7.1669e-06
6.52958e-06
1.0709e-05
1.54088e-05
2.03306e-05
2.54281e-05
3.07384e-05
3.64076e-05
4.28773e-05
5.04219e-05
5.82594e-05
6.26466e-05
5.45564e-05
4.56497e-05
3.81427e-05
3.19681e-05
2.67592e-05
2.21921e-05
1.80067e-05
1.4203e-05
1.05963e-05
7.21446e-06
6.63285e-07
8.76702e-07
1.05784e-06
1.19246e-06
1.29651e-06
1.39334e-06
1.50503e-06
1.62402e-06
2.26163e-06
2.61325e-06
2.55864e-06
2.38922e-06
2.22118e-06
1.98824e-06
1.7445e-06
1.5125e-06
1.28939e-06
1.07145e-06
8.58018e-07
6.61547e-07
7.60598e-07
1.04004e-06
1.21941e-06
1.32781e-06
1.41223e-06
1.54257e-06
1.88781e-06
2.62773e-06
4.47075e-06
5.10225e-06
3.56732e-06
2.43498e-06
2.05926e-06
1.89478e-06
1.76948e-06
1.64495e-06
1.50012e-06
1.31659e-06
1.07053e-06
8.12826e-07
9.39115e-07
1.08782e-06
1.30885e-06
1.46446e-06
1.60216e-06
1.84944e-06
2.55557e-06
4.34461e-06
8.15685e-06
1.04703e-05
6.38109e-06
3.26878e-06
2.24234e-06
1.93899e-06
1.82217e-06
1.7353e-06
1.62211e-06
1.45508e-06
1.21285e-06
1.04051e-06
1.11688e-06
1.15762e-06
1.41312e-06
1.62269e-06
1.84748e-06
2.30648e-06
3.64319e-06
7.10671e-06
1.3768e-05
1.79119e-05
1.04515e-05
4.72417e-06
2.6707e-06
2.07585e-06
1.89814e-06
1.8214e-06
1.74084e-06
1.60859e-06
1.409e-06
1.27492e-06
1.30709e-06
1.31473e-06
1.53089e-06
1.75619e-06
2.0731e-06
2.82925e-06
5.09262e-06
1.09682e-05
2.09398e-05
2.64038e-05
1.53225e-05
6.64242e-06
3.36462e-06
2.38187e-06
2.11351e-06
2.02651e-06
1.96531e-06
1.87597e-06
1.75098e-06
1.6346e-06
1.85703e-06
1.85468e-06
1.91213e-06
2.0604e-06
2.40698e-06
3.42195e-06
6.6533e-06
1.51172e-05
2.76441e-05
3.35979e-05
2.01274e-05
8.656e-06
4.25191e-06
2.96079e-06
2.64504e-06
2.55746e-06
2.49347e-06
2.4354e-06
2.45523e-06
2.66897e-06
4.40995e-06
3.48e-06
2.98662e-06
3.04872e-06
3.44943e-06
4.59789e-06
8.45099e-06
1.87017e-05
3.13708e-05
3.7381e-05
2.3635e-05
1.03961e-05
5.42281e-06
4.12901e-06
3.80879e-06
3.68416e-06
3.51371e-06
3.33006e-06
3.33206e-06
3.82107e-06
6.76741e-06
5.96337e-06
5.46452e-06
6.10912e-06
6.90516e-06
8.06396e-06
1.17997e-05
2.07668e-05
3.14177e-05
3.65648e-05
2.52397e-05
1.27452e-05
8.11884e-06
7.09156e-06
6.91508e-06
6.51143e-06
5.77158e-06
5.03222e-06
4.52716e-06
4.9889e-06
9.27071e-06
9.70071e-06
1.2753e-05
1.55238e-05
1.72638e-05
1.80121e-05
2.01483e-05
2.59598e-05
3.40013e-05
3.74923e-05
2.93849e-05
2.08475e-05
1.759e-05
1.68204e-05
1.62817e-05
1.49134e-05
1.25853e-05
9.66337e-06
7.02719e-06
6.41832e-06
1.11718e-05
1.63225e-05
2.17989e-05
2.76573e-05
3.39697e-05
4.12475e-05
5.04219e-05
6.21523e-05
7.48054e-05
8.20847e-05
6.97831e-05
5.52339e-05
4.41115e-05
3.58423e-05
2.93774e-05
2.3996e-05
1.92298e-05
1.49383e-05
1.10107e-05
7.43208e-06
7.27327e-07
9.78399e-07
1.18996e-06
1.36207e-06
1.5158e-06
1.68404e-06
1.91316e-06
2.26163e-06
2.66116e-06
3.32438e-06
3.18628e-06
3.0051e-06
2.73076e-06
2.35995e-06
1.99077e-06
1.69219e-06
1.43245e-06
1.18905e-06
9.49397e-07
7.14933e-07
8.30987e-07
1.28052e-06
1.48145e-06
1.60081e-06
1.70642e-06
1.89637e-06
2.48985e-06
4.47075e-06
8.5283e-06
1.35475e-05
8.01392e-06
3.86493e-06
2.62392e-06
2.25031e-06
2.03102e-06
1.84942e-06
1.66601e-06
1.45193e-06
1.1651e-06
7.95226e-07
9.73518e-07
1.25433e-06
1.49944e-06
1.67196e-06
1.84855e-06
2.23199e-06
3.57133e-06
8.15685e-06
1.67006e-05
2.51054e-05
1.49284e-05
6.36638e-06
3.03273e-06
2.28116e-06
2.0466e-06
1.8946e-06
1.72474e-06
1.50414e-06
1.20392e-06
9.34314e-07
1.13228e-06
1.2295e-06
1.50347e-06
1.73275e-06
2.01473e-06
2.72307e-06
5.29716e-06
1.3768e-05
2.59153e-05
3.473e-05
2.3072e-05
9.72282e-06
3.78537e-06
2.39107e-06
2.03699e-06
1.88306e-06
1.73402e-06
1.53262e-06
1.26621e-06
1.10527e-06
1.289e-06
1.29388e-06
1.54223e-06
1.80708e-06
2.22486e-06
3.42601e-06
7.79467e-06
2.09398e-05
3.39873e-05
4.15248e-05
3.14748e-05
1.34851e-05
4.87437e-06
2.68657e-06
2.14815e-06
1.95329e-06
1.80391e-06
1.63092e-06
1.43414e-06
1.31932e-06
1.59269e-06
1.63062e-06
1.78927e-06
2.03176e-06
2.55667e-06
4.27391e-06
1.05598e-05
2.76441e-05
3.97992e-05
4.57273e-05
3.85287e-05
1.67715e-05
6.08367e-06
3.27092e-06
2.57328e-06
2.33548e-06
2.15814e-06
1.99732e-06
1.91517e-06
1.97828e-06
3.37984e-06
2.82357e-06
2.64314e-06
2.85899e-06
3.4813e-06
5.5564e-06
1.3263e-05
3.13708e-05
4.24331e-05
4.71081e-05
4.23252e-05
1.86348e-05
7.2741e-06
4.38222e-06
3.68259e-06
3.35619e-06
3.05963e-06
2.84866e-06
2.92493e-06
3.34268e-06
6.19568e-06
5.29667e-06
4.925e-06
5.63796e-06
6.59101e-06
8.96296e-06
1.64433e-05
3.14177e-05
4.29583e-05
4.68448e-05
4.25629e-05
1.97251e-05
9.40293e-06
7.0377e-06
6.61969e-06
6.12897e-06
5.29105e-06
4.50879e-06
4.14964e-06
4.5683e-06
8.8314e-06
9.06862e-06
1.18593e-05
1.49122e-05
1.68051e-05
1.84875e-05
2.3346e-05
3.40013e-05
4.58134e-05
4.92262e-05
4.23803e-05
2.57597e-05
1.85897e-05
1.65953e-05
1.58105e-05
1.44244e-05
1.20247e-05
9.05162e-06
6.4876e-06
5.92743e-06
1.12237e-05
1.66955e-05
2.27034e-05
2.92982e-05
3.67117e-05
4.58477e-05
5.82594e-05
7.48054e-05
9.16001e-05
9.90232e-05
8.73285e-05
6.57891e-05
4.99519e-05
3.91596e-05
3.13283e-05
2.51352e-05
1.98217e-05
1.5083e-05
1.08876e-05
7.21758e-06
7.57189e-07
1.03161e-06
1.26335e-06
1.46061e-06
1.65086e-06
1.87034e-06
2.15637e-06
2.61325e-06
3.32438e-06
3.70382e-06
3.81842e-06
3.66772e-06
3.29015e-06
2.77022e-06
2.31329e-06
1.93283e-06
1.60843e-06
1.32008e-06
1.0441e-06
7.73407e-07
9.19181e-07
1.2988e-06
1.50255e-06
1.62753e-06
1.7511e-06
1.9701e-06
2.58305e-06
5.10225e-06
1.35475e-05
9.72921e-06
8.87264e-06
5.37075e-06
2.75306e-06
2.31212e-06
2.05879e-06
1.853e-06
1.65743e-06
1.44207e-06
1.1623e-06
8.53499e-07
1.03529e-06
1.45896e-06
1.70864e-06
1.88306e-06
2.0783e-06
2.4878e-06
3.97709e-06
1.04703e-05
2.51054e-05
1.26895e-05
1.67072e-05
1.12123e-05
3.79279e-06
2.54051e-06
2.21357e-06
2.01982e-06
1.82541e-06
1.58893e-06
1.27076e-06
9.20359e-07
1.15989e-06
1.36318e-06
1.64848e-06
1.8928e-06
2.21695e-06
3.0434e-06
6.10555e-06
1.79119e-05
3.473e-05
1.58842e-05
2.72962e-05
1.63202e-05
5.13404e-06
2.7788e-06
2.21839e-06
1.97975e-06
1.77669e-06
1.53779e-06
1.24088e-06
1.03543e-06
1.29575e-06
1.33467e-06
1.60352e-06
1.89253e-06
2.36302e-06
3.74654e-06
8.98382e-06
2.64038e-05
4.15248e-05
2e-05
3.8583e-05
2.08039e-05
6.56516e-06
3.10191e-06
2.26486e-06
1.9542e-06
1.73326e-06
1.51083e-06
1.28003e-06
1.17345e-06
1.5087e-06
1.53344e-06
1.7412e-06
2.03662e-06
2.64414e-06
4.61954e-06
1.20435e-05
3.35979e-05
4.57273e-05
2.46214e-05
4.78311e-05
2.39745e-05
7.85717e-06
3.6353e-06
2.56889e-06
2.18186e-06
1.91679e-06
1.69972e-06
1.56299e-06
1.54309e-06
2.76142e-06
2.42419e-06
2.41491e-06
2.71908e-06
3.44045e-06
5.80873e-06
1.4666e-05
3.7381e-05
4.71081e-05
2.87473e-05
5.24807e-05
2.48102e-05
8.76312e-06
4.57718e-06
3.51129e-06
3.01696e-06
2.63886e-06
2.42364e-06
2.53932e-06
2.92964e-06
5.73652e-06
4.82401e-06
4.54225e-06
5.26079e-06
6.25865e-06
8.8478e-06
1.78643e-05
3.65648e-05
4.68448e-05
3.23821e-05
5.25741e-05
2.40328e-05
1.01235e-05
6.89515e-06
6.20697e-06
5.59959e-06
4.7364e-06
4.02661e-06
3.7841e-06
4.14694e-06
8.33281e-06
8.51786e-06
1.12188e-05
1.43672e-05
1.63811e-05
1.84756e-05
2.45219e-05
3.74923e-05
4.92262e-05
3.97277e-05
4.95458e-05
2.8455e-05
1.88426e-05
1.61052e-05
1.51419e-05
1.37065e-05
1.12789e-05
8.30862e-06
5.89479e-06
5.39095e-06
1.09698e-05
1.64842e-05
2.26867e-05
2.96907e-05
3.78085e-05
4.81489e-05
6.26466e-05
8.20847e-05
9.90232e-05
9.2472e-05
9.66307e-05
7.18754e-05
5.28613e-05
4.03646e-05
3.16499e-05
2.49549e-05
1.93703e-05
1.45279e-05
1.03603e-05
6.82146e-06
7.7204e-07
1.05765e-06
1.2985e-06
1.51895e-06
1.7434e-06
1.98824e-06
2.22828e-06
2.55864e-06
3.18628e-06
3.81842e-06
3.88411e-06
3.7957e-06
3.35578e-06
2.89805e-06
2.49035e-06
2.12524e-06
1.78409e-06
1.45637e-06
1.13554e-06
8.24448e-07
9.80728e-07
1.10819e-06
1.31042e-06
1.45709e-06
1.59426e-06
1.78819e-06
2.20302e-06
3.56732e-06
8.01392e-06
8.87264e-06
6.39477e-06
3.29556e-06
2.38705e-06
2.11701e-06
1.9168e-06
1.7344e-06
1.54696e-06
1.33533e-06
1.0772e-06
9.19831e-07
1.1172e-06
1.5046e-06
1.73916e-06
1.88912e-06
2.02732e-06
2.28256e-06
3.11289e-06
6.38109e-06
1.49284e-05
1.67072e-05
1.28187e-05
6.22042e-06
2.9975e-06
2.33895e-06
2.09602e-06
1.91911e-06
1.73581e-06
1.51932e-06
1.22833e-06
9.51081e-07
1.19596e-06
1.49113e-06
1.78588e-06
2.03003e-06
2.31407e-06
2.84565e-06
4.49534e-06
1.04515e-05
2.3072e-05
2.72962e-05
2.0906e-05
9.46937e-06
4.04948e-06
2.70875e-06
2.26586e-06
2.01601e-06
1.79048e-06
1.53986e-06
1.2354e-06
1.0131e-06
1.30292e-06
1.39473e-06
1.68017e-06
1.97942e-06
2.41057e-06
3.39307e-06
6.25482e-06
1.53225e-05
3.14748e-05
3.8583e-05
2.85131e-05
1.27224e-05
5.31508e-06
3.12435e-06
2.37577e-06
2.00349e-06
1.72431e-06
1.46145e-06
1.20767e-06
1.10426e-06
1.47785e-06
1.50579e-06
1.73472e-06
2.04751e-06
2.59651e-06
4.00158e-06
8.20886e-06
2.01274e-05
3.85287e-05
4.78311e-05
3.40219e-05
1.51435e-05
6.40794e-06
3.61239e-06
2.63538e-06
2.16236e-06
1.82439e-06
1.56194e-06
1.39471e-06
1.37939e-06
2.72331e-06
2.32249e-06
2.32722e-06
2.64293e-06
3.28387e-06
4.92514e-06
9.98129e-06
2.3635e-05
4.23252e-05
5.24807e-05
3.61411e-05
1.60546e-05
7.23164e-06
4.46531e-06
3.44083e-06
2.88387e-06
2.45158e-06
2.21531e-06
2.32584e-06
2.68421e-06
5.70538e-06
4.82892e-06
4.47603e-06
5.15306e-06
6.04416e-06
7.59069e-06
1.27398e-05
2.52397e-05
4.25629e-05
5.25741e-05
3.56805e-05
1.63623e-05
8.7651e-06
6.76477e-06
6.08828e-06
5.35548e-06
4.50042e-06
3.84941e-06
3.59361e-06
3.90609e-06
8.24403e-06
8.55154e-06
1.12204e-05
1.43274e-05
1.62633e-05
1.75525e-05
2.09158e-05
2.93849e-05
4.23803e-05
4.95458e-05
3.61576e-05
2.26423e-05
1.73675e-05
1.58923e-05
1.51204e-05
1.36797e-05
1.11852e-05
8.20002e-06
5.70865e-06
5.14344e-06
1.07664e-05
1.59083e-05
2.15588e-05
2.78139e-05
3.48355e-05
4.33115e-05
5.45564e-05
6.97831e-05
8.73285e-05
9.66307e-05
8.0439e-05
6.0688e-05
4.65338e-05
3.66926e-05
2.93822e-05
2.35025e-05
1.84404e-05
1.40001e-05
1.00572e-05
6.64327e-06
7.7658e-07
1.08047e-06
1.33445e-06
1.56585e-06
1.78397e-06
1.9893e-06
2.16386e-06
2.38922e-06
3.0051e-06
3.66772e-06
3.7957e-06
3.52532e-06
3.17766e-06
2.83737e-06
2.51726e-06
2.20219e-06
1.87913e-06
1.5448e-06
1.20196e-06
8.72447e-07
1.00455e-06
9.80711e-07
1.1666e-06
1.32123e-06
1.45519e-06
1.6114e-06
1.87071e-06
2.43498e-06
3.86493e-06
5.37075e-06
3.29556e-06
2.36218e-06
2.0921e-06
1.92511e-06
1.78836e-06
1.65027e-06
1.49068e-06
1.29651e-06
1.05649e-06
9.69545e-07
1.15916e-06
1.3257e-06
1.53684e-06
1.68056e-06
1.79086e-06
1.93501e-06
2.26714e-06
3.26878e-06
6.36638e-06
1.12123e-05
6.22042e-06
3.16613e-06
2.34189e-06
2.05845e-06
1.89776e-06
1.75226e-06
1.58763e-06
1.3893e-06
1.13158e-06
9.6911e-07
1.2024e-06
1.52466e-06
1.82023e-06
2.02319e-06
2.17942e-06
2.39098e-06
2.95443e-06
4.72417e-06
9.72282e-06
1.63202e-05
9.46937e-06
4.62728e-06
2.98116e-06
2.40395e-06
2.11824e-06
1.90024e-06
1.68829e-06
1.45812e-06
1.18307e-06
9.86802e-07
1.28233e-06
1.42591e-06
1.72828e-06
2.02454e-06
2.35971e-06
2.83776e-06
3.8339e-06
6.64242e-06
1.34851e-05
2.08039e-05
1.27224e-05
6.47082e-06
3.86883e-06
2.89295e-06
2.39433e-06
2.03164e-06
1.71847e-06
1.42901e-06
1.15942e-06
1.05201e-06
1.45511e-06
1.49038e-06
1.72903e-06
2.04155e-06
2.48413e-06
3.25028e-06
4.78543e-06
8.656e-06
1.67715e-05
2.39745e-05
1.51435e-05
7.96556e-06
4.78735e-06
3.48015e-06
2.76292e-06
2.25351e-06
1.8423e-06
1.52724e-06
1.34391e-06
1.36657e-06
2.95206e-06
2.35496e-06
2.3044e-06
2.59592e-06
3.12003e-06
4.04475e-06
5.98554e-06
1.03961e-05
1.86348e-05
2.48102e-05
1.60546e-05
8.81301e-06
5.72051e-06
4.39357e-06
3.6085e-06
3.00374e-06
2.48567e-06
2.18248e-06
2.24424e-06
2.59811e-06
5.71853e-06
4.91309e-06
4.52226e-06
5.12682e-06
5.9497e-06
6.83469e-06
8.63421e-06
1.27452e-05
1.97251e-05
2.40328e-05
1.63623e-05
1.00016e-05
7.63834e-06
6.84883e-06
6.20251e-06
5.40647e-06
4.55324e-06
3.84239e-06
3.49679e-06
3.78933e-06
8.06052e-06
8.39647e-06
1.12126e-05
1.41843e-05
1.62278e-05
1.70521e-05
1.8065e-05
2.08475e-05
2.57597e-05
2.8455e-05
2.26423e-05
1.80656e-05
1.64703e-05
1.59305e-05
1.5185e-05
1.3602e-05
1.09988e-05
8.1022e-06
5.60272e-06
5.00862e-06
1.03267e-05
1.49724e-05
1.99995e-05
2.53978e-05
3.12462e-05
3.78023e-05
4.56497e-05
5.52339e-05
6.57891e-05
7.18754e-05
6.0688e-05
4.89479e-05
3.9692e-05
3.2494e-05
2.66591e-05
2.16763e-05
1.72196e-05
1.3254e-05
9.63356e-06
6.43908e-06
7.75847e-07
1.08153e-06
1.33424e-06
1.55428e-06
1.74699e-06
1.9015e-06
2.00708e-06
2.22118e-06
2.73076e-06
3.29015e-06
3.35578e-06
3.17766e-06
2.94636e-06
2.71213e-06
2.47245e-06
2.21246e-06
1.92271e-06
1.60329e-06
1.26117e-06
9.29915e-07
1.01409e-06
9.42741e-07
1.11455e-06
1.25856e-06
1.37768e-06
1.50394e-06
1.69702e-06
2.05926e-06
2.62392e-06
2.75306e-06
2.38705e-06
2.0921e-06
1.91571e-06
1.80735e-06
1.72099e-06
1.62211e-06
1.49001e-06
1.31325e-06
1.08342e-06
1.01448e-06
1.15214e-06
1.16084e-06
1.35846e-06
1.50654e-06
1.60892e-06
1.70948e-06
1.88125e-06
2.24234e-06
3.03273e-06
3.79279e-06
2.9975e-06
2.34189e-06
2.03291e-06
1.87813e-06
1.77124e-06
1.65616e-06
1.51025e-06
1.32702e-06
1.09292e-06
9.92387e-07
1.13467e-06
1.39871e-06
1.66092e-06
1.83019e-06
1.93797e-06
2.03034e-06
2.20655e-06
2.6707e-06