/*--------------------------------*- C++ -*----------------------------------*\
  =========                 |
  \\      /  F ield         | OpenFOAM: The Open Source CFD Toolbox
   \\    /   O peration     | Website:  https://openfoam.org
    \\  /    A nd           | Version:  9
     \\/     M anipulation  |
\*---------------------------------------------------------------------------*/
FoamFile
{
    format      ascii;
    class       volScalarField;
    location    "300";
    object      nut;
}
// * * * * * * * * * * * * * * * * * * * * * * * * * * * * * * * * * * * * * //

dimensions      [0 2 -1 0 0 0 0];

internalField   nonuniform List<scalar> 
4000
(
0.000582624
0.000546146
0.000493686
0.000438749
0.000391041
0.000377181
0.000389736
0.000409534
0.000421665
0.000426864
0.00042982
0.000430095
0.000429511
0.00042989
0.000434082
0.000445781
0.000464332
0.000487079
0.000513876
0.000545097
0.000632093
0.000601845
0.000550775
0.000492771
0.000445397
0.000420664
0.000417017
0.000425684
0.000441169
0.000458627
0.00046746
0.000470585
0.000471106
0.000471256
0.000474189
0.000482568
0.000498329
0.000521101
0.000550744
0.000590248
0.000661505
0.000642896
0.000597569
0.000539538
0.000493067
0.000463008
0.000453207
0.000453956
0.000461369
0.00047433
0.000489385
0.000494489
0.000491481
0.000487902
0.000487065
0.00049192
0.000505461
0.000530267
0.000573865
0.000616621
0.000679441
0.000673113
0.000640369
0.000586671
0.000532511
0.000498173
0.00048104
0.000479111
0.000482556
0.000488324
0.00049561
0.000497632
0.000489016
0.000482515
0.000476389
0.000477359
0.000497712
0.000540459
0.000595384
0.000631408
0.00069248
0.000698935
0.000684756
0.000652367
0.000598502
0.000539373
0.000513681
0.000503411
0.000501652
0.000503634
0.000506205
0.000505082
0.00049747
0.000486564
0.000482794
0.0004999
0.000536753
0.000580879
0.000620617
0.000642353
0.000703581
0.000722893
0.000728448
0.00072202
0.000706339
0.000678061
0.000622556
0.000566899
0.000538565
0.000529291
0.000526682
0.000525432
0.000533893
0.000556726
0.000581647
0.000604122
0.000623846
0.000641679
0.000654253
0.000654028
0.000714882
0.000746568
0.000770083
0.000784763
0.000792604
0.000793344
0.000785257
0.000764078
0.000700946
0.000658331
0.000657611
0.000678547
0.000700746
0.000714635
0.000719963
0.000717968
0.000710948
0.000700997
0.000686701
0.000664609
0.00072755
0.000771241
0.000809796
0.000839979
0.000863333
0.000879526
0.000887401
0.000884165
0.000858072
0.000837395
0.000836371
0.000837399
0.000834589
0.000826285
0.000812487
0.000793743
0.000770784
0.000744175
0.000712059
0.000673383
0.000743477
0.000801085
0.00085318
0.000896345
0.000932107
0.000959893
0.000978234
0.000984101
0.000967552
0.000949451
0.000946607
0.000939808
0.000926416
0.00090697
0.00088228
0.000852925
0.000819192
0.000780897
0.000735433
0.000683014
0.000763703
0.00083097
0.000890773
0.000938756
0.000978371
0.00101065
0.0010356
0.00105169
0.00105387
0.00104642
0.00103985
0.00102482
0.00100269
0.000975054
0.000942834
0.000906451
0.000865746
0.000819638
0.000764171
0.000698211
0.000546146
0.000527829
0.00048403
0.000439855
0.000409413
0.000407695
0.000424817
0.00044843
0.000465509
0.000474185
0.000480585
0.000483424
0.000481945
0.000479184
0.000479219
0.000487778
0.000504672
0.000526211
0.000549296
0.000562472
0.000601845
0.000848327
0.000892846
0.000865036
0.00088495
0.000945369
0.000946287
0.000937798
0.00108468
0.0012814
0.0013769
0.0013681
0.00131898
0.00123813
0.00114348
0.00105621
0.000994078
0.000944531
0.000861978
0.000611494
0.000642896
0.000977634
0.00107052
0.00108034
0.00110869
0.00119968
0.00128235
0.00130155
0.00137642
0.00157261
0.001778
0.00180539
0.00170197
0.00155675
0.00139522
0.00124623
0.00113688
0.00106745
0.000971035
0.000639738
0.000673113
0.00104736
0.00115448
0.00115911
0.00116911
0.0012573
0.00139653
0.00149553
0.00157187
0.00169178
0.00185479
0.00195476
0.0019063
0.00173486
0.00151778
0.00131074
0.00116154
0.00109816
0.00104389
0.000656909
0.000698935
0.00111948
0.00124744
0.00123755
0.00118369
0.00119748
0.0013033
0.00144694
0.00157202
0.00167433
0.00177063
0.00183458
0.00182792
0.00172622
0.00150614
0.0012498
0.00111759
0.00111642
0.00110449
0.000670528
0.000722893
0.0011922
0.00135941
0.00139013
0.00134937
0.00127322
0.00125638
0.00131265
0.00140075
0.00148152
0.00153286
0.00153721
0.00148288
0.0013738
0.00124359
0.00115662
0.00114065
0.00117403
0.00114932
0.000683358
0.000746568
0.00125178
0.00146243
0.00157839
0.00164249
0.00165379
0.00160027
0.0014992
0.00142258
0.0013917
0.00137909
0.00135406
0.00131987
0.00129685
0.00128699
0.00128486
0.00128455
0.00127462
0.00118626
0.000694745
0.000771241
0.00127985
0.00151779
0.0017117
0.00188745
0.0020277
0.00211368
0.00212131
0.00198054
0.00184578
0.00178936
0.00175988
0.00172136
0.00166625
0.00160046
0.00152533
0.00143781
0.00133554
0.00117895
0.000705662
0.000801085
0.00120808
0.00144146
0.0016469
0.00183469
0.00199245
0.00210669
0.00217079
0.00215808
0.002085
0.00198533
0.00189856
0.00180454
0.00170298
0.00159666
0.00148525
0.00136672
0.0012413
0.00108742
0.000719946
0.00083097
0.00091105
0.000983206
0.00104326
0.00109447
0.00113754
0.00117213
0.00119643
0.00120626
0.00120181
0.00118724
0.00116252
0.0011295
0.00109028
0.00104612
0.000997654
0.000944805
0.000886536
0.000818354
0.000738589
0.000493686
0.00048403
0.000456145
0.000427959
0.000418226
0.000428092
0.000448332
0.000475755
0.000495778
0.000506791
0.000514711
0.000519537
0.000517746
0.000512426
0.000507589
0.00050862
0.000519433
0.000536014
0.000552288
0.000556485
0.000550775
0.000892846
0.00100023
0.00106501
0.00116834
0.00125707
0.00122771
0.00119767
0.00137635
0.00163937
0.00179916
0.00180705
0.0017413
0.00162025
0.00147409
0.00133606
0.00122288
0.00111764
0.000958757
0.000613843
0.000597569
0.00107052
0.00126326
0.00136609
0.00150076
0.00168118
0.00179219
0.00180717
0.00190252
0.00215509
0.00242323
0.00245944
0.00232304
0.00210114
0.00184913
0.00162099
0.00145388
0.00131542
0.00111794
0.00064927
0.000640369
0.00115448
0.0013808
0.00148332
0.00159494
0.00179079
0.00201887
0.00217871
0.00228798
0.00244012
0.00264375
0.002765
0.00266887
0.00240469
0.00207946
0.00177678
0.00157076
0.00144417
0.00125064
0.000671926
0.000684756
0.00124744
0.00150854
0.00159257
0.00161996
0.00173497
0.00196069
0.00221213
0.00240718
0.00255
0.00267414
0.0027501
0.00272149
0.0025327
0.00219446
0.00183082
0.00162774
0.00155197
0.00138412
0.000689587
0.000728448
0.00135941
0.00167592
0.00179972
0.00181094
0.00180133
0.00190403
0.00209479
0.00229118
0.0024365
0.00251752
0.00252505
0.00244497
0.00227322
0.00202737
0.00180426
0.00169075
0.00165506
0.00149359
0.000705693
0.000770083
0.00146243
0.00184172
0.00207082
0.00220336
0.00225946
0.00226775
0.00228394
0.00231244
0.00233833
0.00233418
0.00227863
0.0021715
0.00204909
0.00195128
0.00188317
0.00183379
0.00176154
0.00153204
0.000723338
0.000809796
0.00151779
0.0019476
0.00230998
0.00262247
0.00287059
0.00301443
0.00303682
0.00291025
0.0027793
0.00270752
0.00264454
0.00256057
0.00245669
0.0023335
0.00219261
0.00202505
0.00181528
0.0014969
0.000742652
0.00085318
0.00144146
0.00189639
0.00232725
0.00271341
0.00302944
0.00325843
0.00343184
0.00337616
0.00327475
0.00323579
0.00311166
0.00290171
0.00267801
0.00244529
0.00220353
0.0019465
0.00166708
0.00134048
0.00076598
0.000890773
0.000983206
0.00106532
0.00113483
0.00119491
0.00124623
0.00128864
0.00132054
0.00133931
0.00133966
0.00131628
0.00128262
0.00124052
0.0011922
0.0011391
0.00108178
0.00102011
0.000952926
0.000875347
0.00078429
0.000438749
0.000439855
0.000427959
0.000420886
0.000427338
0.000441564
0.000462907
0.000494066
0.00051767
0.000531638
0.000542901
0.000548331
0.000544925
0.000536567
0.000526141
0.000517788
0.000516473
0.000521962
0.000528976
0.000526359
0.000492771
0.000865036
0.00106501
0.00123772
0.00139911
0.0014772
0.0014189
0.00138731
0.00159866
0.001909
0.00209787
0.00211901
0.00204059
0.00189692
0.00171997
0.00154158
0.00137745
0.00121198
0.000990668
0.000589665
0.000539538
0.00108034
0.00136609
0.00159325
0.00183893
0.00206863
0.00218393
0.00219443
0.00231141
0.00261283
0.00290297
0.00293144
0.00276599
0.00249294
0.00218297
0.00189918
0.00166683
0.00145846
0.00117484
0.000635427
0.000586671
0.00115911
0.00148332
0.0017085
0.00195475
0.00225697
0.00254284
0.00272677
0.00285499
0.00303965
0.00326346
0.00336315
0.00321297
0.00288265
0.0024777
0.00211634
0.00185645
0.00164923
0.00133458
0.000668916
0.000652367
0.00123755
0.00159257
0.00179295
0.00195988
0.00222009
0.00256829
0.00289587
0.00312682
0.0032914
0.00342826
0.00349598
0.00341548
0.00313543
0.00269872
0.00229606
0.00202991
0.0018435
0.00150873
0.000696026
0.00072202
0.00139013
0.00179972
0.00202515
0.00215484
0.00230773
0.00257806
0.00290181
0.00317139
0.00334339
0.00342843
0.00342451
0.00331611
0.00308561
0.00275576
0.00242648
0.002197
0.00202687
0.00167142
0.000720201
0.000784763
0.00157839
0.00207082
0.00240021
0.00263689
0.00282924
0.0029998
0.00315993
0.00328446
0.00335156
0.0033486
0.00326898
0.00312173
0.00293068
0.00272968
0.00254585
0.00237826
0.00217578
0.00177245
0.000744712
0.000839979
0.0017117
0.00230998
0.00281909
0.00325469
0.00357734
0.00373491
0.00377791
0.00372054
0.00363132
0.00355434
0.00346728
0.00336254
0.00322491
0.00304912
0.00283533
0.00256964
0.00222914
0.00173931
0.000774405
0.000896345
0.0016469
0.00232725
0.00298546
0.00352888
0.00388877
0.00400058
0.00401195
0.00394361
0.00385308
0.00381684
0.00376702
0.00368077
0.00351709
0.00323951
0.0029059
0.00251543
0.00206114
0.00155129
0.000805972
0.000938756
0.00104326
0.00113483
0.00121307
0.00128125
0.00134034
0.00139137
0.00143237
0.00146105
0.00146806
0.00143516
0.00139072
0.00133859
0.00128144
0.00122063
0.00115609
0.00108716
0.0010122
0.000926015
0.000824384
0.000391041
0.000409413
0.000418226
0.000427338
0.000437843
0.000451044
0.000473178
0.000507631
0.000536146
0.000553979
0.00056881
0.000572103
0.000565847
0.000553878
0.000538209
0.000521213
0.000506576
0.000498331
0.000491821
0.000480337
0.000445397
0.00088495
0.00116834
0.00139911
0.00155871
0.00161579
0.0015575
0.0015486
0.00181555
0.00217408
0.00235363
0.00236454
0.00227253
0.0021137
0.00191835
0.00170862
0.00149369
0.00126277
0.000983007
0.000543952
0.000493067
0.00110869
0.00150076
0.00183893
0.00214794
0.00238278
0.00248711
0.00250276
0.0026679
0.00303825
0.00330961
0.0033027
0.00310593
0.00279883
0.00245084
0.00211819
0.00182398
0.00154037
0.00118209
0.000596547
0.000532511
0.00116911
0.00159494
0.00195475
0.00232601
0.0027032
0.00301284
0.0031949
0.00333794
0.00356762
0.00380925
0.00385252
0.00363045
0.00323544
0.00278185
0.00237272
0.00204927
0.00175432
0.00134642
0.000642979
0.000598502
0.00118369
0.00161996
0.00195988
0.00230472
0.00272895
0.00318275
0.00354117
0.00376395
0.00393486
0.00408925
0.00413497
0.00397087
0.00358043
0.00309059
0.00263899
0.00230127
0.0020015
0.00153942
0.00068474
0.000706339
0.00134937
0.00181094
0.00215484
0.00246042
0.00283234
0.00328796
0.0037088
0.00398789
0.0041441
0.0042271
0.00420784
0.0040519
0.00374393
0.00332759
0.00290177
0.00257271
0.00226084
0.00174311
0.000721911
0.000792604
0.00164249
0.00220336
0.00263689
0.00301241
0.00336464
0.00369948
0.00398882
0.00417773
0.00425941
0.00425061
0.00414202
0.00395256
0.00370736
0.00342517
0.00313466
0.00283443
0.00247375
0.00190009
0.000757653
0.000863333
0.00188745
0.00262247
0.00325469
0.00374704
0.00406949
0.00427072
0.00437758
0.00439524
0.00434946
0.00426648
0.00413765
0.00399003
0.00383486
0.00364019
0.00338084
0.00302636
0.00255721
0.00191132
0.000796956
0.000932107
0.00183469
0.00271341
0.00352888
0.00404308
0.004267
0.00435286
0.00435822
0.00432384
0.00425216
0.00421039
0.00415051
0.00406997
0.00395813
0.00378398
0.00345367
0.00297367
0.00238135
0.00171741
0.000838182
0.000978371
0.00109447
0.00119491
0.00128125
0.00135807
0.00142562
0.00148492
0.00153654
0.00157758
0.00159351
0.00154897
0.00149199
0.00142896
0.0013625
0.00129295
0.00122122
0.00114545
0.00106332
0.000969273
0.000858143
0.000377181
0.000407695
0.000428092
0.000441564
0.000451044
0.000462939
0.000483082
0.000520088
0.000555515
0.000578551
0.000593436
0.000591403
0.000580048
0.000563278
0.000542586
0.000519454
0.000497361
0.00047695
0.000455685
0.000432751
0.000420664
0.000945369
0.00125707
0.0014772
0.00161579
0.00168818
0.00167527
0.00171222
0.0020424
0.00244212
0.00259247
0.00257253
0.00245827
0.0022891
0.00208344
0.0018502
0.0015856
0.00128975
0.000949654
0.000492301
0.000463008
0.00119968
0.00168118
0.00206863
0.00238278
0.00260811
0.00271756
0.00275026
0.00298269
0.00341084
0.00366211
0.00361607
0.00338744
0.00305861
0.00269072
0.00232226
0.00196562
0.00159808
0.00116218
0.00054133
0.000498173
0.0012573
0.00179079
0.00225697
0.0027032
0.00310965
0.00341202
0.00355785
0.00369708
0.00397723
0.00426483
0.00425228
0.00396678
0.00352293
0.00303329
0.00257889
0.00218221
0.00179382
0.00130846
0.000596148
0.000539373
0.00119748
0.00173497
0.00222009
0.00272895
0.00328036
0.00377657
0.00407801
0.00422449
0.0043919
0.00460817
0.00465163
0.00439446
0.00391929
0.0033719
0.00287113
0.0024534
0.00204296
0.00148912
0.000655668
0.000678061
0.00127322
0.00180133
0.00230773
0.00283234
0.00342302
0.00400881
0.00441118
0.00459842
0.00471209
0.00483139
0.00483302
0.00463272
0.00421461
0.00370613
0.00322091
0.00279652
0.00235303
0.00171717
0.000709941
0.000793344
0.00165379
0.00225946
0.00282924
0.00336464
0.00387866
0.00436281
0.004717
0.00488094
0.00494945
0.00496372
0.00485327
0.00461732
0.00430554
0.00394039
0.00355348
0.00313914
0.00264052
0.00192981
0.000759002
0.000879526
0.0020277
0.00287059
0.00357734
0.00406949
0.00443274
0.00471728
0.00491757
0.00498727
0.00499505
0.0049306
0.00473366
0.00450118
0.00429106
0.00408224
0.00379728
0.00337237
0.00278386
0.00200311
0.000808096
0.000959893
0.00199245
0.00302944
0.00388877
0.004267
0.00446097
0.00455333
0.00461678
0.00467489
0.00465277
0.00457337
0.00444121
0.00432267
0.00420901
0.00406067
0.00381705
0.00332232
0.00262165
0.00182684
0.000860763
0.00101065
0.00113754
0.00124623
0.00134034
0.00142562
0.0015018
0.00157313
0.00164097
0.00170047
0.00172892
0.00166731
0.00159139
0.00151327
0.00143551
0.00135776
0.00127789
0.00119462
0.00110548
0.00100424
0.000885116
0.000389736
0.000424817
0.000448332
0.000462907
0.000473178
0.000483082
0.000497022
0.000533687
0.000579491
0.000604843
0.000613334
0.000604842
0.000587803
0.000567061
0.000543736
0.000521164
0.000496525
0.000469396
0.000439229
0.000407465
0.000417017
0.000946287
0.00122771
0.0014189
0.0015575
0.00167527
0.00175552
0.00184267
0.00220339
0.00263033
0.00279399
0.002749
0.00261706
0.00243225
0.00220324
0.00191719
0.00161625
0.00129296
0.000923406
0.000450016
0.000453207
0.00128235
0.00179219
0.00218393
0.00248711
0.00271756
0.0028444
0.00289223
0.00316917
0.00360725
0.00387908
0.0038537
0.00363154
0.00330091
0.00292531
0.0025291
0.0021114
0.00166476
0.00115587
0.000496504
0.00048104
0.00139653
0.00201887
0.00254284
0.00301284
0.00341202
0.00366329
0.00374736
0.00390485
0.00424452
0.00451783
0.00452199
0.00424127
0.00378415
0.00327394
0.00277836
0.00230684
0.00182339
0.00126339
0.00053912
0.000513681
0.0013033
0.00196069
0.00256829
0.00318275
0.00377657
0.00420824
0.00440695
0.00456401
0.00479462
0.00498626
0.0049847
0.00470787
0.00418441
0.00358755
0.00302958
0.00252195
0.00200278
0.00138102
0.000606158
0.000622556
0.00125638
0.00190403
0.00257806
0.00328796
0.00400881
0.00457653
0.00489815
0.00512739
0.00530037
0.00535024
0.00529057
0.00504458
0.00453996
0.00395027
0.00339546
0.00287337
0.00230912
0.00160105
0.000684793
0.000785257
0.00160027
0.00226775
0.0029998
0.00369948
0.00436281
0.00491798
0.00527088
0.00550602
0.00566816
0.00560002
0.00541153
0.00513059
0.00471552
0.00426259
0.0037966
0.00328493
0.00266598
0.00186388
0.000749036
0.000887401
0.00211368
0.00301443
0.00373491
0.00427072
0.00471728
0.00511421
0.00540098
0.00560119
0.00572339
0.00562525
0.00529872
0.00494303
0.00463312
0.00437047
0.00406485
0.00358716
0.00289293
0.00201669
0.000807536
0.000978234
0.00210669
0.00325843
0.00400058
0.00435286
0.00455333
0.00472408
0.00496103
0.0052034
0.00528672
0.00510613
0.00476948
0.00452745
0.00436856
0.00421638
0.00398656
0.00356674
0.00278306
0.00187597
0.000871735
0.0010356
0.00117213
0.00128864
0.00139137
0.00148492
0.00157313
0.00166256
0.00175567
0.00184307
0.00188897
0.00180248
0.00169626
0.00159547
0.00150212
0.00141347
0.00132576
0.0012341
0.0011379
0.0010302
0.000905009
0.000409534
0.00044843
0.000475755
0.000494066
0.000507631
0.000520088
0.000533687
0.000546756
0.000611384
0.000643043
0.000637893
0.000623016
0.00061014
0.000587997
0.000562847
0.00053671
0.00050945
0.000479829
0.00044653
0.000409718
0.000425684
0.000937798
0.00119767
0.00138731
0.0015486
0.00171222
0.00184267
0.00189184
0.00217964
0.0026356
0.00285299
0.00288447
0.00276051
0.00254877
0.00227098
0.00197189
0.00165602
0.00131674
0.00093529
0.000430019
0.000453956
0.00130155
0.00180717
0.00219443
0.00250276
0.00275026
0.00289223
0.00295623
0.00325235
0.00378197
0.00395258
0.00395805
0.00382516
0.00352023
0.00313675
0.00270688
0.00224485
0.00174688
0.00118148
0.000465098
0.000479111
0.00149553
0.00217871
0.00272677
0.0031949
0.00355785
0.00374736
0.00387659
0.00420094
0.00473709
0.00476742
0.00462029
0.00443445
0.00403325
0.00352456
0.00300059
0.00246873
0.00190773
0.00127805
0.000500282
0.000503411
0.00144694
0.00221213
0.00289587
0.00354117
0.00407801
0.00440695
0.00469652
0.00505197
0.00553072
0.00547858
0.00516116
0.00489541
0.00441302
0.00379064
0.00317491
0.00258033
0.00196686
0.00129486
0.000546154
0.000566899
0.00131265
0.00209479
0.00290181
0.0037088
0.00441118
0.00489815
0.00537853
0.00576663
0.00617528
0.00606733
0.00560905
0.00527499
0.00476903
0.00411018
0.00347041
0.00284151
0.00216763
0.00142768
0.000645442
0.000764078
0.0014992
0.00228394
0.00315993
0.00398882
0.004717
0.00527088
0.00583559
0.00622675
0.00657761
0.00645316
0.00589289
0.00547512
0.00498478
0.00443154
0.0038757
0.00326698
0.0025485
0.00171704
0.000729332
0.000884165
0.00212131
0.00303682
0.00377791
0.00437758
0.00491757
0.00540098
0.0059567
0.00634678
0.0066253
0.00651881
0.00585799
0.00530842
0.00486685
0.00450442
0.00414336
0.00363378
0.00287491
0.00195519
0.000797739
0.000984101
0.00217079
0.00343184
0.00401195
0.00435822
0.00461678
0.00496103
0.00547981
0.00593188
0.00613742
0.00588855
0.00520492
0.00472839
0.00446508
0.00427645
0.00403633
0.00364225
0.00285135
0.00185705
0.00086879
0.00105169
0.00119643
0.00132054
0.00143237
0.00153654
0.00164097
0.00175567
0.00188331
0.00200448
0.00206832
0.00195867
0.00180918
0.00167607
0.00156178
0.00145938
0.00136196
0.00126291
0.0011587
0.00104501
0.000915623
0.000421665
0.000465509
0.000495778
0.00051767
0.000536146
0.000555515
0.000579491
0.000611384
0.000645221
0.000698521
0.000689509
0.000679316
0.000662655
0.000632046
0.000596577
0.000562764
0.000532285
0.000500316
0.000464347
0.000422235
0.000441169
0.00108468
0.00137635
0.00159866
0.00181555
0.0020424
0.00220339
0.00217964
0.00193557
0.00228208
0.00257442
0.00300542
0.0030116
0.00281266
0.00252632
0.00219544
0.00184892
0.00148421
0.00106996
0.000433599
0.000461369
0.00137642
0.00190252
0.00231141
0.0026679
0.00298269
0.00316917
0.00325235
0.00297733
0.00336684
0.00378336
0.00408229
0.00401367
0.0037587
0.00336637
0.00291463
0.00242466
0.00189346
0.00128724
0.000451729
0.000482556
0.00157187
0.00228798
0.00285499
0.00333794
0.00369708
0.00390485
0.00420094
0.003933
0.00426537
0.00483209
0.00485736
0.00456952
0.00426665
0.00377823
0.00323635
0.00266575
0.00205488
0.00136476
0.000477838
0.000501652
0.00157202
0.00240718
0.00312682
0.00376395
0.00422449
0.00456401
0.00505197
0.00479808
0.00504106
0.00576565
0.00552994
0.00500615
0.00461554
0.00401359
0.00335824
0.0027027
0.00202857
0.00130852
0.000509605
0.000538565
0.00140075
0.00229118
0.00317139
0.00398789
0.00459842
0.00512739
0.00576663
0.00553883
0.00570638
0.00652923
0.00607746
0.00539996
0.00493241
0.00424888
0.00352467
0.00279646
0.00203843
0.00128624
0.000590435
0.000700946
0.00142258
0.00231244
0.00328446
0.00417773
0.00488094
0.00550602
0.00622675
0.00609382
0.00621863
0.00703085
0.00640995
0.00566486
0.00513781
0.00449511
0.00383961
0.00312852
0.00232955
0.00151905
0.000701477
0.000858072
0.00198054
0.00291025
0.00372054
0.00439524
0.00498727
0.00560119
0.00634678
0.006463
0.00657197
0.00720598
0.00640978
0.00557185
0.00498662
0.00451109
0.00407455
0.00352055
0.00273845
0.00180452
0.000777196
0.000967552
0.00215808
0.00337616
0.00394361
0.00432384
0.00467489
0.0052034
0.00593188
0.00637717
0.00652525
0.00662997
0.00567713
0.00491606
0.00450917
0.00425389
0.00398549
0.00358149
0.00285003
0.00176651
0.000847721
0.00105387
0.00120626
0.00133931
0.00146105
0.00157758
0.00170047
0.00184307
0.00200448
0.00214608
0.0022032
0.00211332
0.00191973
0.00174831
0.00160958
0.0014919
0.00138403
0.00127651
0.00116334
0.00104205
0.00090754
0.000426864
0.000474185
0.000506791
0.000531638
0.000553979
0.000578551
0.000604843
0.000643043
0.000698521
0.000727608
0.000739885
0.000732716
0.000709169
0.00067038
0.000631696
0.000594831
0.00055857
0.000521431
0.000480875
0.000433074
0.000458627
0.0012814
0.00163937
0.001909
0.00217408
0.00244212
0.00263033
0.0026356
0.00228208
0.00148501
0.00210493
0.00340046
0.00321452
0.0030332
0.00275054
0.00243091
0.00208469
0.0017031
0.00123666
0.000446458
0.00047433
0.00157262
0.00215509
0.00261283
0.00303825
0.00341084
0.00360725
0.00378197
0.00336684
0.00219712
0.00352475
0.00464553
0.0042378
0.00402081
0.00363308
0.00318513
0.00269651
0.00215476
0.00150836
0.000454136
0.000488324
0.00169178
0.00244012
0.00303965
0.00356762
0.00397723
0.00424452
0.00473709
0.00426537
0.00296065
0.00485335
0.00547026
0.00478622
0.00450086
0.00402792
0.00347643
0.00289264
0.00226064
0.00153119
0.000469167
0.000503634
0.00167433
0.00255
0.0032914
0.00393486
0.0043919
0.00479462
0.00553072
0.00504106
0.00377161
0.00599485
0.00611421
0.00521084
0.00481855
0.00424551
0.00357206
0.00288401
0.00217527
0.0014077
0.000489989
0.000529291
0.00148152
0.0024365
0.00334339
0.0041441
0.00471209
0.00530037
0.00617528
0.00570638
0.00458843
0.00686926
0.00658581
0.00557383
0.00508247
0.0044034
0.00362381
0.00282832
0.00201972
0.0012487
0.000547706
0.000658331
0.0013917
0.00233833
0.00335156
0.00425941
0.00494945
0.00566816
0.00657761
0.00621863
0.00533562
0.00739876
0.00681161
0.00580535
0.00523381
0.00452756
0.00377863
0.00297743
0.00212357
0.00135318
0.000674553
0.000837395
0.00184578
0.0027793
0.00363132
0.00434946
0.00499505
0.00572339
0.0066253
0.00657197
0.00598429
0.00756053
0.00672975
0.00570964
0.00503044
0.00445623
0.00394203
0.0033383
0.00254277
0.00164182
0.000754337
0.000949451
0.002085
0.00327475
0.00385308
0.00425216
0.00465277
0.00528672
0.00613742
0.00652525
0.00629811
0.00695258
0.00590299
0.00498432
0.00448803
0.00418625
0.00389166
0.00347408
0.0027482
0.00163123
0.000822816
0.00104642
0.00120181
0.00133966
0.00146806
0.00159351
0.00172892
0.00188897
0.00206832
0.0022032
0.0021538
0.00219119
0.00198114
0.00178422
0.00162759
0.00149817
0.00138169
0.00126768
0.00114992
0.00102612
0.000891793
0.00042982
0.000480585
0.000514711
0.000542901
0.00056881
0.000593436
0.000613334
0.000637893
0.000689509
0.000739885
0.000747986
0.000744359
0.000714725
0.000680762
0.000646961
0.000613192
0.000577837
0.000539192
0.000494827
0.000441798
0.00046746
0.0013769
0.00179916
0.00209787
0.00235363
0.00259247
0.00279399
0.00285299
0.00257442
0.00210493
0.00247439
0.0033484
0.00329
0.00309816
0.00282832
0.00252391
0.00218498
0.00179184
0.00128615
0.00045685
0.000489385
0.001778
0.00242323
0.00290297
0.00330961
0.00366211
0.00387908
0.00395258
0.00378336
0.00352475
0.00414582
0.00463083
0.00440276
0.00413453
0.00374863
0.00331676
0.00284582
0.00231362
0.00163432
0.000461525
0.00049561
0.00185479
0.00264375
0.00326346
0.00380925
0.00426483
0.00451783
0.00476742
0.00483209
0.00485335
0.00544053
0.00542619
0.00504538
0.00469229
0.00419517
0.00364791
0.00307204
0.00244811
0.00169678
0.000467312
0.000506205
0.00177063
0.00267414
0.00342826
0.00408925
0.00460817
0.00498626
0.00547858
0.00576565
0.00599485
0.00642911
0.00607291
0.00553051
0.00505064
0.00443128
0.00375073
0.00305163
0.00232636
0.00152418
0.000480395
0.000526682
0.00153286
0.00251752
0.00342843
0.0042271
0.00483139
0.00535024
0.00606733
0.00652923
0.00686926
0.00711389
0.00652398
0.00586814
0.00528481
0.00454589
0.0037387
0.00290848
0.00206394
0.00125889
0.00052944
0.000657611
0.00137909
0.00233418
0.0033486
0.00425061
0.00496372
0.00560002
0.00645316
0.00703085
0.00739876
0.00745452
0.00670489
0.00599535
0.0053368
0.00456287
0.00374635
0.00288982
0.0020088
0.00126646
0.000657126
0.000836371
0.00178936
0.00270752
0.00355434
0.00426648
0.0049306
0.00562525
0.00651881
0.00720598
0.00756053
0.00744442
0.00654863
0.00573371
0.00502404
0.00440949
0.0038417
0.00318539
0.00237364
0.0015308
0.000740059
0.000946607
0.00198533
0.00323579
0.00381684
0.00421039
0.00457337
0.00510613
0.00588855
0.00662997
0.00695258
0.00660129
0.00563194
0.0049131
0.00447808
0.00417248
0.00385905
0.00341656
0.00257746
0.00154298
0.000810562
0.00103985
0.00118724
0.00131628
0.00143516
0.00154897
0.00166731
0.00180248
0.00195867
0.00211332
0.00219119
0.00205886
0.00186986
0.00170786
0.00157497
0.00146022
0.00135354
0.00124668
0.0011358
0.00101626
0.000884356
0.000430095
0.000483424
0.000519537
0.000548331
0.000572103
0.000591403
0.000604842
0.000623016
0.000679316
0.000732716
0.000744359
0.000726664
0.000702062
0.00067555
0.000648272
0.000618996
0.000585993
0.00054778
0.000502486
0.000449624
0.000470585
0.0013681
0.00180705
0.00211901
0.00236454
0.00257253
0.002749
0.00288447
0.00300542
0.00340046
0.0033484
0.00333732
0.00323506
0.00303327
0.00278677
0.00250647
0.0021821
0.00179291
0.00128091
0.000463429
0.000494489
0.00180539
0.00245944
0.00293144
0.0033027
0.00361607
0.0038537
0.00395805
0.00408229
0.00464553
0.00463083
0.00449144
0.00433568
0.00403573
0.00367045
0.00326598
0.00281336
0.00228851
0.00160247
0.000464272
0.000497632
0.00195476
0.002765
0.00336315
0.00385252
0.00425228
0.00452199
0.00462029
0.00485736
0.00547026
0.00542619
0.00522963
0.00500396
0.00461191
0.00414215
0.00363539
0.00308638
0.00247821
0.00172472
0.00046422
0.000505082
0.00183458
0.0027501
0.00349598
0.00413497
0.00465163
0.0049847
0.00516116
0.00552994
0.00611421
0.00607291
0.00584805
0.00553038
0.00503029
0.00443424
0.00379015
0.00310445
0.00237714
0.00156547
0.000474299
0.000525432
0.00153721
0.00252505
0.00342451
0.00420784
0.00483302
0.00529057
0.00560905
0.00607746
0.00658581
0.00652398
0.0062716
0.00589449
0.00529033
0.00456395
0.00377556
0.00294226
0.00207636
0.00124676
0.00052953
0.000678547
0.00135406
0.00227863
0.00326898
0.00414202
0.00485327
0.00541153
0.00589289
0.00640995
0.00681161
0.00670489
0.00640448
0.00596663
0.00531753
0.00454518
0.00372083
0.00284752
0.00196007
0.00122998
0.000649762
0.000837399
0.00175988
0.00264454
0.00346728
0.00413765
0.00473366
0.00529872
0.00585799
0.00640978
0.00672975
0.00654863
0.00610019
0.00554063
0.00494839
0.00438341
0.00378651
0.00308383
0.00226884
0.00147106
0.000732554
0.000939808
0.00189856
0.00311166
0.00376702
0.00415051
0.00444121
0.00476948
0.00520492
0.00567713
0.00590299
0.00563194
0.00512765
0.00473105
0.00443367
0.00416062
0.00383602
0.00334338
0.00244642
0.00149821
0.000803519
0.00102482
0.00116252
0.00128262
0.00139072
0.00149199
0.00159139
0.00169626
0.00180918
0.00191973
0.00198114
0.00186986
0.00173738
0.00161743
0.00151075
0.00141233
0.0013165
0.00121775
0.00111476
0.00100156
0.000875159
0.000429511
0.000481945
0.000517746
0.000544925
0.000565847
0.000580048
0.000587803
0.00061014
0.000662655
0.000709169
0.000714725
0.000702062
0.0006841
0.000664458
0.000643034
0.000618253
0.000588511
0.000552584
0.000509065
0.000459
0.000471106
0.00131898
0.0017413
0.00204059
0.00227253
0.00245827
0.00261706
0.00276051
0.0030116
0.00321452
0.00329
0.00323506
0.00308702
0.00289315
0.00267284
0.00241864
0.00211538
0.0017443
0.00125369
0.000469422
0.000491481
0.00170197
0.00232304
0.00276599
0.00310593
0.00338744
0.00363154
0.00382516
0.00401367
0.0042378
0.00440276
0.00433568
0.00410484
0.00379394
0.00345451
0.00308396
0.00266138
0.00216324
0.00151276
0.000465833
0.000489016
0.0019063
0.00266887
0.00321297
0.00363045
0.00396678
0.00424127
0.00443445
0.00456952
0.00478622
0.00504538
0.00500396
0.0047151
0.00430903
0.00387758
0.00342043
0.00290947
0.00232458
0.0016039
0.000454711
0.00049747
0.00182792
0.00272149
0.00341548
0.00397087
0.00439446
0.00470787
0.00489541
0.00500615
0.00521084
0.00553051
0.00553038
0.00520524
0.0047147
0.00418665
0.00362334
0.00299098
0.00228194
0.0014946
0.000471709
0.000533893
0.00148288
0.00244497
0.00331611
0.0040519
0.00463272
0.00504458
0.00527499
0.00539996
0.00557383
0.00586814
0.00589449
0.00555074
0.00500099
0.00438092
0.00368664
0.00288942
0.00202853
0.00120622
0.000537985
0.000700746
0.00131987
0.0021715
0.00312173
0.00395256
0.00461732
0.00513059
0.00547512
0.00566486
0.00580535
0.00599535
0.00596663
0.0056286
0.00509106
0.00444431
0.00368629
0.00283226
0.00195316
0.00122391
0.000648088
0.000834589
0.00172136
0.00256057
0.00336254
0.00399003
0.00450118
0.00494303
0.00530842
0.00557185
0.00570964
0.00573371
0.00554063
0.00520542
0.00482448
0.0043573
0.0037482
0.00302505
0.00221773
0.00144487
0.000726754
0.000926416
0.00180454
0.00290171
0.00368077
0.00406997
0.00432267
0.00452745
0.00472839
0.00491606
0.00498432
0.0049131
0.00473105
0.0045477
0.00435409
0.00411266
0.00377817
0.00319109
0.00234037
0.0014713
0.000795221
0.00100269
0.0011295
0.00124052
0.00133859
0.00142896
0.00151327
0.00159547
0.00167607
0.00174831
0.00178422
0.00170786
0.00161743
0.00152817
0.00144214
0.00135776
0.00127172
0.00118205
0.00108642
0.000980114
0.000860853
0.00042989
0.000479184
0.000512426
0.000536567
0.000553878
0.000563278
0.000567061
0.000587997
0.000632046
0.00067038
0.000680762
0.00067555
0.000664458
0.000650762
0.000634453
0.00061421
0.000588678
0.000556839
0.000517441
0.000471848
0.000471256
0.00123813
0.00162025
0.00189692
0.0021137
0.0022891
0.00243225
0.00254877