/*--------------------------------*- C++ -*----------------------------------*\
  =========                 |
  \\      /  F ield         | OpenFOAM: The Open Source CFD Toolbox
   \\    /   O peration     | Website:  https://openfoam.org
    \\  /    A nd           | Version:  9
     \\/     M anipulation  |
\*---------------------------------------------------------------------------*/
FoamFile
{
    format      ascii;
    class       surfaceScalarField;
    location    "300";
    object      phi;
}
// * * * * * * * * * * * * * * * * * * * * * * * * * * * * * * * * * * * * * //

dimensions      [1 0 -1 0 0 0 0];

internalField   nonuniform List<scalar> 
11200
(
0.00279694
-0.00559366
0.00279694
0.00342045
-0.00263788
0.00201457
0.00249112
-0.000128221
0.00105767
0.000708647
0.00150043
0.000282134
-0.000762068
0.00166476
-0.000194104
-0.00178415
0.00149874
-0.000476776
-0.00355946
0.0021979
-0.000422791
-0.00611108
0.00254291
8.31763e-06
-0.00752799
0.00124857
0.000168096
-0.00770391
-1.11193e-05
0.00018695
-0.00710318
-0.000739764
0.000139095
-0.00614352
-0.000973407
1.38407e-05
-0.00510656
-0.000920233
-0.000116617
-0.00423321
-0.000638084
-0.000235169
-0.00374193
-0.000172089
-0.000319106
-0.00371795
0.000333074
-0.000356963
-0.00401015
0.000627222
-0.000334896
-0.00411157
0.000288778
-0.000187229
-0.00328447
-0.000925075
9.81415e-05
-0.00383175
0.00054748
0.00182739
-0.00924827
0.00182739
0.00283776
-0.00515112
0.00150305
0.00283862
-0.00101125
0.000882301
0.00218454
0.00177165
0.000382841
0.00111356
0.0027218
1.38442e-05
0.000152196
0.00279424
-0.000334289
-0.000480959
0.00328246
-0.000451631
-0.00159667
0.00397777
-0.000319455
-0.00348422
0.0033062
-0.000170296
-0.00517314
0.00186454
-0.000186769
-0.00590261
0.000250364
-0.00026065
-0.00575966
-0.00080835
-0.000307916
-0.00515606
-0.00116162
-0.000362083
-0.00445725
-0.000915682
-0.000421071
-0.00389456
-0.000259074
-0.00047557
-0.00358558
0.000520197
-0.000495996
-0.0034632
0.000977841
-0.000472895
-0.00322503
0.000398118
-0.000347391
-0.00223979
-0.00199362
8.34639e-05
-0.00683507
0.000763705
0.00119607
-0.0116403
0.00119607
0.00207396
-0.00739976
0.00137086
0.00271338
-0.00277113
0.00112056
0.00295643
0.000867025
0.000661557
0.00251813
0.00292281
0.000237248
0.00190676
0.00352999
-0.000124494
0.00161594
0.00394169
-0.0003686
0.00142641
0.00457498
-0.000407933
0.000446164
0.00459449
-0.000308314
-0.00129457
0.0038389
-0.000233803
-0.00302832
0.00228632
-0.000302248
-0.00407166
0.000617883
-0.000382858
-0.00411903
-0.000703973
-0.000410174
-0.00368934
-0.000929263
-0.000415975
-0.00311126
-0.000426513
-0.00041051
-0.00267766
0.000473091
-0.000386383
-0.00235937
0.000922053
-0.00026243
-0.00188251
-0.000140818
6.2142e-05
-0.00107081
-0.00331341
0.000508175
-0.00900972
0.00110395
0.000731123
-0.0131025
0.000731123
0.00111067
-0.00915676
0.00137748
0.00166114
-0.00487864
0.00155709
0.00239848
-0.00125625
0.00138593
0.00285672
0.00158662
0.000877854
0.00280403
0.00320041
0.000382164
0.0028397
0.00388783
1.80216e-05
0.00296852
0.00462354
-0.000177604
0.00275003
0.00499701
-0.000184288
0.00200024
0.00470107
-0.000112605
0.000765783
0.003632
-0.000111372
-0.000605323
0.00216551
-0.000176583
-0.00157911
0.000517653
-0.000247814
-0.00184245
-0.000412536
-0.000253318
-0.0015706
-0.000519323
-0.000178951
-0.00110436
6.05614e-06
8.38806e-07
-0.000569864
-5.15205e-07
0.000388057
-0.000162246
-0.00140221
0.000853776
0.000182263
-0.00485157
0.00119367
-0.0103065
0.00147911
0.000315323
-0.0137332
0.000315323
9.3003e-05
-0.0102779
0.00134346
2.07604e-05
-0.00673715
0.00193072
0.000475458
-0.00393182
0.00222085
0.0014217
-0.00155732
0.00219757
0.0024196
0.000506749
0.00169555
0.0030984
0.00206249
0.00114635
0.00357114
0.00344609
0.000704471
0.00383085
0.00425164
0.000485405
0.00375387
0.00434132
0.000436485
0.00336493
0.00358936
0.000431384
0.00282976
0.00230419
0.000396369
0.00208881
0.000909986
0.00034855
0.00144205
-0.000105921
0.000340122
0.0012961
-0.000902507
0.000529171
0.00149623
-0.00120141
0.00100733
0.00173987
-0.00175902
0.0015148
0.00175842
-0.00319837
0.00177756
0.00119519
-0.00614196
0.00185358
-0.0108992
0.00178786
-5.90106e-05
-0.0136152
-5.90104e-05
-0.000749351
-0.0108303
0.00124265
-0.00121848
-0.00822509
0.00195698
-0.00130402
-0.00630601
0.00245965
-0.000920148
-0.00479061
0.00284932
7.30105e-05
-0.00352281
0.00303629
0.00149426
-0.00216431
0.00280532
0.00304024
-0.000570813
0.00247066
0.00397069
0.001234
0.00208694
0.00440613
0.00205501
0.00185063
0.00466935
0.0015445
0.00178144
0.0047483
0.00042897
0.00179611
0.00464791
-0.000858181
0.00186851
0.00453676
-0.00200389
0.00200916
0.00425587
-0.00279166
0.00217004
0.00401104
-0.00327731
0.00232068
0.00369458
-0.00383099
0.00238835
0.00310358
-0.00491824
0.00231078
0.00193605
-0.00712195
0.00214744
-0.0108995
0.00193636
-0.000378473
-0.0128583
-0.000378472
-0.00140711
-0.0107894
0.000987607
-0.0021289
-0.00908412
0.00158071
-0.00236927
-0.00803638
0.00197061
-0.00211527
-0.00729985
0.00225512
-0.00149053
-0.00669429
0.00254662
-0.000477051
-0.00602541
0.0028475
0.00104432
-0.00517246
0.00308014
0.00247215
-0.0034888
0.00329481
0.00361303
-0.0024917
0.00340567
0.00461933
-0.00284991
0.00338799
0.00538418
-0.00364936
0.00331341
0.00581354
-0.00448434
0.00319671
0.0058657
-0.00508351
0.00302734
0.00564691
-0.00540781
0.00283481
0.00526833
-0.00553948
0.00264061
0.00470652
-0.00570986
0.00244054
0.0038107
-0.00624094
0.00221838
0.00232548
-0.00763386
0.00199701
-0.0103648
0.00179063
-0.000898973
-0.0110605
-0.000898973
-0.00228858
-0.0096443
0.000244375
-0.00321667
-0.00875744
0.000601259
-0.00352119
-0.0084148
0.00068281
-0.00321386
-0.00827167
0.000664346
-0.00239744
-0.00817913
0.000668291
-0.00118986
-0.00799967
0.000766558
0.00015352
-0.00757957
0.0010636
0.00155005
-0.00662338
0.00173793
0.00295007
-0.00607164
0.00217979
0.00434875
-0.00638135
0.00213262
0.00548492
-0.00674553
0.00195987
0.00621915
-0.00698634
0.00176763
0.00655623
-0.00704266
0.00162193
0.00654509
-0.00692393
0.00152713
0.00623071
-0.0067005
0.00147525
0.00557924
-0.00650559
0.00144705
0.00446643
-0.00654288
0.0014146
0.00268661
-0.0072164
0.00136221
-0.00898373
0.00130546
-0.00189679
-0.00726706
-0.00189679
-0.00376924
-0.00657295
-0.00119904
-0.00488448
-0.0063681
-0.00127425
-0.00522813
-0.0065213
-0.00154999
-0.00485706
-0.00677124
-0.00187164
-0.00385487
-0.00703125
-0.00215019
-0.00232791
-0.00721727
-0.00230949
-0.000473422
-0.00721464
-0.00221953
0.00135268
-0.00682278
-0.00162682
0.00298617
-0.00651723
-0.00118803
0.00469001
-0.00676151
-0.0013238
0.00614807
-0.00681691
-0.0013868
0.00718957
-0.00668074
-0.00134724
0.00777695
-0.00640399
-0.00122618
0.00792837
-0.00602805
-0.00104745
0.00765402
-0.00560152
-0.000824771
0.00691245
-0.00519248
-0.000571702
0.00557628
-0.00489792
-0.000308951
0.00340051
-0.004971
-6.97759e-05
-0.00583857
0.000255218
-0.0036336
-0.0036336
-0.00615742
-0.00404929
-0.00746556
-0.00506011
-0.00786046
-0.00612655
-0.00743944
-0.00719239
-0.00627326
-0.00819756
-0.00442042
-0.00907023
-0.00198196
-0.00965322
0.000674204
-0.00947906
0.00330321
-0.00914635
0.00575265
-0.00921107
0.00767705
-0.00874143
0.00898568
-0.00798949
0.00970868
-0.00712712
0.00989657
-0.00621607
0.00958026
-0.00528535
0.00872766
-0.00434003
0.00720185
-0.00337227
0.00456798
-0.00233729
-0.00127074
0.00201457
-0.00263788
0.00342045
0.00256707
-0.00110483
0.00256707
0.00186219
0.000426177
0.00133647
0.000624748
0.00133742
0.000182211
-0.000326575
0.00125741
-0.00050025
-0.00112282
0.00117293
-0.000853568
-0.00273864
0.00191783
-0.000724975
-0.00521105
0.00250031
-1.99308e-05
-0.00686754
0.00155199
0.000272323
-0.00732787
0.000374057
0.000273094
-0.00695241
-0.000390102
0.000153752
-0.00612771
-0.000773881
-3.68965e-05
-0.00516499
-0.000820705
-0.000258528
-0.00433938
-0.000609318
-0.000451353
-0.00388474
-0.000205983
-0.000567659
-0.00387295
0.000178328
-0.000546978
-0.00412113
0.000255008
-0.000341579
-0.00415808
-0.000259607
0.000109493
-0.00322678
-0.00162036
0.000787422
-0.0042267
0.00154763
0.00150305
-0.00515113
0.00283776
0.00254478
-0.00318812
0.00254478
0.00270538
-0.000599351
0.00174733
0.00222144
0.00130605
0.000898125
0.00134374
0.00201053
0.000138371
0.000466855
0.00214799
-0.000432578
-0.00013578
0.00269331
-0.000624662
-0.00113146
0.00350903
-0.000332777
-0.002799
0.00310064
-5.16365e-05
-0.00440724
0.00185594
-6.04929e-05
-0.00525455
0.000406585
-0.000210026
-0.00534646
-0.000639797
-0.000350009
-0.00494796
-0.0011132
-0.000467957
-0.00441481
-0.00100193
-0.000561456
-0.00397313
-0.000508017
-0.000615062
-0.00377415
9.17905e-05
-0.000608305
-0.00373173
0.000200911
-0.000461075
-0.00349839
-0.000763068
-7.70998e-05
-0.00243733
-0.00313179
0.000534003
-0.00727209
0.00137194
0.00137086
-0.00739976
0.00207396
0.00253507
-0.00551642
0.00253507
0.00325815
-0.00250713
0.00230539
0.00341275
0.000225303
0.00158773
0.00291557
0.0019712
0.000773757
0.00224421
0.00260412
9.06909e-05
0.00183399
0.00307536
-0.00034056
0.00159406
0.00374073
-0.000399901
0.000734239
0.00387721
-0.000225295
-0.000810308
0.00325378
-8.7264e-05
-0.00241411
0.00189545
-0.000187362
-0.00349031
0.000414634
-0.000361057
-0.00375628
-0.00080252
-0.000454783
-0.00356671
-0.00111565
-0.000491689
-0.00322541
-0.000796184
-0.000463492
-0.00296277
-0.00020931
-0.000347792
-0.00279997
-0.000147649
-7.65514e-05
-0.00247645
-0.00139529
0.000370958
-0.00160833
-0.00442702
0.000935404
-0.00933927
0.00156292
0.00137748
-0.00915676
0.00111067
0.00231703
-0.00739544
0.00231703
0.0030304
-0.00439647
0.00273313
0.00353145
-0.00131986
0.00243013
0.00365533
0.00106684
0.00165834
0.00341338
0.00236039
0.000867825
0.00322398
0.00302899
0.000253714
0.00320311
0.00364297
-5.91211e-05
0.00296887
0.00398982
-6.28533e-05
0.00227444
0.00377104
6.43867e-05
0.00110119
0.0028677
8.95172e-05
-0.00025869
0.00159366
4.22587e-06
-0.0013014
0.000133013
-0.000140601
-0.00171488
-0.000781825
-0.000173581
-0.00164451
-0.00101332
-3.20944e-05
-0.00150462
-0.000650709
0.000302427
-0.00136573
-0.000708725
0.00081028
-0.00112161
-0.00216215
0.00137656
-0.000699262
-0.005422
0.00176635
-0.0105307
0.00197135
0.00134346
-0.0102779
9.30032e-05
0.00188781
-0.00848414
0.00188781
0.00211945
-0.00565048
0.00295311
0.00244978
-0.00274731
0.003318
0.00297896
-0.000376674
0.00311189
0.003398
0.00128787
0.00234899
0.00367366
0.00231796
0.00158165
0.00394261
0.00306902
0.00100935
0.00411011
0.00356197
0.000745593
0.00401033
0.00357999
0.000727143
0.00357728
0.00296126
0.000770724
0.00291254
0.00188297
0.000771711
0.00201579
0.000660464
0.000717814
0.00116108
-0.000286808
0.00069981
0.000660275
-0.000956695
0.000973391
0.000511752
-0.00107477
0.00157992
0.000526744
-0.00145557
0.00224663
0.000418968
-0.00292388
0.00264705
0.000225628
-0.00605168
0.00267658
-0.0108871
0.00236989
0.00124265
-0.0108303
-0.000749351
0.0014205
-0.0088399
0.0014205
0.00116335
-0.00626881
0.00283243
0.000988065
-0.00375558
0.00364317
0.00118034
-0.00179418
0.00407453
0.00184059
-0.000368436
0.00403229
0.00269171
0.000753502
0.00351856
0.00356804
0.0017093
0.00295392
0.00420633
0.0024944
0.00251607
0.00457911
0.00274516
0.00231251
0.00473074
0.00229905
0.00229187
0.00462825
0.00142708
0.00235436
0.00427035
0.000422921
0.00246389
0.0037988
-0.000461621
0.00265551
0.00322259
-0.00114056
0.0029301
0.00273572
-0.0015441
0.00327684
0.00226494
-0.0021493
0.0035528
0.00166048
-0.00355773
0.00354903
0.000844726
-0.00633851
0.00324997
-0.0106155
0.0025094
0.000987607
-0.0107894
-0.00140711
0.000846925
-0.00855863
0.000846926
0.000314502
-0.00640094
0.00224517
2.48145e-05
-0.00456022
0.00306486
2.98594e-05
-0.00314948
0.00360532
0.000370841
-0.00211582
0.00395296
0.00111111
-0.0012667
0.00412737
0.00214102
-0.000393295
0.00415276
0.00309472
0.000730155
0.00410526
0.00393393
0.0012012
0.00411031
0.00462124
0.000846604
0.00415303
0.00506094
7.43323e-05
0.00422639
0.00516702
-0.000785955
0.00429948
0.00493528
-0.00150602
0.00430345
0.00443484
-0.0020279
0.00422253
0.00382878
-0.00241079
0.00411328
0.00313302
-0.00295478
0.00394169
0.00226777
-0.00409655
0.00362236
0.00117135
-0.00635245
0.00310729
-0.00987051
0.00221696
0.000244375
-0.0096443
-0.00228858
-0.000189884
-0.00769023
-0.000189884
-0.000858453
-0.0060052
0.000873976
-0.00115209
-0.00490902
0.00132515
-0.00103378
-0.00411668
0.00151315
-0.000572476
-0.00352812
0.00161922
0.000122421
-0.00300235
0.00180725
0.000968456
-0.0023926
0.0022168
0.0019546
-0.0014675
0.00294938
0.00302728
-0.00113588
0.00344412
0.00403569
-0.00149928
0.00347003
0.00476532
-0.00201862
0.00332313
0.00512728
-0.00250816
0.00312781
0.00514597
-0.00287684
0.00297398
0.00488556
-0.00310693
0.00286648
0.00442078
-0.00326482
0.00279396
0.00374391
-0.00353753
0.00270657
0.00277462
-0.00422101
0.00250823
0.00147086
-0.00577867
0.00209208
-0.00841588
0.00132159
-0.00119904
-0.00657295
-0.00376924
-0.00244371
-0.00520102
-0.0024437
-0.00330467
-0.00432609
-0.00209251
-0.00361545
-0.00390876
-0.00223959
-0.00335799
-0.00367037
-0.0025755
-0.00259475
-0.00351102
-0.00293062
-0.00141429
-0.00334812
-0.00314426
1.1919e-05
-0.00306735
-0.00297105
0.00149955
-0.00235523
-0.00222679
0.00278519
-0.00206201
-0.0015476
0.00413325
-0.00267759
-0.00149362
0.00524338
-0.00302058
-0.00149504
0.00600225
-0.00318412
-0.00143023
0.00636847
-0.00323454
-0.0012348
0.0063718
-0.00319811
-0.000959705
0.00603711
-0.00312723
-0.000627784
0.00532797
-0.00312215
-0.00027807
0.00412628
-0.00334526
1.68585e-05
0.00230495
-0.00409339
6.61324e-05
-0.00562637
-0.000229471
-0.00404929
-0.00615742
-0.00664987
-0.00664987
-0.00806741
-0.00796879
-0.00857919
-0.00952365
-0.00829239
-0.0111497
-0.00726159
-0.0127395
-0.00552237
-0.0141577
-0.00307924
-0.0151638
0.000189796
-0.0151034
0.0036611
-0.0146798
0.00635112
-0.0145788
0.00829914
-0.0137101
0.00953184
-0.0124064
0.0101327
-0.0109626
0.0101857
-0.00946734
0.00974405
-0.00797106
0.00877653
-0.00649479
0.00711296
-0.0050541
0.00435725
-0.00367512
-0.00254001
0.00105767
-0.000128221
0.00249112
0.00133647
0.000426176
0.00186219
0.00081999
0.00103301
0.00081999
0.000113037
0.00100776
-0.000118619
-0.000371169
0.000725505
-0.000741638
-0.000801856
0.000704108
-0.0011271
-0.00212015
0.00147236
-0.000879194
-0.00437224
0.00217317
5.86895e-05
-0.00604628
0.00150755
0.000438552
-0.00667962
0.000466623
0.000439658
-0.00649454
-0.000294663
0.000263315
-0.00580954
-0.000727119
5.27726e-06
-0.00494399
-0.000843222
-0.000280764
-0.0041589
-0.000702978
-0.00053335
-0.00367863
-0.000370532
-0.000677294
-0.00359244
-1.91111e-05
-0.000613965
-0.00371427
3.94182e-05
-0.000259044
-0.00367025
-0.000342159
0.000407797
-0.0027701
-0.00142003
0.00130752
-0.00332754
0.0021053
0.000882302
-0.00101125
0.00283862
0.00174733
-0.000599351
0.00270538
0.00204938
0.00042891
0.00204938
0.00170012
0.00117315
0.00108196
0.00106381
0.00133295
0.000167198
0.000436794
0.00137037
-0.000471895
-2.57144e-05
0.00193724
-0.000627178
-0.000850366
0.00281293
-0.000148109
-0.00234151
0.00263691
0.000309938
-0.00385532
0.00159083
0.000329013
-0.00474611
0.000271711
0.000114382
-0.00496645
-0.000724722
-0.000131995
-0.00472167
-0.00121868
-0.000337154
-0.00432593
-0.00118876
-0.00047125
-0.0040023
-0.000801967
-0.000507086
-0.00386463
-0.00035209
-0.000412834
-0.00382449
-0.000339078
-0.00012254
-0.00349023
-0.00116527
0.000411931
-0.00240643
-0.00307423
0.00110459
-0.00613202
0.00177018
0.00112056
-0.00277113
0.00271338
0.00230539
-0.00250713
0.00325815
0.00308158
-0.00112335
0.00308158
0.00321059
0.000361903
0.00227001
0.00275595
0.00130951
0.00125188
0.00216751
0.00166133
0.000388169
0.0018044
0.002071
-0.000111289
0.00159081
0.00274612
-0.000119654
0.000816644
0.0030156
0.000169991
-0.000606009
0.00255292
0.000373155
-0.0021254
0.00136416
0.000239534
-0.00319433
-8.95426e-06
-7.85898e-06
-0.00358875
-0.00109492
-0.000184019
-0.00360205
-0.00141418
-0.000252815
-0.00348771
-0.00118711
-0.000192524
-0.00343885
-0.000752815
4.23692e-06
-0.00337596
-0.000826953
0.000348582
-0.00300103
-0.00201607
0.000846959
-0.00197388
-0.0045093
0.00134345
-0.00822586
0.00168299
0.00155709
-0.00487865
0.00166114
0.00273313
-0.00439647
0.0030304
0.00359713
-0.00285123
0.00359713
0.00403726
-0.000905339
0.00325735
0.00399536
0.000640311
0.00236951
0.00362923
0.00149228
0.00140306
0.00333132
0.00196572
0.000656905
0.00322897
0.00248378
0.000305494
0.00296316
0.00286927
0.000349163
0.00226016
0.00278028
0.000539894
0.00108618
0.00204865
0.000578923
-0.000280821
0.000900335
0.000461917
-0.00137068
-0.00043047
0.00028486
-0.0019445
-0.00127189
0.000258038
-0.002164
-0.00145115
0.000451556
-0.00229598
-0.00113542
0.000817115
-0.00234035
-0.00127964
0.00130742
-0.00211009
-0.00266779
0.0017981
-0.00140975
-0.00547382
0.0020306
-0.00955955
0.00189534
0.00193072
-0.00673715
2.07605e-05
0.00295311
-0.00565048
0.00211945
0.00352016
-0.00398528
0.00352016
0.00389619
-0.00195313
0.00398983
0.00414962
-0.000184042
0.00368289
0.00418029
0.000988562
0.0028221
0.00413718
0.00164256
0.00194794
0.00418198
0.00211626
0.00133204
0.00420334
0.00249411
0.0010993
0.0040007
0.00255724
0.00115272
0.00347168
0.00209285
0.00125544
0.00266641
0.00118771
0.00128955
0.00159876
0.000116993
0.00123799
0.000585456
-0.000840378
0.00128164
-0.000165625
-0.00133221
0.00160559
-0.000590715
-0.00131544
0.00218506
-0.000792273
-0.0016076
0.00277617
-0.000883321
-0.00302189
0.0030922
-0.000715352
-0.00588506
0.00291986
-0.0101241
0.00221904
0.00195698
-0.00822509
-0.00121848
0.00283243
-0.00626881
0.00116335
0.00304531
-0.00441106
0.00304531
0.00302087
-0.00241977
0.00413429
0.00308769
-0.000744105
0.00456781
0.0033494
0.000393556
0.00436563
0.00370289
0.00109768
0.00370996
0.00411438
0.00160168
0.003057
0.00445389
0.00202444
0.00264619
0.00463413
0.00215367
0.00253576
0.00460836
0.0018012
0.00260922
0.00431217
0.00109206
0.00274614
0.00373603
0.000256426
0.00290056
0.00294009
-0.000492075
0.00310315
0.00208727
-0.000975375
0.00342609
0.00138447
-0.001204
0.00386818
0.000810457
-0.00170103
0.00422021
0.000286008
-0.00311232
0.0041639
-5.55065e-08
-0.00592064
0.00357159
-0.00996927
0.00235453
0.00158071
-0.00908413
-0.0021289
0.00224517
-0.00640094
0.000314503
0.0022617
-0.00444416
0.0022617
0.00206303
-0.00263632
0.00348005
0.00197124
-0.00125595
0.00420895
0.00211262
-0.000292465
0.00449762
0.00252465
0.000381639
0.00443141
0.00311109
0.000938209
0.0042298
0.00366373
0.00149316
0.00408389
0.00413988
0.00168764
0.00410017
0.00453225
0.00132822
0.00423359
0.00468756
0.000734516
0.00442859
0.00449654
0.000100732
0.00464618
0.00401075
-0.000519875
0.00481702
0.00330635
-0.000944112
0.00489565
0.00255323
-0.00126186
0.00492422
0.00181884
-0.00184389
0.0048189
0.00109571
-0.00316388
0.00439698
0.000425264
-0.00569572
0.00355275
-0.00931702
0.00198989
0.000601259
-0.00875744
-0.00321667
0.000873976
-0.0060052
-0.000858453
0.000674107
-0.0040445
0.000674107
0.000522184
-0.0026791
0.00151979
0.000572424
-0.00169508
0.00190201
0.000864698
-0.00102656
0.00206103
0.0013787
-0.00054188
0.00221677
0.00205719
-6.75976e-05
0.00254413
0.00260379
0.000898697
0.00299725
0.00318055
0.00110646
0.00344853
0.00386037
0.000424876
0.00369355
0.00435525
-0.00023015
0.00379291
0.00448954
-0.00064608
0.00374032
0.00427172
-0.00102189
0.00369378
0.00382234
-0.00132285
0.00369455
0.00326336
-0.00160821
0.00369923
0.00261793
-0.00209664
0.00360467
0.00184314
-0.0031189
0.00323797
0.00092962
-0.00512316
0.00243294
-0.00805987
0.000993944
-0.00127425
-0.0063681
-0.00488448
-0.00209251
-0.00432609
-0.00330467
-0.00258704
-0.00305552
-0.00258704
-0.00269525
-0.0023073
-0.00250324
-0.00240623
-0.0017797
-0.00277995
-0.00175791
-0.00134169
-0.00326385
-0.000769176
-0.000861462
-0.00381344
0.000348577
-0.000191944
-0.00396448
0.00167173
0.000674258
-0.00332552
0.00292793
0.000909945
-0.00260732
0.00401698
0.000182705
-0.00234052
0.00481629
-0.000500314
-0.00202422
0.00534142
-0.00103315
-0.00156833
0.00551029
-0.00135688
-0.00106873
0.00540584
-0.00154664
-0.000631534
0.00507087
-0.00168637
-0.000214731
0.00449921
-0.00190822
0.000105076
0.00357957
-0.00241446
0.000231956
0.0020858
-0.0035262
-3.71862e-05
-0.00547854
-0.000725129
-0.00506011
-0.00746556
-0.00796879
-0.00806741
-0.00949661
-0.00949661
-0.010055
-0.0112727
-0.00978336
-0.0132011
-0.00871659
-0.015148
-0.00684825
-0.0168876
-0.00403489
-0.0181692
-9.38946e-05
-0.0183702
0.0041121
-0.0179759
0.00727625
-0.0175603
0.00941902
-0.0163533
0.0106866
-0.0147072
0.0112481
-0.0128811
0.0112219
-0.0109879
0.0107004
-0.00913602
0.00965674
-0.00735948
0.00788408
-0.00569603
0.00489734
-0.00421473
-0.00312137
0.000282134
0.00150043
0.000708647
0.000182211
0.00133742
0.000624748
-0.000118619
0.00100776
0.000113037
-0.000411311
0.0005853
-0.000411311
-0.000550045
0.000269138
-0.000872135
-0.000732778
0.000304673
-0.00124914
-0.00176603
0.00103176
-0.000877839
-0.00370423
0.00172052
0.000276112
-0.0053279
0.00123341
0.000828581
-0.00609361
0.000331404
0.000873824
-0.00607909
-0.000370948
0.000619706
-0.00554015
-0.000775231
0.000241609
-0.00476685
-0.000902392
-0.000151592
-0.0039857
-0.000808798
-0.000505611
-0.00339623
-0.000539119
-0.000727566
-0.0030952
-0.000184679
-0.000730242
-0.00298334
2.58134e-05
-0.000396655
-0.00276167
-6.01989e-05
0.000246423
-0.00195079
-0.000549807
0.00104658
-0.00150534
0.00166003
0.000382841
0.00177165
0.00218454
0.000898125
0.00130605
0.00222144
0.00108196
0.00117315
0.00170012
0.000868501
0.00101221
0.000868501
0.000512962
0.000736731
5.51258e-05
0.000192348
0.000658821
-0.000505471
-4.9794e-05
0.00117978
-0.000533162
-0.000729677
0.00206179
0.000190322
-0.00209583
0.0020359
0.000873432
-0.00355375
0.00114984
0.00096842
-0.00446946
-2.14161e-05
0.000680542
-0.00474677
-0.000929102
0.000299254
-0.00458699
-0.00138259
-1.66244e-05
-0.00424269
-0.0013944
-0.00022979
-0.00392497
-0.00108005
-0.00028372
-0.00371373
-0.000661933
-0.000146655
-0.00352463
-0.000488446
0.000202784
-0.00306785
-0.000869857
0.000764964
-0.00198533
-0.00191838
0.00139081
-0.0035734
0.00185309
0.000661557
0.000867025
0.00295643
0.00158773
0.000225303
0.00341275
0.00227001
0.000361903
0.00321059
0.00240924
0.000733802
0.00240924
0.00212396
0.00084804
0.00142591
0.00173899
0.00083974
0.000592237
0.00153041
0.0011292
0.000147832
0.00139564
0.00179717
0.000279628
0.000664542
0.00217745
0.000759394
-0.000707542
0.00182702
0.00106795
-0.00216783
0.000778534
0.000899843
-0.00317263
-0.000489105
0.000556986
-0.00361832
-0.0014227
0.000301892
-0.00372939
-0.00172976
0.000193765
-0.00371772
-0.00154044
0.000256374
-0.00370126
-0.00116006
0.000486084
-0.00359153
-0.00112874
0.00087931
-0.00310649
-0.00187356
0.00136577
-0.0019757
-0.00343592
0.00173033
-0.0056301
0.0017641
0.00138593
-0.00125625
0.00239848
0.00243013
-0.00131986
0.00353145
0.00325735
-0.00090534
0.00403726
0.00369035
-0.000132072
0.00369035
0.00364587
0.000462446
0.00279969
0.0033331
0.000740198
0.00181547
0.00308337
0.000968598
0.00106727
0.00298983
0.00142917
0.000767005
0.00269937
0.00188734
0.000929648
0.00192619
0.00191385
0.00122615
0.000689841
0.00130856
0.00128519
-0.000672771
0.000213689
0.00112173
-0.00175344
-0.000976829
0.00091973
-0.00239639
-0.00172428
0.000895627
-0.00276484
-0.00180654
0.00108626
-0.00300255
-0.00153264
0.00142754
-0.00305759
-0.00161942
0.00185325
-0.00271595
-0.00263149
0.00221449
-0.00176384
-0.00459302
0.00223567
-0.00728146
0.0017829
0.00222085
-0.00393182
0.000475458
0.003318
-0.00274731
0.00244978
0.00398983
-0.00195313
0.00389619
0.00439164
-0.000935563
0.00439164
0.00452443
-3.41449e-05
0.00404682
0.0043958
0.000499754
0.00319131
0.00421274
0.000793087
0.00230662
0.0041318
0.00112884
0.00171334
0.00402616
0.00152565
0.00156661
0.00367675
0.00168186
0.00173407
0.0030011
0.00132835
0.00191124
0.00201348
0.000518416
0.00197242
0.000827628
-0.00047663
0.00192366
-0.000277734
-0.00134576
0.00200855
-0.00112215
-0.00167989
0.00232343
-0.00166136
-0.00159841
0.0027901
-0.00193572
-0.00178168
0.00321285
-0.0018746
-0.00294446
0.0033441
-0.00131134
-0.00517389
0.0029375
-0.00833089
0.00195711
0.00245965
-0.00630601
-0.00130402
0.00364317
-0.00375558
0.000988065
0.00413428
-0.00241977
0.00302087
0.00426619
-0.0011993
0.00426619
0.00430068
-0.000205796
0.00470507
0.00432438
0.000400221
0.00444159
0.00435619
0.000720142
0.0037512
0.00444604
0.00100661
0.00308946
0.00451264
0.00135441
0.00275085
0.00445086
0.00150028
0.00277911
0.00420154
0.00120464
0.00298223
0.00368631
0.000567354
0.00321242
0.00288872
-0.000183973
0.00340549
0.0018811
-0.000848683
0.0036137
0.000879547
-0.00118727
0.00393505
6.72067e-05
-0.00126347
0.00434561
-0.000491378
-0.00159871
0.00459586
-0.000820325
-0.00283883
0.00438722
-0.000721803
-0.00524626
0.00354542
-0.00877395
0.00207572
0.00197061
-0.00803638
-0.00236927
0.00306486
-0.00456022
2.48148e-05
0.00348005
-0.00263632
0.00206303
0.00349684
-0.00123286
0.00349684
0.00340562
-0.000204488
0.00429892
0.00339911
0.000432396
0.00447203
0.00355309
0.000781626
0.00421604
0.00380499
0.00113387
0.00385073
0.00402113
0.00154981
0.00367241
0.0041732
0.00165711
0.0037913
0.00427926
0.00126084
0.00407134
0.00417761
0.000677686
0.00441992
0.00374222
0.000139863
0.00475776
0.00303641
-0.000355805
0.00502997
0.00219332
-0.000669914
0.00522139
0.00138389
-0.000872425
0.0053426
0.000705206
-0.00135677
0.00525563
0.000161245
-0.00260735
0.00470944
-1.88408e-05
-0.00509652
0.00358304
-0.00861018
0.0018072
0.00068281
-0.0084148
-0.00352119
0.00132515
-0.00490902
-0.00115209
0.00151979
-0.0026791
0.000522184
0.00155051
-0.00129431
0.00155051
0.00164697
-0.000456494
0.00205757
0.00187992
7.17367e-05
0.00218879
0.00219115
0.000676785
0.00201044
0.00265516
0.00131666
0.00189739
0.00299867
0.00210216
0.00210144
0.00330715
0.00219483
0.00260236
0.00373184
0.00147226
0.00305746
0.00398087
0.000743307
0.00347827
0.00397786
7.72217e-05
0.00380598
0.00363782
-0.000312107
0.00399013
0.00308109
-0.000545508
0.00412687
0.0024854
-0.000795272
0.00421774
0.0019072
-0.00130122
0.00412728
0.00132105
-0.00241983
0.00363655
0.000689173
-0.00461628
0.0025845
-0.0078211
0.000893911
-0.00154999
-0.0065213
-0.00522813
-0.00223959
-0.00390876
-0.00361545
-0.00250324
-0.0023073
-0.00269525
-0.00249025
-0.00132033
-0.00249025
-0.00226261
-0.000559682
-0.00290443
-0.00184956
9.21106e-05
-0.00369728
-0.00104336
0.000597283
-0.00454015
0.000206176
0.00122662
-0.00512397
0.00173177
0.00223105
-0.00498
0.00304954
0.00253466
-0.00426494
0.00431041
0.0015093
-0.00363844
0.00510748
0.000772449
-0.00285045
0.00536197
0.000263857
-0.00200948
0.00531775
-0.000190749
-0.00114589
0.00512155
-0.000619893
-0.000360988
0.00479333
-0.000930925
0.000249086
0.00431526
-0.00132401
0.000605866
0.00355159
-0.00203288
0.000608589
0.00214412
-0.00339405
0.000147943
-0.00564076
-0.000761484
-0.00612655
-0.00786045
-0.00952365
-0.00857919
-0.0112727
-0.010055
-0.0119329
-0.0119329
-0.0116894
-0.0140044
-0.01054
-0.0162054
-0.00843504
-0.0183953
-0.0051844
-0.0201933
-0.000414868
-0.0209088
0.00480009
-0.0206563
0.0085031
-0.0197541
0.0108982
-0.017976
0.0122644
-0.0158097
0.0127987
-0.0136063
0.0126742
-0.0114834
0.012045
-0.00943787
0.0108792
-0.00751781
0.00892605
-0.00577587
0.00559376
-0.00427663
-0.00316852
-0.000194104
0.00166476
-0.000762068
-0.00050025
0.00125741
-0.000326575
-0.000741637
0.000725505
-0.000371169
-0.000872135
0.000269138
-0.000550045
-0.000878431
1.25017e-05
-0.000878431
-0.00092195
3.91942e-05
-0.00124491
-0.00162601
0.000624742
-0.000798657
-0.00320762
0.00125839
0.000599117
-0.00477658
0.000875549
0.00152179
-0.00572113
9.56799e-05
0.00172257
-0.00589922
-0.000503678
0.00130146
-0.00549799
-0.000813917
0.000654327
-0.00477636
-0.000898435
2.52565e-05
-0.00396281
-0.000810946
-0.000508158
-0.00322704
-0.000584614
-0.000878682
-0.00266291
-0.000267287
-0.00102707
-0.00223757
7.33728e-05
-0.000895387
-0.00182743
0.000320721
-0.000484436
-0.00118764
0.000397987
8.81853e-06
0.000211776
0.000260622
1.38442e-05
0.0027218
0.00111356
0.000138371
0.00201053
0.00134374
0.000167198
0.00133295
0.00106381
5.51258e-05
0.000736731
0.000512962
-6.66965e-05
0.000256137
-6.66965e-05
-0.000123935
8.96223e-05
-0.000498682
-0.000212225
0.000543554
-0.00036376
-0.000758948
0.00139082
0.000604478
-0.00206884
0.00146506
0.00159368
-0.00355569
0.000702343
0.00184855
-0.00452056
-0.000313133
0.00145487
-0.00482121
-0.0010847
0.000870743
-0.00464553
-0.00145199
0.000361348
-0.00424337
-0.00146397
2.12078e-05
-0.00380635
-0.00118751
-0.000117702
-0.00341546
-0.000758664
-4.60423e-05
-0.00301153
-0.000380987
0.00025333
-0.00240237
-0.000231348
0.000707938
-0.001401
-0.000340453
0.00112795
-0.000652805
0.00131676
0.000237248
0.00292281
0.00251813
0.000773757
0.0019712
0.00291557
0.00125188
0.00130951
0.00275595
0.00142591
0.00084804
0.00212396
0.00134412
0.000419769
0.00134412
0.00118483
0.00015797
0.000683208
0.00113008
0.00035256
0.00039356
0.00104069
0.00104907
0.000710692
0.000246415
0.00155632
0.00146231
-0.00116771
0.00128228
0.00190208
-0.00257199
0.000316127
0.00167484
-0.00348623
-0.000842958
0.00122954
-0.00387486
-0.00162042
0.000859058
-0.00392785
-0.00189225
0.000675182
-0.00383617
-0.00171468
0.00069204
-0.00369393
-0.00131702
0.000902375
-0.00342381
-0.00105608
0.00128445
-0.00281415
-0.00119958
0.00172448
-0.00168091
-0.00171538
0.00197213
-0.00241994
0.00185042
0.000877854
0.00158662
0.00285672
0.00165834
0.00106684
0.00365533
0.00236951
0.000640311
0.00399536
0.00279969
0.000462446
0.00364587
0.00286326
0.000292774
0.00286326
0.00271709
0.00011488
0.00200483
0.00258468
0.000190543
0.00136176
0.00251283
0.000703212
0.00118472
0.00213282
0.00132534
0.00154059
0.0011887
0.00147013
0.00198235
-0.00014244
0.000881365
0.00205106
-0.00144972
-0.000249217
0.00183529
-0.00239441
-0.00135241
0.00159649
-0.00295952
-0.00198368
0.0015523
-0.00328352
-0.00200919
0.00170493
-0.00345115
-0.00172201
0.00200032
-0.00339321
-0.00161726
0.00235664
-0.00291864
-0.00206917
0.00260964
-0.00185146
-0.00303671
0.0024899
-0.00440486
0.00191639
0.00219757
-0.00155732
0.0014217
0.00311189
-0.000376674
0.00297896
0.00368289
-0.000184042
0.00414962
0.00404682