/*--------------------------------*- C++ -*----------------------------------*\
  =========                 |
  \\      /  F ield         | OpenFOAM: The Open Source CFD Toolbox
   \\    /   O peration     | Website:  https://openfoam.org
    \\  /    A nd           | Version:  9
     \\/     M anipulation  |
\*---------------------------------------------------------------------------*/
FoamFile
{
    format      ascii;
    class       volScalarField;
    location    "200";
    object      k;
}
// * * * * * * * * * * * * * * * * * * * * * * * * * * * * * * * * * * * * * //

dimensions      [0 2 -2 0 0 0 0];

internalField   nonuniform List<scalar> 
12225
(
0.362813
0.343993
0.327744
0.30982
0.295398
0.283485
0.27551
0.270285
0.270341
0.271882
0.276061
0.280699
0.289888
0.295772
0.306697
0.313251
0.324075
0.334096
0.440186
0.468698
0.461605
0.44837
0.450349
0.458314
0.474539
0.498561
0.524394
0.55215
0.58076
0.606214
0.633886
0.653965
0.679869
0.693342
0.717749
0.72881
0.390541
0.417873
0.420231
0.416826
0.411628
0.407804
0.408018
0.410037
0.414557
0.421403
0.430737
0.439722
0.451206
0.461179
0.4729
0.483629
0.493621
0.506313
0.377546
0.386982
0.391406
0.391341
0.390222
0.387896
0.385662
0.384081
0.382882
0.382896
0.383388
0.384326
0.386307
0.388476
0.390928
0.394279
0.396557
0.401081
0.374561
0.37609
0.378411
0.378665
0.378263
0.377205
0.375488
0.373738
0.37201
0.370454
0.369259
0.368106
0.367383
0.366808
0.366447
0.366348
0.366364
0.36673
0.373814
0.37271
0.372645
0.372383
0.37176
0.370817
0.369553
0.368082
0.366571
0.364976
0.363528
0.362063
0.360755
0.359529
0.358397
0.35743
0.356444
0.355792
0.373782
0.371742
0.370386
0.369287
0.368233
0.367114
0.365915
0.364587
0.363238
0.361808
0.360422
0.359023
0.357677
0.356382
0.35512
0.353966
0.352794
0.351805
0.37382
0.37156
0.369634
0.367977
0.3665
0.365107
0.363775
0.362429
0.361107
0.359766
0.35845
0.357143
0.355863
0.354622
0.3534
0.352249
0.351098
0.350052
0.373832
0.371553
0.369449
0.367525
0.365776
0.364153
0.362645
0.361199
0.359817
0.358473
0.357169
0.355902
0.354667
0.353474
0.352307
0.351195
0.350096
0.349072
0.373831
0.37156
0.369418
0.367405
0.365529
0.363772
0.362133
0.360585
0.359122
0.357728
0.356394
0.355117
0.353888
0.35271
0.351569
0.350481
0.349419
0.34842
0.373829
0.37156
0.369413
0.367378
0.365458
0.363645
0.361937
0.360324
0.358798
0.357353
0.355979
0.354672
0.353424
0.352235
0.351094
0.350008
0.348958
0.347968
0.373828
0.371558
0.369409
0.36737
0.365439
0.363609
0.361875
0.360233
0.358677
0.357201
0.3558
0.354468
0.3532
0.351994
0.350842
0.349747
0.348695
0.3477
0.373827
0.371556
0.369405
0.367365
0.36543
0.363593
0.361851
0.360197
0.358626
0.357134
0.355715
0.354367
0.353084
0.351864
0.3507
0.349594
0.348535
0.347531
0.373827
0.371555
0.369401
0.367359
0.365422
0.363583
0.361837
0.360178
0.3586
0.357101
0.355674
0.354317
0.353024
0.351794
0.350622
0.349506
0.34844
0.347427
0.373826
0.371553
0.369398
0.367355
0.365416
0.363575
0.361826
0.360164
0.358584
0.357081
0.355651
0.354289
0.352993
0.351758
0.35058
0.349459
0.348388
0.347369
0.373826
0.371552
0.369396
0.367351
0.36541
0.363567
0.361817
0.360153
0.358572
0.357067
0.355634
0.354271
0.352972
0.351734
0.350554
0.34943
0.348357
0.347334
0.373825
0.371551
0.369394
0.367348
0.365406
0.363562
0.36181
0.360145
0.358562
0.357055
0.355621
0.354256
0.352955
0.351716
0.350535
0.349408
0.348334
0.347309
0.373825
0.371551
0.369393
0.367346
0.365403
0.363558
0.361805
0.360139
0.358555
0.357047
0.355612
0.354246
0.352944
0.351703
0.350521
0.349393
0.348317
0.347291
0.373825
0.37155
0.369393
0.367346
0.365402
0.363557
0.361804
0.360137
0.358552
0.357044
0.355608
0.354241
0.352938
0.351697
0.350514
0.349385
0.348308
0.347281
0.373825
0.371551
0.369393
0.367347
0.365404
0.363559
0.361806
0.36014
0.358555
0.357047
0.355611
0.354244
0.352942
0.351701
0.350517
0.349389
0.348313
0.347285
0.373825
0.371551
0.369395
0.367349
0.365407
0.363563
0.361811
0.360146
0.358562
0.357055
0.355621
0.354256
0.352955
0.351716
0.350534
0.349408
0.348333
0.347308
0.373826
0.371552
0.369397
0.367352
0.365412
0.363571
0.361822
0.360161
0.358583
0.357083
0.355657
0.354299
0.353007
0.351775
0.350603
0.349484
0.348418
0.347399
0.373826
0.371554
0.369399
0.367359
0.365429
0.363603
0.361875
0.36024
0.358691
0.35722
0.355823
0.354494
0.353227
0.352019
0.350866
0.349763
0.348711
0.347701
0.373828
0.371551
0.369412
0.367417
0.365556
0.363819
0.362189
0.360651
0.359189
0.357794
0.356456
0.355172
0.353936
0.352746
0.351601
0.350496
0.349437
0.34841
0.373823
0.371554
0.369604
0.367893
0.366339
0.364892
0.363495
0.362122
0.360761
0.359414
0.358081
0.35677
0.355489
0.354238
0.353029
0.351856
0.350734
0.349646
0.373788
0.371991
0.371113
0.370266
0.36936
0.368311
0.367048
0.36563
0.364121
0.362575
0.36103
0.359522
0.358073
0.356682
0.355382
0.354142
0.35301
0.351924
0.374355
0.375572
0.377775
0.377858
0.377288
0.375886
0.373835
0.371641
0.369505
0.367482
0.365664
0.364084
0.36271
0.361535
0.36061
0.359818
0.359289
0.3588
0.379125
0.394296
0.398249
0.396573
0.392538
0.387603
0.383646
0.380448
0.378268
0.376852
0.376496
0.37674
0.377414
0.378689
0.38044
0.38242
0.384825
0.387135
0.408394
0.42754
0.422416
0.411055
0.402226
0.397923
0.398625
0.400962
0.406068
0.413052
0.420997
0.429825
0.438832
0.448185
0.457301
0.466545
0.475314
0.484173
0.36605
0.353416
0.341988
0.33021
0.318982
0.308381
0.299411
0.29167
0.285404
0.280333
0.276682
0.273866
0.272311
0.271173
0.27121
0.271472
0.272188
0.273388
0.00158128
0.00766483
0.0136339
0.0192894
0.025285
0.0316741
0.0385133
0.0457671
0.0533219
0.0610296
0.0687433
0.0763352
0.0836991
0.0907472
0.0974024
0.103597
0.109269
0.114369
0.118869
0.122773
0.126131
0.128711
0.13078
0.133711
0.136236
0.138944
0.141443
0.146001
0.148112
0.148686
0.147294
0.145266
0.140655
0.136669
0.130035
0.142077
0.146404
0.155319
0.161549
0.169684
0.177187
0.185284
0.193361
0.2017
0.210162
0.21881
0.227611
0.236584
0.245714
0.255016
0.264476
0.274108
0.2839
0.293863
0.303985
0.314277
0.324725
0.335342
0.346111
0.357044
0.368122
0.379359
0.390734
0.40226
0.413914
0.425708
0.437619
0.449658
0.4618
0.474055
0.486398
0.498838
0.511348
0.523937
0.536577
0.549274
0.562
0.574762
0.587529
0.600308
0.613067
0.62581
0.638504
0.65115
0.663714
0.676192
0.68855
0.700776
0.712836
0.724712
0.73637
0.747788
0.758957
0.769902
0.780715
0.791272
0.801588
0.811637
0.821414
0.830899
0.840077
0.848931
0.857446
0.865606
0.873396
0.8808
0.887804
0.894392
0.900553
0.906269
0.911531
0.916324
0.920641
0.924468
0.927801
0.930628
0.932951
0.934763
0.936074
0.936899
0.93715
0.936681
0.935883
0.934376
0.932503
0.930272
0.927474
0.92413
0.920326
0.916046
0.911324
0.906165
0.900597
0.894635
0.888306
0.881626
0.874612
0.86731
0.859756
0.85199
0.84405
0.835974
0.827794
0.819541
0.811247
0.80294
0.794656
0.786421
0.778268
0.770223
0.762318
0.754578
0.747031
0.739698
0.732607
0.725776
0.719228
0.712976
0.707037
0.701414
0.696126
0.691176
0.686562
0.682296
0.678603
0.677562
0.67782
0.678022
0.678642
0.679607
0.680874
0.682383
0.684103
0.685968
0.687864
0.689604
0.690796
0.691135
0.68935
0.668294
0.00676764
0.0224968
0.032642
0.0405006
0.0476568
0.0548173
0.0622478
0.0700032
0.0780227
0.0861952
0.0943998
0.102528
0.110491
0.118217
0.125646
0.132728
0.139422
0.145699
0.151549
0.156998
0.162115
0.16703
0.172002
0.177379
0.183404
0.190319
0.197769
0.204533
0.210333
0.215793
0.221379
0.228638
0.238983
0.247623
0.258484
0.273032
0.286786
0.29926
0.311482
0.3245
0.337835
0.351531
0.365536
0.379863
0.3945
0.40945
0.424711
0.440285
0.456174
0.472381
0.488907
0.505756
0.522928
0.540428
0.558255
0.576413
0.594899
0.613717
0.632865
0.652342
0.672145
0.692274
0.712723
0.733491
0.754571
0.77596
0.797647
0.819629
0.841894
0.864436
0.887242
0.910305
0.933609
0.957144
0.980893
1.00484
1.02898
1.05328
1.07774
1.10233
1.12703
1.15182
1.17668
1.20159
1.22651
1.25143
1.27631
1.30112
1.32582
1.35038
1.37474
1.39886
1.42266
1.44607
1.469
1.4916
1.51389
1.53583
1.5574
1.57857
1.5993
1.61956
1.63931
1.65853
1.67718
1.69521
1.71261
1.72933
1.74534
1.76061
1.7751
1.78879
1.80164
1.81362
1.82471
1.83489
1.84412
1.8524
1.8597
1.86601
1.87131
1.8756
1.87888
1.88081
1.88174
1.88207
1.88141
1.87956
1.87671
1.87289
1.86812
1.86243
1.85585
1.84842
1.84019
1.83119
1.82148
1.81112
1.80016
1.78867
1.77673
1.7644
1.75176
1.73885
1.72576
1.71255
1.69927
1.686
1.6728
1.65973
1.64685
1.63423
1.62192
1.60997
1.59845
1.5874
1.57687
1.5669
1.55753
1.54879
1.54071
1.5333
1.52657
1.52054
1.51525
1.51102
1.50752
1.50475
1.50261
1.501
1.49981
1.49885
1.49802
1.49712
1.49595
1.4943
1.49177
1.48843
1.48147
1.45721
0.0134374
0.036534
0.0494914
0.0592759
0.0679845
0.0763771
0.0847931
0.093365
0.102107
0.110971
0.119883
0.128769
0.137568
0.14623
0.154723
0.163022
0.17112
0.179025
0.186768
0.194419
0.202096
0.209977
0.218291
0.227246
0.236958
0.247355
0.25809
0.268898
0.279759
0.290983
0.303035
0.31602
0.330037
0.344395
0.359609
0.375596
0.391741
0.40802
0.424532
0.441464
0.458797
0.476527
0.494643
0.513145
0.532031
0.551301
0.570955
0.590996
0.611425
0.632243
0.653453
0.675056
0.697055
0.719449
0.74224
0.765428
0.789013
0.812993
0.837366
0.86213
0.887281
0.912816
0.938728
0.965013
0.991663
1.01867
1.04603
1.07372
1.10174
1.13008
1.15872
1.18765
1.21685
1.24631
1.27601
1.30593
1.33606
1.36637
1.39683
1.42744
1.45816
1.48897
1.51984
1.55074
1.58165
1.61254
1.64336
1.6741
1.7047
1.73515
1.7654
1.79541
1.82515
1.85458
1.88369
1.91244
1.94082
1.96878
1.99628
2.02327
2.04973
2.07559
2.10083
2.1254
2.14926
2.17235
2.19464
2.21609
2.23664
2.25626
2.27491
2.29254
2.30911
2.3246
2.33895
2.35215
2.36416
2.37496
2.38451
2.39281
2.39982
2.40555
2.41
2.41303
2.41461
2.41515
2.41454
2.41253
2.40924
2.40471
2.39897
2.39207
2.38403
2.37492
2.36478
2.35366
2.34163
2.32877
2.31513
2.30081
2.28589
2.27046
2.25459
2.23838
2.22189
2.20522
2.18844
2.17163
2.15488
2.13826
2.12185
2.10572
2.08994
2.07459
2.05972
2.04541
2.03171
2.01867
2.00634
1.99476
1.98396
1.97395
1.96476
1.95639
1.94883
1.94214
1.93621
1.93104
1.92649
1.92244
1.91876
1.91528
1.91181
1.90819
1.90425
1.89983
1.89474
1.88918
1.88114
1.86254
0.0204272
0.0493619
0.0649432
0.0764255
0.086393
0.0957714
0.104988
0.114242
0.123611
0.133097
0.14267
0.152287
0.161907
0.171504
0.181059
0.190571
0.200052
0.209533
0.219065
0.228729
0.238632
0.248909
0.259699
0.271118
0.283215
0.29594
0.309166
0.322787
0.336803
0.351329
0.366503
0.382376
0.39896
0.416138
0.433891
0.452161
0.470836
0.48986
0.509238
0.529017
0.549215
0.569839
0.590891
0.612373
0.634287
0.656637
0.679423
0.702649
0.726318
0.750431
0.774991
0.8
0.825461
0.851374
0.877741
0.904561
0.931834
0.959558
0.987733
1.01635
1.04542
1.07492
1.10486
1.13522
1.166
1.19719
1.22877
1.26075
1.2931
1.32582
1.35888
1.39227
1.42598
1.45999
1.49427
1.52881
1.56358
1.59856
1.63372
1.66905
1.70451
1.74007
1.7757
1.81138
1.84708
1.88275
1.91836
1.95389
1.98929
2.02453
2.05958
2.09439
2.12893
2.16316
2.19704
2.23052
2.26358
2.29615
2.3282
2.35968
2.39053
2.42071
2.45017
2.47886
2.50673
2.53372
2.55979
2.58489
2.60896
2.63197
2.65384
2.67455
2.69405
2.71229
2.72923
2.74483
2.75906
2.77188
2.78327
2.7932
2.80165
2.80861
2.81407
2.81802
2.82027
2.8211
2.82062
2.81858
2.81505
2.81007
2.80369
2.79593
2.78685
2.77649
2.76493
2.75221
2.73842
2.72362
2.70791
2.69137
2.67409
2.65617
2.63771
2.6188
2.59953
2.57999
2.56028
2.5405
2.52072
2.50103
2.48154
2.46231
2.44343
2.42498
2.40704
2.38967
2.37294
2.35691
2.34163
2.32715
2.3135
2.30069
2.28875
2.27765
2.26739
2.25796
2.24929
2.24135
2.23401
2.22714
2.22063
2.21428
2.20794
2.20144
2.19467
2.18756
2.18005
2.17247
2.1634
2.14786
0.0271758
0.0611145
0.0791039
0.09218
0.103323
0.113607
0.123544
0.133401
0.143308
0.153321
0.16345
0.173684
0.184009
0.194413
0.204894
0.215462
0.226141
0.236967
0.247994
0.259292
0.270945
0.283046
0.295684
0.308926
0.322802
0.337294
0.352358
0.367952
0.384068
0.400739
0.41801
0.43591
0.454433
0.473542
0.493202
0.513377
0.534025
0.555112
0.576632
0.598597
0.621019
0.643906
0.667264
0.691097
0.71541
0.740207
0.765492
0.79127
0.817543
0.844316
0.871592
0.899374
0.927665
0.956467
0.985781
1.01561
1.04595
1.0768
1.10817
1.14004
1.17242
1.2053
1.23867
1.27253
1.30687
1.34168
1.37695
1.41266
1.44881
1.48538
1.52236
1.55971
1.59744
1.63551
1.6739
1.71259
1.75156
1.79077
1.83021
1.86984
1.90963
1.94955
1.98957
2.02965
2.06976
2.10987
2.14992
2.1899
2.22975
2.26945
2.30894
2.34819
2.38714
2.42577
2.464
2.50181
2.53913
2.57592
2.61213
2.6477
2.68257
2.71671
2.75004
2.78251
2.81407
2.84466
2.87422
2.90271
2.93005
2.9562
2.98111
3.00471
3.02696
3.04781
3.06722
3.08513
3.10151
3.11632
3.12952
3.14109
3.151
3.15924
3.16581
3.17069
3.17374
3.17502
3.17484
3.17293
3.16934
3.16411
3.15727
3.14888
3.13897
3.1276
3.11484
3.10076
3.08543
3.06893
3.05136
3.03281
3.01337
2.99316
2.97228
2.95083
2.9289
2.90662
2.88407
2.86135
2.83858
2.81584
2.79322
2.77083
2.74875
2.72708
2.70588
2.68524
2.66523
2.64592
2.62735
2.60959
2.59266
2.57658
2.56138
2.54704
2.53354
2.52085
2.50894
2.49773
2.48711
2.47698
2.46721
2.45765
2.44814
2.43858
2.42887
2.41901
2.40905
2.39939
2.38896
2.37433
0.0334795
0.071654
0.0918036
0.106351
0.118595
0.129731
0.140345
0.150757
0.161145
0.171608
0.182196
0.192929
0.203818
0.214869
0.226093
0.237509
0.249145
0.261038
0.273237
0.285798
0.298783
0.312257
0.326279
0.340894
0.356126
0.371978
0.388436
0.405485
0.423116
0.441333
0.460147
0.479564
0.499578
0.52017
0.541324
0.563018
0.585233
0.607952
0.631169
0.654886
0.679109
0.703844
0.729098
0.754876
0.781185
0.80803
0.835417
0.863353
0.891841
0.920888
0.950498
0.980675
1.01142
1.04275
1.07465
1.10713
1.14019
1.17383
1.20805
1.24285
1.27823
1.31418
1.35069
1.38776
1.42538
1.46355
1.50224
1.54145
1.58116
1.62135
1.66202
1.70313
1.74467
1.78662
1.82894
1.87162
1.91462
1.95792
2.00149
2.04528
2.08928
2.13344
2.17773
2.2221
2.26652
2.31095
2.35535
2.39968
2.44388
2.48792
2.53174
2.57531
2.61856
2.66144
2.7039
2.74589
2.78735
2.82823
2.86847
2.90801
2.9468
2.98477
3.02186
3.05802
3.09317
3.12727
3.16025
3.19204
3.2226
3.25185
3.27973
3.3062
3.33119
3.35465
3.37652
3.39676
3.41531
3.43215
3.44722
3.4605
3.47195
3.48156
3.48932
3.49521
3.49918
3.50109
3.50133
3.49968
3.49617
3.49083
3.48369
3.47479
3.46419
3.45195
3.43812
3.42279
3.40603
3.38793
3.36858
3.34809
3.32656
3.3041
3.28081
3.25681
3.23222
3.20713
3.18166
3.15593
3.13003
3.10408
3.07817
3.05241
3.02689
3.0017
2.97695
2.9527
2.92903
2.90602
2.88373
2.86221
2.84151
2.82164
2.80264
2.7845
2.76721
2.75074
2.73505
2.72007
2.70572
2.69191
2.67851
2.66542
2.6525
2.63968
2.6269
2.61422
2.60177
2.58992
2.57777
2.5628
0.0391808
0.0808772
0.102906
0.118763
0.132006
0.143929
0.155172
0.166098
0.176922
0.187778
0.198749
0.209884
0.221216
0.23277
0.244569
0.256639
0.26901
0.281721
0.294811
0.308326
0.322313
0.336819
0.351886
0.367544
0.383817
0.400712
0.41823
0.436364
0.455109
0.474462
0.494423
0.514989
0.536155
0.557915
0.580257
0.603173
0.626653
0.650691
0.675283
0.700429
0.726134
0.752404
0.779245
0.806665
0.834671
0.863269
0.892469
0.922276
0.952699
0.983745
1.01542
1.04773
1.08068
1.11427
1.14852
1.18342
1.21898
1.25519
1.29207
1.3296
1.36778
1.40662
1.4461
1.48623
1.52698
1.56836
1.61035
1.65293
1.69609
1.73981
1.78407
1.82886
1.87414
1.9199
1.96609
2.01271
2.0597
2.10705
2.15471
2.20265
2.25083
2.2992
2.34774
2.39639
2.44511
2.49385
2.54257
2.59123
2.63975
2.68811
2.73624
2.78408
2.83158
2.87869
2.92534
2.97147
3.01702
3.06195
3.10617
3.14964
3.19228
3.23404
3.27484
3.31463
3.35334
3.39091
3.42726
3.46233
3.49606
3.52838
3.55923
3.58855
3.61627
3.64234
3.66669
3.68928
3.71005
3.72895
3.74593
3.76097
3.77403
3.78508
3.79411
3.8011
3.80602
3.80874
3.80949
3.80821
3.80488
3.79953
3.79218
3.78288
3.77169
3.75865
3.74384
3.72733
3.7092
3.68955
3.66847
3.64606
3.62243
3.5977
3.57199
3.5454
3.51805
3.49007
3.46158
3.43268
3.40349
3.37414
3.34471
3.31533
3.28609
3.25709
3.22843
3.20021
3.17249
3.14537
3.11891
3.09317
3.06821
3.04406
3.02076
2.99831
2.97671
2.95596
2.93601
2.91682
2.89833
2.88045
2.86312
2.84622
2.82968
2.81344
2.7975
2.78193
2.7669
2.75276
2.73866
2.72264
0.0441678
0.088724
0.112335
0.129312
0.143425
0.156048
0.167861
0.179255
0.190474
0.201677
0.212973
0.224435
0.236116
0.248058
0.260293
0.272856
0.285778
0.299096
0.312846
0.327065
0.341789
0.357055
0.372891
0.389324
0.406371
0.424044
0.442345
0.461277
0.480838
0.501024
0.521834
0.543267
0.565318
0.587986
0.611267
0.635157
0.659654
0.684757
0.710465
0.736783
0.763715
0.791268
0.819449
0.848267
0.877731
0.907851
0.938636
0.970096
1.00224
1.03508
1.06861
1.10286
1.13783
1.17352
1.20994
1.2471
1.285
1.32364
1.36303
1.40317
1.44405
1.48567
1.52802
1.57111
1.61492
1.65944
1.70465
1.75055
1.79712
1.84433
1.89216
1.9406
1.98961
2.03916
2.08923
2.13977
2.19077
2.24216
2.29393
2.34602
2.39839
2.451
2.5038
2.55674
2.60977
2.66283
2.71588
2.76885
2.8217
2.87436
2.92678
2.97888
3.03062
3.08191
3.13271
3.18295
3.23256
3.28147
3.32963
3.37697
3.42341
3.46889
3.51335
3.55671
3.5989
3.63986
3.67952
3.7178
3.75465
3.78998
3.82374
3.85586
3.88627
3.91491
3.94172
3.96663
3.98959
4.01055
4.02946
4.04628
4.06096
4.07349
4.08382
4.09195
4.09786
4.10145
4.1028
4.10197
4.09891
4.09362
4.08614
4.07651
4.06478
4.05102
4.03529
4.01765
3.99821
3.97704
3.95425
3.92993
3.90421
3.8772
3.84902
3.81979
3.78963
3.75867
3.72703
3.69484
3.6622
3.62925
3.5961
3.56286
3.52964
3.49654
3.46367
3.43113
3.39901
3.3674
3.33637
3.306
3.27635
3.24748
3.21943
3.19223
3.16589
3.14042
3.11581
3.09203
3.06905
3.04682
3.02527
3.00436
2.98403
2.96426
2.94507
2.92657
2.90892
2.89242
2.87624
2.85882
0.0483713
0.09518
0.120071
0.13797
0.152813
0.166036
0.178346
0.190154
0.201723
0.213231
0.224806
0.236537
0.248495
0.260733
0.273294
0.286217
0.299538
0.313291
0.327508
0.342224
0.357467
0.373266
0.389644
0.406623
0.424217
0.44244
0.461297
0.480793
0.500931
0.521712
0.543136
0.565204
0.587916
0.611273
0.635277
0.659929
0.685231
0.711186
0.737798
0.765075
0.793022
0.82165
0.850968
0.880987
0.911718
0.943172
0.975362
1.0083
1.042
1.07646
1.11171
1.14776
1.1846
1.22226
1.26074
1.30004
1.34018
1.38116
1.42298
1.46564
1.50915
1.55349
1.59867
1.64468
1.6915
1.73914
1.78756
1.83677
1.88673
1.93743
1.98884
2.04093
2.09368
2.14704
2.201
2.2555
2.31051
2.36598
2.42187
2.47813
2.53472
2.59157
2.64864
2.70588
2.76321
2.82059
2.87795
2.93524
2.99238
3.04932
3.10598
3.1623
3.21821
3.27364
3.32852
3.38279
3.43636
3.48918
3.54118
3.59228
3.64241
3.6915
3.73948
3.78628
3.83183
3.87606
3.91889
3.96025
4.00008
4.03831
4.07485
4.10965
4.14264
4.17375
4.20291
4.23006
4.25514
4.27809
4.29887
4.31742
4.3337
4.34767
4.35931
4.36858
4.37548
4.37993
4.38196
4.38162
4.37887
4.37369
4.36613
4.35622
4.34403
4.32959
4.31299
4.29429
4.27357
4.25093
4.22646
4.20027
4.17247
4.14318
4.11253
4.08062
4.04761
4.01361
3.97875
3.94315
3.90695
3.87027
3.83323
3.79594
3.75853
3.7211
3.68378
3.64665
3.60984
3.57342
3.5375
3.50216
3.46748
3.43353
3.40038
3.36806
3.33662
3.3061
3.2765
3.24782
3.22007
3.19324
3.16728
3.1422
3.11795
3.09457
3.07209
3.05063
3.03034
3.01147
2.99318
2.97419
0.0517599
0.100276
0.126163
0.144787
0.160216
0.17393
0.186656
0.198817
0.210687
0.222456
0.234265
0.246216
0.258388
0.270846
0.283641
0.296815
0.310408
0.324452
0.338979
0.354019
0.369598
0.385741
0.402469
0.419799
0.437748
0.456327
0.475546
0.495412
0.515933
0.537112
0.558955
0.581466
0.60465
0.62851
0.653054
0.678286
0.704213
0.730842
0.758183
0.786244
0.815036
0.844571
0.874863
0.905925
0.937771
0.970415
1.00387
1.03816
1.07328
1.10927
1.14612
1.18386
1.22249
1.26204
1.3025
1.34388
1.38621
1.42947
1.47368
1.51884
1.56494
1.61199
1.65998
1.7089
1.75875
1.80951
1.86116
1.91368
1.96706
2.02126
2.07627
2.13204
2.18855
2.24576
2.30362
2.3621
2.42114
2.4807
2.54073
2.60117
2.66197
2.72306
2.78439
2.84589
2.9075
2.96915
3.03078
3.09231
3.15368
3.2148
3.27562
3.33605
3.39603
3.45547
3.5143
3.57244
3.62983
3.68639
3.74205
3.79673
3.85036
3.90286
3.95417
4.0042
4.05289
4.10017
4.14595
4.19018
4.23277
4.27367
4.31279
4.35007
4.38543
4.41882
4.45015
4.47938
4.50642
4.53123
4.55374
4.57391
4.59168
4.60703
4.6199
4.63027
4.63811
4.6434
4.64611
4.64627
4.64387
4.63883
4.63121
4.62107
4.60845
4.59339
4.57598
4.55626
4.53433
4.51027
4.48418
4.45616
4.42632
4.39479
4.36168
4.32713
4.29125
4.25419
4.21608
4.17704
4.13721
4.09671
4.05568
4.01423
3.9725
3.93059
3.88864
3.84675
3.80503
3.7636
3.72256
3.682
3.64204
3.60275
3.56422
3.52652
3.48973
3.45389
3.41905
3.38526
3.35254
3.32092
3.29042
3.26104
3.2328
3.20575
3.17995
3.15553
3.13262
3.1114
3.09106
3.07058
0.0543385
0.104084
0.130704
0.149872
0.165747
0.179843
0.192897
0.205341
0.217456
0.229438
0.241433
0.253553
0.265884
0.278495
0.291442
0.304775
0.318531
0.332746
0.347451
0.362674
0.37844
0.394772
0.411688
0.429207
0.447346
0.466118
0.485535
0.505609
0.52635
0.547767
0.569869
0.592664
0.616163
0.640374
0.665307
0.690972
0.717381
0.744545
0.772475
0.801186
0.830693
0.861012
0.892159
0.924152
0.957008
0.990745
1.02538
1.06093
1.09742
1.13485
1.17326
1.21264
1.25303
1.29442
1.33684
1.3803
1.4248
1.47035
1.51696
1.56463
1.61335
1.66313
1.71397
1.76584
1.81874
1.87266
1.92757
1.98346
2.04029
2.09804
2.15668
2.21617
2.27647
2.33754
2.39932
2.46178
2.52486
2.5885
2.65264
2.71723
2.78219
2.84746
2.91298
2.97868
3.04447
3.11029
3.17605
3.2417
3.30714
3.37229
3.43709
3.50145
3.56528
3.62852
3.69107
3.75286
3.81381
3.87385
3.93289
3.99087
4.0477
4.10332
4.15764
4.21059
4.2621
4.3121
4.36052
4.40728
4.45232
4.49557
4.53695
4.5764
4.61385
4.64923
4.68247
4.71351
4.74227
4.7687
4.79275
4.81435
4.83345
4.85001
4.86399
4.87535
4.88407
4.89012
4.89346
4.8941
4.89207
4.88718
4.87952
4.86917
4.85616
4.84054
4.82237
4.80171
4.77863
4.75323
4.72559
4.69582
4.66402
4.63032
4.59482
4.55767
4.51899
4.47891
4.43757
4.39511
4.35165
4.30734
4.2623
4.21666
4.17055
4.12411
4.07744
4.03069
3.98397
3.93741
3.89112
3.84521
3.79981
3.75503
3.71096
3.66772
3.6254
3.58408
3.54386
3.50481
3.46699
3.43048
3.39533
3.36158
3.32931
3.29857
3.26946
3.24211
3.21661
3.19311
3.1708
3.14893
0.056147
0.106716
0.133829
0.153374
0.169564
0.183934
0.197227
0.20988
0.222175
0.234313
0.246442
0.258678
0.271111
0.283815
0.296849
0.31026
0.324091
0.338377
0.353149
0.368436
0.384261
0.400649
0.41762
0.435194
0.453388
0.472219
0.491703
0.511856
0.53269
0.554219
0.576457
0.599419
0.623117
0.647565
0.672778
0.698772
0.725561
0.753162
0.781592
0.810869
0.841014
0.872046
0.903987
0.936858
0.97068
1.00547
1.04126
1.07806
1.1159
1.15479
1.19476
1.23581
1.27798
1.32126
1.36569
1.41127
1.458
1.50591
1.55498
1.60523
1.65665
1.70925
1.763
1.8179
1.87393
1.93108
1.98933
2.04863
2.10898
2.17032
2.23263
2.29586
2.35996
2.42489
2.49059
2.557
2.62407
2.69172
2.75991
2.82854
2.89756
2.96689
3.03645
3.10617
3.17596
3.24574
3.31543
3.38495
3.45421
3.52312
3.59161
3.65958
3.72696
3.79365
3.85957
3.92464
3.98878
4.0519
4.11394
4.1748
4.23442
4.29272
4.34962
4.40505
4.45895
4.51123
4.56184
4.6107
4.65775
4.70292
4.74615
4.78736
4.82649
4.86348
4.89825
4.93075
4.9609
4.98865
5.01393
5.0367
5.05689
5.07446
5.08937
5.10157
5.11103
5.11773
5.12162
5.1227
5.12101
5.11627
5.10858
5.09803
5.08467
5.06854
5.04969
5.02816
5.00404
4.97739
4.94832
4.9169
4.88326
4.84749
4.80973
4.77009
4.72871
4.68572
4.64126
4.59546
4.54846
4.5004
4.45141
4.40163
4.35119
4.30024
4.24889
4.19729
4.14556
4.09385
4.04228
3.991
3.94012
3.88979
3.84013
3.79129
3.74337
3.69652
3.65085
3.60647
3.56351
3.52206
3.48223
3.4441
3.40779
3.37338
3.34099
3.31075
3.28273
3.25705
3.23291
3.20983
0.0572614
0.1083
0.135692
0.155463
0.171845
0.186385
0.199829
0.212613
0.225022
0.237256
0.249465
0.261765
0.274246
0.286981
0.300031
0.313446
0.32727
0.341539
0.356285
0.371537
0.387323
0.403666
0.420589
0.438115
0.456265
0.475059
0.494518
0.514662
0.535511
0.557069
0.579367
0.602425
0.62626
0.65089
0.676332
0.702606
0.729731
0.757733
0.786635
0.816462
0.847238
0.878989
0.911741
0.945518
0.980346
1.01625
1.05325
1.09138
1.13065
1.17109
1.21272
1.25556
1.29963
1.34494
1.39151
1.43934
1.48846
1.53886
1.59055
1.64353
1.69779
1.75333
1.81014
1.86819
1.92747
1.98796
2.04962
2.11242
2.17633
2.24131
2.3073
2.37427
2.44215
2.51089
2.58043
2.65071
2.72165
2.79318
2.86523
2.93773
3.01058
3.08372
3.15706
3.2305
3.30397
3.37738
3.45063
3.52364
3.59631
3.66856
3.74029
3.81142
3.88186
3.95151
4.0203
4.08812
4.15492
4.22059
4.28506
4.34825
4.41009
4.4705
4.52941
4.58675
4.64245
4.69645
4.74868
4.79907
4.84758
4.89412
4.93865
4.9811
5.02141
5.05952
5.09536
5.12887
5.15999
5.18866
5.21483
5.23843
5.25941
5.27772
5.29331
5.30614
5.31618
5.32338
5.32772
5.32917
5.32777
5.32319
5.31545
5.30473
5.29107
5.27449
5.25504
5.23275
5.20769
5.17993
5.14955
5.11664
5.0813
5.04364
5.00378
4.96182
4.91792
4.87218
4.82477
4.7758
4.72542
4.67377
4.62098
4.5672
4.51257
4.45723
4.40131
4.34497
4.28834
4.23157
4.17482
4.11822
4.06193
4.00611
3.95092
3.89651
3.84304
3.79068
3.73959
3.68992
3.64183
3.59548
3.55099
3.50853
3.46822
3.4302
3.3946
3.36154
3.3311
3.30338
3.27757
3.2535
0.0576594
0.108869
0.136417
0.156302
0.172776
0.187393
0.200904
0.213747
0.226202
0.238469
0.250694
0.262994
0.275459
0.288163
0.301167
0.314523
0.328273
0.342456
0.357106
0.372255
0.38793
0.40416
0.420971
0.438388
0.456438
0.475145
0.494535
0.514635
0.535475
0.557041
0.579399
0.602561
0.626548
0.651382
0.677083
0.703666
0.731168
0.759625
0.789068
0.819529
0.851038
0.883626
0.917322
0.952155
0.988153
1.02534
1.06375
1.10341
1.14434
1.18656
1.2301
1.27497
1.32119
1.36878
1.41775
1.4681
1.51986
1.57301
1.62756
1.6835
1.74082
1.79952
1.85956
1.92093
1.9836
2.04753
2.1127
2.17907
2.24657
2.31518
2.38483
2.45546
2.52702
2.59944
2.67264
2.74657
2.82113
2.89625
2.97185
3.04785
3.12416
3.20069
3.27735
3.35404
3.43068
3.50718
3.58343
3.65934
3.73482
3.80977
3.88411
3.95773
4.03055
4.10248
4.17343
4.2433
4.31203
4.37952
4.4457
4.51049
4.57381
4.63561
4.69579
4.75431
4.81109
4.86608
4.91923
4.97046
5.01973
5.06699
5.11218
5.15524
5.19612
5.23477
5.27112
5.30512
5.33671
5.36585
5.39246
5.4165
5.43791
5.45664
5.47263
5.48585
5.49625
5.50379
5.50844
5.51018
5.50903
5.5046
5.49681
5.48596
5.47205
5.4551
5.43514
5.41222
5.38637
5.35766
5.32616
5.29196
5.25513
5.21579
5.17405
5.13001
5.08381
5.03558
4.98544
4.93355
4.88003
4.82502
4.76868
4.71113
4.65253
4.59302
4.53275
4.47187
4.41054
4.34891
4.28715
4.22542
4.1639
4.10276
4.04218
3.98235
3.92347
3.86573
3.80934
3.7545
3.7014
3.65024
3.60121
3.5545
3.51025
3.46862
3.42983
3.39401
3.36124
3.33159
3.3043
3.27952
0.0575529
0.108707
0.136226
0.156101
0.172566
0.187174
0.200674
0.213497
0.225927
0.238161
0.250347
0.262598
0.275005
0.287642
0.300567
0.313834
0.327485
0.341561
0.356099
0.37113
0.386688
0.402802
0.419504
0.436825
0.454792
0.473434
0.492782
0.512868
0.533722
0.555374
0.577854
0.601189
0.625409
0.650545
0.676636
0.703679
0.731738
0.760852
0.791062
0.822404
0.854914
0.888632
0.923592
0.959822
0.997349
1.0362
1.07641
1.11801
1.16102
1.20545
1.25133
1.29867
1.34749
1.39779
1.44958
1.50287
1.55766
1.61394
1.6717
1.73092
1.7916
1.8537
1.91719
1.98206
2.04824
2.11572
2.18444
2.25434
2.32538
2.3975
2.47064
2.54472
2.61968
2.69545
2.77195
2.84909
2.92681
3.00501
3.0836
3.1625
3.24161
3.32085
3.40011
3.47931
3.55834
3.63712
3.71553
3.7935
3.87091
3.94769
4.02372
4.09892
4.1732
4.24647
4.31864
4.38962
4.45934
4.5277
4.59465
4.66011
4.724
4.78626
4.84682
4.90563
4.96262
5.01775
5.07097
5.12222
5.17147
5.21866
5.26376
5.30671
5.34747
5.386
5.42223
5.45613
5.48763
5.5167
5.54328
5.56732
5.58877
5.60756
5.62366
5.637
5.64754
5.65523
5.66006
5.66201
5.66105
5.65677
5.64896
5.63802
5.62394
5.60673
5.58642
5.56301
5.53656
5.50712
5.47473
5.43948
5.40143
5.36069
5.31735
5.27153
5.22335
5.17292
5.12039
5.06588
5.00954
4.95151
4.89192
4.83092
4.76866
4.7053
4.64098
4.57587
4.51013
4.44394
4.37746
4.31088
4.24439
4.17819
4.11247
4.04747
3.98342
3.92054
3.85905
3.79911
3.74105
3.68513
3.63158
3.58067
3.5326
3.4877
3.44605
3.40779
3.37297
3.34169
3.3132
3.288
0.057161
0.108082
0.135394
0.155142
0.171496
0.185996
0.19939
0.212109
0.224433
0.236559
0.248633
0.260766
0.273048
0.285552
0.298338
0.311459
0.324962
0.33889
0.353282
0.368175
0.383605
0.399612
0.416232
0.433504
0.45147
0.470166
0.489625
0.509887
0.530993
0.552992
0.575904
0.599758
0.624594
0.650441
0.677317
0.705261
0.734364
0.764675
0.796238
0.829091
0.863269
0.898806
0.935729
0.974072
1.01387
1.05514
1.09793
1.14227
1.18816
1.23562
1.28464
1.33525
1.38743
1.44118
1.49651
1.55341
1.61185
1.67183
1.73331
1.79627
1.86068
1.9265
1.9937
2.06221
2.13201
2.20303
2.27522
2.34851
2.42285
2.49817
2.5744
2.65147
2.72929
2.8078
2.88692
2.96655
3.04662
3.12703
3.2077
3.28855
3.36946
3.45037
3.53116
3.61174
3.69203
3.77192
3.85132
3.93013
4.00826
4.08562
4.16212
4.23766
4.31216
4.38553
4.45768
4.52854
4.59803
4.66607
4.7326
4.79755
4.86086
4.92246
4.98229
5.0403
5.09644
5.15068
5.20297
5.25328
5.30156
5.34779
5.39193
5.43394
5.47379
5.51143
5.54684
5.57996
5.61074
5.63917
5.66518
5.68873
5.70977
5.72825
5.7441
5.75727
5.7677
5.77536
5.78022
5.7823
5.78149
5.77737
5.76957
5.7586
5.74445
5.72711
5.70659
5.68289
5.65605
5.6261
5.59307
5.55704
5.51806
5.47622
5.4316
5.38432
5.33447
5.28219
5.2276
5.17083
5.11201
5.05129
4.98881
4.92471
4.85914
4.79226
4.72424
4.65523
4.58541
4.51498
4.44411
4.37299
4.3018
4.23074
4.16008
4.09007
4.02099
3.95311
3.88672
3.82221
3.75973
3.69959
3.64207
3.58747
3.53612
3.4881
3.44371
3.40314
3.36644
3.33371
3.30422
3.27893
0.0562544
0.106723
0.133698
0.153201
0.169336
0.183636
0.196841
0.209385
0.221547
0.233524
0.24546
0.257465
0.269627
0.28202
0.294706
0.307742
0.321178
0.335063
0.349444
0.364367
0.379874
0.396012
0.412826
0.430371
0.44871
0.467866
0.487881
0.508803
0.530672
0.55351
0.577336
0.602237
0.628277
0.655518
0.684033
0.713863
0.74506
0.777672
0.811742
0.847307
0.884399
0.923045
0.963268
1.00509
1.04853
1.0936
1.14032
1.18868
1.23867
1.2903
1.34355
1.39842
1.45487
1.5129
1.57248
1.63358
1.69616
1.76019
1.82563
1.89244
1.96056
2.02995
2.10056
2.17234
2.24521
2.31913
2.39404
2.46986
2.54653
2.62399
2.70216
2.78097
2.86035
2.94022
3.0205
3.10112
3.18198
3.26302
3.34414
3.42526
3.5063
3.58715
3.66775
3.74799
3.82779
3.90706
3.98571
4.06365
4.14079
4.21705
4.29233
4.36656
4.43966
4.51154
4.58213
4.65134