/*--------------------------------*- C++ -*----------------------------------*\
  =========                 |
  \\      /  F ield         | OpenFOAM: The Open Source CFD Toolbox
   \\    /   O peration     | Website:  https://openfoam.org
    \\  /    A nd           | Version:  9
     \\/     M anipulation  |
\*---------------------------------------------------------------------------*/
FoamFile
{
    format      ascii;
    class       volScalarField;
    location    "200";
    object      p;
}
// * * * * * * * * * * * * * * * * * * * * * * * * * * * * * * * * * * * * * //

dimensions      [0 2 -2 0 0 0 0];

internalField   nonuniform List<scalar> 
12225
(
-2.14489
-4.33347
-5.43344
-5.75405
-5.9353
-6.10431
-6.23584
-6.33099
-6.40761
-6.47501
-6.53503
-6.58992
-6.63972
-6.68608
-6.72924
-6.76452
-6.80805
-6.77505
-5.30833
-6.07677
-6.23719
-6.14491
-6.13235
-6.20019
-6.27773
-6.34346
-6.40309
-6.46054
-6.51517
-6.56609
-6.61399
-6.65905
-6.70221
-6.73969
-6.78302
-6.8103
-5.70947
-5.69446
-5.82177
-5.9001
-5.99496
-6.11511
-6.22232
-6.30716
-6.37898
-6.44434
-6.50447
-6.55941
-6.61058
-6.65828
-6.70401
-6.74542
-6.79266
-6.83341
-5.58753
-5.53062
-5.77218
-5.93045
-6.03215
-6.13833
-6.236
-6.31604
-6.38478
-6.44787
-6.50645
-6.5605
-6.61115
-6.65874
-6.70468
-6.74816
-6.79552
-6.8428
-5.57719
-5.60162
-5.82964
-5.97115
-6.05473
-6.14676
-6.23796
-6.31565
-6.3832
-6.44542
-6.50355
-6.55756
-6.60839
-6.65652
-6.70323
-6.74857
-6.79643
-6.84658
-5.63515
-5.68409
-5.85832
-5.98218
-6.06366
-6.15145
-6.23946
-6.31595
-6.38291
-6.44461
-6.5024
-6.55636
-6.60729
-6.65579
-6.70297
-6.74933
-6.7973
-6.84762
-5.69547
-5.73972
-5.87486
-5.99114
-6.07484
-6.15894
-6.24282
-6.31743
-6.3835
-6.4445
-6.50177
-6.55552
-6.60641
-6.65508
-6.70248
-6.74925
-6.79693
-6.84618
-5.749
-5.78664
-5.89656
-6.0048
-6.08775
-6.16732
-6.24669
-6.31914
-6.38416
-6.44436
-6.50104
-6.55448
-6.60523
-6.65392
-6.70133
-6.74806
-6.79508
-6.84275
-5.79872
-5.83184
-5.92272
-6.02063
-6.10066
-6.17599
-6.25111
-6.32119
-6.38496
-6.44424
-6.5002
-6.55321
-6.60368
-6.65219
-6.69935
-6.74567
-6.79175
-6.83765
-5.84575
-5.87499
-5.95047
-6.03763
-6.11378
-6.18528
-6.25634
-6.32379
-6.38607
-6.44425
-6.49935
-6.55174
-6.60176
-6.64987
-6.69655
-6.74218
-6.7871
-6.8312
-5.89004
-5.91551
-5.97867
-6.05579
-6.12742
-6.19519
-6.26236
-6.327
-6.38754
-6.44446
-6.49856
-6.55016
-6.59955
-6.64705
-6.69303
-6.73774
-6.78139
-6.82375
-5.92803
-5.95036
-6.00451
-6.07328
-6.14035
-6.20468
-6.26845
-6.33045
-6.38922
-6.44485
-6.49789
-6.54863
-6.59727
-6.64405
-6.68923
-6.73297
-6.7754
-6.81624
-5.9631
-5.98281
-6.02959
-6.09092
-6.15336
-6.2143
-6.27485
-6.33422
-6.39114
-6.44539
-6.49729
-6.54706
-6.59484
-6.64078
-6.68506
-6.72777
-6.76897
-6.80841
-5.99985
-6.01703
-6.05701
-6.11097
-6.16824
-6.22535
-6.28241
-6.33885
-6.39357
-6.44614
-6.49663
-6.54518
-6.59185
-6.63672
-6.67987
-6.72135
-6.76117
-6.79912
-6.03701
-6.05179
-6.08575
-6.13279
-6.18462
-6.23756
-6.29097
-6.34424
-6.39644
-6.44702
-6.49584
-6.54289
-6.58819
-6.63173
-6.67354
-6.71361
-6.75193
-6.78835
-6.07262
-6.08524
-6.11415
-6.15506
-6.20159
-6.25026
-6.29996
-6.34998
-6.39947
-6.44781
-6.4947
-6.54003
-6.58372
-6.62572
-6.666
-6.70453
-6.74129
-6.77617
-6.10378
-6.11465
-6.13958
-6.1755
-6.21735
-6.26205
-6.30827
-6.35518
-6.40197
-6.44798
-6.49282
-6.53628
-6.57822
-6.61855
-6.6572
-6.69413
-6.72933
-6.76273
-6.12612
-6.13577
-6.15802
-6.19047
-6.2289
-6.27052
-6.31396
-6.3583
-6.40276
-6.44666
-6.48957
-6.53123
-6.57146
-6.61015
-6.64721
-6.68261
-6.71633
-6.74834
-6.13276
-6.14191
-6.16313
-6.19427
-6.23136
-6.27163
-6.31367
-6.35661
-6.39967
-6.4422
-6.48374
-6.52403
-6.56289
-6.60023
-6.63597
-6.67009
-6.70257
-6.73344
-6.11651
-6.12629
-6.14889
-6.18196
-6.22096
-6.26266
-6.30561
-6.34913
-6.39249
-6.43506
-6.4764
-6.51632
-6.55469
-6.59144
-6.62651
-6.65993
-6.69169
-6.72187
-6.08959
-6.10038
-6.12566
-6.16267
-6.20545
-6.24996
-6.29504
-6.34027
-6.3849
-6.42825
-6.47002
-6.51012
-6.5485
-6.58511
-6.61997
-6.65309
-6.68453
-6.71436
-6.05432
-6.06614
-6.09549
-6.13908
-6.18736
-6.23534
-6.28315
-6.33087
-6.37742
-6.42201
-6.46453
-6.50509
-6.5437
-6.58038
-6.61517
-6.64816
-6.67941
-6.70903
-6.01374
-6.02564
-6.06009
-6.11336
-6.16891
-6.22087
-6.27176
-6.3222
-6.37071
-6.41658
-6.46
-6.50119
-6.54018
-6.57704
-6.61188
-6.64484
-6.67601
-6.70553
-5.97001
-5.98099
-6.02276
-6.08719
-6.14937
-6.20605
-6.26167
-6.31553
-6.36579
-6.4126
-6.45672
-6.4984
-6.53767
-6.57462
-6.60946
-6.64236
-6.67344
-6.70284
-5.92306
-5.92857
-5.99124
-6.06945
-6.13139
-6.18964
-6.25079
-6.30914
-6.36166
-6.40972
-6.45473
-6.49699
-6.53653
-6.57356
-6.60838
-6.6412
-6.67219
-6.70154
-5.87975
-5.84342
-5.95296
-6.06394
-6.12619
-6.18148
-6.24369
-6.30343
-6.35665
-6.40537
-6.45108
-6.49388
-6.53375
-6.57098
-6.60589
-6.63877
-6.66979
-6.69914
-5.89397
-5.73502
-5.86394
-6.01802
-6.10813
-6.1795
-6.24843
-6.30934
-6.36214
-6.41042
-6.4557
-6.49795
-6.53724
-6.5739
-6.60828
-6.64065
-6.67125
-6.70033
-6.01716
-5.83678
-5.85095
-5.92309
-6.01146
-6.11068
-6.20137
-6.27515
-6.33685
-6.39199
-6.4423
-6.48807
-6.52987
-6.56836
-6.60405
-6.63738
-6.66881
-6.69896
-5.72453
-6.31563
-6.40446
-6.28021
-6.22588
-6.25304
-6.30002
-6.34326
-6.38482
-6.427
-6.46849
-6.50782
-6.54478
-6.57951
-6.61207
-6.64261
-6.67136
-6.70008
-2.73521
-4.49851
-5.50321
-5.80236
-5.95153
-6.09516
-6.2092
-6.29016
-6.35438
-6.41125
-6.46251
-6.50854
-6.55022
-6.58845
-6.62374
-6.65588
-6.68472
-6.70851
-7.60746
-7.60751
-7.60803
-7.60915
-7.61073
-7.61272
-7.61511
-7.61788
-7.62106
-7.62466
-7.62871
-7.63326
-7.63834
-7.64402
-7.65033
-7.65734
-7.6651
-7.67365
-7.68305
-7.69346
-7.70489
-7.71706
-7.72974
-7.74294
-7.75628
-7.76903
-7.7818
-7.79738
-7.81685
-7.83821
-7.8603
-7.88287
-7.90567
-7.92995
-7.95423
-7.97602
-7.99605
-8.01787
-8.04235
-8.06774
-8.09397
-8.12086
-8.14825
-8.17605
-8.20413
-8.23243
-8.26083
-8.28928
-8.31767
-8.34594
-8.374
-8.40178
-8.42916
-8.45607
-8.4824
-8.50806
-8.53291
-8.55687
-8.57978
-8.60156
-8.62202
-8.64106
-8.65849
-8.67419
-8.68796
-8.69968
-8.70911
-8.71613
-8.7205
-8.72207
-8.72058
-8.71589
-8.70773
-8.69594
-8.68026
-8.66051
-8.63642
-8.60781
-8.5744
-8.53603
-8.4924
-8.44336
-8.38862
-8.32802
-8.26129
-8.18827
-8.10871
-8.02245
-7.9293
-7.82922
-7.7222
-7.60825
-7.48717
-7.35845
-7.22169
-7.07693
-6.92429
-6.76379
-6.59546
-6.41933
-6.23545
-6.04386
-5.84468
-5.63801
-5.42402
-5.20289
-4.97484
-4.74011
-4.49897
-4.25173
-3.99872
-3.74029
-3.47683
-3.20873
-2.93642
-2.66034
-2.38098
-2.09879
-1.81424
-1.5278
-1.23994
-0.951165
-0.661975
-0.372873
-0.084335
0.203205
0.489316
0.773573
1.05558
1.33496
1.61136
1.88445
2.15396
2.41961
2.6812
2.93852
3.19146
3.43992
3.68387
3.92326
4.15805
4.38829
4.61404
4.83547
5.05273
5.266
5.47552
5.68153
5.88432
6.08418
6.28146
6.4765
6.66968
6.86141
7.05209
7.24216
7.43207
7.62228
7.81326
8.00548
8.1994
8.39548
8.59417
8.79586
9.00097
9.20997
9.42302
9.63983
9.86018
10.0842
10.3118
10.5429
10.777
11.0135
11.2519
11.4915
11.7324
11.974
12.2289
12.4864
-7.60519
-7.60574
-7.60655
-7.60744
-7.60827
-7.60915
-7.61035
-7.61198
-7.61411
-7.61677
-7.61999
-7.62375
-7.62808
-7.633
-7.63852
-7.64468
-7.65148
-7.65894
-7.66708
-7.67585
-7.68505
-7.69469
-7.70514
-7.7165
-7.72854
-7.74188
-7.75803
-7.77582
-7.79217
-7.80755
-7.82341
-7.84029
-7.85974
-7.88122
-7.90443
-7.93088
-7.96072
-7.99044
-8.01765
-8.04449
-8.07143
-8.09863
-8.1261
-8.15382
-8.18175
-8.20984
-8.23802
-8.26622
-8.29437
-8.3224
-8.35024
-8.3778
-8.40499
-8.43173
-8.45791
-8.48345
-8.50822
-8.53213
-8.55503
-8.57682
-8.59735
-8.61649
-8.63407
-8.64996
-8.66398
-8.67598
-8.68577
-8.69318
-8.698
-8.70006
-8.69914
-8.69506
-8.68758
-8.67653
-8.66165
-8.64276
-8.61962
-8.592
-8.55968
-8.52244
-8.48005
-8.4323
-8.37895
-8.31982
-8.25468
-8.18333
-8.10555
-8.02117
-7.92999
-7.83186
-7.72663
-7.61406
-7.49391
-7.36615
-7.23088
-7.08802
-6.93745
-6.7791
-6.61296
-6.43904
-6.25737
-6.06801
-5.87104
-5.66658
-5.45478
-5.23581
-5.00988
-4.77722
-4.5381
-4.2928
-4.04166
-3.78501
-3.52324
-3.25673
-2.9859
-2.71119
-2.43307
-2.15199
-1.86843
-1.58284
-1.2957
-1.00752
-0.718795
-0.430007
-0.141649
0.145846
0.432041
0.716519
0.998871
1.27872
1.55571
1.82951
2.09981
2.36637
2.62894
2.88732
3.14139
3.39104
3.63622
3.87686
4.11292
4.34443
4.57145
4.79413
5.01261
5.22707
5.43771
5.64479
5.84857
6.04937
6.24748
6.44327
6.63709
6.82936
7.02045
7.21083
7.40092
7.59117
7.78205
7.97404
8.16757
8.36313
8.56121
8.76217
8.96637
9.17421
9.38583
9.60104
9.81974
10.0421
10.2681
10.4976
10.7302
10.9654
11.2028
11.4418
11.683
11.9255
12.1837
12.4336
-7.59914
-7.6008
-7.60312
-7.6049
-7.60598
-7.60681
-7.60775
-7.60904
-7.61078
-7.61305
-7.61587
-7.61926
-7.62324
-7.62782
-7.63303
-7.63888
-7.64538
-7.65255
-7.6604
-7.66889
-7.67796
-7.68755
-7.69776
-7.70882
-7.72099
-7.7348
-7.75069
-7.76818
-7.786
-7.80386
-7.82207
-7.84077
-7.86013
-7.88009
-7.90092
-7.92364
-7.94847
-7.97438
-8.00034
-8.02653
-8.05299
-8.07973
-8.10672
-8.13394
-8.16134
-8.18889
-8.21651
-8.24417
-8.27178
-8.2993
-8.32663
-8.35371
-8.38046
-8.40678
-8.43259
-8.45778
-8.48224
-8.50588
-8.52856
-8.55016
-8.57056
-8.58961
-8.60716
-8.62306
-8.63716
-8.64928
-8.65926
-8.66691
-8.67205
-8.67449
-8.67402
-8.67046
-8.66358
-8.65319
-8.63907
-8.62099
-8.59875
-8.57211
-8.54086
-8.50477
-8.46362
-8.41719
-8.36525
-8.30761
-8.24405
-8.17436
-8.09835
-8.01582
-7.9266
-7.83053
-7.72743
-7.61707
-7.49922
-7.3738
-7.24086
-7.10035
-6.95221
-6.79635
-6.63276
-6.46141
-6.28234
-6.09559
-5.90125
-5.69941
-5.49021
-5.27383
-5.05045
-4.8203
-4.58364
-4.34074
-4.09192
-3.83752
-3.57789
-3.31343
-3.04454
-2.77166
-2.49523
-2.21571
-1.93357
-1.64926
-1.36327
-1.0761
-0.788244
-0.500159
-0.212335
0.0747664
0.36071
0.645088
0.927488
1.20754
1.48485
1.75912
2.03002
2.29728
2.56066
2.81995
3.07501
3.32572
3.57202
3.81381
4.05106
4.28377
4.51201
4.73588
4.95554
5.17111
5.38284
5.59092
5.79563
5.99724
6.19607
6.39245
6.58675
6.77933
6.97061
7.16098
7.3509
7.5408
7.73114
7.9224
8.11502
8.30945
8.50621
8.70574
8.90839
9.11448
9.32421
9.53752
9.75439
9.97495
10.1992
10.427
10.658
10.8919
11.1284
11.3671
11.6091
11.8525
12.1133
12.3493
-7.58999
-7.5929
-7.59733
-7.60073
-7.60286
-7.60436
-7.6057
-7.60714
-7.60886
-7.611
-7.61363
-7.61679
-7.62051
-7.62482
-7.62974
-7.63528
-7.64146
-7.6483
-7.65581
-7.66401
-7.67288
-7.68244
-7.69273
-7.70384
-7.71594
-7.72929
-7.74407
-7.76022
-7.7774
-7.79547
-7.81439
-7.83413
-7.85457
-7.87555
-7.89708
-7.91947
-7.94286
-7.9671
-7.99191
-8.01722
-8.04296
-8.06907
-8.09548
-8.12217
-8.14905
-8.1761
-8.20325
-8.23044
-8.25762
-8.28473
-8.31168
-8.33841
-8.36483
-8.39086
-8.41641
-8.44138
-8.46566
-8.48916
-8.51173
-8.53328
-8.55365
-8.57273
-8.59035
-8.60637
-8.62063
-8.63297
-8.64321
-8.65118
-8.65668
-8.65953
-8.65954
-8.6565
-8.65021
-8.64046
-8.62703
-8.60971
-8.58828
-8.56252
-8.5322
-8.49711
-8.45701
-8.41169
-8.36092
-8.3045
-8.24222
-8.17386
-8.09923
-8.01812
-7.93036
-7.83578
-7.73421
-7.62544
-7.5093
-7.3857
-7.2546
-7.11595
-6.96967
-6.81571
-6.65404
-6.48464
-6.30752
-6.12274
-5.93035
-5.73047
-5.52321
-5.30875
-5.08727
-4.85898
-4.62413
-4.38299
-4.13587
-3.8831
-3.62504
-3.36206
-3.09457
-2.82299
-2.54777
-2.26936
-1.98822
-1.7048
-1.4196
-1.13312
-0.845844
-0.558231
-0.270739
0.0161429
0.301977
0.586357
0.868878
1.14915
1.42681
1.70152
1.97296
2.24086
2.50496
2.76506
3.02099
3.27264
3.51991
3.7627
4.001
4.23477
4.4641
4.68907
4.90979
5.12642
5.33917
5.54822
5.75385
5.9563
6.1559
6.35295
6.54783
6.74086
6.93246
7.12303
7.313
7.50278
7.69281
7.88358
8.07555
8.26914
8.46482
8.66299
8.864
9.06819
9.27581
9.48694
9.70166
9.92009
10.1422
10.3679
10.597
10.8291
11.0641
11.3016
11.5426
11.7849
12.0432
12.2645
-7.58014
-7.58434
-7.59104
-7.59628
-7.59973
-7.60222
-7.60429
-7.60625
-7.60831
-7.61066
-7.61341
-7.61664
-7.62039
-7.62471
-7.62963
-7.63518
-7.64136
-7.64821
-7.65575
-7.664
-7.67298
-7.68274
-7.69332
-7.70479
-7.71724
-7.73075
-7.74539
-7.76113
-7.77788
-7.79559
-7.81424
-7.83379
-7.85417
-7.87528
-7.89706
-7.91951
-7.94263
-7.96636
-7.99061
-8.01535
-8.04053
-8.06611
-8.09202
-8.11822
-8.14465
-8.17127
-8.19802
-8.22484
-8.25167
-8.27845
-8.3051
-8.33156
-8.35774
-8.38356
-8.40893
-8.43375
-8.45792
-8.48133
-8.50386
-8.5254
-8.5458
-8.56493
-8.58265
-8.59881
-8.61325
-8.6258
-8.6363
-8.64455
-8.65039
-8.65362
-8.65404
-8.65146
-8.64566
-8.63645
-8.6236
-8.6069
-8.58614
-8.56108
-8.53151
-8.4972
-8.45793
-8.41347
-8.36362
-8.30814
-8.24683
-8.17948
-8.10589
-8.02586
-7.93918
-7.84572
-7.74528
-7.63771
-7.52282
-7.40053
-7.27074
-7.1334
-6.98843
-6.83578
-6.67541
-6.5073
-6.33147
-6.14797
-5.95685
-5.75821
-5.55218
-5.33892
-5.1186
-4.89143
-4.65766
-4.41756
-4.17143
-3.91959
-3.6624
-3.40023
-3.13349
-2.8626
-2.588
-2.31013
-2.02946
-1.74645
-1.46159
-1.17539
-0.888326
-0.60087
-0.313456
-0.0265762
0.259326
0.543835
0.826559
1.10709
1.38508
1.66015
1.93203
2.20039
2.46501
2.72566
2.98218
3.23444
3.48232
3.72575
3.96466
4.19908
4.42903
4.65463
4.87595
5.09318
5.30646
5.51605
5.72213
5.92503
6.12498
6.32235
6.51744
6.71065
6.90231
7.09285
7.28266
7.4722
7.66187
7.85215
8.04344
8.2362
8.43085
8.62782
8.82744
9.03006
9.23593
9.44523
9.65812
9.87472
10.095
10.319
10.5464
10.7769
11.0104
11.2465
11.486
11.7258
11.9795
12.1876
-7.57155
-7.57696
-7.58561
-7.59256
-7.59733
-7.6009
-7.60385
-7.60651
-7.60913
-7.61192
-7.61502
-7.61853
-7.62253
-7.62708
-7.63222
-7.63798
-7.6444
-7.6515
-7.6593
-7.66784
-7.67714
-7.68724
-7.69818
-7.71003
-7.72283
-7.73663
-7.75143
-7.76723
-7.78396
-7.80158
-7.82005
-7.83934
-7.85941
-7.88022
-7.90172
-7.92388
-7.94665
-7.96999
-7.99384
-8.01816
-8.04292
-8.06807
-8.09357
-8.11938
-8.14545
-8.17172
-8.19815
-8.22467
-8.25123
-8.27777
-8.30421
-8.33048
-8.3565
-8.38219
-8.40746
-8.43222
-8.45635
-8.47975
-8.50231
-8.5239
-8.54438
-8.56364
-8.58151
-8.59784
-8.61249
-8.62528
-8.63605
-8.6446
-8.65077
-8.65436
-8.65517
-8.65301
-8.64767
-8.63893
-8.62659
-8.61043
-8.59023
-8.56576
-8.53681
-8.50314
-8.46454
-8.42078
-8.37164
-8.3169
-8.25636
-8.18979
-8.11699
-8.03776
-7.95192
-7.85928
-7.7597
-7.65299
-7.539
-7.41761
-7.28874
-7.1523
-7.00821
-6.85642
-6.6969
-6.52963
-6.35461
-6.17189
-5.98154
-5.78364
-5.57832
-5.36572
-5.14604
-4.91947
-4.68625
-4.44666
-4.20099
-3.94957
-3.69275
-3.4309
-3.16443
-2.89376
-2.61933
-2.34159
-2.06099
-1.77802
-1.49316
-1.20692
-0.91979
-0.63224
-0.344708
-0.0576593
0.228444
0.513191
0.796175
1.077
1.35529
1.6307
1.9029
2.17161
2.43657
2.69758
2.95445
3.20704
3.45524
3.69894
3.93811
4.17277
4.40294
4.62872
4.85019
5.06752
5.28086
5.49046
5.69651
5.89932
6.09914
6.2963
6.49112
6.68398
6.87524
7.06529
7.25455
7.44344
7.63238
7.82183
8.0122
8.20395
8.39751
8.59329
8.79163
8.99287
9.19729
9.40511
9.61654
9.83169
10.0506
10.2732
10.4994
10.7288
10.9612
11.196
11.434
11.6711
11.9202
12.117
-7.56561
-7.572
-7.58215
-7.59046
-7.59641
-7.601
-7.60484
-7.60825
-7.61151
-7.61484
-7.61841
-7.62234
-7.62673
-7.63163
-7.63711
-7.64321
-7.64997
-7.65741
-7.66557
-7.67447
-7.68415
-7.69462
-7.70592
-7.7181
-7.73118
-7.74518
-7.76011
-7.77595
-7.79267
-7.81024
-7.8286
-7.84774
-7.86761
-7.88818
-7.90941
-7.93127
-7.95373
-7.97675
-8.00027
-8.02427
-8.0487
-8.07354
-8.09873
-8.12425
-8.15004
-8.17607
-8.20227
-8.22859
-8.25497
-8.28136
-8.30767
-8.33385
-8.3598
-8.38546
-8.41071
-8.43548
-8.45966
-8.48313
-8.50578
-8.52749
-8.54812
-8.56755
-8.58561
-8.60217
-8.61706
-8.63012
-8.64117
-8.65004
-8.65653
-8.66047
-8.66166
-8.65988
-8.65495
-8.64664
-8.63474
-8.61904
-8.59931
-8.57533
-8.54689
-8.51374
-8.47567
-8.43245
-8.38387
-8.32969
-8.26972
-8.20373
-8.13152
-8.05288
-7.96763
-7.87559
-7.77659
-7.67048
-7.55709
-7.4363
-7.30802
-7.17214
-7.0286
-6.87733
-6.71831
-6.5515
-6.37693
-6.19463
-6.00466
-5.80711
-5.60211
-5.38979
-5.17035
-4.94398
-4.71093
-4.47146
-4.22587
-3.97449
-3.71766
-3.45578
-3.18923
-2.91845
-2.64387
-2.36595
-2.08514
-1.80195
-1.51685
-1.23035
-0.942947
-0.655126
-0.367328
-0.0799974
0.206404
0.491463
0.774755
1.0559
1.33449
1.6102
1.88268
2.15166
2.41687
2.6781
2.93517
3.18791
3.43623
3.68
3.91921
4.15384
4.38396
4.60962
4.83095
5.04806
5.26116
5.4704
5.67608
5.87841
6.07772
6.27428
6.46846
6.66058
6.85104
7.04021
7.22854
7.41641
7.60429
7.79259
7.98179
8.1723
8.36458
8.55902
8.75602
8.95589
9.15894
9.36542
9.57555
9.78949
10.0073
10.2288
10.454
10.6825
10.914
11.1479
11.3843
11.619
11.8641
12.0515
-7.56308
-7.57015
-7.58126
-7.59056
-7.59744
-7.6029
-7.60752
-7.61164
-7.61553
-7.61943
-7.62351
-7.62791
-7.63272
-7.63803
-7.6439
-7.65038
-7.65751
-7.66532
-7.67384
-7.6831
-7.69312
-7.70393
-7.71555
-7.72801
-7.7413
-7.75546
-7.77048
-7.78634
-7.80303
-7.82052
-7.83878
-7.85778
-7.87748
-7.89787
-7.91889
-7.94054
-7.96276
-7.98554
-8.00882
-8.03258
-8.05679
-8.08141
-8.1064
-8.13173
-8.15735
-8.18323
-8.2093
-8.23552
-8.26182
-8.28815
-8.31444
-8.34061
-8.36659
-8.39229
-8.41761
-8.44248
-8.46677
-8.49038
-8.51319
-8.53508
-8.55591
-8.57555
-8.59385
-8.61066
-8.62582
-8.63916
-8.6505
-8.65968
-8.6665
-8.67077
-8.67229
-8.67087
-8.6663
-8.65836
-8.64684
-8.63152
-8.61219
-8.5886
-8.56055
-8.52781
-8.49015
-8.44734
-8.39916
-8.34539
-8.28582
-8.22023
-8.14842
-8.07018
-7.98532
-7.89365
-7.79503
-7.68927
-7.57623
-7.45579
-7.32782
-7.19224
-7.04896
-6.89794
-6.73912
-6.57249
-6.39807
-6.21588
-6.02599
-5.82849
-5.62349
-5.41115
-5.19165
-4.96518
-4.73198
-4.49234
-4.24654
-3.9949
-3.7378
-3.4756
-3.20872
-2.93758
-2.66262
-2.3843
-2.10308
-1.81948
-1.53397
-1.24707
-0.959268
-0.671061
-0.382908
-0.0952358
0.191513
0.476904
0.760524
1.04197
1.32084
1.5968
1.86951
2.13867
2.40404
2.66539
2.92252
3.17528
3.42356
3.66725
3.90634
4.1408
4.37068
4.59605
4.81703
5.03372
5.24634
5.45505
5.66011
5.86177
6.06033
6.25606
6.44935
6.64051
6.82994
7.01802
7.20519
7.39185
7.57845
7.76543
7.95325
8.14237
8.33321
8.52621
8.72175
8.92021
9.12188
9.32704
9.53594
9.74873
9.96548
10.1861
10.4105
10.6382
10.8689
11.1018
11.3368
11.5692
11.811
11.9908
-7.56419
-7.57162
-7.58319
-7.59307
-7.60059
-7.6067
-7.61196
-7.61668
-7.62113
-7.62554
-7.6301
-7.63493
-7.64016
-7.64586
-7.6521
-7.65893
-7.6664
-7.67454
-7.68337
-7.69293
-7.70324
-7.71432
-7.72618
-7.73884
-7.7523
-7.76658
-7.78166
-7.79754
-7.8142
-7.83162
-7.84979
-7.86867
-7.88824
-7.90848
-7.92935
-7.95083
-7.97289
-7.99551
-8.01863
-8.04225
-8.06632
-8.09082
-8.11571
-8.14095
-8.1665
-8.19232
-8.21836
-8.24457
-8.27089
-8.29725
-8.3236
-8.34985
-8.37592
-8.40175
-8.42721
-8.45224
-8.4767
-8.50051
-8.52353
-8.54564
-8.56671
-8.5866
-8.60516
-8.62223
-8.63767
-8.65129
-8.66292
-8.67239
-8.67951
-8.68409
-8.68592
-8.6848
-8.68053
-8.6729
-8.66169
-8.64667
-8.62764
-8.60435
-8.5766
-8.54414
-8.50676
-8.46423
-8.41632
-8.36282
-8.3035
-8.23816
-8.16658
-8.08856
-8.00389
-7.91243
-7.81397
-7.70838
-7.59548
-7.47516
-7.34728
-7.21177
-7.06853
-6.91751
-6.75866
-6.59198
-6.41745
-6.23514
-6.04509
-5.84739
-5.64216
-5.42954
-5.20973
-4.98292
-4.74935
-4.50929
-4.26305
-4.01095
-3.75336
-3.49065
-3.22325
-2.95156
-2.67605
-2.39717
-2.11541
-1.83127
-1.54526
-1.25787
-0.969596
-0.680949
-0.392403
-0.104372
0.182718
0.468423
0.75234
1.03404
1.31313
1.58925
1.86209
2.13134
2.39675
2.6581
2.91517
3.16782
3.41589
3.65936
3.89814
4.13226
4.36172
4.58663
4.80705
5.02316
5.23508
5.44307
5.64732
5.84813
6.04574
6.24051
6.43273
6.62279
6.81105
6.99792
7.1838
7.36914
7.55437
7.73995
7.92632
8.11398
8.30334
8.49487
8.68896
8.886
9.08632
9.29023
9.49796
9.7097
9.92551
10.1453
10.3689
10.596
10.826
11.058
11.2918
11.522
11.761
11.9351
-7.56878
-7.57627
-7.58784
-7.59791
-7.60579
-7.61232
-7.61802
-7.62318
-7.62807
-7.6329
-7.63784
-7.64305
-7.64862
-7.65464
-7.66118
-7.6683
-7.67604
-7.68443
-7.69351
-7.7033
-7.71381
-7.72508
-7.7371
-7.74989
-7.76346
-7.7778
-7.79292
-7.8088
-7.82543
-7.84281
-7.8609
-7.8797
-7.89918
-7.91932
-7.94009
-7.96148
-7.98345
-8.00598
-8.02903
-8.05259
-8.07661
-8.10107
-8.12594
-8.15118
-8.17675
-8.20261
-8.22871
-8.25499
-8.2814
-8.30788
-8.33436
-8.36076
-8.387
-8.41301
-8.43867
-8.4639
-8.48859
-8.51263
-8.53589
-8.55825
-8.57957
-8.59971
-8.61853
-8.63587
-8.65156
-8.66545
-8.67734
-8.68707
-8.69444
-8.69927
-8.70134
-8.70047
-8.69644
-8.68903
-8.67804
-8.66323
-8.6444
-8.62131
-8.59374
-8.56145
-8.52424
-8.48186
-8.43409
-8.38071
-8.32151
-8.25626
-8.18476
-8.1068
-8.02219
-7.93073
-7.8323
-7.72669
-7.61376
-7.49336
-7.3654
-7.22977
-7.08638
-6.93518
-6.77611
-6.60917
-6.43437
-6.25173
-6.06132
-5.86323
-5.65758
-5.44451
-5.2242
-4.99686
-4.76274
-4.5221
-4.27526
-4.02253
-3.7643
-3.50094
-3.23287
-2.96051
-2.68434
-2.40481
-2.12242
-1.83769
-1.55111
-1.26319
-0.974421
-0.685329
-0.396388
-0.108011
0.179377
0.465351
0.749505
1.03141
1.31065
1.58686
1.85973
2.12896
2.3943
2.6555
2.91236
3.16472
3.41246
3.65552
3.89383
4.1274
4.35626
4.58049
4.80017
5.01547
5.22654
5.43361
5.63689
5.83666
6.03319
6.22682
6.41786
6.60669
6.79368
6.97923
7.16375
7.3477
7.5315
7.71563
7.90055
8.08672
8.27462
8.46468
8.65736
8.85303
9.05208
9.25479
9.46146
9.67223
9.8872
10.1063
10.3292
10.5557
10.7851
11.0163
11.2489
11.4773
11.7141
11.8837
-7.57645
-7.58373
-7.59491
-7.60482
-7.61276
-7.61948
-7.62542
-7.63085
-7.63602
-7.64113
-7.64635
-7.65182
-7.65763
-7.66388
-7.67064
-7.67796
-7.68588
-7.69444
-7.70366
-7.71359
-7.72423
-7.7356
-7.7477
-7.76057
-7.77418
-7.78856
-7.80368
-7.81956
-7.83617
-7.85351
-7.87156
-7.89031
-7.90974
-7.92983
-7.95056
-7.97192
-7.99386
-8.01638
-8.03943
-8.063
-8.08705
-8.11156
-8.13649
-8.16181
-8.18748
-8.21345
-8.23968
-8.26611
-8.29268
-8.31933
-8.346
-8.3726
-8.39905
-8.42528
-8.45117
-8.47663
-8.50156
-8.52584
-8.54934
-8.57194
-8.5935
-8.61388
-8.63293
-8.65049
-8.66641
-8.6805
-8.6926
-8.70252
-8.71008
-8.71507
-8.71731
-8.71659
-8.7127
-8.70542
-8.69454
-8.67984
-8.6611
-8.63808
-8.61058
-8.57835
-8.54117
-8.49881
-8.45105
-8.39767
-8.33844
-8.27315
-8.2016
-8.12356
-8.03885
-7.94729
-7.84872
-7.74295
-7.62983
-7.50923
-7.38103
-7.24513
-7.10144
-6.9499
-6.79047
-6.62314
-6.4479
-6.2648
-6.0739
-5.87528
-5.66906
-5.4554
-5.23447
-5.00648
-4.77169
-4.53036
-4.2828
-4.02935
-3.77038
-3.50628
-3.23746
-2.96438
-2.68748
-2.40726
-2.12423
-1.83888
-1.55172
-1.26326
-0.974002
-0.684479
-0.395154
-0.106455
0.18119
0.467374
0.751691
1.03371
1.313
1.58921
1.86199
2.13107
2.39618
2.65706
2.91354
3.16542
3.41264
3.65507
3.89271
4.12553
4.35359
4.57692
4.79569
5.00998
5.22001
5.42597
5.62811
5.82668
6.02199
6.21433
6.40408
6.59155
6.77717
6.96131
7.14442
7.32691
7.50927
7.69193
7.87539
8.06011
8.24658
8.43525
8.62659
8.821
9.01886
9.22051
9.42622
9.63617
9.85042
10.0689
10.2913
10.5173
10.7462
10.9767
11.2083
11.4351
11.6701
11.8365
-7.5866
-7.59347
-7.60394
-7.61341
-7.62115
-7.62782
-7.63379
-7.63931
-7.6446
-7.64984
-7.6552
-7.6608
-7.66673
-7.6731
-7.67995
-7.68736
-7.69535
-7.70398
-7.71327
-7.72325
-7.73393
-7.74533
-7.75746
-7.77034
-7.78397
-7.79835
-7.81347
-7.82934
-7.84594
-7.86327
-7.88131
-7.90005
-7.91947
-7.93957
-7.96031
-7.98167
-8.00365
-8.02621
-8.04932
-8.07298
-8.09713
-8.12176
-8.14682
-8.17228
-8.19811
-8.22425
-8.25065
-8.27727
-8.30404
-8.33091
-8.35778
-8.3846
-8.41128
-8.43773
-8.46384
-8.48953
-8.51468
-8.53916
-8.56287
-8.58567
-8.60741
-8.62797
-8.64718
-8.66489
-8.68094
-8.69516
-8.70737
-8.71739
-8.72502
-8.73009
-8.73238
-8.73169
-8.72782
-8.72055
-8.70967
-8.69495
-8.67617
-8.65311
-8.62554
-8.59324
-8.55597
-8.51351
-8.46564
-8.41212
-8.35275
-8.2873
-8.21557
-8.13733
-8.05241
-7.96062
-7.86179
-7.75575
-7.64233
-7.5214
-7.39285
-7.25657
-7.11248
-6.9605
-6.80061
-6.63277
-6.45701
-6.27335
-6.08186
-5.88262
-5.67576
-5.46143
-5.2398
-5.0111
-4.77558
-4.5335
-4.28518
-4.03097
-3.77123
-3.50636
-3.23677
-2.96293
-2.6853
-2.40439
-2.12069
-1.83472
-1.54698
-1.258
-0.968294
-0.678372
-0.388702
-0.0997435
0.188078
0.474363
0.758726
1.04073
1.31993
1.59597
1.86851
2.13726
2.40195
2.66233
2.91822
3.16946
3.41594
3.65758
3.89435
4.12623
4.35328
4.57557
4.7932
5.00633
5.21514
5.41983
5.62067
5.8179
6.01184
6.20279
6.3911
6.57713
6.76128
6.94395
7.12558
7.30659
7.48746
7.66866
7.85067
8.03398
8.21906
8.40641
8.59648
8.78973
8.98651
9.18722
9.39209
9.60134
9.815
10.033
10.255
10.4806
10.7091
10.939
11.1698
11.3953
11.6288
11.793
-7.59859
-7.60489
-7.61444
-7.62321
-7.63054
-7.63694
-7.64274
-7.64817
-7.6534
-7.6586
-7.66394
-7.66952
-7.67544
-7.68179
-7.68863
-7.69601
-7.70398
-7.71259
-7.72185
-7.73181
-7.74247
-7.75385
-7.76597
-7.77884
-7.79245
-7.80682
-7.82194
-7.8378
-7.8544
-7.87174
-7.88979
-7.90855
-7.928
-7.94812
-7.9689
-7.99032
-8.01237
-8.03502
-8.05825
-8.08204
-8.10634
-8.13114
-8.15637
-8.18202
-8.20803
-8.23436
-8.26096
-8.28778
-8.31474
-8.3418
-8.36888
-8.39589
-8.42276
-8.44938
-8.47567
-8.50152
-8.52681
-8.55143
-8.57525
-8.59814
-8.61997
-8.64059
-8.65986
-8.6776
-8.69366
-8.70788
-8.72006
-8.73004
-8.73762
-8.74261
-8.74481
-8.74403
-8.74004
-8.73265
-8.72162
-8.70675
-8.68781
-8.66457
-8.63682
-8.60432
-8.56684
-8.52416
-8.47606
-8.4223
-8.36268
-8.29696
-8.22494
-8.14642
-8.06119
-7.96908
-7.86991
-7.76351
-7.64971
-7.52839
-7.39942
-7.2627
-7.11814
-6.96567
-6.80527
-6.6369
-6.46057
-6.27633
-6.08422
-5.88434
-5.67681
-5.46179
-5.23946
-5.01003
-4.77375
-4.53091
-4.28182
-4.02683
-3.76631
-3.50066
-3.23031
-2.95573
-2.67739
-2.3958
-2.11148
-1.82493
-1.53669
-1.24727
-0.957194
-0.666957
-0.377057
-0.0879689
0.199885
0.486117
0.77036
1.05217
1.33111
1.6068
1.87891
2.14713
2.4112
2.67089
2.92599
3.17638
3.42192
3.66257
3.89826
4.12902
4.35487
4.57591
4.79223
5.00402
5.21144
5.41473
5.6141
5.80987
6.00231
6.19175
6.37854
6.56306
6.74567
6.92683
7.10694
7.28646
7.46586
7.64562
7.82622
8.00816
8.19195
8.37807
8.567
8.75919
8.95506
9.15495
9.35915
9.56784
9.78107
9.99872
10.2205
10.4459
10.674
10.9035
11.1336
11.3581
11.5905
11.7533
-7.61181
-7.61744
-7.62591
-7.63382
-7.64054
-7.64648
-7.65192
-7.65704
-7.66202
-7.66702
-7.67216
-7.67757
-7.68333
-7.68953
-7.69624
-7.7035
-7.71137
-7.71988
-7.72905
-7.73893
-7.74952
-7.76085
-7.77292
-7.78575
-7.79933
-7.81367
-7.82876
-7.84461
-7.86121
-7.87855
-7.89661
-7.91539
-7.93488
-7.95505
-7.9759
-7.99742
-8.01958
-8.04236
-8.06574
-8.08968
-8.11415
-8.13911
-8.16451
-8.19033
-8.2165
-8.24299
-8.26973
-8.29669
-8.3238
-8.35099
-8.37818
-8.40529
-8.43224
-8.45894
-8.48528
-8.51115
-8.53645
-8.56106
-8.58485
-8.60769
-8.62945
-8.64997
-8.66911
-8.68672
-8.70263
-8.71667
-8.72867
-8.73844
-8.74581
-8.75057
-8.75253
-8.75149
-8.74725
-8.73958
-8.72828
-8.71313
-8.69391
-8.67038
-8.64233
-8.60954
-8.57176
-8.52878
-8.48036
-8.42629
-8.36634
-8.3003
-8.22795
-8.1491
-8.06352
-7.97104
-7.8715
-7.76471
-7.65052
-7.52878
-7.39938
-7.2622
-7.11716
-6.96421
-6.80329
-6.63438
-6.45749
-6.27266
-6.07994
-5.87944
-5.67126
-5.45556
-5.23254
-5.0024
-4.76541
-4.52184
-4.27201
-4.01628
-3.75503
-3.48866
-3.21761
-2.94235
-2.66339
-2.38122
-2.09637
-1.80937
-1.52074
-1.231
-0.940667
-0.650254
-0.360286
-0.0712386
0.21647
0.50247
0.786394
1.06782
1.34629
1.62143
1.89289
2.16037
2.42361
2.68237
2.93648
3.1858
3.43021
3.66965
3.90408
4.13351
4.35798
4.57759
4.79245
5.00274
5.20863
5.41035
5.60816
5.80235
5.99319
6.18104
6.36625
6.54918
6.73024
6.90984
7.08844
7.26647
7.44442
7.62278
7.80204
7.9827
8.16528
8.35028
8.53819
8.72947
8.92454
9.12377
9.32744
9.53572
9.74866
9.96611
10.1878
10.413
10.641
10.8702
11.0998
11.3235
11.5548
11.717
-7.6257
-7.63061
-7.63794
-7.64486
-7.65081
-7.6561
-7.66097
-7.66559
-7.67012
-7.67471
-7.67949
-7.68457
-7.69004
-7.69597
-7.70244
-7.70949
-7.71716
-7.7255
-7.73452
-7.74426
-7.75474
-7.76596
-7.77793
-7.79068
-7.80419
-7.81847
-7.83352
-7.84934
-7.86592
-7.88326
-7.90133
-7.92015
-7.93968
-7.95992
-7.98086
-8.00247
-8.02473
-8.04762
-8.0711
-8.09514
-8.11971
-8.14476
-8.17025
-8.19613
-8.22236
-8.24888
-8.27565
-8.30262
-8.32972
-8.35688
-8.38402
-8.41107
-8.43793
-8.46451
-8.4907
-8.51641
-8.54152
-8.56592
-8.58947
-8.61206
-8.63353
-8.65376
-8.6726
-8.68988
-8.70545
-8.71914
-8.73078
-8.74018
-8.74718
-8.75156
-8.75314
-8.75172
-8.7471
-8.73905
-8.72738
-8.71185
-8.69225
-8.66836
-8.63994
-8.60678
-8.56865
-8.52531
-8.47654
-8.42212
-8.36182
-8.29543
-8.22276
-8.14355
-8.05763
-7.9648
-7.86489
-7.75773
-7.64316
-7.52103
-7.39122
-7.25362
-7.10815
-6.95474
-6.79335
-6.62396
-6.44656
-6.2612
-6.06794
-5.86687
-5.65811
-5.44182
-5.21818
-4.98743
-4.7498
-4.5056
-4.25514
-3.99878
-3.73691
-3.46994
-3.19831
-2.92253
-2.64307
-2.36049
-2.07527
-1.78798
-1.49911
-1.20922
-0.918803
-0.628419
-0.33859
-0.0497891
0.237569
0.523119
0.806499
1.0873
1.36508
1.63943
1.91001
2.17652
2.4387
2.69631
2.94922
3.19725
3.44032
3.67835
3.91133
4.13924
4.36217
4.58019
4.79344
5.00208
5.20632
5.40638
5.60253
5.79504
5.98424
6.17044
6.35402
6.53535
6.71484
6.89292
7.07002
7.24661
7.42318
7.60021
7.77822
7.95771
8.13921
8.32322
8.51026
8.70078
8.89522
9.09395
9.29724
9.50527
9.71806
9.93546
10.1571
10.3823
10.6103
10.8393
11.0685
11.2917
11.5222
11.6844
-7.64039
-7.64458
-7.65078
-7.65663
-7.66163
-7.66604
-7.67009
-7.67395
-7.67778
-7.68173
-7.68593
-7.69049
-7.69548
-7.70099
-7.70708
-7.71379
-7.72116
-7.72922
-7.738
-7.74752
-7.75779
-7.76883
-7.78064
-7.79323
-7.80661
-7.82078
-7.83573
-7.85147
-7.86797
-7.88525
-7.90327
-7.92205
-7.94156
-7.96179
-7.98272
-8.00432
-8.02656
-8.04941
-8.07284
-8.09682
-8.1213
-8.14625
-8.17162
-8.19737
-8.22344
-8.24979
-8.27636
-8.30311
-8.32996
-8.35686
-8.38371
-8.41044
-8.43695
-8.46316
-8.48896
-8.51425
-8.53892
-8.56286
-8.58594
-8.60803
-8.62901
-8.64874
-8.66705
-8.68382
-8.69887
-8.71204
-8.72316
-8.73205
-8.73853
-8.74242
-8.74351
-8.74161
-8.73651
-8.72801
-8.71588
-8.69992
-8.67991
-8.6556
-8.6268
-8.59325
-8.55476
-8.51106
-8.46196
-8.40721
-8.34661
-8.27992
-8.20692
-8.12742
-8.04119
-7.94806
-7.84785
-7.74038
-7.62549
-7.50305
-7.37291
-7.23498
-7.08917
-6.93541
-6.77365
-6.60387
-6.42609
-6.24032
-6.04664
-5.84514
-5.63594
-5.4192
-5.1951
-4.96389
-4.7258
-4.48113
-4.23021
-3.9734
-3.7111
-3.44372
-3.17173
-2.89563
-2.61591
-2.33311
-2.04776
-1.76039
-1.47151
-1.18168
-0.891442
-0.601345
-0.311902
-0.0235948
0.263164
0.548004
0.83058
1.1105
1.38731
1.66062
1.93006
2.19534
2.4562
2.71245
2.96391
3.21045
3.45197