/*--------------------------------*- C++ -*----------------------------------*\
  =========                 |
  \\      /  F ield         | OpenFOAM: The Open Source CFD Toolbox
   \\    /   O peration     | Website:  https://openfoam.org
    \\  /    A nd           | Version:  9
     \\/     M anipulation  |
\*---------------------------------------------------------------------------*/
FoamFile
{
    format      ascii;
    class       volScalarField::Internal;
    location    "200";
    object      tmp<kEpsilon:G>;
}
// * * * * * * * * * * * * * * * * * * * * * * * * * * * * * * * * * * * * * //

dimensions      [0 2 -3 0 0 0 0];

value           nonuniform List<scalar> 
12225
(
0
0
0
0
0
0
0
0
0
0
0
0
0
0
0
0
0
0
947.066
499.276
262.426
277.618
379.803
495.343
604.963
715.416
802.499
888.851
950.184
1009.34
1048.97
1086.28
1113.96
1133.26
1171.33
1145.43
86.0782
123.082
55.4855
17.2167
5.17978
4.3949
8.79593
16.6833
26.6061
38.3826
50.8907
64.0877
77.5371
90.4452
104.112
115.59
130.137
136.579
5.16944
1.72722
0.642803
0.702594
0.465971
0.185617
0.0272081
0.189495
0.79109
1.88214
3.44631
5.42524
7.84024
10.4331
13.5115
16.4285
19.9939
22.9191
0.228996
0.13228
0.147929
0.313818
0.425644
0.405549
0.288132
0.152138
0.0558011
0.0243681
0.0745153
0.214005
0.452245
0.773383
1.20566
1.68784
2.28257
2.86494
0.178055
0.187882
0.265156
0.319935
0.322041
0.316544
0.288454
0.237169
0.180215
0.124854
0.0777656
0.0432478
0.0261159
0.0287889
0.0537815
0.100381
0.166548
0.246852
0.127219
0.21011
0.230412
0.21229
0.211438
0.229508
0.237129
0.22565
0.205872
0.181713
0.155706
0.128594
0.103617
0.0821479
0.0661039
0.0574353
0.0563922
0.062336
0.0976962
0.147833
0.159056
0.156512
0.166782
0.18703
0.199169
0.19863
0.192833
0.184537
0.174391
0.16218
0.149722
0.137785
0.128045
0.121763
0.120995
0.123561
0.0742239
0.104044
0.121593
0.129844
0.141252
0.15691
0.167918
0.171164
0.17093
0.169487
0.166997
0.163409
0.159514
0.156126
0.154306
0.154944
0.159649
0.166097
0.0562292
0.0772535
0.0968935
0.108343
0.118853
0.131655
0.141955
0.147073
0.149374
0.150845
0.151831
0.152294
0.152848
0.154025
0.156665
0.161053
0.168472
0.176294
0.0424714
0.0582994
0.0768617
0.0894265
0.0998008
0.111108
0.120755
0.126666
0.130161
0.132878
0.13533
0.137577
0.140054
0.143161
0.147454
0.152958
0.160412
0.167668
0.0325349
0.0451318
0.0620156
0.0750411
0.0854245
0.0957289
0.104691
0.110809
0.114829
0.118044
0.121021
0.123888
0.126965
0.130545
0.13498
0.140176
0.146551
0.152387
0.024643
0.0347831
0.0499072
0.0630115
0.0734331
0.0830625
0.0914761
0.0976441
0.101958
0.105401
0.10853
0.111529
0.114628
0.118042
0.121974
0.126298
0.131243
0.13555
0.0176582
0.0257729
0.0389567
0.0515642
0.0618965
0.0710127
0.0789318
0.0850513
0.0895433
0.0930937
0.0962036
0.0990889
0.101919
0.104836
0.107948
0.111129
0.114522
0.11727
0.0117274
0.0182928
0.0296403
0.0413834
0.0514041
0.0600541
0.067507
0.0734686
0.0779985
0.0815429
0.0845131
0.0871281
0.0895214
0.0917846
0.0939812
0.0960123
0.0979918
0.0994017
0.00694924
0.0123463
0.0220683
0.0327711
0.0422958
0.0504912
0.0574993
0.0632012
0.0676183
0.071033
0.0737601
0.0760043
0.0778831
0.0794693
0.0808132
0.0818647
0.0827277
0.083152
0.00340833
0.00796342
0.016375
0.0260552
0.0349838
0.0427129
0.0492818
0.0546425
0.058811
0.0619732
0.0643704
0.0661869
0.0675394
0.0685034
0.0691373
0.0694395
0.0694992
0.0692714
0.00121667
0.00522837
0.0127274
0.0215751
0.0299
0.0371228
0.0432108
0.0481396
0.0519269
0.0547139
0.0567007
0.0580586
0.0589091
0.0593389
0.0594186
0.0591859
0.0587032
0.0580742
0.000668702
0.00447387
0.0116207
0.0200809
0.0279947
0.0347647
0.040372
0.0448112
0.0481035
0.0503879
0.0518675
0.0527208
0.0530774
0.0530352
0.0526741
0.0520609
0.0512198
0.0503688
0.00202677
0.00607964
0.0136876
0.0224276
0.0302293
0.0366748
0.0419104
0.0459261
0.0487153
0.0504536
0.0513979
0.0517524
0.0516522
0.0511996
0.0504787
0.0495663
0.0484623
0.0474216
0.00470314
0.0094196
0.0181563
0.0275399
0.0352199
0.0412752
0.0461539
0.0497804
0.0520866
0.0533175
0.0537989
0.0537429
0.0532727
0.0524956
0.0515024
0.0503765
0.0490999
0.0479334
0.00868867
0.0148622
0.0252869
0.035245
0.042779
0.0485569
0.0530632
0.0560633
0.0576051
0.058176
0.0581738
0.0577469
0.0569617
0.0559204
0.0547131
0.053422
0.0520071
0.0507366
0.0139555
0.0239033
0.0362082
0.0444511
0.0509119
0.0572635
0.0624157
0.0650647
0.0656222
0.0652507
0.0645233
0.0635063
0.0622067
0.0607359
0.0591667
0.0575713
0.0558749
0.0543171
0.0214245
0.0421783
0.0593277
0.0605772
0.0598742
0.0639446
0.0699038
0.0737466
0.0750035
0.0750006
0.074247
0.0727431
0.0705685
0.0679998
0.065174
0.062247
0.0591439
0.0562237
0.0431863
0.0754097
0.0937656
0.105021
0.0975152
0.0905402
0.0880032
0.0867356
0.0852407
0.0834424
0.0805418
0.0760926
0.0702654
0.0636986
0.0568083
0.0500751
0.0436587
0.0380433
0.0800869
0.213427
0.0681536
0.0791205
0.167922
0.215376
0.214721
0.189875
0.158714
0.128088
0.0989508
0.0725883
0.0506704
0.0349093
0.0263846
0.0258646
0.0334604
0.0490875
0.667494
0.126972
0.315737
0.505508
0.37319
0.295622
0.229547
0.141664
0.0605516
0.0116415
0.0105987
0.0682082
0.189201
0.374978
0.620552
0.923988
1.27145
1.66084
32.2301
70.9022
43.2292
18.261
7.06666
2.67131
1.11391
1.00814
1.8168
3.28554
5.25821
7.63558
10.2756
13.1586
16.1301
19.2261
22.2428
25.2883
455.62
257.636
100.996
70.5625
91.6366
128.071
167.963
206.007
241.15
273.901
303.025
329.703
353.018
374.431
392.969
410.451
425.841
440.914
0
0
0
0
0
0
0
0
0
0
0
0
0
0
0
0
0
0
0
0
0
0
0
0
0
0
0
0
0
0
0
0
0
0
0
0
0
0
0
0
0
0
0
0
0
0
0
0
0
0
0
0
11.6372
12.3428
13.077
14.543
15.6971
17.1814
18.6506
20.2457
21.904
23.6551
25.4863
27.4045
29.4072
31.4979
33.6756
35.9438
38.3012
40.7516
43.2935
45.9305
48.6607
51.4877
54.4088
57.4275
60.5405
63.7509
67.0544
70.4538
73.944
77.5275
81.1978
84.9569
88.7975
92.7207
96.7181
100.79
104.928
109.13
113.387
117.696
122.047
126.437
130.854
135.293
139.742
144.196
148.64
153.069
157.467
161.826
166.13
170.368
174.523
178.581
182.524
186.334
189.993
193.48
196.778
199.878
202.787
205.5
208.019
210.333
212.434
214.312
215.958
217.362
218.515
219.41
220.039
220.396
220.475
220.272
219.784
219.007
217.941
216.586
214.944
213.016
210.808
208.324
205.573
202.561
199.302
195.807
192.079
188.077
183.916
179.532
175.002
170.329
165.495
160.531
155.458
150.289
145.045
139.741
134.397
129.03
123.656
118.292
112.954
107.654
102.41
97.2354
92.1443
87.1478
82.2542
77.4701
72.8009
68.2518
63.8253
59.5237
55.3469
51.2947
47.3646
43.5537
39.8569
36.2689
32.7823
29.3891
26.0798
22.8449
19.673
16.5528
13.4727
10.4205
7.39052
4.40751
1.74192
2.38403
5.22235
8.27298
11.4788
14.8414
18.3897
22.1532
26.1557
30.4111
34.9186
39.6409
44.5802
49.2744
54.3258
53.4385
0
0.00750451
0.0324703
0.074562
0.161708
0.299524
0.478931
0.686251
0.907495
1.1329
1.35809
1.58247
1.80768
2.03636
2.27138
2.51494
2.7685
3.03271
3.30551
3.57955
3.84562
4.09378
4.30084
4.44302
4.56456
4.87087
5.5958
5.9691
5.96164
5.89596
5.16126
4.48801
4.21755
4.59294
4.52198
4.82519
5.51971
5.58621
5.30762
5.15521
5.06341
4.96171
4.85227
4.73571
4.61413
4.48849
4.35977
4.2288
4.09645
3.9634
3.83035
3.69781
3.56644
3.43679
3.30956
3.18534
3.06486
2.94888
2.83829
2.73394
2.63685
2.54804
2.46869
2.39998
2.3432
2.29964
2.27068
2.25769
2.26212
2.28541
2.32904
2.39444
2.48305
2.59631
2.73556
2.90213
3.09719
3.32187
3.57716
3.86404
4.18318
4.53511
4.92006
5.33799
5.78822
6.26949
6.77949
7.31466
7.86976
8.43802
9.01193
9.58303
10.1407
10.6733
11.1599
11.6504
12.1399
12.6402
13.1535
13.6809
14.222
14.7759
15.3412
15.9163
16.4994
17.0884
17.681
18.275
18.8677
19.4565
20.0383
20.6102
21.169
21.7115
22.2345
22.7349
23.2093
23.6554
24.0708
24.4533
24.7997
25.1082
25.3725
25.5898
25.7611
25.8963
25.9887
26.0356
26.0391
26
25.9192
25.7987
25.6401
25.4463
25.2197
24.9644
24.6842
24.3829
24.0638
23.7309
23.3889
23.0422
22.6955
22.3526
22.0173
21.6932
21.3844
21.0943
20.8273
20.5864
20.3758
20.1987
20.0593
19.9608
19.9079
19.9044
19.9551
20.0649
20.2354
20.4705
20.783
21.1816
21.6795
22.3042
23.0848
24.0956
25.4525
27.1074
28.9972
31.1328
33.4897
36.0424
38.7597
41.6038
44.5169
47.4868
50.3437
54.0106
57.6723
70.0793
0
0.117378
0.263611
0.380021
0.504744
0.66506
0.874835
1.12973
1.41566
1.71776
2.02505
2.3316
2.63561
2.93774
3.23951
3.5419
3.84465
4.1459
4.44114
4.7215
4.97396
5.18675
5.36048
5.49529
5.62094
5.78592
5.95134
5.99085
5.87572
5.68074
5.45309
5.29301
5.21214
5.19256
5.13935
5.19253
5.33228
5.42128
5.43381
5.45338
5.53191
5.6463
5.78916
5.9565
6.14693
6.35915
6.5921
6.84471
7.11615
7.40566
7.7127
8.03666
8.37705
8.73339
9.10531
9.49237
9.89419
10.3103
10.7404
11.1841
11.6409
12.1104
12.5923
13.0861
13.5915
14.1082
14.6357
15.1737
15.7219
16.2798
16.8472
17.4236
18.0089
18.6026
19.2046
19.8145
20.432
21.0566
21.688
22.3256
22.9692
23.6181
24.2718
24.9295
25.5909
26.255
26.9214
27.5897
28.2605
28.9364
29.6239
30.3348
31.0873
31.901
32.8087
33.746
34.7074
35.6849
36.6754
37.6773
38.6886
39.7072
40.7302
41.7542
42.7755
43.7904
44.7946
45.7839
46.7534
47.6982
48.6131
49.4927
50.3314
51.1238
51.8642
52.5472
53.1673
53.721
54.2045
54.6137
54.9428
55.1871
55.3477
55.4161
55.3902
55.2867
55.1004
54.8308
54.4817
54.0562
53.5574
52.9904
52.3597
51.6719
50.933
50.1513
49.3349
48.492
47.6285
46.7507
45.8662
44.985
44.1171
43.2713
42.4543
41.6729
40.9337
40.2435
39.6081
39.0336
38.5255
38.0896
37.7307
37.4546
37.266
37.1658
37.1608
37.2612
37.4735
37.8099
38.2823
38.9157
39.7622
40.8245
42.0836
43.5212
45.08
46.7392
48.5398
50.5002
52.6034
54.8194
57.1202
59.4686
61.8207
64.2208
66.6458
70.2615
75.0842
87.1668
0
0.34623
0.638072
0.84892
1.00586
1.1595
1.34702
1.57967
1.85365
2.15853
2.48246
2.81539
3.15016
3.48209
3.80781
4.12404
4.42663
4.71012
4.9674
5.18993
5.3694
5.50091
5.58599
5.63654
5.67609
5.74165
5.83509
5.89144
5.88336
5.82689
5.74322
5.6976
5.77312
5.95008
6.13062
6.37658
6.69954
7.01258
7.28912
7.5737
7.88455
8.22054
8.58029
8.96298
9.36838
9.79629
10.2463
10.718
11.2107
11.7237
12.2565
12.8084
13.3791
13.9678
14.5742
15.1979
15.8385
16.4955
17.1687
17.8577
18.5622
19.282
20.0168
20.7664
21.5307
22.3096
23.103
23.9107
24.7328
25.5691
26.4198
27.2847
28.1639
29.0575
29.9657
30.8884
31.8258
32.7777
33.7443
34.7255
35.7213
36.7319
37.7574
38.798
39.8543
40.9268
42.0171
43.1269
44.2597
45.4213
46.6197
47.8623
49.1506
50.4789
51.841
53.2274
54.6384
56.0693
57.516
58.975
60.4428
61.9158
63.3896
64.8597
66.321
67.7684
69.1962
70.5986
71.9692
73.3014
74.5882
75.8223
76.9965
78.1033
79.1353
80.0847
80.9451
81.7108
82.3768
82.9374
83.385
83.7121
83.9204
84.0064
83.9594
83.7972
83.5206
83.1291
82.6292
82.0245
81.3198
80.5211
79.6353
78.6703
77.6352
76.5408
75.398
74.2176
73.0073
71.7754
70.5315
69.2895
68.0632
66.8651
65.7046
64.5917
63.5346
62.5431
61.6242
60.7866
60.037
59.38
58.8206
58.3697
58.0335
57.821
57.742
57.8053
58.0297
58.4321
59.0102
59.7679
60.7041
61.8167
63.1126
64.5759
66.1494
67.8001
69.5484
71.4083
73.3679
75.4023
77.4823
79.5853
81.7009
83.9384
86.3896
90.3798
95.9621
106.404
0
0.620683
1.06129
1.39069
1.59855
1.75527
1.91851
2.11138
2.34037
2.60279
2.89074
3.1945
3.50478
3.81354
4.11393
4.3997
4.66471
4.90276
5.10779
5.27455
5.40037
5.48776
5.54628
5.59166
5.64558
5.72581
5.83645
5.95723
6.06697
6.16332
6.25959
6.38445
6.56806
6.81068
7.09931
7.44578
7.84594
8.26708
8.69342
9.1364
9.60515
10.1013
10.6244
11.174
11.7497
12.3515
12.9791
13.6324
14.3111
15.0149
15.7433
16.4962
17.2732
18.0742
18.8988
19.7468
20.6182
21.5127
22.4304
23.3712
24.3351
25.3222
26.3325
27.3662
28.4235
29.5045
30.6094
31.7386
32.8922
34.0703
35.2734
36.5015
37.755
39.034
40.3388
41.6697
43.0267
44.4099
45.8194
47.2554
48.7178
50.207
51.7231
53.2666
54.8382
56.4388
58.0699
59.7335
61.432
63.1692
64.9488
66.7719
68.6334
70.5238
72.4366
74.3714
76.3287
78.3054
80.2971
82.2995
84.3079
86.3173
88.3221
90.3163
92.2939
94.2483
96.1728
98.06
99.9023
101.692
103.419
105.077
106.655
108.145
109.537
110.822
111.993
113.042
113.962
114.746
115.385
115.867
116.196
116.371
116.378
116.228
115.93
115.484
114.898
114.177
113.327
112.354
111.266
110.072
108.784
107.414
105.975
104.48
102.939
101.361
99.7597
98.15
96.5494
94.9722
93.4316
91.9394
90.5072
89.143
87.8563
86.6591
85.5613
84.571
83.6997
82.9565
82.35
81.8975
81.6068
81.4764
81.513
81.7176
82.0947
82.6493
83.382
84.2872
85.3643
86.5944
87.9308
89.3372
90.8194
92.3834
94.0279
95.7356
97.4937
99.3
101.181
103.304
105.85
110.139
115.976
124.873
0
0.878056
1.438
1.88581
2.15578
2.32772
2.47405
2.62612
2.79843
2.99573
3.21571
3.4519
3.69621
3.94048
4.17724
4.39989
4.60277
4.78127
4.9322
5.05432
5.14931
5.2227
5.28412
5.34653
5.42458
5.5308
5.67007
5.83691
6.02258
6.22355
6.44367
6.69315
6.98238
7.3169
7.69841
8.13077
8.61119
9.12815
9.67278
10.245
10.8475
11.4817
12.148
12.8464
13.5765
14.3385
15.1322
15.9576
16.8148
17.7038
18.6246
19.5771
20.5615
21.5778
22.6261
23.7068
24.8199
25.9659
27.1451
28.358
29.605
30.8867
32.2035
33.5561
34.9451
36.371
37.8345
39.3362
40.8765
42.4561
44.0754
45.7347
47.4346
49.1753
50.9571
52.7801
54.6446
56.5503
58.4974
60.4856
62.5148
64.5849
66.6959
68.8476
71.0403
73.2743
75.5499
77.8679
80.2288
82.6332
85.0808
87.5688
90.0907
92.6383
95.2064
97.794
100.4
103.021
105.654
108.292
110.93
113.561
116.179
118.777
121.347
123.883
126.375
128.815
131.195
133.504
135.734
137.874
139.914
141.843
143.65
145.326
146.859
148.243
149.469
150.526
151.404
152.091
152.586
152.893
152.997
152.901
152.62
152.153
151.513
150.706
149.737
148.613
147.343
145.936
144.406
142.767
141.033
139.218
137.334
135.393
133.41
131.403
129.391
127.39
125.414
123.48
121.603
119.794
118.068
116.438
114.914
113.512
112.243
111.113
110.126
109.289
108.605
108.08
107.717
107.518
107.486
107.621
107.922
108.381
108.993
109.739
110.583
111.495
112.474
113.526
114.653
115.852
117.123
118.49
120.014
121.903
124.378
128.659
134.197
141.781
0
1.08616
1.71467
2.25372
2.5797
2.77128
2.90751
3.02445
3.14206
3.27101
3.41444
3.57031
3.73377
3.89899
4.06025
4.2126
4.35223
4.47673
4.58531
4.67909
4.76138
4.83785
4.91635
5.00629
5.11745
5.25802
5.43268
5.64161
5.88229
6.15293
6.45436
6.79011
7.16468
7.582
8.0455
8.55796
9.11893
9.72397
10.3683
11.0498
11.7684
12.5247
13.3191
14.1518
15.0231
15.9331
16.8822
17.8704
18.8983
19.9661
21.0744
22.2237
23.4145
24.6475
25.9233
27.2429
28.6071
30.0168
31.4732
32.9771
34.5299
36.1326
37.7864
39.4925
41.252
43.0661
44.9358
46.8622
48.8463
50.8887
52.9903
55.1517
57.3732
59.6553
61.998
64.4015
66.8656
69.3898
71.9737
74.6166
77.3177
80.0762
82.8911
85.7614
88.6861
91.664
94.694
97.7748
100.905
104.081
107.301
110.56
113.85
117.164
120.497
123.845
127.206
130.576
133.948
137.317
140.676
144.018
147.334
150.616
153.855
157.044
160.173
163.232
166.211
169.1
171.887
174.563
177.114
179.53
181.797
183.905
185.843
187.601
189.169
190.534
191.683
192.604
193.294
193.758
193.982
193.962
193.714
193.24
192.555
191.666
190.581
189.305
187.846
186.217
184.43
182.501
180.448
178.283
176.021
173.674
171.262
168.805
166.325
163.841
161.371
158.934
156.546
154.227
151.992
149.853
147.818
145.899
144.102
142.435
140.905
139.516
138.272
137.177
136.232
135.439
134.797
134.307
133.965
133.762
133.69
133.734
133.866
134.067
134.336
134.68
135.109
135.631
136.263
137.05
138.082
139.586
141.782
145.751
150.577
156.947
0
1.23041
1.86536
2.45359
2.81454
3.02077
3.14919
3.23771
3.30911
3.37814
3.45236
3.53403
3.62214
3.71415
3.80709
3.89841
3.98635
4.07026
4.15078
4.22988
4.31092
4.39854
4.49846
4.61714
4.76118
4.93636
5.14679
5.39449
5.6798
6.00265
6.36351
6.76384
7.20584
7.69212
8.22538
8.80789
9.4404
10.1218
10.85
11.6236
12.442
13.3052
14.2136
15.1677
16.1679
17.2149
18.3094
19.4521
20.6439
21.8858
23.1788
24.5241
25.923
27.3768
28.8871
30.4555
32.0837
33.7736
35.5268
37.3455
39.2316
41.187
43.2136
45.3135
47.4884
49.7401
52.0703
54.4805
56.9721
59.5461
62.2035
64.945
67.771
70.6817
73.6772
76.7569
79.9203
83.1663
86.4938
89.901
93.3863
96.9475
100.582
104.288
108.063
111.902
115.804
119.764
123.779
127.843
131.951
136.095
140.269
144.464
148.672
152.89
157.111
161.33
165.539
169.733
173.901
178.035
182.126
186.164
190.141
194.046
197.868
201.599
205.225
208.737
212.121
215.367
218.462
221.391
224.143
226.705
229.066
231.214
233.136
234.818
236.246
237.407
238.296
238.916
239.254
239.307
239.083
238.589
237.84
236.849
235.624
234.169
232.493
230.61
228.531
226.275
223.856
221.294
218.601
215.797
212.903
209.941
206.934
203.907
200.883
197.877
194.909
191.994
189.147
186.38
183.705
181.132
178.669
176.322
174.098
172.002
170.035
168.201
166.5
164.934
163.501
162.2
161.026
159.973
159.031
158.189
157.431
156.746
156.139
155.622
155.211
154.927
154.802
154.899
155.326
156.31
158.046
161.469
165.339
170.519
0
1.31112
1.89042
2.47989
2.84914
3.05823
3.17693
3.2423
3.27788
3.3006
3.32104
3.34482
3.37429
3.40993
3.45142
3.49835
3.55062
3.60878
3.67411
3.74868
3.83527
3.9375
4.05932
4.20517
4.37957
4.58674
4.83017
5.11239
5.43497
5.79898
6.20539
6.65541
7.15064
7.69301
8.2846
8.9275
9.62277
10.3708
11.1713
12.0241
12.9291
13.8865
14.897
15.9614
17.0805
18.2557
19.4882
20.7795
22.1312
23.5452
25.0232
26.5673
28.1798
29.863
31.6194
33.4517
35.3626
37.355
39.4319
41.5962
43.8509
46.199
48.6433
51.1867
53.8317
56.581
59.4367
62.4008
65.4751
68.6611
71.9596
75.3715
78.8971
82.5361
86.2881
90.152
94.1264
98.2094
102.398
106.691
111.083
115.572
120.152
124.82
129.571
134.399
139.298
144.263
149.286
154.359
159.476
164.626
169.8
174.989
180.184
185.376
190.558
195.722
200.86
205.962
211.017
216.016
220.948
225.802
230.568
235.235
239.792
244.227
248.528
252.684
256.682
260.509
264.151
267.596
270.829
273.838
276.612
279.135
281.394
283.371
285.053
286.428
287.488
288.231
288.649
288.74
288.506
287.954
287.102
285.964
284.553
282.871
280.928
278.735
276.308
273.664
270.822
267.801
264.619
261.299
257.863
254.335
250.739
247.097
243.432
239.762
236.108
232.487
228.914
225.401
221.964
218.609
215.347
212.184
209.125
206.175
203.338
200.612
198.003
195.507
193.124
190.853
188.692
186.633
184.672
182.802
181.015
179.311
177.703
176.208
174.853
173.668
172.698
172.02
171.75
172.103
173.232
175.94
178.735
182.783
0
1.33678
1.80784
2.35532
2.70605
2.90377
3.00823
3.05371
3.06299
3.05361
3.03768
3.02289
3.0139
3.01341
3.023
3.04396
3.07717
3.12379
3.18529
3.26351
3.36053
3.47911
3.6221
3.7927
3.99421
4.22984
4.50259
4.81502
5.16924
5.56701
6.00986
6.49933
7.0371
7.62503
8.26508
8.95925
9.70879
10.5154
11.3797
12.3027
13.2853
14.3282
15.4328
16.6004
17.8329
19.1322
20.5005
21.9403
23.4542
25.045
26.7157
28.4695
30.3098
32.2401
34.2643
36.3862
38.61
40.9398
43.3798
45.9343
48.6073
51.4031
54.3254
57.3781
60.5646
63.8882
67.3516
70.9574
74.7075
78.6035
82.6463
86.8365
91.1738
95.6576
100.287
105.058
109.971
115.02
120.203
125.514
130.948
136.499
142.161
147.927
153.789
159.738
165.766
171.865
178.023
184.23
190.477
196.75
203.039
209.33
215.614
221.879
228.113
234.308
240.452
246.532
252.538
258.457
264.277
269.987
275.574
281.027
286.333
291.481
296.457
301.251
305.848
310.236
314.401
318.329
322.008
325.423
328.563
331.411
333.952
336.169
338.053
339.585
340.759
341.566
342.002
342.067
341.756
341.071
340.038
338.673
336.997
335.009
332.719
330.139
327.289
324.186
320.851
317.302
313.561
309.651
305.593
301.413
297.135
292.782
288.378
283.942
279.498
275.062
270.653
266.282
261.966
257.712
253.531
249.428
245.41
241.482
237.645
233.902
230.254
226.701
223.243
219.88
216.61
213.431
210.34
207.337
204.425
201.611
198.916
196.368
193.998
191.848
189.973
188.459
187.421
187.056
187.47
189.352
191.033
193.993
0
1.32079
1.64558
2.118
2.42793
2.60102
2.68587
2.71286
2.70307
2.67349
2.63658
2.60098
2.57254
2.55504
2.55099
2.56236
2.59075
2.63765
2.70455
2.79299
2.90467
3.04157
3.20583
3.39983
3.62611
3.88731
4.18608
4.52495
4.90634
5.33241
5.80523
6.3268
6.89921
7.52468
8.2055
8.94422
9.74269
10.6033
11.5274
12.5169
13.5736
14.6995
15.8968
17.168
18.516
19.944
21.4555
23.0542
24.7439
26.5288
28.4132
30.4017
32.4992
34.7108
37.0417
39.4975
42.0838
44.8061
47.6702
50.6817
53.8459
57.1681
60.6534
64.3062
68.1309
72.1312
76.3104
80.6711
85.2155
89.9448
94.8596
99.9598
105.244
110.712
116.359
122.183
128.178
134.341
140.664
147.141
153.764
160.524
167.411
174.416
181.528
188.735
196.025
203.386
210.803
218.264
225.754
233.26
240.765
248.256
255.717
263.134
270.495
277.785
284.991
292.098
299.093
305.962
312.691
319.268
325.678
331.91
337.949
343.785
349.403
354.793
359.943
364.839
369.466
373.813
377.866
381.613
385.038
388.127
390.859
393.222
395.203
396.788
397.965
398.728
399.074
399.004
398.506
397.578
396.257
394.557
392.512
390.121
387.391
384.339
380.977
377.325
373.402
369.23
364.833
360.232
355.452
350.518
345.456
340.29
335.044
329.74
324.401
319.048
313.696
308.364
303.062
297.804
292.598
287.452
282.371
277.36
272.422
267.561
262.777
258.074
253.449
248.907
244.446
240.07
235.78
231.583
227.488
223.514
219.686
216.041
212.62
209.471
206.659
204.271
202.419
201.276
200.901
201.893
202.471
204.401
0
1.27857
1.43505
1.81177
2.06536
2.20343
2.26362
2.27211
2.24796
2.20704
2.16117
2.11867
2.08576
2.06659
2.06408
2.08043
2.11702
2.1752
2.25613
2.36098
2.49107
2.64794
2.83337
3.04936
3.29813
3.58208
3.90379
4.26592
4.67113
5.12203
5.62121
6.17125
6.77488
7.43491
8.15408
8.93552
9.78192
10.6972
11.6834
12.7435
13.8804
15.0972
16.3974
17.7853
19.2653
20.8422
22.5211
24.3073
26.2062
28.2236
30.3653
32.6378
35.0477
37.6018
40.3072
43.1711
46.201
49.4039
52.787
56.3572
60.1212
64.0852
68.255
72.636
77.2328
82.0493
87.0889
92.354
97.8461
103.566
109.513
115.686
122.083
128.699
135.531
142.573
149.817
157.257
164.883
172.685
180.652
188.772
197.033
205.419
213.918
222.513
231.189
239.929
248.715
257.533
266.363
275.188
283.989
292.748
301.447
310.068
318.596
327.013
335.303
343.448
351.434
359.245
366.865
374.28
381.477
388.441
395.158
401.617
407.805
413.709
419.317
424.618
429.598
434.246
438.55
442.498
446.074
449.262
452.044
454.405
456.333
457.818
458.85
459.423
459.539
459.194
458.377
457.082
455.357
453.201
450.668
447.754
444.466
440.817
436.82
432.496
427.866
422.952
417.781
412.376
406.761
400.964
395.009
388.924
382.731
376.456
370.122
363.751
357.361
350.969
344.59
338.237
331.918
325.641
319.414
313.242
307.128
301.077
295.09
289.172
283.325
277.552
271.857
266.245
260.725
255.309
250.013
244.863
239.893
235.144
230.667
226.514
222.756
219.481
216.793
214.838
213.638
213.714
213.23
214.189
0
1.22397
1.20561
1.4781
1.66709
1.76343
1.79553
1.78519
1.74937
1.70261
1.65588
1.61716
1.59181
1.58343
1.59442
1.62637
1.68044
1.75752
1.85839
1.98395
2.13526
2.31367
2.52078
2.75849
3.02899
3.33474
3.6785
4.0632
4.4919
4.96772
5.4939
6.07391
6.71131
7.40985
8.17342
9.0062
9.91167
10.8938
11.9569
13.1054
14.344
15.6778
17.1119
18.6525
20.3059
22.0791
23.979
26.0128
28.188
30.512
32.9928
35.6387
38.4584
41.4608
44.6549
48.0497
51.6542
55.4771
59.5266
63.8108
68.3372
73.1125
78.1428
83.4335
88.9891
94.8129
100.907
107.274
113.913
120.824
128.004
135.449
143.156
151.117
159.326
167.773
176.449
185.342
194.44
203.729
213.195
222.822
232.592
242.488
252.492
262.583
272.742
282.947
293.181
303.421
313.645
323.834
333.963
344.012
353.959
363.785
373.467
382.989
392.33
401.471
410.395
419.084
427.521
435.691
443.579
451.17
458.451
465.41
472.033
478.309
484.227
489.775
494.942
499.719
504.097
508.063
511.603
514.702
517.345
519.52
521.222
522.434
523.157
523.372
523.103
522.321
521.027
519.206
516.914
514.143
510.96
507.369
503.37
498.975
494.198
489.06
483.583
477.794
471.719
465.384
458.815
452.037
445.078
437.964
430.721
423.374
415.948
408.466
400.95
393.415
385.878
378.353
370.849
363.376
355.941
348.551
341.211
333.924
326.696
319.531
312.435
305.413
298.472
291.621
284.875
278.25
271.769
265.461
259.37
253.543
248.033
242.903
238.223
234.078
230.56
227.792
225.759
224.928
223.442
223.498
0
1.16849
0.981544
1.15196
1.27527
1.32766
1.32958
1.29993
1.25439
1.20594
1.1643
1.13624
1.12617
1.13674
1.16936
1.22476
1.30329
1.40525
1.53103
1.68124
1.85685
2.05917
2.28989
2.55107
2.84513
3.17499
3.54385
3.95522
4.41296
4.92102
5.48432
6.10688
6.79339
7.54858
8.37737
9.28481
10.2766
11.3586
12.5374
13.8198
15.2127
16.7234
18.3597
20.1299
22.0427
24.1072
26.3328
28.7288
31.3048
34.0705
37.0361
40.2121
43.6094
47.2388
51.111
55.2366
59.6255
64.2874
69.2311
74.4646
79.9954
85.8297
91.9728
98.4289
105.201
112.29
119.698
127.422
135.461
143.811
152.466
161.42
170.664
180.188
189.982
200.032
210.324
220.844
231.574
242.497
253.594
264.844
276.228
287.721
299.303
310.948
322.634
334.337
346.032
357.695
369.301
380.825
392.242
403.527
414.656
425.606
436.354
446.878
457.157
467.169
476.897
486.319
495.419
504.179
512.584
520.62
528.275
535.535
542.389
548.826
554.84
560.42
565.559
570.249
574.482
578.247
581.531
584.323
586.609
588.384
589.638
590.367
590.551
590.214
589.339
587.918
585.946
583.408
580.36
576.789
572.771
568.325
563.441
558.132
552.413
546.303
539.83
533.022
525.907
518.512
510.864
502.987
494.912
486.663
478.269
469.757
461.151
452.477
443.756
435.007
426.248
417.491
408.75
400.033
391.35
382.708
374.114
365.572
357.09
348.674
340.331
332.07
323.9
315.837
307.899
300.111
292.497
285.092
277.939
271.091
264.606
258.539
252.967
247.974
243.641
240.073
237.223
235.517
233.101
232.34
0
1.12032
0.779297
0.85741
0.91871
0.928281
0.901153
0.853667
0.800552
0.753771
0.721884
0.71025
0.721768
0.757652
0.818088
0.902743
1.01117
1.14302
1.29839
1.4778
1.68229
1.91343
2.17338
2.46472
2.79103
3.1557
3.56286
4.01693
4.52282
5.08592
5.71188
6.40692
7.17747
8.03027
8.97277
10.012
11.1566
12.4154
13.7976
15.313
16.9715
18.7836
20.76
22.9118
25.2501
27.7867
30.5334
33.5019
36.7038
40.1512
43.8565
47.8323
52.0909
56.6445
61.5045
66.6816
72.1855
78.0251
84.2079
90.7405
97.628
104.874
112.482
120.452
128.783
137.474
146.521
155.919
165.662
175.739
186.143
196.861
207.881
219.187
230.764
242.594
254.66
266.94
279.414
292.061
304.858
317.779
330.801
343.898
357.043
370.212
383.377
396.508
409.578
422.558
435.423
448.145
460.697
473.05
485.179
497.059
508.665
519.974
530.963
541.611
551.899
561.806
571.313
580.402
589.059
597.272
605.029
612.317
619.126
625.449
631.282
636.617
641.448
645.773
649.581
652.868
655.617
657.828
659.483
660.59
661.139
661.102
660.522
659.369
657.645
655.349
652.475
649.005
644.989
640.413
635.356
629.86
623.906
617.505
610.671
603.428
595.803
587.83
579.537
570.953
562.104
553.018
543.72
534.241
524.607
514.846
504.986
495.053
485.067
475.052
465.023
454.996
444.984
434.999
425.049
415.145
405.293
395.502
385.781
376.141
366.587
357.131
347.785
338.568
329.503
320.609
311.909
303.451
295.283
287.462
280.045
273.098
266.7
260.921
255.831
251.511
247.894
245.375
242.128
240.654
0
1.08251
0.604368
0.603864
0.610564
0.581554
0.528332
0.466709
0.410794
0.371349
0.355346
0.366433
0.405839
0.473254
0.567582
0.687522
0.832011
1.00053
1.19332
1.4112
1.65578
1.92937
2.23509
2.5769
2.9594
3.38799
3.86853
4.40749
5.01209
5.6905
6.45119
7.30336
8.25659
9.32093
10.5069
11.8261
13.2914
14.9159
16.7129
18.6959
20.8789
23.2763
25.9021
28.7702
31.8945
35.2887
38.9658
42.9396
47.2232
51.8303
56.7741
62.0675
67.7222
73.7487
80.1561
86.952
94.1424
101.732
109.723
118.118
126.915
136.114
145.71
155.698
166.07
176.82
187.936
199.408
211.222
223.364
235.818
248.567
261.593
274.876
288.394
302.127
316.051
330.141
344.373
358.724
373.166
387.672
402.214
416.764
431.296
445.78
460.186
474.484
488.644
502.637
516.438
530.02
543.353
556.409
569.16
581.584
593.654
605.349
616.646
627.525
637.968
647.954
657.462
666.475
674.981
682.97
690.434
697.361
703.74
709.569
714.847
719.569
723.731
727.333
730.365
732.829
734.703
736.008
736.713
736.836
736.348
735.29
733.62
731.352
728.488
725.034
720.986
716.323
711.087
705.255
698.91
692.125
684.871
677.156
668.994
660.412
651.442
642.121
632.477
622.541
612.338
601.896
591.243
580.406
569.417
558.303
547.093
535.813
524.487
513.136
501.779
490.432
479.111
467.826
456.589
445.41
434.296
423.259
412.31
401.445
390.688
380.051
369.55
359.207
349.051
339.111
329.421
320.014
310.944
302.263
294.031
286.332
279.209
272.739
266.98
261.997
257.696
254.448
250.45
248.391
0
1.04693
0.463938
0.407061
0.373958
0.318143
0.249715
0.184306
0.13541
0.112383
0.120335
0.161073
0.234237
0.338386
0.471704
0.632595
0.820164
1.0345
1.27681
1.54935
1.85524
2.19868
2.58515
3.02144
3.51571
4.07648
4.71306
5.43558
6.25545
7.18536
8.23892
9.43152
10.7782
12.2943
13.9973
15.9046
18.035
20.4068
23.0377
25.9452
29.1466
32.6593
36.4999
40.683
45.2226
50.1319
55.424
61.1087
67.1987
73.7053
80.6385
88.0057
95.8119
104.06
112.751
121.883
131.454
141.458
151.889
162.74
173.999
185.657
197.702
210.118
222.89
236.003
249.44
263.182
277.211
291.507
306.047
320.812
335.778
350.923
366.223
381.651
397.185
412.797
428.464
444.157
459.851
475.519
491.13
506.658
522.073
537.347
552.454
567.364
582.048
596.481
610.637
624.49
638.015
651.184
663.972
676.355
688.309
699.815
710.853
721.407
731.461
740.995
749.989
758.429
766.307
773.619
780.354
786.5
792.047
796.995
801.345
805.095
808.245
810.788
812.725
814.057
814.748
814.848
814.285
813.159
811.4
809.023
806.027
802.413
798.193
793.379
787.969
781.95
775.334
768.104
760.323
752.114
743.434
734.287
724.689
714.669
704.264
693.512
682.443
671.087
659.47
647.616
635.557
623.32
610.936
598.437
585.85
573.203
560.519
547.821
535.129
522.46
509.831
497.254
484.743
472.304
459.949
447.689
435.542
423.526
411.644
399.915
388.358
377.001
365.872
355.02
344.452
334.218
324.373
314.966
306.054
297.686
289.946
282.892
276.569
271.027
266.149
262.293
257.675
255.233
0
1.0076
0.360671
0.276856
0.226096
0.161737
0.0944031
0.0396489
0.00979565
0.012417
0.0507837
0.125308
0.235061
0.378719
0.555076
0.763618
1.00524
1.28277
1.60078
1.96519
2.38268
2.86146
3.41231
4.04849
4.78478
5.63705
6.62203
7.75727
9.06285
10.5618
12.2782
14.2368
16.4604
18.9713
21.7927
24.9484
28.4627
32.3578
36.6532
41.3643
46.5053
52.0902
58.1306
64.637
71.6165
79.0757
87.0144
95.4298
104.33
113.714
123.576
133.91
144.706
155.951
167.631
179.733
192.24
205.134
218.398
232.014
245.961
260.222
274.775
289.601
304.679
319.986
335.504
351.212
367.087
383.109
399.256
415.506
431.837
448.228
464.653
481.092
497.522
513.918