/*--------------------------------*- C++ -*----------------------------------*\
  =========                 |
  \\      /  F ield         | OpenFOAM: The Open Source CFD Toolbox
   \\    /   O peration     | Website:  https://openfoam.org
    \\  /    A nd           | Version:  9
     \\/     M anipulation  |
\*---------------------------------------------------------------------------*/
FoamFile
{
    format      ascii;
    class       volScalarField;
    location    "0.25";
    object      epsilon;
}
// * * * * * * * * * * * * * * * * * * * * * * * * * * * * * * * * * * * * * //

dimensions      [0 2 -3 0 0 0 0];

internalField   nonuniform List<scalar> 
12225
(
278.515
263.66
249.434
236.839
226.738
219.483
215.069
213.262
213.705
215.989
219.71
224.5
230.038
236.06
242.364
248.781
255.347
264.853
61.116
86.6952
97.9911
107.207
118.464
132.555
149.408
168.608
189.572
211.674
234.325
257.012
279.331
300.985
321.878
341.847
362.401
380.93
25.2776
36.183
43.3817
48.6212
53.3861
58.3357
63.7698
69.8243
76.5243
83.8213
91.6253
99.8267
108.314
116.987
125.779
134.667
143.8
153.17
17.5217
21.2986
24.7145
27.6099
30.1618
32.5399
34.8664
37.2275
39.6764
42.2396
44.9246
47.7268
50.6351
53.6372
56.724
59.9031
63.1925
66.6178
15.4878
16.7519
18.1858
19.5889
20.9094
22.1489
23.3262
24.465
25.5861
26.7047
27.8307
28.9696
30.1243
31.2963
32.4871
33.7015
34.9445
36.2124
14.9084
15.2396
15.7463
16.334
16.9476
17.5589
18.1558
18.7355
19.3
19.8524
20.3959
20.9331
21.4663
21.997
22.5271
23.0589
23.594
24.1267
14.7451
14.7391
14.8342
15.0036
15.2215
15.4679
15.7285
15.9948
16.2619
16.5273
16.7901
17.0497
17.3063
17.5601
17.8117
18.0617
18.3106
18.5543
14.7012
14.5825
14.5116
14.4858
14.4981
14.5403
14.6043
14.6837
14.7736
14.8707
14.9724
15.0771
15.1836
15.2912
15.3994
15.5081
15.6171
15.7235
14.6901
14.5373
14.407
14.3009
14.2182
14.1571
14.1145
14.0875
14.0732
14.0692
14.0735
14.0844
14.1006
14.1211
14.1452
14.1721
14.2015
14.2317
14.6874
14.5252
14.3761
14.2411
14.1204
14.0137
13.9203
13.8391
13.7688
13.7083
13.6564
13.6119
13.574
13.5418
13.5147
13.4919
13.473
13.4572
14.6868
14.5221
14.3677
14.2236
14.0896
13.9656
13.8512
13.746
13.6495
13.5611
13.4801
13.4061
13.3383
13.2764
13.2197
13.1678
13.1203
13.0771
14.6866
14.5213
14.3656
14.219
14.0812
13.9518
13.8305
13.7169
13.6105
13.5111
13.4182
13.3314
13.2504
13.1747
13.104
13.038
12.9764
12.9194
14.6865
14.521
14.3648
14.2175
14.0785
13.9473
13.8234
13.7065
13.5963
13.4922
13.3941
13.3016
13.2143
13.1319
13.0543
12.981
12.912
12.8476
14.6864
14.5208
14.3645
14.2169
14.0774
13.9456
13.8209
13.7029
13.5913
13.4855
13.3853
13.2904
13.2005
13.1153
13.0345
12.9579
12.8853
12.8172
14.6864
14.5207
14.3643
14.2165
14.0769
13.9449
13.8199
13.7016
13.5895
13.4832
13.3824
13.2868
13.196
13.1098
13.0279
12.9501
12.8762
12.8068
14.6863
14.5206
14.3641
14.2163
14.0766
13.9444
13.8194
13.7009
13.5886
13.4822
13.3812
13.2854
13.1943
13.1079
13.0257
12.9475
12.8732
12.8034
14.6863
14.5205
14.364
14.2161
14.0763
13.9441
13.8189
13.7004
13.5881
13.4815
13.3805
13.2845
13.1934
13.1068
13.0245
12.9462
12.8718
12.8018
14.6863
14.5204
14.3639
14.216
14.0761
13.9439
13.8186
13.7001
13.5877
13.4811
13.3799
13.2839
13.1927
13.1061
13.0237
12.9454
12.8709
12.8008
14.6863
14.5204
14.3639
14.2159
14.0761
13.9438
13.8186
13.6999
13.5875
13.4809
13.3797
13.2837
13.1924
13.1057
13.0233
12.9449
12.8704
12.8002
14.6863
14.5205
14.3639
14.216
14.0762
13.9439
13.8187
13.7001
13.5877
13.4811
13.38
13.284
13.1928
13.1061
13.0237
12.9453
12.8709
12.8007
14.6863
14.5205
14.364
14.2162
14.0764
13.9443
13.8192
13.7007
13.5885
13.4821
13.3812
13.2854
13.1945
13.1082
13.0262
12.9482
12.8742
12.8046
14.6863
14.5206
14.3643
14.2167
14.0773
13.9457
13.8214
13.7039
13.5928
13.4878
13.3886
13.2947
13.2059
13.1218
13.0423
12.9669
12.8956
12.8288
14.6865
14.5212
14.3659
14.2202
14.0837
13.956
13.8368
13.7256
13.6218
13.525
13.4348
13.3506
13.272
13.1986
13.13
13.0659
13.006
12.9505
14.6876
14.5264
14.3793
14.2467
14.1282
14.0231
13.9302
13.8484
13.7762
13.7126
13.6565
13.6068
13.5628
13.5237
13.489
13.4581
13.4306
13.4066
14.6976
14.5664
14.4707
14.4075
14.3715
14.3568
14.3585
14.372
14.3941
14.4224
14.4551
14.4908
14.5287
14.5681
14.6085
14.6497
14.6913
14.7333
14.7737
14.8187
14.9603
15.1591
15.3863
15.6233
15.8598
16.0905
16.3134
16.5284
16.7359
16.9365
17.1313
17.3211
17.5066
17.6884
17.8669
18.0418
15.2587
16.1151
17.0712
17.9727
18.7879
19.5239
20.1945
20.8149
21.3989
21.9574
22.4988
23.0291
23.5528
24.0727
24.5904
25.1069
25.6224
26.1343
18.0414
22.0079
24.9885
27.1532
28.8883
30.405
31.8126
33.1786
34.544
35.9314
37.3517
38.8088
40.3018
41.8268
43.3781
44.9495
46.5343
48.1196
34.024
45.6879
51.3769
54.9426
58.0812
61.2984
64.7515
68.4842
72.4805
76.6976
81.0852
85.5935
90.176
94.791
99.4028
103.982
108.514
112.971
163.308
157.417
151.704
146.261
141.3
136.947
133.25
130.206
127.781
125.919
124.559
123.637
123.094
122.871
122.918
123.188
123.642
124.243
0.19855
0.245313
0.406627
0.549382
0.696716
0.871403
1.07424
1.3115
1.59026
1.90225
2.23198
2.57963
2.94274
3.31829
3.70328
4.09485
4.49032
4.8871
5.28265
5.67442
6.05984
6.43624
6.80097
7.15138
7.48493
7.7992
8.09196
8.36103
8.60413
8.81863
9.0012
9.1477
9.25339
9.31493
9.3373
9.34559
9.37351
9.37458
9.33654
9.39075
40.1092
40.176
9.42659
40.4132
42.5901
45.5472
48.7235
52.0849
55.6213
59.3303
63.2106
67.2627
71.4881
75.8883
80.4655
85.2217
90.1589
95.2793
100.585
106.076
111.756
117.624
123.682
129.929
136.366
142.993
149.808
156.809
163.996
171.366
178.916
186.642
194.542
202.61
210.843
219.235
227.779
236.472
245.305
254.272
263.365
272.578
281.901
291.326
300.845
310.448
320.125
329.867
339.664
349.503
359.375
369.268
379.169
389.068
398.951
408.809
418.633
428.422
438.184
447.951
457.696
467.31
476.793
486.135
495.325
504.348
513.187
521.828
530.254
538.45
546.401
554.092
561.508
568.636
575.461
581.972
588.154
593.997
599.49
604.622
609.384
613.767
617.763
621.366
624.569
627.367
629.756
631.732
633.293
634.438
635.167
635.48
635.378
634.866
633.946
632.623
630.903
628.792
626.297
623.428
620.192
616.601
612.665
608.395
603.804
598.905
593.71
588.233
582.49
576.494
570.262
563.808
557.147
550.297
543.272
536.088
528.764
521.313
513.752
506.1
498.357
490.574
482.723
474.876
467.113
460.327
457.141
454.48
451.833
449.177
446.509
443.83
441.133
438.395
435.572
432.562
429.131
424.672
417.711
401.793
0.759929
0.477084
0.492372
0.565991
0.674456
0.812079
0.97752
1.17142
1.39298
1.63915
1.90602
2.19093
2.49163
2.80612
3.13261
3.46949
3.81532
4.1688
4.52885
4.89451
5.26511
5.64023
6.0199
6.40471
6.79606
7.19633
7.6092
8.03994
8.49589
8.98726
9.5283
10.1391
10.8471
11.6855
12.6737
13.7699
14.8648
16.0311
17.2999
18.3482
20.0939
21.567
22.9583
25.486
27.2522
28.8869
30.5375
32.2387
33.9993
35.821
37.7057
39.6546
41.6691
43.7503
45.8991
48.1163
50.4027
52.7587
55.1848
57.6813
60.2483
62.8859
65.594
68.3724
71.2205
74.1381
77.1242
80.1783
83.2992
86.486
89.7373
93.0517
96.4277
99.8637
103.358
106.908
110.512
114.168
117.873
121.624
125.42
129.257
133.133
137.044
140.987
144.958
148.955
152.973
157.009
161.058
165.118
169.183
173.249
177.312
181.37
185.419
189.459
193.492
197.526
201.58
205.664
209.711
213.71
217.657
221.545
225.369
229.123
232.8
236.395
239.902
243.314
246.627
249.834
252.929
255.908
258.766
261.497
264.096
266.56
268.883
271.063
273.094
274.975
276.702
278.272
279.682
280.931
282.017
282.939
283.695
284.285
284.709
284.967
285.059
284.986
284.749
284.351
283.792
283.076
282.205
281.182
280.011
278.695
277.237
275.643
273.917
272.064
270.088
267.995
265.79
263.479
261.067
258.561
255.966
253.289
250.534
247.711
244.823
241.877
238.881
235.831
232.757
229.623
226.497
223.423
220.588
218.423
216.447
214.511
212.586
210.668
208.756
206.851
204.952
203.055
201.154
199.224
197.253
195.118
193.869
1.52194
0.803572
0.744777
0.794927
0.888177
1.01405
1.16948
1.35283
1.56218
1.79495
2.04836
2.31988
2.60747
2.90948
3.22465
3.55205
3.89104
4.24121
4.60241
4.97479
5.35877
5.75521
6.16541
6.59131
7.03551
7.50137
7.99307
8.51558
9.07472
9.67721
10.3307
11.0432
11.8223
12.6711
13.5811
14.5253
15.4785
16.4541
17.4692
18.5416
19.7385
21.0074
22.3283
23.7172
25.078
26.4395
27.8331
29.2728
30.7627
32.304
33.8972
35.5428
37.2412
38.9928
40.798
42.6571
44.5703
46.5379
48.5599
50.6365
52.7676
54.9532
57.1932
59.4871
61.8348
64.2358
66.6896
69.1956
71.753
74.3611
77.0188
79.7253
82.4793
85.2796
88.1249
91.0138
93.9446
96.9157
99.9254
102.972
106.053
109.166
112.31
115.482
118.68
121.902
125.144
128.404
131.679
134.968
138.267
141.573
144.885
148.2
151.517
154.835
158.155
161.476
164.802
168.134
171.451
174.739
177.991
181.2
184.361
187.471
190.524
193.515
196.439
199.292
202.067
204.762
207.371
209.889
212.313
214.638
216.86
218.976
220.98
222.872
224.645
226.299
227.83
229.236
230.515
231.663
232.681
233.566
234.318
234.935
235.417
235.764
235.975
236.052
235.995
235.806
235.484
235.033
234.453
233.748
232.919
231.969
230.901
229.719
228.425
227.024
225.519
223.915
222.215
220.423
218.546
216.586
214.548
212.439
210.261
208.019
205.721
203.369
200.969
198.529
196.034
193.532
191.005
188.476
185.975
183.58
181.416
179.361
177.347
175.353
173.373
171.409
169.461
167.535
165.636
163.774
161.968
160.28
158.797
158.317
2.43112
1.18262
1.03255
1.04821
1.12684
1.2452
1.3957
1.5748
1.77991
2.00853
2.2582
2.52668
2.81213
3.11311
3.42862
3.75808
4.10121
4.45804
4.82889
5.21434
5.61529
6.03292
6.46881
6.92493
7.40364
7.90766
8.43998
9.00375
9.6022
10.2385
10.9156
11.6362
12.4017
13.2119
14.063
14.9489
15.866
16.8193
17.8173
18.8682
19.9764
21.1335
22.3341
23.5743
24.8449
26.1483
27.4912
28.8784
30.3126
31.7949
33.3263
34.9071
36.538
38.2195
39.9518
41.7353
43.5705
45.4577
47.397
49.3887
51.433
53.5299
55.6796
57.8819
60.1368
62.444
64.8033
67.2143
69.6766
72.1894
74.7523
77.3643
80.0247
82.7322
85.4859
88.2845
91.1265
94.0105
96.9349
99.8979
102.898
105.932
109
112.098
115.225
118.377
121.554
124.751
127.967
131.2
134.446
137.705
140.972
144.247
147.527
150.812
154.099
157.388
160.675
163.952
167.206
170.43
173.617
176.762
179.861
182.908
185.897
188.825
191.685
194.473
197.185
199.814
202.358
204.811
207.168
209.426
211.581
213.629
215.565
217.388
219.093
220.677
222.139
223.475
224.683
225.762
226.711
227.527
228.209
228.758
229.173
229.453
229.6
229.612
229.493
229.242
228.861
228.352
227.716
226.957
226.077
225.078
223.964
222.738
221.404
219.964
218.424
216.788
215.059
213.242
211.342
209.363
207.309
205.186
203
200.749
198.449
196.095
193.695
191.267
188.803
186.322
183.822
181.319
178.832
176.403
174.08
171.826
169.61
167.419
165.249
163.102
160.981
158.893
156.848
154.865
152.978
151.262
149.833
149.156
3.33596
1.56942
1.31576
1.29712
1.36125
1.47251
1.61881
1.79473
1.997
2.22304
2.47055
2.73753
3.02233
3.32369
3.64077
3.9731
4.32058
4.68339
5.062
5.4571
5.86964
6.30078
6.75195
7.22484
7.72131
8.24343
8.79333
9.37314
9.98491
10.6305
11.3117
12.03
12.7864
13.5815
14.4151
15.2868
16.1967
17.1469
18.1401
19.1787
20.2633
21.3922
22.5642
23.7786
25.0341
26.3317
27.6733
29.0609
30.496
31.98
33.5138
35.0982
36.7339
38.4216
40.1621
41.9559
43.8037
45.706
47.6633
49.6762
51.7451
53.8704
56.0524
58.2914
60.5875
62.9408
65.3513
67.8189
70.3432
72.924
75.5608
78.2529
80.9996
83.8
86.653
89.5574
92.5119
95.515
98.565
101.66
104.799
107.978
111.197
114.452
117.742
121.063
124.413
127.79
131.191
134.613
138.054
141.51
144.979
148.458
151.945
155.437
158.932
162.426
165.911
169.376
172.814
176.219
179.584
182.905
186.174
189.387
192.538
195.621
198.632
201.564
204.412
207.171
209.836
212.402
214.865
217.219
219.461
221.587
223.592
225.472
227.226
228.848
230.338
231.692
232.908
233.984
234.92
235.713
236.363
236.869
237.231
237.449
237.525
237.457
237.249
236.901
236.415
235.793
235.038
234.152
233.138
232
230.741
229.365
227.876
226.277
224.574
222.772
220.873
218.883
216.809
214.655
212.421
210.121
207.757
205.321
202.845
200.322
197.757
195.161
192.534
189.887
187.225
184.557
181.9
179.277
176.713
174.197
171.716
169.263
166.838
164.442
162.082
159.766
157.507
155.33
153.271
151.407
149.83
148.802
4.18181
1.92281
1.57707
1.52728
1.5778
1.682
1.82386
1.99626
2.19526
2.41811
2.66261
2.92694
3.2096
3.5095
3.82587
4.15835
4.50685
4.87162
5.25311
5.65202
6.06923
6.50582
6.96306
7.44239
7.94539
8.47378
9.02931
9.61375
10.2288
10.8761
11.5572
12.2736
13.0264
13.817
14.6462
15.5149
16.4242
17.3751
18.3691
19.4072
20.4901
21.6178
22.7906
24.0089
25.273
26.5838
27.9424
29.3502
30.8085
32.3185
33.8814
35.4984
37.1704
38.8985
40.6838
42.5272
44.4297
46.3922
48.4158
50.5011
52.649
54.8604
57.1357
59.4757
61.8808
64.3514
66.8878
69.49
72.1582
74.8922
77.6915
80.5559
83.4845
86.4766
89.5311
92.6469
95.8224
99.0562
102.346
105.691
109.088
112.535
116.03
119.569
123.151
126.772
130.429
134.119
137.84
141.587
145.357
149.148
152.955
156.775
160.604
164.44
168.276
172.11
175.925
179.716
183.475
187.196
190.872
194.497
198.065
201.568
205.002
208.36
211.634
214.82
217.912
220.903
223.787
226.56
229.217
231.751
234.159
236.435
238.576
240.578
242.437
244.149
245.712
247.124
248.382
249.485
250.43
251.217
251.845
252.314
252.624
252.775
252.769
252.605
252.286
251.814
251.192
250.421
249.505
248.446
247.248
245.916
244.454
242.866
241.156
239.327
237.389
235.344
233.197
230.951
228.62
226.204
223.7
221.133
218.502
215.808
213.065
210.277
207.447
204.585
201.694
198.783
195.858
192.928
190.004
187.103
184.239
181.413
178.62
175.86
173.132
170.442
167.797
165.207
162.687
160.264
157.975
155.887
154.066
152.658
4.90554
2.23507
1.80893
1.73098
1.76855
1.86551
2.0023
2.17032
2.36498
2.58332
2.8232
3.08291
3.36112
3.65684
3.9694
4.29849
4.64406
5.00636
5.38584
5.78317
6.1992
6.63496
7.09163
7.57054
8.07316
8.60107
9.15589
9.73931
10.353
10.9986
11.6776
12.3916
13.1421
13.9305
14.7581
15.6262
16.5361
17.4889
18.4858
19.5278
20.6159
21.7509
22.9336
24.1651
25.4462
26.7781
28.1619
29.5991
31.091
32.6391
34.245
35.9099
37.6355
39.4232
41.2743
43.1904
45.1729
47.2231
49.3424
51.532
53.7933
56.1274
58.5354
61.0183
63.5768
66.2119
68.924
71.7135
74.5808
77.5258
80.5485
83.6485
86.8252
90.0777
93.4051
96.8061
100.279
103.822
107.434
111.111
114.852
118.653
122.513
126.427
130.393
134.407
138.465
142.564
146.701
150.87
155.068
159.29
163.533
167.792
172.062
176.338
180.617
184.881
189.123
193.334
197.507
201.636
205.714
209.732
213.683
217.561
221.358
225.067
228.68
232.192
235.594
238.881
242.046
245.084
247.987
250.751
253.371
255.84
258.155
260.312
262.305
264.133
265.792
267.279
268.592
269.73
270.691
271.474
272.078
272.504
272.752
272.822
272.716
272.435
271.982
271.359
270.569
269.616
268.502
267.232
265.809
264.238
262.526
260.677
258.695
256.583
254.354
252.012
249.558
246.995
244.347
241.611
238.79
235.898
232.938
229.917
226.843
223.722
220.561
217.366
214.144
210.903
207.648
204.388
201.134
197.897
194.688
191.512
188.371
185.265
182.198
179.177
176.209
173.308
170.489
167.779
165.215
162.85
160.728
158.931
5.52168
2.50544
2.00817
1.90422
1.92909
2.01828
2.14914
2.31169
2.50073
2.7131
2.94664
3.19973
3.47119
3.76012
4.06597
4.38848
4.72766
5.08377
5.45727
5.84886
6.25937
6.68982
7.14138
7.61535
8.11316
8.63633
9.18649
9.76528
10.3744
11.0155
11.6902
12.4003
13.1472
13.9325
14.7578
15.6246
16.5343
17.4884
18.4881
19.5348
20.6298
21.7745
22.97
24.2179
25.5194
26.876
28.2894
29.7612
31.2932
32.8871
34.5448
36.2683
38.0594
39.9201
41.8524
43.8581
45.9394
48.0979
50.3357
52.6545
55.056
57.542
60.1139
62.7732
65.5211
68.3588
71.2873
74.3072
77.419
80.6231
83.9194
87.3077
90.7875
94.3579
98.0178
101.766
105.6
109.518
113.519
117.598
121.754
125.983
130.282
134.646
139.072
143.557
148.094
152.681
157.313
161.984
166.689
171.424
176.183
180.96
185.75
190.547
195.342
200.113
204.855
209.56
214.22
218.827
223.372
227.848
232.246
236.558
240.774
244.888
248.892
252.776
256.534
260.159
263.643
266.979
270.162
273.184
276.04
278.724
281.232
283.558
285.698
287.65
289.409
290.973
292.341
293.509
294.478
295.247
295.814
296.181
296.347
296.315
296.087
295.663
295.047
294.242
293.253
292.082
290.735
289.215
287.525
285.675
283.671
281.518
279.219
276.775
274.209
271.522
268.719
265.805
262.793
259.689
256.498
253.23
249.892
246.491
243.035
239.531
235.986
232.408
228.804
225.181
221.547
217.909
214.277
210.66
207.069
203.509
199.986
196.503
193.066
189.683
186.362
183.119
179.969
176.939
174.06
171.379
168.918
166.729
6.02598
2.7315
2.17287
2.04508
2.05738
2.13817
2.26212
2.41806
2.60021
2.8052
3.03084
3.2756
3.53837
3.8184
4.11523
4.42867
4.75881
5.10593
5.47057
5.85341
6.25533
6.67736
7.12067
7.58657
8.07647
8.59189
9.13446
9.70582
10.3077
10.9418
11.6099
12.3137
13.055
13.8354
14.6567
15.5206
16.4288
17.383
18.3849
19.4362
20.5385
21.6936
22.9033
24.1694
25.4937
26.8782
28.325
29.8362
31.4139
33.0605
34.7784
36.57
38.4378
40.3844
42.4122
44.5238
46.7217
49.0085
51.3866
53.8583
56.426
59.0919
61.858
64.7262
67.6983
70.7758
73.9599
77.2518
80.6521
84.1614
87.7797
91.507
95.3425
99.2854
103.334
107.488
111.744
116.1
120.552
125.099
129.736
134.459
139.265
144.148
149.105
154.129
159.216
164.361
169.558
174.802
180.085
185.402
190.747
196.113
201.492
206.879
212.247
217.585
222.886
228.142
233.342
238.479
243.543
248.524
253.412
258.198
262.873
267.426
271.851
276.137
280.276
284.26
288.082
291.733
295.207
298.498
301.597
304.501
307.202
309.696
311.979
314.047
315.896
317.525
318.932
320.115
321.072
321.804
322.311
322.593
322.651
322.488
322.105
321.507
320.694
319.672
318.446
317.022
315.403
313.594
311.597
309.426
307.089
304.59
301.936
299.131
296.189
293.118
289.923
286.612
283.196
279.681
276.077
272.391
268.633
264.809
260.929
257
253.031
249.029
245.003
240.959
236.906
232.851
228.804
224.773
220.768
216.797
212.865
208.979
205.146
201.375
197.676
194.064
190.557
187.178
183.956
180.927
178.102
175.517
6.4187
2.91265
2.30272
2.15343
2.15334
2.22515
2.34127
2.48951
2.66361
2.86002
3.07649
3.31155
3.56419
3.83376
4.11991
4.42255
4.7418
5.07804
5.43182
5.80388
6.19512
6.60659
7.03948
7.4951
7.97487
8.48032
9.01309
9.57485
10.1674
10.7924
11.4519
12.1476
12.8815
13.6555
14.4714
15.3314
16.2374
17.1915
18.1956
19.252
20.3627
21.53
22.7561
24.0435
25.3944
26.8115
28.2973
29.8545
31.4859
33.1946
34.9833
36.8553
38.8137
40.8617
43.0025
45.2393
47.5754
50.0138
52.5578
55.2102
57.9741
60.8522
63.847
66.961
70.1964
73.555
77.0385
80.6483
84.3852
88.2499
92.2425
96.3628
100.61
104.983
109.481
114.101
118.84
123.696
128.666
133.745
138.929
144.213
149.592
155.06
160.613
166.243
171.946
177.714
183.541
189.42
195.344
201.306
207.298
213.312
219.34
225.364
231.355
237.307
243.21
249.057
254.837
260.539
266.152
271.666
277.07
282.351
287.502
292.51
297.367
302.063
306.588
310.934
315.093
319.055
322.814
326.363
329.694
332.803
335.681
338.324
340.727
342.887
344.802
346.468
347.885
349.051
349.965
350.628
351.039
351.199
351.112
350.78
350.206
349.393
348.344
347.063
345.561
343.841
341.91
339.773
337.436
334.909
332.201
329.32
326.271
323.064
319.709
316.215
312.59
308.844
304.986
301.025
296.97
292.83
288.616
284.335
279.996
275.609
271.182
266.724
262.243
257.747
253.244
248.743
244.253
239.781
235.338
230.932
226.57
222.261
218.011
213.832
209.735
205.734
201.848
198.098
194.51
191.111
187.903
184.92
6.70442
3.05019
2.39901
2.23068
2.21856
2.28091
2.3884
2.52802
2.69313
2.87999
3.08634
3.31076
3.5523
3.81043
4.08488
4.37563
4.6829
5.0071
5.34884
5.70889
6.08818
6.48778
6.9089
7.35286
7.82112
8.31523
8.83684
9.3877
9.96966
10.5846
11.2345
11.9214
12.6475
13.4148
14.2256
15.0823
15.9872
16.9427
17.9514
19.0159
20.1387
21.3228
22.5709
23.8861
25.2713
26.7297
28.2646
29.8795
31.5778
33.3632
35.2395
37.2104
39.2799
41.4519
43.7305
46.1197
48.6233
51.2454
53.9896
56.8598
59.8592
62.9913
66.2592
69.6658
73.2135
76.9048
80.7413
84.7247
88.856
93.1357
97.564
102.14
106.864
111.733
116.745
121.898
127.189
132.614
138.168
143.847
149.646
155.558
161.576
167.696
173.908
180.208
186.587
193.038
199.554
206.126
212.747
219.407
226.098
232.81
239.533
246.22
252.865
259.458
265.989
272.449
278.824
285.104
291.278
297.331
303.252
309.028
314.649
320.103
325.38
330.47
335.363
340.05
344.52
348.767
352.782
356.558
360.088
363.366
366.384
369.137
371.62
373.831
375.767
377.427
378.809
379.912
380.737
381.284
381.552
381.545
381.265
380.717
379.904
378.83
377.501
375.922
374.102
372.046
369.761
367.256
364.537
361.614
358.497
355.194
351.714
348.066
344.262
340.311
336.223
332.007
327.674
323.235
318.699
314.076
309.377
304.61
299.786
294.915
290.004
285.065
280.105
275.134
270.159
265.191
260.236
255.305
250.407
245.549
240.743
235.994
231.314
226.713
222.203
217.799
213.518
209.381
205.41
201.626
198.025
194.642
6.89152
3.14706
2.46426
2.27946
2.25582
2.30846
2.40674
2.53704
2.69246
2.86914
3.0648
3.27805
3.50803
3.75427
4.01659
4.29505
4.58992
4.90168
5.23097
5.57859
5.94551
6.33283
6.74178
7.17375
7.63021
8.11278
8.6232
9.16331
9.73508
10.3406
10.9819
11.6615
12.3816
13.1448
13.9536
14.8108
15.7192
16.6817
17.7015
18.7816
19.9254
21.1363
22.418
23.774
25.2082
26.7245
28.327
30.02
31.8078
33.695
35.686
37.7858
39.999
42.3304
44.785
47.3675
50.0827
52.9354
55.93
59.0707
62.3616
65.8064
69.4085
73.1713
77.0975
81.1896
85.4495
89.8786
94.4779
99.2476
104.187
109.296
114.573
120.015
125.619
131.383
137.301
143.369
149.582
155.933
162.417
169.026
175.751
182.584
189.518
196.544
203.655
210.841
218.095
225.407
232.768
240.168
247.598
255.047
262.461
269.825
277.133
284.371
291.529
298.595
305.556
312.4
319.115
325.687
332.098
338.337
344.393
350.254
355.91
361.35
366.563
371.54
376.271
380.748
384.963
388.908
392.577
395.967
399.066
401.866
404.366
406.565
408.461
410.051
411.336
412.315
412.989
413.359
413.426
413.195
412.668
411.85
410.746
409.361
407.702
405.775
403.588
401.15
398.468
395.551
392.408
389.048
385.483
381.722
377.775
373.652
369.366
364.927
360.345
355.631
350.798
345.855
340.813
335.684
330.478
325.205
319.876
314.501
309.091
303.653
298.199
292.738
287.278
281.828
276.397
270.996
265.631
260.315
255.054
249.86
244.742
239.711
234.78
229.964
225.28
220.746
216.382
212.206
208.207
204.424
6.99165
3.20743
2.5019
2.30322
2.26879
2.31171
2.40049
2.52113
2.66653
2.83279
3.01762
3.21968
3.43818
3.67271
3.92316
4.18966
4.47253
4.77231
5.08967
5.42548
5.78074
6.15662
6.55441
6.97557
7.42168
7.89447
8.39581
8.92773
9.49239
10.0921
10.7293
11.4067
12.127
12.893
13.708
14.5752
15.4979
16.4797
17.5244
18.636
19.8184
21.0761
22.4134
23.8349
25.3453
26.9495
28.6526
30.4597
32.3762
34.4076
36.5595
38.8376
41.2477
43.7955
46.4866
49.327
52.322
55.4773
58.7978
62.2884
65.9532
69.7959
73.8201
78.0292
82.426
87.0128
91.7911
96.7619
101.926
107.282
112.83
118.567
124.49
130.598
136.884
143.345
149.975
156.768
163.717
170.816
178.056
185.43
192.923
200.527
208.234
216.034
223.919
231.878
239.904
247.985
256.112
264.274
272.462
280.612
288.703
296.727
304.671
312.523
320.271
327.901
335.399
342.754
349.954
356.987
363.823
370.455
376.873
383.066
389.022
394.731
400.181
405.364
410.27
414.89
419.217
423.243
426.962
430.369
433.456
436.218
438.653
440.758
442.531
443.973
445.083
445.862
446.31
446.432
446.228
445.704
444.863
443.712
442.255
440.5
438.454
436.124
433.52
430.649
427.523
424.15
420.54
416.704
412.653
408.399
403.952
399.324
394.528
389.574
384.474
379.241
373.886
368.42
362.857
357.206
351.479
345.688
339.844
333.956
328.037
322.094
316.14
310.183
304.232
298.297
292.388
286.513
280.682
274.904
269.19
263.55
257.993
252.532
247.18
241.952
236.862
231.93
227.171
222.601
218.207
214.031
7.01915
3.23637
2.51597
2.306
2.26174
2.29529
2.37471
2.48579
2.62136
2.77752
2.95202
3.14357
3.35143
3.57527
3.81504
4.07093
4.34335
4.63287
4.94027
5.26648
5.61261
5.97993
6.36987
6.78403
7.22419
7.69227
8.19042
8.72093
9.28631
9.88924
10.5326
11.2196
11.9535
12.7378
13.5762
14.4728
15.4317
16.4573
17.5543
18.7277
19.9825
21.3242
22.7583
24.2907
25.927
27.6733
29.5355
31.5201
33.6335
35.8825
38.2736
40.8136
43.5091
46.3668
49.3933
52.5948
55.9776
59.5478
63.3112
67.2728
71.4358
75.8026
80.3768
85.1613
90.1584
95.3696
100.796
106.436
112.291
118.357
124.633
131.114
137.797
144.677
151.748
159.002
166.433
174.033
181.794
189.707
197.765
205.964
214.272
222.686
231.197
239.795
248.471
257.215
266.017
274.868
283.756
292.668
301.528
310.318
319.025
327.638
336.143
344.527
352.775
360.874
368.81
376.57
384.139
391.504
398.647
405.555
412.217
418.621
424.757
430.612
436.178
441.444
446.402
451.044
455.362
459.349
463.001
466.31
469.273
471.885
474.144
476.047
477.595
478.787
479.624
480.108
480.24
480.025
479.467
478.569
477.337
475.779
473.9
471.709
469.214
466.422
463.345
459.992
456.373
452.5
448.382
444.032
439.462
434.684
429.71
424.552
419.222
413.735
408.101
402.333
396.445
390.447
384.354
378.176
371.925
365.614
359.252
352.853
346.426
339.982
333.531
327.083
320.647
314.234
307.853
301.512
295.223
288.993
282.835
276.757
270.771
264.888
259.123
253.488
248
242.675
237.528
232.571
227.79
223.231
6.99061
3.23952
2.51088
2.29221
2.23947
2.26453
2.33535
2.4377
2.56446
2.71176
2.87742
3.06023
3.25953
3.47506
3.70686
3.95523
4.22067
4.5039
4.8058
5.12751
5.47029
5.83566
6.22529
6.64109
7.08516
7.55983
8.06766
8.61147
9.19431
9.81949
10.4906
11.2115
11.9864
12.8199
13.7165
14.6813
15.7195
16.8368
18.0391
19.3327
20.7242
22.2204
23.8287
25.5565
27.4111
29.3986
31.5266
33.8026
36.2345
38.8301
41.5968
44.5424
47.6739
50.9986
54.5232
58.2542
62.1977
66.3599
70.747
75.3668
80.2162
85.2929
90.6012
96.1434
101.92
107.931
114.175
120.65
127.353
134.279
141.424
148.782
156.346
164.11
172.064
180.201
188.51
196.982
205.607
214.375
223.274
232.295
241.419
250.637
259.938
269.312
278.749
288.239
297.773
307.346
316.916
326.41
335.817
345.123
354.314
363.377
372.296
381.059
389.65
398.057
406.265
414.26
422.029
429.559
436.834
443.843
450.572
457.012
463.152
468.981
474.49
479.67
484.514
489.013
493.161
496.952
500.381
503.444
506.137
508.457
510.403
511.972
513.167
513.986
514.433
514.51
514.22
513.567
512.556
511.194
509.486
507.441
505.065
502.367
499.357
496.045
492.44
488.554
484.397
479.982
475.32
470.425
465.307
459.981
454.458
448.753
442.878
436.846
430.671
424.365
417.942
411.414
404.794
398.095
391.328
384.505
377.639
370.74
363.82
356.889
349.958
343.036
336.134
329.26
322.425
315.638
308.909
302.247
295.663
289.167
282.77
276.484
270.322
264.298
258.427
252.724
247.202
241.874
236.723
231.798
6.92139
3.22216
2.49071
2.26603
2.20663
2.22479
2.28867
2.38419
2.50437
2.64546
2.80542
2.98313
3.17807
3.39013
3.61952
3.86672
4.13247
4.41774
4.72373
5.05192
5.40399
5.7819
6.18787
6.62439
7.09423
7.60048
8.14653
8.73614
9.37339
10.0627
10.8088
11.617
12.4929
13.4428
14.4733
15.5905
16.8013
18.113
19.5337
21.0717
22.7355
24.5342
26.4771
28.5747
30.8391
33.2699
35.8773
38.6708
41.6593
44.851
48.2536
51.8746
55.7205
59.7976
64.1115
68.667
73.4684
78.5193
83.8227
89.3805
95.1915
101.254
107.566
114.126
120.932
127.979
135.263
142.779
150.521
158.48
166.65
175.022
183.586
192.333
201.251
210.332
219.562
228.931
238.427
248.038
257.752
267.558
277.443
287.395
297.403
307.46
317.554
327.683
337.825
347.899
357.873
367.732
377.463
387.053
396.487
405.752
414.835
423.721
432.398
440.852
449.07
457.039
464.747
472.181
479.329
486.179
492.721
498.945
504.84
510.398
515.61
520.469
524.968
529.1
532.86
536.243
539.245
541.863
544.095
545.938
547.392
548.457
549.135
549.426
549.334
548.863
548.016
546.799
545.218
543.28
540.992
538.361
535.398
532.11
528.509
524.605
520.408
515.931
511.185
506.183
500.937
495.46
489.765
483.866
477.775
471.507
465.075
458.492
451.771
444.927
437.972
430.92
423.783
416.573
409.303
401.985
394.631
387.253
379.86
372.464
365.075
357.704
350.359
343.051
335.788
328.581
321.438
314.37
307.386
300.497
293.714
287.049
280.514
274.123
267.89
261.83
255.954
250.274
244.774
239.506
6.84515
3.1947
2.46422
2.23727
2.17491
2.19017
2.25161
2.34545
2.46493
2.60653
2.76842
2.94971
3.15016
3.36999
3.60978
3.87045
4.15326
4.45978
4.79192
5.15193
5.54241
5.96632
6.42703
6.92831
7.47438
8.06988
8.71987
9.4301
10.2069
11.0569
11.9865
13.0035
14.1167
15.3357
16.6718
18.1322
19.7236
21.4573
23.3445
25.3959
27.6226
30.0351
32.6443
35.4606
38.4937
41.7504
45.2385
48.9656
52.9385
57.1634
61.6452
66.3878
71.3943
76.6668
82.2062
88.0126
94.0852
100.422
107.021
113.878
120.988
128.345
135.943
143.774
151.832
160.108
168.594
177.281
186.159
195.219
204.449
213.839
223.379
233.056
242.86
252.779
262.801
272.915
283.11
293.373
303.696
314.067
324.475
334.916
345.374
355.854
366.333
376.733
387.004
397.145
407.141
416.979
426.646
436.13
445.418
454.499
463.358
471.986
480.37
488.497
496.357
503.939
511.231
518.224
524.905
531.267
537.298
542.991
548.337
553.329
557.96
562.223
566.113
569.624
572.752
575.494
577.847
579.809
581.378
582.554
583.336
583.728
583.729
583.344
582.575
581.427
579.905
578.016
575.765
573.16
570.21
566.922
563.307
559.375
555.135
550.599
545.779
540.685
535.332
529.73
523.894
517.836
511.569
505.108
498.465
491.654
484.689
477.583
470.35
463.002
455.554
448.018
440.406
432.732
425.007
417.243
409.452
401.644
393.831
386.023
378.23
370.462
362.729
355.038
347.401
339.825
332.321
324.897
317.563
310.33
303.208
296.208
289.344
282.628
276.074
269.695
263.503
257.509
251.697
246.121
6.78482
3.16585
2.44009
2.21622
2.15702
2.17637
2.24339
2.34476
2.47409
2.62827
2.80591
3.00668
3.23095
3.47967
3.75434
4.05691
4.38984
4.75609
5.1592
5.60322
6.09279
6.63326
7.23056
7.89126
8.62303
9.43396
10.3319
11.3272
12.4321
13.6581
15.0107
16.5038
18.151
19.9657
21.9617
24.1511
26.5455
29.1574
31.999
35.0816
38.4157
42.0106
45.8746
50.0143
54.4349
59.1394
64.1296
69.406
74.9681
80.8138
86.94
93.3422
100.015
106.952
114.146
121.589
129.274
137.19
145.329
153.681
162.236
170.983
179.913
189.015
198.279
207.694
217.249
226.935
236.741
246.657
256.673
266.778
276.963
287.218
297.533
307.898
318.305
328.746
339.21
349.691
360.183
370.678
381.161
391.662
402.123
412.472
422.669
432.717
442.602
452.315
461.845
471.182
480.314
489.232
497.925
506.382
514.593
522.548
530.237
537.65
544.778
551.61
558.139
564.355
570.248
575.812
581.039
585.92
590.449
594.62
598.427
601.865
604.929
607.616
609.922