/*--------------------------------*- C++ -*----------------------------------*\
  =========                 |
  \\      /  F ield         | OpenFOAM: The Open Source CFD Toolbox
   \\    /   O peration     | Website:  https://openfoam.org
    \\  /    A nd           | Version:  9
     \\/     M anipulation  |
\*---------------------------------------------------------------------------*/
FoamFile
{
    format      ascii;
    class       volScalarField;
    location    "0.25";
    object      p;
}
// * * * * * * * * * * * * * * * * * * * * * * * * * * * * * * * * * * * * * //

dimensions      [0 2 -2 0 0 0 0];

internalField   nonuniform List<scalar> 
12225
(
-1.18972
-3.47274
-4.63527
-4.94355
-5.11194
-5.27183
-5.39662
-5.48528
-5.55517
-5.61652
-5.67112
-5.71881
-5.75992
-5.79376
-5.81926
-5.82613
-5.82408
-5.71746
-4.65722
-5.35935
-5.44964
-5.31469
-5.27476
-5.34222
-5.42318
-5.48929
-5.5466
-5.60034
-5.65032
-5.69537
-5.73523
-5.76902
-5.79634
-5.81021
-5.82343
-5.80909
-4.86196
-4.75903
-4.91587
-5.0381
-5.14562
-5.26811
-5.37662
-5.45955
-5.52707
-5.58728
-5.64187
-5.6906
-5.73365
-5.77075
-5.80235
-5.82538
-5.85405
-5.88727
-4.72467
-4.64656
-4.92269
-5.10153
-5.19613
-5.29345
-5.38879
-5.46662
-5.53153
-5.59012
-5.64385
-5.69238
-5.73585
-5.77441
-5.8091
-5.83999
-5.87873
-5.93157
-4.73163
-4.74891
-4.98906
-5.13906
-5.21525
-5.30015
-5.38999
-5.46634
-5.53064
-5.58875
-5.64237
-5.69128
-5.73577
-5.7764
-5.81465
-5.85221
-5.89766
-5.95774
-4.79331
-4.8358
-5.01364
-5.14448
-5.22263
-5.30535
-5.3919
-5.46703
-5.53098
-5.58886
-5.64249
-5.69191
-5.73749
-5.78011
-5.82146
-5.86381
-5.91325
-5.97516
-4.85304
-4.89258
-5.02905
-5.15136
-5.2339
-5.31381
-5.39573
-5.46887
-5.53227
-5.58985
-5.64345
-5.6933
-5.73991
-5.78427
-5.82809
-5.87363
-5.92508
-5.98593
-4.90618
-4.94109
-5.05145
-5.16419
-5.24689
-5.32298
-5.40016
-5.47112
-5.53385
-5.59109
-5.6446
-5.69484
-5.74234
-5.78813
-5.83378
-5.8812
-5.93316
-5.99152
-4.95595
-4.9877
-5.07855
-5.17946
-5.25967
-5.33232
-5.4053
-5.47392
-5.53576
-5.59253
-5.64588
-5.69637
-5.74456
-5.7914
-5.8382
-5.88645
-5.93787
-5.99321
-5.00329
-5.03194
-5.10716
-5.19616
-5.27268
-5.34224
-5.41138
-5.47745
-5.53811
-5.59428
-5.64732
-5.69789
-5.74648
-5.79392
-5.84125
-5.88953
-5.93974
-5.992
-5.04804
-5.07334
-5.13619
-5.21434
-5.28635
-5.35279
-5.41833
-5.48172
-5.54096
-5.59635
-5.64894
-5.69935
-5.74805
-5.79567
-5.843
-5.89071
-5.93935
-5.98867
-5.08653
-5.10887
-5.16276
-5.2321
-5.29948
-5.36291
-5.42535
-5.48627
-5.54402
-5.59854
-5.65056
-5.70062
-5.74913
-5.79658
-5.84351
-5.89036
-5.9374
-5.98424
-5.12219
-5.142
-5.18857
-5.25017
-5.31284
-5.37319
-5.43273
-5.49122
-5.54739
-5.60092
-5.65223
-5.70178
-5.7499
-5.79691
-5.84319
-5.88899
-5.93439
-5.979
-5.15968
-5.177
-5.21682
-5.27087
-5.3283
-5.3851
-5.4415
-5.49732
-5.55158
-5.60381
-5.65417
-5.70293
-5.75034
-5.7966
-5.84189
-5.88632
-5.92988
-5.9722
-5.19775
-5.21266
-5.24654
-5.2936
-5.34557
-5.39842
-5.4515
-5.50447
-5.55654
-5.60716
-5.65624
-5.70391
-5.75027
-5.7954
-5.83937
-5.88217
-5.92374
-5.9638
-5.23445
-5.24721
-5.27609
-5.31704
-5.36375
-5.41253
-5.46223
-5.51228
-5.56196
-5.61069
-5.6582
-5.70445
-5.74942
-5.79311
-5.83547
-5.87646
-5.91601
-5.95391
-5.2669
-5.27791
-5.3029
-5.33893
-5.38106
-5.42607
-5.47258
-5.51983
-5.56711
-5.6138
-5.65953
-5.70413
-5.74747
-5.78949
-5.83009
-5.86921
-5.90677
-5.94265
-5.29074
-5.30054
-5.32293
-5.35561
-5.39445
-5.43659
-5.48056
-5.52551
-5.5707
-5.61551
-5.65951
-5.70243
-5.7441
-5.78442
-5.82327
-5.86059
-5.89633
-5.93041
-5.29901
-5.30836
-5.32982
-5.36134
-5.39901
-5.43998
-5.48277
-5.52651
-5.57048
-5.61406
-5.65678
-5.69837
-5.73866
-5.77753
-5.81489
-5.8507
-5.88493
-5.91756
-5.28392
-5.29397
-5.31694
-5.35055
-5.39031
-5.43287
-5.47669
-5.5211
-5.56546
-5.60914
-5.6517
-5.69292
-5.73266
-5.77086
-5.80746
-5.84244
-5.87579
-5.90755
-5.25764
-5.26882
-5.29459
-5.33228
-5.376
-5.42151
-5.4675
-5.51364
-5.5593
-5.6038
-5.64678
-5.68815
-5.72787
-5.76589
-5.80219
-5.83679
-5.86972
-5.90105
-5.22263
-5.235
-5.26501
-5.30944
-5.3589
-5.40797
-5.45664
-5.50526
-5.55289
-5.59864
-5.64235
-5.68414
-5.72406
-5.7621
-5.7983
-5.8327
-5.86539
-5.89645
-5.18197
-5.19456
-5.2299
-5.28444
-5.34151
-5.39445
-5.44595
-5.49726
-5.54695
-5.59403
-5.6386
-5.68098
-5.72123
-5.75941
-5.79561
-5.82993
-5.86249
-5.89339
-5.13809
-5.14964
-5.192
-5.25857
-5.3232
-5.38078
-5.4366
-5.49119
-5.54261
-5.59057
-5.6358
-5.67867
-5.71921
-5.75748
-5.79365
-5.8279
-5.86034
-5.89111
-5.09121
-5.09895
-5.15996
-5.2397
-5.30477
-5.36436
-5.42617
-5.48565
-5.53931
-5.58824
-5.63416
-5.6775
-5.71826
-5.75656
-5.79267
-5.82681
-5.85914
-5.88984
-5.04324
-5.01957
-5.13034
-5.23922
-5.29972
-5.35373
-5.41706
-5.47931
-5.53448
-5.58435
-5.63108
-5.67502
-5.7161
-5.75455
-5.79071
-5.82484
-5.85715
-5.88779
-5.03392
-4.88957
-5.04856
-5.2147
-5.29912
-5.36004
-5.42473
-5.48576
-5.53937
-5.58837
-5.63461
-5.67811
-5.71874
-5.75675
-5.79248
-5.82622
-5.85822
-5.88866
-5.17932
-4.8955
-4.93019
-5.06058
-5.18007
-5.28697
-5.38091
-5.45654
-5.51863
-5.5737
-5.62426
-5.67065
-5.71324
-5.75261
-5.78932
-5.82373
-5.85636
-5.88785
-5.11611
-5.61579
-5.62586
-5.46653
-5.38546
-5.40955
-5.46357
-5.51283
-5.55778
-5.60216
-5.6456
-5.68683
-5.72547
-5.76173
-5.79581
-5.82781
-5.85798
-5.88819
-1.77743
-3.64797
-4.7192
-5.01218
-5.14692
-5.28355
-5.39534
-5.47518
-5.53797
-5.59381
-5.64492
-5.69138
-5.73375
-5.7728
-5.80892
-5.84213
-5.87211
-5.89705
-6.7954
-6.79537
-6.79569
-6.79633
-6.79717
-6.79817
-6.79934
-6.80071
-6.80229
-6.8041
-6.80617
-6.80853
-6.81122
-6.81428
-6.81773
-6.82163
-6.82601
-6.8309
-6.83635
-6.84239
-6.84907
-6.85642
-6.86448
-6.87329
-6.8829
-6.89334
-6.90468
-6.91697
-6.93028
-6.94468
-6.96023
-6.97706
-6.99524
-7.01468
-7.03549
-7.05872
-7.08534
-7.11322
-7.12781
-7.13744
-7.17256
-7.21862
-7.24054
-7.25295
-7.27643
-7.30375
-7.33209
-7.36132
-7.3914
-7.4221
-7.45329
-7.48484
-7.51662
-7.54851
-7.5804
-7.61218
-7.64373
-7.67495
-7.70571
-7.73589
-7.76536
-7.794
-7.82167
-7.84823
-7.87352
-7.8974
-7.9197
-7.94027
-7.95894
-7.97553
-7.98988
-8.00178
-8.01108
-8.01758
-8.02108
-8.02141
-8.01838
-8.01178
-8.00144
-7.98717
-7.96877
-7.94606
-7.91887
-7.887
-7.85029
-7.80857
-7.76166
-7.70941
-7.65167
-7.58827
-7.51909
-7.44398
-7.36282
-7.27548
-7.18188
-7.08189
-6.97551
-6.86274
-6.74356
-6.61773
-6.48507
-6.3453
-6.19861
-6.04506
-5.88466
-5.71745
-5.54346
-5.36272
-5.1753
-4.98127
-4.78072
-4.57375
-4.3605
-4.14108
-3.91567
-3.68442
-3.44751
-3.20515
-2.95753
-2.70489
-2.44747
-2.18549
-1.91923
-1.64896
-1.37494
-1.09746
-0.816827
-0.533327
-0.24727
0.041035
0.331274
0.623131
0.916287
1.21043
1.50523
1.80038
2.09557
2.39049
2.68483
2.97829
3.27058
3.56142
3.85053
4.13764
4.4225
4.70486
4.98448
5.26114
5.53462
5.80472
6.07127
6.33407
6.59297
6.84782
7.09848
7.34482
7.58673
7.82411
8.05685
8.2849
8.50816
8.72658
8.94013
9.14878
9.35249
9.55124
9.74485
9.93317
10.1162
10.294
10.4665
10.6338
10.7959
10.9527
11.1045
11.2514
11.3944
11.5349
11.6819
11.8359
-6.79434
-6.79456
-6.79493
-6.79547
-6.79601
-6.79654
-6.79712
-6.79787
-6.79886
-6.80012
-6.8017
-6.80361
-6.80588
-6.80852
-6.81157
-6.81505
-6.81899
-6.82343
-6.8284
-6.83393
-6.84006
-6.84683
-6.85426
-6.86241
-6.8713
-6.88099
-6.89151
-6.90289
-6.91514
-6.92825
-6.94219
-6.95689
-6.97222
-6.98824
-7.00513
-7.02252
-7.03927
-7.05302
-7.07682
-7.11421
-7.13736
-7.14585
-7.17076
-7.2113
-7.24688
-7.27831
-7.30867
-7.33923
-7.37003
-7.40112
-7.43247
-7.46405
-7.49578
-7.52758
-7.55935
-7.59101
-7.62244
-7.65355
-7.68422
-7.71433
-7.74376
-7.77237
-7.80005
-7.82665
-7.85201
-7.876
-7.89845
-7.91921
-7.9381
-7.95496
-7.9696
-7.98186
-7.99154
-7.99847
-8.00245
-8.0033
-8.00083
-7.99485
-7.98516
-7.97159
-7.95394
-7.93202
-7.90566
-7.87468
-7.83891
-7.79817
-7.75229
-7.70112
-7.64451
-7.58231
-7.51437
-7.44056
-7.36076
-7.27485
-7.18272
-7.08425
-6.97933
-6.86787
-6.74972
-6.62465
-6.4927
-6.35423
-6.20904
-6.05707
-5.8983
-5.73274
-5.5604
-5.38133
-5.19557
-5.00321
-4.80432
-4.59901
-4.3874
-4.16962
-3.94582
-3.71616
-3.48082
-3.24
-2.9939
-2.74274
-2.48675
-2.22617
-1.96127
-1.69231
-1.41955
-1.14329
-0.863813
-0.581419
-0.29641
-0.00909571
0.280213
0.5712
0.86355
1.15695
1.45107
1.74561
2.04025
2.33468
2.62859
2.9217
3.2137
3.50431
3.79325
4.08026
4.36507
4.64744
4.92712
5.20389
5.47755
5.74787
6.01468
6.27779
6.53704
6.79227
7.04335
7.29015
7.53254
7.77042
8.0037
8.2323
8.45614
8.67516
8.88932
9.09859
9.30294
9.5023
9.69654
9.88552
10.0692
10.2477
10.421
10.589
10.7518
10.9095
11.0623
11.2105
11.3554
11.4979
11.6483
11.7964
-6.79119
-6.79211
-6.79307
-6.79395
-6.7946
-6.79508
-6.79555
-6.79613
-6.79693
-6.798
-6.79937
-6.80108
-6.80316
-6.80561
-6.80849
-6.8118
-6.81559
-6.81988
-6.82471
-6.83011
-6.8361
-6.84274
-6.85004
-6.85805
-6.86681
-6.87635
-6.8867
-6.89791
-6.90999
-6.92296
-6.93686
-6.9517
-6.96746
-6.98414
-7.00189
-7.02059
-7.03993
-7.05994
-7.08282
-7.10932
-7.13398
-7.15501
-7.17856
-7.20688
-7.2363
-7.26575
-7.29539
-7.32541
-7.35576
-7.3864
-7.41729
-7.44837
-7.47959
-7.51087
-7.54212
-7.57327
-7.60421
-7.63484
-7.66506
-7.69475
-7.72379
-7.75206
-7.77942
-7.80575
-7.83088
-7.85469
-7.877
-7.89767
-7.91652
-7.93339
-7.9481
-7.96047
-7.97033
-7.97749
-7.98177
-7.98296
-7.9809
-7.97539
-7.96623
-7.95325
-7.93625
-7.91505
-7.88946
-7.85932
-7.82445
-7.78467
-7.73981
-7.68973
-7.63426
-7.57325
-7.50657
-7.43408
-7.35564
-7.27114
-7.18046
-7.08349
-6.98012
-6.8702
-6.75361
-6.63043
-6.50045
-6.3638
-6.22043
-6.07031
-5.91341
-5.74975
-5.57932
-5.40218
-5.21837
-5.02795
-4.83101
-4.62765
-4.41797
-4.20212
-3.98023
-3.75247
-3.51901
-3.28003
-3.03575
-2.78637
-2.53212
-2.27325
-2.01001
-1.74266
-1.47146
-1.1967
-0.918676
-0.637669
-0.353985
-0.0679299
0.220187
0.510052
0.80135
1.09377
1.38699
1.68069
1.97458
2.26833
2.56164
2.85422
3.14577
3.43601
3.72465
4.01143
4.29608
4.57836
4.85803
5.13486
5.40862
5.67912
5.94616
6.20956
6.46915
6.72477
6.97629
7.22356
7.46647
7.7049
7.93877
8.16798
8.39245
8.61212
8.82693
9.03683
9.24179
9.44174
9.63663
9.82638
10.0109
10.1903
10.3644
10.5333
10.697
10.8558
11.0098
11.1595
11.3063
11.4505
11.6036
11.7415
-6.78629
-6.78788
-6.78976
-6.79138
-6.79251
-6.79333
-6.79403
-6.79476
-6.79564
-6.79673
-6.7981
-6.7998
-6.80184
-6.80427
-6.8071
-6.81038
-6.81413
-6.81838
-6.82317
-6.82851
-6.83445
-6.84103
-6.84826
-6.8562
-6.86487
-6.87431
-6.88454
-6.89561
-6.90754
-6.92035
-6.93406
-6.9487
-6.96428
-6.98083
-6.99841
-7.01704
-7.03675
-7.0577
-7.08016
-7.10396
-7.12822
-7.15256
-7.17779
-7.20446
-7.23215
-7.26051
-7.28942
-7.3188
-7.34859
-7.37871
-7.4091
-7.43971
-7.47046
-7.50129
-7.53212
-7.56285
-7.59341
-7.62367
-7.65356
-7.68294
-7.71171
-7.73974
-7.76691
-7.79306
-7.81808
-7.84179
-7.86406
-7.88471
-7.9036
-7.92054
-7.93537
-7.94791
-7.95797
-7.96538
-7.96994
-7.97147
-7.96979
-7.9647
-7.95601
-7.94354
-7.9271
-7.90651
-7.88157
-7.85213
-7.81799
-7.77899
-7.73496
-7.68575
-7.63119
-7.57114
-7.50545
-7.43398
-7.3566
-7.27319
-7.18362
-7.08778
-6.98556
-6.87685
-6.76154
-6.63963
-6.51107
-6.37585
-6.23391
-6.08523
-5.9298
-5.76761
-5.59867
-5.42302
-5.24071
-5.0518
-4.85637
-4.65452
-4.44634
-4.23198
-4.01158
-3.78529
-3.55328
-3.31574
-3.07286
-2.82487
-2.57198
-2.31444
-2.05249
-1.78639
-1.51641
-1.24284
-0.965942
-0.686024
-0.403381
-0.118317
0.168859
0.457836
0.748301
1.03994
1.33244
1.62548
1.91876
2.21196
2.50479
2.79694
3.08812
3.37804
3.66643
3.95301
4.23752
4.51972
4.79936
5.0762
5.35004
5.62066
5.88786
6.15147
6.41132
6.66724
6.91909
7.16673
7.41003
7.6489
7.88321
8.11289
8.33785
8.55804
8.77339
8.98384
9.18931
9.38974
9.58509
9.77535
9.96046
10.1404
10.3151
10.4847
10.6491
10.8086
10.9634
11.114
11.2617
11.4061
11.5581
11.6839
-6.78074
-6.78307
-6.78601
-6.78852
-6.79032
-6.79163
-6.79273
-6.79377
-6.79489
-6.79619
-6.79772
-6.79955
-6.80171
-6.80425
-6.80719
-6.81057
-6.81441
-6.81875
-6.82362
-6.82905
-6.83508
-6.84174
-6.84906
-6.85708
-6.86584
-6.87537
-6.88571
-6.89688
-6.90892
-6.92185
-6.93569
-6.95048
-6.96622
-6.98296
-7.00071
-7.01951
-7.03939
-7.06038
-7.08248
-7.10559
-7.12946
-7.15403
-7.17949
-7.20591
-7.23314
-7.261
-7.28942
-7.31832
-7.34765
-7.37733
-7.40731
-7.43753
-7.46791
-7.49839
-7.52889
-7.55931
-7.58958
-7.61959
-7.64923
-7.67841
-7.707
-7.73488
-7.76191
-7.78798
-7.81292
-7.8366
-7.85886
-7.87955
-7.89849
-7.91552
-7.93046
-7.94315
-7.95339
-7.961
-7.9658
-7.9676
-7.96622
-7.96146
-7.95313
-7.94104
-7.92502
-7.90487
-7.88042
-7.85147
-7.81787
-7.77943
-7.736
-7.6874
-7.63349
-7.57412
-7.50913
-7.43839
-7.36176
-7.27912
-7.19035
-7.09533
-6.99396
-6.88614
-6.77178
-6.65084
-6.52327
-6.38903
-6.24809
-6.10042
-5.94599
-5.78481
-5.61689
-5.44227
-5.26098
-5.0731
-4.87869
-4.67785
-4.4707
-4.25735
-4.03795
-3.81266
-3.58163
-3.34506
-3.10314
-2.85609
-2.60412
-2.34748
-2.08641
-1.82117
-1.55202
-1.27924
-1.00312
-0.72395
-0.44202
-0.157636
0.128894
0.41726
0.707149
0.998248
1.29024
1.58283
1.87568
2.1685
2.46098
2.75283
3.04374
3.33344
3.62164
3.90808
4.19248
4.47461
4.75421
5.03106
5.30494
5.57563
5.84294
6.10669
6.36671
6.62283
6.8749
7.12278
7.36636
7.60551
7.84015
8.07017
8.29549
8.51604
8.73176
8.94256
9.14838
9.34912
9.54476
9.73532
9.92075
10.101
10.2761
10.4461
10.6109
10.7708
10.9261
11.0769
11.2246
11.3679
11.5171
11.6312
-6.77556
-6.77862
-6.78254
-6.78595
-6.78845
-6.79034
-6.79192
-6.79338
-6.79486
-6.79646
-6.79827
-6.80035
-6.80276
-6.80552
-6.80867
-6.81226
-6.81631
-6.82086
-6.82594
-6.83159
-6.83783
-6.84471
-6.85226
-6.86052
-6.86952
-6.87929
-6.88988
-6.90131
-6.91362
-6.92682
-6.94095
-6.95602
-6.97205
-6.98906
-7.00705
-7.02605
-7.04606
-7.06706
-7.08903
-7.1119
-7.13556
-7.16
-7.18525
-7.2113
-7.23808
-7.2655
-7.2935
-7.322
-7.35094
-7.38027
-7.40992
-7.43983
-7.46993
-7.50015
-7.5304
-7.56061
-7.59068
-7.62051
-7.65001
-7.67906
-7.70755
-7.73535
-7.76233
-7.78836
-7.8133
-7.837
-7.8593
-7.88005
-7.89907
-7.9162
-7.93127
-7.9441
-7.95451
-7.96231
-7.96731
-7.96934
-7.96819
-7.96369
-7.95563
-7.94384
-7.92813
-7.90831
-7.8842
-7.85562
-7.8224
-7.78436
-7.74134
-7.69318
-7.63972
-7.58082
-7.51631
-7.44608
-7.36998
-7.28788
-7.19968
-7.10524
-7.00447
-6.89728
-6.78359
-6.66332
-6.53643
-6.40287
-6.2626
-6.11559
-5.96184
-5.80133
-5.63409
-5.46014
-5.27953
-5.09232
-4.89859
-4.69843
-4.49194
-4.27926
-4.06053
-3.83589
-3.60551
-3.36959
-3.1283
-2.88188
-2.63052
-2.37448
-2.114
-1.84933
-1.58075
-1.30852
-1.03292
-0.754258
-0.472817
-0.188901
0.0971812
0.385121
0.674608
0.965327
1.25697
1.54922
1.84177
2.13431
2.42654
2.71815
3.00886
3.29839
3.58644
3.87275
4.15706
4.43912
4.71868
4.99551
5.26939
5.54011
5.80748
6.07131
6.33142
6.58765
6.83986
7.0879
7.33166
7.57101
7.80585
8.0361
8.26165
8.48244
8.69838
8.90941
9.11544
9.31639
9.51224
9.70299
9.88863
10.0691
10.2444
10.4146
10.5797
10.7398
10.8952
11.046
11.1931
11.3346
11.4808
11.5845
-6.77171
-6.77533
-6.78006
-6.78423
-6.78739
-6.78985
-6.79193
-6.79383
-6.79571
-6.79768
-6.79983
-6.80223
-6.80493
-6.80799
-6.81143
-6.81531
-6.81965
-6.82448
-6.82985
-6.83579
-6.84233
-6.84951
-6.85736
-6.86593
-6.87524
-6.88533
-6.89623
-6.90798
-6.92059
-6.93409
-6.9485
-6.96383
-6.9801
-6.99732
-7.01548
-7.0346
-7.05466
-7.07564
-7.09751
-7.12024
-7.14378
-7.16808
-7.19314
-7.21894
-7.24542
-7.27254
-7.30023
-7.32844
-7.35711
-7.38619
-7.41561
-7.44531
-7.47522
-7.50527
-7.53537
-7.56546
-7.59542
-7.62518
-7.65461
-7.68362
-7.71209
-7.73989
-7.76689
-7.79296
-7.81795
-7.84171
-7.86409
-7.88493
-7.90407
-7.92132
-7.93653
-7.9495
-7.96006
-7.96803
-7.97321
-7.97541
-7.97446
-7.97015
-7.9623
-7.95073
-7.93524
-7.91565
-7.89177
-7.86344
-7.83047
-7.79269
-7.74995
-7.70207
-7.6489
-7.5903
-7.52612
-7.45621
-7.38045
-7.29871
-7.21087
-7.11681
-7.01644
-6.90966
-6.7964
-6.67656
-6.5501
-6.41696
-6.27711
-6.13053
-5.97719
-5.81709
-5.65026
-5.47673
-5.29653
-5.10974
-4.91642
-4.71668
-4.51061
-4.29835
-4.08003
-3.8558
-3.62584
-3.39032
-3.14945
-2.90342
-2.65247
-2.39682
-2.13673
-1.87245
-1.60423
-1.33237
-1.05714
-0.77882
-0.497718
-0.214131
0.0716344
0.35927
0.648463
0.938903
1.23028
1.52228
1.81459
2.10691
2.39894
2.69037
2.98091
3.27028
3.5582
3.84439
4.1286
4.41057
4.69007
4.96685
5.2407
5.5114
5.77877
6.04262
6.30276
6.55905
6.81133
7.05946
7.30331
7.54278
7.77774
8.00812
8.23381
8.45474
8.67082
8.88199
9.08816
9.28925
9.48524
9.67614
9.86191
10.0425
10.218
10.3883
10.5535
10.7137
10.8689
11.0194
11.1656
11.3052
11.4485
11.5431
-6.76962
-6.77365
-6.77899
-6.78378
-6.78749
-6.79045
-6.79299
-6.79532
-6.79759
-6.79994
-6.80244
-6.80518
-6.80821
-6.81159
-6.81535
-6.81955
-6.8242
-6.82936
-6.83504
-6.8413
-6.84817
-6.85567
-6.86386
-6.87275
-6.88238
-6.89279
-6.90401
-6.91605
-6.92895
-6.94271
-6.95737
-6.97293
-6.98939
-7.00676
-7.02504
-7.04423
-7.06431
-7.08527
-7.10708
-7.12972
-7.15314
-7.17733
-7.20226
-7.22789
-7.25419
-7.28112
-7.30862
-7.33666
-7.36517
-7.3941
-7.42339
-7.45298
-7.4828
-7.51278
-7.54284
-7.57289
-7.60284
-7.6326
-7.66206
-7.69111
-7.71962
-7.74749
-7.77457
-7.80073
-7.82582
-7.84969
-7.87219
-7.89315
-7.91242
-7.92981
-7.94515
-7.95826
-7.96896
-7.97706
-7.98238
-7.98473
-7.98392
-7.97975
-7.97204
-7.96061
-7.94525
-7.9258
-7.90206
-7.87387
-7.84104
-7.80341
-7.76081
-7.71308
-7.66007
-7.60163
-7.53761
-7.46789
-7.39231
-7.31076
-7.22313
-7.12928
-7.02914
-6.92259
-6.80956
-6.68995
-6.56371
-6.4308
-6.29117
-6.14479
-5.99166
-5.83178
-5.66516
-5.49184
-5.31186
-5.12528
-4.93218
-4.73265
-4.52681
-4.31477
-4.09668
-3.87269
-3.64296
-3.40768
-3.16704
-2.92126
-2.67055
-2.41514
-2.15529
-1.89125
-1.62328
-1.35166
-1.07667
-0.79859
-0.517723
-0.234367
0.0511707
0.338583
0.627558
0.917786
1.20895
1.50076
1.79288
2.08502
2.37687
2.66813
2.95852
3.24774
3.53553
3.8216
4.10569
4.38756
4.66696
4.94366
5.21744
5.4881
5.75543
6.01924
6.27937
6.53566
6.78795
7.0361
7.27999
7.5195
7.75452
7.98495
8.21071
8.43171
8.64788
8.85912
9.06537
9.26656
9.46264
9.65363
9.83949
10.0202
10.1957
10.3661
10.5313
10.6914
10.8464
10.9963
11.1415
11.2791
11.4198
11.5065
-6.76954
-6.77383
-6.77957
-6.7848
-6.78894
-6.79232
-6.79525
-6.79796
-6.80059
-6.80327
-6.8061
-6.80916
-6.81251
-6.8162
-6.82027
-6.82477
-6.82973
-6.83519
-6.84118
-6.84775
-6.85492
-6.86273
-6.87121
-6.8804
-6.89033
-6.90102
-6.9125
-6.9248
-6.93794
-6.95192
-6.96677
-6.9825
-6.9991
-7.01659
-7.03495
-7.05419
-7.07429
-7.09524
-7.11701
-7.13959
-7.16295
-7.18706
-7.21191
-7.23745
-7.26366
-7.29049
-7.31791
-7.34587
-7.37432
-7.4032
-7.43247
-7.46204
-7.49187
-7.52187
-7.55196
-7.58207
-7.61209
-7.64192
-7.67148
-7.70063
-7.72926
-7.75724
-7.78445
-7.81074
-7.83596
-7.85997
-7.88261
-7.90371
-7.9231
-7.94062
-7.95609
-7.96932
-7.98013
-7.98834
-7.99376
-7.9962
-7.99547
-7.99138
-7.98374
-7.97236
-7.95707
-7.93766
-7.91397
-7.88582
-7.85303
-7.81543
-7.77286
-7.72517
-7.6722
-7.6138
-7.54983
-7.48015
-7.40463
-7.32315
-7.23558
-7.14181
-7.04174
-6.93527
-6.8223
-6.70276
-6.57659
-6.44373
-6.30415
-6.15782
-6.00475
-5.84491
-5.67835
-5.50508
-5.32516
-5.13864
-4.94561
-4.74616
-4.54039
-4.32844
-4.11045
-3.88655
-3.65693
-3.42177
-3.18125
-2.93559
-2.68501
-2.42974
-2.17004
-1.90614
-1.63833
-1.36687
-1.09204
-0.814124
-0.533425
-0.250239
0.0351263
0.322365
0.611167
0.901221
1.19222
1.48385
1.7758
2.06777
2.35946
2.65056
2.94079
3.22986
3.5175
3.80342
4.08739
4.36913
4.64841
4.925
5.19869
5.46925
5.7365
6.00024
6.26031
6.51655
6.76879
7.01691
7.26078
7.50028
7.7353
7.96574
8.19152
8.41254
8.62873
8.84
9.04629
9.24752
9.44367
9.63471
9.82062
10.0014
10.1769
10.3473
10.5124
10.6723
10.827
10.9761
11.1202
11.2557
11.3941
11.4739
-6.77155
-6.77595
-6.78188
-6.78737
-6.79181
-6.79549
-6.79873
-6.80174
-6.80466
-6.80763
-6.81074
-6.81407
-6.81768
-6.82163
-6.82596
-6.83072
-6.83593
-6.84165
-6.8479
-6.85472
-6.86214
-6.8702
-6.87893
-6.88836
-6.89851
-6.90942
-6.92111
-6.9336
-6.94691
-6.96106
-6.97605
-6.99189
-7.00859
-7.02616
-7.04458
-7.06386
-7.08397
-7.10492
-7.12669
-7.14925
-7.17259
-7.19668
-7.22151
-7.24703
-7.27322
-7.30005
-7.32747
-7.35544
-7.38392
-7.41284
-7.44216
-7.47181
-7.50172
-7.53182
-7.56202
-7.59225
-7.6224
-7.65238
-7.68207
-7.71138
-7.74016
-7.7683
-7.79566
-7.8221
-7.84747
-7.87162
-7.89439
-7.91562
-7.93513
-7.95276
-7.96832
-7.98163
-7.99251
-8.00078
-8.00624
-8.00871
-8.00799
-8.0039
-7.99625
-7.98486
-7.96953
-7.95008
-7.92635
-7.89814
-7.86529
-7.82763
-7.78499
-7.73724
-7.6842
-7.62573
-7.5617
-7.49196
-7.41639
-7.33486
-7.24725
-7.15344
-7.05332
-6.9468
-6.83376
-6.71415
-6.58791
-6.45498
-6.31533
-6.16893
-6.01578
-5.85588
-5.68925
-5.51592
-5.33594
-5.14938
-4.95631
-4.75683
-4.55105
-4.33909
-4.1211
-3.89722
-3.66762
-3.43249
-3.19201
-2.94641
-2.69589
-2.4407
-2.18108
-1.91728
-1.64957
-1.37822
-1.10351
-0.825728
-0.545165
-0.262122
0.0230948
0.31018
0.598823
0.888715
1.17955
1.471
1.76278
2.05458
2.34609
2.63702
2.92707
3.21597
3.50344
3.7892
4.073
4.35459
4.63372
4.91016
5.18371
5.45414
5.72126
5.98489
6.24485
6.50099
6.75315
7.00119
7.24499
7.48443
7.7194
7.9498
8.17555
8.39655
8.61272
8.82399
9.03027
9.23152
9.42769
9.61875
9.80467
9.98542
10.161
10.3312
10.4962
10.6559
10.81
10.9585
11.1013
11.2348
11.3711
11.4451
-6.77554
-6.77991
-6.78586
-6.79143
-6.79603
-6.7999
-6.80335
-6.80657
-6.8097
-6.81288
-6.81619
-6.81971
-6.82352
-6.82765
-6.83217
-6.83711
-6.84251
-6.8484
-6.85483
-6.86183
-6.86943
-6.87766
-6.88655
-6.89613
-6.90644
-6.9175
-6.92932
-6.94193
-6.95535
-6.9696
-6.98468
-7.0006
-7.01736
-7.03498
-7.05344
-7.07275
-7.09289
-7.11386
-7.13565
-7.15823
-7.18159
-7.20571
-7.23057
-7.25614
-7.28239
-7.30928
-7.33678
-7.36484
-7.39341
-7.42245
-7.4519
-7.48168
-7.51174
-7.54199
-7.57236
-7.60276
-7.63308
-7.66323
-7.6931
-7.72257
-7.75152
-7.77982
-7.80733
-7.83392
-7.85942
-7.88369
-7.90656
-7.92788
-7.94746
-7.96514
-7.98074
-7.99407
-8.00495
-8.0132
-8.01863
-8.02105
-8.02026
-8.01609
-8.00835
-7.99684
-7.98139
-7.96182
-7.93794
-7.90959
-7.87659
-7.83877
-7.79599
-7.74807
-7.69488
-7.63626
-7.57208
-7.5022
-7.42649
-7.34482
-7.25708
-7.16313
-7.06286
-6.95616
-6.84296
-6.72318
-6.59677
-6.46367
-6.32385
-6.17729
-6.02398
-5.86393
-5.69715
-5.52369
-5.34359
-5.15691
-4.96375
-4.76418
-4.55832
-4.3463
-4.12825
-3.90434
-3.67472
-3.43958
-3.19912
-2.95353
-2.70306
-2.44792
-2.18836
-1.92464
-1.65701
-1.38576
-1.11116
-0.833506
-0.553083
-0.27019
0.0148678
0.301786
0.590256
0.879969
1.17061
1.46188
1.75346
2.04506
2.33636
2.62709
2.91694
3.20563
3.49289
3.77845
4.06205
4.34343
4.62237
4.89862
5.17198
5.44223
5.70918
5.97265
6.23246
6.48845
6.74048
6.98839
7.23208
7.47142
7.7063
7.93662
8.16229
8.38323
8.59935
8.81057
9.01683
9.21807
9.41423
9.60528
9.79118
9.9719
10.1474
10.3175
10.4823
10.6416
10.7953
10.9429
11.0844
11.2161
11.3503
11.4195
-6.78129
-6.78554
-6.79135
-6.79687
-6.80149
-6.80543
-6.80897
-6.8123
-6.81554
-6.81882
-6.82224
-6.82586
-6.82977
-6.83399
-6.8386
-6.84363
-6.84911
-6.8551
-6.86161
-6.86869
-6.87637
-6.88468
-6.89365
-6.90332
-6.9137
-6.92482
-6.93671
-6.94938
-6.96285
-6.97714
-6.99226
-7.00822
-7.02502
-7.04267
-7.06117
-7.0805
-7.10068
-7.12169
-7.14352
-7.16616
-7.18958
-7.21378
-7.23872
-7.26439
-7.29074
-7.31776
-7.34538
-7.37359
-7.40232
-7.43152
-7.46113
-7.49109
-7.52133
-7.55177
-7.58232
-7.61289
-7.64339
-7.67372
-7.70375
-7.73337
-7.76246
-7.79089
-7.81851
-7.84519
-7.87077
-7.89509
-7.918
-7.93933
-7.95891
-7.97656
-7.99211
-8.00537
-8.01617
-8.02431
-8.0296
-8.03187
-8.03093
-8.02658
-8.01864
-8.00694
-7.99128
-7.97148
-7.94738
-7.9188
-7.88556
-7.84752
-7.8045
-7.75636
-7.70294
-7.6441
-7.57971
-7.50962
-7.43372
-7.35185
-7.26389
-7.1697
-7.06919
-6.96225
-6.84881
-6.72879
-6.60214
-6.46881
-6.32876
-6.18198
-6.02847
-5.86822
-5.70126
-5.52762
-5.34736
-5.16055
-4.96725
-4.76757
-4.56162
-4.34952
-4.13141
-3.90745
-3.67781
-3.44266
-3.20221
-2.95666
-2.70623
-2.45115
-2.19168
-1.92805
-1.66054
-1.38941
-1.11495
-0.837448
-0.557191
-0.274479
0.0103885
0.297106
0.585366
0.874859
1.16528
1.45631
1.74765
2.03899
2.33005
2.62052
2.91012
3.19855
3.48555
3.77085
4.05419
4.33532
4.61401
4.89002
5.16314
5.43316
5.69989
5.96314
6.22275
6.47854
6.73039
6.97813
7.22166
7.46085
7.6956
7.9258
8.15136
8.3722
8.58824
8.7994
9.0056
9.20679
9.40292
9.59394
9.77981
9.96046
10.1358
10.3059
10.4704
10.6293
10.7824
10.9291
11.0694
11.1993
11.3316
11.3967
-6.78856
-6.7926
-6.79817
-6.8035
-6.80802
-6.81192
-6.81543
-6.81874
-6.82198
-6.82525
-6.82866
-6.83227
-6.83615
-6.84036
-6.84495
-6.84996
-6.85542
-6.86139
-6.86789
-6.87496
-6.88263
-6.89093
-6.8999
-6.90955
-6.91993
-6.93105
-6.94293
-6.9556
-6.96908
-6.98337
-6.9985
-7.01446
-7.03128
-7.04894
-7.06746
-7.08684
-7.10706
-7.12812
-7.15002
-7.17273
-7.19625
-7.22055
-7.24561
-7.2714
-7.2979
-7.32506
-7.35285
-7.38121
-7.41011
-7.43949
-7.46928
-7.49941
-7.52982
-7.56042
-7.59112
-7.62184
-7.65247
-7.68291
-7.71304
-7.74275
-7.77191
-7.80037
-7.82802
-7.85469
-7.88025
-7.90452
-7.92736
-7.9486
-7.96806
-7.98557
-8.00095
-8.01403
-8.02462
-8.03253
-8.03759
-8.0396
-8.03839
-8.03376
-8.02554
-8.01354
-7.99759
-7.97749
-7.95309
-7.92421
-7.89068
-7.85235
-7.80905
-7.76063
-7.70694
-7.64785
-7.58321
-7.51288
-7.43674
-7.3546
-7.26635
-7.17187
-7.07106
-6.96383
-6.85011
-6.72981
-6.60289
-6.4693
-6.32901
-6.182
-6.02827
-5.86782
-5.70067
-5.52687
-5.34647
-5.15952
-4.96611
-4.76634
-4.56031
-4.34816
-4.13002
-3.90605
-3.67641
-3.44129
-3.20089
-2.95541
-2.70507
-2.45011
-2.19075
-1.92727
-1.65992
-1.38897
-1.11471
-0.837413
-0.557381
-0.274908
0.00970758
0.296161
0.584146
0.873354
1.16348
1.45421
1.74524
2.03627
2.32701
2.61716
2.90643
3.19454
3.48121
3.76619
4.04921
4.33002
4.6084
4.8841
5.15693
5.42666
5.69311
5.95609
6.21543
6.47099
6.72259
6.97012
7.21345
7.45245
7.68702
7.91706
8.14248
8.3632
8.57913
8.79019
8.99632
9.19744
9.39352
9.58449
9.7703
9.95087
10.1261
10.296
10.4603
10.6188
10.7712
10.917
11.0561
11.1843
11.3148
11.3766
-6.79709
-6.80089
-6.80613
-6.81118
-6.81548
-6.8192
-6.82256
-6.82572
-6.82881
-6.83193
-6.83519
-6.83866
-6.84239
-6.84646
-6.85091
-6.85579
-6.86113
-6.86697
-6.87336
-6.88032
-6.88788
-6.89609
-6.90497
-6.91455
-6.92485
-6.9359
-6.94773
-6.96035
-6.97378
-6.98803
-7.00313
-7.01908
-7.03588
-7.05355
-7.07209
-7.09149
-7.11175
-7.13287
-7.15484
-7.17763
-7.20125
-7.22565
-7.25083
-7.27675
-7.30337
-7.33067
-7.3586
-7.3871
-7.41613
-7.44563
-7.47554
-7.50578
-7.53628
-7.56695
-7.59772
-7.62848
-7.65913
-7.68957
-7.71968
-7.74933
-7.77841
-7.80678
-7.8343
-7.86083
-7.88621
-7.91029
-7.93291
-7.9539
-7.9731
-7.99032
-8.00541
-8.01817
-8.02843
-8.036
-8.0407
-8.04236
-8.04078
-8.03578
-8.02719
-8.01483
-7.99851
-7.97806
-7.95331
-7.92409
-7.89024
-7.8516
-7.808
-7.75929
-7.70534
-7.64599
-7.58111
-7.51053
-7.43409
-7.35164
-7.26307
-7.16828
-7.06717
-6.95964
-6.84563
-6.72507
-6.59789
-6.46406
-6.32355
-6.17633
-6.02242
-5.8618
-5.69451
-5.52058
-5.34007
-5.15304
-4.95957
-4.75976
-4.55372
-4.34158
-4.12347
-3.89955
-3.66999
-3.43497
-3.19469
-2.94936
-2.69919
-2.44441
-2.18526
-1.92201
-1.6549
-1.38422
-1.11023
-0.833233
-0.553512
-0.271365
0.0129109
0.299013
0.586635
0.87547
1.16521
1.45555
1.74619
2.03683
2.32716
2.6169
2.90576
3.19347
3.47974
3.76431
4.04694
4.32736
4.60535
4.88068
5.15314
5.42251
5.68862
5.95127
6.2103
6.46555
6.71688
6.96414
7.20721
7.44598
7.68034
7.91019
8.13544
8.356
8.57179
8.78274
8.98877
9.18982
9.38583
9.57673
9.76247
9.94295
10.1181
10.2877
10.4517
10.6098
10.7616
10.9065
11.0443
11.1709
11.2997
11.3589
-6.80671
-6.81025
-6.81512
-6.8198
-6.82378
-6.82718
-6.83022
-6.83306
-6.83583
-6.83864
-6.84159
-6.84476
-6.84821
-6.85201
-6.85619
-6.86082
-6.86592
-6.87154
-6.87771
-6.88448
-6.89186
-6.8999
-6.90862
-6.91805
-6.92821
-6.93914
-6.95085
-6.96336
-6.9767
-6.99088
-7.00591
-7.0218
-7.03857
-7.05621
-7.07473
-7.09413
-7.11441
-7.13555
-7.15755
-7.18039
-7.20405
-7.22852
-7.25375
-7.27972
-7.3064
-7.33375
-7.36171
-7.39023
-7.41928
-7.44877
-7.47865
-7.50884
-7.53927
-7.56985
-7.60049
-7.63111
-7.66159
-7.69183
-7.72172
-7.75114
-7.77995
-7.80803
-7.83524
-7.86144
-7.88647
-7.91018
-7.93242
-7.95302
-7.97181
-7.98862
-8.00327
-8.0156
-8.02542
-8.03255
-8.03682
-8.03803
-8.03602
-8.03061
-8.0216
-8.00883
-7.99213
-7.97131
-7.94621
-7.91666
-7.8825
-7.84356
-7.79969
-7.75074
-7.69656
-7.63699
-7.57186
-7.50099
-7.42423
-7.34146
-7.2526
-7.15752
-7.05613
-6.94835
-6.8341
-6.71332
-6.58594
-6.45193
-6.31126
-6.16391
-6.00988
-5.84918
-5.68183
-5.50786
-5.32734
-5.14031
-4.94688
-4.74713
-4.54117
-4.32914
-4.11116
-3.88741
-3.65803
-3.42322
-3.18317
-2.93809
-2.68819
-2.43371
-2.17489
-1.91197
-1.64523
-1.37492
-1.10133
-0.824741
-0.545446
-0.263737
0.0200883
0.305727
0.592877
0.88123
1.17048
1.46033
1.75047
2.0406
2.33043
2.61967
2.90803
3.19523
3.48101
3.76509
4.04723
4.32718
4.60471
4.87959
5.1516
5.42055
5.68625
5.94851
6.20716
6.46206
6.71305
6.95999
7.20277
7.44127
7.67538
7.905
8.13005
8.35043
8.56606
8.77688
8.9828
9.18376
9.37969
9.57052
9.75617
9.93656
10.1115
10.281
10.4447
10.6023
10.7534
10.8974
11.0341
11.1592
11.2862
11.3435
-6.81772
-6.82102
-6.8255
-6.82974
-6.83322
-6.83611
-6.83861
-6.84091
-6.84314
-6.84543
-6.84787
-6.85056
-6.85355
-6.85692
-6.8607
-6.86494
-6.86969
-6.87498
-6.88084
-6.88731
-6.89442
-6.9022
-6.91068
-6.91987
-6.92982
-6.94054
-6.95206
-6.96439
-6.97756
-6.99158
-7.00646
-7.02222
-7.03886
-7.05639
-7.0748
-7.0941
-7.11428
-7.13533
-7.15723
-7.17998
-7.20354
-7.22789
-7.25301
-7.27886
-7.3054
-7.33258
-7.36036
-7.38869
-7.41751
-7.44675
-7.47636
-7.50625
-7.53636
-7.56659
-7.59687
-7.62708
-7.65715
-7.68696
-7.71639
-7.74533
-7.77366
-7.80123
-7.82793
-7.8536
-7.8781
-7.90128
-7.92298
-7.94304
-7.96128
-7.97755
-7.99168
-8.00348
-8.01278
-8.01941
-8.02318
-8.02392
-8.02145
-8.0156
-8.00618
-7.99302
-7.97595
-7.9548
-7.92939
-7.89956
-7.86515
-7.826
-7.78195
-7.73285
-7.6785
-7.61871
-7.55331
-7.48215
-7.40513
-7.32212
-7.23302
-7.13774
-7.03617
-6.92822
-6.81383
-6.69293
-6.56546
-6.43139
-6.29067
-6.14331
-5.98929
-5.82863
-5.66134
-5.48747
-5.30706
-5.12019
-4.92693
-4.72738
-4.52165
-4.30987
-4.09218
-3.86873
-3.63969
-3.40524
-3.16557
-2.9209
-2.67143
-2.41741
-2.15906
-1.89663
-1.6304
-1.36062
-1.08758
-0.811552
-0.532831
-0.251709
0.0315184