/*--------------------------------*- C++ -*----------------------------------*\
  =========                 |
  \\      /  F ield         | OpenFOAM: The Open Source CFD Toolbox
   \\    /   O peration     | Website:  https://openfoam.org
    \\  /    A nd           | Version:  9
     \\/     M anipulation  |
\*---------------------------------------------------------------------------*/
FoamFile
{
    format      ascii;
    class       surfaceScalarField;
    location    "0.25";
    object      phi;
}
// * * * * * * * * * * * * * * * * * * * * * * * * * * * * * * * * * * * * * //

dimensions      [0 3 -1 0 0 0 0];

internalField   nonuniform List<scalar> 
24170
(
3.1336e-06
5.48062e-08
3.04827e-06
8.53263e-08
2.97315e-06
7.51236e-08
2.90431e-06
6.8836e-08
2.83948e-06
6.4829e-08
2.78226e-06
5.72214e-08
2.73336e-06
4.88996e-08
2.69184e-06
4.15241e-08
2.6564e-06
3.5439e-08
2.62588e-06
3.05216e-08
2.59931e-06
2.65724e-08
2.57588e-06
2.34274e-08
2.55491e-06
2.09675e-08
2.53573e-06
1.91789e-08
2.5177e-06
1.80299e-08
2.49905e-06
1.8649e-08
2.47853e-06
2.05256e-08
3.76486e-08
2.44088e-06
3.45361e-06
1.84442e-08
3.45616e-06
8.27728e-08
3.44962e-06
8.16679e-08
3.438e-06
8.0457e-08
3.42351e-06
7.93169e-08
3.40597e-06
7.47617e-08
3.38634e-06
6.85283e-08
3.36544e-06
6.24271e-08
3.34403e-06
5.68451e-08
3.32273e-06
5.18248e-08
3.30193e-06
4.73738e-08
3.28185e-06
4.35018e-08
3.26262e-06
4.02016e-08
3.24422e-06
3.75827e-08
3.22669e-06
3.55579e-08
3.20988e-06
3.54592e-08
3.19468e-06
3.57203e-08
4.58597e-08
3.18647e-06
3.66535e-06
1.56074e-08
3.67825e-06
6.98733e-08
3.68531e-06
7.46064e-08
3.6896e-06
7.61744e-08
3.69127e-06
7.76427e-08
3.69014e-06
7.5893e-08
3.68669e-06
7.19793e-08
3.68149e-06
6.76218e-08
3.67498e-06
6.33573e-08
3.6675e-06
5.93046e-08
3.65934e-06
5.55402e-08
3.6507e-06
5.21422e-08
3.64173e-06
4.91655e-08
3.63256e-06
4.67589e-08
3.62317e-06
4.49464e-08
3.614e-06
4.46288e-08
3.60471e-06
4.50048e-08
4.95862e-08
3.60099e-06
3.92465e-06
1.63466e-08
3.9358e-06
5.87212e-08
3.94255e-06
6.7862e-08
3.94802e-06
7.06975e-08
3.95244e-06
7.323e-08
3.95536e-06
7.29718e-08
3.95691e-06
7.04254e-08
3.95739e-06
6.71383e-08
3.957e-06
6.37556e-08
3.95586e-06
6.04366e-08
3.95413e-06
5.72749e-08
3.9519e-06
5.43713e-08
3.94926e-06
5.18083e-08
3.94629e-06
4.97288e-08
3.94302e-06
4.821e-08
3.9399e-06
4.77523e-08
3.93692e-06
4.79839e-08
4.98511e-08
3.93666e-06
4.20777e-06
1.57061e-08
4.216e-06
5.04888e-08
4.22166e-06
6.21972e-08
4.2266e-06
6.57643e-08
4.2313e-06
6.85298e-08
4.23526e-06
6.90136e-08
4.23835e-06
6.73283e-08
4.24073e-06
6.47667e-08
4.24248e-06
6.19993e-08
4.24371e-06
5.92103e-08
4.24448e-06
5.65005e-08
4.24487e-06
5.39789e-08
4.24494e-06
5.17395e-08
4.24477e-06
4.99038e-08
4.24443e-06
4.85498e-08
4.24426e-06
4.7921e-08
4.24445e-06
4.77968e-08
4.82156e-08
4.24608e-06
4.51044e-06
1.43531e-08
4.51686e-06
4.40656e-08
4.52218e-06
5.68849e-08
4.52684e-06
6.11035e-08
4.53145e-06
6.3915e-08
4.53564e-06
6.48207e-08
4.53923e-06
6.37422e-08
4.54228e-06
6.17204e-08
4.54486e-06
5.94119e-08
4.54705e-06
5.70242e-08
4.54889e-06
5.46641e-08
4.55042e-06
5.24408e-08
4.55172e-06
5.04481e-08
4.55284e-06
4.87812e-08
4.55389e-06
4.74961e-08
4.55513e-06
4.66853e-08
4.55675e-06
4.61706e-08
4.57165e-08
4.55925e-06
4.83412e-06
1.29519e-08
4.83958e-06
3.86057e-08
4.84483e-06
5.1632e-08
4.84943e-06
5.65118e-08
4.85394e-06
5.94036e-08
4.85817e-06
6.059e-08
4.86194e-06
5.99748e-08
4.86527e-06
5.83834e-08
4.86824e-06
5.64393e-08
4.8709e-06
5.43719e-08
4.87327e-06
5.22933e-08
4.8754e-06
5.03084e-08
4.87734e-06
4.85037e-08
4.87918e-06
4.69496e-08
4.881e-06
4.5676e-08
4.88299e-06
4.46914e-08
4.88532e-06
4.38362e-08
4.28465e-08
4.88819e-06
5.1809e-06
1.16318e-08
5.18571e-06
3.38001e-08
5.19084e-06
4.64965e-08
5.19542e-06
5.19313e-08
5.19989e-06
5.49382e-08
5.20415e-06
5.6328e-08
5.20804e-06
5.60891e-08
5.21155e-06
5.4866e-08
5.21476e-06
5.32328e-08
5.21769e-06
5.14364e-08
5.22039e-06
4.95943e-08
5.2229e-06
4.78051e-08
5.22526e-06
4.61457e-08
5.22754e-06
4.46662e-08
5.22984e-06
4.3375e-08
5.23229e-06
4.22404e-08
5.235e-06
4.11239e-08
3.98126e-08
5.23804e-06
5.5526e-06
1.03682e-08
5.55685e-06
2.95495e-08
5.56177e-06
4.15778e-08
5.56634e-06
4.73627e-08
5.5708e-06
5.04798e-08
5.57511e-06
5.20182e-08
5.57911e-06
5.20903e-08
5.58278e-06
5.11942e-08
5.58617e-06
4.98398e-08
5.58932e-06
4.82834e-08
5.59227e-06
4.66481e-08
5.59505e-06
4.50256e-08
5.59771e-06
4.34831e-08
5.60032e-06
4.20563e-08
5.60296e-06
4.07406e-08
5.60571e-06
3.94906e-08
5.60864e-06
3.81943e-08
3.67039e-08
5.61174e-06
5.95099e-06
9.15808e-09
5.95476e-06
2.57768e-08
5.95942e-06
3.69212e-08
5.96395e-06
4.28269e-08
5.96841e-06
4.60209e-08
5.97277e-06
4.76621e-08
5.97687e-06
4.79834e-08
5.98069e-06
4.73746e-08
5.98426e-06
4.62732e-08
5.98761e-06
4.49343e-08
5.99077e-06
4.34849e-08
5.99379e-06
4.20101e-08
5.9967e-06
4.05685e-08
5.99957e-06
3.91867e-08
6.00246e-06
3.78553e-08
6.00542e-06
3.65307e-08
6.00848e-06
3.51287e-08
3.35586e-08
6.01163e-06
6.37796e-06
8.01477e-09
6.38133e-06
2.24044e-08
6.38571e-06
3.25353e-08
6.39019e-06
3.83487e-08
6.39465e-06
4.15672e-08
6.39904e-06
4.32697e-08
6.40324e-06
4.37786e-08
6.4072e-06
4.34129e-08
6.41094e-06
4.25381e-08
6.41448e-06
4.13968e-08
6.41785e-06
4.01168e-08
6.42108e-06
3.87772e-08
6.42422e-06
3.74295e-08
6.42731e-06
3.60959e-08
6.4304e-06
3.47677e-08
6.43352e-06
3.3411e-08
6.43668e-06
3.19673e-08
3.03894e-08
6.43985e-06
5.74175e-06
7.09999e-09
5.74433e-06
1.98193e-08
5.74783e-06
2.90351e-08
5.75156e-06
3.46225e-08
5.75532e-06
3.7811e-08
5.75905e-06
3.95367e-08
5.76267e-06
4.01583e-08
5.76612e-06
3.99606e-08
5.7694e-06
3.92555e-08
5.77254e-06
3.82666e-08
5.77553e-06
3.71186e-08
5.77842e-06
3.58867e-08
5.78124e-06
3.46178e-08
5.784e-06
3.33326e-08
5.78674e-06
3.20258e-08
5.78948e-06
3.06735e-08
5.79221e-06
2.92356e-08
2.76932e-08
5.79491e-06
6.99913e-06
6.12241e-09
7.00187e-06
1.70852e-08
7.00565e-06
2.52477e-08
7.00982e-06
3.04561e-08
7.0141e-06
3.35316e-08
7.0184e-06
3.52385e-08
7.02261e-06
3.59425e-08
7.02668e-06
3.58965e-08
7.03058e-06
3.53584e-08
7.03432e-06
3.4526e-08
7.03792e-06
3.35178e-08
7.0414e-06
3.24042e-08
7.04479e-06
3.1228e-08
7.04811e-06
3.00099e-08
7.05139e-06
2.87502e-08
7.05462e-06
2.74361e-08
7.05782e-06
2.60449e-08
2.45789e-08
7.06093e-06
8.53188e-06
5.09124e-09
8.53473e-06
1.42285e-08
8.53878e-06
2.12e-08
8.54338e-06
2.58559e-08
8.54821e-06
2.87062e-08
8.55312e-06
3.03313e-08
8.55799e-06
3.10704e-08
8.56274e-06
3.11447e-08
8.56734e-06
3.07598e-08
8.57178e-06
3.00824e-08
8.57608e-06
2.92198e-08
8.58025e-06
2.82365e-08
8.5843e-06
2.71721e-08
8.58827e-06
2.60478e-08
8.59214e-06
2.48702e-08
8.59594e-06
2.36372e-08
8.59965e-06
2.23401e-08
2.09956e-08
8.60323e-06
1.04003e-05
4.01703e-09
1.04033e-05
1.12667e-08
1.04075e-05
1.69107e-08
1.04126e-05
2.08279e-08
1.0418e-05
2.33132e-08
1.04235e-05
2.47697e-08
1.04291e-05
2.54786e-08
1.04346e-05
2.56256e-08
1.044e-05
2.53683e-08
1.04453e-05
2.48377e-08
1.04504e-05
2.41246e-08
1.04553e-05
2.32862e-08
1.04601e-05
2.23582e-08
1.04648e-05
2.13624e-08
1.04694e-05
2.03103e-08
1.04738e-05
1.92081e-08
1.04781e-05
1.80567e-08
1.68802e-08
1.04822e-05
1.26779e-05
2.90541e-09
1.2681e-05
8.19164e-09
1.26855e-05
1.23713e-08
1.2691e-05
1.53608e-08
1.2697e-05
1.7318e-08
1.27033e-05
1.84937e-08
1.27096e-05
1.90907e-08
1.2716e-05
1.92497e-08
1.27223e-05
1.90833e-08
1.27285e-05
1.86854e-08
1.27345e-05
1.81255e-08
1.27403e-05
1.74498e-08
1.2746e-05
1.66886e-08
1.27515e-05
1.58625e-08
1.27568e-05
1.49852e-08
1.27619e-05
1.40671e-08
1.27669e-05
1.31143e-08
1.21531e-08
1.27716e-05
1.54543e-05
1.74532e-09
1.54576e-05
4.95247e-09
1.54624e-05
7.51477e-09
1.54684e-05
9.38477e-09
1.54751e-05
1.06369e-08
1.54822e-05
1.1401e-08
1.54895e-05
1.17924e-08
1.54968e-05
1.18961e-08
1.55041e-05
1.17796e-08
1.55113e-05
1.14991e-08
1.55184e-05
1.10983e-08
1.55252e-05
1.06079e-08
1.55318e-05
1.00498e-08
1.55383e-05
9.43981e-09
1.55445e-05
8.79017e-09
1.55504e-05
8.11144e-09
1.55561e-05
7.41053e-09
6.71161e-09
1.55616e-05
1.88389e-05
4.95357e-10
1.88424e-05
1.41826e-09
1.88478e-05
2.15524e-09
1.88545e-05
2.69482e-09
1.8862e-05
3.05884e-09
1.88702e-05
3.27671e-09
1.88786e-05
3.37094e-09
1.88871e-05
3.36023e-09
1.88956e-05
3.26284e-09
1.89041e-05
3.09514e-09
1.89123e-05
2.87024e-09
1.89203e-05
2.5985e-09
1.89281e-05
2.28857e-09
1.89355e-05
1.94798e-09
1.89427e-05
1.58352e-09
1.89497e-05
1.20203e-09
1.89563e-05
8.0809e-10
4.20776e-10
1.89626e-05
2.29648e-05
-9.51354e-10
2.29689e-05
-2.7122e-09
2.29752e-05
-4.144e-09
2.29831e-05
-5.20481e-09
2.29921e-05
-5.91129e-09
2.30017e-05
-6.35015e-09
2.30117e-05
-6.61468e-09
2.30218e-05
-6.76356e-09
2.30319e-05
-6.83352e-09
2.30419e-05
-6.85573e-09
2.30516e-05
-6.85533e-09
2.3061e-05
-6.84831e-09
2.30702e-05
-6.84335e-09
2.3079e-05
-6.84494e-09
2.30874e-05
-6.855e-09
2.30955e-05
-6.87316e-09
2.31032e-05
-6.89922e-09
-6.92099e-09
2.31105e-05
1.68118e-05
-2.09604e-09
1.68151e-05
-5.9449e-09
1.682e-05
-9.06892e-09
1.68261e-05
-1.13246e-08
1.6833e-05
-1.27607e-08
1.68402e-05
-1.36113e-08
1.68477e-05
-1.40803e-08
1.68552e-05
-1.42761e-08
1.68627e-05
-1.42734e-08
1.68699e-05
-1.41428e-08
1.6877e-05
-1.39392e-08
1.68839e-05
-1.36967e-08
1.68905e-05
-1.34358e-08
1.68968e-05
-1.31697e-08
1.69028e-05
-1.29065e-08
1.69086e-05
-1.26501e-08
1.69141e-05
-1.2403e-08
-1.21571e-08
1.69194e-05
1.46357e-05
-3.20415e-09
1.46388e-05
-9.10209e-09
1.46437e-05
-1.38897e-08
1.46495e-05
-1.72019e-08
1.4656e-05
-1.91851e-08
1.46627e-05
-2.03137e-08
1.46695e-05
-2.08902e-08
1.46762e-05
-2.10486e-08
1.46829e-05
-2.09088e-08
1.46893e-05
-2.05871e-08
1.46955e-05
-2.01625e-08
1.47015e-05
-1.96804e-08
1.47073e-05
-1.91695e-08
1.47127e-05
-1.86499e-08
1.4718e-05
-1.81344e-08
1.47229e-05
-1.76297e-08
1.47277e-05
-1.71396e-08
-1.66588e-08
1.47322e-05
1.27412e-05
-4.25167e-09
1.27444e-05
-1.23105e-08
1.27493e-05
-1.88438e-08
1.27551e-05
-2.29913e-08
1.27612e-05
-2.52928e-08
1.27675e-05
-2.65931e-08
1.27738e-05
-2.71964e-08
1.278e-05
-2.72297e-08
1.2786e-05
-2.68844e-08
1.27917e-05
-2.63319e-08
1.27972e-05
-2.56671e-08
1.28025e-05
-2.49395e-08
1.28075e-05
-2.41834e-08
1.28123e-05
-2.34235e-08
1.28168e-05
-2.26747e-08
1.28211e-05
-2.19445e-08
1.28252e-05
-2.12369e-08
-2.05478e-08
1.28291e-05
1.10918e-05
-5.12815e-09
1.10951e-05
-1.56302e-08
1.11004e-05
-2.41357e-08
1.11062e-05
-2.87678e-08
1.1112e-05
-3.11273e-08
1.11179e-05
-3.25039e-08
1.11238e-05
-3.30455e-08
1.11294e-05
-3.28714e-08
1.11348e-05
-3.22731e-08
1.114e-05
-3.14671e-08
1.11448e-05
-3.05505e-08
1.11495e-05
-2.95746e-08
1.11539e-05
-2.85789e-08
1.1158e-05
-2.75909e-08
1.1162e-05
-2.66257e-08
1.11657e-05
-2.569e-08
1.11693e-05
-2.47869e-08
-2.39131e-08
1.11726e-05
9.65583e-06
-5.74142e-09
9.65935e-06
-1.91521e-08
9.66495e-06
-2.9733e-08
9.67062e-06
-3.44457e-08
9.67626e-06
-3.67594e-08
9.68188e-06
-3.81311e-08
9.68731e-06
-3.84698e-08
9.69243e-06
-3.7995e-08
9.69727e-06
-3.7114e-08
9.70186e-06
-3.60494e-08
9.70619e-06
-3.48808e-08
9.71027e-06
-3.36597e-08
9.71412e-06
-3.2431e-08
9.71776e-06
-3.12239e-08
9.72118e-06
-3.00525e-08
9.72442e-06
-2.89229e-08
9.72746e-06
-2.78363e-08
-2.67877e-08
9.73034e-06
8.40543e-06
-5.82064e-09
8.4098e-06
-2.35243e-08
8.4153e-06
-3.52321e-08
8.42049e-06
-3.96303e-08
8.42591e-06
-4.21824e-08
8.43137e-06
-4.35938e-08
8.43651e-06
-4.36102e-08
8.44126e-06
-4.27432e-08
8.44568e-06
-4.15289e-08
8.44979e-06
-4.01672e-08
8.45363e-06
-3.87156e-08
8.4572e-06
-3.72259e-08
8.46051e-06
-3.57461e-08
8.46359e-06
-3.4305e-08
8.46646e-06
-3.29163e-08
8.46912e-06
-3.1586e-08
8.4716e-06
-3.03147e-08
-2.90985e-08
8.47391e-06
7.31506e-06
-3.59266e-09
7.32194e-06
-3.04068e-08
7.32738e-06
-4.0678e-08
7.33215e-06
-4.43927e-08
7.33745e-06
-4.74871e-08
7.34282e-06
-4.89594e-08
7.34777e-06
-4.8562e-08
7.35224e-06
-4.7213e-08
7.35627e-06
-4.55596e-08
7.35988e-06
-4.37803e-08
7.3631e-06
-4.1934e-08
7.36596e-06
-4.00841e-08
7.36849e-06
-3.82799e-08
7.37074e-06
-3.65477e-08
7.37272e-06
-3.4899e-08
7.37447e-06
-3.33384e-08
7.37602e-06
-3.1863e-08
-3.04665e-08
7.37739e-06
6.36222e-06
4.25364e-09
6.37294e-06
-4.1129e-08
6.38006e-06
-4.78006e-08
6.38624e-06
-5.05671e-08
6.3922e-06
-5.34488e-08
6.39748e-06
-5.42379e-08
6.40183e-06
-5.29101e-08
6.40539e-06
-5.07777e-08
6.40829e-06
-4.84544e-08
6.41056e-06
-4.60527e-08
6.41227e-06
-4.36399e-08
6.41348e-06
-4.1294e-08
6.41426e-06
-3.90633e-08
6.41468e-06
-3.69675e-08
6.41479e-06
-3.50132e-08
6.41466e-06
-3.32016e-08
6.41432e-06
-3.15243e-08
-2.9961e-08
6.41381e-06
5.53608e-06
1.3639e-08
5.54775e-06
-5.28007e-08
5.55743e-06
-5.74833e-08
5.566e-06
-5.91311e-08
5.57276e-06
-6.02091e-08
5.57717e-06
-5.86506e-08
5.57931e-06
-5.50472e-08
5.57973e-06
-5.12011e-08
5.57886e-06
-4.7587e-08
5.57699e-06
-4.41763e-08
5.57432e-06
-4.09765e-08
5.57106e-06
-3.80254e-08
5.56733e-06
-3.53363e-08
5.56326e-06
-3.29011e-08
5.55895e-06
-3.07052e-08
5.5545e-06
-2.87457e-08
5.54999e-06
-2.70135e-08
-2.54477e-08
5.54547e-06
4.85751e-06
-1.62614e-08
4.86091e-06
-5.62009e-08
4.8615e-06
-5.80737e-08
4.85883e-06
-5.64597e-08
4.85482e-06
-5.61977e-08
4.84811e-06
-5.19494e-08
4.83885e-06
-4.57867e-08
4.82759e-06
-3.99417e-08
4.81498e-06
-3.49682e-08
4.80159e-06
-3.0789e-08
4.78788e-06
-2.72681e-08
4.77416e-06
-2.43025e-08
4.76062e-06
-2.18013e-08
4.74741e-06
-1.96854e-08
4.73459e-06
-1.78918e-08
4.72226e-06
-1.64106e-08
4.71051e-06
-1.52684e-08
-1.4958e-08
4.70002e-06
4.18641e-06
4.13021e-06
4.07214e-06
4.01568e-06
3.95948e-06
3.90753e-06
3.86175e-06
3.82181e-06
3.78684e-06
3.75605e-06
3.72878e-06
3.70448e-06
3.68268e-06
3.66299e-06
3.6451e-06
3.62869e-06
3.61342e-06
3.59846e-06
9.49595e-09
-9.49595e-09
2.03721e-08
-1.08762e-08
2.81097e-08
-7.73761e-09
3.15507e-08
-3.44097e-09
3.05114e-08
1.0393e-09
2.55719e-08
4.93949e-09
1.7476e-08
8.09588e-09
6.97281e-09
1.05032e-08
-5.34145e-09
1.23143e-08
-1.90628e-08
1.37214e-08
-3.39416e-08
1.48788e-08
-4.98285e-08
1.58869e-08
-6.66375e-08
1.6809e-08
-8.43183e-08
1.76808e-08
-1.02839e-07
1.85205e-08
-1.22175e-07
1.93364e-08
-1.42307e-07
2.01316e-08
-1.63214e-07
2.09068e-08
-1.84876e-07
2.1662e-08
-2.07273e-07
2.23977e-08
-2.30388e-07
2.31143e-08
-2.542e-07
2.3812e-08
-2.78688e-07
2.44887e-08
-3.03827e-07
2.5139e-08
-3.29581e-07
2.57539e-08
-3.55903e-07
2.63222e-08
-3.82738e-07
2.68341e-08
-4.10023e-07
2.72854e-08
-4.37707e-07
2.76839e-08
-4.65765e-07
2.80586e-08
-4.94234e-07
2.84685e-08
-5.23238e-07
2.90042e-08
-5.53023e-07
2.97844e-08
-5.83804e-07
3.07809e-08
-6.15318e-07
3.15147e-08
-6.47372e-07
3.20536e-08
-6.80883e-07
3.35111e-08
-7.17863e-07
3.69803e-08
-7.56773e-07
3.89102e-08
-7.93804e-07
3.70305e-08
-8.32803e-07
3.8999e-08
-8.77885e-07
4.50825e-08
-9.23628e-07
4.57422e-08
-9.64161e-07
4.05337e-08
-1.00313e-06
3.89654e-08
-1.04386e-06
4.07314e-08
-1.0866e-06
4.27444e-08
-1.13032e-06
4.3714e-08
-1.17463e-06
4.4314e-08
-1.21928e-06
4.46467e-08
-1.26408e-06
4.48042e-08
-1.30892e-06
4.48424e-08
-1.35372e-06
4.47958e-08
-1.39841e-06
4.46862e-08
-1.44293e-06
4.45271e-08
-1.48726e-06
4.43272e-08
-1.53135e-06
4.40916e-08
-1.57518e-06
4.38233e-08
-1.6187e-06
4.35239e-08
-1.66189e-06
4.31939e-08
-1.70473e-06
4.28331e-08
-1.74717e-06
4.2441e-08
-1.78918e-06
4.20167e-08
-1.83074e-06
4.15592e-08
-1.87181e-06
4.10674e-08
-1.91235e-06
4.05402e-08
-1.95233e-06
3.99766e-08
-1.9917e-06
3.93757e-08
-2.03044e-06
3.87366e-08
-2.0685e-06
3.80587e-08
-2.10584e-06
3.73414e-08
-2.14242e-06
3.65844e-08
-2.17821e-06
3.57874e-08
-2.21316e-06
3.49505e-08
-2.24724e-06
3.40736e-08
-2.28039e-06
3.31572e-08
-2.31259e-06
3.22014e-08
-2.3438e-06
3.1207e-08
-2.37398e-06
3.01744e-08
-2.40308e-06
2.91043e-08
-2.43108e-06
2.79976e-08
-2.45793e-06
2.68549e-08
-2.48361e-06
2.56772e-08
-2.50807e-06
2.4465e-08
-2.53129e-06
2.32192e-08
-2.55323e-06
2.19401e-08
-2.57386e-06
2.06282e-08
-2.59315e-06
1.92834e-08
-2.61105e-06
1.79053e-08
-2.62754e-06
1.6493e-08
-2.64259e-06
1.50449e-08
-2.65615e-06
1.35583e-08
-2.66818e-06
1.20296e-08
-2.67863e-06
1.04521e-08
-2.68745e-06
8.81737e-09
-2.69456e-06
7.11348e-09
-2.69988e-06
5.32344e-09
-2.70332e-06
3.4362e-09
-2.70477e-06
1.45431e-09
-2.70423e-06
-5.45581e-10
-2.70202e-06
-2.20698e-09
-2.69822e-06
-3.79734e-09
-2.69287e-06
-5.35799e-09
-2.68595e-06
-6.91143e-09
-2.67748e-06
-8.46921e-09
-2.66745e-06
-1.00333e-08
-2.65585e-06
-1.16032e-08
-2.64267e-06
-1.31772e-08
-2.62792e-06
-1.47534e-08
-2.61159e-06
-1.63298e-08
-2.59368e-06
-1.79043e-08
-2.57421e-06
-1.94746e-08
-2.55317e-06
-2.10387e-08
-2.53058e-06
-2.25945e-08
-2.50644e-06
-2.41398e-08
-2.48076e-06
-2.56727e-08
-2.45357e-06
-2.71911e-08
-2.42488e-06
-2.86928e-08
-2.3947e-06
-3.01759e-08
-2.36307e-06
-3.16382e-08
-2.32999e-06
-3.30778e-08
-2.29549e-06
-3.44929e-08
-2.25961e-06
-3.58813e-08
-2.22237e-06
-3.72415e-08
-2.1838e-06
-3.85717e-08
-2.14393e-06
-3.987e-08
-2.1028e-06
-4.11349e-08
-2.06043e-06
-4.23647e-08
-2.01687e-06
-4.35579e-08
-1.97216e-06
-4.47129e-08
-1.92633e-06
-4.58281e-08
-1.87943e-06
-4.69025e-08
-1.83149e-06
-4.79347e-08
-1.78257e-06
-4.89238e-08
-1.7327e-06
-4.98686e-08
-1.68193e-06
-5.07684e-08
-1.63031e-06
-5.16221e-08
-1.57788e-06
-5.2429e-08
-1.52469e-06
-5.31887e-08
-1.47079e-06
-5.39007e-08
-1.41623e-06
-5.45649e-08
-1.36105e-06
-5.5181e-08
-1.3053e-06
-5.5749e-08
-1.24903e-06
-5.62689e-08
-1.19229e-06
-5.67411e-08
-1.13512e-06
-5.71663e-08
-1.07758e-06
-5.75449e-08
-1.0197e-06
-5.78777e-08
-9.61534e-07
-5.81656e-08
-9.03124e-07
-5.841e-08
-8.44512e-07
-5.86119e-08
-7.85739e-07
-5.87729e-08
-7.26844e-07
-5.88946e-08
-6.67866e-07
-5.89787e-08
-6.08838e-07
-5.90272e-08
-5.49797e-07
-5.90418e-08
-4.90772e-07
-5.90246e-08
-4.31795e-07
-5.89774e-08
-3.72893e-07
-5.89015e-08
-3.14096e-07
-5.87976e-08
-2.55429e-07
-5.86666e-08
-1.96924e-07
-5.85046e-08
-1.38613e-07
-5.83118e-08
-8.05249e-08
-5.80878e-08
-2.2703e-08
-5.78219e-08
3.48173e-08
-5.75203e-08
9.19968e-08
-5.71795e-08
1.48836e-07
-5.68389e-08
2.05356e-07
-5.65202e-08
2.61573e-07
-5.62174e-08
3.17484e-07
-5.59109e-08
3.73059e-07
-5.55744e-08
4.28227e-07
-5.51689e-08
4.82855e-07
-5.46271e-08
5.36673e-07
-5.38189e-08
5.89152e-07
-5.24783e-08
6.39077e-07
-4.99257e-08
6.83601e-07
-4.45235e-08
7.15174e-07
-3.15727e-08
8.38492e-09
7.06789e-07
6.88859e-09
-1.63845e-08
9.12005e-09
-1.31076e-08
7.4691e-09
-6.08666e-09
3.08105e-09
9.4709e-10
-3.42345e-09
7.5438e-09
-1.19336e-08
1.34496e-08
-2.23832e-08
1.85455e-08
-3.46972e-08
2.28172e-08
-4.87365e-08
2.63536e-08
-6.43179e-08
2.93027e-08
-8.12596e-08
3.18205e-08
-9.94102e-08
3.40375e-08
-1.18653e-07
3.60517e-08
-1.38903e-07
3.79308e-08
-1.60102e-07
3.97194e-08
-1.82211e-07
4.14452e-08
-2.05205e-07
4.31258e-08
-2.2907e-07
4.47722e-08
-2.53801e-07
4.63924e-08
-2.79396e-07
4.7993e-08
-3.05861e-07
4.95794e-08
-3.33205e-07
5.11559e-08
-3.61441e-07
5.27249e-08
-3.90589e-07
5.42869e-08
-4.20676e-07
5.58413e-08
-4.51743e-07
5.73894e-08
-4.83847e-07
5.89377e-08
-5.17063e-07
6.05017e-08
-5.51489e-07
6.21092e-08
-5.87231e-07
6.38005e-08
-6.24384e-07
6.56223e-08
-6.62999e-07
6.7619e-08
-7.03034e-07
6.98198e-08
-7.44415e-07
7.21612e-08
-7.87326e-07
7.44257e-08
-8.31821e-07
7.6549e-08
-8.7711e-07
7.87995e-08
-9.21294e-07
8.11645e-08
-9.65285e-07
8.29014e-08
-1.01193e-06
8.36787e-08
-1.05791e-06
8.49749e-08
-1.09999e-06
8.71589e-08
-1.14217e-06
8.79223e-08
-1.18827e-06
8.66356e-08
-1.23494e-06
8.56333e-08
-1.27978e-06
8.55805e-08
-1.32291e-06
8.58649e-08
-1.36517e-06
8.59826e-08
-1.40681e-06
8.59508e-08
-1.44795e-06
8.57888e-08
-1.48866e-06
8.55159e-08
-1.52897e-06
8.51513e-08
-1.56889e-06
8.47103e-08
-1.60841e-06
8.42042e-08
-1.64752e-06
8.36407e-08
-1.68622e-06
8.30247e-08
-1.72448e-06
8.23587e-08
-1.7623e-06
8.16437e-08
-1.79966e-06
8.08795e-08
-1.83653e-06
8.0065e-08
-1.8729e-06
7.91986e-08
-1.90873e-06
7.82782e-08
-1.94402e-06
7.73017e-08
-1.97873e-06
7.6267e-08
-2.01283e-06
7.51718e-08
-2.0463e-06
7.40141e-08
-2.07912e-06
7.2792e-08
-2.11125e-06
7.15041e-08
-2.14266e-06
7.01488e-08
-2.17333e-06
6.87251e-08
-2.20322e-06
6.72322e-08
-2.2323e-06
6.56694e-08
-2.26055e-06
6.40366e-08
-2.28794e-06
6.23337e-08
-2.31442e-06
6.05609e-08
-2.33998e-06
5.87188e-08
-2.36459e-06
5.68081e-08
-2.38821e-06
5.48295e-08
-2.41082e-06
5.27842e-08
-2.43239e-06
5.06732e-08
-2.45289e-06
4.8498e-08
-2.4723e-06
4.62598e-08
-2.49058e-06
4.396e-08
-2.50771e-06
4.15997e-08
-2.52368e-06
3.91803e-08
-2.53844e-06
3.67028e-08
-2.55198e-06
3.41681e-08
-2.56427e-06
3.15767e-08
-2.5753e-06
2.89289e-08
-2.58503e-06
2.62247e-08
-2.59345e-06
2.34637e-08
-2.60053e-06
2.06452e-08
-2.60627e-06
1.77684e-08
-2.61065e-06
1.48328e-08
-2.61367e-06
1.1839e-08
-2.61535e-06
8.79003e-09
-2.61572e-06
5.69445e-09
-2.61486e-06
2.57433e-09
-2.6129e-06
-5.10256e-10
-2.60983e-06
-3.60858e-09
-2.60542e-06
-6.61557e-09
-2.59958e-06
-9.6448e-09
-2.59224e-06
-1.26957e-08
-2.58338e-06
-1.57653e-08
-2.573e-06
-1.88531e-08
-2.56108e-06
-2.19566e-08
-2.54761e-06
-2.50725e-08
-2.53259e-06
-2.81969e-08
-2.51602e-06
-3.13257e-08
-2.49789e-06
-3.44547e-08
-2.47822e-06
-3.75796e-08
-2.45699e-06
-4.06962e-08
-2.43423e-06
-4.38003e-08
-2.40994e-06
-4.68877e-08
-2.38412e-06
-4.99543e-08
-2.3568e-06
-5.29959e-08
-2.32798e-06
-5.60085e-08
-2.29769e-06
-5.89879e-08
-2.26593e-06
-6.19301e-08
-2.23274e-06
-6.4831e-08
-2.19813e-06
-6.76867e-08
-2.16213e-06
-7.04932e-08
-2.12477e-06
-7.32469e-08
-2.08606e-06
-7.59442e-08
-2.04605e-06
-7.85815e-08
-2.00477e-06
-8.11555e-08
-1.96224e-06
-8.36628e-08
-1.91851e-06
-8.61003e-08
-1.8736e-06
-8.84648e-08
-1.82756e-06
-9.0753e-08
-1.78042e-06
-9.29623e-08
-1.73224e-06
-9.509e-08
-1.68304e-06
-9.71338e-08
-1.63287e-06
-9.90915e-08
-1.58178e-06
-1.00961e-07
-1.52981e-06
-1.02741e-07
-1.477e-06
-1.04429e-07
-1.4234e-06
-1.06024e-07
-1.36907e-06
-1.07524e-07
-1.31404e-06
-1.0893e-07
-1.25836e-06
-1.10241e-07
-1.20209e-06
-1.11455e-07
-1.14526e-06
-1.12574e-07
-1.08794e-06
-1.13597e-07
-1.03015e-06
-1.14525e-07
-9.71959e-07
-1.15359e-07
-9.13404e-07
-1.16101e-07
-8.54531e-07
-1.16751e-07
-7.95384e-07
-1.17312e-07
-7.36008e-07
-1.17786e-07
-6.76445e-07
-1.18176e-07
-6.16733e-07
-1.18484e-07
-5.56914e-07
-1.18714e-07
-4.97023e-07
-1.1887e-07
-4.37095e-07
-1.18954e-07
-3.77165e-07
-1.18972e-07
-3.17264e-07
-1.18926e-07
-2.57421e-07
-1.18821e-07
-1.97663e-07
-1.18659e-07
-1.38017e-07
-1.18443e-07
-7.85086e-08
-1.18175e-07
-1.9161e-08
-1.17852e-07
3.9999e-08
-1.17472e-07
9.89451e-08
-1.17034e-07
1.5766e-07
-1.16537e-07
2.16132e-07
-1.15992e-07
2.74364e-07
-1.15411e-07
3.32352e-07
-1.14828e-07
3.90091e-07
-1.14259e-07
4.47569e-07
-1.13696e-07
5.04769e-07
-1.1311e-07
5.61648e-07
-1.12454e-07
6.18129e-07
-1.1165e-07
6.74067e-07
-1.10565e-07
7.29194e-07
-1.08947e-07
7.83017e-07
-1.06301e-07
8.34569e-07
-1.01477e-07
8.82241e-07
-9.21957e-08
9.22738e-07
-7.20693e-08
-2.50563e-08
9.56179e-07
-1.78497e-10
-1.6206e-08
-5.22124e-09
-8.0649e-09
-1.2649e-08
1.34109e-09
-2.15659e-08
9.86396e-09
-3.16943e-08
1.76722e-08
-4.29896e-08
2.47449e-08
-5.54993e-08
3.10552e-08
-6.92876e-08
3.66056e-08
-8.43846e-08
4.14506e-08
-1.0077e-07
4.56885e-08
-1.18387e-07
4.94374e-08
-1.37163e-07
5.28132e-08
-1.57027e-07
5.59153e-08
-1.77918e-07
5.88225e-08
-1.99792e-07
6.15934e-08
-2.22617e-07
6.427e-08
-2.46374e-07
6.68826e-08
-2.71055e-07
6.9453e-08
-2.9666e-07
7.19978e-08
-3.23197e-07
7.45303e-08
-3.5068e-07
7.70618e-08
-3.79125e-07
7.96012e-08
-4.08555e-07
8.21553e-08
-4.38998e-07
8.47292e-08
-4.70484e-07
8.73271e-08
-5.03048e-07
8.9954e-08
-5.36727e-07
9.26168e-08
-5.71552e-07
9.53261e-08
-6.07538e-07
9.8095e-08
-6.44673e-07
1.00936e-07
-6.82902e-07
1.03852e-07
-7.22111e-07
1.06827e-07
-7.62108e-07
1.09817e-07
-8.02668e-07
1.12722e-07
-8.43642e-07
1.15399e-07
-8.8484e-07
1.17747e-07
-9.25807e-07
1.19766e-07
-9.66101e-07
1.21459e-07
-1.00596e-06
1.2276e-07
-1.04601e-06
1.2373e-07
-1.0856e-06
1.24559e-07
-1.12364e-06
1.25206e-07
-1.16104e-06
1.25321e-07
-1.19923e-06
1.24825e-07
-1.23778e-06
1.24182e-07
-1.27587e-06
1.2367e-07
-1.31325e-06
1.23245e-07
-1.35007e-06
1.22809e-07
-1.38645e-06
1.22329e-07
-1.42245e-06
1.21788e-07
-1.45812e-06
1.21181e-07
-1.49347e-06
1.20508e-07
-1.52853e-06
1.19771e-07
-1.5633e-06
1.18971e-07
-1.59777e-06
1.1811e-07
-1.63193e-06
1.17187e-07
-1.66578e-06
1.16202e-07
-1.69928e-06
1.15153e-07
-1.73244e-06
1.14037e-07
-1.76523e-06
1.12851e-07
-1.79762e-06
1.11591e-07
-1.8296e-06
1.10254e-07
-1.86113e-06
1.08837e-07
-1.8922e-06
1.07337e-07
-1.92278e-06
1.05749e-07
-1.95283e-06
1.0407e-07
-1.98234e-06
1.023e-07
-2.01127e-06
1.00433e-07
-2.03959e-06
9.84702e-08
-2.06728e-06
9.64081e-08
-2.09429e-06
9.42461e-08
-2.1206e-06
9.19832e-08
-2.14619e-06
8.9619e-08
-2.17101e-06
8.71536e-08
-2.19503e-06
8.4587e-08
-2.21823e-06
8.192e-08
-2.24058e-06
7.91535e-08
-2.26204e-06
7.62887e-08
-2.28258e-06
7.3327e-08
-2.30218e-06
7.027e-08
-2.3208e-06
6.71197e-08
-2.33842e-06
6.38779e-08
-2.355e-06
6.05465e-08
-2.37053e-06
5.71278e-08
-2.38498e-06
5.36237e-08
-2.39831e-06
5.0036e-08
-2.41051e-06
4.63667e-08
-2.42155e-06
4.26175e-08
-2.43141e-06
3.87899e-08
-2.44007e-06
3.48855e-08
-2.44751e-06
3.09058e-08
-2.45372e-06
2.68526e-08
-2.45868e-06
2.27283e-08
-2.46238e-06
1.85366e-08
-2.46483e-06
1.42829e-08
-2.46601e-06
9.97529e-09
-2.46594e-06
5.62614e-09
-2.46462e-06
1.25242e-09
-2.46201e-06
-3.12485e-09
-2.45809e-06
-7.52179e-09
-2.45277e-06
-1.19378e-08
-2.44602e-06
-1.63966e-08
-2.43782e-06
-2.08971e-08
-2.42815e-06
-2.54345e-08
-2.417e-06
-3.00033e-08
-2.40436e-06
-3.45975e-08
-2.39022e-06
-3.92111e-08
-2.37458e-06
-4.38378e-08
-2.35743e-06
-4.84712e-08
-2.33878e-06
-5.31051e-08
-2.31863e-06
-5.7733e-08
-2.29698e-06
-6.23488e-08
-2.27383e-06
-6.6946e-08
-2.2492e-06
-7.15186e-08
-2.22309e-06
-7.60604e-08
-2.19552e-06
-8.05653e-08
-2.16651e-06
-8.50272e-08
-2.13605e-06
-8.94401e-08
-2.10419e-06
-9.37978e-08
-2.07092e-06
-9.80945e-08
-2.03629e-06
-1.02324e-07
-2.0003e-06
-1.06481e-07
-1.96299e-06
-1.10559e-07
-1.92438e-06
-1.14554e-07
-1.8845e-06
-1.1846e-07
-1.84338e-06
-1.22272e-07
-1.80106e-06
-1.25985e-07
-1.75757e-06
-1.29594e-07
-1.71294e-06
-1.33095e-07
-1.66721e-06
-1.36483e-07
-1.62041e-06
-1.39753e-07
-1.5726e-06
-1.42903e-07
-1.52381e-06
-1.45928e-07
-1.47407e-06
-1.48825e-07
-1.42344e-06
-1.51591e-07
-1.37196e-06
-1.54224e-07
-1.31967e-06
-1.5672e-07
-1.26661e-06
-1.59079e-07
-1.21284e-06
-1.61297e-07
-1.1584e-06
-1.63374e-07
-1.10333e-06
-1.6531e-07
-1.04768e-06
-1.67103e-07
-9.91502e-07
-1.68754e-07
-9.34836e-07
-1.70263e-07
-8.7773e-07
-1.7163e-07
-8.20231e-07
-1.72859e-07
-7.62382e-07
-1.73949e-07
-7.04228e-07
-1.74905e-07
-6.45813e-07
-1.75727e-07
-5.87178e-07
-1.76421e-07
-5.28364e-07
-1.7699e-07
-4.69411e-07
-1.77437e-07
-4.10357e-07
-1.77769e-07
-3.51237e-07
-1.7799e-07
-2.92086e-07
-1.78105e-07
-2.32935e-07
-1.78122e-07
-1.73816e-07
-1.78045e-07
-1.14757e-07
-1.7788e-07
-5.57836e-08
-1.77633e-07
3.08067e-09
-1.77307e-07
6.18111e-08
-1.76906e-07
1.20386e-07
-1.76427e-07
1.78788e-07
-1.75873e-07
2.37e-07
-1.75246e-07
2.95017e-07
-1.74554e-07
3.52847e-07
-1.73822e-07
4.10499e-07
-1.73063e-07
4.67959e-07
-1.72288e-07
5.25208e-07
-1.71508e-07
5.82226e-07
-1.70714e-07
6.38985e-07
-1.69869e-07
6.95439e-07
-1.68908e-07
7.51511e-07
-1.67722e-07
8.07063e-07
-1.66117e-07
8.61859e-07
-1.63743e-07
9.15497e-07
-1.59939e-07
9.67347e-07
-1.53327e-07
1.01651e-06
-1.41358e-07
1.06247e-06
-1.18035e-07
-7.19818e-08
1.1094e-06
-6.4678e-09
-9.73825e-09
-1.66867e-08
2.15396e-09
-2.80753e-08
1.27298e-08
-4.02405e-08
2.20291e-08
-5.30698e-08
3.05015e-08
-6.65951e-08
3.82702e-08
-8.09029e-08
4.5363e-08
-9.60926e-08
5.17953e-08
-1.12246e-07
5.76041e-08
-1.29412e-07
6.28541e-08
-1.47604e-07
6.76296e-08
-1.66812e-07
7.20217e-08
-1.87014e-07
7.61168e-08
-2.08181e-07
7.99898e-08
-2.3029e-07
8.37018e-08
-2.5332e-07
8.73007e-08
-2.77261e-07
9.08231e-08
-3.02105e-07
9.4297e-08
-3.27851e-07
9.77441e-08
-3.54502e-07
1.01181e-07
-3.82062e-07
1.04621e-07
-4.10534e-07
1.08073e-07
-4.39921e-07
1.11543e-07
-4.70225e-07
1.15033e-07
-5.0144e-07
1.18542e-07
-5.33551e-07
1.22065e-07
-5.66531e-07
1.25597e-07
-6.00332e-07
1.29127e-07
-6.34879e-07
1.32642e-07
-6.70065e-07
1.36122e-07
-7.05749e-07
1.39536e-07
-7.4176e-07
1.42838e-07
-7.77909e-07
1.45966e-07
-8.14019e-07
1.48832e-07
-8.49966e-07
1.51346e-07
-8.85667e-07
1.53448e-07
-9.21032e-07
1.55131e-07
-9.56007e-07
1.56434e-07
-9.90648e-07
1.57401e-07
-1.02499e-06
1.58076e-07
-1.05894e-06
1.58503e-07
-1.09239e-06
1.58663e-07
-1.12556e-06
1.58488e-07
-1.15874e-06
1.58008e-07
-1.19195e-06
1.57384e-07
-1.22501e-06
1.56734e-07
-1.25784e-06
1.56079e-07
-1.29044e-06
1.55404e-07
-1.32281e-06
1.54694e-07
-1.35496e-06
1.53939e-07
-1.38691e-06
1.5313e-07
-1.41866e-06
1.52261e-07
-1.45022e-06
1.51329e-07
-1.48158e-06
1.50331e-07
-1.51273e-06
1.49263e-07
-1.54366e-06
1.48122e-07
-1.57436e-06
1.46903e-07
-1.60481e-06
1.45602e-07
-1.63499e-06
1.44215e-07
-1.66488e-06
1.42736e-07
-1.69444e-06
1.4116e-07
-1.72367e-06
1.39483e-07
-1.75253e-06
1.37699e-07
-1.781e-06
1.35805e-07
-1.80905e-06
1.33795e-07
-1.83665e-06
1.31666e-07
-1.86376e-06
1.29415e-07
-1.89037e-06
1.27038e-07
-1.91643e-06
1.24533e-07
-1.94192e-06
1.21897e-07
-1.9668e-06
1.1913e-07
-1.99105e-06
1.1623e-07
-2.01463e-06
1.13197e-07
-2.0375e-06
1.1003e-07
-2.05965e-06
1.06731e-07
-2.08103e-06
1.03299e-07
-2.10161e-06
9.97361e-08
-2.12136e-06
9.60437e-08
-2.14026e-06
9.22239e-08
-2.15827e-06
8.82788e-08
-2.17536e-06
8.42108e-08
-2.19151e-06
8.00225e-08
-2.20668e-06
7.57168e-08
-2.22084e-06
7.12965e-08
-2.23399e-06
6.67645e-08
-2.24607e-06
6.21239e-08
-2.25708e-06
5.73774e-08
-2.26699e-06
5.2528e-08
-2.27578e-06
4.75786e-08
-2.28343e-06
4.2532e-08
-2.28991e-06
3.73914e-08
-2.29522e-06
3.21603e-08
-2.29934e-06
2.68428e-08
-2.30224e-06
2.14441e-08
-2.30393e-06
1.59706e-08
-2.30439e-06
1.04303e-08
-2.30359e-06
4.8327e-09
-2.30153e-06
-8.12622e-10
-2.29815e-06
-6.49903e-09
-2.29344e-06
-1.2232e-08
-2.28736e-06
-1.80192e-08
-2.27989e-06
-2.38677e-08
-2.27102e-06
-2.97732e-08
-2.26072e-06
-3.57293e-08
-2.249e-06
-4.1728e-08
-2.23583e-06
-4.77611e-08
-2.22122e-06
-5.38202e-08
-2.20516e-06
-5.98969e-08
-2.18765e-06
-6.59827e-08
-2.16869e-06
-7.20692e-08
-2.14827e-06
-7.81481e-08
-2.12641e-06
-8.42111e-08
-2.10311e-06
-9.02499e-08
-2.07837e-06
-9.62565e-08
-2.05221e-06
-1.02223e-07
-2.02463e-06
-1.0814e-07
-1.99566e-06
-1.14002e-07
-1.9653e-06
-1.19799e-07
-1.93357e-06