/*--------------------------------*- C++ -*----------------------------------*\
  =========                 |
  \\      /  F ield         | OpenFOAM: The Open Source CFD Toolbox
   \\    /   O peration     | Website:  https://openfoam.org
    \\  /    A nd           | Version:  9
     \\/     M anipulation  |
\*---------------------------------------------------------------------------*/
FoamFile
{
    format      ascii;
    class       volVectorField;
    location    "0.25";
    object      U;
}
// * * * * * * * * * * * * * * * * * * * * * * * * * * * * * * * * * * * * * //

dimensions      [0 1 -1 0 0 0 0];

internalField   nonuniform List<vector> 
12225
(
(9.86107 -0.874318 0)
(9.67248 -0.700192 0)
(9.45897 -0.387592 0)
(9.22466 -0.188478 0)
(9.00349 -0.0843944 0)
(8.8104 -0.0328769 0)
(8.64512 -0.00755202 0)
(8.50413 0.00502308 0)
(8.38395 0.0113344 0)
(8.28108 0.01447 0)
(8.19212 0.0159645 0)
(8.1142 0.0166331 0)
(8.04493 0.0169184 0)
(7.98251 0.0171118 0)
(7.92401 0.0174054 0)
(7.87041 0.0185045 0)
(7.80116 0.0214667 0)
(7.77487 0.0298502 0)
(10.0547 0.263069 0)
(10.1201 0.36074 0)
(10.118 0.27382 0)
(10.0826 0.187086 0)
(10.0405 0.13116 0)
(9.99392 0.0969244 0)
(9.94012 0.075554 0)
(9.8804 0.0617458 0)
(9.81784 0.0523392 0)
(9.75492 0.0455209 0)
(9.69309 0.0403479 0)
(9.63317 0.0363591 0)
(9.57553 0.0332983 0)
(9.52056 0.0311456 0)
(9.46748 0.0297346 0)
(9.41874 0.0308243 0)
(9.3674 0.0318914 0)
(9.34215 0.0521882 0)
(9.99919 0.0460864 0)
(10.0244 0.0342084 0)
(10.0538 0.0149479 0)
(10.0708 0.0218078 0)
(10.0778 0.0366685 0)
(10.0783 0.0460037 0)
(10.0722 0.0499428 0)
(10.0603 0.0511322 0)
(10.0439 0.0510369 0)
(10.0246 0.050318 0)
(10.0031 0.0493467 0)
(9.98002 0.0483687 0)
(9.95589 0.0475338 0)
(9.93111 0.0470747 0)
(9.90565 0.0470638 0)
(9.88054 0.0488291 0)
(9.85501 0.0515471 0)
(9.83511 0.0628495 0)
(9.9968 0.00642732 0)
(10.0085 0.0250167 0)
(10.0342 0.038935 0)
(10.0528 0.050298 0)
(10.0644 0.0571014 0)
(10.0731 0.0591555 0)
(10.079 0.0588412 0)
(10.0816 0.0579184 0)
(10.0816 0.0569086 0)
(10.0795 0.0558873 0)
(10.0758 0.0549068 0)
(10.0707 0.0540534 0)
(10.0645 0.0534171 0)
(10.0573 0.0531902 0)
(10.0493 0.0535055 0)
(10.0411 0.0552327 0)
(10.0332 0.0580372 0)
(10.0278 0.0643984 0)
(9.99922 0.00673659 0)
(10.0081 0.0335714 0)
(10.0271 0.046039 0)
(10.0418 0.0508386 0)
(10.0524 0.0539047 0)
(10.0622 0.0554906 0)
(10.0708 0.0558341 0)
(10.0775 0.0556464 0)
(10.0823 0.0552735 0)
(10.0857 0.0548064 0)
(10.0881 0.0543192 0)
(10.0895 0.053916 0)
(10.09 0.0537058 0)
(10.0898 0.0538614 0)
(10.0892 0.0545321 0)
(10.0885 0.0562039 0)
(10.0883 0.0586888 0)
(10.0899 0.0624667 0)
(10.0002 0.00907292 0)
(10.0078 0.0321215 0)
(10.0225 0.0419057 0)
(10.035 0.0456573 0)
(10.0448 0.049114 0)
(10.0542 0.0516471 0)
(10.063 0.0527824 0)
(10.0705 0.0531301 0)
(10.0767 0.0531654 0)
(10.0819 0.0530523 0)
(10.0864 0.052882 0)
(10.0901 0.0527619 0)
(10.0932 0.052802 0)
(10.0959 0.053144 0)
(10.0982 0.0539098 0)
(10.1007 0.0553376 0)
(10.1037 0.0572682 0)
(10.108 0.0595479 0)
(10.0003 0.00879911 0)
(10.0068 0.0275141 0)
(10.019 0.0370762 0)
(10.0303 0.0417309 0)
(10.0395 0.045648 0)
(10.0482 0.0484689 0)
(10.0566 0.0498748 0)
(10.0641 0.0504633 0)
(10.0706 0.0507202 0)
(10.0764 0.0508173 0)
(10.0815 0.0508412 0)
(10.0862 0.0508911 0)
(10.0904 0.0510675 0)
(10.0943 0.0514789 0)
(10.098 0.0522067 0)
(10.1019 0.0533411 0)
(10.1062 0.0547212 0)
(10.1115 0.0560284 0)
(10.0004 0.00783589 0)
(10.0057 0.0236906 0)
(10.016 0.0333614 0)
(10.0264 0.0385758 0)
(10.0351 0.0424667 0)
(10.0433 0.0452558 0)
(10.0512 0.0468049 0)
(10.0584 0.0475791 0)
(10.0649 0.0480031 0)
(10.0708 0.0482502 0)
(10.0762 0.0484072 0)
(10.0813 0.0485653 0)
(10.0859 0.048812 0)
(10.0904 0.0492253 0)
(10.0948 0.0498486 0)
(10.0993 0.0506892 0)
(10.1042 0.0515867 0)
(10.1098 0.0522341 0)
(10.0004 0.00694971 0)
(10.0049 0.020703 0)
(10.0136 0.0300266 0)
(10.023 0.0353882 0)
(10.0312 0.039168 0)
(10.0389 0.0419232 0)
(10.0464 0.0436076 0)
(10.0534 0.0445465 0)
(10.0598 0.0451044 0)
(10.0656 0.0454622 0)
(10.0711 0.0457114 0)
(10.0763 0.0459343 0)
(10.0811 0.046204 0)
(10.0859 0.0465737 0)
(10.0906 0.0470582 0)
(10.0954 0.0476234 0)
(10.1004 0.0481235 0)
(10.1059 0.0483198 0)
(10.0004 0.00616278 0)
(10.0042 0.0181172 0)
(10.0116 0.0267885 0)
(10.0199 0.0321245 0)
(10.0277 0.035828 0)
(10.035 0.0385519 0)
(10.0421 0.040329 0)
(10.0488 0.0413926 0)
(10.055 0.0420524 0)
(10.0608 0.0424908 0)
(10.0663 0.0428018 0)
(10.0714 0.0430577 0)
(10.0764 0.0433179 0)
(10.0813 0.0436171 0)
(10.0861 0.0439524 0)
(10.091 0.0442749 0)
(10.096 0.0444629 0)
(10.1013 0.0443516 0)
(10.0003 0.00542586 0)
(10.0036 0.0157942 0)
(10.0099 0.0237019 0)
(10.0173 0.0288943 0)
(10.0245 0.032506 0)
(10.0314 0.0351629 0)
(10.0381 0.0369735 0)
(10.0446 0.0381179 0)
(10.0506 0.0388508 0)
(10.0563 0.0393452 0)
(10.0617 0.0396934 0)
(10.0669 0.0399591 0)
(10.0719 0.0401892 0)
(10.0767 0.0404062 0)
(10.0816 0.0405988 0)
(10.0864 0.0407187 0)
(10.0913 0.0406717 0)
(10.0963 0.0403546 0)
(10.0003 0.0047733 0)
(10.0031 0.0138488 0)
(10.0086 0.0210273 0)
(10.0152 0.0259865 0)
(10.0219 0.0294706 0)
(10.0285 0.0320325 0)
(10.0349 0.0338289 0)
(10.041 0.0350099 0)
(10.0469 0.0357837 0)
(10.0525 0.0363076 0)
(10.0578 0.0366701 0)
(10.063 0.0369278 0)
(10.0679 0.0371186 0)
(10.0728 0.0372578 0)
(10.0775 0.0373325 0)
(10.0823 0.0373022 0)
(10.0871 0.0370969 0)
(10.0918 0.0366577 0)
(10.0003 0.00416675 0)
(10.0028 0.0120814 0)
(10.0075 0.0185126 0)
(10.0134 0.0231482 0)
(10.0197 0.0264621 0)
(10.0258 0.0289053 0)
(10.0319 0.0306535 0)
(10.0378 0.0318392 0)
(10.0435 0.0326309 0)
(10.049 0.0331665 0)
(10.0542 0.0335287 0)
(10.0593 0.0337679 0)
(10.0642 0.0339155 0)
(10.069 0.0339827 0)
(10.0737 0.0339583 0)
(10.0783 0.0338115 0)
(10.0829 0.0334926 0)
(10.0875 0.0329752 0)
(10.0003 0.00353481 0)
(10.0024 0.010243 0)
(10.0064 0.0158199 0)
(10.0117 0.0200008 0)
(10.0174 0.0230567 0)
(10.0232 0.0253226 0)
(10.0289 0.026971 0)
(10.0346 0.0281194 0)
(10.0401 0.028899 0)
(10.0454 0.0294236 0)
(10.0505 0.0297671 0)
(10.0555 0.0299736 0)
(10.0603 0.0300688 0)
(10.065 0.0300621 0)
(10.0696 0.0299462 0)
(10.0741 0.0297017 0)
(10.0785 0.0292976 0)
(10.0828 0.0287319 0)
(10.0002 0.00287588 0)
(10.002 0.00833237 0)
(10.0055 0.0129594 0)
(10.0101 0.0165506 0)
(10.0153 0.0192392 0)
(10.0206 0.0212504 0)
(10.026 0.0227329 0)
(10.0314 0.023787 0)
(10.0366 0.0245109 0)
(10.0418 0.0249924 0)
(10.0467 0.0252929 0)
(10.0516 0.02545 0)
(10.0562 0.025485 0)
(10.0608 0.0254068 0)
(10.0653 0.0252132 0)
(10.0696 0.0248957 0)
(10.0738 0.0244385 0)
(10.0778 0.0238558 0)
(10.0002 0.00219028 0)
(10.0017 0.00635046 0)
(10.0047 0.00993603 0)
(10.0088 0.0127992 0)
(10.0134 0.0149926 0)
(10.0183 0.0166513 0)
(10.0233 0.0178854 0)
(10.0284 0.0187731 0)
(10.0334 0.0193837 0)
(10.0383 0.0197798 0)
(10.0431 0.0200075 0)
(10.0478 0.0200969 0)
(10.0523 0.0200653 0)
(10.0567 0.0199217 0)
(10.061 0.0196686 0)
(10.0651 0.0193053 0)
(10.0691 0.0188269 0)
(10.0729 0.018256 0)
(10.0002 0.00147491 0)
(10.0015 0.00428076 0)
(10.0041 0.00672787 0)
(10.0077 0.00872313 0)
(10.0119 0.010281 0)
(10.0164 0.0114709 0)
(10.0211 0.0123594 0)
(10.0258 0.0129971 0)
(10.0306 0.0134272 0)
(10.0353 0.0136881 0)
(10.0399 0.0138099 0)
(10.0444 0.0138129 0)
(10.0487 0.0137101 0)
(10.053 0.0135095 0)
(10.0571 0.0132159 0)
(10.061 0.012833 0)
(10.0648 0.0123614 0)
(10.0684 0.0118261 0)
(10.0001 0.000712197 0)
(10.0013 0.00206754 0)
(10.0037 0.00325572 0)
(10.0069 0.00423474 0)
(10.0108 0.00500691 0)
(10.015 0.00559677 0)
(10.0194 0.0060292 0)
(10.0239 0.00632422 0)
(10.0285 0.00649955 0)
(10.033 0.00657102 0)
(10.0374 0.00655121 0)
(10.0417 0.00644907 0)
(10.0459 0.00627082 0)
(10.05 0.00602113 0)
(10.0539 0.00570384 0)
(10.0576 0.00532323 0)
(10.0612 0.0048813 0)
(10.0647 0.00440086 0)
(10.0001 -0.000144451 0)
(10.0013 -0.000420944 0)
(10.0035 -0.000668947 0)
(10.0066 -0.000876498 0)
(10.0104 -0.00104103 0)
(10.0145 -0.00117638 0)
(10.0188 -0.00130182 0)
(10.0232 -0.0014312 0)
(10.0276 -0.0015732 0)
(10.032 -0.00173503 0)
(10.0363 -0.00192317 0)
(10.0405 -0.00214259 0)
(10.0445 -0.00239647 0)
(10.0484 -0.0026865 0)
(10.0522 -0.0030131 0)
(10.0558 -0.00337507 0)
(10.0592 -0.00377223 0)
(10.0625 -0.00418757 0)
(10.0001 -0.00096792 0)
(10.0014 -0.00281968 0)
(10.0037 -0.00445818 0)
(10.0071 -0.00580188 0)
(10.011 -0.00684445 0)
(10.0153 -0.00764742 0)
(10.0197 -0.00827776 0)
(10.0242 -0.00878071 0)
(10.0287 -0.00919081 0)
(10.033 -0.00954006 0)
(10.0373 -0.00985496 0)
(10.0415 -0.0101541 0)
(10.0455 -0.0104499 0)
(10.0493 -0.0107509 0)
(10.053 -0.0110629 0)
(10.0565 -0.0113889 0)
(10.0599 -0.0117314 0)
(10.0631 -0.0120794 0)
(10.0002 -0.00168127 0)
(10.0015 -0.00492131 0)
(10.0042 -0.00777825 0)
(10.0079 -0.0100492 0)
(10.0123 -0.0117496 0)
(10.0168 -0.0130361 0)
(10.0215 -0.0140264 0)
(10.0261 -0.01478 0)
(10.0307 -0.0153511 0)
(10.0352 -0.0157985 0)
(10.0395 -0.0161692 0)
(10.0437 -0.0164935 0)
(10.0477 -0.0167908 0)
(10.0515 -0.0170751 0)
(10.0552 -0.017356 0)
(10.0587 -0.0176393 0)
(10.062 -0.0179293 0)
(10.0652 -0.0182183 0)
(10.0002 -0.00236263 0)
(10.0017 -0.00700828 0)
(10.0048 -0.0111115 0)
(10.0092 -0.0142145 0)
(10.0141 -0.0164113 0)
(10.019 -0.0180394 0)
(10.0239 -0.0192791 0)
(10.0288 -0.0201947 0)
(10.0336 -0.0208584 0)
(10.0382 -0.0213526 0)
(10.0427 -0.0217389 0)
(10.0469 -0.0220552 0)
(10.0509 -0.0223278 0)
(10.0548 -0.0225758 0)
(10.0584 -0.0228125 0)
(10.0619 -0.0230454 0)
(10.0652 -0.0232797 0)
(10.0683 -0.0235105 0)
(10.0002 -0.00299766 0)
(10.0018 -0.00911555 0)
(10.0056 -0.0144906 0)
(10.0108 -0.0183377 0)
(10.0163 -0.0209596 0)
(10.0217 -0.0228565 0)
(10.027 -0.024223 0)
(10.0321 -0.0251648 0)
(10.0371 -0.0258196 0)
(10.0419 -0.0262989 0)
(10.0464 -0.0266627 0)
(10.0507 -0.026946 0)
(10.0548 -0.0271775 0)
(10.0586 -0.0273799 0)
(10.0623 -0.0275679 0)
(10.0658 -0.02775 0)
(10.0691 -0.0279312 0)
(10.0722 -0.0281086 0)
(10.0001 -0.00357319 0)
(10.0019 -0.0115449 0)
(10.0064 -0.0179414 0)
(10.0127 -0.0220707 0)
(10.0189 -0.0250559 0)
(10.0247 -0.0273582 0)
(10.0304 -0.0289021 0)
(10.0359 -0.029817 0)
(10.0411 -0.0303797 0)
(10.046 -0.0307683 0)
(10.0506 -0.0310488 0)
(10.0549 -0.0312532 0)
(10.059 -0.031411 0)
(10.0629 -0.0315455 0)
(10.0666 -0.0316705 0)
(10.07 -0.0317928 0)
(10.0733 -0.0319159 0)
(10.0763 -0.0320358 0)
(9.99997 -0.0036925 0)
(10.0018 -0.0151873 0)
(10.0076 -0.022662 0)
(10.0148 -0.0259948 0)
(10.0214 -0.0285599 0)
(10.0277 -0.031024 0)
(10.034 -0.0328045 0)
(10.0399 -0.0338457 0)
(10.0454 -0.0344488 0)
(10.0505 -0.0348227 0)
(10.0552 -0.0350508 0)
(10.0596 -0.0351817 0)
(10.0637 -0.0352578 0)
(10.0675 -0.0353085 0)
(10.071 -0.0353502 0)
(10.0743 -0.0353913 0)
(10.0774 -0.0354353 0)
(10.0802 -0.0354798 0)
(9.99898 -0.00131118 0)
(9.99999 -0.0179796 0)
(10.0085 -0.0290784 0)
(10.0174 -0.0327054 0)
(10.0244 -0.0341308 0)
(10.0311 -0.0353583 0)
(10.0382 -0.0363065 0)
(10.0448 -0.0369502 0)
(10.0507 -0.0374021 0)
(10.0559 -0.0377023 0)
(10.0605 -0.0378656 0)
(10.0646 -0.0379278 0)
(10.0683 -0.0379302 0)
(10.0716 -0.0379022 0)
(10.0745 -0.0378621 0)
(10.077 -0.0378211 0)
(10.0793 -0.0377826 0)
(10.0812 -0.037746 0)
(9.99528 0.00386753 0)
(9.99333 -0.0103153 0)
(10.007 -0.0271089 0)
(10.0212 -0.0389334 0)
(10.0311 -0.0448729 0)
(10.0391 -0.0464806 0)
(10.0465 -0.0459983 0)
(10.0529 -0.0450425 0)
(10.058 -0.0441685 0)
(10.062 -0.0433972 0)
(10.0651 -0.0426854 0)
(10.0674 -0.04203 0)
(10.0689 -0.0414374 0)
(10.0698 -0.0409074 0)
(10.0702 -0.0404376 0)
(10.0702 -0.0400268 0)
(10.0698 -0.0396656 0)
(10.0691 -0.0393271 0)
(9.99144 -0.0172943 0)
(9.99188 0.000363084 0)
(10.01 0.0176615 0)
(10.0295 0.0115825 0)
(10.0441 -0.00511682 0)
(10.0541 -0.0188348 0)
(10.0599 -0.027183 0)
(10.0622 -0.0320619 0)
(10.0616 -0.0349454 0)
(10.059 -0.0365528 0)
(10.0548 -0.0373318 0)
(10.0494 -0.0376074 0)
(10.043 -0.0375926 0)
(10.036 -0.0374168 0)
(10.0284 -0.0371638 0)
(10.0204 -0.0368947 0)
(10.0123 -0.036665 0)
(10.0041 -0.0364435 0)
(10.0236 -0.206008 0)
(10.0684 -0.312341 0)
(10.0788 -0.255595 0)
(10.0704 -0.184181 0)
(10.0605 -0.134906 0)
(10.0498 -0.102732 0)
(10.0342 -0.081173 0)
(10.0129 -0.0666278 0)
(9.98773 -0.0566373 0)
(9.96048 -0.0494829 0)
(9.93225 -0.0441268 0)
(9.90373 -0.0399797 0)
(9.87541 -0.0366831 0)
(9.84764 -0.0340044 0)
(9.82064 -0.0317956 0)
(9.79455 -0.0299932 0)
(9.76959 -0.0285668 0)
(9.74579 -0.027833 0)
(9.94226 0.671595 0)
(9.87995 0.567454 0)
(9.77443 0.338465 0)
(9.63235 0.183317 0)
(9.4876 0.0949034 0)
(9.35646 0.0470801 0)
(9.24088 0.0212946 0)
(9.13935 0.00707253 0)
(9.05039 -0.000987482 0)
(8.97237 -0.00562929 0)
(8.90358 -0.00831902 0)
(8.84247 -0.00988177 0)
(8.7878 -0.0107878 0)
(8.73859 -0.0113058 0)
(8.69401 -0.0115968 0)
(8.65335 -0.0117853 0)
(8.61577 -0.0119651 0)
(8.58088 -0.0124973 0)
(0.0039799 -0.0095905 -3.54206e-20)
(0.013788 -0.0146552 3.50105e-20)
(0.0221738 -0.0125397 0)
(0.0273324 -0.0073538 0)
(0.0285084 -0.00140939 0)
(0.0256852 0.00390159 -3.28995e-20)
(0.0197302 0.00793518 0)
(0.011328 0.0106955 0)
(0.00106779 0.0124945 0)
(-0.0105841 0.0137021 0)
(-0.0233544 0.0145899 3.03176e-20)
(-0.0370901 0.0153169 0)
(-0.0516887 0.0159707 0)
(-0.0670945 0.0165939 0)
(-0.0832751 0.0172039 0)
(-0.100209 0.0178055 2.70683e-20)
(-0.117877 0.018398 0)
(-0.136264 0.0189791 0)
(-0.155353 0.0195466 0)
(-0.175128 0.0200999 0)
(-0.195572 0.0206394 0)
(-0.21667 0.0211652 0)
(-0.238407 0.0216736 0)
(-0.260762 0.0221536 2.30629e-20)
(-0.28371 0.0225858 -2.26762e-20)
(-0.307215 0.0229462 2.23144e-20)
(-0.331232 0.0232129 2.1977e-20)
(-0.355708 0.0233773 0)
(-0.380593 0.0234601 0)
(-0.40584 0.0235369 -2.11103e-20)
(-0.431438 0.0237661 -2.08694e-20)
(-0.457485 0.0244309 0)
(-0.484224 0.0259379 0)
(-0.511782 0.0282003 -2.02814e-20)
(-0.540018 0.0298597 0)
(-0.568982 0.0313346 0)
(-0.599015 0.0357162 1.98029e-20)
(-0.630791 0.0458463 0)
(-0.664752 0.0480315 2.13249e-20)
(-0.700548 0.0374416 4.21655e-20)
(-0.736145 0.0439061 0)
(-0.773809 0.0644564 0)
(-0.814636 0.0631843 0)
(-0.855224 0.0404608 0)
(-0.891659 0.0297904 0)
(-0.928071 0.0304828 4.05198e-20)
(-0.966423 0.0331542 4.00637e-20)
(-1.00648 0.0339444 3.96129e-20)
(-1.04715 0.0344164 0)
(-1.0883 0.0346011 -3.87404e-20)
(-1.12972 0.0346123 0)
(-1.17128 0.0345095 3.7914e-20)
(-1.21289 0.0343295 3.75182e-20)
(-1.25448 0.0340951 0)
(-1.29602 0.0338204 0)
(-1.33745 0.0335144 0)
(-1.37874 0.0331828 3.60395e-20)
(-1.41987 0.032829 0)
(-1.4608 0.0324549 0)
(-1.5015 0.0320617 0)
(-1.54196 0.0316498 0)
(-1.58213 0.0312192 0)
(-1.622 0.0307697 0)
(-1.66153 0.0303009 0)
(-1.70069 0.0298124 0)
(-1.73945 0.0293039 -3.31401e-20)
(-1.77777 0.0287748 0)
(-1.81563 0.028225 0)
(-1.85298 0.0276543 3.22421e-20)
(-1.88979 0.0270626 3.1945e-20)
(-1.92602 0.0264499 0)
(-1.96164 0.0258165 -3.13505e-20)
(-1.99661 0.0251626 3.1052e-20)
(-2.03089 0.0244885 0)
(-2.06445 0.0237949 -3.04496e-20)
(-2.09723 0.0230822 0)
(-2.12922 0.0223512 0)
(-2.16037 0.0216025 2.95242e-20)
(-2.19063 0.020837 0)
(-2.21999 0.0200555 -2.88866e-20)
(-2.24839 0.0192587 0)
(-2.27581 0.0184474 2.82276e-20)
(-2.30221 0.0176223 2.78889e-20)
(-2.32756 0.0167839 2.75434e-20)
(-2.35182 0.0159328 5.43815e-20)
(-2.37495 0.0150692 -5.36608e-20)
(-2.39693 0.0141927 0)
(-2.41772 0.013303 0)
(-2.43729 0.0123988 0)
(-2.45561 0.0114783 -5.06095e-20)
(-2.47263 0.0105387 -4.98008e-20)
(-2.48833 0.009576 4.89724e-20)
(-2.50265 0.00858569 0)
(-2.51557 0.00756232 -4.72545e-20)
(-2.52701 0.00649925 -4.63641e-20)
(-2.53691 0.00539008 -4.54522e-20)
(-2.54522 0.00423441 0)
(-2.55184 0.00304968 0)
(-2.55666 0.00187945 0)
(-2.55955 0.000779444 -4.15863e-20)
(-2.56066 -0.000198452 0)
(-2.56038 -0.0010496 0)
(-2.5586 -0.00186946 3.84157e-20)
(-2.55537 -0.00267496 0)
(-2.55067 -0.00347385 0)
(-2.54449 -0.00426748 3.50107e-20)
(-2.53683 -0.00505591 0)
(-2.52767 -0.00583857 0)
(-2.51701 -0.00661465 -3.13673e-20)
(-2.50484 -0.00738333 -3.01e-20)
(-2.49115 -0.00814373 0)
(-2.47595 -0.008895 2.7487e-20)
(-2.45924 -0.00963631 0)
(-2.44101 -0.0103668 -2.47715e-20)
(-2.42127 -0.0110858 0)
(-2.40002 -0.0117923 -2.19565e-20)
(-2.37728 -0.0124858 -2.05128e-20)
(-2.35305 -0.0131653 0)
(-2.32734 -0.0138302 0)
(-2.30017 -0.0144798 0)
(-2.27155 -0.0151134 0)
(-2.2415 -0.0157304 0)
(-2.21004 -0.0163301 0)
(-2.17719 -0.0169121 0)
(-2.14297 -0.0174757 -8.18384e-21)
(-2.10741 -0.0180205 6.5576e-21)
(-2.07053 -0.0185461 0)
(-2.03236 -0.0190518 0)
(-1.99293 -0.0195373 0)
(-1.95227 -0.0200022 0)
(-1.91041 -0.0204462 -3.57364e-21)
(-1.86739 -0.0208688 0)
(-1.82323 -0.0212701 1.04043e-20)
(-1.77799 -0.0216496 -1.38428e-20)
(-1.73169 -0.0220073 0)
(-1.68438 -0.022343 0)
(-1.63608 -0.0226565 0)
(-1.58686 -0.0229479 2.76892e-20)
(-1.53673 -0.0232172 3.11601e-20)
(-1.48576 -0.0234645 0)
(-1.43397 -0.0236899 3.80939e-20)
(-1.38142 -0.0238936 4.1551e-20)
(-1.32814 -0.0240758 -4.49979e-20)
(-1.27418 -0.0242367 0)
(-1.21958 -0.0243769 0)
(-1.16438 -0.0244967 -5.52497e-20)
(-1.10863 -0.0245965 0)
(-1.05237 -0.0246768 0)
(-0.995646 -0.0247384 0)
(-0.938488 -0.0247818 0)
(-0.88094 -0.0248077 7.18785e-20)
(-0.823041 -0.024817 7.51127e-20)
(-0.764828 -0.0248103 0)
(-0.706335 -0.0247888 8.14705e-20)
(-0.647597 -0.024753 0)
(-0.588646 -0.0247041 0)
(-0.529512 -0.024643 9.06988e-20)
(-0.470223 -0.0245704 0)
(-0.410807 -0.0244869 9.66225e-20)
(-0.351288 -0.0243928 0)
(-0.291694 -0.0242882 0)
(-0.232049 -0.0241707 1.05131e-19)
(-0.172382 -0.0240333 0)
(-0.112724 -0.0238719 1.10534e-19)
(-0.0530982 -0.0236806 0)
(0.00646519 -0.023412 0)
(0.0658238 -0.0230402 0)
(0.125075 -0.0226571 -1.17385e-19)
(0.184217 -0.0222976 0)
(0.243259 -0.0219565 1.18913e-19)
(0.302211 -0.0216232 0)
(0.361057 -0.021287 0)
(0.419754 -0.0209333 0)
(0.478195 -0.0205385 0)
(0.536204 -0.020057 0)
(0.593277 -0.0193966 0)
(0.648997 -0.0183114 0)
(0.699289 -0.016172 -2.45253e-19)
(0.748196 -0.0113649 0)
(0.750593 0.00625194 0)
(0.00381006 -0.0277497 1.05294e-19)
(0.00822925 -0.0271956 -1.01293e-19)
(0.00790135 -0.0166234 0)
(0.00512402 -0.0051766 6.14726e-20)
(0.000302059 0.00563594 0)
(-0.00633896 0.0150902 2.89698e-20)
(-0.0147911 0.0228628 -5.65187e-20)
(-0.0249633 0.0289851 -5.52219e-20)
(-0.0367438 0.0337132 0)
(-0.0499833 0.0373967 -5.27235e-20)
(-0.0645196 0.0403654 -2.5761e-20)
(-0.0802047 0.0428655 0)
(-0.0969211 0.0450615 0)
(-0.114582 0.0470554 0)
(-0.133128 0.048907 0)
(-0.152517 0.050649 -2.29232e-20)
(-0.172725 0.0522992 0)
(-0.193735 0.0538672 4.384e-20)
(-0.21554 0.0553594 0)
(-0.23814 0.0567808 0)
(-0.261538 0.0581358 -4.12422e-20)
(-0.285741 0.0594272 0)
(-0.310762 0.0606547 3.97542e-20)
(-0.336617 0.0618137 -1.95633e-20)
(-0.363327 0.062897 1.9253e-20)
(-0.390924 0.063898 -1.89672e-20)
(-0.419453 0.0648164 -1.87061e-20)
(-0.448975 0.0656633 0)
(-0.479569 0.066467 0)
(-0.51133 0.0672754 1.80775e-20)
(-0.544367 0.0681481 -1.78632e-20)
(-0.578759 0.069139 0)
(-0.614456 0.070288 0)
(-0.651389 0.0715527 1.76457e-20)
(-0.689744 0.072669 0)
(-0.729724 0.0735692 0)
(-0.770702 0.0748056 -1.74424e-20)
(-0.811416 0.0764275 0)
(-0.852233 0.078857 1.7202e-20)
(-0.893771 0.080773 -3.41332e-20)
(-0.935608 0.0809905 0)
(-0.975578 0.0817929 0)
(-1.01498 0.0839205 -6.60826e-20)
(-1.05573 0.0854769 -6.56356e-20)
(-1.09846 0.0864462 -6.49948e-20)
(-1.14057 0.0875504 3.20351e-20)
(-1.18118 0.088454 -3.182e-20)
(-1.22065 0.0887362 -9.42071e-20)
(-1.2595 0.0885885 6.20488e-20)
(-1.29792 0.0881553 3.07569e-20)
(-1.33598 0.0875205 0)
(-1.37373 0.0867432 -3.01033e-20)
(-1.41117 0.0858624 2.9644e-20)
(-1.4483 0.0849039 0)
(-1.48513 0.0838847 0)
(-1.52165 0.0828157 0)
(-1.55783 0.0817039 -2.86231e-20)
(-1.59367 0.0805532 0)
(-1.62915 0.0793657 5.60104e-20)
(-1.66426 0.0781423 0)
(-1.69897 0.076883 5.49647e-20)
(-1.73326 0.0755873 0)
(-1.76712 0.0742543 -5.39522e-20)
(-1.80052 0.0728833 0)
(-1.83343 0.0714734 5.29645e-20)
(-1.86584 0.0700237 -2.61675e-20)
(-1.89771 0.0685338 0)
(-1.92902 0.0670031 -5.15121e-20)
(-1.95974 0.0654316 -2.55842e-20)
(-1.98984 0.0638193 -2.5343e-20)
(-2.0193 0.0621666 0)
(-2.04809 0.060474 -2.47305e-20)
(-2.07618 0.0587424 -2.46153e-20)
(-2.10353 0.0569728 0)
(-2.13013 0.0551665 2.41222e-20)
(-2.15594 0.0533248 -4.76295e-20)
(-2.18093 0.0514493 0)
(-2.20507 0.0495419 -2.33622e-20)
(-2.22834 0.0476042 0)
(-2.25071 0.0456381 6.84149e-20)
(-2.27214 0.0436455 0)
(-2.29263 0.0416284 -6.67956e-20)
(-2.31212 0.0395886 -2.2015e-20)
(-2.33061 0.0375279 2.16539e-20)
(-2.34806 0.0354479 4.27376e-20)
(-2.36445 0.03335 -4.21554e-20)
(-2.37975 0.0312355 0)
(-2.39394 0.0291052 0)
(-2.40699 0.0269596 0)
(-2.41888 0.0247988 1.19241e-19)
(-2.42959 0.0226221 3.91086e-20)
(-2.43909 0.0204283 -3.84283e-20)
(-2.44737 0.0182154 0)
(-2.4544 0.0159812 -3.69974e-20)
(-2.46019 0.0137226 3.62902e-20)
(-2.46472 0.0114352 3.55438e-20)
(-2.46802 0.00911569 0)
(-2.47014 0.00677331 0)
(-2.47117 0.00444906 0)
(-2.47121 0.00220682 3.23749e-20)
(-2.4702 6.79996e-05 0)
(-2.46781 -0.00197528 -6.14253e-20)
(-2.46403 -0.00397978 -8.94678e-20)
(-2.45884 -0.00595892 5.78988e-20)
(-2.45221 -0.00791958 0)
(-2.44412 -0.00986226 2.71897e-20)
(-2.43456 -0.0117858 0)
(-2.42353 -0.0136881 5.04102e-20)
(-2.41101 -0.0155669 -2.43242e-20)
(-2.397 -0.0174199 -2.33332e-20)
(-2.38149 -0.0192449 0)
(-2.36449 -0.0210396 -6.34022e-20)
(-2.34599 -0.0228019 4.02497e-20)
(-2.32599 -0.0245298 1.89189e-20)
(-2.3045 -0.0262212 0)
(-2.28152 -0.0278743 1.6722e-20)
(-2.25707 -0.0294872 4.7124e-20)
(-2.23114 -0.0310583 0)
(-2.20376 -0.0325857 2.69794e-20)
(-2.17493 -0.034068 2.4666e-20)
(-2.14467 -0.0355035 2.23265e-20)
(-2.113 -0.0368909 0)
(-2.07994 -0.038229 0)
(-2.0455 -0.0395165 0)
(-2.00971 -0.0407524 -6.58051e-21)
(-1.97259 -0.0419358 -4.92543e-21)
(-1.93418 -0.0430659 0)
(-1.89449 -0.0441417 -5.33963e-21)
(-1.85355 -0.0451626 -2.84409e-21)
(-1.8114 -0.0461279 0)
(-1.76807 -0.0470372 2.6663e-21)
(-1.72359 -0.0478901 9.41767e-21)
(-1.678 -0.0486864 -7.74259e-21)
(-1.63133 -0.049426 -9.27438e-21)
(-1.58362 -0.0501092 0)
(-1.53491 -0.0507359 0)
(-1.48523 -0.0513062 0)
(-1.43464 -0.0518206 -2.04786e-20)
(-1.38316 -0.0522796 2.19512e-20)
(-1.33084 -0.0526839 5.00286e-20)
(-1.27772 -0.0530344 -2.8076e-20)
(-1.22385 -0.0533318 2.9504e-20)
(-1.16926 -0.0535772 3.30914e-20)
(-1.114 -0.0537716 0)
(-1.05812 -0.0539165 0)
(-1.00165 -0.0540134 -3.94082e-20)
(-0.944639 -0.0540636 0)
(-0.887125 -0.0540689 0)
(-0.829152 -0.0540311 9.4392e-20)
(-0.770758 -0.0539521 0)
(-0.711983 -0.053834 5.13636e-20)
(-0.652865 -0.0536788 -5.47631e-20)
(-0.593441 -0.0534888 0)
(-0.533744 -0.0532664 5.82331e-20)
(-0.473809 -0.0530139 0)
(-0.413666 -0.0527335 0)
(-0.353347 -0.0524277 -6.58758e-20)
(-0.292877 -0.0520985 1.34958e-19)
(-0.232285 -0.0517475 -7.00854e-20)
(-0.171593 -0.0513757 0)
(-0.110826 -0.0509822 0)
(-0.050006 -0.0505653 7.51187e-20)
(0.0108437 -0.0501214 0)
(0.0716989 -0.0496478 7.80476e-20)
(0.132542 -0.0491509 0)
(0.193358 -0.0486314 0)
(0.254127 -0.0480766 0)
(0.314879 -0.0475108 8.3023e-20)
(0.375604 -0.0469595 0)
(0.436294 -0.046422 -8.47826e-20)
(0.496939 -0.0458855 0)
(0.557512 -0.0453305 0)
(0.617958 -0.0447264 1.73274e-19)
(0.678168 -0.0440213 -1.74605e-19)
(0.737955 -0.0431151 0)
(0.796885 -0.0418136 0)
(0.854509 -0.0396174 0)
(0.908291 -0.0355742 5.39147e-19)
(0.960801 -0.0264521 0)
(0.991418 -0.00432908 -3.66849e-19)
(0.00113068 -0.0336017 -4.13178e-23)
(-0.00171084 -0.0221606 1.31372e-19)
(-0.00771234 -0.00622836 0)
(-0.0149012 0.00855822 -1.13479e-19)
(-0.0233398 0.0219367 0)
(-0.0328665 0.0337885 0)
(-0.0434583 0.0440361 1.1493e-23)
(-0.0551674 0.0527009 4.90932e-20)
(-0.0680434 0.0599303 4.78807e-20)
(-0.0820932 0.0659605 4.67641e-20)
(-0.097281 0.0710546 0)
(-0.113547 0.075453 0)
(-0.130827 0.0793494 -4.36164e-20)
(-0.149064 0.0828877 -8.52861e-20)
(-0.168211 0.0861682 8.34156e-20)
(-0.188237 0.089259 0)
(-0.20912 0.0922057 7.99157e-20)
(-0.230851 0.0950398 -3.91594e-20)
(-0.253428 0.0977848 0)
(-0.276857 0.100459 7.52895e-20)
(-0.301149 0.103079 3.69724e-20)
(-0.326318 0.105657 -7.26217e-20)
(-0.352386 0.108203 -3.57207e-20)
(-0.379375 0.110726 0)
(-0.407314 0.113232 6.92237e-20)
(-0.436234 0.115734 6.82446e-20)
(-0.466171 0.118251 0)
(-0.497158 0.120815 6.65007e-20)
(-0.52922 0.123468 0)
(-0.562363 0.126262 6.50163e-20)
(-0.596568 0.129239 3.21982e-20)
(-0.631767 0.132418 0)
(-0.667803 0.135759 0)
(-0.70447 0.139109 0)
(-0.741652 0.142228 0)
(-0.779203 0.144943 0)
(-0.816779 0.147272 0)
(-0.853948 0.149203 5.997e-20)
(-0.890642 0.150245 -8.88145e-20)
(-0.927288 0.150547 0)
(-0.963883 0.151034 0)
(-0.999469 0.15143 0)
(-1.0341 0.15041 -2.76104e-23)
(-1.06896 0.148029 5.56774e-20)
(-1.10451 0.145808 1.09974e-19)
(-1.14001 0.144207 -1.08576e-19)
(-1.17496 0.142887 -5.35621e-20)
(-1.20936 0.141559 5.29628e-20)
(-1.24336 0.140164 -7.61727e-23)
(-1.27704 0.13868 5.16006e-20)
(-1.31046 0.137105 0)
(-1.34363 0.135451 5.0384e-20)
(-1.37658 0.133727 -8.4322e-23)
(-1.40932 0.131944 0)
(-1.44184 0.130106 0)
(-1.47413 0.12822 -4.8139e-20)
(-1.50619 0.126287 0)
(-1.538 0.124308 0)
(-1.56956 0.122282 4.6497e-20)
(-1.60083 0.12021 9.21895e-20)
(-1.6318 0.118088 -4.57027e-20)
(-1.66246 0.115916 0)
(-1.69278 0.11369 4.47529e-20)
(-1.72273 0.111411 0)
(-1.7523 0.109075 4.36374e-20)
(-1.78145 0.106682 4.33711e-20)
(-1.81017 0.104231 -8.56501e-20)
(-1.83842 0.101721 -4.22838e-20)
(-1.86618 0.0991514 0)
(-1.89341 0.0965234 8.29699e-20)
(-1.92009 0.0938371 0)
(-1.9462 0.0910935 1.21876e-19)
(-1.97169 0.0882938 8.03032e-20)
(-1.99655 0.0854398 7.94105e-20)
(-2.02073 0.0825332 -7.85138e-20)
(-2.04422 0.0795764 1.16495e-19)
(-2.06698 0.0765717 0)
(-2.08898 0.0735216 0)
(-2.11019 0.0704289 -7.48594e-20)
(-2.13059 0.0672965 -1.10949e-19)
(-2.15013 0.0641272 0)
(-2.16881 0.060924 3.60648e-20)
(-2.18658 0.0576896 0)
(-2.20342 0.054427 -1.05124e-19)
(-2.2193 0.0511386 -9.23332e-23)
(-2.2342 0.0478271 8.3804e-23)
(-2.2481 0.0444947 6.69813e-20)
(-2.26096 0.0411433 0)
(-2.27276 0.0377749 -6.48444e-20)
(-2.28348 0.034391 -4.70151e-23)
(-2.29311 0.0309931 0)
(-2.30161 0.0275829 0)
(-2.30898 0.0241626 0)
(-2.3152 0.0207351 5.91436e-20)
(-2.32027 0.0173058 0)
(-2.32417 0.0138829 0)
(-2.32691 0.0104791 0)
(-2.32849 0.00711148 0)
(-2.32889 0.00379935 0)
(-2.3281 0.00055364 5.14833e-20)
(-2.32604 -0.00265408 0)
(-2.32264 -0.00585208 4.86243e-20)
(-2.31788 -0.00903234 4.71874e-20)
(-2.31174 -0.0121912 -4.57252e-20)
(-2.3042 -0.0153254 0)
(-2.29526 -0.0184311 -4.27248e-20)
(-2.28489 -0.0215047 0)
(-2.27308 -0.0245422 -3.96244e-20)
(-2.25983 -0.0275397 3.80372e-20)
(-2.24513 -0.0304932 1.09631e-19)
(-2.22898 -0.0333992 0)
(-2.21138 -0.036254 9.97986e-20)
(-2.19232 -0.0390542 3.1874e-20)
(-2.1718 -0.0417964 0)
(-2.14984 -0.0444776 5.65191e-20)
(-2.12643 -0.0470948 5.30526e-20)
(-2.10158 -0.049645 -7.40658e-20)
(-2.07531 -0.0521255 0)
(-2.04761 -0.0545336 -2.09368e-20)
(-2.01851 -0.0568668 -1.91196e-20)
(-1.98802 -0.0591227 -5.24466e-20)
(-1.95616 -0.0612992 0)
(-1.92294 -0.0633942 0)
(-1.88838 -0.0654059 0)
(-1.85251 -0.0673328 -1.04744e-20)
(-1.81535 -0.0691734 0)
(-1.77692 -0.0709265 0)
(-1.73725 -0.0725908 4.10218e-21)
(-1.69637 -0.0741654 2.18262e-21)
(-1.65431 -0.0756492 0)
(-1.6111 -0.0770416 0)
(-1.56676 -0.0783422 -7.20444e-21)
(-1.52135 -0.0795508 0)
(-1.47489 -0.0806674 1.49346e-20)
(-1.42741 -0.0816924 1.8011e-20)
(-1.37896 -0.0826259 0)
(-1.32956 -0.0834684 0)
(-1.27928 -0.0842207 -2.95303e-20)
(-1.22813 -0.0848836 -8.14905e-22)
(-1.17616 -0.0854585 -8.20175e-22)
(-1.12342 -0.0859468 0)
(-1.06994 -0.0863501 -9.0226e-20)
(-1.01576 -0.0866701 0)
(-0.960935 -0.0869086 0)
(-0.905496 -0.0870682 0)
(-0.849488 -0.0871512 6.03351e-20)
(-0.79295 -0.0871602 0)
(-0.735924 -0.0870979 -1.33429e-19)
(-0.67845 -0.0869673 -7.11001e-20)
(-0.620565 -0.0867719 0)
(-0.56231 -0.0865148 -7.8082e-20)
(-0.503719 -0.0861995 0)
(-0.44483 -0.0858298 0)
(-0.385674 -0.0854095 -2.63039e-19)
(-0.326286 -0.0849422 1.81396e-19)
(-0.266695 -0.0844319 0)
(-0.20693 -0.0838824 1.94253e-19)
(-0.147017 -0.0832967 -1.01055e-19)
(-0.0869815 -0.0826779 0)
(-0.0268465 -0.0820284 0)
(0.0333669 -0.0813501 0)
(0.093638 -0.0806426 -3.3365e-19)
(0.153949 -0.0799045 0)
(0.214284 -0.0791362 -1.15593e-19)
(0.274634 -0.0783436 0)
(0.335 -0.0775396 0)
(0.395403 -0.0767348 0)
(0.455841 -0.0759355 0)
(0.516298 -0.075148 0)
(0.576756 -0.0743679 0)
(0.637194 -0.0735786 -2.53149e-19)
(0.697581 -0.0727521 0)
(0.757859 -0.0718417 -1.29944e-19)
(0.81792 -0.070767 3.92396e-19)
(0.877592 -0.0693798 0)
(0.936512 -0.0673978 0)
(0.994339 -0.0642069 -2.68337e-19)
(1.04938 -0.0586365 -2.71874e-19)
(1.10428 -0.0477591 2.73874e-19)
(1.14703 -0.0253107 2.7867e-19)
(-0.00256807 -0.0262733 -2.07782e-19)
(-0.010377 -0.00720683 -1.92433e-19)
(-0.0198594 0.0116895 -1.15828e-19)
(-0.0301253 0.0283302 -5.33364e-20)
(-0.0412161 0.0432663 0)
(-0.0529445 0.0566451 9.61633e-20)
(-0.0653258 0.0685085 -4.63966e-20)
(-0.0784527 0.0789075 0)
(-0.0924158 0.0879513 -4.38652e-20)
(-0.107277 0.0958081 0)
(-0.123065 0.102678 8.35803e-20)
(-0.13978 0.108763 0)
(-0.157407 0.114243 3.99432e-20)
(-0.175924 0.119266 7.81539e-20)
(-0.195308 0.123949 -7.64957e-20)
(-0.215541 0.128376 0)
(-0.23661 0.132613 -7.34007e-20)
(-0.25851 0.136706 0)
(-0.281237 0.140691 0)
(-0.304795 0.144598 -6.93039e-20)
(-0.329188 0.148448 0)
(-0.354422 0.15226 4.881e-24)
(-0.380502 0.156045 0)
(-0.407432 0.159813 0)
(-0.43521 0.163569 -4.48652e-24)
(-0.463833 0.167317 -6.28972e-20)
(-0.493282 0.171057 -6.20188e-20)
(-0.523529 0.174792 -6.1192e-20)
(-0.55452 0.178517 0)
(-0.586177 0.182221 -1.19261e-19)
(-0.618389 0.185872 0)
(-0.651017 0.189414 -5.81627e-20)
(-0.683891 0.19275 0)
(-0.716838 0.195736 0)
(-0.749727 0.198202 5.60042e-20)
(-0.782471 0.200043 0)
(-0.814987 0.201266 -5.44948e-20)
(-0.847209 0.201954 1.65334e-24)
(-0.87914 0.202117 1.05901e-19)
(-0.910827 0.201798 -1.0439e-19)
(-0.942238 0.201208 0)
(-0.973262 0.200324 0)
(-1.00395 0.198809 -5.00235e-20)
(-1.03459 0.196654 0)
(-1.06533 0.194319 -4.86474e-20)
(-1.09607 0.192071 4.79803e-20)
(-1.12666 0.18991 4.73296e-20)
(-1.15707 0.18777 0)
(-1.18731 0.185616 -4.60841e-20)
(-1.21739 0.183428 -4.54883e-20)
(-1.24733 0.181194 8.97585e-20)
(-1.27713 0.178909 -4.43468e-20)
(-1.30681 0.176572 -4.37994e-20)
(-1.33635 0.174183 0)
(-1.36575 0.171741 0)