# vtk DataFile Version 2.0
track0
ASCII
DATASET POLYDATA
POINTS 12075 float
-0.0205 0.001 1e-05
-0.02052 0.000999985 1e-05
-0.02054 0.000999974 1e-05
-0.02056 0.000999965 1e-05
-0.02058 0.000999959 1e-05
-0.0206 0.000999956 1e-05
-0.0205 0.00367778 1e-05
-0.02052 0.00367778 1e-05
-0.02054 0.00367777 1e-05
-0.02056 0.00367777 1e-05
-0.02058 0.00367777 1e-05
-0.0206 0.00367777 1e-05
-0.0205 0.00635556 1e-05
-0.02052 0.00635555 1e-05
-0.02054 0.00635555 1e-05
-0.02056 0.00635555 1e-05
-0.02058 0.00635555 1e-05
-0.0206 0.00635555 1e-05
-0.0205 0.00903333 1e-05
-0.02052 0.00903333 1e-05
-0.02054 0.00903333 1e-05
-0.02056 0.00903333 1e-05
-0.02058 0.00903333 1e-05
-0.0206 0.00903333 1e-05
-0.0205 0.0117111 1e-05
-0.02052 0.0117111 1e-05
-0.02054 0.0117111 1e-05
-0.02056 0.0117111 1e-05
-0.02058 0.0117111 1e-05
-0.0206 0.0117111 1e-05
-0.0205 0.0143889 1e-05
-0.02052 0.0143889 1e-05
-0.02054 0.0143889 1e-05
-0.02056 0.0143889 1e-05
-0.02058 0.0143889 1e-05
-0.0206 0.0143889 1e-05
-0.0205 0.0170667 1e-05
-0.02052 0.0170667 1e-05
-0.02054 0.0170667 1e-05
-0.02056 0.0170667 1e-05
-0.02058 0.0170667 1e-05
-0.0206 0.0170667 1e-05
-0.0205 0.0197444 1e-05
-0.02052 0.0197444 1e-05
-0.02054 0.0197444 1e-05
-0.02056 0.0197444 1e-05
-0.02058 0.0197444 1e-05
-0.0206 0.0197444 1e-05
-0.0205 0.0224222 1e-05
-0.02052 0.0224222 1e-05
-0.02054 0.0224222 1e-05
-0.02056 0.0224222 1e-05
-0.02058 0.0224222 1e-05
-0.0206 0.0224222 1e-05
-0.0205 0.0251 1e-05
-0.02052 0.0250998 1e-05
-0.02054 0.0250997 1e-05
-0.02056 0.0250995 1e-05
-0.02058 0.0250995 1e-05
-0.0206 0.0250994 1e-05
-0.0205 0.001 1e-05
-0.0202034 0.00100022 1e-05
-0.0199069 0.00100067 1e-05
-0.0196103 0.00100132 1e-05
-0.0193137 0.00100219 1e-05
-0.0190172 0.00100326 1e-05
-0.0187132 0.00100466 1e-05
-0.0184093 0.00100588 1e-05
-0.0181054 0.0010071 1e-05
-0.0178015 0.00100832 1e-05
-0.0174976 0.00100953 1e-05
-0.0172058 0.00101083 1e-05
-0.016914 0.00101193 1e-05
-0.0166222 0.00101303 1e-05
-0.0163305 0.00101413 1e-05
-0.0160387 0.00101523 1e-05
-0.0157586 0.00101636 1e-05
-0.0154784 0.00101745 1e-05
-0.0151983 0.00101856 1e-05
-0.0149182 0.00101972 1e-05
-0.0146381 0.0010209 1e-05
-0.0143747 0.00102209 1e-05
-0.0141113 0.00102327 1e-05
-0.0138479 0.00102449 1e-05
-0.0135845 0.00102574 1e-05
-0.0133621 0.00102682 1e-05
-0.0133484 0.00102689 1e-05
-0.0133346 0.00102695 1e-05
-0.0133209 0.00102702 1e-05
-0.0133072 0.00102709 1e-05
-0.0132934 0.00102716 1e-05
-0.0130353 0.00102845 1e-05
-0.0127771 0.00102975 1e-05
-0.0125189 0.00103107 1e-05
-0.0122607 0.0010324 1e-05
-0.0120025 0.00103376 1e-05
-0.0117547 0.00103506 1e-05
-0.0115068 0.00103638 1e-05
-0.0112589 0.0010377 1e-05
-0.0110111 0.00103903 1e-05
-0.0107632 0.00104036 1e-05
-0.0105252 0.00104163 1e-05
-0.0102873 0.00104291 1e-05
-0.0100493 0.00104419 1e-05
-0.00981133 0.00104547 1e-05
-0.00957337 0.00104675 1e-05
-0.00934491 0.00104797 1e-05
-0.00911645 0.00104919 1e-05
-0.00888799 0.00105041 1e-05
-0.00865954 0.00105163 1e-05
-0.00843108 0.00105285 1e-05
-0.00821175 0.001054 1e-05
-0.00799242 0.00105516 1e-05
-0.00777309 0.00105632 1e-05
-0.00755376 0.00105747 1e-05
-0.00733443 0.00105861 1e-05
-0.00712387 0.0010597 1e-05
-0.0069133 0.0010608 1e-05
-0.00670273 0.00106188 1e-05
-0.00649216 0.00106297 1e-05
-0.0062816 0.00106405 1e-05
-0.00607944 0.00106507 1e-05
-0.00587729 0.0010661 1e-05
-0.00567514 0.00106713 1e-05
-0.00547298 0.00106815 1e-05
-0.00527083 0.00106916 1e-05
-0.00507675 0.00107013 1e-05
-0.00488267 0.00107109 1e-05
-0.0046886 0.00107206 1e-05
-0.00449452 0.00107302 1e-05
-0.00430044 0.00107397 1e-05
-0.00411412 0.00107488 1e-05
-0.0039278 0.00107579 1e-05
-0.00374147 0.0010767 1e-05
-0.00355515 0.00107761 1e-05
-0.00336883 0.00107851 1e-05
-0.00318995 0.00107937 1e-05
-0.00301107 0.00108023 1e-05
-0.00283219 0.00108109 1e-05
-0.00265331 0.00108194 1e-05
-0.00247443 0.0010828 1e-05
-0.0023027 0.00108361 1e-05
-0.00213097 0.00108443 1e-05
-0.00195924 0.00108525 1e-05
-0.0017875 0.00108607 1e-05
-0.00161577 0.00108688 1e-05
-0.0014509 0.00108766 1e-05
-0.00128603 0.00108844 1e-05
-0.00112116 0.00108923 1e-05
-0.000956289 0.00109002 1e-05
-0.000791418 0.00109081 1e-05
-0.000633135 0.00109156 1e-05
-0.000474851 0.00109233 1e-05
-0.000316567 0.00109309 1e-05
-0.000158284 0.00109386 1e-05
0 0.00109462 1e-05
0.000105677 0.00109513 1e-05
0.000211355 0.00109564 1e-05
0.000317032 0.00109615 1e-05
0.00042271 0.00109666 1e-05
0.000528387 0.00109716 1e-05
0.000634886 0.00109767 1e-05
0.000741385 0.00109817 1e-05
0.000847885 0.00109866 1e-05
0.000954384 0.00109916 1e-05
0.00106088 0.00109965 1e-05
0.00116821 0.00110013 1e-05
0.00127554 0.00110062 1e-05
0.00138286 0.00110109 1e-05
0.00149019 0.00110156 1e-05
0.00159752 0.00110203 1e-05
0.00170568 0.00110248 1e-05
0.00181384 0.00110294 1e-05
0.001922 0.00110338 1e-05
0.00203016 0.00110382 1e-05
0.00213833 0.00110424 1e-05
0.00224733 0.00110466 1e-05
0.00235633 0.00110507 1e-05
0.00246533 0.00110548 1e-05
0.00257434 0.00110587 1e-05
0.00268334 0.00110626 1e-05
0.00279319 0.00110663 1e-05
0.00290304 0.00110701 1e-05
0.00301289 0.00110737 1e-05
0.00312274 0.00110773 1e-05
0.00323259 0.00110808 1e-05
0.00334329 0.00110841 1e-05
0.003454 0.00110875 1e-05
0.0035647 0.00110908 1e-05
0.0036754 0.0011094 1e-05
0.00378611 0.00110971 1e-05
0.00389767 0.00111001 1e-05
0.00400924 0.00111031 1e-05
0.0041208 0.0011106 1e-05
0.00423237 0.00111088 1e-05
0.00434393 0.00111116 1e-05
0.00445636 0.00111142 1e-05
0.00456879 0.00111168 1e-05
0.00468123 0.00111193 1e-05
0.00479366 0.00111218 1e-05
0.00490609 0.00111241 1e-05
0.0050194 0.00111264 1e-05
0.0051327 0.00111286 1e-05
0.00524601 0.00111308 1e-05
0.00535932 0.00111328 1e-05
0.00547262 0.00111348 1e-05
0.00558681 0.00111367 1e-05
0.005701 0.00111386 1e-05
0.00581518 0.00111403 1e-05
0.00592937 0.0011142 1e-05
0.00604356 0.00111436 1e-05
0.00615863 0.00111451 1e-05
0.00627371 0.00111466 1e-05
0.00638878 0.0011148 1e-05
0.00650386 0.00111493 1e-05
0.00661893 0.00111505 1e-05
0.0067349 0.00111517 1e-05
0.00685087 0.00111528 1e-05
0.00696684 0.00111538 1e-05
0.00708281 0.00111547 1e-05
0.00719878 0.00111555 1e-05
0.0073149 0.00111563 1e-05
0.00743101 0.0011157 1e-05
0.00754713 0.00111576 1e-05
0.00766325 0.00111582 1e-05
0.00777278 0.00111586 1e-05
0.00777485 0.00111586 1e-05
0.00777692 0.00111586 1e-05
0.00777899 0.00111586 1e-05
0.00778106 0.00111586 1e-05
0.00778313 0.00111586 1e-05
0.00790091 0.0011159 1e-05
0.00801869 0.00111593 1e-05
0.00813647 0.00111595 1e-05
0.00825425 0.00111597 1e-05
0.00837203 0.00111597 1e-05
0.00849073 0.00111597 1e-05
0.00860942 0.00111596 1e-05
0.00872812 0.00111594 1e-05
0.00884682 0.00111591 1e-05
0.00896551 0.00111588 1e-05
0.00908513 0.00111583 1e-05
0.00920475 0.00111577 1e-05
0.00932437 0.00111571 1e-05
0.00944398 0.00111564 1e-05
0.0095636 0.00111557 1e-05
0.00968415 0.00111547 1e-05
0.0098047 0.00111537 1e-05
0.00992525 0.00111527 1e-05
0.0100458 0.00111516 1e-05
0.0101663 0.00111504 1e-05
0.0102878 0.0011149 1e-05
0.0104093 0.00111476 1e-05
0.0105308 0.00111461 1e-05
0.0106523 0.00111445 1e-05
0.0107738 0.00111428 1e-05
0.0108962 0.0011141 1e-05
0.0110186 0.00111391 1e-05
0.0111411 0.00111371 1e-05
0.0112635 0.00111351 1e-05
0.0113859 0.0011133 1e-05
0.0115093 0.00111306 1e-05
0.0116327 0.00111283 1e-05
0.0117561 0.00111259 1e-05
0.0118795 0.00111234 1e-05
0.0120028 0.00111208 1e-05
0.0121272 0.00111179 1e-05
0.0122515 0.00111151 1e-05
0.0123759 0.00111122 1e-05
0.0125002 0.00111092 1e-05
0.0126245 0.00111061 1e-05
0.0127498 0.00111028 1e-05
0.0128752 0.00110995 1e-05
0.0130005 0.00110961 1e-05
0.0131258 0.00110926 1e-05
0.0132511 0.0011089 1e-05
0.0133774 0.00110852 1e-05
0.0135036 0.00110814 1e-05
0.0136299 0.00110775 1e-05
0.0137562 0.00110734 1e-05
0.0138825 0.00110693 1e-05
0.0140098 0.0011065 1e-05
0.014137 0.00110607 1e-05
0.0142643 0.00110562 1e-05
0.0143915 0.00110517 1e-05
0.0145188 0.00110471 1e-05
0.0146471 0.00110422 1e-05
0.0147753 0.00110373 1e-05
0.0149036 0.00110324 1e-05
0.0150318 0.00110273 1e-05
0.0151601 0.00110221 1e-05
0.0152893 0.00110168 1e-05
0.0154186 0.00110113 1e-05
0.0155478 0.00110058 1e-05
0.0156771 0.00110002 1e-05
0.0158063 0.00109945 1e-05
0.0159366 0.00109886 1e-05
0.0160668 0.00109826 1e-05
0.0161971 0.00109766 1e-05
0.0163274 0.00109704 1e-05
0.0164576 0.00109641 1e-05
0.0165889 0.00109577 1e-05
0.0167201 0.00109512 1e-05
0.0168514 0.00109446 1e-05
0.0169827 0.00109378 1e-05
0.0171139 0.0010931 1e-05
0.0172462 0.00109241 1e-05
0.0173785 0.00109171 1e-05
0.0175108 0.00109099 1e-05
0.0176431 0.00109026 1e-05
0.0177754 0.00108952 1e-05
0.0179087 0.00108878 1e-05
0.018042 0.00108801 1e-05
0.0181753 0.00108724 1e-05
0.0183087 0.00108645 1e-05
0.018442 0.00108566 1e-05
0.0185763 0.00108486 1e-05
0.0187107 0.00108404 1e-05
0.018845 0.00108321 1e-05
0.0189794 0.00108236 1e-05
0.0191137 0.00108151 1e-05
0.0192491 0.00108066 1e-05
0.0193845 0.00107979 1e-05
0.0195199 0.0010789 1e-05
0.0196553 0.00107799 1e-05
0.0197907 0.00107709 1e-05
0.0199272 0.00107618 1e-05
0.0200636 0.00107526 1e-05
0.0202001 0.0010743 1e-05
0.0203365 0.00107334 1e-05
0.020473 0.00107238 1e-05
0.0206105 0.00107142 1e-05
0.020748 0.00107044 1e-05
0.0208855 0.00106943 1e-05
0.021023 0.00106841 1e-05
0.0211606 0.00106739 1e-05
0.0212991 0.00106638 1e-05
0.0214377 0.00106534 1e-05
0.0215763 0.00106427 1e-05
0.0217149 0.00106319 1e-05
0.0218535 0.00106212 1e-05
0.0219931 0.00106105 1e-05
0.0221328 0.00105995 1e-05
0.0222724 0.00105882 1e-05
0.0224121 0.00105769 1e-05
0.0225517 0.00105656 1e-05
0.0226925 0.00105543 1e-05
0.0228332 0.00105427 1e-05
0.022974 0.00105309 1e-05
0.0231147 0.00105189 1e-05
0.0232555 0.00105071 1e-05
0.0233973 0.00104952 1e-05
0.0235391 0.0010483 1e-05
0.023681 0.00104706 1e-05
0.0238228 0.0010458 1e-05
0.0239647 0.00104456 1e-05
0.0241076 0.00104331 1e-05
0.0242505 0.00104204 1e-05
0.0243935 0.00104073 1e-05
0.0245364 0.00103942 1e-05
0.0246794 0.00103811 1e-05
0.0248234 0.00103681 1e-05
0.0249675 0.00103547 1e-05
0.0251115 0.00103411 1e-05
0.0252556 0.00103273 1e-05
[...]
POINT_DATA 12075
 FIELD attributes 3
age 1 12075 float
0 -2e-05 -4e-05 -6e-05 -8e-05 -0.0001
0 -2e-05 -4e-05 -6e-05 -8e-05 -0.0001
0 -2e-05 -4e-05 -6e-05 -8e-05 -0.0001
0 -2e-05 -4e-05 -6e-05 -8e-05 -0.0001
0 -2e-05 -4e-05 -6e-05 -8e-05 -0.0001
0 -2e-05 -4e-05 -6e-05 -8e-05 -0.0001
0 -2e-05 -4e-05 -6e-05 -8e-05 -0.0001
0 -2e-05 -4e-05 -6e-05 -8e-05 -0.0001
0 -2e-05 -4e-05 -6e-05 -8e-05 -0.0001
0 -2.00009e-05 -4.00018e-05 -6.00027e-05 -8.00036e-05 -0.000100002
0 0.000296567 0.000593135 0.000889702 0.00118627 0.00148284 0.00178676 0.00209069 0.00239461 0.00269853 0.00300245 0.00329423 0.00358601 0.00387779 0.00416957 0.00446135 0.00474147 0.00502159 0.00530171 0.00558183 0.00586196 0.00612534 0.00638873 0.00665212 0.00691551 0.00713796 0.00715169 0.00716542 0.00717915 0.00719288 0.00720661 0.0074648 0.00772298 0.00798117 0.00823935 0.00849754 0.00874541 0.00899328 0.00924116 0.00948903 0.0097369 0.00997487 0.0102128 0.0104508 0.0106888 0.0109267 0.0111552 0.0113837 0.0116121 0.0118406 0.012069 0.0122884 0.0125077 0.012727 0.0129464 0.0131657 0.0133763 0.0135868 0.0137974 0.014008 0.0142186 0.0144207 0.0146229 0.014825 0.0150272 0.0152293 0.0154234 0.0156175 0.0158116 0.0160057 0.0161997 0.0163861 0.0165724 0.0167587 0.016945 0.0171314 0.0173102 0.0174891 0.017668 0.0178469 0.0180258 0.0181975 0.0183692 0.018541 0.0187127 0.0188844 0.0190493 0.0192142 0.0193791 0.0195439 0.0197088 0.0198671 0.0200254 0.0201837 0.0203419 0.0205002 0.0206059 0.0207116 0.0208173 0.0209229 0.0210286 0.0211351 0.0212416 0.0213481 0.0214546 0.0215611 0.0216684 0.0217758 0.0218831 0.0219904 0.0220978 0.0222059 0.0223141 0.0224222 0.0225304 0.0226386 0.0227476 0.0228566 0.0229656 0.0230746 0.0231836 0.0232934 0.0234033 0.0235131 0.023623 0.0237328 0.0238435 0.0239543 0.024065 0.0241757 0.0242864 0.0243979 0.0245095 0.0246211 0.0247326 0.0248442 0.0249566 0.0250691 0.0251815 0.0252939 0.0254064 0.0255197 0.025633 0.0257463 0.0258596 0.0259729 0.0260871 0.0262013 0.0263154 0.0264296 0.0265438 0.0266589 0.026774 0.026889 0.0270041 0.0271192 0.0272352 0.0273511 0.0274671 0.0275831 0.027699 0.0278152 0.0279313 0.0280474 0.0281635 0.028273 0.0282751 0.0282772 0.0282793 0.0282813 0.0282834 0.0284012 0.028519 0.0286367 0.0287545 0.0288723 0.028991 0.0291097 0.0292284 0.0293471 0.0294658 0.0295854 0.029705 0.0298246 0.0299442 0.0300639 0.0301844 0.030305 0.0304255 0.0305461 0.0306666 0.0307881 0.0309096 0.0310311 0.0311526 0.031274 0.0313965 0.0315189 0.0316413 0.0317638 0.0318862 0.0320096 0.032133 0.0322563 0.0323797 0.0325031 0.0326274 0.0327518 0.0328761 0.0330005 0.0331248 0.0332501 0.0333754 0.0335007 0.033626 0.0337513 0.0338776 0.0340039 0.0341302 0.0342565 0.0343828 0.03451 0.0346373 0.0347646 0.0348918 0.0350191 0.0351473 0.0352756 0.0354038 0.0355321 0.0356604 0.0357896 0.0359189 0.0360481 0.0361774 0.0363066 0.0364369 0.0365671 0.0366974 0.0368276 0.0369579 0.0370892 0.0372204 0.0373517 0.037483 0.0376142 0.0377465 0.0378788 0.0380111 0.0381434 0.0382757 0.038409 0.0385423 0.0386757 0.038809 0.0389423 0.0390767 0.039211 0.0393454 0.0394797 0.0396141 0.0397495 0.0398849 0.0400203 0.0401557 0.0402911 0.0404275 0.040564 0.0407004 0.0408369 0.0409734 0.0411109 0.0412484 0.0413859 0.0415234 0.0416609 0.0417995 0.0419381 0.0420767 0.0422153 0.0423539 0.0424935 0.0426332 0.0427728 0.0429125 0.0430522 0.0431929 0.0433337 0.0434744 0.0436152 0.0437559 0.0438978 0.0440396 0.0441815 0.0443233 0.0444651 0.0446081 0.044751 0.044894 0.0450369 0.0451799 0.0453239 0.045468 0.045612 0.0457561 0.0459002 0.0460453 0.0461905 0.0463357 0.0464809 0.0466261 0.0467724 0.0469187 0.047065 0.0472113 0.0473576 0.0475051 0.0476525 0.0477999 0.0479474 0.0480948 0.0482434 0.048392 0.0485406 0.0486892 0.0488378 0.0489876 0.0491373 0.0492871 0.0494368 0.0495866 0.0497375 0.0498884 0.0500393 0.0501902 0.0503411 0.0504932 0.0506453 0.0507974 0.0509495 0.0511016 0.0512548 0.0514081 0.0515614 0.0517147 0.0518679 0.0520224 0.0521769 0.0523313 0.0524858 0.0526402 0.0527959 0.0529516 0.0531072 0.0532629 0.0534186 0.0535755 0.0537323 0.0538892 0.0540461 0.054203 0.0543255 0.054448 0.0545705 0.0546929 0.0548112 0.0548476 0.0548841 0.0549205 0.054957 0.0549934 0.0551528 0.0553121 0.0554714 0.0556308 0.0557901 0.0559507 0.0561112 0.0562718 0.0564324 0.0565929 0.0567547 0.0569166 0.0570784 0.0572402 0.057402 0.0575651 0.0577282 0.0578912 0.0580543 0.0582174 0.0583817 0.0585461 0.0587104 0.0588748 0.0590391 0.0592047 0.0593704 0.059536 0.0597016 0.0598672 0.0600342 0.0602011 0.060368 0.0605349 0.0607018 0.06087 0.0610382 0.0612065 0.0613747 0.0615429 0.0617124 0.0618819 0.0620515 0.062221 0.0623905 0.0625614 0.0627322 0.062903 0.0630739 0.0632447 0.0634169 0.0635891 0.0637613 0.0639334 0.0641056 0.0642791 0.0644526 0.0646261 0.0647997 0.0649732 0.0651481 0.0653229 0.0654978 0.0656726 0.0658475 0.0660238 0.0662 0.0663762 0.0665524 0.0667287 0.0669063 0.0670839 0.0672615 0.0674391 0.0676167 0.0677957 0.0679747 0.0681537 0.0683326 0.0685116 0.068692 0.0688724 0.0690528 0.0692332 0.0694136 0.0695953 0.0697771 0.0699589 0.0701407 0.0703225 0.0705057 0.0706889 0.0708721 0.0710553 0.0712385 0.0714232 0.0716078 0.0717924 0.0719771 0.0721617 0.0723478 0.0725339 0.07272 0.072906 0.0730921 0.0732064 0.0733207 0.0734349 0.0735492 0.0736588 0.073733 0.0738072 0.0738814 0.0739556 0.0740298 0.0742188 0.0744078 0.0745968 0.0747858 0.0749748 0.0751652 0.0753557 0.0755462 0.0757366 0.0759271 0.0761191 0.076311 0.076503 0.076695 0.0768869 0.0770804 0.0772738 0.0774673 0.0776608 0.0778542 0.0780492 0.0782442 0.0784391 0.0786341 0.0788291 0.0790256 0.0792221 0.0794186 0.0796151 0.0798116 0.0800096 0.0802077 0.0804057 0.0806037 0.0808018 0.0810014 0.081201 0.0814006 0.0816001 0.0817998 0.0820009 0.0822021 0.0824032 0.0826044 0.0828055 0.0830083 0.083211 0.0834137 0.0836164 0.0838192 0.0840235 0.0842278 0.0844321 0.0846365 0.0848408 0.0850467 0.0852526 0.0854586 0.0856645 0.0858704 0.086078 0.0862855 0.0864931 0.0867006 0.0869082 0.0869486 0.086989 0.0870295 0.0870699 0.0871098 0.0872786 0.0874475 0.0876163 0.0877852 0.0879541 0.0881649 0.0883757 0.0885865 0.0887973 0.0890082 0.0892206 0.0894331 0.0896456 0.0898581 0.0900706 0.0902847 0.0904989 0.090713 0.0909272 0.0911414 0.0913572 0.0915731 0.0917889 0.0920047 0.0922206 0.0924382 0.0926557 0.0928732 0.0930908 0.0933084 0.0935277 0.0937469 0.0939662 0.0941854 0.0944048 0.0946258 0.0948467 0.0950677 0.0952887 0.0955098 0.0957326 0.0959553 0.096178 0.0964008 0.0966236 0.0966833 0.0967431 0.0968028 0.0968625 0.0969211 0.0970861 0.0972511 0.0974162 0.0975812 0.0977463 0.0979725 0.0981988 0.0984251 0.0986514 0.0988778 0.0991059 0.099334 0.0995621 0.0997902 0.100018 0.100248 0.100478 0.100708 0.100938 0.101168 0.1014 0.101631 0.101863 0.102095 0.102327 0.10256 0.102794 0.103028 0.103261 0.103495 0.10373 0.103966 0.104201 0.104437 0.104672 0.104797 0.104923 0.105048 0.105173 0.105294 0.105407 0.10552 0.105633 0.105746 0.105859 0.106098 0.106338 0.106577 0.106816 0.107055 0.107297 0.107538 0.107779 0.10802 0.108261 0.108504 0.108748 0.108991 0.109234 0.109477 0.109722 0.109967 0.110212 0.110457 0.110702 0.110949 0.111196 0.111443 0.11169 0.111938 0.1121 0.112262 0.112425 0.112587 0.112742 0.112831 0.112919 0.113007 0.113095 0.113183 0.113434 0.113685 0.113936 0.114187 0.114438 0.114691 0.114944 0.115198 0.115451 0.115704 0.115959 0.116214 0.116469 0.116724 0.11698 0.117237 0.117494 0.117751 0.118008 0.118266 0.118525 0.118784 0.119044 0.119303 0.119562 0.119566 0.11957 0.119574 0.119578 0.119582 0.119839 0.120097 0.120354 0.120612 0.12087 0.121133 0.121397 0.12166 0.121924 0.122187 0.122453 0.122719 0.122984 0.12325 0.123516 0.123784 0.124052 0.124319 0.124587 0.124855 0.125093 0.12533 0.125567 0.125805 0.126032 0.126067 0.126102 0.126136 0.126171 0.126205 0.126478 0.12675 0.127022 0.127294 0.127567 0.127841 0.128115 0.12839 0.128664 0.128939 0.129216 0.129492 0.129769 0.130046 0.130322 0.130601 0.13088 0.131159 0.131438 0.131717 0.131828 0.13194 0.132051 0.132163 0.132272 0.132443 0.132613 0.132783 0.132953 0.133123 0.133406 0.13369 0.133973 0.134257 0.13454 0.134826 0.135112 0.135397 0.135683 0.135969 0.136257 0.136545 0.136833 0.137121 0.137409 0.137619 0.137829 0.138039 0.138249 0.138455 0.138536 0.138618 0.138699 0.13878 0.138861 0.139153 0.139446 0.139739 0.140031 0.140324 0.140619 0.140914 0.141209 0.141504 0.141799 0.142096 0.142394 0.142691 0.142988 0.143286 0.143572 0.143858 0.144144 0.14443 0.144713 0.144727 0.144741 0.144756 0.14477 0.144784 0.145086 0.145388 0.14569 0.145992 0.146294 0.146599 0.146903 0.147207 0.147512 0.147816 0.148123 0.14843 0.148736 0.149043 0.14935 0.149659 0.149968 0.150277 0.150586 0.150896 0.150952 0.151009 0.151066 0.151123 0.15118 0.151435 0.151689 0.151944 0.152199 0.152453 0.152767 0.153081 0.153395 0.153709 0.154023 0.154339 0.154655 0.154972 0.155288 0.155604 0.155923 0.156242 0.156561 0.156879 0.157198 0.157357 0.157516 0.157676 0.157835 0.157995 0.158157 0.158319 0.15848 0.158642 0.158804 0.159128 0.159451 0.159775 0.160098 0.160422 0.160748 0.161074 0.1614 0.161726 0.162052 0.162381 0.162709 0.163038 0.163367 0.163695 0.16401 0.164325 0.164641 0.164956 0.165276 0.165291 0.165306 0.165321 0.165335 0.16535 0.165684 0.166017 0.166351 0.166684 0.167018 0.167354 0.16769 0.168026 0.168362 0.168698 0.169037 0.169375 0.169714 0.170052 0.170391 0.170732 0.171073 0.171414 0.171756 0.172097 0.172292 0.172487 0.172682 0.172877 0.173074 0.173222 0.173371 0.173519 0.173667 0.173815 0.174162 0.174508 0.174855 0.175201 0.175547 0.175896 0.176245 0.176594 0.176944 0.177292 0.177644 0.177996 0.178348 0.178699 0.179051 0.179405 0.17976 0.180114 0.180469 0.180823 0.180837 0.180852 0.180866 0.18088 0.180895 0.181238 0.18158 0.181923 0.182266 0.182609 0.182969 0.183329 0.183688 0.184048 0.184408 0.184771 0.185134 0.185496 0.185859 0.186222 0.186587 0.186953 0.187318 0.187684 0.18805 0.188179 0.188308 0.188437 0.188566 0.188695 0.188934 0.189174 0.189413 0.189652 0.189892 0.190263 0.190634 0.191006 0.191377 0.191748 0.192123 0.192497 0.192871 0.193245 0.19362 0.193997 0.194374 0.194752 0.195129 0.195506 0.195649 0.195791 0.195934 0.196077 0.196218 0.196456 0.196694 0.196932 0.19717 0.197408 0.197791 0.198174 0.198557 0.198941 0.199324 0.199711 0.200097 0.200483 0.20087 0.201256 0.201646 0.202035 0.202425 0.202814 0.203204 0.203228 0.203253 0.203277 0.203302 0.203326 0.203694 0.204062 0.20443 0.204799 0.205167 0.205563 0.205958 0.206354 0.20675 0.207146 0.207545 0.207944 0.208342 0.208741 0.20914 0.209329 0.209518 0.209707 0.209896 0.210085 0.210298 0.210511 0.210724 0.210937 0.21115 0.211556 0.211961 0.212366 0.212771 0.213176 0.213585 0.213993 0.214401 0.214809 0.215217 0.215522 0.215826 0.21613 0.216434 0.216745 0.216851 0.216957 0.217062 0.217168 0.217274 0.217688 0.218103 0.218517 0.218931 0.219345 0.219763 0.22018 0.220597 0.221015 0.221431 0.221852 0.222272 0.222692 0.223112 0.223532 0.223594 0.223655 0.223717 0.223779 0.223842 0.224203 0.224564 0.224925 0.225286 0.225646 0.226072 0.226497 0.226923 0.227349 0.227774 0.228185 0.228597 0.229009 0.229421 0.229831 0.229976 0.230121 0.230266 0.230411 0.230563 0.230844 0.231125 0.231405 0.231686 0.231966 0.23241 0.232853 0.233296 0.233739 0.234182 0.234642 0.235102 0.235562 0.236022 0.236481 0.236502 0.236522 0.236543 0.236564 0.236585 0.237041 0.237498 0.237955 0.238412 0.238868 0.239364 0.23986 0.240355 0.240851 0.241347 0.241861 0.242376 0.242891 0.243406 0.243921 0.244009 0.244098 0.244187 0.244276 0.244369 0.244814 0.245259 0.245704 0.246149 0.246594 0.24715 0.247705 0.248261 0.248816 0.249372 0.249949 0.250526 0.251104 0.251681 0.252258 0.252858 0.253458 0.254058 0.254657 0.255257 0.255431 0.255605 0.255779 0.255953 0.256144 0.25659 0.257036 0.257482 0.257928 0.258374 0.259022 0.25967 0.260318 0.260965 0.261614 0.262287 0.26296 0.263633 0.264307 0.26498 0.26568 0.26638 0.267079 0.267779 0.268479 0.269206 0.269933 0.27066 0.271388 0.272115 0.272871 0.273627 0.274382 0.275138 0.275894 0.276679 0.277465 0.27825 0.279035 0.279821 0.280115 0.280408 0.280702 0.280996 0.281334 0.281847 0.282361 0.282875 0.283388 0.283902 0.28475 0.285598 0.286446 0.287295 0.288143 0.289024 0.289906 0.290787 0.291668 0.29255 0.293465 0.294381 0.295297 0.296213 0.297129 0.29808 0.299032 0.299983 0.300935 0.301886 0.302875 0.303864 0.304853 0.305841 0.30683 0.307857 0.308884 0.309911 0.310938 0.311964