/*--------------------------------*- C++ -*----------------------------------*\
  =========                 |
  \\      /  F ield         | OpenFOAM: The Open Source CFD Toolbox
   \\    /   O peration     | Website:  https://openfoam.org
    \\  /    A nd           | Version:  9
     \\/     M anipulation  |
\*---------------------------------------------------------------------------*/
FoamFile
{
    format      ascii;
    class       volScalarField;
    location    "0.19";
    object      p;
}
// * * * * * * * * * * * * * * * * * * * * * * * * * * * * * * * * * * * * * //

dimensions      [0 2 -2 0 0 0 0];

internalField   nonuniform List<scalar> 
12225
(
-1.19932
-3.48232
-4.6448
-4.95301
-5.12131
-5.28108
-5.40572
-5.4942
-5.56388
-5.62497
-5.67927
-5.72659
-5.76724
-5.80053
-5.82532
-5.83122
-5.82794
-5.7192
-4.66682
-5.36893
-5.45918
-5.32415
-5.28413
-5.35147
-5.43229
-5.49822
-5.55531
-5.6088
-5.65847
-5.70316
-5.74258
-5.77582
-5.80246
-5.81544
-5.82763
-5.81172
-4.87157
-4.76862
-4.92541
-5.04757
-5.15499
-5.27736
-5.38573
-5.46849
-5.53579
-5.59575
-5.65004
-5.69842
-5.74103
-5.77761
-5.80858
-5.83081
-5.85863
-5.89085
-4.73428
-4.65615
-4.93224
-5.111
-5.20551
-5.30271
-5.39791
-5.47556
-5.54027
-5.59861
-5.65206
-5.70024
-5.7433
-5.78137
-5.81548
-5.84569
-5.88375
-5.93595
-4.74125
-4.75851
-4.99861
-5.14855
-5.22464
-5.30942
-5.39913
-5.4753
-5.5394
-5.59728
-5.65061
-5.6992
-5.7433
-5.78348
-5.82121
-5.85821
-5.90313
-5.96277
-4.80293
-4.8454
-5.02321
-5.15398
-5.23203
-5.31464
-5.40105
-5.47601
-5.53977
-5.59742
-5.65079
-5.69989
-5.74512
-5.78734
-5.82824
-5.87013
-5.91916
-5.98077
-4.86267
-4.9022
-5.03862
-5.16087
-5.24332
-5.32312
-5.40491
-5.47789
-5.5411
-5.59847
-5.65181
-5.70138
-5.74766
-5.79167
-5.83512
-5.88028
-5.93141
-5.99206
-4.91582
-4.95072
-5.06104
-5.17371
-5.25633
-5.33232
-5.40937
-5.48018
-5.54273
-5.59976
-5.65305
-5.70302
-5.75024
-5.79573
-5.84106
-5.88819
-5.93992
-5.99814
-4.96561
-4.99735
-5.08816
-5.189
-5.26914
-5.34169
-5.41454
-5.48303
-5.5447
-5.60129
-5.65443
-5.70469
-5.75263
-5.79921
-5.84576
-5.89379
-5.94504
-6.0003
-5.01298
-5.04161
-5.1168
-5.20574
-5.28218
-5.35165
-5.42067
-5.48661
-5.54713
-5.60313
-5.65599
-5.70635
-5.75474
-5.80197
-5.8491
-5.89721
-5.94732
-5.99953
-5.05775
-5.08303
-5.14585
-5.22395
-5.29589
-5.36224
-5.42768
-5.49096
-5.55006
-5.60531
-5.65774
-5.70798
-5.75651
-5.80397
-5.85115
-5.89875
-5.94732
-5.99663
-5.09626
-5.1186
-5.17245
-5.24175
-5.30906
-5.37241
-5.43477
-5.49558
-5.55321
-5.60761
-5.65949
-5.70942
-5.75779
-5.80511
-5.85194
-5.89871
-5.94572
-5.99259
-5.13196
-5.15176
-5.1983
-5.25986
-5.32247
-5.38275
-5.44222
-5.50062
-5.55668
-5.6101
-5.66131
-5.71075
-5.75876
-5.80568
-5.8519
-5.89765
-5.94306
-5.98771
-5.16949
-5.18679
-5.2266
-5.28061
-5.33799
-5.39473
-5.45107
-5.50681
-5.561
-5.61315
-5.66342
-5.71211
-5.75944
-5.80564
-5.8509
-5.89533
-5.93892
-5.98131
-5.20761
-5.22252
-5.25637
-5.3034
-5.35534
-5.40815
-5.46118
-5.51409
-5.56611
-5.61667
-5.6657
-5.71332
-5.75965
-5.80476
-5.84873
-5.89156
-5.9332
-5.97334
-5.24439
-5.25714
-5.28601
-5.32694
-5.37362
-5.42238
-5.47205
-5.52206
-5.57171
-5.62041
-5.6679
-5.71414
-5.75911
-5.80282
-5.84522
-5.88627
-5.9259
-5.9639
-5.27693
-5.28794
-5.31292
-5.34894
-5.39106
-5.43606
-5.48256
-5.5298
-5.57707
-5.62377
-5.66951
-5.71413
-5.75751
-5.79958
-5.84025
-5.87945
-5.91712
-5.95312
-5.30089
-5.31069
-5.33307
-5.36576
-5.40461
-5.44675
-5.49073
-5.5357
-5.58092
-5.62576
-5.66979
-5.71277
-5.75451
-5.7949
-5.83385
-5.87128
-5.90713
-5.94135
-5.30929
-5.31865
-5.34012
-5.37165
-5.40934
-5.45034
-5.49316
-5.53695
-5.58097
-5.6246
-5.6674
-5.70906
-5.74944
-5.78841
-5.82588
-5.86182
-5.89618
-5.92895
-5.29433
-5.30438
-5.32737
-5.36101
-5.4008
-5.4434
-5.48727
-5.53173
-5.57616
-5.61992
-5.66256
-5.70387
-5.74372
-5.78204
-5.81876
-5.85387
-5.88736
-5.91927
-5.26813
-5.27932
-5.30511
-5.34283
-5.38659
-5.43215
-5.4782
-5.52441
-5.57014
-5.61473
-5.65781
-5.69928
-5.73912
-5.77726
-5.81369
-5.84842
-5.8815
-5.91297
-5.23318
-5.24556
-5.2756
-5.32007
-5.36956
-5.41869
-5.46743
-5.51612
-5.56384
-5.60969
-5.6535
-5.6954
-5.73544
-5.77361
-5.80993
-5.84448
-5.87731
-5.90852
-5.19257
-5.20517
-5.24054
-5.29512
-5.35224
-5.40524
-5.45681
-5.5082
-5.55798
-5.60515
-5.64984
-5.69232
-5.73271
-5.77102
-5.80734
-5.84181
-5.87451
-5.90557
-5.14873
-5.16029
-5.20267
-5.26928
-5.33397
-5.39161
-5.44751
-5.50218
-5.55369
-5.60176
-5.6471
-5.69008
-5.73074
-5.76915
-5.80546
-5.83985
-5.87244
-5.90335
-5.10187
-5.10962
-5.17066
-5.25045
-5.31557
-5.37522
-5.43711
-5.49668
-5.55042
-5.59947
-5.64549
-5.68896
-5.72984
-5.76828
-5.80452
-5.83881
-5.87129
-5.90214
-5.05391
-5.03026
-5.14105
-5.24998
-5.31054
-5.36461
-5.42802
-5.49036
-5.54562
-5.59561
-5.64245
-5.68651
-5.72772
-5.7663
-5.8026
-5.83688
-5.86933
-5.90012
-5.0446
-4.90027
-5.05929
-5.22548
-5.30995
-5.37094
-5.43571
-5.49683
-5.55054
-5.59964
-5.646
-5.68962
-5.73037
-5.76851
-5.80439
-5.83827
-5.87042
-5.90101
-5.19001
-4.9062
-4.94093
-5.07136
-5.19091
-5.29788
-5.39189
-5.46761
-5.5298
-5.58497
-5.63565
-5.68217
-5.72488
-5.76439
-5.80123
-5.83579
-5.86857
-5.9002
-5.12681
-5.62649
-5.6366
-5.47731
-5.3963
-5.42046
-5.47456
-5.52391
-5.56895
-5.61344
-5.657
-5.69835
-5.73712
-5.77352
-5.80773
-5.83987
-5.87019
-5.90055
-1.78813
-3.65868
-4.72994
-5.02296
-5.15776
-5.29446
-5.40632
-5.48626
-5.54915
-5.60509
-5.65631
-5.70289
-5.7454
-5.78458
-5.82084
-5.8542
-5.88431
-5.90941
-6.80188
-6.80188
-6.80226
-6.80298
-6.80395
-6.80514
-6.80657
-6.80825
-6.81019
-6.81241
-6.81493
-6.81779
-6.82101
-6.82464
-6.82871
-6.83326
-6.83832
-6.84393
-6.85013
-6.85694
-6.86442
-6.87258
-6.88148
-6.89115
-6.90163
-6.91297
-6.92521
-6.9384
-6.95257
-6.96782
-6.98417
-7.00128
-7.01885
-7.03769
-7.05878
-7.08196
-7.10642
-7.13155
-7.15882
-7.19088
-7.22487
-7.2441
-7.2557
-7.27715
-7.30345
-7.33121
-7.35961
-7.38891
-7.41888
-7.44938
-7.4803
-7.51151
-7.54291
-7.57439
-7.60584
-7.63716
-7.66824
-7.69896
-7.72921
-7.75888
-7.78783
-7.81593
-7.84305
-7.86904
-7.89376
-7.91706
-7.93877
-7.95873
-7.97678
-7.99274
-8.00643
-8.01768
-8.0263
-8.03211
-8.03491
-8.03452
-8.03075
-8.02341
-8.01232
-7.99727
-7.97809
-7.95459
-7.92658
-7.8939
-7.85636
-7.81379
-7.76603
-7.71292
-7.6543
-7.59002
-7.51994
-7.44392
-7.36185
-7.27359
-7.17905
-7.07813
-6.97081
-6.85711
-6.73697
-6.61019
-6.47649
-6.33571
-6.18802
-6.03346
-5.87206
-5.70384
-5.52884
-5.34709
-5.15865
-4.96361
-4.76205
-4.55408
-4.33983
-4.11942
-3.89302
-3.6608
-3.42293
-3.17961
-2.93107
-2.67751
-2.41917
-2.15632
-1.88919
-1.61808
-1.34324
-1.06497
-0.783575
-0.49934
-0.212579
0.0763972
0.367274
0.659732
0.953455
1.24812
1.54341
1.83902
2.13461
2.4299
2.72456
3.01831
3.31084
3.60189
3.89116
4.17839
4.46334
4.74574
5.02537
5.302
5.57542
5.84544
6.11186
6.37452
6.63325
6.88791
7.13835
7.38446
7.62612
7.86323
8.0957
8.32345
8.54641
8.76453
8.97777
9.18611
9.38951
9.58792
9.78117
9.96913
10.1518
10.3292
10.5014
10.6683
10.83
10.9865
11.1379
11.2845
11.4272
11.5674
11.7142
11.8684
-6.80041
-6.80074
-6.80123
-6.80182
-6.80239
-6.80298
-6.8037
-6.80467
-6.80595
-6.80758
-6.80957
-6.81194
-6.81471
-6.8179
-6.82153
-6.82564
-6.83025
-6.83539
-6.8411
-6.8474
-6.85432
-6.86191
-6.87018
-6.87917
-6.88891
-6.89941
-6.9107
-6.92279
-6.93569
-6.94934
-6.96359
-6.97858
-6.99498
-7.01293
-7.03153
-7.05009
-7.06901
-7.08943
-7.11114
-7.13102
-7.1462
-7.17232
-7.21092
-7.24626
-7.27791
-7.30753
-7.33733
-7.36741
-7.39779
-7.42849
-7.45945
-7.49062
-7.52193
-7.55329
-7.58461
-7.6158
-7.64676
-7.67738
-7.70755
-7.73716
-7.76607
-7.79416
-7.8213
-7.84735
-7.87216
-7.89558
-7.91745
-7.93761
-7.95589
-7.97212
-7.98613
-7.99774
-8.00676
-8.01301
-8.0163
-8.01644
-8.01324
-8.00652
-7.99609
-7.98175
-7.96332
-7.94062
-7.91346
-7.88167
-7.84507
-7.8035
-7.75678
-7.70476
-7.64728
-7.5842
-7.51538
-7.44067
-7.35997
-7.27314
-7.18008
-7.08068
-6.97482
-6.86239
-6.74323
-6.61715
-6.48428
-6.34484
-6.19867
-6.0457
-5.88593
-5.71936
-5.54602
-5.36594
-5.17918
-4.98581
-4.78592
-4.57961
-4.367
-4.14823
-3.92345
-3.69282
-3.45652
-3.21475
-2.96771
-2.71563
-2.45874
-2.19728
-1.93152
-1.66171
-1.38814
-1.11108
-0.83084
-0.547709
-0.261994
0.0259955
0.315945
0.607539
0.90046
1.19439
1.48901
1.784
2.07905
2.37386
2.66811
2.96151
3.25376
3.54458
3.83369
4.12083
4.40573
4.68815
4.96785
5.24461
5.51821
5.78845
6.05514
6.31812
6.5772
6.83225
7.08312
7.32968
7.57183
7.80945
8.04246
8.27077
8.49432
8.71305
8.92691
9.13587
9.33991
9.53895
9.73283
9.92145
10.1048
10.2829
10.4558
10.6235
10.7859
10.9433
11.0957
11.2436
11.3882
11.5304
11.6807
11.8288
-6.79664
-6.7978
-6.79903
-6.80009
-6.80083
-6.8014
-6.80202
-6.80283
-6.80391
-6.80532
-6.8071
-6.80926
-6.81184
-6.81485
-6.81831
-6.82226
-6.82672
-6.83172
-6.8373
-6.84347
-6.85027
-6.85773
-6.86588
-6.87475
-6.88437
-6.89477
-6.90596
-6.918
-6.9309
-6.9447
-6.95935
-6.97488
-6.99156
-7.00962
-7.02879
-7.04867
-7.06918
-7.09048
-7.11253
-7.13454
-7.15607
-7.18001
-7.20774
-7.23645
-7.26528
-7.29412
-7.32338
-7.35301
-7.38298
-7.41323
-7.44373
-7.47442
-7.50524
-7.5361
-7.56694
-7.59765
-7.62814
-7.65832
-7.68807
-7.71728
-7.74584
-7.77361
-7.80046
-7.82626
-7.85087
-7.87412
-7.89588
-7.91597
-7.93423
-7.95049
-7.96458
-7.97633
-7.98553
-7.99203
-7.99562
-7.99612
-7.99335
-7.98711
-7.97721
-7.96348
-7.94571
-7.92373
-7.89736
-7.86642
-7.83073
-7.79012
-7.74444
-7.69351
-7.63718
-7.57531
-7.50775
-7.43437
-7.35503
-7.26962
-7.17802
-7.08013
-6.97581
-6.86495
-6.74743
-6.62323
-6.49229
-6.35467
-6.21032
-6.05921
-5.90132
-5.73666
-5.56524
-5.38709
-5.20227
-5.01086
-4.81292
-4.60856
-4.39789
-4.18106
-3.95819
-3.72946
-3.49504
-3.25512
-3.0099
-2.7596
-2.50446
-2.24471
-1.9806
-1.7124
-1.44039
-1.16484
-0.886043
-0.604297
-0.319903
-0.0331698
0.255592
0.546069
0.837943
1.1309
1.42462
1.71879
2.01309
2.30723
2.60089
2.89376
3.18557
3.47603
3.76485
4.05177
4.33652
4.61886
4.89856
5.17537
5.44909
5.71952
5.98645
6.24972
6.50916
6.7646
7.01591
7.26296
7.50563
7.74382
7.97742
8.20635
8.43053
8.64991
8.86442
9.07402
9.27867
9.4783
9.67286
9.86228
10.0465
10.2255
10.3992
10.5678
10.7312
10.8896
11.0433
11.1926
11.3391
11.4831
11.636
11.7738
-6.79106
-6.79304
-6.79538
-6.79733
-6.79868
-6.79967
-6.80057
-6.80154
-6.8027
-6.80414
-6.80591
-6.80804
-6.81058
-6.81355
-6.81697
-6.82088
-6.82529
-6.83025
-6.83576
-6.84188
-6.84862
-6.85601
-6.86409
-6.87287
-6.88239
-6.89268
-6.90376
-6.91567
-6.92842
-6.94205
-6.95657
-6.97201
-6.98846
-7.006
-7.02459
-7.0441
-7.06447
-7.0857
-7.10772
-7.13042
-7.15392
-7.17865
-7.20479
-7.2319
-7.25961
-7.28782
-7.31651
-7.34562
-7.3751
-7.40489
-7.43494
-7.4652
-7.49559
-7.52605
-7.55648
-7.58682
-7.61696
-7.64681
-7.67626
-7.7052
-7.73352
-7.76108
-7.78776
-7.81342
-7.83792
-7.86111
-7.88284
-7.90294
-7.92125
-7.93761
-7.95183
-7.96374
-7.97317
-7.97992
-7.98382
-7.98467
-7.98228
-7.97648
-7.96706
-7.95385
-7.93665
-7.91528
-7.88957
-7.85933
-7.82439
-7.78457
-7.73972
-7.68966
-7.63425
-7.57334
-7.50678
-7.43443
-7.35616
-7.27184
-7.18136
-7.0846
-6.98144
-6.87178
-6.75553
-6.63266
-6.50314
-6.36694
-6.22403
-6.07437
-5.91794
-5.75476
-5.58483
-5.40818
-5.22488
-5.03497
-4.83854
-4.63569
-4.42653
-4.21119
-3.98982
-3.76256
-3.52959
-3.2911
-3.0473
-2.79839
-2.5446
-2.28618
-2.02336
-1.75642
-1.48563
-1.21125
-0.933591
-0.652932
-0.369577
-0.0838315
0.203994
0.493586
0.784631
1.07681
1.36982
1.66333
1.95703
2.25063
2.5438
2.83626
3.1277
3.41785
3.70642
3.99315
4.27777
4.56004
4.83971
5.11655
5.39035
5.6609
5.92801
6.1915
6.45119
6.70694
6.95859
7.20601
7.44909
7.6877
7.92175
8.15116
8.37584
8.59574
8.8108
9.02094
9.2261
9.42621
9.62125
9.81118
9.99596
10.1755
10.3499
10.5192
10.6833
10.8424
10.9969
11.1472
11.2945
11.4386
11.5904
11.716
-6.78507
-6.78792
-6.79145
-6.79442
-6.79654
-6.79813
-6.79948
-6.8008
-6.80224
-6.80388
-6.80582
-6.80809
-6.81074
-6.81382
-6.81734
-6.82133
-6.82583
-6.83086
-6.83646
-6.84265
-6.84946
-6.85693
-6.86508
-6.87394
-6.88353
-6.8939
-6.90507
-6.91706
-6.92991
-6.94363
-6.95824
-6.97379
-6.9903
-7.00781
-7.02628
-7.04567
-7.06594
-7.0871
-7.1091
-7.13191
-7.1556
-7.18029
-7.20601
-7.23256
-7.25975
-7.2875
-7.31573
-7.34441
-7.37348
-7.40289
-7.43258
-7.46249
-7.49255
-7.52269
-7.55284
-7.5829
-7.61279
-7.64241
-7.67166
-7.70042
-7.72859
-7.75602
-7.7826
-7.80819
-7.83265
-7.85583
-7.87757
-7.89771
-7.9161
-7.93255
-7.94691
-7.95898
-7.96859
-7.97556
-7.97971
-7.98083
-7.97875
-7.97328
-7.96423
-7.95141
-7.93464
-7.91373
-7.8885
-7.85876
-7.82436
-7.78511
-7.74086
-7.69143
-7.63667
-7.57644
-7.51058
-7.43897
-7.36145
-7.27792
-7.18824
-7.0923
-6.99
-6.88123
-6.76593
-6.64404
-6.51551
-6.38031
-6.23839
-6.08974
-5.93432
-5.77216
-5.60325
-5.42763
-5.24535
-5.05647
-4.86107
-4.65924
-4.4511
-4.23678
-4.01641
-3.79014
-3.55816
-3.32065
-3.0778
-2.82983
-2.57697
-2.31944
-2.05751
-1.79142
-1.52145
-1.24788
-0.970989
-0.691072
-0.408428
-0.12336
0.163822
0.452806
0.743279
1.03493
1.32743
1.62048
1.91377
2.20698
2.49982
2.79197
3.08316
3.37309
3.66148
3.94807
4.23258
4.51478
4.79443
5.07128
5.34512
5.61575
5.88297
6.1466
6.40647
6.66242
6.9143
7.16197
7.40532
7.64423
7.8786
8.10836
8.3334
8.55367
8.76909
8.9796
9.1851
9.38552
9.58085
9.77109
9.95619
10.1361
10.3109
10.4805
10.645
10.8046
10.9595
11.1101
11.2574
11.4004
11.5493
11.6632
-6.77989
-6.7835
-6.78808
-6.79202
-6.79493
-6.79716
-6.79905
-6.80083
-6.80265
-6.80463
-6.80685
-6.80939
-6.81228
-6.81557
-6.8193
-6.8235
-6.8282
-6.83343
-6.83923
-6.84561
-6.85262
-6.86028
-6.86863
-6.8777
-6.88751
-6.89809
-6.90947
-6.92169
-6.93475
-6.94869
-6.96353
-6.97927
-6.99595
-7.01356
-7.03209
-7.05152
-7.07182
-7.09297
-7.11495
-7.13775
-7.16137
-7.18584
-7.21115
-7.23722
-7.26396
-7.29128
-7.31912
-7.34744
-7.37617
-7.40527
-7.43467
-7.46431
-7.49413
-7.52405
-7.55399
-7.58387
-7.6136
-7.64308
-7.67221
-7.70087
-7.72896
-7.75634
-7.78289
-7.80848
-7.83295
-7.85616
-7.87795
-7.89817
-7.91665
-7.93323
-7.94771
-7.95994
-7.96973
-7.97689
-7.98125
-7.9826
-7.98077
-7.97556
-7.96679
-7.95427
-7.93782
-7.91724
-7.89236
-7.86299
-7.82898
-7.79013
-7.74629
-7.69731
-7.64301
-7.58325
-7.51789
-7.44678
-7.36979
-7.28681
-7.19769
-7.10234
-7.00065
-6.89252
-6.77789
-6.65667
-6.52882
-6.3943
-6.25306
-6.10507
-5.95033
-5.78884
-5.62061
-5.44566
-5.26406
-5.07586
-4.88113
-4.67998
-4.47252
-4.25886
-4.03915
-3.81355
-3.58222
-3.34535
-3.10314
-2.8558
-2.60354
-2.34662
-2.08528
-1.81976
-1.55036
-1.27733
-1.00096
-0.721551
-0.439393
-0.154792
0.131945
0.420506
0.710578
1.00185
1.294
1.58673
1.87971
2.17265
2.46523
2.75716
3.04815
3.3379
3.62615
3.91262
4.19704
4.47917
4.75877
5.03561
5.30946
5.58013
5.84741
6.11111
6.37108
6.62714
6.87916
7.127
7.37053
7.60964
7.84423
8.07421
8.29949
8.51999
8.73564
8.94637
9.15209
9.35272
9.54825
9.73869
9.92401
10.1042
10.2792
10.449
10.6138
10.7736
10.9286
11.079
11.2258
11.3671
11.5129
11.6163
-6.77634
-6.78053
-6.78595
-6.7907
-6.79431
-6.79716
-6.79959
-6.80185
-6.8041
-6.80646
-6.80903
-6.81189
-6.81509
-6.81867
-6.82269
-6.82716
-6.83213
-6.83763
-6.84369
-6.85035
-6.85762
-6.86555
-6.87417
-6.8835
-6.89357
-6.90441
-6.91606
-6.92852
-6.94182
-6.95598
-6.97102
-6.98694
-7.00375
-7.02146
-7.04004
-7.05949
-7.07979
-7.10091
-7.12285
-7.14559
-7.16912
-7.19343
-7.21849
-7.24427
-7.2707
-7.29772
-7.32529
-7.35334
-7.38184
-7.41072
-7.43993
-7.4694
-7.49906
-7.52884
-7.55867
-7.58846
-7.61812
-7.64754
-7.67664
-7.70529
-7.73338
-7.76078
-7.78737
-7.813
-7.83754
-7.86083
-7.88272
-7.90305
-7.92165
-7.93835
-7.95299
-7.96537
-7.97532
-7.98265
-7.98718
-7.98872
-7.98709
-7.98208
-7.97352
-7.96122
-7.94499
-7.92464
-7.9
-7.87089
-7.83713
-7.79855
-7.75499
-7.70628
-7.65228
-7.59283
-7.52779
-7.45701
-7.38037
-7.29774
-7.209
-7.11403
-7.01274
-6.90504
-6.79083
-6.67005
-6.54263
-6.40852
-6.2677
-6.12014
-5.96582
-5.80474
-5.63692
-5.46239
-5.28121
-5.09342
-4.89911
-4.69838
-4.49133
-4.27809
-4.0588
-3.83361
-3.6027
-3.36624
-3.12443
-2.87749
-2.62564
-2.36911
-2.10815
-1.84302
-1.57399
-1.30132
-1.02532
-0.746254
-0.464434
-0.180159
0.106262
0.39452
0.684301
0.975293
1.26718
1.55966
1.85241
2.14513
2.43751
2.72926
3.02008
3.30968
3.5978
3.88415
4.16847
4.45052
4.73006
5.00685
5.28067
5.55132
5.8186
6.08233
6.34233
6.59845
6.85054
7.09847
7.3421
7.58132
7.81604
8.04615
8.27157
8.49221
8.70801
8.91887
9.12473
9.3255
9.52118
9.71177
9.89722
10.0775
10.2527
10.4227
10.5875
10.7474
10.9023
11.0524
11.1983
11.3376
11.4806
11.5749
-6.77489
-6.77947
-6.78547
-6.79083
-6.79502
-6.7984
-6.80132
-6.80403
-6.80669
-6.80943
-6.81237
-6.81556
-6.81908
-6.82298
-6.8273
-6.83208
-6.83735
-6.84314
-6.84949
-6.85644
-6.864
-6.87221
-6.88111
-6.89071
-6.90105
-6.91215
-6.92404
-6.93673
-6.95025
-6.9646
-6.97981
-6.99587
-7.01279
-7.03057
-7.04919
-7.06866
-7.08894
-7.11004
-7.13194
-7.15461
-7.17806
-7.20225
-7.22716
-7.25276
-7.279
-7.30585
-7.33325
-7.36116
-7.38952
-7.41828
-7.44739
-7.47678
-7.50638
-7.53613
-7.56593
-7.59572
-7.62538
-7.65484
-7.68398
-7.71268
-7.74084
-7.76833
-7.79501
-7.82075
-7.8454
-7.86881
-7.89083
-7.91129
-7.93002
-7.94687
-7.96164
-7.97416
-7.98426
-7.99174
-7.99641
-7.9981
-7.9966
-7.99174
-7.98332
-7.97116
-7.95507
-7.93486
-7.91036
-7.88139
-7.84777
-7.80934
-7.76593
-7.71738
-7.66354
-7.60426
-7.53938
-7.46879
-7.39234
-7.30991
-7.22137
-7.12662
-7.02556
-6.91808
-6.80411
-6.68355
-6.55636
-6.42248
-6.28188
-6.13453
-5.98042
-5.81955
-5.65194
-5.47763
-5.29665
-5.10908
-4.91499
-4.71448
-4.50766
-4.29464
-4.07558
-3.85063
-3.61995
-3.38372
-3.14216
-2.89545
-2.64384
-2.38755
-2.12684
-1.86195
-1.59316
-1.32074
-1.04497
-0.766144
-0.484557
-0.200512
0.0856833
0.37372
0.663285
0.954066
1.24575
1.53803
1.8306
2.12313
2.41534
2.70692
2.99759
3.28705
3.57503
3.86126
4.14547
4.42742
4.70686
4.98357
5.25733
5.52792
5.79516
6.05887
6.31886
6.57498
6.82708
7.07503
7.31869
7.55796
7.79273
8.0229
8.24839
8.46911
8.68498
8.89593
9.10187
9.30274
9.49852
9.68919
9.87474
10.0551
10.2304
10.4004
10.5653
10.725
10.8797
11.0293
11.1741
11.3113
11.4517
11.5381
-6.77571
-6.78051
-6.78685
-6.79261
-6.79722
-6.80101
-6.80433
-6.80742
-6.81045
-6.81354
-6.81679
-6.8203
-6.82413
-6.82832
-6.83293
-6.83799
-6.84354
-6.84961
-6.85623
-6.86344
-6.87127
-6.87974
-6.88888
-6.89873
-6.9093
-6.92062
-6.93272
-6.9456
-6.95929
-6.97379
-6.98912
-7.00529
-7.02228
-7.04012
-7.05877
-7.07825
-7.09854
-7.11962
-7.14149
-7.16412
-7.18752
-7.21164
-7.23647
-7.26199
-7.28815
-7.31491
-7.34224
-7.3701
-7.39842
-7.42716
-7.45626
-7.48566
-7.51529
-7.54508
-7.57494
-7.6048
-7.63456
-7.66411
-7.69336
-7.72218
-7.75047
-7.77809
-7.8049
-7.83078
-7.85557
-7.87913
-7.90129
-7.92189
-7.94076
-7.95774
-7.97264
-7.98528
-7.99549
-8.00308
-8.00785
-8.00963
-8.00822
-8.00344
-7.99509
-7.98299
-7.96695
-7.9468
-7.92234
-7.89341
-7.85984
-7.82144
-7.77807
-7.72956
-7.67576
-7.61651
-7.55169
-7.48115
-7.40476
-7.32239
-7.23393
-7.13925
-7.03827
-6.93087
-6.81696
-6.69647
-6.56934
-6.43552
-6.29497
-6.14767
-5.99361
-5.83279
-5.66524
-5.49098
-5.31006
-5.12256
-4.92854
-4.7281
-4.52136
-4.30843
-4.08946
-3.86461
-3.63403
-3.39792
-3.15648
-2.9099
-2.65842
-2.40227
-2.14169
-1.87695
-1.60831
-1.33605
-1.06044
-0.781782
-0.500362
-0.216486
0.069539
0.357403
0.646796
0.937405
1.22892
1.52103
1.81342
2.10579
2.39784
2.68926
2.97977
3.26908
3.55691
3.843
4.12708
4.4089
4.68822
4.96483
5.23848
5.50899
5.77615
6.03978
6.29971
6.55578
6.80784
7.05575
7.2994
7.53866
7.77343
8.00361
8.22912
8.44986
8.66575
8.87673
9.08271
9.28364
9.47947
9.67021
9.8558
10.0362
10.2115
10.3815
10.5463
10.7059
10.8602
11.0091
11.1527
11.2879
11.4259
11.5054
-6.77877
-6.78362
-6.79007
-6.79603
-6.8009
-6.80498
-6.80859
-6.81198
-6.81529
-6.81866
-6.82218
-6.82595
-6.83002
-6.83446
-6.8393
-6.84459
-6.85037
-6.85666
-6.8635
-6.87092
-6.87896
-6.88763
-6.89697
-6.907
-6.91774
-6.92923
-6.94147
-6.95449
-6.9683
-6.9829
-6.99832
-7.01456
-7.03161
-7.04948
-7.06816
-7.08766
-7.10795
-7.12904
-7.1509
-7.17354
-7.19692
-7.22103
-7.24586
-7.27136
-7.29752
-7.32429
-7.35164
-7.37952
-7.40789
-7.43669
-7.46587
-7.49536
-7.52509
-7.55499
-7.58499
-7.61498
-7.64488
-7.67458
-7.70399
-7.73297
-7.76142
-7.7892
-7.81618
-7.84221
-7.86716
-7.89086
-7.91315
-7.93388
-7.95287
-7.96995
-7.98494
-7.99767
-8.00795
-8.01559
-8.0204
-8.02221
-8.02081
-8.01603
-8.00767
-7.99555
-7.97949
-7.95929
-7.93479
-7.90581
-7.87218
-7.83372
-7.79028
-7.74171
-7.68784
-7.62854
-7.56366
-7.49306
-7.41662
-7.33421
-7.2457
-7.15099
-7.04996
-6.9425
-6.82853
-6.70797
-6.58077
-6.44687
-6.30625
-6.15888
-6.00474
-5.84386
-5.67624
-5.50192
-5.32096
-5.1334
-4.93935
-4.73888
-4.53212
-4.31919
-4.10022
-3.87538
-3.64483
-3.40875
-3.16734
-2.92082
-2.6694
-2.41333
-2.15284
-1.88819
-1.61965
-1.3475
-1.07201
-0.79348
-0.512194
-0.228459
0.0574181
0.34513
0.634366
0.924814
1.21616
1.5081
1.80032
2.09252
2.38439
2.67564
2.96597
3.25511
3.54277
3.82869
4.11261
4.39427
4.67345
4.9499
5.22342
5.49379
5.76083
6.02434
6.28416
6.54013
6.79211
7.03994
7.28352
7.52273
7.75745
7.98759
8.21306
8.43378
8.64966
8.86063
9.06662
9.26756
9.46342
9.65418
9.83979
10.0202
10.1954
10.3654
10.5301
10.6894
10.8432
10.9913
11.1338
11.267
11.4028
11.4764
-6.78389
-6.78863
-6.79501
-6.80098
-6.80595
-6.81018
-6.81398
-6.81755
-6.82105
-6.82461
-6.82831
-6.83226
-6.8365
-6.8411
-6.8461
-6.85155
-6.85747
-6.86391
-6.87089
-6.87845
-6.88662
-6.89542
-6.90488
-6.91502
-6.92588
-6.93746
-6.94979
-6.96289
-6.97677
-6.99144
-7.00691
-7.02318
-7.04027
-7.05817
-7.07688
-7.0964
-7.11672
-7.13783
-7.15972
-7.18239
-7.20581
-7.22997
-7.25484
-7.2804
-7.30663
-7.33348
-7.36092
-7.3889
-7.41739
-7.44631
-7.47563
-7.50527
-7.53516
-7.56523
-7.59539
-7.62556
-7.65564
-7.68553
-7.71511
-7.74427
-7.77289
-7.80083
-7.82796
-7.85414
-7.87921
-7.90303
-7.92543
-7.94624
-7.9653
-7.98243
-7.99746
-8.0102
-8.02048
-8.0281
-8.03288
-8.03463
-8.03317
-8.0283
-8.01985
-8.00762
-7.99143
-7.97111
-7.94647
-7.91735
-7.88356
-7.84496
-7.80137
-7.75264
-7.69862
-7.63917
-7.57414
-7.5034
-7.42682
-7.34428
-7.25564
-7.16078
-7.05959
-6.95197
-6.83783
-6.7171
-6.58973
-6.45567
-6.31488
-6.16734
-6.01305
-5.85201
-5.68425
-5.50979
-5.3287
-5.14104
-4.94688
-4.74633
-4.53949
-4.32649
-4.10747
-3.8826
-3.65202
-3.41594
-3.17454
-2.92804
-2.67666
-2.42063
-2.16021
-1.89564
-1.62719
-1.35513
-1.07975
-0.801345
-0.520198
-0.236612
0.049108
0.336655
0.625718
0.915988
1.20715
1.4989
1.79092
2.08292
2.37459
2.66563
2.95576
3.24469
3.53214
3.81786
4.10157
4.38304
4.66202
4.93828
5.21161
5.4818
5.74867
6.01202
6.27168
6.52751
6.77935
7.02706
7.27052
7.50962
7.74425
7.97431
8.19972
8.42037
8.63621
8.84714
9.0531
9.25403
9.44988
9.64063
9.82623
10.0066
10.1818
10.3517
10.5161
10.6751
10.8284
10.9756
11.1168
11.2481
11.3819
11.4507
-6.79076
-6.79529
-6.80143
-6.80726
-6.81218
-6.81643
-6.82029
-6.82394
-6.82752
-6.83115
-6.83494
-6.83896
-6.84327
-6.84794
-6.853
-6.8585
-6.86448
-6.87098
-6.87801
-6.88562
-6.89384
-6.90269
-6.91219
-6.92238
-6.93327
-6.94489
-6.95726
-6.97039
-6.9843
-6.99899
-7.01448
-7.03078
-7.0479
-7.06582
-7.08456
-7.10411
-7.12447
-7.14563
-7.16759
-7.19032
-7.21382
-7.23806
-7.26304
-7.28871
-7.31506
-7.34204
-7.36962
-7.39776
-7.4264
-7.4555
-7.48499
-7.51481
-7.54489
-7.57515
-7.6055
-7.63585
-7.66611
-7.69617
-7.72591
-7.75522
-7.78398
-7.81205
-7.83929
-7.86555
-7.8907
-7.91457
-7.937
-7.95782
-7.97687
-7.99397
-8.00895
-8.02162
-8.0318
-8.0393
-8.04395
-8.04555
-8.04393
-8.03888
-8.03023
-8.0178
-8.00141
-7.98087
-7.95601
-7.92665
-7.89264
-7.8538
-7.80999
-7.76103
-7.70679
-7.64712
-7.58188
-7.51094
-7.43416
-7.35142
-7.26256
-7.16747
-7.06603
-6.95816
-6.84378
-6.72281
-6.5952
-6.46091
-6.31989
-6.17214
-6.01764
-5.8564
-5.68845
-5.51383
-5.33258
-5.14477
-4.95048
-4.74982
-4.54288
-4.32981
-4.11073
-3.8858
-3.65521
-3.41912
-3.17773
-2.93126
-2.67993
-2.42396
-2.16361
-1.89914
-1.6308
-1.35887
-1.08363
-0.805369
-0.524388
-0.240981
0.0445496
0.331897
0.620751
0.910803
1.20174
1.49325
1.78503
2.07678
2.3682
2.65899
2.94886
3.23753
3.52473
3.81018
4.09364
4.37485
4.65358
4.92959
5.20268
5.47265
5.73928
6.00242
6.26188
6.51751
6.76916
7.01671
7.26001
7.49896
7.73346
7.9634
8.1887
8.40926
8.62501
8.83587
9.04178
9.24267
9.4385
9.62922
9.81478
9.99513
10.1702
10.3399
10.5041
10.6627
10.8155
10.9618
11.1017
11.2312
11.3631
11.4278
-6.79905
-6.8033
-6.80908
-6.81463
-6.81938
-6.82353
-6.82731
-6.8309
-6.83444
-6.83804
-6.84178
-6.84576
-6.85003
-6.85465
-6.85966
-6.86512
-6.87106
-6.87751
-6.8845
-6.89208
-6.90026
-6.90908
-6.91855
-6.92872
-6.93959
-6.95119
-6.96354
-6.97666
-6.99056
-7.00525
-7.02075
-7.03706
-7.05419
-7.07214
-7.09091
-7.11051
-7.13092
-7.15215
-7.17419
-7.19702
-7.22062
-7.24499
-7.27009
-7.2959
-7.3224
-7.34954
-7.37729
-7.40559
-7.43441
-7.46369
-7.49336
-7.52335
-7.5536
-7.58402
-7.61452
-7.64501
-7.6754
-7.70557
-7.73541
-7.7648
-7.79362
-7.82172
-7.84898
-7.87524
-7.90035
-7.92416
-7.94652
-7.96724
-7.98616
-8.00312
-8.01792
-8.0304
-8.04037
-8.04765
-8.05206
-8.0534
-8.0515
-8.04618
-8.03725
-8.02452
-8.00783
-7.98699
-7.96183
-7.93218
-7.89787
-7.85875
-7.81465
-7.76542
-7.71092
-7.65099
-7.58551
-7.51433
-7.43731
-7.35429
-7.26514
-7.16975
-7.06802
-6.95986
-6.84519
-6.72394
-6.59606
-6.4615
-6.32024
-6.17225
-6.01754
-5.8561
-5.68797
-5.51318
-5.33178
-5.14384
-4.94944
-4.74869
-4.54168
-4.32855
-4.10944
-3.8845
-3.65391
-3.41784
-3.17651
-2.93011
-2.67886
-2.423
-2.16278
-1.89845
-1.63027
-1.35851
-1.08346
-0.805415
-0.524658
-0.241489
0.0437907
0.330875
0.619455
0.909222
1.19987
1.49108
1.78255
2.07399
2.36508
2.65555
2.9451
3.23344
3.52031
3.80544
4.08857
4.36947
4.64788
4.92359
5.19638
5.46605
5.73241
5.99527
6.25447
6.50986
6.76128
7.0086
7.2517
7.49046
7.72478
7.95457
8.17972
8.40016
8.6158
8.82657
9.0324
9.23324
9.42901
9.61968
9.80519
9.98546
10.1604
10.3299
10.4939
10.6521
10.8042
10.9496
11.0883
11.2161
11.3462
11.4076
-6.80847
-6.81239
-6.81773
-6.82289
-6.82735
-6.83126
-6.83483
-6.83823
-6.84158
-6.84499
-6.84856
-6.85236
-6.85646
-6.86091
-6.86577
-6.87107
-6.87686
-6.88318
-6.89004
-6.8975
-6.90557
-6.91428
-6.92367
-6.93375
-6.94454
-6.95608
-6.96838
-6.98145
-6.99531
-7.00997
-7.02545
-7.04176
-7.0589
-7.07687
-7.09568
-7.11532
-7.1358
-7.15711
-7.17923
-7.20216
-7.22587
-7.25036
-7.27559
-7.30154
-7.32817
-7.35545
-7.38334
-7.41178
-7.44073
-7.47013
-7.49991
-7.53001
-7.56034
-7.59083
-7.62139
-7.65192
-7.68232
-7.71248
-7.74229
-7.77163
-7.80036
-7.82835
-7.85548
-7.88158
-7.90652
-7.93012
-7.95225
-7.97272
-7.99138
-8.00804
-8.02254
-8.0347
-8.04434
-8.05127
-8.05531
-8.0563
-8.05403
-8.04833
-8.03903
-8.02594
-8.00889
-7.98769
-7.96219
-7.93221
-7.89758
-7.85814
-7.81375
-7.76424
-7.70946
-7.64928
-7.58355
-7.51212
-7.4348
-7.35146
-7.26199
-7.16628
-7.06425
-6.95579
-6.84083
-6.71931
-6.59118
-6.45638
-6.31489
-6.1667
-6.0118
-5.85019
-5.68191
-5.507
-5.32549
-5.13747
-4.94301
-4.74221
-4.53519
-4.32207
-4.10299
-3.8781
-3.64758
-3.41162
-3.17041
-2.92415
-2.67307
-2.4174
-2.15738
-1.89327
-1.62533
-1.35384
-1.07907
-0.801318
-0.520871
-0.238027
0.0469144
0.333647
0.621866
0.91126
1.20152
1.49235
1.78343
2.07446
2.36515
2.65521
2.94435
3.23229
3.51875
3.80348
4.08622
4.36672
4.64475
4.92008
5.1925
5.46181
5.72782
5.99036
6.24924
6.50432
6.75546
7.00251
7.24536
7.48389
7.718
7.94759
8.17257
8.39286
8.60836
8.81902
9.02476
9.22552
9.42123
9.61184
9.79727
9.97745
10.1523
10.3216
10.4853
10.643
10.7945
10.939
11.0765
11.2026
11.3309
11.3898
-6.81878
-6.82235
-6.82721
-6.83191
-6.83595
-6.83947
-6.84267
-6.84571
-6.8487
-6.85177
-6.855
-6.85848
-6.86227
-6.86643
-6.87101
-6.87605
-6.88159
-6.88768
-6.89433
-6.90159
-6.90948
-6.91803
-6.92727
-6.93721
-6.94789
-6.95931
-6.97152
-6.98451
-6.9983
-7.01291
-7.02835
-7.04463
-7.06176
-7.07973
-7.09856
-7.11823
-7.13874
-7.16009
-7.18227
-7.20526
-7.22904
-7.25359
-7.27889
-7.3049
-7.33159
-7.35891
-7.38683
-7.4153
-7.44425
-7.47363
-7.50338
-7.53342
-7.56367
-7.59406
-7.62449
-7.65487
-7.68509
-7.71505
-7.74463
-7.77371
-7.80217
-7.82987
-7.85668
-7.88245
-7.90702
-7.93026
-7.95199
-7.97206
-7.99031
-8.00654
-8.02061
-8.03233
-8.04152
-8.04801
-8.05161
-8.05215
-8.04945
-8.04333
-8.03361
-8.02012
-8.00268
-7.98112
-7.95526
-7.92495
-7.89001
-7.85028
-7.80562
-7.75586
-7.70086
-7.64045
-7.57447
-7.50273
-7.42508
-7.34143
-7.25166
-7.15566
-7.05335
-6.94463
-6.82944
-6.7077
-6.57936
-6.44438
-6.30273
-6.1544
-5.99938
-5.83769
-5.66935
-5.49439
-5.31287
-5.12485
-4.93043
-4.72969
-4.52275
-4.30973
-4.09078
-3.86606
-3.63572
-3.39997
-3.15898
-2.91298
-2.66217
-2.4068
-2.1471
-1.88333
-1.61575
-1.34463
-1.07026
-0.792914
-0.51289
-0.230483
0.0540082
0.340279
0.628025
0.916938
1.20671
1.49704
1.78762
2.07815
2.36834
2.6579
2.94653
3.23397
3.51994
3.80417
4.08642
4.36645
4.64401
4.91889
5.19087
5.45975
5.72535
5.98749
6.246
6.50072
6.75152
6.99825
7.24081
7.47907
7.71293
7.94229
8.16707
8.38717
8.60253
8.81306
9.01869
9.21936
9.415
9.60553
9.79089
9.97097
10.1457
10.3148
10.4781
10.6354
10.7862
10.9299
11.0661
11.1908
11.3173
11.3743
-6.83026
-6.8335
-6.83787
-6.84202
-6.84549
-6.84843
-6.85103
-6.85347
-6.85589
-6.85839
-6.86109
-6.86406
-6.86738
-6.8711
-6.87527
-6.87993
-6.88512
-6.89088
-6.89724
-6.90422
-6.91186
-6.92017
-6.92919
-6.93894
-6.94943
-6.96069
-6.97274
-6.98559
-6.99926
-7.01375
-7.02909
-7.04528
-7.06232
-7.08021
-7.09896
-7.11856
-7.13901
-7.16029
-7.1824
-7.20531
-7.229
-7.25346
-7.27864
-7.30452
-7.33107
-7.35823
-7.38596
-7.41422
-7.44294
-7.47206
-7.50152
-7.53125
-7.56117
-7.5912
-7.62125
-7.65122
-7.68102
-7.71053
-7.73965
-7.76825
-7.79621
-7.8234
-7.84969
-7.87492
-7.89896
-7.92165
-7.94284
-7.96236
-7.98005
-7.99575
-8.00927
-8.02046
-8.02913
-8.0351
-8.03821
-8.03827
-8.03511
-8.02855
-8.01841
-8.00453
-7.98672
-7.96482
-7.93866
-7.90807
-7.87288
-7.83294
-7.7881
-7.73818
-7.683
-7.62236
-7.5561
-7.48407
-7.40615
-7.32225
-7.23225
-7.13604
-7.03354
-6.92466
-6.80932
-6.68745
-6.55902
-6.42397
-6.28228
-6.13393
-5.97892
-5.81727
-5.64898
-5.47411
-5.29271
-5.10484
-4.91059
-4.71005
-4.50334
-4.29058
-4.07191
-3.84749
-3.61749
-3.38209
-3.14149
-2.89589
-2.64552
-2.39059
-2.13137
-1.86809
-1.60102
-1.33043
-1.0566
-0.779818
-0.500368