/*--------------------------------*- C++ -*----------------------------------*\
  =========                 |
  \\      /  F ield         | OpenFOAM: The Open Source CFD Toolbox
   \\    /   O peration     | Website:  https://openfoam.org
    \\  /    A nd           | Version:  9
     \\/     M anipulation  |
\*---------------------------------------------------------------------------*/
FoamFile
{
    format      ascii;
    class       volVectorField;
    location    "0.19";
    object      U;
}
// * * * * * * * * * * * * * * * * * * * * * * * * * * * * * * * * * * * * * //

dimensions      [0 1 -1 0 0 0 0];

internalField   nonuniform List<vector> 
12225
(
(9.86107 -0.874318 0)
(9.67247 -0.700191 0)
(9.45896 -0.387591 0)
(9.22464 -0.188476 0)
(9.00345 -0.0843917 0)
(8.81034 -0.0328735 0)
(8.64504 -0.00754762 0)
(8.50402 0.00502869 0)
(8.38382 0.0113415 0)
(8.28091 0.0144789 0)
(8.1919 0.0159758 0)
(8.11392 0.0166477 0)
(8.04458 0.0169376 0)
(7.98206 0.017138 0)
(7.92344 0.0174417 0)
(7.86968 0.0185666 0)
(7.80008 0.0215443 0)
(7.77368 0.0301501 0)
(10.0547 0.263069 0)
(10.1201 0.360741 0)
(10.118 0.273822 0)
(10.0826 0.18709 0)
(10.0405 0.131165 0)
(9.9939 0.0969307 0)
(9.94008 0.0755621 0)
(9.88034 0.0617561 0)
(9.81776 0.0523522 0)
(9.75482 0.0455374 0)
(9.69297 0.0403688 0)
(9.63301 0.036386 0)
(9.57533 0.0333336 0)
(9.52031 0.0311937 0)
(9.46716 0.0298018 0)
(9.41836 0.030932 0)
(9.36688 0.0320517 0)
(9.34167 0.0525596 0)
(9.99919 0.0460871 0)
(10.0244 0.0342105 0)
(10.0538 0.0149515 0)
(10.0708 0.0218133 0)
(10.0778 0.036676 0)
(10.0783 0.0460134 0)
(10.0722 0.0499551 0)
(10.0602 0.0511477 0)
(10.0439 0.0510563 0)
(10.0245 0.0503425 0)
(10.0029 0.0493777 0)
(9.97987 0.0484084 0)
(9.95569 0.0475853 0)
(9.93087 0.0471436 0)
(9.90534 0.0471578 0)
(9.88016 0.0489699 0)
(9.85454 0.0517522 0)
(9.83459 0.0632164 0)
(9.9968 0.00642823 0)
(10.0085 0.0250193 0)
(10.0342 0.0389396 0)
(10.0528 0.0503047 0)
(10.0644 0.0571108 0)
(10.0731 0.059168 0)
(10.079 0.0588573 0)
(10.0816 0.057939 0)
(10.0815 0.0569347 0)
(10.0794 0.0559202 0)
(10.0757 0.0549485 0)
(10.0706 0.0541067 0)
(10.0643 0.053486 0)
(10.0571 0.0532814 0)
(10.049 0.0536283 0)
(10.0408 0.0554073 0)
(10.0328 0.0582842 0)
(10.0273 0.0647744 0)
(9.99922 0.00673782 0)
(10.0081 0.033575 0)
(10.0271 0.0460451 0)
(10.0418 0.0508476 0)
(10.0524 0.0539171 0)
(10.0622 0.0555068 0)
(10.0708 0.0558548 0)
(10.0774 0.0556727 0)
(10.0822 0.0553065 0)
(10.0856 0.0548479 0)
(10.088 0.0543714 0)
(10.0893 0.0539823 0)
(10.0898 0.0537908 0)
(10.0896 0.0539721 0)
(10.0889 0.0546787 0)
(10.0882 0.0564035 0)
(10.088 0.0589603 0)
(10.0896 0.0628412 0)
(10.0002 0.00907451 0)
(10.0078 0.0321261 0)
(10.0225 0.0419134 0)
(10.035 0.0456684 0)
(10.0448 0.0491292 0)
(10.0542 0.051667 0)
(10.063 0.0528078 0)
(10.0704 0.0531621 0)
(10.0766 0.0532055 0)
(10.0818 0.0531024 0)
(10.0862 0.0529448 0)
(10.09 0.052841 0)
(10.093 0.0529024 0)
(10.0957 0.0532729 0)
(10.098 0.054077 0)
(10.1004 0.0555574 0)
(10.1034 0.0575559 0)
(10.1077 0.059922 0)
(10.0003 0.00880106 0)
(10.0068 0.0275197 0)
(10.0189 0.0370855 0)
(10.0303 0.0417444 0)
(10.0395 0.0456663 0)
(10.0482 0.0484926 0)
(10.0566 0.049905 0)
(10.064 0.0505013 0)
(10.0705 0.0507676 0)
(10.0763 0.0508764 0)
(10.0814 0.0509147 0)
(10.086 0.0509829 0)
(10.0902 0.0511827 0)
(10.0941 0.0516246 0)
(10.0978 0.0523918 0)
(10.1016 0.0535774 0)
(10.1059 0.0550207 0)
(10.1113 0.0564027 0)
(10.0004 0.00783822 0)
(10.0057 0.0236971 0)
(10.016 0.0333724 0)
(10.0264 0.0385917 0)
(10.0351 0.0424881 0)
(10.0433 0.0452836 0)
(10.0512 0.0468402 0)
(10.0584 0.0476233 0)
(10.0649 0.0480581 0)
(10.0707 0.0483182 0)
(10.0761 0.0484914 0)
(10.0811 0.0486695 0)
(10.0858 0.0489412 0)
(10.0902 0.0493862 0)
(10.0946 0.0500492 0)
(10.0991 0.0509389 0)
(10.104 0.0518947 0)
(10.1095 0.052608 0)
(10.0004 0.00695241 0)
(10.0049 0.0207107 0)
(10.0136 0.0300393 0)
(10.023 0.0354066 0)
(10.0312 0.0391927 0)
(10.0389 0.0419551 0)
(10.0464 0.043648 0)
(10.0534 0.044597 0)
(10.0597 0.0451668 0)
(10.0656 0.045539 0)
(10.071 0.0458058 0)
(10.0761 0.0460502 0)
(10.081 0.0463461 0)
(10.0857 0.0467481 0)
(10.0904 0.0472718 0)
(10.0952 0.0478837 0)
(10.1002 0.0484374 0)
(10.1057 0.0486925 0)
(10.0004 0.00616586 0)
(10.0042 0.0181259 0)
(10.0116 0.026803 0)
(10.0199 0.0321454 0)
(10.0277 0.035856 0)
(10.035 0.038588 0)
(10.042 0.0403746 0)
(10.0487 0.0414493 0)
(10.055 0.0421221 0)
(10.0607 0.0425763 0)
(10.0662 0.0429059 0)
(10.0713 0.0431844 0)
(10.0763 0.0434716 0)
(10.0811 0.0438031 0)
(10.0859 0.0441765 0)
(10.0908 0.0445431 0)
(10.0958 0.0447803 0)
(10.1011 0.0447218 0)
(10.0003 0.00542932 0)
(10.0036 0.015804 0)
(10.0099 0.0237182 0)
(10.0173 0.0289177 0)
(10.0245 0.0325373 0)
(10.0314 0.0352032 0)
(10.0381 0.0370241 0)
(10.0445 0.0381805 0)
(10.0506 0.0389276 0)
(10.0563 0.0394386 0)
(10.0616 0.0398065 0)
(10.0668 0.0400954 0)
(10.0718 0.0403529 0)
(10.0766 0.0406018 0)
(10.0814 0.040831 0)
(10.0863 0.0409922 0)
(10.0912 0.0409903 0)
(10.0962 0.040721 0)
(10.0003 0.00477711 0)
(10.0031 0.0138596 0)
(10.0086 0.0210452 0)
(10.0152 0.0260121 0)
(10.0219 0.0295048 0)
(10.0284 0.0320764 0)
(10.0348 0.0338839 0)
(10.041 0.0350778 0)
(10.0469 0.0358665 0)
(10.0525 0.0364077 0)
(10.0578 0.0367905 0)
(10.0629 0.0370717 0)
(10.0678 0.0372897 0)
(10.0727 0.03746 0)
(10.0774 0.0375698 0)
(10.0822 0.0375782 0)
(10.0869 0.0374145 0)
(10.0917 0.0370187 0)
(10.0003 0.00417088 0)
(10.0028 0.0120932 0)
(10.0075 0.0185321 0)
(10.0134 0.023176 0)
(10.0197 0.0264991 0)
(10.0258 0.0289527 0)
(10.0319 0.0307127 0)
(10.0378 0.0319118 0)
(10.0435 0.0327191 0)
(10.049 0.0332725 0)
(10.0542 0.0336554 0)
(10.0592 0.0339182 0)
(10.0641 0.0340925 0)
(10.0689 0.0341898 0)
(10.0736 0.0341988 0)
(10.0783 0.0340882 0)
(10.0828 0.0338075 0)
(10.0874 0.0333297 0)
(10.0003 0.00353928 0)
(10.0024 0.0102557 0)
(10.0064 0.015841 0)
(10.0117 0.0200308 0)
(10.0174 0.0230966 0)
(10.0232 0.0253735 0)
(10.0289 0.0270344 0)
(10.0345 0.0281968 0)
(10.04 0.0289925 0)
(10.0453 0.0295353 0)
(10.0504 0.0298994 0)
(10.0554 0.0301292 0)
(10.0602 0.0302504 0)
(10.0649 0.0302724 0)
(10.0695 0.0301877 0)
(10.074 0.0299764 0)
(10.0784 0.029607 0)
(10.0827 0.0290768 0)
(10.0002 0.00288068 0)
(10.002 0.00834613 0)
(10.0055 0.012982 0)
(10.0101 0.0165829 0)
(10.0153 0.0192819 0)
(10.0206 0.0213048 0)
(10.026 0.0228002 0)
(10.0313 0.0238688 0)
(10.0366 0.0246089 0)
(10.0417 0.0251087 0)
(10.0467 0.0254296 0)
(10.0515 0.0256092 0)
(10.0562 0.0256689 0)
(10.0608 0.0256174 0)
(10.0652 0.0254524 0)
(10.0696 0.0251649 0)
(10.0737 0.0247385 0)
(10.0778 0.0241871 0)
(10.0002 0.00219538 0)
(10.0017 0.00636514 0)
(10.0047 0.00996017 0)
(10.0088 0.0128334 0)
(10.0134 0.0150377 0)
(10.0183 0.0167084 0)
(10.0233 0.0179558 0)
(10.0284 0.018858 0)
(10.0334 0.0194849 0)
(10.0383 0.0198987 0)
(10.0431 0.0201461 0)
(10.0478 0.0202567 0)
(10.0523 0.020248 0)
(10.0567 0.0201288 0)
(10.061 0.0199011 0)
(10.0651 0.0195643 0)
(10.0691 0.0191126 0)
(10.073 0.0185686 0)
(10.0002 0.00148023 0)
(10.0015 0.00429606 0)
(10.0041 0.00675296 0)
(10.0077 0.00875861 0)
(10.0119 0.0103276 0)
(10.0164 0.0115296 0)
(10.021 0.0124312 0)
(10.0258 0.0130832 0)
(10.0306 0.0135289 0)
(10.0353 0.0138067 0)
(10.0399 0.0139466 0)
(10.0444 0.013969 0)
(10.0487 0.0138868 0)
(10.053 0.0137076 0)
(10.0571 0.0134361 0)
(10.061 0.0130757 0)
(10.0648 0.0126267 0)
(10.0684 0.0121138 0)
(10.0001 0.000717549 0)
(10.0013 0.00208293 0)
(10.0037 0.00328087 0)
(10.0069 0.00427018 0)
(10.0108 0.00505325 0)
(10.015 0.00565476 0)
(10.0194 0.0060997 0)
(10.024 0.00640815 0)
(10.0285 0.00659785 0)
(10.033 0.00668463 0)
(10.0374 0.00668102 0)
(10.0418 0.00659586 0)
(10.046 0.00643524 0)
(10.05 0.00620365 0)
(10.0539 0.00590473 0)
(10.0577 0.00554258 0)
(10.0613 0.00511893 0)
(10.0647 0.00465643 0)
(10.0001 -0.000139371 0)
(10.0013 -0.000406408 0)
(10.0035 -0.00064525 0)
(10.0067 -0.000843234 0)
(10.0104 -0.000997739 0)
(10.0145 -0.00112252 0)
(10.0188 -0.00123676 0)
(10.0232 -0.00135431 0)
(10.0276 -0.00148386 0)
(10.032 -0.00163262 0)
(10.0363 -0.00180718 0)
(10.0405 -0.00201259 0)
(10.0446 -0.00225216 0)
(10.0485 -0.00252771 0)
(10.0523 -0.00283982 0)
(10.0559 -0.00318742 0)
(10.0593 -0.00357051 0)
(10.0626 -0.00397219 0)
(10.0001 -0.000963337 0)
(10.0014 -0.0028067 0)
(10.0038 -0.00443708 0)
(10.0071 -0.00577236 0)
(10.0111 -0.0068062 0)
(10.0153 -0.00760005 0)
(10.0197 -0.00822083 0)
(10.0242 -0.00871381 0)
(10.0287 -0.00911352 0)
(10.0331 -0.00945201 0)
(10.0374 -0.00975585 0)
(10.0415 -0.0100437 0)
(10.0456 -0.0103281 0)
(10.0494 -0.0106177 0)
(10.0531 -0.0109184 0)
(10.0566 -0.0112332 0)
(10.06 -0.011565 0)
(10.0632 -0.0119026 0)
(10.0002 -0.00167725 0)
(10.0015 -0.00491001 0)
(10.0042 -0.0077599 0)
(10.0079 -0.0100236 0)
(10.0123 -0.0117165 0)
(10.0168 -0.0129952 0)
(10.0215 -0.0139774 0)
(10.0261 -0.0147226 0)
(10.0308 -0.0152849 0)
(10.0352 -0.0157233 0)
(10.0396 -0.0160849 0)
(10.0438 -0.0164 0)
(10.0478 -0.016688 0)
(10.0516 -0.0169631 0)
(10.0553 -0.0172349 0)
(10.0588 -0.0175093 0)
(10.0621 -0.0177906 0)
(10.0653 -0.0180714 0)
(10.0002 -0.00235918 0)
(10.0017 -0.00699868 0)
(10.0048 -0.0110959 0)
(10.0092 -0.0141928 0)
(10.0141 -0.0163832 0)
(10.019 -0.0180047 0)
(10.0239 -0.0192377 0)
(10.0289 -0.0201463 0)
(10.0337 -0.0208028 0)
(10.0383 -0.0212896 0)
(10.0427 -0.0216683 0)
(10.047 -0.0219771 0)
(10.051 -0.0222422 0)
(10.0549 -0.0224828 0)
(10.0585 -0.022712 0)
(10.062 -0.0229378 0)
(10.0653 -0.0231653 0)
(10.0685 -0.0233895 0)
(10.0002 -0.00299477 0)
(10.0018 -0.00910759 0)
(10.0056 -0.0144776 0)
(10.0108 -0.0183196 0)
(10.0164 -0.0209363 0)
(10.0217 -0.0228278 0)
(10.027 -0.0241887 0)
(10.0322 -0.0251248 0)
(10.0372 -0.0257737 0)
(10.042 -0.0262469 0)
(10.0465 -0.0266046 0)
(10.0508 -0.0268818 0)
(10.0549 -0.0271072 0)
(10.0587 -0.0273036 0)
(10.0624 -0.0274857 0)
(10.0659 -0.027662 0)
(10.0692 -0.0278378 0)
(10.0723 -0.0280099 0)
(10.0001 -0.00357083 0)
(10.0019 -0.0115385 0)
(10.0064 -0.0179309 0)
(10.0127 -0.0220561 0)
(10.0189 -0.0250371 0)
(10.0248 -0.027335 0)
(10.0304 -0.0288743 0)
(10.0359 -0.0297845 0)
(10.0411 -0.0303425 0)
(10.046 -0.0307262 0)
(10.0506 -0.0310018 0)
(10.055 -0.0312013 0)
(10.0591 -0.0313542 0)
(10.063 -0.0314839 0)
(10.0667 -0.0316041 0)
(10.0701 -0.0317219 0)
(10.0734 -0.0318406 0)
(10.0765 -0.0319563 0)
(9.99997 -0.00369066 0)
(10.0018 -0.0151822 0)
(10.0076 -0.0226537 0)
(10.0148 -0.0259832 0)
(10.0214 -0.028545 0)
(10.0277 -0.0310057 0)
(10.034 -0.0327825 0)
(10.04 -0.03382 0)
(10.0455 -0.0344194 0)
(10.0505 -0.0347894 0)
(10.0553 -0.0350136 0)
(10.0597 -0.0351406 0)
(10.0638 -0.0352128 0)
(10.0676 -0.0352597 0)
(10.0711 -0.0352977 0)
(10.0744 -0.0353352 0)
(10.0775 -0.0353757 0)
(10.0804 -0.0354169 0)
(9.99898 -0.00130981 0)
(9.99999 -0.0179758 0)
(10.0085 -0.029072 0)
(10.0174 -0.0326965 0)
(10.0244 -0.0341192 0)
(10.0312 -0.0353441 0)
(10.0382 -0.0362895 0)
(10.0448 -0.0369303 0)
(10.0507 -0.0373793 0)
(10.0559 -0.0376766 0)
(10.0606 -0.0378368 0)
(10.0647 -0.037896 0)
(10.0684 -0.0378954 0)
(10.0717 -0.0378645 0)
(10.0746 -0.0378214 0)
(10.0771 -0.0377776 0)
(10.0794 -0.0377365 0)
(10.0814 -0.0376973 0)
(9.99528 0.0038685 0)
(9.99333 -0.0103128 0)
(10.007 -0.0271048 0)
(10.0212 -0.0389274 0)
(10.0311 -0.0448648 0)
(10.0391 -0.0464705 0)
(10.0466 -0.045986 0)
(10.0529 -0.045028 0)
(10.058 -0.0441517 0)
(10.062 -0.0433782 0)
(10.0651 -0.042664 0)
(10.0674 -0.0420063 0)
(10.069 -0.0414115 0)
(10.0699 -0.0408793 0)
(10.0703 -0.0404072 0)
(10.0703 -0.0399944 0)
(10.07 -0.0396311 0)
(10.0693 -0.0392907 0)
(9.99144 -0.0172937 0)
(9.99189 0.000364853 0)
(10.01 0.0176644 0)
(10.0295 0.0115868 0)
(10.0441 -0.00511085 0)
(10.0541 -0.0188273 0)
(10.06 -0.027174 0)
(10.0622 -0.0320514 0)
(10.0617 -0.0349334 0)
(10.059 -0.0365392 0)
(10.0549 -0.0373167 0)
(10.0495 -0.0375907 0)
(10.0431 -0.0375743 0)
(10.0361 -0.037397 0)
(10.0285 -0.0371425 0)
(10.0206 -0.0368719 0)
(10.0125 -0.0366409 0)
(10.0043 -0.036418 0)
(10.0236 -0.206008 0)
(10.0684 -0.312339 0)
(10.0788 -0.255593 0)
(10.0704 -0.184178 0)
(10.0605 -0.134902 0)
(10.0499 -0.102727 0)
(10.0342 -0.0811671 0)
(10.0129 -0.066621 0)
(9.98777 -0.0566296 0)
(9.96053 -0.0494742 0)
(9.93231 -0.0441172 0)
(9.9038 -0.0399692 0)
(9.8755 -0.0366718 0)
(9.84774 -0.0339922 0)
(9.82076 -0.0317826 0)
(9.79468 -0.0299794 0)
(9.76973 -0.0285524 0)
(9.74595 -0.0278179 0)
(9.94226 0.671595 0)
(9.87995 0.567455 0)
(9.77444 0.338466 0)
(9.63237 0.183319 0)
(9.48762 0.0949055 0)
(9.3565 0.0470825 0)
(9.24093 0.0212976 0)
(9.13941 0.00707604 0)
(9.05046 -0.000983433 0)
(8.97246 -0.00562471 0)
(8.90368 -0.00831393 0)
(8.8426 -0.00987619 0)
(8.78795 -0.0107817 0)
(8.73876 -0.0112993 0)
(8.69419 -0.0115899 0)
(8.65355 -0.011778 0)
(8.61599 -0.0119575 0)
(8.58112 -0.0124893 0)
(0.00475834 -0.0114696 -3.54039e-20)
(0.0151014 -0.0155569 3.49026e-20)
(0.0228354 -0.011626 0)
(0.0266115 -0.00497332 0)
(0.0256834 0.00170893 0)
(0.0207028 0.007064 -3.25679e-20)
(0.0126234 0.0107875 0)
(0.00223734 0.0131643 0)
(-0.00981472 0.0146591 0)
(-0.0231206 0.0156532 0)
(-0.0374408 0.0163852 2.95727e-20)
(-0.0526157 0.0169927 0)
(-0.0685562 0.0175467 0)
(-0.0852125 0.0180793 0)
(-0.102554 0.0186021 0)
(-0.12056 0.0191174 2.64277e-20)
(-0.139214 0.019623 0)
(-0.158498 0.0201158 0)
(-0.178396 0.0205921 0)
(-0.19889 0.0210479 0)
(-0.219962 0.0214787 0)
(-0.241589 0.0218787 0)
(-0.263747 0.0222428 0)
(-0.286411 0.0225698 2.27233e-20)
(-0.309558 0.0228666 -2.2371e-20)
(-0.333168 0.0231457 2.20425e-20)
(-0.357229 0.0234106 2.17374e-20)
(-0.381716 0.0236539 0)
(-0.406579 0.0239274 0)
(-0.431871 0.0245458 -2.09624e-20)
(-0.457901 0.0261782 -2.07507e-20)
(-0.484924 0.0287315 0)
(-0.512653 0.0295835 0)
(-0.540584 0.0272063 -2.02054e-20)
(-0.568378 0.026599 0)
(-0.596625 0.0310843 0)
(-0.626601 0.0378979 1.97112e-20)
(-0.658411 0.0426458 0)
(-0.69167 0.0431791 1.94236e-20)
(-0.726627 0.0468939 3.8523e-20)
(-0.76328 0.0617033 0)
(-0.802553 0.0601302 0)
(-0.841802 0.0447066 0)
(-0.877589 0.0333281 0)
(-0.913398 0.028266 0)
(-0.949653 0.0318737 4.04306e-20)
(-0.988337 0.0328113 3.99814e-20)
(-1.02768 0.0334467 3.95397e-20)
(-1.06765 0.0337503 0)
(-1.10798 0.0338632 -3.86866e-20)
(-1.14855 0.03385 0)
(-1.18926 0.0337517 3.78778e-20)
(-1.23003 0.0335932 3.74897e-20)
(-1.27081 0.0333898 0)
(-1.31157 0.0331513 0)
(-1.35226 0.0328837 0)
(-1.39285 0.0325907 3.6034e-20)
(-1.43331 0.0322747 0)
(-1.47361 0.0319368 0)
(-1.51373 0.0315778 0)
(-1.55363 0.0311977 0)
(-1.59328 0.0307965 0)
(-1.63264 0.030374 0)
(-1.6717 0.0299299 0)
(-1.71041 0.0294639 0)
(-1.74875 0.0289758 -3.3155e-20)
(-1.78666 0.0284653 0)
(-1.82413 0.0279323 0)
(-1.86111 0.0273769 3.22581e-20)
(-1.89757 0.026799 3.19609e-20)
(-1.93346 0.026199 0)
(-1.96875 0.0255771 -3.13659e-20)
(-2.0034 0.0249337 3.10668e-20)
(-2.03737 0.0242694 0)
(-2.07063 0.0235847 -3.0463e-20)
(-2.10313 0.0228803 0)
(-2.13483 0.0221569 0)
(-2.16571 0.0214154 2.95346e-20)
(-2.19571 0.0206566 0)
(-2.22481 0.0198813 -2.88945e-20)
(-2.25296 0.0190903 0)
(-2.28013 0.0182844 2.82328e-20)
(-2.30629 0.0174643 2.78926e-20)
(-2.33141 0.0166306 2.75456e-20)
(-2.35543 0.0157837 5.43826e-20)
(-2.37834 0.0149238 -5.36586e-20)
(-2.4001 0.0140507 0)
(-2.42068 0.0131637 0)
(-2.44003 0.0122616 0)
(-2.45814 0.0113424 -5.05932e-20)
(-2.47495 0.0104032 -4.97807e-20)
(-2.49044 0.00944 4.89485e-20)
(-2.50455 0.008448 0)
(-2.51726 0.00742166 -4.72228e-20)
(-2.52848 0.00635415 -4.63284e-20)
(-2.53817 0.00523942 -4.54126e-20)
(-2.54625 0.00407847 0)
(-2.55264 0.00289166 0)
(-2.55722 0.00172666 0)
(-2.55986 0.000644493 -4.15292e-20)
(-2.5608 -0.000306739 0)
(-2.56033 -0.00115228 0)
(-2.55837 -0.00196995 3.83448e-20)
(-2.55496 -0.00277504 0)
(-2.55008 -0.00357395 0)
(-2.54372 -0.00436781 3.49254e-20)
(-2.53588 -0.00515655 0)
(-2.52654 -0.00593954 0)
(-2.51569 -0.00671598 -3.12671e-20)
(-2.50333 -0.00748501 -2.99948e-20)
(-2.48946 -0.00824577 0)
(-2.47408 -0.00899741 2.73718e-20)
(-2.45717 -0.00973907 0)
(-2.43875 -0.0104699 -2.4646e-20)
(-2.41882 -0.0111892 0)
(-2.39738 -0.0118961 -2.18207e-20)
(-2.37444 -0.0125898 -2.03719e-20)
(-2.35002 -0.0132695 0)
(-2.32412 -0.0139347 0)
(-2.29675 -0.0145844 0)
(-2.26794 -0.0152181 0)
(-2.23769 -0.0158351 0)
(-2.20603 -0.0164347 0)
(-2.17298 -0.0170166 0)
(-2.13857 -0.01758 -8.00208e-21)
(-2.10281 -0.0181245 6.37087e-21)
(-2.06573 -0.0186495 0)
(-2.02736 -0.0191547 0)
(-1.98773 -0.0196396 0)
(-1.94688 -0.0201037 0)
(-1.90483 -0.0205467 -3.99497e-21)
(-1.86161 -0.0209683 0)
(-1.81727 -0.0213684 1.08435e-20)
(-1.77184 -0.0217466 -1.42907e-20)
(-1.72536 -0.0221028 0)
(-1.67786 -0.0224369 0)
(-1.62939 -0.0227488 0)
(-1.57999 -0.0230384 2.81693e-20)
(-1.52969 -0.0233058 3.16476e-20)
(-1.47855 -0.0235512 0)
(-1.4266 -0.0237746 3.85951e-20)
(-1.37389 -0.0239762 4.20587e-20)
(-1.32045 -0.0241562 -4.55117e-20)
(-1.26634 -0.024315 0)
(-1.2116 -0.0244529 0)
(-1.15627 -0.0245705 -5.57799e-20)
(-1.10038 -0.0246682 0)
(-1.04399 -0.0247464 0)
(-0.98714 -0.0248059 0)
(-0.929862 -0.0248473 0)
(-0.872199 -0.0248713 7.24297e-20)
(-0.814189 -0.0248786 7.56672e-20)
(-0.75587 -0.0248702 0)
(-0.697275 -0.0248469 8.20309e-20)
(-0.638439 -0.0248095 0)
(-0.579393 -0.024759 0)
(-0.520168 -0.0246963 9.12663e-20)
(-0.460793 -0.0246221 0)
(-0.401293 -0.0245371 9.71937e-20)
(-0.341695 -0.0244412 0)
(-0.282026 -0.0243344 0)
(-0.222312 -0.0242136 1.05706e-19)
(-0.162582 -0.0240716 0)
(-0.102867 -0.0239046 1.11112e-19)
(-0.0431863 -0.0237056 0)
(0.0164003 -0.023416 0)
(0.0757923 -0.0230317 0)
(0.135077 -0.02265 -1.17689e-19)
(0.194252 -0.0222926 0)
(0.253328 -0.021952 1.19201e-19)
(0.312311 -0.0216182 0)
(0.371186 -0.0212806 0)
(0.429906 -0.0209247 0)
(0.488362 -0.020527 0)
(0.546376 -0.0200417 0)
(0.603441 -0.0193764 0)
(0.659133 -0.0182837 0)
(0.709354 -0.0161323 -2.45734e-19)
(0.758167 -0.0112825 0)
(0.760136 0.00635883 0)
(0.00363932 -0.030072 1.05152e-19)
(0.00688896 -0.0258383 -1.00656e-19)
(0.00519293 -0.0129599 0)
(0.00109112 -7.92195e-05 6.05454e-20)
(-0.00506657 0.0115038 0)
(-0.0132016 0.0211761 2.83441e-20)
(-0.0232375 0.0287864 -5.52004e-20)
(-0.0350525 0.0345463 -5.3843e-20)
(-0.0484811 0.0388563 0)
(-0.0633271 0.0421407 -5.12809e-20)
(-0.0793992 0.0447416 -2.50431e-20)
(-0.0965376 0.046901 0)
(-0.114621 0.0487771 0)
(-0.133563 0.0504666 0)
(-0.153305 0.0520253 0)
(-0.173808 0.0534841 -2.2331e-20)
(-0.195047 0.0548594 0)
(-0.217011 0.0561594 4.2799e-20)
(-0.239692 0.0573883 0)
(-0.263091 0.0585481 0)
(-0.287215 0.0596398 -4.04189e-20)
(-0.312075 0.0606649 0)
(-0.337691 0.061627 3.90655e-20)
(-0.364091 0.0625344 -1.92521e-20)
(-0.391313 0.0634009 1.89728e-20)
(-0.419404 0.0642402 -1.8717e-20)
(-0.448416 0.0650563 -1.84852e-20)
(-0.478415 0.065846 0)
(-0.509496 0.0666315 0)
(-0.541726 0.0675116 1.79469e-20)
(-0.574991 0.0686476 -1.77643e-20)
(-0.609086 0.0700138 0)
(-0.644262 0.0710657 0)
(-0.681146 0.0713812 1.75719e-20)
(-0.719633 0.0717336 0)
(-0.758932 0.0727936 0)
(-0.798464 0.074275 -1.72436e-20)
(-0.838342 0.0757836 0)
(-0.878999 0.0771514 1.69502e-20)
(-0.91959 0.0782313 -3.38508e-20)
(-0.958705 0.0793313 0)
(-0.997414 0.081118 0)
(-1.03659 0.0826896 -6.63068e-20)
(-1.07778 0.0839558 -6.55655e-20)
(-1.1189 0.0851518 -6.47947e-20)
(-1.15913 0.0863611 3.19311e-20)
(-1.19807 0.0869138 -3.17258e-20)
(-1.23636 0.0870006 -9.39581e-20)
(-1.27425 0.0867796 6.19014e-20)
(-1.31182 0.0863385 3.0692e-20)
(-1.34912 0.0857409 0)
(-1.38618 0.085028 -3.00532e-20)
(-1.42298 0.0842274 2.95983e-20)
(-1.45952 0.083357 0)
(-1.49581 0.0824288 0)
(-1.53181 0.0814503 0)
(-1.56751 0.0804259 -2.85979e-20)
(-1.6029 0.0793584 0)
(-1.63797 0.078249 5.59715e-20)
(-1.67268 0.0770982 0)
(-1.70701 0.0759058 5.49358e-20)
(-1.74096 0.0746714 0)
(-1.77448 0.0733945 -5.39308e-20)
(-1.80756 0.0720745 0)
(-1.84017 0.0707109 5.29486e-20)
(-1.87228 0.0693032 -2.61604e-20)
(-1.90388 0.0678513 0)
(-1.93492 0.0663552 -5.15013e-20)
(-1.96538 0.0648151 -2.55793e-20)
(-1.99523 0.0632314 -2.53385e-20)
(-2.02445 0.0616047 0)
(-2.053 0.059936 -2.47264e-20)
(-2.08086 0.0582263 -2.46109e-20)
(-2.10799 0.0564769 0)
(-2.13436 0.0546892 2.41174e-20)
(-2.15996 0.0528649 -4.76195e-20)
(-2.18474 0.0510056 0)
(-2.20868 0.0491133 -2.33561e-20)
(-2.23175 0.0471897 0)
(-2.25392 0.0452369 6.83933e-20)
(-2.27516 0.0432568 0)
(-2.29545 0.0412514 -6.67696e-20)
(-2.31476 0.0392225 -2.20053e-20)
(-2.33307 0.037172 2.16439e-20)
(-2.35033 0.0351014 4.27159e-20)
(-2.36654 0.0330123 -4.21318e-20)
(-2.38167 0.0309058 0)
(-2.39568 0.0287827 0)
(-2.40856 0.0266435 0)
(-2.42028 0.0244882 1.19141e-19)
(-2.43081 0.0223162 3.90724e-20)
(-2.44014 0.0201261 -3.83898e-20)
(-2.44825 0.0179159 0)
(-2.45511 0.0156835 -3.69557e-20)
(-2.46073 0.0134256 3.62439e-20)
(-2.4651 0.0111379 3.54949e-20)
(-2.46825 0.00881852 0)
(-2.47023 0.00647973 0)
(-2.47113 0.00416446 0)
(-2.47106 0.00193229 3.23135e-20)
(-2.46987 -0.000190443 0)
(-2.46731 -0.00222804 -6.12935e-20)
(-2.46337 -0.00422944 -8.92601e-20)
(-2.458 -0.00620727 5.77551e-20)
(-2.45119 -0.00816718 0)
(-2.44292 -0.0101094 2.7113e-20)
(-2.43318 -0.0120324 0)
(-2.42197 -0.0139343 5.02419e-20)
(-2.40927 -0.0158128 -2.42381e-20)
(-2.39507 -0.0176654 -2.3244e-20)
(-2.37938 -0.01949 0)
(-2.36219 -0.0212843 -6.31104e-20)
(-2.3435 -0.0230461 4.00496e-20)
(-2.32331 -0.0247734 1.88143e-20)
(-2.30163 -0.0264643 0)
(-2.27846 -0.0281168 1.6611e-20)
(-2.25381 -0.029729 4.6784e-20)
(-2.2277 -0.0312992 0)
(-2.20012 -0.0328258 2.67408e-20)
(-2.1711 -0.034307 2.4421e-20)
(-2.14064 -0.0357413 2.20753e-20)
(-2.10877 -0.0371274 0)
(-2.07551 -0.0384639 0)
(-2.04088 -0.0397497 0)
(-2.00489 -0.0409837 -6.44386e-21)
(-1.96758 -0.0421649 -4.78306e-21)
(-1.92897 -0.0432926 0)
(-1.88908 -0.0443658 -5.04589e-21)
(-1.84795 -0.0453837 -2.54466e-21)
(-1.80561 -0.0463459 0)
(-1.76209 -0.0472516 2.97936e-21)
(-1.71742 -0.0481007 1.00491e-20)
(-1.67164 -0.048893 -8.06601e-21)
(-1.62479 -0.0496285 -9.59766e-21)
(-1.57689 -0.050307 0)
(-1.528 -0.0509289 0)
(-1.47815 -0.0514942 0)
(-1.42738 -0.0520034 -2.08249e-20)
(-1.37573 -0.0524569 2.22969e-20)
(-1.32325 -0.0528557 5.07322e-20)
(-1.26997 -0.0532004 -2.84337e-20)
(-1.21594 -0.0534921 2.98607e-20)
(-1.1612 -0.0537315 3.34556e-20)
(-1.1058 -0.0539201 0)
(-1.04977 -0.0540591 0)
(-0.993164 -0.0541501 -3.97768e-20)
(-0.936019 -0.0541946 0)
(-0.878378 -0.0541943 0)
(-0.820282 -0.0541509 9.51463e-20)
(-0.76177 -0.0540667 0)
(-0.702881 -0.0539434 5.17426e-20)
(-0.643654 -0.0537833 -5.51468e-20)
(-0.584125 -0.0535887 0)
(-0.524327 -0.0533618 5.86163e-20)
(-0.464296 -0.053105 0)
(-0.404061 -0.0528205 0)
(-0.343652 -0.0525108 -6.62646e-20)
(-0.283098 -0.0521776 1.35734e-19)
(-0.222423 -0.0518226 -7.04755e-20)
(-0.161654 -0.0514464 0)
(-0.100813 -0.0510479 0)
(-0.0399241 -0.0506254 7.5508e-20)
(0.0209902 -0.0501745 0)
(0.0819045 -0.0496937 7.83023e-20)
(0.142803 -0.0491918 0)
(0.203668 -0.0486634 0)
(0.264488 -0.0481007 0)
(0.325289 -0.0475333 8.32748e-20)
(0.386059 -0.046982 0)
(0.44679 -0.0464435 -8.50267e-20)
(0.507473 -0.0459047 0)
(0.56808 -0.0453461 0)
(0.628554 -0.0447369 1.73741e-19)
(0.688785 -0.0440253 -1.75066e-19)
(0.748582 -0.0431105 0)
(0.807509 -0.0417975 0)
(0.865113 -0.0395838 0)
(0.918848 -0.0355117 5.40474e-19)
(0.971273 -0.0263166 0)
(1.00176 -0.00405115 -3.6775e-19)
(4.07378e-05 -0.0327947 -4.78565e-23)
(-0.00430402 -0.0174003 1.30173e-19)
(-0.0116072 0.000386498 0)
(-0.0200749 0.0163319 -1.11065e-19)
(-0.0297637 0.0304324 0)
(-0.0405268 0.0426162 0)
(-0.052382 0.052862 1.12894e-23)
(-0.0654026 0.0612846 4.77826e-20)
(-0.079626 0.0681293 4.65671e-20)
(-0.0950299 0.0737065 4.54583e-20)
(-0.11155 0.0783237 0)
(-0.129108 0.0822436 0)
(-0.147627 0.0856698 -4.24072e-20)
(-0.167041 0.0887496 -8.29699e-20)
(-0.187301 0.0915843 8.12135e-20)
(-0.208372 0.0942419 0)
(-0.230232 0.0967672 7.79614e-20)
(-0.252873 0.0991908 -3.82459e-20)
(-0.276292 0.101534 0)
(-0.300494 0.103815 7.37121e-20)
(-0.325494 0.106049 3.62431e-20)
(-0.351309 0.108251 -7.12773e-20)
(-0.377962 0.110443 -3.51027e-20)
(-0.405479 0.112645 0)
(-0.43389 0.114886 6.81885e-20)
(-0.463217 0.117188 6.73008e-20)
(-0.493481 0.119567 0)
(-0.524692 0.122034 6.57181e-20)
(-0.556862 0.12461 0)
(-0.589967 0.127346 6.43693e-20)
(-0.623864 0.130266 3.19024e-20)
(-0.658339 0.133226 0)
(-0.693377 0.135893 0)
(-0.72917 0.138123 0)
(-0.765639 0.140214 0)
(-0.802341 0.142439 0)
(-0.838831 0.144601 0)
(-0.874987 0.146338 5.95242e-20)
(-0.910875 0.147449 -8.83127e-20)
(-0.946409 0.148166 0)
(-0.981159 0.148474 0)
(-1.01526 0.147548 0)
(-1.04947 0.145506 2.3836e-23)
(-1.08424 0.14343 5.54405e-20)
(-1.11916 0.141851 1.09431e-19)
(-1.15371 0.140716 -1.08052e-19)
(-1.18772 0.139613 -5.33179e-20)
(-1.22137 0.13846 5.27432e-20)
(-1.25471 0.137219 -8.0013e-23)
(-1.28782 0.135884 5.1413e-20)
(-1.32072 0.134461 0)
(-1.35343 0.132959 5.02273e-20)
(-1.38595 0.131387 -8.71792e-23)
(-1.41829 0.12975 0)
(-1.45044 0.128055 0)
(-1.48239 0.126303 -4.80297e-20)
(-1.51412 0.124496 0)
(-1.54562 0.122635 0)
(-1.57688 0.120718 4.64114e-20)
(-1.60787 0.118746 9.20348e-20)
(-1.63858 0.116715 -4.56326e-20)
(-1.66898 0.114626 0)
(-1.69905 0.112476 4.46928e-20)
(-1.72876 0.110265 0)
(-1.75809 0.107991 4.35843e-20)
(-1.78702 0.105654 4.33223e-20)
(-1.81552 0.103253 -8.55579e-20)
(-1.84355 0.100789 -4.22402e-20)
(-1.8711 0.0982616 0)
(-1.89813 0.0956716 8.28917e-20)
(-1.92461 0.09302 0)
(-1.95052 0.0903082 1.21768e-19)
(-1.97582 0.0875379 8.02335e-20)
(-2.00048 0.0847109 7.93428e-20)
(-2.02448 0.0818295 -7.84475e-20)
(-2.04778 0.0788961 1.16397e-19)
(-2.07035 0.0759132 0)
(-2.09217 0.0728836 0)
(-2.1132 0.0698102 -7.47952e-20)
(-2.13342 0.0666959 -1.10852e-19)
(-2.15279 0.0635436 0)
(-2.17129 0.0603564 3.60314e-20)
(-2.18889 0.057137 0)
(-2.20556 0.0538884 -1.05021e-19)
(-2.22128 0.0506132 -9.11392e-23)
(-2.23601 0.0473139 8.25692e-23)
(-2.24974 0.0439926 6.6908e-20)
(-2.26243 0.0406515 0)
(-2.27407 0.0372924 -6.47669e-20)
(-2.28464 0.0339168 -4.56368e-23)
(-2.2941 0.0305263 0)
(-2.30244 0.0271227 0)
(-2.30966 0.0237083 0)
(-2.31572 0.0202864 5.90513e-20)
(-2.32063 0.0168626 0)
(-2.32438 0.0134458 0)
(-2.32697 0.0100496 0)
(-2.3284 0.00669243 0)
(-2.32866 0.0033923 0)
(-2.32771 0.000152485 5.13701e-20)
(-2.32548 -0.00305599 0)
(-2.32191 -0.00625331 4.85024e-20)
(-2.31698 -0.00943269 4.70617e-20)
(-2.31067 -0.0125907 -4.55956e-20)
(-2.30296 -0.0157241 0)
(-2.29384 -0.0188291 -4.25873e-20)
(-2.28329 -0.021902 0)
(-2.27131 -0.0249387 -3.94787e-20)
(-2.25788 -0.0279353 3.78875e-20)
(-2.243 -0.0308881 1.09173e-19)
(-2.22667 -0.0337932 0)
(-2.20889 -0.036647 9.93156e-20)
(-2.18964 -0.0394462 3.17114e-20)
(-2.16894 -0.0421873 0)
(-2.14679 -0.0448674 5.61732e-20)
(-2.1232 -0.0474832 5.26984e-20)
(-2.09816 -0.050032 -7.35199e-20)
(-2.07169 -0.0525109 0)
(-2.04381 -0.0549173 -2.07451e-20)
(-2.01452 -0.0572484 -1.89238e-20)
(-1.98384 -0.0595021 -5.18511e-20)
(-1.95178 -0.061676 0)
(-1.91837 -0.0637681 0)
(-1.88362 -0.0657767 0)
(-1.84755 -0.0677001 -1.02627e-20)
(-1.8102 -0.0695369 0)
(-1.77158 -0.0712857 0)
(-1.73172 -0.0729454 3.87536e-21)
(-1.69065 -0.0745149 1.95225e-21)
(-1.6484 -0.0759932 0)
(-1.605 -0.0773797 0)
(-1.56048 -0.0786739 -7.68522e-21)
(-1.51488 -0.0798756 0)
(-1.46824 -0.0809851 1.54276e-20)
(-1.42058 -0.0820024 1.85061e-20)
(-1.37195 -0.0829279 0)
(-1.32239 -0.0837621 0)
(-1.27193 -0.0845056 -3.00412e-20)
(-1.22062 -0.0851595 -8.18242e-22)
(-1.16849 -0.0857252 -8.23432e-22)
(-1.11559 -0.0862042 0)
(-1.06196 -0.086598 -9.12854e-20)
(-1.00764 -0.0869084 0)
(-0.952664 -0.0871373 0)
(-0.897086 -0.0872873 0)
(-0.840943 -0.0873608 6.08786e-20)
(-0.784275 -0.0873605 0)
(-0.727124 -0.087289 -1.3452e-19)
(-0.669529 -0.0871496 -7.16502e-20)
(-0.61153 -0.0869455 0)
(-0.553163 -0.0866801 -7.86352e-20)
(-0.494466 -0.0863568 0)
(-0.435473 -0.0859796 0)
(-0.37622 -0.085552 -2.64704e-19)
(-0.316737 -0.0850778 1.82506e-19)
(-0.257055 -0.0845609 0)
(-0.197202 -0.084005 1.95365e-19)
(-0.137206 -0.0834131 -1.01614e-19)
(-0.0770905 -0.0827879 0)
(-0.0168787 -0.0821319 0)
(0.0434077 -0.0814466 0)
(0.103748 -0.0807313 -3.34889e-19)
(0.164126 -0.0799847 0)
(0.224523 -0.0792078 -1.15995e-19)
(0.284932 -0.0784083 0)
(0.345359 -0.0775992 0)
(0.405822 -0.0767901 0)
(0.466316 -0.0759878 0)
(0.526823 -0.0751981 0)
(0.587326 -0.0744147 0)
(0.647805 -0.0736208 -2.5393e-19)
(0.708227 -0.072788 0)
(0.768533 -0.0718693 -1.30328e-19)
(0.828616 -0.0707841 3.93537e-19)
(0.888301 -0.0693835 0)
(0.947221 -0.0673837 0)
(1.00503 -0.0641671 -2.69085e-19)
(1.06003 -0.0585556 -2.72621e-19)
(1.11488 -0.0475968 2.74625e-19)
(1.15755 -0.0249846 2.79439e-19)
(-0.00378928 -0.0218953 -2.07409e-19)
(-0.0130885 0.000855135 -1.90291e-19)
(-0.0238954 0.0212253 -1.13655e-19)
(-0.0354532 0.038767 -5.21372e-20)
(-0.0477579 0.0542585 0)
(-0.0606363 0.0678976 9.36576e-20)
(-0.0741429 0.0797596 -4.51458e-20)
(-0.0883977 0.0899434 0)
(-0.103499 0.0986155 -4.26354e-20)
(-0.119502 0.105998 0)
(-0.136421 0.112332 8.12278e-20)
(-0.154243 0.117851 0)
(-0.172941 0.122751 3.88471e-20)
(-0.192482 0.127194 7.60594e-20)
(-0.212838 0.131301 -7.45065e-20)
(-0.233985 0.135161 0)
(-0.255906 0.13884 -7.16326e-20)
(-0.278591 0.142386 0)
(-0.302036 0.145833 0)
(-0.326242 0.149211 -6.78613e-20)
(-0.35121 0.152541 0)
(-0.376944 0.155843 3.82485e-24)
(-0.403445 0.159138 0)
(-0.43071 0.162441 0)
(-0.45873 0.165766 -3.81557e-24)
(-0.487482 0.169114 -6.19694e-20)
(-0.516931 0.172477 -6.11539e-20)
(-0.547028 0.175832 -6.03812e-20)
(-0.577706 0.179152 0)
(-0.608875 0.182407 -1.17815e-19)
(-0.640401 0.185551 0)
(-0.672134 0.188472 -5.75021e-20)
(-0.703992 0.190998 0)
(-0.735969 0.193042 0)
(-0.768014 0.194691 5.5385e-20)
(-0.799969 0.196048 0)
(-0.831671 0.197071 -5.39413e-20)
(-0.863048 0.197646 -1.27168e-23)
(-0.894114 0.197735 1.05023e-19)
(-0.92487 0.197406 -1.03577e-19)
(-0.955309 0.196684 0)
(-0.985529 0.195395 0)
(-1.01574 0.193558 -4.9672e-20)
(-1.04607 0.191509 0)
(-1.07643 0.189503 -4.83461e-20)
(-1.10669 0.187609 4.76988e-20)
(-1.1368 0.185744 4.70694e-20)
(-1.16676 0.18387 0)
(-1.19659 0.181959 -4.58632e-20)
(-1.22629 0.179997 -4.52849e-20)
(-1.25588 0.177976 8.93774e-20)
(-1.28536 0.175895 -4.41745e-20)
(-1.31473 0.173751 -4.36407e-20)
(-1.34399 0.171545 0)
(-1.37312 0.169275 0)