/*--------------------------------*- C++ -*----------------------------------*\
  =========                 |
  \\      /  F ield         | OpenFOAM: The Open Source CFD Toolbox
   \\    /   O peration     | Website:  https://openfoam.org
    \\  /    A nd           | Version:  9
     \\/     M anipulation  |
\*---------------------------------------------------------------------------*/
FoamFile
{
    format      ascii;
    class       volScalarField;
    location    "450";
    object      nut;
}
// * * * * * * * * * * * * * * * * * * * * * * * * * * * * * * * * * * * * * //

dimensions      [0 2 -1 0 0 0 0];

internalField   nonuniform List<scalar> 
10720
(
0.0614036
0.0633344
0.0649081
0.0657259
0.0658654
0.0647479
0.0619112
0.0567291
0.0482996
0.0363223
0.0217603
0.0118161
0.0131104
0.0154327
0.0169997
0.0167546
0.0160905
0.0144004
0.0128158
0.0115708
0.0109664
0.0107221
0.0108617
0.0112725
0.0117586
0.0121797
0.0123949
0.0122779
0.0120783
0.0121349
0.0124084
0.0131159
0.014993
0.0174355
0.0188887
0.0196316
0.017665
0.0380872
0.0340388
0.0594044
0.0572214
0.0548787
0.0520909
0.0490059
0.0455506
0.0416566
0.0373042
0.0325182
0.0272577
0.0214521
0.0158042
0.0141275
0.0128691
0.0128412
0.0157338
0.0182588
0.0202271
0.0219323
0.0235745
0.0252512
0.0269986
0.028829
0.0307277
0.0326348
0.0344775
0.0362266
0.0378772
0.0394327
0.0408993
0.0422973
0.0436455
0.0449829
0.0463473
0.0479086
0.0496141
0.0523738
0.0543588
0.0655747
0.0640231
0.062905
0.0618032
0.0610862
0.060809
0.0631658
0.066785
0.0706231
0.0735295
0.0740292
0.0709859
0.0657109
0.0664733
0.070933
0.0634876
0.0512558
0.046729
0.0383368
0.0329153
0.029748
0.0306962
0.0325976
0.0346276
0.0368412
0.0394411
0.0427808
0.0467514
0.0507759
0.0547222
0.0582308
0.0607776
0.062643
0.0643634
0.0672135
0.0729179
0.0787708
0.0783835
0.138317
0.168789
0.0649713
0.0655291
0.0662439
0.066427
0.066297
0.0657931
0.0647611
0.0631543
0.0610804
0.0587298
0.0561227
0.0533454
0.050316
0.0471702
0.0442134
0.0413624
0.0387924
0.0364859
0.0344123
0.0325447
0.030882
0.0294085
0.02811
0.0269233
0.0258537
0.0249444
0.0241934
0.0235984
0.0231555
0.022855
0.0226933
0.0226688
0.0227721
0.02302
0.023736
0.024908
0.0266062
0.0276765
0.0271862
0.0921663
0.090995
0.0892792
0.0868419
0.0847287
0.0823064
0.0800664
0.0769854
0.0761925
0.0782761
0.0820836
0.0858445
0.0917152
0.102703
0.11136
0.114897
0.107833
0.0868896
0.0716915
0.0600006
0.0553728
0.0566462
0.0595514
0.0636005
0.068925
0.0754935
0.0822844
0.0882738
0.0937229
0.0977847
0.100779
0.104353
0.109901
0.118973
0.132128
0.145169
0.161812
0.267646
0.319546
0.0931755
0.0937752
0.0944619
0.0946927
0.0946128
0.0941791
0.0932728
0.0918214
0.0898797
0.0875518
0.0848443
0.0818564
0.0786698
0.0753214
0.0719422
0.0686554
0.0655294
0.0625644
0.0597604
0.0571066
0.0546153
0.0522742
0.0500615
0.0478817
0.0456811
0.0435045
0.0413729
0.0393059
0.0373194
0.0354146
0.0336308
0.0320149
0.0305715
0.029314
0.0282654
0.0275682
0.026984
0.029647
0.021157
0.107777
0.106841
0.105466
0.103616
0.101403
0.0984323
0.0959109
0.0928247
0.0890558
0.0854269
0.0841695
0.0871715
0.0948355
0.10973
0.130956
0.151066
0.159452
0.151437
0.125397
0.101559
0.0848333
0.0801455
0.0839373
0.0899314
0.0975651
0.106237
0.114418
0.122362
0.129373
0.133807
0.13767
0.143157
0.152582
0.167594
0.188396
0.213456
0.255999
0.400465
0.491609
0.108562
0.109071
0.109586
0.109811
0.109795
0.109515
0.108887
0.107868
0.106484
0.10477
0.102717
0.100389
0.0978348
0.0950513
0.0921077
0.0891056
0.0861172
0.0831731
0.0802959
0.0774923
0.0747858
0.0721757
0.0696458
0.0671079
0.0645025
0.061877
0.0592582
0.0566721
0.0541411
0.0516775
0.0493035
0.0470456
0.0449268
0.0429881
0.0412401
0.0399109
0.0385205
0.0403352
0.0345361
0.117143
0.116488
0.115521
0.114222
0.11262
0.110454
0.107745
0.104629
0.101552
0.0976327
0.0932535
0.0890409
0.0910909
0.102486
0.12662
0.160597
0.189768
0.200084
0.188273
0.158441
0.129375
0.117065
0.118502
0.124862
0.133088
0.141148
0.148155
0.157296
0.165076
0.17052
0.175295
0.182253
0.195245
0.215959
0.244931
0.283335
0.352745
0.534321
0.688351
0.11768
0.118044
0.118396
0.118568
0.118575
0.118397
0.11798
0.117293
0.116341
0.115136
0.113671
0.111992
0.110131
0.108059
0.105804
0.103417
0.100952
0.0984363
0.0959003
0.0933561
0.0908298
0.0883269
0.0858402
0.0832937
0.0806336
0.0779017
0.0751266
0.072338
0.0695621
0.066819
0.0641371
0.0615491
0.0590862
0.0568032
0.0547244
0.0531067
0.0515218
0.0529194
0.0492415
0.122858
0.122375
0.121667
0.120718
0.119551
0.118048
0.116114
0.113632
0.110533
0.107559
0.103897
0.0987054
0.0931149
0.0952423
0.111753
0.147529
0.194366
0.229495
0.236884
0.21855
0.187696
0.16578
0.1635
0.170205
0.179917
0.188992
0.1961
0.20136
0.204446
0.210448
0.215659
0.224233
0.240395
0.266461
0.303755
0.355902
0.451745
0.672319
0.899624
0.123252
0.123525
0.123784
0.12392
0.123938
0.123823
0.12354
0.123068
0.12241
0.121571
0.120539
0.119327
0.117994
0.116503
0.114863
0.113088
0.111205
0.109231
0.107187
0.105084
0.102941
0.100764
0.0985469
0.0962306
0.0937658
0.0911847
0.0885131
0.0857784
0.0830066
0.0802215
0.0774544
0.0747441
0.0721284
0.0696728
0.0674122
0.065624
0.0639288
0.0650889
0.0626725
0.12664
0.126284
0.125764
0.125075
0.12423
0.123136
0.121747
0.119995
0.117649
0.114728
0.11193
0.108288
0.102516
0.0965132
0.100524
0.125375
0.175701
0.233969
0.269226
0.268872
0.246896
0.225157
0.216748
0.223478
0.235032
0.245511
0.253576
0.257994
0.259152
0.258996
0.26073
0.270727
0.289511
0.320701
0.366362
0.433222
0.555574
0.816066
1.10816
0.126932
0.127138
0.127332
0.127439
0.127459
0.127381
0.127179
0.12684
0.126367
0.125762
0.12502
0.124146
0.123173
0.122095
0.120909
0.119613
0.118216
0.116725
0.115152
0.113502
0.111786
0.110004
0.108152
0.10618
0.104046
0.10177
0.0993708
0.0968698
0.0942888
0.0916503
0.0889847
0.0863317
0.083733
0.0812597
0.0789543
0.0771026
0.0753735
0.076346
0.0747683
0.129266
0.128996
0.1286
0.128079
0.127446
0.126632
0.125652
0.124538
0.123062
0.120817
0.118001
0.11521
0.111392
0.105188
0.0993925
0.107989
0.146189
0.213416
0.27844
0.306654
0.299009
0.282258
0.276198
0.284013
0.296769
0.308256
0.318154
0.323555
0.324434
0.322015
0.320193
0.325625
0.344625
0.38081
0.435681
0.518961
0.665685
0.964009
1.30144
0.129492
0.129653
0.129805
0.129892
0.129911
0.129856
0.129707
0.129454
0.129099
0.128647
0.128093
0.12745
0.126734
0.125941
0.12507
0.124115
0.123078
0.121959
0.120766
0.119499
0.118161
0.116751
0.11526
0.113649
0.111881
0.109967
0.107918
0.105746
0.103467
0.101098
0.0986661
0.0962067
0.0937612
0.0914002
0.0891703
0.087354
0.0856663
0.0864682
0.085465
0.131192
0.131007
0.130718
0.130335
0.129893
0.129316
0.128638
0.127858
0.126883
0.125523
0.123449
0.120725
0.117765
0.113634
0.10661
0.102561
0.120589
0.177893
0.261166
0.324777
0.34201
0.334051
0.330527
0.340562
0.358292
0.376168
0.38879
0.395517
0.397634
0.395404
0.392229
0.396092
0.415118
0.454585
0.517393
0.613443
0.780524
1.11219
1.47465
0.13137
0.13149
0.131611
0.131683
0.131702
0.131662
0.131548
0.131352
0.131077
0.130727
0.130301
0.129818
0.129286
0.128695
0.128043
0.127326
0.126544
0.125697
0.124788
0.123816
0.12278
0.121677
0.120497
0.119208
0.11778
0.116217
0.114523
0.112703
0.110768
0.108727
0.106601
0.104419
0.102217
0.100062
0.0979992
0.0962997
0.0947104
0.0953407
0.0947296
0.132707
0.13263
0.132454
0.132192
0.131898
0.131488
0.130999
0.130424
0.129704
0.12879
0.127493
0.125469
0.122795
0.119736
0.114885
0.107235
0.107815
0.142458
0.223442
0.316654
0.370396
0.379458
0.380318
0.392166
0.413988
0.438833
0.46028
0.473396
0.47703
0.476501
0.474379
0.478034
0.497893
0.540198
0.608384
0.713409
0.896889
1.25529
1.6265
0.132832
0.132885
0.132982
0.133039
0.133057
0.133027
0.132937
0.132782
0.132563
0.132284
0.131951
0.13158
0.131173
0.130722
0.130225
0.12968
0.129085
0.128438
0.127739
0.126988
0.126183
0.125319
0.124388
0.123365
0.122225
0.120968
0.119593
0.118102
0.116498
0.114787
0.112983
0.111107
0.109191
0.107293
0.105454
0.103919
0.102481
0.102942
0.102571
0.133979
0.133976
0.133905
0.133748
0.133551
0.133272
0.132909
0.132458
0.131889
0.131179
0.130283
0.128995
0.126987
0.124356
0.121072
0.115157
0.107597
0.118718
0.178793
0.283005
0.375568
0.415443
0.425547
0.439795
0.464731
0.495475
0.525555
0.549232
0.562028
0.564033
0.564424
0.570195
0.591353
0.635725
0.70695
0.81713
1.01174
1.38808
1.75753
0.134031
0.134005
0.134075
0.134099
0.134111
0.134088
0.134017
0.133891
0.133713
0.133486
0.133221
0.132932
0.132613
0.132261
0.131874
0.131451
0.130989
0.130488
0.129946
0.129361
0.12873
0.128051
0.127314
0.126501
0.12559
0.124582
0.123473
0.122262
0.12095
0.119539
0.118036
0.11646
0.114832
0.113202
0.111609
0.11026
0.109002
0.109317
0.109075
0.135016
0.135051
0.135043
0.13496
0.134831
0.13464
0.134374
0.134033
0.133587
0.133021
0.13232
0.13143
0.130124
0.128101
0.125491
0.121736
0.114237
0.109966
0.141284
0.233442
0.35297
0.434194
0.464707
0.483725
0.511458
0.547095
0.584874
0.618879
0.644112
0.657289
0.661515
0.670907
0.695204
0.741236
0.812953
0.923692
1.12254
1.50642
1.8682
0.135025
0.134976
0.135008
0.134969
0.134958
0.134932
0.134872
0.13477
0.134622
0.134436
0.134224
0.133993
0.133739
0.133459
0.133152
0.132818
0.132455
0.13206
0.131633
0.131171
0.130673
0.130133
0.129545
0.128894
0.128163
0.127352
0.126457
0.125476
0.124407
0.123252
0.122013
0.120704
0.119343
0.117968
0.116614
0.115453
0.114374
0.114574
0.114393
0.135849
0.1359
0.135924
0.135889
0.13581
0.135682
0.135491
0.135243
0.134906
0.134464
0.133903
0.133205
0.13231
0.130955
0.128901
0.126261
0.121405
0.112603
0.11931
0.182516
0.306148
0.427214
0.493008
0.523193
0.554588
0.594465
0.639094
0.682689
0.720191
0.747909
0.765154
0.779772
0.808619
0.857243
0.927042
1.03267
1.22727
1.60747
1.95894
0.135854
0.135824
0.135828
0.135733
0.135677
0.13563
0.135567
0.135478
0.135354
0.135201
0.13503
0.134842
0.134636
0.13441
0.134164
0.133897
0.133606
0.133291
0.132951
0.132582
0.132183
0.131749
0.131276
0.13075
0.13016
0.129503
0.128777
0.12798
0.127108
0.126163
0.125146
0.124065
0.122935
0.121787
0.12065
0.119664
0.11875
0.118863
0.118706
0.136523
0.136574
0.136611
0.136602
0.136558
0.136473
0.136339
0.136164
0.135919
0.135587
0.135151
0.134591
0.133897
0.132979
0.13154
0.129478
0.126559
0.119619
0.112638
0.142986
0.246654
0.391344
0.50129
0.555914
0.593854
0.637974
0.688799
0.741338
0.790522
0.832833
0.867184
0.896773
0.931734
0.983584
1.05026
1.14415
1.32452
1.68955
2.03006
0.136543
0.136533
0.136527
0.136423
0.136337
0.136256
0.136166
0.136067
0.135952
0.135824
0.135684
0.13553
0.135361
0.135177
0.134977
0.134761
0.134527
0.134273
0.133998
0.1337
0.133378
0.133027
0.132642
0.132214
0.131733
0.131197
0.130605
0.129953
0.12924
0.128464
0.127628
0.126736
0.125801
0.124846
0.123897
0.123065
0.122296
0.122345
0.122193
0.137072
0.137114
0.137153
0.137159
0.137136
0.137082
0.136988
0.136863
0.136687
0.136445
0.136119
0.135687
0.13513
0.134436
0.133466
0.13193
0.129895
0.125904
0.116501
0.121259
0.189591
0.332154
0.481487
0.575331
0.628016
0.677579
0.734273
0.795239
0.855626
0.91207
0.96387
1.0135
1.06517
1.12102
1.18279
1.25903
1.4136
1.75189
2.08181
0.137103
0.137109
0.137106
0.137022
0.136944
0.136857
0.136738
0.136597
0.136458
0.136344
0.136226
0.136099
0.135959
0.135807
0.135643
0.135466
0.135275
0.135068
0.134845
0.134602
0.134339
0.134052
0.133737
0.133386
0.132991
0.132551
0.132064
0.131528
0.130941
0.130302
0.129611
0.128874
0.128099
0.127305
0.126514
0.125815
0.125169
0.125177
0.125027
0.137517
0.137549
0.137586
0.137598
0.137588
0.137554
0.13749
0.137399
0.137274
0.137099
0.13686
0.136537
0.136106
0.135552
0.134847
0.133784
0.132213
0.130004
0.12343
0.115557
0.147176
0.262846
0.431888
0.571702
0.653568
0.712595
0.775522
0.844544
0.915782
0.985973
1.05481
1.12497
1.1989
1.27086
1.3261
1.37865
1.49481
1.79461
2.11439
0.137555
0.13757
0.137575
0.137519
0.137471
0.137413
0.137303
0.137121
0.136923
0.13681
0.136708
0.136601
0.136483
0.136354
0.136215
0.136066
0.135905
0.135732
0.135546
0.135345
0.135127
0.13489
0.134629
0.134338
0.134011
0.133647
0.133244
0.132801
0.132315
0.131785
0.131213
0.130601
0.129957
0.129296
0.128635
0.128047
0.127501
0.127511
0.127366
0.137878
0.137901
0.137933
0.137947
0.137945
0.137925
0.137882
0.137817
0.137728
0.137602
0.137429
0.137192
0.136869
0.136436
0.135882
0.135138
0.133967
0.132473
0.129062
0.119585
0.124321
0.199084
0.359961
0.53761
0.662492
0.741256
0.812173
0.889197
0.971015
1.0547
1.14015
1.23028
1.32661
1.4195
1.48274
1.50441
1.56968
1.81878
2.12797
0.137919
0.137938
0.137952
0.137921
0.137903
0.137884
0.137816
0.137638
0.137399
0.137283
0.137195
0.137105
0.137004
0.13689
0.136763
0.136625
0.136479
0.136324
0.136159
0.135984
0.135796
0.135594
0.135373
0.135128
0.134853
0.134548
0.134212
0.133842
0.133437
0.132996
0.132519
0.132009
0.131471
0.130919
0.130366
0.129872
0.129398
0.129491
0.129343
0.138169
0.138185
0.138213
0.138228
0.13823
0.13822
0.138192
0.138146
0.138084
0.137995
0.13787
0.137698
0.13746
0.137134
0.136695
0.136134
0.135303
0.134124
0.132454
0.126179
0.11821
0.152705
0.280356
0.473092
0.645074
0.758663
0.843248
0.92893
1.02116
1.11816
1.21994
1.32942
1.44721
1.56048
1.63551
1.64004
1.64176
1.82654
2.1229
0.13821
0.138233
0.138254
0.138243
0.138247
0.138254
0.13823
0.138102
0.137888
0.137786
0.137717
0.137648
0.137565
0.137465
0.137345
0.13721
0.137062
0.136905
0.136744
0.136576
0.136402
0.136218
0.136021
0.135806
0.135569
0.135308
0.135022
0.134709
0.134368
0.133997
0.133597
0.133169
0.132718
0.132254
0.13179
0.131374
0.130947
0.131178
0.13102
0.138406
0.138418
0.138442
0.138457
0.138462
0.138458
0.13844
0.138409
0.138366
0.138302
0.138212
0.138088
0.137915
0.137676
0.137342
0.1369
0.136303
0.135385
0.134317
0.131324
0.121891
0.127732
0.209316
0.387597
0.59513
0.755999
0.866313
0.963155
1.06591
1.17608
1.29398
1.42233
1.56068
1.69313
1.77965
1.77599
1.71513
1.8213
2.09972
0.138445
0.13847
0.138497
0.138501
0.13852
0.138542
0.138542
0.13847
0.138329
0.138256
0.138209
0.138162
0.138104
0.138031
0.137934
0.137814
0.13767
0.137511
0.137343
0.13717
0.136993
0.136812
0.136624
0.136424
0.136208
0.135975
0.135724
0.135453
0.135159
0.134842
0.134502
0.134139
0.133758
0.133365
0.132972
0.132623
0.132231
0.132558
0.132416
0.1386
0.138609
0.138631
0.138646
0.138654
0.138654
0.138644
0.138623
0.138592
0.138546
0.13848
0.138389
0.138265
0.138092
0.137848
0.137507
0.137055
0.136381
0.135493
0.134236
0.128138
0.120555
0.158389
0.297162
0.514676
0.724025
0.875358
0.990731
1.10479
1.22802
1.36188
1.50875
1.66701
1.81781
1.91527
1.90445
1.79523
1.80919
2.05944
0.138637
0.138662
0.138694
0.138709
0.138739
0.138769
0.138778
0.138737
0.138662
0.138617
0.138587
0.138558
0.138521
0.138475
0.138414
0.138334
0.13823
0.138099
0.137943
0.137773
0.137595
0.137413
0.137225
0.13703
0.136825
0.136607
0.136377
0.136132
0.13587
0.135591
0.135294
0.13498
0.134652
0.134316
0.133981
0.133696
0.133354
0.133718
0.133598
0.138761
0.138769
0.138791
0.138806
0.138815
0.138819
0.138814
0.138801
0.138779
0.138746
0.138697
0.138629
0.138537
0.138412
0.138236
0.137983
0.137635
0.137148
0.13641
0.135676
0.13296
0.123674
0.130888
0.218459
0.414987
0.657991
0.861435
1.00858
1.13714
1.27346
1.42309
1.58822
1.766
1.93487
2.04385
2.02914
1.88764
1.79738
2.00377
0.138795
0.138819
0.138853
0.138876
0.138916
0.138953
0.138966
0.138935
0.138896
0.138874
0.138858
0.13884
0.138817
0.138789
0.138751
0.138705
0.138643
0.138564
0.13846
0.138331
0.138179
0.138014
0.137839
0.137655
0.137461
0.137257
0.137041
0.136813
0.136573
0.136319
0.136053
0.135775
0.135489
0.135202
0.134925
0.13472
0.134467
0.134812
0.134681
0.138898
0.138907
0.138928
0.138944
0.138955
0.138962
0.138961
0.138953
0.138937
0.138914
0.138878
0.138827
0.138758
0.138664
0.138534
0.138352
0.138089
0.137729
0.137171
0.13651
0.135562
0.129615
0.122494
0.162791
0.313181
0.561578
0.815898
1.01023
1.1617
1.31181
1.47696
1.66012
1.85722
2.04442
2.16669
2.15243
1.98155
1.79592
1.93553
0.138928
0.138951
0.138984
0.139012
0.139057
0.1391
0.139117
0.139092
0.139072
0.139063
0.139057
0.139048
0.139035
0.139017
0.138994
0.138965
0.138928
0.138883
0.138824
0.138748
0.138653
0.138539
0.13841
0.138264
0.138105
0.137929
0.13774
0.137539
0.137325
0.1371
0.136865
0.136622
0.136379
0.136144
0.135931
0.135803
0.135647
0.13591
0.135722
0.139017
0.139027
0.139049
0.139066
0.139078
0.139087
0.139089
0.139086
0.139075
0.139059
0.139033
0.138994
0.13894
0.138868
0.138771
0.138637
0.138444
0.138172
0.137774
0.137175
0.136706
0.134223
0.125119
0.132867
0.226317
0.447282
0.734906
0.986784
1.17506
1.34236
1.52278
1.72367
1.94004
2.14623
2.28459
2.27735
2.08684
1.82597
1.85993
0.139043
0.139063
0.139094
0.139123
0.139171
0.139218
0.139238
0.139221
0.139211
0.139211
0.139213
0.139211
0.139206
0.139196
0.139182
0.139164
0.13914
0.139112
0.139077
0.139034
0.13898
0.138916
0.138839
0.138749
0.138646
0.138525
0.138389
0.138239
0.138075
0.137897
0.137709
0.137512
0.137316
0.137129
0.13696
0.136857
0.136749
0.136928
0.136681
0.139123
0.139134
0.139157
0.139175
0.139189
0.1392
0.139205
0.139205
0.139198
0.139187
0.139167
0.139136
0.139093
0.139037
0.138962
0.138862
0.13872
0.138516
0.138231
0.137764
0.137283
0.136606
0.130874
0.123626
0.16559
0.33296
0.622846
0.929707
1.17072
1.36381
1.55979
1.77802
2.01362
2.23977
2.39766
2.40574
2.20908
1.88969
1.78649
0.139144
0.139161
0.13919
0.139217
0.139264
0.139313
0.139336
0.139327
0.139326
0.139332
0.139341
0.139347
0.139349
0.139346
0.139339
0.139328
0.139313
0.139294
0.13927
0.139243
0.139211
0.139175
0.139132
0.139082
0.139023
0.138953
0.138871
0.138776
0.138668
0.138546
0.138413
0.13827
0.138122
0.137977
0.137841
0.137747
0.137653
0.137772
0.137492
0.139218
0.139231
0.139255
0.139275
0.139291
0.139304
0.139311
0.139314
0.139311
0.139303
0.139287
0.139261
0.139226
0.139179
0.139119
0.139041
0.138937
0.138786
0.138575
0.138248
0.137757
0.137515
0.135336
0.126186
0.133282
0.2362
0.492646
0.835009
1.13963
1.37275
1.58729
1.82222
2.07698
2.32414
2.50515
2.53724
2.34919
1.97968
1.72619
0.139236
0.13925
0.139275
0.139299
0.139343
0.139392
0.139417
0.139416
0.139422
0.139436
0.139451
0.139463
0.139472
0.139475
0.139474
0.139469
0.13946
0.139448
0.139432
0.139414
0.139393
0.139369
0.139344
0.139315
0.139282
0.139242
0.139195
0.13914
0.139075
0.138999
0.138913
0.138817
0.138713
0.138608
0.138505
0.138425
0.138341
0.13842
0.138137
0.139306
0.139321
0.139347
0.139368
0.139386
0.139401
0.139411
0.139415
0.139415
0.13941
0.139398
0.139377
0.139347
0.139307
0.139255
0.139191
0.139109
0.138998
0.138839
0.138615
0.138217
0.137885
0.137512
0.13205
0.123602
0.168733
0.36285
0.706601
1.07252
1.36274
1.60393
1.85538
2.12899
2.39808
2.60552
2.66954
2.50592
2.10507
1.69925
0.13932
0.139331
0.139352
0.139372
0.139411
0.139458
0.139486
0.139493
0.139506
0.139527
0.139548
0.139566
0.13958
0.139589
0.139593
0.139593
0.139589
0.139582
0.139571
0.139559
0.139544
0.139528
0.139512
0.139494
0.139473
0.139449
0.139422
0.13939
0.139351
0.139305
0.139252
0.13919
0.139122
0.139049
0.138975
0.138914
0.138843
0.138898
0.138652
0.139389
0.139406
0.139433
0.139456
0.139476
0.139493
0.139504
0.139511
0.139513
0.13951
0.139502
0.139486
0.13946
0.139425
0.139379
0.139323
0.139254
0.139167
0.139046
0.138884
0.138614
0.138208
0.138186
0.136465
0.126634
0.132981
0.252343
0.557295
0.963975
1.32418
1.60652
1.87657
2.1684
2.46007
2.69655
2.79889
2.6744
2.26927
1.74177
0.139399
0.139407
0.139423
0.139438
0.139471
0.139516
0.139545
0.139561
0.139582
0.139609
0.139635
0.139658
0.139676
0.139689
0.139696
0.1397
0.1397
0.139697
0.139691
0.139683
0.139673
0.139661
0.13965
0.139637
0.139623
0.139607
0.139589
0.139569
0.139545
0.139517
0.139484
0.139446
0.139401
0.139353
0.139302
0.139258
0.139202
0.139239
0.139088
0.139467
0.139486
0.139516
0.139541
0.139563
0.139581
0.139595
0.139603
0.139608
0.139607
0.139602
0.139589
0.139567
0.139536
0.139495
0.139445
0.139383
0.139308
0.139213
0.139087
0.138913
0.138571
0.138359
0.138409
0.13301
0.122558
0.174576
0.406754
0.816363
1.24611
1.58847
1.88455
2.19384
2.50829
2.7756
2.92071
2.84699
2.46507
1.85255
0.139474
0.139477
0.139488
0.139497
0.139526
0.139566
0.139596
0.139621
0.13965
0.139682
0.139712
0.139738
0.139759
0.139774
0.139784
0.139791
0.139794
0.139793
0.13979
0.139785
0.139778
0.13977
0.139761
0.139752
0.139741
0.139729
0.139716
0.139702
0.139686
0.139668
0.139648
0.139623
0.139595
0.139564
0.13953
0.1395
0.139459
0.139478
0.139411
0.139542
0.139564
0.139597
0.139625
0.139649
0.13967
0.139685
0.139695
0.1397
0.1397
0.139698
0.139687
0.139668
0.139641
0.139605
0.139559
0.139502
0.139435
0.139355
0.139252
0.139127
0.138902
0.138556
0.138796
0.137557
0.126266
0.133041
0.27668
0.642193
1.12041
1.53902
1.87609
2.20416
2.54072
2.83975
3.0302
3.01545
2.68189
2.03835
0.139544
0.139542
0.139547
0.139551
0.139574
0.13961
0.139641
0.139673
0.13971
0.139747
0.13978
0.139807
0.139829
0.139845
0.139857
0.139864
0.139869
0.13987
0.139869
0.139866
0.139861
0.139855
0.139848
0.13984
0.139832
0.139822
0.139811
0.1398
0.139788
0.139776
0.139763
0.139748
0.139731
0.139711
0.13969
0.139671
0.139642
0.13965
0.139623
0.139615
0.139642
0.139679
0.139711
0.139737
0.13976
0.139776
0.139787
0.139793
0.139794
0.139792
0.139782
0.139765
0.13974
0.139707
0.139665
0.139614
0.139552
0.13948
0.139392
0.139288
0.139151
0.138847
0.138752
0.139294
0.133483
0.120917
0.183924
0.463543
0.947081
1.4444
1.84396
2.19789
2.55515
2.88591
3.12262
3.17198
2.90774
2.28482
0.139611
0.139603
0.139602
0.139601
0.139618
0.139649
0.139684
0.13972
0.139762
0.139803
0.139837
0.139865
0.139886
0.139902
0.139914
0.139922
0.139927
0.139929
0.139929
0.139926
0.139922
0.139917
0.139911
0.139904
0.139897
0.139888
0.139879
0.13987
0.139861
0.139852
0.139844
0.139835
0.139826
0.139815
0.139802
0.139791
0.139774
0.139778
0.139765
0.139686
0.139719
0.139761
0.139797
0.139826
0.139851
0.139869
0.139881
0.139887
0.139889
0.139887
0.139878
0.139861
0.139837
0.139806
0.139767
0.139719
0.139662
0.139595
0.139517
0.139424
0.139325
0.139133
0.138829
0.139377
0.138396
0.125213
0.134008
0.30711
0.739033
1.29262
1.77514
2.17123
2.54995
2.9107
3.19347
3.30915
3.12893
2.56624
0.139675
0.139662
0.139655
0.139647
0.139655
0.139683
0.139725
0.139765
0.139809
0.139851
0.139886
0.139912
0.139932
0.139947
0.139958
0.139965
0.139969
0.139971
0.139971
0.139969
0.139965
0.13996
0.139954
0.139948
0.139941
0.139933
0.139925
0.139918
0.139911
0.139905
0.1399
0.139896
0.139892
0.139887
0.139881
0.139877
0.139868
0.139874
0.139869
0.139756
0.139795
0.139841
0.139881
0.139913
0.139939
0.139959
0.139971
0.139979
0.139981
0.13998
0.139972
0.139957
0.139934
0.139903
0.139866
0.13982
0.139766
0.139703
0.139631
0.139546
0.139457
0.139347
0.139065
0.139105
0.14005
0.133447
0.11934
0.195213
0.523225
1.08139
1.65153
2.11512
2.52291
2.91115
3.23824
3.42015
3.33269
2.8583
0.139738
0.13972
0.139707
0.139688
0.139686
0.139712
0.139766
0.139808
0.139852
0.139893
0.139927
0.139951
0.13997
0.139983
0.139992
0.139997
0.14
0.140001
0.14
0.139998
0.139993
0.139988
0.139982
0.139976
0.139969
0.139962
0.139955
0.139949
0.139944
0.139941
0.139939
0.139938
0.139939
0.139939
0.139938
0.139939
0.139938
0.139947
0.139948
0.139824
0.139867
0.139916
0.139958
0.13999
0.140018
0.140038
0.140052
0.140061
0.140065
0.140065
0.14006
0.140048
0.140027
0.139999
0.139963
0.13992
0.139868
0.139808
0.139739
0.13966
0.139572
0.139492
0.139321
0.139065
0.139893
0.138882
0.124113
0.135677
0.334769
0.826486
1.45651
2.01205
2.46856
2.88483
3.25236
3.49867
3.50772
3.14213
0.139802
0.13978
0.139757
0.139724
0.139712
0.139736
0.139801
0.139848
0.139891
0.13993
0.139961
0.139984
0.14
0.140011
0.140018
0.140022
0.140023
0.140023
0.140021
0.140017
0.140012
0.140006
0.14
0.139993
0.139986
0.13998
0.139974
0.139969
0.139966
0.139965
0.139966
0.139969
0.139973
0.139977
0.139981
0.139987
0.13999
0.140004
0.140012
0.13989
0.139933
0.139981
0.140022
0.140053
0.14008
0.1401
0.140115
0.140126
0.140132
0.140135
0.140135
0.140128
0.140112
0.140088
0.140056
0.140016
0.139968
0.13991
0.139843
0.139768
0.139683
0.139602
0.139509
0.139249
0.13943
0.140568
0.133284
0.118679
0.203091
0.564823
1.18765
1.83746
2.3732
2.82811
3.23221
3.5383
3.64284
3.39744
0.139866
0.139838
0.139802
0.139756
0.139734
0.139755
0.139827
0.13988
0.139924
0.13996
0.139989
0.140009
0.140023
0.140032
0.140038
0.14004
0.140041
0.140039
0.140035
0.140031
0.140025
0.140018
0.140011
0.140004
0.139997
0.139991
0.139986
0.139983
0.139982
0.139983
0.139987
0.139993
0.14
0.140008
0.140016
0.140025
0.140034
0.140051
0.140065
0.139951
0.139991
0.140035
0.140071
0.140099
0.140124
0.140143
0.140158
0.14017
0.14018
0.140186
0.140191
0.14019
0.140182
0.140165
0.140139
0.140105
0.140061
0.140008
0.139945
0.139873
0.139791
0.139705
0.139633
0.139474
0.139284
0.140274
0.139114
0.123972
0.136497
0.344226
0.870629
1.57117
2.21094
2.73085
3.17434
3.53343
3.72712
3.60745
0.139924
0.139889
0.139842
0.139787
0.139757
0.139769
0.139843
0.139902
0.139947
0.139983
0.140009
0.140028
0.14004
0.140048
0.140052
0.140053
0.140053
0.14005
0.140046
0.14004
0.140033
0.140026
0.140018
0.140011
0.140004
0.139999
0.139996
0.139994
0.139996
0.14
0.140006
0.140015
0.140025
0.140036
0.140047
0.14006
0.140073
0.140095
0.140115
0.140002
0.140038
0.140076
0.140107
0.140132
0.140153
0.14017
0.140185
0.140198
0.140209
0.140219
0.140227
0.140232
0.140231
0.140223
0.140206
0.14018
0.140144
0.140098
0.140041
0.139973
0.139896
0.139809
0.13973
0.139642
0.139412
0.139696
0.140801
0.133593
0.11945
0.200111
0.561001
1.21927
1.94957
2.569
3.07056
3.47923
3.75084
3.75636
0.139972
0.139931
0.139877
0.139818
0.139781
0.139782
0.139851
0.139914
0.139961
0.139997
0.140022
0.14004
0.140051
0.140058
0.140061
0.140062
0.14006
0.140057
0.140052
0.140046
0.140038
0.140031
0.140023
0.140016
0.140011
0.140007
0.140005
0.140006
0.14001
0.140017
0.140027
0.140038
0.140051
0.140065
0.14008
0.140097
0.140114
0.14014
0.140165
0.140042
0.140075
0.140107
0.140133
0.140154
0.140172
0.140188
0.140202
0.140215
0.140226
0.140238
0.140248
0.140257
0.140262
0.140262
0.140256
0.14024
0.140213
0.140176
0.140127
0.140067
0.139995
0.139912
0.139826
0.139754
0.139605
0.139481
0.14045
0.139299
0.125552
0.134793
0.321295
0.832233
1.57462
2.30417
2.89869
3.36775
3.70679
3.82635
0.140009
0.139965
0.139911
0.139852
0.139808
0.139794
0.139857
0.13992
0.139969
0.140005
0.14003
0.140046
0.140057
0.140063
0.140066
0.140066
0.140064
0.140061
0.140055
0.140049
0.140042
0.140034
0.140027
0.140022
0.140018
0.140016
0.140017
0.140021
0.140029
0.140039
0.140052
0.140066
0.140082
0.140099
0.140117
0.140137
0.140159
0.140189
0.140219
0.140071
0.140102
0.14013
0.140153
0.140171
0.140187
0.140202
0.140215
0.140228
0.140239
0.140251
0.140262
0.140273
0.140281
0.140286
0.140288
0.140282
0.140267
0.140241
0.140202
0.14015
0.140086
0.14001
0.139924
0.139845
0.139754
0.139562
0.13986
0.140782
0.13475
0.121835
0.183247
0.492824
1.12332
1.90577
2.61721
3.17711
3.58692
3.80239
0.140038
0.139996
0.139946
0.139886
0.139834
0.139805
0.139863
0.139925
0.139975
0.140011
0.140035
0.140051
0.14006
0.140066
0.140068
0.140068
0.140066
0.140062
0.140057
0.140051
0.140044
0.140037
0.140032
0.140028
0.140027
0.140028
0.140033
0.140041
0.140053
0.140067
0.140083
0.140101
0.14012
0.14014
0.140161
0.140184
0.140209
0.140244
0.140277
0.140093
0.140121
0.140147
0.140168
0.140185
0.1402
0.140214
0.140227
0.14024
0.140251
0.140263
0.140274
0.140285
0.140294
0.140302
0.140307
0.140309
0.140304
0.14029
0.140263
0.140222
0.140168
0.1401
0.14002
0.139936
0.139859
0.139721
0.139641
0.140419
0.139573
0.128854
0.131506
0.266581
0.690048
1.39696
2.18524
2.86368
3.36867
3.67525
0.140063
0.140026
0.139979
0.139919
0.139858
0.139817
0.139872
0.139933
0.139982
0.140017
0.14004
0.140054
0.140063
0.140067
0.140068
0.140068
0.140065
0.140062
0.140057
0.140051
0.140046
0.140041
0.140038
0.140037
0.14004
0.140045
0.140055
0.140067
0.140083
0.140101
0.140121
0.140143
0.140165
0.140188
0.140211
0.140238
0.140266
0.140303
0.14034
0.140111
0.140137
0.140161
0.14018
0.140196
0.140212
0.140226
0.140239
0.140252
0.140264
0.140275
0.140286
0.140297
0.140306
0.140314
0.14032
0.140325
0.140327
0.140323
0.140309
0.140281
0.140238
0.14018
0.140109
0.140027
0.139947
0.139853
0.139697
0.139919
0.140603
0.136548
0.125902
0.159461
0.372427
0.879367
1.61799
2.38228
3.00694
3.42132
0.140085
0.140052
0.140007
0.139945
0.139878
0.139828
0.139882
0.139942
0.13999
0.140024
0.140045
0.140057
0.140064
0.140067
0.140068
0.140067
0.140064
0.140061
0.140057
0.140052
0.140049
0.140046
0.140046
0.140049
0.140056
0.140067
0.140082
0.1401
0.14012
0.140143
0.140167
0.140192
0.140216
0.140242
0.140268
0.140296
0.140327
0.140366
0.140404
0.140126
0.14015
0.140172
0.14019
0.140206
0.140222
0.140237
0.14025
0.140263
0.140276
0.140287
0.140299
0.14031
0.140319
0.140326
0.140332
0.140337
0.140341
0.140343
0.140338
0.140323
0.140294
0.140248
0.140187
0.140113
0.140032
0.13995
0.139826
0.139756
0.140257
0.139876
0.132989
0.129878
0.202381
0.478333
1.02673
1.75168
2.46016
2.99686
0.140103
0.140073
0.140028
0.139966
0.139896
0.139839
0.139892
0.139952
0.139999
0.14003
0.140049
0.14006
0.140065
0.140067
0.140066
0.140065
0.140062
0.140059
0.140056
0.140054
0.140053
0.140053
0.140058
0.140066
0.140079
0.140096
0.140116
0.140139
0.140165
0.140192
0.140219
0.140246
0.140273
0.1403
0.140328
0.140358
0.14039
0.14043
0.140467
0.140138
0.140159
0.14018
0.140198
0.140215
0.140231
0.140247
0.140261
0.140275
0.140288
0.1403
0.140312
0.140323
0.140332
0.140339
0.140344
0.140348
0.140351
0.140355
0.140356
0.14035
0.140334
0.140302
0.140253
0.14019
0.140115
0.140034
0.139939
0.13981
0.13991
0.140357
0.138298
0.130977
0.141501
0.249266
0.559687
1.10115
1.76626
2.37781
0.140116
0.140087
0.140044
0.139983
0.139912
0.139849
0.139901
0.139961
0.140006
0.140036
0.140053
0.140061
0.140065
0.140065
0.140064
0.140063
0.140061
0.140059
0.140058
0.140058
0.14006
0.140065
0.140074
0.140089
0.140108
0.140131
0.140158
0.140186
0.140216
0.140247
0.140276
0.140305
0.140332
0.14036
0.140389
0.14042
0.140452
0.140492
0.140529
0.140146
0.140166
0.140187
0.140206
0.140223
0.140241
0.140257
0.140273
0.140287
0.1403
0.140313
0.140325
0.140336
0.140345
0.140352
0.140357