/*--------------------------------*- C++ -*----------------------------------*\
  =========                 |
  \\      /  F ield         | OpenFOAM: The Open Source CFD Toolbox
   \\    /   O peration     | Website:  https://openfoam.org
    \\  /    A nd           | Version:  9
     \\/     M anipulation  |
\*---------------------------------------------------------------------------*/
FoamFile
{
    format      ascii;
    class       volScalarField;
    location    "450";
    object      p;
}
// * * * * * * * * * * * * * * * * * * * * * * * * * * * * * * * * * * * * * //

dimensions      [0 2 -2 0 0 0 0];

internalField   nonuniform List<scalar> 
10720
(
-58.4407
-61.9118
-65.2618
-65.6561
-62.0517
-56.6173
-48.8817
-40.3408
-33.7095
-30.3488
-29.7979
-29.9049
-29.5914
-29.3435
-29.262
-29.1135
-28.8026
-28.3764
-27.9694
-27.6956
-27.6135
-27.7319
-28.0201
-28.4483
-29.0036
-29.681
-30.4981
-31.5189
-32.83
-34.5385
-36.7894
-39.7755
-43.6664
-47.868
-51.866
-59.0039
-68.7586
-62.6374
-145.159
-51.208
-44.1338
-32.2912
-18.37
-3.22991
12.4095
27.5433
40.6918
50.933
58.3065
63.0257
65.5533
66.4445
66.2438
65.1628
63.2475
60.8586
58.2235
55.358
52.2262
48.8465
45.2142
41.327
37.1975
33.0052
28.9078
24.8506
20.8102
16.7865
12.7857
8.74595
4.62364
0.320286
-4.33549
-9.56754
-15.972
-23.8978
-37.4255
-59.6522
-16.983
-22.3053
-27.1039
-29.7483
-30.2262
-29.334
-27.672
-26.3893
-26.6817
-28.203
-29.2742
-28.817
-28.6416
-28.8603
-28.9826
-28.9265
-28.6771
-28.297
-27.9101
-27.643
-27.5667
-27.6908
-27.9866
-28.4235
-28.9857
-29.6678
-30.4883
-31.5106
-32.8206
-34.5249
-36.7688
-39.7468
-43.6368
-47.8598
-51.8872
-59.0223
-68.8702
-62.8286
-146.895
-11.7437
-6.19796
0.331319
8.32558
17.3186
26.9613
36.6591
45.5667
53.0214
58.7361
62.6538
64.9315
65.8664
65.7526
64.74
62.9712
60.7304
58.1961
55.4
52.3304
49.006
45.4305
41.6069
37.555
33.4193
29.3356
25.2754
21.222
17.179
13.1529
9.08481
4.93241
0.599856
-4.08197
-9.33426
-15.7474
-23.6632
-37.1767
-58.1373
-12.4213
-16.7549
-20.4183
-23.4536
-25.4449
-26.3272
-26.2422
-25.5291
-24.9305
-25.1461
-26.0651
-26.9427
-27.9292
-28.3437
-28.6653
-28.7145
-28.5465
-28.2102
-27.8253
-27.5479
-27.472
-27.6084
-27.9227
-28.3783
-28.9535
-29.642
-30.4647
-31.4862
-32.7932
-34.4934
-36.7316
-39.7017
-43.5903
-47.8452
-51.926
-59.0667
-69.1009
-63.0571
-148.714
-7.69708
-1.84244
5.27807
13.365
21.9538
30.7807
39.3323
47.0143
53.4375
58.4212
61.9273
64.0567
65.0144
65.0009
64.1314
62.5384
60.4455
58.0076
55.2808
52.2744
49.006
45.4846
41.7165
37.7245
33.6266
29.5491
25.4892
21.434
17.3863
13.3516
9.27401
5.1104
0.76699
-3.92352
-9.17981
-15.5869
-23.4786
-36.8979
-56.6969
1.04094
-2.92337
-6.86536
-10.514
-13.5815
-15.9663
-17.6885
-18.9257
-19.9072
-20.9379
-22.2579
-24.0474
-26.1351
-27.528
-28.2278
-28.3755
-28.3281
-28.0665
-27.6933
-27.3985
-27.3212
-27.4799
-27.8269
-28.3124
-28.9057
-29.5999
-30.4211
-31.4372
-32.7382
-34.4347
-36.672
-39.6421
-43.5351
-47.8293
-51.9802
-59.1304
-69.3616
-63.3242
-150.357
4.9972
9.43948
14.7137
20.9515
27.6912
34.7629
41.7497
48.1303
53.5642
57.885
61.0253
63.0209
63.9959
64.0783
63.3541
61.9343
59.9991
57.6841
55.0559
52.1367
48.945
45.4942
41.7944
37.8711
33.8244
29.7708
25.7238
21.6742
17.6256
13.5833
9.49547
5.31849
0.961601
-3.74051
-9.00295
-15.4054
-23.2682
-36.5674
-55.308
5.99251
2.21328
-1.6012
-5.3228
-8.49856
-11.1233
-13.1928
-14.8301
-16.2667
-17.7357
-19.3438
-21.1494
-23.2435
-25.4236
-27.1546
-27.9093
-28.0042
-27.8301
-27.5076
-27.2081
-27.1285
-27.3133
-27.7016
-28.2242
-28.8393
-29.5388
-30.355
-31.3611
-32.6527
-34.3452
-36.5862
-39.5645
-43.4725
-47.8185
-52.0522
-59.2123
-69.621
-63.7242
-151.816
9.80887
14.0684
19.0587
24.7462
30.7262
36.9162
42.9967
48.545
53.2951
57.1261
59.9761
61.8553
62.8413
63.0111
62.4267
61.1813
59.4159
57.2443
54.7348
51.9187
48.8178
45.4486
41.8252
37.9754
33.9867
29.9648
25.9357
21.8959
17.85
13.8035
9.70897
5.52182
1.15441
-3.55603
-8.82128
-15.214
-23.0374
-36.1852
-53.9136
11.2397
7.78163
4.14448
0.529619
-2.77651
-5.80551
-8.46981
-10.7776
-12.8407
-14.7817
-16.6795
-18.5629
-20.5432
-22.7767
-25.1381
-26.8945
-27.5648
-27.5119
-27.2459
-26.9801
-26.9094
-27.1223
-27.5552
-28.1181
-28.7556
-29.4589
-30.2666
-31.2585
-32.5375
-34.2255
-36.4734
-39.4682
-43.4027
-47.8152
-52.1507
-59.3293
-69.8803
-64.3057
-153.067
14.6518
18.3639
22.7072
27.6935
32.9176
38.3349
43.6732
48.5589
52.7654
56.2013
58.8097
60.5853
61.5749
61.8202
61.366
60.2905
58.6992
56.6838
54.3094
51.6123
48.6169
45.3424
41.8058
38.0372
34.1143
30.1337
26.1301
22.1066
18.0687
14.0225
9.92436
5.72978
1.35413
-3.36254
-8.62762
-15.0056
-22.7815
-35.7467
-52.5016
14.4469
11.1801
7.68879
4.13309
0.82186
-2.29359
-5.12917
-7.64937
-9.95142
-12.1172
-14.2093
-16.2585
-18.305
-20.4277
-22.7656
-25.0947
-26.6827
-27.1099
-26.9302
-26.7036
-26.6713
-26.9207
-27.4
-28.0027
-28.6602
-29.3636
-30.1582
-31.1305
-32.3921
-34.0734
-36.3301
-39.3477
-43.3204
-47.8159
-52.2715
-59.4798
-70.1413
-65.0739
-154.019
17.6467
21.0718
25.0517
29.5732
34.2613
39.1071
43.8828
48.2557
52.0341
55.151
57.5567
59.2377
60.2209
60.527
60.1913
59.276
57.8568
56.0055
53.7791
51.2147
48.3384
45.1711
41.7316
38.0519
34.2027
30.2731
26.3033
22.3028
18.2783
14.2368
10.1389
5.9401
1.55883
-3.16111
-8.4232
-14.7806
-22.4989
-35.2476
-51.0766
16.9842
13.9335
10.6134
7.19758
3.96744
0.825351
-2.13585
-4.84068
-7.34762
-9.70447
-11.9606
-14.1597
-16.3185
-18.434
-20.6009
-22.9355
-25.1465
-26.3996
-26.5821
-26.3963
-26.4137
-26.7179
-27.2467
-27.8866
-28.5589
-29.2563
-30.0317
-30.9792
-32.2197
-33.8918
-36.158
-39.2043
-43.2249
-47.8187
-52.4179
-59.6737
-70.4034
-66.0193
-154.57
19.949
23.0813
26.7152
30.8323
35.0754
39.4552
43.7744
47.7313
51.1604
54.0117
56.2429
57.8352
58.8005
59.152
58.9215
58.1532
56.8996
55.2144
53.1444
50.7238
47.9786
44.93
41.5984
38.016
34.2491
30.3799
26.4528
22.4823
18.4774
14.4457
10.3519
6.15234
1.76868
-2.95156
-8.20648
-14.537
-22.189
-34.6894
-49.6338
18.7771
15.9022
12.7372
9.44671
6.30599
3.19862
0.210373
-2.56299
-5.16142
-7.61678
-9.96424
-12.2438
-14.4754
-16.6506
-18.7667
-20.9257
-23.2315
-25.1836
-26.0652
-26.1052
-26.1485
-26.5186
-27.1044
-27.7782
-28.4593
-29.1437
-29.8926
-30.8086
-32.0225
-33.6822
-35.9576
-39.0359
-43.114
-47.821
-52.5817
-59.8994
-70.6612
-67.1166
-154.548
21.5549
24.4581
27.8166
31.6057
35.4861
39.4856
43.4303
47.0453
50.1838
52.8109
54.8889
56.394
57.3323
57.7163
57.5756
56.9385
55.8404
54.3185
52.4088
50.1398
47.5354
44.6161
41.4021
37.9255
34.2495
30.4504
26.5749
22.6421
18.6633
14.6469
10.562
6.36583
1.98329
-2.73358
-7.97765
-14.2743
-21.8491
-34.0689
-48.1757
20.0922
17.3816
14.3684
11.214
8.18225
5.14453
2.17595
-0.626244
-3.27563
-5.78724
-8.18873
-10.5137
-12.7819
-15.0059
-17.1627
-19.2348
-21.3737
-23.5805
-25.2078
-25.7712
-25.9308
-26.3215
-26.9763
-27.6839
-28.367
-29.0304
-29.7449
-30.6226
-31.8051
-33.4494
-35.7336
-38.8476
-42.991
-47.8237
-52.7694
-60.1685
-70.9118
-68.3373
-153.876
22.6999
25.4002
28.5201
32.0291
35.6041
39.2843
42.9145
46.2413
49.1342
51.5689
53.5096
54.9272
55.8304
56.2371
56.1705
55.6483
54.6928
53.3279
51.5779
49.4647
47.0083
44.2269
41.1396
37.7777
34.2008
30.4814
26.6667
22.7798
18.8341
14.8391
10.7679
6.57954
2.20209
-2.50738
-7.73551
-13.9906
-21.4792
-33.3882
-46.6971
21.0187
18.455
15.5814
12.5566
9.63683
6.6833
3.76504
0.974088
-1.68255
-4.20834
-6.62877
-8.97464
-11.2579
-13.496
-15.689
-17.7829
-19.7926
-21.9137
-23.9882
-25.2574
-25.7527
-26.1653
-26.8566
-27.6074
-28.2873
-28.922
-29.5945
-30.4268
-31.572
-33.1965
-35.4876
-38.6388
-42.855
-47.8254
-52.9716
-60.4664
-71.1524
-69.6467
-152.555
23.4769
26.0029
28.9169
32.186
35.5006
38.9083
42.2703
45.351
48.0334
50.2997
52.1135
53.4451
54.3092
54.7288
54.7214
54.2977
53.4709
52.2532
50.6592
48.7027
46.3987
43.762
40.8092
37.5694
34.0999
30.4694
26.7245
22.8918
18.9865
15.0194
10.9677
6.79226
2.42451
-2.27295
-7.48048
-13.686
-21.0768
-32.6462
-45.2007
21.6505
19.2196
16.4774
13.5786
10.7716
7.91042
5.06187
2.30838
-0.334419
-2.85198
-5.26814
-7.61415
-9.89752
-12.1308
-14.3264
-16.4614
-18.4696
-20.4424
-22.5896
-24.4614
-25.5129
-26.0815
-26.755
-27.5445
-28.2224
-28.8211
-29.4439
-30.225
-31.3282
-32.9296
-35.2251
-38.4152
-42.709
-47.8275
-53.1977
-60.808
-71.382
-71.0211
-150.682
23.9744
26.3459
29.0802
32.1389
35.2283
38.4009
41.5299
44.3976
46.8968
49.0131
50.7078
51.9556
52.779
53.2028
53.2414
52.901
52.1879
51.1062
49.6611
47.8591
45.7094
43.222
40.4099
37.2992
33.9449
30.4119
26.7461
22.9758
19.1188
15.1865
11.1602
7.0029
2.64982
-2.0307
-7.21144
-13.3587
-20.6424
-31.8458
-43.6828
22.0477
19.7381
17.1179
14.3379
11.6409
8.87417
6.10568
3.40839
0.796414
-1.69657
-4.09077
-6.41954
-8.68907
-10.9095
-13.091
-15.2355
-17.2965
-19.2247
-21.2476
-23.4114
-25.0902
-26.0127
-26.7145
-27.4852
-28.1709
-28.7309
-29.2974
-30.0218
-31.079
-32.6542
-34.9513
-38.1786
-42.5539
-47.8293
-53.4358
-61.1751
-71.6036
-72.4309
-148.326
24.2501
26.4856
29.0597
31.9341
34.8259
37.7924
40.7177
43.3982
45.7358
47.7157
49.2984
50.4657
51.2477
51.6688
51.7415
51.4703
50.8565
49.8981
48.5931
46.941
44.9445
42.6086
39.9415
36.966
33.7337
30.3061
26.7279
23.0287
19.2276
15.3373
11.3428
7.20986
2.87706
-1.78087
-6.92912
-13.0092
-20.1736
-30.9876
-42.1459
22.2583
20.0589
17.5528
14.8857
12.2946
9.62235
6.93888
4.3088
1.73839
-0.719583
-3.08046
-5.37999
-7.62449
-9.82441
-11.9875
-14.1179
-16.2083
-18.1851
-20.1047
-22.2634
-24.4127
-25.8531
-26.7191
-27.4468
-28.1205
-28.6505
-29.156
-29.8192
-30.8281
-32.3755
-34.6731
-37.9367
-42.3931
-47.8315
-53.6975
-61.585
-71.8196
-73.861
-145.587
24.3507
26.4638
28.8961
31.6049
34.3222
37.107
39.851
42.3661
44.5588
46.4129
47.8907
48.982
49.7219
50.1342
50.2311
50.0161
49.4879
48.64
47.4648
45.9555
44.109
41.9245
39.4054
36.5697
33.4653
30.1506
26.6683
23.0482
19.3113
15.4705
11.5146
7.41212
3.10547
-1.5239
-6.63248
-12.6359
-19.6715
-30.0751
-40.5869
22.3184
20.2203
17.8203
15.2591
12.769
10.1896
7.5919
5.03426
2.51518
0.0991933
-2.22119
-4.48333
-6.69476
-8.86652
-11.0071
-13.1168
-15.2029
-17.2364
-19.1595
-21.1932
-23.5221
-25.4971
-26.6949
-27.4475
-28.0666
-28.5739
-29.0217
-29.6213
-30.5804
-32.1002
-34.3984
-37.6979
-42.2356
-47.8375
-53.9682
-62.0165
-72.0398
-75.2845
-142.53
24.3104
26.3134
28.617
31.1785
33.7394
36.3611
38.944
41.311
43.3724
45.1084
46.4878
47.5079
48.2059
48.605
48.7178
48.5479
48.0924
47.3422
46.2857
44.9108
43.209
41.174
38.8037
36.1108
33.139
29.9435
26.5647
23.0318
19.3667
15.5829
11.6728
7.60769
3.33377
-1.26039
-6.32257
-12.2399
-19.1341
-29.111
-39.0086
22.2558
20.2513
17.9498
15.4886
13.0938
10.6044
8.09061
5.60947
3.14898
0.778647
-1.49763
-3.71732
-5.88997
-8.02741
-10.1397
-12.2275
-14.2953
-16.3486
-18.3333
-20.288
-22.5521
-24.8905
-26.5428
-27.4479
-28.0245
-28.4872
-28.8909
-29.4289
-30.3388
-31.8323
-34.1328
-37.4701
-42.0886
-47.8524
-54.2625
-62.489
-72.2687
-76.6921
-139.235
24.1563
26.059
28.2471
30.674
33.0946
35.57
38.007
40.24
42.1804
43.8067
45.0944
46.0478
46.7037
47.0859
47.2078
47.0731
46.6789
46.0141
45.0648
43.8148
42.251
40.3616
38.1392
35.5907
32.7553
29.6845
26.4159
22.9777
19.3923
15.6735
11.8164
7.79567
3.56127
-0.990739
-5.99837
-11.8196
-18.563
-28.0987
-37.4093
22.0932
20.1749
17.9653
15.5976
13.293
10.8902
8.45776
6.05369
3.65675
1.33406
-0.896196
-3.07018
-5.20014
-7.2991
-9.37824
-11.4408
-13.4883
-15.5323
-17.5629
-19.5281
-21.6457
-24.0817
-26.1771
-27.3789
-27.9869
-28.3926
-28.7561
-29.2443
-30.1088
-31.58
-33.8868
-37.2657
-41.9689
-47.8926
-54.572
-62.9784
-72.5206
-78.0614
-135.757
23.9093
25.7213
27.8028
30.1085
32.4016
34.7434
37.0486
39.1594
40.9871
42.5113
43.7133
44.6035
45.218
45.5809
45.7061
45.5986
45.2552
44.6646
43.8111
42.676
41.242
39.4929
37.4158
35.0118
32.315
29.373
26.2205
22.8841
19.3856
15.7394
11.9429
7.97391
3.78638
-0.71585
-5.66133
-11.3766
-17.9567
-27.0428
-35.7922
21.8481
20.0094
17.8858
15.6061
13.3864
11.066
8.71216
6.38474
4.05241
1.7791
-0.404105
-2.53096
-4.61595
-6.67395
-8.71655
-10.7493
-12.7748
-14.7991
-16.8364
-18.8475
-20.872
-23.1975
-25.5682
-27.1596
-27.9126
-28.2982
-28.6112
-29.0648
-29.8932
-31.3477
-33.6658
-37.0914
-41.8821
-47.9669
-54.9226
-63.5087
-72.7985
-79.387
-132.162
23.5865
25.3149
27.3001
29.4935
31.6707
33.8915
36.0756
38.0736
39.7959
41.2244
42.347
43.1776
43.7515
44.0931
44.2173
44.1297
43.8281
43.3013
42.5327
41.5021
40.1892
38.5738
36.6378
34.3768
31.8196
29.0097
25.9782
22.7498
19.3455
15.7795
12.0512
8.14158
4.00851
-0.436152
-5.31045
-10.9101
-17.3174
-25.947
-34.1578
21.5352
19.7703
17.727
15.5297
13.3901
11.148
8.86997
6.61615
4.3491
2.12679
-0.00958461
-2.08917
-4.1283
-6.14366
-8.14755
-10.1464
-12.1458
-14.1482
-16.1676
-18.2028
-20.2133
-22.3692
-24.7778
-26.7316
-27.7467
-28.1901
-28.4676
-28.8867
-29.6972
-31.1457
-33.4836
-36.9631
-41.8484
-48.0957
-55.3132
-64.0628
-73.1192
-80.6495
-128.5
23.2016
24.8535
26.7489
28.8406
30.9107
33.0197
35.0937
36.9867
38.6095
39.9483
40.9972
41.7713
42.3056
42.6248
42.7444
42.671
42.4034
41.9309
41.2372
40.3009
39.0997
37.6102
35.8101
33.6895
31.2717
28.5956
25.689
22.574
19.2703
15.7916
12.1391
8.2965
4.2259
-0.152959
-4.94764
-10.4218
-16.6445
-24.8171
-32.5103
21.166
19.4698
17.5014
15.3819
13.3173
11.1495
8.94364
6.76032
4.55839
2.38922
0.298688
-1.73491
-3.72805
-5.69998
-7.66395
-9.62654
-11.5954
-13.5736
-15.5679
-17.5933
-19.6187
-21.659
-23.9286
-26.0919
-27.4384
-28.0404
-28.332
-28.7168
-29.5219
-30.98
-33.3474
-36.8885
-41.8734
-48.286
-55.768
-64.6715
-73.4903
-81.8429
-124.828
22.7657
24.3467
26.1603
28.1567
30.1288
32.1351
34.1063
35.9012
37.4305
38.6856
39.666
40.3865
40.8822
41.1784
41.2906
41.2267
40.9862
40.5597
39.9312
39.0794
37.9806
36.6088
34.9382
32.954
30.674
28.1323
25.3535
22.3564
19.1593
15.775
12.2058
8.43804
4.43796
0.133493
-4.57219
-9.91131
-15.9409
-23.6567
-30.8509
20.7507
19.1183
17.2203
15.1734
13.1797
11.0819
8.94494
6.82753
4.69068
2.57628
0.530045
-1.45925
-3.40737
-5.33583
-7.25916
-9.18429
-11.1194
-13.0697
-15.0374
-17.0344
-19.0576
-21.0552
-23.1418
-25.3123
-26.963
-27.8183
-28.2009
-28.575
-29.3739
-30.862
-33.2734
-36.8867
-41.9798
-48.5599
-56.2875
-65.3174
-73.9447
-82.9508
-121.199
22.2883
23.8038
25.5406
27.45
29.3307
31.2413
33.1177
34.8205
36.262
37.4385
38.3544
39.0244
39.4829
39.7554
39.8581
39.7997
39.5807
39.1929
38.621
37.8444
36.8385
35.576
34.0279
32.175
30.0299
27.6223
24.9727
22.0972
19.0118
15.7282
12.2494
8.56426
4.64289
0.421457
-4.18632
-9.38103
-15.2068
-22.4726
-29.1858
20.297
18.7244
16.8923
14.9141
12.9867
10.9552
8.88319
6.82956
4.75542
2.69536
0.692428
-1.25449
-3.15895
-5.04461
-6.92737
-8.81434
-10.714
-12.6328
-14.5726
-16.5367
-18.5332
-20.5179
-22.4774
-24.5133
-26.3393
-27.5027
-28.0658
-28.4768
-29.2741
-30.7981
-33.2721
-36.9681
-42.1755
-48.9247
-56.8937
-66.0326
-74.5009
-83.9685
-117.664
21.7771
23.2314
24.8978
26.7249
28.5214
30.3439
32.1307
33.7464
35.1056
36.2085
37.064
37.6858
38.1084
38.3573
38.449
38.3929
38.1907
37.8351
37.3124
36.6022
35.6802
34.5182
33.0848
31.3574
29.3434
27.0683
24.5485
21.7972
18.8278
15.6508
12.2695
8.67458
4.84026
0.710638
-3.78964
-8.8313
-14.4458
-21.2684
-27.5176
19.8126
18.2955
16.5254
14.6115
12.7467
10.7778
8.76767
6.77391
4.76054
2.75386
0.793311
-1.11283
-2.97533
-4.8194
-6.66226
-8.51113
-10.3749
-12.26
-14.1695
-16.1018
-18.0601
-20.024
-21.9278
-23.8067
-25.6431
-27.0909
-27.917
-28.4363
-29.2501
-30.8061
-33.3603
-37.153
-42.4831
-49.4021
-57.59
-66.8108
-75.1971
-84.8913
-114.274
21.2385
22.6365
24.236
25.9877
27.7052
29.4448
31.1484
32.6816
33.963
34.9971
35.7954
36.3717
36.7599
36.9855
37.065
37.0087
36.8192
36.4904
36.0098
35.3582
34.5117
33.4415
32.1152
30.5067
28.6192
26.4737
24.0834
21.4578
18.6079
15.5425
12.265
8.76747
5.02833
0.999178
-3.38463
-8.26475
-13.6591
-20.0511
-25.8537
19.3027
17.8379
16.126
14.273
12.4667
10.5568
8.6051
6.66901
4.71281
2.75831
0.839833
-1.02766
-2.85031
-4.65422
-6.45815
-8.26969
-10.0977
-11.9486
-13.8259
-15.7273
-17.648
-19.5775
-21.4592
-23.2421
-24.9816
-26.6061
-27.7485
-28.4599
-29.3286
-30.9163
-33.5498
-37.4546
-42.9127
-49.9997
-58.3954
-67.6873
-76.0402
-85.7218
-111.066
20.6782
22.0233
23.5616
25.2414
26.8856
28.5486
30.1728
31.6275
32.8359
33.8055
34.55
35.0829
35.4381
35.6407
35.7074
35.649
35.4688
35.1622
34.7178
34.1176
33.3386
32.3521
31.1247
29.6282
27.8618
25.8425
23.58
21.0808
18.353
15.4036
12.2357
8.84291
5.20674
1.28666
-2.97137
-7.68235
-12.8511
-18.8241
-24.1974
18.7732
17.357
15.7
13.9041
12.1532
10.2991
8.40267
6.52039
4.61829
2.71529
0.839236
-0.991939
-2.77751
-4.5433
-6.30971
-8.08502
-9.87801
-11.6952
-13.5398
-15.4107
-17.2985
-19.1907
-21.0517
-22.8067
-24.4468
-26.108
-27.556
-28.5466
-29.5366
-31.1619
-33.8661
-37.8902
-43.4839
-50.7351
-59.3153
-68.6614
-77.0368
-86.4677
-108.076
20.1012
21.3971
22.8769
24.4907
26.0657
27.656
29.2063
30.5863
31.7256
32.6348
33.3284
33.8204
34.144
34.3241
34.3775
34.3155
34.1422
33.8537
33.4401
32.885
32.1661
31.2553
30.1191
28.7275
27.0763
25.1789
23.0418
20.6685
18.0645
15.2348
12.1815
8.89972
5.37419
1.57142
-2.55259
-7.08704
-12.0239
-17.5946
-22.5569
18.2278
16.8577
15.2522
13.5104
11.8115
10.0099
8.16559
6.33509
4.48314
2.63027
0.796581
-1.00018
-2.75123
-4.48116
-6.21186
-7.95237
-9.71173
-11.4963
-13.3095
-15.1504
-17.0099
-18.8706
-20.7069
-22.4639
-24.0721
-25.6826
-27.3457
-28.6858
-29.8848
-31.5783
-34.3397
-38.4736
-44.2059
-51.6133
-60.3641
-69.7582
-78.1552
-87.1507
-105.339
19.5116
20.7611
22.187
23.7374
25.248
26.7708
28.2499
29.5592
30.6333
31.4859
32.1315
32.5846
32.8781
33.0364
33.0764
33.0096
32.8408
32.5672
32.1801
31.6642
30.9989
30.1564
29.1038
27.8097
26.2677
24.4873
22.4726
20.2239
17.7444
15.0369
12.103
8.93822
5.53049
1.85297
-2.12868
-6.4806
-11.1823
-16.3658
-20.9361
17.6711
16.344
14.7873
13.0963
11.4465
9.69474
7.89971
6.11731
4.31358
2.50878
0.716287
-1.0476
-2.76637
-4.4626
-6.15958
-7.86719
-9.5946
-11.3482
-13.1318
-14.9448
-16.7794
-18.6163
-20.4316
-22.1915
-23.831
-25.3999
-27.1502
-28.8515
-30.3633
-32.1937
-35.0027
-39.2288
-45.0906
-52.6447
-61.5435
-70.973
-79.3909
-87.8276
-102.928
18.913
20.1193
21.4936
22.9856
24.4349
25.8933
27.3059
28.5481
29.5607
30.3598
30.96
31.3763
31.6411
31.7783
31.805
31.7326
31.5668
31.3053
30.9408
30.4592
29.8412
29.0603
28.084
26.8806
25.4411
23.7725
21.8761
19.7502
17.3951
14.8117
12.0005
8.95806
5.67458
2.12941
-1.70234
-5.8663
-10.3293
-15.1443
-19.3431
17.106
15.8197
14.3089
12.6662
11.0627
9.35758
7.60935
5.87322
4.1146
2.3556
0.602851
-1.12954
-2.81795
-4.48278
-6.14806
-7.82488
-9.52235
-11.2472
-13.0036
-14.7914
-16.6042
-18.4239
-20.2269
-21.9868
-23.6782
-25.2777
-27.0309
-29.0166
-30.9358
-33.0081
-35.8887
-40.1776
-46.1451
-53.8276
-62.8587
-72.3178
-80.7433
-88.5801
-100.951
18.3087
19.4741
20.8007
22.2364
23.6285
25.0267
26.3752
27.5539
28.5084
29.2573
29.8147
30.1961
30.4337
30.5507
30.5642
30.4859
30.3215
30.0701
29.7247
29.2732
28.697
27.9716
27.0649
25.9451
24.6017
23.0393
21.257
19.2509
17.0192
14.5609
11.8756
8.95986
5.80648
2.40054
-1.27475
-5.24628
-9.46989
-13.9336
-17.7815
16.5361
15.288
13.8206
12.2236
10.6636
9.00328
7.29911
5.60591
3.89079
2.17516
0.461118
-1.24099
-2.90127
-4.53685
-6.17271
-7.82074
-9.49054
-11.189
-12.9207
-14.6865
-16.4811
-18.2888
-20.0878
-21.8523
-23.5867
-25.2772
-27.0433
-29.1818
-31.5356
-33.9815
-37.0133
-41.34
-47.381
-55.1611
-64.302
-73.787
-82.2397
-89.4799
-99.5368
17.7016
18.8287
20.1094
21.493
22.8305
24.171
25.4596
26.5781
27.4777
28.1791
28.696
29.0446
29.2563
29.3541
29.3546
29.27
29.1062
28.8628
28.5342
28.1088
27.57
26.8943
26.0507
25.0081
23.7543
22.2923
20.6194
18.7299
16.62
14.287
11.7293
8.94399
5.92563
2.66452
-0.848376
-4.6241
-8.60817
-12.7399
-16.2591
15.9636
14.7517
13.3256
11.7719
10.2534
8.63467
6.97251
5.3208
3.64606
1.97099
0.295189
-1.37667
-3.01094
-4.62001
-6.22861
-7.85015
-9.49461
-11.1691
-12.8791
-14.6261
-16.4062
-18.2059
-20.0068
-21.7842
-23.5513
-25.3445
-27.1926
-29.3892
-32.0941
-35.0289
-38.3483
-42.7357
-48.803
-56.6398
-65.864
-75.3779
-83.8841
-90.5564
-98.7791
17.0941
18.1849
19.423
20.7562
22.0426
23.329
24.56
25.6214
26.4692
27.1258
27.6046
27.9221
28.1093
28.1888
28.1771
28.0861
27.9222
27.6854
27.371
26.9688
26.4631
25.8321
25.0459
24.0741
22.9039
21.5365
19.9679
18.1912
16.2007
13.9925
11.5636
8.9115
6.03249
2.92108
-0.424637
-4.00238
-7.74887
-11.5661
-14.7784
15.3913
14.2138
12.8267
11.314
9.83446
8.25614
6.63353
5.02022
3.38445
1.74714
0.108714
-1.53259
-3.14264
-4.72755
-6.31124
-7.90834
-9.52977
-11.1829
-12.8738
-14.605
-16.3741
-18.1695
-19.976
-21.7723
-23.5709
-25.447
-27.4292
-29.6821
-32.5846
-36.028
-39.8018
-44.3529
-50.4163
-58.2571
-67.5217
-77.0671
-85.6715
-91.8318
-98.719
16.4886
17.5452
18.7421
20.0289
21.2663
22.5007
23.6776
24.6852
25.4841
26.0982
26.541
26.8292
26.9933
27.0555
27.032
26.9348
26.7703
26.5391
26.2372
25.8554
25.3794
24.7884
24.0543
23.1477
22.055
20.7765
19.3072
17.6391
15.7652
13.6802
11.3804
8.86332
6.12671
3.16892
-0.00609297
-3.38457
-6.89616
-10.418
-13.3461
14.8212
13.6761
12.3263
10.8528
9.41066
7.86973
6.2851
4.70894
3.10941
1.50792
-0.0947403
-1.70587
-3.29268
-4.85523
-6.41605
-7.99078
-9.59125
-11.2253
-12.8995
-14.6175
-16.3787
-18.1729
-19.9876
-21.8052
-23.638
-25.5763
-27.693
-30.0565
-33.0381
-36.8682
-41.2184
-46.113
-52.2125
-60.0031
-69.2564
-78.8195
-87.5605
-93.3239
-99.3269
15.887
16.9111
18.0698
19.3112
20.5029
21.6885
22.8131
23.7698
24.5225
25.0968
25.5056
25.7664
25.9088
25.9547
25.9201
25.8169
25.6515
25.4251
25.1342
24.7706
24.321
23.7663
23.0797
22.2327
21.212
20.0169
18.6417
17.0777
15.317
13.3533
11.1823
8.80116
6.20913
3.40778
0.406091
-2.77336
-6.05469
-9.2981
-11.9638
14.2555
13.1414
11.8268
10.3907
8.98362
7.47944
5.93061
4.38912
2.82481
1.25743
-0.310988
-1.89289
-3.4572
-4.99883
-6.53841
-8.09252
-9.67388
-11.2908
-12.9504
-14.6576
-16.4131
-18.2083
-20.0326
-21.8712
-23.739
-25.7284
-27.9483
-30.4561
-33.4951
-37.5122
-42.4125
-47.8469
-54.1294
-61.8576
-71.0434
-80.5896
-89.4961
-95.013
-100.485
15.2913
16.2848
17.4063
18.6059
19.7536
20.8921
21.9678
22.8763
23.5856
24.1222
24.4991
24.734
24.8561
24.8868
24.8418
24.7329
24.5666
24.3443
24.0633
23.7159
23.2904
22.7685
22.125
21.3329
20.379
19.2618
17.9757
16.5113
14.8601
13.0151
10.9713
8.72618
6.27986
3.63653
0.809325
-2.17232
-5.22854
-8.21154
-10.6369
13.6956
12.6109
11.3304
9.9299
8.55689
7.08676
5.57261
4.06502
2.5337
0.999103
-0.536418
-2.08973
-3.63225
-5.15414
-6.67392
-8.20876
-9.77254
-11.374
-13.0207
-14.7187
-16.4698
-18.2672
-20.1015
-21.9593
-23.8586
-25.8925
-28.1842
-30.8196
-33.9469
-38.0024
-43.2526
-49.3142
-56.008
-63.7638
-72.8492
-82.3366
-91.3929
-96.817
-102.027
14.7031
15.6673
16.7543
17.9129
19.0195
20.1139
21.142
22.005
22.6734
23.1747
23.5216
23.7323
23.8354
23.8521
23.7975
23.6834
23.5161
23.2977
23.0255
22.6931
22.2892
21.7971
21.1932
20.4516
19.5596
18.5154
17.3133
15.9438
14.3982
12.6688
10.7503
8.64042
6.33992
3.85514
1.20246
-1.58364
-4.42166
-7.16051
-9.36558
13.1436
12.087
10.8387
9.47251
8.13162
6.69523
5.21396
3.73822
2.23916
0.736097
-0.767945
-2.29261
-3.81361
-5.31681
-6.81802
-8.33476
-9.88195
-11.469
-13.104
-14.7936
-16.5409
-18.3404
-20.1836
-22.0574
-23.9818
-26.0525
-28.394
-31.1143
-34.338
-38.3868
-43.7268
-50.2844
-57.5732
-65.5694
-74.5993
-84.0022
-93.1633
-98.6047
-103.752
14.1239
15.0604
16.1138
17.2345
18.3015
19.3533
20.3368
21.1567
21.7867
22.2547
22.5736
22.7617
22.8474
22.851
22.7876
22.6687
22.5008
22.286
22.0219
21.7032
21.3191
20.8545
20.2867
19.5917
18.7572
17.7814
16.6584
15.3792
13.9349
12.3176
10.5219
8.54536
6.38972
4.06278
1.58329
-1.01093
-3.63804
-6.14935
-8.15406
12.6005
11.5708
10.3538
9.02048
7.71094
6.30599
4.85695
3.41251
1.94392
0.471227
-1.00279
-2.49848
-3.99716
-5.48246
-6.96614
-8.46559
-9.99686
-11.5701
-13.1937
-14.8751
-16.6183
-18.4187
-20.2683
-22.1538
-24.0954
-26.1914
-28.5653
-31.3301
-34.617
-38.6603
-43.9138
-50.6582
-58.5125
-66.9875
-76.1342
-85.4855
-94.6936
-100.22
-105.43
13.555
14.4649
15.487
16.5705
17.6004
18.6121
19.5524
20.3315
20.9256
21.3624
21.6553
21.8225
21.8919
21.8835
21.8124
21.6891
21.5211
21.3094
21.0534
20.747
20.3815
19.942
19.4077
18.7559
17.9748
17.0629
16.0146
14.8212
13.4739
11.9648
10.2886
8.44303
6.43037
4.25957
1.95086
-0.456053
-2.88068
-5.17943
-7.00155
12.0682
11.0643
9.87705
8.57547
7.2957
5.92219
4.50388
3.08922
1.65076
0.207464
-1.23773
-2.70453
-4.1797
-5.64702
-7.11382
-8.59651
-10.112
-11.6713
-13.2833
-14.9558
-16.6936
-18.4924
-20.3446
-22.2362
-24.1861
-26.294
-28.6829
-31.4608
-34.7614
-38.7818
-43.8809
-50.5008
-58.6241
-67.6385
-77.1405
-86.5848
-95.8323
-101.474
-106.801
12.9977
13.8823
14.8736
15.9227
16.9167
17.8896
18.7896
19.5303
20.0907
20.4983
20.7668
20.9147
20.9693
20.9501
20.8718
20.7453
20.5769
20.369
20.1203
19.8259
19.4774
19.0613
18.5581
17.9463
17.215
16.363
15.3851
14.2729
13.0182
11.6132
10.0528
8.33506
6.46249
4.44486
2.30333
0.0780333
-2.15303
-4.25432
-5.91108
11.5474
10.5683
9.41004
8.13919
6.88868
5.5447
4.1567
2.77163
1.36205
-0.052416
-1.4694
-2.9077
-4.3586
-5.80716
-7.25692
-8.72273
-10.2221
-11.7669
-13.3664
-15.0285
-16.7584
-18.5524
-20.4023
-22.2929
-24.2415
-26.3469
-28.7316
-31.4964
-34.7666
-38.7215
-43.6412
-49.95
-57.9325
-67.2344
-77.1901
-86.9396
-96.3131
-102.122
-107.553
12.453
13.3133
14.2757
15.2908
16.2511
17.1876
18.0485
18.753
19.2819
19.6624
19.9083
20.0385
20.0795
20.0507
19.9663
19.837
19.669
19.4648
19.2233
18.9402
18.6078
18.2136
17.7392
17.1647
16.4801
15.6842
14.7726
13.7374
12.5709
11.2658
9.81712
8.22324
6.48714
4.61892
2.63994
0.589822
-1.4571
-3.37469
-4.8809
11.0394
10.0844
8.95401
7.71301
6.49051
5.17632
3.81755
2.461
1.08031
-0.305755
-1.69484
-3.10469
-4.53072
-5.95963
-7.39159
-8.83987
-10.3223
-11.8514
-13.4366
-15.0859
-16.8049
-18.5896
-20.4312
-22.313
-24.25
-26.3388
-28.6996
-31.4265
-34.6309
-38.4738
-43.184
-49.1058
-56.6278
-65.7515
-75.9312
-86.0689
-95.7064
-101.798
-107.277
11.9218
12.7587
13.6929
14.6764
15.6041
16.5054
17.33
18.0003
18.4997
18.8549
19.08
19.1938
19.2227
19.1854
19.0958
18.9644
18.7973
18.5971
18.3628
18.0905
17.7734
17.3997
16.9524
16.4129
15.7718
15.0287
14.1795
13.2173
12.1346
10.9248
9.58347
8.10911
6.505
4.78138
2.95928
1.07705
-0.795633
-2.54311
-3.91325
10.5449
9.6132
8.51015
7.29832
6.10359
4.8177
3.48816
2.16013
0.807602
-0.550291
-1.91133
-3.2926
-4.69286
-6.10101
-7.51421
-8.94384
-10.4079
-11.9194
-13.488
-15.1217
-16.8257
-18.5958
-20.4223
-22.2866
-24.2012
-26.2595
-28.5775
-31.2428
-34.352
-38.0442
-42.5095
-48.0154
-54.9179
-63.4306
-73.3317
-83.6046
-93.499
-99.9979
-105.483
11.405
12.2194
13.1269
14.0792
14.9762
15.8443
16.6339
17.2721
17.744
18.0757
18.2816
18.3808
18.3988
18.354
18.2602
18.1275
17.9619
17.7658
17.5387
17.2771
16.9745
16.6202
16.1985
15.6918
15.0918
14.3983
13.608
12.7146
11.7115
10.5926
9.35378
7.99413
6.51696
4.93243
3.2609
1.53863
-0.16984
-1.75966
-3.00561
10.0649
9.15607
8.07943
6.89616
5.72831
4.47119
3.17015
1.87001
0.546001
-0.783714
-2.11656
-3.46899
-4.8419
-6.22787
-7.62103
-9.0307
-10.4746
-11.9661
-13.5151
-15.1295
-16.8139
-18.5635
-20.3673
-22.2051
-24.0866
-26.1009
-28.3588
-30.9405
-33.9289
-37.4406
-41.6308
-46.7054
-52.9425
-60.597
-69.7062
-79.5701
-89.3933
-96.2405
-101.662
10.9033
11.6959
12.5773
13.5005
14.3676
15.2037
15.9608
16.5688
17.015
17.325
17.5134
17.5992
17.6077
17.5566
17.4595
17.3262
17.1624
16.971
16.7512
16.5
16.2114
15.8758
15.4781
15.0024
14.4411
13.7943
13.0596
12.2313
11.3035
10.2708
9.12972
7.87947
6.52362
5.07198
3.54385
1.97305
0.418528
-1.02578
-2.1595
9.59998
8.71321
7.66277
6.5076
5.36664
4.13722
2.86493
1.59304
0.297119
-1.00423
-2.30863
-3.63202
-4.97583
-6.33723
-7.70869
-9.09675
-10.5183
-11.9872
-13.5133
-15.1041
-16.7635
-18.4861
-20.2596
-22.0617
-23.8992
-25.857
-28.0393
-30.5181
-33.3638
-36.6718
-40.5658
-45.2018
-50.7807
-57.5086
-65.5182
-74.4155
-83.5884
-90.4092
-95.5525
10.4173
11.1888
12.0454
12.9399
13.7788
14.5848
15.3105
15.8902
16.3124
16.6025
16.7749
16.8489
16.849
16.7928
16.6933
16.5601
16.3989
16.2124
16
15.7591
15.4842
15.1663
14.7916
14.3452
13.8204
13.2178
12.5355
11.7686
10.912
9.96097
8.91247
7.76617
6.52559
5.20016
3.80788
2.37977
0.969048
-0.340936
-1.37188
9.15091
8.2859
7.26089
6.13339
5.01883
3.81769
2.57379
1.32991
0.0627165
-1.20998
-2.4855
-3.77948
-5.09295
-6.42713
-7.77451
-9.13887
-10.5357
-11.9788
-13.4781
-15.0408
-16.6697
-18.3585
-20.0935
-21.8508
-23.6346
-25.5244
-27.6172
-29.9772
-32.6626
-35.75
-39.3347
-43.5323
-48.4806
-54.3153
-61.1497
-68.7588
-76.7428
-82.9699
-87.4299
9.94764
10.6987
11.5309
12.3984
13.2099
13.9868
14.6833
15.2364
15.6364
15.9081
16.0661
16.1296
16.1227
16.0622
15.9612
15.8289
15.6708
15.4896
15.2848
15.0542
14.7927
14.4919
14.1391
13.7204
13.2302
12.6694
12.0365
11.3275
10.5381
9.66411
8.70308
7.65499
6.52335
5.31701
4.05253
2.75802
1.48091
0.29441
-0.64365
8.71798
7.87418
6.87448
5.77442
4.68631
3.51282
2.2978
1.08249
-0.155927
-1.3995
-2.64556
-3.90935
-5.19151
-6.49608
-7.81663
-9.15464
-10.5239
-11.9379
-13.4064
-14.936
-16.5287
-18.1767
-19.8654
-21.5695
-23.2904
-25.1016
-27.0935
-29.3218
-31.8337
-34.689
-37.9591
-41.7257
-46.0786
-51.0921
-56.8217
-63.0947
-69.6256
-74.796
-78.1515
9.4947
10.2258
11.0348
11.8755
12.661
13.4105
14.0789
14.6072
14.9865
15.2414
15.3865
15.4409
15.4281
15.3645
15.2629
15.1322
14.9777
14.8021
14.6052
14.3848
14.1363
13.8521
13.5202
13.1281
12.6707
12.1493
11.5631
10.9087
10.1825
9.38097
8.50221
7.54646
6.5172
5.4226
4.27774
3.10768
1.9543
0.881313
0.0287122
8.30191
7.47911
6.50411
5.4312
4.36923
3.22407
2.03783
0.851214
-0.357615
-1.57145
-2.78725
-4.01988
-5.26952
-6.54241
-7.83342
-9.14218
-10.4808
-11.8621
-13.2956
-14.7872
-16.3376
-17.9383
-19.5732
-21.2162
-22.8656
-24.5899
-26.4714
-28.5583
-30.888
-33.5055
-36.4618
-39.8116
-43.6078
-47.8803
-52.6297
-57.687
-62.7901
-66.7348
-68.8041
9.05884
9.77057
10.5565
11.372
12.1321
12.8551
13.4974
14.0025
14.3628
14.6024
14.7359
14.7824
14.7648
14.6991
14.5976
14.4693
14.319
14.1494
13.9605
13.7503
13.5147
13.2465
12.9347
12.5679
12.1416
11.6576
11.1154
10.5124
9.84553
9.11198
8.31029
7.44101
6.50741
5.51707
4.48345