/*--------------------------------*- C++ -*----------------------------------*\
  =========                 |
  \\      /  F ield         | OpenFOAM: The Open Source CFD Toolbox
   \\    /   O peration     | Website:  https://openfoam.org
    \\  /    A nd           | Version:  9
     \\/     M anipulation  |
\*---------------------------------------------------------------------------*/
FoamFile
{
    format      ascii;
    class       volVectorField;
    location    "450";
    object      U;
}
// * * * * * * * * * * * * * * * * * * * * * * * * * * * * * * * * * * * * * //

dimensions      [0 1 -1 0 0 0 0];

internalField   nonuniform List<vector> 
10720
(
(-1.6399 15.4884 1.51144e-17)
(-0.798487 15.7815 -1.50386e-17)
(0.0795626 15.8049 0)
(0.925822 15.3343 -1.65342e-16)
(1.6722 14.408 1.88963e-16)
(2.24561 12.9233 1.02158e-16)
(2.5278 10.8177 1.31031e-16)
(2.43466 8.17364 0)
(1.93078 5.17904 0)
(1.07971 2.2186 0)
(-0.011487 -0.0959396 7.16495e-18)
(-0.997392 -0.885357 0)
(-1.58091 -1.03122 1.62681e-15)
(-1.88337 -1.07578 0)
(-2.05549 -1.07164 0)
(-2.12187 -1.00768 0)
(-2.04867 -0.88039 -2.47242e-15)
(-1.88635 -0.725321 -3.7448e-15)
(-1.6646 -0.565698 3.68389e-15)
(-1.44316 -0.419336 0)
(-1.27187 -0.298904 3.97786e-15)
(-1.17859 -0.209829 -8.37783e-15)
(-1.16328 -0.149406 4.24954e-15)
(-1.20144 -0.110235 -1.19418e-16)
(-1.25437 -0.0836762 0)
(-1.27859 -0.0614641 1.68954e-15)
(-1.24135 -0.0396846 2.55673e-17)
(-1.13874 -0.0185639 -8.08341e-16)
(-0.998774 0.00162366 -3.23007e-15)
(-0.872668 0.0233458 -1.29296e-14)
(-0.838357 0.0551834 6.22094e-15)
(-0.980919 0.111626 1.19293e-14)
(-1.3419 0.200408 1.07178e-14)
(-1.74186 0.281203 3.95298e-14)
(-1.88095 0.277362 -1.95e-14)
(-1.78184 0.215835 -1.54522e-16)
(-1.4444 0.19947 2.05534e-16)
(4.44642 -1.2806 3.8705e-14)
(3.94603 -1.78812 -7.02589e-14)
(-2.45434 15.0277 6.51229e-18)
(-3.26838 14.3406 1.16186e-17)
(-4.04702 13.4349 -1.76685e-17)
(-4.70627 12.1593 8.65991e-18)
(-5.16163 10.7055 2.81698e-17)
(-5.34324 9.08683 3.47782e-17)
(-5.20488 7.38986 2.98156e-16)
(-4.74473 5.74409 1.97282e-16)
(-4.02906 4.27101 0)
(-3.14497 3.02343 0)
(-2.16571 2.01539 1.03538e-15)
(-1.16687 1.24052 8.27469e-16)
(-0.212303 0.661105 -3.03341e-15)
(0.629812 0.217023 3.29638e-15)
(1.44245 -0.171097 3.9954e-15)
(2.24087 -0.474377 2.14263e-15)
(2.97482 -0.683895 2.49657e-15)
(3.64067 -0.823939 1.56775e-15)
(4.2591 -0.919127 0)
(4.84698 -0.980779 0)
(5.41338 -1.0142 -2.12199e-15)
(5.9641 -1.01953 -1.07576e-16)
(6.5036 -0.994195 1.6103e-15)
(7.02672 -0.928906 -1.2645e-15)
(7.51446 -0.82072 6.41734e-18)
(7.95912 -0.68074 0)
(8.3667 -0.5178 3.54395e-16)
(8.74216 -0.338017 0)
(9.08803 -0.145721 0)
(9.40749 0.0548209 1.6093e-16)
(9.70706 0.260298 0)
(9.99262 0.467857 -2.12635e-16)
(10.2751 0.676156 -3.80787e-17)
(10.5648 0.884637 1.7822e-15)
(10.8976 1.09885 -1.50013e-15)
(11.2606 1.32018 7.34217e-18)
(11.8792 1.58871 0)
(12.4177 1.92132 -9.17036e-15)
(15.3092 2.29585 -1.22066e-14)
(2.1115 14.1162 2.668e-18)
(2.99695 14.454 -4.79888e-18)
(3.92063 14.7543 0)
(4.79757 15.0038 0)
(5.52022 15.1698 -4.11112e-17)
(6.04388 15.2356 -7.29296e-17)
(6.32079 15.0597 0)
(6.30764 14.43 0)
(5.94608 13.055 8.8351e-17)
(5.17051 10.7281 0)
(3.92504 7.53746 4.2369e-16)
(2.25959 4.04497 0)
(0.455672 1.04878 4.09024e-16)
(-0.875024 -0.330839 -5.81098e-16)
(-1.50961 -0.759756 1.03306e-15)
(-1.86394 -0.93631 -1.99902e-15)
(-2.02586 -0.963382 1.93904e-15)
(-2.02924 -0.890826 1.92539e-15)
(-1.92676 -0.753071 1.99024e-15)
(-1.79519 -0.590884 1.32379e-16)
(-1.70475 -0.43566 -2.35015e-15)
(-1.69389 -0.31022 2.36508e-15)
(-1.75647 -0.218763 -1.27815e-16)
(-1.85276 -0.156234 0)
(-1.94235 -0.113745 0)
(-1.99957 -0.0794185 0)
(-2.01318 -0.0442528 9.56353e-17)
(-1.98758 -0.00447241 -2.26661e-17)
(-1.93881 0.0419683 1.37346e-15)
(-1.91086 0.0971033 1.68503e-18)
(-1.97044 0.166013 -1.92817e-18)
(-2.1744 0.256863 -4.24172e-17)
(-2.53166 0.371034 4.36794e-15)
(-2.88997 0.469557 -8.34765e-15)
(-3.03946 0.473021 -6.84063e-17)
(-3.01756 0.391496 -1.54132e-14)
(-2.26431 0.237886 0)
(2.47065 -1.03162 -7.64811e-15)
(1.87359 -0.772449 -3.05576e-14)
(1.25733 13.6784 -3.64716e-18)
(0.423116 13.1357 2.1781e-18)
(-0.471509 12.4272 -1.48665e-17)
(-1.31807 11.5147 -3.394e-18)
(-2.0458 10.3954 0)
(-2.59107 9.09905 -1.63143e-16)
(-2.89233 7.68139 -1.26041e-16)
(-2.90603 6.24253 -8.84172e-16)
(-2.6432 4.88177 3.65091e-16)
(-2.15627 3.66342 -5.38396e-16)
(-1.51006 2.62822 1.02116e-15)
(-0.771686 1.78791 -4.58426e-16)
(0.00159198 1.12199 0)
(0.766465 0.593237 -7.15925e-16)
(1.52119 0.165481 -6.06532e-18)
(2.262 -0.148179 -1.41545e-15)
(2.96049 -0.364059 0)
(3.61168 -0.515707 0)
(4.22768 -0.625863 -1.40268e-16)
(4.82054 -0.700795 1.27821e-16)
(5.39642 -0.743172 -1.60318e-15)
(5.95993 -0.75178 -1.82759e-16)
(6.5141 -0.723376 8.14508e-17)
(7.05497 -0.647608 1.05368e-15)
(7.56696 -0.526447 -9.03211e-16)
(8.04104 -0.378716 -7.12022e-16)
(8.48065 -0.213972 0)
(8.88977 -0.0368676 0)
(9.27011 0.149783 0)
(9.62493 0.34216 2.95987e-18)
(9.95973 0.538015 0)
(10.2801 0.735033 0)
(10.5965 0.932673 8.26015e-17)
(10.9187 1.13198 -5.82221e-16)
(11.2818 1.33935 1.23463e-15)
(11.6697 1.56071 -1.91013e-15)
(12.3166 1.84162 5.25633e-15)
(12.8326 2.17366 7.15227e-15)
(15.7236 3.02291 8.80727e-15)
(1.18594 12.994 8.94296e-19)
(1.7889 13.2983 2.2263e-17)
(2.45561 13.5117 -1.77918e-17)
(3.14889 13.6499 -1.66556e-17)
(3.85026 13.732 -4.78924e-17)
(4.56641 13.8362 1.37088e-16)
(5.25253 14.0372 -8.61888e-17)
(5.85972 14.3277 -6.8528e-17)
(6.34449 14.5163 -2.31916e-18)
(6.58555 14.1626 -7.04868e-17)
(6.3651 12.7537 5.72474e-17)
(5.43404 10.0509 -1.82801e-16)
(3.73539 6.40223 -1.20612e-16)
(1.61738 2.8757 0)
(-0.145677 0.616364 -6.67901e-16)
(-1.12738 -0.287573 1.57994e-15)
(-1.66129 -0.691565 0)
(-1.9236 -0.830969 -2.87144e-15)
(-2.00614 -0.803882 -1.42088e-15)
(-1.99615 -0.673859 1.85531e-16)
(-1.98837 -0.506985 -1.95826e-16)
(-2.03983 -0.356728 -9.802e-17)
(-2.15113 -0.243671 -1.31694e-15)
(-2.28521 -0.168074 6.38062e-16)
(-2.41125 -0.119669 0)
(-2.51091 -0.08183 5.44626e-16)
(-2.57554 -0.0402726 -6.33665e-17)
(-2.60862 0.0119328 0)
(-2.62823 0.0781581 8.8334e-16)
(-2.67005 0.159627 1.70239e-15)
(-2.78483 0.257324 -3.18983e-15)
(-3.01596 0.372679 -2.94885e-15)
(-3.36581 0.501441 -4.57108e-17)
(-3.71609 0.606746 -5.37222e-15)
(-3.89278 0.607227 -5.26338e-15)
(-3.85802 0.489063 9.45427e-15)
(-2.99949 0.263906 0)
(1.04734 -0.883456 -4.69456e-15)
(0.530169 -0.650521 3.57418e-14)
(0.64195 12.6105 3.98629e-19)
(0.112061 12.1221 -3.52282e-18)
(-0.415985 11.4714 -2.97237e-18)
(-0.935552 10.6724 0)
(-1.3792 9.73373 5.42107e-17)
(-1.71265 8.66421 0)
(-1.89823 7.49824 3.92639e-16)
(-1.90436 6.30148 2.41931e-16)
(-1.72281 5.13838 3.146e-16)
(-1.37039 4.05674 0)
(-0.88351 3.09362 -1.06312e-15)
(-0.302093 2.26959 -3.42013e-16)
(0.335367 1.58254 2.15862e-15)
(0.996012 1.01906 0)
(1.66942 0.562974 -1.21084e-15)
(2.3444 0.212618 -3.52475e-16)
(2.99578 -0.0482877 1.50923e-15)
(3.61572 -0.244942 7.90559e-16)
(4.20997 -0.394131 2.27771e-16)
(4.78657 -0.502154 -1.11693e-16)
(5.35008 -0.572649 1.33794e-15)
(5.90374 -0.606376 0)
(6.44954 -0.601506 0)
(6.98406 -0.551703 3.83601e-18)
(7.49461 -0.459384 0)
(7.97271 -0.338226 1.32311e-15)
(8.42044 -0.195384 -1.82683e-17)
(8.8414 -0.0347287 -1.09684e-16)
(9.2373 0.140566 0)
(9.61142 0.32604 -1.25411e-16)
(9.96907 0.519455 1.71419e-16)
(10.3157 0.71812 0)
(10.6612 0.921189 -4.622e-17)
(11.0148 1.12957 0)
(11.4107 1.34952 0)
(11.83 1.58911 1.98606e-17)
(12.5063 1.88793 -6.77165e-17)
(13.0258 2.28517 -6.6809e-15)
(15.7368 3.19294 -1.72062e-14)
(2.31549 12.0874 -7.08151e-19)
(2.8679 12.388 2.15216e-19)
(3.46082 12.6291 -4.00734e-18)
(4.07054 12.8082 1.1246e-18)
(4.63589 12.9118 0)
(5.13438 12.956 0)
(5.56452 12.9931 -1.10293e-16)
(5.94891 13.1158 1.24815e-16)
(6.33539 13.4283 0)
(6.75077 13.8686 -1.02607e-16)
(7.10206 14.0479 -1.21136e-16)
(7.09837 13.3147 -1.13063e-16)
(6.35557 11.124 1.48656e-16)
(4.64779 7.60543 1.82963e-16)
(2.34142 3.85862 0)
(0.299714 1.21608 6.8581e-16)
(-0.90081 0.00393652 2.95665e-16)
(-1.53483 -0.531866 2.2645e-15)
(-1.86556 -0.711609 1.38765e-16)
(-2.02104 -0.672239 -1.42397e-16)
(-2.11626 -0.523522 1.36022e-15)
(-2.23392 -0.362291 -2.23805e-16)
(-2.38946 -0.236774 1.14342e-15)
(-2.55768 -0.155483 4.85665e-16)
(-2.71673 -0.106767 -2.83169e-17)
(-2.85448 -0.0702207 -3.89051e-16)
(-2.96573 -0.0274719 3.05929e-18)
(-3.05456 0.0313783 -2.77544e-18)
(-3.13779 0.111789 -6.77312e-16)
(-3.24164 0.214351 -2.05278e-17)
(-3.40438 0.33662 1.26472e-15)
(-3.6598 0.473689 -2.35262e-15)
(-4.00986 0.614544 -2.09912e-15)
(-4.35643 0.720093 -2.93834e-17)
(-4.54112 0.706637 3.92597e-15)
(-4.50322 0.547887 0)
(-3.66001 0.258952 6.19783e-15)
(-0.106799 -0.802513 3.46514e-15)
(-0.385455 -0.734392 -1.23256e-14)
(1.79423 11.7404 -4.6771e-18)
(1.2729 11.3203 6.87962e-18)
(0.739335 10.7789 4.1757e-17)
(0.214982 10.1075 0)
(-0.242417 9.30978 -5.07371e-17)
(-0.605301 8.39393 0)
(-0.8413 7.38659 -3.78448e-16)
(-0.924014 6.34305 -8.38354e-18)
(-0.845577 5.31444 2.83503e-16)
(-0.615969 4.33796 3.76545e-16)
(-0.26037 3.44578 1.16098e-17)
(0.192773 2.65882 1.08518e-15)
(0.713378 1.98112 -1.01205e-15)
(1.27493 1.4056 3.40624e-16)
(1.86581 0.926433 1.22211e-15)
(2.47272 0.54341 1.37157e-15)
(3.07368 0.245926 -1.24458e-15)
(3.6586 0.015744 -5.81484e-18)
(4.22795 -0.161702 0)
(4.78569 -0.294033 1.38669e-15)
(5.33444 -0.385365 7.38076e-17)
(5.87593 -0.437339 -1.13561e-15)
(6.41111 -0.449182 0)
(6.93656 -0.41674 2.64467e-18)
(7.4413 -0.341531 0)
(7.91696 -0.234608 -5.70286e-16)
(8.36424 -0.103604 0)
(8.78612 0.0468551 9.73552e-17)
(9.18421 0.213102 -3.43479e-18)
(9.56168 0.390573 2.03802e-18)
(9.92376 0.577188 -1.4688e-16)
(10.2759 0.770321 -3.63622e-18)
(10.6281 0.96926 0)
(10.9891 1.17531 -2.03749e-16)
(11.3927 1.39486 -5.33695e-18)
(11.8202 1.63835 1.57601e-15)
(12.4962 1.94204 -8.83435e-15)
(13.0221 2.381 -1.81736e-17)
(15.5089 3.28128 0)
(2.49728 11.4231 -2.72589e-18)
(2.923 11.7203 -5.82411e-19)
(3.39232 11.9814 -1.88682e-18)
(3.88022 12.2032 3.75167e-17)
(4.36093 12.3632 -1.23781e-17)
(4.84919 12.4673 -2.91072e-17)
(5.31986 12.5237 4.9852e-17)
(5.7527 12.5565 0)
(6.15397 12.6402 1.3135e-16)
(6.55796 12.8954 5.76565e-17)
(7.00798 13.3636 0)
(7.44888 13.7572 1.02728e-16)
(7.59119 13.3526 -5.38874e-17)
(6.92674 11.4127 1.61668e-16)
(5.15217 7.96865 0)
(2.6681 4.17098 -4.64834e-16)
(0.479249 1.44848 7.08857e-16)
(-0.813762 0.127074 -9.07303e-18)
(-1.50239 -0.427965 0)
(-1.87391 -0.564884 1.0251e-15)
(-2.09215 -0.477457 -1.08102e-15)
(-2.27814 -0.32561 -5.8658e-17)
(-2.47508 -0.199388 -8.4732e-16)
(-2.67486 -0.119981 -7.26702e-16)
(-2.86507 -0.0754546 0)
(-3.04002 -0.043257 0)
(-3.19817 -0.00258646 -7.72492e-17)
(-3.3434 0.0589654 -9.31331e-18)
(-3.48707 0.148344 5.56986e-16)
(-3.64932 0.266148 -1.67592e-17)
(-3.86018 0.407861 1.48948e-17)
(-4.14465 0.563144 1.86945e-15)
(-4.50448 0.714258 0)
(-4.85436 0.817457 6.74505e-15)
(-5.04842 0.786153 -2.39971e-17)
(-5.02049 0.585712 0)
(-4.23463 0.235427 1.78478e-17)
(-1.06922 -0.773717 0)
(-1.08718 -0.88289 9.3589e-15)
(2.10099 11.0899 5.61366e-18)
(1.70781 10.6984 -3.01539e-17)
(1.30038 10.2014 3.90909e-17)
(0.88635 9.60023 6.26669e-17)
(0.515901 8.90098 -2.29196e-16)
(0.208628 8.10347 -3.0927e-16)
(-0.00798627 7.22556 3.47387e-16)
(-0.108177 6.31208 -4.45079e-16)
(-0.0805723 5.40297 -2.81677e-16)
(0.0718121 4.52585 -3.34041e-16)
(0.333779 3.70765 7.85778e-16)
(0.686741 2.96808 -9.68323e-16)
(1.10919 2.31449 -5.46665e-16)
(1.58231 1.74346 5.43611e-16)
(2.09624 1.25577 -1.2649e-15)
(2.63725 0.853748 2.20988e-16)
(3.18653 0.530742 0)
(3.73308 0.273759 -9.481e-16)
(4.27372 0.0712019 3.40732e-16)
(4.80915 -0.0842247 -1.37485e-15)
(5.34014 -0.196462 0)
(5.86707 -0.267381 9.44356e-16)
(6.38979 -0.296875 7.71323e-16)
(6.90473 -0.282609 -6.61115e-16)
(7.40212 -0.225847 0)
(7.87374 -0.135477 -5.15739e-16)
(8.31908 -0.0191492 0)
(8.74033 0.118558 0)
(9.13884 0.273886 0)
(9.51745 0.442407 1.03239e-16)
(9.88113 0.621917 0)
(10.2352 0.809832 0)
(10.5893 1.00535 -6.66101e-17)
(10.9522 1.21001 1.86121e-16)
(11.3565 1.43014 0)
(11.7847 1.67866 1.37199e-15)
(12.4509 1.98816 4.08231e-17)
(12.9766 2.46367 0)
(15.2627 3.36973 5.98173e-15)
(2.99169 10.8366 5.032e-18)
(3.37247 11.1227 -4.0485e-18)
(3.79083 11.3827 0)
(4.22839 11.6139 -2.48579e-18)
(4.66116 11.7979 -5.56314e-18)
(5.07997 11.948 2.86521e-17)
(5.46958 12.0706 8.56088e-18)
(5.82822 12.1662 -8.30402e-17)
(6.16525 12.2421 -1.75775e-17)
(6.49521 12.3382 1.11398e-16)
(6.85352 12.5645 -3.80922e-17)
(7.29352 13.0193 7.78703e-17)
(7.778 13.4761 3.57827e-17)
(7.96963 13.1712 2.32825e-17)
(7.26017 11.2558 0)
(5.30984 7.77942 -7.12821e-17)
(2.66119 4.02308 -2.06246e-16)
(0.43102 1.39793 -1.21328e-15)
(-0.861213 0.145298 4.67213e-16)
(-1.55257 -0.319856 -5.67564e-16)
(-1.93588 -0.363179 -9.49459e-17)
(-2.19815 -0.249067 0)
(-2.43533 -0.134372 6.42598e-16)
(-2.66397 -0.0634916 3.88518e-17)
(-2.88223 -0.0270776 -1.83114e-17)
(-3.09049 -0.00171171 -2.4361e-16)
(-3.29122 0.0346963 5.55274e-17)
(-3.48903 0.0962123 1.19569e-16)
(-3.69179 0.190628 -4.56027e-16)
(-3.91353 0.318818 -2.80583e-17)
(-4.17501 0.47461 8.79462e-16)
(-4.49499 0.643903 1.55579e-15)
(-4.87432 0.802941 0)
(-5.23672 0.9024 2.3246e-17)
(-5.4476 0.852141 -2.75259e-15)
(-5.44121 0.610093 0)
(-4.7274 0.198999 -7.90838e-15)
(-1.86788 -0.778289 0)
(-1.71067 -1.05394 -7.48366e-15)
(2.63525 10.5254 -5.26112e-18)
(2.28214 10.1683 1.73659e-17)
(1.91566 9.72032 0)
(1.54433 9.18134 0)
(1.21089 8.55814 1.08304e-16)
(0.92864 7.84959 5.62237e-16)
(0.719915 7.06929 0)
(0.606658 6.25634 -4.1495e-16)
(0.599372 5.44375 -4.96824e-16)
(0.697241 4.65202 6.0136e-16)
(0.890226 3.90304 -1.46878e-17)
(1.16552 3.21405 4.15649e-16)
(1.50771 2.59207 -4.75106e-18)
(1.90481 2.03643 1.34988e-15)
(2.34932 1.55162 1.2693e-15)
(2.82815 1.14117 -1.20152e-15)
(3.32598 0.801314 1.79982e-16)
(3.83215 0.523699 -3.33934e-16)
(4.34131 0.300056 1.54709e-16)
(4.85175 0.124383 9.50269e-16)
(5.36258 -0.00691704 1.2469e-16)
(5.87297 -0.0957491 -1.02513e-16)
(6.38174 -0.142313 -6.46485e-16)
(6.88506 -0.145369 0)
(7.37399 -0.106198 3.27229e-17)
(7.84046 -0.0319325 9.09746e-16)
(8.2829 0.0702101 -5.69114e-18)
(8.70268 0.195644 5.48704e-18)
(9.10084 0.340484 0)
(9.47986 0.500309 -9.39926e-17)
(9.84439 0.672731 0)
(10.1995 0.855267 0)
(10.5546 1.04707 6.11111e-17)
(10.9181 1.24997 -1.51358e-16)
(11.3217 1.47018 0)
(11.7487 1.72328 -1.23559e-15)
(12.403 2.03814 6.89672e-15)
(12.9253 2.54676 -2.78971e-17)
(15.0255 3.45688 -5.24968e-15)
(3.32373 10.3665 3.75361e-19)
(3.64666 10.6459 -5.20191e-18)
(4.00454 10.9095 9.45704e-18)
(4.38052 11.1548 -9.6688e-18)
(4.7534 11.3614 3.50945e-18)
(5.13043 11.5372 0)
(5.50111 11.6873 -2.11813e-17)
(5.85414 11.8159 1.01905e-17)
(6.18927 11.9293 -3.81093e-17)
(6.50753 12.026 -6.85713e-17)
(6.81849 12.1282 0)
(7.15961 12.3428 -1.4488e-16)
(7.60033 12.7908 -1.18747e-16)
(8.10667 13.2503 -2.73373e-16)
(8.26859 12.8747 0)
(7.37665 10.7866 -1.8989e-16)
(5.15641 7.20021 -2.52749e-16)
(2.37603 3.56503 3.72396e-16)
(0.200117 1.18811 -5.38363e-16)
(-1.00952 0.141213 6.31435e-16)
(-1.6505 -0.158673 7.80402e-17)
(-2.02267 -0.13193 -6.75858e-16)
(-2.30606 -0.0449071 0)
(-2.5623 0.0114397 -5.5604e-16)
(-2.80491 0.0364123 2.98741e-17)
(-3.04067 0.052794 2.24989e-16)
(-3.27635 0.0832419 0)
(-3.51863 0.142638 -6.79206e-18)
(-3.77455 0.239483 1.79925e-17)
(-4.05377 0.374619 7.18645e-16)
(-4.3691 0.540497 -7.06398e-16)
(-4.73197 0.719991 -1.33911e-15)
(-5.14041 0.883987 1.28303e-15)
(-5.52562 0.978185 8.97847e-20)
(-5.76248 0.908419 2.37274e-15)
(-5.78704 0.625084 4.0637e-15)
(-5.15174 0.153728 3.40519e-15)
(-2.55309 -0.805836 -4.22602e-17)
(-2.30892 -1.22676 1.76143e-17)
(3.02199 10.0685 3.33322e-18)
(2.72298 9.73372 4.05932e-17)
(2.40957 9.31841 5.18148e-17)
(2.08751 8.82454 -9.12918e-17)
(1.79496 8.25985 -3.57984e-16)
(1.54184 7.62099 1.3189e-16)
(1.34736 6.91833 3.2239e-16)
(1.23138 6.18677 9.73615e-16)
(1.20351 5.45428 4.80001e-16)
(1.26425 4.73599 -5.44843e-16)
(1.40672 4.04984 -2.61462e-17)
(1.62165 3.41109 -3.96215e-16)
(1.89916 2.82399 0)
(2.23303 2.29023 -1.70403e-17)
(2.61621 1.8166 -7.45966e-16)
(3.03791 1.40593 3.43674e-16)
(3.48613 1.05678 -3.27881e-16)
(3.95128 0.764711 0)
(4.42719 0.524439 5.41118e-16)
(4.91058 0.331458 -9.87224e-16)
(5.3992 0.183043 0)
(5.89121 0.0775311 7.76486e-16)
(6.38461 0.0145883 0)
(6.87519 -0.0052501 -3.53016e-17)
(7.35458 0.0168517 3.39139e-17)
(7.81479 0.0750931 -4.22708e-16)
(8.25339 0.163018 -7.02703e-18)
(8.67102 0.275963 -5.10907e-18)
(9.06829 0.410066 1.65232e-18)
(9.44731 0.560902 -9.11011e-17)
(9.81234 0.725991 -1.23319e-16)
(10.1683 0.902936 1.3728e-16)
(10.5241 1.0909 2.6771e-18)
(10.8878 1.29197 8.72004e-18)
(11.2903 1.51228 0)
(11.7156 1.76994 -2.15739e-17)
(12.3569 2.0904 -3.05997e-15)
(12.8742 2.62897 1.2479e-17)
(14.7981 3.54131 -4.59207e-15)
(3.6709 9.96201 1.53521e-18)
(3.95816 10.2325 1.14671e-17)
(4.27753 10.4932 0)
(4.61467 10.7406 -8.27331e-18)
(4.95115 10.9554 -1.78452e-17)
(5.29309 11.1456 0)
(5.62822 11.3167 5.76095e-18)
(5.94905 11.4697 7.94345e-17)
(6.25907 11.6119 -1.09639e-16)
(6.55994 11.7438 3.15751e-17)
(6.85309 11.8578 5.00729e-17)
(7.14501 11.9708 1.81193e-16)
(7.47474 12.1916 1.2465e-16)
(7.9261 12.6487 1.44344e-16)
(8.43725 13.056 3.73288e-17)
(8.47406 12.4572 1.25732e-16)
(7.25668 10.0436 1.9244e-16)
(4.71189 6.33944 2.41258e-16)
(1.86856 2.94231 -2.59412e-16)
(-0.144637 0.946758 -1.07936e-15)
(-1.20227 0.191319 0)
(-1.75753 0.0397073 3.86061e-18)
(-2.11086 0.0694036 4.8311e-16)
(-2.39881 0.102177 4.79421e-16)
(-2.6635 0.112411 -2.5642e-17)
(-2.92122 0.118469 -1.91881e-16)
(-3.18408 0.142229 1.42327e-18)
(-3.46196 0.198377 -9.68512e-17)
(-3.76241 0.295761 9.85693e-18)
(-4.09307 0.435119 -1.21898e-15)
(-4.46169 0.608087 1.37059e-18)
(-4.87272 0.79474 -1.75336e-17)
(-5.31967 0.961157 -1.13523e-15)
(-5.73828 1.04836 1.16872e-19)
(-6.01068 0.958199 -2.09321e-15)
(-6.07501 0.633848 -7.15634e-15)
(-5.52339 0.103444 2.98028e-15)
(-3.16489 -0.846349 1.79542e-15)
(-2.9019 -1.38372 -5.75943e-15)
(3.4027 9.6778 -1.70052e-17)
(3.1378 9.36337 -5.91978e-17)
(2.85945 8.97642 -4.59348e-17)
(2.57255 8.51964 -1.0376e-16)
(2.3107 8.00165 2.16851e-16)
(2.08106 7.41825 1.28232e-18)
(1.89994 6.77792 -9.16527e-16)
(1.785 6.11254 -3.88547e-16)
(1.74455 5.44644 -1.04284e-17)
(1.77958 4.79086 0)
(1.88483 4.16064 -6.08809e-16)
(2.05297 3.56914 6.68988e-16)
(2.27915 3.01811 -6.78595e-16)
(2.56079 2.51035 -3.44147e-16)
(2.89052 2.05323 3.15665e-16)
(3.26064 1.64854 3.04521e-16)
(3.66207 1.29664 1.15022e-15)
(4.08673 0.995846 -2.72814e-16)
(4.52853 0.743346 -4.96397e-16)
(4.9834 0.536235 0)
(5.44819 0.372803 -8.02711e-16)
(5.92026 0.251912 -6.32678e-16)
(6.39691 0.173445 -6.54344e-18)
(6.87368 0.137481 -7.22817e-17)
(7.34244 0.143065 -2.8244e-17)
(7.79531 0.185658 4.3604e-16)
(8.22916 0.259441 -9.95162e-18)
(8.64389 0.359835 8.01926e-17)
(9.0397 0.483038 1.55836e-17)
(9.4183 0.624715 8.20926e-17)
(9.78356 0.782294 -2.37876e-18)
(10.1401 0.953476 -2.6873e-16)
(10.4964 1.13748 -7.53441e-17)
(10.8603 1.3366 1.1782e-16)
(11.2614 1.55698 9.73674e-18)
(11.6847 1.81908 -6.07881e-18)
(12.3121 2.14537 2.79416e-15)
(12.8228 2.71001 3.56109e-15)
(14.5793 3.62297 4.2081e-15)
(3.97932 9.61753 -6.46914e-18)
(4.23413 9.88044 -4.52934e-18)
(4.51869 10.1384 -3.18093e-17)
(4.81998 10.3878 1.11028e-16)
(5.12122 10.6089 -4.54649e-17)
(5.43016 10.8105 2.5735e-17)
(5.73882 10.994 -8.78712e-19)
(6.03937 11.1598 0)
(6.33317 11.315 3.2253e-17)
(6.62059 11.4635 3.16529e-19)
(6.90364 11.6043 -3.94225e-17)
(7.18349 11.7274 -1.68034e-16)
(7.46399 11.8483 -6.93811e-17)
(7.79396 12.0901 0)
(8.2692 12.5644 0)
(8.75117 12.8493 0)
(8.53521 11.8724 0)
(6.86558 9.0493 -1.83679e-16)
(4.00164 5.30689 2.42267e-16)
(1.21964 2.29658 3.41579e-16)
(-0.520165 0.78032 -3.8005e-16)
(-1.37965 0.302089 3.40339e-16)
(-1.85362 0.216996 -3.49542e-16)
(-2.18862 0.209283 -2.46597e-17)
(-2.47745 0.199733 -1.16421e-17)
(-2.75404 0.193835 1.80035e-16)
(-3.03788 0.210417 3.90418e-17)
(-3.34313 0.263132 0)
(-3.67944 0.360212 0)
(-4.05416 0.502067 3.49143e-18)
(-4.47232 0.679701 0)
(-4.93338 0.870933 1.00844e-15)
(-5.42619 1.03771 -1.02024e-15)
(-5.88804 1.1163 -1.89266e-15)
(-6.2057 1.00488 3.68045e-15)
(-6.31872 0.639676 3.22679e-15)
(-5.85633 0.0516406 -2.66558e-15)
(-3.73044 -0.892411 -3.34261e-15)
(-3.49469 -1.50525 5.32528e-15)
(3.74156 9.34457 0)
(3.50698 9.04656 1.80909e-17)
(3.25945 8.68238 8.3589e-17)
(3.00297 8.25562 -3.76249e-16)
(2.76783 7.77562 3.15098e-16)
(2.55911 7.2375 -2.41823e-16)
(2.39121 6.64828 -1.04993e-17)
(2.27982 6.03761 3.19331e-16)
(2.23232 5.42727 3.98085e-16)
(2.24957 4.82548 0)
(2.32705 4.2449 2.79613e-16)
(2.45961 3.69636 -9.04006e-16)
(2.64578 3.18086 1.49175e-15)
(2.88387 2.70155 2.87533e-16)
(3.16755 2.26417 -5.78414e-16)
(3.49175 1.87012 -5.53937e-16)
(3.84983 1.52074 -5.24236e-16)
(4.23543 1.21619 0)
(4.64309 0.955556 0)
(5.06859 0.737537 0)
(5.50832 0.561422 7.4608e-16)
(5.95911 0.426824 0)
(6.4178 0.333866 -5.14143e-16)
(6.87967 0.282635 -6.73501e-17)
(7.33677 0.27242 -4.47149e-16)
(7.78123 0.299751 -3.83587e-16)
(8.20936 0.35949 0)
(8.62039 0.447312 -6.63817e-17)
(9.01413 0.559478 -1.61691e-17)
(9.39184 0.691807 2.87216e-18)
(9.75697 0.841651 2.23451e-16)
(10.1138 1.00688 -4.34667e-18)
(10.4705 1.18674 7.31946e-17)
(10.8344 1.3838 9.72343e-17)
(11.234 1.60417 0)
(11.6549 1.8705 1.81287e-17)
(12.2675 2.20268 -5.85131e-17)
(12.7702 2.78963 -3.35468e-15)
(14.3675 3.7022 2.48626e-17)
(4.27093 9.31736 7.55147e-18)
(4.50061 9.57255 0)
(4.75793 9.8263 7.51185e-17)
(5.03123 10.0747 -6.44585e-17)
(5.30502 10.2977 2.04911e-17)
(5.58813 10.5053 -2.43237e-17)
(5.87238 10.6965 6.77653e-18)
(6.15084 10.8723 7.77888e-19)
(6.42502 11.0376 0)
(6.69532 11.1953 -3.25349e-17)
(6.96389 11.3481 -3.45682e-17)
(7.23383 11.4946 3.24547e-17)
(7.50292 11.6209 1.37458e-16)
(7.77541 11.7516 5.77727e-17)
(8.11883 12.0329 -1.62934e-16)
(8.62552 12.516 -1.13179e-16)
(9.00597 12.5657 8.64928e-17)
(8.38145 11.0678 6.95695e-17)
(6.17316 7.84014 -4.2471e-17)
(3.08842 4.22801 5.98355e-17)
(0.538393 1.75607 2.11412e-16)
(-0.840359 0.720603 4.97145e-17)
(-1.52033 0.419131 -4.91637e-17)
(-1.93427 0.338418 -3.19121e-16)
(-2.25592 0.299374 0)
(-2.55174 0.278384 -1.53088e-16)
(-2.85326 0.286915 -7.01271e-17)
(-3.17987 0.336218 -6.46243e-17)
(-3.54431 0.433048 -2.42504e-16)
(-3.95557 0.576802 9.44049e-16)
(-4.4182 0.757584 4.20328e-16)
(-4.92878 0.951535 8.69929e-18)
(-5.47236 1.11687 2.61254e-18)
(-5.98591 1.1853 0)
(-6.35827 1.05154 -1.66167e-15)
(-6.52907 0.645463 0)
(-6.16133 0.00176412 0)
(-4.267 -0.937988 1.587e-15)
(-4.09629 -1.58665 -2.75908e-17)
(4.05687 9.05472 -2.40977e-17)
(3.84617 8.77108 7.4144e-17)
(3.6233 8.42641 -1.51908e-18)
(3.3918 8.02488 8.32327e-17)
(3.17902 7.57644 -3.06442e-16)
(2.98848 7.07594 2.35418e-16)
(2.83281 6.5293 2.12039e-17)
(2.72628 5.96455 -2.95769e-16)
(2.67522 5.40137 -3.47314e-16)
(2.68013 4.84581 -4.20138e-16)
(2.73664 4.30926 -9.77316e-16)
(2.8422 3.79994 0)
(2.99742 3.31833 -5.29499e-16)
(3.19943 2.86779 -1.37696e-17)
(3.44381 2.45203 0)
(3.72758 2.07191 -4.84688e-16)
(4.0461 1.72927 -2.31711e-16)
(4.39467 1.42523 -2.23309e-16)
(4.76886 1.16027 8.13066e-16)
(5.16474 0.93445 7.48445e-16)
(5.5786 0.748114 -8.32335e-17)
(6.00709 0.60155 6.17241e-16)
(6.44674 0.495369 1.40465e-16)
(6.89271 0.429869 -6.29003e-17)
(7.33713 0.404629 3.95661e-16)
(7.77212 0.417144 2.40818e-17)
(8.19354 0.463053 0)
(8.60005 0.538326 0)
(8.99101 0.639366 -2.84399e-18)
(9.36729 0.762189 6.93411e-18)
(9.73188 0.904118 -2.19703e-16)
(10.0887 1.06318 -4.10812e-18)
(10.4455 1.23871 8.52293e-17)
(10.8092 1.43354 -9.20756e-17)
(11.2069 1.65383 -1.10842e-17)
(11.6251 1.92409 -6.54066e-18)
(12.2221 2.26217 -4.76752e-15)
(12.7154 2.8675 3.03374e-15)
(14.1615 3.77816 -2.2835e-17)
(4.54265 9.0537 3.5544e-18)
(4.75098 9.30168 0)
(4.9851 9.55099 -3.81531e-17)
(5.23438 9.7974 0)
(5.48433 10.0208 4.39777e-17)
(5.74428 10.232 -4.54726e-17)
(6.00678 10.428 -2.51837e-17)
(6.26648 10.6095 -7.61765e-19)
(6.52393 10.7812 0)
(6.77886 10.9447 -7.78836e-18)
(7.03291 11.1025 4.02663e-17)
(7.28969 11.2582 -7.7775e-17)
(7.55052 11.4065 -4.38799e-17)
(7.81074 11.5324 -4.32493e-17)
(8.08014 11.6812 1.07562e-16)
(8.45498 12.0209 1.11666e-16)
(8.98084 12.465 -1.14273e-16)
(9.13332 12.1239 -1.13349e-16)
(7.93503 10.0063 0)
(5.19734 6.50233 4.45066e-17)
(2.08767 3.24287 -1.21521e-16)
(-0.0463959 1.39188 3.95811e-17)
(-1.07974 0.716808 -1.19802e-18)
(-1.62836 0.501421 7.40458e-16)
(-2.00184 0.414309 -3.90867e-17)
(-2.32092 0.372704 1.80852e-17)
(-2.63882 0.371618 6.43884e-17)
(-2.98341 0.417198 6.63948e-17)
(-3.37065 0.513995 1.97786e-16)
(-3.81174 0.659907 -4.1376e-16)
(-4.31308 0.843427 -3.60486e-16)
(-4.87093 1.039 -1.5781e-15)
(-5.46797 1.20151 1.56399e-15)
(-6.04015 1.25852 -2.25221e-17)
(-6.47609 1.10121 1.53776e-15)
(-6.71344 0.653991 -6.56514e-17)
(-6.44597 -0.0431314 3.27432e-17)
(-4.7844 -0.978892 -3.67548e-17)
(-4.70655 -1.63166 4.77447e-15)
(4.34864 8.80034 1.42244e-17)
(4.1581 8.52916 -3.63749e-17)
(3.95608 8.20126 7.34748e-17)
(3.74576 7.82124 0)
(3.55217 7.39956 1.88363e-16)
(3.37762 6.93084 0)
(3.23332 6.4203 0)
(3.1323 5.89454 0)
(3.07996 5.37169 6.80626e-16)
(3.07633 4.85627 -4.05469e-16)
(3.11772 4.35799 4.61907e-16)
(3.20311 3.88437 0)
(3.33348 3.43528 0)
(3.50568 3.01279 -4.66763e-16)
(3.71678 2.61943 0)
(3.96523 2.25549 4.46209e-16)
(4.24808 1.92262 9.89636e-18)
(4.56212 1.6226 0)
(4.90404 1.35677 -5.727e-16)
(5.27054 1.12614 -8.75393e-16)
(5.65819 0.931971 -6.28288e-16)
(6.06362 0.775307 -5.74115e-16)
(6.48337 0.657332 1.01762e-15)
(6.91255 0.578628 0)
(7.34331 0.539267 3.70774e-16)
(7.76779 0.5376 3.64451e-16)
(8.18152 0.570027 1.45422e-16)
(8.58262 0.632861 0)
(8.97008 0.722758 -1.2147e-17)
(9.34431 0.83592 -7.44844e-17)
(9.70786 0.969764 2.08744e-16)
(10.0643 1.12246 -3.8776e-18)
(10.4208 1.29348 -8.08464e-17)
(10.7841 1.4859 -6.71289e-17)
(11.1795 1.70595 5.58002e-18)
(11.5945 1.97974 -9.46176e-18)
(12.175 2.32366 4.41921e-15)
(12.6575 2.94331 -2.83172e-15)
(13.9608 3.85043 -6.21227e-15)
(4.79839 8.81952 2.64948e-18)
(4.98887 9.06058 -1.2645e-17)
(5.20353 9.30508 0)
(5.43267 9.54848 -6.93819e-17)
(5.66262 9.77067 0)
(5.90281 9.98318 0)
(6.14655 10.1821 3.7864e-18)
(6.38894 10.367 -1.02333e-17)
(6.6305 10.5428 -2.00289e-18)
(6.87047 10.7105 5.18126e-17)
(7.11032 10.8718 3.88379e-17)
(7.35318 11.03 5.44203e-17)
(7.60137 11.187 0)
(7.85545 11.334 1.23387e-16)
(8.10732 11.4587 -4.20677e-17)
(8.3832 11.6438 0)
(8.80982 12.0498 9.74773e-17)
(9.29798 12.347 1.07267e-16)
(9.03733 11.4361 0)
(7.15131 8.707 1.34643e-16)
(4.02258 5.16416 -1.80461e-16)
(1.15594 2.45822 0)
(-0.474619 1.17479 -3.97529e-17)
(-1.25114 0.721783 1.83502e-17)
(-1.71184 0.550963 1.82433e-17)
(-2.06459 0.47829 2.68018e-16)
(-2.39972 0.464786 -1.51937e-19)
(-2.76004 0.50622 -6.90736e-18)
(-3.16677 0.603145 -6.61873e-18)
(-3.63314 0.751641 1.12793e-17)
(-4.16767 0.938387 3.52981e-16)
(-4.76908 1.13544 1.36227e-15)
(-5.42014 1.29425 1.79299e-17)
(-6.05596 1.33865 -1.37394e-15)
(-6.56363 1.1564 -1.33116e-15)
(-6.87645 0.667711 -2.58167e-15)
(-6.7151 -0.0801791 -2.1855e-15)
(-5.2876 -1.01157 5.80744e-17)
(-5.31629 -1.6436 -4.62313e-15)
(4.62111 8.57466 -3.02473e-17)
(4.44746 8.31461 -1.05041e-16)
(4.26303 8.00139 2.0558e-16)
(4.07081 7.64005 0)
(3.8937 7.24142 3.4776e-16)
(3.73324 6.8 0)
(3.59947 6.32045 -2.27096e-16)
(3.50417 5.82823 1.03516e-15)
(3.45211 5.34009 -9.15324e-16)
(3.44235 4.86022 0)
(3.47272 4.3958 7.92946e-16)
(3.54341 3.95406 7.94875e-16)
(3.65387 3.53528 0)
(3.80157 3.13972 -8.08942e-16)
(3.98457 2.76884 2.02597e-16)
(4.20241 2.42231 -1.99028e-16)
(4.45341 2.1015 1.98161e-16)
(4.73566 1.80828 3.64077e-16)
(5.04696 1.54446 -5.57021e-18)
(5.3848 1.31179 4.68685e-16)
(5.74622 1.11223 1.51634e-16)
(6.12817 0.947487 -1.36454e-16)
(6.52736 0.819211 -4.76737e-16)
(6.93896 0.728528 4.19331e-16)
(7.35518 0.676042 -3.28152e-16)
(7.76817 0.660885 -3.66153e-16)
(8.17324 0.680232 -1.37826e-16)
(8.56805 0.730815 -1.65156e-18)
(8.9512 0.809577 1.31479e-17)
(9.32273 0.913006 7.08867e-17)
(9.68469 1.0386 1.70194e-18)
(10.0403 1.18474 -3.64621e-18)
(10.3962 1.35106 9.23326e-17)
(10.7586 1.54085 6.85459e-17)
(11.1512 1.76051 -9.49083e-18)
(11.5626 2.03739 7.37307e-16)
(12.1256 2.38679 -2.08946e-15)
(12.5961 3.01683 0)
(13.7647 3.9191 5.99953e-15)
(5.03942 8.60971 6.47783e-18)
(5.2147 8.84417 0)
(5.4127 9.08376 0)
(5.62451 9.32364 1.26294e-16)
(5.8372 9.5438 -5.04681e-18)
(6.06005 9.75608 0)
(6.28736 9.95681 0)
(6.51409 10.1432 6.76965e-17)
(6.74133 10.3211 -9.65925e-18)
(6.96765 10.4913 -9.2182e-18)
(7.19423 10.6549 -8.77131e-17)
(7.42407 10.8147 -3.31999e-17)
(7.6588 10.9727 5.76017e-17)
(7.90145 11.1301 -7.62977e-18)
(8.1497 11.2731 0)
(8.39386 11.4023 0)
(8.6963 11.6518 -2.75856e-16)
(9.18196 12.094 -4.97584e-17)
(9.50066 12.0634 4.7061e-17)
(8.62241 10.4475 -1.15412e-16)
(6.0518 7.25652 2.82958e-16)
(2.80711 3.9667 1.91719e-16)
(0.416476 1.89948 -2.62074e-16)
(-0.764615 1.04298 -3.36677e-16)
(-1.37366 0.722474 5.25733e-17)
(-1.78165 0.598589 -2.71385e-16)
(-2.13875 0.567133 -2.86145e-17)
(-2.51373 0.603451 6.4829e-18)
(-2.93743 0.700801 -5.65419e-18)
(-3.42607 0.852302 2.19137e-17)
(-3.98982 1.04294 -9.59962e-19)
(-4.63045 1.24218 -6.43531e-16)
(-5.33392 1.39721 -2.27844e-17)
(-6.0364 1.42806 1.83045e-17)
(-6.62287 1.21959 0)
(-7.02 0.68898 2.39628e-15)
(-6.97124 -0.106896 2.0536e-15)
(-5.77872 -1.03375 0)
(-5.91621 -1.6273 0)
(4.87646 8.37275 0)
(4.71716 8.12269 9.92069e-17)
(4.54787 7.82253 -3.22814e-16)
(4.37127 7.47762 -1.4605e-16)
(4.20853 7.09913 -3.25615e-16)
(4.06052 6.6815 0)
(3.9364 6.22889 0)
(3.84695 5.76584 -4.84606e-16)
(3.79611 5.30801 5.7977e-16)
(3.78262 4.85891 0)
(3.80525 4.42472 -3.48529e-16)
(3.86458 4.01227 -3.72048e-16)
(3.95901 3.62147 3.64853e-16)
(4.08655 3.25126 3.79542e-16)
(4.24594 2.90236 -7.19946e-16)
(4.43737 2.57387 0)
(4.66014 2.26665 -1.71905e-16)
(4.91341 1.98241 3.73698e-18)
(5.19601 1.7231 7.79313e-16)
(5.50628 1.49085 -1.55254e-16)
(5.84188 1.28817 1.47668e-16)
(6.20024 1.11729 -1.19192e-16)
(6.5784 0.980341 1.67568e-16)
(6.97176 0.878983 -8.38814e-16)