/*--------------------------------*- C++ -*----------------------------------*\
  =========                 |
  \\      /  F ield         | OpenFOAM: The Open Source CFD Toolbox
   \\    /   O peration     | Website:  https://openfoam.org
    \\  /    A nd           | Version:  9
     \\/     M anipulation  |
\*---------------------------------------------------------------------------*/
FoamFile
{
    format      ascii;
    class       volScalarField;
    location    "440";
    object      nut;
}
// * * * * * * * * * * * * * * * * * * * * * * * * * * * * * * * * * * * * * //

dimensions      [0 2 -1 0 0 0 0];

internalField   nonuniform List<scalar> 
10720
(
0.0641846
0.0662963
0.0679967
0.0689459
0.0692652
0.0683362
0.0656848
0.0606721
0.0523474
0.0402911
0.0252244
0.0139608
0.0133815
0.0162525
0.0181727
0.0182156
0.0175892
0.0162414
0.0147824
0.0135205
0.0130532
0.0129881
0.013357
0.0143361
0.0160222
0.0183814
0.0211258
0.0237225
0.0260655
0.0281165
0.0299179
0.0316074
0.0334565
0.0355632
0.037655
0.0387008
0.0368666
0.0323818
0.0277649
0.0620925
0.0598288
0.0573966
0.0545374
0.0514
0.047919
0.0440519
0.0398092
0.0352572
0.0304272
0.0252202
0.0196375
0.0143263
0.0128813
0.0118158
0.0122934
0.0151137
0.0175034
0.0194263
0.0211533
0.0228549
0.0246042
0.0264303
0.0283285
0.0302406
0.0320936
0.0338561
0.035519
0.0370811
0.0385451
0.039924
0.0412291
0.0424853
0.0437387
0.0451107
0.0465834
0.0486815
0.0502853
0.0582674
0.0647053
0.0636478
0.0627503
0.0621955
0.0629188
0.0656782
0.0695397
0.0736577
0.0770003
0.0781176
0.0757893
0.0708417
0.0703241
0.0762449
0.0703102
0.0580131
0.0508021
0.0424894
0.0368477
0.0327911
0.0345442
0.0379682
0.040048
0.0410041
0.0414095
0.0423205
0.0441204
0.0449704
0.0449193
0.0438334
0.0417122
0.0389736
0.036674
0.0374637
0.0419728
0.0491333
0.0618428
0.0889334
0.116654
0.0655657
0.0660488
0.0666868
0.0667984
0.066597
0.0660161
0.0648997
0.0632022
0.0610278
0.0585666
0.055842
0.0530042
0.0501613
0.0471762
0.0442004
0.0413874
0.0387567
0.0363937
0.0342788
0.0323739
0.0306725
0.029156
0.0278133
0.0266139
0.0255252
0.0245724
0.0237627
0.0231012
0.022591
0.0222307
0.0220146
0.0219331
0.0219643
0.0222585
0.023126
0.0243407
0.0259353
0.0270528
0.0271508
0.0929136
0.0917809
0.0901183
0.0876115
0.0853822
0.0830722
0.0810458
0.0782862
0.0778545
0.0803414
0.0847147
0.0893488
0.0952904
0.106857
0.117
0.12165
0.11712
0.0965667
0.0818205
0.0661655
0.0600623
0.061767
0.0620702
0.0623291
0.0619704
0.061808
0.0666673
0.0706066
0.0731367
0.0736848
0.0722047
0.0700745
0.0703869
0.0758904
0.0870317
0.102778
0.128093
0.177943
0.243022
0.0938606
0.0944058
0.0950478
0.0952421
0.0951334
0.0946712
0.0937144
0.0922012
0.0901892
0.0877861
0.084998
0.0819374
0.078725
0.07542
0.0720534
0.0687245
0.0655516
0.0625582
0.0597361
0.0570653
0.0545552
0.0521941
0.0499602
0.0477582
0.0455344
0.0433324
0.0411725
0.0390697
0.0370576
0.0351595
0.0333851
0.0317432
0.0302433
0.0289178
0.0277901
0.0270293
0.0271768
0.0295991
0.0229672
0.108577
0.107706
0.106408
0.104651
0.102465
0.0995445
0.0967588
0.0936649
0.0900901
0.0868608
0.0856831
0.0888013
0.0964552
0.111092
0.132978
0.155535
0.168005
0.164606
0.144946
0.113794
0.0936301
0.0859573
0.0847485
0.087908
0.0940529
0.10299
0.112542
0.119953
0.124496
0.125576
0.123162
0.119202
0.118518
0.125957
0.142331
0.166475
0.20476
0.277541
0.385479
0.109267
0.109709
0.110153
0.110333
0.110278
0.109969
0.10932
0.108282
0.106875
0.105131
0.103045
0.10067
0.098071
0.0952933
0.0923612
0.0893346
0.0863105
0.0833367
0.0804355
0.077609
0.0748782
0.0722427
0.0696863
0.0671202
0.0644838
0.0618241
0.0591671
0.0565378
0.0539569
0.0514377
0.049003
0.0466697
0.0444634
0.0424315
0.0405824
0.039069
0.0375265
0.0387651
0.0323608
0.117703
0.117075
0.116137
0.114877
0.113326
0.111249
0.10863
0.105383
0.102331
0.0986712
0.0946156
0.0904002
0.0919711
0.102169
0.124971
0.159837
0.194228
0.211349
0.205214
0.178777
0.144273
0.12865
0.125837
0.132321
0.143762
0.158252
0.171798
0.181731
0.187479
0.188626
0.185074
0.17896
0.176261
0.184606
0.206188
0.23894
0.290502
0.387019
0.541941
0.118185
0.118502
0.118811
0.118949
0.118924
0.118723
0.118291
0.117599
0.116653
0.115463
0.114019
0.112344
0.110466
0.108403
0.106162
0.103768
0.101284
0.0987493
0.0961941
0.09363
0.0910818
0.0885551
0.0860425
0.0834673
0.0807744
0.0780051
0.0751873
0.0723494
0.0695157
0.0667042
0.0639428
0.0612589
0.058678
0.0562448
0.0539838
0.0520783
0.0501451
0.0509388
0.0457726
0.123341
0.122881
0.12219
0.121265
0.12013
0.118673
0.116819
0.114415
0.11141
0.108394
0.104937
0.100023
0.0952877
0.0959698
0.109385
0.142429
0.191697
0.235294
0.251163
0.237835
0.209125
0.185068
0.179718
0.189407
0.204682
0.222029
0.238307
0.251312
0.259527
0.261459
0.256865
0.248609
0.243409
0.251604
0.27776
0.319031
0.383767
0.504941
0.713213
0.123686
0.123916
0.124133
0.124236
0.124222
0.124083
0.123784
0.123305
0.122649
0.121824
0.120821
0.119655
0.118341
0.116877
0.115258
0.113493
0.11161
0.109632
0.107583
0.105471
0.103316
0.101124
0.0988894
0.0965515
0.0940598
0.091446
0.0887348
0.0859524
0.0831228
0.0802669
0.0774148
0.0746
0.071854
0.0692283
0.0667568
0.0646386
0.0625345
0.0630093
0.0587808
0.127059
0.126724
0.126219
0.12555
0.124728
0.123666
0.122323
0.120638
0.1184
0.115649
0.112589
0.109059
0.104169
0.0989508
0.100261
0.119835
0.16701
0.230699
0.277402
0.285808
0.266637
0.243769
0.236216
0.245235
0.262293
0.282423
0.302462
0.320097
0.333342
0.339916
0.337703
0.328051
0.320055
0.327106
0.356821
0.405956
0.48335
0.629647
0.898823
0.127303
0.127467
0.127619
0.127693
0.127681
0.127579
0.127363
0.12702
0.126552
0.125963
0.125247
0.124412
0.123479
0.12244
0.121282
0.120007
0.118626
0.117148
0.115584
0.11394
0.112226
0.110444
0.108587
0.106606
0.104457
0.102159
0.0997305
0.0971907
0.0945594
0.0918561
0.0891091
0.0863527
0.083622
0.0809727
0.0784458
0.0762454
0.0740845
0.0743083
0.0708362
0.129624
0.129372
0.128988
0.128482
0.127865
0.127069
0.12608
0.124863
0.123299
0.121256
0.118631
0.11553
0.112058
0.107027
0.101527
0.105653
0.136329
0.201464
0.275781
0.317562
0.31604
0.297791
0.288846
0.297129
0.316062
0.339546
0.364014
0.386989
0.406327
0.419545
0.42359
0.416789
0.406448
0.411518
0.443498
0.499344
0.588284
0.758387
1.08379
0.129802
0.129922
0.130031
0.130084
0.130073
0.129994
0.129831
0.129576
0.129229
0.128795
0.128269
0.127659
0.126976
0.126221
0.125381
0.124454
0.123443
0.12235
0.121179
0.11993
0.118609
0.117211
0.11573
0.114124
0.112355
0.110434
0.108369
0.106172
0.103855
0.101434
0.0989303
0.0963761
0.0938053
0.0912729
0.0888239
0.0866568
0.0845396
0.0845609
0.0817159
0.131483
0.13129
0.130995
0.130606
0.130135
0.129527
0.128773
0.127856
0.12671
0.125254
0.123339
0.120772
0.117831
0.114294
0.108818
0.103215
0.11406
0.162319
0.246386
0.323501
0.353638
0.346628
0.338394
0.34605
0.366897
0.394101
0.423419
0.452147
0.478099
0.498861
0.511219
0.511774
0.50289
0.505422
0.53818
0.599081
0.697679
0.888125
1.25561
0.131614
0.131702
0.131781
0.131819
0.131806
0.131742
0.131615
0.131418
0.131152
0.130822
0.130425
0.129969
0.129459
0.128897
0.128274
0.127587
0.126836
0.12602
0.125141
0.124196
0.123186
0.122106
0.120946
0.119674
0.118258
0.116701
0.115004
0.113174
0.111214
0.109134
0.10695
0.104685
0.102371
0.100057
0.0977881
0.0957477
0.0937569
0.0936247
0.0913018
0.132877
0.132727
0.132495
0.13219
0.131822
0.131347
0.130763
0.130058
0.129186
0.128106
0.126737
0.124885
0.122377
0.119636
0.115908
0.109376
0.106193
0.129635
0.201026
0.299696
0.369942
0.387794
0.384754
0.392528
0.415211
0.446352
0.480861
0.5157
0.548658
0.577499
0.599253
0.610023
0.608378
0.609482
0.64147
0.705219
0.810561
1.01628
1.41184
0.132975
0.13304
0.133097
0.133123
0.13311
0.133057
0.132954
0.132798
0.132588
0.132329
0.132022
0.131674
0.131289
0.130862
0.13039
0.12987
0.129301
0.128683
0.128014
0.127291
0.126515
0.125679
0.124774
0.123774
0.122653
0.121409
0.120042
0.118551
0.116936
0.115201
0.113355
0.111415
0.109405
0.107367
0.105341
0.103492
0.101686
0.101449
0.0995553
0.133954
0.133837
0.133652
0.133409
0.133117
0.132741
0.132279
0.131725
0.131048
0.13022
0.129196
0.127882
0.126045
0.12363
0.120998
0.11663
0.109444
0.112434
0.15671
0.253138
0.357206
0.413957
0.426431
0.436476
0.461086
0.496279
0.536291
0.577603
0.617953
0.655316
0.687155
0.709857
0.72006
0.724498
0.754194
0.817984
0.925965
1.1405
1.55158
0.134028
0.134076
0.134118
0.134135
0.134121
0.134075
0.133991
0.133864
0.133694
0.133487
0.133243
0.132972
0.132674
0.132344
0.131981
0.131582
0.131145
0.130669
0.130151
0.129592
0.128988
0.128334
0.127623
0.126834
0.125946
0.124956
0.123862
0.122661
0.121349
0.119927
0.118399
0.116775
0.115074
0.113328
0.111574
0.109948
0.108359
0.108061
0.106514
0.134807
0.134714
0.134565
0.134369
0.134134
0.133832
0.13346
0.133019
0.132484
0.131837
0.131049
0.130102
0.128854
0.126957
0.124597
0.121896
0.116436
0.109721
0.126289
0.199226
0.316557
0.415285
0.4591
0.477089
0.504366
0.543705
0.589501
0.637655
0.685796
0.732116
0.774569
0.810236
0.835374
0.850482
0.8773
0.937799
1.04307
1.2585
1.67366
0.134863
0.134898
0.134928
0.134938
0.134924
0.134884
0.134813
0.134708
0.134569
0.134398
0.134202
0.133987
0.13375
0.13349
0.133205
0.132894
0.132554
0.132183
0.13178
0.131342
0.130866
0.13035
0.129784
0.129155
0.128446
0.127655
0.126778
0.125811
0.12475
0.123594
0.122343
0.121003
0.119587
0.118122
0.116634
0.115239
0.113873
0.11355
0.112281
0.135496
0.135422
0.135301
0.135141
0.134949
0.134703
0.134402
0.134044
0.133614
0.133102
0.132496
0.13178
0.130916
0.129661
0.127673
0.125431
0.122239
0.115096
0.113357
0.153667
0.258931
0.387262
0.473718
0.512445
0.544607
0.588351
0.640179
0.695538
0.751872
0.807581
0.861108
0.910356
0.952141
0.983763
1.01198
1.06539
1.16142
1.36807
1.77648
0.135538
0.135564
0.135586
0.135591
0.135576
0.135541
0.13548
0.135392
0.135275
0.135133
0.134972
0.134797
0.134605
0.134396
0.134169
0.133922
0.133653
0.133361
0.133043
0.132697
0.13232
0.131908
0.131456
0.13095
0.130378
0.12974
0.129031
0.128249
0.127389
0.126449
0.125428
0.124329
0.123162
0.121945
0.120702
0.119525
0.118369
0.118045
0.116998
0.136062
0.136003
0.135904
0.135772
0.135614
0.135411
0.135163
0.13487
0.134521
0.134117
0.133658
0.133113
0.132458
0.13162
0.130284
0.128228
0.126085
0.121616
0.113638
0.125653
0.200179
0.334315
0.462088
0.536606
0.580934
0.629836
0.687946
0.750852
0.81577
0.88128
0.946289
1.00947
1.06851
1.11964
1.15943
1.20148
1.28114
1.46729
1.85819
0.136095
0.136114
0.136129
0.13613
0.136115
0.136084
0.136031
0.135956
0.135856
0.135736
0.135601
0.135456
0.135298
0.135126
0.134942
0.134743
0.134528
0.134294
0.13404
0.133764
0.133463
0.133133
0.132768
0.132358
0.131894
0.131374
0.130797
0.13016
0.129458
0.12869
0.127855
0.126954
0.125994
0.124988
0.123957
0.122975
0.122006
0.121697
0.120824
0.136535
0.136487
0.136405
0.136295
0.136163
0.135994
0.135788
0.135545
0.13526
0.134945
0.134597
0.134184
0.133676
0.13305
0.132194
0.130709
0.128731
0.126277
0.119596
0.115279
0.153907
0.26871
0.421892
0.540938
0.610525
0.667629
0.732373
0.803139
0.877
0.952691
1.02954
1.10686
1.1831
1.25429
1.3119
1.34773
1.40264
1.55478
1.91696
0.13656
0.136574
0.136584
0.136583
0.136568
0.136539
0.136494
0.136429
0.136342
0.136239
0.136125
0.136001
0.135868
0.135726
0.135574
0.135411
0.135236
0.135047
0.134842
0.134619
0.134376
0.134108
0.133812
0.133478
0.133099
0.132673
0.1322
0.131677
0.1311
0.130469
0.129782
0.129041
0.128249
0.127419
0.126566
0.125748
0.124941
0.124653
0.123917
0.136933
0.136894
0.136825
0.136733
0.136622
0.136479
0.136307
0.136105
0.135875
0.13563
0.135362
0.135048
0.134658
0.134167
0.133554
0.132617
0.130985
0.129228
0.12548
0.116885
0.12678
0.205593
0.358904
0.518324
0.627102
0.700596
0.772968
0.851899
0.935019
1.02122
1.1102
1.20178
1.29487
1.38517
1.46122
1.50486
1.52629
1.63027
1.95097
0.136953
0.136963
0.136971
0.136968
0.136953
0.136927
0.136887
0.136831
0.136755
0.136665
0.136565
0.136459
0.136345
0.136225
0.136098
0.135963
0.135818
0.135663
0.135496
0.135314
0.135116
0.134898
0.134655
0.134381
0.134069
0.133719
0.133328
0.132896
0.132419
0.131897
0.131328
0.130715
0.13006
0.129372
0.128664
0.127983
0.127311
0.127048
0.126419
0.137273
0.13724
0.137182
0.137103
0.137008
0.136887
0.136743
0.136577
0.136398
0.136209
0.136002
0.135756
0.135455
0.135072
0.134588
0.133967
0.132867
0.131282
0.129335
0.122907
0.117241
0.157103
0.285435
0.467271
0.622347
0.725356
0.809165
0.896608
0.989248
1.08621
1.18755
1.29344
1.40294
1.51101
1.60332
1.65484
1.65447
1.69547
1.9588
0.137289
0.137297
0.137302
0.137298
0.137284
0.137261
0.137225
0.137175
0.137108
0.137029
0.136942
0.136849
0.13675
0.136647
0.136539
0.136426
0.136305
0.136176
0.136038
0.135888
0.135725
0.135545
0.135345
0.135118
0.13486
0.13457
0.134246
0.133886
0.13349
0.133055
0.132582
0.132071
0.131525
0.130952
0.130363
0.129794
0.129233
0.128996
0.128451
0.137564
0.137536
0.137485
0.137417
0.137335
0.137233
0.137116
0.136987
0.136851
0.136704
0.136541
0.136347
0.13611
0.135812
0.135427
0.134953
0.134262
0.13302
0.13165
0.128345
0.1192
0.128866
0.216139
0.393719
0.589373
0.735382
0.839468
0.936718
1.03908
1.14699
1.26083
1.38104
1.50654
1.63114
1.73716
1.79319
1.77868
1.75415
1.94098
0.137578
0.137584
0.137588
0.137584
0.137571
0.13755
0.137518
0.137474
0.137414
0.137344
0.137266
0.137184
0.137098
0.137009
0.136916
0.136819
0.136717
0.136609
0.136493
0.136368
0.136232
0.136083
0.135917
0.135728
0.135513
0.135271
0.135
0.1347
0.134368
0.134005
0.133608
0.13318
0.132723
0.132244
0.131751
0.131273
0.130802
0.130589
0.130113
0.137815
0.13779
0.137745
0.137685
0.137615
0.137532
0.13744
0.137345
0.137239
0.137122
0.13699
0.136835
0.136647
0.136415
0.136116
0.135734
0.135255
0.134425
0.133245
0.131734
0.125226
0.118868
0.162996
0.309993
0.526492
0.722093
0.860063
0.971497
1.0839
1.20285
1.32924
1.4637
1.60487
1.74509
1.86289
1.91981
1.8861
1.81048
1.8991
0.137827
0.137833
0.137837
0.137833
0.137821
0.137802
0.137774
0.137734
0.137681
0.137618
0.137549
0.137476
0.1374
0.137322
0.137241
0.137158
0.13707
0.136978
0.13688
0.136775
0.136661
0.136535
0.136396
0.136238
0.136058
0.135855
0.135628
0.135376
0.135097
0.134791
0.134457
0.134097
0.133712
0.133309
0.132893
0.132491
0.132093
0.131902
0.131482
0.138031
0.138008
0.137967
0.137914
0.137858
0.137794
0.137724
0.137655
0.137571
0.137475
0.137366
0.137239
0.137088
0.136905
0.136674
0.136373
0.136
0.135467
0.134534
0.133591
0.1305
0.120735
0.131721
0.231281
0.439466
0.677906
0.86386
0.999133
1.12307
1.25305
1.39193
1.54054
1.69711
1.85239
1.98101
2.03701
1.98037
1.85333
1.8415
0.138042
0.138048
0.138052
0.13805
0.13804
0.138023
0.137998
0.137963
0.137915
0.137859
0.137797
0.137732
0.137664
0.137595
0.137525
0.137452
0.137376
0.137297
0.137213
0.137123
0.137027
0.136921
0.136803
0.136669
0.136517
0.136346
0.136155
0.135943
0.135707
0.135449
0.135167
0.134862
0.134536
0.134195
0.133843
0.133501
0.133164
0.132993
0.132619
0.138217
0.138195
0.138157
0.138112
0.138069
0.138023
0.13797
0.137918
0.137853
0.137777
0.137688
0.137583
0.137459
0.137309
0.137127
0.136894
0.136595
0.136222
0.135576
0.13475
0.133617
0.126817
0.120269
0.17065
0.34131
0.600304
0.841217
1.01518
1.15566
1.29684
1.44805
1.61061
1.78237
1.95251
2.09199
2.14766
2.06805
1.88475
1.78368
0.138228
0.138235
0.13824
0.138239
0.138231
0.138217
0.138195
0.138164
0.138121
0.138071
0.138015
0.137957
0.137897
0.137836
0.137774
0.13771
0.137644
0.137575
0.137503
0.137426
0.137343
0.137252
0.137152
0.137039
0.13691
0.136765
0.136603
0.136423
0.136223
0.136004
0.135765
0.135506
0.135229
0.134939
0.13464
0.134348
0.13406
0.133907
0.133572
0.138377
0.138356
0.138322
0.138285
0.138254
0.138221
0.138181
0.138141
0.138091
0.138032
0.137962
0.137876
0.137774
0.137651
0.137502
0.13732
0.137083
0.136793
0.136369
0.135667
0.135126
0.132104
0.121782
0.13472
0.249141
0.495105
0.783018
1.01138
1.17937
1.33349
1.49671
1.67293
1.85968
2.04477
2.19607
2.25454
2.15751
1.91989
1.72686
0.138388
0.138396
0.138403
0.138404
0.138398
0.138386
0.138368
0.138341
0.138303
0.138259
0.13821
0.138158
0.138105
0.13805
0.137995
0.137939
0.137881
0.137821
0.137758
0.137691
0.137619
0.137541
0.137455
0.137358
0.137248
0.137124
0.136986
0.136833
0.136664
0.136477
0.136274
0.136053
0.135817
0.135569
0.135314
0.135064
0.134816
0.13468
0.134377
0.138515
0.138495
0.138467
0.138437
0.138416
0.138392
0.138361
0.138329
0.13829
0.138245
0.138189
0.138121
0.138038
0.137938
0.137817
0.13767
0.137485
0.137251
0.136957
0.136439
0.135928
0.135087
0.127971
0.121378
0.178456
0.377302
0.685637
0.976107
1.18869
1.36174
1.53703
1.72645
1.92796
2.12826
2.29308
2.35955
2.25586
1.9736
1.67025
0.138528
0.138537
0.138545
0.138548
0.138545
0.138535
0.13852
0.138497
0.138465
0.138426
0.138382
0.138336
0.138289
0.138241
0.138192
0.138142
0.138091
0.138038
0.137983
0.137925
0.137862
0.137795
0.137721
0.137637
0.137542
0.137436
0.137318
0.137188
0.137043
0.136884
0.13671
0.136522
0.13632
0.136108
0.135889
0.135675
0.135461
0.135339
0.135063
0.138635
0.138617
0.138596
0.138573
0.138557
0.138539
0.138516
0.138489
0.138459
0.138422
0.138377
0.138321
0.138254
0.138173
0.138075
0.137958
0.137813
0.137627
0.137403
0.137056
0.136546
0.136343
0.13334
0.122664
0.137112
0.267721
0.555902
0.898036
1.17328
1.37847
1.56802
1.77011
1.986
2.20186
2.38229
2.46305
2.36673
2.05927
1.64743
0.138649
0.138659
0.138669
0.138674
0.138673
0.138667
0.138654
0.138636
0.138608
0.138575
0.138537
0.138497
0.138455
0.138412
0.138369
0.138325
0.13828
0.138233
0.138184
0.138133
0.138079
0.13802
0.137955
0.137882
0.137801
0.137709
0.137608
0.137497
0.137373
0.137237
0.137088
0.136927
0.136754
0.136572
0.136384
0.136199
0.136014
0.135906
0.135654
0.13874
0.138725
0.138712
0.138694
0.138682
0.138669
0.13865
0.138629
0.138603
0.138573
0.138535
0.138489
0.138433
0.138366
0.138286
0.138191
0.138077
0.137933
0.137755
0.137521
0.137108
0.136867
0.136227
0.129062
0.122174
0.185326
0.412855
0.772929
1.11854
1.37631
1.58792
1.80275
2.03251
2.26421
2.46232
2.56365
2.48902
2.18143
1.68245
0.138755
0.138767
0.138778
0.138785
0.138786
0.138782
0.138773
0.138758
0.138736
0.138708
0.138676
0.138641
0.138604
0.138566
0.138528
0.138489
0.138449
0.138408
0.138365
0.13832
0.138271
0.13822
0.138163
0.1381
0.138029
0.137951
0.137864
0.137768
0.137662
0.137545
0.137418
0.13728
0.137132
0.136975
0.136814
0.136654
0.136493
0.136397
0.136168
0.138835
0.138824
0.138817
0.138805
0.138796
0.138786
0.138771
0.138752
0.138731
0.138704
0.138673
0.138633
0.138585
0.138529
0.138462
0.138383
0.13829
0.138178
0.138037
0.137868
0.137584
0.137249
0.137278
0.134454
0.123634
0.13881
0.283054
0.610779
1.01073
1.34157
1.59207
1.82303
2.06606
2.31362
2.5312
2.65832
2.61713
2.33291
1.78476
0.138851
0.138863
0.138874
0.138882
0.138885
0.138884
0.138878
0.138868
0.138851
0.138828
0.138801
0.138771
0.13874
0.138708
0.138675
0.138642
0.138606
0.138569
0.138531
0.13849
0.138447
0.138401
0.138351
0.138296
0.138234
0.138166
0.138091
0.138009
0.137918
0.137818
0.137709
0.13759
0.137463
0.137329
0.137189
0.137051
0.136912
0.136827
0.136617
0.138922
0.138916
0.138915
0.138907
0.138901
0.138893
0.138881
0.138866
0.138847
0.138823
0.138796
0.138761
0.138719
0.13867
0.138613
0.138546
0.138467
0.138376
0.138265
0.138133
0.137949
0.137639
0.137589
0.137156
0.130282
0.123066
0.189317
0.437812
0.846883
1.25567
1.5699
1.82802
2.08503
2.34819
2.58636
2.7429
2.74309
2.49973
1.9409
0.138938
0.13895
0.138961
0.138969
0.138973
0.138974
0.138971
0.138965
0.138954
0.138937
0.138915
0.138891
0.138866
0.138843
0.138818
0.138793
0.138763
0.13873
0.138695
0.138656
0.138616
0.138573
0.138528
0.138478
0.138423
0.138363
0.138298
0.138227
0.138148
0.138062
0.137968
0.137866
0.137757
0.137641
0.137521
0.137402
0.13728
0.137207
0.137014
0.139003
0.139003
0.139007
0.139004
0.139001
0.138996
0.138986
0.138973
0.138955
0.138934
0.13891
0.138878
0.138839
0.138795
0.138744
0.138686
0.138619
0.138541
0.138451
0.138344
0.138216
0.137996
0.137798
0.137981
0.135523
0.124994
0.139496
0.288135
0.644269
1.10353
1.50261
1.81026
2.08719
2.36554
2.6248
2.81253
2.85833
2.66767
2.12492
0.139019
0.13903
0.13904
0.139047
0.139051
0.139054
0.139055
0.139053
0.139047
0.139036
0.13902
0.139005
0.13899
0.138978
0.138964
0.138947
0.138927
0.138901
0.13887
0.138834
0.138795
0.138753
0.138709
0.138661
0.138609
0.138554
0.138494
0.13843
0.138361
0.138285
0.138203
0.138115
0.13802
0.13792
0.137816
0.137713
0.137607
0.13755
0.137371
0.139082
0.139087
0.139097
0.139098
0.139098
0.139096
0.139088
0.139077
0.139061
0.139041
0.139018
0.138988
0.138951
0.138908
0.13886
0.138807
0.138747
0.13868
0.138604
0.138516
0.138417
0.138275
0.138057
0.138118
0.137903
0.131671
0.124356
0.187121
0.440292
0.88792
1.3674
1.75358
2.06716
2.36318
2.64283
2.86201
2.95451
2.82436
2.31525
0.139095
0.139104
0.139112
0.139117
0.139121
0.139125
0.13913
0.139133
0.139132
0.139128
0.139122
0.139117
0.139114
0.139111
0.139106
0.139099
0.139088
0.139073
0.13905
0.139022
0.138988
0.13895
0.138908
0.138861
0.138808
0.138751
0.138692
0.13863
0.138564
0.138495
0.138421
0.138342
0.138259
0.138171
0.138081
0.137991
0.1379
0.137867
0.137697
0.139158
0.139169
0.139184
0.139191
0.139194
0.139194
0.139189
0.139179
0.139164
0.139146
0.139124
0.139095
0.139058
0.139016
0.138968
0.138916
0.13886
0.138798
0.138731
0.138657
0.138575
0.138478
0.138316
0.138208
0.138479
0.136482
0.126945
0.138285
0.27687
0.639905
1.15181
1.63232
2.01184
2.33654
2.63681
2.88568
3.02347
2.95783
2.49795
0.139168
0.139174
0.139179
0.139181
0.139185
0.13919
0.139198
0.139205
0.139212
0.139218
0.139222
0.139228
0.139234
0.139239
0.139241
0.139241
0.139238
0.13923
0.139219
0.139202
0.139179
0.13915
0.139116
0.139074
0.139022
0.138962
0.1389
0.138836
0.13877
0.138702
0.138631
0.138558
0.138483
0.138404
0.138325
0.138248
0.138172
0.138161
0.137997
0.139234
0.13925
0.13927
0.139282
0.139288
0.139291
0.139288
0.13928
0.139267
0.139249
0.139228
0.139201
0.139165
0.139123
0.139074
0.139021
0.138964
0.138903
0.138839
0.138772
0.138702
0.138627
0.138522
0.138376
0.138487
0.138428
0.133278
0.12593
0.177269
0.411526
0.873209
1.42205
1.89618
2.27471
2.60188
2.87852
3.05756
3.05558
2.66114
0.13924
0.13924
0.139242
0.139241
0.139243
0.139249
0.139262
0.139273
0.139289
0.139306
0.139321
0.139337
0.139351
0.139361
0.139368
0.139373
0.139373
0.139371
0.139366
0.139358
0.139345
0.139328
0.139306
0.139274
0.13923
0.139174
0.139112
0.139047
0.138981
0.138912
0.138843
0.138773
0.138702
0.138631
0.138562
0.138498
0.138437
0.138433
0.138275
0.139309
0.139329
0.139354
0.139371
0.139381
0.139387
0.139386
0.13938
0.139368
0.139352
0.139331
0.139306
0.139272
0.13923
0.139181
0.139127
0.139067
0.139004
0.138939
0.138872
0.138806
0.13874
0.138668
0.138557
0.138502
0.138781
0.137338
0.129432
0.135475
0.248141
0.584661
1.12342
1.68825
2.15426
2.52791
2.83474
3.05084
3.10562
2.79001
0.13931
0.139305
0.139302
0.139298
0.139298
0.139304
0.139321
0.139338
0.139363
0.139392
0.139419
0.139443
0.139463
0.139478
0.139488
0.139494
0.139496
0.139496
0.139494
0.139489
0.139483
0.139474
0.139461
0.13944
0.139406
0.13936
0.139304
0.139243
0.139179
0.139114
0.139048
0.138982
0.138917
0.138854
0.138793
0.138738
0.138687
0.138682
0.138531
0.139383
0.139408
0.139438
0.139459
0.139473
0.139481
0.139482
0.139478
0.139467
0.139452
0.139433
0.139409
0.139377
0.139336
0.139288
0.139233
0.139172
0.139106
0.139036
0.138966
0.138897
0.138833
0.138772
0.138699
0.138604
0.138715
0.138761
0.135019
0.127942
0.161986
0.351015
0.782555
1.37327
1.93944
2.39246
2.74383
2.99608
3.10047
2.86585
0.139379
0.139369
0.139361
0.139351
0.139349
0.139356
0.139377
0.139399
0.139435
0.139477
0.139514
0.139546
0.13957
0.139587
0.139598
0.139604
0.139606
0.139605
0.139603
0.139599
0.139594
0.139587
0.139579
0.139567
0.139544
0.139507
0.139461
0.139406
0.139348
0.139288
0.139228
0.139169
0.13911
0.139053
0.139001
0.138953
0.138911
0.138907
0.138765
0.139457
0.139486
0.139519
0.139545
0.139562
0.139573
0.139576
0.139573
0.139564
0.13955
0.139532
0.13951
0.13948
0.139441
0.139393
0.139338
0.139277
0.139209
0.139135
0.139059
0.138984
0.138915
0.138854
0.138797
0.138722
0.138694
0.138924
0.13807
0.132214
0.132705
0.208307
0.478147
0.986205
1.60377
2.15779
2.58303
2.88128
3.03184
2.87703
0.139447
0.139432
0.139418
0.139403
0.139398
0.139404
0.139429
0.139458
0.139505
0.139559
0.139606
0.139643
0.139669
0.139687
0.139697
0.139701
0.139701
0.139698
0.139693
0.139688
0.139682
0.139675
0.139669
0.139661
0.139646
0.139619
0.139581
0.139535
0.139484
0.139431
0.139378
0.139325
0.139274
0.139225
0.139181
0.139141
0.139108
0.139106
0.138977
0.13953
0.139563
0.1396
0.139629
0.139649
0.139662
0.139667
0.139665
0.139658
0.139645
0.139628
0.139607
0.139579
0.139542
0.139496
0.139442
0.139381
0.139311
0.139234
0.139152
0.13907
0.138993
0.138925
0.138868
0.138811
0.138749
0.138827
0.138938
0.136638
0.13057
0.146751
0.271889
0.614325
1.17188
1.79032
2.31308
2.68213
2.88508
2.81147
0.139515
0.139495
0.139475
0.139452
0.139444
0.13945
0.139478
0.139515
0.139574
0.139638
0.139691
0.13973
0.139756
0.139771
0.139778
0.139779
0.139777
0.139771
0.139765
0.139757
0.139749
0.139742
0.139736
0.13973
0.13972
0.139701
0.139671
0.139633
0.13959
0.139545
0.139499
0.139454
0.139411
0.13937
0.139334
0.139303
0.13928
0.139283
0.139168
0.139604
0.13964
0.13968
0.139712
0.139734
0.139749
0.139756
0.139755
0.139749
0.139737
0.139722
0.139702
0.139675
0.13964
0.139597
0.139545
0.139484
0.139414
0.139334
0.139247
0.139157
0.13907
0.138993
0.138928
0.138873
0.138815
0.138792
0.138952
0.138586
0.134894
0.131922
0.170105
0.34375
0.737668
1.31008
1.89857
2.35857
2.63336
2.64928
0.139584
0.139559
0.139532
0.139501
0.139489
0.139493
0.139524
0.139571
0.139642
0.139712
0.139767
0.139804
0.139826
0.139837
0.13984
0.139837
0.139832
0.139824
0.139816
0.139807
0.139799
0.139791
0.139786
0.139782
0.139776
0.139762
0.139739
0.139708
0.139673
0.139635
0.139598
0.139561
0.139526
0.139494
0.139467
0.139445
0.139433
0.139443
0.139345
0.139679
0.139718
0.139762
0.139796
0.139819
0.139835
0.139842
0.139843
0.139838
0.139828
0.139813
0.139795
0.13977
0.139737
0.139695
0.139646
0.139587
0.139518
0.139436
0.139345
0.139247
0.13915
0.139061
0.138983
0.138918
0.138863
0.138813
0.138853
0.138978
0.137873
0.133616
0.137083
0.199045
0.408984
0.820949
1.36571
1.8814
2.23874
2.35833
0.139655
0.139624
0.139588
0.139548
0.139532
0.139534
0.139567
0.139627
0.139706
0.139778
0.13983
0.139861
0.139877
0.139883
0.139881
0.139876
0.139868
0.139859
0.13985
0.139841
0.139833
0.139827
0.139823
0.139821
0.139818
0.139809
0.139791
0.139767
0.139739
0.139709
0.13968
0.139651
0.139625
0.139603
0.139586
0.139575
0.139574
0.13959
0.13951
0.139758
0.1398
0.139844
0.139878
0.139901
0.139917
0.139925
0.139927
0.139924
0.139915
0.139902
0.139885
0.139863
0.139832
0.139793
0.139745
0.139689
0.139621
0.13954
0.139446
0.139342
0.139235
0.139133
0.139039
0.138958
0.138893
0.13884
0.138816
0.138909
0.138852
0.137018
0.133455
0.145373
0.226202
0.449094
0.836372
1.29989
1.69356
1.90556
0.139731
0.139692
0.139646
0.139594
0.139572
0.139573
0.139608
0.139683
0.139767
0.139835
0.139879
0.139902
0.139911
0.139911
0.139906
0.139898
0.139889
0.139879
0.13987
0.139862
0.139856
0.139852
0.139851
0.139852
0.139852
0.139847
0.139835
0.139816
0.139795
0.139773
0.139752
0.139732
0.139716
0.139703
0.139697
0.139697
0.139707
0.139729
0.139666
0.139841
0.139883
0.139925
0.139956
0.139977
0.139992
0.14
0.140004
0.140002
0.139996
0.139985
0.139971
0.139952
0.139925
0.139888
0.139843
0.139789
0.139724
0.139644
0.139548
0.139441
0.139327
0.13921
0.139096
0.138996
0.138917
0.138858
0.138819
0.138834
0.13894
0.138596
0.136328
0.134626
0.154125
0.242244
0.448104
0.761998
1.09263
1.32864
0.139809
0.139763
0.139705
0.139638
0.139611
0.139609
0.139648
0.139736
0.13982
0.139881
0.139916
0.139931
0.139934
0.139929
0.13992
0.13991
0.1399
0.13989
0.139883
0.139877
0.139873
0.139872
0.139875
0.13988
0.139883
0.139881
0.139874
0.139861
0.139847
0.139833
0.13982
0.13981
0.139803
0.139802
0.139806
0.139815
0.139835
0.139861
0.139815
0.139919
0.139958
0.139995
0.140022
0.14004
0.140053
0.140062
0.140066
0.140067
0.140064
0.140057
0.140047
0.140033
0.14001
0.139979
0.139938
0.139888
0.139824
0.139745
0.13965
0.13954
0.139419
0.139289
0.139157
0.13904
0.138946
0.138879
0.138838
0.13882
0.138867
0.138934
0.13831
0.136056
0.136609
0.159822
0.240449
0.398865
0.603588
0.782282
0.139884
0.139833
0.139763
0.139683
0.139647
0.139642
0.139685
0.139782
0.139864
0.139918
0.139944
0.139952
0.139948
0.139939
0.139928
0.139916
0.139906
0.139898
0.139893
0.13989
0.13989
0.139893
0.139899
0.139908
0.139915
0.139916
0.139913
0.139907
0.1399
0.139894
0.13989
0.139889
0.139893
0.139901
0.139915
0.139934
0.13996
0.139991
0.139961
0.139984
0.140019
0.140048
0.14007
0.140085
0.140097
0.140106
0.140112
0.140115
0.140116
0.140113
0.140108
0.140099
0.140083
0.140059
0.140026
0.139982
0.139922
0.139844
0.139749
0.139637
0.139509
0.139368
0.139225
0.139103
0.139
0.138928
0.138878
0.138848
0.13885
0.138922
0.138922
0.138113
0.136255
0.138425
0.160236
0.219931
0.315213
0.415021
0.139949
0.139895
0.13982
0.139732
0.139681
0.139671
0.139724
0.139823
0.139901
0.139947
0.139965
0.139967
0.139958
0.139946
0.139933
0.139922
0.139913
0.139907
0.139904
0.139905
0.13991
0.139917
0.139928
0.13994
0.13995
0.139956
0.139958
0.139958
0.139959
0.139961
0.139967
0.139976
0.139989
0.140006
0.140028
0.140054
0.140086
0.140115
0.140101
0.140032
0.14006
0.140083
0.140102
0.140115
0.140127
0.140137
0.140144
0.14015
0.140153
0.140154
0.140153
0.140148
0.140139
0.140123
0.1401
0.140066
0.140015
0.139941
0.139846
0.139732
0.139597
0.139456
0.139326
0.139212
0.139111
0.139025
0.13896
0.138917
0.138903
0.138927
0.139011
0.138936
0.138091
0.13676
0.139498
0.155505
0.189447
0.233868
0.139998
0.139949
0.139876
0.139784
0.139712
0.139698
0.139763
0.13986
0.139932
0.13997
0.139982
0.139978
0.139966
0.139952
0.139939
0.139929
0.139923
0.139921
0.139922
0.139928
0.139937
0.139949
0.139964
0.13998
0.139994
0.140004
0.140011
0.140019
0.140027
0.140038
0.140053
0.14007
0.140092
0.140116
0.140143
0.140172
0.140206
0.140233
0.140233
0.140063
0.140087
0.140106
0.140123
0.140137
0.140149
0.14016
0.140169
0.140177
0.140182