/*--------------------------------*- C++ -*----------------------------------*\
  =========                 |
  \\      /  F ield         | OpenFOAM: The Open Source CFD Toolbox
   \\    /   O peration     | Website:  https://openfoam.org
    \\  /    A nd           | Version:  9
     \\/     M anipulation  |
\*---------------------------------------------------------------------------*/
FoamFile
{
    format      ascii;
    class       surfaceScalarField;
    location    "0.05";
    object      alphaPhi0.water;
}
// * * * * * * * * * * * * * * * * * * * * * * * * * * * * * * * * * * * * * //

dimensions      [0 3 -1 0 0 0 0];

internalField   nonuniform List<scalar> 
15214
(
6.11298e-07
-6.11298e-07
1.75106e-06
-1.13975e-06
3.2009e-06
-1.44984e-06
4.76841e-06
-1.56751e-06
6.3447e-06
-1.57629e-06
7.88335e-06
-1.53865e-06
9.37426e-06
-1.49091e-06
1.08263e-05
-1.45206e-06
1.22569e-05
-1.43062e-06
1.36863e-05
-1.42939e-06
1.5135e-05
-1.44869e-06
1.66234e-05
-1.48839e-06
1.81725e-05
-1.54906e-06
1.98052e-05
-1.63277e-06
2.15489e-05
-1.74365e-06
2.34375e-05
-1.88866e-06
2.55163e-05
-2.07877e-06
2.78464e-05
-2.33013e-06
3.05156e-05
-2.66915e-06
3.36257e-05
-3.11015e-06
3.73648e-05
-3.73909e-06
4.18338e-05
-4.46902e-06
4.65428e-05
-4.70898e-06
5.05754e-05
-4.03258e-06
5.27135e-05
-2.64344e-06
4.93962e-05
-1.9428e-06
2.37568e-05
-1.92946e-06
1.67538e-06
-2.71772e-07
8.37264e-07
5.50019e-08
3.41363e-07
8.50228e-08
1.01367e-07
4.84367e-08
2.61301e-08
1.56873e-08
6.18433e-09
3.51543e-09
1.35615e-09
7.21993e-10
2.76331e-10
1.41288e-10
5.1959e-11
2.76165e-11
8.92717e-12
5.30128e-12
1.38394e-12
9.76823e-13
1.90438e-13
1.70781e-13
2.24734e-14
2.81581e-14
2.48144e-15
4.25346e-15
2.72108e-16
5.41933e-16
1.92006e-17
5.52005e-17
5.6319e-19
3.72402e-18
1.05223e-19
1.21351e-19
2.4307e-21
1.02943e-06
-1.64073e-06
2.2767e-06
-2.38701e-06
3.61639e-06
-2.78954e-06
4.99719e-06
-2.94832e-06
6.37704e-06
-2.95614e-06
7.73433e-06
-2.89593e-06
9.06437e-06
-2.82095e-06
1.03732e-05
-2.76092e-06
1.16729e-05
-2.73029e-06
1.29782e-05
-2.73465e-06
1.4305e-05
-2.77549e-06
1.56699e-05
-2.85328e-06
1.70903e-05
-2.96955e-06
1.85858e-05
-3.12826e-06
2.01791e-05
-3.33695e-06
2.18985e-05
-3.60804e-06
2.37803e-05
-3.96061e-06
2.58721e-05
-4.42192e-06
2.82324e-05
-5.0294e-06
3.09357e-05
-5.81341e-06
3.40252e-05
-6.82867e-06
3.74592e-05
-7.90296e-06
4.11893e-05
-8.43912e-06
4.50364e-05
-7.87966e-06
4.25357e-05
-5.67538e-06
1.74371e-05
-2.01057e-06
1.51646e-06
-2.46574e-07
4.21768e-07
-1.94582e-07
2.49324e-07
-7.99329e-09
1.44104e-07
7.91113e-09
3.36883e-08
4.22125e-09
3.77773e-09
7.52938e-10
1.31631e-09
9.90134e-11
3.31724e-10
6.05529e-11
7.17692e-11
2.20922e-11
1.38585e-11
5.75389e-12
2.39808e-12
1.21962e-12
3.71955e-13
2.41827e-13
5.07826e-14
4.80175e-14
6.96909e-15
9.83682e-15
1.02474e-15
1.80146e-15
1.87756e-16
2.93231e-16
1.40439e-17
3.90014e-17
4.51757e-19
3.0816e-18
5.17638e-20
1.49165e-19
4.71815e-21
1.32095e-06
-2.96168e-06
2.61729e-06
-3.68335e-06
3.84847e-06
-4.02072e-06
5.04614e-06
-4.14598e-06
6.22179e-06
-4.1318e-06
7.38064e-06
-4.05478e-06
8.52811e-06
-3.96843e-06
9.67137e-06
-3.90417e-06
1.08193e-05
-3.87818e-06
1.1982e-05
-3.89743e-06
1.3171e-05
-3.96445e-06
1.43984e-05
-4.08068e-06
1.56777e-05
-4.24884e-06
1.70241e-05
-4.47465e-06
1.84554e-05
-4.76829e-06
1.99934e-05
-5.14601e-06
2.16645e-05
-5.63174e-06
2.35006e-05
-6.25803e-06
2.55354e-05
-7.06415e-06
2.78023e-05
-8.08032e-06
3.02851e-05
-9.31147e-06
3.29302e-05
-1.05481e-05
3.57258e-05
-1.12347e-05
3.85308e-05
-1.06847e-05
2.38118e-05
-7.17276e-06
1.72809e-06
-8.62284e-07
5.91919e-07
-2.22727e-08
1.54356e-07
-3.50728e-08
4.77951e-08
1.83848e-09
1.90447e-08
3.39196e-09
7.20517e-09
1.81548e-09
2.01389e-09
3.95222e-10
4.45022e-10
7.4424e-11
9.92715e-11
1.9315e-11
1.91868e-11
5.23149e-12
3.60031e-12
1.25409e-12
6.10692e-13
2.67114e-13
9.14002e-14
4.85811e-14
1.301e-14
1.05072e-14
1.96504e-15
2.51508e-15
5.58482e-16
5.75807e-16
7.30125e-17
1.07802e-16
4.75818e-18
1.24699e-17
2.01399e-19
1.1548e-18
1.78507e-20
6.98094e-20
2.87196e-21
1.45938e-06
-4.42107e-06
2.78191e-06
-5.00588e-06
3.93745e-06
-5.17625e-06
4.99871e-06
-5.20724e-06
6.01267e-06
-5.14575e-06
7.00614e-06
-5.04826e-06
7.99521e-06
-4.9575e-06
8.99064e-06
-4.8996e-06
1.00008e-05
-4.88838e-06
1.10336e-05
-4.93014e-06
1.20967e-05
-5.02759e-06
1.31989e-05
-5.18287e-06
1.43498e-05
-5.39973e-06
1.55604e-05
-5.68526e-06
1.68435e-05
-6.05142e-06
1.8214e-05
-6.51645e-06
1.96882e-05
-7.10603e-06
2.1283e-05
-7.85282e-06
2.30103e-05
-8.79141e-06
2.48699e-05
-9.93991e-06
2.68215e-05
-1.12631e-05
2.8806e-05
-1.25326e-05
3.07871e-05
-1.32159e-05
3.20555e-05
-1.21393e-05
9.40393e-06
-6.69101e-06
6.01026e-07
-3.9146e-07
1.85438e-07
-1.59731e-08
4.44879e-08
2.57088e-09
1.22718e-08
2.96194e-09
3.68101e-09
1.22252e-09
1.22033e-09
4.86371e-10
3.63073e-10
1.57212e-10
9.40508e-11
3.53269e-11
2.18002e-11
7.67173e-12
4.4923e-12
1.69643e-12
8.54615e-13
3.6693e-13
1.52909e-13
7.41067e-14
2.49277e-14
1.37147e-14
4.07352e-15
3.25708e-15
1.0344e-15
8.90535e-16
1.76799e-16
1.98334e-16
1.81874e-17
2.94811e-17
1.41769e-18
3.8735e-18
7.23741e-20
4.06074e-19
5.97741e-21
2.89709e-20
1.52812e-21
1.49445e-06
-5.91552e-06
2.81379e-06
-6.32521e-06
3.91624e-06
-6.2787e-06
4.88447e-06
-6.17548e-06
5.78265e-06
-6.04393e-06
6.65146e-06
-5.91707e-06
7.51558e-06
-5.82162e-06
8.39002e-06
-5.77403e-06
9.28438e-06
-5.78273e-06
1.02056e-05
-5.85133e-06
1.11595e-05
-5.98154e-06
1.21521e-05
-6.17548e-06
1.31898e-05
-6.43742e-06
1.42798e-05
-6.77526e-06
1.54301e-05
-7.2017e-06
1.6649e-05
-7.73531e-06
1.79438e-05
-8.40089e-06
1.93185e-05
-9.22753e-06
2.07682e-05
-1.0241e-05
2.22716e-05
-1.14433e-05
2.37783e-05
-1.27698e-05
2.52273e-05
-1.39816e-05
2.65773e-05
-1.45659e-05
2.29698e-05
-1.30405e-05
2.51041e-06
-5.31532e-06
2.79897e-07
-3.04672e-07
7.19055e-08
-1.34221e-08
1.69262e-08
6.02032e-09
4.08315e-09
3.04678e-09
9.94625e-10
8.30835e-10
2.64381e-10
1.6771e-10
7.6422e-11
3.89981e-11
1.93798e-11
9.7055e-12
4.34546e-12
2.24374e-12
8.92042e-13
4.81493e-13
1.72513e-13
9.72422e-14
3.26487e-14
1.85379e-14
6.21159e-15
4.13335e-15
1.4938e-15
1.18121e-15
2.97732e-16
2.88714e-16
4.06432e-17
5.04426e-17
4.52796e-18
8.01464e-18
4.03866e-19
1.14858e-18
2.42372e-20
1.36647e-19
1.89949e-21
1.16233e-20
7.35634e-22
1.47031e-06
-7.38583e-06
2.76117e-06
-7.61607e-06
3.82134e-06
-7.33887e-06
4.72711e-06
-7.08126e-06
5.54646e-06
-6.86328e-06
6.3266e-06
-6.69721e-06
7.09768e-06
-6.59269e-06
7.87824e-06
-6.55459e-06
8.67958e-06
-6.58407e-06
9.50879e-06
-6.68054e-06
1.03708e-05
-6.84355e-06
1.12697e-05
-7.07436e-06
1.22094e-05
-7.37712e-06
1.31939e-05
-7.75975e-06
1.42269e-05
-8.23476e-06
1.53113e-05
-8.81971e-06
1.64471e-05
-9.53665e-06
1.76285e-05
-1.0409e-05
1.88395e-05
-1.14521e-05
2.00484e-05
-1.26522e-05
2.12032e-05
-1.39246e-05
2.22514e-05
-1.50298e-05
2.31741e-05
-1.54886e-05
1.66106e-05
-1.3794e-05
6.57539e-07
-4.15198e-06
1.54355e-07
-2.74811e-07
3.41645e-08
-9.28192e-09
6.87275e-09
6.11792e-09
1.45001e-09
2.3296e-09
3.47991e-10
5.4764e-10
7.97009e-11
9.91997e-11
1.78094e-11
1.60184e-11
4.0371e-12
2.70358e-12
8.8158e-13
5.69363e-13
1.84456e-13
1.19421e-13
3.73209e-14
2.48324e-14
7.88755e-15
5.89744e-15
1.86452e-15
1.52515e-15
4.08606e-16
3.82069e-16
6.62039e-17
7.22441e-17
9.07445e-18
1.24624e-17
1.11426e-18
2.08191e-18
1.12511e-19
3.24374e-19
7.89732e-21
4.38578e-20
6.38449e-22
4.45524e-21
3.49412e-22
1.41504e-06
-8.80088e-06
2.66067e-06
-8.86169e-06
3.68297e-06
-8.36118e-06
4.54566e-06
-7.94395e-06
5.31263e-06
-7.63025e-06
6.03205e-06
-7.41663e-06
6.7365e-06
-7.29714e-06
7.44681e-06
-7.2649e-06
8.17576e-06
-7.31302e-06
8.93098e-06
-7.43576e-06
9.71708e-06
-7.62964e-06
1.0537e-05
-7.89428e-06
1.13928e-05
-8.23294e-06
1.2286e-05
-8.65291e-06
1.32169e-05
-9.1657e-06
1.41841e-05
-9.78686e-06
1.51821e-05
-1.05347e-05
1.61991e-05
-1.1426e-05
1.7213e-05
-1.2466e-05
1.81889e-05
-1.3628e-05
1.908e-05
-1.48157e-05
1.98487e-05
-1.57986e-05
2.05065e-05
-1.61464e-05
1.25622e-05
-1.38305e-05
4.27162e-07
-3.32685e-06
8.83873e-08
-2.41806e-07
1.67474e-08
-6.04923e-09
2.92941e-09
4.98244e-09
5.42387e-10
1.57289e-09
1.15765e-10
3.29988e-10
2.64506e-11
5.74099e-11
5.7583e-12
8.93859e-12
1.13428e-12
1.33847e-12
2.25457e-13
2.13129e-13
4.40444e-14
4.08227e-14
9.09357e-15
1.01753e-14
2.16665e-15
2.16812e-15
5.13152e-16
5.2509e-16
9.23925e-17
1.00917e-16
1.4066e-17
1.75059e-17
2.04881e-18
3.04957e-18
2.74405e-19
5.29365e-19
3.13841e-20
8.92659e-20
2.60783e-21
1.37629e-20
2.43983e-22
1.69096e-21
1.72519e-22
1.34546e-06
-1.01463e-05
2.53689e-06
-1.00531e-05
3.52308e-06
-9.34737e-06
4.35435e-06
-8.77521e-06
5.08669e-06
-8.36259e-06
5.76565e-06
-8.09559e-06
6.42379e-06
-7.95528e-06
7.08289e-06
-7.92399e-06
7.75669e-06
-7.98682e-06
8.4534e-06
-8.13247e-06
9.17759e-06
-8.35383e-06
9.93155e-06
-8.64824e-06
1.07161e-05
-9.01749e-06
1.15308e-05
-9.4676e-06
1.23736e-05
-1.00085e-05
1.32399e-05
-1.06532e-05
1.41209e-05
-1.14157e-05
1.50014e-05
-1.23065e-05
1.58574e-05
-1.3322e-05
1.66555e-05
-1.44261e-05
1.73575e-05
-1.55178e-05
1.79418e-05
-1.63828e-05
1.84434e-05
-1.6648e-05
9.77957e-06
-1.37438e-05
2.92491e-07
-2.76083e-06
5.33266e-08
-2.08174e-07
8.73482e-09
-3.54624e-09
1.36142e-09
3.83464e-09
2.24973e-10
1.04378e-09
4.1926e-11
1.97388e-10
8.42247e-12
3.23179e-11
1.69876e-12
4.88325e-12
3.33421e-13
7.10174e-13
5.91853e-14
1.08594e-13
1.07407e-14
2.03169e-14
2.41198e-15
4.10558e-15
6.53243e-16
8.47613e-16
1.28117e-16
1.59334e-16
1.9946e-17
2.62107e-17
3.10121e-18
4.39017e-18
4.71704e-19
7.55843e-19
6.84783e-20
1.341e-19
8.9285e-21
2.42256e-20
9.02552e-22
4.2651e-21
1.09494e-22
6.47362e-22
9.10004e-23
1.27155e-06
-1.14179e-05
2.40571e-06
-1.11873e-05
3.35683e-06
-1.02985e-05
4.16342e-06
-9.5818e-06
4.87245e-06
-9.07162e-06
5.52483e-06
-8.74796e-06
6.15145e-06
-8.5819e-06
6.77389e-06
-8.54643e-06
7.40626e-06
-8.61919e-06
8.05713e-06
-8.78334e-06
8.73116e-06
-9.02786e-06
9.43029e-06
-9.34737e-06
1.01545e-05
-9.74171e-06
1.09021e-05
-1.02152e-05
1.16694e-05
-1.07758e-05
1.24498e-05
-1.14336e-05
1.32328e-05
-1.21987e-05
1.4002e-05
-1.30757e-05
1.47342e-05
-1.40542e-05
1.54001e-05
-1.5092e-05
1.59712e-05
-1.60888e-05
1.64386e-05
-1.68502e-05
1.68499e-05
-1.70594e-05
7.82039e-06
-1.36125e-05
2.08576e-07
-2.34829e-06
3.37043e-08
-1.77803e-07
4.80786e-09
-1.77392e-09
6.74115e-10
2.90517e-09
1.01588e-10
6.99509e-10
1.68763e-11
1.20845e-10
3.00158e-12
1.85014e-11
5.42488e-13
2.66891e-12
9.45406e-14
3.77653e-13
1.56207e-14
5.71602e-14
2.69889e-15
1.01804e-14
9.35125e-16
1.76141e-15
2.00243e-16
3.20399e-16
3.05072e-17
4.85763e-17
4.65653e-18
7.4214e-18
7.19322e-19
1.1719e-18
1.12187e-19
1.94493e-19
1.7482e-20
3.44042e-20
2.61463e-21
6.51777e-21
3.3422e-22
1.29789e-21
5.55598e-23
2.4911e-22
5.12102e-23
1.19947e-06
-1.26174e-05
2.27733e-06
-1.22651e-05
3.19457e-06
-1.12157e-05
3.98023e-06
-1.03675e-05
4.67268e-06
-9.76408e-06
5.30746e-06
-9.38274e-06
5.91278e-06
-9.18722e-06
6.50918e-06
-9.14283e-06
7.11058e-06
-9.22059e-06
7.72566e-06
-9.39842e-06
8.35913e-06
-9.66133e-06
9.01275e-06
-1.0001e-05
9.68602e-06
-1.0415e-05
1.03764e-05
-1.09056e-05
1.10793e-05
-1.14787e-05
1.17872e-05
-1.21415e-05
1.2489e-05
-1.29004e-05
1.31685e-05
-1.37552e-05
1.38051e-05
-1.46907e-05
1.43745e-05
-1.56615e-05
1.48569e-05
-1.65711e-05
1.52523e-05
-1.72456e-05
1.56109e-05
-1.74179e-05
6.40987e-06
-1.34637e-05
1.53937e-07
-2.03095e-06
2.2207e-08
-1.51622e-07
2.79197e-09
-6.05195e-10
3.54236e-10
2.20162e-09
4.90898e-11
4.77689e-10
7.42988e-12
7.63236e-11
1.18728e-12
1.09594e-11
1.92175e-13
1.50102e-12
2.94178e-14
2.05142e-13
5.01913e-15
3.03494e-14
1.37914e-15
4.91927e-15
3.57783e-16
8.07631e-16
5.88026e-17
1.1999e-16
8.24355e-18
1.66444e-17
1.19807e-18
2.34545e-18
1.79368e-19
3.43742e-19
2.80018e-20
5.36635e-20
4.5942e-21
9.16338e-21
7.83453e-22
1.75403e-21
1.29864e-22
3.81876e-22
2.87785e-23
9.3868e-23
2.90829e-23
6.68469e-43
-3.70494e-41
3.35109e-43
-1.99352e-42
3.38443e-44
-3.29958e-43
1.86644e-45
-3.96699e-44
7.1292e-47
-1.31136e-45
2.2692e-48
-3.291e-47
6.78457e-50
-7.18137e-49
1.97608e-51
-1.39834e-50
5.45551e-53
-2.29722e-52
1.33035e-54
-2.58337e-54
3.25014e-56
-4.67027e-57
1.51714e-57
1.34452e-58
6.75027e-59
1.18522e-59
2.95062e-60
7.33113e-61
1.25597e-61
3.9306e-62
5.17018e-63
1.93243e-63
2.05151e-64
8.90511e-65
7.82211e-66
3.88351e-66
2.85669e-67
1.60886e-67
9.95984e-69
6.33588e-69
3.30379e-70
2.36904e-70
1.039e-71
8.39187e-72
3.08668e-73
2.80897e-73
8.62945e-75
8.86165e-75
2.26113e-76
2.62833e-76
5.52794e-78
7.31081e-78
1.25445e-79
1.90214e-79
2.62621e-81
4.61574e-81
5.03391e-83
1.04102e-82
8.74942e-85
2.17249e-84
1.36139e-86
4.16976e-86
1.86329e-88
7.29645e-88
2.18804e-90
1.14858e-89
2.12549e-92
1.59253e-91
1.61601e-94
1.87979e-93
8.80929e-97
1.78749e-95
2.97186e-99
1.24943e-97
5.89135e-102
5.46575e-100
1.1645e-102
1.12389e-102
1.04413e-105
1.54637e-40
-7.0564e-40
4.22438e-41
-1.9419e-40
4.06309e-42
-4.83884e-41
1.97953e-43
-4.29354e-42
7.269e-45
-1.32505e-43
2.28862e-46
-3.25677e-45
6.65541e-48
-6.94132e-47
1.82231e-49
-1.28294e-48
4.53482e-51
-1.91833e-50
1.05093e-52
-1.83023e-52
3.11504e-54
-1.57062e-55
1.49706e-55
5.66631e-56
6.15036e-57
4.61163e-57
2.58846e-58
2.71684e-58
1.05804e-59
1.39327e-59
4.17952e-61
6.55298e-61
1.5908e-62
2.88628e-62
5.81742e-64
1.20173e-63
2.03821e-65
4.74917e-65
6.8225e-67
1.78364e-66
2.1755e-68
6.36347e-68
6.58848e-70
2.15377e-69
1.88901e-71
6.9029e-71
5.10978e-73
2.09073e-72
1.29908e-74
5.97101e-74
3.09076e-76
1.60422e-75
6.84745e-78
4.04416e-77
1.40431e-79
9.53819e-79
2.64683e-81
2.09723e-80
4.54324e-83
4.28005e-82
7.01846e-85
8.0599e-84
9.60466e-87
1.38905e-85
1.13929e-88
2.16435e-87
1.1359e-90
2.99263e-89
9.10307e-93
3.56722e-91
5.48166e-95
3.50449e-93
2.22776e-97
2.64293e-95
5.19026e-100
1.36076e-97
1.56067e-102
4.09136e-100
3.98488e-103
1.59031e-38
-8.91904e-38
2.70274e-39
-1.73801e-38
2.46046e-40
-3.56067e-39
1.0773e-41
-2.39291e-40
3.77781e-43
-6.93414e-42
1.17207e-44
-1.66935e-43
3.35107e-46
-3.52714e-45
8.88334e-48
-6.43188e-47
2.11104e-49
-9.42182e-49
4.42806e-51
-8.76029e-51
1.24939e-52
1.03335e-53
5.5731e-54
3.95218e-54
2.14341e-55
2.80255e-55
8.36178e-57
1.50204e-56
3.16173e-58
7.06807e-58
1.15435e-59
3.057e-59
4.05811e-61
1.23844e-60
1.37006e-62
4.74045e-62
4.43069e-64
1.72128e-63
1.36901e-65
5.93741e-65
4.03098e-67
1.94556e-66
1.12794e-68
6.05049e-68
2.9905e-70
1.78322e-69
7.48807e-72
4.97171e-71
1.76435e-73
1.30861e-72
3.89575e-75
3.2443e-74
8.02252e-77
7.55641e-76
1.53211e-78
1.64853e-77
2.69509e-80
3.35683e-79
4.3301e-82
6.35226e-81
6.28688e-84
1.1109e-82
8.13539e-86
1.78196e-84
9.21184e-88
2.59382e-86
8.9014e-90
3.37269e-88
7.08559e-92
3.82683e-90
4.40957e-94
3.65793e-92
1.99545e-96
2.7901e-94
6.54453e-99
1.55662e-96
9.50133e-101
5.80615e-99
9.29453e-102
8.59858e-37
-5.89221e-36
1.1397e-37
-9.31849e-37
9.9126e-39
-1.54247e-37
4.04841e-40
-8.97401e-39
1.36223e-41
-2.49322e-40
4.15064e-43
-5.87982e-42
1.16768e-44
-1.22933e-43
3.00963e-46
-2.21096e-45
6.83363e-48
-3.14111e-47
1.28998e-49
-2.64084e-49
3.54366e-51
1.28455e-51
1.43651e-52
1.72987e-52
5.17713e-54
1.06416e-53
1.86413e-55
5.1586e-55
6.49701e-57
2.21734e-56
2.18433e-58
8.78638e-58
7.06571e-60
3.26368e-59
2.19357e-61
1.14539e-60
6.52013e-63
3.812e-62
1.85109e-64
1.20485e-63
5.0072e-66
3.61686e-65
1.28714e-67
1.03047e-66
3.13538e-69
2.78285e-68
7.21505e-71
7.11182e-70
1.56299e-72
1.71653e-71
3.1748e-74
3.90408e-73
6.01927e-76
8.34567e-75
1.05956e-77
1.67181e-76
1.72079e-79
3.12742e-78
2.55881e-81
5.44069e-80
3.45143e-83
8.75683e-82
4.17354e-85
1.29527e-83
4.45637e-87
1.74485e-85
4.11774e-89
2.11346e-87
3.20053e-91
2.25964e-89
2.00875e-93
2.07539e-91
1.04537e-95
1.56988e-93
3.97813e-98
9.10249e-96
1.23831e-99
3.7785e-98
8.21312e-101
3.01523e-35
-2.45534e-34
3.47003e-36
-3.45031e-35
2.98863e-37
-4.68991e-36
1.18757e-38
-2.55417e-37
3.88086e-40
-6.97147e-39
1.15979e-41
-1.61546e-40
3.20874e-43
-3.32572e-42
8.06616e-45
-5.86147e-44
1.75014e-46
-7.94227e-46
3.02185e-48
-5.4e-48
8.494e-50
6.56605e-50
3.13329e-51
5.96098e-51
1.06337e-52
3.20983e-52
3.55439e-54
1.41478e-53
1.14816e-55
5.58468e-55
3.57359e-57
2.03901e-56
1.06912e-58
6.98574e-58
3.06731e-60
2.26159e-59
8.42003e-62
6.94195e-61
2.20648e-63
2.02303e-62
5.50676e-65
5.59811e-64
1.30561e-66
1.47002e-65
2.93279e-68
3.65886e-67
6.22293e-70
8.6183e-69
1.2431e-71
1.91746e-70
2.329e-73
4.02068e-72
4.07491e-75
7.92564e-74
6.62523e-77
1.46442e-75
9.95225e-79
2.52777e-77
1.37196e-80
4.06018e-79
1.72167e-82
6.04031e-81
1.94745e-84
8.27496e-83
1.96098e-86
1.03613e-84
1.72876e-88
1.17485e-86
1.35517e-90
1.18761e-88
9.18172e-93
1.04752e-90
4.88259e-95
7.7774e-93
1.9693e-97
4.56413e-95
7.59996e-99
1.96761e-97
4.9243e-100
7.80082e-34
-7.273e-33
8.12634e-35
-9.60839e-34
7.1848e-36
-1.08291e-34
2.89135e-37
-5.84327e-36
9.35032e-39
-1.60754e-37
2.73729e-40
-3.68212e-39
7.36213e-42
-7.37418e-41
1.776e-43
-1.24153e-42
3.59989e-45
-1.52882e-44
6.08445e-47
-6.06534e-47
1.89876e-48
2.43497e-48
6.38852e-50
1.80283e-49
2.05877e-51
8.63521e-51
6.45469e-53
3.49809e-52
1.95206e-54
1.28108e-53
5.68054e-56
4.35365e-55
1.58714e-57
1.38983e-56
4.2485e-59
4.19326e-58
1.08725e-60
1.1993e-59
2.65433e-62
3.25559e-61
6.1679e-64
8.38912e-63
1.36093e-65
2.05087e-64
2.84393e-67
4.75136e-66
5.61231e-69
1.04161e-67
1.0426e-70
2.15678e-69
1.8167e-72
4.209e-71
2.95727e-74
7.72234e-73
4.47661e-76
1.32828e-74
6.26896e-78
2.13503e-76
8.07293e-80
3.19538e-78
9.49357e-82
4.43794e-80
1.011e-83
5.68562e-82
1.01094e-85
6.68146e-84
9.0845e-88
7.14508e-86
7.1608e-90
6.86865e-88
4.79143e-92
5.82518e-90
2.55928e-94
4.22187e-92
1.03732e-96
2.46553e-94
3.50999e-98
1.06256e-96
2.75904e-99
1.62374e-32
-1.64278e-31
1.55103e-33
-2.10217e-32
1.43547e-34
-2.01244e-33
6.09575e-36
-1.10699e-34
2.01974e-37
-3.17881e-36
5.88443e-39
-7.37665e-38
1.53191e-40
-1.43923e-39
3.47506e-42
-2.24534e-41
6.32459e-44
-2.29079e-43
1.14732e-45
2.25487e-46
4.02351e-47
8.48835e-47
1.25498e-48
4.95213e-48
3.87065e-50
2.15054e-49
1.15228e-51
8.11324e-51
3.30212e-53
2.79056e-52
9.09159e-55
8.9336e-54
2.40025e-56
2.68917e-55
6.06453e-58
7.65155e-57
1.46356e-59
2.06332e-58
3.36674e-61
5.27895e-60
7.36665e-63
1.28159e-61
1.52967e-64
2.95072e-63
3.00684e-66
6.43634e-65
5.57975e-68
1.32818e-66
9.74515e-70
2.5883e-68
1.59646e-71
4.75332e-70
2.44385e-73
8.20819e-72
3.48101e-75
1.32939e-73
4.60432e-77
2.01293e-75
5.78444e-79
2.83949e-77
6.69771e-81
3.7189e-79
7.10486e-83
4.50149e-81
6.85458e-85
5.01041e-83
5.95117e-87
5.0937e-85
4.56867e-89
4.68291e-87
3.00505e-91
3.82915e-89
1.59416e-93
2.70233e-91
6.33928e-96
1.55303e-93
1.59594e-97
6.55785e-96
1.676e-98
2.86544e-31
-2.93605e-30
2.48562e-32
-3.71925e-31
2.38892e-33
-3.0501e-32
1.10874e-34
-1.72247e-33
3.96911e-36
-5.37444e-35
1.21479e-37
-1.33334e-36
3.19188e-39
-2.65855e-38
6.87667e-41
-3.86452e-40
1.02195e-42
-2.68479e-42
2.41159e-44
2.69066e-44
8.1255e-46
2.58442e-45
2.45206e-47
1.28449e-46
7.29061e-49
5.15796e-48
2.08659e-50
1.83756e-49
5.737e-52
6.01193e-51
1.5129e-53
1.83563e-52
3.82022e-55
5.27444e-54
9.22096e-57
1.43261e-55
2.1237e-58
3.6867e-57
4.65822e-60
8.99761e-59
9.7114e-62
2.08275e-60
1.92016e-63
4.57026e-62
3.59212e-65
9.49768e-64
6.34142e-67
1.86667e-65
1.05337e-68
3.4638e-67
1.67678e-70
6.0596e-69
2.50796e-72
9.96773e-71
3.50202e-74
1.53722e-72
4.54965e-76
2.21614e-74
5.47852e-78
2.97733e-76
6.08995e-80
3.7149e-78
6.21903e-82
4.28994e-80
5.79673e-84
4.56517e-82
4.88305e-86
4.45066e-84
3.65516e-88
3.94016e-86
2.35686e-90
3.11822e-88
1.23248e-92
2.14051e-90
4.76185e-95
1.20212e-92
8.25057e-97
4.98932e-95
1.20023e-97
5.18098e-30
-1.67821e-28
2.43137e-31
-2.34321e-29
2.77277e-32
-4.22535e-31
1.45673e-33
-2.21819e-32
5.92585e-35
-7.93907e-34
2.03293e-36
-2.31132e-35
5.83728e-38
-5.349e-37
1.29632e-39
-8.31963e-39
1.6743e-41
-1.19395e-41
5.65756e-43
1.26623e-42
1.75528e-44
7.97922e-44
5.2874e-46
3.5391e-45
1.534e-47
1.33798e-46
4.27123e-49
4.5614e-48
1.14004e-50
1.43676e-49
2.91328e-52
4.23317e-51
7.11784e-54
1.17453e-52
1.66024e-55
3.08044e-54
3.69106e-57
7.65187e-56
7.80798e-59
1.80175e-57
1.56862e-60
4.02182e-59
3.02523e-62
8.50627e-61
5.57893e-64
1.70352e-62
9.71382e-66
3.22619e-64
1.59362e-67
5.76798e-66
2.45586e-69
9.71285e-68
3.54534e-71
1.537e-69
4.78028e-73
2.27993e-71
6.00067e-75
3.16155e-73
6.98903e-77
4.08631e-75
7.52567e-79
4.90768e-77
7.45805e-81
5.46018e-79
6.76018e-83
5.60563e-81
5.55171e-85
5.28182e-83
4.06231e-87
4.52941e-85
2.56605e-89
3.48045e-87
1.31734e-91
2.3251e-89
4.99547e-94
1.2731e-91
5.35913e-96
5.18888e-94
1.14546e-96
1.97829e-28
-2.35999e-27
3.72824e-30
-1.37434e-28
1.2878e-31
-5.51885e-30
6.06945e-33
-1.99605e-31
2.59441e-34
-6.60112e-33
1.03154e-35
-1.91528e-34
3.83326e-37
-4.41127e-36
1.34933e-38
-5.11325e-38
4.59529e-40
5.72455e-40
1.50312e-41
5.25265e-41
4.68968e-43
2.66364e-42
1.40114e-44
1.09269e-43
4.00819e-46
3.95352e-45
1.09744e-47
1.30557e-46
2.87406e-49
4.00221e-48
7.19288e-51
1.14958e-49
1.71845e-52
3.11075e-51
3.91429e-54
7.95511e-53
8.48871e-56
1.92583e-54
1.75318e-57
4.41672e-56
3.51428e-59
9.59678e-58
6.67731e-61
1.97564e-59
1.19908e-62
3.84766e-61
2.03237e-64
7.08016e-63
3.24315e-66
1.22902e-64
4.86064e-68
2.00873e-66
6.82389e-70
3.08447e-68
8.94833e-72
4.43894e-70
1.09269e-73
5.9713e-72
1.23845e-75
7.48741e-74
1.29844e-77
8.72575e-76
1.25367e-79
9.42522e-78
1.10775e-81
9.40073e-80
8.87208e-84
8.61154e-82
6.33156e-86
7.1845e-84
3.89979e-88
5.37209e-86
1.95155e-90
3.48906e-88
7.23746e-93
1.85256e-90
4.93489e-95
7.29898e-93
1.5075e-95
1.15227e-06
-1.37696e-05
2.19526e-06
-1.33081e-05
3.09554e-06
-1.2116e-05
3.87558e-06
-1.11475e-05
4.56693e-06
-1.04554e-05
5.20034e-06
-1.00162e-05
5.80132e-06
-9.7882e-06
6.38914e-06
-9.73065e-06
6.97732e-06
-9.80877e-06
7.57451e-06
-9.99561e-06
8.18546e-06
-1.02723e-05
8.81185e-06
-1.06274e-05
9.45293e-06
-1.10561e-05
1.01057e-05
-1.15584e-05
1.0765e-05
-1.2138e-05
1.1423e-05
-1.27994e-05
1.20684e-05
-1.35458e-05
1.26865e-05
-1.43733e-05
1.3259e-05
-1.52632e-05
1.37667e-05
-1.61693e-05
1.41964e-05
-1.70008e-05
1.45539e-05
-1.76032e-05
1.48867e-05
-1.77507e-05
5.43819e-06
-1.32899e-05
1.189e-07
-1.76922e-06
1.53838e-08
-1.28842e-07
1.72743e-09
1.20346e-10
1.99236e-10
1.67102e-09
2.54185e-11
3.30684e-10
3.53887e-12
4.92832e-11
5.15953e-13
6.66533e-12
7.53625e-14
8.66965e-13
9.72912e-15
1.14059e-13
1.61248e-15
1.63074e-14
7.25802e-16
2.36042e-15
1.46443e-16
3.6689e-16
1.93256e-17
4.82788e-17
2.55938e-18
6.20564e-18
3.4904e-19
8.08198e-19
4.95917e-20
1.09099e-19
7.53156e-21
1.56996e-20
1.25929e-21
2.49603e-21
2.38122e-22
4.57066e-22
5.18881e-23
1.00548e-22
1.3793e-23
2.76507e-23
9.18329e-24
5.62065e-24
1.0995e-06
-1.48691e-05
2.10065e-06
-1.43093e-05
2.97579e-06
-1.29912e-05
3.74284e-06
-1.19145e-05
4.42751e-06
-1.11401e-05
5.05586e-06
-1.06445e-05
5.65025e-06
-1.03826e-05
6.2282e-06
-1.03086e-05
6.80232e-06
-1.03829e-05
7.38089e-06
-1.05742e-05
7.96852e-06
-1.08599e-05
8.56683e-06
-1.12257e-05
9.17491e-06
-1.16641e-05
9.78967e-06
-1.21732e-05
1.04058e-05
-1.27541e-05
1.10155e-05
-1.34092e-05
1.16085e-05
-1.41388e-05
1.21716e-05
-1.49364e-05
1.26895e-05
-1.57811e-05
1.31478e-05
-1.66276e-05
1.35382e-05
-1.73912e-05
1.38695e-05
-1.79345e-05
1.41821e-05
-1.80633e-05
4.60689e-06
-1.30862e-05
9.27666e-08
-1.54953e-06
1.08202e-08
-1.09305e-07
1.10448e-09
5.10216e-10
1.17261e-10
1.27771e-09
1.3902e-11
2.332e-10
1.80095e-12
3.26913e-11
2.43426e-13
4.19082e-12
3.25405e-14
5.20042e-13
4.40517e-15
6.59139e-14
9.19597e-16
8.99352e-15
3.56668e-16
1.24083e-15
5.9746e-17
1.72857e-16
7.08403e-18
2.11632e-17
8.84855e-19
2.55275e-18
1.13013e-19
3.10413e-19
1.5051e-20
3.8789e-20
2.16224e-21
5.11509e-21
3.50544e-22
7.38561e-22
6.76859e-23
1.22426e-22
1.64989e-23
2.45155e-23
5.38211e-24
6.08884e-24
1.82835e-24
2.08068e-24
1.05113e-06
-1.59203e-05
2.01298e-06
-1.52711e-05
2.86298e-06
-1.38412e-05
3.61589e-06
-1.26674e-05
4.29296e-06
-1.18172e-05
4.91618e-06
-1.12677e-05
5.50496e-06
-1.09714e-05
6.07489e-06
-1.08785e-05
6.63747e-06
-1.09455e-05
7.2004e-06
-1.11371e-05
7.76803e-06
-1.14275e-05
8.34188e-06
-1.17995e-05
8.921e-06
-1.22433e-05
9.50234e-06
-1.27545e-05
1.00807e-05
-1.33325e-05
1.0649e-05
-1.39775e-05
1.11977e-05
-1.46875e-05
1.17156e-05
-1.54542e-05
1.21904e-05
-1.62559e-05
1.26113e-05
-1.70484e-05
1.29736e-05
-1.77535e-05
1.32867e-05
-1.82477e-05
1.35838e-05
-1.83603e-05
3.91527e-06
-1.28596e-05
7.3875e-08
-1.35809e-06
7.82974e-09
-9.23405e-08
7.29909e-10
7.39663e-10
7.15625e-11
9.84132e-10
7.87281e-12
1.66898e-10
9.49215e-13
2.21229e-11
1.19428e-13
2.69908e-12
1.4764e-14
3.20598e-13
2.33001e-15
3.91676e-14
7.7993e-16
5.04964e-15
1.84148e-16
6.8667e-16
2.4855e-17
8.56224e-17
2.86761e-18
9.91239e-18
3.3991e-19
1.13414e-18
4.08996e-20
1.30165e-19
5.09986e-21
1.5211e-20
6.81949e-22
1.84952e-21
1.02691e-22
2.41325e-22
1.85329e-23
3.52237e-23
4.25243e-24
6.02578e-24
1.25895e-24
1.23084e-24
2.77439e-25
3.96798e-25
1.00652e-06
-1.69268e-05
1.9314e-06
-1.6196e-05
2.75637e-06
-1.46661e-05
3.49395e-06
-1.3405e-05
4.16194e-06
-1.24852e-05
4.779e-06
-1.18848e-05
5.36187e-06
-1.15543e-05
5.92427e-06
-1.14409e-05
6.47648e-06
-1.14977e-05
7.02553e-06
-1.16862e-05
7.57539e-06
-1.19774e-05
8.12744e-06
-1.23516e-05
8.68077e-06
-1.27966e-05
9.23247e-06
-1.33062e-05
9.77774e-06
-1.38778e-05
1.03101e-05
-1.45098e-05
1.08212e-05
-1.51987e-05
1.13016e-05
-1.59347e-05
1.17415e-05
-1.66959e-05
1.21331e-05
-1.744e-05
1.24741e-05
-1.80944e-05
1.27735e-05
-1.85471e-05
1.30578e-05
-1.86446e-05
3.33232e-06
-1.26158e-05
5.96042e-08
-1.18802e-06
5.75129e-09
-7.75157e-08
4.9265e-10
8.53432e-10
4.49208e-11
7.61195e-10
4.61701e-12
1.20802e-10
5.21468e-13
1.52145e-11
6.15397e-14
1.77333e-12
6.912e-15
2.02289e-13
1.2149e-15
2.3851e-14
5.10364e-16
2.89596e-15
9.644e-17
3.79813e-16
1.12411e-17
4.43184e-17
1.25422e-18
4.89721e-18
1.42063e-19
5.35353e-19
1.62338e-20
5.84768e-20
1.90602e-21
6.45461e-21
2.36773e-22
7.31683e-22
3.24747e-23
8.71198e-23
5.20264e-24
1.12259e-23
1.02819e-24
1.62026e-24
2.52508e-25
2.661e-25
4.70924e-26
6.37739e-26
9.65102e-07
-1.78919e-05
1.85501e-06
-1.70859e-05
2.65513e-06
-1.54663e-05
3.37625e-06
-1.41261e-05
4.03353e-06
-1.31425e-05
4.64291e-06
-1.24941e-05
5.21886e-06
-1.21302e-05
5.77335e-06
-1.19954e-05
6.31547e-06
-1.20398e-05
6.8515e-06
-1.22222e-05
7.38501e-06
-1.25109e-05
7.91721e-06
-1.28838e-05
8.44724e-06
-1.33266e-05
8.97239e-06
-1.38314e-05
9.48834e-06
-1.43937e-05
9.98927e-06
-1.50107e-05
1.04681e-05
-1.56775e-05
1.0917e-05
-1.63835e-05
1.13282e-05
-1.71071e-05
1.16961e-05
-1.78079e-05
1.20198e-05
-1.84182e-05
1.23079e-05
-1.88351e-05
1.25814e-05
-1.89182e-05
2.83057e-06
-1.23562e-05
4.84279e-08
-1.03755e-06
4.27145e-09
-6.46333e-08
3.39293e-10
8.87511e-10
2.89337e-11
5.91394e-10
2.78638e-12
8.8324e-11
2.95593e-13
1.06076e-11
3.28417e-14
1.18449e-12
3.28163e-15
1.30081e-13
5.57081e-16
1.48173e-14
3.10565e-16
1.705e-15
5.16305e-17
2.16648e-16
5.38986e-18
2.38369e-17
5.83356e-19
2.52876e-18
6.34492e-20
2.65354e-19
6.93127e-21
2.77433e-20
7.71835e-22
2.91449e-21
8.96352e-23
3.1125e-22
1.12133e-23
3.43132e-23
1.57664e-24
3.97904e-24
2.59996e-25
4.95273e-25
5.08556e-26
6.66766e-26
9.5451e-27
1.02108e-26
9.26336e-07
-1.88182e-05
1.78294e-06
-1.79425e-05
2.55838e-06
-1.62417e-05
3.26206e-06
-1.48298e-05
3.90706e-06
-1.37875e-05
4.50714e-06
-1.30942e-05
5.07481e-06
-1.26979e-05
5.62053e-06
-1.25411e-05
6.15229e-06
-1.25716e-05
6.6756e-06
-1.27455e-05
7.19361e-06
-1.30289e-05
7.70737e-06
-1.33975e-05
8.21605e-06
-1.38353e-05
8.71722e-06
-1.43325e-05
9.207e-06
-1.48835e-05
9.68035e-06
-1.5484e-05
1.01312e-05
-1.61284e-05
1.05532e-05
-1.68055e-05
1.09402e-05
-1.74941e-05
1.12882e-05
-1.81559e-05
1.15973e-05
-1.87274e-05
1.18753e-05
-1.91131e-05
1.21395e-05
-1.91824e-05
2.39025e-06
-1.20749e-05
3.93924e-08
-9.09873e-07
3.20055e-09
-5.36575e-08
2.37539e-10
8.70475e-10
1.90383e-11
4.61783e-10
1.722e-12
6.52078e-11
1.71952e-13
7.48816e-12
1.80551e-14
8.02676e-13
1.896e-15
8.50064e-14
3.62861e-16
9.34784e-15
1.86059e-16
1.05214e-15
2.76006e-17
1.26012e-16
2.70989e-18
1.32208e-17
2.84301e-19
1.35036e-18
2.98053e-20
1.36468e-19
3.1274e-21
1.37134e-20
3.32291e-22
1.37869e-21
3.63669e-23
1.39836e-22
4.19454e-24
1.44565e-23
5.2446e-25
1.54056e-24
7.29798e-26
1.70901e-25
1.14282e-26
1.96948e-26
2.36443e-27
1.82009e-27
8.89703e-07
-1.97079e-05
1.71433e-06
-1.87672e-05
2.46526e-06
-1.69926e-05
3.15071e-06
-1.55153e-05
3.78205e-06
-1.44188e-05
4.37127e-06
-1.36834e-05
4.92929e-06
-1.32559e-05
5.46521e-06
-1.30771e-05
5.98603e-06
-1.30924e-05
6.49658e-06
-1.3256e-05
6.9996e-06
-1.35319e-05
7.49595e-06
-1.38939e-05
7.98486e-06
-1.43242e-05
8.46415e-06
-1.48118e-05
8.93042e-06
-1.53498e-05
9.37928e-06
-1.59329e-05
9.80568e-06
-1.65548e-05
1.02043e-05
-1.72041e-05
1.05705e-05
-1.78603e-05
1.09013e-05
-1.84867e-05
1.11975e-05
-1.90237e-05
1.14662e-05
-1.93818e-05
1.17221e-05
-1.94382e-05
1.99848e-06
-1.17761e-05
3.22407e-08
-7.99101e-07
2.41075e-09
-4.42463e-08
1.6747e-10
8.20055e-10
1.26218e-11
3.61737e-10
1.07296e-12
4.85034e-11
1.01023e-13
5.33868e-12
1.01511e-14
5.50295e-13
1.36267e-15
5.62749e-14
4.31684e-16
5.95834e-15
1.14956e-16
6.72704e-16
1.43334e-17
7.43229e-17
1.40852e-18
7.48259e-18
1.4329e-19
7.37877e-19
1.45175e-20
7.20049e-20
1.46806e-21
6.976e-21
1.49519e-22
6.7398e-22
1.55302e-23
6.53184e-23
1.67115e-24
6.39381e-24
1.89626e-25
6.36424e-25
2.29846e-26
6.47023e-26
2.99416e-27
6.66459e-27
7.01868e-28
3.85378e-28
8.5475e-07
-2.05627e-05
1.64847e-06
-1.95609e-05
2.37504e-06
-1.77192e-05
3.04161e-06
-1.61818e-05
3.65816e-06
-1.50354e-05
4.23518e-06
-1.42605e-05
4.78225e-06
-1.3803e-05
5.30734e-06
-1.36021e-05
5.81658e-06
-1.36016e-05
6.31418e-06
-1.37536e-05
6.80248e-06
-1.40202e-05
7.28221e-06
-1.43736e-05
7.75264e-06
-1.47946e-05
8.2118e-06
-1.5271e-05
8.65675e-06
-1.57947e-05
9.08371e-06
-1.63599e-05
9.48843e-06
-1.69595e-05
9.86657e-06
-1.75823e-05
1.02144e-05
-1.82081e-05
1.053e-05
-1.88023e-05
1.08146e-05
-1.93082e-05
1.10744e-05
-1.96416e-05
1.13224e-05
-1.96862e-05
1.65361e-06
-1.14675e-05
2.651e-08
-6.99785e-07
1.81704e-09
-3.61256e-08
1.17808e-10
7.46765e-10
8.31993e-12
2.83329e-10
6.62776e-13
3.62296e-11
5.87281e-14
3.83108e-12
5.61408e-15
3.80357e-13
9.03555e-16
3.76023e-14
3.57602e-16
3.82562e-15
7.08252e-17
4.2388e-16
7.74772e-18
4.43181e-17
7.4863e-19