/*--------------------------------*- C++ -*----------------------------------*\
  =========                 |
  \\      /  F ield         | OpenFOAM: The Open Source CFD Toolbox
   \\    /   O peration     | Website:  https://openfoam.org
    \\  /    A nd           | Version:  9
     \\/     M anipulation  |
\*---------------------------------------------------------------------------*/
FoamFile
{
    format      ascii;
    class       volScalarField;
    location    "0.05";
    object      nut;
}
// * * * * * * * * * * * * * * * * * * * * * * * * * * * * * * * * * * * * * //

dimensions      [0 2 -1 0 0 0 0];

internalField   nonuniform List<scalar> 
7700
(
8.1414e-05
7.87326e-05
8.57893e-05
8.99584e-05
9.239e-05
9.38343e-05
9.473e-05
9.53375e-05
9.58115e-05
9.62419e-05
9.66808e-05
9.71594e-05
9.76999e-05
9.83223e-05
9.90498e-05
9.99127e-05
0.000100952
0.000102221
0.000103784
0.000105687
0.000107929
0.000110439
0.000112778
0.000113883
0.000113165
0.000111389
0.000111029
0.000113626
0.000111746
0.000108807
0.000105224
0.000101946
9.99205e-05
9.85287e-05
9.7406e-05
9.64009e-05
9.54375e-05
9.44739e-05
9.3465e-05
9.23557e-05
9.10667e-05
8.94644e-05
8.72886e-05
8.39713e-05
7.82029e-05
6.81269e-05
0.000108548
0.00038872
0.00056375
0.000669506
0.00073252
0.000769261
0.000790238
0.000802137
0.000809111
0.00081367
0.000817297
0.000820879
0.000824989
0.000830069
0.000836553
0.000844944
0.000855854
0.00086997
0.000887845
0.000909291
0.000932409
0.000952386
0.000961716
0.000951922
0.00091748
0.000861201
0.000802438
0.000753649
0.000674645
0.000574154
0.000507509
0.000485768
0.000501191
0.000532285
0.000562954
0.000584748
0.000597272
0.000602741
0.00060266
0.000597334
0.000585903
0.000565974
0.000532336
0.000473448
0.000359998
0.000111625
0.000115471
0.000576959
0.000965081
0.00124628
0.00143695
0.00156011
0.00163697
0.00168415
0.00171345
0.00173274
0.00174703
0.00175948
0.00177212
0.00178641
0.00180353
0.00182465
0.00185092
0.00188331
0.00192204
0.00196545
0.00200862
0.00204199
0.00205226
0.00202527
0.00194868
0.00181947
0.00167396
0.00153427
0.00136203
0.00117749
0.00105374
0.00103069
0.00107923
0.00115336
0.00121944
0.00126486
0.00129005
0.00129885
0.00129357
0.00127365
0.0012352
0.00117002
0.00106314
0.000887259
0.000590765
0.000122613
0.000119487
0.000691313
0.00126226
0.00173092
0.00208127
0.00232626
0.00248958
0.00259521
0.00266296
0.00270749
0.0027389
0.00276386
0.00278675
0.00281054
0.00283741
0.00286907
0.00290688
0.00295154
0.00300238
0.00305625
0.00310634
0.00314115
0.00314525
0.00310207
0.00299424
0.00281301
0.00259449
0.00238899
0.00216408
0.00190832
0.00173908
0.00171387
0.00178646
0.00188832
0.00197754
0.00203931
0.00207294
0.00208136
0.00206545
0.0020216
0.0019405
0.00180573
0.0015916
0.00126037
0.000762566
0.000129934
0.00012193
0.000763616
0.00147677
0.0021171
0.00263347
0.00301851
0.00328945
0.00347247
0.00359333
0.00367328
0.00372815
0.003769
0.00380329
0.00383601
0.00387056
0.00390928
0.00395363
0.004004
0.00405907
0.00411498
0.00416449
0.00419631
0.00419561
0.00414592
0.00402861
0.00383282
0.00357638
0.00331316
0.00303624
0.00274933
0.00256289
0.00253032
0.0026021
0.00270767
0.00280302
0.00287028
0.00290527
0.00290746
0.00287382
0.00279545
0.00265572
0.00242932
0.0020827
0.00157784
0.000888718
0.000135232
0.000123496
0.000810634
0.00162897
0.0024129
0.00308334
0.00360995
0.00399759
0.00426939
0.0044538
0.00457724
0.00466096
0.00472069
0.00476739
0.00480847
0.00484882
0.0048916
0.00493856
0.00499004
0.00504461
0.00509853
0.00514518
0.00517468
0.0051741
0.00512861
0.00502048
0.00483728
0.0045679
0.00426018
0.00394203
0.0036463
0.0034626
0.00342131
0.00347765
0.00357052
0.00365837
0.00372082
0.00374933
0.00373838
0.00367926
0.00355616
0.00334432
0.00301066
0.00251849
0.00183965
0.000982462
0.000139448
0.00012456
0.000841942
0.00173582
0.00263283
0.00343531
0.00409247
0.00459457
0.00495798
0.0052107
0.00538222
0.00549828
0.00557896
0.00563879
0.00568779
0.0057326
0.0057774
0.0058245
0.00587455
0.00592648
0.0059772
0.00602131
0.00605073
0.00605479
0.00602068
0.00593229
0.0057753
0.00551469
0.00518879
0.00484761
0.00455421
0.00437688
0.00432557
0.00436101
0.00443317
0.00450498
0.00455478
0.00456994
0.00453951
0.00444834
0.00427317
0.00398139
0.00353412
0.00289613
0.00205542
0.00105634
0.000143343
0.000125327
0.000863292
0.00181047
0.00279275
0.00370189
0.00447131
0.00507729
0.00552774
0.0058478
0.00606812
0.00621758
0.00631993
0.00639306
0.00644958
0.00649794
0.00654353
0.00658945
0.00663694
0.0066856
0.00673327
0.00677594
0.00680735
0.00681892
0.00679988
0.00673612
0.00661232
0.00638045
0.00606122
0.00571576
0.00542968
0.00525656
0.00519411
0.00520776
0.00525659
0.00530813
0.0053404
0.00533746
0.00528333
0.00515664
0.00492711
0.00455534
0.00399852
0.00322527
0.00224116
0.00112294
0.000147768
0.000125911
0.000878239
0.00186264
0.00290716
0.00389857
0.00475928
0.00545382
0.00598155
0.00636345
0.00662979
0.00681133
0.00693468
0.00702058
0.00708402
0.00713525
0.00718094
0.00722508
0.0072697
0.00731519
0.00736046
0.00740285
0.00743775
0.00745849
0.00745627
0.00741944
0.00733358
0.00714475
0.00684868
0.0065124
0.00623654
0.00606553
0.00599169
0.00598474
0.00601057
0.00604067
0.00605336
0.00603026
0.00595131
0.00578991
0.00551001
0.00506692
0.00441494
0.00352592
0.00241915
0.00119748
0.000153786
0.000126381
0.000889007
0.00189932
0.00298816
0.00404067
0.00497227
0.00573845
0.00633096
0.00676631
0.00707336
0.0072838
0.00742624
0.00752369
0.00759323
0.00764675
0.00769213
0.00773431
0.00777616
0.00781894
0.00786263
0.00790581
0.00794538
0.00797631
0.00799174
0.00798265
0.0079373
0.00779864
0.00753277
0.0072132
0.00694965
0.00678025
0.00669599
0.00667063
0.00667533
0.00668491
0.00667832
0.00663574
0.00653417
0.00634337
0.00602338
0.00552603
0.0048036
0.00382852
0.00262539
0.00131061
0.000163125
6.76553e-05
7.86336e-05
8.52202e-05
8.86516e-05
9.03407e-05
9.10836e-05
9.13291e-05
9.13308e-05
9.12263e-05
9.10849e-05
9.09377e-05
9.08469e-05
9.07741e-05
9.07023e-05
9.06318e-05
9.05628e-05
9.04948e-05
9.04274e-05
9.03603e-05
9.02933e-05
9.02263e-05
9.01597e-05
9.00935e-05
9.0028e-05
8.99631e-05
8.9899e-05
8.9835e-05
8.97704e-05
8.97036e-05
8.96314e-05
8.95477e-05
8.94403e-05
8.9285e-05
8.90331e-05
8.85894e-05
8.77683e-05
8.62096e-05
8.32033e-05
7.74946e-05
8.42172e-05
0.000116121
0.000392654
0.000557548
0.000650846
0.000701401
0.000726848
0.000738191
0.000742144
0.000742579
0.000741557
0.000740016
0.00073791
0.00073593
0.000734354
0.000733164
0.000732289
0.000731656
0.000731205
0.000730892
0.000730686
0.000730568
0.000730526
0.000730552
0.000730636
0.000730766
0.000730925
0.000731087
0.000731216
0.000731249
0.000731071
0.000730462
0.000728992
0.000725817
0.00071932
0.000706488
0.00068188
0.000635905
0.000551612
0.000397209
0.000116371
0.000123999
0.000595303
0.000976926
0.00123772
0.001401
0.00149521
0.00154492
0.00156832
0.00157742
0.0015794
0.00157809
0.00157484
0.00157125
0.00156811
0.0015656
0.00156367
0.00156222
0.00156113
0.00156034
0.00155977
0.00155938
0.00155914
0.00155903
0.00155902
0.00155908
0.00155916
0.00155919
0.00155905
0.0015585
0.00155707
0.00155389
0.00154727
0.00153406
0.00150866
0.00146144
0.00137691
0.00123166
0.000993361
0.000623752
0.00012419
0.000128333
0.000719617
0.0012964
0.00174906
0.00206603
0.00226807
0.00238615
0.00244928
0.00247958
0.0024918
0.0024948
0.00249254
0.00248858
0.00248456
0.00248108
0.00247829
0.00247612
0.00247447
0.00247324
0.00247234
0.0024717
0.00247127
0.00247101
0.00247087
0.0024708
0.00247068
0.00247035
0.00246949
0.00246749
0.00246318
0.00245433
0.00243693
0.00240392
0.00234355
0.00223753
0.00205953
0.00177602
0.00135295
0.000775046
0.000128897
0.000130963
0.000795366
0.00152795
0.00216678
0.00265589
0.00299293
0.00320499
0.00332767
0.00339279
0.00342389
0.00343626
0.00343813
0.00343561
0.00343177
0.00342796
0.00342468
0.00342204
0.00341999
0.00341844
0.0034173
0.00341648
0.00341591
0.00341553
0.00341525
0.00341498
0.00341452
0.00341352
0.00341132
0.00340664
0.00339713
0.00337849
0.00334327
0.00327915
0.00316709
0.00297993
0.00268312
0.00224062
0.00163054
0.000875435
0.00013178
0.000132784
0.000839987
0.00168891
0.00249255
0.00315339
0.00363753
0.00395951
0.00415637
0.00426764
0.00432549
0.0043523
0.00436155
0.0043625
0.00436009
0.00435671
0.00435342
0.00435063
0.00434839
0.00434668
0.0043454
0.00434447
0.00434381
0.00434332
0.0043429
0.00434236
0.00434136
0.00433927
0.00433492
0.00432608
0.0043087
0.00427574
0.00421551
0.00410977
0.00393216
0.00364828
0.00321979
0.00261592
0.00183592
0.000941312
0.000133555
0.00013465
0.000864242
0.00179738
0.00274091
0.00356133
0.00419077
0.00462678
0.00490415
0.00506783
0.00515756
0.00520247
0.0052217
0.00522786
0.00522801
0.00522581
0.00522302
0.00522039
0.00521819
0.00521646
0.00521515
0.00521418
0.00521347
0.00521289
0.00521228
0.00521136
0.00520959
0.00520597
0.00519861
0.00518407
0.00515626
0.00510492
0.00501378
0.0048587
0.004607
0.00421969
0.00365923
0.00290579
0.0019827
0.000983963
0.00013465
0.00013831
0.0008744
0.0018712
0.00293542
0.00389817
0.00465986
0.00520219
0.0055569
0.00577265
0.00589539
0.00595963
0.0059901
0.00600252
0.00600602
0.00600556
0.00600365
0.00600147
0.00599949
0.00599788
0.00599663
0.00599568
0.00599494
0.00599426
0.00599343
0.00599202
0.00598925
0.00598367
0.00597256
0.00595105
0.00591081
0.00583822
0.0057125
0.00550425
0.00517608
0.00468716
0.00400433
0.00312147
0.00208459
0.00101114
0.000135326
0.000147132
0.000872537
0.00193347
0.00311044
0.00419513
0.00506564
0.0056953
0.00611482
0.00637555
0.00652756
0.00660999
0.00665143
0.00667022
0.00667734
0.0066789
0.00667811
0.00667654
0.00667492
0.00667351
0.00667238
0.00667149
0.00667074
0.00666996
0.00666886
0.00666687
0.00666293
0.00665507
0.00663967
0.00661039
0.0065566
0.00646146
0.0063001
0.00603888
0.00563736
0.00505518
0.00426574
0.00327689
0.00215352
0.00102815
0.000135743
0.000163087
0.000885702
0.00203952
0.0033216
0.00449478
0.005437
0.00612407
0.00658777
0.00688075
0.0070545
0.00715132
0.00720189
0.00722628
0.00723673
0.00724025
0.00724061
0.00723973
0.00723853
0.00723737
0.00723639
0.00723557
0.00723481
0.00723393
0.00723252
0.00722989
0.00722468
0.00721437
0.00719446
0.00715716
0.00708968
0.00697226
0.00677663
0.00646594
0.00599825
0.00533523
0.00445758
0.00338578
0.00219905
0.00103858
0.000136003
0.000126776
0.000897056
0.00192563
0.00304571
0.00414259
0.00512754
0.00594958
0.00659421
0.0070737
0.00741512
0.0076503
0.00780921
0.0079166
0.00799126
0.00804648
0.00809129
0.00813154
0.00817092
0.00821159
0.00825454
0.00829954
0.00834479
0.0083867
0.0084202
0.00843894
0.00843504
0.00834795
0.00811231
0.00781217
0.00756215
0.00739497
0.00730191
0.00726069
0.00724681
0.00723796
0.00721407
0.00715473
0.00703541
0.006824
0.00647891
0.00595102
0.00519267
0.004178
0.00293916
0.00161191
0.000391323
0.000127123
0.000903305
0.00194492
0.00308678
0.00421497
0.00523863
0.0061024
0.00678704
0.0073012
0.00767011
0.00792535
0.00809767
0.00821311
0.00829177
0.00834815
0.00839223
0.00843071
0.00846809
0.00850737
0.0085505
0.00859832
0.00865015
0.00870364
0.00875522
0.00880115
0.00883784
0.00879896
0.00858871
0.0083069
0.00807
0.00790557
0.00780554
0.0077512
0.00772176
0.0076975
0.0076596
0.0075879
0.00745773
0.00723704
0.00688507
0.00635475
0.00560166
0.00460383
0.00339613
0.00211301
0.00097299
0.000127436
0.000908346
0.00195949
0.00311637
0.00426603
0.00531665
0.00621017
0.00692398
0.00746391
0.00785356
0.00812406
0.00830661
0.00842811
0.00850965
0.00856667
0.00860996
0.00864696
0.00868288
0.00872152
0.0087657
0.00881718
0.00887621
0.00894141
0.00901048
0.009082
0.00915652
0.00915915
0.00896762
0.00870123
0.00847585
0.00831422
0.00820883
0.00814405
0.00810223
0.00806602
0.0080181
0.00793927
0.00780595
0.00758789
0.00724741
0.0067422
0.00603398
0.00510677
0.00399672
0.00282864
0.00182565
0.000127724
0.000912592
0.00197096
0.00313828
0.00430237
0.00537115
0.00628497
0.00701903
0.00757713
0.00798156
0.00826301
0.00845285
0.00857857
0.00866198
0.00871922
0.00876173
0.00879758
0.0088326
0.00887129
0.00891724
0.00897297
0.00903949
0.0091161
0.00920149
0.00929627
0.0094045
0.00944038
0.00926087
0.00900648
0.00879034
0.00863105
0.00852154
0.00844866
0.00839748
0.00835276
0.0082988
0.00821797
0.00808869
0.00788379
0.00757032
0.00711246
0.00647972
0.00566275
0.00469767
0.00369381
0.00285262
0.000127993
0.00091631
0.00198041
0.00315515
0.00432885
0.00540945
0.00633653
0.00708393
0.00765411
0.00806843
0.00835718
0.00855181
0.00868021
0.00876465
0.00882179
0.00886359
0.00889861
0.00893323
0.00897255
0.00902079
0.0090811
0.00915503
0.00924235
0.00934248
0.00945765
0.00959464
0.00965509
0.00948191
0.00923637
0.00902717
0.00886949
0.00875671
0.00867772
0.00861981
0.00856964
0.00851318
0.00843468
0.00831515
0.00813126
0.00785556
0.00745936
0.00692003
0.00623399
0.00543537
0.00461576
0.00393556
0.000128248
0.000919671
0.00198856
0.00316877
0.00434886
0.00543692
0.00637221
0.00712787
0.00770552
0.00812594
0.00841914
0.0086166
0.00874643
0.00883126
0.0088881
0.00892928
0.00896378
0.00899841
0.00903878
0.00908961
0.00915457
0.00923556
0.00933263
0.00944566
0.00957813
0.00973863
0.00981538
0.00964423
0.00940505
0.00920078
0.00904398
0.00892853
0.00884503
0.00878255
0.00872942
0.00867324
0.00860022
0.0084942
0.0083359
0.0081034
0.00777484
0.00733441
0.00678255
0.00614938
0.00550713
0.00497205
0.000128491
0.000922787
0.00199586
0.00318032
0.00436473
0.00545735
0.00639741
0.00715773
0.00773955
0.00816329
0.00845881
0.00865763
0.00878799
0.00887274
0.00892914
0.00896981
0.00900404
0.00903899
0.00908067
0.00913425
0.00920372
0.00929124
0.00939698
0.00952103
0.0096678
0.0098467
0.00993237
0.00976038
0.00952575
0.00932484
0.00916831
0.00905067
0.0089639
0.00889855
0.00884432
0.0087903
0.00872465
0.0086339
0.00850263
0.00831398
0.00805193
0.00770605
0.00727897
0.00679544
0.00630924
0.00590016
0.000128724
0.000925732
0.0020026
0.00319055
0.00437798
0.00547331
0.00641587
0.00717843
0.00776212
0.00818724
0.0084836
0.00868274
0.00881299
0.00889735
0.00895326
0.00899353
0.00902767
0.00906315
0.00910631
0.00916262
0.00923636
0.00932981
0.00944313
0.00957648
0.00973485
0.00992752
0.0100158
0.00984138
0.00961006
0.00941138
0.00925471
0.00913526
0.00904616
0.00897915
0.00892508
0.00887431
0.00881673
0.00874132
0.00863603
0.00848823
0.00828659
0.00802454
0.00770548
0.00734852
0.00699183
0.00668853
0.000128947
0.000928554
0.00200896
0.00319992
0.0043896
0.00548648
0.00643009
0.00719334
0.0077774
0.00820261
0.0084988
0.00869756
0.00882729
0.00891108
0.00896647
0.00900642
0.00904062
0.00907677
0.00912145
0.00918041
0.00925813
0.00935692
0.00947685
0.00961802
0.00978579
0.00998813
0.0100738
0.00989637
0.00966761
0.00947038
0.00931332
0.00919238
0.00910166
0.00903383
0.00898063
0.00893353
0.00888385
0.00882262
0.00874054
0.00862836
0.00847824
0.00828619
0.00805549
0.00780017
0.00754624
0.00732837
0.000129161
0.000931286
0.00201506
0.00320875
0.00440018
0.00549793
0.00644172
0.00720468
0.00778816
0.00821264
0.00850802
0.00870596
0.00883492
0.00891803
0.00897291
0.00901261
0.00904697
0.00908386
0.00913008
0.00919157
0.00927295
0.00937654
0.00950228
0.00965012
0.00982562
0.0100341
0.0101129
0.00993266
0.00970604
0.00950979
0.00935221
0.00923004
0.00913818
0.00907003
0.00901806
0.00897455
0.008932
0.00888305
0.00882055
0.00873776
0.00862932
0.00849284
0.00833108
0.00815385
0.0079784
0.00782676
0.000129368
0.000933948
0.00202096
0.00321719
0.00441011
0.00550832
0.00645177
0.00721386
0.0077962
0.00821944
0.00851363
0.0087105
0.00883854
0.00892093
0.00897532
0.00901485
0.00904943
0.0090871
0.0091348
0.00919868
0.00928345
0.0093914
0.00952231
0.00967597
0.00985809
0.0100696
0.0101382
0.00995591
0.00973124
0.00953564
0.00937749
0.00925428
0.00916161
0.00909343
0.00904274
0.00900246
0.00896596
0.00892711
0.00888031
0.00882063
0.0087444
0.00865016
0.00853995
0.00842037
0.00830265
0.00820044
0.000129567
0.000936552
0.00202671
0.00322536
0.0044196
0.00551805
0.00646086
0.00722177
0.00780265
0.00822437
0.00851716
0.00871281
0.00883987
0.00892153
0.00897547
0.00901486
0.00904971
0.00908816
0.00913731
0.00920344
0.00929134
0.00940328
0.00953889
0.00969782
0.00988592
0.0100981
0.0101543
0.00997054
0.0097476
0.00955241
0.00939364
0.00926953
0.00917624
0.00910815
0.00905863
0.00902107
0.00898946
0.00895853
0.0089238
0.00888157
0.00882923
0.00876583
0.00869275
0.00861428
0.00853739
0.00847061
0.000129758
0.000939103
0.00203232
0.00323331
0.00442878
0.00552734
0.00646938
0.00722892
0.00780817
0.00822825
0.00851952
0.00871389
0.00883995
0.00892089
0.00897441
0.00901371
0.00904885
0.00908808
0.00913862
0.00920687
0.00929769
0.00941333
0.00955328
0.00971712
0.00991096
0.010122
0.0101641
0.00997967
0.00975825
0.00956327
0.00940385
0.00927892
0.00918511
0.00911713
0.00906859
0.0090332
0.00900537
0.00898043
0.00895463
0.00892506
0.0088898
0.00884811
0.00880086
0.00875067
0.00870181
0.00865939
0.000129942
0.000941605
0.00203781
0.00324108
0.00443772
0.00553633
0.00647752
0.00723564
0.00781319
0.00823155
0.00852127
0.00871436
0.00883942
0.00891967
0.0089728
0.00901203
0.00904748
0.00908748
0.00913936
0.00920961
0.00930318
0.00942227
0.00956628
0.00973476
0.00993421
0.0101424
0.0101701
0.00998535
0.00976529
0.00957039
0.0094103
0.00928459
0.00919031
0.00912238
0.00907462
0.00904088
0.00901587
0.00899529
0.00897587
0.00895519
0.00893171
0.00890482
0.00887494
0.0088436
0.0088133
0.00878704
0.000130118
0.000944056
0.00204318
0.00324867
0.00444645
0.00554509
0.00648542
0.00724208
0.00781791
0.00823455
0.00852273
0.00871454
0.00883863
0.00891822
0.00897099
0.00901018
0.00904595
0.0090867
0.00913986
0.00921203
0.00930818
0.00943051
0.00957834
0.00975124
0.00995603
0.0101608
0.0101744
0.00998911
0.00977015
0.00957522
0.00941444
0.00928797
0.00919322
0.00912529
0.00907808
0.00904556
0.00902258
0.00900509
0.00899007
0.00897544
0.00895985
0.0089427
0.00892413
0.00890495
0.00888655
0.00887063
0.000130288
0.000946458
0.00204843
0.00325611
0.004455
0.00555367
0.00649313
0.00724835
0.00782248
0.00823742
0.00852408
0.00871463
0.00883779
0.00891674
0.00896919
0.00900836
0.00904446
0.00908594
0.00914034
0.00921432
0.00931292
0.00943832
0.00958977
0.00976691
0.009977
0.0101782
0.0101782
0.0099921
0.00977387
0.00957875
0.00941723
0.00929
0.00919476
0.00912675
0.00907991
0.00904825
0.0090267
0.00901132
0.00899928
0.00898863
0.00897815
0.00896724
0.0089558
0.00894422
0.0089332
0.00892366
0.00013045
0.000948811
0.00205358
0.00326339
0.00446337
0.00556207
0.00650069
0.0072545
0.00782696
0.00824023
0.0085254
0.00871474
0.00883699
0.00891535
0.00896749
0.00900666
0.00904309
0.0090853
0.00914089
0.00921661
0.00931755
0.00944586
0.00960075
0.00978197
0.00999733
0.0101953
0.0101827
0.00999514
0.00977714
0.00958162
0.00941929
0.00929127
0.00919551
0.00912735
0.00908073
0.00904967
0.00902909
0.00901513
0.00900503
0.00899693
0.00898967
0.00898262
0.00897555
0.00896856
0.00896196
0.00895622
0.000130605
0.000951116
0.00205861
0.00327052
0.00447158
0.00557031
0.00650811
0.00726054
0.00783138
0.00824302
0.00852675
0.00871492
0.0088363
0.00891408
0.00896595
0.00900514
0.0090419
0.00908482
0.00914157
0.00921897
0.00932215
0.00945322
0.00961138
0.00979648
0.0100168
0.0102121
0.0101884
0.00999866
0.00978038
0.00958423
0.009421
0.00929215
0.00919585
0.00912747
0.00908096
0.00905028
0.00903036
0.00901732
0.00900846
0.00900196
0.00899667
0.00899194
0.00898745
0.00898315
0.0089791
0.00897553
0.000130753
0.000953377
0.00206354
0.0032775
0.00447963
0.0055784
0.00651541
0.0072665
0.00783575
0.00824582
0.00852814
0.00871518
0.00883572
0.00891297
0.00896458
0.0090038
0.00904091
0.00908453
0.00914241
0.00922144
0.00932677
0.0094605
0.00962177
0.00981056
0.0100356
0.010229
0.0101955
0.0100029
0.00978385
0.00958685
0.00942261
0.00929288
0.00919599
0.00912736
0.00908087
0.00905043
0.00903093
0.0090185
0.00901041
0.00900487
0.00900074
0.00899736
0.00899434
0.00899154
0.00898891
0.00898652
0.000130894
0.000955594
0.00206836
0.00328434
0.00448751
0.00558633
0.00652258
0.00727238
0.00784009
0.00824863
0.00852959
0.00871553
0.00883528
0.00891201
0.00896339
0.00900266
0.00904013
0.00908445
0.00914344
0.00922406
0.00933146
0.00946775
0.00963202
0.00982437
0.010054
0.0102462
0.0102038
0.010008
0.00978776
0.00958964
0.00942427
0.0092936
0.00919609
0.00912716
0.00908063
0.00905034
0.00903111
0.00901905
0.00901143
0.00900646
0.009003
0.00900035
0.00899814
0.00899614
0.00899425
0.00899245
0.000131029
0.000957766
0.00207308
0.00329102
0.00449523
0.00559411
0.00652963
0.00727817
0.00784439
0.00825144
0.0085311
0.00871599
0.00883496
0.00891122
0.00896239
0.00900172
0.00903955
0.00908457
0.00914467
0.00922684
0.00933628
0.00947505
0.00964222
0.00983805
0.0100722
0.0102638
0.0102133
0.0100141
0.0097922
0.00959271
0.00942608
0.00929441
0.00919624
0.00912699
0.00908037
0.00905015
0.00903109
0.00901927
0.00901192
0.00900727
0.00900416
0.0090019
0.00900009
0.00899849
0.00899695
0.00899542
0.000131157
0.000959892
0.00207768
0.00329756
0.00450279
0.00560174
0.00653655
0.00728387
0.00784865
0.00825427
0.00853266
0.00871653
0.00883477
0.00891057
0.00896156
0.00900098
0.00903918
0.00908491
0.00914611
0.00922983
0.00934128
0.00948247
0.00965247
0.00985171
0.0100904
0.0102817
0.0102238
0.0100211
0.00979721
0.00959611
0.00942809
0.00929535
0.00919651
0.0091269
0.00908017
0.00904998
0.00903103
0.00901933
0.00901214
0.00900765
0.0090047
0.00900262
0.00900099
0.00899954
0.00899814
0.00899671
0.000131278
0.000961971
0.00208218
0.00330395
0.00451018
0.00560922
0.00654335
0.0072895
0.00785288
0.00825711
0.00853427
0.00871716
0.0088347
0.00891008
0.0089609
0.00900043
0.00903903
0.00908549
0.00914781
0.00923308
0.00934652
0.0094901
0.00966288
0.00986549
0.0101088
0.0102999
0.0102352
0.0100288
0.00980278
0.00959989
0.00943036
0.0092965
0.00919694
0.00912697
0.00908011
0.00904991
0.009031
0.00901938
0.00901226
0.00900783
0.00900494
0.00900291
0.00900132
0.00899991
0.00899852
0.00899708
0.000131393
0.000964004
0.00208657
0.00331019
0.00451741
0.00561654
0.00655002
0.00729504
0.00785707
0.00825995
0.00853593
0.00871789
0.00883476
0.00890974
0.00896043
0.00900009
0.00903911
0.00908633
0.00914979
0.00923664
0.00935207
0.00949804
0.00967357
0.0098795
0.0101273
0.0103185
0.0102474
0.0100374
0.00980894
0.00960409
0.00943294
0.0092979
0.0091976
0.00912724
0.00908022
0.00904999
0.0090311
0.0090195
0.00901239
0.00900796
0.00900506
0.009003
0.00900137
0.00899992
0.00899849
0.008997
0.000131501
0.000965993
0.00209086
0.00331628
0.00452448
0.00562371
0.00655657
0.00730049
0.00786122
0.00826281
0.00853764
0.0087187
0.00883494
0.00890955
0.00896014
0.00899997
0.00903945
0.00908747
0.00915212
0.00924058
0.00935804
0.0095064
0.00968468
0.00989393
0.0101462
0.0103376
0.0102605
0.0100468
0.00981571
0.00960875
0.00943589
0.0092996
0.00919853
0.00912777
0.00908058
0.00905029
0.00903138
0.00901976
0.00901262
0.00900814
0.00900517
0.00900304
0.00900133
0.0089998
0.00899828
0.00899671
0.000131602
0.000967939
0.00209505
0.00332223
0.00453139
0.00563073
0.00656299
0.00730586
0.00786533
0.00826567
0.00853941
0.00871961
0.00883526
0.00890954
0.00896007
0.0090001
0.0090401
0.00908897
0.00915488
0.00924501
0.00936456
0.00951536
0.0096964
0.00990897
0.0101657
0.0103575
0.0102746
0.010057
0.00982318
0.00961394
0.00943927
0.00930168
0.0091998
0.00912862
0.00908123
0.00905086
0.0090319
0.00902023
0.00901301
0.00900843
0.00900536
0.00900312
0.00900129
0.00899965
0.00899802
0.00899636
0.000131698
0.000969841
0.00209912
0.00332803
0.00453813
0.00563758
0.00656928
0.00731114
0.00786941
0.00826855
0.00854125
0.00872064
0.00883573
0.00890973
0.00896024
0.00900054
0.00904111
0.00909092
0.00915816
0.00925007
0.0093718
0.0095251
0.00970895
0.0099249
0.0101862
0.0103785
0.01029
0.0100683
0.00983146
0.00961978
0.00944318
0.00930422
0.00920151
0.00912987
0.00908226
0.00905177
0.00903272
0.00902094
0.00901361
0.00900889
0.00900567
0.00900328
0.00900131
0.00899953
0.00899778
0.008996
0.000131786
0.000971696
0.00210309
0.00333366
0.00454468
0.00564426
0.00657543
0.00731634
0.00787346
0.00827147
0.00854319
0.00872181
0.00883641
0.00891018
0.00896073
0.00900137
0.00904259
0.00909344
0.00916215
0.00925596
0.00937999
0.00953589
0.00972263
0.00994201
0.010208
0.0104009
0.0103068
0.0100808
0.00984069
0.0096264
0.00944775
0.00930735
0.00920374
0.00913162
0.00908375
0.00905309
0.00903389
0.00902196
0.00901445
0.00900955
0.00900614
0.00900356
0.00900141
0.00899947
0.00899758
0.00899568
0.000131868
0.000973502
0.00210692
0.00333911
0.00455103
0.00565075
0.00658144
0.00732145
0.0078775
0.00827445
0.00854525
0.00872318
0.00883735
0.00891096
0.00896164
0.0090027
0.0090447
0.00909672
0.00916704
0.00926292
0.0093894
0.00954804
0.00973776
0.00996069
0.0102314
0.0104252
0.0103254
0.0100948
0.00985106
0.00963393
0.00945311
0.00931119
0.00920664
0.00913398
0.00908579
0.0090549
0.00903549
0.00902333
0.00901558
0.00901043
0.00900678
0.00900397
0.00900161
0.00899948
0.00899743
0.0089954
0.000131943
0.000975253
0.00211061
0.00334434
0.00455713
0.00565702
0.00658728
0.00732649
0.00788156
0.00827754
0.00854751
0.00872484
0.00883866
0.00891221
0.00896312
0.00900475
0.00904767
0.00910103
0.00917315
0.00927129
0.00940041
0.00956192
0.00975476
0.00998136
0.010257
0.0104517
0.0103462
0.0101104
0.00986272
0.00964255
0.00945943
0.00931591
0.00921036
0.0091371
0.00908853
0.00905732
0.00903759
0.00902511
0.00901704
0.00901158
0.00900762
0.00900453
0.00900192
0.00899957
0.00899733
0.00899515
0.000132011
0.000976925
0.0021141
0.00334927
0.00456291
0.00566301
0.00659294
0.00733146
0.00788567
0.00828081
0.00855007
0.00872691
0.00884051
0.00891413
0.00896543
0.00900778
0.00905183
0.00910675
0.00918091
0.00928154
0.00941348
0.00957801
0.00977404
0.0100044
0.0102854
0.0104812
0.0103694
0.0101279
0.00987579
0.00965238
0.00946686
0.00932168
0.00921509
0.00914116
0.0090921
0.00906046
0.0090403
0.00902739
0.00901888
0.00901301
0.00900868
0.00900525
0.00900235
0.00899973
0.00899727
0.00899493
0.000132068
0.000978456
0.00211725
0.00335376
0.00456824
0.00566864
0.00659839
0.00733639
0.00788992
0.00828437
0.00855309
0.0087296
0.00884315
0.00891703
0.00896892
0.00901223
0.00905765
0.00911441
0.00919088
0.00929424
0.0094292
0.00959681
0.00979605
0.0100303
0.0103168
0.0105139
0.0103953
0.0101471
0.00989022
0.00966344
0.0094755
0.00932868
0.00922102
0.00914636
0.00909669
0.00906446
0.00904372
0.00903022
0.00902116
0.00901477
0.00900997
0.00900614
0.00900288
0.00899997
0.00899726
0.00899474
0.000132114
0.000979712
0.00211986
0.00335759
0.00457297
0.00567383
0.00660363
0.00734135
0.00789443
0.00828843
0.00855681
0.00873322
0.00884695
0.00892134
0.00897411
0.0090187
0.00906582
0.00912474
0.00920382
0.00931015
0.00944826
0.00961888
0.0098212
0.0100593
0.0103515
0.0105499
0.0104233
0.0101676
0.00990556
0.00967549
0.00948534
0.00933703
0.00922836
0.00915291
0.0091025
0.0090695
0.00904797
0.00903369
0.00902391
0.00901688
0.00901153
0.00900722
0.00900355
0.0090003
0.00899729
0.00899457
0.000132146
0.00098046
0.00212161
0.00336049
0.00457693
0.00567854
0.00660872
0.00734648
0.00789942
0.00829324
0.00856157
0.00873817
0.00885241
0.00892767
0.0089817
0.00902797
0.00907723
0.00913871
0.00922072
0.0093302
0.00947116
0.00964445
0.00984935
0.0100908
0.0103888
0.010588
0.0104517
0.0101874
0.00992024
0.00968755
0.0094959
0.00934665
0.00923725
0.00916105
0.00910974
0.00907574
0.00905317
0.0090379
0.00902722
0.00901941
0.0090134
0.00900854
0.00900444
0.00900083
0.00899754
0.00899465
0.000132163
0.000980452
0.0021222
0.00336227
0.00458005
0.00568283
0.00661382
0.00735204
0.0079052
0.0082992
0.00856785
0.00874503
0.00886021
0.00893681
0.00899262
0.00904112
0.00909302
0.00915749
0.00924268
0.00935522
0.00949895
0.00967448
0.00988119
0.0101252
0.0104283
0.0106267
0.0104781
0.0102039
0.00993242
0.00969854
0.0095067
0.00935743
0.0092478
0.00917095
0.0091186
0.00908332
0.00905942
0.0090429
0.0090311
0.00902235
0.00901557
0.0090101
0.00900552
0.00900156
0.00899804
0.00899491
0.000132185
0.00097973
0.00212171
0.00336302
0.00458256
0.00568704
0.00661936
0.00735849
0.00791228
0.00830687
0.00857626
0.00875451
0.00887116
0.00894972
0.00900798
0.0090594
0.0091146
0.00918261
0.0092713
0.00938696
0.00953315
0.00971015
0.00991761
0.0101628
0.0104694
0.0106634
0.0104985
0.0102138
0.00994016
0.00970751
0.00951748
0.00936951
0.00926023
0.00918277
0.00912913
0.00909223
0.00906666
0.00904859
0.00903545
0.0090256
0.00901794
0.00901179
0.0090067
0.00900235
0.00899855
0.0089952
0.000132282
0.000978939
0.00212048
0.00336306
0.0045849
0.00569179
0.00662604
0.00736655
0.00792139
0.00831697
0.00858757
0.00876743
0.00888623
0.0089675
0.00902905
0.00908425
0.00914356
0.00921575
0.00930828
0.009427
0.00957505
0.00975248
0.00995923
0.0102035
0.0105104
0.010692
0.0105054
0.0102121
0.00994051
0.00971314
0.00952777
0.00938274
0.00927446
0.00919642
0.00914121
0.00910232
0.00907472
0.00905481
0.00904014
0.00902903
0.0090204
0.00901351
0.00900786
0.00900312
0.00899903
0.00899544
0.000132568
0.000975786
0.00211618
0.00336141
0.00458714
0.00569777
0.00663479
0.00737717
0.00793341
0.00833035
0.00860264
0.00878473
0.00890643
0.00899132
0.00905715
0.00911714
0.00918151
0.00925858
0.00935529
0.00947689
0.00962606
0.0098027
0.010007
0.0102474
0.0105494
0.010702
0.0104886
0.0101929
0.00993143
0.0097148
0.00953732
0.00939687
0.00929018
0.00921152
0.00915444
0.0091132
0.00908328
0.00906131
0.00904493
0.00903248
0.00902282
0.00901516
0.00900895
0.00900379
0.0089994
0.0089956
0.000132511
0.000961763
0.00210169
0.00335406
0.0045884
0.00570564
0.00664673
0.00739148
0.00794938
0.00834797
0.00862238
0.00880734
0.00893279
0.0090223
0.00909354
0.00915949
0.00922997
0.00931273
0.00941401
0.00953836
0.00968795
0.00986256
0.0100623
0.0102953
0.0105853
0.0106833
0.0104394
0.0101545
0.00991352
0.00971305
0.00954616
0.00941149
0.00930668
0.00922727
0.00916807
0.00912424
0.00909181
0.00906767
0.00904954
0.00903573
0.00902504
0.00901661
0.00900985
0.0090043
0.00899964
0.00899564
0.000132497
0.000921641
0.00207223
0.00334277
0.00459148
0.00571739
0.0066632
0.00741066
0.0079704
0.0083708
0.00864767
0.0088361
0.00896615
0.00906136
0.00913922
0.00921241
0.00929025
0.00937976
0.00948634
0.00961373
0.0097636