/*--------------------------------*- C++ -*----------------------------------*\
  =========                 |
  \\      /  F ield         | OpenFOAM: The Open Source CFD Toolbox
   \\    /   O peration     | Website:  https://openfoam.org
    \\  /    A nd           | Version:  9
     \\/     M anipulation  |
\*---------------------------------------------------------------------------*/
FoamFile
{
    format      ascii;
    class       volScalarField;
    location    "0.05";
    object      p_rgh;
}
// * * * * * * * * * * * * * * * * * * * * * * * * * * * * * * * * * * * * * //

dimensions      [1 -1 -2 0 0 0 0];

internalField   nonuniform List<scalar> 
7700
(
1259.52
1260.02
1258.41
1253.83
1245.73
1233.92
1218.47
1199.5
1177.17
1151.59
1122.79
1090.8
1055.53
1016.87
974.614
928.461
877.997
822.638
761.547
693.638
617.358
530.755
434.031
328.556
216.265
114.284
51.0191
16.0749
4.90958
3.65916
3.0392
2.7252
2.58174
2.48828
2.41175
2.34664
2.28995
2.24011
2.19672
2.15972
2.12922
2.10535
2.08812
2.0773
2.07237
2.07217
1259.08
1259.28
1257.09
1251.89
1243.38
1231.37
1215.81
1196.79
1174.4
1148.74
1119.84
1087.7
1052.25
1013.35
970.791
924.247
873.27
817.225
755.216
686.072
608.046
519.292
420.177
310.157
189.616
80.8869
16.4658
3.12306
2.77409
2.80281
2.77944
2.64916
2.56326
2.48473
2.41189
2.34783
2.29124
2.24128
2.19774
2.1606
2.13
2.10605
2.08866
2.07748
2.07219
2.0719
1259.47
1259.61
1256.93
1250.98
1241.84
1229.39
1213.55
1194.33
1171.78
1145.96
1116.9
1084.56
1048.87
1009.67
966.747
919.743
868.173
811.359
748.362
677.971
598.478
508.544
408.587
294.884
166.765
46.6327
4.48508
3.22284
2.80019
2.611
2.58867
2.57935
2.53296
2.46809
2.40327
2.3429
2.28785
2.23849
2.19504
2.1577
2.1267
2.1022
2.08413
2.0723
2.06709
2.06757
1260.94
1261.31
1258.64
1252.3
1242.61
1229.66
1213.41
1193.86
1171.04
1144.99
1115.7
1083.15
1047.23
1007.8
964.598
917.276
865.333
808.094
744.658
673.897
594.431
505.465
407.06
293.593
148.395
22.5342
4.29321
3.02588
2.69956
2.59892
2.56769
2.54542
2.50327
2.44763
2.38918
2.33237
2.27919
2.23065
2.18733
2.1496
2.11782
2.0923
2.07317
2.06071
2.05617
2.05804
1263.7
1264.31
1261.91
1255.58
1245.63
1232.31
1215.68
1195.79
1172.67
1146.36
1116.86
1084.12
1048.05
1008.49
965.184
917.782
865.81
808.641
745.478
675.382
597.383
511.167
416.484
308.647
127.911
10.8296
3.92963
2.92431
2.67102
2.59175
2.55477
2.52163
2.47794
2.42598
2.37122
2.31708
2.26554
2.21776
2.17446
2.13614
2.10332
2.07649
2.05611
2.04307
2.03931
2.0424
1267.89
1268.66
1266.58
1260.5
1250.58
1237.12
1220.26
1200.11
1176.76
1150.24
1120.59
1087.74
1051.63
1012.08
968.866
921.65
870.004
813.386
751.136
682.548
607.053
524.748
435.145
329.264
109.937
6.98063
3.58099
2.84511
2.66339
2.59072
2.5432
2.50073
2.45402
2.4029
2.35004
2.29767
2.24737
2.20016
2.15673
2.11767
2.08363
2.05528
2.03342
2.01954
2.01605
2.01964
1273.59
1274.44
1272.67
1266.94
1257.27
1243.89
1226.99
1206.74
1183.27
1156.66
1126.95
1094.12
1058.1
1018.74
975.815
929.044
878.054
822.396
761.562
695.076
622.714
544.884
460.837
348.472
94.4748
6.02588
3.31235
2.78394
2.65341
2.58243
2.52752
2.47867
2.42911
2.37777
2.3258
2.27454
2.2251
2.17825
2.13459
2.09469
2.05926
2.02915
2.00539
1.98993
1.9857
1.98838
1280.82
1281.71
1280.2
1274.88
1265.58
1252.46
1235.72
1215.54
1192.1
1165.54
1135.92
1103.24
1067.46
1028.45
986.029
939.94
889.883
835.506
776.443
712.418
643.473
570.191
491.476
368.645
82.045
5.23359
3.1138
2.73283
2.63357
2.56416
2.50577
2.45328
2.40174
2.34999
2.29848
2.24796
2.19914
2.15253
2.10856
2.06776
2.03083
1.99863
1.97224
1.95387
1.94737
1.94605
1289.56
1290.47
1289.19
1284.28
1275.43
1262.71
1246.28
1226.34
1203.1
1176.74
1147.35
1114.97
1079.59
1041.11
999.364
954.16
905.258
852.393
795.323
733.928
668.426
599.445
525.435
388.481
71.9787
4.66172
2.96496
2.68529
2.60464
2.53717
2.47784
2.42371
2.37113
2.31921
2.2681
2.21822
2.16992
2.1235
2.07923
2.03754
1.99902
1.96436
1.93437
1.91109
1.89988
1.88633
1299.79
1300.71
1299.63
1295.12
1286.76
1274.52
1258.52
1238.96
1216.07
1190.05
1161.04
1129.11
1094.28
1056.47
1015.56
971.405
923.82
872.62
817.656
758.921
696.732
631.654
561.627
408.054
63.7556
4.23663
2.84865
2.63809
2.5684
2.50313
2.44434
2.38989
2.33712
2.28544
2.23489
2.18567
2.13792
2.09174
2.04726
2.00477
1.96465
1.92724
1.89266
1.86202
1.83968
1.79819
1.10832
1.10829
1.10642
1.10226
1.09583
1.08747
1.0776
1.06662
1.05488
1.04268
1.03022
1.01769
1.0052
0.992847
0.980707
0.968834
0.957272
0.946057
0.935222
0.9248
0.914819
0.905304
0.896277
0.887752
0.87974
0.872243
0.865264
0.8588
0.852851
0.847418
0.842505
0.838124
0.834292
0.83103
0.828365
0.826319
0.8249
0.824081
0.823775
0.823833
1.10819
1.108
1.10588
1.10154
1.09513
1.08688
1.07716
1.06633
1.05472
1.04262
1.03025
1.01777
1.00533
0.993016
0.980906
0.969055
0.957507
0.9463
0.93547
0.925049
0.915067
0.905551
0.896522
0.887997
0.879984
0.872489
0.865511
0.859048
0.8531
0.847668
0.842757
0.838378
0.834548
0.831287
0.828619
0.82656
0.825108
0.82423
0.823862
0.823881
1.10879
1.10867
1.10632
1.10164
1.09502
1.08672
1.07703
1.06626
1.05472
1.04268
1.03035
1.01791
1.00549
0.993194
0.981098
0.969256
0.957715
0.946511
0.935679
0.925253
0.915265
0.905742
0.896707
0.888177
0.880161
0.872664
0.865684
0.859221
0.853272
0.847839
0.842925
0.838541
0.834702
0.831428
0.828736
0.826637
0.825119
0.824159
0.823746
0.823762
1.11034
1.11061
1.10828
1.10324
1.0962
1.08757
1.07765
1.06672
1.05507
1.04294
1.03055
1.01805
1.00559
0.993259
0.981139
0.969282
0.957729
0.946515
0.935674
0.925238
0.915237
0.905701
0.896653
0.888111
0.880086
0.87258
0.865595
0.859126
0.853171
0.847729
0.842803
0.838403
0.834541
0.831233
0.828497
0.826339
0.824755
0.823749
0.823355
0.823419
1.11292
1.11383
1.11172
1.10635
1.09873
1.08951
1.07908
1.06775
1.05579
1.04341
1.03082
1.01816
1.00557
0.993146
0.98096
0.969057
0.957476
0.946243
0.935387
0.924936
0.91492
0.905366
0.896299
0.887739
0.879697
0.872176
0.865177
0.858696
0.852727
0.847269
0.842323
0.837895
0.833998
0.830647
0.82786
0.825649
0.824026
0.823022
0.822688
0.822805
1.11663
1.11851
1.11669
1.11093
1.10254
1.09248
1.08128
1.06931
1.05683
1.04403
1.0311
1.01818
1.00538
0.992806
0.98051
0.968536
0.95691
0.945652
0.934779
0.924313
0.914279
0.904705
0.895615
0.887031
0.878964
0.871422
0.864402
0.857901
0.851912
0.846431
0.841458
0.836998
0.833063
0.82967
0.826841
0.824597
0.822967
0.822
0.821733
0.821891
1.12178
1.12494
1.12338
1.11701
1.1076
1.0964
1.08416
1.07131
1.0581
1.04473
1.03134
1.01805
1.00497
0.992186
0.979744
0.967676
0.955995
0.944707
0.933816
0.923336
0.913285
0.90369
0.894574
0.885961
0.877866
0.870295
0.863249
0.856722
0.850707
0.8452
0.840198
0.835707
0.831738
0.828312
0.825457
0.823206
0.821598
0.820686
0.820479
0.820664
1.12709
1.13342
1.13218
1.1247
1.11385
1.10116
1.08758
1.07361
1.0595
1.04541
1.03144
1.0177
1.00428
0.991242
0.978625
0.966447
0.954703
0.943383
0.932476
0.921983
0.911917
0.9023
0.893158
0.884514
0.876387
0.868784
0.861707
0.855151
0.849109
0.843574
0.838545
0.834026
0.830033
0.826589
0.82373
0.821495
0.81993
0.81908
0.818922
0.819124
1.12656
1.1457
1.14458
1.13434
1.12125
1.10662
1.09137
1.07606
1.06088
1.04595
1.03132
1.01707
1.00326
0.989934
0.977124
0.964826
0.953016
0.941663
0.930742
0.92024
0.910163
0.900528
0.89136
0.882686
0.874525
0.866888
0.859779
0.853193
0.847123
0.841563
0.83651
0.831972
0.827966
0.82452
0.821675
0.819477
0.817968
0.817182
0.817066
0.817277
1.12902
1.16886
1.16377
1.14671
1.12975
1.11252
1.09529
1.07844
1.06208
1.04622
1.03088
1.01608
1.00185
0.988234
0.975224
0.962803
0.950926
0.939544
0.928613
0.918107
0.908023
0.898374
0.889184
0.880482
0.872289
0.86462
0.857479
0.850864
0.844769
0.839187
0.834118
0.82957
0.825563
0.82213
0.819316
0.817167
0.815724
0.815
0.814918
0.815134
1311.55
1312.47
1311.57
1307.43
1299.56
1287.85
1272.36
1253.28
1230.86
1205.32
1176.82
1145.48
1111.32
1074.32
1034.39
991.411
945.264
895.824
843.013
786.901
727.845
666.269
599.596
427.221
56.745
3.90602
2.75266
2.58913
2.526
2.4632
2.40581
2.352
2.29976
2.24876
2.19901
2.15058
2.10346
2.05764
2.01314
1.97007
1.92855
1.88837
1.84863
1.80777
1.75847
1.63933
1324.9
1325.81
1325.05
1321.25
1313.85
1302.68
1287.75
1269.24
1247.39
1222.43
1194.57
1163.92
1130.56
1094.48
1055.63
1013.94
969.314
921.687
871.032
817.464
761.346
702.931
639.202
445.546
50.5385
3.64109
2.66903
2.5375
2.47853
2.41836
2.36294
2.31043
2.25931
2.2094
2.1607
2.11322
2.0669
2.02165
1.97739
1.93412
1.89176
1.84978
1.80671
1.75932
1.70081
1.62234
1339.75
1340.65
1340.02
1336.51
1329.56
1318.92
1304.58
1286.69
1265.49
1241.21
1214.07
1184.22
1151.76
1116.69
1079.01
1038.67
995.613
949.814
901.28
850.15
796.777
741.238
680.179
462.83
44.9851
3.42463
2.59313
2.48341
2.42726
2.36976
2.31661
2.26586
2.21628
2.16777
2.12035
2.07402
2.02869
1.98424
1.94057
1.89756
1.85504
1.81244
1.76846
1.72077
1.66681
1.60695
1356.07
1356.96
1356.44
1353.2
1346.66
1336.55
1322.81
1305.58
1285.07
1261.53
1235.19
1206.23
1174.73
1140.76
1104.3
1065.36
1023.9
979.92
933.455
884.658
833.857
780.975
722.409
479.127
39.7814
3.23863
2.52112
2.42687
2.373
2.3182
2.26748
2.21879
2.17103
2.12417
2.07824
2.03324
1.98912
1.94573
1.90295
1.86062
1.81853
1.77614
1.73244
1.68591
1.63463
1.57611
1373.84
1374.72
1374.29
1371.29
1365.14
1355.53
1342.39
1325.83
1306.05
1283.31
1257.83
1229.79
1199.32
1166.49
1131.31
1093.79
1053.93
1011.75
967.3
920.732
872.358
821.961
765.773
494.206
34.8504
3.07285
2.45055
2.36795
2.31625
2.26424
2.21611
2.16966
2.12393
2.07891
2.03465
1.99118
1.94845
1.90635
1.86472
1.8234
1.78216
1.74052
1.69772
1.65266
1.60376
1.54883
1393.03
1393.89
1393.54
1390.76
1384.96
1375.84
1363.29
1347.4
1328.37
1306.45
1281.87
1254.81
1225.41
1193.75
1159.87
1123.79
1085.53
1045.12
1002.62
958.185
912.112
864.063
810.165
507.746
30.2676
2.92085
2.37982
2.30663
2.25731
2.20828
2.16288
2.11885
2.07531
2.03229
1.98986
1.94808
1.90693
1.86629
1.82601
1.78593
1.74581
1.7053
1.6638
1.62059
1.57464
1.52469
1413.62
1414.46
1414.17
1411.58
1406.12
1397.46
1385.48
1370.27
1352
1330.93
1307.26
1281.21
1252.9
1222.44
1189.87
1155.23
1118.55
1079.87
1039.26
996.885
953.005
907.19
855.508
519.455
26.1665
2.7772
2.30777
2.24297
2.19644
2.15066
2.10816
2.06669
2.02548
1.98459
1.94412
1.90417
1.86471
1.82565
1.78686
1.74817
1.70938
1.67021
1.63023
1.58907
1.54612
1.50053
1435.59
1436.4
1436.16
1433.75
1428.6
1420.38
1408.96
1394.42
1376.92
1356.69
1333.97
1308.93
1281.74
1252.48
1221.23
1188.02
1152.9
1115.92
1077.15
1036.74
994.961
951.28
901.743
529.546
22.3316
2.63709
2.23372
2.17718
2.13397
2.09173
2.0523
2.01351
1.97474
1.93609
1.89769
1.85964
1.82195
1.78455
1.74732
1.71011
1.67278
1.63507
1.5967
1.55762
1.51757
1.47554
1458.92
1459.7
1459.5
1457.26
1452.4
1444.6
1433.73
1419.85
1403.11
1383.74
1361.95
1337.95
1311.87
1283.82
1253.88
1222.1
1188.52
1153.19
1116.19
1077.69
1037.92
996.282
948.82
538.105
18.688
2.50061
2.15799
2.10977
2.07037
2.0319
1.99567
1.95967
1.9234
1.88704
1.85075
1.81465
1.77877
1.74306
1.70743
1.67177
1.63597
1.59981
1.5631
1.52607
1.48856
1.44977
1483.59
1484.34
1484.18
1482.09
1477.5
1470.12
1459.78
1446.55
1430.56
1412.04
1391.2
1368.22
1343.27
1316.43
1287.79
1257.41
1225.34
1191.63
1156.35
1119.69
1081.84
1042.15
996.684
544.963
15.3769
2.37054
2.08159
2.04147
2.00624
1.97168
1.9387
1.90549
1.87174
1.83767
1.8035
1.76935
1.73527
1.70126
1.66726
1.63317
1.59895
1.56443
1.52947
1.49428
1.45888
1.42304
1509.58
1510.3
1510.18
1508.23
1503.91
1496.92
1487.11
1474.51
1459.27
1441.59
1421.69
1399.74
1375.89
1350.26
1322.91
1293.9
1263.31
1231.17
1197.57
1162.67
1126.67
1088.84
1045.3
549.841
12.658
2.24757
2.00543
1.97318
1.94226
1.91157
1.88176
1.85127
1.81998
1.78816
1.75605
1.72382
1.69154
1.65923
1.62686
1.59437
1.56177
1.52898
1.49572
1.46217
1.42898
1.39531
1536.88
1537.57
1537.48
1535.67
1531.61
1524.99
1515.69
1503.71
1489.21
1472.37
1453.39
1432.46
1409.71
1385.26
1359.18
1331.53
1302.37
1271.77
1239.78
1206.59
1172.36
1136.32
1094.63
553.01
10.3226
2.13107
1.93068
1.90596
1.87919
1.85208
1.82521
1.79728
1.7683
1.73862
1.70851
1.67815
1.64764
1.61703
1.5863
1.55543
1.52444
1.49335
1.46198
1.43015
1.39855
1.36717
1565.47
1566.13
1566.07
1564.38
1560.57
1554.32
1545.51
1534.15
1520.36
1504.34
1486.28
1466.35
1444.69
1421.4
1396.56
1370.24
1342.49
1313.36
1282.94
1251.39
1218.86
1184.55
1144.67
554.77
8.14414
2.02615
1.85978
1.84104
1.81774
1.79366
1.76934
1.7437
1.71685
1.68918
1.66097
1.63241
1.60363
1.57471
1.54563
1.51639
1.48701
1.45757
1.42799
1.3981
1.36817
1.33866
1595.32
1595.96
1595.92
1594.35
1590.77
1584.89
1576.55
1565.78
1552.71
1537.49
1520.33
1501.38
1480.78
1458.64
1435.01
1409.98
1383.6
1355.92
1327.01
1297.04
1266.16
1233.5
1195.39
554.965
6.32337
1.9384
1.79493
1.7793
1.75839
1.73661
1.71436
1.69069
1.66575
1.63992
1.61349
1.58667
1.55959
1.53233
1.50489
1.47728
1.44952
1.4217
1.3938
1.36575
1.33768
1.30976
1626.43
1627.03
1627.02
1625.56
1622.21
1616.66
1608.79
1598.61
1586.22
1571.8
1555.52
1537.53
1517.98
1496.94
1474.51
1450.74
1425.68
1399.4
1371.97
1343.53
1314.24
1283.19
1246.79
553.147
5.2725
1.86167
1.73498
1.72063
1.70116
1.681
1.66036
1.63835
1.61508
1.59093
1.56617
1.541
1.51556
1.48993
1.46412
1.43812
1.41197
1.38574
1.35947
1.33313
1.3068
1.28055
1658.76
1659.33
1659.33
1657.99
1654.85
1649.64
1642.22
1632.61
1620.9
1607.25
1591.83
1574.78
1556.24
1536.3
1515.03
1492.48
1468.73
1443.81
1417.8
1390.86
1363.11
1333.62
1298.89
550.002
4.40603
1.7896
1.67828
1.66455
1.64587
1.62677
1.60735
1.5867
1.5649
1.54227
1.51907
1.49547
1.47161
1.44755
1.42332
1.3989
1.37433
1.34968
1.32499
1.30029
1.27564
1.25103
1692.29
1692.84
1692.86
1691.61
1688.68
1683.8
1676.83
1667.77
1656.72
1643.82
1629.24
1613.12
1595.57
1576.69
1556.55
1535.21
1512.71
1489.13
1464.51
1439.01
1412.76
1384.79
1351.69
545.637
3.63108
1.72531
1.62526
1.61083
1.59228
1.57378
1.55526
1.53575
1.51523
1.49399
1.47223
1.45011
1.42775
1.40521
1.3825
1.35962
1.33659
1.31349
1.29036
1.26725
1.2442
1.22117
1727.02
1727.53
1727.57
1726.43
1723.7
1719.13
1712.59
1704.07
1693.66
1681.5
1667.74
1652.52
1635.94
1618.1
1599.06
1578.89
1557.63
1535.34
1512.07
1487.98
1463.17
1436.67
1405.16
539.798
3.20095
1.66666
1.57469
1.55873
1.53992
1.52174
1.50392
1.48538
1.46602
1.44605
1.42563
1.40491
1.38399
1.36291
1.34167
1.32027
1.29874
1.27715
1.25555
1.23398
1.21248
1.19099
1762.92
1763.4
1763.45
1762.41
1759.87
1755.61
1749.48
1741.49
1731.71
1720.26
1707.3
1692.95
1677.32
1660.49
1642.54
1623.51
1603.45
1582.41
1560.46
1537.73
1514.32
1489.25
1459.3
532.629
2.98694
1.60696
1.52394
1.50711
1.48816
1.47029
1.4531
1.43545
1.41716
1.39837
1.37923
1.35984
1.34028
1.3206
1.30078
1.28082
1.26075
1.24064
1.22054
1.20047
1.18047
1.16045
1799.97
1800.42
1800.49
1799.53
1797.19
1793.22
1787.49
1780.01
1770.83
1760.09
1747.9
1734.41
1719.7
1703.86
1686.96
1669.04
1650.15
1630.34
1609.65
1588.24
1566.19
1542.51
1514.08
524.333
2.78159
1.54482
1.47203
1.45532
1.43654
1.41908
1.40256
1.38578
1.36852
1.35087
1.33295
1.31484
1.29661
1.27828
1.25983
1.24126
1.22261
1.20394
1.1853
1.1667
1.14814
1.12955
1838.14
1838.56
1838.64
1837.77
1835.61
1831.92
1826.59
1819.59
1811.01
1800.94
1789.52
1776.86
1763.06
1748.19
1732.31
1715.48
1697.73
1679.09
1659.64
1639.5
1618.77
1596.44
1569.51
514.909
2.58551
1.48212
1.41927
1.40318
1.38482
1.36793
1.35212
1.33623
1.31999
1.30347
1.28674
1.26987
1.25293
1.23592
1.2188
1.20159
1.18431
1.16704
1.14982
1.13263
1.11546
1.09826
1877.41
1877.81
1877.89
1877.1
1875.11
1871.7
1866.74
1860.23
1852.23
1842.82
1832.15
1820.3
1807.38
1793.45
1778.58
1762.8
1746.15
1728.67
1710.41
1691.52
1672.07
1651.06
1625.59
504.357
2.39905
1.4197
1.36592
1.35063
1.33289
1.31669
1.30167
1.28669
1.27148
1.25608
1.24053
1.2249
1.20923
1.19351
1.1777
1.16181
1.14588
1.12996
1.11409
1.09826
1.08243
1.06657
1917.76
1918.12
1918.21
1917.5
1915.68
1912.53
1907.94
1901.9
1894.46
1885.71
1875.75
1864.71
1852.64
1839.63
1825.73
1810.97
1795.4
1779.04
1761.96
1744.28
1726.08
1706.36
1682.32
492.668
2.22197
1.35775
1.31204
1.29765
1.28067
1.26525
1.25109
1.23706
1.2229
1.20863
1.19428
1.17988
1.16547
1.15103
1.13652
1.12193
1.10731
1.0927
1.07813
1.06359
1.04907
1.0345
1959.15
1959.49
1959.58
1958.94
1957.28
1954.39
1950.17
1944.58
1937.68
1929.56
1920.32
1910.04
1898.82
1886.7
1873.74
1859.98
1845.46
1830.2
1814.27
1797.78
1780.79
1762.33
1739.69
479.82
2.05374
1.29621
1.25764
1.24416
1.22804
1.2135
1.20025
1.18723
1.17416
1.16104
1.14789
1.13474
1.1216
1.10845
1.09523
1.08194
1.06861
1.05528
1.04197
1.02867
1.0154
1.0021
2001.56
2001.87
2001.97
2001.41
1999.9
1997.26
1993.38
1988.24
1981.87
1974.37
1965.81
1956.29
1945.88
1934.63
1922.59
1909.81
1896.31
1882.12
1867.31
1851.98
1836.18
1818.94
1797.68
465.782
1.89391
1.23498
1.20267
1.19012
1.17492
1.16133
1.14907
1.13711
1.12517
1.11324
1.10133
1.08944
1.07758
1.06572
1.0538
1.04181
1.02976
1.0177
1.00562
0.993542
0.981485
0.969434
2044.97
2045.25
2045.36
2044.86
2043.51
2041.11
2037.56
2032.84
2027
2020.09
2012.19
2003.41
1993.79
1983.4
1972.26
1960.43
1947.93
1934.8
1921.08
1906.88
1892.24
1876.19
1856.29
450.518
1.74225
1.17398
1.14711
1.13546
1.12127
1.1087
1.0975
1.08666
1.07591
1.06521
1.05456
1.04397
1.03341
1.02285
1.01224
1.00154
0.990779
0.979964
0.969113
0.958242
0.947388
0.936564
2089.35
2089.61
2089.71
2089.28
2088.07
2085.9
2082.67
2078.37
2073.03
2066.69
2059.45
2051.38
2042.54
2032.98
2022.73
2011.83
2000.31
1988.21
1975.56
1962.46
1948.95
1934.09
1915.54
433.981
1.59851
1.11308
1.09088
1.08015
1.06701
1.05552
1.04544
1.03579
1.02629
1.01688
1.00755
0.998281
0.989057
0.979824
0.970531
0.961146
0.951668
0.942108
0.932482
0.922815
0.91316
0.903547
2134.66
2134.89
2135
2134.63
2133.56
2131.61
2128.7
2124.8
2119.93
2114.16
2107.56
2100.18
2092.1
2083.35
2073.96
2063.98
2053.43
2042.33
2030.73
2018.71
2006.31
1992.63
1975.42
416.11
1.46207
1.05207
1.03388
1.02406
1.01204
1.00169
0.99277
0.984378
0.976193
0.968143
0.960195
0.95232
0.944477
0.936613
0.928672
0.920619
0.912442
0.904149
0.895757
0.887299
0.878845
0.870436
2180.88
2181.09
2181.2
2180.89
2179.94
2178.21
2175.6
2172.08
2167.69
2162.47
2156.48
2149.78
2142.44
2134.48
2125.95
2116.87
2107.26
2097.15
2086.57
2075.62
2064.33
2051.8
2035.93
396.835
1.33235
0.990683
0.975932
0.96706
0.956239
0.947092
0.939395
0.932303
0.925503
0.918898
0.912424
0.906019
0.899625
0.893183
0.88664
0.879953
0.873107
0.866105
0.858962
0.851721
0.844477
0.837277
2227.97
2228.15
2228.27
2228.01
2227.19
2225.67
2223.35
2220.2
2216.27
2211.58
2206.19
2200.17
2193.55
2186.37
2178.67
2170.47
2161.79
2152.65
2143.09
2133.2
2122.99
2111.62
2097.07
376.06
1.20924
0.928843
0.916918
0.908993
0.899485
0.891658
0.885267
0.879535
0.874175
0.86909
0.864183
0.859344
0.854482
0.849531
0.844436
0.83916
0.833682
0.827998
0.822118
0.816103
0.810082
0.804121
2275.91
2276.07
2276.18
2275.98
2275.28
2273.95
2271.92
2269.14
2265.64
2261.47
2256.68
2251.31
2245.4
2238.99
2232.11
2224.77
2217
2208.82
2200.27
2191.42
2182.28
2172.07
2158.86
353.646
1.09296
0.86655
0.856862
0.849704
0.841581
0.835207
0.830282
0.826043
0.822209
0.818705
0.815435
0.812253
0.809021
0.805647
0.802074
0.798267
0.794197
0.789854
0.785242
0.780445
0.775665
0.771045
2324.66
2324.8
2324.92
2324.77
2324.19
2323.05
2321.29
2318.88
2315.82
2312.14
2307.92
2303.19
2297.98
2292.33
2286.24
2279.76
2272.89
2265.66
2258.1
2250.28
2242.22
2233.18
2221.3
329.439
0.983312
0.803773
0.795685
0.789114
0.782253
0.777469
0.774187
0.771642
0.769516
0.767732
0.766196
0.764751
0.763231
0.761524
0.759563
0.757299
0.754694
0.75173
0.748404
0.74484
0.741381
0.738008
2374.15
2374.29
2374.44
2374.36
2373.9
2372.95
2371.46
2369.39
2366.75
2363.57
2359.9
2355.79
2351.28
2346.36
2341.06
2335.42
2329.44
2323.14
2316.56
2309.76
2302.78
2294.93
2284.42
303.324
0.881263
0.739764
0.732659
0.727009
0.721374
0.718255
0.716748
0.716062
0.715888
0.716097
0.716522
0.716955
0.717226
0.71724
0.716945
0.716288
0.715217
0.71371
0.711771
0.709597
0.707395
0.705029
2424.27
2424.46
2424.65
2424.66
2424.34
2423.58
2422.35
2420.6
2418.37
2415.68
2412.56
2409.07
2405.23
2401.03
2396.51
2391.69
2386.59
2381.22
2375.61
2369.83
2363.93
2357.29
2348.22
275.196
0.78184
0.673642
0.667724
0.662797
0.658766
0.657446
0.657936
0.659355
0.661353
0.663773
0.666373
0.668866
0.671058
0.672874
0.674292
0.675279
0.675797
0.675847
0.675503
0.674729
0.673592
0.67242
2475.07
2475.3
2475.52
2475.6
2475.4
2474.82
2473.82
2472.39
2470.56
2468.34
2465.79
2462.91
2459.72
2456.23
2452.47
2448.46
2444.23
2439.78
2435.14
2430.39
2425.59
2420.22
2412.62
244.897
0.687982
0.605253
0.600102
0.596285
0.594116
0.594927
0.597766
0.60163
0.606091
0.610907
0.615783
0.620421
0.624641
0.628381
0.631622
0.634336
0.636494
0.638113
0.639283
0.640041
0.640232
0.64004
2526.68
2526.84
2526.96
2526.98
2526.84
2526.41
2525.63
2524.5
2523.06
2521.33
2519.32
2517.05
2514.51
2511.73
2508.71
2505.5
2502.12
2498.58
2494.92
2491.21
2487.55
2483.57
2477.65
211.505
0.601597
0.534469
0.528934
0.526436
0.526538
0.530112
0.535934
0.542804
0.550115
0.557543
0.564824
0.571726
0.578107
0.583899
0.589066
0.593579
0.597429
0.60064
0.603291
0.605451
0.607079
0.608143
2577.45
2577.77
2578.15
2578.28
2578.22
2577.93
2577.36
2576.55
2575.51
2574.27
2572.82
2571.15
2569.26
2567.17
2564.89
2562.45
2559.89
2557.25
2554.54
2551.87
2549.38
2546.94
2543.03
173.806
0.524517
0.460457
0.452325
0.451509
0.455106
0.462508
0.472134
0.482651
0.493324
0.503764
0.513741
0.523106
0.531772
0.53969
0.546827
0.553173
0.558738
0.563563
0.567712
0.571254
0.574214
0.576617
2624.2
2625.96
2627.6
2628.65
2629.07
2629.07
2628.8
2628.36
2627.79
2627.08
2626.22
2625.18
2623.96
2622.55
2620.99
2619.29
2617.52
2615.72
2613.92
2612.24
2610.89
2610.04
2608.23
140.479
0.450389
0.381867
0.36786
0.36959
0.378932
0.391868
0.406455
0.421385
0.435964
0.449827
0.462807
0.474839
0.485901
0.49599
0.505112
0.51329
0.520566
0.526994
0.532637
0.537555
0.541791
0.545394
2660.94
2667.98
2672.56
2675.84
2677.68
2678.57
2678.98
2679.17
2679.24
2679.18
2678.96
2678.55
2677.93
2677.11
2676.14
2675.04
2673.88
2672.71
2671.59
2670.62
2670.15
2670.72
2670.36
127.701
0.335823
0.288667
0.271442
0.279043
0.297389
0.318322
0.339354
0.359584
0.378594
0.396209
0.412406
0.427231
0.440751
0.453028
0.464127
0.474117
0.48307
0.491058
0.498148
0.504398
0.509857
0.514585
1725.69
1917.31
2062.44
2177.96
2261.97
2317.38
2351.14
2369.61
2377.63
2378.56
2374.69
2367.46
2357.83
2346.37
2333.46
2319.35
2304.25
2288.32
2271.67
2254.29
2237.35
2221.09
2189.72
119.891
0.0462956
0.152049
0.158778
0.179679
0.21127
0.242947
0.271908
0.298201
0.322031
0.343584
0.363073
0.380706
0.39666
0.411085
0.424113
0.435858
0.446425
0.455901
0.464362
0.471876
0.478493
0.484283
68.6109
154.21
222.522
293.875
357.101
405.609
438.419
457.515
465.984
466.823
462.439
454.55
444.336
432.544
419.657
406.002
391.825
377.328
362.609
347.656
333.358
316.025
361.769
43.3932
-0.280449
-0.0236054
0.0316159
0.07646
0.125149
0.168748
0.206204
0.238757
0.267398
0.292796
0.315453
0.335761
0.354024
0.370483
0.385332
0.39873
0.410807
0.421669
0.431406
0.440096
0.447797
0.454583
-1.29996
-1.14786
-1.24566
-1.33231
-1.4005
-1.43236
-1.43659
-1.42481
-1.40418
-1.37896
-1.35179
-1.32415
-1.29666
-1.26936
-1.242
-1.21419
-1.18574
-1.15701
-1.12995
-1.11065
-1.09514
-1.03222
-0.753043
-0.532462
-0.395494
-0.210888
-0.10138
-0.0203415
0.0458709
0.100123
0.145049
0.183108
0.215983
0.244771
0.270234
0.292926
0.31326
0.331552
0.34805
0.362946
0.376393
0.388512
0.39941
0.409176
0.417871
0.425579
-1.23494
-1.22504
-1.23729
-1.25066
-1.26226
-1.26761
-1.26609
-1.25906
-1.24768
-1.23274
-1.21489
-1.19464
-1.17228
-1.14795
-1.12169
-1.09353
-1.06351
-1.03172
-0.998044
-0.962439
-0.922806
-0.868485
-0.774206
-0.643925
-0.462831
-0.299352
-0.180688
-0.0897356
-0.0169653
0.0423222
0.0915032
0.133149
0.169036
0.200385
0.22806
0.252692
0.274752
0.2946
0.312514
0.328709
0.34335
0.356576
0.368504
0.37923
0.388821
0.397364
-1.17681
-1.17386
-1.18255
-1.19219
-1.20282
-1.20969
-1.21037
-1.20502
-1.19454
-1.1799
-1.16197
-1.14137
-1.11841
-1.09321
-1.06578
-1.0361
-1.00412
-0.969602
-0.931619
-0.887833
-0.834392
-0.766865
-0.681503
-0.573706
-0.441875
-0.319322
-0.217594
-0.133226
-0.0627647
-0.00357235
0.0466481
0.0897841
0.12728
0.160213
0.189392
0.21543
0.238801
0.259874
0.278931
0.296193
0.311833
0.325997
0.338808
0.350368
0.360741
0.370019
-1.1184
-1.1196
-1.12449
-1.13094
-1.13758
-1.14133
-1.14032
-1.13422
-1.12346
-1.10878
-1.09086
-1.07018
-1.04692
-1.02114
-0.992853
-0.962047
-0.928607
-0.892224
-0.852043
-0.806135
-0.751391
-0.684842
-0.605743
-0.515239
-0.416982
-0.321757
-0.236244
-0.161208
-0.0959506
-0.0393454
0.00988282
0.0529396
0.0908537
0.124464
0.154448
0.181349
0.205602
0.227548
0.247457
0.26554
0.281971
0.296892
0.310429
0.322681
0.333714
0.343618
-1.06218
-1.06405
-1.06723
-1.07067
-1.0734
-1.07374
-1.07051
-1.06324
-1.05206
-1.03742
-1.01975
-0.999266
-0.976044
-0.950129
-0.921565
-0.890331
-0.856293
-0.819146
-0.778248
-0.732456
-0.680086
-0.61959
-0.550671
-0.475194
-0.396126
-0.31832
-0.24557
-0.179335
-0.119896
-0.0669311
-0.0198317
0.0220968
0.0595275
0.0930686
0.123249
0.150517
0.17524
0.197719
0.218192
0.236852
0.25386
0.269352
0.283447
0.296242
0.307804
0.318223
-1.00599
-1.00825
-1.01109
-1.0135
-1.01462
-1.01341
-1.00907
-1.00125
-0.990018
-0.975645
-0.95834
-0.938185
-0.915228
-0.889554
-0.861243
-0.830266
-0.796457
-0.759524
-0.719015
-0.674284
-0.624584
-0.569373
-0.508861
-0.444327
-0.37782
-0.312081
-0.249324
-0.190778
-0.136977
-0.0879863
-0.0435944
-0.00344445
0.0328761
0.0657846
0.0956722
0.122885
0.147719
0.170418
0.191183
0.210183
0.22756
0.243435
0.257918
0.271103
0.28306
0.293882
-0.951224
-0.95352
-0.9562
-0.958263
-0.958772
-0.95693
-0.952172
-0.944264
-0.933258
-0.919277
-0.902391
-0.882646
-0.860135
-0.835005
-0.807351
-0.77714
-0.744211
-0.708298
-0.669104
-0.626308
-0.57967
-0.529166
-0.475228
-0.418834
-0.361393
-0.30455
-0.249663
-0.197623
-0.148962
-0.103904
-0.0624415
-0.02442
0.0103976
0.0422831
0.0715097
0.0983299
0.122966
0.14561
0.166422
0.185542
0.203087
0.219164
0.233869
0.247294
0.259514
0.270631
-0.898156
-0.900304
-0.902727
-0.904383
-0.90441
-0.90216
-0.897205
-0.889382
-0.878663
-0.865059
-0.848592
-0.82934
-0.807463
-0.783143
-0.756467
-0.727385
-0.695766
-0.66143
-0.624202
-0.58398
-0.540786
-0.494817
-0.44653
-0.396687
-0.346262
-0.296318
-0.247749
-0.201201
-0.157126
-0.115782
-0.0772551
-0.0415036
-0.00840518
0.0222048
0.0505048
0.0766689
0.100857
0.123211
0.143854
0.162894
0.180424
0.196531
0.211302
0.224826
0.237183
0.248492
-0.846877
-0.848818
-0.850932
-0.85215
-0.85174
-0.849181
-0.844131
-0.836404
-0.825905
-0.812616
-0.796599
-0.777983
-0.756951
-0.733669
-0.708189
-0.680461
-0.650397
-0.617925
-0.58299
-0.54562
-0.50596
-0.464277
-0.420978
-0.376629
-0.331917
-0.287566
-0.24422
-0.202364
-0.162355
-0.12444
-0.0887377
-0.0552709
-0.0239922
0.00518669
0.032374
0.0576834
0.0812243
0.103096
0.123387
0.142172
0.159521
0.175503
0.190197
0.20369
0.216073
0.227477
-0.797326
-0.799084
-0.800906
-0.801776
-0.801049
-0.798281
-0.793158
-0.785458
-0.775091
-0.762102
-0.74662
-0.728802
-0.708798
-0.686713
-0.662565
-0.636318
-0.60795
-0.577486
-0.544974
-0.510515
-0.474288
-0.436553
-0.397645
-0.357985
-0.318064
-0.278401
-0.239473
-0.201667
-0.165265
-0.13048
-0.097443
-0.0662117
-0.0367859
-0.00912797
0.0168224
0.041135
0.0638789
0.0851168
0.104902
0.123283
0.140306
0.156028
0.170519
0.183869
0.19618
0.207589
-0.749481
-0.751087
-0.752661
-0.75327
-0.752315
-0.749377
-0.744135
-0.736396
-0.726157
-0.713549
-0.69874
-0.681856
-0.662987
-0.642181
-0.619445
-0.594774
-0.568207
-0.53984
-0.509787
-0.478182
-0.445197
-0.411049
-0.376007
-0.340389
-0.304557
-0.268895
-0.233767
-0.199487
-0.166294
-0.134364
-0.103827
-0.0747557
-0.0471763
-0.0210804
0.0035608
0.0267839
0.0486243
0.0691113
0.0882686
0.106119
0.122694
0.13804
0.152222
0.165335
0.177488
0.188826
-0.703391
-0.70485
-0.706229
-0.706621
-0.705456
-0.702327
-0.696941
-0.689204
-0.679212
-0.667145
-0.653147
-0.637278
-0.619564
-0.600037
-0.57873
-0.555683
-0.530976
-0.504739
-0.477112
-0.448235
-0.418253
-0.387341
-0.355708
-0.323599
-0.291294
-0.259089
-0.227271
-0.196101
-0.165784
-0.136475
-0.108284
-0.0812855
-0.0555151
-0.030981
-0.00767763
0.014404
0.035269
0.0549175
0.0733485
0.090567
0.106593
0.121467
0.135256
0.148052
0.159977
0.171179
-0.659089
-0.660417
-0.661639
-0.661841
-0.660473
-0.657166
-0.651722
-0.644148
-0.634586
-0.623196
-0.610062
-0.595188
-0.578574
-0.560267
-0.540352
-0.518918
-0.496072
-0.47194
-0.446654
-0.420335
-0.393101
-0.365087
-0.33646
-0.307418
-0.278189
-0.249012
-0.220124
-0.19174
-0.164038
-0.137147
-0.111157
-0.0861289
-0.0621017
-0.0390958
-0.0171261
0.00379054
0.0236328
0.0423772
0.0600051
0.0765109
0.0919093
0.10624
0.119566
0.131984
0.143623
0.154633
-0.616518
-0.617738
-0.618808
-0.61884
-0.617316
-0.613944
-0.608628
-0.601416
-0.59242
-0.581741
-0.569417
-0.555447
-0.539853
-0.522717
-0.504164
-0.48432
-0.463298
-0.441201
-0.418128
-0.394171
-0.369422
-0.343994
-0.318028
-0.291695
-0.265191
-0.238718
-0.21247
-0.186622
-0.161317
-0.136661
-0.112721
-0.0895455
-0.0671744
-0.0456422
-0.0249841
-0.00523995
0.0135477
0.0313394
0.048107
0.0638408
0.0785546
0.092288
0.105103
0.117096
0.1284
0.139171
-0.575603
-0.57671
-0.577605
-0.577475
-0.575872
-0.572596
-0.567593
-0.560875
-0.552485
-0.54247
-0.53087
-0.51773
-0.503122
-0.487157
-0.469976
-0.451707
-0.43245
-0.412279
-0.391257
-0.369451
-0.34694
-0.323829
-0.300248
-0.276352
-0.252311
-0.228294
-0.204457
-0.180932
-0.157827
-0.135223
-0.113175
-0.0917245
-0.0709156
-0.0507975
-0.0314244
-0.012854
0.00485762
0.0216634
0.0375323
0.0524553
0.0664477
0.0795491
0.0918189
0.10335
0.114281
0.124771
-0.536324
-0.537296
-0.538022
-0.537771
-0.536183
-0.533113
-0.528489
-0.522266
-0.514431
-0.505015
-0.494095
-0.481774
-0.468171
-0.45341
-0.437615
-0.420892
-0.403314
-0.384931
-0.365785
-0.345933
-0.325453
-0.304447
-0.283041
-0.261375
-0.239592
-0.217825
-0.196191
-0.174787
-0.153689
-0.13296
-0.112648
-0.092801
-0.0734686
-0.0547128
-0.0366016
-0.0192032
-0.00257903
0.0132227
0.028173
0.0422658
0.0555177
0.0679668
0.0796684