/*--------------------------------*- C++ -*----------------------------------*\
  =========                 |
  \\      /  F ield         | OpenFOAM: The Open Source CFD Toolbox
   \\    /   O peration     | Website:  https://openfoam.org
    \\  /    A nd           | Version:  9
     \\/     M anipulation  |
\*---------------------------------------------------------------------------*/
FoamFile
{
    format      ascii;
    class       surfaceScalarField;
    location    "0.05";
    object      phi;
}
// * * * * * * * * * * * * * * * * * * * * * * * * * * * * * * * * * * * * * //

dimensions      [0 3 -1 0 0 0 0];

internalField   nonuniform List<scalar> 
15214
(
6.20372e-07
-6.20372e-07
1.83593e-06
-1.21556e-06
3.39474e-06
-1.55881e-06
5.08461e-06
-1.68987e-06
6.78771e-06
-1.7031e-06
8.45264e-06
-1.66493e-06
1.00662e-05
-1.61358e-06
1.16358e-05
-1.5696e-06
1.31786e-05
-1.54274e-06
1.47152e-05
-1.5366e-06
1.62671e-05
-1.5519e-06
1.78557e-05
-1.58861e-06
1.95029e-05
-1.64725e-06
2.12326e-05
-1.72971e-06
2.30725e-05
-1.83982e-06
2.50565e-05
-1.98404e-06
2.7229e-05
-2.17251e-06
2.96488e-05
-2.41976e-06
3.23985e-05
-2.74969e-06
3.5571e-05
-3.17254e-06
3.93197e-05
-3.74867e-06
4.37594e-05
-4.43973e-06
4.85356e-05
-4.77615e-06
5.27396e-05
-4.204e-06
5.53882e-05
-2.64865e-06
5.68014e-05
-1.41321e-06
5.91863e-05
-2.38483e-06
6.31492e-05
-3.96293e-06
6.33251e-05
-1.75858e-07
6.04596e-05
2.86548e-06
5.41323e-05
6.32738e-06
4.63475e-05
7.78475e-06
4.00014e-05
6.34612e-06
3.52433e-05
4.7581e-06
3.16001e-05
3.64322e-06
2.85475e-05
3.05266e-06
2.57619e-05
2.78553e-06
2.30732e-05
2.68864e-06
2.03668e-05
2.70638e-06
1.75521e-05
2.81483e-06
1.45597e-05
2.9925e-06
1.1356e-05
3.20364e-06
7.97903e-06
3.37702e-06
4.6166e-06
3.36249e-06
1.74364e-06
2.87293e-06
1.74369e-06
1.09491e-06
-1.71529e-06
2.43631e-06
-2.55696e-06
3.87524e-06
-2.99774e-06
5.35841e-06
-3.17305e-06
6.84194e-06
-3.18663e-06
8.30258e-06
-3.12556e-06
9.7344e-06
-3.0454e-06
1.11426e-05
-2.97785e-06
1.25389e-05
-2.93904e-06
1.39382e-05
-2.93583e-06
1.53567e-05
-2.97041e-06
1.68117e-05
-3.0436e-06
1.83214e-05
-3.15694e-06
1.99059e-05
-3.31419e-06
2.15885e-05
-3.52246e-06
2.33979e-05
-3.79347e-06
2.53704e-05
-4.14502e-06
2.75527e-05
-4.60203e-06
3.00011e-05
-5.19806e-06
3.27855e-05
-5.95698e-06
3.59531e-05
-6.91621e-06
3.94673e-05
-7.954e-06
4.32378e-05
-8.54667e-06
4.7026e-05
-7.99215e-06
5.03646e-05
-5.98728e-06
5.22929e-05
-3.34153e-06
5.1065e-05
-1.15692e-06
5.05771e-05
-3.47507e-06
5.3335e-05
-2.93381e-06
5.33423e-05
2.85823e-06
4.96522e-05
1.00175e-05
4.43054e-05
1.31315e-05
3.89746e-05
1.16771e-05
3.47341e-05
8.99858e-06
3.12815e-05
7.09601e-06
2.83054e-05
6.02882e-06
2.56086e-05
5.48236e-06
2.30441e-05
5.25313e-06
2.04998e-05
5.25073e-06
1.7884e-05
5.43059e-06
1.51222e-05
5.75423e-06
1.21676e-05
6.15837e-06
9.0279e-06
6.51675e-06
5.80709e-06
6.58349e-06
2.70709e-06
5.97303e-06
4.45084e-06
1.42084e-06
-3.13613e-06
2.81924e-06
-3.95536e-06
4.14537e-06
-4.32388e-06
5.43551e-06
-4.46319e-06
6.70202e-06
-4.45314e-06
7.95012e-06
-4.37366e-06
9.18527e-06
-4.28055e-06
1.04147e-05
-4.20728e-06
1.16474e-05
-4.17175e-06
1.28939e-05
-4.18232e-06
1.41659e-05
-4.24237e-06
1.54761e-05
-4.3538e-06
1.68385e-05
-4.51944e-06
1.82692e-05
-4.74487e-06
1.97867e-05
-5.03991e-06
2.14133e-05
-5.42007e-06
2.31762e-05
-5.90795e-06
2.51078e-05
-6.53366e-06
2.72422e-05
-7.3324e-06
2.96133e-05
-8.32812e-06
3.2215e-05
-9.51789e-06
3.49912e-05
-1.07302e-05
3.78914e-05
-1.14469e-05
4.08209e-05
-1.09217e-05
4.34224e-05
-8.58876e-06
4.45026e-05
-4.42176e-06
4.29466e-05
3.992e-07
4.11994e-05
-1.72789e-06
3.91381e-05
-8.72459e-07
3.68043e-05
5.19195e-06
3.49904e-05
1.18315e-05
3.35359e-05
1.45861e-05
3.18203e-05
1.33926e-05
2.96831e-05
1.11359e-05
2.74e-05
9.37909e-06
2.51533e-05
8.27551e-06
2.29832e-05
7.65253e-06
2.08588e-05
7.37755e-06
1.87293e-05
7.38023e-06
1.65403e-05
7.61955e-06
1.42401e-05
8.05441e-06
1.17856e-05
8.61298e-06
9.14939e-06
9.15299e-06
6.32227e-06
9.4107e-06
3.27819e-06
9.01718e-06
7.7291e-06
1.57548e-06
-4.71161e-06
3.00547e-06
-5.38534e-06
4.25485e-06
-5.57326e-06
5.40338e-06
-5.61173e-06
6.50043e-06
-5.55019e-06
7.57388e-06
-5.44711e-06
8.64066e-06
-5.34733e-06
9.7123e-06
-5.27892e-06
1.07979e-05
-5.25734e-06
1.19057e-05
-5.29017e-06
1.30443e-05
-5.38095e-06
1.42228e-05
-5.53227e-06
1.54514e-05
-5.74804e-06
1.67418e-05
-6.0353e-06
1.81076e-05
-6.40574e-06
1.95646e-05
-6.877e-06
2.11302e-05
-7.4736e-06
2.28227e-05
-8.22608e-06
2.46557e-05
-9.16548e-06
2.66327e-05
-1.03051e-05
2.87219e-05
-1.1607e-05
3.08603e-05
-1.28685e-05
3.29953e-05
-1.35819e-05
3.50652e-05
-1.29915e-05
3.68029e-05
-1.03265e-05
3.7175e-05
-4.79389e-06
3.76404e-05
-6.61779e-08
3.56887e-05
2.2383e-07
3.21323e-05
2.68388e-06
2.91249e-05
8.19945e-06
2.78231e-05
1.31333e-05
2.7532e-05
1.48772e-05
2.69113e-05
1.40133e-05
2.56705e-05
1.23768e-05
2.40852e-05
1.09644e-05
2.23829e-05
9.97777e-06
2.06584e-05
9.37696e-06
1.89305e-05
9.10554e-06
1.71844e-05
9.12629e-06
1.53899e-05
9.41402e-06
1.35059e-05
9.93843e-06
1.14797e-05
1.06393e-05
9.24075e-06
1.13919e-05
6.684e-06
1.19675e-05
3.64371e-06
1.20576e-05
1.13729e-05
1.61695e-06
-6.32856e-06
3.04591e-06
-6.8143e-06
4.24138e-06
-6.76873e-06
5.29342e-06
-6.66377e-06
6.26927e-06
-6.52603e-06
7.21132e-06
-6.38916e-06
8.14562e-06
-6.28163e-06
9.08843e-06
-6.22172e-06
1.00504e-05
-6.21931e-06
1.10393e-05
-6.2791e-06
1.20619e-05
-6.40348e-06
1.31245e-05
-6.59494e-06
1.42344e-05
-6.85789e-06
1.53993e-05
-7.20021e-06
1.6628e-05
-7.63443e-06
1.79297e-05
-8.17871e-06
1.93131e-05
-8.85698e-06
2.07836e-05
-9.69665e-06
2.2339e-05
-1.07208e-05
2.3962e-05
-1.19282e-05
2.56085e-05
-1.32535e-05
2.72152e-05
-1.44753e-05
2.87348e-05
-1.51015e-05
3.01439e-05
-1.44007e-05
3.1365e-05
-1.15476e-05
3.22648e-05
-5.69369e-06
3.3381e-05
-1.18237e-06
3.16742e-05
1.93063e-06
2.82212e-05
6.13685e-06
2.54625e-05
1.09583e-05
2.43518e-05
1.4244e-05
2.40406e-05
1.51883e-05
2.35439e-05
1.45102e-05
2.26265e-05
1.32941e-05
2.14294e-05
1.21615e-05
2.01024e-05
1.13048e-05
1.87257e-05
1.07538e-05
1.73295e-05
1.05017e-05
1.59149e-05
1.05408e-05
1.44627e-05
1.08663e-05
1.29331e-05
1.1468e-05
1.12586e-05
1.23137e-05
9.32786e-06
1.33226e-05
6.96189e-06
1.43336e-05
3.90592e-06
1.51136e-05
1.52789e-05
1.59398e-06
-7.92255e-06
2.99402e-06
-8.21434e-06
4.1457e-06
-7.92042e-06
5.13228e-06
-7.65035e-06
6.02497e-06
-7.41872e-06
6.87305e-06
-7.23724e-06
7.70835e-06
-7.11694e-06
8.55095e-06
-7.06432e-06
9.41345e-06
-7.08181e-06
1.0304e-05
-7.16966e-06
1.12284e-05
-7.32792e-06
1.21916e-05
-7.55805e-06
1.31979e-05
-7.86425e-06
1.42521e-05
-8.2544e-06
1.53586e-05
-8.74092e-06
1.6521e-05
-9.34112e-06
1.77405e-05
-1.00764e-05
1.90129e-05
-1.09691e-05
2.03244e-05
-1.20324e-05
2.16467e-05
-1.32504e-05
2.29318e-05
-1.45386e-05
2.41246e-05
-1.5668e-05
2.51969e-05
-1.61738e-05
2.61927e-05
-1.53965e-05
2.72311e-05
-1.2586e-05
2.89299e-05
-7.39248e-06
2.98414e-05
-2.09392e-06
2.82216e-05
3.55049e-06
2.53326e-05
9.02582e-06
2.31573e-05
1.31335e-05
2.21312e-05
1.52702e-05
2.16331e-05
1.56865e-05
2.10795e-05
1.50637e-05
2.02958e-05
1.40778e-05
1.9332e-05
1.31253e-05
1.82686e-05
1.23682e-05
1.71605e-05
1.18619e-05
1.60353e-05
1.16269e-05
1.48988e-05
1.16773e-05
1.37362e-05
1.20289e-05
1.25066e-05
1.26977e-05
1.1129e-05
1.36913e-05
9.45843e-06
1.49931e-05
7.25578e-06
1.65363e-05
4.18283e-06
1.81866e-05
1.94618e-05
1.53676e-06
-9.45931e-06
2.88933e-06
-9.56691e-06
4.00101e-06
-9.03211e-06
4.94162e-06
-8.59096e-06
5.77826e-06
-8.25536e-06
6.5613e-06
-8.02028e-06
7.32519e-06
-7.88083e-06
8.09241e-06
-7.83154e-06
8.87717e-06
-7.86657e-06
9.68833e-06
-7.98082e-06
1.05315e-05
-8.17104e-06
1.14103e-05
-8.43688e-06
1.23275e-05
-8.78148e-06
1.32852e-05
-9.21205e-06
1.42843e-05
-9.74001e-06
1.53239e-05
-1.03808e-05
1.63996e-05
-1.11522e-05
1.75007e-05
-1.20702e-05
1.86069e-05
-1.31385e-05
1.96851e-05
-1.43287e-05
2.06906e-05
-1.5544e-05
2.15821e-05
-1.65595e-05
2.23591e-05
-1.69508e-05
2.31296e-05
-1.6167e-05
2.4106e-05
-1.35624e-05
2.597e-05
-9.25644e-06
2.65839e-05
-2.70781e-06
2.51105e-05
5.0239e-06
2.29274e-05
1.12089e-05
2.12975e-05
1.47633e-05
2.03708e-05
1.61969e-05
1.97774e-05
1.62798e-05
1.91889e-05
1.56522e-05
1.84877e-05
1.4779e-05
1.7682e-05
1.39311e-05
1.68118e-05
1.32384e-05
1.59127e-05
1.27609e-05
1.50071e-05
1.25325e-05
1.4102e-05
1.25825e-05
1.31854e-05
1.29454e-05
1.22178e-05
1.36653e-05
1.11124e-05
1.47966e-05
9.70221e-06
1.64034e-05
7.69367e-06
1.85449e-05
4.62762e-06
2.12528e-05
2.40894e-05
1.4633e-06
-1.09226e-05
2.75832e-06
-1.08619e-05
3.83132e-06
-1.01051e-05
4.73776e-06
-9.49739e-06
5.53661e-06
-9.05421e-06
6.27565e-06
-8.75931e-06
6.98937e-06
-8.59455e-06
7.70125e-06
-8.54341e-06
8.42651e-06
-8.59184e-06
9.17464e-06
-8.72894e-06
9.95122e-06
-8.94762e-06
1.07594e-05
-9.24502e-06
1.16005e-05
-9.62263e-06
1.24747e-05
-1.00863e-05
1.33804e-05
-1.06457e-05
1.43135e-05
-1.13138e-05
1.52658e-05
-1.21044e-05
1.62227e-05
-1.30271e-05
1.71612e-05
-1.4077e-05
1.80488e-05
-1.52163e-05
1.88476e-05
-1.63428e-05
1.95317e-05
-1.72437e-05
2.01257e-05
-1.75448e-05
2.07671e-05
-1.68084e-05
2.16894e-05
-1.44848e-05
2.33375e-05
-1.09045e-05
2.3687e-05
-3.05733e-06
2.24395e-05
6.27138e-06
2.08623e-05
1.27862e-05
1.96623e-05
1.59633e-05
1.88677e-05
1.69915e-05
1.82709e-05
1.68767e-05
1.76949e-05
1.62283e-05
1.70662e-05
1.54076e-05
1.63807e-05
1.46166e-05
1.5659e-05
1.396e-05
1.49254e-05
1.34945e-05
1.41984e-05
1.32596e-05
1.34866e-05
1.32942e-05
1.27836e-05
1.36484e-05
1.20574e-05
1.43915e-05
1.12298e-05
1.56242e-05
1.01342e-05
1.7499e-05
8.43486e-06
2.02444e-05
5.49689e-06
2.41908e-05
2.95863e-05
1.38443e-06
-1.2307e-05
2.6182e-06
-1.20957e-05
3.65332e-06
-1.11402e-05
4.53247e-06
-1.03765e-05
5.30531e-06
-9.82705e-06
6.01489e-06
-9.46889e-06
6.69402e-06
-9.27368e-06
7.36596e-06
-9.21535e-06
8.04631e-06
-9.27219e-06
8.7449e-06
-9.42754e-06
9.46745e-06
-9.67016e-06
1.02167e-05
-9.99426e-06
1.09932e-05
-1.03992e-05
1.17958e-05
-1.08889e-05
1.26211e-05
-1.1471e-05
1.34628e-05
-1.21556e-05
1.43107e-05
-1.29523e-05
1.51486e-05
-1.3865e-05
1.59536e-05
-1.48821e-05
1.66966e-05
-1.59592e-05
1.7348e-05
-1.69943e-05
1.78956e-05
-1.77912e-05
1.83791e-05
-1.80283e-05
1.89367e-05
-1.7366e-05
1.97836e-05
-1.53318e-05
2.11536e-05
-1.22744e-05
2.12399e-05
-3.14369e-06
2.02225e-05
7.28876e-06
1.90993e-05
1.39093e-05
1.82224e-05
1.68402e-05
1.75682e-05
1.76457e-05
1.7022e-05
1.74229e-05
1.64913e-05
1.6759e-05
1.59346e-05
1.59643e-05
1.53481e-05
1.52031e-05
1.47454e-05
1.45627e-05
1.41449e-05
1.4095e-05
1.35642e-05
1.38403e-05
1.30155e-05
1.38429e-05
1.25017e-05
1.41622e-05
1.20081e-05
1.48852e-05
1.14854e-05
1.6147e-05
1.08107e-05
1.81737e-05
9.67677e-06
2.13784e-05
7.2291e-06
2.66385e-05
3.68154e-05
1.30697e-06
-1.3614e-05
2.48012e-06
-1.32689e-05
3.47842e-06
-1.21385e-05
4.33419e-06
-1.12323e-05
5.08814e-06
-1.0581e-05
5.77781e-06
-1.01586e-05
6.43324e-06
-9.92911e-06
7.0766e-06
-9.85871e-06
7.72325e-06
-9.91884e-06
8.38311e-06
-1.00874e-05
9.06191e-06
-1.0349e-05
9.76223e-06
-1.06946e-05
1.04841e-05
-1.11211e-05
1.12255e-05
-1.16303e-05
1.1982e-05
-1.22274e-05
1.27461e-05
-1.29197e-05
1.35068e-05
-1.3713e-05
1.4248e-05
-1.46062e-05
1.49486e-05
-1.55826e-05
1.55841e-05
-1.65947e-05
1.61332e-05
-1.75434e-05
1.65933e-05
-1.82514e-05
1.70099e-05
-1.84449e-05
1.75052e-05
-1.78613e-05
1.82558e-05
-1.60823e-05
1.93514e-05
-1.337e-05
1.92296e-05
-3.02192e-06
1.84095e-05
8.10879e-06
1.76117e-05
1.47072e-05
1.69749e-05
1.74769e-05
1.64523e-05
1.81682e-05
1.59791e-05
1.78962e-05
1.55095e-05
1.72286e-05
1.50238e-05
1.64499e-05
1.45225e-05
1.57043e-05
1.40174e-05
1.50678e-05
1.35253e-05
1.4587e-05
1.30647e-05
1.43009e-05
1.26533e-05
1.42542e-05
1.2307e-05
1.45085e-05
1.20372e-05
1.5155e-05
1.18465e-05
1.63378e-05
1.17095e-05
1.83106e-05
1.14751e-05
2.16129e-05
1.00994e-05
2.80142e-05
4.69149e-05
5.62729e-07
-5.62729e-07
1.48007e-06
-9.17359e-07
2.49847e-06
-1.01841e-06
3.43775e-06
-9.39266e-07
4.21773e-06
-7.79982e-07
4.81998e-06
-6.02242e-07
5.25619e-06
-4.36197e-07
5.55009e-06
-2.9389e-07
5.7278e-06
-1.77705e-07
5.81322e-06
-8.54208e-08
5.826e-06
-1.27816e-08
5.78271e-06
4.32893e-08
5.69721e-06
8.55042e-08
5.57983e-06
1.17381e-07
5.43814e-06
1.41691e-07
5.27768e-06
1.60472e-07
5.10244e-06
1.75232e-07
4.91538e-06
1.8705e-07
4.71873e-06
1.96651e-07
4.51428e-06
2.04455e-07
4.30363e-06
2.10663e-07
4.08827e-06
2.15363e-07
3.86962e-06
2.18644e-07
3.64896e-06
2.20658e-07
3.42732e-06
2.21642e-07
3.2054e-06
2.21914e-07
2.98355e-06
2.21856e-07
2.76165e-06
2.21898e-07
2.53914e-06
2.22504e-07
2.31497e-06
2.24173e-07
2.08754e-06
2.27428e-07
1.85477e-06
2.32777e-07
1.61419e-06
2.40586e-07
1.36343e-06
2.50788e-07
1.10113e-06
2.62328e-07
8.28934e-07
2.72232e-07
5.54906e-07
2.74064e-07
2.99352e-07
2.55591e-07
1.01129e-07
1.98266e-07
1.01179e-07
8.72958e-07
-1.43569e-06
1.8398e-06
-1.88421e-06
2.76306e-06
-1.94166e-06
3.57793e-06
-1.75413e-06
4.24743e-06
-1.44946e-06
4.764e-06
-1.1188e-06
5.13827e-06
-8.1046e-07
5.38918e-06
-5.44795e-07
5.53794e-06
-3.26468e-07
5.60479e-06
-1.52268e-07
5.60767e-06
-1.56601e-08
5.56088e-06
9.00844e-08
5.47508e-06
1.71312e-07
5.35909e-06
2.33371e-07
5.21998e-06
2.80806e-07
5.06321e-06
3.17235e-07
4.89301e-06
3.45432e-07
4.71261e-06
3.67451e-07
4.52452e-06
3.84751e-07
4.33067e-06
3.98306e-07
4.1326e-06
4.08737e-07
3.93149e-06
4.16463e-07
3.72832e-06
4.21825e-07
3.52379e-06
4.25188e-07
3.31843e-06
4.26999e-07
3.11254e-06
4.27801e-07
2.90616e-06
4.28224e-07
2.69909e-06
4.28971e-07
2.49079e-06
4.30809e-07
2.28039e-06
4.34576e-07
2.06667e-06
4.41153e-07
1.84809e-06
4.51378e-07
1.62292e-06
4.65799e-07
1.38957e-06
4.84179e-07
1.14732e-06
5.04639e-07
8.97313e-07
5.22295e-07
6.4425e-07
5.27186e-07
3.98224e-07
5.01686e-07
1.7487e-07
4.21699e-07
2.76083e-07
1.11241e-06
-2.54811e-06
2.12349e-06
-2.8953e-06
2.97101e-06
-2.78918e-06
3.66371e-06
-2.44683e-06
4.20907e-06
-1.99481e-06
4.61933e-06
-1.52906e-06
4.9107e-06
-1.10182e-06
5.10079e-06
-7.34888e-07
5.20702e-06
-4.32697e-07
5.24544e-06
-1.90682e-07
5.23009e-06
-3.07222e-10
5.17252e-06
1.47657e-07
5.08208e-06
2.61758e-07
4.96622e-06
3.49235e-07
4.83089e-06
4.16141e-07
4.6808e-06
4.67328e-07
4.51966e-06
5.06566e-07
4.35039e-06
5.36714e-07
4.17527e-06
5.59875e-07
3.99602e-06
5.77556e-07
3.81396e-06
5.90812e-07
3.63003e-06
6.00408e-07
3.44489e-06
6.06965e-07
3.259e-06
6.11074e-07
3.07262e-06
6.13366e-07
2.88587e-06
6.14544e-07
2.69872e-06
6.15386e-07
2.51094e-06
6.1675e-07
2.32217e-06
6.19581e-07
2.13183e-06
6.24913e-07
1.93915e-06
6.3383e-07
1.74322e-06
6.4733e-07
1.54301e-06
6.6603e-07
1.3376e-06
6.89617e-07
1.12634e-06
7.15936e-07
9.09064e-07
7.396e-07
6.86301e-07
7.49984e-07
4.58948e-07
7.29084e-07
2.27429e-07
6.53277e-07
5.03541e-07
1.27364e-06
-3.82176e-06
2.35298e-06
-3.97464e-06
3.16581e-06
-3.60203e-06
3.7663e-06
-3.04732e-06
4.20336e-06
-2.43187e-06
4.51284e-06
-1.83853e-06
4.72071e-06
-1.30969e-06
4.84657e-06
-8.60745e-07
4.90601e-06
-4.92136e-07
4.91196e-06
-1.96629e-07
4.87528e-06
3.63837e-08
4.80495e-06
2.1799e-07
4.70838e-06
3.58332e-07
4.5915e-06
4.66118e-07
4.45907e-06
5.48571e-07
4.31491e-06
6.11488e-07
4.16207e-06
6.59408e-07
4.00296e-06
6.95817e-07
3.8395e-06
7.23347e-07
3.67312e-06
7.43942e-07
3.50491e-06
7.59034e-07
3.33563e-06
7.697e-07
3.16577e-06
7.76816e-07
2.99567e-06
7.8117e-07
2.82549e-06
7.83541e-07
2.6553e-06
7.84735e-07
2.48508e-06
7.8562e-07
2.31469e-06
7.8714e-07
2.14393e-06
7.90331e-07
1.97252e-06
7.96321e-07
1.80007e-06
8.0628e-07
1.62612e-06
8.21293e-07
1.45009e-06
8.42077e-07
1.27124e-06
8.68487e-07
1.08847e-06
8.98719e-07
8.99985e-07
9.28102e-07
7.02582e-07
9.47413e-07
4.90477e-07
9.41227e-07
2.55391e-07
8.88412e-07
7.58956e-07
1.39226e-06
-5.21403e-06
2.56668e-06
-5.14907e-06
3.37775e-06
-4.4131e-06
3.90963e-06
-3.57922e-06
4.25298e-06
-2.77522e-06
4.46963e-06
-2.05518e-06
4.59741e-06
-1.43747e-06
4.6595e-06
-9.22828e-07
4.67093e-06
-5.03565e-07
4.64241e-06
-1.68101e-07
4.58219e-06
9.66122e-08
4.49694e-06
3.03248e-07
4.39211e-06
4.63167e-07
4.2721e-06
5.86121e-07
4.1405e-06
6.80173e-07
4.0002e-06
7.51792e-07
3.85354e-06
8.06071e-07
3.7024e-06
8.46961e-07
3.54827e-06
8.77486e-07
3.39229e-06
8.99931e-07
3.23531e-06
9.16022e-07
3.07792e-06
9.27092e-07
2.92051e-06
9.34221e-07
2.76333e-06
9.38352e-07
2.60651e-06
9.40367e-07
2.4501e-06
9.41146e-07
2.29412e-06
9.41605e-07
2.13853e-06
9.42722e-07
1.98329e-06
9.45565e-07
1.82832e-06
9.51287e-07
1.6735e-06
9.61102e-07
1.51862e-06
9.76185e-07
1.36323e-06
9.97472e-07
1.20645e-06
1.02528e-06
1.0465e-06
1.05868e-06
8.80071e-07
1.09455e-06
7.01264e-07
1.12624e-06
5.00439e-07
1.14208e-06
2.65743e-07
1.12315e-06
1.02472e-06
1.5063e-06
-6.72034e-06
2.81876e-06
-6.46154e-06
3.64997e-06
-5.24432e-06
4.1199e-06
-4.04916e-06
4.37259e-06
-3.0279e-06
4.49879e-06
-2.18138e-06
4.54803e-06
-1.48671e-06
4.54681e-06
-9.21601e-07
4.50973e-06
-4.66476e-07
4.44551e-06
-1.03878e-07
4.36009e-06
1.82032e-07
4.25799e-06
4.05351e-07
4.14282e-06
5.78347e-07
4.0175e-06
7.11446e-07
3.88445e-06
8.13226e-07
3.74566e-06
8.90579e-07
3.60278e-06
9.48951e-07
3.45715e-06
9.92595e-07
3.30985e-06
1.0248e-06
3.1617e-06
1.04808e-06
3.01334e-06
1.06439e-06
2.86519e-06
1.07524e-06
2.71755e-06
1.08187e-06
2.57059e-06
1.08532e-06
2.42442e-06
1.08654e-06
2.27909e-06
1.08647e-06
2.13466e-06
1.08603e-06
1.99117e-06
1.08621e-06
1.84867e-06
1.08806e-06
1.70723e-06
1.09273e-06
1.56685e-06
1.10148e-06
1.42739e-06
1.11565e-06
1.28834e-06
1.13652e-06
1.1485e-06
1.16513e-06
1.00541e-06
1.20177e-06
8.54622e-07
1.24534e-06
6.88677e-07
1.29221e-06
4.96327e-07
1.33446e-06
2.65288e-07
1.35422e-06
1.29001e-06
1.66302e-06
-8.38337e-06
3.18312e-06
-7.98165e-06
4.03733e-06
-6.09852e-06
4.42589e-06
-4.43773e-06
4.57415e-06
-3.17616e-06
4.60342e-06
-2.21066e-06
4.57153e-06
-1.45482e-06
4.50582e-06
-8.55887e-07
4.41925e-06
-3.79902e-07
4.31817e-06
-2.78723e-09
4.20612e-06
2.9409e-07
4.08547e-06
5.25995e-07
3.95806e-06
7.05764e-07
3.82537e-06
8.44131e-07
3.68871e-06
9.49884e-07
3.54921e-06
1.03009e-06
3.40782e-06
1.09035e-06
3.26537e-06
1.13505e-06
3.12253e-06
1.16765e-06
2.97983e-06
1.19078e-06
2.83769e-06
1.20654e-06
2.69638e-06
1.21656e-06
2.55608e-06
1.22217e-06
2.41692e-06
1.22448e-06
2.27896e-06
1.22451e-06
2.14226e-06
1.22317e-06
2.00689e-06
1.2214e-06
1.87294e-06
1.22016e-06
1.74053e-06
1.22047e-06
1.60975e-06
1.2235e-06
1.48065e-06
1.23058e-06
1.35303e-06
1.24328e-06
1.22618e-06
1.26336e-06
1.09857e-06
1.29274e-06
9.67188e-07
1.33316e-06
8.269e-07
1.38564e-06
6.69583e-07
1.44954e-06
4.83895e-07
1.52016e-06
2.58724e-07
1.57941e-06
1.54874e-06
1.91852e-06
-1.03019e-05
3.78615e-06
-9.84928e-06
4.60891e-06
-6.92128e-06
4.85521e-06
-4.68402e-06
4.86537e-06
-3.18632e-06
4.78224e-06
-2.12753e-06
4.66257e-06
-1.33516e-06
4.5295e-06
-7.22814e-07
4.39192e-06
-2.42313e-07
4.25277e-06
1.36368e-07
4.11281e-06
4.34045e-07
3.97218e-06
6.66625e-07
3.8309e-06
8.47049e-07
3.68906e-06
9.85966e-07
3.54688e-06
1.09206e-06
3.40466e-06
1.17231e-06
3.26271e-06
1.2323e-06
3.12136e-06
1.27642e-06
2.98089e-06
1.30813e-06
2.84154e-06
1.33013e-06
2.70351e-06
1.34458e-06
2.56693e-06
1.35315e-06
2.43188e-06
1.35723e-06
2.2984e-06
1.35797e-06
2.16653e-06
1.35638e-06
2.03631e-06
1.35339e-06
1.90781e-06
1.3499e-06
1.78113e-06
1.34684e-06
1.65639e-06
1.34521e-06
1.53369e-06
1.3462e-06
1.413e-06
1.35127e-06
1.294e-06
1.36227e-06
1.17579e-06
1.38158e-06
1.05648e-06
1.41205e-06
9.32718e-07
1.45692e-06
7.99063e-07
1.5193e-06
6.474e-07
1.6012e-06
4.67183e-07
1.70038e-06
2.49109e-07
1.79749e-06
1.79786e-06
2.82406e-06
-1.3126e-05
4.92371e-06
-1.19489e-05
5.4514e-06
-7.44896e-06
5.42662e-06
-4.65923e-06
5.24551e-06
-3.00522e-06
5.028e-06
-1.91002e-06
4.81182e-06
-1.11898e-06
4.60804e-06
-5.19024e-07
4.41803e-06
-5.22984e-08
4.23993e-06
3.14463e-07
4.0712e-06
6.02779e-07
3.90951e-06
8.28313e-07
3.75307e-06
1.00348e-06
3.60062e-06
1.13841e-06
3.45135e-06
1.24133e-06
3.30473e-06
1.31893e-06
3.16047e-06
1.37656e-06
3.01843e-06
1.41847e-06
2.87852e-06
1.44804e-06
2.74072e-06
1.46794e-06
2.60501e-06
1.48029e-06
2.47137e-06
1.4868e-06
2.33977e-06
1.48884e-06
2.21017e-06
1.48757e-06
2.08258e-06
1.48397e-06
1.95699e-06
1.47897e-06
1.83347e-06
1.47342e-06
1.71208e-06
1.46822e-06
1.59293e-06
1.46437e-06
1.47605e-06
1.46308e-06
1.36132e-06
1.466e-06
1.24825e-06
1.47534e-06
1.13572e-06
1.49411e-06
1.02161e-06
1.52616e-06
9.02384e-07
1.57615e-06
7.72578e-07
1.64911e-06
6.24529e-07
1.74925e-06
4.48928e-07
1.87599e-06
2.38396e-07
2.00804e-06
2.03627e-06
6.98098e-06
-2.01069e-05
7.19284e-06
-1.21608e-05
6.63476e-06
-6.89086e-06
6.13099e-06
-4.15546e-06
5.69669e-06
-2.57093e-06
5.32425e-06
-1.53758e-06
5.00513e-06
-7.99863e-07
4.72909e-06
-2.42983e-07
4.48658e-06
1.90216e-07
4.26963e-06
5.31413e-07
4.07195e-06
8.00463e-07
3.88869e-06
1.01157e-06
3.71629e-06
1.17588e-06
3.55219e-06
1.30251e-06
3.39458e-06
1.39894e-06
3.24222e-06
1.4713e-06
3.09424e-06
1.52455e-06
2.95003e-06
1.56268e-06
2.8092e-06
1.58888e-06
2.67144e-06
1.6057e-06
2.53654e-06
1.6152e-06
2.40432e-06
1.61903e-06
2.27466e-06
1.61851e-06
2.14744e-06
1.61479e-06
2.02259e-06
1.60882e-06
1.90009e-06
1.60147e-06
1.77994e-06
1.59357e-06
1.66218e-06
1.58598e-06
1.54684e-06
1.5797e-06
1.43389e-06
1.57603e-06
1.32307e-06
1.57682e-06
1.21374e-06
1.58468e-06
1.10459e-06
1.60326e-06
9.93332e-07
1.63741e-06
8.76382e-07
1.6931e-06
7.48488e-07
1.777e-06
6.02666e-07
1.89507e-06
4.30985e-07
2.04767e-06
2.27831e-07
2.21121e-06
2.26411e-06
1.25605e-06
-1.48701e-05
2.39154e-06
-1.44043e-05
3.37125e-06
-1.31182e-05
4.2203e-06
-1.20814e-05
4.97224e-06
-1.13329e-05
5.65964e-06
-1.0846e-05
6.30973e-06
-1.05792e-05
6.94337e-06
-1.04923e-05
7.57547e-06
-1.05509e-05
8.21589e-06
-1.07278e-05
8.87037e-06
-1.10035e-05
9.54141e-06
-1.13656e-05
1.02288e-05
-1.18085e-05
1.09299e-05
-1.23314e-05
1.16397e-05
-1.29372e-05
1.23503e-05
-1.36303e-05
1.30504e-05
-1.4413e-05
1.37248e-05
-1.52806e-05
1.43547e-05
-1.62126e-05
1.49203e-05
-1.71604e-05
1.5407e-05
-1.803e-05
1.58187e-05
-1.86631e-05
1.62008e-05
-1.88271e-05
1.66519e-05
-1.83124e-05
1.73071e-05
-1.67375e-05
1.81651e-05
-1.4228e-05
1.78878e-05
-2.74462e-06
1.72218e-05
8.77476e-06
1.66484e-05
1.52806e-05
1.61829e-05
1.79424e-05
1.57685e-05
1.85826e-05
1.53663e-05
1.82984e-05
1.49557e-05
1.76393e-05
1.45307e-05
1.68749e-05
1.40966e-05
1.61384e-05
1.3666e-05
1.54984e-05
1.3256e-05
1.49971e-05
1.28872e-05
1.46697e-05
1.25839e-05
1.45575e-05
1.23763e-05
1.47161e-05
1.23071e-05
1.52241e-05
1.24482e-05
1.61967e-05
1.29404e-05
1.78183e-05
1.41139e-05
2.04396e-05
1.749e-05
2.46382e-05
3.04544e-05
3.39506e-05
1.19865e-06
-1.60687e-05
2.28854e-06
-1.54942e-05
3.24074e-06
-1.40705e-05
4.07518e-06
-1.29158e-05
4.81921e-06
-1.2077e-05
5.50051e-06
-1.15272e-05
6.14301e-06
-1.12217e-05
6.76569e-06
-1.1115e-05
7.38249e-06
-1.11677e-05
8.00284e-06
-1.13482e-05
8.63232e-06
-1.16329e-05
9.27328e-06
-1.20066e-05
9.92536e-06
-1.24606e-05
1.05858e-05
-1.29918e-05
1.12493e-05
-1.36007e-05
1.19081e-05
-1.42891e-05
1.25514e-05
-1.50564e-05
1.31658e-05
-1.58949e-05
1.37352e-05
-1.67821e-05
1.42444e-05
-1.76695e-05
1.46839e-05
-1.84695e-05
1.50613e-05
-1.90405e-05
1.54169e-05
-1.91827e-05
1.58248e-05
-1.87202e-05
1.63808e-05
-1.72935e-05
1.70211e-05
-1.48682e-05
1.66441e-05
-2.36767e-06
1.6104e-05
9.31489e-06
1.56969e-05
1.56876e-05
1.53657e-05
1.82736e-05
1.50484e-05
1.89e-05
1.47194e-05
1.86273e-05
1.4372e-05
1.79867e-05
1.40087e-05
1.72381e-05
1.36387e-05
1.65084e-05
1.32755e-05
1.58617e-05
1.29369e-05
1.53357e-05
1.26452e-05
1.49614e-05
1.24294e-05
1.47734e-05
1.23295e-05
1.48159e-05
1.24079e-05
1.51457e-05
1.27731e-05
1.58315e-05
1.3646e-05
1.69454e-05
1.5566e-05
1.85197e-05
1.9914e-05
2.02902e-05
2.11579e-05
2.92106e-05
1.14577e-06
-1.72145e-05
2.19267e-06
-1.65411e-05
3.11732e-06
-1.49951e-05
3.93605e-06
-1.37345e-05
4.67141e-06
-1.28123e-05
5.34678e-06
-1.22026e-05
5.98297e-06
-1.18579e-05
6.5969e-06
-1.1729e-05
7.20131e-06
-1.17721e-05
7.80497e-06
-1.19518e-05
8.41317e-06
-1.22411e-05
9.0281e-06
-1.26215e-05
9.64933e-06
-1.30818e-05
1.02741e-05
-1.36165e-05
1.08972e-05
-1.42239e-05
1.15113e-05
-1.49033e-05
1.21068e-05
-1.56519e-05
1.26717e-05
-1.64599e-05
1.31931e-05
-1.73035e-05
1.36593e-05
-1.81357e-05
1.40648e-05
-1.8875e-05
1.44185e-05
-1.93942e-05
1.4754e-05
-1.95182e-05
1.51249e-05
-1.90912e-05
1.55969e-05
-1.77654e-05
1.60528e-05
-1.53241e-05
1.56124e-05
-1.92734e-06
1.51676e-05
9.75968e-06
1.48799e-05
1.59753e-05
1.46502e-05
1.85033e-05
1.44138e-05
1.91364e-05
1.41514e-05
1.88897e-05
1.38634e-05
1.82747e-05
1.3557e-05
1.75444e-05
1.32437e-05
1.68218e-05
1.29377e-05
1.61677e-05
1.2657e-05
1.56163e-05
1.24246e-05
1.51937e-05
1.2271e-05
1.4927e-05
1.22393e-05
1.48476e-05
1.23955e-05
1.49895e-05
1.28472e-05
1.53798e-05
1.37822e-05
1.60104e-05
1.55359e-05
1.6766e-05
1.85851e-05
1.7241e-05
1.63195e-05
2.34236e-05
1.09689e-06
-1.83114e-05
2.10323e-06
-1.75475e-05
3.00045e-06
-1.58923e-05
3.80228e-06
-1.45364e-05
4.52757e-06
-1.35376e-05
5.19611e-06
-1.28712e-05
5.82588e-06
-1.24877e-05
6.43179e-06
-1.23349e-05
7.02526e-06
-1.23656e-05
7.61431e-06
-1.25409e-05
8.20377e-06
-1.28306e-05
8.79567e-06
-1.32134e-05
9.38955e-06
-1.36757e-05
9.98273e-06
-1.42097e-05
1.05705e-05
-1.48116e-05
1.1146e-05
-1.54788e-05
1.17007e-05
-1.62066e-05
1.22246e-05
-1.69837e-05
1.27072e-05
-1.77861e-05
1.31399e-05
-1.85684e-05
1.35197e-05
-1.92548e-05
1.38556e-05
-1.973e-05
1.41748e-05
-1.98375e-05
1.45156e-05
-1.9432e-05
1.49225e-05
-1.81722e-05
1.52199e-05
-1.56216e-05
1.47429e-05
-1.45041e-06
1.43712e-05
1.01315e-05
1.41698e-05
1.61767e-05
1.40167e-05
1.86564e-05
1.38462e-05
1.93069e-05
1.36421e-05
1.90938e-05
1.34076e-05
1.85092e-05
1.31524e-05
1.77996e-05
1.28887e-05
1.70855e-05
1.2631e-05
1.64254e-05
1.23968e-05
1.58505e-05
1.22082e-05
1.53823e-05
1.20946e-05
1.50406e-05
1.20968e-05
1.48453e-05
1.22741e-05
1.48123e-05
1.27139e-05
1.494e-05
1.35438e-05
1.51805e-05
1.49298e-05
1.53801e-05
1.69975e-05
1.51733e-05
1.38447e-05
1.94723e-05
1.05146e-06
-1.93628e-05
2.0194e-06
-1.85154e-05
2.88938e-06
-1.67623e-05
3.67317e-06
-1.53202e-05
4.38675e-06
-1.42512e-05
5.04699e-06
-1.35314e-05
5.66943e-06
-1.31101e-05
6.26708e-06
-1.29325e-05
6.85006e-06
-1.29486e-05
7.42555e-06
-1.31164e-05
7.99792e-06
-1.3403e-05
8.56898e-06
-1.37845e-05
9.13827e-06
-1.4245e-05
9.70329e-06
-1.47747e-05
1.02597e-05
-1.5368e-05
1.08016e-05
-1.60206e-05
1.13214e-05
-1.67264e-05
1.18107e-05
-1.74731e-05
1.22614e-05
-1.82367e-05
1.26671e-05
-1.89741e-05
1.30265e-05
-1.96142e-05
1.33479e-05
-2.00514e-05
1.36535e-05
-2.01431e-05
1.39703e-05
-1.97488e-05
1.43293e-05
-1.85312e-05
1.44856e-05
-1.57779e-05
1.39921e-05
-9.56854e-07
1.36788e-05
1.04448e-05
1.35417e-05
1.63138e-05
1.34471e-05
1.87511e-05
1.333e-05
1.9424e-05
1.31756e-05
1.92482e-05
1.29882e-05
1.86966e-05
1.27781e-05
1.80097e-05
1.25576e-05
1.7306e-05
1.23406e-05
1.66424e-05
1.21434e-05
1.60477e-05
1.19863e-05
1.55394e-05
1.18958e-05
1.51312e-05
1.19071e-05
1.4834e-05
1.20682e-05
1.46511e-05
1.24426e-05
1.45657e-05
1.31059e-05
1.45172e-05
1.4122e-05
1.4364e-05
1.54551e-05
1.38402e-05
1.25617e-05
1.67381e-05
1.00895e-06
-2.03718e-05
1.9403e-06
-1.94467e-05
2.78324e-06
-1.76053e-05
3.54798e-06
-1.60849e-05
4.24825e-06
-1.49515e-05
4.89855e-06
-1.41817e-05
5.51231e-06
-1.37239e-05
6.10088e-06
-1.35211e-05
6.67318e-06
-1.35209e-05
7.23553e-06
-1.36787e-05
7.7918e-06
-1.39592e-05
8.34358e-06
-1.43363e-05
8.89043e-06
-1.47918e-05
9.43007e-06
-1.53143e-05
9.95864e-06
-1.58966e-05
1.04709e-05
-1.65329e-05
1.09605e-05
-1.7216e-05
1.14204e-05
-1.79331e-05
1.18443e-05
-1.86606e-05
1.22274e-05
-1.93572e-05
1.25697e-05
-1.99565e-05
1.28787e-05
-2.03604e-05
1.31725e-05
-2.04368e-05
1.34703e-05
-2.00466e-05
1.37947e-05
-1.88557e-05
1.3819e-05
-1.58022e-05
1.33232e-05
-4.60961e-07
1.30609e-05
1.0707e-05
1.29748e-05
1.63999e-05
1.29261e-05
1.87998e-05
1.28523e-05
1.94978e-05
1.27399e-05
1.93605e-05
1.25935e-05
1.88431e-05
1.24228e-05
1.81804e-05
1.22396e-05
1.74892e-05
1.20569e-05
1.68251e-05
1.18893e-05
1.62153e-05
1.17548e-05
1.5674e-05
1.16757e-05
1.52103e-05
1.1681e-05
1.48288e-05
1.18067e-05
1.45254e-05
1.20948e-05
1.42776e-05
1.25843e-05
1.40277e-05
1.32847e-05
1.36636e-05
1.41133e-05
1.30116e-05
1.18708e-05
1.48043e-05
9.6882e-07
-2.13406e-05
1.86508e-06
-2.0343e-05
2.68119e-06
-1.84214e-05
3.42605e-06
-1.68298e-05
4.11155e-06
-1.5637e-05
4.75029e-06
-1.48204e-05
5.35392e-06
-1.43275e-05
5.93237e-06
-1.40995e-05
6.49342e-06
-1.40819e-05
7.04262e-06
-1.42279e-05
7.58336e-06
-1.45e-05
8.117e-06
-1.48699e-05
8.64311e-06
-1.53179e-05
9.15964e-06
-1.58309e-05
9.6632e-06
-1.64001e-05
1.01492e-05
-1.70189e-05
1.06124e-05
-1.76791e-05
1.10469e-05
-1.83677e-05
1.14477e-05
-1.90614e-05
1.18116e-05
-1.97211e-05
1.2139e-05
-2.02839e-05
1.24368e-05
-2.06582e-05
1.27202e-05
-2.07202e-05
1.30025e-05
-2.03289e-05
1.33011e-05
-1.91543e-05
1.31919e-05
-1.5693e-05
1.27062e-05
2.46952e-08
1.24943e-05
1.0919e-05
1.24523e-05
1.64419e-05
1.24414e-05
1.88108e-05
1.24035e-05
1.95357e-05
1.23266e-05
1.94374e-05
1.22152e-05
1.89546e-05
1.20785e-05
1.83171e-05
1.19275e-05
1.76402e-05
1.17737e-05
1.69789e-05
1.16303e-05
1.63588e-05
1.15122e-05
1.5792e-05
1.14381e-05
1.52844e-05
1.14302e-05
1.48367e-05
1.15145e-05
1.44412e-05
1.17168e-05
1.40753e-05
1.20539e-05
1.36905e-05
1.25126e-05
1.32049e-05
1.30153e-05
1.25089e-05
1.14954e-05
1.33907e-05
9.30582e-07
-2.22712e-05
1.79295e-06
-2.12054e-05
2.58243e-06
-1.92108e-05
3.30674e-06
-1.75541e-05
3.97626e-06
-1.63065e-05
4.602e-06
-1.54462e-05
5.19414e-06
-1.49196e-05
5.76135e-06
-1.46668e-05
6.31045e-06
-1.4631e-05
6.84629e-06
-1.47638e-05
7.3718e-06
-1.50255e-05
7.88813e-06
-1.53862e-05
8.39486e-06
-1.58246e-05
8.89016e-06
-1.63262e-05
9.37106e-06
-1.6881e-05
9.83364e-06
-1.74815e-05
1.02734e-05
-1.81189e-05
1.06857e-05
-1.87799e-05
1.10664e-05
-1.94421e-05
1.14132e-05
-2.00679e-05
1.17272e-05
-2.05979e-05
1.20146e-05
-2.09456e-05
1.22885e-05
-2.09941e-05
1.25586e-05
-2.05989e-05
1.28392e-05
-1.9435e-05
1.25867e-05
-1.54404e-05
1.21238e-05
4.8757e-07
1.19642e-05
1.10787e-05
1.1963e-05
1.64431e-05
1.19845e-05
1.87894e-05
1.19766e-05
1.95436e-05
1.19296e-05
1.94844e-05
1.1848e-05
1.90362e-05
1.17405e-05
1.84246e-05
1.1617e-05
1.77637e-05
1.14878e-05
1.71081e-05
1.13643e-05