/*--------------------------------*- C++ -*----------------------------------*\
  =========                 |
  \\      /  F ield         | OpenFOAM: The Open Source CFD Toolbox
   \\    /   O peration     | Website:  https://openfoam.org
    \\  /    A nd           | Version:  9
     \\/     M anipulation  |
\*---------------------------------------------------------------------------*/
FoamFile
{
    format      ascii;
    class       volVectorField;
    location    "0.05";
    object      U;
}
// * * * * * * * * * * * * * * * * * * * * * * * * * * * * * * * * * * * * * //

dimensions      [0 1 -1 0 0 0 0];

internalField   nonuniform List<vector> 
7700
(
(0.00402798 -0.00356596 0)
(0.0167088 -0.00802097 0)
(0.0371242 -0.0108518 0)
(0.0604593 -0.0118931 0)
(0.0847254 -0.0119328 0)
(0.108787 -0.0115707 0)
(0.132184 -0.0111271 0)
(0.154881 -0.0107564 0)
(0.17706 -0.0105232 0)
(0.198996 -0.0104461 0)
(0.220995 -0.010524 0)
(0.243362 -0.0107525 0)
(0.266406 -0.0111321 0)
(0.290451 -0.0116736 0)
(0.315863 -0.0124015 0)
(0.343077 -0.0133596 0)
(0.372642 -0.0146196 0)
(0.405311 -0.016288 0)
(0.441935 -0.0185632 0)
(0.484359 -0.0214924 0)
(0.532178 -0.0259061 0)
(0.590646 -0.0320638 0)
(0.657133 -0.0358351 0)
(0.717089 -0.0325887 0)
(0.760257 -0.0244059 0)
(0.791925 -0.0296268 0)
(0.831876 -0.0629213 0)
(0.881782 -0.116526 0)
(0.933869 -0.164269 0)
(0.895874 -0.10918 0)
(0.826774 -0.045535 0)
(0.722104 0.0175985 0)
(0.614606 0.0320993 0)
(0.532264 0.028786 0)
(0.474661 0.0226794 0)
(0.428259 0.0190541 0)
(0.387028 0.0174942 0)
(0.34828 0.01698 0)
(0.31004 0.0171718 0)
(0.270858 0.0179514 0)
(0.229585 0.0192065 0)
(0.18545 0.0207281 0)
(0.138362 0.0220663 0)
(0.0896633 0.0221152 0)
(0.0437946 0.0185128 0)
(0.0114949 0.0101543 0)
(0.00860743 -0.0118897 0)
(0.0250805 -0.0205355 0)
(0.0448351 -0.0254536 0)
(0.0658522 -0.027467 0)
(0.0870977 -0.0277153 0)
(0.10812 -0.0271499 0)
(0.128746 -0.0263628 0)
(0.148984 -0.0256813 0)
(0.168959 -0.0252643 0)
(0.188864 -0.0251744 0)
(0.208923 -0.0254274 0)
(0.229378 -0.0260257 0)
(0.25048 -0.0269794 0)
(0.2725 -0.0283195 0)
(0.295744 -0.0301083 0)
(0.320578 -0.0324515 0)
(0.347458 -0.0355143 0)
(0.376976 -0.0395336 0)
(0.409844 -0.0448624 0)
(0.44709 -0.0517418 0)
(0.48914 -0.0608284 0)
(0.537027 -0.070987 0)
(0.589981 -0.0764976 0)
(0.638536 -0.0706494 0)
(0.680239 -0.0501538 0)
(0.726628 -0.022193 0)
(0.765977 -0.00180909 0)
(0.740512 0.0170287 0)
(0.731274 0.0730459 0)
(0.778137 0.0950331 0)
(0.743743 0.130786 0)
(0.670132 0.135324 0)
(0.585098 0.108759 0)
(0.521212 0.0796555 0)
(0.469011 0.0608971 0)
(0.423995 0.0510155 0)
(0.384016 0.0462387 0)
(0.346862 0.04434 0)
(0.310723 0.0444193 0)
(0.274175 0.0460644 0)
(0.236039 0.0489246 0)
(0.195408 0.0524226 0)
(0.151831 0.0553763 0)
(0.105775 0.0553811 0)
(0.0604007 0.0485232 0)
(0.0209761 0.0327372 0)
(0.0120188 -0.0258431 0)
(0.0307448 -0.0349083 0)
(0.0497207 -0.0395901 0)
(0.0684129 -0.0415339 0)
(0.0866639 -0.0416865 0)
(0.104583 -0.0409771 0)
(0.122274 -0.0400438 0)
(0.139832 -0.0392653 0)
(0.15737 -0.0388416 0)
(0.175026 -0.0388635 0)
(0.192959 -0.0393653 0)
(0.211343 -0.0403631 0)
(0.230369 -0.0418814 0)
(0.250249 -0.0439715 0)
(0.271227 -0.0467275 0)
(0.29359 -0.0503018 0)
(0.317692 -0.0549211 0)
(0.343961 -0.0608963 0)
(0.372877 -0.0686135 0)
(0.40498 -0.0783643 0)
(0.440387 -0.0902794 0)
(0.479029 -0.102708 0)
(0.520491 -0.110116 0)
(0.555698 -0.104609 0)
(0.588769 -0.0793659 0)
(0.629996 -0.0380003 0)
(0.651359 0.000885047 0)
(0.604499 -0.048282 0)
(0.567855 -0.0454813 0)
(0.544541 0.037278 0)
(0.516209 0.117801 0)
(0.485974 0.153421 0)
(0.464815 0.138725 0)
(0.438915 0.111259 0)
(0.407145 0.0908125 0)
(0.374603 0.0786083 0)
(0.343164 0.07202 0)
(0.312694 0.0691664 0)
(0.282526 0.0691307 0)
(0.251893 0.071412 0)
(0.220043 0.0755431 0)
(0.186283 0.0807404 0)
(0.14999 0.085456 0)
(0.110729 0.0868076 0)
(0.0697391 0.0807374 0)
(0.0278542 0.0651727 0)
(0.0135825 -0.0422621 0)
(0.0336545 -0.0503237 0)
(0.0520895 -0.053454 0)
(0.0690703 -0.0545399 0)
(0.0850251 -0.0542414 0)
(0.100449 -0.0533024 0)
(0.115675 -0.0522774 0)
(0.1309 -0.0515115 0)
(0.146266 -0.0511949 0)
(0.161892 -0.0514202 0)
(0.177894 -0.0522292 0)
(0.194397 -0.0536486 0)
(0.211538 -0.0557161 0)
(0.229475 -0.0585017 0)
(0.248385 -0.0621241 0)
(0.268477 -0.0667663 0)
(0.289992 -0.0726891 0)
(0.313194 -0.0802282 0)
(0.338323 -0.0897501 0)
(0.365541 -0.101465 0)
(0.394628 -0.115118 0)
(0.425132 -0.12866 0)
(0.45632 -0.136549 0)
(0.479421 -0.130357 0)
(0.504702 -0.10146 0)
(0.534551 -0.0481857 0)
(0.542642 0.00407866 0)
(0.535543 -0.0124661 0)
(0.487052 0.00388562 0)
(0.43353 0.0671768 0)
(0.402465 0.134381 0)
(0.393823 0.159535 0)
(0.389675 0.148722 0)
(0.37638 0.12798 0)
(0.355447 0.110849 0)
(0.331581 0.099456 0)
(0.307037 0.0927485 0)
(0.282441 0.0897457 0)
(0.25774 0.0898608 0)
(0.232595 0.0927173 0)
(0.206514 0.0979052 0)
(0.178829 0.104669 0)
(0.148582 0.1115 0)
(0.114496 0.115683 0)
(0.0763009 0.113612 0)
(0.0323264 0.102816 0)
(0.0139271 -0.0596074 0)
(0.0344831 -0.0658749 0)
(0.0524797 -0.0666822 0)
(0.06829 -0.0663812 0)
(0.0826328 -0.0653571 0)
(0.0962222 -0.0640962 0)
(0.109547 -0.0629949 0)
(0.1229 -0.0623082 0)
(0.136463 -0.0621783 0)
(0.150362 -0.0626758 0)
(0.164695 -0.0638365 0)
(0.179553 -0.0656902 0)
(0.195032 -0.0682837 0)
(0.211239 -0.0716996 0)
(0.228291 -0.0760711 0)
(0.246319 -0.0815951 0)
(0.265458 -0.0885377 0)
(0.28582 -0.0972177 0)
(0.307441 -0.107932 0)
(0.330207 -0.120744 0)
(0.353674 -0.135073 0)
(0.377244 -0.148597 0)
(0.399844 -0.155882 0)
(0.414309 -0.148491 0)
(0.433101 -0.117685 0)
(0.452106 -0.0553427 0)
(0.477125 -0.00957878 0)
(0.481335 0.0100123 0)
(0.431239 0.0480546 0)
(0.377779 0.10504 0)
(0.351232 0.148054 0)
(0.344775 0.16196 0)
(0.34065 0.153959 0)
(0.330437 0.138957 0)
(0.31482 0.12543 0)
(0.296486 0.115525 0)
(0.277065 0.1093 0)
(0.257256 0.106468 0)
(0.237234 0.106797 0)
(0.216868 0.110124 0)
(0.195767 0.116212 0)
(0.173183 0.12453 0)
(0.147803 0.133922 0)
(0.117632 0.142251 0)
(0.0812282 0.146604 0)
(0.0352808 0.143654 0)
(0.0136435 -0.0769869 0)
(0.0340091 -0.0811944 0)
(0.0515389 -0.0793518 0)
(0.0665329 -0.0773458 0)
(0.079782 -0.0753804 0)
(0.092086 -0.0736872 0)
(0.104019 -0.0724751 0)
(0.115943 -0.0718783 0)
(0.128079 -0.0719652 0)
(0.140567 -0.0727655 0)
(0.153503 -0.0742948 0)
(0.166958 -0.0765767 0)
(0.180997 -0.0796596 0)
(0.195687 -0.0836306 0)
(0.211093 -0.0886268 0)
(0.227276 -0.0948422 0)
(0.244278 -0.102525 0)
(0.262089 -0.111946 0)
(0.280593 -0.123302 0)
(0.299503 -0.136494 0)
(0.318262 -0.150691 0)
(0.336269 -0.163431 0)
(0.352352 -0.169504 0)
(0.361364 -0.161196 0)
(0.375704 -0.130381 0)
(0.389831 -0.0703086 0)
(0.436249 -0.0196556 0)
(0.431324 0.0292071 0)
(0.383328 0.0839454 0)
(0.341152 0.131508 0)
(0.320413 0.159498 0)
(0.311883 0.166335 0)
(0.305394 0.159486 0)
(0.295854 0.147932 0)
(0.283109 0.136871 0)
(0.268434 0.128239 0)
(0.252825 0.12256 0)
(0.236844 0.119948 0)
(0.220715 0.120451 0)
(0.204389 0.124132 0)
(0.187506 0.131011 0)
(0.169236 0.140934 0)
(0.147972 0.153342 0)
(0.121123 0.166961 0)
(0.0862541 0.179731 0)
(0.0380554 0.187355 0)
(0.0130668 -0.093902 0)
(0.0328085 -0.0960695 0)
(0.0497994 -0.0915594 0)
(0.0641845 -0.0877136 0)
(0.0766953 -0.0846639 0)
(0.0881251 -0.082433 0)
(0.0990763 -0.0810475 0)
(0.109946 -0.0805104 0)
(0.120986 -0.0808036 0)
(0.132353 -0.0819021 0)
(0.144144 -0.0837905 0)
(0.156422 -0.0864763 0)
(0.169232 -0.090001 0)
(0.182607 -0.0944479 0)
(0.196569 -0.0999474 0)
(0.211126 -0.106678 0)
(0.226246 -0.114853 0)
(0.241831 -0.12468 0)
(0.257667 -0.136247 0)
(0.273375 -0.149307 0)
(0.288386 -0.162861 0)
(0.302192 -0.174433 0)
(0.31376 -0.179188 0)
(0.319477 -0.170602 0)
(0.331454 -0.141416 0)
(0.344541 -0.0908678 0)
(0.395309 -0.0270845 0)
(0.382908 0.0465987 0)
(0.341754 0.110694 0)
(0.312257 0.151608 0)
(0.295699 0.170055 0)
(0.286159 0.172391 0)
(0.278324 0.165731 0)
(0.269183 0.155882 0)
(0.258305 0.146298 0)
(0.246218 0.138545 0)
(0.233503 0.133274 0)
(0.220577 0.130801 0)
(0.20765 0.131374 0)
(0.194717 0.135269 0)
(0.181458 0.142811 0)
(0.167028 0.154328 0)
(0.149667 0.170053 0)
(0.126323 0.189876 0)
(0.0937304 0.212987 0)
(0.0422934 0.234943 0)
(0.0123707 -0.110095 0)
(0.0312557 -0.110362 0)
(0.0476448 -0.103342 0)
(0.0615359 -0.0976587 0)
(0.0735388 -0.0934552 0)
(0.0843845 -0.0906054 0)
(0.0946605 -0.0889774 0)
(0.104774 -0.088449 0)
(0.114991 -0.0889113 0)
(0.125483 -0.0902784 0)
(0.136351 -0.0924953 0)
(0.147653 -0.0955459 0)
(0.159421 -0.0994567 0)
(0.171665 -0.104299 0)
(0.184376 -0.11019 0)
(0.197517 -0.117281 0)
(0.211009 -0.125744 0)
(0.224694 -0.135716 0)
(0.23831 -0.147188 0)
(0.251452 -0.15979 0)
(0.263602 -0.172436 0)
(0.274395 -0.182746 0)
(0.283016 -0.1864 0)
(0.286821 -0.178125 0)
(0.297418 -0.151655 0)
(0.309963 -0.109563 0)
(0.356447 -0.03211 0)
(0.33898 0.0614025 0)
(0.307216 0.130601 0)
(0.287095 0.166587 0)
(0.27404 0.17936 0)
(0.264774 0.178962 0)
(0.256739 0.172086 0)
(0.248213 0.163038 0)
(0.238778 0.154275 0)
(0.228655 0.147048 0)
(0.218199 0.141997 0)
(0.207723 0.139528 0)
(0.197436 0.140023 0)
(0.187382 0.143948 0)
(0.177339 0.151928 0)
(0.166586 0.164816 0)
(0.153463 0.183782 0)
(0.134743 0.210305 0)
(0.107052 0.246028 0)
(0.0506279 0.290156 0)
(0.0116475 -0.125456 0)
(0.029584 -0.124001 0)
(0.0453378 -0.114709 0)
(0.0587971 -0.107277 0)
(0.0704344 -0.101911 0)
(0.0808905 -0.0983909 0)
(0.0907109 -0.096459 0)
(0.100291 -0.095881 0)
(0.109902 -0.0964617 0)
(0.119719 -0.098052 0)
(0.129848 -0.100553 0)
(0.140347 -0.103919 0)
(0.151237 -0.108155 0)
(0.162514 -0.113316 0)
(0.174146 -0.119495 0)
(0.186069 -0.126817 0)
(0.19817 -0.135407 0)
(0.210264 -0.145337 0)
(0.222074 -0.156513 0)
(0.233214 -0.168483 0)
(0.243251 -0.180134 0)
(0.251974 -0.189253 0)
(0.25873 -0.192094 0)
(0.261468 -0.184542 0)
(0.271051 -0.161199 0)
(0.282985 -0.125813 0)
(0.322471 -0.0342182 0)
(0.30216 0.0735976 0)
(0.278709 0.144871 0)
(0.265083 0.177588 0)
(0.254947 0.187176 0)
(0.246679 0.185193 0)
(0.239174 0.178095 0)
(0.23146 0.169419 0)
(0.223271 0.161091 0)
(0.214726 0.15413 0)
(0.206076 0.149125 0)
(0.197588 0.146513 0)
(0.189486 0.146756 0)
(0.181905 0.15046 0)
(0.1748 0.158495 0)
(0.167769 0.172182 0)
(0.159641 0.193633 0)
(0.147708 0.226403 0)
(0.131512 0.277531 0)
(0.0672519 0.357309 0)
(0.0109537 -0.139971 0)
(0.0279404 -0.136978 0)
(0.0430552 -0.125672 0)
(0.0561168 -0.116626 0)
(0.0674711 -0.110131 0)
(0.0776607 -0.105918 0)
(0.0871747 -0.103634 0)
(0.0963832 -0.10295 0)
(0.105549 -0.103594 0)
(0.114849 -0.105354 0)
(0.12439 -0.108087 0)
(0.134229 -0.111713 0)
(0.144382 -0.116213 0)
(0.154836 -0.121617 0)
(0.165544 -0.127997 0)
(0.176426 -0.135444 0)
(0.187353 -0.144041 0)
(0.198132 -0.153801 0)
(0.208496 -0.164566 0)
(0.218105 -0.175835 0)
(0.226619 -0.186514 0)
(0.233962 -0.194593 0)
(0.239548 -0.196877 0)
(0.2417 -0.19019 0)
(0.250383 -0.169828 0)
(0.261572 -0.139083 0)
(0.293402 -0.0337901 0)
(0.272278 0.0834834 0)
(0.255275 0.155002 0)
(0.246105 0.185601 0)
(0.238348 0.19348 0)
(0.231357 0.190705 0)
(0.224711 0.183496 0)
(0.217913 0.175022 0)
(0.210842 0.166918 0)
(0.203609 0.160053 0)
(0.196431 0.154957 0)
(0.189563 0.152064 0)
(0.183271 0.151866 0)
(0.177808 0.155035 0)
(0.173384 0.162569 0)
(0.170105 0.176045 0)
(0.167789 0.198198 0)
(0.165541 0.234501 0)
(0.168026 0.299976 0)
(0.0983998 0.466957 0)
(0.00381368 -0.00312104 0)
(0.0142926 -0.00580051 0)
(0.0284567 -0.00670758 0)
(0.0425725 -0.00621283 0)
(0.0548946 -0.00512511 0)
(0.0647581 -0.00392796 0)
(0.0721431 -0.00283026 0)
(0.0773164 -0.00190318 0)
(0.080642 -0.00115433 0)
(0.0824842 -0.000563141 0)
(0.0831632 -9.87174e-05 0)
(0.0829103 0.000259463 0)
(0.0819705 0.000527964 0)
(0.0805082 0.000729443 0)
(0.0786478 0.000882121 0)
(0.0764824 0.0009994 0)
(0.0740797 0.00109131 0)
(0.071489 0.00116511 0)
(0.0687469 0.00122568 0)
(0.0658819 0.00127582 0)
(0.0629181 0.00131669 0)
(0.0598773 0.00134857 0)
(0.0567801 0.00137161 0)
(0.0536453 0.0013864 0)
(0.0504893 0.00139413 0)
(0.0473246 0.00139666 0)
(0.0441586 0.00139637 0)
(0.0409929 0.00139604 0)
(0.037823 0.00139874 0)
(0.0346374 0.00140779 0)
(0.0314172 0.00142681 0)
(0.0281365 0.00145947 0)
(0.0247626 0.00150891 0)
(0.0212606 0.00157591 0)
(0.0176028 0.00165515 0)
(0.0137888 0.00172828 0)
(0.00988134 0.00175047 0)
(0.00606993 0.00162708 0)
(0.00271211 0.00121579 0)
(0.000641677 0.000565395 0)
(0.00687186 -0.00987673 0)
(0.0195132 -0.0145367 0)
(0.0330389 -0.0157195 0)
(0.045621 -0.014462 0)
(0.0562657 -0.0120248 0)
(0.0647057 -0.00929741 0)
(0.0710152 -0.00673978 0)
(0.0754196 -0.00454038 0)
(0.0782143 -0.00273983 0)
(0.0797012 -0.0013081 0)
(0.0801517 -0.000186578 0)
(0.0798083 0.000680718 0)
(0.0788359 0.0013418 0)
(0.0773742 0.00184442 0)
(0.075536 0.00222778 0)
(0.0734103 0.0025224 0)
(0.0710658 0.00275147 0)
(0.0685552 0.00293199 0)
(0.0659192 0.00307577 0)
(0.0631893 0.00319037 0)
(0.0603898 0.0032802 0)
(0.0575399 0.00334786 0)
(0.0546544 0.00339544 0)
(0.051745 0.00342553 0)
(0.0488203 0.00344162 0)
(0.0458862 0.00344825 0)
(0.0429452 0.00345084 0)
(0.0399961 0.0034555 0)
(0.0370339 0.00346894 0)
(0.0340487 0.00349849 0)
(0.0310258 0.00355196 0)
(0.0279453 0.00363693 0)
(0.0247835 0.00375871 0)
(0.0215161 0.00391579 0)
(0.018125 0.0040916 0)
(0.0146103 0.00424073 0)
(0.0110058 0.00426725 0)
(0.00740755 0.00399867 0)
(0.00404315 0.00320422 0)
(0.00131954 0.00183333 0)
(0.00941713 -0.0200734 0)
(0.0236953 -0.0242471 0)
(0.0367342 -0.0242496 0)
(0.0477954 -0.0217031 0)
(0.0566233 -0.0178858 0)
(0.0633859 -0.0137961 0)
(0.0683335 -0.00998829 0)
(0.0717128 -0.00670132 0)
(0.0737749 -0.00399266 0)
(0.0747609 -0.00182619 0)
(0.0748861 -0.000125447 0)
(0.0743348 0.00119468 0)
(0.073254 0.00221056 0)
(0.0717618 0.00298812 0)
(0.0699529 0.00358248 0)
(0.0679029 0.0040377 0)
(0.0656714 0.00438783 0)
(0.0633052 0.00465848 0)
(0.0608413 0.00486827 0)
(0.0583081 0.00503024 0)
(0.0557272 0.0051532 0)
(0.0531141 0.00524333 0)
(0.0504801 0.00530561 0)
(0.0478326 0.00534498 0)
(0.0451766 0.00536704 0)
(0.0425147 0.0053782 0)
(0.0398474 0.00538577 0)
(0.0371731 0.00539786 0)
(0.0344876 0.00542343 0)
(0.0317843 0.00547228 0)
(0.0290536 0.00555473 0)
(0.0262833 0.00568037 0)
(0.0234596 0.00585505 0)
(0.0205685 0.00607518 0)
(0.0175984 0.00631803 0)
(0.0145426 0.00652691 0)
(0.0113979 0.00658984 0)
(0.00817234 0.00631808 0)
(0.00495173 0.00547368 0)
(0.00186372 0.00394217 0)
(0.0110754 -0.0323736 0)
(0.0269252 -0.0349263 0)
(0.0400042 -0.032661 0)
(0.0500103 -0.0282208 0)
(0.0573235 -0.0228297 0)
(0.0625524 -0.0174207 0)
(0.0661694 -0.0125073 0)
(0.0684944 -0.00829975 0)
(0.0697712 -0.00483412 0)
(0.0702002 -0.0020548 0)
(0.0699495 0.00013463 0)
(0.0691603 0.00183903 0)
(0.0679493 0.00315464 0)
(0.0664099 0.00416428 0)
(0.0646175 0.00493662 0)
(0.0626328 0.00552667 0)
(0.0605045 0.00597737 0)
(0.0582713 0.00632155 0)
(0.055964 0.00658372 0)
(0.0536064 0.00678171 0)
(0.0512165 0.00692839 0)
(0.048807 0.00703332 0)
(0.0463866 0.00710427 0)
(0.0439609 0.00714843 0)
(0.0415332 0.00717309 0)
(0.039105 0.00718609 0)
(0.0366765 0.00719591 0)
(0.0342467 0.00721191 0)
(0.0318132 0.00724433 0)
(0.0293726 0.00730439 0)
(0.02692 0.00740368 0)
(0.0244496 0.00755281 0)
(0.0219542 0.00775825 0)
(0.0194249 0.00801676 0)
(0.0168497 0.00830645 0)
(0.0142084 0.00857339 0)
(0.0114622 0.00871325 0)
(0.0085529 0.00855406 0)
(0.00546295 0.00787294 0)
(0.00215977 0.00644404 0)
(0.0121957 -0.046103 0)
(0.0296851 -0.046424 0)
(0.0433306 -0.040946 0)
(0.0526697 -0.0340029 0)
(0.0587204 -0.0268124 0)
(0.0625689 -0.020104 0)
(0.0649331 -0.0142196 0)
(0.0662294 -0.00926042 0)
(0.0667139 -0.00519916 0)
(0.0665623 -0.00194418 0)
(0.0659052 0.000624231 0)
(0.0648482 0.00262792 0)
(0.063477 0.0041776 0)
(0.0618606 0.00536852 0)
(0.0600553 0.00627957 0)
(0.0581067 0.00697406 0)
(0.0560521 0.00750172 0)
(0.0539213 0.00790093 0)
(0.0517385 0.00820082 0)
(0.0495224 0.00842322 0)
(0.0472872 0.00858443 0)
(0.0450429 0.00869691 0)
(0.0427964 0.0087708 0)
(0.0405517 0.00881509 0)
(0.0383115 0.00883837 0)
(0.0360769 0.00884934 0)
(0.0338482 0.00885722 0)
(0.0316253 0.00887192 0)
(0.0294075 0.00890429 0)
(0.0271941 0.00896604 0)
(0.0249838 0.00906937 0)
(0.0227745 0.00922566 0)
(0.0205623 0.00944295 0)
(0.0183387 0.00972142 0)
(0.0160865 0.010046 0)
(0.0137706 0.0103758 0)
(0.0113245 0.0106286 0)
(0.0086477 0.0106666 0)
(0.00566181 0.0102887 0)
(0.00226609 0.00912181 0)
(0.0132027 -0.0610868 0)
(0.0327026 -0.0590078 0)
(0.0474371 -0.0493175 0)
(0.0562597 -0.0391487 0)
(0.0610923 -0.0298813 0)
(0.0635973 -0.0218679 0)
(0.0647394 -0.0151295 0)
(0.0650224 -0.00957471 0)
(0.0647145 -0.00507158 0)
(0.0639695 -0.00147448 0)
(0.0628852 0.00136373 0)
(0.0615348 0.00358021 0)
(0.059975 0.0052965 0)
(0.0582512 0.00661658 0)
(0.056401 0.00762628 0)
(0.0544557 0.00839452 0)
(0.0524409 0.00897561 0)
(0.050378 0.00941181 0)
(0.0482844 0.00973562 0)
(0.0461736 0.0099718 0)
(0.0440563 0.0101392 0)
(0.0419397 0.0102527 0)
(0.0398289 0.0103241 0)
(0.0377269 0.0103638 0)
(0.0356356 0.0103812 0)
(0.033556 0.0103857 0)
(0.0314886 0.0103868 0)
(0.0294341 0.0103945 0)
(0.0273931 0.0104197 0)
(0.0253668 0.0104743 0)
(0.0233556 0.0105709 0)
(0.0213593 0.0107219 0)
(0.0193742 0.0109385 0)
(0.0173893 0.011227 0)
(0.0153807 0.0115837 0)
(0.0133007 0.0119866 0)
(0.0110647 0.0123832 0)
(0.00855037 0.0126747 0)
(0.00565256 0.0126755 0)
(0.00226083 0.0118418 0)
(0.0142661 -0.075266 0)
(0.0371097 -0.0732287 0)
(0.0533009 -0.058007 0)
(0.0613437 -0.0436344 0)
(0.0646979 -0.0319927 0)
(0.0657276 -0.0226938 0)
(0.0655943 -0.0152327 0)
(0.0648434 -0.00923967 0)
(0.0637303 -0.00444407 0)
(0.0623775 -0.000633579 0)
(0.0608477 0.00236886 0)
(0.0591816 0.00471412 0)
(0.0574075 0.00653151 0)
(0.0555481 0.0079301 0)
(0.053623 0.00899945 0)
(0.0516495 0.00981148 0)
(0.0496422 0.0104231 0)
(0.0476142 0.0108788 0)
(0.0455761 0.0112132 0)
(0.0435369 0.0114529 0)
(0.0415033 0.0116187 0)
(0.0394801 0.0117268 0)
(0.0374707 0.0117904 0)
(0.0354769 0.0118208 0)
(0.0334999 0.0118281 0)
(0.0315404 0.0118217 0)
(0.0295991 0.0118113 0)
(0.0276772 0.0118068 0)
(0.0257761 0.0118188 0)
(0.0238976 0.0118592 0)
(0.022043 0.0119412 0)
(0.0202119 0.0120792 0)
(0.0183991 0.0122887 0)
(0.0165899 0.0125845 0)
(0.014754 0.0129767 0)
(0.012835 0.0134652 0)
(0.0107387 0.0140286 0)
(0.00833641 0.0146044 0)
(0.00551971 0.0150098 0)
(0.00219733 0.0145223 0)
(0.0162692 -0.0899978 0)
(0.0448723 -0.0909764 0)
(0.0621967 -0.067147 0)
(0.0685189 -0.047156 0)
(0.0697397 -0.0329214 0)
(0.0689831 -0.0224695 0)
(0.067441 -0.0144797 0)
(0.0655997 -0.00823311 0)
(0.0636554 -0.00330325 0)
(0.0616773 0.000590847 0)
(0.0596852 0.00365353 0)
(0.0576843 0.00604582 0)
(0.0556738 0.00790084 0)
(0.0536544 0.00932892 0)
(0.051628 0.0104201 0)
(0.0495984 0.0112469 0)
(0.0475698 0.0118667 0)
(0.045547 0.0123248 0)
(0.0435346 0.0126566 0)
(0.0415369 0.0128898 0)
(0.039557 0.0130461 0)
(0.0375974 0.0131426 0)
(0.0356593 0.0131932 0)
(0.0337437 0.0132098 0)
(0.0318507 0.0132027 0)
(0.0299809 0.0131813 0)
(0.0281348 0.0131552 0)
(0.0263137 0.013134 0)
(0.0245192 0.013128 0)
(0.0227532 0.0131492 0)
(0.0210165 0.0132118 0)
(0.0193076 0.013333 0)
(0.0176187 0.0135339 0)
(0.0159315 0.0138388 0)
(0.0142104 0.0142731 0)
(0.0123941 0.0148585 0)
(0.010386 0.0156028 0)
(0.00806153 0.0164724 0)
(0.00532287 0.0172762 0)
(0.00210738 0.0171185 0)
(0.0369651 -0.13203 0)
(0.0603476 -0.114749 0)
(0.0757917 -0.0753691 0)
(0.0783176 -0.0487538 0)
(0.0762973 -0.0322034 0)
(0.0732876 -0.0209876 0)
(0.0701545 -0.0127829 0)
(0.067153 -0.00651841 0)
(0.06435 -0.00163173 0)
(0.0617328 0.00221049 0)
(0.0592672 0.00522914 0)
(0.0569175 0.00758833 0)
(0.054654 0.00941934 0)
(0.0524548 0.0108294 0)
(0.0503053 0.0119059 0)
(0.048196 0.0127191 0)
(0.0461214 0.0133253 0)
(0.0440786 0.013769 0)
(0.0420664 0.0140853 0)
(0.0400845 0.014302 0)
(0.0381326 0.0144408 0)
(0.0362108 0.0145194 0)
(0.0343186 0.0145519 0)
(0.0324554 0.0145501 0)
(0.0306208 0.0145245 0)
(0.0288146 0.0144844 0)
(0.0270372 0.0144388 0)
(0.0252895 0.0143972 0)
(0.0235728 0.0143697 0)
(0.0218884 0.0143685 0)
(0.0202362 0.0144094 0)
(0.0186127 0.0145131 0)
(0.0170075 0.0147069 0)
(0.0153988 0.0150252 0)
(0.0137477 0.0155087 0)
(0.011991 0.0161995 0)
(0.010035 0.0171305 0)
(0.00776516 0.0182888 0)
(0.00510161 0.0194666 0)
(0.00200931 0.0196101 0)
(0.134745 -0.197213 0)
(0.0980519 -0.131661 0)
(0.096153 -0.075948 0)
(0.0908524 -0.0462618 0)
(0.0841496 -0.0291275 0)
(0.0783984 -0.0179908 0)
(0.0735197 -0.0100487 0)
(0.0693168 -0.00406333 0)
(0.0656492 0.0005818 0)
(0.0623952 0.00423124 0)
(0.0594559 0.0071022 0)
(0.0567527 0.00935043 0)
(0.0542265 0.0110982 0)
(0.0518342 0.0124448 0)
(0.0495451 0.0134714 0)
(0.0473377 0.014244 0)
(0.0451972 0.0148156 0)
(0.0431137 0.0152286 0)
(0.0410804 0.0155167 0)
(0.0390927 0.0157068 0)
(0.0371474 0.0158204 0)
(0.0352419 0.0158747 0)
(0.033374 0.0158838 0)
(0.0315418 0.0158592 0)
(0.0297439 0.0158111 0)
(0.0279794 0.0157487 0)
(0.0262482 0.0156805 0)
(0.0245506 0.0156155 0)
(0.0228873 0.015564 0)
(0.0212586 0.0155388 0)
(0.0196628 0.0155575 0)
(0.0180945 0.0156448 0)
(0.0165406 0.0158348 0)
(0.0149768 0.016172 0)
(0.0133622 0.0167111 0)
(0.0116346 0.0175126 0)
(0.00970597 0.0186297 0)
(0.00747514 0.0200623 0)
(0.00488206 0.0215806 0)
(0.00191415 0.0219929 0)
(0.010317 -0.153787 0)
(0.0263966 -0.149428 0)
(0.0408827 -0.136349 0)
(0.0535601 -0.125831 0)
(0.0646697 -0.118261 0)
(0.0746603 -0.113349 0)
(0.0839588 -0.110676 0)
(0.0929019 -0.109836 0)
(0.101737 -0.110488 0)
(0.110634 -0.112365 0)
(0.119701 -0.115276 0)
(0.128991 -0.119108 0)
(0.13852 -0.123812 0)
(0.148267 -0.129395 0)
(0.158179 -0.1359 0)
(0.168168 -0.14339 0)
(0.178102 -0.151906 0)
(0.187793 -0.161416 0)
(0.197 -0.171714 0)
(0.205436 -0.182277 0)
(0.212857 -0.19206 0)
(0.219285 -0.199259 0)
(0.224109 -0.201169 0)
(0.225938 -0.195296 0)
(0.233772 -0.177414 0)
(0.244122 -0.149569 0)
(0.268504 -0.0314595 0)
(0.24804 0.0914138 0)
(0.235879 0.162236 0)
(0.229782 0.191445 0)
(0.223963 0.198518 0)
(0.218257 0.195451 0)
(0.212585 0.188272 0)
(0.206722 0.179951 0)
(0.200668 0.171967 0)
(0.194556 0.165094 0)
(0.188597 0.159808 0)
(0.183057 0.156515 0)
(0.178248 0.15569 0)
(0.17455 0.157982 0)
(0.172452 0.164338 0)
(0.172672 0.176227 0)
(0.176503 0.196174 0)
(0.187448 0.229395 0)
(0.221735 0.289302 0)
(0.306473 0.441725 0)
(0.00973765 -0.167022 0)
(0.0249685 -0.161426 0)
(0.0388393 -0.146771 0)
(0.0511273 -0.134916 0)
(0.0619945 -0.126332 0)
(0.0718077 -0.120731 0)
(0.0809329 -0.117644 0)
(0.0896688 -0.116607 0)
(0.0982421 -0.117217 0)
(0.106813 -0.119156 0)
(0.115483 -0.122192 0)
(0.124306 -0.126174 0)
(0.133294 -0.131025 0)
(0.142424 -0.136725 0)
(0.151641 -0.143292 0)
(0.160856 -0.150757 0)
(0.169941 -0.159129 0)
(0.178725 -0.168338 0)
(0.186997 -0.178148 0)
(0.194528 -0.188034 0)
(0.201151 -0.197016 0)
(0.206954 -0.203483 0)
(0.211248 -0.205127 0)
(0.21289 -0.199907 0)
(0.219926 -0.183885 0)
(0.229421 -0.157516 0)
(0.247189 -0.0277715 0)
(0.228178 0.0978503 0)
(0.219529 0.167399 0)
(0.21558 0.195656 0)
(0.211316 0.202426 0)
(0.206801 0.199383 0)
(0.202096 0.192356 0)
(0.197139 0.184192 0)
(0.192008 0.176285 0)
(0.186864 0.169348 0)
(0.181921 0.16381 0)
(0.177456 0.160032 0)
(0.173815 0.158428 0)
(0.171464 0.159547 0)
(0.171075 0.164131 0)
(0.173735 0.173194 0)
(0.181451 0.188148 0)
(0.198643 0.211039 0)
(0.235874 0.243348 0)
(0.333386 0.271673 0)
(0.00920965 -0.179663 0)
(0.0236553 -0.172947 0)
(0.0369321 -0.156895 0)
(0.0488242 -0.143836 0)
(0.0594373 -0.134316 0)
(0.0690708 -0.128051 0)
(0.0780354 -0.124542 0)
(0.086592 -0.123275 0)
(0.0949435 -0.1238 0)
(0.103237 -0.125753 0)
(0.111567 -0.128861 0)
(0.119983 -0.13294 0)
(0.128497 -0.137884 0)
(0.137085 -0.143646 0)
(0.145693 -0.150219 0)
(0.154236 -0.157607 0)
(0.162596 -0.165791 0)
(0.170622 -0.174675 0)
(0.178136 -0.184005 0)
(0.184959 -0.193268 0)
(0.190989 -0.201549 0)
(0.196345 -0.207408 0)
(0.200237 -0.208841 0)
(0.201768 -0.204087 0)
(0.208098 -0.189364 0)
(0.216869 -0.163341 0)
(0.229081 -0.0232787 0)
(0.211767 0.103107 0)
(0.20561 0.171061 0)
(0.203167 0.198617 0)
(0.200133 0.205378 0)
(0.196655 0.202554 0)
(0.192843 0.19577 0)
(0.188721 0.187788 0)
(0.184414 0.179951 0)
(0.1801 0.172932 0)
(0.175996 0.167117 0)
(0.172376 0.162815 0)
(0.169598 0.16036 0)
(0.168154 0.160159 0)
(0.168757 0.162698 0)
(0.172524 0.168466 0)
(0.181322 0.177719 0)
(0.198391 0.189715 0)
(0.229396 0.199726 0)
(0.290823 0.189389 0)
(0.00872542 -0.191756 0)
(0.022444 -0.184018 0)
(0.0351502 -0.166724 0)
(0.0466416 -0.152583 0)
(0.0569843 -0.142201 0)
(0.0664235 -0.135306 0)
(0.0752225 -0.131374 0)
(0.0836069 -0.129857 0)
(0.0917555 -0.130261 0)
(0.0998 -0.132185 0)
(0.107827 -0.135318 0)
(0.115881 -0.139446 0)
(0.123973 -0.144433 0)
(0.13208 -0.150208 0)
(0.140151 -0.156741 0)
(0.148108 -0.164012 0)
(0.155845 -0.171981 0)
(0.163232 -0.180531 0)
(0.170123 -0.189403 0)
(0.176382 -0.198099 0)
(0.181952 -0.205772 0)
(0.186969 -0.211119 0)
(0.190534 -0.212366 0)
(0.191996 -0.207908 0)
(0.197728 -0.194049 0)
(0.205974 -0.167345 0)
(0.21356 -0.0182728 0)
(0.197964 0.107474 0)
(0.193584 0.173639 0)
(0.192205 0.200635 0)
(0.190128 0.207542 0)
(0.187522 0.205051 0)
(0.1845 0.198574 0)
(0.181124 0.190802 0)
(0.177543 0.183047 0)
(0.173937 0.175952 0)
(0.170519 0.169868 0)
(0.167552 0.165052 0)
(0.165377 0.161752 0)
(0.16446 0.160242 0)
(0.165462 0.160776 0)
(0.16934 0.163454 0)
(0.177523 0.167881 0)
(0.192064 0.172385 0)
(0.215504 0.172389 0)
(0.25081 0.158204 0)
(0.00827886 -0.203342 0)
(0.0213211 -0.194665 0)
(0.0334796 -0.176258 0)
(0.0445678 -0.16114 0)
(0.0546232 -0.149969 0)
(0.0638486 -0.14248 0)
(0.0724677 -0.138134 0)
(0.0806742 -0.136353 0)
(0.0886244 -0.13661 0)
(0.0964344 -0.138467 0)
(0.104181 -0.141584 0)
(0.111906 -0.145716 0)
(0.119616 -0.150703 0)
(0.127291 -0.15645 0)
(0.134884 -0.162905 0)
(0.142326 -0.17003 0)
(0.149523 -0.177766 0)
(0.156368 -0.185984 0)
(0.162739 -0.194425 0)
(0.168536 -0.20261 0)
(0.173737 -0.209751 0)
(0.178476 -0.21466 0)
(0.18176 -0.215733 0)
(0.183185 -0.21144 0)
(0.188413 -0.198141 0)
(0.196324 -0.169753 0)
(0.199988 -0.0129941 0)
(0.186072 0.111146 0)
(0.183001 0.175424 0)
(0.182387 0.201936 0)
(0.181053 0.209068 0)
(0.179167 0.206965 0)
(0.176825 0.200834 0)
(0.174102 0.193297 0)
(0.171152 0.185643 0)
(0.168149 0.178495 0)
(0.165293 0.172175 0)
(0.162824 0.166891 0)
(0.16105 0.162819 0)
(0.160382 0.160118 0)
(0.161373 0.158877 0)
(0.164767 0.158968 0)
(0.171526 0.159749 0)
(0.182761 0.159544 0)
(0.199095 0.15496 0)
(0.219184 0.140725 0)
(0.00786409 -0.214455 0)
(0.0202736 -0.204908 0)
(0.0319057 -0.185498 0)
(0.04259 -0.169497 0)
(0.0523432 -0.157601 0)
(0.0613348 -0.149555 0)
(0.0697555 -0.144808 0)
(0.0777722 -0.142756 0)
(0.08552 -0.142844 0)
(0.0931007 -0.144606 0)
(0.100582 -0.147672 0)
(0.107999 -0.151772 0)
(0.115358 -0.156721 0)
(0.122641 -0.162404 0)
(0.129807 -0.168752 0)
(0.136792 -0.175708 0)
(0.143519 -0.183202 0)
(0.149896 -0.191096 0)
(0.155826 -0.199133 0)
(0.161235 -0.206858 0)
(0.166126 -0.213531 0)
(0.170628 -0.218058 0)
(0.173662 -0.218963 0)
(0.175079 -0.214744 0)
(0.179872 -0.201803 0)
(0.187585 -0.170706 0)
(0.187804 -0.00762143 0)
(0.175539 0.11424 0)
(0.173496 0.176602 0)
(0.173454 0.202683 0)
(0.172704 0.210075 0)
(0.171409 0.208386 0)
(0.169644 0.202619 0)
(0.167485 0.195337 0)
(0.165078 0.187807 0)
(0.162587 0.180638 0)
(0.160191 0.174127 0)
(0.158104 0.168446 0)
(0.156591 0.163712 0)
(0.155992 0.160001 0)
(0.156744 0.157299 0)
(0.159377 0.155372 0)
(0.164476 0.15356 0)
(0.17252 0.150478 0)
(0.183263 0.14384 0)
(0.194748 0.130808 0)
(0.00747568 -0.225122 0)
(0.0192891 -0.214765 0)
(0.0304139 -0.194449 0)
(0.0406956 -0.177644 0)
(0.0501349 -0.165081 0)
(0.0588748 -0.156514 0)
(0.0670791 -0.15138 0)
(0.0748915 -0.149055 0)
(0.0824292 -0.148961 0)
(0.0897802 -0.150604 0)
(0.0970032 -0.15359 0)
(0.104129 -0.157626 0)
(0.111163 -0.162506 0)
(0.118087 -0.168098 0)
(0.124865 -0.174314 0)
(0.131444 -0.181087 0)
(0.137756 -0.188333 0)
(0.143726 -0.195913 0)
(0.149276 -0.203574 0)
(0.154352 -0.210881 0)
(0.158975 -0.21714 0)
(0.163263 -0.22133 0)
(0.166068 -0.222074 0)
(0.167501 -0.217864 0)
(0.171907 -0.205138 0)
(0.179464 -0.170285 0)
(0.176528 -0.00231888 0)
(0.165936 0.116794 0)
(0.16478 0.177278 0)
(0.1652 0.202987 0)
(0.164922 0.210659 0)
(0.164114 0.20939 0)
(0.162835 0.203996 0)
(0.161156 0.196981 0)
(0.159214 0.189597 0)
(0.157156 0.182441 0)
(0.155142 0.175793 0)
(0.153354 0.169796 0)
(0.152013 0.164526 0)
(0.15139 0.160005 0)
(0.151812 0.156163 0)
(0.153636 0.152746 0)
(0.157181 0.149172 0)
(0.162599 0.144411 0)
(0.169369 0.136999 0)
(0.175914 0.125435 0)
(0.00710897 -0.235367 0)
(0.0183569 -0.22425 0)
(0.0289916 -0.20311 0)
(0.0388734 -0.185571 0)
(0.0479905 -0.172394 0)
(0.0564641 -0.163339 0)
(0.064436 -0.157834 0)
(0.0720305 -0.155239 0)
(0.079349 -0.154952 0)
(0.0864678 -0.156458 0)
(0.0934375 -0.159342 0)
(0.100284 -0.163289 0)
(0.107012 -0.168075 0)
(0.113604 -0.173552 0)
(0.12003 -0.179619 0)
(0.126243 -0.186198 0)
(0.132186 -0.193197 0)
(0.137798 -0.200475 0)
(0.143014 -0.207784 0)
(0.147798 -0.214711 0)
(0.152183 -0.220597 0)
(0.156275 -0.224485 0)
(0.158868 -0.225078 0)
(0.16033 -0.220838 0)
(0.16439 -0.20824 0)
(0.171806 -0.168389 0)
(0.165892 0.00280746 0)
(0.157004 0.118796 0)
(0.156669 0.177498 0)
(0.157482 0.202915 0)
(0.157595 0.210891 0)
(0.157189 0.210044 0)
(0.156316 0.205024 0)
(0.155043 0.198287 0)
(0.153495 0.191068 0)
(0.151803 0.183958 0)
(0.150107 0.177225 0)
(0.14856 0.170993 0)
(0.147341 0.165311 0)
(0.146659 0.16017 0)
(0.146755 0.155478 0)
(0.147851 0.151 0)
(0.15011 0.14627 0)
(0.153536 0.140553 0)
(0.157612 0.132964 0)
(0.161215 0.122613 0)
(0.00675996 -0.245208 0)
(0.0174678 -0.233375 0)
(0.0276276 -0.211485 0)
(0.0371136 -0.193274 0)
(0.0459032 -0.179528 0)
(0.0540998 -0.170017 0)
(0.0618265 -0.164158 0)
(0.0691915 -0.161295 0)
(0.0762828 -0.16081 0)
(0.0831664 -0.162167 0)
(0.0898857 -0.16493 0)
(0.0964629 -0.168768 0)
(0.1029 -0.173441 0)
(0.109184 -0.178786 0)
(0.115286 -0.184691 0)
(0.121168 -0.191069 0)
(0.126781 -0.197823 0)
(0.132073 -0.20481 0)
(0.136993 -0.21179 0)
(0.141517 -0.218367 0)
(0.145686 -0.223916 0)