/*--------------------------------*- C++ -*----------------------------------*\
  =========                 |
  \\      /  F ield         | OpenFOAM: The Open Source CFD Toolbox
   \\    /   O peration     | Website:  https://openfoam.org
    \\  /    A nd           | Version:  9
     \\/     M anipulation  |
\*---------------------------------------------------------------------------*/
FoamFile
{
    format      ascii;
    class       surfaceScalarField;
    location    "0.3";
    object      alphaPhi0.water;
}
// * * * * * * * * * * * * * * * * * * * * * * * * * * * * * * * * * * * * * //

dimensions      [0 3 -1 0 0 0 0];

internalField   nonuniform List<scalar> 
3742
(
-5.38466e-18
-1.41976e-17
-8.92067e-18
-2.21447e-17
-1.14439e-17
-2.605e-17
-1.15681e-17
-2.64773e-17
-1.33945e-17
-2.41635e-17
-1.68525e-17
-2.16343e-17
-1.90572e-17
-1.95035e-17
-2.02764e-17
-1.75817e-17
-2.31504e-17
-1.68651e-17
-2.74007e-17
-1.72839e-17
-2.96231e-17
-1.69881e-17
-3.11299e-17
-1.60342e-17
-3.27735e-17
-1.55492e-17
-3.60076e-17
-1.60342e-17
-5.00952e-17
-2.01088e-17
-1.34281e-16
-4.46158e-17
-4.84937e-16
-1.75927e-16
-1.39168e-15
-7.25511e-16
-2.98929e-15
-2.31878e-15
-4.57056e-15
-5.65226e-15
-2.21482e-15
-1.48632e-14
0
-1.09135e-13
0
-7.8039e-13
0
-4.94678e-12
-2.67696e-11
3.07648e-24
5.07259e-23
8.26096e-23
9.63252e-22
7.29e-22
8.75071e-21
3.80344e-21
4.96885e-20
1.32362e-20
1.93193e-19
3.18016e-20
5.2826e-19
5.15453e-20
1.00907e-18
6.0286e-20
1.34281e-18
1.00375e-19
1.48485e-18
1.98641e-19
2.09492e-18
3.37375e-19
3.09393e-18
4.70328e-19
4.03992e-18
5.58355e-19
4.43232e-18
3.9195e-19
3.43349e-18
-1.65559e-19
5.50533e-19
-4.33981e-19
-2.71591e-18
-2.43198e-19
-2.11931e-18
-2.36202e-19
-1.21713e-18
-3.13513e-19
-9.31316e-19
-9.42732e-19
-1.31053e-18
-2.20026e-18
-3.54746e-18
-3.44111e-18
-6.08246e-18
-4.35596e-18
-7.47018e-18
-4.75335e-18
-7.58451e-18
-4.81017e-18
-5.87002e-18
-4.85759e-18
-3.887e-18
-4.93135e-18
-3.03693e-18
-5.33613e-18
-2.78196e-18
-6.20188e-18
-2.81722e-18
-7.06735e-18
-2.84862e-18
-7.46676e-18
-2.79534e-18
-7.88689e-18
-2.72846e-18
-8.49061e-18
-2.76638e-18
-9.79636e-18
-3.06777e-18
-1.53247e-17
-4.6274e-18
-4.80801e-17
-1.38115e-17
-2.31449e-16
-6.99492e-17
-9.78652e-16
-3.71007e-16
-2.84575e-15
-1.5271e-15
-5.02712e-15
-4.54718e-15
-3.43712e-15
-1.40341e-14
0
-9.56975e-14
0
-6.79532e-13
0
-4.28867e-12
-2.30306e-11
6.60975e-24
2.79368e-23
1.22105e-22
4.94833e-22
1.00418e-21
4.20146e-21
4.98348e-21
2.20516e-20
1.63402e-20
7.81454e-20
3.61825e-20
1.92332e-19
5.482e-20
3.30635e-19
6.84529e-20
4.13986e-19
1.08841e-19
4.70076e-19
1.81476e-19
6.33307e-19
2.68531e-19
8.57667e-19
3.35338e-19
1.0318e-18
2.96921e-19
9.71735e-19
5.4608e-20
4.67987e-19
-2.60219e-19
-3.05695e-19
-2.11157e-19
-7.35497e-19
-1.39644e-19
-4.37972e-19
-1.02562e-19
-3.36373e-19
-1.21386e-19
-2.32299e-19
-3.30705e-19
-3.16683e-19
-8.52652e-19
-9.13492e-19
-1.39305e-18
-1.6445e-18
-1.70058e-18
-2.00505e-18
-1.65608e-18
-1.95368e-18
-1.17791e-18
-1.11634e-18
-9.29715e-19
-5.59798e-19
-9.54474e-19
-3.93824e-19
-1.053e-18
-3.55091e-19
-1.21402e-18
-3.62634e-19
-1.34656e-18
-3.73833e-19
-1.45793e-18
-3.79968e-19
-1.58874e-18
-3.92727e-19
-1.78451e-18
-4.25657e-19
-2.26955e-18
-5.33367e-19
-4.50728e-18
-1.06501e-18
-1.87997e-17
-4.32515e-18
-1.15211e-16
-2.60081e-17
-6.35103e-16
-1.62984e-16
-2.40756e-15
-8.40691e-16
-5.03999e-15
-3.23793e-15
-4.05338e-15
-1.23016e-14
0
-8.30536e-14
0
-5.80813e-13
0
-3.64556e-12
-1.98868e-11
5.401e-24
1.1757e-23
9.03894e-23
1.95626e-22
6.90942e-22
1.55476e-21
3.16527e-21
7.5656e-21
9.47047e-21
2.46137e-20
1.91001e-20
5.53308e-20
2.74604e-20
8.77937e-20
3.53443e-20
1.06048e-19
5.35787e-20
1.21343e-19
8.13408e-20
1.5474e-19
1.0955e-19
1.90211e-19
1.15517e-19
1.97974e-19
6.23485e-20
1.38367e-19
-4.49501e-20
6.77782e-21
-7.24378e-20
-1.20111e-19
-5.90185e-20
-1.05446e-19
-5.10633e-20
-1.12948e-19
-3.44593e-20
-7.78768e-20
-3.95175e-20
-5.08813e-20
-1.06652e-19
-6.61515e-20
-2.89263e-19
-1.80861e-19
-4.70842e-19
-3.0914e-19
-5.24573e-19
-3.5938e-19
-4.19922e-19
-3.36388e-19
-2.15355e-19
-1.60272e-19
-1.4515e-19
-6.51164e-20
-1.4266e-19
-4.04965e-20
-1.55695e-19
-3.55804e-20
-1.80508e-19
-3.72584e-20
-2.05177e-19
-4.10619e-20
-2.32283e-19
-4.47872e-20
-2.6606e-19
-4.96597e-20
-3.20662e-19
-5.87382e-20
-4.82095e-19
-8.90044e-20
-1.32405e-18
-2.51282e-19
-7.00618e-18
-1.31697e-18
-4.86096e-17
-8.86191e-18
-3.20751e-16
-6.19366e-17
-1.56955e-15
-3.89111e-16
-4.37316e-15
-1.94211e-15
-6.3866e-15
-9.47433e-15
-1.21579e-14
-6.64235e-14
-4.34131e-14
-4.62125e-13
-2.65542e-13
-2.8968e-12
-1.59078e-11
2.83242e-24
3.58677e-24
4.42098e-23
5.62958e-23
3.14813e-22
4.20219e-22
1.33313e-21
1.90664e-21
3.66835e-21
5.75099e-21
6.86943e-21
1.19929e-20
9.56987e-21
1.79287e-20
1.24419e-20
2.11488e-20
1.78551e-20
2.38548e-20
2.455e-20
2.79824e-20
2.8478e-20
2.96802e-20
2.21402e-20
2.42244e-20
1.20544e-21
9.22772e-21
-1.49965e-20
-7.57713e-21
-1.37383e-20
-1.70534e-20
-1.70353e-20
-2.23373e-20
-1.52561e-20
-2.30887e-20
-9.2337e-21
-1.45208e-20
-1.03453e-20
-8.70837e-21
-2.58527e-20
-9.84647e-21
-6.4673e-20
-2.3786e-20
-9.77095e-20
-3.80118e-20
-1.03547e-19
-4.23343e-20
-7.29217e-20
-3.67105e-20
-3.04267e-20
-1.4976e-20
-1.74069e-20
-5.4814e-21
-1.62645e-20
-3.24355e-21
-1.7712e-20
-2.88711e-21
-2.158e-20
-3.2666e-21
-2.6235e-20
-3.98088e-21
-3.16137e-20
-4.71171e-21
-3.84846e-20
-5.64382e-21
-5.15063e-20
-7.52505e-21
-9.94626e-20
-1.47575e-20
-3.85719e-19
-5.77068e-20
-2.43512e-18
-3.59431e-19
-1.80822e-17
-2.58883e-18
-1.36073e-16
-1.91049e-17
-8.35676e-16
-1.36317e-16
-3.19307e-15
-8.52654e-16
-9.58639e-15
-4.7897e-15
-5.13031e-14
-3.25291e-14
-3.42232e-13
-2.28444e-13
-2.14105e-12
-1.45681e-12
-8.14458e-12
9.9506e-25
7.12048e-25
1.46119e-23
1.05808e-23
9.7413e-23
7.45404e-23
3.84227e-22
3.17665e-22
9.85166e-22
8.97859e-22
1.74485e-21
1.76178e-21
2.38084e-21
2.51803e-21
3.05703e-21
2.90364e-21
4.03803e-21
3.13934e-21
4.78761e-21
3.24603e-21
4.34658e-21
2.74724e-21
1.83602e-21
1.47009e-21
-1.66556e-21
-5.22139e-23
-2.03778e-21
-1.17154e-21
-3.42639e-21
-2.65929e-21
-4.0621e-21
-3.65834e-21
-3.44789e-21
-3.73436e-21
-1.82412e-21
-2.25584e-21
-1.97354e-21
-1.09757e-21
-4.05082e-21
-1.01932e-21
-9.16371e-21
-1.89269e-21
-1.28029e-20
-2.66916e-21
-1.32857e-20
-2.77987e-21
-7.79512e-21
-1.87925e-21
-2.90064e-21
-6.51098e-22
-1.53589e-21
-2.72608e-22
-1.47386e-21
-1.94452e-22
-1.65009e-21
-1.95276e-22
-2.21398e-21
-2.63468e-22
-2.92717e-21
-3.51448e-22
-3.76666e-21
-4.47784e-22
-4.94671e-21
-5.82289e-22
-7.70216e-21
-9.0011e-22
-2.01506e-20
-2.31259e-21
-1.03339e-19
-1.12575e-20
-7.32155e-19
-7.57015e-20
-5.61866e-18
-5.57095e-19
-4.41471e-17
-4.1513e-18
-3.33773e-16
-3.04893e-17
-1.69374e-15
-2.14126e-16
-6.68976e-15
-1.31706e-15
-4.29857e-14
-8.07484e-15
-2.8454e-13
-5.72321e-14
-1.83014e-12
-3.8001e-13
-2.1636e-12
2.17726e-25
6.95746e-26
3.02431e-24
9.83013e-25
1.89996e-23
6.57387e-24
7.04662e-23
2.65192e-23
1.70561e-22
7.09294e-23
2.89637e-22
1.32342e-22
3.87219e-22
1.818e-22
4.77331e-22
2.01895e-22
5.56215e-22
2.00351e-22
5.26196e-22
1.71238e-22
3.1295e-22
1.02663e-22
-1.23054e-23
2.48334e-23
-7.44902e-23
-2.59802e-23
-3.31455e-22
-1.4003e-22
-6.33783e-22
-3.32267e-22
-7.42949e-22
-4.48898e-22
-6.3016e-22
-4.60312e-22
-2.71137e-22
-2.74872e-22
-2.57629e-22
-9.78835e-23
-3.94746e-22
-6.31556e-23
-7.41037e-22
-6.60958e-23
-9.16424e-22
-7.80664e-23
-8.48267e-22
-7.26128e-23
-3.68027e-22
-3.29697e-23
-1.44971e-22
-1.22831e-23
-9.73602e-23
-8.13674e-24
-1.02007e-22
-8.26195e-24
-1.35459e-22
-1.30623e-23
-2.04581e-22
-2.01682e-23
-2.90598e-22
-2.81669e-23
-3.98213e-22
-3.82287e-23
-5.7221e-22
-5.44454e-23
-1.07409e-21
-9.94247e-23
-3.70206e-21
-3.17159e-22
-2.22276e-20
-1.71375e-21
-1.65237e-19
-1.16436e-20
-1.28501e-18
-8.44962e-20
-9.98203e-18
-6.18967e-19
-7.83278e-17
-4.46938e-18
-5.46161e-16
-3.13739e-17
-2.79972e-15
-2.09752e-16
-1.42509e-14
-1.28027e-15
-9.16695e-14
-8.12344e-15
-5.54947e-13
-5.58932e-14
-3.31957e-13
2.28153e-26
-6.41256e-44
3.01486e-25
-1.4407e-41
1.79772e-24
-1.65013e-39
6.32682e-24
-1.29035e-37
1.45996e-23
-7.74556e-36
2.38837e-23
-3.78204e-34
3.08089e-23
-1.41394e-32
3.49076e-23
-1.86084e-31
3.36521e-23
-3.1023e-30
2.25587e-23
-8.5717e-29
6.06311e-24
-2.23561e-27
-4.97653e-24
-5.34139e-26
-1.13049e-23
-1.79656e-24
-4.62e-23
-1.17732e-23
-8.51512e-23
-2.70792e-23
-1.0052e-22
-3.65755e-23
-8.67959e-23
-3.7811e-23
-3.27058e-23
-2.35588e-23
-1.74513e-23
-7.28227e-24
-1.8662e-23
-2.47956e-24
-2.53716e-23
-1.30029e-24
-2.65089e-23
-8.68546e-25
-1.79514e-23
-5.28219e-25
-6.62947e-24
-2.733e-25
-3.95638e-24
-1.92675e-25
-4.13682e-24
-2.13784e-25
-5.96909e-24
-4.46508e-25
-1.0705e-23
-8.52941e-25
-1.71505e-23
-1.36546e-24
-2.5576e-23
-2.02356e-24
-3.7334e-23
-2.93198e-24
-5.98015e-23
-4.61487e-24
-1.36534e-22
-9.96566e-24
-5.68809e-22
-3.67359e-23
-3.63305e-21
-2.0373e-22
-2.70536e-20
-1.34153e-21
-2.08957e-19
-9.35412e-21
-1.60751e-18
-6.60688e-20
-1.21465e-17
-4.61868e-19
-9.15213e-17
-3.14385e-18
-6.76132e-16
-2.05768e-17
-3.064e-15
-1.27484e-16
-1.26371e-14
-7.30686e-16
-8.4396e-14
-4.67822e-15
-3.06932e-14
-6.15679e-44
-2.55769e-45
-1.39396e-41
-5.28936e-43
-1.60678e-39
-5.72884e-41
-1.26446e-37
-4.19653e-39
-7.63754e-36
-2.34469e-37
-3.75192e-34
-1.06498e-35
-1.41057e-32
-4.08968e-34
-1.86563e-31
-1.36277e-32
-2.88857e-30
-4.00312e-31
-7.80666e-29
-1.05442e-29
-2.0605e-27
-2.53495e-28
-5.15573e-26
-3.47803e-27
-1.00021e-24
-1.03775e-25
-4.05547e-24
-5.29469e-25
-7.40492e-24
-1.14139e-24
-8.85143e-24
-1.52524e-24
-7.90491e-24
-1.57709e-24
-3.068e-24
-1.0262e-24
-1.02891e-24
-3.41801e-25
-5.21428e-25
-1.1266e-25
-3.70246e-25
-4.21716e-26
-2.57255e-25
-1.77515e-26
-1.3962e-25
-9.00811e-27
-9.19467e-26
-6.33518e-27
-9.72117e-26
-6.10529e-27
-1.6917e-25
-1.11246e-26
-3.94933e-25
-2.59792e-26
-7.52061e-25
-4.96382e-26
-1.26671e-24
-8.30568e-26
-1.99198e-24
-1.29707e-25
-3.11594e-24
-2.01239e-25
-5.65367e-24
-3.57442e-25
-1.54669e-23
-9.17345e-25
-7.18772e-23
-3.76668e-24
-4.60273e-22
-2.08435e-23
-3.3258e-21
-1.30802e-22
-2.4959e-20
-8.63665e-22
-1.88124e-19
-5.80899e-21
-1.39837e-18
-3.8949e-20
-1.01625e-17
-2.55502e-19
-7.28494e-17
-1.61265e-18
-5.28066e-16
-9.63435e-18
-2.32802e-15
-5.24619e-17
-8.56215e-15
-2.45588e-16
-1.58784e-15
-2.04028e-45
-3.44417e-46
-4.3636e-43
-9.34021e-44
-4.7604e-41
-9.89079e-42
-3.51501e-39
-7.0539e-40
-1.9807e-37
-3.82508e-38
-9.07776e-36
-1.68123e-36
-3.51921e-34
-6.22659e-35
-1.18673e-32
-1.97104e-33
-3.5215e-31
-5.59027e-32
-9.28505e-30
-1.5501e-30
-2.19255e-28
-4.18812e-29
-3.96226e-27
-7.82254e-28
-5.20004e-26
-4.99876e-27
-1.83834e-25
-1.00589e-26
-3.27189e-25
-1.2411e-26
-3.89306e-25
-1.20881e-26
-3.54658e-25
-6.61402e-27
-1.50691e-25
-3.09754e-27
-5.36631e-26
-2.23632e-27
-2.12457e-26
-1.83448e-27
-9.28167e-27
-1.22446e-27
-4.60034e-27
-6.24613e-28
-2.99018e-27
-3.26692e-28
-3.07659e-27
-2.43903e-28
-4.05401e-27
-2.62642e-28
-1.02522e-26
-5.7429e-28
-2.39799e-26
-1.3377e-27
-4.69925e-26
-2.58605e-27
-8.26863e-26
-4.48403e-27
-1.36497e-25
-7.35482e-27
-2.31916e-25
-1.23986e-26
-4.88063e-25
-2.54904e-26
-1.58916e-24
-7.79889e-26
-7.96496e-24
-3.50658e-25
-5.01509e-23
-1.93183e-24
-3.46663e-22
-1.15772e-23
-2.49459e-21
-7.22642e-23
-1.82223e-20
-4.61036e-22
-1.32712e-19
-2.95516e-21
-9.50763e-19
-1.8658e-20
-6.6936e-18
-1.13604e-19
-4.71268e-17
-6.51868e-19
-2.98179e-16
-3.35805e-18
-1.15927e-15
-1.34239e-17
-5.70667e-17
-3.19117e-46
-1.51309e-47
-8.89579e-44
-4.63918e-45
-9.41074e-42
-5.52808e-43
-6.69058e-40
-4.40599e-41
-3.61507e-38
-2.6521e-39
-1.58261e-36
-1.28589e-37
-5.83659e-35
-5.2221e-36
-1.84883e-33
-1.61601e-34
-5.62636e-32
-4.15775e-33
-1.55932e-30
-1.04885e-31
-4.53788e-29
-2.066e-30
-5.27074e-28
-6.77302e-29
-1.74809e-27
-4.36434e-28
-2.84475e-27
-9.70827e-28
-3.05962e-27
-1.23776e-27
-2.38284e-27
-1.21901e-27
-1.107e-27
-6.33221e-28
-7.9102e-28
-2.2252e-28
-7.14689e-28
-1.2588e-28
-5.79725e-28
-9.85604e-29
-3.44905e-28
-7.25809e-29
-1.77594e-28
-3.94425e-29
-1.23928e-28
-1.87217e-29
-1.29499e-28
-1.21711e-29
-2.05881e-28
-1.17818e-29
-5.52696e-28
-2.33024e-29
-1.29065e-27
-5.76261e-29
-2.58993e-27
-1.17061e-28
-4.71362e-27
-2.11364e-28
-8.21488e-27
-3.67446e-28
-1.54803e-26
-6.86326e-28
-3.8685e-26
-1.66168e-27
-1.48789e-25
-5.96585e-27
-7.94201e-25
-2.87425e-26
-4.92773e-24
-1.57364e-25
-3.26423e-23
-9.03687e-25
-2.24635e-22
-5.32605e-24
-1.58425e-21
-3.20352e-23
-1.12861e-20
-1.9481e-22
-8.00048e-20
-1.17544e-21
-5.61345e-19
-6.8545e-21
-3.98826e-18
-3.73368e-20
-2.81168e-17
-1.77501e-19
-1.06285e-16
-5.9139e-19
-8.87976e-19
-1.64275e-47
-4.15149e-50
-5.2456e-45
-9.75949e-48
-6.23568e-43
-1.00991e-45
-4.95315e-41
-6.98827e-44
-2.97121e-39
-3.65563e-42
-1.43584e-37
-1.54295e-40
-5.81256e-36
-5.46604e-39
-1.81324e-34
-1.67133e-37
-4.33255e-33
-4.46028e-36
-1.0906e-31
-1.07813e-34
-2.14414e-30
-1.97914e-33
-4.28565e-29
-5.91171e-32
-1.73022e-28
-6.6106e-31
-2.99539e-28
-2.31273e-30
-3.27176e-28
-4.44616e-30
-2.54035e-28
-6.14925e-30
-9.486e-29
-7.00552e-30
-5.03321e-29
-7.06298e-30
-4.17104e-29
-6.06809e-30
-3.53902e-29
-4.76192e-30
-2.32368e-29
-3.26344e-30
-1.14401e-29
-1.66696e-30
-6.58885e-30
-7.55447e-31
-6.65643e-30
-4.56319e-31
-8.94513e-30
-4.19382e-31
-2.38832e-29
-7.83773e-31
-5.90685e-29
-2.07774e-30
-1.22981e-28
-4.51213e-30
-2.32747e-28
-8.60989e-30
-4.34231e-28
-1.61103e-29
-9.28034e-28
-3.40272e-29
-2.77865e-27
-9.78182e-29
-1.23195e-26
-4.03754e-28
-6.89929e-26
-2.06092e-27
-4.22935e-25
-1.13155e-26
-2.69333e-24
-6.32552e-26
-1.76722e-23
-3.56492e-25
-1.1949e-22
-2.03354e-24
-8.27002e-22
-1.17365e-23
-5.7784e-21
-6.75086e-23
-4.03654e-20
-3.75136e-22
-2.87768e-19
-1.91533e-21
-2.10896e-18
-8.01897e-21
-7.96917e-18
-1.7349e-20
2.95606e-19
-3.97411e-50
-1.0336e-51
-9.51638e-48
-2.51294e-49
-9.87488e-46
-2.59256e-47
-6.8491e-44
-1.78365e-45
-3.5919e-42
-9.25645e-44
-1.5202e-40
-3.86892e-42
-5.41901e-39
-1.35963e-40
-1.66609e-37
-4.11813e-39
-4.47085e-36
-1.08578e-37
-1.08979e-34
-2.65418e-36
-1.99855e-33
-5.05708e-35
-4.43922e-32
-1.23564e-33
-3.11536e-31
-2.585e-32
-8.74274e-31
-1.33123e-31
-1.52948e-30
-3.05571e-31
-2.0629e-30
-4.45413e-31
-2.37599e-30
-4.96383e-31
-2.39009e-30
-4.80543e-31
-2.13765e-30
-3.32204e-31
-1.71617e-30
-2.23655e-31
-1.04189e-30
-1.46057e-31
-4.92838e-31
-7.39409e-32
-2.618e-31
-3.04558e-32
-2.51914e-31
-1.53043e-32
-3.15486e-31
-1.27381e-32
-8.49254e-31
-2.15058e-32
-2.26017e-30
-6.2616e-32
-4.95945e-30
-1.47504e-31
-9.89274e-30
-3.01236e-31
-2.01095e-29
-6.16966e-31
-4.97431e-29
-1.49963e-30
-1.77878e-28
-5.10168e-30
-8.88284e-28
-2.37087e-29
-5.19921e-27
-1.27644e-28
-3.19143e-26
-7.12314e-28
-1.98669e-25
-3.96241e-27
-1.25721e-24
-2.18682e-26
-8.18452e-24
-1.20726e-25
-5.50339e-23
-6.70667e-25
-3.78787e-22
-3.70731e-24
-2.6405e-21
-1.96641e-23
-1.88147e-20
-9.30191e-23
-1.39738e-19
-3.1745e-22
-5.46757e-19
8.07678e-23
4.88938e-20
-9.92511e-52
-2.33257e-53
-2.45643e-49
-6.00701e-51
-2.54153e-47
-6.55136e-49
-1.7513e-45
-4.7271e-47
-9.10466e-44
-2.55056e-45
-3.81274e-42
-1.10216e-43
-1.34278e-40
-3.98861e-42
-4.05872e-39
-1.20135e-40
-1.10882e-37
-3.13989e-39
-2.70963e-36
-7.59064e-38
-5.07967e-35
-1.57869e-36
-1.25261e-33
-3.81267e-35
-1.60481e-32
-8.7502e-34
-6.06683e-32
-4.92954e-33
-1.19018e-31
-1.21933e-32
-1.60892e-31
-1.9017e-32
-1.70908e-31
-2.25328e-32
-1.4974e-31
-2.27996e-32
-1.10324e-31
-1.79729e-32
-8.16828e-32
-1.18192e-32
-4.91323e-32
-7.79372e-33
-2.20376e-32
-4.13777e-33
-9.82145e-33
-1.6892e-33
-8.00789e-33
-6.79455e-34
-9.32292e-33
-4.46792e-34
-2.47136e-32
-5.17151e-34
-7.21309e-32
-1.48435e-33
-1.68893e-31
-4.02008e-33
-3.60151e-31
-9.00561e-33
-8.1267e-31
-2.04862e-32
-2.35836e-30
-5.80027e-32
-9.93183e-30
-2.30825e-31
-5.47856e-29
-1.18588e-30
-3.35506e-28
-6.72712e-30
-2.09618e-27
-3.8646e-29
-1.30568e-26
-2.18475e-28
-8.1596e-26
-1.21205e-27
-5.21168e-25
-6.65633e-27
-3.44837e-24
-3.64771e-26
-2.35726e-23
-1.97531e-25
-1.64975e-22
-1.01258e-24
-1.18112e-21
-4.41072e-24
-8.83121e-21
-1.04406e-23
-3.6687e-20
7.03804e-23
4.57153e-21
-2.34685e-53
-3.41149e-55
-6.26307e-51
-8.3864e-53
-6.80077e-49
-8.9361e-51
-4.88586e-47
-6.30163e-49
-2.63348e-45
-3.3517e-47
-1.13787e-43
-1.43446e-45
-4.1238e-42
-5.1489e-44
-1.25701e-40
-1.58053e-42
-3.2008e-39
-4.27545e-41
-7.75475e-38
-1.0452e-39
-1.62255e-36
-2.22657e-38
-4.02604e-35
-4.78852e-37
-5.70666e-34
-1.34869e-35
-2.34688e-33
-1.10882e-34
-4.9586e-33
-3.51145e-34
-7.20215e-33
-6.45632e-34
-8.26824e-33
-8.46973e-34
-8.05236e-33
-8.98102e-34
-6.04542e-33
-8.20606e-34
-4.46289e-33
-5.0448e-34
-2.80682e-33
-3.01215e-34
-1.31286e-33
-1.6127e-34
-5.09225e-34
-6.70559e-35
-2.88996e-34
-2.42863e-35
-3.01903e-34
-1.25332e-35
-5.67974e-34
-1.1586e-35
-1.85362e-33
-2.85247e-35
-4.81358e-33
-8.95503e-35
-1.11651e-32
-2.26389e-34
-2.84405e-32
-5.84079e-34
-9.7359e-32
-1.93687e-33
-4.73624e-31
-8.86936e-33
-2.84343e-30
-4.9685e-32
-1.82657e-29
-2.97006e-31
-1.17806e-28
-1.77289e-30
-7.50399e-28
-1.03415e-29
-4.75481e-27
-5.8813e-29
-3.05922e-26
-3.28434e-28
-2.0367e-25
-1.81366e-27
-1.40799e-24
-9.79452e-27
-1.00204e-23
-4.90767e-26
-7.39297e-23
-1.94555e-25
-5.54001e-22
-1.6922e-25
-2.46513e-21
7.77469e-24
3.47116e-22
-3.37422e-55
-2.1746e-57
-8.33728e-53
-5.54706e-55
-8.92415e-51
-6.05967e-53
-6.32283e-49
-4.38777e-51
-3.37843e-47
-2.39012e-49
-1.45253e-45
-1.04543e-47
-5.23754e-44
-3.82845e-46
-1.61544e-42
-1.19756e-44
-4.38648e-41
-3.28849e-43
-1.07841e-39
-8.19892e-42
-2.30508e-38
-1.80436e-40
-4.91205e-37
-3.75971e-39
-1.03734e-35
-9.44263e-38
-6.04707e-35
-1.66097e-36
-1.60172e-34
-8.42241e-36
-2.68358e-34
-2.02917e-35
-3.34591e-34
-3.114e-35
-3.48681e-34
-3.58245e-35
-2.73453e-34
-3.49864e-35
-1.80336e-34
-2.19587e-35
-1.10659e-34
-1.03207e-35
-5.3428e-35
-5.03151e-36
-2.00949e-35
-2.18403e-36
-8.61751e-36
-7.95276e-37
-8.06316e-36
-3.36969e-37
-1.12824e-35
-2.58218e-37
-3.805e-35
-4.42535e-37
-1.12468e-34
-1.56964e-36
-2.9135e-34
-4.70083e-36
-8.52951e-34
-1.41302e-35
-3.43414e-33
-5.48873e-35
-1.89244e-32
-2.84729e-34
-1.22404e-31
-1.72483e-33
-8.26628e-31
-1.08898e-32
-5.5572e-30
-6.81066e-32
-3.67491e-29
-4.14921e-31
-2.40659e-28
-2.45599e-30
-1.59213e-27
-1.41893e-29
-1.08686e-26
-8.03489e-29
-7.71475e-26
-4.39642e-28
-5.63736e-25
-2.17912e-27
-4.30103e-24
-7.77932e-27
-3.341e-23
1.05131e-26
-1.59192e-22
6.03304e-25
2.48042e-23
-2.16105e-57
-7.82089e-60
-5.53575e-55
-2.07526e-57
-6.0802e-53
-2.39387e-55
-4.42297e-51
-1.8194e-53
-2.42008e-49
-1.03469e-51
-1.06325e-47
-4.70532e-50
-3.91075e-46
-1.7853e-48
-1.22123e-44
-5.73888e-47
-3.40475e-43
-1.6142e-45
-8.5034e-42
-4.10617e-44
-1.87349e-40
-9.39936e-43
-3.9484e-39
-1.98603e-41
-9.88908e-38
-4.08407e-40
-1.15406e-36
-1.11102e-38
-4.51859e-36
-9.36506e-38
-9.4283e-36
-3.11455e-37
-1.33785e-35
-5.89615e-37
-1.44143e-35
-7.79448e-37
-1.24234e-35
-8.22805e-37
-6.69195e-36
-7.06096e-37
-3.56492e-36
-3.49568e-37
-1.75258e-36
-1.5435e-37
-6.95824e-37
-6.53486e-38
-2.62819e-37
-2.37775e-38
-1.87415e-37
-8.51393e-39
-2.13198e-37
-5.13549e-39
-6.01116e-37
-6.00621e-39
-2.09245e-36
-2.12185e-38
-6.31152e-36
-7.89252e-38
-2.16364e-35
-2.85938e-37
-1.01673e-34
-1.30396e-36
-6.24846e-34
-7.58477e-36
-4.3317e-33
-4.95453e-35
-3.08621e-32
-3.31775e-34
-2.18052e-31
-2.19158e-33
-1.51445e-30
-1.40948e-32
-1.03987e-29
-8.79762e-32
-7.18505e-29
-5.33594e-31
-5.10361e-28
-3.14421e-30
-3.76426e-27
-1.76773e-29
-2.85754e-26
-8.78563e-29
-2.24915e-25
-2.81241e-28
-1.81682e-24
1.24187e-27
-9.3161e-24
3.74704e-26
1.69035e-24
-7.87197e-60
-1.1459e-62
-2.11699e-57
-3.02629e-60
-2.44608e-55
-3.59663e-58
-1.86173e-53
-2.81294e-56
-1.06111e-51
-1.64398e-54
-4.83742e-50
-7.67692e-53
-1.84131e-48
-2.99024e-51
-5.95472e-47
-9.9452e-50
-1.6697e-45
-2.9066e-48
-4.26274e-44
-7.60108e-47
-9.79696e-43
-1.79358e-45
-2.07804e-41
-3.88864e-44
-4.31399e-40
-7.80911e-43
-9.56921e-39
-1.75519e-41
-5.88682e-38
-3.64978e-40
-1.62314e-37
-2.33986e-39
-2.75571e-37
-6.81797e-39
-3.40923e-37
-1.2e-38
-3.48769e-37
-1.51554e-38
-2.31391e-37
-1.56058e-38
-1.13548e-37
-1.20221e-38
-5.33708e-38
-5.06021e-39
-2.15836e-38
-1.86088e-39
-7.49027e-39
-6.54738e-40
-3.76382e-39
-2.16001e-40
-3.91501e-39
-9.88891e-41
-7.49881e-39
-8.52069e-41
-3.02019e-38
-2.21119e-40
-1.11411e-37
-1.0441e-39
-4.57979e-37
-4.77464e-39
-2.49923e-36
-2.57395e-38
-1.69738e-35
-1.67053e-37
-1.26022e-34
-1.178e-36
-9.51691e-34
-8.41686e-36
-7.1211e-33
-5.92248e-35
-5.24736e-32
-4.0624e-34
-3.82417e-31
-2.70511e-33
-2.79472e-30
-1.74374e-32
-2.08886e-29
-1.08221e-31
-1.61683e-28
-6.32873e-31
-1.28887e-27
-3.19952e-30
-1.04116e-26
-9.31147e-30
-8.66097e-26
7.42418e-29
-4.91041e-25
2.02623e-27
1.03736e-25
-1.14376e-62
-1.33587e-65
-3.03211e-60
-3.69939e-63
-3.62009e-58
-4.60092e-61
-2.84364e-56
-3.75645e-59
-1.66913e-54
-2.28698e-57
-7.82816e-53
-1.11051e-55
-3.0623e-51
-4.49109e-54
-1.02303e-49
-1.54912e-52
-3.00263e-48
-4.68784e-51
-7.88634e-47
-1.26981e-49
-1.86773e-45
-3.10945e-48
-4.06534e-44
-6.97203e-47
-8.23601e-43
-1.43979e-45
-1.99471e-41
-2.8069e-44
-3.03221e-40
-6.91862e-43
-1.51203e-39
-1.00366e-41
-3.75165e-39
-5.09869e-41
-5.97254e-39
-1.27778e-40
-7.08081e-39
-2.02797e-40
-6.94464e-39
-2.38656e-40
-3.85658e-39
-2.35459e-40
-1.57551e-39
-1.50252e-40
-6.08421e-40
-5.67859e-41
-2.07653e-40
-1.93941e-41
-7.85931e-41
-6.20642e-42
-6.7784e-41
-2.18104e-42
-8.58475e-41
-1.39483e-42
-3.301e-40
-2.0824e-42
-1.56961e-39
-1.08505e-41
-7.99337e-39
-6.54112e-41
-5.06304e-38
-4.22702e-40
-3.78591e-37
-3.06486e-39
-3.01776e-36
-2.34315e-38
-2.43038e-35
-1.79884e-37
-1.94152e-34
-1.35898e-36
-1.53247e-33
-1.00262e-35
-1.19794e-32
-7.18715e-35
-9.35296e-32
-4.96966e-34
-7.41907e-31
-3.27861e-33
-6.0654e-30
-2.01524e-32
-5.10648e-29
-1.05195e-31
-4.26357e-28
-2.89111e-31
-3.6023e-27
3.26438e-30
-2.42788e-26
9.23e-29
5.54295e-27
-1.33506e-65
-5.32773e-69
-3.71066e-63
-1.55265e-66
-4.63597e-61
-2.04445e-64
-3.80121e-59
-1.76133e-62
-2.32398e-57
-1.12784e-60
-1.13324e-55
-5.74496e-59
-4.60215e-54
-2.43169e-57
-1.59432e-52
-8.7658e-56
-4.85214e-51
-2.7593e-54
-1.31743e-49
-7.77804e-53
-3.23838e-48
-1.98409e-51
-7.2896e-47
-4.62096e-50
-1.51141e-45
-9.90624e-49
-3.00146e-44
-1.9704e-47
-7.64042e-43
-3.72584e-46
-8.32761e-42
-8.9282e-45
-3.36174e-41
-1.26422e-43
-7.2665e-41
-6.61504e-43
-1.05564e-40
-1.69202e-42
-1.16164e-40
-2.70284e-42
-1.02686e-40
-3.18085e-42
-4.83437e-41
-3.12907e-42
-1.82908e-41
-1.97009e-42
-6.30417e-42
-6.75661e-43
-2.05741e-42
-1.96187e-43
-1.1163e-42
-5.57623e-44
-1.19138e-42
-2.35783e-44
-2.92659e-42
-2.30501e-44
-1.75369e-41
-9.75505e-44
-1.14634e-40
-7.48966e-43
-8.48278e-40
-5.84346e-42
-6.99567e-39
-4.75762e-41
-6.01742e-38
-3.96625e-40
-5.20317e-37
-3.29399e-39
-4.46958e-36
-2.68999e-38
-3.80785e-35
-2.14772e-37
-3.21769e-34
-1.66605e-36
-2.70255e-33
-1.24237e-35
-2.2889e-32
-8.78849e-35
-1.98556e-31
-5.74583e-34
-1.76906e-30
-3.14334e-33
-1.53541e-29
-8.67327e-33
-1.31251e-28
1.14555e-31
-1.05218e-27
3.59901e-30
2.56913e-28
-5.345e-69
-2.18038e-72
-1.56619e-66
-6.54408e-70
-2.06845e-64
-9.05776e-68
-1.78713e-62
-8.19495e-66
-1.14808e-60
-5.50341e-64
-5.86758e-59
-2.93712e-62
-2.49282e-57
-1.30155e-60
-9.03895e-56
-4.92654e-59
-2.84766e-54
-1.62909e-57
-8.05557e-53
-4.79882e-56
-2.0629e-51
-1.27998e-54
-4.82318e-50
-3.11325e-53
-1.03797e-48
-6.96767e-52
-2.07244e-47
-1.44611e-50
-4.00158e-46
-2.80619e-49
-1.03202e-44
-5.4937e-48
-1.15261e-43
-1.33302e-46
-4.79113e-43
-1.26616e-45
-1.04593e-42
-5.0753e-45
-1.51812e-42
-1.10854e-44
-1.66577e-42
-1.62101e-44
-1.46581e-42
-1.81186e-44
-6.37798e-43
-1.73017e-44
-2.05466e-43
-9.95163e-45
-5.96216e-44
-3.62478e-45
-2.04405e-44
-1.2116e-45
-1.73542e-44
-4.48415e-46
-2.71341e-44
-3.08656e-46
-1.64552e-43
-8.86881e-46
-1.36998e-42
-7.60817e-45
-1.19118e-41
-7.01814e-44
-1.08878e-40
-6.41764e-43
-1.01683e-39
-5.85478e-42
-9.50246e-39
-5.27881e-41
-8.83155e-38
-4.67068e-40
-8.15896e-37
-4.03808e-39
-7.47197e-36
-3.38859e-38
-6.77987e-35
-2.72907e-37
-6.179e-34
-2.07911e-36
-5.71275e-33
-1.45318e-35
-5.38837e-32
-8.42682e-35
-4.93902e-31
-2.49696e-34
-4.20851e-30
3.31377e-33
-4.00519e-29
1.20594e-31
1.03664e-29
-2.18004e-72
-2.42295e-76
-6.56485e-70
-7.69878e-74
-9.12193e-68
-1.12687e-71
-8.2848e-66
-1.07666e-69
-5.58531e-64
-7.62568e-68
-2.99245e-62
-4.2871e-66
-1.33124e-60
-1.99912e-64
-5.05874e-59
-7.95565e-63
-1.67936e-57
-2.76336e-61
-4.96489e-56
-8.55013e-60
-1.32934e-54
-2.3932e-58
-3.24548e-53
-6.10479e-57
-7.2906e-52
-1.43248e-55
-1.51868e-50
-3.11632e-54
-2.9594e-49
-6.32807e-53
-6.41175e-48
-1.20727e-51
-1.45787e-46
-2.24379e-50
-1.1044e-45
-5.46438e-49
-3.63213e-45
-6.35194e-48
-6.99363e-45
-3.0591e-47
-9.48155e-45
-7.47858e-47
-9.9006e-45
-1.15999e-46
-8.10653e-45
-1.33722e-46
-3.56832e-45
-1.29827e-46
-1.29156e-45
-7.91228e-47
-4.34433e-46
-2.6669e-47
-2.64329e-46
-8.06796e-48
-3.11957e-46
-3.87188e-48
-1.45975e-45
-8.53466e-48
-1.42994e-44
-7.55802e-47
-1.44478e-43
-7.82473e-46
-1.4665e-42
-7.92675e-45
-1.49274e-41
-7.88189e-44
-1.51253e-40
-7.68724e-43
-1.52274e-39
-7.33343e-42
-1.52314e-38
-6.8213e-41
-1.50924e-37
-6.14948e-40
-1.4816e-36
-5.31841e-39
-1.45427e-35
-4.34632e-38
-1.43069e-34
-3.24745e-37
-1.43015e-33
-2.01572e-36
-1.40437e-32
-6.74147e-36
-1.18953e-31
7.978e-35
-1.33576e-30
3.4709e-33
3.6499e-31
-2.42271e-76
-1.87227e-80
-7.72236e-74
-6.31259e-78
-1.13456e-71
-9.82555e-76
-1.08799e-69
-9.96723e-74
-7.73422e-68
-7.48338e-72
-4.36424e-66
-4.45379e-70
-2.04264e-64
-2.19607e-68
-8.1593e-63
-9.23274e-67
-2.84631e-61
-3.38167e-65
-8.83354e-60
-1.10435e-63
-2.48118e-58
-3.25655e-62
-6.352e-57
-8.7489e-61
-1.49578e-55
-2.16151e-59
-3.26541e-54
-4.95e-58
-6.65343e-53
-1.05793e-56
-1.27363e-51
-2.12272e-55
-2.49441e-50
-4.02301e-54
-6.64631e-49
-7.53082e-53
-6.43774e-48
-1.76772e-51
-2.49637e-47
-2.16061e-50
-5.22854e-47
-1.15201e-49
-7.38584e-47
-3.10716e-49
-7.92365e-47
-5.21535e-49
-6.80576e-47
-6.37085e-49
-2.87367e-47
-6.4134e-49
-8.82962e-48
-4.70778e-49
-3.27803e-48
-1.77328e-49
-3.65165e-48
-6.72076e-50
-1.34209e-47
-8.96003e-50
-1.42137e-46
-7.38885e-49
-1.61056e-45
-8.25841e-48
-1.79959e-44
-9.07827e-47
-1.98965e-43
-9.73498e-46
-2.17726e-42
-1.0193e-44
-2.3602e-41
-1.04094e-43
-2.53613e-40
-1.03437e-42
-2.69769e-39
-9.95215e-42
-2.84337e-38
-9.18961e-41
-2.98463e-37
-8.01966e-40
-3.1183e-36
-6.40433e-39
-3.29608e-35
-4.29155e-38
-3.56452e-34
-1.66201e-37
-3.0347e-33
1.61284e-36
-3.88475e-32
8.71527e-35
1.1205e-32
-1.8753e-80
-1.6485e-84
-6.33964e-78
-5.82781e-82
-9.89707e-76
-9.62344e-80
-1.00705e-73
-1.0355e-77
-7.58591e-72
-8.2422e-76
-4.53015e-70
-5.19851e-74
-2.24141e-68
-2.71511e-72
-9.4643e-67
-1.21014e-70
-3.47584e-65
-4.70358e-69
-1.13895e-63
-1.62537e-67
-3.36997e-62
-5.06949e-66
-9.08459e-61
-1.44021e-64
-2.25202e-59
-3.76195e-63
-5.17443e-58
-9.10718e-62
-1.10951e-56
-2.05736e-60
-2.23333e-55
-4.36295e-59
-4.2464e-54
-8.73138e-58
-8.45826e-53
-1.66013e-56
-2.22711e-51
-3.25765e-55
-2.38135e-50
-7.18351e-54
-1.03873e-49
-8.64796e-53
-2.39641e-49
-4.58367e-52
-3.63055e-49
-1.22115e-51
-4.15479e-49
-2.01499e-51
-3.9538e-49
-2.42155e-51
-1.9391e-49
-2.40893e-51
-6.341e-50
-1.68737e-51
-4.9214e-50
-7.52481e-52
-1.29825e-49
-8.30865e-52
-1.36784e-48
-6.69838e-51
-1.68079e-47
-7.94914e-50
-2.03325e-46
-9.35547e-49
-2.41906e-45
-1.07356e-47
-2.83719e-44
-1.20124e-46
-3.28636e-43
-1.3093e-45
-3.76481e-42
-1.38714e-44
-4.26759e-41
-1.42241e-43
-4.79159e-40
-1.40069e-42
-5.34234e-39
-1.30555e-41
-5.92965e-38
-1.11811e-40
-6.6079e-37
-8.15337e-40
-8.50091e-36
-3.69738e-39
-7.08984e-35
2.49849e-38
-9.91798e-34
2.26908e-36
2.99503e-34
-1.64845e-84
-4.69436e-89
-5.84412e-82
-1.76331e-86
-9.68157e-80
-3.09353e-84
-1.04515e-77
-3.53655e-82
-8.34642e-76
-2.99051e-80
-5.28178e-74
-2.00354e-78
-2.76782e-72
-1.11136e-76
-1.23777e-70
-5.25993e-75
-4.82715e-69
-2.17057e-73
-1.67357e-67
-7.96414e-72
-5.23665e-66
-2.63646e-70
-1.49251e-64
-7.94904e-69
-3.91104e-63
-2.20345e-67
-9.4979e-62
-5.66041e-66
-2.15225e-60
-1.35682e-64
-4.57799e-59
-3.05296e-63
-9.18877e-58
-6.48222e-62
-1.75341e-56
-1.30485e-60
-3.74421e-55
-2.50277e-59
-9.51789e-54
-4.75223e-58
-1.01199e-52
-1.05107e-56
-4.36865e-52
-1.63252e-55
-9.89616e-52
-1.18115e-54
-1.47195e-51
-3.94435e-54
-1.65181e-51
-7.40384e-54
-1.51697e-51
-9.46762e-54
-7.01832e-52
-9.61339e-54
-5.01696e-52
-7.92558e-54
-1.13987e-51
-7.79686e-54
-1.21131e-50
-5.36971e-53
-1.58621e-49
-6.71776e-52
-2.053e-48
-8.43684e-51
-2.61056e-47
-1.03365e-49
-3.26735e-46
-1.2348e-48
-4.03209e-45
-1.43671e-47
-4.91418e-44
-1.62459e-46
-5.92243e-43
-1.77835e-45
-7.06592e-42
-1.87114e-44
-8.36069e-41
-1.86763e-43
-9.87982e-40
-1.72216e-42
-1.16685e-38
-1.37213e-41
-1.60861e-37
-7.28291e-41
-1.40402e-36
2.80674e-40
-2.32075e-35
4.89754e-38
7.03144e-36
-4.69425e-89
-1.24698e-93
-1.76796e-86
-4.97331e-91
-3.11104e-84
-9.28094e-89
-3.56742e-82
-1.12919e-86
-3.02595e-80
-1.0165e-84
-2.03364e-78
-7.25138e-83
-1.13161e-76
-4.28347e-81
-5.37271e-75
-2.15918e-79
-2.22406e-73
-9.4846e-78
-8.18629e-72
-3.70901e-76
-2.71825e-70
-1.30755e-74
-8.22061e-69
-4.19862e-73
-2.28559e-67
-1.23959e-71
-5.88878e-66
-3.39176e-70
-1.41567e-64
-8.66e-69
-3.19442e-63
-2.07558e-67
-6.80143e-62
-4.69425e-66
-1.37282e-60
-1.00651e-64
-2.6392e-59
-2.0545e-63
-5.07094e-58
-4.01223e-62
-1.44976e-56
-7.84658e-61
-2.23165e-55
-1.67575e-59
-1.32768e-54
-2.82863e-58
-3.64041e-54
-2.44834e-57
-5.95359e-54
-9.75365e-57
-6.95829e-54
-2.08763e-56
-6.57462e-54
-2.94444e-56
-5.19809e-54
-3.40072e-56
-9.60366e-54
-5.57963e-56
-9.42124e-53
-3.79295e-55
-1.30742e-51
-4.93607e-54
-1.80442e-50
-6.61513e-53
-2.44703e-49
-8.66354e-52
-3.26551e-48
-1.10666e-50
-4.29441e-47
-1.37735e-49
-5.57366e-46
-1.66662e-48
-7.14959e-45
-1.95335e-47
-9.07516e-44
-2.20335e-46
-1.14247e-42
-2.36361e-45
-1.43925e-41
-2.35591e-44
-1.79818e-40
-2.05853e-43
-2.77116e-39
-1.2716e-42
-2.37379e-38
1.74322e-42
-4.73763e-37
8.75102e-40
1.45405e-37
-1.24687e-93
-3.48244e-98
-4.98093e-91
-1.46248e-95
-9.32316e-89
-2.89906e-93
-1.13773e-86
-3.75271e-91
-1.02731e-84
-3.5979e-89
-7.35093e-83
-2.73606e-87
-4.35542e-81
-1.72405e-85
-2.20224e-79
-9.27768e-84
-9.70452e-78
-4.35852e-82
-3.80596e-76
-1.82048e-80
-1.34558e-74
-6.85675e-79
-4.33308e-73
-2.35298e-77
-1.28289e-71