/*--------------------------------*- C++ -*----------------------------------*\
  =========                 |
  \\      /  F ield         | OpenFOAM: The Open Source CFD Toolbox
   \\    /   O peration     | Website:  https://openfoam.org
    \\  /    A nd           | Version:  9
     \\/     M anipulation  |
\*---------------------------------------------------------------------------*/
FoamFile
{
    format      ascii;
    class       volScalarField;
    location    "0.3";
    object      alpha.water;
}
// * * * * * * * * * * * * * * * * * * * * * * * * * * * * * * * * * * * * * //

dimensions      [0 0 0 0 0 0 0];

internalField   nonuniform List<scalar> 
1915
(
5.86735e-13
9.55233e-13
1.15259e-12
1.19991e-12
1.04298e-12
1.0852e-12
1.18849e-12
1.19996e-12
1.16628e-12
1.2834e-12
1.37373e-12
1.38764e-12
1.38396e-12
1.42784e-12
1.64892e-12
3.11276e-12
1.0292e-11
3.23945e-11
7.76039e-11
1.41534e-10
2.11829e-10
1.43519e-09
9.81665e-09
6.27718e-08
3.85836e-07
-8.93813e-19
-1.81364e-17
-1.78022e-16
-1.10711e-15
-4.79569e-15
-1.48792e-14
-3.28067e-14
-4.89051e-14
-5.17676e-14
-7.59698e-14
-1.28746e-13
-1.82724e-13
-2.09377e-13
-2.02683e-13
-1.15927e-13
4.12368e-14
8.76077e-14
3.56294e-14
3.18757e-14
5.24525e-14
1.36742e-13
2.2538e-13
2.798e-13
2.99911e-13
2.85533e-13
2.60379e-13
2.44375e-13
2.35599e-13
2.45774e-13
2.71043e-13
2.85206e-13
2.87522e-13
2.95418e-13
3.16597e-13
3.99284e-13
8.7415e-13
3.59157e-12
1.59184e-11
5.32158e-11
1.1469e-10
1.76726e-10
1.01111e-09
7.01085e-09
4.40298e-08
2.5466e-07
-6.31295e-19
-1.17542e-17
-1.07741e-16
-6.19054e-16
-2.43556e-15
-6.73492e-15
-1.30008e-14
-1.74718e-14
-1.95016e-14
-2.77666e-14
-4.13891e-14
-5.4576e-14
-6.05258e-14
-4.74639e-14
-7.70495e-15
3.21705e-14
1.79867e-14
1.13629e-14
8.62519e-15
1.2184e-14
3.53563e-14
6.44189e-14
8.3228e-14
8.87884e-14
6.88112e-14
4.61115e-14
3.79854e-14
3.73548e-14
4.0963e-14
4.46001e-14
4.70646e-14
4.92485e-14
5.28856e-14
6.05832e-14
8.96006e-14
2.57042e-13
1.36198e-12
7.87895e-12
3.40675e-11
8.54565e-11
1.45215e-10
7.09769e-10
4.9027e-09
3.07065e-08
1.73771e-07
-3.5013e-19
-6.08061e-18
-5.20429e-17
-2.76193e-16
-9.89911e-16
-2.4633e-15
-4.27943e-15
-5.41277e-15
-6.20724e-15
-8.44602e-15
-1.15563e-14
-1.40566e-14
-1.34005e-14
-6.54339e-15
4.37042e-15
5.96506e-15
3.87455e-15
3.07523e-15
2.14083e-15
2.95403e-15
9.06496e-15
1.71042e-14
2.17695e-14
2.2316e-14
1.28585e-14
6.65476e-15
4.96659e-15
4.79718e-15
5.29532e-15
5.90815e-15
6.48332e-15
7.18933e-15
8.22826e-15
1.04502e-14
1.94429e-14
7.33874e-14
4.5436e-13
3.11245e-12
1.686e-11
5.1881e-11
1.10477e-10
5.23819e-10
3.44431e-09
2.15066e-08
1.22713e-07
-1.49009e-19
-2.42923e-18
-1.94427e-17
-9.55912e-17
-3.14372e-16
-7.1431e-16
-1.14536e-15
-1.3979e-15
-1.61617e-15
-2.08297e-15
-2.58926e-15
-2.72779e-15
-1.93231e-15
-9.60654e-17
9.86188e-16
8.82641e-16
1.01377e-15
6.97975e-16
4.62263e-16
6.03416e-16
1.73485e-15
3.08427e-15
3.74271e-15
3.69917e-15
1.81633e-15
7.75154e-16
5.14853e-16
4.85408e-16
5.51498e-16
6.60507e-16
7.79085e-16
9.25332e-16
1.1437e-15
1.67498e-15
4.08314e-15
1.93398e-14
1.30911e-13
9.9005e-13
6.56548e-12
2.54068e-11
6.86272e-11
3.59976e-10
2.23668e-09
1.40157e-08
8.11356e-08
-4.61405e-20
-7.08816e-19
-5.32283e-18
-2.43822e-17
-7.43023e-17
-1.56569e-16
-2.36516e-16
-2.81947e-16
-3.21462e-16
-3.81344e-16
-4.09364e-16
-3.38523e-16
-1.30849e-16
1.08933e-16
1.37535e-16
1.91616e-16
2.02022e-16
1.28539e-16
7.78337e-17
8.77123e-17
2.216e-16
3.68969e-16
4.31268e-16
3.92197e-16
1.66435e-16
6.51133e-17
4.16949e-17
3.99477e-17
4.94009e-17
6.54799e-17
8.3711e-17
1.0686e-16
1.45084e-16
2.52553e-16
7.89408e-16
4.37934e-15
3.09379e-14
2.36484e-13
1.82299e-12
9.59652e-12
3.38202e-11
1.61295e-10
8.45582e-10
5.29421e-09
3.06879e-08
-9.32833e-21
-1.35511e-19
-9.5938e-19
-4.12433e-18
-1.17708e-17
-2.33307e-17
-3.36922e-17
-3.92678e-17
-4.29294e-17
-4.4914e-17
-3.84992e-17
-2.08917e-17
4.78747e-19
8.99517e-18
2.1746e-17
3.06254e-17
3.22399e-17
1.98581e-17
9.68823e-18
9.00796e-18
1.7286e-17
2.54471e-17
2.79671e-17
1.96613e-17
7.18231e-18
3.2563e-18
2.52608e-18
2.76293e-18
4.09069e-18
5.91485e-18
8.11688e-18
1.1137e-17
1.67895e-17
3.51187e-17
1.32612e-16
7.95527e-16
5.7134e-15
4.29943e-14
3.32736e-13
2.46543e-12
1.21016e-11
4.27728e-11
2.10204e-10
9.81642e-10
5.29389e-09
-9.31074e-22
-1.28439e-20
-8.62237e-20
-3.50586e-19
-9.46297e-19
-1.78293e-18
-2.47441e-18
-2.77761e-18
-2.78796e-18
-2.4122e-18
-1.46564e-18
-3.598e-19
2.15461e-19
1.09381e-18
2.67227e-18
3.69867e-18
3.92185e-18
2.40119e-18
8.6445e-19
5.63502e-19
6.02508e-19
7.42562e-19
7.31617e-19
3.46064e-19
1.38098e-19
9.90583e-20
1.08931e-19
1.91031e-19
3.20725e-19
4.84221e-19
7.05267e-19
1.04448e-18
1.77805e-18
4.44273e-18
1.89715e-17
1.16161e-16
8.24237e-16
6.11674e-15
4.5592e-14
3.43224e-13
2.62721e-12
1.19772e-11
3.27282e-11
1.35044e-10
5.74063e-10
-1.27587e-46
-6.07918e-44
-1.00977e-41
-9.88725e-40
-6.95141e-38
-3.78442e-36
-1.68814e-34
-6.70411e-33
-4.41323e-31
-1.01764e-28
-3.67006e-27
4.53062e-23
1.2454e-20
9.04709e-20
2.13897e-19
2.96729e-19
3.17473e-19
2.03652e-19
6.473e-20
2.25809e-20
1.22158e-20
8.48979e-21
5.41426e-21
2.97575e-21
2.24174e-21
2.63147e-21
6.14e-21
1.27904e-20
2.21625e-20
3.54855e-20
5.48967e-20
8.83541e-20
1.73202e-19
5.12457e-19
2.36439e-18
1.42254e-17
9.66458e-17
6.9252e-16
5.04533e-15
3.66484e-14
2.66584e-13
1.98988e-12
8.81699e-12
2.17231e-11
5.58217e-11
2.02364e-42
1.19017e-41
2.3033e-39
2.48135e-37
1.81646e-35
1.01576e-33
4.62175e-32
1.77322e-30
4.31502e-29
9.10493e-28
2.51271e-26
7.9593e-24
7.54304e-22
4.03916e-21
8.92174e-21
1.22365e-20
1.30714e-20
8.75083e-21
3.02254e-21
1.04395e-21
4.0942e-22
1.80627e-22
9.67565e-23
7.25222e-23
7.21367e-23
1.43432e-22
3.6733e-22
7.59903e-22
1.3761e-21
2.31548e-21
3.80519e-21
6.7788e-21
1.56742e-20
5.48065e-20
2.69736e-19
1.58424e-18
1.01732e-17
6.90632e-17
4.84656e-16
3.44308e-15
2.45768e-14
1.79394e-13
1.19706e-12
3.82211e-12
5.31049e-12
9.56462e-44
1.50857e-42
2.01605e-40
2.21436e-38
1.63519e-36
9.1768e-35
3.91278e-33
-7.29545e-31
-5.82765e-29
-1.5099e-27
-1.6684e-26
8.22528e-24
4.02116e-23
8.23242e-23
1.03755e-22
1.04389e-22
5.80376e-23
2.77294e-23
2.06989e-23
1.78109e-23
1.25316e-23
6.72537e-24
3.70067e-24
2.90842e-24
3.18844e-24
7.59238e-24
1.9301e-23
4.04135e-23
7.57193e-23
1.33223e-22
2.34962e-22
4.73477e-22
1.31352e-21
5.36876e-21
2.80201e-20
1.62271e-19
9.91627e-19
6.35259e-18
4.25316e-17
2.93772e-16
2.07063e-15
1.51412e-14
1.1121e-13
3.59119e-13
4.36835e-13
-1.14407e-44
-5.93618e-42
-6.95724e-40
-5.44802e-38
-3.2204e-36
-1.53286e-34
-6.09724e-33
-1.15905e-31
3.08187e-32
6.74628e-31
3.56225e-27
4.85556e-25
3.51025e-24
8.0856e-24
1.05976e-23
1.08097e-23
5.73503e-24
2.07993e-24
1.22804e-24
1.00366e-24
7.74271e-25
4.39819e-25
2.19156e-25
1.50174e-25
1.47315e-25
3.11897e-25
8.46882e-25
1.86526e-24
3.63069e-24
6.72433e-24
1.29133e-23
3.00069e-23
9.98889e-23
4.65516e-22
2.55353e-21
1.47278e-20
8.66716e-20
5.25257e-19
3.33147e-18
2.21624e-17
1.53232e-16
1.11066e-15
8.30774e-15
2.74968e-14
3.29104e-14
8.20937e-48
3.08466e-46
6.13569e-44
6.37099e-42
4.4535e-40
2.35822e-38
9.67806e-37
2.99905e-35
7.33878e-34
1.43226e-32
1.91615e-30
3.61303e-28
5.19369e-27
1.93629e-26
3.86971e-26
5.52725e-26
6.51274e-26
6.86512e-26
6.12752e-26
4.99458e-26
3.56659e-26
1.90095e-26
9.06189e-27
5.74792e-27
5.38484e-27
1.06256e-26
3.10739e-26
7.32103e-26
1.50081e-25
2.96061e-25
6.28505e-25
1.70672e-24
6.72602e-24
3.4894e-23
2.00634e-22
1.17024e-21
6.78239e-21
3.96362e-20
2.40377e-19
1.54175e-18
1.0457e-17
7.50705e-17
5.54923e-16
1.90454e-15
2.40267e-15
1.96939e-49
7.15946e-48
1.16522e-45
1.25529e-43
9.03218e-42
4.90437e-40
2.12624e-38
1.02755e-37
-2.39794e-35
-4.6626e-34
2.75489e-32
4.84337e-30
2.05481e-28
1.16768e-27
2.80104e-27
4.21844e-27
4.84992e-27
4.87935e-27
3.47528e-27
2.42999e-27
1.65861e-27
8.78794e-28
3.80102e-28
1.99746e-28
1.69913e-28
2.94097e-28
9.50932e-28
2.43322e-27
5.31081e-27
1.12965e-26
2.68744e-26
8.56014e-26
3.90989e-25
2.21623e-24
1.3363e-23
7.99855e-23
4.67602e-22
2.70934e-21
1.60993e-20
1.01228e-19
6.80048e-19
4.86751e-18
3.54835e-17
1.25672e-16
1.72731e-16
-3.89758e-51
-3.80658e-48
-3.64188e-46
-2.23848e-44
-1.06167e-42
-4.10789e-41
-1.32597e-39
-2.29714e-38
3.88937e-37
9.64164e-36
4.04539e-34
1.30477e-31
6.99614e-30
4.36997e-29
1.12968e-28
1.82461e-28
2.23979e-28
2.35769e-28
1.93959e-28
1.32527e-28
9.12516e-29
5.07445e-29
2.17358e-29
9.17222e-30
6.30624e-30
7.14922e-30
2.27015e-29
6.72289e-29
1.59877e-28
3.70151e-28
9.97712e-28
3.71279e-27
1.92172e-26
1.17486e-25
7.44085e-25
4.62281e-24
2.77924e-23
1.63783e-22
9.7956e-22
6.18002e-21
4.18983e-20
3.06026e-19
2.22494e-18
7.71731e-18
1.19229e-17
2.06624e-53
3.12756e-51
5.11922e-49
3.76119e-47
2.07718e-45
9.21227e-44
3.4213e-42
1.0952e-40
3.00323e-39
6.24456e-38
2.89396e-36
6.68341e-34
1.01083e-31
9.91856e-31
3.33394e-30
6.38685e-30
8.69354e-30
9.56697e-30
9.15306e-30
5.82419e-30
3.60989e-30
2.02053e-30
8.81471e-31
3.37051e-31
1.82405e-31
1.66559e-31
4.35982e-31
1.50939e-30
4.01983e-30
1.0304e-29
3.17151e-29
1.36499e-28
7.85978e-28
5.14176e-27
3.42745e-26
2.22888e-25
1.39717e-24
8.53061e-24
5.24537e-23
3.38885e-22
2.35269e-21
1.75841e-20
1.30307e-19
4.47167e-19
7.54859e-19
7.71439e-56
1.72626e-53
1.53241e-51
1.07733e-49
5.94476e-48
2.68804e-46
1.03863e-44
1.52202e-43
-1.80935e-41
-2.50947e-40
1.63993e-38
9.33373e-37
4.67854e-34
1.45537e-32
8.14389e-32
2.05929e-31
3.2804e-31
3.9184e-31
4.00375e-31
2.61056e-31
1.27489e-31
6.49475e-32
2.95869e-32
1.13587e-32
5.06488e-33
3.96044e-33
6.69225e-33
2.63369e-32
8.26161e-32
2.40558e-31
8.49641e-31
4.17836e-30
2.64113e-29
1.84226e-28
1.2969e-27
8.89429e-27
5.87754e-26
3.77131e-25
2.42271e-24
1.62837e-23
1.17434e-22
8.9754e-22
6.59515e-21
2.24547e-20
4.26027e-20
-7.56179e-58
-6.64583e-55
-6.58666e-53
-4.24872e-51
-2.07112e-49
-8.03174e-48
-2.57619e-46
-4.89669e-45
3.00031e-44
7.96146e-43
3.34108e-41
7.23073e-40
5.34528e-37
8.97454e-35
9.11791e-34
3.22442e-33
6.36088e-33
8.73677e-33
9.60819e-33
8.6547e-33
4.47389e-33
2.06305e-33
9.14392e-34
3.49821e-34
1.32143e-34
8.35547e-35
9.09744e-35
3.46289e-34
1.34745e-33
4.62231e-33
1.89058e-32
1.05307e-31
7.25402e-31
5.39337e-30
4.02577e-29
2.93278e-28
2.065e-27
1.41156e-26
9.61135e-26
6.8194e-25
5.19947e-24
4.07485e-23
2.82389e-22
9.68622e-22
2.12564e-21
1.43223e-61
3.65784e-59
4.56895e-57
3.75062e-55
2.29922e-53
1.1255e-51
4.59238e-50
1.60946e-48
4.9512e-47
1.09338e-45
6.09537e-44
1.33926e-42
7.08382e-41
6.79856e-38
3.34989e-36
2.45317e-35
7.56498e-35
1.38797e-34
1.82481e-34
1.96732e-34
1.59172e-34
6.99114e-35
2.69337e-35
9.96023e-36
3.47938e-36
1.66481e-36
1.38605e-36
3.3694e-36
1.6668e-35
7.14217e-35
3.44311e-34
2.16227e-33
1.61832e-32
1.28524e-31
1.02275e-30
7.98146e-30
6.05869e-29
4.47367e-28
3.27226e-27
2.4809e-26
2.0211e-25
1.6415e-24
1.0483e-23
3.84547e-23
9.3688e-23
5.90778e-65
1.35824e-62
9.83857e-62
-2.8636e-59
-2.58228e-57
-1.31003e-55
-4.00908e-54
-6.07261e-53
-1.00429e-49
-4.56553e-49
4.01219e-47
9.68893e-46
1.98216e-44
1.02441e-41
4.53821e-39
1.02799e-37
5.77726e-37
1.52441e-36
2.52068e-36
3.09288e-36
3.21131e-36
2.14679e-36
8.53655e-37
3.065e-37
1.03336e-37
3.82219e-38
2.49746e-38
2.95872e-38
1.49597e-37
8.62665e-37
5.07374e-36
3.60734e-35
2.93998e-34
2.50656e-33
2.13998e-32
1.80411e-31
1.49394e-30
1.20764e-29
9.60278e-29
7.86664e-28
6.89344e-27
5.81305e-26
3.35681e-25
1.30028e-24
3.6478e-24
-2.65294e-67
-2.57489e-64
-2.85395e-62
-2.02194e-60
-1.07271e-58
-4.46926e-57
-1.53169e-55
-3.2156e-54
1.87892e-53
5.60651e-52
2.73221e-50
6.78318e-49
1.5502e-47
3.07911e-46
1.51065e-43
6.24071e-41
1.37864e-39
8.03462e-39
2.16858e-38
3.61349e-38
4.43971e-38
4.61209e-38
3.0461e-38
1.09503e-38
3.35199e-39
1.01097e-39
4.42998e-40
3.53246e-40
1.0502e-39
8.01498e-39
5.99271e-38
4.89777e-37
4.37739e-36
4.03682e-35
3.72867e-34
3.42747e-33
3.12042e-32
2.77721e-31
2.43352e-30
2.19861e-29
2.08422e-28
1.84822e-27
9.70824e-27
3.68042e-26
1.25377e-25
2.88932e-72
8.71035e-70
1.27541e-67
1.18452e-65
8.17955e-64
4.52426e-62
2.09212e-60
8.37739e-59
2.95945e-57
1.20227e-55
5.17428e-54
1.34111e-52
3.20399e-51
6.68383e-50
2.42656e-48
9.91533e-45
1.28005e-42
1.53761e-41
6.6707e-41
1.53063e-40
2.33641e-40
2.72913e-40
2.75601e-40
1.65964e-40
6.38948e-41
2.2669e-41
8.76251e-42
5.46582e-42
7.68738e-42
5.96571e-41
5.75329e-40
5.50795e-39
5.46479e-38
5.50679e-37
5.54956e-36
5.58882e-35
5.60003e-34
5.51709e-33
5.39633e-32
5.39491e-31
5.49967e-30
5.19235e-29
2.46502e-28
8.51662e-28
3.80208e-27
2.30486e-76
5.1608e-74
-1.95856e-71
-2.91403e-69
-2.31727e-67
-1.31183e-65
-5.47754e-64
-1.79922e-62
-2.65055e-60
2.09533e-59
7.22871e-58
1.97217e-56
4.95901e-55
1.15857e-53
2.42435e-52
4.96159e-51
1.90619e-47
5.02665e-45
8.10113e-44
4.31434e-43
1.11462e-42
1.80949e-42
2.18645e-42
2.25104e-42
1.44139e-42
5.13223e-43
1.63536e-43
7.51456e-44
6.88053e-44
4.25803e-43
4.92083e-42
5.52859e-41
6.1636e-40
6.84635e-39
7.55912e-38
8.31819e-37
9.1045e-36
9.85442e-35
1.06453e-33
1.162e-32
1.26739e-31
1.28906e-30
5.69232e-30
1.56843e-29
1.01979e-28
-5.16855e-79
-5.38524e-76
-6.94267e-74
-5.6713e-72
-3.45498e-70
-1.63865e-68
-6.40249e-67
-1.72854e-65
6.01946e-65
3.32519e-63
1.1651e-61
3.36794e-60
8.96775e-59
2.21802e-57
5.13249e-56
1.05183e-54
2.7025e-53
8.61264e-50
1.67361e-47
2.91438e-46
1.74275e-45
4.99589e-45
8.80787e-45
1.13037e-44
1.20565e-44
9.36334e-45
3.72426e-45
1.40541e-45
8.72769e-46
3.27728e-45
4.12574e-44
5.28611e-43
6.57838e-42
8.03677e-41
9.67631e-40
1.15326e-38
1.36344e-37
1.59924e-36
1.87092e-35
2.19608e-34
2.56448e-33
2.93802e-32
1.25051e-31
2.12642e-31
2.43966e-30
6.17038e-85
2.23733e-82
3.92712e-80
4.10635e-78
3.21878e-76
2.04682e-74
1.09999e-72
5.22398e-71
2.21886e-69
1.33857e-67
6.0367e-66
1.84123e-64
5.17472e-63
1.35172e-61
3.30644e-60
7.62329e-59
1.56966e-57
3.54961e-55
7.88407e-52
7.4633e-50
1.26242e-48
7.50234e-48
2.12649e-47
3.69202e-47
4.67167e-47
4.93305e-47
3.65417e-47
1.64015e-47
9.10389e-48
2.63619e-47
3.38631e-46
4.75514e-45
6.47878e-44
8.61943e-43
1.12416e-41
1.44359e-40
1.83233e-39
2.30532e-38
2.887e-37
3.62761e-36
4.57392e-35
5.59718e-34
2.50914e-33
4.23697e-33
5.21702e-32
1.68836e-89
4.19195e-87
-4.57172e-84
-7.47278e-82
-6.84142e-80
-4.52507e-78
-2.22615e-76
-8.63349e-75
-9.85996e-73
7.75487e-72
3.10322e-70
1.0098e-68
3.02792e-67
8.4367e-66
2.20064e-64
5.40834e-63
1.25938e-61
2.63569e-60
1.60948e-58
5.29701e-55
9.16447e-53
2.40742e-51
2.06186e-50
7.42942e-50
1.4747e-49
1.98938e-49
2.14616e-49
1.81519e-49
1.0982e-49
2.04682e-49
2.5493e-48
3.86144e-47
5.68797e-46
8.17363e-45
1.14959e-43
1.58745e-42
2.16017e-41
2.90736e-40
3.88897e-39
5.23444e-38
7.0848e-37
9.55578e-36
4.67952e-35
7.53346e-35
9.98639e-34
-1.86519e-92
-2.10497e-89
-3.19421e-87
-3.0642e-85
-2.19729e-83
-1.22422e-81
-5.59866e-80
-1.94052e-78
6.17185e-78
4.0307e-76
1.6822e-74
5.86318e-73
1.8829e-71
5.61857e-70
1.56914e-68
4.12728e-67
1.02808e-65
2.43688e-64
5.23372e-63
6.21724e-61
1.18218e-57
1.38494e-55
4.26511e-54
4.55387e-53
1.98484e-52
4.51529e-52
6.72421e-52
7.90319e-52
8.57253e-52
1.59797e-51
1.7127e-50
2.75964e-49
4.37952e-48
6.77838e-47
1.02662e-45
1.52479e-44
2.22738e-43
3.21278e-42
4.60198e-41
6.66308e-40
9.74613e-39
1.51207e-37
8.93571e-37
1.19698e-36
1.71267e-35
6.44283e-99
2.79368e-96
5.89513e-94
7.39362e-92
7.01175e-90
5.43002e-88
3.56379e-86
2.0706e-84
1.07839e-82
8.5181e-81
4.12763e-79
1.53613e-77
5.27147e-76
1.68234e-74
5.02999e-73
1.41793e-71
3.78954e-70
9.6486e-69
2.34852e-67
5.56287e-66
2.13313e-63
2.79536e-60
2.64293e-58
9.40456e-57
1.17564e-55
5.62849e-55
1.34126e-54
2.12415e-54
2.94383e-54
8.16017e-54
9.83258e-53
1.69078e-51
2.89296e-50
4.82824e-49
7.88414e-48
1.26238e-46
1.98663e-45
3.08267e-44
4.74194e-43
7.37606e-42
1.16146e-40
2.1234e-39
1.48444e-38
1.70184e-38
2.63578e-37
1.13466e-103
4.17107e-101
-3.19892e-98
-6.34122e-96
-6.85386e-94
-5.3445e-92
-3.04687e-90
-1.31394e-88
-1.47456e-86
2.7799e-85
1.28337e-83
5.16125e-82
1.91457e-80
6.60445e-79
2.13364e-77
6.49497e-76
1.87293e-74
5.14039e-73
1.34834e-71
3.38708e-70
1.02828e-68
4.26744e-66
2.50517e-63
2.10406e-61
1.02195e-59
1.85195e-58
1.1812e-57
3.54013e-57
7.68435e-57
3.274e-56
4.72698e-55
8.83255e-54
1.63563e-52
2.95382e-51
5.2164e-50
9.03229e-49
1.53672e-47
2.5766e-46
4.27967e-45
7.12482e-44
1.20481e-42
2.65059e-41
2.03475e-40
2.17002e-40
3.65019e-39
-3.70697e-107
-6.10927e-104
-1.04952e-101
-1.10975e-99
-8.542e-98
-4.72641e-96
-1.7799e-94
-6.06615e-94
1.11421e-90
6.67723e-89
3.20289e-87
1.40029e-85
5.64781e-84
2.11787e-82
7.43304e-81
2.45583e-79
7.67738e-78
2.28129e-76
6.46949e-75
1.75743e-73
4.55574e-72
1.27642e-70
1.92463e-68
3.60675e-66
2.33493e-64
1.11409e-62
2.40282e-61
2.08415e-60
1.13342e-59
1.03867e-58
1.89564e-57
3.89715e-56
7.86264e-55
1.54415e-53
2.96233e-52
5.57021e-51
1.02913e-49
1.87222e-48
3.36879e-47
6.06164e-46
1.11718e-44
2.85446e-43
2.41288e-42
2.48959e-42
4.56605e-41
5.0559e-111
2.5993e-108
6.60093e-106
1.11032e-103
1.39929e-101
1.41221e-99
1.19046e-97
8.63381e-96
5.78635e-94
3.5302e-92
1.83242e-90
8.70493e-89
3.81861e-87
1.55855e-85
5.957e-84
2.14422e-82
7.3047e-81
2.36562e-79
7.31177e-78
2.16473e-76
6.1591e-75
1.68907e-73
4.49322e-72
1.23372e-70
5.30421e-69
4.83042e-67
2.165e-65
6.18109e-64
1.30163e-62
2.75643e-61
6.30603e-60
1.43901e-58
3.18587e-57
6.84767e-56
1.43538e-54
2.94601e-53
5.93844e-52
1.17846e-50
2.30985e-49
4.4969e-48
9.04509e-47
2.69238e-45
2.50012e-44
2.57506e-44
5.17376e-43
1.01967e-114
5.5624e-112
1.31186e-109
2.28799e-107
3.13871e-105
3.49951e-103
3.30487e-101
2.69447e-99
2.25095e-97
1.40641e-95
7.96699e-94
4.13638e-92
1.98546e-90
8.87554e-89
3.71827e-87
1.46779e-85
5.48593e-84
1.94965e-82
6.61393e-81
2.14923e-79
6.71158e-78
2.02013e-76
5.87688e-75
1.65356e-73
4.40036e-72
1.42839e-70
1.48838e-68
6.55768e-67
2.18296e-65
6.37263e-64
1.71879e-62
4.39265e-61
1.07711e-59
2.55417e-58
5.89249e-57
1.32881e-55
2.94001e-54
6.40002e-53
1.3746e-51
2.92474e-50
6.4701e-49
2.16687e-47
2.23541e-46
2.44663e-46
5.31208e-45
-7.26049e-120
-1.44464e-115
-2.39897e-113
-1.64887e-111
7.04412e-110
3.72487e-107
6.04117e-105
7.20912e-103
5.63943e-101
3.86515e-99
2.40757e-97
1.37682e-95
7.28949e-94
3.59816e-92
1.66586e-90
7.27171e-89
3.0066e-87
1.18235e-85
4.43878e-84
1.59628e-82
5.51618e-81
1.83704e-79
5.91189e-78
1.84315e-76
5.55577e-75
1.60191e-73
6.62739e-72
7.83781e-70
3.44399e-68
1.2032e-66
3.74683e-65
1.08497e-63
2.98352e-62
7.88784e-61
2.02132e-59
5.05034e-58
1.23588e-56
2.97262e-55
7.04639e-54
1.64993e-52
4.02162e-51
1.22728e-49
1.79969e-48
6.78343e-48
4.93429e-47
1.08604e-122
6.939e-120
2.19507e-117
4.64152e-115
7.41953e-113
9.61104e-111
1.14194e-108
1.0867e-106
9.16438e-105
6.95665e-103
4.8113e-101
3.0612e-99
1.80603e-97
9.946e-96
5.14193e-94
2.50789e-92
1.15905e-90
5.09581e-89
2.13896e-87
8.59992e-86
3.3221e-84
1.23649e-82
4.4461e-81
1.54834e-79
5.2344e-78
1.69651e-76
5.43866e-75
3.34781e-73
3.58385e-71
1.66363e-69
6.24482e-68
2.10251e-66
6.60571e-65
1.9758e-63
5.69342e-62
1.59317e-60
4.35434e-59
1.16759e-57
3.08102e-56
8.0171e-55
2.15377e-53
6.74797e-52
1.3171e-50
1.13251e-49
4.13627e-49
4.92211e-127
3.418e-124
1.16061e-121
2.66967e-119
4.67978e-117
7.25115e-115
8.81271e-113
9.32229e-111
8.77984e-109
7.47179e-107
5.81113e-105
4.16768e-103
2.77655e-101
1.72888e-99
1.01149e-97
5.58611e-96
2.92416e-94
1.45634e-92
6.92449e-91
3.1532e-89
1.37924e-87
5.8111e-86
2.36448e-84
9.31409e-83
3.56028e-81
1.32349e-79
4.73058e-78
1.67067e-76
1.14239e-74
1.44106e-72
7.41013e-71
3.06502e-69
1.13627e-67
3.93254e-66
1.29679e-64
4.12417e-63
1.27522e-61
3.85638e-60
1.1452e-58
3.35019e-57
9.97195e-56
3.23886e-54
8.26223e-53
9.98993e-52
3.12063e-51
3.2762e-132
-1.23769e-128
-1.81399e-126
1.39472e-124
1.09379e-121
2.5254e-119
3.42048e-117
4.07546e-115
4.35147e-113
4.21954e-111
3.75359e-109
3.0877e-107
2.36404e-105
1.69392e-103
1.14138e-101
7.26301e-100
4.38151e-98
2.51474e-96
1.37768e-94
7.2264e-93
3.63972e-91
1.76507e-89
8.26263e-88
3.74275e-86
1.64428e-84
7.02138e-83
2.9203e-81
1.1815e-79
4.60082e-78
2.54395e-76
5.00286e-74
3.02111e-72
1.41846e-70
5.91556e-69
2.29565e-67
8.47856e-66
3.01951e-64
1.04593e-62
3.54498e-61
1.18128e-59
3.94603e-58
1.38048e-56
4.44418e-55
6.81093e-54
2.11165e-53
9.5237e-137
8.21434e-134
3.28395e-131
8.85496e-129
1.99939e-126
3.53052e-124
5.41705e-122
7.40197e-120
9.14781e-118
1.03366e-115
1.07658e-113
1.0402e-111
9.37408e-110
7.91614e-108
6.29066e-106
4.72222e-104
3.36057e-102
2.27483e-100
1.46934e-98
9.08294e-97
5.3887e-95
3.07649e-93
1.69449e-91
9.02567e-90
4.65975e-88
2.33681e-86
1.14064e-84
5.42964e-83
2.52404e-81
1.12369e-79
5.68917e-78
1.41086e-75
1.11054e-73
6.16638e-72
2.97346e-70
1.32266e-68
5.5771e-67
2.26332e-65
8.92588e-64
3.44483e-62
1.31924e-60
5.19756e-59
2.01516e-57
3.74389e-56
1.27536e-55
2.57445e-142
2.47645e-139
9.95221e-137
2.82474e-134
7.0723e-132
1.40743e-129
2.49495e-127
4.01451e-125
5.92013e-123
8.05325e-121
1.01558e-118
1.19238e-116
1.30847e-114
1.347e-112
1.30546e-110
1.19518e-108
1.03707e-106
8.55581e-105
6.73151e-103
5.06555e-101
3.65602e-99
2.53751e-97
1.69792e-95
1.09792e-93
6.87618e-92
4.17997e-90
2.47123e-88
1.42359e-86
8.00472e-85
4.40053e-83
2.3276e-81
1.26693e-79
2.57537e-77
3.53042e-75
2.48226e-73
1.439e-71
7.55391e-70
3.72624e-68
1.76067e-66
8.06425e-65
3.63109e-63
1.66429e-61
7.65206e-60
1.71564e-58
6.8336e-58
-1.17016e-150
-1.83467e-144
-4.27427e-142
-2.89968e-140
3.80391e-138
8.63476e-136
1.82713e-133
3.61482e-131
6.67808e-129
1.15106e-126
1.85156e-124
2.78314e-122
3.91727e-120
5.17608e-118
6.43918e-116
7.56446e-114
8.41721e-112
8.89849e-110
8.96414e-108
8.62965e-106
7.96104e-104
7.05644e-102
6.02469e-100
4.96651e-98
3.96198e-96
3.06503e-94
2.30394e-92
1.68583e-90
1.20276e-88
8.37974e-87
5.70886e-85
3.80594e-83
2.44527e-81
1.83262e-79
8.57632e-77
8.94326e-75
6.64206e-73
4.29038e-71
2.55823e-69
1.44721e-67
7.91494e-66
4.33228e-64
2.39991e-62
6.57707e-61
3.2404e-60
2.89972e-151
3.05329e-151
1.72184e-150
2.86131e-148
7.06768e-146
1.90267e-143
5.16018e-141
1.39344e-138
3.61118e-136
8.82544e-134
2.01953e-131
4.31832e-129
8.63335e-127
1.61683e-124
2.84373e-122
4.71111e-120
7.37408e-118
1.09396e-115
1.54294e-113
2.07524e-111
2.66952e-109
3.29355e-107
3.90769e-105
4.46988e-103
4.94102e-101
5.28975e-99
5.49573e-97
5.55112e-95
5.46018e-93
5.23741e-91
4.90477e-89
4.48857e-87
4.0166e-85
3.4793e-83
2.99828e-81
7.6615e-79
2.6424e-76
2.86557e-74
2.43724e-72
1.84201e-70
1.29704e-68
8.8972e-67
6.0601e-65
2.07615e-63
1.37263e-62
8.2471e-155
1.456e-152
2.54955e-151
2.87721e-151
2.81738e-151
1.2495e-151
-2.69007e-149
-7.18224e-147
-1.91874e-144
-5.05575e-142
-1.2802e-139
-3.05303e-137
-6.75051e-135
-1.36366e-132
-2.46757e-130
-3.84909e-128
-4.65057e-126
-2.30705e-124
1.1232e-121
5.01649e-119
1.4295e-116
3.40738e-114
7.30933e-112
1.45642e-109
2.74191e-107
4.92852e-105
8.51723e-103
1.42203e-100
2.30182e-98
3.62144e-96
5.54758e-94
8.28359e-92
1.20623e-89
1.71261e-87
2.36858e-85
3.14933e-83
4.31819e-81
4.2369e-78
1.08867e-75
1.39546e-73
1.44518e-71
1.3564e-69
1.20051e-67
5.40125e-66
5.46575e-65
6.27978e-164
5.41292e-162
5.96147e-160
8.92117e-158
1.75003e-155
4.04127e-153
2.06057e-151
1.66277e-151
7.99015e-152
-1.59342e-151
-1.68698e-149
-6.61934e-147
-2.54093e-144
-9.19533e-142
-3.11947e-139
-9.90502e-137
-2.94581e-134
-8.22236e-132
-2.15931e-129
-5.35038e-127
-1.25439e-124
-2.7904e-122
-5.9051e-120
-1.19162e-117
-2.29711e-115
-4.23253e-113
-7.43297e-111
-1.22841e-108
-1.82454e-106
-1.98508e-104
1.49589e-102
2.4596e-99
1.31408e-96
5.83359e-94
2.40333e-91
9.4292e-89
3.5318e-86
1.24412e-83
5.0954e-81
2.73659e-77
8.10654e-75
1.34451e-72
1.77578e-70
1.16597e-68
2.53674e-67
5.11429e-180
5.25805e-179
1.37461e-177
9.31286e-176
1.61845e-173
5.51599e-171
2.69664e-168
1.56192e-165
9.67744e-163
6.07464e-160
3.74945e-157
2.22348e-154
3.8525e-152
1.08697e-151
3.44136e-152
-2.35438e-151
-4.91335e-150
-1.2355e-146
-5.56523e-144
-9.43303e-142
7.81783e-139
-5.7497e-136
-4.7633e-133
-2.72066e-130
-1.73772e-127
-1.14532e-124
-7.71529e-122
-4.18965e-119
-2.07873e-116
-9.95651e-114
-4.60831e-111
-2.06366e-108
-8.94397e-106
-3.75104e-103
-1.52098e-100
-5.9515e-98
-2.23986e-95
-8.06404e-93
-2.75365e-90
-8.79963e-88
3.06979e-83
7.94742e-78
1.17546e-73
2.42859e-71
1.88115e-69
)
;

boundaryField
{
    leftWall
    {
        type            zeroGradient;
    }
    rightWall
    {
        type            zeroGradient;
    }
    lowerWall
    {
        type            zeroGradient;
    }
    atmosphere
    {
        type            inletOutlet;
        inletValue      uniform 0;
        value           nonuniform List<scalar> 
45
(
0
0
0
0
0
0
0
0
0
0
0
0
0
0
0
0
0
0
0
0
0
0
0
0
0
0
0
0
0
0
0
0
0
0
0
0
0
0
0
0
0
0
0
0
1.88115e-69
)
;
    }
    defaultFaces
    {
        type            empty;
    }
    procBoundary2to0
    {
        type            processor;
        value           nonuniform List<scalar> 
46
(
2.21473e-12
4.3053e-12
5.74976e-12
6.06156e-12
4.21684e-12
3.51792e-12
4.09259e-12
4.54598e-12
4.50338e-12
4.73456e-12
5.21642e-12
5.39176e-12
5.30017e-12
5.36e-12
5.82239e-12
9.40153e-12
2.51393e-11
5.95404e-11
1.06035e-10
1.6338e-10
2.63388e-10
2.06603e-09
1.43354e-08
9.23846e-08
6.12275e-07
-1.10552e-18
-2.37259e-17
-2.48626e-16
-1.66781e-15
-7.93035e-15
-2.74185e-14
-6.95377e-14
-1.19514e-13
-1.2144e-13
-1.72965e-13
-3.44973e-13
-5.6842e-13
-6.28611e-13
-6.3469e-13
-5.32449e-13
-1.5929e-13
2.92836e-13
2.44014e-13
1.07374e-13
2.10693e-13
2.10693e-13
)
;
    }
    procBoundary2to3
    {
        type            processor;
        value           nonuniform List<scalar> 
43
(
2.69645e-06
1.72358e-06
1.03542e-06
6.72035e-07
4.40845e-07
1.6951e-07
3.1158e-08
3.59502e-09
4.21641e-10
9.76944e-11
2.74749e-11
2.43108e-12
1.39967e-13
7.92243e-15
4.79831e-16
3.08494e-17
1.89836e-18
9.95516e-20
4.59022e-21
1.8319e-22
6.18872e-24
1.73675e-25
3.82367e-27
6.07256e-29
1.10834e-30
2.41801e-32
4.76191e-34
8.47598e-36
1.36588e-37
1.99645e-39
2.65137e-41
3.20286e-43
3.52023e-45
3.51839e-47
3.19436e-49
2.63031e-51
1.95995e-53
1.27534e-55
6.83349e-58
3.24034e-60
1.37261e-62
5.46575e-65
2.53674e-67
)
;
    }
}


// ************************************************************************* //
