/*--------------------------------*- C++ -*----------------------------------*\
  =========                 |
  \\      /  F ield         | OpenFOAM: The Open Source CFD Toolbox
   \\    /   O peration     | Website:  https://openfoam.org
    \\  /    A nd           | Version:  9
     \\/     M anipulation  |
\*---------------------------------------------------------------------------*/
FoamFile
{
    format      ascii;
    class       volScalarField;
    location    "0.3";
    object      epsilon;
}
// * * * * * * * * * * * * * * * * * * * * * * * * * * * * * * * * * * * * * //

dimensions      [0 2 -3 0 0 0 0];

internalField   nonuniform List<scalar> 
1915
(
0.446351
0.464339
0.480523
0.494503
0.505946
0.514646
0.520581
0.523972
0.525334
0.525519
0.52575
0.527657
0.533311
0.545294
0.566822
0.601924
0.65568
0.734426
0.845808
0.998633
1.20317
1.47472
1.84713
2.4039
3.31388
1.21926
0.422643
0.281982
0.234739
0.215835
0.209608
0.210502
0.216041
0.224929
0.236393
0.249913
0.2651
0.281634
0.299226
0.317602
0.336488
0.35559
0.374601
0.393189
0.410995
0.427626
0.442706
0.455866
0.466784
0.475221
0.481068
0.48439
0.48547
0.484841
0.483316
0.482012
0.482375
0.486221
0.495809
0.513971
0.544311
0.59147
0.661399
0.761506
0.900528
1.08832
1.33722
1.67
2.1429
2.88445
1.24554
0.426644
0.283865
0.236165
0.217019
0.210529
0.211083
0.216183
0.224523
0.23532
0.248047
0.262302
0.277752
0.294094
0.31104
0.3283
0.345576
0.362556
0.378913
0.394304
0.408378
0.420802
0.431268
0.439529
0.445427
0.44893
0.450164
0.449443
0.447288
0.444449
0.441917
0.440946
0.443092
0.450288
0.464969
0.490266
0.530279
0.590389
0.677494
0.799988
0.967343
1.18995
1.48205
1.8744
2.44363
1.26221
0.428698
0.284893
0.237088
0.217857
0.211179
0.211419
0.216075
0.22384
0.233928
0.245806
0.259069
0.273376
0.288416
0.303895
0.319519
0.334988
0.349998
0.364235
0.377381
0.389128
0.399188
0.407316
0.413329
0.417138
0.418766
0.418378
0.416294
0.413005
0.409181
0.405681
0.403568
0.404149
0.409039
0.420273
0.440483
0.473152
0.522926
0.595916
0.699815
0.843589
1.03671
1.28897
1.61467
2.04727
1.26944
0.428535
0.284833
0.237296
0.218151
0.211371
0.211339
0.215567
0.222753
0.232116
0.243126
0.255375
0.268521
0.282255
0.296281
0.310306
0.32404
0.33719
0.349463
0.360573
0.370252
0.378259
0.384403
0.38856
0.39069
0.390858
0.389245
0.386165
0.382063
0.377523
0.373276
0.370206
0.369388
0.372139
0.380112
0.395445
0.420971
0.460502
0.519138
0.603493
0.721619
0.882348
1.09412
1.36462
1.7046
1.2674
0.426066
0.283549
0.236639
0.217745
0.210951
0.210698
0.214524
0.221146
0.229792
0.239938
0.251183
0.263187
0.275646
0.288269
0.300773
0.312881
0.324316
0.334812
0.344115
0.351994
0.358255
0.362755
0.365412
0.366227
0.365287
0.362781
0.359001
0.354343
0.349308
0.344505
0.340659
0.338637
0.339488
0.34452
0.355408
0.374362
0.404349
0.449361
0.514672
0.606941
0.733903
0.903428
1.12205
1.39406
1.25634
0.421272
0.280961
0.235012
0.216523
0.209801
0.209378
0.212838
0.218921
0.226874
0.236182
0.246453
0.257358
0.268601
0.279901
0.29099
0.301604
0.311492
0.320411
0.32814
0.334486
0.339293
0.342457
0.34393
0.34374
0.341989
0.338859
0.334617
0.329609
0.324257
0.319065
0.314617
0.311603
0.310844
0.313347
0.320384
0.333612
0.355228
0.388169
0.436329
0.504716
0.599404
0.727065
0.893907
1.10415
1.23664
0.414202
0.277045
0.232357
0.21441
0.207836
0.207292
0.210423
0.216001
0.223294
0.231803
0.241149
0.251017
0.261121
0.271197
0.280991
0.290261
0.298776
0.306322
0.312707
0.31777
0.321389
0.32349
0.324053
0.32312
0.320798
0.317261
0.312746
0.30755
0.302028
0.296591
0.29171
0.287923
0.285864
0.286294
0.290153
0.298642
0.313318
0.336228
0.370054
0.418239
0.485031
0.575305
0.694036
0.845315
1.2089
0.404981
0.271827
0.228661
0.211371
0.205009
0.204389
0.207226
0.212335
0.219007
0.226764
0.235245
0.244147
0.253202
0.262162
0.270791
0.278868
0.286186
0.292555
0.297811
0.30182
0.304489
0.305765
0.305648
0.304188
0.301493
0.29772
0.29308
0.287826
0.282254
0.2767
0.271538
0.26719
0.264138
0.262948
0.264303
0.26905
0.278256
0.293287
0.315887
0.348255
0.393078
0.453466
0.532708
0.633764
1.17388
0.393803
0.265389
0.223958
0.207415
0.201315
0.200651
0.203227
0.2079
0.213993
0.22105
0.228727
0.236741
0.244841
0.252796
0.260392
0.267426
0.273713
0.279088
0.28341
0.286571
0.288495
0.28915
0.288545
0.286736
0.283824
0.279952
0.275304
0.270095
0.264572
0.259009
0.253704
0.248986
0.245223
0.242831
0.242301
0.244218
0.249299
0.258425
0.272684
0.293403
0.322157
0.360729
0.410987
0.474622
1.13256
0.380924
0.257856
0.218324
0.202591
0.196782
0.1961
0.198438
0.202707
0.20826
0.214667
0.221605
0.228809
0.236046
0.243106
0.249792
0.255923
0.261334
0.265881
0.269445
0.271933
0.27329
0.273492
0.272558
0.270543
0.26754
0.263677
0.259113
0.254031
0.248638
0.243157
0.237828
0.232909
0.228679
0.225446
0.223561
0.223426
0.225514
0.230383
0.238694
0.251215
0.268819
0.292451
0.323052
0.361431
1.08607
0.366656
0.249396
0.211871
0.19698
0.191478
0.190788
0.192905
0.196794
0.201844
0.207649
0.213908
0.220376
0.226839
0.233106
0.238998
0.244354
0.249027
0.252893
0.255847
0.257815
0.258751
0.258642
0.257507
0.2554
0.252405
0.248636
0.244228
0.239339
0.234141
0.228818
0.223565
0.218584
0.214091
0.210316
0.207508
0.205946
0.205941
0.207842
0.212044
0.218982
0.22912
0.242925
0.260826
0.283138
1.03567
0.351348
0.240208
0.204742
0.190697
0.185497
0.1848
0.186704
0.190232
0.194808
0.200054
0.20569
0.21149
0.21726
0.222826
0.228028
0.232721
0.236778
0.240087
0.24256
0.244133
0.24477
0.244462
0.243229
0.241121
0.238212
0.234601
0.230406
0.225761
0.22081
0.215706
0.210608
0.20568
0.201088
0.197006
0.193616
0.191111
0.189697
0.189595
0.191037
0.194266
0.19952
0.207018
0.216929
0.229329
0.982702
0.335375
0.230509
0.197101
0.183879
0.178961
0.178244
0.179936
0.183115
0.187243
0.191966
0.197027
0.202221
0.207369
0.212315
0.216917
0.221046
0.224587
0.227445
0.229542
0.230823
0.231257
0.23084
0.229589
0.227549
0.224785
0.221382
0.217443
0.21308
0.208416
0.203579
0.198701
0.193914
0.189351
0.185145
0.181431
0.178347
0.176031
0.174623
0.174263
0.175084
0.177204
0.180718
0.185675
0.192073
0.928502
0.319113
0.220527
0.189124
0.176678
0.172007
0.171251
0.172724
0.17556
0.179258
0.183491
0.18802
0.192658
0.197246
0.201643
0.205721
0.209366
0.212476
0.214968
0.216773
0.217843
0.218151
0.217692
0.216484
0.214563
0.211987
0.208829
0.205176
0.201124
0.196777
0.192244
0.187634
0.183057
0.178619
0.174426
0.170581
0.167185
0.164333
0.162116
0.160621
0.15992
0.160071
0.161106
0.163022
0.165807
0.874356
0.302926
0.210484
0.180992
0.169255
0.164787
0.163964
0.165205
0.167701
0.170984
0.17475
0.178782
0.18291
0.18699
0.190896
0.194513
0.19774
0.200489
0.202682
0.20426
0.205181
0.205419
0.20497
0.203847
0.202082
0.199724
0.196834
0.193487
0.189765
0.185756
0.181552
0.177246
0.172929
0.168688
0.16461
0.160775
0.157259
0.154132
0.151456
0.149284
0.147658
0.146606
0.146132
0.146221
0.146836
0.821412
0.287141
0.200592
0.172879
0.16177
0.157452
0.156532
0.157526
0.15968
0.162557
0.165878
0.169444
0.173099
0.176714
0.180176
0.183384
0.186247
0.188686
0.190633
0.192034
0.19285
0.193059
0.192654
0.191645
0.19006
0.187937
0.185329
0.182299
0.178917
0.175258
0.1714
0.167422
0.1634
0.159409
0.155519
0.151795
0.148298
0.145079
0.142183
0.139648
0.137498
0.135746
0.134388
0.133404
0.132752
0.770628
0.272036
0.191036
0.164948
0.154377
0.150154
0.149102
0.149833
0.151642
0.154123
0.157016
0.160139
0.163352
0.166539
0.169597
0.172437
0.174977
0.177148
0.178887
0.180146
0.18089
0.181096
0.180757
0.179879
0.178484
0.176604
0.174282
0.171572
0.168533
0.165228
0.161724
0.158088
0.154385
0.150679
0.147028
0.143487
0.140104
0.136922
0.133974
0.131288
0.128881
0.126758
0.124915
0.123334
0.121975
0.722746
0.25783
0.181972
0.157339
0.147215
0.143032
0.141816
0.142269
0.14373
0.145821
0.148302
0.151005
0.153803
0.156591
0.159278
0.161782
0.164032
0.165965
0.167524
0.168667
0.169358
0.169577
0.169314
0.168574
0.167372
0.165733
0.163695
0.1613
0.158599
0.155645
0.152495
0.149207
0.145837
0.142437
0.13906
0.13575
0.132548
0.12949
0.126603
0.123909
0.121421
0.119144
0.117072
0.115194
0.113476
0.678279
0.244678
0.173518
0.15017
0.140404
0.13621
0.134802
0.134964
0.136076
0.137784
0.139867
0.142171
0.144578
0.146993
0.149335
0.151531
0.153517
0.155235
0.156634
0.157675
0.158326
0.158565
0.158382
0.157778
0.156763
0.155358
0.153593
0.151502
0.149128
0.146516
0.143715
0.140773
0.137738
0.134657
0.131572
0.128524
0.125547
0.122671
0.119921
0.117314
0.114862
0.112571
0.110436
0.108449
0.106586
0.637537
0.232674
0.16576
0.14353
0.13404
0.129791
0.128169
0.128031
0.128795
0.130131
0.131832
0.133755
0.135793
0.137859
0.13988
0.141791
0.143532
0.145052
0.146306
0.147256
0.147871
0.148131
0.148024
0.147548
0.146711
0.145526
0.144018
0.142215
0.140153
0.137868
0.135403
0.132798
0.130095
0.127333
0.12455
0.121781
0.119054
0.116398
0.113832
0.111374
0.109033
0.106817
0.104723
0.102746
0.100868
0.600655
0.22186
0.158746
0.137482
0.128196
0.123856
0.122004
0.121563
0.121985
0.122961
0.124296
0.125858
0.127549
0.129288
0.13101
0.132655
0.13417
0.135507
0.136625
0.137488
0.138069
0.138347
0.138309
0.13795
0.137274
0.136292
0.135021
0.133486
0.131715
0.129739
0.127593
0.12531
0.122928
0.12048
0.117997
0.115511
0.113048
0.11063
0.108278
0.106005
0.103822
0.101735
0.0997467
0.0978513
0.0960381
0.567636
0.212237
0.152496
0.132059
0.12292
0.118463
0.116372
0.11563
0.11572
0.116351
0.117339
0.118562
0.119927
0.121362
0.122806
0.124203
0.125506
0.126672
0.127662
0.128443
0.128989
0.129278
0.129298
0.129041
0.12851
0.12771
0.126656
0.125365
0.123861
0.12217
0.12032
0.118342
0.116264
0.114116
0.111926
0.109719
0.10752
0.105349
0.103222
0.101154
0.0991539
0.097229
0.0953822
0.0936106
0.0919073
0.53839
0.203778
0.147009
0.127277
0.118236
0.113646
0.111314
0.110279
0.110053
0.110356
0.111019
0.111925
0.112988
0.11414
0.115326
0.116494
0.117601
0.118607
0.119475
0.120176
0.120683
0.120977
0.121043
0.120874
0.120468
0.119829
0.118966
0.117895
0.116632
0.1152
0.113622
0.111923
0.110128
0.108262
0.106349
0.104412
0.10247
0.100541
0.0986422
0.0967845
0.094978
0.0932294
0.0915426
0.0899163
0.0883465
0.512777
0.196443
0.14227
0.123134
0.114154
0.10942
0.106853
0.105538
0.105012
0.10501
0.105371
0.105984
0.106768
0.107661
0.108609
0.109567
0.110492
0.111348
0.112102
0.112724
0.11319
0.113481
0.113581
0.113484
0.113183
0.112682
0.111987
0.111108
0.11006
0.108859
0.107526
0.10608
0.104543
0.102937
0.101281
0.0995944
0.0978954
0.0961996
0.0945206
0.0928698
0.0912562
0.0896864
0.0881644
0.0866913
0.0852639
0.490642
0.190191
0.138259
0.11962
0.11067
0.105788
0.102994
0.101415
0.10061
0.100326
0.100409
0.100754
0.101284
0.101941
0.102673
0.103437
0.104196
0.104913
0.105558
0.106104
0.106527
0.106807
0.106932
0.10689
0.106676
0.106291
0.105738
0.105025
0.104163
0.103165
0.102048
0.100827
0.0995216
0.0981485
0.0967254
0.0952686
0.0937935
0.0923137
0.0908413
0.0893864
0.0879574
0.0865605
0.0852001
0.0838778
0.0825917
0.471842
0.184994
0.134962
0.116726
0.107777
0.102744
0.0997316
0.0979061
0.0968426
0.0963005
0.0961308
0.0962332
0.0965345
0.0969774
0.0975145
0.0981045
0.0987109
0.0993008
0.0998446
0.100316
0.100694
0.100958
0.101095
0.101094
0.10095
0.100659
0.100225
0.0996517
0.0989478
0.098124
0.0971929
0.0961683
0.0950649
0.0938976
0.0926811
0.0914293
0.0901553
0.0888709
0.0875868
0.0863118
0.0850535
0.0838178
0.0826088
0.081429
0.0802771
0.456273
0.180844
0.132379
0.114448
0.105468
0.100278
0.0970561
0.0949989
0.0936973
0.0929195
0.0925214
0.0924057
0.0925017
0.0927539
0.0931164
0.0935498
0.0940189
0.0944923
0.094942
0.0953431
0.0956741
0.095917
0.0960574
0.0960847
0.0959922
0.0957764
0.0954375
0.0949788
0.0944063
0.0937281
0.0929543
0.0920961
0.0911658
0.0901756
0.0891379
0.0880645
0.0869667
0.0858545
0.0847372
0.0836227
0.0825176
0.0814273
0.0803559
0.0793061
0.0782771
0.443889
0.177771
0.130533
0.1128
0.103747
0.0983871
0.0949567
0.0926783
0.091155
0.0901614
0.0895566
0.0892456
0.0891586
0.0892414
0.089449
0.0897428
0.0900889
0.090457
0.09082
0.0911541
0.0914385
0.0916557
0.0917915
0.0918352
0.0917793
0.0916197
0.0913551
0.0909873
0.0905204
0.0899607
0.089316
0.0885954
0.0878089
0.0869669
0.0860797
0.0851574
0.0842095
0.0832447
0.0822711
0.0812954
0.0803236
0.0793607
0.0784103
0.0774753
0.0765553
0.434726
0.175844
0.129475
0.111815
0.102631
0.0970747
0.0934272
0.0909302
0.0891954
0.088001
0.0872079
0.0867213
0.0864716
0.0864044
0.0864751
0.0866455
0.0868822
0.0871555
0.0874392
0.0877103
0.0879485
0.0881368
0.0882614
0.0883113
0.0882787
0.0881586
0.0879491
0.0876505
0.0872654
0.0867985
0.0862559
0.0856451
0.0849743
0.084252
0.0834871
0.0826882
0.0818634
0.0810204
0.0801661
0.0793065
0.0784469
0.0775916
0.0767441
0.0759072
0.0750808
0.428929
0.175189
0.129297
0.111551
0.102155
0.0963564
0.0924684
0.0897443
0.0877998
0.0864136
0.0854456
0.0847994
0.0844042
0.0842044
0.0841545
0.0842162
0.0843559
0.0845445
0.0847562
0.0849684
0.0851615
0.0853188
0.0854267
0.0854743
0.0854534
0.0853586
0.085187
0.084938
0.0846131
0.0842155
0.0837501
0.0832228
0.0826405
0.0820104
0.0813402
0.0806373
0.0799089
0.0791618
0.0784019
0.0776347
0.076865
0.0760967
0.0753329
0.0745762
0.0738271
0.426795
0.176005
0.130133
0.112098
0.102372
0.096259
0.092088
0.0891145
0.0869522
0.0853758
0.084241
0.0834473
0.0829206
0.0826029
0.0824469
0.082413
0.0824674
0.0825807
0.0827273
0.082885
0.0830347
0.0831599
0.0832472
0.0832856
0.083267
0.0831852
0.0830369
0.0828205
0.0825365
0.0821872
0.0817761
0.0813081
0.080789
0.0802249
0.0796227
0.0789889
0.0783301
0.0776525
0.0769617
0.0762627
0.0755598
0.0748567
0.0741565
0.0734613
0.0727721
0.428835
0.17858
0.132172
0.113573
0.103351
0.0968175
0.0922974
0.0890364
0.0866375
0.0848654
0.0835667
0.0826341
0.0819874
0.0815644
0.081315
0.0811976
0.0811773
0.0812242
0.0813126
0.0814205
0.081529
0.081622
0.0816861
0.0817105
0.0816867
0.0816083
0.0814712
0.0812732
0.0810139
0.0806945
0.0803176
0.079887
0.0794076
0.078885
0.078325
0.0777341
0.0771183
0.0764836
0.0758356
0.0751793
0.074519
0.0738582
0.0731999
0.0725463
0.0718988
0.435891
0.183332
0.135659
0.116119
0.105167
0.0980654
0.093104
0.0895014
0.0868377
0.0848586
0.0833959
0.0823305
0.0815738
0.0810572
0.0807262
0.0805367
0.0804518
0.080441
0.0804782
0.0805413
0.0806118
0.0806736
0.0807136
0.080721
0.0806869
0.0806048
0.0804699
0.0802792
0.0800315
0.0797269
0.0793672
0.0789551
0.0784946
0.0779906
0.0774487
0.0768748
0.0762752
0.0756562
0.0750235
0.0743827
0.0737384
0.0730947
0.0724548
0.0718209
0.0711948
0.449316
0.190847
0.140905
0.119892
0.107887
0.100018
0.0944968
0.0904859
0.087524
0.0853255
0.0836988
0.0825078
0.0816518
0.0810538
0.0806537
0.0804035
0.0802646
0.080205
0.0801983
0.0802225
0.080259
0.0802921
0.0803088
0.0802981
0.0802513
0.0801612
0.0800226
0.0798317
0.0795862
0.0792853
0.0789295
0.0785206
0.0780614
0.0775562
0.0770098
0.0764283
0.0758181
0.075186
0.0745389
0.0738833
0.0732253
0.0725698
0.0719208
0.0712813
0.0706534
0.471288
0.201965
0.148281
0.125031
0.111533
0.102645
0.0964251
0.0919361
0.0886469
0.0862231
0.0844391
0.0831353
0.0821951
0.0815311
0.0810763
0.0807787
0.0805972
0.0804988
0.0804566
0.0804486
0.0804564
0.0804646
0.0804604
0.0804331
0.0803735
0.0802743
0.0801297
0.0799349
0.0796867
0.079383
0.0790228
0.0786065
0.0781357
0.0776133
0.0770434
0.0764314
0.0757842
0.0751093
0.0744151
0.0737103
0.0730031
0.0723008
0.0716093
0.0709329
0.0702747
0.505364
0.217899
0.158199
0.131596
0.116026
0.105823
0.0987674
0.0937484
0.0901243
0.087489
0.0855703
0.0841786
0.0831783
0.0824698
0.0819793
0.0816504
0.0814401
0.0813143
0.0812462
0.0812139
0.0811996
0.0811884
0.0811677
0.081127
0.0810574
0.0809512
0.0808019
0.080604
0.0803532
0.0800457
0.0796791
0.0792517
0.0787631
0.0782141
0.0776072
0.0769465
0.0762384
0.075491
0.0747143
0.07392
0.0731201
0.0723261
0.0715481
0.0707936
0.0700678
0.55785
0.240446
0.17102
0.139446
0.121082
0.109272
0.101292
0.0957479
0.0918308
0.0890365
0.0870344
0.0856001
0.0845776
0.0838559
0.0833547
0.083015
0.0827922
0.0826526
0.0825696
0.0825224
0.0824938
0.0824698
0.0824387
0.0823902
0.0823157
0.0822075
0.0820587
0.0818632
0.0816153
0.08131
0.0809426
0.0805091
0.0800062
0.0794318
0.078785
0.078067
0.077282
0.0764368
0.0755423
0.0746128
0.0736658
0.0727201
0.0717938
0.0709018
0.0700549
0.641759
0.272253
0.186776
0.147963
0.126045
0.112466
0.103621
0.0976764
0.0935977
0.0907595
0.0887672
0.0873631
0.0863742
0.0856817
0.0852023
0.0848765
0.0846607
0.0845225
0.0844371
0.084385
0.084351
0.084322
0.0842876
0.0842384
0.0841662
0.0840637
0.0839241
0.0837406
0.083507
0.0832167
0.0828632
0.0824399
0.0819399
0.0813569
0.0806851
0.0799202
0.0790604
0.0781078
0.0770699
0.0759608
0.0748022
0.0736231
0.0724561
0.071333
0.0702798
0.78594
0.316738
0.204321
0.15552
0.129647
0.11455
0.105214
0.0992086
0.0952349
0.0925513
0.0907126
0.0894416
0.0885599
0.0879493
0.0875298
0.0872459
0.087058
0.0869372
0.0868619
0.0868156
0.0867849
0.0867591
0.086729
0.0866869
0.0866254
0.0865381
0.0864186
0.0862604
0.0860571
0.0858013
0.0854854
0.0851004
0.0846366
0.0840828
0.0834273
0.0826575
0.0817617
0.0807303
0.0795583
0.0782491
0.0768192
0.0753026
0.0737521
0.0722351
0.0708241
1.05413
0.375481
0.218961
0.158528
0.129757
0.114358
0.105461
0.100037
0.0965971
0.094351
0.0928525
0.0918382
0.091146
0.0906732
0.0903521
0.0901371
0.0899965
0.0899077
0.0898538
0.089822
0.0898024
0.0897867
0.089768
0.08974
0.0896974
0.0896348
0.089547
0.0894285
0.0892736
0.0890756
0.0888268
0.088518
0.0881379
0.0876728
0.087106
0.0864173
0.0855827
0.0845747
0.0833635
0.0819205
0.0802256
0.0782822
0.0761389
0.0739153
0.0718323
1.61947
0.433764
0.216646
0.150352
0.123571
0.110778
0.103971
0.100069
0.0977049
0.0962134
0.095244
0.0946011
0.0941698
0.0938798
0.0936862
0.0935595
0.0934794
0.0934315
0.0934056
0.0933936
0.0933892
0.0933875
0.0933839
0.0933747
0.0933562
0.0933251
0.0932779
0.093211
0.0931203
0.0930012
0.092848
0.0926537
0.0924092
0.0921027
0.0917187
0.0912359
0.0906256
0.089848
0.0888473
0.0875458
0.0858369
0.0835878
0.0806805
0.0771482
0.0735404
3.24443
0.384494
0.165947
0.12324
0.109565
0.103919
0.101196
0.0997329
0.0988838
0.0983633
0.0980323
0.097817
0.0976759
0.0975838
0.0975253
0.09749
0.0974711
0.0974636
0.097464
0.0974695
0.097478
0.0974877
0.0974971
0.0975047
0.0975092
0.0975096
0.0975044
0.0974925
0.0974723
0.0974424
0.0974006
0.0973446
0.0972711
0.0971758
0.0970529
0.0968934
0.096684
0.0964025
0.0960095
0.0954296
0.0945082
0.0929269
0.0900855
0.0849965
0.0761646
)
;

boundaryField
{
    leftWall
    {
        type            epsilonWallFunction;
        value           nonuniform List<scalar> 
42
(
1.21926
1.24554
1.26221
1.26944
1.2674
1.25634
1.23664
1.2089
1.17388
1.13256
1.08607
1.03567
0.982702
0.928502
0.874356
0.821412
0.770628
0.722746
0.678279
0.637537
0.600655
0.567636
0.53839
0.512777
0.490642
0.471842
0.456273
0.443889
0.434726
0.428929
0.426795
0.428835
0.435891
0.449316
0.471288
0.505364
0.55785
0.641759
0.78594
1.05413
1.61947
3.24443
)
;
    }
    rightWall
    {
        type            epsilonWallFunction;
        value           nonuniform List<scalar> 0();
    }
    lowerWall
    {
        type            epsilonWallFunction;
        value           nonuniform List<scalar> 0();
    }
    atmosphere
    {
        type            inletOutlet;
        inletValue      uniform 0.1;
        value           nonuniform List<scalar> 
45
(
0.1
0.1
0.1
0.1
0.1
0.1
0.1
0.1
0.1
0.1
0.1
0.1
0.1
0.1
0.1
0.1
0.1
0.1
0.1
0.1
0.1
0.1
0.1
0.1
0.1
0.1
0.1
0.1
0.1
0.1
0.1
0.1
0.1
0.1
0.1
0.1
0.1
0.1
0.1
0.1
0.1
0.1
0.1
0.1
0.0761646
)
;
    }
    defaultFaces
    {
        type            empty;
    }
    procBoundary2to0
    {
        type            processor;
        value           nonuniform List<scalar> 
46
(
0.463867
0.484959
0.504439
0.521846
0.53675
0.548824
0.557934
0.564207
0.568098
0.570459
0.572588
0.576274
0.583831
0.598153
0.622812
0.662211
0.721766
0.808032
0.928672
1.09236
1.30972
1.59915
2.00492
2.63192
3.66616
1.18579
0.418502
0.279786
0.233135
0.214565
0.208641
0.209876
0.215821
0.225197
0.237247
0.251464
0.267477
0.284983
0.303715
0.323426
0.343869
0.364752
0.385783
0.406645
0.426976
0.426976
)
;
    }
    procBoundary2to3
    {
        type            processor;
        value           nonuniform List<scalar> 
43
(
4.78972
4.104
3.34485
2.66732
2.1409
1.72379
1.35885
1.03116
0.758578
0.552828
0.408126
0.310022
0.244322
0.199883
0.169336
0.147861
0.132341
0.120774
0.111874
0.104815
0.0990685
0.0942929
0.0902631
0.0868272
0.0838788
0.0813403
0.0791526
0.077269
0.0756507
0.0742655
0.073086
0.0720894
0.0712576
0.0705768
0.0700377
0.069636
0.0693736
0.0692594
0.069313
0.0695675
0.0700673
0.0708282
0.0716713
)
;
    }
}


// ************************************************************************* //
