/*--------------------------------*- C++ -*----------------------------------*\
  =========                 |
  \\      /  F ield         | OpenFOAM: The Open Source CFD Toolbox
   \\    /   O peration     | Website:  https://openfoam.org
    \\  /    A nd           | Version:  9
     \\/     M anipulation  |
\*---------------------------------------------------------------------------*/
FoamFile
{
    format      ascii;
    class       volScalarField;
    location    "0.3";
    object      p;
}
// * * * * * * * * * * * * * * * * * * * * * * * * * * * * * * * * * * * * * //

dimensions      [1 -1 -2 0 0 0 0];

internalField   nonuniform List<scalar> 
1915
(
-4.22502
-4.27838
-4.33308
-4.38856
-4.44456
-4.50112
-4.55855
-4.61725
-4.67756
-4.73968
-4.80375
-4.87005
-4.93911
-5.01181
-5.08922
-5.17242
-5.26252
-5.3609
-5.46971
-5.59204
-5.73174
-5.89274
-6.07761
-6.28374
-6.49629
-3.7093
-3.71523
-3.72217
-3.73159
-3.74334
-3.75762
-3.77461
-3.79441
-3.81699
-3.84226
-3.87003
-3.90004
-3.93208
-3.96596
-4.00163
-4.03914
-4.07867
-4.1204
-4.16449
-4.21099
-4.25965
-4.31003
-4.36151
-4.41363
-4.4662
-4.51929
-4.57314
-4.62806
-4.6843
-4.74201
-4.80136
-4.86269
-4.92656
-4.99376
-5.06515
-5.14161
-5.22411
-5.31386
-5.41265
-5.52304
-5.64822
-5.79158
-5.95601
-6.14117
-6.33653
-3.76112
-3.76707
-3.7753
-3.78572
-3.79809
-3.81264
-3.82956
-3.84897
-3.87088
-3.8952
-3.92178
-3.9504
-3.98086
-4.01299
-4.04678
-4.08228
-4.11967
-4.15911
-4.20075
-4.24454
-4.29025
-4.3374
-4.3855
-4.43418
-4.48329
-4.5329
-4.58319
-4.63436
-4.68654
-4.73983
-4.79446
-4.85079
-4.90937
-4.97081
-5.03575
-5.10489
-5.17905
-5.2592
-5.34665
-5.44325
-5.55153
-5.67445
-5.81509
-5.97483
-6.14931
-3.81006
-3.81655
-3.82587
-3.83717
-3.85008
-3.86482
-3.88161
-3.90058
-3.92176
-3.94508
-3.97041
-3.99756
-4.02637
-4.05672
-4.08859
-4.12205
-4.15727
-4.19439
-4.23348
-4.27449
-4.31714
-4.36102
-4.40571
-4.45093
-4.49657
-4.54266
-4.58934
-4.6367
-4.68478
-4.73368
-4.78359
-4.83487
-4.88799
-4.94338
-5.00149
-5.0628
-5.12796
-5.19768
-5.27279
-5.35442
-5.44422
-5.54443
-5.65781
-5.78604
-5.9283
-3.8566
-3.86372
-3.87399
-3.88608
-3.89942
-3.91427
-3.93087
-3.94936
-3.96978
-3.99208
-4.01614
-4.04182
-4.06898
-4.09751
-4.12743
-4.15881
-4.19179
-4.22649
-4.26296
-4.30111
-4.34068
-4.3813
-4.42263
-4.46441
-4.50656
-4.54911
-4.59213
-4.63564
-4.67964
-4.72415
-4.76933
-4.81551
-4.86301
-4.91216
-4.96318
-5.01639
-5.07216
-5.13089
-5.19302
-5.25907
-5.32979
-5.40631
-5.49028
-5.58285
-5.68393
-3.9011
-3.9088
-3.9199
-3.93265
-3.94634
-3.96122
-3.97756
-3.99552
-4.01514
-4.03639
-4.05919
-4.0834
-4.10891
-4.13564
-4.1636
-4.19286
-4.22355
-4.25578
-4.28958
-4.32485
-4.36135
-4.39876
-4.43676
-4.47514
-4.51382
-4.55281
-4.59215
-4.63182
-4.67174
-4.71188
-4.75236
-4.79338
-4.83519
-4.87797
-4.92182
-4.96683
-5.01312
-5.06077
-5.10982
-5.16033
-5.21229
-5.26572
-5.32072
-5.37743
-5.4352
-3.94394
-3.95213
-3.96392
-3.97719
-3.99111
-4.00593
-4.02194
-4.0393
-4.05809
-4.07828
-4.09981
-4.12257
-4.14645
-4.1714
-4.19741
-4.22457
-4.25297
-4.28272
-4.31385
-4.34625
-4.37972
-4.41396
-4.44869
-4.48371
-4.51894
-4.55439
-4.59005
-4.62587
-4.66173
-4.69755
-4.73335
-4.76923
-4.80534
-4.84175
-4.87844
-4.91534
-4.95232
-4.98917
-5.02562
-5.0613
-5.09567
-5.12794
-5.15693
-5.18156
-5.20022
-3.98552
-3.99409
-4.00641
-4.02006
-4.03409
-4.04875
-4.06434
-4.08105
-4.09896
-4.11808
-4.13836
-4.15969
-4.18198
-4.20519
-4.22929
-4.25437
-4.28051
-4.30781
-4.3363
-4.36589
-4.39638
-4.42752
-4.45903
-4.49074
-4.52256
-4.55448
-4.58647
-4.61845
-4.65029
-4.68183
-4.713
-4.74382
-4.77432
-4.80448
-4.83418
-4.86323
-4.89129
-4.91794
-4.94265
-4.96477
-4.98338
-4.99721
-5.00444
-5.00302
-4.9905
-4.02622
-4.03505
-4.04773
-4.0616
-4.07561
-4.09001
-4.10511
-4.12112
-4.13813
-4.15618
-4.17522
-4.19516
-4.21591
-4.23742
-4.25968
-4.28273
-4.30667
-4.33157
-4.35748
-4.38431
-4.41189
-4.44
-4.46837
-4.49683
-4.52529
-4.5537
-4.58205
-4.61023
-4.63807
-4.6654
-4.69205
-4.71794
-4.743
-4.76715
-4.79018
-4.81179
-4.83152
-4.8488
-4.86296
-4.87314
-4.87822
-4.87672
-4.86664
-4.84555
-4.8106
-4.06637
-4.07533
-4.0882
-4.10212
-4.11597
-4.13001
-4.14456
-4.15983
-4.17594
-4.19292
-4.21075
-4.22935
-4.24862
-4.2685
-4.28897
-4.31006
-4.33186
-4.35444
-4.37783
-4.40199
-4.42675
-4.45191
-4.47722
-4.50251
-4.52767
-4.55266
-4.57742
-4.60185
-4.62578
-4.64897
-4.67123
-4.69237
-4.71227
-4.73074
-4.74753
-4.76227
-4.77442
-4.78332
-4.78823
-4.78822
-4.78213
-4.76845
-4.74521
-4.71009
-4.66038
-4.10621
-4.11518
-4.12806
-4.14187
-4.15544
-4.16902
-4.18296
-4.19747
-4.21268
-4.22862
-4.24527
-4.26256
-4.28041
-4.29872
-4.31747
-4.33669
-4.35643
-4.37677
-4.39775
-4.41932
-4.44136
-4.46367
-4.48603
-4.50825
-4.53022
-4.55188
-4.57316
-4.59395
-4.61407
-4.63327
-4.6513
-4.66794
-4.68298
-4.69619
-4.70727
-4.7158
-4.7212
-4.72281
-4.71984
-4.71138
-4.69632
-4.67327
-4.64052
-4.59599
-4.53738
-4.14596
-4.15481
-4.16752
-4.18105
-4.19422
-4.20729
-4.22057
-4.2343
-4.2486
-4.26351
-4.27903
-4.29506
-4.31153
-4.32834
-4.34545
-4.36287
-4.38065
-4.39886
-4.41753
-4.43664
-4.45608
-4.47567
-4.4952
-4.51448
-4.5334
-4.55186
-4.5698
-4.58711
-4.60359
-4.61899
-4.63302
-4.64544
-4.65598
-4.66439
-4.67033
-4.67336
-4.67291
-4.66832
-4.65884
-4.64359
-4.62158
-4.5916
-4.55225
-4.50187
-4.43858
-4.1858
-4.1944
-4.20678
-4.2199
-4.23257
-4.24504
-4.25764
-4.27057
-4.28396
-4.29787
-4.31227
-4.32709
-4.34223
-4.35761
-4.37316
-4.38888
-4.4048
-4.42098
-4.43747
-4.45426
-4.47124
-4.48826
-4.50511
-4.52161
-4.53763
-4.55307
-4.56785
-4.58187
-4.59493
-4.60676
-4.61708
-4.6256
-4.63205
-4.63615
-4.63754
-4.63579
-4.63036
-4.62063
-4.60591
-4.5854
-4.55822
-4.52337
-4.47975
-4.42612
-4.36107
-4.22589
-4.23415
-4.24606
-4.25865
-4.27074
-4.28256
-4.29443
-4.30655
-4.31904
-4.33195
-4.34526
-4.3589
-4.37278
-4.38679
-4.40086
-4.41497
-4.42914
-4.44343
-4.45788
-4.47249
-4.48717
-4.50178
-4.51613
-4.53002
-4.54332
-4.55593
-4.56777
-4.57872
-4.58859
-4.59713
-4.60405
-4.60904
-4.61183
-4.61212
-4.60956
-4.60372
-4.59413
-4.58022
-4.56139
-4.53693
-4.50609
-4.46808
-4.42204
-4.36707
-4.30221
-4.26643
-4.27428
-4.28561
-4.29757
-4.30901
-4.32015
-4.33127
-4.34256
-4.35414
-4.36606
-4.3783
-4.3908
-4.40346
-4.41616
-4.42883
-4.44143
-4.45398
-4.4665
-4.47906
-4.49164
-4.50419
-4.51657
-4.52859
-4.54007
-4.55086
-4.56085
-4.56995
-4.57807
-4.58502
-4.59055
-4.59439
-4.59623
-4.59579
-4.59278
-4.58686
-4.57764
-4.56466
-4.54745
-4.52549
-4.49818
-4.46493
-4.42509
-4.37803
-4.32312
-4.25973
-4.30757
-4.31497
-4.32565
-4.33691
-4.34767
-4.35808
-4.36843
-4.37888
-4.38955
-4.40049
-4.41169
-4.42307
-4.43455
-4.44602
-4.45737
-4.46856
-4.47959
-4.49048
-4.50128
-4.51199
-4.52257
-4.5329
-4.54279
-4.55206
-4.56055
-4.56814
-4.57475
-4.58028
-4.58457
-4.58739
-4.58848
-4.58753
-4.58429
-4.57847
-4.56976
-4.5578
-4.54218
-4.52248
-4.49826
-4.46907
-4.4344
-4.39379
-4.34676
-4.29288
-4.23177
-4.34946
-4.35638
-4.36636
-4.37689
-4.38692
-4.3966
-4.40616
-4.41577
-4.42553
-4.43549
-4.44566
-4.45596
-4.46631
-4.4766
-4.48671
-4.49659
-4.50621
-4.5156
-4.52478
-4.53377
-4.54254
-4.55098
-4.55893
-4.56619
-4.57261
-4.57804
-4.5824
-4.5856
-4.58752
-4.58793
-4.5866
-4.58323
-4.57758
-4.5694
-4.55841
-4.54428
-4.52667
-4.50521
-4.47952
-4.44925
-4.414
-4.37343
-4.3272
-4.27503
-4.21675
-4.39215
-4.39859
-4.40786
-4.41763
-4.42692
-4.43584
-4.44462
-4.45338
-4.46224
-4.47124
-4.48039
-4.48964
-4.49891
-4.50807
-4.51702
-4.52568
-4.53401
-4.542
-4.5497
-4.55711
-4.56422
-4.57094
-4.57713
-4.58259
-4.58715
-4.59066
-4.59304
-4.59419
-4.59402
-4.59234
-4.58892
-4.5835
-4.57585
-4.56573
-4.5529
-4.53711
-4.51805
-4.49541
-4.4689
-4.4382
-4.40304
-4.36316
-4.3183
-4.26832
-4.21323
-4.43568
-4.44164
-4.45019
-4.45919
-4.46773
-4.47591
-4.48389
-4.49182
-4.49978
-4.50784
-4.516
-4.52423
-4.53245
-4.54055
-4.5484
-4.55593
-4.56306
-4.56979
-4.57612
-4.58209
-4.58769
-4.59285
-4.59744
-4.60129
-4.60422
-4.60606
-4.60671
-4.60609
-4.60411
-4.60064
-4.59547
-4.58838
-4.57912
-4.56749
-4.55327
-4.53625
-4.51621
-4.49288
-4.46603
-4.43543
-4.40086
-4.36213
-4.31908
-4.27163
-4.21988
-4.48003
-4.48553
-4.49337
-4.5016
-4.50939
-4.51682
-4.52402
-4.53112
-4.5382
-4.54533
-4.55253
-4.55977
-4.56698
-4.57406
-4.58089
-4.58737
-4.59341
-4.59898
-4.60409
-4.60875
-4.61297
-4.61671
-4.61987
-4.6223
-4.62379
-4.62419
-4.62337
-4.62125
-4.61775
-4.61278
-4.60617
-4.59774
-4.58726
-4.57452
-4.55934
-4.54154
-4.52093
-4.49734
-4.47056
-4.44045
-4.40683
-4.36958
-4.3286
-4.28385
-4.23544
-4.52519
-4.53024
-4.53737
-4.54484
-4.5519
-4.55858
-4.56501
-4.5713
-4.57753
-4.58376
-4.59002
-4.5963
-4.60254
-4.60865
-4.61452
-4.62002
-4.62507
-4.6296
-4.6336
-4.63709
-4.64008
-4.64255
-4.64442
-4.64557
-4.64583
-4.64501
-4.64298
-4.63962
-4.63488
-4.62868
-4.62091
-4.61142
-4.60002
-4.58653
-4.57077
-4.55257
-4.5318
-4.5083
-4.48194
-4.45262
-4.42021
-4.38465
-4.34588
-4.30388
-4.25871
-4.57113
-4.57574
-4.58218
-4.58892
-4.59525
-4.6012
-4.60689
-4.61239
-4.61779
-4.62315
-4.6285
-4.63386
-4.63916
-4.64435
-4.64931
-4.65391
-4.65805
-4.66166
-4.66468
-4.66714
-4.66903
-4.67036
-4.67109
-4.67112
-4.6703
-4.66846
-4.66544
-4.66112
-4.65541
-4.64825
-4.63958
-4.62928
-4.61721
-4.60323
-4.58717
-4.56889
-4.54826
-4.52517
-4.49951
-4.4712
-4.44019
-4.40644
-4.36991
-4.33062
-4.28859
-4.61785
-4.62203
-4.62783
-4.63385
-4.63948
-4.64473
-4.6497
-4.65445
-4.65906
-4.66358
-4.66806
-4.67252
-4.67693
-4.68123
-4.68532
-4.68908
-4.6924
-4.69518
-4.69736
-4.69892
-4.69986
-4.7002
-4.69992
-4.69896
-4.6972
-4.6945
-4.69069
-4.68564
-4.67923
-4.6714
-4.66209
-4.65122
-4.63872
-4.62445
-4.6083
-4.59015
-4.56989
-4.54741
-4.52264
-4.49553
-4.46604
-4.43415
-4.39987
-4.3632
-4.32421
-4.66535
-4.66914
-4.67432
-4.67967
-4.68463
-4.68923
-4.69351
-4.69755
-4.70141
-4.70514
-4.70879
-4.7124
-4.71595
-4.71939
-4.72266
-4.72563
-4.7282
-4.73024
-4.73169
-4.73249
-4.73263
-4.73212
-4.73096
-4.72914
-4.72656
-4.72312
-4.71868
-4.71308
-4.7062
-4.69796
-4.68828
-4.67711
-4.66439
-4.65005
-4.634
-4.61614
-4.59639
-4.57468
-4.55093
-4.52512
-4.49721
-4.46722
-4.43514
-4.40101
-4.36493
-4.71369
-4.71711
-4.72173
-4.72645
-4.7308
-4.73477
-4.73842
-4.74179
-4.74495
-4.74794
-4.75082
-4.75361
-4.75634
-4.75897
-4.76144
-4.76367
-4.76553
-4.76692
-4.76773
-4.76789
-4.76738
-4.76618
-4.76429
-4.76173
-4.75845
-4.75437
-4.74938
-4.74336
-4.73618
-4.72772
-4.71791
-4.70669
-4.69401
-4.6798
-4.66403
-4.64662
-4.62753
-4.60668
-4.58405
-4.55959
-4.5333
-4.5052
-4.47528
-4.44361
-4.41028
-4.7629
-4.76599
-4.7701
-4.77426
-4.77803
-4.78144
-4.7845
-4.78727
-4.78979
-4.7921
-4.79425
-4.79629
-4.79824
-4.80009
-4.8018
-4.80331
-4.80451
-4.80529
-4.80555
-4.80519
-4.80415
-4.8024
-4.79995
-4.7968
-4.79293
-4.78831
-4.78286
-4.77649
-4.76909
-4.76054
-4.75076
-4.73967
-4.72722
-4.71336
-4.69805
-4.68126
-4.66294
-4.64306
-4.62161
-4.59855
-4.5739
-4.54767
-4.51987
-4.49057
-4.45981
-4.81304
-4.81584
-4.8195
-4.82315
-4.82642
-4.82931
-4.83185
-4.83407
-4.83601
-4.8377
-4.8392
-4.84054
-4.84177
-4.84288
-4.84387
-4.84468
-4.84524
-4.84545
-4.8452
-4.8444
-4.84295
-4.8408
-4.83794
-4.83436
-4.83005
-4.825
-4.81918
-4.81253
-4.80495
-4.79637
-4.78669
-4.77584
-4.76374
-4.75036
-4.73566
-4.71961
-4.70219
-4.68337
-4.66316
-4.64153
-4.61852
-4.59413
-4.56841
-4.54139
-4.51308
-4.86416
-4.86671
-4.86997
-4.87317
-4.87599
-4.87843
-4.88051
-4.88224
-4.88367
-4.88482
-4.88573
-4.88644
-4.887
-4.88743
-4.88773
-4.88788
-4.88782
-4.88748
-4.88676
-4.88555
-4.88376
-4.88133
-4.8782
-4.87434
-4.86975
-4.86443
-4.85836
-4.8515
-4.84382
-4.83524
-4.82569
-4.8151
-4.80342
-4.79058
-4.77657
-4.76134
-4.74488
-4.72718
-4.70824
-4.68807
-4.66668
-4.64411
-4.6204
-4.59556
-4.56959
-4.91629
-4.91863
-4.92155
-4.92436
-4.92678
-4.92882
-4.93049
-4.93181
-4.93279
-4.93346
-4.93386
-4.93402
-4.93399
-4.9338
-4.93347
-4.93299
-4.93234
-4.93146
-4.93027
-4.92868
-4.9266
-4.92394
-4.92063
-4.91664
-4.91193
-4.90649
-4.90031
-4.89338
-4.88567
-4.87716
-4.86777
-4.85748
-4.84622
-4.83395
-4.82063
-4.80625
-4.79077
-4.7742
-4.75655
-4.73781
-4.71802
-4.6972
-4.67541
-4.65266
-4.62892
-4.96946
-4.97162
-4.97424
-4.97671
-4.9788
-4.98049
-4.98182
-4.98277
-4.98337
-4.98364
-4.98359
-4.98328
-4.98274
-4.98201
-4.98111
-4.98006
-4.97884
-4.97744
-4.97579
-4.97382
-4.97145
-4.9686
-4.96518
-4.96113
-4.95641
-4.95099
-4.94486
-4.938
-4.9304
-4.92205
-4.9129
-4.90295
-4.89213
-4.88043
-4.86782
-4.85427
-4.83976
-4.8243
-4.80789
-4.79054
-4.77228
-4.75314
-4.73316
-4.71236
-4.69072
-5.02369
-5.02568
-5.02805
-5.03023
-5.03202
-5.03342
-5.03444
-5.03509
-5.03537
-5.03529
-5.03488
-5.03418
-5.03321
-5.03202
-5.03063
-5.02907
-5.02735
-5.02546
-5.02337
-5.02103
-5.01837
-5.01531
-5.01179
-5.00772
-5.00306
-4.99776
-4.99179
-4.98513
-4.97777
-4.9697
-4.9609
-4.95135
-4.94104
-4.92994
-4.91804
-4.90531
-4.89176
-4.87737
-4.86216
-4.84613
-4.82932
-4.81175
-4.79346
-4.77447
-4.75479
-5.07897
-5.08082
-5.08296
-5.0849
-5.08643
-5.08758
-5.08834
-5.08873
-5.08873
-5.08837
-5.08766
-5.08664
-5.08533
-5.08376
-5.08198
-5.08
-5.07785
-5.07553
-5.07304
-5.07033
-5.06738
-5.06411
-5.06047
-5.05638
-5.0518
-5.04665
-5.04091
-5.03454
-5.02752
-5.01984
-5.01148
-5.00244
-4.9927
-4.98226
-4.9711
-4.95921
-4.9466
-4.93326
-4.91921
-4.90445
-4.88901
-4.87291
-4.85619
-4.83888
-4.82101
-5.1353
-5.13703
-5.13897
-5.14068
-5.142
-5.14293
-5.14347
-5.14362
-5.14339
-5.1428
-5.14185
-5.14058
-5.139
-5.13715
-5.13506
-5.13276
-5.13027
-5.1276
-5.12477
-5.12175
-5.11852
-5.11504
-5.11127
-5.10714
-5.10261
-5.09762
-5.09211
-5.08606
-5.07944
-5.07221
-5.06437
-5.05592
-5.04682
-5.0371
-5.02673
-5.01571
-5.00406
-4.99176
-4.97884
-4.96531
-4.95118
-4.93648
-4.92124
-4.9055
-4.88931
-5.19265
-5.19427
-5.19603
-5.19756
-5.19869
-5.19942
-5.19976
-5.19972
-5.19929
-5.1985
-5.19736
-5.19589
-5.19413
-5.19208
-5.18978
-5.18725
-5.18452
-5.1816
-5.1785
-5.17523
-5.17178
-5.16812
-5.16422
-5.16005
-5.15555
-5.15069
-5.14541
-5.13967
-5.13344
-5.12669
-5.11941
-5.11158
-5.10318
-5.09421
-5.08467
-5.07456
-5.06388
-5.05264
-5.04085
-5.02851
-5.01566
-5.00231
-4.9885
-4.97426
-4.95967
-5.251
-5.25253
-5.25415
-5.25552
-5.25648
-5.25704
-5.25719
-5.25696
-5.25635
-5.2554
-5.2541
-5.2525
-5.2506
-5.24842
-5.246
-5.24334
-5.24047
-5.2374
-5.23415
-5.23072
-5.22712
-5.22334
-5.21935
-5.21515
-5.21069
-5.20593
-5.20085
-5.1954
-5.18955
-5.18327
-5.17654
-5.16933
-5.16164
-5.15346
-5.14477
-5.13558
-5.1259
-5.11572
-5.10505
-5.09391
-5.08232
-5.07031
-5.05788
-5.04511
-5.03208
-5.31035
-5.31181
-5.31331
-5.31454
-5.31535
-5.31573
-5.31571
-5.3153
-5.31452
-5.31342
-5.312
-5.31029
-5.30832
-5.30608
-5.30361
-5.3009
-5.29799
-5.29487
-5.29157
-5.28809
-5.28443
-5.2806
-5.2766
-5.27241
-5.26801
-5.26338
-5.25849
-5.25332
-5.24783
-5.24199
-5.23579
-5.2292
-5.22221
-5.2148
-5.20697
-5.19871
-5.19002
-5.1809
-5.17136
-5.16142
-5.15109
-5.14039
-5.12934
-5.11803
-5.10655
-5.37075
-5.37212
-5.37351
-5.37463
-5.37529
-5.37549
-5.37527
-5.37467
-5.37374
-5.3725
-5.37098
-5.36921
-5.3672
-5.36496
-5.3625
-5.35982
-5.35694
-5.35387
-5.35061
-5.34717
-5.34357
-5.33979
-5.33586
-5.33176
-5.32748
-5.32301
-5.31835
-5.31346
-5.30832
-5.30292
-5.29724
-5.29125
-5.28494
-5.27829
-5.2713
-5.26396
-5.25625
-5.24819
-5.23978
-5.23102
-5.22193
-5.21253
-5.20285
-5.19298
-5.18304
-5.43187
-5.43336
-5.43472
-5.43577
-5.43627
-5.43626
-5.43583
-5.43503
-5.43394
-5.43258
-5.431
-5.42919
-5.42719
-5.42498
-5.42259
-5.42
-5.41723
-5.41427
-5.41114
-5.40783
-5.40437
-5.40074
-5.39696
-5.39304
-5.38896
-5.38473
-5.38034
-5.37577
-5.37102
-5.36607
-5.36091
-5.35551
-5.34988
-5.34398
-5.33782
-5.33137
-5.32464
-5.31763
-5.31032
-5.30272
-5.29484
-5.28671
-5.27836
-5.26989
-5.26147
-5.49298
-5.49544
-5.49698
-5.498
-5.49829
-5.49802
-5.49732
-5.49632
-5.49507
-5.49362
-5.49198
-5.49018
-5.48822
-5.48609
-5.4838
-5.48135
-5.47873
-5.47595
-5.473
-5.46991
-5.46666
-5.46327
-5.45973
-5.45607
-5.45228
-5.44836
-5.44431
-5.44013
-5.43581
-5.43135
-5.42674
-5.42196
-5.417
-5.41186
-5.40652
-5.40097
-5.3952
-5.38921
-5.38298
-5.37651
-5.36981
-5.36287
-5.35577
-5.34864
-5.34169
-5.5549
-5.55879
-5.56053
-5.56136
-5.56129
-5.56063
-5.55962
-5.5584
-5.55702
-5.55551
-5.55387
-5.5521
-5.55022
-5.5482
-5.54605
-5.54376
-5.54133
-5.53877
-5.53606
-5.53323
-5.53026
-5.52717
-5.52396
-5.52063
-5.51721
-5.51368
-5.51005
-5.50633
-5.50251
-5.49859
-5.49457
-5.49044
-5.48619
-5.48182
-5.47732
-5.47268
-5.46787
-5.4629
-5.45774
-5.45237
-5.44678
-5.44097
-5.43497
-5.42902
-5.42346
-5.62062
-5.62566
-5.62666
-5.62626
-5.62538
-5.62423
-5.62294
-5.62155
-5.6201
-5.61858
-5.61698
-5.61528
-5.6135
-5.61161
-5.60961
-5.6075
-5.60528
-5.60296
-5.60052
-5.59797
-5.59532
-5.59257
-5.58972
-5.5868
-5.58379
-5.58071
-5.57757
-5.57436
-5.5711
-5.56777
-5.56439
-5.56095
-5.55745
-5.55389
-5.55024
-5.54652
-5.5427
-5.53876
-5.53467
-5.53042
-5.52592
-5.52107
-5.51584
-5.51054
-5.50617
-5.6815
-5.70474
-5.7014
-5.69476
-5.69134
-5.68947
-5.68792
-5.68643
-5.68496
-5.68347
-5.68193
-5.68033
-5.67865
-5.6769
-5.67506
-5.67314
-5.67114
-5.66906
-5.66689
-5.66465
-5.66233
-5.65995
-5.6575
-5.65501
-5.65246
-5.64987
-5.64725
-5.6446
-5.64192
-5.63923
-5.63652
-5.63381
-5.63108
-5.62833
-5.62557
-5.62279
-5.61997
-5.61709
-5.61412
-5.61099
-5.60747
-5.60318
-5.59762
-5.59071
-5.58672
-5.6991
-5.80712
-5.78321
-5.76227
-5.75473
-5.75138
-5.74908
-5.74723
-5.74561
-5.74409
-5.7426
-5.74109
-5.73954
-5.73795
-5.73632
-5.73464
-5.73291
-5.73113
-5.72931
-5.72745
-5.72556
-5.72365
-5.72171
-5.71975
-5.71779
-5.71583
-5.71387
-5.71193
-5.71001
-5.70811
-5.70624
-5.70441
-5.70261
-5.70086
-5.69913
-5.69742
-5.69571
-5.69392
-5.69198
-5.68971
-5.68676
-5.68231
-5.67531
-5.66513
-5.66504
)
;

boundaryField
{
    leftWall
    {
        type            calculated;
        value           nonuniform List<scalar> 
42
(
-3.7093
-3.76112
-3.81006
-3.8566
-3.9011
-3.94394
-3.98552
-4.02622
-4.06637
-4.10621
-4.14596
-4.1858
-4.22589
-4.26643
-4.30757
-4.34946
-4.39215
-4.43568
-4.48003
-4.52519
-4.57113
-4.61785
-4.66535
-4.71369
-4.7629
-4.81304
-4.86416
-4.91629
-4.96946
-5.02369
-5.07897
-5.1353
-5.19265
-5.251
-5.31035
-5.37075
-5.43187
-5.49298
-5.5549
-5.62062
-5.6815
-5.6991
)
;
    }
    rightWall
    {
        type            calculated;
        value           nonuniform List<scalar> 0();
    }
    lowerWall
    {
        type            calculated;
        value           nonuniform List<scalar> 0();
    }
    atmosphere
    {
        type            calculated;
        value           nonuniform List<scalar> 
45
(
-5.74484
-5.7849
-5.78249
-5.77976
-5.77761
-5.77578
-5.77416
-5.77267
-5.77124
-5.76985
-5.76846
-5.76705
-5.76562
-5.76417
-5.76268
-5.76117
-5.75963
-5.75806
-5.75648
-5.75488
-5.75327
-5.75166
-5.75005
-5.74845
-5.74687
-5.74532
-5.74379
-5.74231
-5.74087
-5.73949
-5.73816
-5.7369
-5.73572
-5.73461
-5.73359
-5.73266
-5.73182
-5.73109
-5.73047
-5.72995
-5.72956
-5.72929
-5.72913
-5.72905
-5.72904
)
;
    }
    defaultFaces
    {
        type            empty;
    }
    procBoundary2to0
    {
        type            processor;
        value           nonuniform List<scalar> 
46
(
-4.1859
-4.24189
-4.29946
-4.3581
-4.4175
-4.47768
-4.53886
-4.60144
-4.66584
-4.73234
-4.80113
-4.87242
-4.94668
-5.02473
-5.10771
-5.1969
-5.29362
-5.39938
-5.5165
-5.64853
-5.80004
-5.97556
-6.17746
-6.4023
-6.6343
-3.65447
-3.66066
-3.66629
-3.67473
-3.68579
-3.69972
-3.7167
-3.7368
-3.75997
-3.78606
-3.81486
-3.84613
-3.87963
-3.91518
-3.95272
-3.99228
-4.034
-4.07804
-4.12454
-4.17358
-4.17358
)
;
    }
    procBoundary2to3
    {
        type            processor;
        value           nonuniform List<scalar> 
43
(
-6.68231
-6.51541
-6.32458
-6.07973
-5.79147
-5.49057
-5.20794
-4.96185
-4.75734
-4.59242
-4.46185
-4.36022
-4.283
-4.22633
-4.1871
-4.16299
-4.15217
-4.15297
-4.16382
-4.18333
-4.21033
-4.24382
-4.28293
-4.32694
-4.37532
-4.42762
-4.48346
-4.54243
-4.60413
-4.66819
-4.73437
-4.80254
-4.87265
-4.94474
-5.01885
-5.09499
-5.17313
-5.25321
-5.33504
-5.41843
-5.50303
-5.58725
-5.67175
)
;
    }
}


// ************************************************************************* //
