/*--------------------------------*- C++ -*----------------------------------*\
  =========                 |
  \\      /  F ield         | OpenFOAM: The Open Source CFD Toolbox
   \\    /   O peration     | Website:  https://openfoam.org
    \\  /    A nd           | Version:  9
     \\/     M anipulation  |
\*---------------------------------------------------------------------------*/
FoamFile
{
    format      ascii;
    class       volScalarField;
    location    "0.25";
    object      epsilon;
}
// * * * * * * * * * * * * * * * * * * * * * * * * * * * * * * * * * * * * * //

dimensions      [0 2 -3 0 0 0 0];

internalField   nonuniform List<scalar> 
1935
(
0.556598
0.444407
0.363221
0.303749
0.259436
0.225786
0.199749
0.179244
0.162835
0.149511
0.138544
0.129398
0.121678
0.115084
0.109392
0.104432
0.100075
0.0962245
0.0928086
0.0897721
0.0870726
0.0846761
0.0825544
0.0806827
0.0790386
0.0776012
0.0763505
0.0752678
0.0743355
0.0735374
0.0728591
0.0722883
0.0718153
0.0714329
0.0711368
0.0709255
0.0707996
0.0707599
0.0708042
0.0709208
0.0710809
0.0712328
0.0713128
0.593746
0.628666
0.656556
0.669916
0.460868
0.474781
0.483643
0.484114
0.368297
0.371347
0.371049
0.365946
0.302754
0.30039
0.295923
0.288727
0.255332
0.250417
0.244242
0.236549
0.220206
0.21423
0.20755
0.200065
0.193587
0.187321
0.180711
0.173724
0.172988
0.166824
0.160549
0.154158
0.156746
0.150876
0.145047
0.13926
0.143722
0.138235
0.132883
0.12767
0.13312
0.128045
0.123166
0.11848
0.124366
0.119706
0.115275
0.111069
0.117042
0.112785
0.108773
0.105
0.110838
0.106965
0.103342
0.0999584
0.105523
0.102014
0.0987492
0.0957179
0.100924
0.0977574
0.0948232
0.0921107
0.0969118
0.0940649
0.0914356
0.0890124
0.0933873
0.0908389
0.0884902
0.0863299
0.090277
0.0880057
0.0859146
0.0839931
0.087525
0.0855091
0.0836535
0.0819485
0.0850877
0.0833057
0.0816642
0.0801545
0.0829305
0.0813609
0.0799126
0.0785784
0.0810247
0.0796461
0.0783709
0.0771932
0.0793459
0.0781372
0.0770157
0.0759766
0.0778719
0.076813
0.0758268
0.0749097
0.0765829
0.0756546
0.0747864
0.0739757
0.0754602
0.0746448
0.0738785
0.0731599
0.0744866
0.0737675
0.0730885
0.0724489
0.073646
0.0730083
0.0724033
0.0718308
0.0729239
0.0723538
0.0718106
0.0712945
0.0723071
0.0717921
0.0712997
0.0708302
0.0717843
0.0713127
0.0708606
0.0704287
0.0713459
0.0709064
0.0704847
0.0700818
0.0709845
0.0705654
0.0701643
0.0697818
0.0706946
0.0702836
0.0698925
0.0695218
0.0704724
0.0700557
0.0696634
0.0692955
0.0703158
0.0698778
0.0694719
0.069097
0.0702225
0.069746
0.0693133
0.0689216
0.0701882
0.0696551
0.0691827
0.068765
0.0702026
0.0695975
0.0690751
0.0686247
0.0702456
0.0695611
0.068985
0.0685001
0.0702867
0.0695309
0.0689085
0.0683948
0.0702974
0.0694998
0.0688515
0.0683224
0.662252
0.626584
0.570005
0.504083
0.436576
0.372426
0.314724
0.265031
0.223671
0.190112
0.163371
0.142323
0.125888
0.113121
0.103229
0.0955776
0.0896615
0.0850906
0.0815658
0.0788619
0.076812
0.0752945
0.0742233
0.0735394
0.0732051
0.0731994
0.0735152
0.0741571
0.0751406
0.0764925
0.0782535
0.0804829
0.0832707
0.0867615
0.0912101
0.0971187
0.105633
0.119975
0.153291
0.323197
0.473206
0.447642
0.411088
0.368984
0.32582
0.284393
0.246571
0.213371
0.185117
0.161638
0.142471
0.127029
0.114704
0.104931
0.0972161
0.0911428
0.0863719
0.0826326
0.0797134
0.0774524
0.0757282
0.0744522
0.0735616
0.0730141
0.0727842
0.0728594
0.0732388
0.0739312
0.0749555
0.0763406
0.0781288
0.0803803
0.0831854
0.0866884
0.0911426
0.0970476
0.105543
0.119838
0.153042
0.322555
0.354537
0.335288
0.310333
0.282181
0.253447
0.225717
0.2001
0.177256
0.157454
0.140671
0.126693
0.115208
0.105866
0.098325
0.0922699
0.0874271
0.0835665
0.0805007
0.0780806
0.0761908
0.0747445
0.0736779
0.0729465
0.0725214
0.0723865
0.0725364
0.0729752
0.0737156
0.0747789
0.0761963
0.078011
0.0802841
0.0831062
0.0866208
0.0910801
0.0969805
0.105455
0.1197
0.152779
0.321815
0.277936
0.262834
0.244793
0.225064
0.20503
0.185716
0.167755
0.151557
0.137318
0.125061
0.114687
0.106023
0.098861
0.0929878
0.0881998
0.0843148
0.0811761
0.0786539
0.0766439
0.0750647
0.0738547
0.0729692
0.0723779
0.0720622
0.0720135
0.0722323
0.0727266
0.0735123
0.0746131
0.0760615
0.0779019
0.0801961
0.0830345
0.0865604
0.0910239
0.0969185
0.105371
0.11956
0.152503
0.320981
0.226756
0.214531
0.200844
0.186364
0.171795
0.157803
0.144774
0.132949
0.122453
0.113312
0.105476
0.0988431
0.0932845
0.0886627
0.0848435
0.0817042
0.0791377
0.0770542
0.075381
0.0740612
0.0730522
0.0723234
0.0718552
0.0716371
0.0716667
0.0719487
0.0724948
0.0733233
0.0744597
0.0759379
0.0778033
0.0801179
0.0829721
0.0865084
0.0909755
0.096863
0.105291
0.119421
0.152216
0.32006
0.191333
0.18121
0.170427
0.159357
0.148391
0.137881
0.128125
0.11925
0.111327
0.10437
0.0983463
0.0931908
0.0888197
0.0851413
0.0820653
0.0795081
0.0773961
0.0756671
0.0742709
0.0731683
0.0723302
0.0717371
0.0713772
0.0712463
0.0713468
0.071687
0.0722813
0.07315
0.0743203
0.0758271
0.0777165
0.0800508
0.0829201
0.0864662
0.0909359
0.0968152
0.105216
0.119284
0.15192
0.319057
0.165996
0.157475
0.148736
0.139994
0.131471
0.123365
0.11584
0.109005
0.102887
0.0974858
0.0927735
0.0887042
0.0852198
0.0822573
0.0797545
0.0776537
0.0759041
0.0744627
0.073295
0.0723745
0.0716825
0.0712069
0.0709424
0.0708895
0.0710542
0.0714478
0.072087
0.0729936
0.0741961
0.0757303
0.0776427
0.0799958
0.0828796
0.0864347
0.090906
0.0967758
0.105148
0.11915
0.151617
0.317984
0.147335
0.140074
0.132841
0.125761
0.118961
0.112551
0.106618
0.101225
0.0963982
0.0921227
0.088372
0.0851099
0.0822938
0.0798789
0.0778213
0.0760807
0.0746218
0.0734149
0.0724367
0.0716698
0.0711026
0.0707293
0.070549
0.0705659
0.070789
0.0712318
0.0719126
0.0728549
0.0740878
0.0756481
0.0775826
0.0799538
0.0828512
0.0864145
0.0908865
0.0967456
0.105088
0.11902
0.151309
0.316849
0.133236
0.126991
0.120908
0.11506
0.109516
0.104336
0.0995655
0.0952303
0.0913413
0.0878931
0.084857
0.0822019
0.079895
0.077903
0.0761943
0.0747403
0.0735162
0.0725019
0.0716817
0.0710448
0.0705851
0.0703009
0.0701952
0.0702747
0.0705508
0.0710388
0.0717585
0.0727342
0.073996
0.0755812
0.0775366
0.079925
0.0828353
0.086406
0.0908778
0.096725
0.105035
0.118894
0.150997
0.31566
0.122345
0.116932
0.111752
0.106845
0.102245
0.0979824
0.0940749
0.0905313
0.0873489
0.0845164
0.0820182
0.0798254
0.0779108
0.0762491
0.0748166
0.0735928
0.0725602
0.071705
0.0710174
0.0704913
0.0701244
0.0699184
0.0698788
0.0700147
0.0703391
0.0708688
0.0716245
0.0726316
0.0739208
0.0755295
0.077505
0.0799098
0.0828321
0.0864093
0.0908801
0.0967143
0.104991
0.118774
0.150683
0.314421
0.113764
0.109043
0.104589
0.100418
0.0965466
0.092983
0.0897312
0.0867883
0.0841455
0.0817889
0.0797007
0.0778641
0.0762558
0.0748549
0.0736435
0.0726063
0.0717311
0.0710088
0.0704332
0.070002
0.0697157
0.0695785
0.0695978
0.0697845
0.0701529
0.0707209
0.0715102
0.0725468
0.0738618
0.075493
0.0774876
0.0799078
0.0828413
0.0864244
0.0908933
0.0967137
0.104956
0.118661
0.150369
0.313132
0.106884
0.102745
0.0988828
0.0953018
0.0920032
0.0889849
0.0862412
0.0837631
0.0815384
0.0795525
0.0777891
0.0762314
0.0748644
0.073672
0.0726395
0.0717553
0.0710107
0.0703999
0.0699198
0.0695703
0.0693543
0.0692778
0.0693498
0.0695824
0.0699911
0.0705945
0.0714151
0.0724793
0.0738187
0.075471
0.0774837
0.0799185
0.0828626
0.0864508
0.0909172
0.0967232
0.10493
0.118556
0.150056
0.311802
0.101278
0.0976342
0.0942636
0.0911624
0.0883237
0.0857387
0.0833965
0.0812847
0.0793897
0.0776969
0.0761917
0.0748597
0.0736874
0.072663
0.0717766
0.071019
0.0703837
0.0698674
0.0694689
0.0691903
0.0690359
0.0690132
0.0691324
0.0694067
0.0698521
0.0704883
0.071338
0.0724282
0.0737905
0.0754629
0.0774926
0.0799412
0.082895
0.0864878
0.0909512
0.0967424
0.104913
0.11846
0.149749
0.310446
0.0966457
0.0934259
0.0904686
0.0877641
0.0853009
0.0830663
0.0810469
0.0792289
0.0775983
0.0761413
0.0748445
0.0736957
0.0726836
0.0717987
0.0710328
0.0703805
0.0698375
0.0694016
0.0690736
0.0688567
0.0687566
0.0687818
0.0689434
0.0692554
0.0697346
0.070401
0.0712779
0.0723923
0.0737762
0.0754675
0.0775134
0.0799748
0.0829377
0.0865344
0.0909944
0.0967705
0.104906
0.118373
0.149451
0.309083
0.0927666
0.0899146
0.0873092
0.0849374
0.0827854
0.0808389
0.0790834
0.0775049
0.0760898
0.0748252
0.0736993
0.0727013
0.0718219
0.0710534
0.0703897
0.0698264
0.0693614
0.0689945
0.0687275
0.0685646
0.0685124
0.0685804
0.0687802
0.0691266
0.0696368
0.0703311
0.0712332
0.0723703
0.0737744
0.0754836
0.0775446
0.0800181
0.0829892
0.0865892
0.0910454
0.0968064
0.104906
0.118295
0.149164
0.30773
0.0894808
0.0869505
0.0846479
0.0825588
0.0806686
0.0789625
0.077426
0.0760456
0.0748086
0.0737033
0.0727191
0.0718468
0.0710786
0.0704082
0.0698311
0.0693442
0.0689466
0.0686392
0.0684252
0.0683096
0.0683
0.0684062
0.0686406
0.0690182
0.0695568
0.0702769
0.0712024
0.0723607
0.0737838
0.0755096
0.0775847
0.0800694
0.0830481
0.0866508
0.0911027
0.0968485
0.104914
0.118225
0.148887
0.306398
0.0866698
0.0844228
0.0823835
0.0805374
0.0788701
0.0773671
0.0760148
0.0748006
0.0737127
0.0727409
0.0718757
0.0711093
0.0704351
0.0698481
0.0693449
0.0689237
0.0685845
0.0683292
0.0681616
0.0680878
0.068116
0.0682564
0.068522
0.0689281
0.0694927
0.0702366
0.0711839
0.0723619
0.0738027
0.075544
0.0776322
0.0801273
0.0831127
0.0867175
0.0911646
0.0968952
0.104926
0.118162
0.148623
0.305095
0.0842453
0.0822493
0.0804406
0.0788053
0.0773297
0.0760003
0.0748047
0.0737314
0.0727699
0.071911
0.0711467
0.0704703
0.0698762
0.0693607
0.0689212
0.0685569
0.0682685
0.0680588
0.0679323
0.0678955
0.0679572
0.0681283
0.0684222
0.0688542
0.0694426
0.0702085
0.0711758
0.0723721
0.0738293
0.075585
0.0776854
0.0801898
0.0831812
0.0867874
0.0912295
0.0969448
0.104942
0.118105
0.148371
0.30383
0.0821404
0.0803677
0.0787621
0.077311
0.0760016
0.074822
0.073761
0.0728083
0.0719548
0.0711925
0.0705144
0.069915
0.0693899
0.0689359
0.0685516
0.0682367
0.0679928
0.0678232
0.0677329
0.0677291
0.067821
0.0680197
0.0683388
0.0687943
0.0694045
0.0701905
0.0711764
0.0723895
0.0738619
0.0756309
0.0777423
0.0802553
0.0832519
0.0868589
0.0912956
0.0969957
0.104961
0.118054
0.148133
0.302609
0.0803042
0.0787305
0.0773045
0.076015
0.0748508
0.0738012
0.0728566
0.0720079
0.0712475
0.0705682
0.0699645
0.0694315
0.0689659
0.0685653
0.0682288
0.0679571
0.0677522
0.067618
0.06756
0.0675856
0.0677044
0.067928
0.0682701
0.0687468
0.0693767
0.070181
0.0711837
0.0724123
0.0738986
0.0756798
0.0778014
0.0803219
0.083323
0.0869303
0.0913613
0.0970465
0.104981
0.118008
0.147914
0.301444
0.0786972
0.0773007
0.0760337
0.0748865
0.0738494
0.0729133
0.0720699
0.0713116
0.0706317
0.0700245
0.0694851
0.0690097
0.0685957
0.0682415
0.0679469
0.0677131
0.0675425
0.0674395
0.0674101
0.067462
0.067605
0.0678509
0.0682138
0.0687098
0.0693577
0.0701786
0.0711966
0.0724393
0.0739381
0.0757302
0.0778608
0.0803881
0.0833929
0.087
0.0914253
0.0970967
0.105003
0.117975
0.14774
0.300433
0.077288
0.0760491
0.0749228
0.0739009
0.0729754
0.0721386
0.0713836
0.0707041
0.0700944
0.0695498
0.0690664
0.0686412
0.0682722
0.0679586
0.0677007
0.0675
0.0673597
0.0672843
0.0672803
0.0673555
0.0675202
0.0677863
0.0681679
0.0686814
0.0693456
0.0701816
0.0712136
0.0724689
0.0739791
0.075781
0.0779196
0.0804526
0.0834604
0.0870668
0.0914864
0.0971448
0.105026
0.11795
0.147598
0.299579
0.0760513
0.074952
0.0739499
0.0730384
0.072211
0.0714613
0.0707837
0.070173
0.0696246
0.0691347
0.0687002
0.0683188
0.0679893
0.0677112
0.0674854
0.067314
0.0672003
0.0671494
0.0671678
0.0672639
0.0674479
0.067732
0.0681305
0.0686597
0.0693386
0.0701882
0.0712328
0.0724996
0.0740199
0.0758304
0.077976
0.0805138
0.0835238
0.087129
0.0915428
0.0971887
0.105047
0.117927
0.147468
0.298805
0.074966
0.0739898
0.0730972
0.0722828
0.0715415
0.0708682
0.0702584
0.0697079
0.0692132
0.0687712
0.0683795
0.0680366
0.0677416
0.0674947
0.0672972
0.0671515
0.0670613
0.067032
0.0670703
0.0671849
0.0673861
0.0676862
0.0680997
0.0686431
0.069335
0.0701969
0.0712527
0.0725296
0.0740589
0.0758771
0.0780286
0.0805704
0.0835819
0.0871853
0.091593
0.0972267
0.105063
0.117902
0.147343
0.298084
0.0740143
0.0731463
0.0723497
0.0716204
0.0709546
0.0703483
0.0697979
0.0693003
0.0688526
0.0684526
0.0680986
0.0677894
0.0675247
0.0673052
0.0671325
0.0670094
0.06694
0.0669297
0.0669856
0.0671165
0.0673329
0.0676473
0.0680741
0.0686299
0.0693335
0.0702062
0.0712719
0.0725578
0.0740949
0.0759196
0.078076
0.0806209
0.0836332
0.0872344
0.0916359
0.0972577
0.105073
0.117873
0.147221
0.297411
0.0731809
0.0724073
0.0716945
0.0710397
0.0704399
0.0698922
0.069394
0.0689427
0.0685363
0.0681732
0.0678521
0.0675725
0.0673346
0.0671392
0.0669883
0.0668851
0.0668338
0.0668403
0.0669117
0.0670569
0.0672867
0.0676136
0.0680522
0.068619
0.0693328
0.0702149
0.0712893
0.0725828
0.0741266
0.0759568
0.0781173
0.0806645
0.0836769
0.0872755
0.0916708
0.0972811
0.105077
0.117841
0.147102
0.296787
0.0724522
0.0717605
0.0711207
0.0705307
0.0699886
0.0694921
0.0690394
0.0686287
0.0682586
0.0679278
0.0676358
0.0673822
0.0671677
0.0669935
0.0668618
0.0667761
0.0667408
0.0667619
0.0668469
0.0670047
0.0672462
0.067584
0.0680328
0.0686091
0.0693318
0.070222
0.0713037
0.0726039
0.0741532
0.0759879
0.0781515
0.0807003
0.0837123
0.0873079
0.091697
0.0972964
0.105074
0.117806
0.146988
0.296216
0.0718163
0.0711952
0.0706184
0.0700847
0.0695926
0.0691408
0.0687279
0.0683528
0.0680145
0.0677121
0.0674456
0.0672149
0.067021
0.0668654
0.0667506
0.0666802
0.0666589
0.0666929
0.0667896
0.0669584
0.0672101
0.0675574
0.0680149
0.0685994
0.0693296
0.0702267
0.0713146
0.0726202
0.0741741
0.0760122
0.0781782
0.0807278
0.0837388
0.0873313
0.0917142
0.0973035
0.105065
0.117767
0.14688
0.295701
0.0712621
0.0707015
0.0701789
0.0696937
0.0692451
0.0688321
0.068454
0.06811
0.0677995
0.0675221
0.067278
0.0670675
0.0668917
0.0667525
0.0666525
0.0665955
0.0665865
0.0666316
0.0667386
0.0669169
0.0671773
0.0675326
0.0679976
0.068589
0.0693255
0.0702283
0.0713213
0.0726312
0.0741886
0.0760294
0.0781968
0.0807466
0.0837562
0.0873454
0.0917225
0.0973024
0.105049
0.117726
0.146778
0.295245
0.0707799
0.0702705
0.0697943
0.0693508
0.0689396
0.0685604
0.0682125
0.0678957
0.0676097
0.0673543
0.0671298
0.0669371
0.0667773
0.0666524
0.0665655
0.0665203
0.0665219
0.0665768
0.0666927
0.066879
0.0671468
0.067509
0.0679803
0.0685773
0.069319
0.0702264
0.0713234
0.0726366
0.0741966
0.0760391
0.0782073
0.0807567
0.0837645
0.0873502
0.0917217
0.0972932
0.105027
0.117682
0.146683
0.29485
0.0703605
0.0698943
0.0694572
0.0690492
0.0686703
0.0683202
0.0679988
0.0677058
0.0674412
0.0672052
0.0669982
0.0668211
0.0666754
0.0665633
0.0664877
0.0664529
0.0664638
0.0665271
0.0666506
0.0668438
0.0671179
0.0674858
0.0679622
0.0685639
0.0693096
0.0702206
0.0713206
0.0726362
0.0741979
0.0760413
0.0782096
0.080758
0.0837638
0.0873459
0.0917122
0.0972763
0.104999
0.117637
0.146596
0.294518
0.0699956
0.069565
0.0691607
0.0687828
0.0684315
0.0681066
0.0678082
0.0675361
0.0672904
0.0670716
0.06688
0.0667169
0.0665838
0.0664829
0.0664175
0.0663917
0.0664108
0.0664814
0.0666115
0.0668106
0.0670899
0.0674625
0.067943
0.0685483
0.0692972
0.0702108
0.0713128
0.0726299
0.0741925
0.0760361
0.0782038
0.0807508
0.0837542
0.0873329
0.0916944
0.0972521
0.104966
0.11759
0.146519
0.294252
0.0696775
0.0692755
0.0688982
0.0685456
0.0682177
0.0679147
0.0676363
0.0673826
0.0671538
0.0669503
0.0667727
0.0666221
0.0665002
0.0664095
0.0663531
0.0663354
0.0663616
0.0664386
0.0665743
0.0667783
0.0670621
0.0674384
0.0679222
0.0685302
0.0692814
0.0701967
0.0713
0.0726178
0.0741805
0.0760237
0.0781902
0.0807355
0.0837362
0.0873115
0.0916688
0.0972212
0.104929
0.117544
0.146451
0.29405
0.0693988
0.0690189
0.0686631
0.0683314
0.0680235
0.0677393
0.0674786
0.0672414
0.0670278
0.0668382
0.0666732
0.066534
0.0664225
0.0663409
0.0662928
0.0662823
0.066315
0.0663975
0.0665381
0.0667464
0.0670338
0.0674131
0.0678994
0.0685095
0.0692621
0.0701785
0.0712822
0.0726
0.0741623
0.0760044
0.0781694
0.0807124
0.0837105
0.0872825
0.091636
0.0971842
0.104887
0.117497
0.146395
0.293913
0.0691526
0.0687885
0.0684493
0.0681345
0.0678435
0.0675757
0.0673308
0.0671085
0.0669088
0.066732
0.0665788
0.0664503
0.0663483
0.0662754
0.0662348
0.0662311
0.0662696
0.0663572
0.0665021
0.0667141
0.0670044
0.0673863
0.0678745
0.0684859
0.0692394
0.0701561
0.0712598
0.072577
0.0741382
0.0759788
0.0781418
0.0806824
0.0836776
0.0872465
0.0915968
0.0971421
0.104843
0.117452
0.146349
0.293838
0.0689324
0.0685779
0.0682507
0.0679493
0.0676725
0.0674192
0.0671886
0.0669801
0.0667934
0.0666288
0.0664868
0.0663685
0.0662757
0.066211
0.0661777
0.0661803
0.0662243
0.0663166
0.0664655
0.0666807
0.0669736
0.0673575
0.0678471
0.0684594
0.0692133
0.0701299
0.071233
0.0725492
0.0741089
0.0759475
0.0781082
0.0806461
0.0836385
0.0872045
0.0915522
0.0970956
0.104796
0.117409
0.146315
0.293821
0.0687323
0.0683815
0.0680618
0.0677708
0.0675061
0.0672658
0.0670484
0.066853
0.0666789
0.066526
0.066395
0.0662867
0.0662029
0.0661462
0.06612
0.0661288
0.0661781
0.0662749
0.0664275
0.0666458
0.0669411
0.0673266
0.0678173
0.0684302
0.0691841
0.0701003
0.0712024
0.0725172
0.074075
0.0759114
0.0780695
0.0806047
0.0835942
0.0871576
0.0915032
0.097046
0.104749
0.117368
0.146292
0.293853
0.0685475
0.0681947
0.0678788
0.0675956
0.0673413
0.0671129
0.0669081
0.0667253
0.0665635
0.0664223
0.0663021
0.0662038
0.066129
0.0660804
0.0660612
0.0660761
0.0661307
0.0662319
0.0663882
0.0666093
0.0669067
0.0672938
0.0677855
0.0683987
0.0691524
0.0700679
0.0711688
0.0724819
0.0740377
0.0758717
0.0780271
0.0805595
0.0835463
0.0871073
0.0914514
0.0969944
0.104701
0.117331
0.146279
0.293919
0.0683749
0.0680154
0.0677003
0.0674229
0.0671777
0.0669604
0.0667677
0.0665973
0.0664476
0.066318
0.0662086
0.0661202
0.0660544
0.0660137
0.0660016
0.0660226
0.0660824
0.066188
0.0663478
0.0665717
0.0668713
0.0672598
0.0677523
0.0683658
0.0691192
0.0700338
0.0711335
0.0724448
0.0739985
0.07583
0.0779828
0.0805124
0.0834965
0.0870554
0.0913985
0.0969428
0.104654
0.117297
0.146276
0.293995
0.0682139
0.0678447
0.0675284
0.0672555
0.0670186
0.0668118
0.0666307
0.0664722
0.0663343
0.066216
0.066117
0.0660383
0.0659812
0.0659483
0.065943
0.0659699
0.0660348
0.0661446
0.0663079
0.0665346
0.0668362
0.0672261
0.0677194
0.0683331
0.0690862
0.0700001
0.0710984
0.0724081
0.0739596
0.0757888
0.0779389
0.0804659
0.0834476
0.0870046
0.0913473
0.0968935
0.104612
0.117269
0.14628
0.294041
0.0680677
0.0676883
0.0673703
0.0671015
0.0668723
0.0666751
0.0665047
0.0663572
0.0662301
0.0661221
0.0660329
0.0659629
0.0659139
0.0658881
0.0658891
0.0659215
0.065991
0.0661047
0.0662712
0.0665004
0.0668039
0.0671952
0.0676892
0.0683031
0.069056
0.0699691
0.0710663
0.0723744
0.0739241
0.0757511
0.077899
0.0804236
0.0834032
0.0869588
0.0913014
0.0968502
0.104576
0.11725
0.146289
0.293985
0.067945
0.0675578
0.0672392
0.0669743
0.0667517
0.0665628
0.0664014
0.066263
0.0661449
0.0660454
0.0659641
0.0659014
0.0658589
0.0658389
0.0658451
0.0658819
0.0659552
0.0660722
0.0662413
0.0664726
0.0667777
0.06717
0.0676647
0.0682789
0.0690316
0.0699442
0.0710405
0.0723475
0.0738957
0.0757211
0.0778671
0.0803899
0.083368
0.0869228
0.091266
0.0968184
0.104553
0.117248
0.146324
0.293735
0.0678639
0.0674734
0.0671554
0.0668935
0.0666754
0.0664919
0.0663361
0.0662035
0.0660909
0.0659966
0.0659202
0.065862
0.0658235
0.0658072
0.0658166
0.0658562
0.065932
0.066051
0.0662218
0.0664544
0.0667606
0.0671537
0.067649
0.0682634
0.0690161
0.0699284
0.0710243
0.0723306
0.073878
0.0757024
0.0778473
0.0803691
0.0833462
0.0869005
0.0912443
0.0967993
0.104541
0.117252
0.146341
0.29299
)
;

boundaryField
{
    leftWall
    {
        type            epsilonWallFunction;
        value           nonuniform List<scalar> 0();
    }
    rightWall
    {
        type            epsilonWallFunction;
        value           nonuniform List<scalar> 
43
(
0.323197
0.322555
0.321815
0.320981
0.32006
0.319057
0.317984
0.316849
0.31566
0.314421
0.313132
0.311802
0.310446
0.309083
0.30773
0.306398
0.305095
0.30383
0.302609
0.301444
0.300433
0.299579
0.298805
0.298084
0.297411
0.296787
0.296216
0.295701
0.295245
0.29485
0.294518
0.294252
0.29405
0.293913
0.293838
0.293821
0.293853
0.293919
0.293995
0.294041
0.293985
0.293735
0.29299
)
;
    }
    lowerWall
    {
        type            epsilonWallFunction;
        value           nonuniform List<scalar> 0();
    }
    atmosphere
    {
        type            inletOutlet;
        inletValue      uniform 0.1;
        value           nonuniform List<scalar> 
45
(
0.0713128
0.0702974
0.0694998
0.0688515
0.0683224
0.0678639
0.0674734
0.0671554
0.0668935
0.0666754
0.0664919
0.0663361
0.0662035
0.0660909
0.0659966
0.0659202
0.065862
0.0658235
0.0658072
0.0658166
0.0658562
0.065932
0.066051
0.0662218
0.0664544
0.0667606
0.0671537
0.067649
0.0682634
0.0690161
0.0699284
0.0710243
0.0723306
0.073878
0.0757024
0.0778473
0.0803691
0.0833462
0.0869005
0.0912443
0.0967993
0.104541
0.117252
0.146341
0.29299
)
;
    }
    defaultFaces
    {
        type            empty;
    }
    procBoundary3to1
    {
        type            processor;
        value           nonuniform List<scalar> 
45
(
0.712248
0.785556
0.859444
0.924874
0.965517
0.96698
0.914747
0.823737
0.717367
0.608997
0.507027
0.416586
0.34021
0.278181
0.229209
0.191264
0.162197
0.14007
0.123274
0.110532
0.100861
0.0935099
0.0879167
0.0836607
0.0804312
0.0780011
0.0762064
0.0749312
0.0740954
0.0736467
0.0735538
0.073802
0.0743908
0.075332
0.0766497
0.0783829
0.0805899
0.0833601
0.0868384
0.0912808
0.0971922
0.105723
0.120109
0.153524
0.323738
)
;
    }
    procBoundary3to2
    {
        type            processor;
        value           nonuniform List<scalar> 
43
(
0.521707
0.427896
0.357434
0.304041
0.263054
0.231123
0.205874
0.185621
0.169159
0.155611
0.144326
0.134816
0.12671
0.119725
0.113643
0.108302
0.103575
0.0993713
0.0956196
0.0922678
0.0892754
0.0866103
0.0842452
0.0821557
0.0803192
0.078714
0.0773188
0.0761133
0.0750778
0.0741946
0.0734478
0.0728243
0.0723139
0.07191
0.0716102
0.0714157
0.0713313
0.0713631
0.0715134
0.0717724
0.0721043
0.0724316
0.0726323
)
;
    }
}


// ************************************************************************* //
