/*--------------------------------*- C++ -*----------------------------------*\
  =========                 |
  \\      /  F ield         | OpenFOAM: The Open Source CFD Toolbox
   \\    /   O peration     | Website:  https://openfoam.org
    \\  /    A nd           | Version:  9
     \\/     M anipulation  |
\*---------------------------------------------------------------------------*/
FoamFile
{
    format      ascii;
    class       volScalarField;
    location    "0.25";
    object      p;
}
// * * * * * * * * * * * * * * * * * * * * * * * * * * * * * * * * * * * * * //

dimensions      [1 -1 -2 0 0 0 0];

internalField   nonuniform List<scalar> 
1935
(
-2.9815
-2.98331
-2.99617
-3.01724
-3.04459
-3.07687
-3.11319
-3.15287
-3.19542
-3.2405
-3.288
-3.33792
-3.39023
-3.44486
-3.50171
-3.56068
-3.62172
-3.68481
-3.74983
-3.81661
-3.88488
-3.9544
-4.02493
-4.09635
-4.16864
-4.24189
-4.31622
-4.39178
-4.46871
-4.54709
-4.62697
-4.70831
-4.79107
-4.87515
-4.96048
-5.04696
-5.13451
-5.22306
-5.31257
-5.40302
-5.49442
-5.58661
-5.67955
-2.83462
-2.68192
-2.52468
-2.37028
-2.85552
-2.72474
-2.59166
-2.46138
-2.88471
-2.77195
-2.65803
-2.54665
-2.91963
-2.82165
-2.72313
-2.62685
-2.95868
-2.87291
-2.78697
-2.70302
-3.00089
-2.92535
-2.84987
-2.77616
-3.04572
-2.97887
-2.91221
-2.84704
-3.09279
-3.03338
-2.97416
-2.91611
-3.14174
-3.08872
-3.0358
-2.98377
-3.19238
-3.14484
-3.09733
-3.05056
-3.2447
-3.20194
-3.1592
-3.11713
-3.29886
-3.26034
-3.22189
-3.18407
-3.35499
-3.32029
-3.28568
-3.25162
-3.41307
-3.3818
-3.3506
-3.3198
-3.473
-3.44477
-3.41654
-3.38857
-3.53468
-3.5091
-3.48345
-3.45797
-3.5981
-3.57482
-3.55144
-3.52819
-3.66325
-3.642
-3.62064
-3.5994
-3.73011
-3.71066
-3.69112
-3.6717
-3.79855
-3.7807
-3.76279
-3.745
-3.86832
-3.85193
-3.83548
-3.81912
-3.93919
-3.92411
-3.90895
-3.89387
-4.01095
-3.99706
-3.98308
-3.96916
-4.0835
-4.07071
-4.05784
-4.04502
-4.15685
-4.14512
-4.13332
-4.12157
-4.23111
-4.22043
-4.20968
-4.19898
-4.30644
-4.29678
-4.28707
-4.27741
-4.38297
-4.3743
-4.36561
-4.35695
-4.46082
-4.4531
-4.44536
-4.43764
-4.54006
-4.53321
-4.52635
-4.5195
-4.62071
-4.61465
-4.60857
-4.6025
-4.70275
-4.69738
-4.692
-4.68661
-4.78613
-4.78137
-4.77659
-4.77181
-4.87079
-4.86656
-4.86233
-4.85809
-4.95663
-4.9529
-4.94917
-4.94543
-5.04361
-5.04035
-5.03709
-5.03383
-5.13165
-5.12885
-5.12605
-5.12326
-5.22069
-5.21837
-5.21604
-5.21371
-5.31071
-5.30887
-5.30702
-5.30518
-5.40169
-5.40035
-5.399
-5.39764
-5.49364
-5.49282
-5.49197
-5.49109
-5.58646
-5.58622
-5.58592
-5.58556
-5.6801
-5.68051
-5.68081
-5.68103
-2.21965
-2.08462
-1.97501
-1.89043
-1.82902
-1.78773
-1.76259
-1.74931
-1.74397
-1.74351
-1.74577
-1.74937
-1.75351
-1.75778
-1.76202
-1.76611
-1.77
-1.77362
-1.77693
-1.77988
-1.78251
-1.78484
-1.78695
-1.78888
-1.79065
-1.79228
-1.79371
-1.79493
-1.79587
-1.79651
-1.79683
-1.79686
-1.79662
-1.79615
-1.79549
-1.79467
-1.79367
-1.79247
-1.79109
-1.78981
-2.33337
-2.21589
-2.11723
-2.03773
-1.97652
-1.93165
-1.90044
-1.87988
-1.86708
-1.85963
-1.85568
-1.85397
-1.8537
-1.85436
-1.85565
-1.85732
-1.8592
-1.86114
-1.86302
-1.86478
-1.8664
-1.8679
-1.86931
-1.87063
-1.87187
-1.873
-1.87398
-1.87476
-1.87532
-1.87563
-1.87568
-1.8755
-1.87511
-1.87454
-1.87382
-1.87296
-1.87196
-1.87076
-1.8694
-1.86816
-2.43657
-2.33368
-2.24488
-2.17083
-2.11118
-2.06478
-2.02984
-2.00427
-1.98599
-1.97313
-1.96421
-1.95813
-1.9541
-1.95157
-1.95015
-1.94952
-1.94943
-1.94969
-1.95015
-1.95072
-1.95135
-1.95203
-1.95273
-1.95343
-1.9541
-1.95469
-1.95517
-1.95549
-1.95565
-1.95561
-1.9554
-1.95502
-1.95449
-1.95383
-1.95305
-1.95216
-1.95115
-1.94996
-1.94863
-1.94742
-2.53126
-2.44061
-2.36064
-2.29202
-2.23479
-2.18826
-2.15133
-2.12256
-2.10047
-2.08366
-2.07094
-2.06136
-2.05421
-2.04893
-2.04509
-2.04234
-2.04041
-2.03907
-2.03818
-2.03761
-2.03729
-2.03715
-2.03713
-2.03718
-2.03724
-2.03727
-2.03722
-2.03708
-2.03683
-2.03646
-2.03598
-2.03541
-2.03474
-2.03399
-2.03316
-2.03224
-2.03121
-2.03004
-2.02874
-2.02758
-2.61935
-2.53905
-2.46686
-2.40344
-2.34904
-2.30337
-2.26574
-2.23519
-2.21068
-2.19113
-2.17561
-2.16333
-2.15365
-2.14604
-2.1401
-2.13546
-2.13187
-2.1291
-2.12697
-2.12534
-2.12411
-2.12316
-2.12241
-2.12178
-2.12121
-2.12066
-2.12008
-2.11948
-2.11883
-2.11815
-2.11743
-2.11667
-2.11587
-2.11502
-2.11412
-2.11317
-2.11213
-2.11097
-2.10971
-2.10859
-2.70238
-2.63079
-2.56539
-2.50683
-2.45551
-2.41139
-2.37404
-2.34281
-2.31694
-2.29563
-2.27814
-2.26382
-2.25213
-2.24262
-2.2349
-2.22866
-2.22363
-2.2196
-2.21637
-2.21378
-2.21167
-2.20993
-2.20844
-2.20712
-2.20592
-2.20478
-2.20369
-2.20264
-2.20163
-2.20065
-2.1997
-2.19877
-2.19783
-2.19689
-2.19593
-2.19493
-2.19387
-2.19272
-2.19151
-2.19044
-2.78146
-2.71719
-2.65777
-2.60377
-2.5557
-2.5136
-2.47723
-2.44611
-2.41968
-2.39733
-2.37851
-2.36271
-2.34949
-2.33847
-2.32933
-2.32178
-2.31557
-2.31047
-2.30627
-2.30279
-2.29986
-2.29733
-2.29511
-2.29311
-2.29127
-2.28957
-2.288
-2.28654
-2.2852
-2.28395
-2.28278
-2.28168
-2.28062
-2.27958
-2.27854
-2.2775
-2.27642
-2.27529
-2.27411
-2.27311
-2.8574
-2.79944
-2.74537
-2.69573
-2.65098
-2.6112
-2.57624
-2.54573
-2.51927
-2.49643
-2.47678
-2.45997
-2.44565
-2.43353
-2.42331
-2.41475
-2.40759
-2.40159
-2.39654
-2.39224
-2.38852
-2.38524
-2.3823
-2.37963
-2.3772
-2.37499
-2.37297
-2.37114
-2.3695
-2.36801
-2.36665
-2.36539
-2.3642
-2.36306
-2.36195
-2.36085
-2.35976
-2.35863
-2.3575
-2.35655
-2.93097
-2.8786
-2.82946
-2.78398
-2.74253
-2.70517
-2.67181
-2.64221
-2.61608
-2.59313
-2.57308
-2.55568
-2.54067
-2.52781
-2.51685
-2.50753
-2.49961
-2.49286
-2.48705
-2.48198
-2.47751
-2.47351
-2.4699
-2.46662
-2.46365
-2.46097
-2.45857
-2.45642
-2.45451
-2.45281
-2.45127
-2.44985
-2.44854
-2.4473
-2.44611
-2.44496
-2.44384
-2.44273
-2.44165
-2.44076
-3.00302
-2.95573
-2.91114
-2.86954
-2.83122
-2.79623
-2.76452
-2.73597
-2.71042
-2.68769
-2.66762
-2.65001
-2.63467
-2.62139
-2.60994
-2.60008
-2.59156
-2.58415
-2.57765
-2.57189
-2.56672
-2.56206
-2.55783
-2.55401
-2.55057
-2.5475
-2.54477
-2.54235
-2.54022
-2.53832
-2.53661
-2.53506
-2.53362
-2.53227
-2.531
-2.5298
-2.52866
-2.52756
-2.52652
-2.52569
-3.07436
-3.03167
-2.99118
-2.9531
-2.91764
-2.88488
-2.85482
-2.82744
-2.80268
-2.78046
-2.76067
-2.74318
-2.7278
-2.71436
-2.70261
-2.69235
-2.68333
-2.67535
-2.66823
-2.66183
-2.65604
-2.65079
-2.64605
-2.64177
-2.63795
-2.63455
-2.63156
-2.62892
-2.6266
-2.62453
-2.62266
-2.62096
-2.6194
-2.61794
-2.61659
-2.61533
-2.61417
-2.61309
-2.6121
-2.61133
-3.14555
-3.10692
-3.07005
-3.03508
-3.0022
-2.97152
-2.94312
-2.91703
-2.89326
-2.8718
-2.85255
-2.8354
-2.8202
-2.80675
-2.79484
-2.78426
-2.77482
-2.76634
-2.75867
-2.75172
-2.7454
-2.73968
-2.73451
-2.72988
-2.72577
-2.72213
-2.71893
-2.71612
-2.71362
-2.71139
-2.70938
-2.70754
-2.70585
-2.70428
-2.70285
-2.70154
-2.70036
-2.6993
-2.69836
-2.69765
-3.21681
-3.18173
-3.148
-3.11578
-3.08525
-3.05658
-3.02986
-3.00519
-2.98259
-2.96206
-2.94352
-2.92686
-2.91194
-2.89856
-2.88655
-2.87573
-2.86593
-2.85702
-2.84891
-2.84151
-2.83479
-2.82871
-2.82324
-2.81836
-2.81404
-2.81023
-2.80687
-2.80391
-2.80126
-2.79889
-2.79673
-2.79475
-2.79293
-2.79127
-2.78976
-2.7884
-2.78721
-2.78616
-2.78527
-2.78463
-3.28821
-3.25618
-3.22524
-3.19551
-3.16721
-3.1405
-3.11553
-3.09236
-3.07103
-3.05152
-3.03376
-3.01765
-3.00303
-2.98977
-2.97769
-2.96668
-2.9566
-2.94737
-2.93892
-2.93122
-2.92422
-2.91791
-2.91226
-2.90723
-2.90278
-2.89885
-2.89537
-2.89227
-2.88949
-2.88697
-2.88467
-2.88256
-2.88063
-2.87887
-2.87728
-2.87589
-2.87468
-2.87366
-2.87282
-2.87224
-3.35977
-3.33047
-3.30204
-3.27465
-3.2485
-3.22375
-3.20051
-3.17886
-3.15881
-3.14033
-3.12334
-3.10776
-3.09345
-3.0803
-3.06821
-3.05707
-3.04682
-3.03739
-3.02875
-3.02088
-3.01375
-3.00734
-3.0016
-2.9965
-2.99198
-2.98797
-2.98439
-2.98118
-2.97827
-2.97561
-2.97318
-2.97094
-2.9689
-2.96705
-2.96541
-2.96398
-2.96277
-2.96178
-2.961
-2.96048
-3.43167
-3.40485
-3.37878
-3.35361
-3.32953
-3.30666
-3.28511
-3.26491
-3.24606
-3.22853
-3.21226
-3.19716
-3.18315
-3.17016
-3.15811
-3.14696
-3.13665
-3.12717
-3.11849
-3.11059
-3.10346
-3.09705
-3.09131
-3.0862
-3.08165
-3.07758
-3.07391
-3.07059
-3.06756
-3.06477
-3.06221
-3.05986
-3.05772
-3.0558
-3.05411
-3.05266
-3.05146
-3.0505
-3.04977
-3.04931
-3.50417
-3.47964
-3.45578
-3.43269
-3.41054
-3.38943
-3.36943
-3.35054
-3.33278
-3.3161
-3.30047
-3.28584
-3.27216
-3.25938
-3.24748
-3.23643
-3.22622
-3.21683
-3.20825
-3.20045
-3.19342
-3.18709
-3.18141
-3.17633
-3.17176
-3.16764
-3.1639
-3.16048
-3.15733
-3.15442
-3.15175
-3.14929
-3.14707
-3.1451
-3.14338
-3.14192
-3.14073
-3.13981
-3.13914
-3.13874
-3.57746
-3.55505
-3.53321
-3.51203
-3.49163
-3.47209
-3.45345
-3.43573
-3.41892
-3.40302
-3.388
-3.37385
-3.36055
-3.34809
-3.33646
-3.32566
-3.31568
-3.30652
-3.29815
-3.29056
-3.28369
-3.27749
-3.27191
-3.26686
-3.26229
-3.25813
-3.25431
-3.25079
-3.24754
-3.24453
-3.24175
-3.23922
-3.23694
-3.23493
-3.23319
-3.23174
-3.23058
-3.2297
-3.22908
-3.22874
-3.65164
-3.63112
-3.61109
-3.5916
-3.57274
-3.55457
-3.53713
-3.52043
-3.5045
-3.48934
-3.47494
-3.46133
-3.44851
-3.43648
-3.42525
-3.41483
-3.40521
-3.39638
-3.38831
-3.38097
-3.37431
-3.36827
-3.36278
-3.35778
-3.35321
-3.349
-3.34511
-3.3415
-3.33816
-3.33506
-3.33222
-3.32963
-3.32732
-3.32529
-3.32356
-3.32213
-3.321
-3.32016
-3.3196
-3.31931
-3.7266
-3.70776
-3.68931
-3.67129
-3.65377
-3.63681
-3.62044
-3.6047
-3.58961
-3.5752
-3.56149
-3.54851
-3.53626
-3.52478
-3.51407
-3.50413
-3.49495
-3.48652
-3.47879
-3.47173
-3.46529
-3.4594
-3.45401
-3.44904
-3.44446
-3.44022
-3.43627
-3.43259
-3.42918
-3.42602
-3.42314
-3.42052
-3.4182
-3.41617
-3.41446
-3.41306
-3.41198
-3.41119
-3.41069
-3.41044
-3.80219
-3.78481
-3.76774
-3.75102
-3.73471
-3.71885
-3.7035
-3.68869
-3.67446
-3.66086
-3.6479
-3.63563
-3.62406
-3.61321
-3.60309
-3.59369
-3.585
-3.57699
-3.56962
-3.56284
-3.5566
-3.55086
-3.54554
-3.54061
-3.53603
-3.53175
-3.52776
-3.52404
-3.52058
-3.5174
-3.5145
-3.51189
-3.50958
-3.50758
-3.50591
-3.50456
-3.50352
-3.50278
-3.50234
-3.50214
-3.87824
-3.86217
-3.84636
-3.83082
-3.81563
-3.80083
-3.78648
-3.77262
-3.7593
-3.74656
-3.73443
-3.72294
-3.71211
-3.70194
-3.69245
-3.68361
-3.67541
-3.66781
-3.66077
-3.65425
-3.64821
-3.64259
-3.63735
-3.63245
-3.62787
-3.62358
-3.61957
-3.61584
-3.61238
-3.6092
-3.60632
-3.60374
-3.60147
-3.59953
-3.5979
-3.5966
-3.59562
-3.59494
-3.59455
-3.59439
-3.95472
-3.93986
-3.92522
-3.91082
-3.89672
-3.88298
-3.86965
-3.85678
-3.84441
-3.83257
-3.8213
-3.81062
-3.80055
-3.79108
-3.7822
-3.77391
-3.76617
-3.75895
-3.75222
-3.74594
-3.74006
-3.73456
-3.7294
-3.72455
-3.71999
-3.71572
-3.71172
-3.70801
-3.70458
-3.70144
-3.69861
-3.69609
-3.69389
-3.69201
-3.69045
-3.68922
-3.68829
-3.68767
-3.68733
-3.68721
-4.03171
-4.01802
-4.00452
-3.99123
-3.97823
-3.96555
-3.95326
-3.94139
-3.92998
-3.91906
-3.90866
-3.89878
-3.88944
-3.88064
-3.87235
-3.86456
-3.85724
-3.85037
-3.84392
-3.83785
-3.83213
-3.82675
-3.82167
-3.81689
-3.81239
-3.80816
-3.80422
-3.80057
-3.79721
-3.79415
-3.79139
-3.78896
-3.78684
-3.78504
-3.78356
-3.78239
-3.78153
-3.78096
-3.78068
-3.7806
-4.10938
-4.09682
-4.08445
-4.07228
-4.06036
-4.04875
-4.03749
-4.02661
-4.01615
-4.00613
-3.99655
-3.98744
-3.97879
-3.9706
-3.96284
-3.95551
-3.94858
-3.94202
-3.93582
-3.92996
-3.92441
-3.91915
-3.91418
-3.9095
-3.90509
-3.90096
-3.89711
-3.89355
-3.89029
-3.88734
-3.88469
-3.88236
-3.88034
-3.87864
-3.87724
-3.87614
-3.87534
-3.87483
-3.87459
-3.87455
-4.18789
-4.17646
-4.1652
-4.15412
-4.14327
-4.1327
-4.12244
-4.11252
-4.10296
-4.09377
-4.08497
-4.07656
-4.06854
-4.0609
-4.05363
-4.04671
-4.04013
-4.03387
-4.02792
-4.02226
-4.01689
-4.01179
-4.00697
-4.00241
-3.99814
-3.99414
-3.99042
-3.987
-3.98387
-3.98105
-3.97853
-3.97632
-3.97441
-3.97281
-3.9715
-3.97048
-3.96974
-3.96928
-3.96908
-3.96908
-4.26739
-4.25706
-4.24688
-4.23685
-4.22703
-4.21745
-4.20813
-4.1991
-4.19037
-4.18195
-4.17386
-4.16609
-4.15864
-4.1515
-4.14467
-4.13814
-4.13189
-4.12592
-4.12023
-4.1148
-4.10963
-4.10472
-4.10007
-4.0957
-4.09159
-4.08776
-4.08421
-4.08095
-4.07798
-4.07531
-4.07293
-4.07085
-4.06907
-4.06756
-4.06635
-4.0654
-4.06472
-4.06431
-4.06416
-4.06418
-4.34796
-4.33868
-4.32952
-4.32049
-4.31162
-4.30296
-4.29451
-4.28629
-4.27832
-4.2706
-4.26315
-4.25596
-4.24903
-4.24237
-4.23595
-4.22979
-4.22388
-4.21821
-4.21279
-4.20761
-4.20268
-4.198
-4.19357
-4.18941
-4.1855
-4.18187
-4.17852
-4.17545
-4.17266
-4.17015
-4.16793
-4.16599
-4.16432
-4.16292
-4.16179
-4.16092
-4.16031
-4.15995
-4.15982
-4.15987
-4.42962
-4.42132
-4.4131
-4.40499
-4.39701
-4.38918
-4.38152
-4.37404
-4.36676
-4.35969
-4.35282
-4.34617
-4.33973
-4.33351
-4.32751
-4.32172
-4.31616
-4.31081
-4.30569
-4.30079
-4.29613
-4.29171
-4.28754
-4.28361
-4.27994
-4.27654
-4.2734
-4.27053
-4.26793
-4.2656
-4.26353
-4.26173
-4.26019
-4.2589
-4.25786
-4.25706
-4.2565
-4.25618
-4.25609
-4.25617
-4.51236
-4.50495
-4.4976
-4.49032
-4.48313
-4.47606
-4.46913
-4.46233
-4.45568
-4.4492
-4.44288
-4.43674
-4.43078
-4.425
-4.4194
-4.414
-4.4088
-4.4038
-4.399
-4.39442
-4.39006
-4.38593
-4.38203
-4.37838
-4.37497
-4.3718
-4.36889
-4.36624
-4.36383
-4.36168
-4.35977
-4.35811
-4.35669
-4.3555
-4.35455
-4.35382
-4.35331
-4.35304
-4.35298
-4.35307
-4.59615
-4.58954
-4.58297
-4.57644
-4.56998
-4.56361
-4.55733
-4.55116
-4.5451
-4.53918
-4.53339
-4.52774
-4.52224
-4.51691
-4.51173
-4.50673
-4.50191
-4.49727
-4.49283
-4.48859
-4.48455
-4.48073
-4.47713
-4.47376
-4.47062
-4.46771
-4.46503
-4.46259
-4.46038
-4.45841
-4.45666
-4.45514
-4.45384
-4.45275
-4.45188
-4.45121
-4.45076
-4.45052
-4.45049
-4.4506
-4.68096
-4.67507
-4.66921
-4.66337
-4.65757
-4.65183
-4.64616
-4.64058
-4.63508
-4.62969
-4.62441
-4.61926
-4.61423
-4.60934
-4.6046
-4.60001
-4.59559
-4.59133
-4.58726
-4.58337
-4.57968
-4.57618
-4.57289
-4.56981
-4.56694
-4.56429
-4.56185
-4.55962
-4.55761
-4.55581
-4.55422
-4.55283
-4.55164
-4.55065
-4.54986
-4.54926
-4.54885
-4.54865
-4.54864
-4.54876
-4.76679
-4.76156
-4.75633
-4.75111
-4.74593
-4.74078
-4.73569
-4.73067
-4.72571
-4.72084
-4.71607
-4.7114
-4.70684
-4.7024
-4.6981
-4.69394
-4.68992
-4.68607
-4.68237
-4.67885
-4.6755
-4.67234
-4.66936
-4.66657
-4.66398
-4.66157
-4.65937
-4.65735
-4.65553
-4.6539
-4.65246
-4.6512
-4.65012
-4.64923
-4.64851
-4.64797
-4.64761
-4.64744
-4.64744
-4.64757
-4.85364
-4.849
-4.84437
-4.83973
-4.83512
-4.83054
-4.826
-4.82151
-4.81708
-4.81272
-4.80844
-4.80426
-4.80017
-4.79619
-4.79233
-4.7886
-4.78499
-4.78153
-4.77822
-4.77506
-4.77207
-4.76923
-4.76656
-4.76407
-4.76174
-4.75959
-4.75761
-4.7558
-4.75416
-4.75269
-4.7514
-4.75026
-4.74929
-4.74848
-4.74784
-4.74736
-4.74704
-4.7469
-4.74692
-4.74706
-4.94152
-4.93743
-4.93335
-4.92927
-4.9252
-4.92116
-4.91715
-4.91318
-4.90927
-4.90541
-4.90162
-4.89792
-4.8943
-4.89077
-4.88735
-4.88405
-4.88086
-4.87779
-4.87486
-4.87206
-4.86941
-4.8669
-4.86453
-4.86232
-4.86025
-4.85834
-4.85658
-4.85497
-4.85351
-4.85221
-4.85105
-4.85003
-4.84917
-4.84845
-4.84787
-4.84745
-4.84717
-4.84706
-4.84709
-4.84723
-5.03042
-5.02686
-5.02331
-5.01976
-5.01622
-5.0127
-5.00921
-5.00575
-5.00234
-4.99898
-4.99567
-4.99244
-4.98928
-4.98621
-4.98322
-4.98033
-4.97755
-4.97487
-4.97231
-4.96987
-4.96755
-4.96535
-4.96328
-4.96134
-4.95953
-4.95786
-4.95631
-4.95489
-4.95361
-4.95245
-4.95143
-4.95053
-4.94977
-4.94913
-4.94863
-4.94825
-4.94802
-4.94793
-4.94798
-4.94812
-5.12034
-5.11731
-5.11428
-5.11124
-5.10822
-5.10521
-5.10222
-5.09926
-5.09634
-5.09346
-5.09063
-5.08786
-5.08515
-5.08252
-5.07996
-5.07748
-5.07509
-5.07279
-5.07059
-5.06849
-5.0665
-5.06461
-5.06283
-5.06115
-5.05959
-5.05814
-5.0568
-5.05557
-5.05446
-5.05345
-5.05256
-5.05178
-5.05111
-5.05056
-5.05012
-5.0498
-5.0496
-5.04954
-5.0496
-5.04974
-5.21129
-5.20877
-5.20625
-5.20372
-5.2012
-5.19869
-5.1962
-5.19373
-5.19129
-5.18888
-5.18652
-5.1842
-5.18193
-5.17973
-5.17758
-5.1755
-5.1735
-5.17157
-5.16972
-5.16795
-5.16627
-5.16468
-5.16318
-5.16177
-5.16045
-5.15922
-5.15808
-5.15704
-5.15609
-5.15523
-5.15447
-5.1538
-5.15323
-5.15276
-5.15238
-5.15211
-5.15195
-5.1519
-5.15197
-5.15212
-5.30325
-5.30124
-5.29922
-5.2972
-5.29518
-5.29316
-5.29116
-5.28917
-5.2872
-5.28526
-5.28334
-5.28147
-5.27963
-5.27784
-5.2761
-5.27441
-5.27278
-5.27121
-5.2697
-5.26826
-5.26689
-5.26559
-5.26435
-5.2632
-5.26211
-5.2611
-5.26016
-5.2593
-5.25851
-5.2578
-5.25717
-5.25661
-5.25613
-5.25574
-5.25543
-5.2552
-5.25507
-5.25505
-5.25513
-5.25527
-5.3962
-5.39471
-5.3932
-5.39168
-5.39015
-5.38862
-5.38709
-5.38557
-5.38406
-5.38257
-5.3811
-5.37965
-5.37824
-5.37685
-5.37551
-5.3742
-5.37293
-5.37171
-5.37054
-5.36942
-5.36835
-5.36733
-5.36636
-5.36545
-5.3646
-5.3638
-5.36306
-5.36238
-5.36175
-5.36119
-5.36068
-5.36024
-5.35985
-5.35953
-5.35928
-5.3591
-5.359
-5.359
-5.35908
-5.35922
-5.49016
-5.48917
-5.48817
-5.48714
-5.48609
-5.48504
-5.48399
-5.48293
-5.48187
-5.48083
-5.47979
-5.47877
-5.47776
-5.47678
-5.47582
-5.47489
-5.47398
-5.4731
-5.47226
-5.47145
-5.47067
-5.46994
-5.46924
-5.46857
-5.46795
-5.46736
-5.46682
-5.46631
-5.46585
-5.46543
-5.46505
-5.46471
-5.46442
-5.46417
-5.46397
-5.46383
-5.46375
-5.46376
-5.46385
-5.46399
-5.58516
-5.58471
-5.58423
-5.58371
-5.58316
-5.5826
-5.58201
-5.58142
-5.58082
-5.58022
-5.57961
-5.57901
-5.57841
-5.57782
-5.57724
-5.57667
-5.57611
-5.57557
-5.57505
-5.57454
-5.57405
-5.57359
-5.57314
-5.57272
-5.57231
-5.57193
-5.57158
-5.57124
-5.57093
-5.57064
-5.57038
-5.57014
-5.56992
-5.56973
-5.56958
-5.56945
-5.56937
-5.56935
-5.56943
-5.56955
-5.68118
-5.68128
-5.68132
-5.68132
-5.68127
-5.68119
-5.68109
-5.68095
-5.6808
-5.68063
-5.68045
-5.68026
-5.68006
-5.67985
-5.67964
-5.67942
-5.6792
-5.67899
-5.67878
-5.67856
-5.67836
-5.67816
-5.67796
-5.67777
-5.67759
-5.67741
-5.67724
-5.67708
-5.67693
-5.67678
-5.67664
-5.67651
-5.67639
-5.67627
-5.67616
-5.67606
-5.67597
-5.67591
-5.67593
-5.676
)
;

boundaryField
{
    leftWall
    {
        type            calculated;
        value           nonuniform List<scalar> 0();
    }
    rightWall
    {
        type            calculated;
        value           nonuniform List<scalar> 
43
(
-1.78981
-1.86816
-1.94742
-2.02758
-2.10859
-2.19044
-2.27311
-2.35655
-2.44076
-2.52569
-2.61133
-2.69765
-2.78463
-2.87224
-2.96048
-3.04931
-3.13874
-3.22874
-3.31931
-3.41044
-3.50214
-3.59439
-3.68721
-3.7806
-3.87455
-3.96908
-4.06418
-4.15987
-4.25617
-4.35307
-4.4506
-4.54876
-4.64757
-4.74706
-4.84723
-4.94812
-5.04974
-5.15212
-5.25527
-5.35922
-5.46399
-5.56955
-5.676
)
;
    }
    lowerWall
    {
        type            calculated;
        value           nonuniform List<scalar> 0();
    }
    atmosphere
    {
        type            calculated;
        value           nonuniform List<scalar> 
45
(
-5.72904
-5.72904
-5.72904
-5.72904
-5.72904
-5.72904
-5.72904
-5.72904
-5.72904
-5.72904
-5.72904
-5.72904
-5.72904
-5.72904
-5.72904
-5.72904
-5.72904
-5.72904
-5.72904
-5.72904
-5.72904
-5.72904
-5.72904
-5.72904
-5.72904
-5.72904
-5.72904
-5.72904
-5.72904
-5.72904
-5.72904
-5.72904
-5.72904
-5.72904
-5.72904
-5.72904
-5.72904
-5.72904
-5.72904
-5.72904
-5.72904
-5.72904
-5.72904
-5.72904
-5.72904
)
;
    }
    defaultFaces
    {
        type            empty;
    }
    procBoundary3to1
    {
        type            processor;
        value           nonuniform List<scalar> 
45
(
-2.99547
-2.82685
-2.64761
-2.45967
-2.27379
-2.09401
-1.93763
-1.81603
-1.72714
-1.66748
-1.63247
-1.61642
-1.61318
-1.61751
-1.6257
-1.63534
-1.64506
-1.65417
-1.66241
-1.66977
-1.67632
-1.68215
-1.68736
-1.69199
-1.6961
-1.69973
-1.70292
-1.70575
-1.70827
-1.71055
-1.7126
-1.71443
-1.716
-1.71728
-1.71823
-1.71882
-1.71908
-1.71901
-1.71866
-1.71808
-1.7173
-1.71632
-1.71512
-1.71372
-1.71241
)
;
    }
    procBoundary3to2
    {
        type            processor;
        value           nonuniform List<scalar> 
43
(
-3.1181
-3.10451
-3.10353
-3.11235
-3.12895
-3.15191
-3.18011
-3.21269
-3.24899
-3.28862
-3.33136
-3.37709
-3.42565
-3.4769
-3.5307
-3.58695
-3.6456
-3.70657
-3.76969
-3.83474
-3.90144
-3.96954
-4.0388
-4.10909
-4.18036
-4.25264
-4.32606
-4.40075
-4.47683
-4.55439
-4.6335
-4.71412
-4.79622
-4.8797
-4.96447
-5.05041
-5.13744
-5.22548
-5.31445
-5.40435
-5.49517
-5.58666
-5.67877
)
;
    }
}


// ************************************************************************* //
