/*--------------------------------*- C++ -*----------------------------------*\
  =========                 |
  \\      /  F ield         | OpenFOAM: The Open Source CFD Toolbox
   \\    /   O peration     | Website:  https://openfoam.org
    \\  /    A nd           | Version:  9
     \\/     M anipulation  |
\*---------------------------------------------------------------------------*/
FoamFile
{
    format      ascii;
    class       volVectorField;
    location    "0.25";
    object      U;
}
// * * * * * * * * * * * * * * * * * * * * * * * * * * * * * * * * * * * * * //

dimensions      [0 1 -1 0 0 0 0];

internalField   nonuniform List<vector> 
1935
(
(-0.322296 0.611456 0)
(-0.29786 0.582749 0)
(-0.280363 0.553048 0)
(-0.268319 0.523247 0)
(-0.260319 0.493884 0)
(-0.25515 0.465244 0)
(-0.251821 0.437487 0)
(-0.249548 0.410692 0)
(-0.247733 0.384891 0)
(-0.245944 0.36009 0)
(-0.243886 0.33629 0)
(-0.241373 0.313488 0)
(-0.238299 0.291686 0)
(-0.234617 0.270886 0)
(-0.230317 0.251087 0)
(-0.225415 0.232289 0)
(-0.219945 0.21449 0)
(-0.213953 0.197689 0)
(-0.207488 0.18188 0)
(-0.200603 0.167053 0)
(-0.193351 0.153194 0)
(-0.185785 0.14028 0)
(-0.177953 0.128285 0)
(-0.169905 0.117179 0)
(-0.161683 0.106927 0)
(-0.153327 0.0974945 0)
(-0.144872 0.0888421 0)
(-0.136348 0.0809309 0)
(-0.127779 0.0737216 0)
(-0.119188 0.067175 0)
(-0.110595 0.0612529 0)
(-0.10202 0.0559193 0)
(-0.0934852 0.0511415 0)
(-0.0850171 0.0468911 0)
(-0.0766493 0.0431455 0)
(-0.0684268 0.0398901 0)
(-0.0604107 0.0371214 0)
(-0.0526848 0.0348513 0)
(-0.0453659 0.0331122 0)
(-0.0386195 0.0319559 0)
(-0.0326842 0.0314405 0)
(-0.0279051 0.0316882 0)
(-0.0248904 0.0331009 0)
(-0.293641 0.633285 0)
(-0.259309 0.653934 0)
(-0.217272 0.672132 0)
(-0.167739 0.685138 0)
(-0.268653 0.599031 0)
(-0.235868 0.61338 0)
(-0.198127 0.625077 0)
(-0.155788 0.632562 0)
(-0.251554 0.565395 0)
(-0.220598 0.57555 0)
(-0.186464 0.583131 0)
(-0.149517 0.587253 0)
(-0.240383 0.532859 0)
(-0.211286 0.540249 0)
(-0.180171 0.545247 0)
(-0.147361 0.547348 0)
(-0.233489 0.501627 0)
(-0.206164 0.507222 0)
(-0.177587 0.510632 0)
(-0.148029 0.511573 0)
(-0.22952 0.471735 0)
(-0.203844 0.476197 0)
(-0.177423 0.478675 0)
(-0.150478 0.479018 0)
(-0.227412 0.443164 0)
(-0.203252 0.446947 0)
(-0.178683 0.448929 0)
(-0.153885 0.449044 0)
(-0.22634 0.41587 0)
(-0.203572 0.419285 0)
(-0.180617 0.421067 0)
(-0.157625 0.421194 0)
(-0.22569 0.389794 0)
(-0.204206 0.393057 0)
(-0.182684 0.394833 0)
(-0.161253 0.395126 0)
(-0.225026 0.364877 0)
(-0.204738 0.368136 0)
(-0.184512 0.370033 0)
(-0.164462 0.370588 0)
(-0.224057 0.34107 0)
(-0.204894 0.344423 0)
(-0.185862 0.346524 0)
(-0.167059 0.347405 0)
(-0.2226 0.318337 0)
(-0.204509 0.321851 0)
(-0.186592 0.324212 0)
(-0.168932 0.325457 0)
(-0.220555 0.296656 0)
(-0.203492 0.300375 0)
(-0.186626 0.303029 0)
(-0.17003 0.304661 0)
(-0.217878 0.276011 0)
(-0.201804 0.279961 0)
(-0.185938 0.282928 0)
(-0.170345 0.284953 0)
(-0.214561 0.256387 0)
(-0.199443 0.260582 0)
(-0.184536 0.263866 0)
(-0.169896 0.266278 0)
(-0.21062 0.237773 0)
(-0.196432 0.242215 0)
(-0.182448 0.24581 0)
(-0.168721 0.248594 0)
(-0.20609 0.220157 0)
(-0.192805 0.224839 0)
(-0.179714 0.228731 0)
(-0.166864 0.231868 0)
(-0.201014 0.203528 0)
(-0.188607 0.208436 0)
(-0.17638 0.212607 0)
(-0.164374 0.216073 0)
(-0.19544 0.187878 0)
(-0.183886 0.192993 0)
(-0.172493 0.19742 0)
(-0.161298 0.201188 0)
(-0.189419 0.173192 0)
(-0.178689 0.178493 0)
(-0.168099 0.183151 0)
(-0.157685 0.187193 0)
(-0.183002 0.159453 0)
(-0.173064 0.164916 0)
(-0.163247 0.169779 0)
(-0.153579 0.174064 0)
(-0.176236 0.146637 0)
(-0.167059 0.152237 0)
(-0.157981 0.157277 0)
(-0.149029 0.161775 0)
(-0.169171 0.134718 0)
(-0.16072 0.140429 0)
(-0.152348 0.145617 0)
(-0.14408 0.150297 0)
(-0.161853 0.123665 0)
(-0.154092 0.129461 0)
(-0.146392 0.13477 0)
(-0.138775 0.139602 0)
(-0.154324 0.113443 0)
(-0.147217 0.119301 0)
(-0.140155 0.124705 0)
(-0.133157 0.129662 0)
(-0.146622 0.104019 0)
(-0.140134 0.109917 0)
(-0.133675 0.115392 0)
(-0.127265 0.120449 0)
(-0.138783 0.0953565 0)
(-0.132877 0.101276 0)
(-0.126987 0.106802 0)
(-0.121133 0.111937 0)
(-0.130835 0.0874197 0)
(-0.125477 0.0933441 0)
(-0.120123 0.0989027 0)
(-0.114795 0.104096 0)
(-0.122806 0.0801722 0)
(-0.117961 0.0860886 0)
(-0.113112 0.0916648 0)
(-0.108279 0.0969009 0)
(-0.114719 0.0735781 0)
(-0.110355 0.0794763 0)
(-0.10598 0.085058 0)
(-0.101615 0.0903226 0)
(-0.106595 0.0676028 0)
(-0.102682 0.0734754 0)
(-0.0987541 0.0790532 0)
(-0.0948301 0.0843351 0)
(-0.0984579 0.0622136 0)
(-0.0949683 0.068056 0)
(-0.091461 0.0736234 0)
(-0.0879536 0.0789139 0)
(-0.0903326 0.0573808 0)
(-0.0872415 0.0631911 0)
(-0.0841317 0.0687439 0)
(-0.0810189 0.0740366 0)
(-0.0822496 0.0530789 0)
(-0.0795356 0.0588575 0)
(-0.0768035 0.0643937 0)
(-0.0740662 0.0696842 0)
(-0.0742481 0.0492878 0)
(-0.0718942 0.0550369 0)
(-0.0695237 0.0605561 0)
(-0.0671462 0.065841 0)
(-0.0663799 0.0459944 0)
(-0.0643747 0.0517175 0)
(-0.0623539 0.0572197 0)
(-0.0603242 0.062496 0)
(-0.0587146 0.0431956 0)
(-0.0570531 0.0488954 0)
(-0.0553757 0.0543794 0)
(-0.0536853 0.0596423 0)
(-0.0513463 0.0409008 0)
(-0.050031 0.0465764 0)
(-0.0486954 0.0520368 0)
(-0.0473393 0.0572775 0)
(-0.0444022 0.0391341 0)
(-0.0434424 0.0447762 0)
(-0.0424503 0.0501994 0)
(-0.0414242 0.0554015 0)
(-0.0380564 0.0379316 0)
(-0.0374631 0.043516 0)
(-0.0368147 0.0488751 0)
(-0.03611 0.0540112 0)
(-0.032545 0.0373249 0)
(-0.0323208 0.0428065 0)
(-0.032004 0.0480586 0)
(-0.0315988 0.0530899 0)
(-0.028186 0.0373666 0)
(-0.0283049 0.0426531 0)
(-0.0282807 0.0477234 0)
(-0.0281292 0.0525882 0)
(-0.0254958 0.0382767 0)
(-0.0258579 0.0431456 0)
(-0.0260325 0.0478602 0)
(-0.0260499 0.052422 0)
(-0.109667 0.69025 0)
(-0.0459137 0.682207 0)
(0.0146338 0.661184 0)
(0.0683902 0.62973 0)
(0.11349 0.590885 0)
(0.14914 0.547541 0)
(0.175423 0.502363 0)
(0.193154 0.457604 0)
(0.20361 0.414902 0)
(0.208199 0.375266 0)
(0.20825 0.339205 0)
(0.204909 0.306883 0)
(0.199123 0.278231 0)
(0.19165 0.253046 0)
(0.183079 0.231049 0)
(0.173862 0.211929 0)
(0.164337 0.195372 0)
(0.15475 0.181074 0)
(0.145273 0.168759 0)
(0.13602 0.158179 0)
(0.127064 0.14912 0)
(0.118443 0.141396 0)
(0.110175 0.134851 0)
(0.102258 0.129353 0)
(0.0946794 0.124791 0)
(0.0874203 0.121074 0)
(0.0804549 0.118126 0)
(0.0737543 0.115887 0)
(0.0672877 0.114306 0)
(0.0610229 0.113346 0)
(0.0549277 0.112977 0)
(0.0489698 0.11318 0)
(0.0431172 0.113943 0)
(0.0373391 0.115259 0)
(0.0316054 0.117126 0)
(0.025886 0.119538 0)
(0.0201537 0.122475 0)
(0.0144246 0.125873 0)
(0.00874875 0.129472 0)
(0.00346432 0.130766 0)
(-0.107645 0.63425 0)
(-0.0552553 0.626586 0)
(-0.00494554 0.609498 0)
(0.0407101 0.584363 0)
(0.0801185 0.553135 0)
(0.112456 0.517866 0)
(0.137567 0.480529 0)
(0.155846 0.442849 0)
(0.168057 0.406175 0)
(0.175136 0.371443 0)
(0.178042 0.339227 0)
(0.177663 0.309817 0)
(0.17478 0.283299 0)
(0.170051 0.259615 0)
(0.164013 0.238618 0)
(0.157095 0.220109 0)
(0.149629 0.203868 0)
(0.141868 0.189671 0)
(0.133999 0.177303 0)
(0.126156 0.166565 0)
(0.118429 0.15728 0)
(0.11088 0.14929 0)
(0.103543 0.142462 0)
(0.0964361 0.136678 0)
(0.0895643 0.131838 0)
(0.0829217 0.12786 0)
(0.076496 0.124672 0)
(0.0702699 0.122216 0)
(0.0642226 0.120444 0)
(0.0583311 0.119321 0)
(0.0525711 0.118816 0)
(0.0469172 0.118912 0)
(0.0413437 0.119596 0)
(0.0358252 0.120861 0)
(0.0303364 0.122702 0)
(0.0248519 0.125114 0)
(0.0193486 0.128072 0)
(0.0138454 0.131506 0)
(0.00839356 0.135137 0)
(0.00332017 0.136319 0)
(-0.108512 0.586906 0)
(-0.0643291 0.579609 0)
(-0.021692 0.565293 0)
(0.0175943 0.544747 0)
(0.0522596 0.519233 0)
(0.0815588 0.490199 0)
(0.105228 0.459094 0)
(0.123414 0.427237 0)
(0.136561 0.395718 0)
(0.145282 0.365361 0)
(0.150262 0.336728 0)
(0.152173 0.310166 0)
(0.151643 0.285843 0)
(0.149221 0.263799 0)
(0.145378 0.243984 0)
(0.140502 0.226289 0)
(0.134905 0.210572 0)
(0.128834 0.196677 0)
(0.122477 0.184444 0)
(0.115978 0.173722 0)
(0.10944 0.164368 0)
(0.10294 0.156255 0)
(0.0965264 0.149267 0)
(0.0902329 0.143304 0)
(0.0840772 0.13828 0)
(0.0780665 0.134119 0)
(0.0721998 0.130757 0)
(0.0664701 0.12814 0)
(0.0608659 0.126226 0)
(0.0553725 0.124979 0)
(0.0499729 0.124373 0)
(0.0446485 0.124389 0)
(0.0393795 0.125016 0)
(0.0341459 0.126248 0)
(0.0289273 0.128078 0)
(0.0237028 0.130498 0)
(0.0184539 0.133483 0)
(0.013202 0.136953 0)
(0.00799889 0.140611 0)
(0.00316141 0.141678 0)
(-0.111629 0.545879 0)
(-0.0735003 0.539043 0)
(-0.0366477 0.526837 0)
(-0.00234088 0.509754 0)
(0.0284466 0.488626 0)
(0.0550795 0.464475 0)
(0.0772684 0.438368 0)
(0.0950257 0.411312 0)
(0.108596 0.38418 0)
(0.118379 0.357672 0)
(0.124853 0.332309 0)
(0.128523 0.308441 0)
(0.129881 0.286282 0)
(0.129377 0.265931 0)
(0.127409 0.247405 0)
(0.124319 0.230664 0)
(0.120389 0.215626 0)
(0.115852 0.202193 0)
(0.110891 0.190254 0)
(0.105651 0.179696 0)
(0.100244 0.170411 0)
(0.0947528 0.162297 0)
(0.0892394 0.155262 0)
(0.0837468 0.14922 0)
(0.0783041 0.144097 0)
(0.072929 0.139828 0)
(0.0676302 0.136357 0)
(0.0624098 0.133636 0)
(0.0572646 0.131625 0)
(0.0521873 0.130295 0)
(0.0471676 0.12962 0)
(0.0421932 0.129584 0)
(0.0372499 0.130177 0)
(0.0323227 0.131391 0)
(0.0273961 0.133222 0)
(0.0224538 0.135659 0)
(0.0174818 0.138675 0)
(0.0125039 0.142183 0)
(0.00757201 0.145865 0)
(0.00299027 0.146813 0)
(-0.1163 0.509581 0)
(-0.082731 0.503314 0)
(-0.0502917 0.492831 0)
(-0.0198923 0.478465 0)
(0.00774492 0.460787 0)
(0.0320954 0.440523 0)
(0.0528841 0.418466 0)
(0.0700567 0.395389 0)
(0.0837375 0.371988 0)
(0.0941805 0.348847 0)
(0.10172 0.326426 0)
(0.10673 0.305062 0)
(0.109588 0.284982 0)
(0.110659 0.266318 0)
(0.110272 0.249132 0)
(0.108721 0.233432 0)
(0.106257 0.219186 0)
(0.103091 0.206337 0)
(0.0993992 0.194817 0)
(0.0953215 0.184546 0)
(0.0909713 0.175447 0)
(0.0864369 0.167442 0)
(0.0817864 0.160457 0)
(0.0770709 0.154424 0)
(0.0723274 0.149281 0)
(0.0675819 0.144975 0)
(0.0628512 0.141455 0)
(0.058145 0.138682 0)
(0.0534672 0.136622 0)
(0.0488173 0.135246 0)
(0.0441911 0.134535 0)
(0.0395817 0.134474 0)
(0.0349804 0.135053 0)
(0.0303769 0.136267 0)
(0.0257604 0.13811 0)
(0.021119 0.140572 0)
(0.0164429 0.143622 0)
(0.0117583 0.147167 0)
(0.00711648 0.150869 0)
(0.00280714 0.151699 0)
(-0.121866 0.4769 0)
(-0.0918141 0.47129 0)
(-0.0628037 0.462284 0)
(-0.0354943 0.450127 0)
(-0.0104243 0.43523 0)
(0.0119924 0.41812 0)
(0.0315078 0.399392 0)
(0.0480386 0.379641 0)
(0.0616379 0.359424 0)
(0.0724639 0.339223 0)
(0.0807479 0.319436 0)
(0.0867632 0.300373 0)
(0.0908003 0.282256 0)
(0.0931472 0.265236 0)
(0.094076 0.2494 0)
(0.0938343 0.234789 0)
(0.0926413 0.221407 0)
(0.0906871 0.209232 0)
(0.0881328 0.198227 0)
(0.0851129 0.188344 0)
(0.0817382 0.179528 0)
(0.0780982 0.171723 0)
(0.0742642 0.164874 0)
(0.0702921 0.158928 0)
(0.0662248 0.153837 0)
(0.0620944 0.149555 0)
(0.0579242 0.146044 0)
(0.0537299 0.143268 0)
(0.0495217 0.1412 0)
(0.0453045 0.139816 0)
(0.0410798 0.139099 0)
(0.0368456 0.139037 0)
(0.032598 0.139623 0)
(0.0283313 0.140853 0)
(0.0240389 0.142721 0)
(0.0197131 0.145215 0)
(0.0153483 0.148302 0)
(0.0109724 0.151883 0)
(0.00663611 0.155604 0)
(0.00261349 0.156313 0)
(-0.127767 0.447057 0)
(-0.1005 0.442157 0)
(-0.0742093 0.43446 0)
(-0.0493809 0.424157 0)
(-0.0264175 0.411557 0)
(-0.00564264 0.397057 0)
(0.0127321 0.381105 0)
(0.0286127 0.364165 0)
(0.042011 0.346681 0)
(0.0530228 0.329052 0)
(0.0618066 0.311618 0)
(0.0685619 0.294656 0)
(0.0735098 0.278375 0)
(0.0768777 0.262931 0)
(0.0788869 0.248425 0)
(0.0797451 0.234921 0)
(0.0796413 0.222446 0)
(0.0787434 0.211006 0)
(0.0771976 0.200589 0)
(0.0751293 0.191168 0)
(0.0726441 0.182712 0)
(0.0698301 0.175184 0)
(0.0667593 0.168544 0)
(0.06349 0.162753 0)
(0.0600687 0.157775 0)
(0.0565321 0.153575 0)
(0.0529079 0.150121 0)
(0.0492171 0.147387 0)
(0.0454745 0.14535 0)
(0.0416901 0.143991 0)
(0.0378698 0.143297 0)
(0.0340162 0.143259 0)
(0.0301297 0.143872 0)
(0.0262086 0.145132 0)
(0.0222505 0.147035 0)
(0.0182514 0.149568 0)
(0.0142096 0.152695 0)
(0.0101543 0.156313 0)
(0.0061358 0.160048 0)
(0.00241175 0.160633 0)
(-0.133564 0.419497 0)
(-0.10856 0.415334 0)
(-0.0844791 0.408821 0)
(-0.0616812 0.400115 0)
(-0.0404704 0.389458 0)
(-0.0211017 0.377155 0)
(-0.00375035 0.363553 0)
(0.0114918 0.349014 0)
(0.0246118 0.333895 0)
(0.0356653 0.318526 0)
(0.0447604 0.303194 0)
(0.0520424 0.288143 0)
(0.0576796 0.273568 0)
(0.0618509 0.259618 0)
(0.0647356 0.246404 0)
(0.0665067 0.234 0)
(0.0673254 0.222452 0)
(0.0673386 0.211784 0)
(0.066677 0.202004 0)
(0.0654554 0.193103 0)
(0.0637727 0.185068 0)
(0.0617133 0.177877 0)
(0.059348 0.171505 0)
(0.0567358 0.165926 0)
(0.0539251 0.161114 0)
(0.0509551 0.157043 0)
(0.0478573 0.153692 0)
(0.0446561 0.151039 0)
(0.0413703 0.149068 0)
(0.0380137 0.147765 0)
(0.0345962 0.147121 0)
(0.0311244 0.147129 0)
(0.0276021 0.147786 0)
(0.0240317 0.14909 0)
(0.0204141 0.151038 0)
(0.0167492 0.153616 0)
(0.0130386 0.156786 0)
(0.00931277 0.160439 0)
(0.005621 0.164183 0)
(0.00220445 0.164644 0)
(-0.138932 0.393818 0)
(-0.11582 0.390399 0)
(-0.093578 0.384973 0)
(-0.0724793 0.377674 0)
(-0.0527552 0.368694 0)
(-0.0346078 0.358275 0)
(-0.0181831 0.346689 0)
(-0.0035641 0.334224 0)
(0.0092247 0.321168 0)
(0.0202121 0.307791 0)
(0.0294714 0.29434 0)
(0.037109 0.281026 0)
(0.0432532 0.268027 0)
(0.0480446 0.255485 0)
(0.0516283 0.24351 0)
(0.0541475 0.232184 0)
(0.0557388 0.221564 0)
(0.0565294 0.211687 0)
(0.056635 0.202574 0)
(0.0561591 0.194233 0)
(0.0551929 0.186663 0)
(0.053816 0.179856 0)
(0.0520965 0.173799 0)
(0.0500925 0.168478 0)
(0.047853 0.163876 0)
(0.0454187 0.159978 0)
(0.0428231 0.156767 0)
(0.0400933 0.154231 0)
(0.0372509 0.152357 0)
(0.0343131 0.151137 0)
(0.0312928 0.150566 0)
(0.0281997 0.150639 0)
(0.0250412 0.151356 0)
(0.0218228 0.152717 0)
(0.0185485 0.154718 0)
(0.0152217 0.157346 0)
(0.0118471 0.160561 0)
(0.00845612 0.164247 0)
(0.00509697 0.167996 0)
(0.00199377 0.16833 0)
(-0.143652 0.369734 0)
(-0.122162 0.367054 0)
(-0.10149 0.362636 0)
(-0.081847 0.356595 0)
(-0.0634123 0.349088 0)
(-0.0463469 0.340308 0)
(-0.0307717 0.330474 0)
(-0.016761 0.319818 0)
(-0.00434284 0.308573 0)
(0.00649622 0.296964 0)
(0.0158049 0.285199 0)
(0.0236611 0.273464 0)
(0.030163 0.261918 0)
(0.0354213 0.250694 0)
(0.0395532 0.239899 0)
(0.042677 0.229617 0)
(0.0449076 0.219911 0)
(0.0463543 0.210828 0)
(0.0471185 0.202398 0)
(0.0472928 0.194641 0)
(0.0469603 0.187567 0)
(0.0461948 0.181178 0)
(0.0450608 0.175473 0)
(0.0436148 0.170447 0)
(0.0419048 0.166092 0)
(0.0399722 0.1624 0)
(0.0378514 0.159362 0)
(0.0355712 0.156972 0)
(0.0331556 0.155222 0)
(0.0306236 0.154109 0)
(0.0279911 0.153631 0)
(0.0252704 0.153786 0)
(0.0224716 0.154578 0)
(0.019603 0.156005 0)
(0.0166716 0.158067 0)
(0.0136835 0.160749 0)
(0.0106464 0.164009 0)
(0.00759227 0.167726 0)
(0.00456818 0.171476 0)
(0.00178072 0.171681 0)
(-0.14759 0.347043 0)
(-0.127525 0.345091 0)
(-0.108226 0.341612 0)
(-0.0898602 0.336708 0)
(-0.0725689 0.33051 0)
(-0.0564815 0.323174 0)
(-0.0416975 0.314878 0)
(-0.0282813 0.305812 0)
(-0.0162619 0.296167 0)
(-0.0056349 0.286133 0)
(0.00363313 0.275886 0)
(0.0115986 0.265587 0)
(0.0183365 0.255379 0)
(0.0239344 0.245384 0)
(0.0284868 0.235704 0)
(0.0320909 0.226424 0)
(0.0348432 0.217609 0)
(0.036837 0.209311 0)
(0.0381607 0.201568 0)
(0.0388962 0.194407 0)
(0.0391186 0.187847 0)
(0.0388957 0.181901 0)
(0.038288 0.176575 0)
(0.0373492 0.171871 0)
(0.036126 0.167792 0)
(0.0346591 0.164334 0)
(0.0329834 0.161496 0)
(0.0311285 0.159276 0)
(0.0291197 0.157673 0)
(0.026978 0.156687 0)
(0.0247208 0.156319 0)
(0.022363 0.156572 0)
(0.0199168 0.157449 0)
(0.0173928 0.158952 0)
(0.0148006 0.16108 0)
(0.0121487 0.163819 0)
(0.00944721 0.167124 0)
(0.00672853 0.170869 0)
(0.00403818 0.174615 0)
(0.00156475 0.174688 0)
(-0.150678 0.325606 0)
(-0.131891 0.324361 0)
(-0.113821 0.321759 0)
(-0.0966019 0.31789 0)
(-0.080346 0.312864 0)
(-0.065158 0.306811 0)
(-0.0511201 0.299877 0)
(-0.0382869 0.292219 0)
(-0.0266859 0.283998 0)
(-0.0163182 0.275373 0)
(-0.0071619 0.266494 0)
(0.000825395 0.257502 0)
(0.0077007 0.248525 0)
(0.0135326 0.239673 0)
(0.0183974 0.231044 0)
(0.0223748 0.222718 0)
(0.0255456 0.214763 0)
(0.0279894 0.207232 0)
(0.0297825 0.200168 0)
(0.0309973 0.193606 0)
(0.031701 0.187571 0)
(0.0319553 0.182082 0)
(0.0318166 0.177152 0)
(0.031335 0.172792 0)
(0.0305554 0.169009 0)
(0.0295174 0.165807 0)
(0.0282555 0.16319 0)
(0.0267996 0.161161 0)
(0.0251756 0.159724 0)
(0.0234057 0.158881 0)
(0.021509 0.158637 0)
(0.0195018 0.158999 0)
(0.0173983 0.159971 0)
(0.0152111 0.161557 0)
(0.0129516 0.163756 0)
(0.0106305 0.166554 0)
(0.00826001 0.169903 0)
(0.00587234 0.173674 0)
(0.00351122 0.177409 0)
(0.00134652 0.177342 0)
(-0.152897 0.305322 0)
(-0.135279 0.304756 0)
(-0.11833 0.302971 0)
(-0.10216 0.300047 0)
(-0.0868581 0.296077 0)
(-0.0725089 0.29117 0)
(-0.0591806 0.285451 0)
(-0.0469194 0.27905 0)
(-0.0357503 0.272101 0)
(-0.0256776 0.264742 0)
(-0.0166871 0.2571 0)
(-0.00874803 0.249301 0)
(-0.00181629 0.241455 0)
(0.00416209 0.233664 0)
(0.00924799 0.226019 0)
(0.0135069 0.218597 0)
(0.0170064 0.211464 0)
(0.019814 0.204676 0)
(0.0219957 0.198279 0)
(0.023615 0.19231 0)
(0.0247318 0.186801 0)
(0.025402 0.181776 0)
(0.0256772 0.177254 0)
(0.0256043 0.173251 0)
(0.0252258 0.169779 0)
(0.0245795 0.166849 0)
(0.0236992 0.164469 0)
(0.0226145 0.162647 0)
(0.0213517 0.161388 0)
(0.0199336 0.160702 0)
(0.0183802 0.160594 0)
(0.0167092 0.161074 0)
(0.0149362 0.162148 0)
(0.0130753 0.163822 0)
(0.0111397 0.166096 0)
(0.00914164 0.168953 0)
(0.00709511 0.172347 0)
(0.00503173 0.17614 0)
(0.00299329 0.179859 0)
(0.00113026 0.17964 0)
(-0.15426 0.286115 0)
(-0.137729 0.286194 0)
(-0.12182 0.285168 0)
(-0.106624 0.283107 0)
(-0.0922113 0.280092 0)
(-0.0786522 0.276217 0)
(-0.0660029 0.271587 0)
(-0.0543026 0.266312 0)
(-0.0435737 0.260508 0)
(-0.0338227 0.254289 0)
(-0.0250406 0.247769 0)
(-0.0172052 0.241056 0)
(-0.0102829 0.23425 0)
(-0.00423141 0.227443 0)
(0.000998618 0.220717 0)
(0.00546058 0.214147 0)
(0.0092107 0.207797 0)
(0.0123063 0.201723 0)
(0.0148044 0.195972 0)
(0.0167605 0.190586 0)
(0.0182277 0.185598 0)
(0.0192565 0.181037 0)
(0.0198939 0.176927 0)
(0.0201831 0.173289 0)
(0.0201641 0.170139 0)
(0.0198727 0.167491 0)
(0.0193415 0.165359 0)
(0.0185997 0.163754 0)
(0.0176731 0.162685 0)
(0.0165852 0.162165 0)
(0.0153564 0.162201 0)
(0.0140052 0.162806 0)
(0.0125485 0.163988 0)
(0.0110015 0.165753 0)
(0.00937878 0.168103 0)
(0.00769397 0.17102 0)
(0.00596231 0.174457 0)
(0.00421465 0.178269 0)
(0.00249071 0.181966 0)
(0.000921611 0.181584 0)
(-0.154803 0.267923 0)
(-0.139294 0.26861 0)
(-0.124361 0.268287 0)
(-0.110077 0.267016 0)
(-0.0965017 0.264868 0)
(-0.083692 0.261925 0)
(-0.071695 0.258275 0)
(-0.0605445 0.254015 0)
(-0.0502606 0.249241 0)
(-0.040851 0.244055 0)
(-0.0323106 0.238554 0)
(-0.0246237 0.232832 0)
(-0.0177648 0.22698 0)
(-0.0117007 0.221082 0)
(-0.00639192 0.215213 0)
(-0.00179439 0.209443 0)
(0.00213883 0.203834 0)
(0.00545615 0.198442 0)
(0.00820654 0.193314 0)
(0.0104385 0.188493 0)
(0.0121992 0.184016 0)
(0.0135336 0.179915 0)
(0.0144845 0.176217 0)
(0.0150915 0.172946 0)
(0.0153918 0.170123 0)
(0.0154192 0.167764 0)
(0.0152049 0.165887 0)
(0.0147771 0.164506 0)
(0.0141614 0.163635 0)
(0.0133809 0.163286 0)
(0.0124566 0.163473 0)
(0.0114075 0.164207 0)
(0.0102513 0.1655 0)
(0.00900404 0.167358 0)
(0.00768132 0.169784 0)
(0.00629798 0.172761 0)
(0.00487025 0.176237 0)
(0.00342789 0.180066 0)
(0.0020084 0.183735 0)
(0.000724227 0.183182 0)
(-0.154572 0.250698 0)
(-0.140031 0.251954 0)
(-0.126019 0.25228 0)
(-0.112598 0.251732 0)
(-0.0998154 0.250373 0)
(-0.0877202 0.248274 0)
(-0.0763521 0.24551 0)
(-0.0657404 0.242165 0)
(-0.0559036 0.238323 0)
(-0.0468499 0.234072 0)
(-0.0385775 0.229496 0)
(-0.0310753 0.22468 0)
(-0.0243242 0.219703 0)
(-0.018298 0.214643 0)
(-0.0129651 0.20957 0)
(-0.00828932 0.204549 0)
(-0.00423167 0.199639 0)
(-0.000750815 0.194895 0)
(0.00219531 0.190364 0)
(0.00464876 0.18609 0)
(0.00665108 0.182111 0)
(0.0082425 0.178461 0)
(0.00946151 0.175169 0)
(0.0103445 0.172264 0)
(0.0109258 0.169767 0)
(0.0112371 0.167699 0)
(0.0113079 0.166081 0)
(0.0111654 0.164928 0)
(0.0108346 0.164258 0)
(0.0103383 0.164085 0)
(0.00969747 0.164425 0)
(0.00893155 0.16529 0)
(0.00805851 0.166695 0)
(0.00709529 0.168647 0)
(0.00605812 0.171148 0)
(0.00496274 0.174183 0)
(0.00382614 0.177696 0)
(0.00267672 0.181536 0)
(0.00154946 0.185173 0)
(0.000539146 0.184445 0)
(-0.153618 0.234404 0)
(-0.139998 0.236187 0)
(-0.12686 0.237111 0)
(-0.114257 0.237225 0)
(-0.10223 0.236583 0)
(-0.0908188 0.235249 0)
(-0.0800586 0.233287 0)
(-0.0699753 0.230769 0)
(-0.0605858 0.22777 0)
(-0.0518989 0.224365 0)
(-0.0439149 0.220631 0)
(-0.0366266 0.21664 0)
(-0.0300195 0.212467 0)
(-0.0240732 0.208181 0)
(-0.0187623 0.203845 0)
(-0.0140571 0.199523 0)
(-0.00992504 0.19527 0)
(-0.00633127 0.191139 0)
(-0.00323966 0.187177 0)
(-0.000613453 0.183427 0)
(0.00158376 0.179929 0)
(0.00338767 0.176718 0)
(0.0048329 0.173825 0)
(0.00595266 0.171279 0)
(0.00677845 0.169106 0)
(0.00733996 0.167329 0)
(0.00766502 0.165968 0)
(0.00777957 0.165045 0)
(0.00770773 0.164576 0)
(0.00747193 0.16458 0)
(0.00709298 0.165073 0)
(0.0065903 0.166071 0)
(0.00598216 0.167587 0)
(0.00528594 0.169632 0)
(0.00451839 0.172206 0)
(0.00369585 0.175295 0)
(0.00283583 0.178842 0)
(0.00196512 0.182689 0)
(0.0011158 0.18629 0)
(0.000366231 0.185387 0)
(-0.151991 0.219011 0)
(-0.13925 0.221282 0)
(-0.126945 0.222753 0)
(-0.115122 0.223469 0)
(-0.103816 0.22348 0)
(-0.0930622 0.222837 0)
(-0.0828912 0.2216 0)
(-0.073326 0.219831 0)
(-0.0643826 0.217594 0)
(-0.0560701 0.214957 0)
(-0.0483905 0.211986 0)
(-0.0413393 0.20875 0)
(-0.0349058 0.205313 0)
(-0.0290741 0.201738 0)
(-0.0238238 0.198087 0)
(-0.0191307 0.194415 0)
(-0.0149675 0.190778 0)
(-0.0113047 0.187225 0)
(-0.00811143 0.183803 0)
(-0.00535591 0.180554 0)
(-0.00300616 0.177518 0)
(-0.00103042 0.17473 0)
(0.000602366 0.172224 0)
(0.00192228 0.17003 0)
(0.00295826 0.168174 0)
(0.00373788 0.166682 0)
(0.00428731 0.165577 0)
(0.00463119 0.164881 0)
(0.00479271 0.164613 0)
(0.00479367 0.164792 0)
(0.00465452 0.165438 0)
(0.00439457 0.166566 0)
(0.00403215 0.168192 0)
(0.00358487 0.170326 0)
(0.00306977 0.172971 0)
(0.0025036 0.17611 0)
(0.00190408 0.179686 0)
(0.00129617 0.183537 0)
(0.00070852 0.187097 0)
(0.000204993 0.186021 0)
(-0.149744 0.204496 0)
(-0.137841 0.207211 0)
(-0.126331 0.20918 0)
(-0.115254 0.210444 0)
(-0.104639 0.211044 0)
(-0.0945189 0.211027 0)
(-0.0849196 0.210444 0)
(-0.0758626 0.20935 0)
(-0.0673631 0.207803 0)
(-0.05943 0.205862 0)
(-0.0520668 0.203586 0)
(-0.0452709 0.201038 0)
(-0.0390348 0.198274 0)
(-0.0333462 0.195355 0)
(-0.0281889 0.192336 0)
(-0.0235429 0.18927 0)
(-0.0193856 0.186208 0)
(-0.0156921 0.183198 0)
(-0.0124359 0.180286 0)
(-0.00958963 0.177513 0)
(-0.00712522 0.174918 0)
(-0.00501458 0.172537 0)
(-0.00322987 0.170405 0)
(-0.00174382 0.168551 0)
(-0.000529922 0.167004 0)
(0.000437377 0.165791 0)
(0.00118253 0.164936 0)
(0.00172886 0.164462 0)
(0.00209855 0.16439 0)
(0.00231265 0.164742 0)
(0.00239111 0.165537 0)
(0.00235298 0.166793 0)
(0.00221649 0.168525 0)
(0.00199925 0.170746 0)
(0.00171846 0.173457 0)
(0.00139105 0.176642 0)
(0.00103474 0.180243 0)
(0.00067237 0.184092 0)
(0.000328047 0.18761 0)
(5.45776e-05 0.186363 0)
(-0.146924 0.190833 0)
(-0.135824 0.19395 0)
(-0.125075 0.19637 0)
(-0.114712 0.198127 0)
(-0.104761 0.199258 0)
(-0.0952521 0.199805 0)
(-0.0862084 0.199812 0)
(-0.0776497 0.199328 0)
(-0.0695902 0.198404 0)
(-0.0620392 0.197093 0)
(-0.0550009 0.19545 0)
(-0.0484745 0.193528 0)
(-0.0424549 0.191382 0)
(-0.0369328 0.189066 0)
(-0.0318952 0.18663 0)
(-0.027326 0.184126 0)
(-0.0232064 0.181601 0)
(-0.0195154 0.1791 0)
(-0.0162305 0.176668 0)
(-0.0133278 0.174344 0)
(-0.0107828 0.172169 0)
(-0.00857077 0.170176 0)
(-0.0066667 0.168401 0)
(-0.00504593 0.166875 0)
(-0.00368427 0.165626 0)
(-0.0025581 0.164683 0)
(-0.00164459 0.16407 0)
(-0.00092174 0.163813 0)
(-0.00036844 0.163933 0)
(3.55096e-05 0.164452 0)
(0.000309474 0.165392 0)
(0.000472077 0.166771 0)
(0.000541309 0.168606 0)
(0.000534643 0.170908 0)
(0.000469273 0.173681 0)
(0.000362194 0.176907 0)
(0.00023093 0.180528 0)
(9.60977e-05 0.184372 0)
(-2.63711e-05 0.187846 0)
(-8.7815e-05 0.186429 0)
(-0.14358 0.177998 0)
(-0.133248 0.181476 0)
(-0.123228 0.184299 0)
(-0.11355 0.186499 0)
(-0.104239 0.188107 0)
(-0.0953205 0.18916 0)
(-0.0868168 0.189697 0)
(-0.078746 0.189763 0)
(-0.0711218 0.189402 0)
(-0.0639533 0.188662 0)
(-0.0572456 0.187593 0)
(-0.0509993 0.186243 0)
(-0.0452113 0.184662 0)
(-0.0398747 0.182899 0)
(-0.0349793 0.181002 0)
(-0.0305121 0.179018 0)
(-0.0264574 0.176992 0)
(-0.0227978 0.174967 0)
(-0.019514 0.172985 0)
(-0.0165853 0.171086 0)
(-0.0139904 0.169306 0)
(-0.0117073 0.167682 0)
(-0.00971366 0.166248 0)
(-0.00798722 0.165035 0)
(-0.00650586 0.164072 0)
(-0.00524784 0.163387 0)
(-0.0041919 0.163008 0)
(-0.00331738 0.162959 0)
(-0.0026043 0.163263 0)
(-0.00203333 0.163945 0)
(-0.00158578 0.165023 0)
(-0.00124354 0.16652 0)
(-0.000988996 0.168452 0)
(-0.00080498 0.170831 0)
(-0.000674358 0.17366 0)
(-0.000580182 0.176922 0)
(-0.000505413 0.180558 0)
(-0.00043171 0.184395 0)
(-0.00035203 0.187835 0)
(-0.000220439 0.186219 0)
(-0.139758 0.165965 0)
(-0.130163 0.169762 0)
(-0.120841 0.172944 0)
(-0.111821 0.175538 0)
(-0.103126 0.177572 0)
(-0.0947784 0.179079 0)
(-0.0867993 0.180093 0)
(-0.0792057 0.180653 0)
(-0.0720107 0.180801 0)
(-0.0652235 0.180578 0)
(-0.0588498 0.18003 0)
(-0.0528915 0.179201 0)
(-0.0473469 0.178137 0)
(-0.0422111 0.176882 0)
(-0.0374764 0.175481 0)
(-0.0331324 0.173978 0)
(-0.0291662 0.172415 0)
(-0.025563 0.170832 0)
(-0.0223065 0.169271 0)
(-0.0193789 0.167769 0)
(-0.0167614 0.166363 0)
(-0.0144346 0.165087 0)
(-0.0123785 0.163975 0)
(-0.0105731 0.163059 0)
(-0.00899815 0.162368 0)
(-0.00763365 0.161931 0)
(-0.00645986 0.161775 0)
(-0.00545744 0.161925 0)
(-0.00460754 0.162406 0)
(-0.00389174 0.163241 0)
(-0.00329211 0.164453 0)
(-0.00279116 0.166061 0)
(-0.00237173 0.168084 0)
(-0.00201698 0.170533 0)
(-0.00171012 0.173412 0)
(-0.00143442 0.176705 0)
(-0.00117307 0.180351 0)
(-0.000909929 0.184179 0)
(-0.000644102 0.187592 0)
(-0.000338527 0.185757 0)
(-0.135506 0.154709 0)
(-0.126615 0.158784 0)
(-0.117963 0.162283 0)
(-0.109575 0.165227 0)
(-0.101472 0.167641 0)
(-0.0936759 0.169552 0)
(-0.086206 0.170993 0)
(-0.0790783 0.171998 0)
(-0.0723056 0.172604 0)
(-0.0658971 0.172849 0)
(-0.0598589 0.172774 0)
(-0.0541939 0.172419 0)
(-0.0489018 0.171827 0)
(-0.0439794 0.171037 0)
(-0.0394209 0.170092 0)
(-0.0352179 0.169032 0)
(-0.0313602 0.167897 0)
(-0.0278352 0.166725 0)
(-0.024629 0.165556 0)
(-0.0217263 0.164425 0)
(-0.0191106 0.163368 0)
(-0.0167648 0.16242 0)
(-0.014671 0.161612 0)
(-0.0128111 0.160977 0)
(-0.0111667 0.160543 0)
(-0.00971942 0.160341 0)
(-0.00845096 0.160396 0)
(-0.00734329 0.160736 0)
(-0.00637864 0.161384 0)
(-0.00553954 0.162365 0)
(-0.00480889 0.163702 0)
(-0.00416985 0.165415 0)
(-0.00360582 0.167522 0)
(-0.00310038 0.170035 0)
(-0.00263714 0.172959 0)
(-0.00219961 0.176276 0)
(-0.0017713 0.179927 0)
(-0.00133788 0.183741 0)
(-0.000900426 0.187123 0)
(-0.00043719 0.18508 0)
(-0.130866 0.144204 0)
(-0.122648 0.148521 0)
(-0.114637 0.152297 0)
(-0.106856 0.155549 0)
(-0.099323 0.158298 0)
(-0.0920594 0.16057 0)
(-0.0850833 0.162393 0)
(-0.07841 0.163797 0)
(-0.0720518 0.164815 0)
(-0.0660182 0.165482 0)
(-0.0603155 0.165835 0)
(-0.0549474 0.165911 0)
(-0.0499147 0.165748 0)
(-0.0452156 0.165384 0)
(-0.0408459 0.164856 0)
(-0.0367992 0.164203 0)
(-0.0330671 0.163463 0)
(-0.029639 0.162672 0)
(-0.0265032 0.161866 0)
(-0.0236464 0.161081 0)
(-0.0210543 0.16035 0)
(-0.0187116 0.159707 0)
(-0.0166025 0.159185 0)
(-0.0147105 0.158813 0)
(-0.013019 0.158623 0)
(-0.011511 0.158641 0)
(-0.0101696 0.158896 0)
(-0.00897815 0.159414 0)
(-0.00791985 0.16022 0)
(-0.00697824 0.161339 0)
(-0.00613701 0.162793 0)
(-0.00538007 0.164603 0)
(-0.00469142 0.166787 0)
(-0.00405513 0.169358 0)
(-0.00345521 0.17232 0)
(-0.00287548 0.175655 0)
(-0.00229979 0.179305 0)
(-0.00171538 0.183099 0)
(-0.00112332 0.186446 0)
(-0.000519119 0.184212 0)
(-0.12588 0.134425 0)
(-0.118305 0.13895 0)
(-0.110907 0.142965 0)
(-0.103707 0.146487 0)
(-0.0967221 0.149532 0)
(-0.0899721 0.152124 0)
(-0.0834744 0.154287 0)
(-0.0772437 0.156047 0)
(-0.0712918 0.157435 0)
(-0.0656283 0.158483 0)
(-0.0602598 0.159223 0)
(-0.0551906 0.159689 0)
(-0.0504223 0.159916 0)
(-0.0459544 0.159939 0)
(-0.0417841 0.159793 0)
(-0.0379063 0.159514 0)
(-0.0343143 0.159136 0)
(-0.0309993 0.158696 0)
(-0.0279514 0.158226 0)
(-0.0251591 0.157761 0)
(-0.0226098 0.157333 0)
(-0.0202901 0.156975 0)
(-0.0181858 0.156719 0)
(-0.0162822 0.156594 0)
(-0.0145639 0.15663 0)
(-0.0130157 0.156856 0)
(-0.0116219 0.157298 0)
(-0.0103669 0.157984 0)
(-0.00923506 0.158938 0)
(-0.00821083 0.160184 0)
(-0.00727879 0.161747 0)
(-0.00642356 0.163646 0)
(-0.0056298 0.1659 0)
(-0.0048821 0.168522 0)
(-0.00416493 0.171515 0)
(-0.00346244 0.174862 0)
(-0.00275886 0.178505 0)
(-0.00204289 0.182274 0)
(-0.00131517 0.18558 0)
(-0.000588036 0.183176 0)
(-0.120587 0.125348 0)
(-0.113626 0.130048 0)
(-0.106812 0.13427 0)
(-0.100168 0.138026 0)
(-0.0937094 0.141331 0)
(-0.0874546 0.144205 0)
(-0.0814201 0.146669 0)
(-0.0756199 0.148747 0)
(-0.0700658 0.150466 0)
(-0.0647669 0.151855 0)
(-0.0597303 0.152943 0)
(-0.0549606 0.153761 0)
(-0.0504604 0.154341 0)
(-0.0462298 0.154716 0)
(-0.0422671 0.154918 0)
(-0.0385687 0.154981 0)
(-0.035129 0.154936 0)
(-0.031941 0.154817 0)
(-0.0289961 0.154657 0)
(-0.0262844 0.154487 0)
(-0.0237951 0.15434 0)
(-0.0215161 0.154247 0)
(-0.0194349 0.154238 0)
(-0.0175382 0.154343 0)
(-0.0158122 0.15459 0)
(-0.0142427 0.155009 0)
(-0.0128155 0.155626 0)
(-0.011516 0.156467 0)
(-0.0103296 0.157558 0)
(-0.00924174 0.158923 0)
(-0.00823784 0.160585 0)
(-0.00730325 0.162566 0)
(-0.00642329 0.164883 0)
(-0.00558313 0.167548 0)
(-0.00476769 0.170566 0)
(-0.00396153 0.173919 0)
(-0.00314933 0.177549 0)
(-0.00232116 0.181287 0)