/*--------------------------------*- C++ -*----------------------------------*\
  =========                 |
  \\      /  F ield         | OpenFOAM: The Open Source CFD Toolbox
   \\    /   O peration     | Website:  https://openfoam.org
    \\  /    A nd           | Version:  9
     \\/     M anipulation  |
\*---------------------------------------------------------------------------*/
FoamFile
{
    format      ascii;
    class       surfaceScalarField;
    location    "0.8";
    object      alphaPhi0.water;
}
// * * * * * * * * * * * * * * * * * * * * * * * * * * * * * * * * * * * * * //

dimensions      [0 3 -1 0 0 0 0];

internalField   nonuniform List<scalar> 
4432
(
9.25303e-12
-4.42757e-12
1.5868e-11
-1.79706e-12
3.88906e-12
-1.15793e-12
2.74398e-15
-4.84064e-15
8.11722e-17
-4.50943e-17
1.32214e-17
-1.48665e-18
1.81343e-18
-8.25396e-20
1.02273e-19
-4.18015e-21
5.69019e-21
-2.08167e-22
4.00762e-22
-1.11997e-23
3.35374e-23
-6.67941e-25
3.27353e-24
-4.3771e-26
3.70339e-25
-4.01166e-27
4.79315e-26
-6.86793e-28
6.9261e-27
5.91576e-29
1.07255e-27
6.49799e-29
1.64722e-28
3.19351e-29
3.71564e-29
8.52427e-30
2.94609e-29
1.205e-30
3.43244e-29
6.11514e-30
2.6163e-29
1.4729e-29
9.82316e-30
1.74163e-29
7.82363e-30
2.75876e-12
5.68901e-18
2.17882e-12
5.80525e-19
5.58166e-14
2.73752e-20
0
-8.29909e-16
4.38653e-18
-6.93915e-18
6.68791e-19
-3.48593e-19
3.12433e-20
-1.13427e-20
1.22179e-21
-4.01065e-22
5.91626e-23
-1.58357e-23
3.39045e-24
-7.06564e-25
2.19845e-25
-4.85193e-26
1.49027e-26
1.43034e-27
2.98375e-27
2.41686e-27
1.24133e-27
1.05563e-27
-4.46608e-28
3.56756e-28
-5.60029e-28
1.04422e-28
-3.54564e-28
2.60302e-29
-1.8151e-28
4.583e-30
-8.04679e-29
-2.12338e-30
-2.39451e-29
-5.94131e-30
1.44689e-29
2.5769e-30
1.35807e-29
2.09532e-29
1.98976e-29
-2.0542e-18
2.01317e-17
-5.16402e-19
2.89824e-18
-6.36463e-20
1.54274e-19
2.17195e-17
4.46949e-21
1.64721e-17
-2.70839e-20
1.07531e-19
-2.45354e-21
1.24849e-21
-1.2433e-22
4.11377e-23
-5.14947e-24
1.58256e-24
1.36489e-25
1.6454e-25
9.04277e-26
8.24568e-26
3.35641e-26
-4.20343e-27
9.52046e-27
-7.28194e-27
2.33171e-27
-3.33698e-27
5.25647e-28
-1.22202e-27
1.09337e-28
-4.09521e-28
1.00573e-29
-1.30904e-28
-4.32648e-30
-4.06274e-29
-1.95919e-30
-1.28186e-29
-3.47459e-31
-4.59442e-30
-1.60493e-30
-1.48299e-31
-1.43029e-31
1.07058e-29
1.31931e-29
2.9119e-29
-3.87938e-18
5.16358e-17
-1.48764e-18
1.36141e-17
-1.98859e-19
9.82824e-19
-1.27452e-20
1.77173e-19
1.39481e-20
1.88262e-20
2.86435e-22
1.78746e-21
1.62047e-23
1.459e-22
6.20887e-25
1.04344e-23
-2.57766e-25
8.41777e-25
-1.59983e-25
1.14741e-25
-5.78752e-26
2.15193e-26
-1.64683e-26
3.82956e-27
-4.14268e-27
6.18358e-28
-9.82976e-28
8.74912e-29
-2.22467e-28
-1.49213e-29
-2.35301e-29
-9.34039e-29
8.2836e-30
-3.61407e-29
6.16228e-30
-4.85045e-30
2.02056e-30
4.78477e-31
3.49791e-31
1.60748e-30
5.38797e-31
8.71914e-31
5.65512e-30
8.10396e-30
3.34945e-29
-5.68592e-18
1.12389e-16
-4.21537e-18
4.2246e-17
-7.47226e-19
3.15739e-18
-2.76642e-19
2.41974e-19
-4.01956e-20
1.25911e-20
-3.5116e-21
5.76088e-22
-2.33915e-22
2.38092e-23
-1.40278e-23
1.24617e-24
-1.00549e-24
1.98911e-25
-1.28352e-25
4.42253e-26
-2.34793e-26
7.202e-27
-4.20227e-27
8.40384e-28
-6.99811e-28
7.47862e-29
-1.04767e-28
-3.62455e-29
3.20913e-29
-1.5178e-28
1.10985e-28
-1.71588e-28
2.54989e-28
-4.04652e-28
1.59755e-28
-2.07681e-28
2.67204e-29
4.40852e-30
1.87594e-30
1.05158e-29
7.52579e-31
1.98077e-30
2.46018e-30
6.99797e-30
3.54169e-29
-6.89149e-18
2.24944e-16
-7.68629e-18
6.45003e-17
-1.40317e-18
2.91323e-18
-2.13363e-19
1.41764e-19
-1.53613e-20
3.74878e-21
-6.78482e-22
5.17727e-23
-2.35032e-23
9.48198e-25
-1.03885e-24
3.37143e-25
-1.47491e-25
1.04139e-25
-3.07689e-26
1.86028e-26
-4.90972e-27
1.89578e-27
-5.80212e-28
9.51659e-29
-5.37079e-29
-4.66433e-29
6.4103e-29
-1.54056e-28
4.49639e-28
-8.99427e-28
2.29955e-27
-4.5996e-27
3.86847e-27
-9.02516e-27
2.14108e-27
-4.0591e-27
2.33892e-28
5.4507e-29
1.01876e-29
9.42848e-29
2.19762e-30
8.49865e-30
1.32536e-30
6.99324e-30
3.62439e-29
-6.39047e-18
4.05539e-16
-6.06186e-18
9.17341e-17
-6.83689e-19
2.07276e-18
-6.54178e-20
7.198e-20
-2.41597e-21
8.32807e-22
-3.29758e-23
-1.6612e-23
-5.10186e-25
3.47049e-25
-1.52867e-25
2.17953e-25
-4.20256e-26
5.26955e-26
-7.10275e-27
7.02351e-27
-7.20054e-28
4.01928e-28
-3.731e-29
-5.08577e-29
5.06951e-29
-1.34648e-28
4.54989e-28
-1.13126e-27
4.3335e-27
-1.02063e-26
1.95282e-26
-4.59684e-26
2.98216e-26
-7.07868e-26
1.07078e-26
-2.07291e-26
9.25396e-28
2.88595e-28
2.18646e-29
4.14646e-28
3.09814e-30
2.44662e-29
7.91176e-31
8.45753e-30
3.71624e-29
-1.08218e-18
6.00972e-16
-2.62648e-18
1.36463e-16
-1.67842e-19
1.21725e-18
-1.17656e-20
2.82815e-20
-1.87376e-22
1.37072e-22
3.54601e-24
-4.83754e-24
-5.89049e-26
2.85802e-25
-2.98771e-26
1.06357e-25
-6.47972e-27
2.30082e-26
-8.65397e-28
2.80918e-27
-5.35688e-29
-4.11283e-29
2.81271e-29
-1.32554e-28
1.72746e-28
-3.81678e-28
2.5357e-27
-5.67933e-27
2.37869e-26
-4.94708e-26
1.07056e-25
-2.03682e-25
1.67109e-25
-2.38224e-25
5.25142e-26
0
3.70737e-27
6.32511e-28
2.34586e-29
1.13057e-27
1.38437e-30
4.26975e-29
3.83015e-31
8.83422e-30
3.77931e-29
1.49142e-23
-1.49819e-22
-1.37659e-22
1.76682e-23
-1.94989e-20
5.89584e-21
-8.76222e-19
1.77946e-19
-1.39496e-17
2.12555e-18
-1.19566e-16
1.41475e-17
-7.00565e-16
6.28385e-17
-3.67708e-15
1.93463e-16
-2.00218e-14
-1.04029e-15
-5.37026e-14
-3.88657e-14
-1.08173e-13
0
-1.29189e-13
-2.13678e-13
8.67576e-14
-7.21498e-13
5.76426e-13
-1.35863e-12
9.56581e-13
-9.13291e-13
8.30164e-13
-5.69899e-14
9.12605e-13
8.63816e-13
7.12315e-13
1.52603e-12
1.67099e-12
-8.87577e-23
-3.59542e-22
-5.21305e-20
4.43134e-20
-2.65937e-18
1.71419e-18
-4.79981e-17
2.25502e-17
-4.40999e-16
1.53327e-16
-2.44865e-15
6.15175e-16
-7.58196e-15
1.48823e-15
-8.80287e-15
1.63525e-15
-5.40171e-14
-1.52236e-14
-2.0729e-12
-3.14985e-13
-2.00769e-12
-6.64312e-12
-1.57275e-12
0
7.91856e-13
0
4.05362e-12
0
6.4942e-12
0
7.13176e-12
0
5.2608e-12
2.48184e-11
5.1744e-13
1.13718e-11
6.63248e-12
-9.0098e-21
2.64443e-21
-7.03153e-19
6.40962e-19
-2.08319e-17
1.4557e-17
-2.96628e-16
1.47405e-16
-2.12442e-15
7.865e-16
-7.1933e-15
2.19021e-15
-1.37234e-14
3.33336e-15
-2.01174e-14
1.69108e-15
-4.09903e-14
-2.77575e-14
-1.26266e-13
-4.81799e-13
-3.09323e-11
-6.92176e-12
-1.34393e-11
-1.14484e-10
7.79163e-12
-6.63296e-11
3.76888e-11
-2.44078e-11
6.88399e-11
0
8e-11
0
7.15282e-11
3.05934e-10
2.64466e-12
1.35512e-10
7.13175e-11
-9.18049e-20
6.70594e-20
-3.46931e-18
3.35307e-18
-8.22557e-17
5.94314e-17
-9.2333e-16
4.96841e-16
-4.58227e-15
2.01132e-15
-1.15527e-14
4.17893e-15
-1.94048e-14
5.64072e-15
-2.1075e-14
5.79088e-16
-3.2487e-14
-7.85391e-15
-3.71811e-13
-1.11911e-13
-4.36626e-12
-2.91585e-12
-1.0757e-10
-7.50492e-11
7.54588e-11
-4.35412e-10
2.64063e-10
-1.14155e-10
4.4338e-10
-1.86805e-10
3.5209e-10
0
4.71829e-10
1.34902e-09
2.74006e-11
6.59812e-10
7.87218e-10
-5.86316e-19
4.86797e-19
-1.16065e-17
1.15869e-17
-2.28892e-16
1.74418e-16
-1.92094e-15
1.17852e-15
-7.19051e-15
3.72275e-15
-1.3757e-14
7.19815e-15
-2.21238e-14
1.6127e-14
-5.40088e-14
-8.29373e-16
-2.87003e-13
-2.56032e-14
-1.97239e-12
-3.21578e-13
-4.85246e-12
-1.04377e-11
-2.50945e-11
-9.22598e-11
1.37502e-10
-1.5679e-10
1.83576e-09
-7.8892e-10
2.69617e-09
-3.05003e-09
1.00536e-09
0
1.13198e-09
3.54688e-09
1.23496e-09
8.53774e-09
7.46215e-09
-2.26195e-18
2.1506e-18
-3.18205e-17
3.25357e-17
-5.20944e-16
4.20168e-16
-3.22943e-15
2.26928e-15
-7.67954e-15
6.2478e-15
-1.82428e-14
1.9123e-14
-9.91828e-14
7.30236e-14
-2.92175e-13
-1.36441e-14
-1.47256e-12
-3.1763e-13
-1.03448e-11
-1.58597e-12
-6.16659e-11
-2.11613e-11
-9.59137e-11
-3.49491e-10
-3.25509e-11
-1.43752e-09
5.03393e-09
-9.79646e-09
1.8885e-08
-7.80938e-08
2.21047e-08
-1.59299e-08
8.18588e-10
2.71706e-08
1.04479e-09
1.71633e-08
5.88151e-08
-7.05553e-18
7.57663e-18
-8.10183e-17
8.17478e-17
-1.01989e-15
8.57149e-16
-3.39468e-15
3.82231e-15
-9.44466e-15
1.42298e-14
-8.12474e-14
7.76704e-14
-4.10279e-13
2.87755e-13
-1.17506e-12
-1.79163e-13
-4.79485e-12
-3.25695e-12
-3.68057e-11
-1.07886e-11
-2.42914e-10
-7.50168e-11
-5.37869e-10
-2.97259e-09
-1.95309e-11
-1.53882e-08
0
-6.45761e-08
2.68902e-08
-1.69209e-07
4.85096e-08
-6.5179e-08
3.47884e-08
2.73412e-07
4.14041e-10
5.90951e-08
4.37849e-08
-1.96378e-17
2.35852e-17
-1.64647e-16
1.82408e-16
-1.10321e-15
1.57052e-15
-4.97455e-15
7.94152e-15
-4.5849e-14
4.92589e-14
-3.0443e-13
2.85119e-13
-1.38778e-12
8.98759e-13
-4.54429e-12
-5.0364e-13
-2.25482e-11
-1.06888e-11
-9.01426e-11
-1.00452e-10
-4.39843e-10
-2.37693e-09
-3.18071e-09
-2.70668e-08
-1.92011e-09
-5.12977e-08
0
-1.03215e-07
0
-1.68222e-07
2.21835e-09
-1.23623e-07
-4.52838e-08
1.0944e-06
3.85116e-08
3.97674e-06
6.9533e-06
1.07268e-17
8.24808e-16
2.49506e-19
1.66727e-16
1.07763e-20
7.28006e-19
7.91277e-23
1.10647e-20
-3.23025e-24
1.85439e-23
1.85147e-25
-5.56002e-26
6.27813e-26
8.62904e-26
1.21984e-26
2.34471e-26
1.33384e-27
3.44381e-27
-1.74599e-29
3.4793e-29
-3.42513e-29
-7.14405e-29
-6.92463e-28
-2.12181e-27
-1.00377e-26
-3.52285e-26
-1.11747e-25
-4.17426e-25
-8.7755e-25
-3.40179e-24
-2.5396e-24
-1.50137e-23
-1.94857e-24
-2.44206e-23
-3.14755e-27
-1.0704e-23
-5.79246e-28
1.98265e-28
-2.45371e-29
2.93401e-27
-5.36617e-31
1.16513e-27
3.10936e-31
6.65799e-30
5.81541e-24
8.62368e-25
3.16811e-17
9.00969e-16
4.22076e-19
1.57498e-16
1.44145e-20
3.82978e-19
4.11465e-23
3.1366e-21
-5.84155e-26
-1.32133e-23
2.07307e-25
5.4277e-27
4.78077e-26
1.52698e-26
5.99127e-27
3.80908e-27
5.30146e-29
2.14928e-28
-2.43614e-27
-1.58271e-27
-4.3691e-27
-3.01785e-27
-8.14194e-26
-6.175e-26
-1.07865e-24
-8.66748e-25
-1.15115e-23
-9.06671e-24
-9.11713e-23
-6.66638e-23
-3.96328e-22
-3.07859e-22
-6.61535e-22
-7.75423e-22
-5.13605e-22
-9.24662e-22
-6.88337e-22
6.7492e-23
-1.56753e-21
1.34304e-21
-7.25713e-21
9.39384e-21
-1.07128e-19
1.22878e-19
1.8476e-18
-2.01521e-18
5.53038e-17
8.13451e-16
4.69938e-19
1.10781e-16
1.08609e-20
1.25636e-19
-1.02422e-22
-1.67899e-22
5.09513e-26
1.09118e-23
1.08207e-25
-4.58278e-27
1.93097e-26
-3.25501e-27
8.33683e-28
1.82923e-28
-5.03575e-27
-5.22703e-28
-9.16687e-27
-1.8487e-27
-1.84109e-25
-4.73769e-26
-2.59185e-24
-7.74808e-25
-2.96276e-23
-9.52255e-24
-2.69024e-22
-8.77248e-23
-1.82519e-21
-5.86323e-22
-8.57963e-21
-2.65422e-21
-2.77659e-20
-7.16762e-21
-7.11165e-20
-5.67514e-21
-1.66349e-19
2.77447e-20
-4.37904e-19
1.88933e-19
-1.59678e-18
1.0083e-18
-7.93304e-18
5.68957e-18
2.94532e-17
-4.06585e-17
7.79636e-17
5.70398e-16
4.75098e-19
3.65678e-17
6.74451e-21
-9.54181e-20
-4.02897e-22
-2.16848e-21
2.33091e-26
1.25899e-22
4.69833e-26
-6.01859e-27
5.82411e-27
-8.86284e-27
-6.19876e-27
-6.85374e-28
-1.08755e-26
4.15744e-28
-2.21294e-25
-7.6545e-28
-3.13621e-24
-1.52586e-25
-3.66512e-23
-2.84327e-24
-3.55116e-22
-3.25012e-23
-2.81705e-21
-2.57578e-22
-1.77554e-20
-1.38147e-21
-8.62108e-20
-4.11371e-21
-3.22878e-19
2.37049e-21
-9.69416e-19
8.90598e-20
-2.60276e-18
5.62496e-19
-7.13271e-18
2.57365e-18
-2.187e-17
1.07388e-17
-7.35299e-17
4.32028e-17
1.56764e-16
-2.42198e-16
9.70072e-17
1.9656e-16
4.63664e-19
-5.62329e-17
3.67493e-21
-2.91618e-19
-4.95739e-22
-2.07725e-21
-5.68281e-25
2.32909e-22
1.70599e-26
1.09337e-25
-4.77785e-27
-5.32521e-27
-8.68044e-27
2.01282e-27
-1.66922e-25
2.14543e-26
-2.34834e-24
2.18635e-25
-2.68124e-23
1.63177e-24
-2.59416e-22
9.97339e-24
-2.12386e-21
5.56217e-23
-1.45847e-20
3.58597e-22
-8.26192e-20
2.85913e-21
-3.801e-19
2.22651e-20
-1.42486e-18
1.43481e-19
-4.5219e-18
7.46402e-19
-1.29578e-17
3.26605e-18
-3.62129e-17
1.27541e-17
-1.04205e-16
4.68993e-17
-3.06075e-16
1.64005e-16
5.18855e-16
-8.58225e-16
1.1148e-16
-2.72602e-16
4.43774e-19
-1.61507e-16
1.6453e-21
-4.42494e-19
-5.28954e-22
-1.28936e-21
-4.3985e-25
3.12964e-22
-8.25383e-28
8.35451e-26
-8.00421e-27
1.85361e-27
-6.80845e-26
1.39926e-26
-1.09421e-24
2.18484e-25
-1.28081e-23
2.04859e-24
-1.26438e-22
1.63526e-23
-1.06138e-21
1.14445e-22
-7.59387e-21
7.26576e-22
-4.62364e-20
4.31958e-21
-2.38414e-19
2.43412e-20
-1.03826e-18
1.28199e-19
-3.85145e-18
6.15907e-19
-1.24999e-17
2.66502e-18
-3.70738e-17
1.04674e-17
-1.05768e-16
3.81927e-17
-3.0051e-16
1.32301e-16
-8.41623e-16
4.3223e-16
1.2686e-15
-2.1755e-15
1.21962e-16
-8.20493e-16
4.19816e-19
-2.70919e-16
4.89255e-22
-5.61902e-19
-5.0416e-22
-4.8552e-22
-2.03412e-25
3.50609e-22
-7.35345e-27
5.2777e-26
-2.55241e-26
6.3948e-27
-3.62778e-25
1.09346e-25
-4.54262e-24
1.14637e-24
-4.69957e-23
1.00054e-23
-4.12473e-22
7.52752e-23
-3.09512e-21
4.98201e-22
-1.99667e-20
2.96407e-21
-1.11087e-19
1.61538e-20
-5.33923e-19
8.15564e-20
-2.2249e-18
3.8216e-19
-8.12635e-18
1.65657e-18
-2.65996e-17
6.63921e-18
-8.05875e-17
2.47774e-17
-2.3387e-16
8.71591e-17
-6.60504e-16
2.90596e-16
-1.77853e-15
9.00388e-16
2.47071e-15
-4.32471e-15
1.28574e-16
-1.42294e-15
3.94528e-19
-3.79684e-16
1.25292e-23
-6.59163e-19
-4.10001e-22
-1.50296e-23
-5.74264e-26
2.97693e-22
-3.53937e-26
3.19925e-26
-1.03238e-25
3.4124e-26
-1.27516e-24
4.42007e-25
-1.43129e-23
4.27901e-24
-1.34481e-22
3.48145e-23
-1.07532e-21
2.4509e-22
-7.38825e-21
1.52026e-21
-4.39713e-20
8.46125e-21
-2.28188e-19
4.29521e-20
-1.03866e-18
2.01356e-19
-4.17674e-18
8.78103e-19
-1.50121e-17
3.575e-18
-4.91238e-17
1.36332e-17
-1.49928e-16
4.89694e-17
-4.36491e-16
1.66589e-16
-1.21338e-15
5.34339e-16
-3.11119e-15
1.56874e-15
4.00214e-15
-6.96433e-15
1.32013e-16
-2.05437e-15
3.6954e-19
-4.85032e-16
-4.26963e-22
-7.40692e-19
-2.81263e-22
5.59753e-22
-4.76753e-26
1.03973e-22
-1.09503e-25
4.3332e-26
-3.2628e-25
1.24166e-25
-3.57687e-24
1.39364e-24
-3.72483e-23
1.27554e-23
-3.24208e-22
9.7555e-23
-2.40871e-21
6.47294e-22
-1.54472e-20
3.78999e-21
-8.63716e-20
1.99182e-20
-4.24845e-19
9.54521e-20
-1.85347e-18
4.22623e-19
-7.23239e-18
1.745e-18
-2.55118e-17
6.75799e-18
-8.25722e-17
2.46525e-17
-2.49852e-16
8.50726e-17
-7.17562e-16
2.78221e-16
-1.93704e-15
8.53383e-16
-4.68211e-15
2.36881e-15
5.64423e-15
-9.57403e-15
1.33003e-16
-2.69388e-15
3.46221e-19
-5.8551e-16
-6.07999e-22
-8.12055e-19
-9.16441e-23
9.02722e-22
-6.0861e-26
1.94697e-23
-1.5934e-25
6.7674e-26
-7.17525e-25
3.57911e-25
-8.62259e-24
3.76501e-24
-8.40317e-23
3.22576e-23
-6.88455e-22
2.34301e-22
-4.82723e-21
1.47849e-21
-2.93352e-20
8.24393e-21
-1.56282e-19
4.12925e-20
-7.37391e-19
1.88674e-19
-3.10857e-18
7.96756e-19
-1.18001e-17
3.13939e-18
-4.07e-17
1.16139e-17
-1.29168e-16
4.05305e-17
-3.8281e-16
1.33961e-16
-1.06759e-15
4.18927e-16
-2.75383e-15
1.22098e-15
-6.26893e-15
3.20053e-15
7.22605e-15
-1.20571e-14
1.32171e-16
-3.32482e-15
3.25613e-19
-6.80477e-16
-7.31873e-22
-8.78543e-19
-1.46194e-23
1.27112e-21
-1.28041e-25
5.10916e-24
-1.95258e-25
2.03826e-25
-1.62111e-24
9.06425e-25
-1.82632e-23
8.75738e-24
-1.69292e-22
7.17793e-23
-1.32176e-21
4.99431e-22
-8.85222e-21
3.02122e-21
-5.15602e-20
1.61643e-20
-2.64415e-19
7.77269e-20
-1.20658e-18
3.40919e-19
-4.93956e-18
1.38092e-18
-1.82615e-17
5.21266e-18
-6.14516e-17
1.84566e-17
-1.90429e-16
6.16521e-17
-5.4973e-16
1.95109e-16
-1.47793e-15
5.82788e-16
-3.61459e-15
1.61089e-15
-7.73332e-15
3.98137e-15
8.51945e-15
-1.40756e-14
1.30023e-16
-3.93415e-15
3.08706e-19
-7.69773e-16
-8.94347e-22
-9.46194e-19
-6.35694e-24
1.84969e-21
-4.43936e-25
5.313e-24
-5.93297e-25
8.73783e-25
-3.27286e-24
2.10228e-24
-3.47922e-23
1.81302e-23
-3.1057e-22
1.43891e-22
-2.33359e-21
9.6678e-22
-1.50657e-20
5.64467e-21
-8.48127e-20
2.91563e-20
-4.2163e-19
1.35313e-19
-1.87001e-18
5.7215e-19
-7.45299e-18
2.22944e-18
-2.68442e-17
8.07516e-18
-8.80643e-17
2.73867e-17
-2.66178e-16
8.76048e-17
-7.47433e-16
2.65498e-16
-1.93368e-15
7.57284e-16
-4.47474e-15
1.98504e-15
-8.96925e-15
4.62707e-15
9.37992e-15
-1.54145e-14
1.26951e-16
-4.51177e-15
2.96453e-19
-8.53523e-16
-1.14667e-21
-1.02229e-18
-7.94861e-24
2.79932e-21
-1.73894e-24
1.01159e-23
-2.1069e-24
3.85998e-24
-7.21562e-24
5.07861e-24
-6.06594e-23
3.42521e-23
-5.27224e-22
2.65026e-22
-3.84674e-21
1.73426e-21
-2.41274e-20
9.83846e-21
-1.32171e-19
4.93467e-20
-6.40274e-19
2.22077e-19
-2.76866e-18
9.08237e-19
-1.07539e-17
3.41059e-18
-3.77284e-17
1.18604e-17
-1.20581e-16
3.85214e-17
-3.55002e-16
1.17877e-16
-9.67172e-16
3.41256e-16
-2.40326e-15
9.26252e-16
-5.27427e-15
2.29828e-15
-9.96119e-15
5.06056e-15
9.73155e-15
-1.62253e-14
1.23246e-16
-5.05001e-15
2.89722e-19
-9.32014e-16
-1.53992e-21
-1.11551e-18
-1.9299e-23
4.35414e-21
-7.58763e-24
3.62318e-23
-6.91338e-24
1.6696e-23
-1.25566e-23
1.36667e-23
-9.90648e-23
6.14221e-23
-8.42232e-22
4.57829e-22
-6.01984e-21
2.94184e-21
-3.6973e-20
1.63425e-20
-1.98427e-19
8.0127e-20
-9.41549e-19
3.5163e-19
-3.98278e-18
1.39679e-18
-1.51048e-17
5.06911e-18
-5.16834e-17
1.6953e-17
-1.61055e-16
5.27566e-17
-4.61435e-16
1.54185e-16
-1.21502e-15
4.24302e-16
-2.88528e-15
1.0872e-15
-5.99314e-15
2.53222e-15
-1.06697e-14
5.23183e-15
9.47623e-15
-1.63391e-14
1.19115e-16
-5.54311e-15
2.89204e-19
-1.00564e-15
-2.13625e-21
-1.23578e-18
-6.60687e-23
6.8713e-21
-3.1215e-23
1.45089e-22
-2.14498e-23
6.81489e-23
-2.924e-23
4.44741e-23
-1.55943e-22
1.1091e-22
-1.28539e-21
7.5469e-22
-9.08879e-21
4.80279e-21
-5.51395e-20
2.63655e-20
-2.92122e-19
1.27326e-19
-1.36634e-18
5.48469e-19
-5.68074e-18
2.12754e-18
-2.11054e-17
7.49142e-18
-7.05696e-17
2.41531e-17
-2.14413e-16
7.20373e-17
-5.95897e-16
2.00496e-16
-1.50654e-15
5.21021e-16
-3.39343e-15
1.24914e-15
-6.63844e-15
2.70807e-15
-1.11275e-14
5.21897e-15
8.87703e-15
-1.60578e-14
1.147e-16
-5.98681e-15
2.9531e-19
-1.07484e-15
-3.03198e-21
-1.39386e-18
-2.24569e-22
1.09788e-20
-1.17391e-22
5.46302e-22
-6.63383e-23
2.6609e-22
-7.96564e-23
1.52273e-22
-2.48115e-22
2.20589e-22
-1.89701e-21
1.20543e-21
-1.33902e-20
7.62769e-21
-8.09234e-20
4.17141e-20
-4.26109e-19
1.9966e-19
-1.9747e-18
8.48253e-19
-8.09925e-18
3.22548e-18
-2.95666e-17
1.10634e-17
-9.68909e-17
3.45645e-17
-2.87759e-16
9.94187e-17
-7.7709e-16
2.65044e-16
-1.88972e-15
6.53012e-16
-4.05325e-15
1.46776e-15
-7.51655e-15
2.96183e-15
-1.19564e-14
5.31138e-15
8.4458e-15
-1.63977e-14
1.10088e-16
-6.37806e-15
3.08031e-19
-1.14014e-15
-4.42846e-21
-1.60046e-18
-7.06649e-22
1.80178e-20
-4.06413e-22
1.90498e-21
-2.08154e-22
9.81008e-22
-2.29858e-22
5.12259e-22
-4.26127e-22
5.12006e-22
-2.7292e-21
1.90088e-21
-1.92591e-20
1.17625e-20
-1.16412e-19
6.42515e-20
-6.09916e-19
3.04921e-19
-2.79883e-18
1.27726e-18
-1.13341e-17
4.77116e-18
-4.09302e-17
1.60721e-17
-1.33528e-16
4.94499e-17
-3.96806e-16
1.40302e-16
-1.06836e-15
3.66789e-16
-2.55292e-15
8.70858e-16
-5.27595e-15
1.83718e-15
-9.26469e-15
3.38621e-15
-1.38042e-14
5.4594e-15
7.82758e-15
-1.77147e-14
1.05329e-16
-6.7147e-15
3.26748e-19
-1.20206e-15
-6.78223e-21
-1.86474e-18
-2.05795e-21
3.10879e-20
-1.29923e-21
6.18828e-21
-6.67099e-22
3.38294e-21
-6.27217e-22
1.67341e-21
-8.31813e-22
1.34162e-21
-3.84969e-21
3.03987e-21
-2.66539e-20
1.72428e-20
-1.60328e-19
9.35424e-20
-8.30741e-19
4.38354e-19
-3.76907e-18
1.80865e-18
-1.51915e-17
6.6856e-18
-5.52631e-17
2.24654e-17
-1.83458e-16
6.92147e-17
-5.53118e-16
1.94632e-16
-1.4756e-15
4.88596e-16
-3.35506e-15
1.05997e-15
-6.32711e-15
1.94106e-15
-1.0075e-14
3.18157e-15
-1.40546e-14
4.70354e-15
6.2995e-15
-1.74472e-14
1.00446e-16
-6.99534e-15
3.49959e-19
-1.26119e-15
-1.1085e-20
-2.19176e-18
-5.56467e-21
5.73147e-20
-3.87302e-21
1.88408e-20
-2.10419e-21
1.0964e-20
-1.5572e-21
5.24653e-21
-1.82607e-21
3.68784e-21
-5.25992e-21
5.11353e-21
-3.37664e-20
2.31571e-20
-2.01298e-19
1.22204e-19
-1.03025e-18
5.68873e-19
-4.64361e-18
2.34777e-18
-1.88902e-17
8.75702e-18
-7.01738e-17
2.98001e-17
-2.3547e-16
9.16458e-17
-6.89762e-16
2.47224e-16
-1.69811e-15
5.64936e-16
-3.45897e-15
1.07362e-15
-6.00441e-15
1.78158e-15
-9.17919e-15
2.59674e-15
-1.24987e-14
3.43443e-15
4.11259e-15
-1.52652e-14
9.54432e-17
-7.21916e-15
3.74886e-19
-1.31812e-15
-1.93621e-20
-2.57795e-18
-1.41028e-20
1.12503e-19
-1.07199e-20
5.41994e-20
-6.20177e-21
3.32879e-20
-3.90879e-21
1.61874e-20
-4.33641e-21
1.03183e-20
-7.52053e-21
1.02142e-20
-3.81929e-20
3.038e-20
-2.20899e-19
1.48013e-19
-1.14513e-18
6.81827e-19
-5.38908e-18
2.89933e-18
-2.33246e-17
1.15254e-17
-9.0685e-17
4.15085e-17
-3.00612e-16
1.27918e-16
-8.14373e-16
3.20867e-16
-1.78882e-15
6.46148e-16
-3.24524e-15
1.06082e-15
-5.03186e-15
1.52193e-15
-6.96002e-15
1.89176e-15
-8.73029e-15
2.09187e-15
2.07756e-15
-9.87841e-15
9.03028e-17
-7.38575e-15
3.96908e-19
-1.37348e-15
-3.53944e-20
-3.00342e-18
-3.37926e-20
2.29379e-19
-2.76655e-20
1.48842e-19
-1.7013e-20
9.50395e-20
-1.10982e-20
4.92771e-20
-1.15047e-20
3.25768e-20
-1.50717e-20
2.96658e-20
-5.08286e-20
5.5921e-20
-2.47685e-19
2.1106e-19
-1.21396e-18
8.58164e-19
-6.09331e-18
3.63007e-18
-3.06311e-17
1.53188e-17
-1.33346e-16
5.76507e-17
-4.36235e-16
1.72779e-16
-1.06468e-15
4.05781e-16
-2.02963e-15
7.47851e-16
-3.22009e-15
1.11887e-15
-4.53454e-15
1.44637e-15
-5.76533e-15
1.62342e-15
-6.70561e-15
1.62659e-15
1.40048e-15
-7.56708e-15
8.49826e-17
-7.49491e-15
4.08801e-19
-1.4279e-15
-6.53418e-20
-3.41846e-18
-7.56253e-20
4.70254e-19
-6.68771e-20
3.90592e-19
-4.38069e-20
2.58347e-19
-3.44586e-20
1.5091e-19
-3.76743e-20
1.17839e-19
-5.56956e-20
1.22461e-19
-1.57147e-19
2.64491e-19
-4.90801e-19
6.90058e-19
-1.70191e-18
1.79094e-18
-7.03676e-18
5.36512e-18
-3.13355e-17
1.83759e-17
-1.23536e-16
6.00739e-17
-3.84681e-16
1.71106e-16
-9.16077e-16
3.8787e-16
-1.7232e-15
6.91464e-16
-2.76461e-15
1.0205e-15
-4.04737e-15
1.31473e-15
-5.50726e-15
1.49178e-15
-6.84163e-15
1.45631e-15
1.07237e-15
-7.72418e-15
7.94097e-17
-7.54646e-15
3.9972e-19
-1.48201e-15
-1.19823e-19
-3.71936e-18
-1.49638e-19
9.62042e-19
-1.52141e-19
9.58016e-19
-1.09995e-19
6.82267e-19
-1.08001e-19
4.64034e-19
-1.24381e-19
4.15453e-19
-2.77952e-19
5.97787e-19
-8.66576e-19
1.64664e-18
-2.19163e-18
4.05387e-18
-4.96424e-18
8.17855e-18
-1.2045e-17
1.53994e-17
-3.41154e-17
3.03123e-17
-9.88951e-17
6.28085e-17
-2.55009e-16
1.42448e-16
-5.67815e-16
2.63545e-16
-1.07652e-15
4.28063e-16
-1.79129e-15
6.29788e-16
-2.72515e-15
8.31916e-16
-3.90597e-15
9.74683e-16
-5.22808e-15
9.58257e-16
5.7135e-16
-6.28933e-15
7.34808e-17
-7.54014e-15
3.54992e-19
-1.53639e-15
-2.17674e-19
-3.71448e-18
-3.04334e-19
1.97522e-18
-3.26746e-19
2.18238e-18
-2.73207e-19
1.76229e-18
-2.99304e-19
1.38069e-18
-3.91897e-19
1.38024e-18
-1.14953e-18
2.63408e-18
-3.9182e-18
8.18481e-18
-1.01305e-17
2.10444e-17
-2.09337e-17
4.20014e-17
-3.75338e-17
6.98427e-17
-6.3165e-17
1.01821e-16
-1.09572e-16
1.3516e-16
-1.98775e-16
1.72678e-16
-3.35528e-16
2.40247e-16
-5.14051e-16
3.32497e-16
-7.29683e-16
4.13892e-16
-1.02759e-15
4.55402e-16
-1.4761e-15
4.04091e-16
-2.10895e-15
3.10215e-16
7.20964e-17
-2.73526e-15
6.70694e-17
-7.47561e-15
2.61565e-19
-1.59156e-15
-3.82094e-19
-3.12621e-18
-5.80458e-19
3.96433e-18
-6.63935e-19
4.79351e-18
-6.48491e-19
4.41949e-18
-7.12033e-19
3.8259e-18
-1.08938e-18
4.3362e-18
-3.54517e-18
9.4577e-18
-1.26243e-17
3.0495e-17
-3.36031e-17
8.20354e-17
-6.90125e-17
1.69214e-16
-1.16947e-16
2.83144e-16
-1.73909e-16
4.05497e-16
-2.39001e-16
5.20093e-16
-3.08777e-16
6.11671e-16
-3.67169e-16
6.51115e-16
-3.96609e-16
6.09842e-16
-4.40912e-16
4.93323e-16
-4.73865e-16
3.99351e-16
-4.93163e-16
3.11169e-16
-4.98783e-16
1.66961e-16
-5.94314e-17
-5.0204e-16
6.00306e-17
-7.35257e-15
1.2777e-19
-1.64801e-15
-6.27752e-19
-1.78543e-18
-1.00089e-18
7.66058e-18
-1.26589e-18
1.03937e-17
-1.38605e-18
1.05813e-17
-1.53727e-18
1.01761e-17
-2.51167e-18
1.26369e-17
-7.62384e-18
2.72349e-17
-2.57985e-17
8.19109e-17
-6.81829e-17
2.20549e-16
-1.38051e-16
4.71571e-16
-2.25896e-16
8.24129e-16
-3.17356e-16
1.23924e-15
-4.06682e-16
1.69211e-15
-4.93516e-16
2.19839e-15
-5.04333e-16
2.72841e-15
-3.56478e-16
2.89063e-15
-1.54535e-16
2.36461e-15
3.9449e-17
1.631e-15
2.68166e-16
1.15126e-15
4.65203e-16
3.55491e-16
-8.39124e-16
4.87516e-16
5.21892e-17
-7.17098e-15
1.54574e-20
-1.70615e-15
-9.81614e-19
-2.61788e-19
-1.55619e-18
1.48209e-17
-2.09888e-18
2.17785e-17
-2.43131e-18
2.42845e-17
-2.88527e-18
2.63521e-17
-4.54352e-18
3.44073e-17
-1.11365e-17
6.75516e-17
-3.01148e-17
1.74966e-16
-6.47634e-17
4.35146e-16
-1.00479e-16
9.05666e-16
-9.57371e-17
1.606e-15
1.43938e-17
2.49932e-15
3.22651e-16
3.5326e-15
9.82071e-16
4.73527e-15
2.28105e-15
6.24985e-15
3.94594e-15
6.97939e-15
4.77363e-15
4.38399e-15
5.11138e-15
3.58735e-15
6.13583e-15
1.94122e-15
6.89491e-15
2.70995e-16
-1.191e-15
7.26617e-15
4.32933e-17
-6.93113e-15
-5.9173e-20
-1.76605e-15
-8.65106e-19
2.01455e-18
-2.12136e-18
2.85645e-17
-2.94297e-18
4.39638e-17
-3.45886e-18
5.40701e-17
-3.89844e-18
6.56522e-17
-4.80894e-18
8.91417e-17
-6.26657e-18
1.57843e-16
-4.66474e-19
3.52006e-16
4.64263e-17
7.87907e-16
2.16938e-16
1.51097e-15
6.68671e-16
2.57264e-15
1.64718e-15
3.93099e-15
3.49518e-15
5.3896e-15
6.81444e-15
6.74201e-15
1.1293e-14
7.47324e-15
1.32542e-14
6.85402e-15
1.44719e-14
5.00218e-15
1.49383e-14
3.8396e-15
1.47693e-14
1.81679e-15
1.37276e-14
-2.32385e-16
-2.8788e-15
1.30808e-14
3.29285e-17
-6.63362e-15
-1.43121e-19
-1.82733e-15
-9.67038e-19
6.2977e-18
-2.16547e-18
5.19205e-17
-2.60677e-18
8.52379e-17
-1.97757e-18
1.16028e-16
6.37161e-19
1.56183e-16
8.5073e-18
2.2289e-16
3.51063e-17
3.66463e-16
1.38479e-16
7.46687e-16
4.69248e-16
1.56048e-15
1.24781e-15
2.77653e-15
2.79632e-15
4.25146e-15
5.41352e-15
5.67847e-15
9.12499e-15
6.61719e-15
1.37278e-14
6.7572e-15
1.82404e-14
6.14447e-15
2.06019e-14
5.12113e-15
2.32901e-14
3.99877e-15
4.2856e-14
3.99765e-15
5.08852e-14
2.51391e-15
5.32706e-14
-3.47882e-16
-1.6887e-15
3.22302e-14
2.03006e-17
-6.2788e-15
-1.63613e-19
-1.88912e-15
-5.84342e-19
1.30534e-17
-3.4806e-19
8.90366e-17
2.60048e-18
1.56649e-16
1.09372e-17
2.33086e-16
3.13099e-17
3.4135e-16
8.05896e-17
5.10273e-16
2.11557e-16
8.07007e-16
6.457e-16
1.53084e-15
1.91215e-15
3.06293e-15
4.6886e-15
5.34711e-15
9.43633e-15
7.65195e-15
1.57138e-14
8.85631e-15
2.23842e-14
8.5693e-15
2.93214e-14
7.66058e-15
3.60454e-14
7.27444e-15
3.81152e-14
6.40586e-15
3.84903e-14
5.20581e-15
4.23617e-14
3.77723e-15
4.48813e-14
2.01078e-15
4.14492e-14
-6.78232e-16
-2.91543e-15
4.2538e-14
4.39726e-18
-5.86702e-15
-1.63742e-18
-1.94931e-15
1.59011e-18
1.77947e-17
6.3577e-18
1.42401e-16
2.14588e-17
2.69742e-16
5.8963e-17
4.41438e-16
1.49424e-16
7.08539e-16
3.58618e-16
1.1173e-15
8.76055e-16
1.79551e-15
2.41055e-15
3.20286e-15
6.45019e-15
5.65788e-15
1.41926e-14
8.36577e-15
2.3817e-14
9.4169e-15
3.15056e-14
8.14359e-15
3.75918e-14
6.57881e-15
4.60212e-14
5.35097e-15
7.20214e-14
5.27402e-15
1.5891e-13
7.56413e-15
3.17731e-13
1.33752e-14
3.64705e-13
1.52961e-14
3.41434e-13
1.06327e-14
2.21948e-13
2.32578e-15
-4.34216e-15
1.66886e-13
-4.82037e-17
-5.37935e-15
-3.91604e-17
-1.99844e-15
8.02842e-18
1.24397e-17
2.3888e-17
2.26257e-16
7.55428e-17
4.69121e-16
2.19772e-16
8.59969e-16
5.94475e-16
1.50125e-15
1.44847e-15
2.3904e-15
3.34782e-15
3.54161e-15
7.40698e-15
4.77692e-15
1.45259e-14
6.12186e-15
2.43621e-14
7.1995e-15
3.35929e-14
6.75092e-15
3.9419e-14
5.14536e-15
4.32812e-14
3.48625e-15
4.69441e-14
2.76434e-15
5.43503e-14
2.02676e-15
9.08684e-14
2.63707e-15
2.73289e-13
3.75275e-15
4.72903e-13
1.45814e-14
4.82092e-13
1.61901e-14
4.86127e-13
1.3036e-14
6.57807e-15
3.90045e-13
-1.18575e-16
-4.80335e-15
-8.72738e-17
-2.03321e-15
-2.29573e-18
-2.75488e-17
8.4538e-17
3.4445e-16
2.62295e-16
8.18956e-16
7.32362e-16
1.39183e-15
1.72448e-15
1.93457e-15
3.40092e-15
2.61118e-15
6.04799e-15
3.25025e-15
1.01106e-14
3.80194e-15
1.56376e-14
3.69317e-15
1.96624e-14
2.94063e-15
2.14248e-14
2.07865e-15
2.22538e-14
2.30056e-15
2.32626e-14
1.28078e-15
2.39762e-14
7.51341e-16
2.44723e-14
2.31289e-16
2.48202e-14
9.94053e-16
4.32669e-14
4.72176e-15
1.24873e-13
6.01462e-15
2.0048e-13
7.87448e-15
1.97614e-13
7.1801e-15
7.22829e-15
1.74157e-13
-1.94186e-16
-4.12511e-15
-1.49756e-16
-2.01412e-15
-4.72464e-17
-3.49192e-16
1.29577e-16
2.42307e-16
4.61101e-16
7.74731e-16
1.13364e-15
1.18979e-15
2.26057e-15
1.49266e-15
3.9413e-15
1.70334e-15
6.33979e-15
1.60243e-15
7.8397e-15
1.32975e-15
8.4681e-15
9.80048e-16
8.91874e-15
6.15809e-16
9.29378e-15
1.88846e-16
3.26815e-13
-3.00166e-13
1.90508e-12
-1.40458e-12
3.67186e-12
0
3.01351e-12
0
5.60627e-13
2.45288e-12
1.21672e-13
4.55426e-13
1.27404e-13
6.38525e-14
1.36632e-13
3.12996e-14
1.39695e-13
2.02704e-14
1.03551e-14
1.5325e-13
-1.80091e-14
-2.1989e-13
-7.44321e-15
-6.18239e-14
-3.22162e-15
-1.52762e-14
-2.28469e-15
-5.99548e-15
-2.26532e-15
-3.16677e-15
-2.21503e-15
-1.57518e-15
-1.46274e-15
-5.33584e-16
-1.16836e-16
-2.54257e-17
1.10055e-15
1.30001e-16
1.59623e-15
1.67575e-16
1.93182e-15
9.51544e-16
1.65356e-14
1.13582e-14
6.55603e-12
-6.10912e-12
8.12327e-11
-6.59959e-11
3.45492e-10
0
7.68766e-10
-2.62727e-10
6.74482e-10
-3.65511e-12
1.41087e-10
3.61355e-11
4.79922e-12
1.52293e-11
1.44101e-12
3.50985e-12
7.75064e-13
1.0225e-12
4.04458e-13
4.53461e-13
1.29934e-13
2.97613e-13
-1.42212e-13
-1.03321e-12
-8.87096e-14
-4.58446e-13
-5.39585e-14
-1.63885e-13
-3.88938e-14
-6.36919e-14
-3.41754e-14
-2.62301e-14
-3.37252e-14
-9.27185e-15
-3.29569e-14
-1.99323e-15
-2.92263e-14
-5.99592e-16
-2.29566e-14
-8.54054e-16
-9.09831e-15
-4.23002e-16
6.91649e-13
1.10588e-12
6.84081e-11
-1.98301e-12
1.36231e-09
-4.81651e-10
1.03476e-08
-2.63906e-09
1.7694e-08
-2.98316e-09
8.98312e-09
-3.52175e-10
5.15725e-10
9.24485e-11
1.54751e-10
8.67564e-11
4.41187e-11
3.81098e-11
1.56737e-11
1.46998e-11
9.20712e-12
4.62347e-12
6.2515e-12
2.79431e-12
4.75496e-12
1.54155e-12
-4.09116e-13
-1.73593e-12
-3.23723e-13
-1.00757e-12
-2.13755e-13
-4.10391e-13
-1.48275e-13
-1.47764e-13
-9.65725e-14
-3.36208e-14
2.12992e-09
0
6.46775e-09
-2.40629e-10
7.03119e-09
-2.36931e-09
4.61543e-09
0
1.3202e-09
2.72906e-09
2.73969e-10
1.05008e-09
2.34598e-08
-3.05853e-09
1.27519e-07
-2.25695e-08
9.0848e-08
-2.98522e-09
7.62479e-09
-3.3162e-10
1.96825e-09
-2.49602e-10
5.64255e-10
2.57135e-10
2.12356e-10
1.78434e-10
1.1989e-10
6.43705e-11
8.44668e-11
2.14025e-11
6.50093e-11
7.68764e-12
2.02587e-09
3.54762e-11
8.65086e-10
1.11748e-08
1.2099e-08
2.39392e-08
9.7361e-10
1.11243e-08
9.61364e-11
8.77063e-10
5.88679e-12
9.01018e-11
1.6872e-09
6.48433e-09
1.11648e-08
-5.15225e-09
7.08534e-08
-1.37021e-10
1.03554e-07
-8.63738e-10
1.14988e-07
9.66076e-09
2.73513e-07
4.78932e-08
5.87335e-07
9.95026e-08
7.3703e-07
1.63618e-08
3.11224e-07
0
2.20797e-08
0
1.01604e-08
-1.11671e-09
3.24534e-09
0
9.32863e-10
1.80072e-09
2.74652e-10