/*--------------------------------*- C++ -*----------------------------------*\
  =========                 |
  \\      /  F ield         | OpenFOAM: The Open Source CFD Toolbox
   \\    /   O peration     | Website:  https://openfoam.org
    \\  /    A nd           | Version:  9
     \\/     M anipulation  |
\*---------------------------------------------------------------------------*/
FoamFile
{
    format      ascii;
    class       volScalarField;
    location    "0.8";
    object      alpha.water;
}
// * * * * * * * * * * * * * * * * * * * * * * * * * * * * * * * * * * * * * //

dimensions      [0 0 0 0 0 0 0];

internalField   nonuniform List<scalar> 
2268
(
2.46945e-06
2.46923e-06
1.72584e-06
7.53582e-08
8.70539e-11
2.47253e-12
3.94749e-13
3.42942e-14
1.64089e-15
8.67059e-17
5.77763e-18
4.58784e-19
4.26666e-20
4.59665e-21
5.60976e-22
7.52914e-23
1.04182e-23
1.266e-24
6.65138e-25
1.06451e-24
1.45913e-24
1.50605e-24
1.19946e-24
9.15052e-07
6.74011e-07
1.11363e-07
1.26402e-09
5.50469e-12
1.82614e-13
1.38532e-14
5.06351e-16
1.72828e-17
7.45333e-19
3.82779e-20
1.86235e-21
4.44295e-23
3.37198e-39
-1.82918e-23
-2.04962e-23
-1.1888e-23
-5.77127e-24
-2.53435e-24
-8.01298e-25
1.13295e-25
1.14946e-24
1.12765e-24
-8.02135e-13
-1.34508e-13
-1.37361e-14
3.02993e-12
3.5777e-12
2.26971e-13
1.06997e-15
1.1147e-17
2.83557e-19
5.17377e-21
4.20144e-37
-3.04244e-22
-4.53237e-22
-1.79715e-22
-5.75818e-23
-1.71801e-23
-5.01737e-24
-1.47725e-24
-4.64574e-25
-1.7709e-25
-6.86609e-27
6.00301e-25
1.00923e-24
-2.08549e-12
-5.18085e-13
-5.53507e-14
-3.05977e-15
2.96777e-15
3.43604e-16
5.87217e-36
0
-3.54007e-20
-1.89828e-20
-5.88377e-21
-1.42961e-21
-3.07493e-22
-6.27596e-23
-1.23548e-23
-1.15698e-24
0
1.66673e-25
1.33451e-25
1.25257e-26
2.13316e-26
2.96422e-25
8.57239e-25
-4.48485e-12
-2.06107e-12
-2.80128e-13
-8.71308e-14
-1.11888e-14
-8.81941e-16
-5.29326e-17
-2.82162e-18
-1.76715e-19
-1.94144e-20
-3.02528e-21
-4.59044e-22
-6.48447e-23
-8.28068e-24
-9.69741e-41
1.30008e-25
6.55818e-24
7.51717e-24
3.23474e-24
4.02739e-25
3.51666e-26
1.52419e-25
7.31102e-25
-8.79331e-12
-5.72225e-12
-7.64373e-13
-9.52294e-14
-5.99568e-15
-2.38457e-16
-7.45491e-18
-2.93188e-19
-3.62856e-20
-6.47387e-21
-8.71592e-22
-8.63188e-23
-6.69307e-24
-2.16349e-40
1.01764e-23
6.69363e-23
1.9232e-22
1.63819e-22
4.71836e-23
3.17392e-24
6.52877e-26
1.34551e-25
6.35729e-25
-1.65828e-11
-8.12116e-12
-6.30138e-13
-4.8125e-14
-1.5481e-15
-1.91814e-17
-2.70825e-19
-7.26446e-20
-1.73471e-20
-2.47396e-21
-2.07342e-22
-8.79171e-24
0
1.47774e-23
1.33671e-22
6.77374e-22
1.55031e-21
1.10958e-21
3.0807e-22
1.30127e-23
1.55687e-25
1.42081e-25
5.89232e-25
-2.90704e-11
-1.10479e-11
-4.17752e-13
-2.23536e-14
-3.17529e-16
5.81323e-18
-9.46725e-20
-4.48327e-20
-8.33589e-21
-8.81489e-22
-4.12442e-23
4.21497e-40
2.82971e-24
4.97613e-23
4.17362e-22
1.90869e-21
3.52554e-21
1.82947e-21
1.26056e-21
4.89149e-23
1.70128e-25
1.40544e-25
5.55137e-25
2.87477e-18
2.87477e-18
3.06018e-16
1.29458e-14
1.99105e-13
1.68108e-12
9.69892e-12
4.75366e-11
2.39019e-10
9.84329e-10
1.60288e-09
3.93363e-09
9.30639e-09
1.82294e-08
2.71753e-08
3.06107e-08
3.17565e-08
4.67997e-08
1.0466e-07
5.60802e-18
1.58436e-16
1.71679e-14
4.19811e-13
4.50243e-12
2.81639e-11
1.07934e-10
2.84543e-10
1.44086e-09
2.45691e-08
7.9715e-08
3.57912e-08
4.23515e-08
5.55679e-08
1.16048e-07
2.51529e-07
1.98596e-07
4.85464e-08
8.93397e-08
1.15483e-16
1.66426e-15
1.25148e-13
2.55666e-12
2.33453e-11
1.04196e-10
2.40875e-10
4.18598e-10
1.56491e-09
9.66947e-09
6.16439e-07
1.82285e-06
5.72008e-07
3.94254e-07
9.00961e-07
2.73206e-06
3.18295e-06
7.98703e-07
4.33619e-07
6.85247e-16
1.02476e-14
5.48553e-13
8.91751e-12
5.93992e-11
1.89493e-10
3.60127e-10
6.05973e-10
2.15037e-09
1.19731e-08
7.52282e-08
5.18892e-06
1.67328e-05
4.06105e-06
3.55053e-06
1.05225e-05
2.07666e-05
8.78459e-07
5.41446e-07
3.89888e-15
4.11018e-14
1.73468e-12
2.10423e-11
1.03335e-10
2.40322e-10
3.73172e-10
1.05364e-09
4.97345e-09
3.08433e-08
1.65232e-07
7.32153e-07
2.37335e-05
9.72868e-05
3.81914e-05
4.25528e-05
4.20152e-05
7.33029e-05
0.00015962
1.34497e-14
1.25206e-13
4.32555e-12
3.96127e-11
1.25577e-10
2.16852e-10
6.39052e-10
3.26559e-09
2.06873e-08
1.34915e-07
8.02717e-07
3.78475e-06
1.49496e-05
0.000189366
0.00200026
0.00188726
4.6524e-05
8.86664e-05
0.000518775
3.55578e-14
3.60953e-13
9.41069e-12
4.87935e-11
1.07973e-10
3.51198e-10
1.79934e-09
1.30699e-08
8.68828e-08
5.46928e-07
3.34675e-06
2.23076e-05
0.000137846
0.000813024
0.00375146
0.0125035
0.0115604
0.000104905
0.000231495
8.6236e-14
7.02611e-13
1.07887e-11
4.28058e-11
1.6016e-10
8.57476e-10
6.52712e-09
4.77152e-08
3.18491e-07
2.01782e-06
1.78351e-05
0.000275959
0.000810382
0.00159982
0.00350579
0.0165623
0.0337685
0.0166933
0.000240413
-4.29651e-11
-1.60473e-11
-2.37479e-13
-8.45586e-15
-5.10222e-17
1.68124e-18
-7.77065e-20
-2.16804e-20
-3.57691e-21
-3.43749e-22
8.85008e-26
2.46663e-23
4.76979e-22
5.40913e-21
4.42475e-20
1.93475e-19
3.14142e-19
1.5572e-19
5.75644e-22
1.07278e-22
2.92163e-24
1.40544e-25
2.12181e-20
-6.19272e-11
-2.05288e-11
-1.48514e-13
-3.60631e-15
-8.00701e-18
9.16216e-21
-2.72653e-20
-5.33968e-21
-5.7758e-22
-4.47164e-24
3.52343e-23
1.36329e-21
1.77743e-20
1.82261e-19
1.38541e-18
6.51853e-18
1.49962e-17
1.7953e-17
1.64229e-17
3.63874e-17
9.757e-17
8.86067e-16
1.41796e-14
-7.65105e-11
-2.30839e-11
-1.02212e-13
-1.62827e-15
1.17709e-17
-4.74001e-21
-8.41348e-21
-1.28193e-21
-4.79773e-23
3.9846e-23
2.12148e-21
2.95757e-20
3.31755e-19
2.95768e-18
2.00633e-17
9.76546e-17
3.3494e-16
8.65048e-16
1.90001e-15
4.1691e-15
1.1489e-14
4.76212e-14
2.18941e-13
-8.67221e-11
-2.39738e-11
-7.50325e-14
-7.26934e-16
3.31378e-17
-1.55082e-21
-2.61827e-21
-2.781e-22
3.00782e-23
2.01847e-21
2.87734e-20
3.29764e-19
3.13074e-18
2.43274e-17
1.51354e-16
7.32702e-16
2.72278e-15
7.9483e-15
1.97461e-14
4.7371e-14
1.24672e-13
3.96505e-13
1.28425e-12
-9.30815e-11
-2.37295e-11
-5.79666e-14
-3.12549e-16
3.2152e-17
1.42927e-20
-7.52215e-22
5.3887e-24
1.12825e-21
1.86019e-20
2.10085e-19
2.00352e-18
1.60985e-17
1.08388e-16
6.03259e-16
2.73279e-15
1.00544e-14
3.08371e-14
8.32892e-14
2.14586e-13
5.71015e-13
1.67955e-12
4.87094e-12
-9.63584e-11
-2.28962e-11
-4.64538e-14
-1.17121e-16
2.87473e-17
9.53936e-21
6.63445e-39
1.84228e-22
7.55789e-21
8.99666e-20
8.86699e-19
7.39653e-18
5.23819e-17
3.15148e-16
1.60596e-15
6.91145e-15
2.52448e-14
7.99396e-14
2.28502e-13
6.24023e-13
1.71364e-12
4.93037e-12
1.35211e-11
-9.74356e-11
-2.18108e-11
-3.83069e-14
-3.03834e-17
2.39442e-17
3.94345e-21
4.49287e-23
2.14932e-21
2.94995e-20
3.09052e-19
2.72706e-18
2.04642e-17
1.31543e-16
7.27885e-16
3.47802e-15
1.44041e-14
5.21773e-14
1.68594e-13
5.01571e-13
1.4303e-12
4.02035e-12
1.12978e-11
2.93554e-11
-9.71456e-11
-2.06491e-11
-3.23577e-14
-6.98486e-19
1.757e-17
1.37488e-21
3.69234e-22
7.584e-21
8.91448e-20
8.52059e-19
6.88421e-18
4.75543e-17
2.8363e-16
1.47259e-15
6.70331e-15
2.69597e-14
9.6866e-14
3.16404e-13
9.62778e-13
2.80496e-12
7.91182e-12
2.14552e-11
5.20737e-11
-9.59316e-11
-1.95071e-11
-2.79014e-14
1.46665e-17
7.32551e-18
1.47345e-21
1.33437e-21
2.04536e-20
2.26604e-19
2.01278e-18
1.51693e-17
9.8239e-17
5.53169e-16
2.73656e-15
1.20078e-14
4.71737e-14
1.67731e-13
5.47605e-13
1.67238e-12
4.86888e-12
1.35225e-11
3.50488e-11
7.90871e-11
-9.40904e-11
-1.84321e-11
-2.45244e-14
2.3548e-17
1.67755e-18
1.53644e-21
3.62534e-21
4.94655e-20
5.04812e-19
4.23296e-18
3.0198e-17
1.85985e-16
1.00192e-15
4.77702e-15
2.03683e-14
7.83779e-14
2.74719e-13
8.87489e-13
2.68172e-12
7.67327e-12
2.06431e-11
5.08561e-11
1.08491e-10
-9.18262e-11
-1.74436e-11
-2.19688e-14
2.86346e-17
2.2272e-19
2.91291e-21
8.70324e-21
1.04588e-19
1.01254e-18
8.10814e-18
5.53745e-17
3.278e-16
1.70572e-15
7.89857e-15
3.28799e-14
1.24023e-13
4.27164e-13
1.35741e-12
4.02935e-12
1.12455e-11
2.90957e-11
6.79447e-11
1.3766e-10
-8.92788e-11
-1.65463e-11
-2.0084e-14
3.52137e-17
1.06615e-19
1.08309e-20
1.89689e-20
1.98727e-19
1.85984e-18
1.43602e-17
9.46962e-17
5.43018e-16
2.74714e-15
1.24115e-14
5.05429e-14
1.86775e-13
6.30701e-13
1.96601e-12
5.71818e-12
1.55311e-11
3.85874e-11
8.53883e-11
1.64233e-10
-8.65441e-11
-1.57376e-11
-1.87877e-14
4.54798e-17
1.51342e-19
4.46974e-20
4.60725e-20
3.45779e-19
3.16904e-18
2.38334e-17
1.52892e-16
8.5477e-16
4.22504e-15
1.8677e-14
7.44429e-14
2.69157e-13
8.89234e-13
2.71263e-12
7.70792e-12
2.03174e-11
4.8488e-11
1.02216e-10
1.87854e-10
-8.36892e-11
-1.5012e-11
-1.804e-14
6.15222e-17
3.97635e-19
1.75698e-19
1.26891e-19
5.71769e-19
5.08927e-18
3.7618e-17
2.36639e-16
1.29844e-15
6.3028e-15
2.73469e-14
1.06819e-13
3.77936e-13
1.22123e-12
3.64122e-12
1.00733e-11
2.56294e-11
5.84955e-11
1.17307e-10
2.05341e-10
-8.07614e-11
-1.43631e-11
-1.78259e-14
8.59656e-17
1.37659e-18
6.59575e-19
4.1832e-19
9.6082e-19
7.8117e-18
5.72949e-17
3.56814e-16
1.9361e-15
9.28772e-15
3.9738e-14
1.52564e-13
5.28971e-13
1.67129e-12
4.85613e-12
1.29968e-11
3.16515e-11
6.85849e-11
1.30368e-10
2.17316e-10
-7.7795e-11
-1.3785e-11
-1.81421e-14
1.23007e-16
4.74889e-18
2.37947e-18
1.4091e-18
1.83872e-18
1.16196e-17
8.52322e-17
5.30549e-16
2.86767e-15
1.3669e-14
5.78787e-14
2.18918e-13
7.45191e-13
2.30569e-12
6.53417e-12
1.69245e-11
3.95112e-11
8.15997e-11
1.47871e-10
2.36147e-10
-7.48153e-11
-1.32725e-11
-1.89856e-14
1.81512e-16
1.54282e-17
8.18403e-18
4.53647e-18
4.26704e-18
1.71434e-17
1.24446e-16
7.78613e-16
4.20056e-15
1.9881e-14
8.3231e-14
3.11031e-13
1.05054e-12
3.24504e-12
9.18889e-12
2.35587e-11
5.3509e-11
1.0567e-10
1.8086e-10
2.7172e-10
-7.18414e-11
-1.28218e-11
-2.03405e-14
2.81811e-16
4.71123e-17
2.66086e-17
1.39329e-17
1.13291e-17
2.61959e-17
1.77377e-16
1.1103e-15
5.93671e-15
2.77518e-14
1.15165e-13
4.30833e-13
1.47393e-12
4.62799e-12
1.3131e-11
3.26424e-11
6.91126e-11
1.23967e-10
1.94894e-10
2.78428e-10
-6.88881e-11
-1.24301e-11
-2.21606e-14
4.69204e-16
1.3583e-16
8.16762e-17
4.14545e-17
3.09515e-17
4.32155e-17
2.36102e-16
1.46417e-15
7.74448e-15
3.57737e-14
1.48477e-13
5.64269e-13
1.96313e-12
6.1053e-12
1.63721e-11
3.69624e-11
7.07192e-11
1.19122e-10
1.81561e-10
2.53496e-10
-6.59663e-11
-1.20957e-11
-2.43397e-14
8.40667e-16
3.71955e-16
2.37116e-16
1.21091e-16
8.33156e-17
8.43725e-17
2.96804e-16
1.70522e-15
9.01915e-15
4.29574e-14
1.88454e-13
7.57839e-13
2.68052e-12
7.94034e-12
1.92711e-11
3.87138e-11
6.6236e-11
1.0021e-10
1.3895e-10
1.78599e-10
-6.30838e-11
-1.18181e-11
-2.66645e-14
1.59178e-15
9.77255e-16
6.51153e-16
3.50746e-16
2.43309e-16
2.289e-16
4.8635e-16
2.21559e-15
1.04966e-14
5.03345e-14
2.49165e-13
1.1606e-12
4.31737e-12
1.19499e-11
2.56021e-11
4.48915e-11
6.84465e-11
9.52293e-11
1.22654e-10
1.50474e-10
-6.02455e-11
-1.15977e-11
-2.87296e-14
3.07922e-15
2.47772e-15
1.7069e-15
1.02382e-15
8.27976e-16
8.56695e-16
1.94937e-15
5.96348e-15
1.88706e-14
7.01479e-14
3.02558e-13
1.26963e-12
4.38067e-12
1.18126e-11
2.50945e-11
4.42563e-11
6.95885e-11
1.022e-10
1.40668e-10
1.79513e-10
-5.7453e-11
-1.14356e-11
-2.97851e-14
5.98497e-15
5.95393e-15
4.36061e-15
3.03876e-15
2.80864e-15
3.98018e-15
1.18177e-14
3.26979e-14
7.61516e-14
1.7558e-13
4.62049e-13
1.35867e-12
3.7586e-12
9.08461e-12
1.90693e-11
3.48338e-11
5.75821e-11
8.90898e-11
1.31003e-10
1.79811e-10
-5.47047e-11
-1.1334e-11
-2.853e-14
1.18012e-14
1.33239e-14
1.09673e-14
8.90223e-15
9.11901e-15
1.76685e-14
6.07113e-14
1.74619e-13
3.9368e-13
7.57449e-13
1.33854e-12
2.33788e-12
4.29771e-12
7.91544e-12
1.33145e-11
2.08416e-11
3.13583e-11
4.81333e-11
7.49433e-11
1.12979e-10
-5.19966e-11
-1.12957e-11
-2.31832e-14
2.31276e-14
2.86518e-14
2.71288e-14
2.44913e-14
2.86413e-14
6.63487e-14
2.42239e-13
7.33804e-13
1.70593e-12
3.25232e-12
5.38503e-12
8.14322e-12
1.16533e-11
1.58249e-11
2.00895e-11
2.42127e-11
3.05529e-11
3.7149e-11
4.50234e-11
5.46676e-11
-4.93223e-11
-1.13245e-11
-1.2871e-14
4.38524e-14
6.12148e-14
6.48032e-14
6.50096e-14
8.52703e-14
2.03923e-13
7.1415e-13
2.21314e-12
5.40172e-12
1.07865e-11
1.86735e-11
2.96978e-11
4.55333e-11
6.72675e-11
8.67314e-11
9.42842e-11
9.63763e-11
1.1846e-10
1.19194e-10
9.9013e-11
-4.6674e-11
-1.14257e-11
-1.84762e-15
8.31477e-14
1.27958e-13
1.49345e-13
1.70059e-13
2.39996e-13
5.38882e-13
1.65775e-12
4.85864e-12
1.18606e-11
2.45362e-11
4.46327e-11
7.45452e-11
1.2002e-10
1.95026e-10
3.03624e-10
3.34846e-10
3.13838e-10
3.32272e-10
3.53338e-10
3.60455e-10
-4.40434e-11
-1.16046e-11
6.57829e-15
1.60194e-13
2.60476e-13
3.36798e-13
4.33848e-13
6.46004e-13
1.32599e-12
3.52178e-12
9.35525e-12
2.14887e-11
4.4091e-11
8.22726e-11
1.41537e-10
2.34817e-10
3.79976e-10
4.59409e-10
4.59409e-10
4.53722e-10
4.38129e-10
4.04573e-10
3.688e-10
-4.14224e-11
-1.18654e-11
2.78437e-14
2.96574e-13
5.15825e-13
7.44845e-13
1.07862e-12
1.70305e-12
3.25022e-12
7.84972e-12
1.95433e-11
4.19573e-11
7.95121e-11
1.35382e-10
2.07319e-10
2.88494e-10
3.81453e-10
4.16554e-10
4.3609e-10
6.76215e-10
9.86614e-10
1.0102e-09
7.73102e-10
-3.8804e-11
-1.22112e-11
6.60055e-14
5.25593e-13
9.85538e-13
1.57282e-12
2.50914e-12
4.195e-12
7.68714e-12
1.73803e-11
4.21509e-11
9.08518e-11
1.67341e-10
2.62589e-10
3.55272e-10
4.3705e-10
5.34933e-10
5.67194e-10
5.54118e-10
5.80571e-10
6.37232e-10
6.13732e-10
4.7958e-10
-3.61813e-11
-1.26393e-11
1.26058e-13
8.77317e-13
1.78046e-12
3.14287e-12
5.54568e-12
9.90934e-12
1.86054e-11
4.08036e-11
9.42779e-11
1.93583e-10
3.20193e-10
4.17653e-10
4.67453e-10
5.15764e-10
6.60316e-10
1.17775e-09
2.63594e-09
4.00878e-09
4.05273e-09
3.1835e-09
2.15321e-09
-3.34712e-11
-1.30895e-11
7.58442e-14
1.40001e-12
3.16536e-12
6.46952e-12
1.31229e-11
2.55171e-11
4.89874e-11
9.44816e-11
1.68992e-10
2.69256e-10
3.65456e-10
4.19165e-10
4.35996e-10
4.44896e-10
4.68721e-10
5.97665e-10
1.442e-09
3.80015e-09
4.59961e-09
4.59961e-09
4.43374e-09
-3.0625e-11
-1.35454e-11
-2.05041e-13
2.92537e-12
7.05773e-12
1.47363e-11
2.77869e-11
4.59141e-11
7.04894e-11
1.04244e-10
1.5104e-10
1.93684e-10
2.0124e-10
1.96649e-10
1.90208e-10
1.89353e-10
1.89353e-10
1.89345e-10
2.48614e-10
6.41179e-10
1.39209e-09
1.64829e-09
1.54487e-09
-2.75388e-11
-1.3769e-11
-2.72966e-12
2.09176e-12
8.42228e-12
1.68107e-11
2.72028e-11
3.97488e-11
5.80202e-11
7.37228e-11
7.39163e-11
7.04342e-11
7.05378e-11
9.81157e-11
4.44645e-10
7.21036e-09
1.64412e-08
1.89781e-10
2.32711e-10
6.59509e-10
9.24392e-10
9.759e-10
9.88346e-10
-1.58819e-09
-4.39462e-10
-1.27692e-10
-6.16641e-11
-4.28776e-11
-3.07191e-11
-1.57832e-11
-1.05286e-12
5.60242e-12
1.02062e-11
1.23663e-11
4.50151e-11
8.47037e-10
1.63175e-08
6.02131e-07
3.6561e-06
4.59137e-06
3.22856e-06
3.10448e-07
6.59544e-10
1.58294e-10
8.73499e-10
1.0124e-09
-8.48965e-09
-3.4755e-09
-1.50075e-09
-7.70264e-10
-4.86049e-10
-3.53681e-10
-2.70592e-10
-2.04364e-10
-1.46655e-10
-5.53925e-11
7.93327e-10
1.23759e-07
1.29485e-06
2.53373e-05
9.90298e-05
0.00011044
2.82433e-05
2.00069e-06
5.01423e-07
1.03681e-07
1.95399e-08
5.09406e-09
1.90047e-09
-1.76254e-08
-8.58237e-09
-4.24815e-09
-2.22576e-09
-1.07969e-09
4.07181e-06
3.24032e-05
3.96928e-05
2.87175e-05
1.06379e-06
1.57018e-09
4.79909e-05
0.000406195
0.000867999
0.000463268
3.2376e-05
8.35932e-06
2.14749e-06
5.30418e-07
2.03767e-07
1.03922e-07
2.51707e-08
4.35687e-05
0.000370974
-2.43136e-13
1.20464e-22
-1.51773e-24
4.66835e-06
4.69536e-06
9.70352e-05
0.000538126
0.000559968
0.000717699
0.00365937
0.00457339
0.00446458
0.00106206
0.00014173
6.11391e-05
6.90214e-06
1.72218e-06
5.49756e-07
2.6911e-07
2.07726e-07
2.05158e-07
1.11695e-06
0.00152955
0.000767449
0.000798759
0.00158788
0.00147287
0.000221765
0.00031227
0.000796999
0.0107772
0.0153356
0.00744181
0.00290651
0.00291739
0.00408104
0.00123606
8.47033e-05
1.60122e-05
3.27197e-06
8.26442e-07
3.54257e-07
2.69777e-07
3.08994e-07
3.4328e-07
0.00115843
0.00219785
0.00221287
0.0022023
0.00138216
0.000231536
0.00148388
0.0174397
0.0126839
0.0152004
0.0181371
0.0228441
0.0265802
0.0158066
0.0456718
0.104525
0.198109
0.199264
0.178189
0.173782
0.167572
0.152353
0.204339
0.0002391
0.00217032
0.00215558
0.00140296
0.000434908
0.000243512
0.000288314
0.0694729
0.204657
0.206
0.206647
0.206313
0.179038
0.00622391
0.0960748
0.505308
0.550274
0.555574
0.560167
0.563006
0.564762
0.566344
0.567226
0.000159205
0.00039129
0.000331511
0.000321259
0.000139702
0.000139702
0.00145072
0.00415172
0.00921342
0.010481
0.0125757
0.0112436
0.00637244
0.00293304
0.00374697
0.0148804
0.03275
0.0339676
0.0372114
0.0318596
0.0329728
0.0299753
0.0355014
3.07214e-16
3.00047e-14
9.90713e-14
1.17327e-13
7.28781e-14
2.00374e-13
2.72393e-13
2.54287e-13
5.68956e-13
1.18844e-12
1.46531e-12
1.72115e-12
2.74528e-12
5.15113e-12
6.70746e-12
1.0437e-11
9.69796e-12
1.64552e-11
2.1192e-11
3.05221e-11
2.54748e-11
4.00451e-11
5.10905e-11
6.74551e-11
5.29268e-11
7.78301e-11
9.42925e-11
1.18723e-10
8.84157e-11
1.22117e-10
1.45953e-10
1.8373e-10
1.26323e-10
1.67638e-10
2.05767e-10
2.61013e-10
1.67447e-10
2.16996e-10
2.65907e-10
3.25074e-10
2.06513e-10
2.60584e-10
3.12413e-10
3.698e-10
2.39853e-10
2.9872e-10
3.57183e-10
4.18381e-10
2.6794e-10
3.30224e-10
3.9312e-10
4.53013e-10
2.83266e-10
3.38935e-10
3.93067e-10
4.4387e-10
2.90549e-10
3.40232e-10
3.86689e-10
4.27585e-10
3.07226e-10
3.53396e-10
3.9678e-10
4.37024e-10
3.39406e-10
3.81526e-10
4.21066e-10
4.58572e-10
3.41408e-10
3.81226e-10
4.19066e-10
4.54474e-10
3.06615e-10
3.38833e-10
3.68032e-10
3.93026e-10
2.03593e-10
2.15326e-10
2.2414e-10
2.30114e-10
1.75597e-10
2.06392e-10
2.4279e-10
2.75502e-10
2.04806e-10
2.2013e-10
2.29635e-10
2.31111e-10
2.12199e-10
2.23074e-10
2.26555e-10
2.24859e-10
1.42542e-10
1.55899e-10
1.63971e-10
1.68019e-10
6.39628e-11
7.12511e-11
7.8932e-11
8.96568e-11
9.03577e-11
9.70409e-11
1.06924e-10
1.1483e-10
3.59351e-10
3.54081e-10
3.39353e-10
3.11198e-10
3.56084e-10
3.55637e-10
3.35471e-10
3.10829e-10
4.38312e-10
7.25589e-10
2.83292e-09
5.86524e-09
4.55354e-10
2.1015e-09
5.78568e-08
7.08421e-08
1.95438e-09
1.98885e-09
1.88792e-09
1.99087e-09
3.67208e-09
2.67533e-09
1.78399e-09
2.13266e-09
1.43521e-09
1.42847e-09
1.43144e-09
2.59348e-08
1.43558e-09
9.57316e-09
9.57465e-09
2.76319e-09
1.56306e-09
2.76292e-09
3.03733e-09
3.15199e-09
2.10648e-09
2.49374e-09
3.05016e-09
3.38782e-09
7.01392e-05
7.12866e-05
7.17776e-05
7.25033e-05
4.18897e-05
7.15612e-05
7.26697e-05
7.2222e-05
5.09879e-07
1.15638e-06
2.28032e-06
2.92253e-06
0.45065
0.49516
0.257107
0.138375
0.567224
0.567226
0.566642
0.565119
0.0359624
0.0379571
0.037463
0.0411347
2.43513e-13
2.19142e-12
1.7611e-11
8.25984e-11
4.72394e-10
3.27787e-09
2.42869e-08
1.7007e-07
1.08391e-06
2.63099e-05
0.000238071
0.000593406
0.00129497
0.00148388
0.00129049
0.0041155
0.0221879
0.11995
0.467236
1.70028e-12
1.12098e-11
5.5418e-11
3.27096e-10
2.20005e-09
1.62531e-08
1.16916e-07
7.91639e-07
2.03322e-05
0.000275519
0.000474469
0.000406234
2.53659e-05
6.67689e-08
6.89312e-08
1.59087e-07
0.000860636
0.0627691
0.735113
9.44808e-12
3.52228e-11
1.94678e-10
1.13715e-09
8.20929e-09
5.77515e-08
3.98666e-07
4.76572e-06
0.000172369
0.000296753
0.000256883
1.64078e-05
6.65568e-08
6.67689e-08
6.66048e-08
6.91155e-08
1.58523e-07
0.0175507
0.738638
3.47224e-11
8.39806e-11
4.03025e-10
2.36887e-09
1.59008e-08
1.06173e-07
6.94663e-07
4.13173e-05
0.000172843
0.000157315
1.19409e-07
7.41463e-08
6.72622e-08
6.65703e-08
6.72622e-08
6.80391e-08
6.85925e-08
0.0135638
0.740821
8.20926e-11
1.74288e-10
7.28881e-10
4.69381e-09
3.09938e-08
2.07685e-07
4.66652e-06
7.34496e-05
9.50284e-05
9.82747e-07
3.86791e-07
1.12936e-07
7.25099e-08
6.72239e-08
6.84986e-08
9.37318e-08
6.54201e-08
0.00919325
0.740821
1.49718e-10
3.03256e-10
1.27186e-09
8.30218e-09
5.58439e-08
3.83448e-07
2.46043e-05
6.91885e-05
2.69688e-05
1.32517e-06
1.01241e-06
2.67785e-07
9.69798e-08
7.24365e-08
8.7333e-08
9.24473e-08
6.59101e-08
5.05796e-06
0.740636
2.35602e-10
4.23633e-10
1.70356e-09
1.08423e-08
7.2587e-08
7.55781e-07
3.28636e-05
6.19898e-05
1.09259e-05
3.61775e-06
5.31388e-06
1.45403e-06
2.5269e-07
1.37815e-07
7.44017e-08
7.24615e-08
6.5465e-08
7.67311e-08
0.615088
3.24857e-10
5.04507e-10
1.8198e-09
1.13711e-08
7.8376e-08
2.20039e-06
3.7092e-05
5.40131e-05
1.60635e-05
4.97958e-05
0.000151749
7.11515e-06
3.3383e-06
1.70351e-06
9.12468e-08
7.37572e-08
4.58997e-07
2.84134e-07
0.469006
3.93344e-10
5.25667e-10
2.00794e-09
1.33248e-08
8.04774e-08
5.39207e-06
2.8669e-05
1.79354e-05
2.14182e-05
0.000214345
0.00123084
0.0003426
4.35073e-05
2.61339e-06
1.55887e-07
7.74299e-08
1.00871e-06
1.14636e-07
0.58249
4.21147e-10
4.84445e-10
2.67151e-09
1.97851e-08
1.13426e-07
3.64848e-06
7.99441e-06
3.18378e-06
1.06429e-05
0.000371956
0.00127802
0.00126575
0.000112489
2.16388e-06
1.7732e-07
7.95473e-08
9.85353e-07
8.43457e-08
0.76465
4.70257e-10
5.62906e-10
2.41745e-09
1.66775e-08
9.54579e-08
1.48038e-06
2.35598e-06
9.40531e-07
1.28449e-06
0.000864032
0.00127899
0.00127682
0.000144142
7.10467e-07
1.68242e-07
8.64776e-08
1.89312e-07
8.14179e-08
0.805018
5.44034e-10
7.12028e-10
1.46887e-09
9.41963e-09
5.83091e-08
4.14433e-07
3.93911e-07
1.04793e-07
1.131e-07
0.00127065
0.00127682
0.00116363
4.93841e-05
5.64437e-07
2.3291e-07
1.4448e-07
1.10172e-07
8.16914e-08
0.816074
5.52755e-10
6.58912e-10
6.70013e-10
5.32587e-09
5.03353e-08
1.43038e-07
1.57649e-08
1.88841e-08
2.20847e-08
0.00125192
0.00127397
0.000464094
1.89601e-06
6.16835e-07
3.83704e-07
3.67087e-07
1.15929e-07
0.00139
0.86699
5.08059e-10
5.52353e-10
5.60023e-10
4.12758e-09
3.30111e-08
5.38226e-08
1.45492e-08
1.24587e-08
1.94637e-08
0.000693673
0.00126842
0.000509425
2.15726e-06
6.44659e-07
4.06757e-07
3.80208e-07
0.00179631
0.00144808
0.92516
4.88737e-10
5.59977e-10
6.75116e-10
3.36144e-09
1.37065e-08
8.91734e-09
2.94176e-09
2.45145e-09
1.92797e-08
0.000421633
0.00124044
0.000175571
9.45062e-07
4.68147e-07
5.05803e-07
4.0633e-07
0.0188258
0.156687
0.960355
5.07411e-10
6.09091e-10
8.02406e-10
1.70419e-09
3.65754e-09
3.41596e-09
2.82318e-09
-3.43964e-09
0.000143023
0.000653194
0.000322104
1.28287e-05
3.99876e-07
3.2812e-07
4.78016e-07
8.92537e-07
0.063492
0.753838
0.982351
5.26373e-10
6.21939e-10
7.51525e-10
9.6229e-10
1.34446e-09
2.54867e-09
2.58264e-09
1.59709e-09
0.000645947
0.000653194
1.64271e-05
3.53711e-07
3.10298e-07
3.26668e-07
4.75117e-06
1.36771e-05
0.0636902
0.96925
0.994314
5.12766e-10
5.83773e-10
6.4009e-10
6.71783e-10
7.69618e-10
2.34411e-09
2.61465e-09
3.40759e-09
0.000563204
0.000540958
2.95605e-05
2.29846e-07
2.54814e-07
3.08898e-07
1.44874e-05
6.00756e-05
0.0477267
0.935738
0.994672
4.26061e-10
4.55736e-10
4.93236e-10
6.01377e-10
3.57188e-09
2.62127e-09
3.13957e-09
2.81483e-05
7.57766e-05
4.06825e-08
2.70333e-07
2.01052e-07
2.25974e-07
2.54735e-07
4.46841e-05
0.000269138
0.0375249
0.880371
0.994681
2.39935e-10
2.52584e-10
1.02417e-09
2.40682e-08
2.13222e-07
4.38131e-09
6.67173e-08
3.56248e-05
2.195e-08
4.06825e-08
4.18825e-08
1.00448e-07
2.05907e-07
3.25957e-07
0.000159347
0.000640958
0.0487376
0.888063
0.994681
3.18151e-10
3.52354e-10
9.01488e-09
2.31281e-07
3.81033e-07
1.50812e-07
1.50699e-07
9.6769e-06
6.96335e-10
2.09055e-08
4.48325e-08
1.69942e-07
3.4963e-07
6.99276e-07
0.000377545
0.00127392
0.0935574
0.955896
0.994681
2.26196e-10
2.61678e-10
2.17384e-08
3.35092e-07
3.81033e-07
3.5853e-07
2.07219e-07
2.76801e-10
4.02107e-10
1.40118e-07
1.98594e-07
5.24044e-07
4.93755e-06
2.34024e-05
0.000610307
0.0035382
0.208481
0.996195
0.993615
2.17087e-10
2.58942e-10
6.43653e-09
4.33465e-08
1.49403e-07
4.70049e-08
8.55504e-09
2.58241e-10
2.26359e-09
3.27089e-07
9.50793e-06
9.83531e-06
1.26502e-05
0.000113578
0.000650728
0.0440351
0.535983
0.996493
0.996567
2.1236e-10
5.06914e-10
9.14387e-10
1.3583e-10
1.34966e-10
1.36712e-10
1.44449e-10
2.35625e-10
1.8033e-09
4.04087e-07
1.50339e-05
1.95698e-05
1.66495e-05
0.000129958
0.000455102
0.194375
0.89552
0.996406
0.99645
1.14924e-10
1.40923e-10
1.33737e-10
1.33736e-10
1.36011e-10
1.56378e-10
2.98244e-10
3.78126e-10
2.62999e-09
3.43233e-07
1.70942e-06
7.73604e-06
1.57869e-05
0.000126418
0.000426784
0.33044
0.996432
0.99641
0.996385
1.20363e-10
1.30803e-10
1.37999e-10
1.67518e-10
3.56031e-10
6.6511e-10
8.7001e-10
4.91413e-10
6.17707e-09
1.65398e-07
9.0965e-08
1.25138e-07
1.18638e-05
0.0001347
0.000676134
0.403528
0.996415
0.996418
0.99641
2.57461e-10
2.07934e-10
2.21757e-10
3.38667e-10
8.30573e-10
1.34471e-09
1.23051e-09
7.77513e-10
1.405e-09
1.09284e-08
3.85983e-08
1.45401e-07
1.12841e-05
0.000146552
0.00197609
0.450229
0.996424
0.996421
0.996421
2.80152e-10
2.49178e-10
2.54274e-10
4.3507e-10
1.07214e-09
1.94102e-09
1.49207e-09
1.49784e-09
2.76207e-09
3.64291e-08
1.10862e-07
4.98417e-07
1.56639e-05
0.00015112
0.00686597
0.515822
0.996424
0.996423
0.996304
1.45806e-08
1.12515e-08
3.9472e-09
4.521e-09
4.2999e-09
4.24662e-09
1.67899e-09
3.32555e-09
2.17087e-07
3.20394e-07
1.88002e-07
1.25212e-06
1.86306e-05
0.000107241
0.0224986
0.613283
0.996428
0.996422
0.996174
7.08753e-08
6.97202e-08
4.21007e-08
4.51495e-08
4.2445e-08
1.6734e-08
1.76952e-09
3.43977e-08
1.44635e-06
1.58063e-06
3.64846e-07
2.55067e-06
1.95222e-05
0.000153977
0.0371759
0.66875
0.996433
0.996425
0.996175
3.42146e-08
6.49381e-08
6.47693e-08
6.50325e-08
6.47931e-08
2.81304e-08
2.23215e-09
2.64521e-07
1.71718e-06
1.77135e-06
7.90936e-07
4.38713e-06
3.90789e-05
0.000219109
0.0430131
0.683115
0.996439
0.996433
0.996368
1.1811e-08
2.42198e-08
2.33217e-08
2.56156e-08
5.77818e-08
2.206e-08
3.52345e-09
4.29739e-07
1.77135e-06
1.79041e-06
1.265e-06
5.55191e-06
5.49667e-05
0.000315129
0.0638637
0.728137
0.996443
0.996439
0.996433
2.80925e-07
3.52397e-07
2.12132e-07
5.20321e-08
4.23046e-08
2.44827e-08
7.79368e-09
2.63679e-07
1.37388e-06
1.42883e-06
1.52758e-06
5.8808e-06
4.95971e-05
0.000444783
0.102856
0.797213
0.996446
0.996443
0.996259
5.72618e-08
3.60018e-07
3.61916e-07
2.74149e-07
6.20755e-08
8.30357e-08
4.66945e-08
3.41215e-07
6.08655e-07
7.77958e-07
1.18421e-06
7.0397e-06
6.19381e-05
0.00056067
0.11643
0.82659
0.996446
0.996417
0.995695
5.93853e-09
1.90925e-08
7.53837e-09
9.50552e-09
4.70065e-06
1.32521e-05
1.14448e-05
4.8074e-06
9.42301e-07
1.25871e-06
1.94837e-06
1.80295e-05
0.000139629
0.000808829
0.107455
0.845786
0.996446
0.995712
0.995694
3.51039e-09
3.6036e-09
3.63677e-09
4.07906e-06
2.24235e-05
2.30704e-05
2.30746e-05
1.9683e-05
1.91447e-06
1.98042e-06
7.80583e-06
7.39803e-05
0.000477003
0.00179725
0.130696
0.890639
0.996436
0.996178
0.9962
7.22752e-05
5.72563e-05
5.14625e-06
1.17633e-05
2.2977e-05
2.3075e-05
2.30704e-05
1.47672e-05
2.41372e-06
4.56441e-06
5.48408e-05
0.000454207
0.00178845
0.00623049
0.415782
0.951386
0.996404
0.99635
0.996312
6.89504e-05
1.64974e-05
1.27193e-06
2.26643e-06
6.7674e-06
8.38022e-06
4.66487e-06
3.11397e-06
5.51547e-06
4.00763e-05
0.000312005
0.00139383
0.00426557
0.150293
0.737404
0.996094
0.996354
0.996315
0.996304
1.64522e-06
1.26517e-06
1.27867e-06
9.08125e-07
8.22847e-07
7.82478e-07
7.82478e-07
7.82478e-07
0.00110083
0.00773257
0.0348395
0.107682
0.321813
0.727354
0.995717
0.996338
0.996414
0.996304
0.996298
0.393212
0.45444
0.454763
0.426249
0.355207
0.339442
0.356207
0.394378
0.463564
0.552922
0.653937
0.786389
0.969346
0.995684
0.996319
0.996312
0.996358
0.996298
0.996305
0.559304
0.312229
0.374288
0.733525
0.840491
0.848011
0.850401
0.863884
0.874599
0.891178
0.917026
0.943873
0.990199
0.996099
0.996288
0.996317
0.996306
0.996303
0.9963
0.0399939
0.0336559
0.0356328
0.050169
0.056808
0.0517876
0.0493981
0.0592143
0.0669297
0.0685343
0.0870923
0.102177
0.135671
0.152377
0.192062
0.204987
0.253358
0.249564
0.30462
)
;

boundaryField
{
    leftWall
    {
        type            zeroGradient;
    }
    rightWall
    {
        type            zeroGradient;
    }
    lowerWall
    {
        type            zeroGradient;
    }
    atmosphere
    {
        type            inletOutlet;
        inletValue      uniform 0;
        value           nonuniform List<scalar> 
46
(
0.000159205
0
0.000331511
0
0.000139702
0.000139702
0
0.00415172
0
0
0.0125757
0
0.00637244
0
0.00374697
0
0.03275
0
0.0372114
0
0.0329728
0
0.0355014
0
0
0
0.0411347
0.0399939
0
0
0.050169
0.056808
0
0
0.0592143
0.0669297
0
0.0870923
0
0.135671
0
0.192062
0
0.253358
0
0.30462
)
;
    }
    defaultFaces
    {
        type            empty;
    }
}


// ************************************************************************* //
