/*--------------------------------*- C++ -*----------------------------------*\
  =========                 |
  \\      /  F ield         | OpenFOAM: The Open Source CFD Toolbox
   \\    /   O peration     | Website:  https://openfoam.org
    \\  /    A nd           | Version:  9
     \\/     M anipulation  |
\*---------------------------------------------------------------------------*/
FoamFile
{
    format      ascii;
    class       volScalarField;
    location    "0.8";
    object      alpha.water;
}
// * * * * * * * * * * * * * * * * * * * * * * * * * * * * * * * * * * * * * //

dimensions      [0 0 0 0 0 0 0];

internalField   nonuniform List<scalar> 
2268
(
1
1
1
1
1
1
1
1
1
1
1
1
1
1
0.999999
0.999995
0.999935
0.984582
0.962927
0.962927
0.962927
0.984283
0.999733
1
1
1
1
1
1
1
1
1
1
1
1
1
1
1
1
1
0.998867
0.984063
0.966486
0.964139
0.978853
0.999737
1
1
1
1
1
1
1
1
1
1
1
1
1
1
1
1
1
1
1
1
0.99888
0.99978
0.999739
1
1
1
1
1
1
1
1
1
1
1
1
1
1
1
1
1
1
1
1
1
1
0.999742
1
1
1
1
1
1
1
1
1
1
1
1
1
1
1
1
1
1
1
1
0.999999
0.999904
0.99966
1
1
1
1
1
1
1
1
1
1
1
1
1
1
1
1
1
1
1
1
0.999996
0.999764
0.999658
1
1
1
1
0.999995
0.999986
0.999985
0.999989
1
1
1
1
1
1
1
1
1
1
1
1
0.999998
0.999909
0.999667
1
1
1
1
1
1
0.999998
0.999998
0.999999
0.999989
0.999976
0.999976
0.999992
1
1
1
1
1
0.999999
0.999996
0.999981
0.999942
0.999843
0.998123
0.997755
0.985527
0.981787
0.981768
0.981826
0.982129
0.991496
0.997648
0.997491
0.997331
0.994637
0.973998
0.957799
0.945298
0.945508
0.95471
0.954703
0.933476
0.998141
0.997766
0.995597
0.994223
0.99566
0.99719
0.997615
0.997709
0.997681
0.99764
0.997498
0.997209
0.996119
0.993987
0.949927
0.900764
0.899589
0.929853
0.965749
0.998199
0.998199
0.998157
0.998031
0.997906
0.997818
0.997818
0.997783
0.99769
0.997529
0.996727
0.990385
0.978885
0.964255
0.961706
0.934715
0.897571
0.897381
0.928954
0.99824
0.99838
0.998231
0.99816
0.998027
0.997905
0.993989
0.994694
0.996652
0.996298
0.994569
0.94789
0.802369
0.760733
0.852004
0.935958
0.937606
0.90459
0.869897
0.998357
0.998405
0.977215
0.845068
0.799649
0.789653
0.768665
0.756574
0.819847
0.922069
0.976913
0.9185
0.760775
0.757743
0.757743
0.814606
0.941583
0.942523
0.86994
0.997705
0.930616
0.514688
0.198899
0.123425
0.0769666
0.0536793
0.050159
0.137569
0.319636
0.630479
0.852095
0.849678
0.772769
0.759479
0.763004
0.91126
0.943096
0.919387
0.993719
0.887278
0.089405
0.0552085
0.0456229
0.0434415
0.0434492
0.0434492
0.0444822
0.0502551
0.256882
0.81989
0.847056
0.844477
0.834182
0.77565
0.814831
0.943523
0.943169
0.999236
0.820788
0.0677945
0.0564505
0.0533087
0.22533
0.187217
0.0444784
0.0451677
0.0496074
0.249335
0.79966
0.844477
0.826075
0.769971
0.927717
0.937554
0.943453
0.943623
0.970063
0.960382
0.953581
0.958677
0.979263
0.999999
0.999999
0.999999
0.999999
0.999999
0.999999
0.999999
0.999999
0.999985
0.99997
0.999981
0.999997
0.999992
0.999984
0.999943
0.999862
0.999846
0.999824
0.279338
0.27162
0.27289
0.290023
0.336845
0.417026
0.532453
0.648816
0.75842
0.858483
0.941167
0.989765
0.999998
0.999994
0.999956
0.99996
0.999921
0.999853
0.999715
0.999119
0.998501
0.999112
0.999622
0.00111992
0.000824043
0.000866983
0.000833402
0.000871323
0.00171194
0.00986179
0.0320711
0.0712455
0.12637
0.190279
0.261172
0.366686
0.527829
0.68507
0.768344
0.798165
0.815877
0.837008
0.831037
0.783784
0.774989
0.971897
7.68872e-05
5.48943e-05
6.08153e-05
5.71623e-05
4.94869e-05
4.46618e-05
6.57278e-05
0.000162129
0.000296382
0.000347231
0.000266631
8.91605e-05
8.59841e-06
1.09925e-09
4.63229e-09
6.21609e-08
0.0185481
0.0900212
0.135276
0.139421
0.103442
0.231116
0.874305
4.85075e-06
3.70747e-06
4.33153e-06
4.06228e-06
3.35258e-06
2.78954e-06
2.58634e-06
2.51122e-06
2.48322e-06
1.77165e-06
8.05949e-07
3.20462e-07
1.09925e-09
1.09929e-09
1.09925e-09
4.60961e-09
5.60694e-08
8.88542e-07
1.27527e-05
0.000174539
0.00197933
0.107119
0.786471
2.91369e-07
2.43047e-07
2.97829e-07
2.82034e-07
2.27407e-07
1.79649e-07
1.54041e-07
1.33309e-07
9.89045e-08
6.0484e-08
2.78026e-08
9.76439e-09
6.4098e-09
1.1299e-08
6.30071e-09
4.47431e-08
5.58029e-07
6.69175e-06
6.97343e-05
0.00050726
0.00314417
0.046197
0.603916
1.67104e-08
1.52325e-08
1.94132e-08
1.86896e-08
1.49758e-08
1.14809e-08
9.3414e-09
7.50393e-09
5.09342e-09
3.63205e-09
2.1136e-09
1.18762e-09
1.9639e-09
3.40144e-09
3.72454e-09
2.3668e-08
3.40005e-07
4.09635e-06
3.95571e-05
0.000414762
0.00162783
0.00679624
0.309588
9.10539e-10
9.04659e-10
1.19323e-09
1.17183e-09
9.4291e-10
7.12427e-10
5.60339e-10
4.29461e-10
2.71541e-10
1.68314e-10
7.22415e-11
1.41817e-11
1.20802e-11
2.15175e-11
4.63298e-10
6.95785e-09
1.05457e-07
1.33383e-06
1.35655e-05
0.000109667
0.00055524
0.0027841
0.115749
4.68282e-11
5.05596e-11
6.88048e-11
6.88792e-11
5.54869e-11
4.08381e-11
3.05464e-11
2.28267e-11
1.20332e-11
2.04989e-12
1.81238e-44
8.09827e-28
-2.37514e-11
-3.23931e-27
2.73548e-11
1.17245e-09
1.95732e-08
2.50255e-07
2.64637e-06
2.0229e-05
0.000146284
0.000844615
0.0076024
2.43344e-12
2.91418e-12
4.04841e-12
4.03078e-12
3.00561e-12
1.43691e-12
-7.00601e-14
-3.61614e-15
0
-8.09827e-28
-2.65471e-11
-4.74796e-11
-6.72559e-11
-6.17266e-11
0
7.27494e-11
2.00057e-09
3.34558e-08
3.98415e-07
3.73041e-06
2.91388e-05
0.000199277
0.00116438
1.12421e-13
2.50729e-13
3.03607e-13
1.38055e-13
1.23968e-13
6.94867e-14
-1.06714e-12
-6.83553e-12
-1.42988e-11
-2.43779e-11
-3.56923e-11
-4.44553e-11
-4.94451e-11
-4.72233e-11
-1.60437e-11
1.43901e-12
1.70154e-10
3.87306e-09
5.41514e-08
5.55127e-07
4.53e-06
2.91181e-05
0.000170375
-1.98137e-18
4.59623e-15
6.81779e-15
-8.3082e-14
-8.97072e-13
-2.20434e-12
-4.23396e-12
-6.95526e-12
-1.04615e-11
-1.4711e-11
-1.89747e-11
-2.23264e-11
-2.3586e-11
-2.24495e-11
-1.70323e-11
6.98512e-13
1.43573e-11
3.55893e-10
6.13489e-09
7.05207e-08
6.1277e-07
3.80181e-06
2.36083e-05
-8.47653e-14
-5.72479e-14
-1.17757e-13
-3.13112e-13
-6.46388e-13
-1.12406e-12
-1.79442e-12
-2.70064e-12
-3.88956e-12
-5.30335e-12
-6.78018e-12
-7.98351e-12
-8.47559e-12
-8.18779e-12
-6.87691e-12
1.00429e-28
5.97859e-12
4.14443e-11
5.94399e-10
7.74982e-09
7.68301e-08
5.12912e-07
2.48368e-06
-3.29147e-14
-2.74758e-14
-5.25311e-14
-1.1442e-13
-2.07634e-13
-3.30964e-13
-4.9774e-13
-7.25766e-13
-1.03612e-12
-1.41255e-12
-1.84803e-12
-2.22643e-12
-2.43289e-12
-2.42142e-12
-2.08621e-12
-3.44723e-13
1.65296e-12
5.92721e-12
7.10084e-11
7.97812e-10
8.71299e-09
6.03223e-08
3.06005e-07
-9.31332e-15
-7.94217e-15
-1.46577e-14
-2.96831e-14
-5.01833e-14
-7.51788e-14
-1.07868e-13
-1.53156e-13
-2.17932e-13
-2.98893e-13
-4.0552e-13
-5.05259e-13
-5.74929e-13
-5.9505e-13
-5.18072e-13
-1.39896e-13
1.73492e-13
1.24885e-12
8.49917e-12
1.02027e-10
9.769e-10
6.98866e-09
3.51832e-08
-2.31268e-15
-1.91544e-15
-3.39749e-15
-6.46154e-15
-1.02069e-14
-1.43062e-14
-1.94406e-14
-2.67089e-14
-3.77871e-14
-5.20774e-14
-7.37385e-14
-9.55438e-14
-1.13863e-13
-1.23206e-13
-1.08166e-13
-3.05829e-14
7.73944e-15
1.3878e-13
1.24687e-12
1.2616e-11
1.2444e-10
7.9268e-10
3.9991e-09
-5.13924e-16
-4.04542e-16
-6.86708e-16
-1.22587e-15
-1.80513e-15
-2.35037e-15
-2.99541e-15
-3.94936e-15
-5.52869e-15
-7.63171e-15
-1.13077e-14
-1.52763e-14
-1.91144e-14
-2.16813e-14
-1.92225e-14
-5.35768e-15
1.60128e-17
9.22442e-15
1.43019e-13
1.31616e-12
1.48297e-11
9.86149e-11
4.41563e-10
-1.00946e-16
-7.45611e-17
-1.20871e-16
-2.02881e-16
-2.78914e-16
-3.3653e-16
-3.99769e-16
-5.02462e-16
-6.9243e-16
-9.53849e-16
-1.47921e-15
-2.08494e-15
-2.74017e-15
-3.26098e-15
-2.9271e-15
-8.16494e-16
-5.1987e-19
5.8428e-16
9.64393e-15
1.18394e-13
1.39337e-12
1.06317e-11
5.33472e-11
-1.72812e-17
-1.18623e-17
-1.83451e-17
-2.90743e-17
-3.75127e-17
-4.20596e-17
-4.65185e-17
-5.55105e-17
-7.4951e-17
-1.02667e-16
-1.66362e-16
-2.44438e-16
-3.37082e-16
-4.20643e-16
-3.83233e-16
-1.09913e-16
-4.21228e-20
3.34875e-17
5.07166e-16
9.10491e-15
1.13901e-13
9.17781e-13
5.1093e-12
-2.56025e-18
-1.62049e-18
-2.3887e-18
-3.59176e-18
-4.37849e-18
-4.58925e-18
-4.73863e-18
-5.35944e-18
-7.06051e-18
-9.58338e-18
-1.6174e-17
-2.47201e-17
-3.56873e-17
-4.66194e-17
-4.31939e-17
-1.3003e-17
-8.06152e-23
1.82345e-18
3.35971e-17
6.60833e-16
8.37017e-15
7.16179e-14
4.39443e-13
-3.2878e-19
-1.90722e-19
-2.67612e-19
-3.83204e-19
-4.43973e-19
-4.37908e-19
-4.24021e-19
-4.54452e-19
-5.81917e-19
-7.79806e-19
-1.36451e-18
-2.16215e-18
-3.25671e-18
-4.4413e-18
-4.18916e-18
-1.33852e-18
0
2.08084e-19
2.88455e-18
4.79322e-17
6.91497e-16
8.00571e-15
7.27282e-14
-3.68626e-20
-1.95126e-20
-2.60125e-20
-3.55451e-20
-3.92974e-20
-3.66771e-20
-3.34524e-20
-3.39869e-20
-4.21425e-20
-5.55318e-20
-1.00161e-19
-1.63804e-19
-2.56276e-19
-3.63464e-19
-3.48969e-19
-1.18596e-19
-4.27357e-21
7.60344e-20
9.03621e-19
1.01596e-17
2.25267e-16
4.78027e-15
6.70883e-14
-3.64227e-21
-1.75435e-21
-2.21691e-21
-2.8924e-21
-3.05762e-21
-2.71034e-21
-2.33642e-21
-2.25043e-21
-2.69153e-21
-3.4715e-21
-6.40923e-21
-1.07563e-20
-1.73816e-20
-2.55099e-20
-2.48906e-20
-8.89592e-21
5.29925e-22
2.77524e-20
3.27467e-19
4.63792e-18
1.92497e-16
5.63177e-15
8.26228e-14
-3.20088e-22
-1.40096e-22
-1.67403e-22
-2.08427e-22
-2.10759e-22
-1.77759e-22
-1.45098e-22
-1.32417e-22
-1.52092e-22
-1.90986e-22
-3.58003e-22
-6.12268e-22
-1.01484e-21
-1.53161e-21
-1.51262e-21
-5.37933e-22
5.04347e-22
7.80088e-21
9.4641e-20
2.02123e-18
1.60997e-16
5.85696e-15
8.58894e-14
-2.52247e-23
-1.00308e-23
-1.13076e-23
-1.34189e-23
-1.29688e-23
-1.04098e-23
-8.04858e-24
-6.94874e-24
-7.62684e-24
-9.26699e-24
-1.74741e-23
-3.02012e-23
-5.09184e-23
-7.83939e-23
-7.76031e-23
-2.10937e-23
1.38542e-22
1.88153e-21
2.72572e-20
1.10843e-18
1.33582e-16
5.52041e-15
8.02197e-14
-1.79483e-24
-6.49131e-25
-6.88945e-25
-7.78051e-25
-7.17502e-25
-5.47548e-25
-4.00583e-25
-3.26353e-25
-3.4039e-25
-3.97389e-25
-7.4598e-25
-1.29031e-24
-2.1907e-24
-3.40467e-24
-3.2831e-24
5.42631e-25
2.81358e-23
4.98164e-22
1.18525e-20
8.0484e-19
1.04807e-16
4.51085e-15
6.59149e-14
-1.15968e-25
-3.82248e-26
-3.81352e-26
-4.09153e-26
-3.59246e-26
-2.60131e-26
-1.7969e-26
-1.3767e-26
-1.35605e-26
-1.50917e-26
-2.78818e-26
-4.77235e-26
-8.06195e-26
-1.24487e-25
-1.04396e-25
2.92955e-25
6.94089e-24
2.04806e-22
8.06017e-21
6.38351e-19
7.6271e-17
3.35551e-15
5.24913e-14
-6.83753e-27
-2.05999e-27
-1.92973e-27
-1.96358e-27
-1.63745e-27
-1.1221e-27
-7.29665e-28
-5.23532e-28
-4.83707e-28
-5.08748e-28
-9.13541e-28
-1.52761e-27
-2.53015e-27
-3.76247e-27
-1.04821e-27
6.20864e-26
2.54803e-24
1.16367e-22
5.91152e-21
4.98969e-19
5.52777e-17
2.4679e-15
4.13581e-14
-3.69522e-28
-1.02109e-28
-8.97582e-29
-8.64755e-29
-6.83094e-29
-4.41652e-29
-2.69385e-29
-1.8015e-29
-1.55004e-29
-1.52643e-29
-2.62851e-29
-4.23228e-29
-6.74101e-29
-8.86114e-29
2.54673e-28
1.69435e-26
1.06568e-24
6.13731e-23
3.7199e-21
3.69226e-19
4.07827e-17
1.72194e-15
2.84447e-14
-1.83851e-29
-4.67657e-30
-3.85648e-30
-3.51222e-30
-2.62095e-30
-1.59354e-30
-9.08115e-31
-5.63147e-31
-4.47873e-31
-4.08931e-31
-6.65773e-31
-1.01551e-30
-1.51263e-30
-1.20515e-30
4.8967e-29
4.50108e-27
3.60407e-25
2.45435e-23
1.85001e-21
2.4588e-19
2.7381e-17
1.00311e-15
1.45754e-14
-8.45929e-31
-1.98769e-31
-1.53756e-31
-1.32164e-31
-9.29184e-32
-5.29463e-32
-2.80739e-32
-1.60588e-32
-1.17165e-32
-9.81972e-33
-1.4894e-32
-2.1126e-32
-2.74457e-32
8.68614e-32
9.52852e-30
9.75491e-28
8.95434e-26
7.24811e-24
7.25533e-22
1.32892e-19
1.44801e-17
4.48474e-16
5.33742e-15
-3.6163e-32
-7.87441e-33
-5.7137e-33
-4.62821e-33
-3.05733e-33
-1.62715e-33
-7.99427e-34
-4.19607e-34
-2.78781e-34
-2.12331e-34
-2.95546e-34
-3.79711e-34
-1.50495e-34
2.62444e-32
2.13647e-30
1.75745e-28
1.56078e-26
1.51294e-24
2.1524e-22
5.34532e-20
5.61641e-18
1.50724e-16
1.49567e-15
-1.4432e-33
-2.9206e-34
-1.98785e-34
-1.51496e-34
-9.37804e-35
-4.64609e-35
-2.10647e-35
-1.00942e-35
-6.06397e-36
-4.15643e-36
-5.22756e-36
-5.59214e-36
3.91171e-35
3.818e-33
3.3183e-31
2.66564e-29
2.09717e-27
2.00646e-25
4.11776e-23
1.32515e-20
1.3755e-18
3.49799e-17
3.23619e-16
-5.4034e-35
-1.01889e-35
-6.50491e-36
-4.65647e-36
-2.69391e-36
-1.23827e-36
-5.16063e-37
-2.24698e-37
-1.21252e-37
-7.41056e-38
-8.27439e-38
-4.32538e-38
3.45079e-36
3.23129e-34
3.01901e-32
2.57299e-30
2.06772e-28
1.95569e-26
4.09498e-24
1.3283e-21
1.58447e-19
5.54066e-18
7.33893e-17
-1.90816e-36
-3.35983e-37
-2.01191e-37
-1.35029e-37
-7.28074e-38
-3.09489e-38
-1.18127e-38
-4.65287e-39
-2.24202e-39
-1.21139e-39
-1.17201e-39
8.76068e-40
1.52365e-37
1.7442e-35
1.80482e-33
1.71622e-31
1.54539e-29
1.51955e-27
2.45315e-25
6.51115e-23
1.08764e-20
8.4377e-19
2.83463e-17
-6.39565e-38
-1.05279e-38
-5.91171e-39
-3.71201e-39
-1.86007e-39
-7.28852e-40
-2.53893e-40
-9.01127e-41
-3.85727e-41
-1.82831e-41
-1.47939e-41
4.14046e-41
4.93621e-39
6.3811e-37
7.42971e-35
8.02222e-33
8.38193e-31
9.13296e-29
1.27357e-26
2.81665e-24
7.16246e-22
1.28574e-19
9.56776e-18
-2.05025e-39
-3.15293e-40
-1.65904e-40
-9.721e-41
-4.51294e-41
-1.62488e-41
-5.14918e-42
-1.64114e-42
-6.21335e-43
-2.56609e-43
-1.67223e-43
5.30767e-43
8.6137e-41
1.24704e-38
1.61709e-36
1.9594e-34
2.41189e-32
3.27533e-30
5.25843e-28
1.15729e-25
3.96936e-23
1.24321e-20
1.38942e-18
-6.34558e-41
-9.08188e-42
-4.4704e-42
-2.43645e-42
-1.04448e-42
-3.44473e-43
-9.90175e-44
-2.82577e-44
-9.42982e-45
-3.37404e-45
-1.7516e-45
7.44719e-46
7.52456e-44
6.96533e-42
4.62295e-40
1.80614e-38
2.06043e-36
1.15153e-32
8.43435e-30
3.12603e-27
1.6924e-24
9.11391e-22
1.41163e-19
-1.91711e-42
-2.53483e-43
-1.16236e-43
-5.86976e-44
-2.31578e-44
-6.97572e-45
-1.81423e-45
-4.62535e-46
-1.35707e-46
-4.18779e-47
-1.59186e-47
8.09844e-49
3.36371e-47
9.28104e-46
1.62892e-44
2.22127e-42
1.11087e-39
4.23938e-37
1.73056e-34
2.11776e-29
1.6542e-26
8.47066e-24
1.78761e-21
-5.72235e-44
-6.90668e-45
-2.92981e-45
-1.3646e-45
-4.93959e-46
-1.35568e-46
-3.18377e-47
-7.23944e-48
-1.86448e-48
-4.94624e-49
-1.49466e-49
5.37759e-51
2.10628e-49
2.95311e-48
2.21164e-47
2.81453e-46
2.06006e-43
1.93908e-40
1.62858e-36
4.55314e-31
1.45638e-28
2.10406e-26
4.03126e-24
-1.70789e-45
-1.84568e-46
-7.18277e-47
-3.07401e-47
-1.01822e-47
-2.54155e-48
-5.38203e-49
-1.09037e-49
-2.46318e-50
-5.607e-51
-1.34662e-51
3.8719e-53
1.28875e-51
1.46702e-50
4.28917e-50
8.05504e-50
1.16215e-51
3.1156e-48
3.40595e-40
6.45052e-34
4.51166e-31
3.31876e-29
2.49276e-27
-5.30805e-47
-4.97869e-48
-1.75848e-48
-6.88262e-49
-2.07916e-49
-4.70442e-50
-8.9591e-51
-1.61358e-51
-3.19153e-52
-6.21931e-53
-1.18755e-53
1.41203e-55
1.44282e-53
5.30738e-52
6.73156e-53
4.42605e-53
5.57007e-56
1.68327e-83
4.32895e-78
7.62585e-49
8.34665e-41
6.43882e-34
7.9551e-31
0.999696
0.999649
0.999612
0.999575
0.999649
0.999464
0.999546
0.999534
0.999145
0.98451
0.865522
0.777229
0.993861
0.73958
0.161936
0.0229323
0.868794
0.249125
0.000403024
0.000403252
0.75354
0.187371
0.000593854
0.000403209
0.761159
0.497571
0.0873838
0.000582369
0.579938
0.596807
0.555102
0.203377
0.262963
0.539273
0.52966
0.504219
0.00620839
0.202679
0.468541
0.479751
0.000599733
0.00236225
0.0772402
0.293054
9.24376e-05
0.000374314
0.000509294
0.00867227
1.16489e-05
7.42354e-05
0.000228709
0.000103717
1.07101e-06
2.79315e-06
7.17068e-06
1.48328e-05
1.08509e-07
2.73422e-07
5.99798e-07
1.50194e-06
1.11579e-08
2.7036e-08
6.02064e-08
1.49911e-07
1.14781e-09
2.69415e-09
5.96195e-09
1.4372e-08
1.17764e-10
2.65776e-10
5.89604e-10
1.36177e-09
1.26038e-11
2.88127e-11
6.15958e-11
1.24388e-10
1.11103e-12
2.64168e-12
6.09661e-12
1.34705e-11
2.32596e-13
5.04467e-13
1.03896e-12
2.00172e-12
1.88607e-13
3.39752e-13
6.29091e-13
1.06884e-12
2.29209e-13
4.21245e-13
8.0177e-13
1.31449e-12
2.40762e-13
4.50088e-13
8.75946e-13
1.42526e-12
2.25837e-13
4.28946e-13
8.44918e-13
1.40996e-12
1.87664e-13
3.70068e-13
7.4504e-13
1.42171e-12
1.5454e-13
3.21376e-13
7.07857e-13
1.46009e-12
1.27582e-13
2.79624e-13
6.78448e-13
1.40994e-12
9.15623e-14
2.08837e-13
5.42298e-13
1.07198e-12
4.76584e-14
1.09771e-13
2.88206e-13
5.223e-13
1.6828e-14
3.7419e-14
9.45633e-14
1.57411e-13
4.42892e-15
9.23713e-15
2.12213e-14
3.22162e-14
9.33321e-16
1.92932e-15
4.32172e-15
8.10114e-15
2.50946e-16
6.81301e-16
2.28393e-15
8.69434e-15
1.5835e-16
5.86836e-16
1.93471e-15
8.9428e-15
8.77336e-17
4.41667e-16
1.29463e-15
4.44745e-15
1.87306e-17
1.38426e-16
4.66264e-16
8.36444e-16
2.14501e-18
2.26442e-17
1.01068e-16
1.81954e-16
3.49701e-20
7.75863e-19
6.20066e-18
2.59106e-17
6.64725e-23
3.26084e-21
6.63127e-20
1.23054e-18
3.22657e-26
3.92543e-24
2.27082e-22
1.12563e-20
1.09387e-29
2.67096e-27
4.89119e-25
2.65133e-23
0.999575
0.83528
0.22862
0.141246
0.256511
0.538165
0.544932
0.244241
0.0500348
0.101542
0.576381
0.785359
0.725255
0.293671
0.279408
0.60073
0.88252
0.932257
0.942212
0.999423
0.976821
0.928486
0.878112
0.796658
0.52132
0.54175
0.517071
0.0676248
0.194733
0.702057
0.755952
0.532103
0.0785017
0.0786349
0.080893
0.257397
0.459694
0.838276
0.765739
0.640249
0.498824
0.41454
0.328599
0.128834
0.350732
0.505908
0.0804224
0.260499
0.71701
0.737584
0.433737
0.0785039
0.0784499
0.0786349
0.0796807
0.0808869
0.205496
0.0290396
0.0203965
0.00886667
0.00888579
0.0170865
0.0373144
0.211368
0.450636
0.0986388
0.433557
0.708684
0.714881
0.279352
0.0785039
0.0786349
0.105678
0.0809135
0.0805444
0.0821777
0.000403253
0.000407157
0.000513096
0.00187693
0.00567248
0.0600186
0.205324
0.186316
0.124506
0.568017
0.707939
0.706015
0.210063
0.079278
0.112676
0.213114
0.190579
0.083001
0.083389
0.000407157
0.000446015
0.000585556
0.00122597
0.0247119
0.0820809
0.0667209
0.0114526
0.111272
0.517482
0.705534
0.523697
0.161915
0.097559
0.213114
0.213114
0.213744
0.193683
0.0837475
0.000522931
0.000585965
0.000841334
0.00878692
0.0311152
0.0301695
0.00212764
0.00227165
0.0252338
0.273442
0.697935
0.113423
0.124635
0.211359
0.212689
0.213114
0.21198
0.208949
0.138744
0.00193299
0.000636586
0.000933941
0.00807108
0.00879412
0.000661193
0.000370015
0.000305504
0.00279628
0.260573
0.651378
0.0325488
0.0909807
0.212263
0.206193
0.149943
0.206415
0.213496
0.206621
0.217917
0.000569466
0.000415655
0.000737013
0.000235057
0.000135026
7.69505e-05
5.15401e-05
0.00132281
0.574458
0.464143
0.0313065
0.0714947
0.176818
0.02387
0.000782757
0.0481231
0.213496
0.213082
0.454131
0.160281
0.000360249
0.000218718
7.14993e-05
5.5922e-05
5.18206e-05
5.18486e-05
0.041134
0.593176
0.153759
0.031119
0.0188687
0.000182485
9.38794e-05
8.71707e-05
0.000778072
0.0583827
0.205361
0.433618
0.38742
0.242476
7.14903e-05
6.01479e-05
6.05174e-05
5.59245e-05
0.000351651
0.351888
0.593176
0.0284597
0.0402734
0.0107991
0.000567886
8.38661e-05
5.34798e-06
0.000286134
0.0011992
0.194749
0.182215
0.38826
0.390452
0.360739
0.122599
0.0425176
0.100151
0.337988
0.439941
0.193875
0.020935
0.02217
0.0125294
5.45275e-05
8.6658e-05
1.85683e-06
0.000260323
0.00160669
0.0641147
0.000301887
0.0922848
0.350808
0.392075
0.393093
0.387051
0.381124
0.378622
0.220204
0.0152589
0.0208817
0.0230715
0.0123031
1.09079e-05
1.13428e-05
2.60866e-06
0.000419761
0.00145677
0.0563468
5.34238e-05
0.000323334
0.029263
0.142558
0.226917
0.230321
0.160756
0.0399141
0.00244116
0.0147723
0.0335495
0.0333283
0.00693683
1.26273e-05
0.000220041
2.60262e-06
0.000275505
0.000441347
0.0817221
4.43715e-06
3.90073e-05
0.000291546
0.000936996
0.000825565
9.46669e-05
5.30498e-05
5.73229e-05
0.00212667
0.0299143
0.0331641
0.00639272
1.50213e-06
8.41975e-05
0.000220393
3.67043e-06
1.67413e-06
0.000268053
0.0685099
4.31486e-07
1.06126e-06
3.97202e-06
7.02305e-06
8.10118e-07
8.78522e-07
4.83674e-05
5.30498e-05
0.0039847
0.00980575
0.00245567
1.09222e-06
1.48228e-06
3.34294e-06
2.14506e-06
1.682e-06
1.682e-06
0.000215231
0.000152284
4.5103e-08
1.05025e-07
2.97188e-07
7.59557e-07
7.7737e-07
1.48361e-06
2.76796e-05
6.6916e-05
0.00187743
0.00210558
1.0922e-06
1.09212e-06
1.09216e-06
1.09483e-06
4.90036e-06
4.84821e-06
1.6886e-06
3.65689e-06
1.55049e-05
4.63662e-09
1.08147e-08
2.77253e-08
1.69738e-08
7.13714e-10
9.40706e-07
4.64741e-06
1.15889e-06
0.00109859
0.000735228
1.09216e-06
1.09222e-06
1.09493e-06
1.16029e-06
7.05067e-06
7.05144e-06
1.94853e-06
2.11762e-07
7.27479e-07
4.50702e-10
1.06446e-09
1.18144e-09
7.27841e-10
1.46682e-10
1.06123e-06
1.18316e-06
2.89873e-07
0.000488124
0.000121439
6.01808e-06
6.61063e-06
1.37707e-06
2.87029e-07
7.04083e-06
6.7197e-06
1.17717e-06
3.70816e-07
0.000477585
4.80745e-11
1.08352e-10
1.04011e-10
7.31666e-11
7.8808e-11
9.45559e-07
2.89747e-07
2.99325e-07
5.77626e-05
5.76291e-05
8.02662e-06
7.98922e-06
2.93151e-06
5.80546e-08
1.18107e-06
3.91589e-07
3.15555e-07
3.70815e-07
0.0143265
6.81607e-12
1.90389e-11
5.37851e-11
3.36015e-11
5.68933e-11
7.99779e-08
5.93164e-09
8.327e-07
2.04393e-06
7.24816e-06
6.61925e-06
3.42329e-06
3.582e-07
4.87308e-08
5.4686e-08
5.57153e-08
6.61327e-08
2.22e-07
0.0222883
2.98516e-12
9.06417e-12
2.45495e-11
2.29317e-11
2.77887e-10
3.30632e-10
3.83045e-09
1.39162e-06
1.3288e-06
9.98437e-07
1.22935e-06
5.03267e-07
1.62838e-08
4.48155e-08
4.87324e-08
5.47968e-08
2.1736e-07
6.68492e-07
0.0223028
4.48647e-12
1.42109e-11
2.10582e-11
2.13386e-11
2.99872e-09
2.98685e-09
3.44481e-09
6.9005e-07
2.92564e-07
1.00491e-07
1.54261e-07
1.23233e-07
1.16023e-08
1.23694e-07
1.15178e-07
8.98632e-08
6.03634e-06
7.8396e-07
0.0223042
8.35558e-12
2.4923e-11
2.75412e-11
2.20168e-11
3.71378e-09
4.42093e-09
3.89242e-09
3.56793e-09
9.94122e-09
1.17887e-08
1.85024e-08
9.23899e-09
4.5963e-09
1.2561e-07
4.68228e-09
2.71268e-06
9.13236e-06
1.20581e-06
0.0222747
1.82161e-11
4.53357e-11
4.61304e-11
2.29263e-11
1.75493e-09
3.0993e-09
2.35487e-09
9.56376e-10
1.23222e-09
1.11752e-09
1.12858e-09
1.2464e-09
3.33448e-09
6.0981e-08
1.78394e-09
7.63479e-06
9.16968e-06
1.74194e-06
0.0221413
2.63779e-11
6.77907e-11
7.2245e-11
5.66874e-11
2.01797e-10
4.5655e-10
5.70697e-10
4.57696e-10
6.26835e-10
9.52212e-10
1.08904e-09
1.31991e-09
2.47721e-09
1.78394e-09
1.76461e-09
7.79998e-06
6.8263e-06
2.09628e-06
0.0218929
3.28532e-11
7.32402e-11
7.68153e-11
1.62042e-10
4.01654e-10
3.59225e-10
3.59225e-10
3.69844e-10
5.92249e-10
1.0276e-09
1.13916e-09
1.60099e-09
4.84121e-09
1.78541e-09
1.73105e-09
7.10378e-06
5.15886e-06
2.97893e-06
0.0118531
2.41401e-11
7.08828e-11
7.59043e-11
1.13939e-10
1.23789e-09
2.39232e-09
1.44558e-09
5.09395e-10
6.90526e-10
1.07944e-09
1.28205e-09
1.57129e-09
1.67681e-09
1.68044e-09
1.69835e-09
2.7796e-06
3.68059e-06
5.15865e-06
1.18274e-05
9.32135e-12
4.63003e-11
7.86848e-11
7.80105e-11
1.20778e-09
8.33492e-09
1.18336e-08
5.4726e-09
1.13873e-09
1.12707e-09
1.20853e-09
2.37155e-09
2.45366e-09
1.69833e-09
1.73105e-09
1.99736e-09
0.000157134
2.41887e-05
3.09789e-05
2.68368e-12
2.37324e-11
1.17574e-10
8.07959e-11
6.0414e-10
9.86628e-09
1.187e-08
9.90413e-09
3.31786e-09
1.15457e-09
1.47156e-09
6.07254e-09
5.43831e-09
9.85072e-09
2.00349e-09
1.5836e-06
0.000375223
0.000227453
4.07832e-05
1.89245e-12
4.79735e-12
7.40623e-11
1.42324e-10
1.28716e-09
5.28666e-09
9.10823e-09
1.97075e-08
1.42973e-08
5.48068e-09
7.82512e-09
7.47435e-09
5.37737e-09
6.06993e-08
4.92704e-09
9.78656e-05
0.000383535
0.000379231
8.44517e-05
1.215e-12
1.19209e-12
1.05637e-12
6.16138e-10
2.73542e-09
6.93624e-09
1.53272e-08
2.13414e-08
2.07773e-08
2.03423e-08
1.92012e-08
8.2945e-09
5.59818e-09
7.8696e-09
8.54698e-09
0.000268035
0.000385702
0.000383535
9.10262e-05
3.89276e-13
5.32808e-13
5.41508e-13
6.01138e-10
2.7771e-09
1.89065e-08
2.22836e-08
2.15863e-08
1.67453e-08
1.05231e-08
7.27152e-09
7.236e-09
3.92648e-07
9.34278e-09
3.84722e-08
0.000378188
0.000385702
0.000348131
4.66863e-05
2.1125e-13
5.79069e-13
1.558e-12
5.60456e-10
5.49059e-10
1.91784e-08
3.585e-08
1.31431e-08
7.38251e-09
7.27152e-09
7.236e-09
7.236e-09
8.36852e-07
3.78229e-08
0.000153452
0.000395232
0.000390467
7.008e-05
1.8274e-05
2.49012e-13
8.90741e-13
5.61609e-12
2.28086e-10
4.74396e-11
1.10039e-08
9.52606e-08
8.62209e-09
7.81511e-09
5.91834e-08
2.59239e-06
2.32824e-06
7.84732e-07
2.35943e-07
0.000376164
0.000395232
0.000191286
4.30599e-06
1.85891e-06
2.78224e-13
1.2993e-12
4.35576e-12
5.41487e-11
4.66818e-11
1.34143e-10
2.31654e-10
4.25413e-07
3.20231e-06
7.23073e-06
7.10018e-06
2.39177e-06
9.55916e-07
0.000200022
0.000383345
0.000394856
4.70673e-05
4.64259e-08
5.3288e-09
2.13993e-13
1.3234e-12
4.35938e-12
2.60922e-11
4.52729e-11
4.5325e-11
5.39319e-11
1.25089e-06
7.2362e-06
7.2362e-06
6.75185e-06
7.29406e-07
8.93318e-07
0.000144877
0.000280357
2.38096e-05
-1.2679e-09
1.37983e-11
3.01224e-09
8.10674e-14
1.21487e-12
6.63413e-12
2.88366e-11
8.31366e-11
5.83899e-11
5.98598e-11
1.54035e-07
3.24682e-06
5.19293e-06
1.4821e-06
7.54604e-07
2.67545e-05
7.59649e-08
5.83586e-10
4.33876e-11
8.64343e-12
4.47085e-12
1.37978e-11
1.33969e-14
9.31514e-13
9.19265e-12
4.50548e-11
1.9319e-10
2.29736e-10
7.32006e-11
8.45694e-11
3.40569e-09
6.6306e-08
4.61853e-08
6.33427e-07
3.30839e-07
7.38694e-11
8.02827e-12
9.14316e-12
5.1579e-12
4.76774e-12
4.9887e-12
6.01716e-16
2.86754e-13
6.86445e-12
4.65495e-11
1.90456e-10
4.99836e-10
1.13192e-09
1.37263e-09
1.48662e-09
1.17849e-09
2.59134e-08
3.44029e-08
1.10258e-09
-3.26835e-11
3.46097e-12
7.56169e-11
8.4531e-11
1.67188e-12
8.28564e-06
4.47255e-18
1.29653e-14
1.59927e-12
2.49962e-11
1.30996e-10
4.34392e-10
1.82099e-09
2.11454e-09
1.85379e-09
1.15013e-09
1.8627e-09
6.08689e-11
3.9997e-12
3.76743e-12
3.58142e-12
6.08157e-11
4.61482e-11
1.0452e-12
1.95142e-05
9.20933e-21
3.631e-17
4.18387e-14
2.75093e-12
2.7842e-11
1.45868e-10
7.89304e-10
1.20131e-09
9.70694e-10
6.25181e-10
2.11839e-10
3.51752e-11
7.02449e-12
6.58422e-12
8.63876e-13
3.41672e-12
4.07658e-13
1.05562e-12
2.07963e-05
)
;

boundaryField
{
    leftWall
    {
        type            zeroGradient;
    }
    rightWall
    {
        type            zeroGradient;
    }
    lowerWall
    {
        type            zeroGradient;
    }
    atmosphere
    {
        type            inletOutlet;
        inletValue      uniform 0;
        value           nonuniform List<scalar> 
46
(
-5.30805e-47
-4.97869e-48
-1.75848e-48
-6.88262e-49
-2.07916e-49
-4.70442e-50
-8.9591e-51
-1.61358e-51
-3.19153e-52
-6.21931e-53
-1.18755e-53
1.41203e-55
1.44282e-53
5.30738e-52
6.73156e-53
0
0
0
0
0
0
0
0
0
0
0
0
0
0
0
0
2.7842e-11
1.45868e-10
7.89304e-10
1.20131e-09
9.70694e-10
6.25181e-10
2.11839e-10
3.51752e-11
0
0
0
0
0
0
2.07963e-05
)
;
    }
    defaultFaces
    {
        type            empty;
    }
}


// ************************************************************************* //
