/*--------------------------------*- C++ -*----------------------------------*\
  =========                 |
  \\      /  F ield         | OpenFOAM: The Open Source CFD Toolbox
   \\    /   O peration     | Website:  https://openfoam.org
    \\  /    A nd           | Version:  9
     \\/     M anipulation  |
\*---------------------------------------------------------------------------*/
FoamFile
{
    format      ascii;
    class       volScalarField;
    location    "0.8";
    object      epsilon;
}
// * * * * * * * * * * * * * * * * * * * * * * * * * * * * * * * * * * * * * //

dimensions      [0 2 -3 0 0 0 0];

internalField   nonuniform List<scalar> 
2268
(
0.0191203
0.0524028
0.0882876
0.125472
0.1621
0.197565
0.23179
0.264614
0.295641
0.324234
0.349627
0.371087
0.388098
0.400519
0.408983
0.414195
0.413821
0.406729
0.38971
0.357977
0.299809
0.200358
0.0674415
0.0256009
0.0394664
0.0559547
0.0725766
0.0889701
0.104811
0.119915
0.134069
0.147044
0.158576
0.168396
0.17626
0.181966
0.185443
0.186965
0.187093
0.185563
0.18264
0.17834
0.171757
0.15952
0.134581
0.0953302
0.0338974
0.0370384
0.0503733
0.0640247
0.0769816
0.0890704
0.100327
0.110715
0.120132
0.128439
0.135496
0.141184
0.145433
0.148293
0.150064
0.151236
0.152259
0.154004
0.157488
0.163186
0.169251
0.16765
0.154039
0.0388851
0.0365343
0.0492251
0.0621803
0.0739607
0.084558
0.094207
0.103013
0.110966
0.117997
0.124044
0.12907
0.133091
0.13625
0.138921
0.141694
0.145412
0.151488
0.161889
0.178701
0.202077
0.223536
0.230081
0.0412404
0.0367805
0.0497955
0.0627117
0.0739466
0.083709
0.0924284
0.100329
0.107467
0.113826
0.119401
0.124218
0.128364
0.132059
0.13576
0.140197
0.146546
0.156801
0.174052
0.202602
0.246438
0.301331
0.347163
0.0416557
0.0375414
0.0514456
0.0645363
0.0754222
0.084591
0.0926591
0.0999447
0.106549
0.112498
0.117833
0.122635
0.127046
0.131352
0.1361
0.142167
0.151051
0.165361
0.189444
0.230442
0.299014
0.406643
0.557477
0.041109
0.0388714
0.0539445
0.0672143
0.0777862
0.0864604
0.0940158
0.100836
0.107052
0.112726
0.117942
0.122821
0.127556
0.132493
0.138269
0.145914
0.157245
0.175472
0.206175
0.259474
0.355231
0.539231
0.954101
0.0409884
0.0410294
0.0571883
0.070494
0.0807113
0.0889363
0.0960651
0.102511
0.108427
0.113908
0.119072
0.124078
0.129159
0.134724
0.141508
0.150704
0.164444
0.186502
0.223436
0.287366
0.40476
0.662778
1.65612
2.55308
5.44315
6.92255
7.43048
7.26822
6.83012
6.48163
6.45682
6.75605
7.14447
7.40324
7.21772
6.28068
4.85283
3.58129
2.72781
2.0862
1.20777
0.287678
3.87612
5.42878
5.59924
5.28954
4.77989
4.2038
3.70016
3.37593
3.22749
3.17815
3.14172
2.99685
2.63262
2.12167
1.65876
1.32817
1.06675
0.746204
0.297563
5.76877
5.94486
6.14418
6.06284
5.6965
5.07954
4.3292
3.65252
3.16209
2.8717
2.69016
2.48709
2.15503
1.72949
1.35123
1.09476
0.91354
0.714282
0.441714
7.10329
6.62698
7.32403
7.76051
7.72164
7.16076
6.07845
4.8284
3.80337
3.16933
2.78523
2.46407
2.08478
1.64426
1.25967
1.01348
0.865532
0.736292
0.579906
7.75762
7.23343
8.81498
10.1244
10.7465
10.5671
9.10185
6.88826
4.96004
3.79797
3.1148
2.60128
2.12364
1.64092
1.23204
0.980674
0.849133
0.76364
0.672968
7.62413
7.47886
10.2245
12.89
14.7177
15.8003
13.9903
10.0659
6.62429
4.70886
3.61043
2.80853
2.19187
1.66089
1.22985
0.970601
0.846917
0.786019
0.742358
6.87073
7.16748
10.5508
14.3229
17.5447
19.9869
19.4634
14.4966
8.69896
5.81622
4.19886
3.03467
2.26442
1.68734
1.24162
0.975154
0.852761
0.8031
0.800204
6.08156
6.54406
9.34836
12.5438
15.4748
16.9581
18.3171
17.5232
11.0889
6.95201
4.75579
3.25101
2.33249
1.71906
1.26524
0.994038
0.867673
0.819511
0.858843
0.0466777
0.04721
0.063898
0.0766721
0.0860756
0.0935353
0.100031
0.105958
0.111485
0.116746
0.121895
0.127137
0.132769
0.139301
0.147624
0.159199
0.176649
0.204465
0.24998
0.324958
0.447212
0.645552
1.03654
0.0743968
0.0605291
0.0750591
0.0863943
0.0946142
0.101197
0.106971
0.112233
0.117296
0.122348
0.127546
0.133127
0.139516
0.147459
0.158213
0.173871
0.198157
0.237219
0.300339
0.399357
0.541548
0.713248
0.905138
0.114415
0.0763124
0.089485
0.0996357
0.10688
0.112558
0.116809
0.120536
0.124763
0.129451
0.134589
0.140432
0.147651
0.157446
0.171742
0.193917
0.230001
0.290038
0.389134
0.543199
0.747066
0.945503
1.10405
0.132671
0.0888162
0.0951129
0.102352
0.110106
0.117669
0.124227
0.129132
0.133378
0.137803
0.142803
0.148851
0.157175
0.169861
0.189992
0.223426
0.280803
0.381132
0.553892
0.819686
1.11202
1.28746
1.39004
0.152481
0.0978334
0.0960407
0.100174
0.106465
0.114227
0.122658
0.130764
0.137607
0.143727
0.149886
0.157182
0.168028
0.185929
0.21589
0.267893
0.362567
0.53783
0.861581
1.30933
1.51816
1.59277
1.6348
0.169772
0.103637
0.097588
0.0992648
0.103542
0.109579
0.116766
0.124744
0.133272
0.142126
0.151508
0.162788
0.179161
0.205644
0.250457
0.329679
0.47293
0.710777
1.0163
1.29565
1.57225
1.6872
1.78142
0.18163
0.107576
0.0991579
0.0992405
0.102013
0.106477
0.112257
0.119215
0.127446
0.137108
0.148522
0.163035
0.183991
0.217306
0.272925
0.366931
0.517933
0.724039
0.93333
1.12461
1.41331
1.65673
1.85302
0.188569
0.109793
0.0998607
0.0990613
0.101009
0.104476
0.109164
0.115053
0.122364
0.131485
0.143124
0.158805
0.181587
0.217128
0.274453
0.365859
0.500936
0.669789
0.838575
1.03209
1.38097
1.69404
1.89176
0.192408
0.110248
0.0992913
0.0980285
0.0996434
0.102664
0.106729
0.111837
0.118234
0.1264
0.13715
0.152082
0.174028
0.207691
0.260304
0.34066
0.454385
0.594887
0.747947
0.95655
1.35848
1.77461
1.93866
0.194256
0.10936
0.0976603
0.0961126
0.0976209
0.100518
0.104331
0.109003
0.114736
0.121984
0.131537
0.144785
0.164256
0.193785
0.238836
0.305798
0.39889
0.515882
0.654417
0.85545
1.24212
1.76276
2.03085
0.194578
0.107551
0.0952945
0.0935301
0.0949949
0.0978968
0.101663
0.106156
0.111502
0.118068
0.12653
0.138044
0.154571
0.179248
0.216291
0.270385
0.345274
0.441564
0.561782
0.737108
1.06181
1.58708
2.06632
0.193563
0.105092
0.0924406
0.0904944
0.0919136
0.0948437
0.0986438
0.103109
0.108281
0.114425
0.122073
0.132142
0.146139
0.166386
0.196079
0.238974
0.298458
0.376306
0.476188
0.618289
0.864107
1.29012
1.84095
0.191311
0.102172
0.0892773
0.0871775
0.0885307
0.0914659
0.0953085
0.0998059
0.104934
0.110863
0.117986
0.127
0.139042
0.155835
0.179761
0.21369
0.260494
0.322507
0.403114
0.513791
0.68721
0.977577
1.42114
0.187933
0.0989359
0.0859399
0.0837151
0.0849814
0.0878833
0.0917389
0.0962712
0.101411
0.107255
0.114079
0.122395
0.133042
0.147286
0.16688
0.193985
0.230914
0.279877
0.343662
0.428772
0.55153
0.741349
1.03094
0.183587
0.0955023
0.082535
0.0802156
0.0813797
0.0842092
0.0880336
0.0925698
0.0977243
0.103542
0.11021
0.118096
0.127808
0.140264
0.156735
0.178819
0.2083
0.247006
0.297069
0.362243
0.450532
0.576367
0.758738
0.178469
0.0919736
0.0791511
0.0767686
0.0778218
0.0805453
0.0842921
0.0887862
0.0939248
0.0997219
0.106304
0.113933
0.123044
0.134295
0.148598
0.167111
0.191166
0.22217
0.261685
0.311949
0.376958
0.463547
0.581032
0.172793
0.0884423
0.0758648
0.0734498
0.0743891
0.0769805
0.080608
0.085011
0.0900885
0.0958397
0.102352
0.109815
0.118541
0.129
0.141841
0.157895
0.178128
0.203583
0.235377
0.274894
0.324221
0.386619
0.466316
0.166776
0.0849941
0.0727435
0.0703236
0.0711499
0.0735906
0.0770646
0.0813318
0.0863001
0.0919646
0.0983913
0.105721
0.114185
0.124123
0.135998
0.150402
0.168029
0.189632
0.216003
0.248035
0.286886
0.334187
0.391826
0.160639
0.08171
0.0698467
0.067444
0.0681599
0.0704375
0.0737325
0.0778271
0.0826426
0.0881769
0.0944863
0.101684
0.109946
0.119527
0.130765
0.144085
0.159986
0.17901
0.201721
0.228717
0.260704
0.298573
0.343224
0.154588
0.078665
0.0672254
0.0648542
0.0654624
0.0675691
0.0706672
0.074562
0.0791895
0.0845551
0.0907128
0.0977609
0.105845
0.115163
0.125973
0.138591
0.153381
0.170742
0.191085
0.214836
0.242473
0.274565
0.311632
0.148812
0.0759247
0.0649209
0.062587
0.0630883
0.0650192
0.067909
0.0715854
0.0759994
0.0811659
0.0871421
0.0940205
0.10193
0.111036
0.121548
0.133711
0.147809
0.164146
0.183036
0.204809
0.229833
0.258547
0.291355
0.143473
0.0735414
0.0629632
0.060664
0.0610567
0.0628085
0.0654832
0.0689295
0.0731133
0.0780598
0.0838318
0.0905222
0.0982525
0.107173
0.117465
0.129335
0.143016
0.158758
0.17682
0.197483
0.221065
0.247963
0.27857
0.138698
0.0715518
0.0613708
0.0590961
0.0593756
0.0609453
0.063401
0.0666111
0.070555
0.0752681
0.0808205
0.0873092
0.0948552
0.103603
0.113721
0.125397
0.138838
0.154265
0.17191
0.192029
0.214925
0.240984
0.27062
0.13458
0.0699769
0.0601504
0.0578839
0.0580429
0.059427
0.0616615
0.0646323
0.0683314
0.0728037
0.078127
0.0844043
0.0917605
0.100341
0.110311
0.121852
0.135161
0.150445
0.167926
0.187849
0.210511
0.236295
0.265633
0.131176
0.0688223
0.0592976
0.0570189
0.0570479
0.0582421
0.0602537
0.062984
0.0664361
0.0706634
0.0757515
0.0818101
0.0889703
0.0973828
0.107216
0.118653
0.131888
0.147128
0.164588
0.184507
0.207176
0.232968
0.262308
0.128515
0.0680804
0.0587987
0.0564848
0.056373
0.0573725
0.0591591
0.0616482
0.064852
0.0688315
0.0736791
0.0795116
0.0864676
0.0947052
0.1044
0.11574
0.128927
0.144166
0.161672
0.181677
0.204457
0.230357
0.259774
0.126605
0.0677329
0.0586327
0.0562598
0.0559959
0.0567953
0.0583548
0.0606015
0.0635555
0.0672837
0.0718847
0.0774818
0.084221
0.0922691
0.101811
0.113045
0.126178
0.141422
0.158989
0.179103
0.202013
0.228024
0.257477
0.125435
0.0677545
0.0587743
0.0563191
0.0558919
0.0564859
0.0578157
0.0598185
0.0625201
0.0659924
0.0703383
0.0756869
0.082191
0.0900263
0.0993877
0.110485
0.123537
0.13876
0.156367
0.176569
0.199585
0.225666
0.255075
0.124982
0.0681183
0.0591973
0.0566377
0.0560371
0.0564208
0.0575186
0.0592752
0.061721
0.0649307
0.0690104
0.0740929
0.0803371
0.0879266
0.0970669
0.10798
0.120897
0.136046
0.153642
0.173883
0.196958
0.223054
0.25235
0.125223
0.0688015
0.0598793
0.0571941
0.0564112
0.0565808
0.0574446
0.058953
0.0611388
0.0640779
0.0678774
0.0726722
0.0786251
0.0859261
0.0947907
0.105454
0.118161
0.133155
0.150658
0.170865
0.193934
0.219995
0.249134
0.126149
0.0697917
0.0608066
0.0579754
0.0570021
0.0569548
0.0575836
0.0588421
0.0607636
0.0634233
0.0669269
0.0714091
0.0770339
0.0839954
0.092517
0.102846
0.115244
0.129973
0.147272
0.167339
0.190319
0.216289
0.245255
0.127791
0.0710966
0.0619813
0.0589819
0.0578103
0.0575438
0.0579373
0.0589453
0.0605991
0.0629708
0.0661625
0.0703055
0.0755621
0.0821272
0.0902288
0.100124
0.112093
0.126417
0.143363
0.163149
0.18592
0.211726
0.240504
0.130253
0.0727555
0.0634298
0.0602348
0.0588541
0.0583653
0.0585237
0.0592814
0.0606656
0.0627423
0.0656073
0.0693856
0.0742336
0.080343
0.087942
0.0972944
0.108693
0.122446
0.138851
0.158165
0.18056
0.206085
0.234633
0.133759
0.0748578
0.065215
0.061784
0.0601759
0.0594575
0.0593795
0.0598881
0.0610027
0.0627805
0.0653076
0.0686989
0.0731016
0.0786985
0.0857127
0.0944082
0.105087
0.118078
0.133718
0.152313
0.1741
0.199162
0.227381
0.138714
0.077572
0.0674532
0.0637169
0.0618452
0.0608804
0.060561
0.0608218
0.0616697
0.063149
0.0653327
0.068322
0.07225
0.0772861
0.083641
0.0915713
0.10138
0.113409
0.128033
0.145627
0.166492
0.190799
0.2185
0.145796
0.0811877
0.0703314
0.0661624
0.0639565
0.0627103
0.0621375
0.0621514
0.0627395
0.0639277
0.0657713
0.0683543
0.0717915
0.076233
0.0818705
0.0889434
0.0977452
0.108626
0.121993
0.138268
0.157845
0.181005
0.207813
0.15608
0.0861683
0.0741145
0.0692772
0.0666084
0.0650183
0.0641703
0.0639391
0.0642807
0.0651953
0.0667159
0.0689051
0.0718556
0.0756932
0.0805823
0.0867341
0.0944183
0.103983
0.11584
0.130459
0.148326
0.169861
0.195298
0.171174
0.0931695
0.0791023
0.0731895
0.06985
0.0678223
0.0666699
0.0661994
0.0663186
0.0669926
0.0682266
0.0700592
0.0725586
0.0758224
0.0799787
0.0851942
0.091693
0.099795
0.109908
0.122525
0.138207
0.157522
0.18092
0.192999
0.102877
0.0854732
0.077879
0.0735902
0.0710127
0.069529
0.0688357
0.0687718
0.0692572
0.070266
0.0718123
0.0739421
0.0767254
0.0802484
0.084606
0.0899114
0.0964476
0.104608
0.114881
0.127856
0.144211
0.164627
0.222119
0.115367
0.0929656
0.0829996
0.0774909
0.0742766
0.0724562
0.071573
0.0713793
0.0717442
0.0726106
0.073974
0.0758691
0.0783564
0.0814994
0.0852946
0.0894976
0.0944097
0.100443
0.10805
0.117773
0.130291
0.146419
0.255596
0.12911
0.10044
0.0877228
0.0809132
0.0770764
0.0749604
0.0739366
0.073669
0.0739795
0.0747868
0.0760793
0.0779038
0.080366
0.0836306
0.0877495
0.0910436
0.0942789
0.0980328
0.102706
0.108696
0.116508
0.126824
0.283912
0.139776
0.10563
0.0907538
0.083007
0.0787502
0.0764485
0.0753463
0.0750473
0.0753436
0.0761414
0.0774323
0.079295
0.0819526
0.086011
0.0932599
0.0955213
0.0968462
0.0981597
0.0997364
0.101734
0.104329
0.107765
2.18341
2.05259
2.01986
2.58129
1.14026
1.29146
1.53635
2.04864
1.27992
1.42956
1.64227
1.94697
1.59606
1.80078
2.10292
2.53442
1.93245
2.22845
2.64392
3.17582
2.17126
2.5255
2.98355
3.53497
2.2868
2.66458
3.14546
3.73209
2.27579
2.62065
3.07257
3.64138
2.19342
2.44864
2.80497
3.27146
2.14548
2.28048
2.50095
2.8144
2.19909
2.23661
2.31966
2.47228
2.15998
2.28321
2.31974
2.35367
1.81365
2.05371
2.25212
2.35352
1.32868
1.55558
1.80314
2.03522
0.948308
1.10291
1.28109
1.47645
0.697899
0.794448
0.906008
1.03265
0.54137
0.602795
0.672625
0.751334
0.443723
0.485635
0.53265
0.585205
0.382244
0.413419
0.448166
0.486945
0.343498
0.368771
0.396887
0.428322
0.319362
0.341462
0.36604
0.393568
0.30465
0.325133
0.3479
0.373398
0.295871
0.315596
0.337479
0.361933
0.290613
0.309997
0.331428
0.355281
0.28723
0.306414
0.327522
0.350888
0.28465
0.303619
0.32437
0.347186
0.282224
0.3009
0.321193
0.343338
0.279594
0.297893
0.317631
0.338995
0.276571
0.294438
0.313563
0.33409
0.273032
0.290456
0.308966
0.328666
0.268848
0.285857
0.303801
0.322746
0.263837
0.280487
0.297947
0.316253
0.257752
0.274102
0.291175
0.308977
0.250297
0.266392
0.283158
0.300582
0.241165
0.25701
0.273517
0.290655
0.230084
0.24563
0.26187
0.27876
0.216853
0.231949
0.24784
0.264456
0.201294
0.21566
0.230962
0.247154
0.183051
0.196209
0.21048
0.225852
0.161609
0.172671
0.184987
0.19863
0.136944
0.144477
0.153135
0.163093
0.111187
0.11376
0.116778
0.120353
4.57258
5.30761
6.64672
7.89935
9.04954
10.2944
12.5701
15.4694
14.0314
8.54269
5.44044
3.50872
2.4132
1.76875
1.31486
1.04682
0.909939
0.846037
0.937025
3.42254
4.0166
4.48426
4.91129
5.57394
7.01269
9.48823
13.2398
15.3691
10.8252
6.44448
3.8325
2.50015
1.83082
1.43724
1.24517
1.09063
0.943291
1.11653
2.58122
3.35872
3.73974
4.16066
5.20499
7.39182
9.85757
13.4351
15.9782
12.4483
7.09972
4.01911
2.55708
1.88658
1.66036
1.68034
1.51157
1.1675
1.40565
3.24209
4.62211
4.89187
5.41933
7.01576
9.06303
11.1967
14.093
16.2096
12.6578
7.09409
4.03554
2.64468
2.01467
1.94974
2.13716
2.06353
1.58216
1.83336
3.95758
4.97383
5.54908
6.60578
8.18513
9.98253
12.1025
14.6492
16.0034
11.5305
6.55914
3.98704
2.8047
2.21294
2.2165
2.40564
2.38848
2.06735
1.86269
4.24189
5.46475
6.50643
7.5209
9.0495
10.8847
13.0081
15.2565
15.1936
9.96619
5.91593
4.03366
3.06285
2.47261
2.52075
2.74307
2.7349
2.44369
1.7054
4.55084
6.0095
7.34167
8.4257
9.87733
11.6981
13.8249
15.5108
13.7378
8.43873
5.39203
4.26401
3.40535
2.8111
2.91621
3.21622
3.22435
2.90136
2.09129
4.49399
6.21928
7.79464
8.99111
10.2938
11.831
13.2998
13.7252
10.9701
6.89624
4.93909
4.49039
3.7629
3.26065
3.46396
3.84109
3.82888
3.44726
2.95322
4.0024
5.69459
7.62883
9.01304
10.0609
10.9883
11.5323
11.0445
8.31751
5.73225
4.52436
4.39335
4.04139
3.85768
4.3093
4.816
4.61043
3.93191
4.04149
3.34072
4.62456
6.46643
8.40148
9.42365
9.69417
9.81252
9.04325
6.80636
4.97755
4.17274
4.09595
4.04898
4.64012
5.53066
5.60692
5.63457
4.40555
5.1208
2.77326
3.59362
4.81536
6.3776
7.70618
8.27547
8.31678
7.08236
5.44082
4.3618
3.89502
3.84259
4.05476
4.79472
5.73089
6.19915
6.37231
4.77861
6.07489
2.43708
2.84982
3.55555
4.47772
5.41168
6.02544
5.95056
5.20058
4.4497
3.95472
3.71383
3.68069
3.9314
4.56798
5.64261
7.04512
6.96299
5.08866
6.83086
2.37124
2.44659
2.76803
3.26323
3.80925
4.20958
4.28395
4.0947
3.90733
3.77525
3.61591
3.61377
3.92483
4.67129
6.11566
7.77463
7.3571
5.42813
7.36383
2.30972
2.30083
2.38048
2.61461
2.94506
3.25083
3.44397
3.57843
3.71091
3.65892
3.51486
3.59824
4.00923
4.89832
6.48687
7.751
7.28381
5.60828
7.67371
1.81399
2.15673
2.20414
2.33261
2.6123
2.91794
3.13702
3.36568
3.5346
3.43344
3.41489
3.59004
4.07191
5.00859
6.32397
6.99332
6.6468
5.65297
7.721
1.26794
1.58383
1.81232
1.93661
2.18244
2.53502
2.90877
3.18959
3.26926
3.26821
3.33171
3.5444
4.00384
4.84818
5.7358
5.96223
5.70358
5.56338
7.78468
0.89866
1.10515
1.32367
1.58045
1.94526
2.40787
2.84801
3.03753
3.09578
3.14961
3.24651
3.40117
3.76459
4.37451
4.92255
5.00268
4.83592
5.16205
8.06675
0.683216
0.822536
0.991839
1.22978
1.58778
2.066
2.53859
2.8079
2.93171
3.02731
3.09725
3.17577
3.42205
3.81875
4.16436
4.26324
4.28009
4.72975
8.31804
0.559405
0.665127
0.802694
1.00734
1.32269
1.75288
2.2064
2.53047
2.72485
2.85107
2.88843
2.92811
3.08906
3.35409
3.59904
3.74151
3.89971
4.34066
8.04464
0.487329
0.576026
0.694494
0.870239
1.13691
1.50181
1.90552
2.24277
2.48041
2.62034
2.66169
2.70041
2.82284
3.02039
3.2243
3.40361
3.64698
4.01408
7.60931
0.445417
0.525151
0.631826
0.7857
1.01099
1.31507
1.66146
1.97922
2.22424
2.37577
2.44556
2.50774
2.62419
2.79621
2.98862
3.19152
3.47775
3.78525
7.14029
0.421454
0.496308
0.595407
0.73331
0.926671
1.18107
1.47386
1.75702
1.98955
2.15045
2.25191
2.34589
2.47424
2.64224
2.83296
3.04764
3.34915
3.63589
6.71814
0.407924
0.479862
0.573569
0.699374
0.868313
1.08377
1.33091
1.57726
1.79093
1.95603
2.08289
2.2056
2.35022
2.52121
2.71081
2.92756
3.23085
3.52544
6.35191
0.399946
0.469676
0.558843
0.674693
0.824294
1.0092
1.21916
1.43236
1.62644
1.791
1.93402
2.07688
2.23403
2.40673
2.59139
2.80166
3.10027
3.42925
6.04859
0.394375
0.461874
0.546557
0.653453
0.786948
0.947384
1.12745
1.31264
1.48837
1.6485
1.79882
1.95195
2.11457
2.28391
2.4579
2.65443
2.94621
3.33931
5.79952
0.389348
0.454238
0.534117
0.632443
0.751864
0.892081
1.04787
1.20977
1.36873
1.52151
1.67199
1.8266
1.98739
2.1475
2.30519
2.48193
2.76479
3.2512
5.58587
0.383932
0.445767
0.520465
0.610382
0.7171
0.840096
0.975735
1.11802
1.26163
1.405
1.55043
1.70029
1.85291
1.99915
2.13671
2.28862
2.55156
3.14568
5.40817
0.377819
0.436273
0.505559
0.587277
0.682385
0.790402
0.908934
1.03436
1.1637
1.29631
1.43312
1.57376
1.71414
1.84404
1.96022
2.08495
2.3114
2.97992
5.33049
0.371058
0.426016
0.489916
0.563835
0.64839
0.743269
0.847044
0.957687
1.07368
1.1947
1.3206
1.44919
1.57501
1.68779
1.78398
1.8837
2.07176
2.70834
5.35825
0.363825
0.415416
0.474232
0.540987
0.61612
0.699528
0.790502
0.888064
0.991532
1.1006
1.21428
1.32926
1.43943
1.53537
1.6141
1.69279
1.84693
2.38927
5.167
0.356267
0.404832
0.459109
0.519548
0.58649
0.660023
0.739943
0.82593
0.917731
1.01492
1.11592
1.21678
1.31132
1.39147
1.45486
1.51592
1.64422
2.09308
4.72949
0.348395
0.394433
0.444894
0.500016
0.560072
0.625287
0.695787
0.771628
0.852741
0.938534
1.02706
1.11422
1.19406
1.25996
1.30979
1.35605
1.46386
1.84009
4.20794
0.340037
0.384139
0.431605
0.482486
0.536985
0.595398
0.658038
0.725148
0.7967
0.871937
0.948744
1.02314
1.08961
1.14262
1.17963
1.21432
1.30567
1.6271
3.70334
0.330851
0.373618
0.418933
0.466658
0.516898
0.569956
0.626227
0.686026
0.749285
0.815111
0.881314
0.944162
0.998642
1.03963
1.06405
1.09002
1.16891
1.44517
3.24891
0.320369
0.362351
0.40631
0.451899
0.499091
0.548137
0.599439
0.65332
0.709664
0.767462
0.824465
0.877093
0.920657
0.949965
0.963348
0.981331
1.04853
1.28242
2.84413
0.308069
0.349716
0.393017
0.43738
0.482597
0.528815
0.576393
0.625645
0.676431
0.727701
0.777125
0.821004
0.854307
0.872024
0.875838
0.884491
0.935329
1.1294
2.47882
0.293403
0.335056
0.378304
0.422241
0.466397
0.510755
0.555612
0.601272
0.647618
0.693605
0.736745
0.772812
0.796215
0.802832
0.795942
0.791989
0.821813
0.979976
2.13776
0.27565
0.31758
0.361413
0.405774
0.449704
0.492954
0.53577
0.578479
0.620992
0.662216
0.699303
0.726968
0.739418
0.734167
0.714105
0.69316
0.702259
0.83104
1.81679
0.253392
0.295787
0.34115
0.387384
0.432253
0.47508
0.516248
0.556216
0.594893
0.630965
0.660848
0.677688
0.675401
0.654751
0.619522
0.581781
0.573235
0.679709
1.51647
0.223806
0.265839
0.314085
0.365658
0.414333
0.457835
0.497679
0.534884
0.569342
0.599224
0.619541
0.620468
0.594476
0.553728
0.503281
0.453015
0.432455
0.524909
1.24381
0.182296
0.218946
0.269161
0.333421
0.395989
0.442819
0.481999
0.516669
0.546819
0.569654
0.577477
0.553603
0.479263
0.413489
0.35513
0.30597
0.2856
0.367447
1.04027
0.127549
0.143991
0.176562
0.250444
0.376305
0.432169
0.471957
0.505221
0.532456
0.549578
0.544608
0.485329
0.278208
0.210912
0.179558
0.159811
0.152938
0.201002
0.963732
)
;

boundaryField
{
    leftWall
    {
        type            epsilonWallFunction;
        value           nonuniform List<scalar> 
50
(
0.0191203
0.0256009
0.0338974
0.0388851
0.0412404
0.0416557
0.041109
0.0409884
0.0466777
0.0743968
0.114415
0.132671
0.152481
0.169772
0.18163
0.188569
0.192408
0.194256
0.194578
0.193563
0.191311
0.187933
0.183587
0.178469
0.172793
0.166776
0.160639
0.154588
0.148812
0.143473
0.138698
0.13458
0.131176
0.128515
0.126605
0.125435
0.124982
0.125223
0.126149
0.127791
0.130253
0.133759
0.138714
0.145796
0.15608
0.171174
0.192999
0.222119
0.255596
0.283912
)
;
    }
    rightWall
    {
        type            epsilonWallFunction;
        value           nonuniform List<scalar> 
50
(
0.287678
0.297563
0.441714
0.579906
0.672968
0.742358
0.800204
0.858843
0.937025
1.11653
1.40565
1.83336
1.86269
1.7054
2.09129
2.95322
4.04149
5.1208
6.07489
6.83086
7.36383
7.67371
7.721
7.78468
8.06675
8.31804
8.04464
7.60931
7.14029
6.71814
6.35191
6.04859
5.79952
5.58587
5.40817
5.33049
5.35825
5.167
4.72949
4.20794
3.70334
3.24891
2.84413
2.47882
2.13776
1.81679
1.51647
1.24381
1.04027
0.963732
)
;
    }
    lowerWall
    {
        type            epsilonWallFunction;
        value           nonuniform List<scalar> 
62
(
0.0191203
0.0524028
0.0882876
0.125472
0.1621
0.197565
0.23179
0.264614
0.295641
0.324234
0.349627
0.371087
0.388098
0.400519
0.408983
0.414195
0.413821
0.406729
0.38971
0.357977
0.299809
0.200358
0.0674415
0.0674415
0.0953302
0.154039
0.230081
0.347163
0.557477
0.954101
1.65612
2.18341
2.05259
2.01986
2.58129
2.55308
3.87612
5.76877
7.10329
7.75762
7.62413
6.87073
6.08156
2.55308
5.44315
6.92255
7.43048
7.26822
6.83012
6.48163
6.45682
6.75605
7.14447
7.40324
7.21772
6.28068
4.85283
3.58129
2.72781
2.0862
1.20777
0.287678
)
;
    }
    atmosphere
    {
        type            inletOutlet;
        inletValue      uniform 0.1;
        value           nonuniform List<scalar> 
46
(
0.283912
0.139776
0.10563
0.0907538
0.083007
0.0787502
0.0764485
0.0753463
0.0750473
0.0753436
0.0761414
0.0774323
0.079295
0.0819526
0.086011
0.1
0.1
0.1
0.1
0.1
0.1
0.1
0.1
0.1
0.1
0.1
0.1
0.1
0.1
0.1
0.1
0.376305
0.432169
0.471957
0.505221
0.532456
0.549578
0.544608
0.485329
0.1
0.1
0.1
0.1
0.1
0.1
0.963732
)
;
    }
    defaultFaces
    {
        type            empty;
    }
}


// ************************************************************************* //
