/*--------------------------------*- C++ -*----------------------------------*\
  =========                 |
  \\      /  F ield         | OpenFOAM: The Open Source CFD Toolbox
   \\    /   O peration     | Website:  https://openfoam.org
    \\  /    A nd           | Version:  9
     \\/     M anipulation  |
\*---------------------------------------------------------------------------*/
FoamFile
{
    format      ascii;
    class       volScalarField;
    location    "0.8";
    object      k;
}
// * * * * * * * * * * * * * * * * * * * * * * * * * * * * * * * * * * * * * //

dimensions      [0 2 -2 0 0 0 0];

internalField   nonuniform List<scalar> 
2268
(
0.003341
0.005341
0.00756924
0.00957622
0.0113652
0.01297
0.0144271
0.015756
0.0169599
0.0180304
0.0189539
0.0197178
0.0203164
0.0207559
0.0210684
0.0212738
0.0212948
0.0210886
0.0205326
0.0194301
0.0172667
0.0131594
0.00625027
0.00546905
0.0106679
0.0155569
0.0200198
0.0239194
0.0273312
0.0303597
0.0330721
0.0354972
0.0376381
0.0394859
0.0410313
0.0422765
0.0432395
0.0439466
0.0443688
0.0444834
0.0442202
0.0433762
0.0414808
0.0374665
0.0292161
0.013066
0.00661073
0.0136926
0.0199899
0.0257696
0.030826
0.0352142
0.0390627
0.0424677
0.0454799
0.0481189
0.0503912
0.0523019
0.0538652
0.055107
0.0560573
0.0567057
0.0570311
0.0569632
0.0562779
0.0543907
0.0499247
0.0399164
0.0180279
0.00726614
0.0157156
0.0231928
0.0300456
0.035977
0.041057
0.0454617
0.0493244
0.0527192
0.0556843
0.058243
0.0604167
0.0622325
0.063727
0.064939
0.0658717
0.066516
0.0668168
0.0665513
0.0650754
0.0607571
0.0498288
0.0236015
0.00758522
0.017214
0.0258708
0.0337007
0.0403599
0.0459802
0.0508048
0.055008
0.0586882
0.0619016
0.0646897
0.0670897
0.0691423
0.0708963
0.0724012
0.0736741
0.0747265
0.0755315
0.0758855
0.0751086
0.0713297
0.0600705
0.0311609
0.00766906
0.0184365
0.0283336
0.0370654
0.0443384
0.0503912
0.0555446
0.0600135
0.0639184
0.0673341
0.0703198
0.0729284
0.0752138
0.0772378
0.0790636
0.0807249
0.0822629
0.0836972
0.0848712
0.0851127
0.0823902
0.0717862
0.0429874
0.00763207
0.0195626
0.0307448
0.0402895
0.0480744
0.0544756
0.0598913
0.064572
0.0686589
0.0722455
0.0754083
0.0782148
0.0807321
0.083036
0.0852089
0.0873039
0.0894044
0.0916009
0.093828
0.0955178
0.0947297
0.086589
0.0619158
0.00763142
0.0207733
0.0332022
0.0434402
0.0516391
0.0583212
0.0639505
0.0688035
0.0730414
0.0767774
0.0801038
0.0831017
0.0858509
0.0884435
0.0909912
0.0935691
0.0963174
0.0994259
0.102975
0.106635
0.108928
0.105715
0.0898828
0.0681115
0.113123
0.132817
0.139909
0.139241
0.135411
0.132595
0.133662
0.138164
0.143216
0.146026
0.142388
0.128171
0.106757
0.0868694
0.0727037
0.0610975
0.0425712
0.0205584
0.160508
0.253731
0.28554
0.298802
0.29781
0.287673
0.275533
0.26836
0.267526
0.27172
0.275593
0.270155
0.246123
0.208049
0.170869
0.142613
0.118263
0.085614
0.0295901
0.209686
0.343029
0.394433
0.421073
0.424841
0.411217
0.387724
0.36555
0.351529
0.346543
0.3441
0.333178
0.302535
0.255119
0.207298
0.170128
0.138786
0.100134
0.0384356
0.241781
0.410393
0.489213
0.536369
0.55286
0.543144
0.509306
0.465974
0.430389
0.409807
0.396517
0.37751
0.340901
0.286333
0.229925
0.185614
0.149351
0.108173
0.0460932
0.258218
0.456555
0.572878
0.651726
0.692747
0.700749
0.659967
0.586828
0.518101
0.474466
0.445294
0.413967
0.369702
0.309236
0.246182
0.196281
0.156359
0.113694
0.0509121
0.257886
0.47524
0.635925
0.759885
0.840348
0.893661
0.854473
0.737565
0.619502
0.545389
0.494918
0.445253
0.391173
0.326146
0.2587
0.204804
0.162186
0.118085
0.0544045
0.242946
0.462093
0.64718
0.806398
0.928516
1.0229
1.03673
0.917324
0.731221
0.620483
0.54406
0.471605
0.407143
0.338778
0.269064
0.212576
0.167796
0.121927
0.0573519
0.224207
0.42688
0.591855
0.734447
0.852723
0.926322
1.00849
1.03511
0.850331
0.692233
0.586729
0.493515
0.419178
0.34888
0.27849
0.2207
0.174059
0.125965
0.0604459
0.00828775
0.0233586
0.0373887
0.0484193
0.0570721
0.0640729
0.0699561
0.0750192
0.0794539
0.0834003
0.0869697
0.0902604
0.0933739
0.0964294
0.0995696
0.102925
0.106744
0.111377
0.117119
0.123966
0.130876
0.134091
0.127568
0.0111771
0.0283521
0.0432156
0.0547325
0.0637356
0.0710504
0.0771767
0.0824163
0.0870588
0.0912776
0.0951869
0.0989015
0.102573
0.106394
0.110588
0.115429
0.12142
0.129288
0.139856
0.153718
0.169892
0.183689
0.191533
0.014903
0.0334856
0.049485
0.0614992
0.0708787
0.0784637
0.08447
0.0895079
0.0941902
0.0986079
0.102816
0.106942
0.111233
0.116024
0.121665
0.128692
0.13803
0.151009
0.169207
0.193388
0.219825
0.237885
0.243073
0.0162969
0.0359293
0.0517017
0.0634525
0.0735476
0.0823444
0.0897432
0.0956985
0.1008
0.105498
0.110021
0.114587
0.119651
0.125798
0.133577
0.143984
0.158653
0.180128
0.211511
0.252476
0.287975
0.297171
0.289326
0.0178137
0.0379758
0.0521241
0.0631177
0.0728962
0.0820187
0.0905066
0.0981675
0.104753
0.110584
0.116022
0.121531
0.127982
0.136313
0.147386
0.162871
0.186133
0.221928
0.277225
0.33888
0.35331
0.344646
0.3235
0.0191469
0.0404361
0.0534403
0.0635524
0.0725237
0.0809981
0.0891075
0.0969619
0.1046
0.111971
0.119191
0.126803
0.135881
0.147653
0.163514
0.185931
0.219025
0.264196
0.31043
0.341608
0.367178
0.362715
0.345465
0.0200711
0.0424278
0.0550759
0.0646795
0.0730141
0.0807994
0.0883289
0.0958149
0.103472
0.111455
0.119898
0.129285
0.140656
0.155404
0.175239
0.20227
0.237528
0.276049
0.304559
0.322415
0.353177
0.367775
0.363738
0.0206146
0.0437588
0.0564923
0.0659516
0.0739587
0.081269
0.0882761
0.095266
0.10253
0.110356
0.119096
0.129302
0.141853
0.158042
0.179331
0.206896
0.239887
0.272374
0.295521
0.316577
0.35976
0.3868
0.386116
0.020917
0.0445746
0.0574762
0.0669594
0.0748641
0.081936
0.088595
0.0951565
0.101941
0.109305
0.117684
0.127727
0.140277
0.156367
0.177099
0.203006
0.232769
0.261821
0.285408
0.313005
0.368756
0.415163
0.415137
0.0210683
0.0450323
0.0580398
0.0675732
0.0754746
0.0824607
0.0889352
0.095205
0.101581
0.108427
0.116197
0.125506
0.137207
0.152178
0.171219
0.194591
0.221155
0.247861
0.27246
0.303139
0.361347
0.43044
0.450718
0.0211062
0.0452113
0.0582378
0.0677901
0.0757073
0.0826776
0.0890754
0.0951798
0.10127
0.107678
0.114828
0.123278
0.133753
0.147095
0.163977
0.184566
0.208117
0.23272
0.257271
0.287564
0.340244
0.41774
0.475624
0.0210458
0.045147
0.0581135
0.0676387
0.0755557
0.08253
0.0889082
0.0949379
0.100859
0.106957
0.1136
0.12127
0.13058
0.14223
0.156839
0.174689
0.195388
0.217753
0.24113
0.268905
0.312157
0.380622
0.458502
0.0208941
0.0448619
0.0577051
0.0671595
0.0750483
0.0820199
0.0883997
0.0944082
0.100249
0.106158
0.112441
0.119499
0.127839
0.138043
0.150659
0.166011
0.183977
0.203932
0.225408
0.249957
0.283494
0.334404
0.404327
0.0206581
0.0443791
0.0570513
0.0663988
0.0742297
0.0811799
0.0875596
0.0935693
0.0993828
0.105195
0.111251
0.117876
0.125479
0.134535
0.145515
0.158749
0.174279
0.191806
0.211004
0.232434
0.258829
0.295097
0.345465
0.0203476
0.0437273
0.0561939
0.0654065
0.0731527
0.0800577
0.0864224
0.0924334
0.0982432
0.104013
0.109941
0.116284
0.123364
0.131563
0.141269
0.152793
0.166257
0.181545
0.198436
0.217036
0.238424
0.264981
0.299723
0.0199755
0.0429402
0.0551772
0.0642345
0.0718732
0.0787092
0.0850369
0.0910348
0.0968411
0.102593
0.108451
0.114618
0.121346
0.128933
0.137693
0.147895
0.159691
0.17306
0.187861
0.204028
0.221889
0.242427
0.267171
0.019556
0.0420544
0.0540471
0.062935
0.0704483
0.077193
0.0834596
0.089422
0.0952098
0.100944
0.106757
0.112812
0.119305
0.126468
0.134546
0.143763
0.154267
0.166084
0.179129
0.193292
0.208599
0.22537
0.244195
0.0191043
0.0411071
0.0528484
0.061559
0.0689334
0.0755679
0.0817499
0.0876513
0.093397
0.0990975
0.104868
0.11084
0.11717
0.124037
0.131631
0.140133
0.149668
0.160284
0.17193
0.184502
0.197922
0.212229
0.227555
0.0186362
0.0401337
0.0516239
0.0601541
0.0673807
0.0738897
0.0799663
0.0857817
0.0914589
0.0971025
0.102816
0.10871
0.114913
0.121564
0.128814
0.1368
0.145629
0.155347
0.165926
0.17728
0.189308
0.201947
0.21514
0.0181673
0.0391669
0.0504125
0.0587636
0.0658376
0.0722101
0.078164
0.0838709
0.0894538
0.0950145
0.100649
0.106457
0.112544
0.119025
0.126018
0.133634
0.141955
0.151023
0.160822
0.171284
0.182316
0.193829
0.205708
0.0177125
0.0382359
0.0492487
0.0574257
0.0643457
0.0705742
0.0763921
0.0819721
0.0874379
0.0928908
0.0984234
0.104127
0.110096
0.116428
0.12322
0.130562
0.138521
0.147132
0.156387
0.166232
0.176592
0.187386
0.198498
0.0172852
0.0373664
0.0481622
0.0561728
0.0629403
0.0690206
0.0746932
0.0801319
0.0854618
0.0907854
0.0961938
0.101775
0.107616
0.113804
0.120426
0.127556
0.135255
0.143553
0.152447
0.161899
0.171852
0.182241
0.192973
0.0168969
0.0365797
0.0471776
0.0550315
0.0616499
0.0675806
0.073102
0.0783888
0.0835687
0.0887453
0.0940106
0.0994511
0.105151
0.111194
0.117659
0.124617
0.132122
0.140207
0.148875
0.158103
0.16785
0.178071
0.188696
0.0165568
0.0358932
0.046314
0.0540222
0.0604967
0.0662784
0.0716452
0.0767734
0.0817927
0.0868089
0.0919156
0.0972
0.102746
0.108637
0.114949
0.121752
0.129104
0.137041
0.145574
0.154694
0.164374
0.174586
0.18528
0.0162712
0.0353192
0.0455856
0.0531599
0.0594965
0.0651313
0.0703423
0.0753077
0.0801593
0.0850053
0.0899412
0.0950562
0.100436
0.106164
0.11232
0.118976
0.126194
0.134017
0.142468
0.151547
0.161242
0.171536
0.18239
0.0160445
0.0348661
0.0450014
0.0524542
0.0586597
0.0641508
0.0692064
0.0740066
0.0786858
0.0833544
0.0881101
0.0930444
0.0982456
0.1038
0.109791
0.116296
0.123383
0.131104
0.139493
0.14856
0.158305
0.168714
0.179754
0.0158786
0.0345383
0.0445666
0.0519105
0.0579922
0.0633435
0.068245
0.0728793
0.0773829
0.0818686
0.0864364
0.0911802
0.0961911
0.101559
0.107372
0.113714
0.120661
0.128273
0.136596
0.14565
0.155441
0.165958
0.177164
0.0157738
0.0343373
0.0442829
0.0515312
0.057497
0.0627131
0.0674625
0.0719307
0.0762565
0.0805548
0.0849279
0.0894718
0.0942805
0.0994476
0.105066
0.111226
0.118012
0.125496
0.13373
0.142748
0.152558
0.163148
0.174474
0.0157291
0.0342621
0.0441502
0.0513172
0.0571758
0.0622619
0.0668618
0.0711642
0.0753103
0.0794171
0.0835888
0.0879234
0.0925172
0.0974671
0.102871
0.108825
0.115423
0.122745
0.130857
0.139798
0.149584
0.160198
0.171587
0.0157429
0.0343111
0.0441689
0.0512704
0.0570319
0.0619939
0.0664474
0.0705843
0.0745488
0.0784598
0.082423
0.0865381
0.0909031
0.0956174
0.100783
0.106502
0.112876
0.119996
0.127939
0.136754
0.146462
0.157044
0.168436
0.0158145
0.0344852
0.0443429
0.0513972
0.0570732
0.061918
0.0662282
0.0701999
0.0739802
0.0776904
0.0814374
0.0853217
0.0894426
0.0939009
0.0988014
0.104252
0.110361
0.117231
0.124949
0.133579
0.143147
0.153636
0.164975
0.0159461
0.0347917
0.0446845
0.0517129
0.0573165
0.0620514
0.0662211
0.0700268
0.0736195
0.0771227
0.0806445
0.084286
0.0881462
0.0923266
0.0969334
0.102078
0.107876
0.114439
0.121869
0.130244
0.139603
0.149934
0.161163
0.0161454
0.0352507
0.0452201
0.0522469
0.057792
0.0624234
0.0664536
0.0700907
0.0734904
0.0767788
0.0800655
0.083451
0.0870335
0.0909134
0.0951965
0.0999961
0.105432
0.111627
0.118696
0.126736
0.135805
0.145904
0.15696
0.0164297
0.0359013
0.0459968
0.0530481
0.0585464
0.0630772
0.0669651
0.0704275
0.0736259
0.0766901
0.0797303
0.0828465
0.0861348
0.0896924
0.0936228
0.0980383
0.103061
0.108821
0.115448
0.12306
0.131743
0.141523
0.152334
0.0168293
0.0368092
0.0470879
0.0541867
0.0596432
0.0640682
0.0678041
0.0710802
0.0740657
0.076894
0.0796762
0.0825109
0.0854903
0.0887071
0.0922595
0.0962556
0.100816
0.106075
0.112176
0.119262
0.127445
0.136785
0.147258
0.0173937
0.0380721
0.0485913
0.0557475
0.0611514
0.0654524
0.0690169
0.0720891
0.0748466
0.0774268
0.0799411
0.0824852
0.0851465
0.0880105
0.0911673
0.0947169
0.098775
0.103476
0.108975
0.115429
0.122986
0.131746
0.14173
0.0181969
0.039812
0.0506092
0.0578029
0.0631185
0.06726
0.070624
0.0734704
0.0759851
0.078308
0.0805497
0.082802
0.0851458
0.0876574
0.090415
0.0935054
0.0970323
0.101128
0.105946
0.111662
0.118451
0.126466
0.135788
0.0193395
0.0421342
0.0531925
0.0603577
0.0655208
0.0694542
0.0725848
0.0751865
0.0774498
0.0795154
0.0814914
0.0834648
0.0855091
0.0876899
0.0900695
0.0927133
0.0957017
0.0991543
0.103224
0.108091
0.113959
0.121027
0.129453
0.0209213
0.0450299
0.0562517
0.0632779
0.0682086
0.0718859
0.0747604
0.0771119
0.0791311
0.0809561
0.0826913
0.0844194
0.0862079
0.0881133
0.0901802
0.0924388
0.0949111
0.0977026
0.100966
0.104883
0.109663
0.115541
0.12275
0.0229262
0.0482708
0.0594756
0.0662416
0.0708754
0.0742737
0.0768954
0.0790163
0.0808214
0.0824437
0.0839843
0.0855238
0.0871301
0.0888612
0.0907571
0.0927997
0.0948223
0.0969501
0.0993615
0.102236
0.105766
0.110183
0.115754
0.0251034
0.0513192
0.0623242
0.0687561
0.0730871
0.0762331
0.0786441
0.080584
0.0822287
0.0837055
0.0851134
0.0865356
0.0880518
0.0897504
0.091733
0.0940105
0.0956786
0.0971241
0.0986364
0.100394
0.102545
0.105258
0.108748
0.0268576
0.0533448
0.0640928
0.070255
0.0743756
0.0773621
0.0796479
0.081485
0.0830419
0.0844422
0.085784
0.0871556
0.0886559
0.0904381
0.0928335
0.0967078
0.0978988
0.0985189
0.0990567
0.0996502
0.100364
0.101257
0.102404
0.10801
0.102846
0.100967
0.120648
0.197366
0.201537
0.20811
0.219443
0.247258
0.252915
0.262749
0.276168
0.292567
0.302457
0.322195
0.353524
0.331539
0.348165
0.377212
0.417542
0.360291
0.381008
0.412634
0.453697
0.382412
0.404204
0.43609
0.478052
0.400773
0.41893
0.446693
0.484917
0.419366
0.429784
0.44878
0.47721
0.444544
0.445398
0.453362
0.469054
0.47871
0.472882
0.470408
0.473552
0.493815
0.503876
0.501046
0.496125
0.4588
0.489727
0.512826
0.52137
0.392926
0.427218
0.462502
0.493404
0.333275
0.359341
0.388265
0.418621
0.289835
0.307577
0.327389
0.34911
0.260246
0.27256
0.285988
0.300549
0.239911
0.249185
0.259076
0.269624
0.225437
0.233052
0.241078
0.249569
0.214852
0.221561
0.228603
0.236039
0.20703
0.213265
0.219807
0.226719
0.201241
0.20727
0.2136
0.22029
0.196928
0.202916
0.209206
0.21585
0.193611
0.199653
0.205994
0.212681
0.190883
0.197015
0.20344
0.210197
0.188415
0.194635
0.201138
0.207952
0.185965
0.192251
0.1988
0.205637
0.183372
0.189687
0.196246
0.203065
0.180534
0.186843
0.193376
0.200139
0.177388
0.183662
0.190139
0.19682
0.173895
0.180109
0.18651
0.193093
0.170017
0.176154
0.182467
0.188946
0.165718
0.171764
0.17798
0.184354
0.160959
0.166896
0.173008
0.179275
0.155703
0.161508
0.1675
0.173657
0.149921
0.155559
0.161407
0.16744
0.143597
0.149002
0.15466
0.160539
0.136707
0.141771
0.147141
0.152797
0.129175
0.133724
0.138639
0.143913
0.120923
0.124656
0.128793
0.13336
0.112104
0.114579
0.117404
0.120634
0.103519
0.104348
0.105309
0.106436
0.214419
0.355546
0.459979
0.53646
0.604781
0.686382
0.819341
0.990921
0.999277
0.791813
0.638635
0.518565
0.431884
0.360884
0.291692
0.234185
0.18504
0.132505
0.0645927
0.243915
0.316012
0.369276
0.412816
0.470194
0.574045
0.728679
0.942834
1.09502
0.932759
0.712889
0.5492
0.444061
0.372157
0.312162
0.265865
0.215591
0.151817
0.07374
0.296858
0.352705
0.391198
0.432864
0.51262
0.654285
0.805226
1.00641
1.16249
1.03668
0.766767
0.571968
0.453745
0.379719
0.339206
0.318462
0.268116
0.186164
0.0875104
0.406031
0.500624
0.526207
0.568086
0.669756
0.793658
0.921897
1.08509
1.21017
1.06951
0.783164
0.585742
0.468165
0.393168
0.36664
0.359942
0.318499
0.22302
0.103708
0.480145
0.559036
0.602768
0.672624
0.771659
0.881886
1.00783
1.15063
1.23151
1.03691
0.770303
0.598264
0.4911
0.413229
0.387248
0.373946
0.333579
0.252474
0.101924
0.509938
0.60491
0.682482
0.752136
0.849866
0.962543
1.08679
1.21064
1.2185
0.97676
0.750835
0.620588
0.524271
0.440099
0.411644
0.395127
0.350296
0.265766
0.098545
0.540779
0.651515
0.749869
0.826432
0.920694
1.0319
1.15397
1.24656
1.17171
0.911772
0.737114
0.658481
0.565987
0.477604
0.449944
0.436759
0.389955
0.29203
0.116257
0.547222
0.674451
0.789412
0.875585
0.963151
1.05961
1.14819
1.17988
1.05747
0.8388
0.723607
0.693537
0.61018
0.531071
0.511759
0.504614
0.45504
0.33767
0.147299
0.527057
0.648596
0.78667
0.887006
0.963376
1.02849
1.0703
1.05574
0.923559
0.777114
0.705329
0.697391
0.648542
0.602773
0.608258
0.614377
0.549128
0.392272
0.180638
0.500721
0.588171
0.719135
0.854566
0.931494
0.963063
0.984235
0.955475
0.838648
0.733633
0.686116
0.681493
0.663336
0.68991
0.735852
0.716282
0.669683
0.457661
0.210317
0.486342
0.53613
0.62102
0.733768
0.832369
0.88431
0.903324
0.846436
0.759461
0.697733
0.67021
0.666986
0.676711
0.723875
0.782512
0.800718
0.768779
0.519651
0.234454
0.491086
0.508267
0.553137
0.620283
0.693466
0.749337
0.762641
0.73526
0.701257
0.675125
0.661332
0.659703
0.677894
0.724235
0.804882
0.899186
0.853732
0.575415
0.252402
0.515244
0.504971
0.519327
0.554209
0.599939
0.641143
0.664108
0.669924
0.670516
0.668764
0.659685
0.662066
0.690048
0.752657
0.869186
0.982761
0.911675
0.624042
0.264295
0.526885
0.515372
0.511034
0.525443
0.555434
0.589235
0.617378
0.641518
0.663344
0.665622
0.657594
0.669804
0.710265
0.78995
0.920874
1.00447
0.922088
0.640664
0.270218
0.468465
0.511689
0.509891
0.517587
0.545717
0.578781
0.60385
0.631024
0.653186
0.649928
0.654861
0.677651
0.727191
0.81466
0.92476
0.961166
0.878539
0.633565
0.27118
0.387963
0.436426
0.467542
0.4803
0.507698
0.546685
0.586953
0.617996
0.630774
0.637962
0.652391
0.680439
0.730081
0.812121
0.886874
0.885048
0.802467
0.620712
0.275336
0.326815
0.362152
0.39767
0.43579
0.483097
0.536538
0.583423
0.604239
0.615075
0.628748
0.647853
0.671316
0.713714
0.77597
0.821424
0.804782
0.727455
0.597767
0.282944
0.288431
0.314092
0.343896
0.382731
0.434406
0.49495
0.549071
0.579606
0.598102
0.616908
0.633934
0.650575
0.682676
0.725438
0.752419
0.736429
0.675204
0.562316
0.280495
0.264617
0.285306
0.310619
0.34554
0.393846
0.452294
0.508195
0.547314
0.574477
0.596967
0.610848
0.624101
0.648258
0.678338
0.695807
0.684092
0.63742
0.52948
0.268871
0.24921
0.2675
0.289986
0.320736
0.363117
0.415381
0.468469
0.511787
0.545035
0.56925
0.583597
0.597318
0.618058
0.641643
0.655556
0.648364
0.612202
0.503832
0.256948
0.238975
0.256164
0.276992
0.304473
0.34126
0.386638
0.434717
0.477837
0.513091
0.538983
0.556652
0.573393
0.594119
0.615636
0.62911
0.625489
0.595976
0.487863
0.246497
0.232162
0.248932
0.268862
0.294056
0.326414
0.365696
0.408202
0.448522
0.483222
0.510684
0.532301
0.553073
0.575679
0.597343
0.611332
0.610016
0.584123
0.478727
0.237655
0.227634
0.244334
0.263788
0.287402
0.316427
0.350759
0.38808
0.424722
0.457843
0.486289
0.511262
0.535723
0.560538
0.582892
0.597226
0.596972
0.57302
0.472193
0.230109
0.224516
0.241286
0.260448
0.282896
0.309387
0.339826
0.37275
0.405801
0.437045
0.465839
0.493044
0.520074
0.546423
0.56902
0.58299
0.582668
0.559866
0.465809
0.223855
0.222118
0.238958
0.257856
0.279342
0.303833
0.331216
0.360576
0.390498
0.41986
0.448405
0.476632
0.50485
0.531623
0.553568
0.566262
0.564943
0.543149
0.458804
0.218533
0.219925
0.236757
0.255332
0.275935
0.298763
0.323702
0.350205
0.3775
0.405054
0.432837
0.461017
0.48912
0.515184
0.53553
0.546091
0.543028
0.522217
0.45086
0.213796
0.217594
0.23431
0.252475
0.272211
0.293586
0.316508
0.34068
0.365753
0.391562
0.418166
0.445453
0.472449
0.496836
0.514852
0.522693
0.517264
0.496406
0.440371
0.210365
0.214932
0.231429
0.249103
0.267971
0.288035
0.309232
0.331442
0.354573
0.378659
0.403756
0.429525
0.454686
0.476762
0.492057
0.49698
0.488898
0.46624
0.423306
0.210253
0.211856
0.228057
0.245189
0.263201
0.282064
0.301748
0.322247
0.343616
0.365973
0.389314
0.41313
0.435977
0.455384
0.467853
0.470066
0.459652
0.435087
0.395224
0.209289
0.208346
0.224212
0.240789
0.257986
0.275754
0.294093
0.313064
0.332792
0.353403
0.374818
0.396404
0.416668
0.433246
0.442956
0.442856
0.430671
0.404845
0.362154
0.201023
0.20441
0.219938
0.23599
0.252441
0.269231
0.286377
0.303971
0.322154
0.341025
0.360424
0.37965
0.397238
0.410997
0.418131
0.416047
0.402539
0.376484
0.331261
0.187674
0.200053
0.215273
0.230863
0.246666
0.26261
0.278714
0.295074
0.311817
0.328992
0.346374
0.363239
0.378206
0.389294
0.394091
0.390261
0.375758
0.350057
0.304461
0.173023
0.195262
0.210225
0.225438
0.240713
0.255958
0.271178
0.286455
0.301886
0.317462
0.332909
0.347509
0.360001
0.368615
0.371256
0.365726
0.350633
0.325655
0.281298
0.158856
0.189999
0.204766
0.219703
0.234582
0.249281
0.263783
0.278142
0.292416
0.306545
0.32021
0.332713
0.342915
0.349241
0.349804
0.342513
0.327196
0.303321
0.260685
0.145693
0.184208
0.198838
0.213601
0.22822
0.24253
0.256481
0.270094
0.283387
0.296257
0.308352
0.31898
0.327084
0.331236
0.329677
0.320787
0.305264
0.282396
0.241203
0.13346
0.177813
0.19236
0.207053
0.221548
0.235623
0.249181
0.262209
0.274694
0.286503
0.29726
0.306264
0.312466
0.31445
0.31066
0.30033
0.284262
0.261464
0.221759
0.121874
0.170711
0.185221
0.199959
0.214487
0.228485
0.241794
0.254368
0.266175
0.277069
0.286655
0.29419
0.298536
0.298265
0.292203
0.280131
0.262863
0.239268
0.2015
0.110489
0.162701
0.177214
0.192168
0.206969
0.221102
0.234304
0.246513
0.257701
0.267715
0.276123
0.28208
0.28424
0.2813
0.272681
0.258369
0.239124
0.214894
0.180102
0.0991994
0.15333
0.167835
0.183286
0.198871
0.213567
0.226874
0.238784
0.249338
0.25838
0.265397
0.269336
0.268527
0.261826
0.249832
0.233002
0.212049
0.187986
0.157413
0.0880227
0.141762
0.155833
0.172103
0.189636
0.20604
0.219909
0.231635
0.24152
0.24944
0.254724
0.255918
0.250649
0.237714
0.221369
0.202407
0.181134
0.158883
0.134295
0.0772107
0.126835
0.138667
0.15509
0.176604
0.1985
0.214014
0.225819
0.235103
0.241869
0.24518
0.242811
0.230572
0.204694
0.183328
0.164709
0.146985
0.130335
0.11406
0.0687738
0.108679
0.113727
0.123729
0.146661
0.190793
0.209983
0.222258
0.231243
0.237233
0.238968
0.23304
0.210998
0.149256
0.130021
0.120847
0.114004
0.107821
0.101866
0.0655633
)
;

boundaryField
{
    leftWall
    {
        type            kqRWallFunction;
        value           nonuniform List<scalar> 
50
(
0.003341
0.00546905
0.00661073
0.00726614
0.00758522
0.00766906
0.00763207
0.00763142
0.00828775
0.0111771
0.014903
0.0162969
0.0178137
0.0191469
0.0200711
0.0206146
0.020917
0.0210683
0.0211062
0.0210458
0.0208941
0.0206581
0.0203476
0.0199755
0.019556
0.0191043
0.0186362
0.0181673
0.0177125
0.0172852
0.0168969
0.0165568
0.0162712
0.0160445
0.0158786
0.0157738
0.0157291
0.0157429
0.0158145
0.0159461
0.0161454
0.0164297
0.0168293
0.0173937
0.0181969
0.0193395
0.0209213
0.0229262
0.0251034
0.0268576
)
;
    }
    rightWall
    {
        type            kqRWallFunction;
        value           nonuniform List<scalar> 
50
(
0.0205584
0.0295901
0.0384356
0.0460932
0.0509121
0.0544045
0.0573519
0.0604459
0.0645927
0.07374
0.0875104
0.103708
0.101924
0.098545
0.116257
0.147299
0.180638
0.210317
0.234454
0.252402
0.264295
0.270218
0.27118
0.275336
0.282944
0.280495
0.268871
0.256948
0.246497
0.237655
0.230109
0.223855
0.218533
0.213796
0.210365
0.210253
0.209289
0.201023
0.187674
0.173023
0.158856
0.145693
0.13346
0.121874
0.110489
0.0991994
0.0880227
0.0772107
0.0687738
0.0655633
)
;
    }
    lowerWall
    {
        type            kqRWallFunction;
        value           nonuniform List<scalar> 
62
(
0.003341
0.005341
0.00756924
0.00957622
0.0113652
0.01297
0.0144271
0.015756
0.0169599
0.0180304
0.0189539
0.0197178
0.0203164
0.0207559
0.0210684
0.0212738
0.0212948
0.0210886
0.0205326
0.0194301
0.0172667
0.0131594
0.00625027
0.00625027
0.013066
0.0180279
0.0236015
0.0311609
0.0429874
0.0619158
0.0898828
0.10801
0.102846
0.100967
0.120648
0.0681115
0.160508
0.209686
0.241781
0.258218
0.257886
0.242946
0.224207
0.0681115
0.113123
0.132817
0.139909
0.139241
0.135411
0.132595
0.133662
0.138164
0.143216
0.146026
0.142388
0.128171
0.106757
0.0868694
0.0727037
0.0610975
0.0425712
0.0205584
)
;
    }
    atmosphere
    {
        type            inletOutlet;
        inletValue      uniform 0.1;
        value           nonuniform List<scalar> 
46
(
0.0268576
0.0533448
0.0640928
0.070255
0.0743756
0.0773621
0.0796479
0.081485
0.0830419
0.0844422
0.085784
0.0871556
0.0886559
0.0904381
0.0928335
0.1
0.1
0.1
0.1
0.1
0.1
0.1
0.1
0.1
0.1
0.1
0.1
0.1
0.1
0.1
0.1
0.190793
0.209983
0.222258
0.231243
0.237233
0.238968
0.23304
0.210998
0.1
0.1
0.1
0.1
0.1
0.1
0.0655633
)
;
    }
    defaultFaces
    {
        type            empty;
    }
}


// ************************************************************************* //
