/*--------------------------------*- C++ -*----------------------------------*\
  =========                 |
  \\      /  F ield         | OpenFOAM: The Open Source CFD Toolbox
   \\    /   O peration     | Website:  https://openfoam.org
    \\  /    A nd           | Version:  9
     \\/     M anipulation  |
\*---------------------------------------------------------------------------*/
FoamFile
{
    format      ascii;
    class       volScalarField;
    location    "0.8";
    object      p;
}
// * * * * * * * * * * * * * * * * * * * * * * * * * * * * * * * * * * * * * //

dimensions      [1 -1 -2 0 0 0 0];

internalField   nonuniform List<scalar> 
2268
(
-1.16112
-1.16144
-1.16458
-1.16959
-1.17622
-1.18428
-1.19362
-1.20428
-1.21639
-1.23013
-1.24573
-1.26342
-1.28345
-1.30598
-1.33091
-1.35757
-1.38419
-1.40726
-1.42139
-1.42132
-1.40569
-1.38464
-1.36764
-1.10354
-1.10432
-1.10655
-1.11103
-1.11758
-1.12587
-1.13562
-1.14676
-1.15939
-1.17367
-1.1898
-1.20802
-1.22856
-1.25152
-1.27675
-1.30349
-1.32995
-1.35301
-1.36764
-1.36762
-1.35015
-1.32428
-1.30395
-1.04538
-1.04671
-1.04844
-1.05265
-1.05913
-1.06756
-1.07762
-1.08921
-1.10235
-1.11716
-1.13384
-1.15258
-1.17359
-1.19692
-1.22236
-1.24911
-1.27537
-1.29809
-1.31272
-1.31415
-1.29862
-1.2716
-1.24877
-0.986902
-0.988521
-0.98997
-0.994103
-1.0005
-1.00895
-1.01917
-1.03103
-1.0445
-1.05969
-1.07674
-1.09583
-1.11714
-1.14072
-1.16633
-1.19322
-1.21968
-1.24278
-1.25828
-1.26161
-1.24939
-1.22424
-1.19932
-0.927838
-0.929698
-0.931086
-0.935219
-0.941548
-0.949953
-0.960211
-0.972177
-0.985822
-1.0012
-1.01845
-1.03773
-1.05919
-1.0829
-1.10868
-1.13586
-1.1629
-1.18703
-1.20414
-1.20978
-1.2009
-1.17865
-1.15316
-0.86808
-0.870213
-0.871737
-0.875917
-0.882199
-0.89055
-0.900786
-0.912774
-0.926474
-0.941926
-0.959241
-0.978569
-1.00007
-1.02382
-1.04974
-1.07728
-1.10512
-1.13067
-1.14984
-1.15804
-1.15217
-1.13303
-1.10846
-0.807612
-0.81008
-0.811886
-0.816163
-0.822439
-0.830743
-0.840929
-0.852883
-0.86656
-0.881989
-0.899268
-0.918542
-0.939976
-0.963699
-0.989698
-1.01761
-1.04632
-1.07347
-1.09495
-1.10581
-1.10253
-1.08616
-1.06346
-0.746454
-0.749312
-0.751543
-0.755963
-0.762284
-0.770558
-0.78068
-0.792557
-0.806148
-0.821479
-0.838641
-0.857777
-0.879065
-0.902679
-0.928699
-0.95693
-0.986515
-1.0153
-1.03909
-1.05254
-1.05137
-1.03699
-1.0161
-1.34731
-1.36382
-1.37824
-1.40732
-1.44389
-1.4845
-1.52602
-1.56699
-1.60815
-1.65313
-1.71227
-1.8054
-1.95625
-2.17632
-2.44953
-2.71229
-2.89289
-2.98451
-3.02149
-1.28756
-1.30084
-1.31436
-1.3447
-1.38301
-1.42513
-1.46785
-1.51
-1.55285
-1.60117
-1.66605
-1.76571
-1.92153
-2.14285
-2.41373
-2.67526
-2.84766
-2.93522
-2.97096
-1.22358
-1.2384
-1.2534
-1.28526
-1.32458
-1.36714
-1.4102
-1.45304
-1.49748
-1.54916
-1.61929
-1.72489
-1.88557
-2.10818
-2.38087
-2.64643
-2.81745
-2.90363
-2.93517
-1.15704
-1.1771
-1.19605
-1.2289
-1.26819
-1.31034
-1.35321
-1.39628
-1.44161
-1.49524
-1.56798
-1.67555
-1.83766
-2.06222
-2.34511
-2.62738
-2.80391
-2.8912
-2.91247
-1.09218
-1.1182
-1.1414
-1.17443
-1.21303
-1.25436
-1.29669
-1.33956
-1.38523
-1.43967
-1.51281
-1.61898
-1.77827
-2.00246
-2.31265
-2.62038
-2.80102
-2.89064
-2.89872
-1.03256
-1.06262
-1.08916
-1.12143
-1.15884
-1.19905
-1.24058
-1.28297
-1.3285
-1.3826
-1.454
-1.55678
-1.71418
-1.93674
-2.23665
-2.60346
-2.80805
-2.89423
-2.89202
-0.983061
-1.01152
-1.03937
-1.06976
-1.10548
-1.14433
-1.18487
-1.22655
-1.27124
-1.32363
-1.39215
-1.49371
-1.6529
-1.85804
-2.06575
-2.38774
-2.56486
-2.93473
-2.91048
-0.949535
-0.967338
-0.991994
-1.01935
-1.05297
-1.09037
-1.1299
-1.17064
-1.21356
-1.26359
-1.33163
-1.42743
-1.56786
-1.70454
-1.76099
-1.99602
-2.02153
-2.95441
-2.99246
-0.649761
-0.653233
-0.65643
-0.661201
-0.667689
-0.675955
-0.685962
-0.697656
-0.711016
-0.72607
-0.742905
-0.761663
-0.782545
-0.805791
-0.831635
-0.860166
-0.890949
-0.922157
-0.949437
-0.966499
-0.96831
-0.957277
-0.93894
-0.515732
-0.520314
-0.524966
-0.530561
-0.537449
-0.545805
-0.55567
-0.567047
-0.579942
-0.594386
-0.610454
-0.628277
-0.648053
-0.670062
-0.694667
-0.722281
-0.753115
-0.786113
-0.817071
-0.838815
-0.844583
-0.82891
-0.790569
-0.379493
-0.385439
-0.391615
-0.398198
-0.4056
-0.414122
-0.423877
-0.434915
-0.44727
-0.460978
-0.476097
-0.492732
-0.511046
-0.531287
-0.553814
-0.57913
-0.607759
-0.639272
-0.670327
-0.694722
-0.704984
-0.695635
-0.673189
-0.241361
-0.248819
-0.256613
-0.264269
-0.272272
-0.281037
-0.290744
-0.301487
-0.313322
-0.326294
-0.340444
-0.355851
-0.372629
-0.390957
-0.411107
-0.433462
-0.45838
-0.485387
-0.512358
-0.535007
-0.548607
-0.550594
-0.545702
-0.101688
-0.110721
-0.120209
-0.129011
-0.137684
-0.146782
-0.156541
-0.167088
-0.178503
-0.19084
-0.20415
-0.218479
-0.23391
-0.25056
-0.26859
-0.288168
-0.309307
-0.331494
-0.35316
-0.371847
-0.385293
-0.393088
-0.398548
0.039157
0.0285238
0.0173188
0.00732891
-0.00208678
-0.0116137
-0.0215444
-0.0320352
-0.0431892
-0.0550744
-0.0677427
-0.0812415
-0.0956278
-0.110969
-0.127326
-0.144711
-0.162976
-0.181639
-0.199722
-0.215989
-0.229584
-0.240974
-0.252943
0.180741
0.168544
0.155657
0.144461
0.134242
0.124195
0.113974
0.103395
0.0923323
0.0807042
0.0684531
0.0555333
0.0419041
0.0275337
0.0124173
-0.00338523
-0.019693
-0.0361518
-0.0522672
-0.0676002
-0.0820321
-0.0960927
-0.111739
0.322664
0.308974
0.294478
0.282084
0.27102
0.260374
0.249757
0.23896
0.227839
0.2163
0.20428
0.191738
0.178644
0.164992
0.150808
0.136171
0.121238
0.106225
0.0913278
0.0765612
0.0616994
0.0462618
0.0288537
0.464543
0.449466
0.433467
0.419908
0.407976
0.396675
0.385579
0.37446
0.363162
0.351585
0.339665
0.327364
0.314666
0.301578
0.288139
0.274427
0.260552
0.246626
0.232667
0.218494
0.20374
0.187946
0.169948
0.606034
0.589705
0.572335
0.557669
0.544872
0.532881
0.521248
0.509733
0.498177
0.486477
0.474572
0.462434
0.450054
0.43745
0.424663
0.411755
0.398795
0.385817
0.372741
0.359292
0.345053
0.329591
0.311872
0.746861
0.729432
0.710842
0.695144
0.681502
0.668812
0.656609
0.644654
0.632788
0.620916
0.608984
0.596971
0.584879
0.572729
0.560559
0.548414
0.536331
0.524293
0.512168
0.499642
0.486293
0.471729
0.455029
0.886823
0.868449
0.848799
0.832158
0.817711
0.804328
0.791544
0.779126
0.766926
0.754859
0.742884
0.730989
0.719183
0.707488
0.695936
0.684562
0.673376
0.662337
0.651291
0.639921
0.627825
0.614659
0.599626
1.02579
1.00663
0.986077
0.968591
0.953386
0.939331
0.92597
0.913084
0.900542
0.888275
0.876257
0.864486
0.852977
0.841752
0.83084
0.820264
0.810025
0.80007
0.790247
0.780259
0.769739
0.758401
0.745575
1.16371
1.14391
1.12261
1.10438
1.08847
1.07377
1.05984
1.04649
1.03361
1.02114
1.00908
0.997447
0.986247
0.975509
0.965259
0.955514
0.946273
0.937486
0.929017
0.9206
0.911916
0.902735
0.892527
1.3006
1.28029
1.2584
1.23951
1.22296
1.20764
1.19316
1.17935
1.16612
1.15345
1.14136
1.12985
1.11897
1.10872
1.09914
1.09024
1.08203
1.07448
1.06745
1.06074
1.05406
1.04724
1.0399
1.43652
1.41585
1.3935
1.37405
1.3569
1.341
1.32597
1.3117
1.29811
1.28524
1.27309
1.2617
1.2511
1.24132
1.23239
1.22434
1.21716
1.21085
1.20531
1.20034
1.19572
1.19134
1.18691
1.57163
1.55072
1.52804
1.50812
1.49042
1.47396
1.45839
1.44364
1.42969
1.41656
1.40432
1.393
1.38264
1.37328
1.36494
1.35768
1.3515
1.3464
1.34229
1.33903
1.33641
1.33436
1.33269
1.70613
1.68511
1.66224
1.64193
1.62372
1.60671
1.5906
1.57535
1.56099
1.54757
1.53517
1.52385
1.51364
1.50459
1.49676
1.4902
1.48492
1.48093
1.47816
1.47646
1.47567
1.47571
1.47644
1.84031
1.81931
1.79636
1.77574
1.75708
1.73953
1.72287
1.70709
1.69226
1.67849
1.66584
1.65439
1.64422
1.63537
1.62793
1.62194
1.61744
1.61442
1.61282
1.6125
1.61328
1.61506
1.61772
1.97453
1.95367
1.93079
1.90995
1.89087
1.87279
1.85556
1.83921
1.82385
1.80962
1.79661
1.78493
1.77465
1.76588
1.75869
1.75315
1.7493
1.74713
1.74655
1.7474
1.7495
1.75271
1.75684
2.10922
2.08864
2.06597
2.045
2.02556
2.00697
1.98913
1.97215
1.95619
1.94139
1.9279
1.91585
1.90535
1.89653
1.88949
1.88432
1.88105
1.87964
1.87999
1.88191
1.88518
1.88962
1.89498
2.2449
2.22476
2.20244
2.18145
2.16169
2.14259
2.12413
2.10646
2.08979
2.07432
2.06022
2.04768
2.03685
2.02791
2.02098
2.01615
2.01344
2.0128
2.01408
2.01708
2.02153
2.0272
2.03377
2.38217
2.36263
2.34083
2.31992
2.29989
2.28027
2.26114
2.2427
2.22522
2.20894
2.19412
2.18099
2.16977
2.16068
2.15387
2.14941
2.14732
2.1475
2.1498
2.15398
2.15974
2.16678
2.17475
2.5217
2.50294
2.4818
2.46108
2.44081
2.42067
2.40079
2.38147
2.36304
2.34582
2.33014
2.31633
2.30469
2.29546
2.28881
2.2848
2.2834
2.28451
2.28794
2.29342
2.30067
2.3093
2.31894
2.66422
2.64639
2.62608
2.60562
2.58513
2.5644
2.54367
2.52332
2.50375
2.4854
2.46873
2.45416
2.44206
2.43271
2.42627
2.42277
2.42216
2.42427
2.42892
2.43584
2.44474
2.45519
2.46679
2.81049
2.79376
2.7744
2.75426
2.73353
2.71211
2.69035
2.66872
2.64776
2.62805
2.61019
2.59473
2.58211
2.57264
2.56643
2.56348
2.56368
2.56684
2.57275
2.58119
2.59188
2.60435
2.61822
2.96133
2.94582
2.92749
2.90771
2.88665
2.86438
2.84133
2.81809
2.79537
2.77396
2.75463
2.73807
2.72481
2.71515
2.70916
2.70677
2.70778
2.71199
2.71919
2.72919
2.74176
2.75642
2.7728
3.11757
3.10334
3.08611
3.06666
3.04517
3.02181
2.99712
2.97182
2.94685
2.92325
2.90204
2.8841
2.87
2.86004
2.85422
2.85234
2.85412
2.85932
2.86774
2.87925
2.8937
2.91058
2.92956
3.28012
3.26711
3.25099
3.23184
3.20978
3.18507
3.15831
3.1304
3.10254
3.07611
3.05246
3.03268
3.01743
3.00695
3.00113
2.99961
3.002
3.008
3.01745
3.03031
3.04652
3.06558
3.08712
3.45005
3.43779
3.42286
3.40402
3.38133
3.35506
3.32581
3.2946
3.26296
3.23277
3.20582
3.18347
3.16651
3.15513
3.14905
3.14768
3.15046
3.15701
3.16723
3.1812
3.19898
3.22007
3.2441
3.62879
3.61578
3.60252
3.58416
3.56095
3.53306
3.50087
3.46541
3.42868
3.39331
3.36174
3.33578
3.31634
3.30356
3.29689
3.29544
3.29838
3.3052
3.31587
3.33066
3.34976
3.37273
3.39914
3.81664
3.80312
3.79099
3.7734
3.75004
3.72067
3.68507
3.64404
3.60027
3.55764
3.51963
3.48861
3.46567
3.45088
3.44329
3.44151
3.44435
3.45111
3.46185
3.47711
3.49728
3.52197
3.55071
4.01532
4.00033
3.98938
3.97297
3.95021
3.91996
3.88056
3.83202
3.77829
3.72544
3.67853
3.64068
3.61295
3.59534
3.5864
3.58401
3.58644
3.59269
3.60308
3.61853
3.63959
3.6659
3.69688
4.22575
4.2089
4.19872
4.18418
4.16346
4.13372
4.09029
4.03115
3.96281
3.89568
3.83692
3.79035
3.75646
3.73515
3.72417
3.72075
3.72226
3.72729
3.73683
3.75239
3.77442
3.80236
3.83543
4.44843
4.43033
4.42015
4.40846
4.39224
4.36572
4.31804
4.24264
4.15175
4.06519
3.99205
3.93555
3.89401
3.86788
3.85358
3.84892
3.84946
3.85174
3.85965
3.87565
3.89924
3.92902
3.96387
4.68218
4.66608
4.65512
4.64733
4.63932
4.62026
4.56644
4.46258
4.33605
4.22643
4.1404
4.07534
4.02001
3.98399
3.97208
3.96862
3.96399
3.96213
3.96888
3.9866
4.01287
4.04549
4.08231
4.92093
4.91756
4.90507
4.90067
4.90402
4.89826
4.83358
4.67425
4.49684
4.36976
4.28063
4.21995
4.14786
4.1171
4.10004
4.07423
4.06635
4.06611
4.07597
4.09949
4.13103
4.16752
4.20697
5.17252
5.18255
5.16368
5.15068
5.16021
5.18177
5.11967
4.8973
4.66703
4.50513
4.47211
4.54215
4.5416
4.4114
4.27682
4.20149
4.19138
4.19549
4.23005
4.27389
4.31605
4.35736
4.41466
5.49169
5.48228
5.47826
5.49606
5.54633
5.58636
5.50016
5.08695
5.05975
5.3151
5.38675
5.42962
5.06798
4.78419
4.40519
4.31354
4.25947
3.97983
3.99584
3.98996
4.09696
4.1004
4.22022
5.81691
5.82407
5.93603
6.02389
6.13061
6.14831
6.29548
5.87053
4.51079
4.23409
5.71394
6.17839
5.96775
6.58439
7.02752
9.2928
14.0093
11.7154
10.9744
9.48813
10.4268
9.1531
12.5411
6.09166
6.1407
6.4157
6.42681
6.51829
6.55048
6.53703
6.98159
8.9616
10.1003
17.0891
14.6459
13.5371
13.3848
14.8705
15.8749
41.8839
35.5557
50.0296
37.8554
52.1303
41.2032
56.9646
6.48448
6.18534
6.87499
6.34144
6.62558
6.74986
7.18438
15.4121
7.76673
12.7369
42.1347
18.3134
28.3364
15.0184
22.3834
26.687
100.896
52.8618
126.824
58.716
122.28
61.442
129.598
-0.973273
-0.967467
-0.986392
-1.01093
-0.793154
-0.797472
-0.801102
-0.808371
-0.670398
-0.67031
-0.668799
-0.668642
-0.545108
-0.546566
-0.548603
-0.550615
-0.404227
-0.409461
-0.415731
-0.421994
-0.264094
-0.271958
-0.280455
-0.289078
-0.125505
-0.13488
-0.144848
-0.155069
0.0139339
0.0036373
-0.00739862
-0.0188595
0.154572
0.143846
0.132286
0.120165
0.296715
0.286066
0.274539
0.262379
0.440758
0.430669
0.419707
0.408102
0.586837
0.577759
0.567866
0.557375
0.73478
0.727106
0.718731
0.709844
0.884112
0.878149
0.871637
0.864729
1.03408
1.03001
1.02557
1.02085
1.18372
1.18156
1.17921
1.17669
1.33194
1.33153
1.33108
1.33056
1.47771
1.47874
1.4798
1.48085
1.62049
1.62251
1.62459
1.62667
1.7606
1.76324
1.7659
1.76859
1.89946
1.90254
1.90562
1.90879
2.03902
2.0426
2.0462
2.04994
2.18099
2.18527
2.18966
2.19418
2.32651
2.33179
2.33729
2.34285
2.47607
2.48268
2.48963
2.49651
2.62961
2.63792
2.64671
2.65523
2.78667
2.79703
2.80807
2.81856
2.9461
2.95874
2.97234
2.98515
3.10628
3.12125
3.13763
3.1531
3.26575
3.28296
3.30217
3.32048
3.42315
3.44248
3.46435
3.48538
3.57695
3.59812
3.62225
3.64561
3.72515
3.74772
3.77355
3.79871
3.86556
3.88909
3.9162
3.94275
3.99506
4.01872
4.04649
4.07439
4.11438
4.13731
4.16377
4.19187
4.22542
4.24221
4.26542
4.29499
4.46964
4.48466
4.48707
4.50205
4.24167
4.17377
4.14546
4.37094
21.7042
23.2029
15.0617
12.1472
47.9879
41.27
50.9039
58.8586
70.091
60.3134
78.3417
136.259
-0.936129
-0.910917
-0.920483
-0.942223
-0.972474
-1.00795
-1.04617
-1.08497
-1.12433
-1.17118
-1.22772
-1.28481
-1.32559
-1.34248
-1.29732
-1.43684
-2.19269
-1.93376
21.0848
-0.808612
-0.810484
-0.818402
-0.837578
-0.86573
-0.899587
-0.935648
-0.97103
-1.00778
-1.04211
-1.06268
-1.06359
-1.04276
-1.01122
-0.952906
-0.909607
-1.2029
-3.6185
6.80806
-0.675523
-0.691923
-0.708014
-0.730534
-0.759635
-0.793284
-0.82775
-0.860009
-0.889268
-0.901829
-0.897138
-0.887892
-0.875311
-0.847163
-0.804619
-0.760635
-0.86264
-1.66577
5.48963
-0.55658
-0.574161
-0.595348
-0.622038
-0.653667
-0.688018
-0.72141
-0.750507
-0.765413
-0.764802
-0.757802
-0.751221
-0.735522
-0.708715
-0.675494
-0.634459
-0.633423
-1.14275
7.11991
-0.433563
-0.455201
-0.481121
-0.512035
-0.546635
-0.581863
-0.614173
-0.638207
-0.645364
-0.643015
-0.638952
-0.627045
-0.604341
-0.57229
-0.53282
-0.47012
-0.37417
-0.767872
7.00996
-0.304959
-0.332129
-0.363458
-0.398901
-0.436483
-0.47243
-0.503383
-0.523356
-0.530285
-0.531475
-0.525933
-0.509224
-0.481595
-0.445936
-0.402466
-0.340097
-0.256202
-0.37905
5.29565
-0.173681
-0.205251
-0.241341
-0.28086
-0.320925
-0.357294
-0.386844
-0.406234
-0.416535
-0.420994
-0.416477
-0.396055
-0.366175
-0.33068
-0.291042
-0.250002
-0.234566
-0.298058
3.7615
-0.0395507
-0.0742478
-0.113829
-0.156264
-0.197833
-0.234205
-0.26261
-0.282635
-0.297615
-0.309712
-0.317407
-0.29141
-0.256605
-0.221472
-0.184423
-0.152697
-0.165956
-0.101753
2.46687
0.0983102
0.0618241
0.0202505
-0.0235804
-0.0653727
-0.100959
-0.128195
-0.14953
-0.167267
-0.183047
-0.187084
-0.186259
-0.151212
-0.118826
-0.0831
-0.0550023
-0.0708675
0.15105
4.23235
0.240449
0.203724
0.161873
0.11834
0.077689
0.0436774
0.0174537
-0.00486324
-0.0217251
-0.0408266
-0.0305445
-0.0508193
-0.0452688
-0.0250788
0.00398431
0.0215217
0.011137
0.261566
5.65155
0.387164
0.351842
0.311528
0.269978
0.231703
0.199839
0.174464
0.151772
0.138302
0.121876
0.12463
0.0937507
0.0657932
0.0623508
0.0720156
0.06164
0.0461555
0.240207
4.37293
0.538428
0.506109
0.469095
0.431104
0.396214
0.366982
0.34294
0.320944
0.311642
0.308219
0.285849
0.239138
0.183964
0.146592
0.116638
0.0463087
0.0241535
0.280523
3.32091
0.693757
0.66586
0.63371
0.600618
0.569909
0.543539
0.520927
0.499987
0.492898
0.505701
0.458046
0.385678
0.308464
0.233723
0.141871
-0.0384973
-0.0196479
0.478343
3.60285
0.852151
0.829771
0.803665
0.776396
0.750368
0.726786
0.7053
0.685142
0.673614
0.684972
0.635802
0.549809
0.453051
0.348621
0.206007
-0.140855
-0.0972677
0.617537
4.93925
1.01213
0.995878
0.97644
0.955402
0.93411
0.913158
0.892513
0.872501
0.847805
0.835898
0.816269
0.745942
0.637036
0.53297
0.412133
-0.0488655
0.220411
5.55149
9.03053
1.17183
1.16169
1.14877
1.13371
1.11694
1.09847
1.07856
1.05878
1.01897
0.994776
0.996446
0.936747
0.840239
0.759087
0.70109
0.469684
0.568355
8.68427
8.3511
1.32914
1.32445
1.31722
1.30737
1.29471
1.27866
1.2588
1.23814
1.21025
1.19395
1.1734
1.11112
1.03933
0.983365
0.971946
1.06159
0.508506
1.61257
3.52825
1.48212
1.48165
1.47893
1.47344
1.4647
1.45181
1.43306
1.41043
1.41217
1.4115
1.35909
1.28714
1.22801
1.18261
1.17505
1.41748
1.34386
1.39913
1.82866
1.62978
1.63234
1.63312
1.63141
1.62673
1.61821
1.60443
1.58663
1.59625
1.59272
1.53313
1.45924
1.4018
1.35032
1.32999
1.66175
2.21163
4.37046
3.57094
1.77291
1.77786
1.78164
1.78354
1.78306
1.77937
1.77165
1.76316
1.76274
1.74282
1.68756
1.62057
1.56145
1.49354
1.44791
1.88532
3.15866
8.03119
6.32292
1.91419
1.92137
1.92807
1.93364
1.93754
1.93885
1.93677
1.93332
1.92546
1.89927
1.84779
1.78192
1.71516
1.62589
1.52345
2.17048
4.73859
12.2188
8.49647
2.05654
2.06615
2.07599
2.08545
2.09396
2.10058
2.10414
2.10418
2.09587
2.07024
2.02128
1.95363
1.87646
1.76248
1.53134
2.42106
7.94414
16.8062
9.62728
2.20223
2.21461
2.22798
2.24173
2.25522
2.26753
2.27717
2.28211
2.27771
2.25691
2.21361
2.14994
2.07225
1.9598
1.70279
3.40366
14.8377
19.4857
9.91118
2.35264
2.36823
2.38563
2.40421
2.42331
2.44195
2.45848
2.47019
2.47251
2.45927
2.42587
2.3727
2.30206
2.21858
2.30061
5.70145
19.5422
19.5215
9.82549
2.5084
2.52767
2.54972
2.57387
2.5994
2.62533
2.64982
2.66981
2.68053
2.67597
2.6521
2.60849
2.53698
2.44135
2.70935
6.99514
21.8866
20.9431
10.8872
2.66959
2.69304
2.72042
2.75099
2.78394
2.81827
2.85199
2.88167
2.90212
2.90674
2.89046
2.85214
2.76601
2.60883
2.99666
8.94075
26.9659
26.4429
14.6251
2.83574
2.86388
2.89729
2.93519
2.97665
3.02064
3.06501
3.10607
3.13803
3.1534
3.14554
3.1098
3.00148
2.75773
3.35386
11.7038
34.731
35.2973
21.4324
3.00561
3.03895
3.07909
3.12525
3.17632
3.23132
3.28806
3.34259
3.38893
3.41891
3.42443
3.3964
3.28093
2.98667
3.83548
15.2028
44.025
46.4413
31.1789
3.17736
3.21639
3.26388
3.31911
3.38082
3.44816
3.51908
3.58968
3.65413
3.70455
3.73209
3.72429
3.63821
3.4563
4.66427
19.5446
54.1601
59.2418
43.7484
3.34887
3.39395
3.4492
3.51409
3.58725
3.66802
3.75477
3.84399
3.93039
4.00689
4.06395
4.08513
4.05246
4.14357
5.65938
23.9378
65.0401
73.5033
59.2671
3.51787
3.56904
3.63218
3.70699
3.792
3.8869
3.99072
4.10073
4.21241
4.31889
4.409
4.4595
4.45874
4.71123
6.65657
29.2469
77.5285
89.476
77.6033
3.6818
3.73887
3.80968
3.89424
3.99098
4.10009
4.22167
4.35418
4.49398
4.63411
4.76095
4.84071
4.84619
5.15164
8.02454
37.7383
92.9362
108.167
100.658
3.83814
3.90067
3.97864
4.07233
4.17997
4.30252
4.44179
4.59792
4.76859
4.94802
5.12159
5.2396
5.25117
5.59959
10.1345
50.0368
112.582
131.431
130.335
3.98481
4.05213
4.13659
4.23845
4.35544
4.48959
4.64554
4.82568
5.02996
5.25797
5.49873
5.6785
5.72536
6.23651
12.8852
64.7375
138.426
162.507
169.975
4.11934
4.19108
4.28185
4.3915
4.51588
4.65788
4.82808
5.0322
5.27039
5.55144
5.87205
6.13238
6.2869
7.3786
17.4345
86.3242
174.661
205.202
224.073
4.23924
4.3147
4.41398
4.53436
4.66448
4.80546
4.98389
5.21015
5.47062
5.77318
6.13279
6.48085
6.90723
9.32003
26.5007
129.967
226.91
263.033
297.91
4.35792
4.43144
4.53878
4.6813
4.81517
4.93575
5.11156
5.35162
5.60123
5.86919
6.27357
6.93324
8.44764
15.4244
67.9868
210.418
294.608
343.912
393.219
4.53675
4.55644
4.66179
4.86921
5.01439
5.05009
5.20136
5.4925
5.75744
6.17348
7.23174
9.65979
16.8671
66.5199
182.231
308.286
381.215
443.307
510.052
4.49045
4.3025
4.40777
4.94383
5.17852
4.89412
5.07594
5.88848
6.75519
8.97149
17.619
39.6032
99.9268
218.185
342.391
420.146
487.293
558.226
644.634
24.0099
26.4697
26.4398
28.9251
26.6638
21.5062
23.5801
35.8702
52.0252
73.125
127.4
201.251
315.967
396.142
483.921
527.705
600.317
680.752
792.852
93.0072
50.2064
50.6564
120.901
145.267
60.9633
59.728
169.303
224.907
191.985
280.562
314.87
439.203
468.291
574.71
602.912
688.685
777.293
1033.08
163.187
49.7332
51.9522
211.193
240.499
72.1188
74.8805
273.46
315.936
162.795
375.779
233.312
559.482
342.289
768.324
457.392
963.854
572.38
1321.2
)
;

boundaryField
{
    leftWall
    {
        type            calculated;
        value           nonuniform List<scalar> 
50
(
-1.16112
-1.10354
-1.04538
-0.986902
-0.927838
-0.86808
-0.807612
-0.746454
-0.649761
-0.515732
-0.379493
-0.241361
-0.101688
0.039157
0.180741
0.322664
0.464543
0.606034
0.746861
0.886823
1.02579
1.16371
1.3006
1.43652
1.57163
1.70613
1.84031
1.97453
2.10922
2.2449
2.38217
2.5217
2.66422
2.81049
2.96133
3.11757
3.28012
3.45005
3.62879
3.81664
4.01532
4.22575
4.44843
4.68218
4.92093
5.17252
5.49169
5.81691
6.09166
6.48448
)
;
    }
    rightWall
    {
        type            calculated;
        value           nonuniform List<scalar> 
50
(
-3.02149
-2.97096
-2.93517
-2.91247
-2.89872
-2.89202
-2.91048
-2.99246
21.0848
6.80806
5.48963
7.11991
7.00996
5.29565
3.7615
2.46687
4.23235
5.65155
4.37293
3.32091
3.60285
4.93925
9.03053
8.3511
3.52825
1.82866
3.57094
6.32292
8.49647
9.62728
9.91118
9.82549
10.8872
14.6251
21.4324
31.1789
43.7484
59.2671
77.6033
100.658
130.335
169.975
224.073
297.91
393.219
510.052
644.634
792.852
1033.08
1321.2
)
;
    }
    lowerWall
    {
        type            calculated;
        value           nonuniform List<scalar> 
62
(
-1.19063
-1.19094
-1.19406
-1.19902
-1.20565
-1.21371
-1.22305
-1.23371
-1.24582
-1.25956
-1.27516
-1.29285
-1.31288
-1.33541
-1.36034
-1.387
-1.41362
-1.43669
-1.45082
-1.45075
-1.43512
-1.41407
-1.39707
-1.36764
-1.30395
-1.24877
-1.19932
-1.15316
-1.10846
-1.06346
-1.0161
-1.03587
-1.03006
-1.04899
-1.07353
-1.34731
-1.28756
-1.22358
-1.15704
-1.09218
-1.03256
-0.983061
-0.949535
-1.37674
-1.39325
-1.40767
-1.43675
-1.47332
-1.51393
-1.55545
-1.59642
-1.63758
-1.68256
-1.7417
-1.83483
-1.98568
-2.20575
-2.47896
-2.74172
-2.92232
-3.01395
-3.05092
)
;
    }
    atmosphere
    {
        type            calculated;
        value           nonuniform List<scalar> 
46
(
6.64022
5.72904
7.62634
5.72904
6.5286
6.5286
5.70651
28.9294
5.72607
5.72904
76.9556
5.72904
42.1147
5.72904
27.1075
5.72904
191.464
5.72904
217.529
5.72904
193.815
5.72904
208.138
5.72904
5.72904
5.72904
240.418
233.531
5.72904
5.72904
292.09
329.585
5.72904
5.72904
344.261
388.25
5.72904
503.931
5.72904
781.714
5.72904
1104.06
5.72904
1454.42
5.72904
1738.59
)
;
    }
    defaultFaces
    {
        type            empty;
    }
}


// ************************************************************************* //
