/*--------------------------------*- C++ -*----------------------------------*\
  =========                 |
  \\      /  F ield         | OpenFOAM: The Open Source CFD Toolbox
   \\    /   O peration     | Website:  https://openfoam.org
    \\  /    A nd           | Version:  9
     \\/     M anipulation  |
\*---------------------------------------------------------------------------*/
FoamFile
{
    format      ascii;
    class       volScalarField;
    location    "0.8";
    object      p;
}
// * * * * * * * * * * * * * * * * * * * * * * * * * * * * * * * * * * * * * //

dimensions      [1 -1 -2 0 0 0 0];

internalField   nonuniform List<scalar> 
2268
(
648.966
644.748
642.954
644.274
648.738
655.72
664.767
675.523
687.726
701.155
715.629
731.009
747.194
764.056
781.412
799.068
816.722
833.497
848.263
859.813
866.5
865.662
856.962
590.678
585.915
584.064
585.701
590.497
597.714
606.891
617.682
629.838
643.156
657.468
672.644
688.576
705.141
722.158
739.388
756.487
772.937
787.587
798.599
804.606
803.409
795.055
530.539
526.126
524.901
527.052
532.199
539.67
549.015
559.883
572.033
585.264
599.415
614.364
629.999
646.196
662.765
679.444
695.866
711.55
725.617
736.349
742.385
741.334
732.453
468.967
465.31
465.003
467.733
473.263
481.025
490.577
501.578
513.786
527
541.055
555.825
571.212
587.104
603.313
619.571
635.529
650.748
664.409
675.075
681.58
680.45
669.379
406.41
403.659
404.281
407.576
413.524
421.626
431.444
442.646
454.994
468.278
482.319
496.983
512.194
527.882
543.863
559.867
575.603
590.728
604.5
615.577
622.916
621.68
606.119
342.945
341.277
342.793
346.62
353.026
361.532
371.678
383.153
395.719
409.158
423.262
437.879
452.974
468.553
484.424
500.301
515.971
531.24
545.429
557.274
566.269
565.447
541.022
278.498
278.082
280.459
284.812
291.768
300.807
311.376
323.195
336.048
349.713
363.945
378.555
393.576
409.125
424.984
440.82
456.514
472.054
486.829
499.844
511.423
510.283
470.552
213.129
213.457
216.405
221.29
229.08
239.079
250.373
262.749
276.024
290.013
304.431
319.049
333.999
349.556
365.477
381.354
397.141
412.997
428.45
442.945
456.733
453.554
402.604
1448
1282.09
1062.35
857.034
719.493
653.589
640.929
661.064
713.436
807.317
936.907
1048.38
1083.09
1064.16
1041.45
1035.71
1032.3
1009.61
993.121
1432.35
1246.72
1003.81
790.37
651.4
584.369
570.864
586.343
628.936
706.942
822.145
931.492
976.114
971.472
959.686
959.496
959.064
942.45
935.875
1378.51
1155.77
903.064
703.533
573.675
510.892
500.423
511.701
543.173
604.17
706.103
817.298
871.317
876.394
873.711
881.501
890.924
886.123
878.9
1268.8
1007.91
764.629
590.926
476.447
424.134
424.453
436.545
460.081
506.739
602.757
726.449
793.605
800.112
794.431
804.65
825.056
833.977
825.106
1117.46
831.854
596.698
446.879
355.142
323.912
348.357
378.362
400.126
431.818
518.931
652.027
729.326
733.022
723.082
732.183
757.923
778.549
770.714
954.165
656.851
440.412
331.603
273.228
267.734
316.698
363.156
387.594
412.059
477.849
594.653
665.238
659.887
648.645
662.927
689.316
717.766
712.316
811.946
507.352
359.165
289.54
248.863
256.872
326.133
369.826
392.122
415.589
467.666
556.68
609.451
580.708
560.815
588.042
621.619
652.757
650.43
705.202
418.187
325.375
276.949
249.278
258.418
334.58
375.653
395.274
417.689
457.823
524.788
560.136
498.584
464.586
501.8
545.373
581.026
585.394
109.808
110.747
114.087
119.251
127.508
138.754
152.195
166.382
181.03
196.039
211.038
225.691
240.447
256.099
272.292
288.345
304.274
320.645
337.395
354.104
368.313
365.51
347.33
18.1302
18.4181
19.8562
21.9119
25.5459
31.3515
40.1145
50.4078
61.7697
73.8556
85.9847
97.9867
111.691
128.445
146.063
161.913
176.712
193.293
211.584
228.941
245.159
256.144
245.628
0.114489
0.00787549
0.140222
0.157232
0.153264
0.229943
0.838951
2.36526
4.84408
8.21409
12.1135
16.458
22.6281
31.6208
41.5889
49.1584
57.2096
71.3936
87.7291
102.425
128.903
177.514
171.343
-0.199971
-0.244802
-0.23874
-0.246595
-0.249766
-0.242846
-0.237664
-0.253756
-0.290209
-0.310285
-0.310633
-0.312149
-0.322101
-0.314778
-0.263101
-0.121371
1.42559
6.51967
12.5205
20.1841
45.3038
96.1081
112.652
-0.359464
-0.368139
-0.367396
-0.373853
-0.38298
-0.398165
-0.426487
-0.450814
-0.463122
-0.462239
-0.44988
-0.429445
-0.403951
-0.372748
-0.337874
-0.305104
-0.269338
-0.214206
0.411222
3.5576
14.1307
30.2439
49.6965
-0.511193
-0.511615
-0.509186
-0.512216
-0.519893
-0.532341
-0.550534
-0.566805
-0.575252
-0.574393
-0.564429
-0.546362
-0.520685
-0.485786
-0.437643
-0.371539
-0.280577
-0.153226
0.0526119
0.592981
1.69919
3.8486
12.873
-0.667967
-0.667642
-0.666389
-0.667963
-0.672569
-0.679611
-0.688462
-0.696487
-0.700498
-0.698101
-0.688331
-0.671253
-0.646407
-0.611435
-0.562585
-0.496126
-0.405997
-0.281121
-0.143927
-0.0893129
-0.177162
-0.48664
-3.35762
-0.822649
-0.821697
-0.820835
-0.82174
-0.824575
-0.828818
-0.833572
-0.837146
-0.837512
-0.83303
-0.82284
-0.806631
-0.783712
-0.752441
-0.710919
-0.658107
-0.593462
-0.516249
-0.441373
-0.429424
-0.550213
-1.01256
-4.27287
-0.97569
-0.974149
-0.973089
-0.973447
-0.975216
-0.977875
-0.980541
-0.981895
-0.98053
-0.975403
-0.965979
-0.951991
-0.932976
-0.908184
-0.877331
-0.841633
-0.80439
-0.771946
-0.758157
-0.791661
-0.90675
-1.1348
-1.66877
-1.12832
-1.12661
-1.12541
-1.12537
-1.12642
-1.12806
-1.12952
-1.1298
-1.12795
-1.12336
-1.11576
-1.10507
-1.09115
-1.07397
-1.05431
-1.03457
-1.01934
-1.01565
-1.03446
-1.09293
-1.20575
-1.34669
-1.4546
-1.28055
-1.27895
-1.27777
-1.27755
-1.27822
-1.27934
-1.28026
-1.28026
-1.27871
-1.27533
-1.27011
-1.26317
-1.25464
-1.24495
-1.23544
-1.2289
-1.22967
-1.24364
-1.2776
-1.34107
-1.4438
-1.56489
-1.62372
-1.43232
-1.43094
-1.42989
-1.42965
-1.43021
-1.43119
-1.43208
-1.43235
-1.4316
-1.42979
-1.42712
-1.42392
-1.42047
-1.41745
-1.41642
-1.42009
-1.43217
-1.45722
-1.49981
-1.56369
-1.65348
-1.76522
-1.85207
-1.58365
-1.58254
-1.58168
-1.58153
-1.58212
-1.5832
-1.58438
-1.58526
-1.5856
-1.5855
-1.58533
-1.58555
-1.58656
-1.58913
-1.5948
-1.60606
-1.62601
-1.65812
-1.70594
-1.7719
-1.85705
-1.96251
-2.08072
-1.73454
-1.7337
-1.73306
-1.73303
-1.73376
-1.73507
-1.73672
-1.73838
-1.73993
-1.74155
-1.74369
-1.7469
-1.75165
-1.75868
-1.76943
-1.78611
-1.81131
-1.84772
-1.89817
-1.96507
-2.04948
-2.15297
-2.2777
-1.88496
-1.88438
-1.88393
-1.88405
-1.88493
-1.88655
-1.88873
-1.89125
-1.89401
-1.89723
-1.90142
-1.90716
-1.91495
-1.92545
-1.9399
-1.96024
-1.98867
-2.02734
-2.07843
-2.14405
-2.22557
-2.32419
-2.44088
-2.03487
-2.03449
-2.03422
-2.03446
-2.03549
-2.0374
-2.04012
-2.04348
-2.04738
-2.05203
-2.05794
-2.06574
-2.07594
-2.08909
-2.10619
-2.12886
-2.15899
-2.19839
-2.24876
-2.31173
-2.38852
-2.48007
-2.58724
-2.18421
-2.18397
-2.18383
-2.18417
-2.18532
-2.18747
-2.19066
-2.19476
-2.19968
-2.20556
-2.21287
-2.22225
-2.23427
-2.24938
-2.26834
-2.29241
-2.32317
-2.36218
-2.41086
-2.47043
-2.54179
-2.62543
-2.72194
-2.33289
-2.33275
-2.33269
-2.3331
-2.33432
-2.33663
-2.34018
-2.34489
-2.35068
-2.35758
-2.36599
-2.37651
-2.38975
-2.40619
-2.42637
-2.45118
-2.48187
-2.51976
-2.56605
-2.62174
-2.68743
-2.7632
-2.84911
-2.48086
-2.48077
-2.48078
-2.48122
-2.48246
-2.48485
-2.48861
-2.49376
-2.50021
-2.50794
-2.51719
-2.52848
-2.54242
-2.55956
-2.58034
-2.60539
-2.63556
-2.67192
-2.71545
-2.76702
-2.82707
-2.89543
-2.97187
-2.62806
-2.628
-2.62806
-2.62853
-2.62977
-2.63214
-2.63595
-2.64134
-2.64824
-2.65658
-2.66645
-2.67823
-2.69248
-2.70977
-2.73057
-2.75534
-2.78467
-2.81929
-2.85999
-2.90745
-2.96208
-3.02362
-3.09173
-2.77443
-2.77439
-2.77451
-2.77503
-2.77626
-2.77856
-2.78229
-2.78769
-2.79478
-2.80348
-2.81378
-2.82586
-2.84017
-2.85722
-2.87754
-2.90155
-2.92969
-2.96244
-3.00034
-3.04392
-3.09349
-3.14881
-3.20958
-2.91994
-2.91992
-2.9201
-2.9207
-2.92194
-2.92415
-2.92772
-2.93295
-2.93997
-2.94875
-2.95924
-2.97146
-2.98568
-3.0023
-3.02182
-3.0447
-3.07131
-3.102
-3.13713
-3.17706
-3.22201
-3.27175
-3.32604
-3.06454
-3.06454
-3.0648
-3.06551
-3.06681
-3.06896
-3.07233
-3.07726
-3.08398
-3.09256
-3.10296
-3.11512
-3.12913
-3.14525
-3.16387
-3.18542
-3.21028
-3.23875
-3.27108
-3.30754
-3.34826
-3.39298
-3.44156
-3.2082
-3.20821
-3.20856
-3.20941
-3.21081
-3.21296
-3.21615
-3.22074
-3.22702
-3.23515
-3.24517
-3.25701
-3.27065
-3.28621
-3.30392
-3.32414
-3.34721
-3.37341
-3.40297
-3.43609
-3.47286
-3.51304
-3.55652
-3.35088
-3.35091
-3.35134
-3.35234
-3.35388
-3.35608
-3.35916
-3.36344
-3.36924
-3.37678
-3.38618
-3.39742
-3.41048
-3.42534
-3.44214
-3.46108
-3.48243
-3.50645
-3.53335
-3.56332
-3.5964
-3.6324
-3.67125
-3.49258
-3.49261
-3.49312
-3.49426
-3.49596
-3.49826
-3.5013
-3.50536
-3.51071
-3.51762
-3.52627
-3.53672
-3.54895
-3.56294
-3.57872
-3.5964
-3.61614
-3.63814
-3.66257
-3.68959
-3.71926
-3.7514
-3.78601
-3.63331
-3.63334
-3.6339
-3.63515
-3.637
-3.63942
-3.64249
-3.64641
-3.65141
-3.65774
-3.66563
-3.67518
-3.68644
-3.69938
-3.71402
-3.73039
-3.74856
-3.76866
-3.79081
-3.81513
-3.84167
-3.87028
-3.90097
-3.77309
-3.7731
-3.7737
-3.77503
-3.77699
-3.77951
-3.78264
-3.78649
-3.79124
-3.79711
-3.8043
-3.81297
-3.82319
-3.835
-3.8484
-3.86339
-3.88
-3.89829
-3.91831
-3.94015
-3.96383
-3.98921
-4.01632
-3.91195
-3.91195
-3.91257
-3.91393
-3.91595
-3.91854
-3.92172
-3.92553
-3.9301
-3.93561
-3.94222
-3.95009
-3.95933
-3.97
-3.98213
-3.99572
-4.01077
-4.0273
-4.04532
-4.06487
-4.08595
-4.1084
-4.13224
-4.04995
-4.04994
-4.05055
-4.05191
-4.05393
-4.05654
-4.05972
-4.06349
-4.06792
-4.07314
-4.07927
-4.08646
-4.09482
-4.10442
-4.11533
-4.12754
-4.14108
-4.15592
-4.17206
-4.18949
-4.20819
-4.22799
-4.24889
-4.18716
-4.18714
-4.18772
-4.18904
-4.19102
-4.19358
-4.19671
-4.20039
-4.20468
-4.20963
-4.21536
-4.22196
-4.22954
-4.23819
-4.24796
-4.25888
-4.27098
-4.28422
-4.2986
-4.31409
-4.33062
-4.34803
-4.36629
-4.32363
-4.3236
-4.32414
-4.3254
-4.32728
-4.32975
-4.33276
-4.33631
-4.34041
-4.3451
-4.35044
-4.35652
-4.36341
-4.37119
-4.37993
-4.38966
-4.40042
-4.41218
-4.42493
-4.43862
-4.45319
-4.46846
-4.48436
-4.45943
-4.45939
-4.4599
-4.46106
-4.46283
-4.46515
-4.46799
-4.47134
-4.4752
-4.47959
-4.48454
-4.49011
-4.49636
-4.50335
-4.51115
-4.51979
-4.52931
-4.53971
-4.55095
-4.563
-4.57579
-4.58912
-4.60293
-4.59464
-4.5946
-4.59505
-4.59612
-4.59774
-4.59988
-4.60251
-4.60561
-4.60917
-4.61321
-4.61774
-4.62279
-4.62841
-4.63465
-4.64157
-4.6492
-4.65758
-4.66671
-4.67657
-4.68711
-4.69827
-4.70987
-4.72181
-4.72933
-4.72928
-4.72969
-4.73065
-4.73212
-4.73405
-4.73642
-4.73922
-4.74244
-4.74608
-4.75014
-4.75465
-4.75964
-4.76514
-4.77121
-4.77789
-4.7852
-4.79315
-4.80172
-4.81087
-4.82054
-4.83055
-4.84082
-4.86355
-4.86351
-4.86389
-4.86474
-4.86603
-4.86774
-4.86983
-4.8723
-4.87513
-4.87832
-4.88187
-4.88581
-4.89015
-4.89491
-4.90015
-4.9059
-4.9122
-4.91903
-4.92639
-4.93424
-4.94252
-4.95108
-4.95983
-4.99738
-4.99738
-4.99773
-4.99846
-4.99957
-5.00103
-5.00282
-5.00492
-5.00733
-5.01005
-5.01307
-5.0164
-5.02006
-5.02407
-5.02847
-5.03332
-5.03863
-5.0444
-5.05061
-5.05723
-5.0642
-5.0714
-5.07875
-5.13089
-5.13094
-5.13127
-5.13188
-5.13279
-5.13399
-5.13546
-5.13719
-5.13916
-5.14138
-5.14383
-5.14653
-5.14949
-5.15273
-5.15628
-5.16023
-5.1646
-5.16934
-5.17445
-5.17989
-5.18562
-5.19153
-5.19755
-5.26412
-5.26427
-5.26456
-5.26503
-5.26573
-5.26667
-5.26782
-5.26916
-5.27068
-5.27239
-5.27427
-5.27632
-5.27857
-5.28101
-5.28369
-5.28675
-5.2902
-5.29395
-5.29799
-5.30229
-5.30682
-5.31148
-5.31623
-5.39713
-5.39738
-5.39763
-5.39796
-5.39847
-5.39915
-5.39997
-5.40092
-5.402
-5.40318
-5.40448
-5.40588
-5.40739
-5.40899
-5.41071
-5.41288
-5.41552
-5.41835
-5.42136
-5.42454
-5.42789
-5.43133
-5.43483
-5.52998
-5.53028
-5.53052
-5.53075
-5.53109
-5.53153
-5.53204
-5.53262
-5.53324
-5.5339
-5.53461
-5.53534
-5.53607
-5.5367
-5.53719
-5.53849
-5.54062
-5.54265
-5.54466
-5.54675
-5.54892
-5.55114
-5.55337
-5.66267
-5.66294
-5.66314
-5.66329
-5.66347
-5.66366
-5.66385
-5.66403
-5.66421
-5.66438
-5.66453
-5.66465
-5.66468
-5.66449
-5.66384
-5.66396
-5.66574
-5.66686
-5.66776
-5.66863
-5.66951
-5.67039
-5.67126
387.273
389.673
381.987
373.687
239.558
234.865
234.66
257.243
131.368
104.418
83.3747
75.142
83.7134
65.3868
57.1612
53.756
50.1677
53.3517
54.734
54.6945
34.9446
51.9635
55.4346
55.4303
10.5321
30.3208
50.7871
55.0723
-10.369
-1.01643
21.0614
43.5166
-7.85035
-13.5023
-6.46097
11.893
-2.23588
-6.93496
-13.8571
-11.1248
-1.6572
-2.11401
-4.58948
-9.96694
-1.81852
-1.76384
-2.1654
-3.90572
-2.1495
-2.17137
-2.17906
-2.39315
-2.39014
-2.4664
-2.537
-2.58664
-2.5422
-2.61007
-2.68007
-2.73891
-2.68168
-2.74583
-2.81164
-2.87987
-2.8084
-2.87019
-2.93398
-2.99888
-2.92671
-2.98404
-3.0441
-3.10315
-3.04141
-3.09373
-3.14891
-3.20219
-3.15406
-3.20146
-3.25156
-3.29942
-3.26542
-3.30818
-3.35344
-3.39636
-3.37609
-3.41462
-3.45543
-3.49394
-3.48644
-3.52113
-3.55793
-3.59257
-3.59673
-3.62795
-3.66114
-3.69238
-3.70721
-3.73525
-3.76516
-3.79338
-3.81803
-3.84312
-3.87002
-3.89552
-3.92932
-3.95164
-3.97573
-3.99871
-4.04125
-4.06094
-4.08237
-4.10295
-4.15401
-4.17123
-4.19008
-4.20832
-4.26777
-4.28267
-4.29904
-4.31498
-4.38257
-4.39534
-4.40936
-4.42306
-4.49833
-4.50918
-4.52105
-4.53261
-4.61489
-4.62405
-4.63398
-4.6436
-4.73202
-4.73973
-4.74797
-4.75587
-4.84951
-4.85598
-4.86279
-4.86923
-4.96719
-4.97259
-4.97821
-4.98343
-5.08491
-5.0894
-5.09402
-5.09823
-5.20259
-5.20627
-5.21001
-5.21337
-5.32019
-5.32309
-5.32602
-5.32863
-5.43769
-5.4398
-5.44194
-5.44382
-5.55516
-5.55647
-5.55777
-5.55893
-5.67196
-5.67251
-5.6731
-5.67367
541.42
367.818
293.108
264.147
254.058
278.281
331.225
377.932
395.519
414.686
421.416
467.213
481.144
415.644
379.124
386.812
419.727
457.376
479.359
333.996
247.74
204.41
195.418
211.087
243.42
286.023
348.685
386.12
405.934
373.251
388.618
382.598
353.7
339.122
333.606
330.775
328.35
344.357
85.1747
72.2526
69.5929
83.2536
115.12
151.097
189.426
281.241
357.44
359.241
310.963
320.972
316.596
314.87
318.239
315.726
300.449
283.575
273.688
51.845
52.2374
53.8281
58.9568
76.3906
97.3655
102.722
176.541
283.508
268.526
241.425
265.307
272.186
283.599
296.599
296.433
281.102
262.891
250.637
54.5908
54.992
55.5058
57.1845
61.7617
65.0683
56.5188
93.4774
177.615
179.572
192.469
224.462
232.896
251.524
262.826
264.057
258.416
243.647
231.95
55.5557
55.6122
55.5182
55.9513
56.833
56.1168
49.8138
63.671
96.5932
125.053
166.5
188.315
188.394
209.808
212.506
219.909
229.034
222.371
211.566
55.7051
55.9004
55.864
56.133
57.1589
56.1076
54.3193
58.0243
68.3357
92.739
134.755
138.839
139.384
151.117
147.299
156.686
183.784
195.388
187.198
56.1276
56.8327
57.1471
57.3145
56.8887
55.9856
55.7718
56.5853
58.9523
68.0591
85.6367
91.5479
91.6482
82.6055
60.4639
55.0943
107.028
152.434
155.718
44.713
57.0094
58.0382
57.4395
56.5806
56.1209
55.985
56.1573
55.4353
47.1805
40.7749
47.1775
39.3356
21.0579
6.11492
7.59648
27.5754
86.6528
115.181
8.83312
41.6193
57.2239
57.3056
56.8159
56.305
55.9937
55.4804
51.2647
23.7894
11.7114
17.656
11.8749
1.60856
1.16967
1.74318
3.69885
25.9842
67.0587
-13.6255
5.68155
34.8338
56.3115
56.0946
55.4318
54.7634
49.9184
17.9059
2.19394
3.24845
5.25182
2.28632
0.257983
0.0724127
0.0590162
0.0193025
4.91151
21.7131
-7.98376
-16.3451
-5.04412
15.1618
37.8222
45.7163
36.585
5.20893
-10.4544
-0.527433
2.31399
2.13148
0.366737
-0.334106
-0.513766
-0.698858
-1.07093
-1.19923
1.89275
-3.29773
-7.13583
-13.2619
-16.9976
-12.0346
-7.6729
-16.362
-14.0884
-0.224173
0.834782
1.64231
0.614469
-0.783161
-1.07713
-1.11616
-1.31961
-1.67876
-2.2043
-2.63661
-2.66396
-3.18558
-5.291
-7.99041
-9.95925
-10.5045
-8.13309
-5.19712
-1.5474
1.49318
0.209033
-0.921303
-1.80607
-1.76484
-1.68601
-1.83651
-2.00535
-2.03229
-3.30974
-2.79478
-2.84123
-3.29354
-4.28066
-4.59285
-4.53333
-4.29135
-3.27514
-2.00216
-1.64097
-1.5625
-2.36948
-2.4925
-2.27565
-2.15571
-2.23057
-2.3101
-2.18983
-2.95472
-2.98721
-3.10454
-3.2847
-3.46847
-3.52439
-3.47056
-3.37226
-3.26762
-3.15309
-3.12085
-3.00828
-2.94928
-2.79048
-2.6141
-2.52179
-2.56266
-2.65757
-2.80967
-3.87581
-3.10878
-3.26036
-3.42017
-3.55791
-3.59806
-3.56967
-3.49717
-3.44778
-3.48051
-3.42982
-3.28884
-3.15871
-3.01528
-2.88341
-2.81357
-2.8424
-2.95116
-3.24656
-2.96164
-3.19633
-3.32464
-3.4536
-3.55608
-3.59417
-3.58302
-3.53899
-3.51973
-3.56565
-3.54231
-3.4323
-3.31777
-3.21472
-3.11932
-3.05411
-3.03754
-3.06592
-3.26588
-2.77731
-3.28131
-3.38299
-3.48019
-3.55639
-3.59343
-3.59807
-3.58532
-3.5886
-3.63415
-3.62926
-3.54899
-3.46818
-3.39551
-3.32119
-3.25346
-3.19957
-3.15762
-3.2545
-2.50362
-3.36819
-3.45178
-3.52863
-3.58953
-3.62588
-3.64174
-3.64851
-3.66396
-3.70415
-3.70299
-3.65445
-3.60374
-3.5517
-3.49105
-3.42472
-3.35489
-3.28276
-3.32994
-2.67503
-3.45674
-3.52738
-3.59132
-3.64331
-3.67899
-3.70125
-3.71778
-3.73802
-3.768
-3.77249
-3.74978
-3.72015
-3.68243
-3.63301
-3.57317
-3.50446
-3.43473
-3.45755
-2.94189
-3.54736
-3.60804
-3.66263
-3.70816
-3.74228
-3.7671
-3.78749
-3.80847
-3.83196
-3.84156
-3.83482
-3.81838
-3.7913
-3.75216
-3.70179
-3.64132
-3.57626
-3.57988
-3.29422
-3.6402
-3.69308
-3.74043
-3.78058
-3.81228
-3.83712
-3.85824
-3.87845
-3.89828
-3.91035
-3.9116
-3.90317
-3.88425
-3.85438
-3.81405
-3.76384
-3.70271
-3.68322
-3.55577
-3.73511
-3.78175
-3.82332
-3.85885
-3.88764
-3.91102
-3.93114
-3.94968
-3.96676
-3.97891
-3.9836
-3.98008
-3.96754
-3.94589
-3.91574
-3.87663
-3.81978
-3.78459
-3.79352
-3.83189
-3.87341
-3.91024
-3.94177
-3.96753
-3.9887
-4.00688
-4.02318
-4.03765
-4.04861
-4.05438
-4.05391
-4.04641
-4.03193
-4.01156
-3.98383
-3.93348
-3.89528
-4.02887
-3.93029
-3.96747
-4.00036
-4.02842
-4.05132
-4.07003
-4.08588
-4.09972
-4.11162
-4.1208
-4.12639
-4.12761
-4.12388
-4.11542
-4.1038
-4.08789
-4.04955
-4.01798
-4.25708
-4.03009
-4.06349
-4.09299
-4.11808
-4.13838
-4.15469
-4.16818
-4.17957
-4.18899
-4.19613
-4.20072
-4.20245
-4.20098
-4.19669
-4.19185
-4.18765
-4.16964
-4.12323
-4.36531
-4.13115
-4.16112
-4.18763
-4.21014
-4.22815
-4.24229
-4.25354
-4.2626
-4.26967
-4.2747
-4.27775
-4.27887
-4.27784
-4.27499
-4.27274
-4.27403
-4.27416
-4.23262
-4.54508
-4.23344
-4.2602
-4.28396
-4.30416
-4.32018
-4.3324
-4.34165
-4.34858
-4.35349
-4.35645
-4.35767
-4.35729
-4.35499
-4.35062
-4.34529
-4.34453
-4.35237
-4.33835
-4.37855
-4.33707
-4.36072
-4.38185
-4.3999
-4.41414
-4.42473
-4.43225
-4.43732
-4.4403
-4.44136
-4.44071
-4.43839
-4.43384
-4.42605
-4.41514
-4.41165
-4.41447
-4.38244
-4.31789
-4.44217
-4.46279
-4.48134
-4.49728
-4.50987
-4.51903
-4.52514
-4.52867
-4.53002
-4.52947
-4.52716
-4.52299
-4.51614
-4.50488
-4.48946
-4.48331
-4.47897
-4.41205
-4.30613
-4.54885
-4.56653
-4.58251
-4.59632
-4.60727
-4.61515
-4.62009
-4.62243
-4.62255
-4.62076
-4.61719
-4.6116
-4.60294
-4.58945
-4.57417
-4.56556
-4.54883
-4.46511
-4.35164
-4.65716
-4.67203
-4.68549
-4.69714
-4.70639
-4.71299
-4.71691
-4.71834
-4.71761
-4.71503
-4.71073
-4.70429
-4.69428
-4.67905
-4.66712
-4.66162
-4.62974
-4.54649
-4.43842
-4.76702
-4.7793
-4.79035
-4.79985
-4.80733
-4.81259
-4.81551
-4.81617
-4.81484
-4.81189
-4.80743
-4.80087
-4.79032
-4.77554
-4.767
-4.76445
-4.72346
-4.64435
-4.54862
-4.87828
-4.88827
-4.89712
-4.90457
-4.91027
-4.9141
-4.91597
-4.91588
-4.91405
-4.91101
-4.90698
-4.90109
-4.89121
-4.88045
-4.8776
-4.86587
-4.82381
-4.74983
-4.67036
-4.99072
-4.99875
-5.00573
-5.01136
-5.01537
-5.01776
-5.01854
-5.01769
-5.01545
-5.0125
-5.00914
-5.00505
-4.99964
-4.99567
-4.9932
-4.97337
-4.92957
-4.86733
-4.79967
-5.10406
-5.11051
-5.11602
-5.12021
-5.12275
-5.12375
-5.12343
-5.12187
-5.11926
-5.11618
-5.11308
-5.11047
-5.11064
-5.11364
-5.10588
-5.08322
-5.0446
-4.99508
-4.93606
-5.21799
-5.22323
-5.22775
-5.23101
-5.2324
-5.23211
-5.2307
-5.22839
-5.22529
-5.22165
-5.21808
-5.21552
-5.21617
-5.21874
-5.21166
-5.19222
-5.16746
-5.12928
-5.07807
-5.33222
-5.33649
-5.34054
-5.34367
-5.34437
-5.34284
-5.34038
-5.33726
-5.33348
-5.32912
-5.32459
-5.32075
-5.31968
-5.31959
-5.31644
-5.30807
-5.29495
-5.26767
-5.22525
-5.44646
-5.44987
-5.45383
-5.45881
-5.45992
-5.45661
-5.45299
-5.44905
-5.44441
-5.4389
-5.43257
-5.42573
-5.42445
-5.42706
-5.42764
-5.42721
-5.42592
-5.41015
-5.37913
-5.56071
-5.56343
-5.56752
-5.57888
-5.58288
-5.57531
-5.56989
-5.5649
-5.55881
-5.5508
-5.53974
-5.52484
-5.52573
-5.53795
-5.54388
-5.55019
-5.56194
-5.56144
-5.54701
-5.67473
-5.67797
-5.68826
-5.70469
-5.70178
-5.69066
-5.68528
-5.68075
-5.6749
-5.66627
-5.65119
-5.626
-5.62305
-5.65507
-5.66853
-5.67886
-5.69849
-5.7196
-5.73192
)
;

boundaryField
{
    leftWall
    {
        type            calculated;
        value           nonuniform List<scalar> 
50
(
648.966
590.678
530.539
468.967
406.41
342.945
278.498
213.129
109.808
18.1302
0.114489
-0.199971
-0.359464
-0.511193
-0.667967
-0.822649
-0.97569
-1.12832
-1.28055
-1.43232
-1.58365
-1.73454
-1.88496
-2.03487
-2.18421
-2.33289
-2.48086
-2.62806
-2.77443
-2.91994
-3.06454
-3.2082
-3.35088
-3.49258
-3.63331
-3.77309
-3.91195
-4.04995
-4.18716
-4.32363
-4.45943
-4.59464
-4.72933
-4.86355
-4.99738
-5.13089
-5.26412
-5.39713
-5.52998
-5.66267
)
;
    }
    rightWall
    {
        type            calculated;
        value           nonuniform List<scalar> 
50
(
993.121
935.875
878.9
825.106
770.714
712.316
650.43
585.394
479.359
344.357
273.688
250.637
231.95
211.566
187.198
155.718
115.181
67.0587
21.7131
1.89275
-2.63661
-3.30974
-2.95472
-3.87581
-2.96164
-2.77731
-2.50362
-2.67503
-2.94189
-3.29422
-3.55577
-3.79352
-4.02887
-4.25708
-4.36531
-4.54508
-4.37855
-4.31789
-4.30613
-4.35164
-4.43842
-4.54862
-4.67036
-4.79967
-4.93606
-5.07807
-5.22525
-5.37913
-5.54701
-5.73192
)
;
    }
    lowerWall
    {
        type            calculated;
        value           nonuniform List<scalar> 
62
(
678.395
674.177
672.383
673.703
678.167
685.149
694.196
704.953
717.155
730.584
745.058
760.439
776.623
793.485
810.841
828.497
846.15
862.473
876.602
888.153
894.839
894.629
886.384
856.962
795.055
732.453
669.379
606.119
541.022
470.552
402.604
449.851
452.248
444.56
436.257
1448
1432.35
1378.51
1268.8
1117.46
954.165
811.946
705.202
1477.38
1311.46
1091.35
885.928
748.386
682.484
669.833
690.243
742.796
836.672
966.258
1077.65
1111.76
1092.35
1069.27
1063.53
1060.4
1037.71
1020.59
)
;
    }
    atmosphere
    {
        type            calculated;
        value           nonuniform List<scalar> 
46
(
-5.72904
-5.72904
-5.72904
-5.72904
-5.72904
-5.72904
-5.72904
-5.72904
-5.72904
-5.72904
-5.72904
-5.72904
-5.72904
-5.72904
-5.72904
-5.72904
-5.72907
-5.72914
-5.72924
-5.72936
-5.72948
-5.72957
-5.7296
-5.72957
-5.72956
-5.72954
-5.72953
-5.7295
-5.72935
-5.72915
-5.72904
-5.72904
-5.72904
-5.72904
-5.72905
-5.72905
-5.72904
-5.72904
-5.72904
-5.72961
-5.73188
-5.73666
-5.74251
-5.74659
-5.74087
-5.84806
)
;
    }
    defaultFaces
    {
        type            empty;
    }
}


// ************************************************************************* //
