/*--------------------------------*- C++ -*----------------------------------*\
  =========                 |
  \\      /  F ield         | OpenFOAM: The Open Source CFD Toolbox
   \\    /   O peration     | Website:  https://openfoam.org
    \\  /    A nd           | Version:  9
     \\/     M anipulation  |
\*---------------------------------------------------------------------------*/
FoamFile
{
    format      ascii;
    class       volScalarField;
    location    "0.8";
    object      p_rgh;
}
// * * * * * * * * * * * * * * * * * * * * * * * * * * * * * * * * * * * * * //

dimensions      [1 -1 -2 0 0 0 0];

internalField   nonuniform List<scalar> 
2268
(
-1.19063
-1.19094
-1.19406
-1.19902
-1.20565
-1.21371
-1.22305
-1.23371
-1.24582
-1.25956
-1.27516
-1.29285
-1.31288
-1.33541
-1.36034
-1.387
-1.41362
-1.43669
-1.45082
-1.45075
-1.43512
-1.41407
-1.39707
-1.19191
-1.19266
-1.19484
-1.19932
-1.20587
-1.21416
-1.2239
-1.23505
-1.24768
-1.26195
-1.27809
-1.29631
-1.31685
-1.33981
-1.36504
-1.39178
-1.41824
-1.44129
-1.45593
-1.45591
-1.43843
-1.41257
-1.39224
-1.19252
-1.19385
-1.19559
-1.19979
-1.20627
-1.2147
-1.22477
-1.23636
-1.2495
-1.26431
-1.28099
-1.29973
-1.32073
-1.34407
-1.36951
-1.39625
-1.42252
-1.44524
-1.45987
-1.4613
-1.44576
-1.41875
-1.39592
-1.19291
-1.19453
-1.19598
-1.20011
-1.20651
-1.21496
-1.22518
-1.23703
-1.25051
-1.26569
-1.28274
-1.30184
-1.32315
-1.34672
-1.37234
-1.39923
-1.42569
-1.44879
-1.46429
-1.46762
-1.4554
-1.43024
-1.40532
-1.1927
-1.19456
-1.19595
-1.20008
-1.20641
-1.21482
-1.22508
-1.23704
-1.25069
-1.26607
-1.28332
-1.3026
-1.32406
-1.34777
-1.37355
-1.40073
-1.42776
-1.4519
-1.469
-1.47464
-1.46576
-1.44352
-1.41803
-1.1918
-1.19394
-1.19546
-1.19964
-1.20592
-1.21427
-1.22451
-1.2365
-1.2502
-1.26565
-1.28296
-1.30229
-1.32379
-1.34755
-1.37346
-1.40101
-1.42884
-1.45439
-1.47357
-1.48176
-1.47589
-1.45675
-1.43218
-1.19019
-1.19266
-1.19447
-1.19874
-1.20502
-1.21332
-1.22351
-1.23546
-1.24914
-1.26457
-1.28185
-1.30112
-1.32256
-1.34628
-1.37228
-1.40019
-1.4289
-1.45605
-1.47754
-1.48839
-1.48511
-1.46874
-1.44604
-1.18789
-1.19075
-1.19298
-1.1974
-1.20372
-1.212
-1.22212
-1.234
-1.24759
-1.26292
-1.28008
-1.29922
-1.32051
-1.34412
-1.37014
-1.39837
-1.42796
-1.45674
-1.48053
-1.49398
-1.49281
-1.47843
-1.45754
-1.37674
-1.39325
-1.40767
-1.43675
-1.47332
-1.51393
-1.55545
-1.59642
-1.63758
-1.68256
-1.7417
-1.83483
-1.98568
-2.20575
-2.47896
-2.74172
-2.92232
-3.01395
-3.05092
-1.37585
-1.38913
-1.40265
-1.43299
-1.4713
-1.51342
-1.55614
-1.59829
-1.64114
-1.68946
-1.75434
-1.854
-2.00982
-2.23115
-2.50203
-2.76357
-2.93597
-3.02351
-3.05926
-1.37072
-1.38555
-1.40055
-1.43241
-1.47173
-1.51429
-1.55735
-1.60019
-1.64463
-1.69631
-1.76653
-1.8723
-2.0328
-2.25539
-2.52815
-2.79398
-2.96506
-3.0509
-3.08238
-1.36304
-1.3831
-1.40205
-1.43491
-1.47419
-1.51635
-1.55922
-1.60229
-1.64762
-1.70125
-1.774
-1.88263
-2.04711
-2.26906
-2.55185
-2.83555
-3.01419
-3.09739
-3.11858
-1.35704
-1.38307
-1.40627
-1.4393
-1.4779
-1.51923
-1.56155
-1.60442
-1.6501
-1.70454
-1.77772
-1.88404
-2.04941
-2.29307
-2.58762
-2.89651
-3.07701
-3.1749
-3.20582
-1.35628
-1.38635
-1.41288
-1.44515
-1.48256
-1.52277
-1.5643
-1.60669
-1.65223
-1.70637
-1.77798
-1.88172
-2.04274
-2.3217
-3.20726
-3.53752
-3.14682
-3.24663
-3.38352
-1.36564
-1.3941
-1.42195
-1.45235
-1.48806
-1.52691
-1.56745
-1.60914
-1.65385
-1.70642
-1.77601
-1.88482
-2.08817
-2.55136
-3.88214
-7.54915
-7.3658
-3.35741
-3.38154
-1.39098
-1.40878
-1.43343
-1.46079
-1.49441
-1.53181
-1.57135
-1.6121
-1.65514
-1.70593
-1.78093
-1.99057
-2.36668
-2.8515
-3.74848
-9.74143
-17.3548
-10.7576
-3.53992
-1.18323
-1.1867
-1.1899
-1.19467
-1.20116
-1.20942
-1.21943
-1.23112
-1.24448
-1.25954
-1.27637
-1.29513
-1.31601
-1.33926
-1.3651
-1.39363
-1.42442
-1.45562
-1.4829
-1.49997
-1.50178
-1.49074
-1.47241
-1.17439
-1.17898
-1.18363
-1.18922
-1.19611
-1.20447
-1.21433
-1.22571
-1.2386
-1.25305
-1.26912
-1.28694
-1.30671
-1.32872
-1.35333
-1.38094
-1.41178
-1.44477
-1.47573
-1.49748
-1.50324
-1.48757
-1.44923
-1.16335
-1.16929
-1.17547
-1.18205
-1.18946
-1.19798
-1.20773
-1.21877
-1.23113
-1.24483
-1.25995
-1.27659
-1.2949
-1.31514
-1.33767
-1.36299
-1.39162
-1.42313
-1.45418
-1.47858
-1.48884
-1.47949
-1.45704
-1.15041
-1.15787
-1.16566
-1.17332
-1.18132
-1.19009
-1.1998
-1.21054
-1.22237
-1.23534
-1.2495
-1.2649
-1.28168
-1.30001
-1.32016
-1.34251
-1.36743
-1.39444
-1.42141
-1.44406
-1.45766
-1.45964
-1.45475
-1.13593
-1.14497
-1.15445
-1.16326
-1.17193
-1.18103
-1.19079
-1.20133
-1.21275
-1.22509
-1.2384
-1.25272
-1.26816
-1.28481
-1.30283
-1.32241
-1.34355
-1.36574
-1.38741
-1.40609
-1.41954
-1.42733
-1.43279
-1.12028
-1.13092
-1.14212
-1.15211
-1.16153
-1.17105
-1.18098
-1.19147
-1.20263
-1.21451
-1.22718
-1.24068
-1.25507
-1.27041
-1.28677
-1.30415
-1.32242
-1.34108
-1.35916
-1.37543
-1.38902
-1.40041
-1.41238
-1.10389
-1.11609
-1.12898
-1.14017
-1.15039
-1.16044
-1.17066
-1.18124
-1.1923
-1.20393
-1.21618
-1.2291
-1.24273
-1.2571
-1.27222
-1.28802
-1.30433
-1.32079
-1.3369
-1.35223
-1.36667
-1.38073
-1.39637
-1.08716
-1.10086
-1.11535
-1.12774
-1.13881
-1.14946
-1.16007
-1.17087
-1.18199
-1.19353
-1.20555
-1.21809
-1.23118
-1.24484
-1.25902
-1.27366
-1.28859
-1.3036
-1.3185
-1.33327
-1.34813
-1.36357
-1.38098
-1.07048
-1.08556
-1.10156
-1.11512
-1.12705
-1.13835
-1.14944
-1.16056
-1.17186
-1.18344
-1.19536
-1.20766
-1.22036
-1.23345
-1.24688
-1.2606
-1.27447
-1.2884
-1.30236
-1.31653
-1.33128
-1.34708
-1.36508
-1.05418
-1.07051
-1.08788
-1.10255
-1.11535
-1.12734
-1.13897
-1.15048
-1.16204
-1.17374
-1.18565
-1.19778
-1.21016
-1.22277
-1.23555
-1.24846
-1.26142
-1.2744
-1.28748
-1.30093
-1.31517
-1.33063
-1.34835
-1.03855
-1.05598
-1.07457
-1.09027
-1.10391
-1.1166
-1.1288
-1.14076
-1.15262
-1.1645
-1.17643
-1.18844
-1.20053
-1.21268
-1.22485
-1.237
-1.24908
-1.26112
-1.27324
-1.28577
-1.29912
-1.31368
-1.33038
-1.02378
-1.04216
-1.06181
-1.07845
-1.0929
-1.10628
-1.11906
-1.13148
-1.14368
-1.15575
-1.16772
-1.17962
-1.19142
-1.20312
-1.21467
-1.22605
-1.23723
-1.24827
-1.25932
-1.27069
-1.28278
-1.29595
-1.31098
-1.01001
-1.02917
-1.04972
-1.06721
-1.08242
-1.09647
-1.10983
-1.12272
-1.13526
-1.14753
-1.15954
-1.17132
-1.18282
-1.19405
-1.20496
-1.21554
-1.22578
-1.23573
-1.24555
-1.25554
-1.26606
-1.2774
-1.29023
-0.997282
-1.01709
-1.03838
-1.05662
-1.07253
-1.08723
-1.10115
-1.1145
-1.12739
-1.13986
-1.15191
-1.16355
-1.17475
-1.18549
-1.19574
-1.20548
-1.21472
-1.22351
-1.23198
-1.2404
-1.24908
-1.25826
-1.26847
-0.985593
-1.0059
-1.02779
-1.04668
-1.06323
-1.07855
-1.09303
-1.10684
-1.12007
-1.13274
-1.14483
-1.15634
-1.16723
-1.17747
-1.18705
-1.19595
-1.20416
-1.21171
-1.21874
-1.22546
-1.23213
-1.23895
-1.24629
-0.974863
-0.995536
-1.01789
-1.03733
-1.05448
-1.07039
-1.08541
-1.09969
-1.11327
-1.12615
-1.1383
-1.14969
-1.16029
-1.17006
-1.17899
-1.18705
-1.19422
-1.20053
-1.20608
-1.21105
-1.21566
-1.22005
-1.22448
-0.964949
-0.98586
-1.00854
-1.02846
-1.04616
-1.06262
-1.07819
-1.09294
-1.10689
-1.12002
-1.13226
-1.14358
-1.15394
-1.1633
-1.17164
-1.1789
-1.18508
-1.19018
-1.19429
-1.19755
-1.20017
-1.20222
-1.20389
-0.95564
-0.976662
-0.999536
-1.01985
-1.03805
-1.05507
-1.07118
-1.08642
-1.10079
-1.1142
-1.1266
-1.13793
-1.14814
-1.15718
-1.16501
-1.17158
-1.17685
-1.18085
-1.18362
-1.18531
-1.1861
-1.18607
-1.18533
-0.946654
-0.967662
-0.990605
-1.01122
-1.02989
-1.04744
-1.0641
-1.07988
-1.0947
-1.10848
-1.12113
-1.13257
-1.14275
-1.15159
-1.15904
-1.16503
-1.16953
-1.17255
-1.17414
-1.17447
-1.17369
-1.17191
-1.16925
-0.937633
-0.958496
-0.981376
-1.00221
-1.02129
-1.03937
-1.05661
-1.07296
-1.08831
-1.10254
-1.11555
-1.12724
-1.13751
-1.14629
-1.15348
-1.15901
-1.16286
-1.16504
-1.16561
-1.16476
-1.16267
-1.15946
-1.15532
-0.928139
-0.948717
-0.971392
-0.992355
-1.0118
-1.03039
-1.04823
-1.0652
-1.08117
-1.09596
-1.10945
-1.12151
-1.13201
-1.14083
-1.14786
-1.15303
-1.15631
-1.15772
-1.15737
-1.15544
-1.15218
-1.14774
-1.14238
-0.917653
-0.937793
-0.960113
-0.981098
-1.00086
-1.01996
-1.03843
-1.05609
-1.07276
-1.08824
-1.10233
-1.11488
-1.1257
-1.13464
-1.14157
-1.1464
-1.14911
-1.14975
-1.14847
-1.14547
-1.14102
-1.13535
-1.12878
-0.905577
-0.925114
-0.946922
-0.967824
-0.987858
-1.00747
-1.02661
-1.04504
-1.06253
-1.0788
-1.09363
-1.10676
-1.11798
-1.12707
-1.13388
-1.13833
-1.14043
-1.14024
-1.13794
-1.13377
-1.12801
-1.12097
-1.113
-0.891242
-0.910006
-0.931141
-0.951862
-0.972132
-0.992275
-1.01215
-1.03147
-1.0499
-1.06712
-1.0828
-1.09661
-1.10825
-1.11748
-1.12413
-1.12814
-1.12954
-1.12843
-1.12501
-1.11952
-1.11227
-1.10364
-1.09401
-0.873919
-0.891742
-0.912057
-0.932512
-0.953004
-0.973731
-0.994462
-1.01482
-1.03439
-1.05273
-1.0694
-1.08397
-1.09607
-1.10542
-1.11186
-1.11536
-1.11598
-1.11386
-1.10922
-1.1023
-1.0934
-1.08295
-1.07135
-0.852839
-0.869566
-0.888935
-0.909066
-0.929804
-0.951218
-0.972979
-0.994613
-1.01557
-1.03528
-1.05314
-1.0686
-1.08122
-1.09069
-1.0969
-1.09985
-1.09966
-1.09649
-1.09058
-1.08214
-1.07145
-1.05898
-1.04511
-0.827197
-0.842705
-0.861033
-0.880817
-0.901872
-0.924141
-0.947195
-0.970435
-0.993152
-1.01456
-1.0339
-1.05046
-1.06372
-1.07338
-1.07936
-1.08176
-1.08074
-1.07653
-1.06933
-1.05933
-1.04676
-1.0321
-1.01573
-0.796151
-0.810376
-0.82761
-0.847061
-0.868548
-0.891905
-0.916601
-0.941901
-0.966874
-0.99047
-1.01168
-1.02962
-1.04372
-1.05368
-1.0595
-1.06138
-1.0596
-1.0544
-1.04598
-1.03447
-1.02002
-1.00314
-0.984161
-0.758791
-0.771808
-0.787926
-0.807074
-0.829131
-0.853847
-0.880607
-0.908516
-0.936377
-0.962806
-0.98645
-1.00623
-1.02149
-1.03196
-1.03778
-1.0393
-1.03692
-1.03092
-1.02147
-1.0086
-0.992394
-0.973342
-0.951796
-0.714055
-0.726321
-0.741249
-0.760086
-0.78278
-0.809051
-0.838302
-0.869513
-0.901145
-0.931334
-0.958289
-0.98064
-0.997601
-1.00898
-1.01506
-1.01643
-1.01365
-1.0071
-0.996882
-0.982906
-0.965128
-0.944037
-0.92001
-0.660511
-0.673523
-0.686786
-0.705139
-0.728356
-0.756246
-0.788431
-0.823893
-0.860621
-0.895997
-0.927563
-0.953528
-0.972965
-0.985742
-0.992411
-0.993863
-0.990928
-0.984108
-0.973443
-0.958665
-0.939563
-0.916589
-0.890168
-0.597855
-0.611381
-0.623506
-0.641095
-0.664462
-0.693829
-0.729424
-0.770462
-0.814228
-0.85686
-0.894872
-0.925886
-0.948825
-0.963623
-0.971214
-0.972992
-0.97015
-0.963393
-0.952653
-0.937402
-0.917238
-0.892546
-0.863805
-0.524375
-0.539364
-0.550308
-0.566721
-0.589485
-0.619734
-0.659132
-0.70767
-0.761404
-0.81425
-0.861161
-0.899013
-0.92674
-0.944355
-0.953292
-0.955685
-0.953252
-0.947005
-0.936612
-0.921168
-0.900109
-0.873803
-0.842817
-0.439135
-0.455989
-0.466165
-0.480703
-0.501431
-0.531166
-0.574601
-0.633732
-0.702077
-0.769207
-0.827967
-0.874532
-0.908426
-0.929736
-0.940722
-0.944168
-0.9427
-0.937598
-0.928057
-0.912497
-0.890469
-0.862536
-0.829466
-0.341642
-0.359748
-0.369935
-0.381619
-0.397843
-0.424365
-0.472041
-0.547439
-0.63833
-0.724892
-0.798027
-0.85453
-0.896079
-0.922278
-0.939378
-0.958661
-0.962595
-0.953789
-0.931912
-0.914432
-0.890844
-0.861064
-0.826213
-0.23305
-0.249177
-0.260146
-0.267941
-0.27595
-0.295016
-0.34883
-0.452698
-0.579228
-0.688847
-0.774876
-0.840542
-0.901621
-1.0557
-1.42947
-1.48896
-1.08997
-0.962969
-0.948855
-0.929188
-0.902503
-0.869812
-0.832976
-0.119454
-0.122863
-0.135377
-0.139785
-0.136447
-0.162718
-0.370056
-0.566095
-0.688231
-0.676062
-0.75985
-1.06217
-2.93798
-5.29412
-3.27318
-1.12926
-1.01621
-0.985172
-0.96717
-0.94201
-0.909967
-0.873076
-1.05289
-1.90755
0.0168809
-0.00198224
-0.0149802
-0.0295468
-0.0081241
-0.546747
-3.04536
-3.38835
-4.36422
-19.5778
-24.2245
-23.6635
-6.235
-1.62024
-1.27968
-1.0099
-0.979067
-0.938454
-0.893159
-0.850687
-0.809362
-0.756764
-7.88373
-3.86499
-4.0345
-8.18764
-7.52951
-0.876656
-1.44123
-4.4165
-57.1945
-81.0329
-39.2383
-15.2238
-15.6429
-22.0773
-7.41897
-1.42503
-1.11602
-1.32832
-1.29938
-1.30278
-1.19532
-1.19209
-1.07245
-5.86699
-11.4837
-11.453
-11.308
-6.76379
-0.520496
-7.14931
-93.9052
-69.5333
-83.4256
-97.8356
-122.839
-143.264
-84.3553
-245.502
-561.671
-1063.3
-1071.84
-958.558
-936.198
-901.662
-820.592
-1098.48
-0.773179
-11.4148
-11.0582
-6.88083
-1.43048
-0.338785
-0.600242
-383.141
-1129.5
-1135.8
-1132.39
-1132.98
-983.109
-26.6101
-522.513
-2786.9
-3009.81
-3045.48
-3056.43
-3084.32
-3079.77
-3099.45
-3088.57
-0.0831862
-1.69611
-0.668058
-1.14358
0.168318
0.292595
-6.69427
-13.7563
-50.0548
-52.26
-34.7201
-51.0008
-13.403
-7.25138
-4.49377
-63.2138
-90.1612
-145.088
-89.4877
-127.301
-70.0383
-113.908
-77.0343
-1.50674
-1.50093
-1.51986
-1.5444
-1.45182
-1.45613
-1.45976
-1.46703
-1.45425
-1.45417
-1.45265
-1.4525
-1.45416
-1.45562
-1.45765
-1.45967
-1.43847
-1.44371
-1.44998
-1.45624
-1.42353
-1.4314
-1.43989
-1.44852
-1.41014
-1.41951
-1.42948
-1.4397
-1.39589
-1.40619
-1.41723
-1.42869
-1.38045
-1.39118
-1.40274
-1.41486
-1.3635
-1.37415
-1.38568
-1.39784
-1.34466
-1.35474
-1.36571
-1.37731
-1.32377
-1.33285
-1.34274
-1.35323
-1.30102
-1.3087
-1.31707
-1.32596
-1.27688
-1.28285
-1.28936
-1.29627
-1.25211
-1.25618
-1.26063
-1.26534
-1.22766
-1.22982
-1.23218
-1.23469
-1.20464
-1.20505
-1.2055
-1.20602
-1.18406
-1.18303
-1.18197
-1.18093
-1.16648
-1.16445
-1.16238
-1.1603
-1.15156
-1.14892
-1.14626
-1.14357
-1.13789
-1.13482
-1.13173
-1.12857
-1.12353
-1.11996
-1.11635
-1.11261
-1.10676
-1.10248
-1.09808
-1.09356
-1.08644
-1.08115
-1.07566
-1.0701
-1.06207
-1.05545
-1.0485
-1.04162
-1.03372
-1.02541
-1.01662
-1.0081
-1.00186
-0.991497
-0.98046
-0.96997
-0.967621
-0.954984
-0.941381
-0.928569
-0.932631
-0.917669
-0.901295
-0.885836
-0.898364
-0.881154
-0.86218
-0.843926
-0.866157
-0.846831
-0.824963
-0.803932
-0.837559
-0.816387
-0.792252
-0.768899
-0.814547
-0.791983
-0.766148
-0.741095
-0.799334
-0.775837
-0.748727
-0.722154
-0.795024
-0.771376
-0.743603
-0.715703
-0.800902
-0.77798
-0.75152
-0.723425
-1.16823
-1.15722
-1.13648
-1.11056
-0.912197
-1.0503
-1.05361
-1.03631
-1.05188
-1.1232
-1.15745
-0.935367
-2422.02
-2661.34
-1381.47
-741.968
-3097.54
-3104.27
-3091.4
-3075.02
-139.151
-160.22
-139.395
-102.262
-1.4696
-1.44438
-1.45395
-1.47569
-1.50594
-1.54142
-1.57965
-1.61853
-1.65837
-1.71867
-1.88807
-2.13452
-2.54919
-2.66675
-2.51853
-4.1636
-14.5509
-66.3925
-228.455
-1.46727
-1.46915
-1.47706
-1.49624
-1.52439
-1.55826
-1.59439
-1.63021
-1.67982
-1.88206
-2.03354
-1.98955
-1.71811
-1.66992
-1.61161
-1.56837
-2.42786
-45.5794
-477.557
-1.45938
-1.47578
-1.49187
-1.51439
-1.5435
-1.57718
-1.61192
-1.6476
-1.8081
-1.91806
-1.88215
-1.6846
-1.65922
-1.63107
-1.58853
-1.54455
-1.64662
-16.1931
-573.701
-1.46563
-1.48321
-1.5044
-1.53109
-1.56273
-1.59716
-1.63109
-1.69708
-1.83143
-1.81672
-1.66696
-1.66034
-1.64463
-1.61783
-1.58461
-1.54357
-1.54254
-14.3696
-666.559
-1.46781
-1.48945
-1.51537
-1.54628
-1.58091
-1.61632
-1.65324
-1.74834
-1.77779
-1.67828
-1.6736
-1.66141
-1.63866
-1.6066
-1.56714
-1.50446
-1.40848
-11.3007
-759.448
-1.4644
-1.49157
-1.5229
-1.55835
-1.59599
-1.63231
-1.69132
-1.76294
-1.72096
-1.69245
-1.68655
-1.66897
-1.64115
-1.60546
-1.56201
-1.49964
-1.41572
-1.54435
-853.727
-1.45832
-1.48989
-1.52598
-1.56551
-1.60565
-1.6429
-1.71365
-1.77042
-1.71519
-1.71027
-1.70793
-1.68256
-1.65113
-1.61549
-1.57577
-1.53473
-1.51928
-1.58279
-786.896
-1.44938
-1.48408
-1.52366
-1.56611
-1.60777
-1.64713
-1.72468
-1.76854
-1.73007
-1.78967
-1.94096
-1.71126
-1.67114
-1.6337
-1.59438
-1.56263
-1.57643
-1.51198
-659.5
-1.43671
-1.4732
-1.51478
-1.55862
-1.60052
-1.64425
-1.70718
-1.71206
-1.73513
-2.04677
-3.60959
-2.24666
-1.75295
-1.65786
-1.61836
-1.59014
-1.60744
-1.38415
-890.544
-1.41977
-1.45649
-1.49835
-1.54191
-1.58272
-1.62259
-1.65602
-1.67036
-1.69959
-2.31795
-3.81043
-3.81036
-1.89206
-1.68889
-1.65653
-1.63883
-1.65072
-1.39879
-1264.22
-1.39825
-1.43357
-1.47389
-1.51546
-1.55388
-1.58821
-1.61515
-1.63532
-1.6494
-3.20465
-3.94202
-3.96904
-1.97672
-1.72433
-1.7137
-1.72393
-1.73959
-1.54535
-1433.26
-1.37218
-1.4045
-1.44151
-1.47952
-1.5145
-1.54442
-1.56842
-1.58986
-1.59918
-4.02767
-4.06183
-3.89249
-1.8209
-1.76509
-1.79441
-1.86457
-1.88666
-1.63024
-1556.23
-1.34205
-1.36994
-1.40209
-1.43519
-1.46599
-1.49255
-1.51491
-1.53585
-1.54295
-4.07622
-4.16871
-2.59398
-1.73119
-1.80333
-1.89471
-2.07505
-2.05569
-4.38439
-1761.69
-1.30885
-1.33123
-1.35733
-1.38461
-1.4107
-1.43433
-1.45573
-1.47588
-1.48742
-2.97355
-4.2635
-2.71095
-1.7126
-1.81377
-1.95587
-2.30267
-6.1362
-4.66963
-1994.49
-1.27406
-1.29031
-1.30975
-1.3308
-1.35211
-1.37305
-1.39368
-1.4137
-1.43843
-2.41326
-4.30296
-1.94124
-1.65131
-1.75429
-1.87521
-2.33598
-45.0621
-354.593
-2186.61
-1.23956
-1.24969
-1.26262
-1.27768
-1.29445
-1.31292
-1.33283
-1.35259
-1.73695
-2.99014
-2.19088
-1.50554
-1.57211
-1.65309
-1.71145
-1.94385
-154.793
-1809.7
-2360.52
-1.20744
-1.21213
-1.21936
-1.22921
-1.24187
-1.25792
-1.27779
-1.29844
-2.96319
-2.99785
-1.40481
-1.42636
-1.49804
-1.55404
-1.57667
-1.50965
-163.422
-2457.05
-2518.64
-1.17965
-1.18012
-1.18285
-1.18834
-1.19708
-1.20997
-1.22872
-1.25136
-2.74723
-2.68874
-1.38129
-1.37524
-1.43444
-1.47999
-1.52524
-1.40404
-128.228
-2489.49
-2645.78
-1.15719
-1.15463
-1.15385
-1.15556
-1.16025
-1.16876
-1.18255
-1.27871
-1.40169
-1.19436
-1.25459
-1.32829
-1.3858
-1.43736
-1.58139
-1.87454
-105.051
-2449.53
-2768.59
-1.13926
-1.1343
-1.13053
-1.1287
-1.12972
-1.1328
-1.14071
-1.25265
-1.14949
-1.16946
-1.22472
-1.29188
-1.35131
-1.41958
-1.92783
-2.89155
-141.543
-2578.48
-2890.37
-1.12317
-1.11599
-1.10931
-1.10442
-1.10097
-1.09897
-1.10105
-1.1334
-1.1119
-1.13815
-1.18971
-1.25596
-1.32326
-1.41359
-2.6595
-4.73234
-282.182
-2891.31
-3012.72
-1.10601
-1.09641
-1.08663
-1.07816
-1.06979
-1.06311
-1.05907
-1.05837
-1.06668
-1.09276
-1.1419
-1.21058
-1.30169
-1.47401
-3.55941
-11.92
-653.891
-3133.73
-3132.75
-1.08552
-1.07313
-1.05978
-1.04616
-1.03301
-1.02037
-1.01061
-1.00564
-1.01004
-1.03191
-1.10536
-1.17011
-1.25704
-1.70099
-3.72224
-144.516
-1748.86
-3256.74
-3266.56
-1.0603
-1.04472
-1.02731
-1.00873
-0.989633
-0.970988
-0.954466
-0.942748
-0.940434
-0.955051
-1.03833
-1.10696
-1.16765
-1.63746
-2.66401
-660.437
-3037.17
-3381.16
-3391.01
-1.02974
-1.01047
-0.988416
-0.964269
-0.938738
-0.912811
-0.888319
-0.868328
-0.857615
-0.86338
-0.892076
-0.956991
-1.05696
-1.54362
-2.3373
-1164.52
-3503.64
-3504.5
-3514.47
-0.993744
-0.970288
-0.942911
-0.912342
-0.879387
-0.845059
-0.811342
-0.781661
-0.761232
-0.757196
-0.773199
-0.811649
-0.940738
-1.54745
-3.1411
-1471.5
-3623.25
-3623.78
-3635.57
-0.952788
-0.924646
-0.891236
-0.853333
-0.811879
-0.767892
-0.723523
-0.68246
-0.650498
-0.635163
-0.643131
-0.67927
-0.829748
-1.58545
-7.91363
-1696.08
-3740.26
-3739.68
-3753.55
-0.908111
-0.874768
-0.834628
-0.788475
-0.737408
-0.682408
-0.625665
-0.571134
-0.524802
-0.494949
-0.489726
-0.519267
-0.694028
-1.5179
-26.9228
-2005.47
-3855.71
-3853.29
-3868.09
-0.861617
-0.822565
-0.775048
-0.719826
-0.65811
-0.59077
-0.519837
-0.449248
-0.38566
-0.335657
-0.307584
-0.319676
-0.475879
-1.01532
-90.1535
-2459.02
-3970.34
-3965.24
-3979.73
-0.815532
-0.770453
-0.715086
-0.650206
-0.577037
-0.496156
-0.409342
-0.320258
-0.239733
-0.163796
-0.101672
-0.0895847
-0.192862
-0.661079
-153.154
-2762.19
-4084.23
-4075.73
-4088.93
-0.771582
-0.720539
-0.657403
-0.582589
-0.497577
-0.402526
-0.298596
-0.189705
-0.084254
0.0219952
0.116305
0.151399
0.00197943
-0.51696
-181.945
-2902.2
-4196.52
-4184.54
-4196.14
-0.732745
-0.675734
-0.604924
-0.520367
-0.423769
-0.314505
-0.192846
-0.0622084
0.0716701
0.211715
0.340874
0.401728
0.189285
-0.652606
-278.034
-3177.82
-4305.87
-4290.63
-4298.11
-0.702831
-0.640622
-0.562015
-0.467598
-0.359913
-0.237288
-0.0979374
0.0570354
0.222665
0.401844
0.574973
0.673239
0.486543
-0.957267
-460.875
-3569.99
-4410.99
-4392.13
-4392.39
-0.680348
-0.61443
-0.529986
-0.427712
-0.309736
-0.175685
-0.0195643
0.159203
0.362241
0.589462
0.828326
0.980811
0.77183
-1.04122
-534.368
-3792.02
-4509.9
-4485.68
-4474.85
-0.670772
-0.599089
-0.508265
-0.398624
-0.296693
-0.195615
-0.016767
0.219112
0.475804
0.755332
1.07265
1.25603
0.828654
-1.28197
-501.561
-3965.8
-4598.41
-4564.36
-4545.4
-0.676057
-0.600592
-0.501318
-0.400948
-0.360899
-0.223097
-0.0446949
0.198223
0.545942
0.848179
1.17919
1.2023
-0.350303
-4.42041
-620.178
-4248.31
-4670.87
-4633.47
-4598.71
-1.04649
-0.897342
-0.527608
-0.418407
-0.340999
-0.220909
-0.0450788
0.236793
0.548606
0.805734
0.956952
-0.394358
-5.59847
-20.9893
-2030.69
-4585.26
-4727.75
-4678.18
-4628.68
-0.984738
-0.694364
-0.510437
-0.308146
-0.186202
-0.158825
0.0116247
0.310764
0.563314
0.800998
0.455974
-2.69871
-10.311
-714.231
-3628.31
-4837.22
-4765.63
-4703.34
-4636.54
-0.809108
-0.995045
-0.889848
-0.35183
-0.116689
-0.400876
-0.219054
0.59348
-4.3542
-37.1904
-171.818
-534.849
-1606.33
-3631.59
-4925.83
-4851.36
-4784.61
-4713.1
-4626.66
-2108.93
-2437.76
-2439.53
-2282.77
-1900.65
-1820.51
-1909.14
-2103.38
-2461.57
-2923.95
-3416.23
-4059.03
-4934.23
-4996.56
-4912.22
-4868.39
-4796.03
-4715.27
-4603.21
-3008.68
-1683.74
-2026.83
-3945.22
-4512.99
-4638.92
-4653.38
-4618.45
-4622.16
-4746.86
-4801.36
-4915.67
-5047.79
-5051.36
-4945.99
-4917.95
-4832.12
-4743.49
-4487.69
-68.8753
-146.452
-155.423
-78.4688
-86.7446
-226.706
-210.418
-67.4049
-68.6042
-230.829
-122.897
-350.753
-214.187
-525.95
-324.564
-708.659
-476.016
-846.012
-408.849
)
;

boundaryField
{
    leftWall
    {
        type            fixedFluxPressure;
        gradient        uniform 0;
        value           nonuniform List<scalar> 
50
(
-1.19063
-1.19191
-1.19252
-1.19291
-1.1927
-1.1918
-1.19019
-1.18789
-1.18323
-1.17439
-1.16335
-1.15041
-1.13593
-1.12028
-1.10389
-1.08716
-1.07048
-1.05418
-1.03855
-1.02378
-1.01001
-0.997282
-0.985593
-0.974863
-0.964949
-0.95564
-0.946654
-0.937633
-0.928139
-0.917653
-0.905577
-0.891242
-0.873919
-0.852839
-0.827197
-0.796151
-0.758791
-0.714055
-0.660511
-0.597855
-0.524375
-0.439135
-0.341642
-0.23305
-0.119454
-1.90755
-7.88373
-5.86699
-0.773179
-0.0831862
)
;
    }
    rightWall
    {
        type            fixedFluxPressure;
        gradient        uniform 0;
        value           nonuniform List<scalar> 
50
(
-3.05092
-3.05926
-3.08238
-3.11858
-3.20582
-3.38352
-3.38154
-3.53992
-228.455
-477.557
-573.701
-666.559
-759.448
-853.727
-786.896
-659.5
-890.544
-1264.22
-1433.26
-1556.23
-1761.69
-1994.49
-2186.61
-2360.52
-2518.64
-2645.78
-2768.59
-2890.37
-3012.72
-3132.75
-3266.56
-3391.01
-3514.47
-3635.57
-3753.55
-3868.09
-3979.73
-4088.93
-4196.14
-4298.11
-4392.39
-4474.85
-4545.4
-4598.71
-4628.68
-4636.54
-4626.66
-4603.21
-4487.69
-408.849
)
;
    }
    lowerWall
    {
        type            fixedFluxPressure;
        gradient        uniform 0;
        value           nonuniform List<scalar> 
62
(
-1.19063
-1.19094
-1.19406
-1.19902
-1.20565
-1.21371
-1.22305
-1.23371
-1.24582
-1.25956
-1.27516
-1.29285
-1.31288
-1.33541
-1.36034
-1.387
-1.41362
-1.43669
-1.45082
-1.45075
-1.43512
-1.41407
-1.39707
-1.39707
-1.39224
-1.39592
-1.40532
-1.41803
-1.43218
-1.44604
-1.45754
-1.50674
-1.50093
-1.51986
-1.5444
-1.37674
-1.37585
-1.37072
-1.36304
-1.35704
-1.35628
-1.36564
-1.39098
-1.37674
-1.39325
-1.40767
-1.43675
-1.47332
-1.51393
-1.55545
-1.59642
-1.63758
-1.68256
-1.7417
-1.83483
-1.98568
-2.20575
-2.47896
-2.74172
-2.92232
-3.01395
-3.05092
)
;
    }
    atmosphere
    {
        type            totalPressure;
        rho             rho;
        psi             none;
        gamma           1;
        p0              uniform 0;
        value           nonuniform List<scalar> 
46
(
0
0
-3.99779e-05
0
0
0
-0.0225289
-0.561255
-0.00297253
0
-0.748146
0
-0.0858372
0
-0.0665695
0
-1.70321
0
-1.17242
0
-0.627846
0
-0.776961
0
0
0
-0.738091
-1.09514
0
0
-0.771706
-1.27455
0
0
-0.369744
-0.537849
0
-0.25384
0
-0.50208
0
-0.899426
0
-1.35953
0
-10.575
)
;
    }
    defaultFaces
    {
        type            empty;
    }
}


// ************************************************************************* //
