/*--------------------------------*- C++ -*----------------------------------*\
  =========                 |
  \\      /  F ield         | OpenFOAM: The Open Source CFD Toolbox
   \\    /   O peration     | Website:  https://openfoam.org
    \\  /    A nd           | Version:  9
     \\/     M anipulation  |
\*---------------------------------------------------------------------------*/
FoamFile
{
    format      ascii;
    class       volScalarField;
    location    "0.8";
    object      p_rgh;
}
// * * * * * * * * * * * * * * * * * * * * * * * * * * * * * * * * * * * * * //

dimensions      [1 -1 -2 0 0 0 0];

internalField   nonuniform List<scalar> 
2268
(
678.395
674.177
672.383
673.703
678.167
685.149
694.196
704.953
717.155
730.584
745.058
760.439
776.623
793.485
810.841
828.497
846.15
862.473
876.602
888.153
894.839
894.629
886.384
678.966
674.203
672.353
673.99
678.785
686.002
695.179
705.97
718.126
731.444
745.756
760.933
776.864
793.429
810.446
827.676
844.775
861.125
874.47
883.931
889.731
889.832
883.32
677.685
673.272
672.048
674.198
679.346
686.817
696.162
707.03
719.179
732.41
746.562
761.51
777.146
793.342
809.912
826.59
843.013
858.696
872.764
883.496
889.367
888.448
879.562
674.972
671.316
671.008
673.738
679.269
687.03
696.583
707.583
719.791
733.005
747.061
761.831
777.218
793.11
809.319
825.576
841.535
856.754
870.414
881.081
887.585
886.455
875.332
671.274
668.524
669.145
672.441
678.389
686.491
696.308
707.51
719.858
733.142
747.184
761.847
777.058
792.746
808.727
824.732
840.468
855.592
869.364
880.441
887.78
886.518
870.894
666.668
665
666.516
670.343
676.749
685.255
695.401
706.876
719.442
732.881
746.985
761.602
776.697
792.276
808.147
824.024
839.694
854.963
869.152
880.997
889.991
889.094
864.635
661.08
660.663
663.041
667.394
674.348
683.383
693.953
705.773
718.629
732.294
746.526
761.137
776.158
791.706
807.566
823.402
839.096
854.636
869.41
882.426
894.004
892.83
853.007
654.569
654.897
657.845
662.73
670.52
680.519
691.812
704.188
717.464
731.449
745.861
760.479
775.436
790.997
806.917
822.794
838.581
854.437
869.89
884.384
898.165
894.969
843.975
1477.38
1311.46
1091.35
885.928
748.386
682.484
669.833
690.243
742.796
836.672
966.258
1077.65
1111.76
1092.35
1069.27
1063.53
1060.4
1037.71
1020.59
1520.47
1334.82
1091.71
878.149
739.305
672.409
658.942
674.429
717.02
795.022
910.212
1019.53
1064.06
1059.23
1043.56
1039.03
1038.5
1024.55
1021.14
1525.39
1302.65
1049.94
850.391
720.514
657.718
647.249
658.522
689.981
750.953
852.768
963.031
1015.36
1018.29
1015.23
1019.05
1023.01
1018.18
1015.6
1474.45
1213.58
970.27
796.552
682.046
629.709
629.221
641.458
665.397
711.982
807.645
921.73
958.938
956.876
969.979
997.476
1018.22
1020.35
1004.34
1381.89
1096.3
855.533
670.748
566.994
533.119
552.01
578.816
617.322
676.062
777.687
895.326
930.892
933.785
923.845
947.992
1007.33
1028.21
1001.16
1277.15
958.135
607.186
396.25
313.467
292.949
334.381
379.701
432.408
515.753
682.069
870.544
940.347
910.123
894.584
910.006
984.341
1023.09
1009.97
1192.13
846.851
393.718
311.024
266.682
273.858
343.121
386.815
409.506
435.179
566.229
870.424
933.578
903.848
880.022
884.877
933.429
1013.75
1011.29
1146.31
780.595
355.714
302.285
273.229
358.229
417.583
395.71
415.634
440.007
568.221
877.878
932.991
863.324
804.584
911.364
959.274
997.529
1001.97
627.321
623.1
622.816
630.695
649.923
672.22
685.662
699.848
714.497
729.506
744.504
759.157
773.914
789.558
805.743
821.802
837.739
854.107
870.854
887.541
901.707
898.895
880.703
202.594
197.804
200.077
213.406
247.849
306.414
391.129
477.989
561.471
639.399
705.934
749.914
770.351
787.103
804.696
820.548
835.321
851.858
870.058
887.022
902.834
914.221
904.041
1.77532
1.43702
1.60299
1.5937
1.61943
2.35437
9.3453
28.2631
61.4183
107.955
161.899
221.758
310.554
445.733
578.832
651.611
683.014
711.068
743.951
753.971
743.447
785.17
933.193
0.778904
0.714101
0.72554
0.714368
0.704226
0.706764
0.731077
0.802531
0.887998
0.914101
0.840556
0.677872
0.594758
0.594273
0.645953
0.787736
19.179
89.1807
136.279
147.707
140.153
306.903
907.553
0.679793
0.669937
0.671324
0.66459
0.654729
0.638962
0.61043
0.586025
0.573689
0.573837
0.585198
0.605132
0.630296
0.661498
0.696372
0.729146
0.764965
0.820957
1.45864
4.77218
17.21
141.954
863.322
0.648584
0.648107
0.650599
0.64755
0.63981
0.627307
0.609084
0.59279
0.584302
0.585117
0.595043
0.61309
0.638762
0.673667
0.721804
0.787952
0.879509
1.01397
1.29282
2.33997
6.50046
58.5172
713.537
0.616689
0.617012
0.61827
0.616695
0.612085
0.605038
0.596184
0.588157
0.584143
0.586538
0.596306
0.613382
0.63823
0.673204
0.722054
0.788538
0.879074
1.00877
1.19147
1.72761
3.19654
9.51994
395.237
0.587181
0.588133
0.588995
0.58809
0.585256
0.581011
0.576257
0.572683
0.572317
0.576799
0.586989
0.603198
0.626117
0.657388
0.69891
0.751731
0.816516
0.895458
0.987562
1.13486
1.64163
4.31845
160.16
0.559333
0.560875
0.561934
0.561577
0.559808
0.557148
0.554483
0.553129
0.554493
0.55962
0.569045
0.583032
0.602048
0.62684
0.657693
0.693392
0.730663
0.763461
0.780924
0.774383
0.852598
1.69543
11.5244
0.531894
0.533607
0.534806
0.534846
0.533795
0.532155
0.530703
0.530422
0.532266
0.536862
0.544461
0.555149
0.569068
0.586246
0.605909
0.62565
0.640876
0.644628
0.626422
0.573479
0.502795
0.644044
2.13681
0.504864
0.506462
0.507639
0.507863
0.507192
0.506074
0.505151
0.505154
0.506698
0.510084
0.515306
0.522243
0.530773
0.540464
0.549968
0.556517
0.555738
0.541781
0.507914
0.445329
0.349691
0.27246
0.465575
0.478289
0.479662
0.480713
0.480953
0.480401
0.479421
0.478527
0.478261
0.479005
0.48082
0.483483
0.486692
0.490135
0.493156
0.49419
0.490515
0.478439
0.453384
0.410809
0.347055
0.258298
0.152641
0.103598
0.452152
0.453258
0.454121
0.454276
0.453683
0.452601
0.45142
0.450546
0.450206
0.450304
0.450467
0.450256
0.449237
0.446668
0.441002
0.429741
0.409794
0.377683
0.329866
0.263915
0.178909
0.0743346
-0.0398675
0.426458
0.427291
0.427939
0.427962
0.427241
0.425921
0.424276
0.422612
0.421064
0.419449
0.417301
0.414097
0.409348
0.402318
0.39157
0.374888
0.349686
0.313274
0.262825
0.19593
0.111531
0.00816084
-0.116042
0.40123
0.401815
0.402257
0.402138
0.401258
0.399642
0.397458
0.394938
0.392176
0.388957
0.38477
0.379032
0.371242
0.360743
0.34629
0.325951
0.297524
0.258853
0.207757
0.142141
0.0606219
-0.0379882
-0.15461
0.376512
0.376898
0.377167
0.376923
0.375892
0.373983
0.371265
0.36791
0.364006
0.359353
0.353441
0.345646
0.335446
0.322295
0.305192
0.282524
0.252395
0.212998
0.162623
0.0996522
0.02287
-0.0686815
-0.175845
0.35237
0.352612
0.352753
0.352413
0.351264
0.34911
0.345924
0.34182
0.336899
0.331017
0.323705
0.314326
0.302314
0.2872
0.268236
0.24417
0.213409
0.174395
0.125722
0.0661486
-0.00520668
-0.0888503
-0.185359
0.32888
0.329028
0.32908
0.328678
0.327459
0.325142
0.321599
0.31688
0.311098
0.304192
0.295786
0.285266
0.272022
0.255585
0.235408
0.210596
0.179907
0.142015
0.0957229
0.040036
-0.0256575
-0.101429
-0.187338
0.306107
0.3062
0.306192
0.305749
0.304506
0.302118
0.298363
0.293208
0.286754
0.279025
0.26978
0.258493
0.244544
0.227406
0.206624
0.181583
0.151406
0.115053
0.0715143
0.0199507
-0.0400982
-0.108466
-0.184898
0.284105
0.284166
0.284108
0.283631
0.282395
0.280023
0.27621
0.270826
0.263925
0.255587
0.245716
0.233934
0.219685
0.202395
0.181596
0.156825
0.127492
0.0928692
0.0521762
0.00470916
-0.0499134
-0.111454
-0.179565
0.262925
0.262963
0.262852
0.262327
0.2611
0.258801
0.255065
0.249668
0.242576
0.233873
0.22358
0.211493
0.197191
0.180137
0.159821
0.135807
0.107666
0.0749152
0.0370189
-0.00656023
-0.0561321
-0.111457
-0.172221
0.242611
0.242631
0.242452
0.24185
0.240608
0.238398
0.234829
0.229605
0.222585
0.213798
0.203315
0.191091
0.176875
0.16025
0.140728
0.117854
0.0912443
0.0605512
0.0254237
-0.0145085
-0.0594619
-0.1092
-0.163491
0.223205
0.223208
0.222948
0.222236
0.220935
0.218786
0.215418
0.210491
0.203766
0.195185
0.18479
0.172631
0.158621
0.142496
0.123873
0.102324
0.0774688
0.049
0.0166617
-0.0197981
-0.0605104
-0.105237
-0.153818
0.204744
0.204732
0.204383
0.203534
0.202129
0.199984
0.196794
0.192205
0.185921
0.177787
0.167775
0.155936
0.142292
0.126735
0.109016
0.0887977
0.0657336
0.0395348
0.00997269
-0.0231523
-0.0599191
-0.100097
-0.14358
0.187254
0.18723
0.186795
0.185798
0.184253
0.182054
0.178976
0.174693
0.168898
0.161356
0.15196
0.140712
0.127658
0.112793
0.0960005
0.0770607
0.0557045
0.0316812
0.00478086
-0.0251801
-0.0582641
-0.0942625
-0.133117
0.170745
0.170718
0.170207
0.169071
0.167371
0.165072
0.162028
0.157972
0.152623
0.145712
0.137062
0.126612
0.114377
0.100385
0.0846069
0.0669322
0.0471897
0.0251921
0.000765084
-0.0262553
-0.0559277
-0.0880739
-0.12268
0.155212
0.155187
0.154621
0.15337
0.151525
0.149109
0.146037
0.142118
0.13712
0.130782
0.122897
0.113343
0.102087
0.0891399
0.0745033
0.0581397
0.0399641
0.0198646
-0.00228137
-0.0266022
-0.0531441
-0.0817526
-0.112448
0.140632
0.140616
0.140015
0.138685
0.136729
0.134208
0.131078
0.127228
0.122479
0.116611
0.109419
0.100751
0.0905254
0.0787165
0.0653206
0.050331
0.0337182
0.0154341
-0.00458702
-0.026428
-0.050111
-0.0754901
-0.1026
0.126965
0.12696
0.126347
0.124981
0.122963
0.120373
0.117197
0.113385
0.108809
0.103305
0.0966948
0.0888239
0.0795833
0.0689118
0.0567848
0.0431969
0.0281431
0.0116146
-0.00640713
-0.0259598
-0.0470354
-0.0694826
-0.0933295
0.114157
0.114164
0.113559
0.112198
0.110174
0.107566
0.104387
0.10062
0.096186
0.0909708
0.0848375
0.0776494
0.0692924
0.0596857
0.0487832
0.0365666
0.0230328
0.00819116
-0.00794713
-0.0253839
-0.0440828
-0.0638802
-0.0847808
0.102148
0.102166
0.101584
0.100264
0.0982864
0.0957191
0.0925955
0.0889113
0.0846264
0.0796694
0.0739439
0.0673413
0.059759
0.0511132
0.0413449
0.0304202
0.0183278
0.00508005
-0.00929707
-0.0247822
-0.0413182
-0.0587285
-0.0769871
0.09087
0.0908993
0.0903526
0.0891012
0.0872127
0.0847441
0.0817347
0.0781877
0.0740896
0.0693997
0.064056
0.0579795
0.0510876
0.0433047
0.0345683
0.0248335
0.014079
0.0023138
-0.0104317
-0.0241247
-0.0386957
-0.0539605
-0.069863
0.0802575
0.0802973
0.0797936
0.0786298
0.0768619
0.0745401
0.0716984
0.0683475
0.0644889
0.0601022
0.0551505
0.0495802
0.0433306
0.0363391
0.0285461
0.019902
0.0103793
-1.75421e-05
-0.0112594
-0.0233102
-0.0360964
-0.0494328
-0.0632406
0.0702426
0.0702908
0.0698325
0.0687684
0.067143
0.0650037
0.0623753
0.0592759
0.0557125
0.0516774
0.04715
0.0420959
0.0364728
0.0302319
0.0233194
0.0156864
0.0073033
-0.00182821
-0.0116827
-0.0222256
-0.0333851
-0.0449818
-0.0569243
0.0607557
0.0608054
0.0603906
0.0594321
0.0579659
0.0560343
0.0536574
0.0508564
0.0476393
0.0440049
0.0399426
0.035431
0.0304417
0.0249366
0.0188689
0.012192
0.00487752
-0.00307353
-0.0116396
-0.020789
-0.0304543
-0.040469
-0.0507355
0.0517265
0.051764
0.0513863
0.0505367
0.0492439
0.0475399
0.0454454
0.0429796
0.0401502
0.0369593
0.0334017
0.0294649
0.0251293
0.0203645
0.0151281
0.00937461
0.00307776
-0.00375914
-0.0111162
-0.0189642
-0.0272422
-0.0358025
-0.0445587
0.0430881
0.0430917
0.0427421
0.0420082
0.0409017
0.0394425
0.0376528
0.035548
0.0331363
0.0304215
0.0274023
0.0240713
0.0204141
0.0164045
0.0120014
0.00715452
0.00183884
-0.00393416
-0.0101429
-0.0167611
-0.0237345
-0.030933
-0.0382793
0.0347793
0.0347204
0.0343944
0.0337881
0.032879
0.0316777
0.0302056
0.0284778
0.0265037
0.0242882
0.0218322
0.0191312
0.0161741
0.012938
0.00938028
0.0054327
0.00106824
-0.00367962
-0.00878583
-0.0142274
-0.0199564
-0.0258621
-0.0318833
0.0267432
0.0265932
0.0262981
0.0258324
0.0251272
0.0241896
0.0230419
0.0217006
0.0201755
0.0184721
0.0165926
0.0145355
0.0122939
0.00985196
0.00716561
0.00411404
0.000663374
-0.00309573
-0.00713343
-0.0114336
-0.0159583
-0.0206194
-0.0253686
0.0189206
0.0186786
0.0184207
0.0180939
0.017587
0.0169078
0.0160828
0.0151293
0.0140564
0.0128695
0.0115732
0.0101702
0.00866436
0.00706631
0.00534231
0.00317159
0.000532885
-0.00229846
-0.00530226
-0.0084883
-0.0118349
-0.0152789
-0.0187746
0.0112662
0.0109634
0.010729
0.0105016
0.0101588
0.0097164
0.00920324
0.00863311
0.00801189
0.00734521
0.00664105
0.00591044
0.00518219
0.00455029
0.00405931
0.00275521
0.000624109
-0.00140201
-0.00341298
-0.00550207
-0.00767315
-0.0098892
-0.0121205
0.00377404
0.0035013
0.00330346
0.00314774
0.00297211
0.00278468
0.00259728
0.00241358
0.00223516
0.00206606
0.00191481
0.00179706
0.00175805
0.00195545
0.00260088
0.00248134
0.000698822
-0.00041902
-0.00131441
-0.00218776
-0.00306956
-0.00394753
-0.00481398
920.578
922.953
915.248
906.927
897.989
893.174
893.023
915.598
914.554
876.145
761.925
684.553
987.189
737.94
205.131
75.4908
948.849
311.785
56.1846
56.1454
908.915
270.151
57.2819
57.0568
988.65
670.162
164.216
57.1043
807.837
840.948
804.287
331.366
396.936
815.001
807.302
786.642
9.72131
330.88
764.906
786.23
1.19791
3.88477
134.964
514.518
0.268525
0.861219
0.717299
14.5576
-0.0900094
0.0154137
0.321881
-0.146409
-0.226832
-0.299371
-0.360521
-0.393623
-0.255758
-0.323258
-0.392508
-0.449284
-0.270264
-0.334382
-0.400111
-0.468122
-0.27182
-0.333607
-0.397389
-0.462267
-0.264938
-0.322265
-0.382324
-0.441375
-0.254439
-0.30676
-0.361937
-0.415226
-0.241895
-0.289295
-0.339393
-0.387261
-0.228061
-0.270827
-0.316082
-0.359002
-0.213536
-0.252064
-0.292879
-0.331391
-0.198689
-0.233384
-0.270188
-0.304825
-0.183788
-0.215011
-0.2482
-0.279434
-0.169071
-0.197112
-0.227025
-0.255241
-0.1547
-0.179787
-0.206692
-0.232185
-0.140799
-0.163113
-0.187207
-0.210183
-0.12753
-0.147225
-0.168646
-0.189226
-0.115095
-0.132317
-0.151167
-0.169407
-0.103657
-0.118561
-0.134936
-0.150872
-0.0932635
-0.106033
-0.120062
-0.133755
-0.0838357
-0.094684
-0.106548
-0.118117
-0.0751997
-0.0843585
-0.0942857
-0.103908
-0.0671363
-0.0748396
-0.0830832
-0.0909884
-0.0594301
-0.0658956
-0.0727115
-0.0791511
-0.0519099
-0.0573187
-0.062939
-0.0681571
-0.0444349
-0.0489321
-0.0535466
-0.0577563
-0.0369258
-0.0406026
-0.0443423
-0.0477041
-0.0293315
-0.0322284
-0.0351597
-0.0377688
-0.02164
-0.0237511
-0.0258822
-0.0277683
-0.0139107
-0.0152196
-0.0165247
-0.0176821
-0.0055207
-0.00606666
-0.00665657
-0.00723184
1074.66
813.501
415.481
339.955
391.295
565.62
622.171
508.63
422.718
469.334
729.122
886.29
868.19
572.685
528.563
707.494
890.585
954.741
982.029
992.278
891.149
816.015
773.877
735.949
587.109
643.155
689.578
431.276
534.728
835.866
886.696
733.382
406.013
391.522
387.492
500.802
631.489
896.604
685.588
574.398
460.992
408.652
373.221
252.768
464.858
678.187
421.2
564.014
873.217
899.338
657.027
377.128
380.455
378.087
363.628
347.7
435.39
79.1261
71.6693
62.7893
67.9354
92.8165
132.161
295.583
586.691
373.995
663.167
885.919
915.43
526.786
355.801
368.92
393.313
355.492
336.946
326.175
56.0416
56.4469
57.0701
60.158
68.6569
128.114
269.696
287.015
307.291
767.488
924.954
954.959
450.97
334.469
380.278
485.284
456.359
330.439
319.143
57.1867
57.2882
57.3558
58.5307
86.6158
152.349
128.255
78.0958
226.636
725.602
984.866
796.062
377.097
323.968
460.512
467.915
477.77
447.869
309.728
57.6609
57.937
58.2284
68.6943
98.3753
96.1103
58.3344
62.2243
102.004
444.945
1031.73
285.686
300.619
423.648
421.537
431.471
457.113
464.827
366.54
60.2599
59.1391
59.8723
70.0917
70.6843
58.3267
57.7028
58.4254
64.3004
436.465
1004.46
138.8
221.197
382.971
352.279
267.686
399.157
454.536
448.136
380.422
59.4177
60.2106
60.1047
58.4761
57.8629
57.638
57.7714
58.9988
929.64
754.068
96.7206
150.507
293.742
44.2543
10.3319
102.907
415.581
443.475
763.695
309.115
59.4816
59.3286
58.5947
58.058
57.7399
57.2266
121.148
1009.27
268.39
70.9288
44.83
3.57144
2.98559
3.54797
6.64954
124.476
409.322
761.572
698.48
469.107
58.2244
57.9873
57.3251
56.6485
52.3311
647.328
1061.98
55.7954
78.87
23.3332
3.05629
2.00741
1.85397
2.31507
8.83586
370.859
341.72
726.636
742.121
705.614
273.737
128.78
229.653
652.236
831.17
371.432
44.1832
46.3579
26.1921
1.68058
1.56225
1.21529
1.33656
3.77806
126.179
-0.647956
182.586
702.236
782.427
789.46
781.533
760.79
757.975
449.656
33.9036
46.1465
49.5722
26.2742
0.980859
0.942712
0.721496
1.21074
2.79423
113.995
-0.387632
-0.326558
60.044
301.93
482.078
488.881
341.073
83.1318
5.88365
35.5452
74.7978
73.19
15.3304
0.423415
0.950016
0.330107
0.750417
1.0815
175.276
-0.498459
-0.465946
-0.341483
0.145535
-0.421144
-2.03093
-1.884
-0.858028
5.14114
68.9666
76.4674
14.5171
-0.202875
0.202843
0.633834
0.0640009
-0.0200851
0.708567
155.802
-0.574786
-0.690596
-0.863751
-1.04016
-1.11106
-1.05706
-0.844357
-0.72844
8.85733
22.9123
5.31874
-0.535263
-0.375524
-0.194658
-0.105242
-0.14722
-0.24213
0.120203
-1.09758
-0.572089
-0.723515
-0.88284
-1.0194
-1.05951
-1.02933
-0.890447
-0.74163
3.81355
4.4424
-0.749489
-0.619358
-0.475937
-0.344054
-0.264568
-0.293534
-0.4103
-0.700718
-0.385773
-0.534547
-0.662842
-0.791755
-0.894261
-0.932396
-0.918742
-0.864857
-0.854869
2.0174
1.07452
-0.76762
-0.653093
-0.55003
-0.454458
-0.373591
-0.357011
-0.398968
-0.603539
-0.113604
-0.494342
-0.596021
-0.693214
-0.769419
-0.806462
-0.808147
-0.795057
-0.800829
0.511846
-0.504186
-0.745271
-0.66281
-0.604707
-0.533418
-0.44689
-0.393888
-0.367371
-0.466501
1.61304
-0.456023
-0.539612
-0.616469
-0.677365
-0.713717
-0.726828
-0.735502
-0.750931
-0.623945
-0.623166
-0.718931
-0.668335
-0.631006
-0.578718
-0.50912
-0.441587
-0.369676
-0.416694
41.9165
-0.419383
-0.490019
-0.553964
-0.605956
-0.641628
-0.663654
-0.680401
-0.698132
-0.724436
-0.713134
-0.692333
-0.672409
-0.643982
-0.5955
-0.535649
-0.466938
-0.397174
-0.419519
67.7253
-0.384812
-0.445489
-0.500082
-0.545608
-0.57973
-0.604549
-0.624921
-0.641526
-0.665206
-0.675853
-0.668387
-0.654241
-0.628698
-0.589471
-0.539086
-0.478595
-0.413018
-0.415215
70.3314
-0.352452
-0.405329
-0.452681
-0.492836
-0.524519
-0.549366
-0.570484
-0.588441
-0.609577
-0.62227
-0.623342
-0.615015
-0.596468
-0.566232
-0.52592
-0.475802
-0.395139
-0.3929
72.9892
-0.322169
-0.368811
-0.410383
-0.445913
-0.474686
-0.498066
-0.518188
-0.536724
-0.553787
-0.565927
-0.570591
-0.567108
-0.554583
-0.53252
-0.502778
-0.454438
-0.3757
-0.367542
75.5656
-0.293754
-0.33527
-0.372108
-0.403631
-0.429392
-0.450554
-0.468738
-0.485039
-0.499512
-0.510465
-0.516242
-0.51577
-0.508264
-0.493579
-0.473417
-0.418708
-0.362936
-0.350982
77.7697
-0.266964
-0.304143
-0.337027
-0.365093
-0.387985
-0.406694
-0.42255
-0.436387
-0.448291
-0.457469
-0.463053
-0.464277
-0.460545
-0.452083
-0.440466
-0.396013
-0.361233
-0.346979
79.5271
-0.241569
-0.274965
-0.304467
-0.329558
-0.349853
-0.366168
-0.379656
-0.391042
-0.400458
-0.407601
-0.412191
-0.41392
-0.412437
-0.40816
-0.403315
-0.372243
-0.361587
-0.323432
44.284
-0.21743
-0.2474
-0.273913
-0.29642
-0.314431
-0.328559
-0.339812
-0.348878
-0.355948
-0.360973
-0.364028
-0.365146
-0.364118
-0.361267
-0.35901
-0.349442
-0.346049
-0.298736
-0.585117
-0.19453
-0.221285
-0.245047
-0.265244
-0.281261
-0.293456
-0.302686
-0.309643
-0.314569
-0.317531
-0.318752
-0.318362
-0.316064
-0.3117
-0.30637
-0.305608
0.320559
-0.201839
-0.214642
-0.172961
-0.196613
-0.217746
-0.235789
-0.250032
-0.260577
-0.268095
-0.27317
-0.276173
-0.277248
-0.276598
-0.274261
-0.26971
-0.261904
-0.25102
-0.240953
1.31054
0.727857
0.0158725
-0.152865
-0.173487
-0.192036
-0.207973
-0.220557
-0.229703
-0.235794
-0.23928
-0.240659
-0.240142
-0.237822
-0.233655
-0.226815
-0.215317
-0.200136
0.225347
1.45379
1.50226
0.345046
-0.134356
-0.152032
-0.168014
-0.181822
-0.192763
-0.200617
-0.205522
-0.207839
-0.207962
-0.206175
-0.202609
-0.197061
-0.188416
-0.174915
-0.159635
1.03099
1.56665
1.64081
0.464288
-0.117466
-0.132336
-0.145796
-0.157443
-0.166685
-0.173211
-0.177121
-0.178554
-0.177839
-0.175294
-0.171005
-0.164567
-0.152807
-0.139316
-0.127258
1.59322
1.65917
1.57203
0.313001
-0.102133
-0.114414
-0.125466
-0.13496
-0.142443
-0.14761
-0.150461
-0.151226
-0.149921
-0.14697
-0.142507
-0.135948
-0.121534
-0.110481
0.613008
1.74231
1.76109
0.347121
0.201432
-0.0882016
-0.0981842
-0.107041
-0.114488
-0.12019
-0.123965
-0.125437
-0.125754
-0.123931
-0.120649
-0.104491
-0.0998655
-0.097371
-0.0892412
1.71254
1.81551
0.881624
0.0608517
0.128615
-0.0754427
-0.0834762
-0.0904543
-0.0960856
-0.100099
-0.102485
-0.103261
-0.100324
-0.0844527
-0.0617223
-0.059002
-0.0780253
-0.0796665
0.901784
1.80444
1.88079
0.216822
0.0481703
0.115632
-0.0635856
-0.0700441
-0.0755548
-0.0797393
-0.0822753
-0.0832757
-0.0829549
-0.0750967
-0.0423525
-0.0392689
-0.038611
-0.0663282
-0.0656719
0.656354
1.34631
0.0771379
-0.00413889
0.0453904
0.104424
-0.0523298
-0.0575658
-0.06209
-0.065349
-0.0667304
-0.0664415
-0.0650303
-0.061926
-0.0428751
-0.0291858
-0.0447704
-0.0459581
0.0875617
-0.0526846
-0.0459927
-0.0265574
-0.00179758
0.0363849
0.0875968
-0.0413569
-0.0456259
-0.0496793
-0.052811
-0.0535091
-0.0519845
-0.0495189
-0.0463959
-0.0426034
-0.0379104
-0.033485
-0.0265417
-0.0270767
-0.0287353
-0.0255762
-0.0172148
-0.00408821
0.0231926
0.0656131
-0.0304089
-0.0338188
-0.0377796
-0.0427524
-0.0438658
-0.0405568
-0.0369336
-0.0329927
-0.0283445
-0.0228433
-0.0163755
-0.00949271
-0.00838888
-0.0110045
-0.0115839
-0.0111574
-0.00986885
0.0059007
0.0817538
-0.0194647
-0.0221824
-0.026272
-0.0376339
-0.0416311
-0.0340616
-0.0286315
-0.0236424
-0.0175553
-0.00954935
0.00151467
0.0164036
0.0155195
0.00330285
-0.00263082
-0.00894316
-0.020694
-0.0201947
0.102263
-0.00828934
-0.0115246
-0.0218142
-0.0382423
-0.0353352
-0.0242204
-0.0188378
-0.0142967
-0.0084485
0.000175268
0.0152507
0.0404447
0.0433953
0.0113765
-0.00208381
-0.0124144
-0.03205
-0.0531605
0.0522485
)
;

boundaryField
{
    leftWall
    {
        type            fixedFluxPressure;
        gradient        uniform 0;
        value           nonuniform List<scalar> 
50
(
678.395
678.966
677.685
674.972
671.274
666.668
661.08
654.569
627.321
202.594
1.77532
0.778904
0.679793
0.648584
0.616689
0.587181
0.559333
0.531894
0.504864
0.478289
0.452152
0.426458
0.40123
0.376512
0.35237
0.32888
0.306107
0.284105
0.262925
0.242611
0.223205
0.204744
0.187254
0.170745
0.155212
0.140632
0.126965
0.114157
0.102148
0.09087
0.0802575
0.0702426
0.0607557
0.0517265
0.0430881
0.0347793
0.0267432
0.0189206
0.0112662
0.00377404
)
;
    }
    rightWall
    {
        type            fixedFluxPressure;
        gradient        uniform 0;
        value           nonuniform List<scalar> 
50
(
1020.59
1021.14
1015.6
1004.34
1001.16
1009.97
1011.29
1001.97
982.029
896.604
435.39
326.175
319.143
309.728
366.54
448.136
443.475
409.322
370.859
126.179
113.995
175.276
155.802
-1.09758
-0.385773
-0.113604
1.61304
41.9165
67.7253
70.3314
72.9892
75.5656
77.7697
79.5271
44.284
-0.585117
-0.214642
0.0158725
0.345046
0.464288
0.313001
0.201432
0.128615
0.115632
0.104424
0.0875968
0.0656131
0.0817538
0.102263
0.0522485
)
;
    }
    lowerWall
    {
        type            fixedFluxPressure;
        gradient        uniform 0;
        value           nonuniform List<scalar> 
62
(
678.395
674.177
672.383
673.703
678.167
685.149
694.196
704.953
717.155
730.584
745.058
760.439
776.623
793.485
810.841
828.497
846.15
862.473
876.602
888.153
894.839
894.629
886.384
886.384
883.32
879.562
875.332
870.894
864.635
853.007
843.975
920.578
922.953
915.248
906.927
1477.38
1520.47
1525.39
1474.45
1381.89
1277.15
1192.13
1146.31
1477.38
1311.46
1091.35
885.928
748.386
682.484
669.833
690.243
742.796
836.672
966.258
1077.65
1111.76
1092.35
1069.27
1063.53
1060.4
1037.71
1020.59
)
;
    }
    atmosphere
    {
        type            totalPressure;
        rho             rho;
        psi             none;
        gamma           1;
        p0              uniform 0;
        value           nonuniform List<scalar> 
46
(
0
0
0
0
0
0
0
0
0
0
0
0
0
0
0
-1.01918e-06
-2.85537e-05
-9.52638e-05
-0.000195622
-0.000316458
-0.000436156
-0.000526255
-0.00055896
-0.00053396
-0.000516513
-0.000502512
-0.000490935
-0.000462272
-0.00031119
-0.000107229
-4.3227e-09
0
0
0
0
0
0
0
0
-0.000567591
-0.0028373
-0.00762264
-0.0134682
-0.0175487
-0.0118335
0
)
;
    }
    defaultFaces
    {
        type            empty;
    }
}


// ************************************************************************* //
