/*--------------------------------*- C++ -*----------------------------------*\
  =========                 |
  \\      /  F ield         | OpenFOAM: The Open Source CFD Toolbox
   \\    /   O peration     | Website:  https://openfoam.org
    \\  /    A nd           | Version:  9
     \\/     M anipulation  |
\*---------------------------------------------------------------------------*/
FoamFile
{
    format      ascii;
    class       surfaceScalarField;
    location    "0.1";
    object      alphaPhi0.water;
}
// * * * * * * * * * * * * * * * * * * * * * * * * * * * * * * * * * * * * * //

dimensions      [0 3 -1 0 0 0 0];

internalField   nonuniform List<scalar> 
4432
(
1.84254e-06
-1.84254e-06
6.15898e-06
-4.31644e-06
1.165e-05
-5.49106e-06
1.76295e-05
-5.97942e-06
2.3845e-05
-6.21559e-06
3.02277e-05
-6.38268e-06
3.68206e-05
-6.59289e-06
4.37644e-05
-6.94377e-06
5.12736e-05
-7.50922e-06
5.9642e-05
-8.36835e-06
6.93126e-05
-9.67066e-06
8.0715e-05
-1.14023e-05
9.38495e-05
-1.31345e-05
0.000107232
-1.33827e-05
0.000117116
-9.8931e-06
0.000119915
-3.25791e-06
0.000117604
1.11112e-06
0.000107565
-1.06676e-07
5.32122e-05
-2.31204e-06
1.09938e-06
-5.35324e-08
2.24233e-07
4.84408e-07
6.08868e-08
1.90608e-07
5.56249e-08
3.16186e-06
-5.00442e-06
7.77231e-06
-8.92688e-06
1.29039e-05
-1.06226e-05
1.83872e-05
-1.14627e-05
2.41325e-05
-1.1961e-05
3.01152e-05
-1.23653e-05
3.63824e-05
-1.286e-05
4.30506e-05
-1.3612e-05
5.03006e-05
-1.47592e-05
5.83841e-05
-1.64519e-05
6.75646e-05
-1.88512e-05
7.80199e-05
-2.18576e-05
8.96001e-05
-2.47148e-05
0.000101279
-2.50685e-05
0.000110711
-1.94402e-05
0.000114771
-8.62403e-06
9.57853e-05
-7.94796e-07
4.42584e-05
-1.42103e-10
9.58607e-06
-8.87079e-07
1.312e-06
-1.85485e-07
0
1.89283e-07
2.11304e-08
1.80404e-07
8.31103e-08
4.12984e-06
-9.13426e-06
8.8556e-06
-1.36526e-05
1.37104e-05
-1.54774e-05
1.87941e-05
-1.65464e-05
2.41286e-05
-1.72955e-05
2.97342e-05
-1.79709e-05
3.56676e-05
-1.87934e-05
4.20298e-05
-1.99742e-05
4.89707e-05
-2.17001e-05
5.66733e-05
-2.41545e-05
6.52906e-05
-2.74685e-05
7.48596e-05
-3.14266e-05
8.51511e-05
-3.50062e-05
9.54345e-05
-3.5352e-05
0.00010438
-2.83861e-05
9.95884e-05
-1.5111e-05
5.12451e-05
-3.43435e-06
5.32803e-06
-1.62097e-08
8.05976e-07
-4.64239e-08
8.62251e-07
0
4.801e-07
1.62984e-08
3.37276e-08
1.80532e-07
5.495e-08
4.69206e-06
-1.38263e-05
9.55272e-06
-1.85133e-05
1.42623e-05
-2.01869e-05
1.90745e-05
-2.13586e-05
2.40988e-05
-2.23198e-05
2.93968e-05
-2.3269e-05
3.50368e-05
-2.44334e-05
4.11095e-05
-2.60469e-05
4.77334e-05
-2.8324e-05
5.50313e-05
-3.14523e-05
6.30723e-05
-3.55095e-05
7.18074e-05
-4.01617e-05
8.09795e-05
-4.41784e-05
9.009e-05
-4.44624e-05
9.80032e-05
-3.62994e-05
6.87404e-05
-1.9944e-05
1.21128e-05
-3.23583e-06
5.8422e-08
1.58272e-09
4.73451e-08
1.86475e-10
1.44837e-07
0
1.03963e-07
0
5.03536e-08
0
2.93038e-08
4.96086e-06
-1.87872e-05
9.95391e-06
-2.35063e-05
1.46221e-05
-2.48551e-05
1.92771e-05
-2.60136e-05
2.40872e-05
-2.71299e-05
2.91486e-05
-2.83305e-05
3.45419e-05
-2.98267e-05
4.0351e-05
-3.1856e-05
4.66662e-05
-3.46392e-05
5.35602e-05
-3.83464e-05
6.1038e-05
-4.29873e-05
6.89876e-05
-4.81113e-05
7.71267e-05
-5.23174e-05
8.51366e-05
-5.24723e-05
8.37188e-05
-4.30522e-05
3.11809e-05
-2.08566e-05
8.25744e-08
-1.52064e-06
0
7.40163e-09
1.50769e-08
7.03566e-09
2.79327e-08
2.11125e-10
1.70681e-08
0
5.81272e-09
0
0
5.06618e-06
-2.38533e-05
1.01688e-05
-2.8609e-05
1.48605e-05
-2.95469e-05
1.94466e-05
-3.05997e-05
2.41251e-05
-3.18083e-05
2.90173e-05
-3.32226e-05
3.42141e-05
-3.50235e-05
3.97947e-05
-3.74365e-05
4.58265e-05
-4.06711e-05
5.23427e-05
-4.48625e-05
5.92986e-05
-4.99432e-05
6.6532e-05
-5.53447e-05
7.37216e-05
-5.95071e-05
8.0642e-05
-5.93927e-05
6.60253e-05
-4.94817e-05
7.91493e-06
-1.85578e-05
0
-7.26243e-07
0
1.73425e-08
1.71186e-09
1.51931e-08
6.3954e-09
2.96015e-09
4.28931e-09
0
1.31151e-09
0
0
5.10746e-06
-2.89608e-05
1.0289e-05
-3.37905e-05
1.50366e-05
-3.42945e-05
1.96151e-05
-3.51782e-05
2.42275e-05
-3.64207e-05
2.90089e-05
-3.80041e-05
3.40576e-05
-4.00722e-05
3.94487e-05
-4.28276e-05
4.52324e-05
-4.64548e-05
5.14122e-05
-5.10424e-05
5.79091e-05
-5.64401e-05
6.45231e-05
-6.19586e-05
7.08849e-05
-6.58689e-05
7.67887e-05
-6.52965e-05
5.15433e-05
-5.30073e-05
3.3241e-08
-1.41414e-05
0
-5.0408e-07
0
2.31399e-08
0
2.07817e-08
9.27917e-10
6.10754e-09
1.51464e-09
3.68634e-10
6.47898e-10
0
0
5.12595e-06
-3.40867e-05
1.03571e-05
-3.90216e-05
1.51671e-05
-3.91045e-05
1.97714e-05
-3.97825e-05
2.43612e-05
-4.10104e-05
2.90745e-05
-4.27174e-05
3.40125e-05
-4.50102e-05
3.92466e-05
-4.80618e-05
4.48144e-05
-5.20226e-05
5.07004e-05
-5.69283e-05
5.68069e-05
-6.25466e-05
6.29084e-05
-6.80602e-05
6.85996e-05
-7.15601e-05
7.36219e-05
-7.03188e-05
3.8186e-05
-5.458e-05
0
-9.11377e-06
0
-3.72327e-07
0
2.50601e-08
0
2.04304e-08
0
6.95426e-09
4.59086e-10
9.20305e-10
3.659e-10
0
0
3.14576e-24
-3.36815e-24
5.02169e-24
-1.30154e-23
1.60788e-24
-5.6921e-24
3.61563e-26
-3.15851e-25
5.27959e-28
-3.49552e-27
2.07628e-29
-2.67578e-29
1.59646e-30
2.46693e-31
8.73063e-32
4.29807e-32
2.92777e-33
2.75161e-33
9.10398e-35
1.26393e-34
2.50681e-36
4.81175e-36
5.77524e-38
1.5459e-37
1.07406e-39
4.18089e-39
1.52718e-41
9.31792e-41
1.51407e-43
1.63551e-42
8.90706e-46
2.06795e-44
2.19699e-48
1.58764e-46
3.48672e-49
4.49354e-49
4.3792e-50
3.89774e-23
-1.9888e-22
5.50454e-22
-1.98133e-21
1.77733e-22
-7.35565e-22
3.13409e-24
-3.28251e-23
4.07887e-26
-3.8481e-25
1.41182e-27
-2.77407e-27
8.64101e-29
6.38284e-29
4.02431e-30
8.92399e-30
1.24432e-31
5.03859e-31
3.6196e-33
2.11157e-32
9.29399e-35
7.41631e-34
1.98754e-36
2.20122e-35
3.40881e-38
5.47284e-37
4.42091e-40
1.10895e-38
3.94081e-42
1.73477e-40
2.06183e-44
1.89989e-42
4.8023e-47
1.22693e-44
3.89844e-49
3.39154e-47
1.28756e-49
4.02962e-21
-2.32877e-20
3.23257e-20
-1.39228e-19
5.80215e-21
-3.87588e-20
8.87998e-23
-1.3943e-21
1.51063e-24
-1.78628e-23
4.84125e-26
-1.27599e-25
2.30075e-27
3.63151e-27
8.39865e-29
3.51691e-28
2.45737e-30
1.70528e-29
6.55828e-32
6.40765e-31
1.5231e-33
2.02391e-32
2.9499e-35
5.41264e-34
4.56671e-37
1.20955e-35
5.2981e-39
2.18392e-37
4.16068e-41
2.99264e-39
1.9308e-43
2.8094e-41
4.57501e-46
1.62053e-43
1.41188e-48
4.85138e-46
5.16814e-48
1.68514e-19
-8.73458e-19
1.14902e-18
-5.68421e-18
1.37117e-19
-1.34154e-18
1.93535e-21
-4.0877e-20
3.99142e-23
-5.00872e-22
1.24109e-24
-2.97012e-24
4.42252e-26
1.33028e-25
1.35523e-27
9.29204e-27
3.65585e-29
3.86814e-28
8.85786e-31
1.2926e-29
1.85766e-32
3.65929e-31
3.24374e-34
8.79042e-33
4.48719e-36
1.75634e-34
4.59247e-38
2.80035e-36
3.26019e-40
3.35622e-38
1.54818e-42
2.93781e-40
4.33796e-45
1.77147e-42
2.59481e-47
6.20207e-45
1.35324e-46
4.8029e-18
-2.43447e-17
3.19758e-17
-2.51091e-16
2.59944e-18
-5.01568e-17
3.25759e-20
-1.00394e-18
7.16179e-22
-1.02757e-20
2.13635e-23
-3.38718e-23
6.54347e-25
3.17112e-24
1.79553e-26
1.76517e-25
4.445e-28
6.51902e-27
9.82172e-30
1.968e-28
1.87124e-31
5.05071e-30
2.95516e-33
1.0969e-31
3.72362e-35
1.9783e-33
3.58927e-37
2.89379e-35
2.57302e-39
3.29126e-37
1.36743e-41
3.00474e-39
4.20758e-44
1.91219e-41
3.57544e-46
7.40741e-44
2.38528e-45
2.52945e-16
-5.07898e-15
8.47865e-16
-9.75142e-15
3.15878e-17
-9.35436e-16
3.84241e-19
-1.38771e-17
9.34378e-21
-1.30386e-19
2.72134e-22
5.62667e-23
7.80331e-24
5.35914e-23
2.00173e-25
2.55502e-24
4.62773e-27
8.66775e-26
9.49543e-29
2.42523e-27
1.6758e-30
5.77226e-29
2.47327e-32
1.16175e-30
3.00756e-34
1.98679e-32
2.91719e-36
2.78462e-34
2.28495e-38
3.32139e-36
1.24056e-40
3.06726e-38
4.0914e-43
2.04792e-40
4.11811e-45
8.31742e-43
3.36467e-44
1.13745e-14
-6.58694e-14
5.41471e-15
-4.83599e-14
1.42899e-16
-2.93847e-15
2.63082e-18
-5.59353e-17
7.83935e-20
-5.15721e-19
2.4194e-21
4.64948e-21
6.80985e-23
5.68532e-22
1.72905e-24
2.52832e-23
3.93037e-26
8.38328e-25
7.85838e-28
2.3003e-26
1.35846e-29
5.34204e-28
2.01111e-31
1.07229e-29
2.42866e-33
1.8149e-31
2.39579e-35
2.55699e-33
1.90358e-37
3.04111e-35
1.06398e-39
2.85044e-37
3.5757e-42
1.93574e-39
4.1708e-44
8.12454e-42
4.0455e-43
5.88158e-14
-1.06203e-13
1.05613e-14
-1.38098e-14
2.59279e-16
-8.87613e-16
8.37849e-18
-5.67935e-17
3.42408e-19
-7.66687e-19
1.17658e-20
3.72988e-20
3.53657e-22
3.14344e-21
9.46063e-24
1.43771e-22
2.23604e-25
5.01251e-24
4.62726e-27
1.4446e-25
8.22211e-29
3.50281e-27
1.25162e-30
7.26915e-29
1.56236e-32
1.28183e-30
1.52691e-34
1.84001e-32
1.17412e-36
2.14298e-34
6.60788e-39
1.99132e-36
2.2622e-41
1.35498e-38
3.7157e-43
5.92153e-41
4.1024e-42
1.07008e-05
-4.47875e-05
2.19492e-05
-5.02701e-05
3.23308e-05
-4.94862e-05
4.22113e-05
-4.9663e-05
5.19367e-05
-5.07358e-05
6.17797e-05
-5.25603e-05
7.1949e-05
-5.51795e-05
8.25831e-05
-5.86959e-05
9.37335e-05
-6.3173e-05
0.000105332
-6.85265e-05
0.000117137
-7.43518e-05
0.000128699
-7.96226e-05
0.00013944
-8.23005e-05
0.000146635
-7.75144e-05
4.0257e-05
-4.50529e-05
0
-2.89382e-06
0
-1.64079e-07
0
1.62695e-08
0
1.02928e-08
0
3.41939e-09
5.75317e-11
5.42122e-10
3.68773e-10
0
0
2.14343e-10
1.03659e-05
-5.51534e-05
2.11475e-05
-6.10516e-05
3.12567e-05
-5.95955e-05
4.09133e-05
-5.93196e-05
5.03454e-05
-6.0168e-05
5.97587e-05
-6.19736e-05
6.93204e-05
-6.47413e-05
7.91382e-05
-6.85136e-05
8.92374e-05
-7.32722e-05
9.95355e-05
-7.88245e-05
0.000109813
-8.46294e-05
0.000119701
-8.95104e-05
0.000128718
-9.13179e-05
0.000104325
-8.38115e-05
2.21386e-06
-2.72017e-05
0
-1.21843e-06
0
-5.81648e-08
0
8.78492e-09
0
4.9665e-09
0
1.7497e-09
0
3.79267e-10
8.45842e-11
3.60154e-11
0
1.34407e-10
9.81846e-06
-6.49719e-05
1.98479e-05
-7.10811e-05
2.93587e-05
-6.91062e-05
3.85028e-05
-6.84637e-05
4.74156e-05
-6.90808e-05
5.62333e-05
-7.07913e-05
6.50729e-05
-7.35808e-05
7.4006e-05
-7.74467e-05
8.30364e-05
-8.23027e-05
9.2079e-05
-8.7867e-05
0.00010094
-9.349e-05
0.000109311
-9.7882e-05
0.000116854
-9.88611e-05
6.35972e-05
-8.01861e-05
2.99705e-07
-1.22365e-05
0
-5.21444e-07
0
-1.1222e-08
0
4.6377e-09
0
2.20961e-09
0
8.91555e-10
0
2.02663e-10
2.42299e-12
2.5389e-11
0
4.03837e-11
9.15683e-06
-7.41287e-05
1.83039e-05
-8.02282e-05
2.70487e-05
-7.7851e-05
3.55067e-05
-7.69217e-05
4.37526e-05
-7.73267e-05
5.18689e-05
-7.89076e-05
5.99277e-05
-8.16396e-05
6.79673e-05
-8.54864e-05
7.59732e-05
-9.03085e-05
8.38598e-05
-9.57537e-05
9.14551e-05
-0.000101085
9.85048e-05
-0.000104932
0.000104622
-0.000104978
2.99124e-05
-6.84718e-05
3.48577e-08
-4.08944e-06
0
-2.04575e-07
0
6.36764e-10
0
2.18603e-09
0
6.73882e-10
0
2.27033e-10
0
6.09528e-11
0
6.9496e-12
6.24117e-13
1.45072e-12
8.43997e-06
-8.25687e-05
1.66709e-05
-8.8459e-05
2.45881e-05
-8.57682e-05
3.22797e-05
-8.46133e-05
3.97831e-05
-8.48301e-05
4.71443e-05
-8.62688e-05
5.44019e-05
-8.88972e-05
6.15681e-05
-9.26526e-05
6.8614e-05
-9.73544e-05
7.54564e-05
-0.000102596
8.19459e-05
-0.000107575
8.78741e-05
-0.00011086
9.03299e-05
-0.000107434
7.3264e-06
-5.03443e-05
0
-1.67238e-06
0
-8.18539e-08
0
1.61119e-09
0
1.17986e-09
0
2.50041e-10
0
3.0996e-11
0
7.04664e-12
0
1.15758e-12
1.69788e-13
3.62396e-14
7.69652e-06
-9.02652e-05
1.50233e-05
-9.57859e-05
2.21096e-05
-9.28545e-05
2.90149e-05
-9.15186e-05
3.57524e-05
-9.15676e-05
4.2345e-05
-9.28613e-05
4.88083e-05
-9.53605e-05
5.51361e-05
-9.89805e-05
6.12895e-05
-0.000103508
6.71886e-05
-0.000108495
7.27082e-05
-0.000113094
7.76856e-05
-0.000115837
6.05736e-05
-0.000109778
3.18605e-07
-3.3706e-05
0
-9.21599e-07
0
-3.14579e-08
0
1.45074e-09
0
6.20601e-10
0
1.23141e-10
0
1.25863e-11
0
6.98675e-13
0
2.06415e-13
1.31818e-13
4.08533e-14
6.94359e-06
-9.72088e-05
1.33983e-05
-0.000102241
1.96769e-05
-9.9133e-05
2.5808e-05
-9.76498e-05
3.17879e-05
-9.75475e-05
3.76243e-05
-9.86977e-05
4.33178e-05
-0.000101054
4.885e-05
-0.000104513
5.4176e-05
-0.000108834
5.92199e-05
-0.000113539
6.38764e-05
-0.000117751
6.80219e-05
-0.000119983
4.20351e-05
-0.000106008
2.39486e-07
-2.07671e-05
0
-4.98002e-07
0
-1.0088e-08
0
9.92797e-10
0
2.90496e-10
0
5.05777e-11
0
6.09505e-12
0
5.48782e-13
3.84866e-14
1.43001e-13
7.95091e-14
2.94649e-14
6.19347e-06
-0.000103402
1.18169e-05
-0.000107864
1.73216e-05
-0.000104638
2.27055e-05
-0.000103034
2.79519e-05
-0.000102794
3.30583e-05
-0.000103804
3.80155e-05
-0.000106011
4.27978e-05
-0.000109295
4.7358e-05
-0.000113394
5.16261e-05
-0.000117807
5.55167e-05
-0.000121641
5.89448e-05
-0.000123411
2.76291e-05
-9.95999e-05
1.75461e-07
-1.15913e-05
0
-2.4299e-07
0
-2.26348e-09
0
5.05719e-10
0
1.23078e-10
0
1.74286e-11
0
2.08251e-12
0
2.83066e-13
2.85108e-14
8.09982e-14
3.9108e-14
1.47917e-14
5.45685e-06
-0.000108859
1.02931e-05
-0.0001127
1.50612e-05
-0.000109406
1.97303e-05
-0.000107703
2.42743e-05
-0.000107338
2.86828e-05
-0.000108213
3.29404e-05
-0.000110269
3.70174e-05
-0.000113372
4.08678e-05
-0.000117244
4.44308e-05
-0.00012137
4.7641e-05
-0.000124852
5.04465e-05
-0.000126216
1.64265e-05
-9.08733e-05
1.03672e-07
-5.64549e-06
0
-1.0224e-07
0
-2.29328e-10
0
2.01975e-10
0
4.67693e-11
0
6.05316e-12
0
6.6752e-13
9.75878e-15
1.19627e-13
1.23642e-14
3.95288e-14
1.68054e-14
6.24385e-15
4.74101e-06
-0.0001136
8.83504e-06
-0.000116794
1.29052e-05
-0.000113476
1.6895e-05
-0.000111693
2.07704e-05
-0.000111213
2.45155e-05
-0.000111958
2.81101e-05
-0.000113863
3.15234e-05
-0.000116785
3.47137e-05
-0.000120435
3.76329e-05
-0.000124289
4.02387e-05
-0.000127458
4.25054e-05
-0.000128483
8.37667e-06
-7.99814e-05
4.70892e-08
-2.3259e-06
0
-3.66098e-08
0
7.38856e-11
0
8.99899e-11
0
1.77551e-11
0
2.27811e-12
0
2.67666e-13
7.57971e-15
5.25093e-14
4.68956e-15
1.93568e-14
5.59173e-15
1.50487e-15
4.05182e-06
-0.000117652
7.45128e-06
-0.000120194
1.08632e-05
-0.000116888
1.42108e-05
-0.00011504
1.74536e-05
-0.000114456
2.0571e-05
-0.000115075
2.35394e-05
-0.000116832
2.6328e-05
-0.000119574
2.89012e-05
-0.000123008
3.12282e-05
-0.000126616
3.32979e-05
-0.000129527
3.51138e-05
-0.000130299
3.15041e-06
-6.67847e-05
1.49913e-08
-8.10956e-07
0
-1.20003e-08
0
8.71126e-11
0
5.06475e-11
0
7.80591e-12
0
9.05118e-13
1.11339e-15
1.18998e-13
2.84621e-15
2.39068e-14
1.35958e-15
7.15093e-15
1.3462e-15
2.00413e-16
3.40312e-06
-0.000121055
6.15273e-06
-0.000122943
8.94481e-06
-0.00011968
1.16906e-05
-0.000117786
1.43427e-05
-0.000117108
1.68742e-05
-0.000117607
1.92583e-05
-0.000119216
2.14637e-05
-0.00012178
2.34604e-05
-0.000125005
2.52365e-05
-0.000128392
2.68216e-05
-0.000131113
2.82601e-05
-0.00013174
3.84416e-07
-5.15111e-05
2.13524e-09
-4.46514e-07
0
-4.25311e-09
3.36669e-12
6.77297e-11
0
2.85332e-11
0
3.55694e-12
0
3.56648e-13
1.36729e-15
4.94861e-14
7.32765e-16
9.63807e-15
2.41686e-16
1.83676e-15
2.54189e-16
1.5171e-17
2.73467e-06
-0.00012379
4.8809e-06
-0.00012509
7.12213e-06
-0.000121921
9.33608e-06
-0.00012
1.14633e-05
-0.000119236
1.34716e-05
-0.000119615
1.53319e-05
-0.000121077
1.7012e-05
-0.00012346
1.84844e-05
-0.000126478
1.97504e-05
-0.000129659
2.08747e-05
-0.000132244
2.18248e-05
-0.000132699
1.51112e-07
-3.68054e-05
4.36501e-10
-2.44764e-07
0
-1.4743e-09
2.55352e-12
4.41849e-11
0
1.38983e-11
0
1.40888e-12
0
1.27561e-13
2.53835e-16
1.77204e-14
1.07778e-16
2.85558e-15
2.66083e-17
3.65651e-16
4.09921e-17
4.77233e-19
1.77491e-06
-0.000125567
3.47763e-06
-0.000126794
5.33382e-06
-0.000123778
7.14741e-06
-0.000121815
8.8598e-06
-0.000120949
1.04454e-05
-0.000121202
1.18787e-05
-0.000122512
1.31285e-05
-0.000124713
1.41681e-05
-0.000127521
1.50055e-05
-0.000130499
1.56874e-05
-0.000132969
1.51849e-05
-0.000132231
8.54636e-08
-2.68704e-05
2.21426e-10
-1.36478e-07
0
-4.91213e-10
6.48524e-13
2.07028e-11
-3.4384e-13
5.29239e-12
-3.53188e-14
3.87863e-13
-1.4858e-15
3.65489e-14
-8.61462e-17
5.04767e-15
-1.20267e-18
6.07649e-16
1.20784e-18
6.06716e-17
5.77868e-18
0
5.89972e-07
-0.000126163
2.10057e-06
-0.000128315
3.68818e-06
-0.000125374
5.21904e-06
-0.000123353
6.6416e-06
-0.00012238
7.94013e-06
-0.00012251
9.08755e-06
-0.000123674
1.00519e-05
-0.000125695
1.08078e-05
-0.000128298
1.13766e-05
-0.000131086
1.16664e-05
-0.000133485
9.90016e-06
-0.000130484
4.12052e-08
-2.14393e-05
2.72851e-10
-8.55673e-08
0
-7.61946e-11
-2.23692e-12
6.96e-12
-3.27881e-13
1.06545e-12
-1.39074e-14
3.83787e-14
-6.82788e-16
8.16566e-15
-5.88241e-17
1.06005e-15
-4.51117e-18
9.88962e-17
-2.94959e-19
8.69825e-18
7.10278e-19
-7.16225e-21
1.0978e-06
-7.71453e-05
1.44175e-06
-8.70732e-05
2.38541e-06
-9.1387e-05
3.57464e-06
-9.43967e-05
4.77276e-06
-9.5668e-05
5.89665e-06
-9.52323e-05
6.83959e-06
-9.34539e-05
7.54843e-06
-9.05674e-05
7.99066e-06
-8.67961e-05
8.22329e-06
-8.24173e-05
8.08566e-06
-7.89491e-05
7.1641e-06
-8.05814e-05
4.4148e-08
-1.40293e-05
5.78125e-11
-3.81297e-08
-9.67572e-12
-1.00609e-14
-8.41383e-13
4.3669e-13
-4.43906e-14
1.65482e-14
-2.08735e-15
3.17431e-15
-2.08849e-16
1.73855e-15
-1.72134e-17
1.68065e-16
-1.32106e-18
1.3469e-17
-9.86959e-20
1.08285e-18
7.62781e-20
-6.38251e-21
1.93795e-06
2.07696e-13
5.76657e-07
1.21771e-13
6.1825e-07
6.00275e-13
9.7879e-07
3.43394e-12
1.43352e-06
4.58756e-12
1.85002e-06
2.17978e-12
2.07963e-06
6.62072e-13
2.13954e-06
1.39206e-13
2.04848e-06
2.5023e-14
1.89214e-06
1.0706e-15
1.65696e-06
-8.61095e-15
1.82187e-06
-6.66651e-14
2.73669e-08
-3.74085e-06
-1.24901e-12
-8.96531e-09
-3.50684e-13
1.08074e-14
-2.46021e-14
3.09857e-14
-2.28325e-15
1.70938e-15
-4.87597e-16
6.16391e-16
-4.86161e-17
2.84637e-16
-3.57837e-18
2.15993e-17
-2.57647e-19
1.60704e-18
-1.79475e-20
1.19122e-19
7.30681e-21
-1.16934e-21
-4.0942e-14
5.90027e-13
-5.38184e-15
4.16481e-13
-8.26858e-15
6.90878e-13
-6.92392e-14
1.37342e-12
-1.66329e-13
1.83322e-12
-1.17755e-13
1.47305e-12
-4.61775e-14
8.23687e-13
-1.13251e-14
3.88075e-13
-2.1898e-15
1.24122e-13
-9.20673e-17
3.87829e-15
5.62579e-17
-8.75928e-15
9.84359e-18
-5.14669e-14
-3.5396e-09
-5.42075e-13
-6.1544e-14
-9.52037e-14
-4.86406e-14
1.47918e-15
-2.62968e-15
8.32305e-17
-3.67904e-16
3.94384e-16
-1.12297e-16
1.50428e-16
-8.69186e-18
3.35687e-17
-5.89649e-19
2.33229e-18
-3.95027e-20
1.67064e-19
-2.4787e-21
1.15586e-20
6.20634e-22
-1.40297e-22
1.62893e-14
5.09314e-28
-1.34601e-14
4.56103e-27
-9.18649e-15
4.74432e-26
-4.10493e-15
6.09528e-25
5.14986e-15
-2.17446e-23
7.51378e-15
-7.26293e-21
6.6761e-15
-4.55579e-19
3.81098e-15
-2.24112e-17
2.04668e-16
-6.63915e-16
-7.8791e-16
-3.14273e-15
-5.05292e-15
-4.44611e-14
-1.13319e-14
-1.79198e-13
-8.87564e-15
-5.33364e-13
-9.67857e-15
-8.69078e-14
-2.80689e-15
1.65619e-15
-4.2042e-16
1.52245e-16
-1.0451e-16
6.70058e-17
-1.81736e-17
2.27431e-17
-1.21728e-18
2.93156e-18
-7.86512e-20
2.06821e-19
-4.94738e-21
1.46612e-20
-2.76984e-22
9.66329e-22
4.56359e-23
-1.27406e-23
7.57166e-28
1.0515e-27
1.93392e-27
2.15937e-26
2.38831e-26
3.85951e-25
-1.28589e-25
6.81024e-24
-6.38843e-23
4.20111e-23
-5.42002e-21
-1.91778e-21
-3.42075e-19
-1.1902e-19
-1.7974e-17
-4.77936e-18
-5.30706e-16
-1.51183e-16
-1.78934e-15
-1.96707e-15
-1.26525e-13
-6.63116e-14
-3.8609e-13
-7.3458e-13
-3.69168e-13
-9.96983e-13
-2.08217e-15
-2.65003e-13
-2.09825e-16
2.64199e-17
-3.21501e-17
6.06064e-18
-1.24105e-17
1.96516e-18
-1.98853e-18
1.14241e-18
-1.3159e-19
1.78653e-19
-8.40677e-21
1.43353e-20
-5.07205e-22
1.05154e-21
-2.53263e-23
6.79679e-23
2.84133e-24
-9.04558e-25
2.10307e-27
1.2772e-27
3.05655e-26
6.03152e-26
6.65505e-25
1.85195e-24
5.71781e-24
3.9328e-23
-3.5143e-22
5.87629e-22
-8.5978e-21
6.32859e-21
-1.77488e-19
4.9808e-20
-5.23973e-18
2.84212e-19
-1.57531e-16
1.12608e-18
-2.12678e-15
2.75499e-18
-2.4347e-13
2.76948e-18
-1.31626e-12
-3.21399e-17
-1.13491e-12
-1.8088e-17
-5.39583e-17
-2.49352e-16
-1.21652e-17
1.05582e-18
-2.32802e-18
5.45602e-19
-6.3547e-19
1.19265e-19
-1.25935e-19
3.44158e-20
-1.05229e-20
7.42758e-21
-7.08953e-22
7.42926e-22
-4.22645e-23
5.98131e-23
-1.88456e-24
3.94165e-24
1.47048e-25
-5.36693e-26
3.83317e-27
2.56134e-29
1.92129e-25
9.38378e-28
5.795e-24
1.79901e-26
1.16872e-22
2.09903e-25
1.63206e-21
1.46237e-24
1.61481e-20
4.84482e-24
1.13702e-19
-1.94047e-24
5.53739e-19
-5.17975e-23
1.68907e-18
-1.1364e-21
2.19976e-18
-1.84683e-20
-2.16315e-18
-1.65218e-19
-3.33447e-17
-9.58286e-19
-2.85446e-17
-3.4052e-18
-2.82456e-16
-2.65507e-18
-1.53754e-18
1.54972e-17
-2.42887e-19
1.18563e-19
-4.92629e-20
9.29739e-21
-7.82593e-21
2.14083e-21
-6.30644e-22
3.45432e-22
-4.5909e-23
3.13766e-23
-2.82763e-24
2.67398e-24
-1.13245e-25
1.83613e-25
6.33369e-27
-3.00686e-27
6.51793e-29
-3.55256e-36
2.26964e-27
-5.88349e-34
3.86133e-26
-5.14243e-32
3.59931e-25
-3.14643e-30
1.52542e-24
-1.47973e-28
-7.61369e-25
-5.58682e-27
-2.38148e-24
-3.20365e-25
-5.29916e-23
-6.65592e-24
-1.3584e-21
-1.03073e-22
-5.19318e-20
-2.81961e-21
-3.45684e-19
-1.76281e-20
-7.56058e-19
-4.51153e-20
-3.50945e-18
-5.15608e-20
-1.3501e-17
-2.37886e-20
-1.41956e-19
7.94602e-21
-1.64865e-20
1.11067e-21
-2.88004e-21
3.38009e-22
-4.36121e-22
7.59176e-23
-3.42647e-23
1.42337e-23
-2.41503e-24
1.31509e-24
-1.48198e-25
1.04855e-25
-5.64046e-27
6.85003e-27
2.4658e-28
-1.56906e-28
-3.55973e-36
7.16625e-39
-5.92724e-34
8.13184e-37
-5.20507e-32
3.39924e-35
-3.19876e-30
3.40491e-34
-1.51112e-28
-5.48113e-32
-5.73329e-27
-4.34925e-30
-3.26531e-25
-1.73292e-28
-6.94167e-24
-3.55432e-27
-2.124e-22
-5.17606e-26
-3.82817e-21
-1.06954e-24
-2.34227e-20
-2.39051e-23
-6.40388e-20
-2.17163e-22
-6.65887e-20
-5.3337e-22
-1.46872e-20
-4.10514e-22
-3.37508e-21
-4.21762e-23
-6.93919e-22
1.35234e-23
-1.19444e-22
7.61947e-24
-1.96566e-23
1.94938e-24
-1.65865e-24
4.50306e-25
-1.15331e-25
4.82643e-26
-6.44067e-27
3.94901e-27
-2.64328e-28
2.34483e-28
9.67207e-30
-7.38885e-30
5.93996e-38
3.88977e-40
4.96602e-36
2.6785e-38
7.48165e-35
1.31849e-36
-1.07066e-32
3.73612e-35
-4.74e-31
6.88529e-34
-1.12374e-29
6.04445e-33
-9.81845e-29
-6.10422e-32
-2.61898e-27
-3.12904e-30
-5.48014e-26
-7.04536e-29
-1.72653e-24
-1.45389e-27
-5.74893e-23
-2.99779e-26
-4.74443e-22
-5.15447e-25
-9.8271e-22
-3.75587e-24
-8.77241e-22
-6.35284e-24
-8.91116e-23
-2.38493e-24
-1.99267e-23
1.38374e-25
-3.72221e-24
1.29644e-25
-7.06225e-25
3.8765e-26
-6.67844e-26
1.12038e-26
-4.90361e-27
1.4161e-27
-2.68185e-28
1.30639e-28
-1.15372e-29
8.22656e-30
3.49013e-31
-3.11958e-31
1.96856e-39
-2.82262e-45
1.96007e-37
-5.67175e-43
8.42816e-36
-5.63978e-41
2.10776e-34
-3.80714e-39
2.37639e-33
-1.95551e-37
-3.56853e-32
-8.09723e-36
-7.34953e-31
-5.06125e-34
-3.9202e-30
-9.18463e-33
-7.48281e-29
-2.03066e-31
-1.67739e-27
-4.59392e-30
-5.81162e-26
-1.03101e-28
-1.74713e-24
-2.03226e-27
-1.17639e-23
-2.00115e-26
-1.46526e-23
-4.67672e-26
-1.58165e-24
-2.76152e-26
-5.07372e-25
2.08188e-28
-9.01024e-26
1.88486e-27
-1.99501e-26
6.02667e-28
-2.1973e-27
2.1558e-28
-1.77541e-28
3.3655e-29
-1.03356e-29
3.59076e-30
-4.53005e-31
2.59165e-31
1.11097e-32
-1.17647e-32
-2.82497e-45
2.35407e-48
-5.50579e-43
3.06581e-46
-5.69646e-41
7.4841e-45
-3.86309e-39
-7.98734e-43
-1.99345e-37
-6.08217e-41
-8.29314e-36
-2.88601e-39
-5.08396e-34
-1.00313e-37
-9.55972e-33
-1.97796e-36
-2.51974e-31
-5.33378e-35
-5.20074e-30
-1.22516e-33
-1.8335e-28
-2.97418e-32
-7.02863e-27
-5.38496e-31
-6.62045e-26
-8.68924e-30
-1.05212e-25
-8.82385e-29
-2.77841e-26
-2.23509e-28
-9.07513e-27
-8.2574e-29
-1.80541e-27
1.25436e-29
-4.41632e-28
8.89009e-30
-5.88275e-29
3.15253e-30
-5.39701e-30
6.48234e-31
-3.50635e-31
8.24661e-32
-1.56889e-32
6.94479e-33
3.10349e-34
-3.95467e-34
2.18827e-47
4.78697e-50
1.09395e-45
3.20736e-48
-1.03214e-43
9.40674e-47
-2.90722e-42
4.1569e-45
-8.44538e-41
8.10879e-44
-2.91351e-39
-4.27769e-43
-9.9443e-38
-1.10596e-40
-2.41527e-36
-2.56544e-39
-6.01278e-35
-7.69236e-38
-1.38031e-33
-1.87967e-36
-3.77516e-32
-5.03765e-35
-1.00351e-30
-1.07205e-33
-3.52258e-29
-2.09331e-32
-4.45252e-28
-3.24244e-31
-8.58146e-28
-1.33661e-30
-1.04137e-28
-1.01438e-30
-3.77782e-29
3.30372e-32
-7.76201e-30
1.21226e-31
-1.26936e-30
3.47081e-32
-1.37343e-31
9.98295e-33
-1.01751e-32
1.58439e-33
-4.75158e-34
1.57246e-34
7.60755e-36
-1.18327e-35
2.22149e-49
-3.23004e-56
1.33961e-47
-6.99432e-54
9.11321e-46
-7.94281e-52
2.43827e-44
-6.30002e-50
-1.40005e-43
-3.98653e-48
-2.46814e-41
-4.14514e-46
-8.97763e-41
-1.11819e-44
-2.65459e-39
-4.26175e-43
-7.97462e-38
-1.42062e-41
-1.9877e-36
-3.95757e-40
-6.08726e-35
-1.20506e-38
-1.73655e-33
-2.98328e-37
-8.01185e-32
-5.43967e-36
-1.72471e-30
-9.6422e-35
-4.89476e-30
-1.43734e-33
-1.74793e-30
-5.78335e-33
-5.60286e-31
-2.39318e-33
-1.04764e-31
6.71952e-34
-2.18195e-32
3.5524e-34
-2.90585e-33
1.20611e-34
-2.50422e-34
2.53827e-35
-1.25564e-35
3.04436e-36
1.64929e-37
-3.15186e-37
-3.51306e-57
3.99995e-59
-1.28217e-54
7.97915e-57
-4.05107e-52
5.60155e-55
-2.57759e-50
5.13693e-54
-3.95611e-48
-3.19814e-51
-4.19466e-46
-2.24031e-49
-1.16197e-44
-6.83604e-48
-4.39811e-43
-2.83953e-46
-1.70625e-41
-1.13051e-44
-4.0068e-40
-3.42487e-43
-1.50053e-38
-1.09823e-41
-3.95769e-37
-3.50871e-40
-9.87176e-36
-7.98113e-39
-4.21574e-34
-1.73834e-37
-1.04048e-32
-3.9193e-36
-3.29244e-32
-2.81951e-35
-5.67754e-33
-2.8306e-35
-1.62191e-33
2.1984e-36
-3.04718e-34
3.73276e-36
-5.12065e-35
1.15993e-36
-5.29458e-36
3.43537e-37
-2.93293e-37
5.14094e-38
3.21913e-39
-7.48219e-39
5.06151e-58
4.02692e-62
7.35714e-56
8.37895e-60
1.04398e-54
5.02026e-58
-4.88404e-52
1.02934e-56
-7.87333e-51
-3.04671e-55
-2.29479e-49
-2.29841e-53
-6.18211e-48
-6.94465e-52
-3.97328e-46
-4.13128e-50
-1.24815e-44
-1.71189e-48
-3.5252e-43
-5.76709e-47
-1.32096e-41
-2.08735e-45
-4.37375e-40
-7.87736e-44
-1.24822e-38
-2.09332e-42
-6.39638e-37
-4.42619e-41
-2.92098e-35
-9.33675e-40
-1.54625e-34
-1.98386e-38
-8.10357e-35
-1.22878e-37
-1.6504e-35
-5.15778e-38
-3.516e-36
1.59846e-38
-7.61404e-37
1.08301e-38
-9.63207e-38
3.9337e-39
-6.0859e-39
7.53222e-40
5.65131e-41
-1.5851e-40
5.02352e-61
-6.30933e-68
6.24806e-59
-2.43137e-65
1.98544e-57
-4.25293e-63
-4.37172e-56
-5.29197e-61
-6.48634e-55
-8.85004e-59
-1.45171e-53
-4.09595e-57
-9.73447e-52
-2.81163e-55
-4.23336e-50
-1.61649e-53
-1.75454e-48
-7.60488e-52
-5.69346e-47
-2.95059e-50
-2.37733e-45
-1.20485e-48
-9.85693e-44
-4.77913e-47
-2.846e-42
-1.78845e-45
-7.79329e-41
-4.97339e-44
-4.05515e-39
-1.3261e-42
-1.87361e-37
-4.18588e-41
-9.52658e-37
-5.06542e-40
-1.28354e-37
-6.30616e-40
-4.2835e-38
6.71814e-41
-9.6823e-39
1.05092e-40
-1.50279e-39
3.89143e-41
-1.11894e-40
9.56893e-42
8.88758e-43
-2.99416e-42
-6.31198e-68
2.6578e-71
-6.53587e-66
6.97855e-69
-4.13142e-63
3.80179e-67
-5.33304e-61
-2.5055e-65
-8.57741e-59
-4.82112e-63
-4.12875e-57
-3.09897e-61
-2.88364e-55
-2.46539e-59
-1.65354e-53
-1.60883e-57
-8.21146e-52
-8.57271e-56
-3.0302e-50
-3.92222e-54
-1.21149e-48
-1.83798e-52
-5.72502e-47
-8.10472e-51
-2.24827e-45
-3.82854e-49
-7.52094e-44
-1.28962e-47
-4.39531e-42
-3.52264e-46
-4.05042e-40
-9.81892e-45
-3.83672e-39
-2.84695e-43
-1.6386e-39
-2.0926e-42
-4.7223e-40
-4.33096e-43
-1.12428e-40
6.47881e-43
-2.02822e-41
3.78427e-43
-1.81907e-42
1.1176e-43
1.25334e-44
-5.06805e-44
3.63576e-70
6.36419e-74
4.12536e-68
9.03291e-72
-2.70964e-66
6.03134e-70
-3.07762e-64
5.07754e-68
-1.49196e-62
2.27065e-66
-3.27621e-61
3.12507e-65
-2.55796e-59
-3.18931e-63
-1.8062e-57
-2.67535e-61
-8.44957e-56
-1.65815e-59
-3.82291e-54
-9.12265e-58
-1.76144e-52
-4.96866e-56
-9.09282e-51
-2.51918e-54
-4.6947e-49
-1.21703e-52
-1.71219e-47
-6.1406e-51
-6.07313e-46
-2.31986e-49
-4.5865e-44
-8.18599e-48
-3.05669e-42
-3.56201e-46
-1.85543e-41
-7.23911e-45
-3.88118e-42
-1.02942e-44
-1.22164e-42
2.91114e-45
-2.65166e-43
3.73563e-45
-2.62344e-44
1.317e-45
1.68241e-46
-8.19197e-46
4.28354e-73
-8.24303e-81
5.98859e-71
-4.02903e-78
7.83819e-69
-9.31373e-76
4.82177e-67
-1.57886e-73
8.5512e-66
-2.26332e-71
-9.85892e-64
-2.6323e-69
-1.35598e-62
-4.26327e-67
-2.81494e-61
-2.54828e-65
-1.68897e-59
-1.82268e-63
-8.68077e-58
-1.18129e-61
-4.74696e-56
-7.56167e-60
-2.46398e-54
-4.51755e-58
-1.3918e-52
-2.55033e-56
-7.45286e-51
-1.46167e-54
-3.30335e-49
-7.69166e-53
-2.29671e-47
-3.11695e-51
-4.18109e-45
-1.31118e-49
-7.67246e-44
-5.45387e-48
-3.22569e-44
-3.6929e-47
-1.37964e-44
1.12149e-47
-3.19389e-45
3.04589e-47
-3.75811e-46
1.36071e-47
2.39398e-48
-1.20107e-47
-6.70625e-82
2.39402e-84
-3.82362e-78
1.26583e-81
-2.68344e-76
2.4152e-79
-1.58107e-73
2.09384e-77
-2.27911e-71
-2.04673e-76
-2.65478e-69
-2.64077e-73
-4.14312e-67
-2.58912e-71
-2.58422e-65
-1.85847e-69
-1.83352e-63
-1.51497e-67
-1.08542e-61
-1.25237e-65
-7.02962e-60
-9.48011e-64
-4.32953e-58
-6.74251e-62
-2.46689e-56
-4.55103e-60
-1.70295e-54
-2.93989e-58
-9.45235e-53
-1.94482e-56
-5.17565e-51
-1.12672e-54
-7.6241e-49
-5.49138e-53
-6.5776e-47
-3.18001e-51
-3.10999e-46
-9.7827e-50
-1.04989e-46
-9.38064e-50
-3.18423e-47
1.29562e-49
-5.06464e-48
1.29066e-49
3.12018e-50
-1.73832e-49
4.50187e-83
6.42578e-88
1.89355e-80
1.66205e-85
2.58104e-78
3.02851e-83
-2.95646e-77
2.00848e-81
-2.43834e-74
1.91842e-80
-2.8742e-73
-9.82117e-78
-2.50178e-71
-2.42992e-75
-1.7293e-69
-1.99502e-73
-2.17578e-67
-2.63733e-71
-8.66939e-66
-2.24799e-69
-7.3304e-64
-2.12504e-67
-5.76869e-62
-1.8803e-65
-4.10593e-60
-1.57461e-63
-2.7553e-58
-1.25761e-61
-2.19594e-56
-9.63263e-60
-1.42559e-54
-7.30829e-58
-1.26161e-52
-5.17426e-56
-4.11153e-50
-4.00229e-54
-1.45414e-48
-2.22962e-52
-6.39199e-49
-6.90877e-52
-3.01971e-49
6.98548e-52
-5.98295e-50
1.20985e-51
3.50579e-52
-2.56254e-51
4.5457e-87
-1.07093e-95
2.02661e-84
-1.23995e-92
2.13744e-82
-5.77827e-90
2.7876e-81
-1.86717e-87
-1.17309e-78
-4.80135e-85
-1.55807e-76
-1.93575e-82
-1.72478e-75
-1.92928e-80
-2.30717e-73
-3.23515e-78
-2.66038e-71
-5.11075e-76
-2.09613e-69
-5.6129e-74
-2.0021e-67
-6.79298e-72
-1.81083e-65
-7.70919e-70
-1.53769e-63
-8.29462e-68
-1.24095e-61
-8.5241e-66
-9.53897e-60
-8.41158e-64
-7.87785e-58
-7.98609e-62
-8.54497e-56
-7.55928e-60
-4.15508e-53
-6.71801e-58
-3.22271e-51
-6.64708e-56
-3.65918e-51
-1.69251e-54
-2.51241e-51
3.30387e-54
-6.01016e-52
8.6279e-54
3.84691e-54
-3.46213e-53
-6.4219e-97
2.58398e-99
-1.64272e-93
2.02798e-96
-1.11543e-90
7.60343e-94
-1.86827e-87
1.78289e-91
-4.82031e-85
2.85498e-89
-1.93547e-82
2.73825e-87
-1.948e-80
1.17932e-86
-3.25195e-78
-4.84206e-83
-5.05508e-76
-1.04097e-80
-4.76079e-74
-1.62949e-78
-5.92217e-72
-2.76118e-76
-6.99048e-70
-4.37715e-74
-7.71045e-68
-6.56695e-72
-8.07003e-66
-9.40287e-70
-8.0752e-64
-1.29209e-67
-7.71173e-62
-1.70742e-65
-8.17245e-60
-2.16122e-63
-1.79299e-57
-2.6324e-61
-9.23574e-55
-3.55648e-59
-2.24665e-53
-3.37103e-57
-1.61396e-53
2.49238e-57
-5.86182e-54
5.31044e-56
4.82361e-56
-3.85645e-55
5.50571e-98
2.11761e-104
3.93357e-95
5.24563e-102
1.28812e-92
1.29862e-99
2.60882e-90
3.0927e-97