/*--------------------------------*- C++ -*----------------------------------*\
  =========                 |
  \\      /  F ield         | OpenFOAM: The Open Source CFD Toolbox
   \\    /   O peration     | Website:  https://openfoam.org
    \\  /    A nd           | Version:  9
     \\/     M anipulation  |
\*---------------------------------------------------------------------------*/
FoamFile
{
    format      ascii;
    class       volScalarField;
    location    "0.1";
    object      epsilon;
}
// * * * * * * * * * * * * * * * * * * * * * * * * * * * * * * * * * * * * * //

dimensions      [0 2 -3 0 0 0 0];

internalField   nonuniform List<scalar> 
2268
(
0.256785
0.385369
0.467631
0.532427
0.637452
0.90832
1.60184
2.98505
4.69069
5.60546
5.70279
5.35924
4.68197
3.86803
3.03644
2.35177
1.87009
1.55432
1.33552
1.15492
0.949866
0.642541
0.271755
0.303026
0.330959
0.385273
0.467253
0.643279
1.00349
1.62031
2.40874
3.08931
2.71608
1.95634
1.63683
1.44234
1.21139
0.973434
0.781192
0.650738
0.576276
0.541359
0.527228
0.50535
0.427568
0.31017
0.386336
0.322407
0.360169
0.445771
0.633233
0.989604
1.55649
2.31857
2.94576
2.83816
1.72078
1.14769
0.962359
0.823667
0.674361
0.552132
0.468853
0.428931
0.427215
0.454263
0.485446
0.463537
0.385635
0.446416
0.313771
0.332991
0.405541
0.566468
0.861424
1.30852
1.86712
2.33074
2.47981
1.80762
1.0349
0.759887
0.65142
0.540019
0.450093
0.387595
0.361791
0.374505
0.423917
0.491072
0.514736
0.443369
0.490543
0.304094
0.305338
0.359354
0.483104
0.705125
1.03107
1.4198
1.74163
1.88294
1.70718
1.05316
0.646336
0.533906
0.442383
0.374641
0.32764
0.310835
0.330584
0.391884
0.484717
0.56069
0.517979
0.522649
0.294576
0.280116
0.316212
0.405722
0.564719
0.793437
1.0569
1.27551
1.38093
1.40369
1.0934
0.595413
0.451255
0.36636
0.312917
0.278004
0.267353
0.289314
0.354311
0.46496
0.603213
0.656459
0.545698
0.285942
0.258462
0.279288
0.341268
0.451735
0.608902
0.786204
0.93482
1.02478
1.10954
1.07526
0.592927
0.400713
0.31141
0.264495
0.237788
0.230863
0.251737
0.314742
0.438847
0.641998
0.899985
0.562227
0.278469
0.240421
0.248921
0.290023
0.36523
0.471728
0.591607
0.695994
0.778493
0.885839
0.990346
0.618485
0.379397
0.276397
0.229153
0.20667
0.201357
0.218965
0.275063
0.401316
0.646047
1.20588
0.250945
0.408611
0.498814
0.54658
0.571621
0.585156
0.595577
0.600038
0.600785
0.599314
0.596508
0.592772
0.588091
0.581551
0.570448
0.548165
0.500918
0.407621
0.27042
0.280102
0.294506
0.301822
0.300234
0.297497
0.295662
0.295664
0.295609
0.295302
0.294798
0.294185
0.293504
0.292816
0.29213
0.291386
0.290145
0.287114
0.279962
0.282491
0.368611
0.271508
0.248962
0.235445
0.227712
0.223756
0.222263
0.221564
0.221139
0.220816
0.220569
0.220431
0.220558
0.221296
0.223378
0.228165
0.238195
0.259341
0.334624
0.433938
0.261602
0.220051
0.200148
0.189977
0.185044
0.182987
0.182065
0.181606
0.181353
0.181248
0.181351
0.1819
0.183447
0.187148
0.195254
0.212271
0.249008
0.365312
0.493827
0.259291
0.201912
0.177185
0.16526
0.159613
0.157175
0.156089
0.155584
0.155354
0.155326
0.155586
0.156444
0.158591
0.163446
0.173781
0.195278
0.241945
0.385167
0.561021
0.26503
0.191032
0.16163
0.148147
0.141861
0.139079
0.137824
0.137249
0.137011
0.137028
0.137409
0.138518
0.141153
0.146903
0.158869
0.183489
0.236889
0.398415
0.653087
0.278704
0.185244
0.150905
0.135992
0.129135
0.126036
0.124609
0.123949
0.123685
0.123729
0.124208
0.125533
0.128577
0.135052
0.148275
0.175191
0.233313
0.407322
0.842942
0.296224
0.181595
0.143063
0.127083
0.11981
0.116458
0.114881
0.114139
0.113843
0.113905
0.114469
0.115982
0.119378
0.126454
0.140681
0.169339
0.230838
0.41346
0.581522
0.268232
0.216739
0.210168
0.227491
0.264666
0.318235
0.380448
0.443338
0.517376
0.637665
0.820673
0.661842
0.383264
0.252551
0.197801
0.176522
0.171684
0.184723
0.228545
0.33038
0.523455
0.824913
0.591968
0.259958
0.198777
0.182011
0.185095
0.201674
0.22842
0.262464
0.304815
0.369925
0.486884
0.681424
0.699483
0.436568
0.259378
0.181678
0.153714
0.145739
0.150314
0.170361
0.21356
0.286205
0.373281
0.595255
0.253654
0.18647
0.163616
0.158803
0.16472
0.17831
0.19895
0.231102
0.289579
0.400194
0.592715
0.723456
0.502285
0.285346
0.180916
0.142722
0.131188
0.131436
0.140862
0.160796
0.19115
0.221445
0.593136
0.248586
0.177742
0.151226
0.141956
0.142227
0.149214
0.163264
0.189811
0.242724
0.345374
0.528634
0.725631
0.565221
0.318313
0.188558
0.138893
0.123346
0.121056
0.125603
0.135533
0.149102
0.160477
0.587746
0.244466
0.171385
0.142601
0.130737
0.12792
0.13146
0.14206
0.165158
0.213347
0.307747
0.477931
0.710227
0.620741
0.351598
0.200233
0.139161
0.119209
0.114947
0.116996
0.122297
0.128776
0.132938
0.580968
0.241219
0.166732
0.136466
0.123015
0.118423
0.120055
0.128686
0.14946
0.193827
0.280957
0.437093
0.679616
0.669709
0.383286
0.213789
0.141698
0.117079
0.110974
0.111545
0.114562
0.117824
0.118922
0.574068
0.238777
0.163366
0.13206
0.117571
0.111885
0.112371
0.119759
0.138865
0.180332
0.262267
0.409901
0.649393
0.700633
0.412667
0.228154
0.145473
0.116071
0.108134
0.107698
0.109552
0.111346
0.111142
0.567723
0.237036
0.160987
0.128903
0.113677
0.107259
0.106986
0.1135
0.13133
0.170599
0.248982
0.392218
0.63123
0.724642
0.439652
0.242313
0.149873
0.115777
0.106004
0.104775
0.106012
0.107164
0.106468
0.562201
0.235869
0.159366
0.126668
0.110882
0.103928
0.103099
0.108933
0.125722
0.163232
0.238956
0.37934
0.618156
0.740671
0.461363
0.255166
0.154536
0.116045
0.104439
0.102499
0.103372
0.104268
0.103451
0.55754
0.235147
0.158314
0.125118
0.108882
0.101507
0.100235
0.1055
0.121393
0.157411
0.230938
0.368937
0.60669
0.74656
0.47723
0.266523
0.15936
0.116828
0.103406
0.100771
0.101379
0.102184
0.101404
0.553667
0.234757
0.157683
0.124071
0.107462
0.0997405
0.0980965
0.102865
0.117965
0.152679
0.224307
0.360196
0.596598
0.747417
0.489554
0.276933
0.164403
0.118117
0.1029
0.0995618
0.0999264
0.10069
0.0999944
0.550476
0.234603
0.157353
0.123393
0.106468
0.0984513
0.0964857
0.100815
0.115209
0.148779
0.218767
0.352863
0.588147
0.747312
0.500492
0.286998
0.169746
0.119912
0.102931
0.0988751
0.0989785
0.0996892
0.0990648
0.547869
0.234614
0.157235
0.122981
0.105784
0.0975139
0.0952681
0.0992095
0.112983
0.145565
0.214178
0.346859
0.581518
0.748131
0.51132
0.297115
0.175426
0.122202
0.103516
0.0987347
0.098535
0.0991413
0.0985374
0.545776
0.234738
0.157263
0.122759
0.105328
0.0968393
0.0943506
0.097956
0.111199
0.142956
0.210474
0.342172
0.576821
0.750733
0.522695
0.307403
0.181364
0.12495
0.104682
0.0991834
0.0986177
0.0990347
0.0983713
0.544179
0.234939
0.157391
0.122673
0.105042
0.0963662
0.0936715
0.0969954
0.109803
0.140908
0.207623
0.338786
0.574068
0.755425
0.534664
0.31756
0.18729
0.128072
0.106465
0.100282
0.0992608
0.0993679
0.0985376
0.54311
0.235206
0.157589
0.122689
0.104889
0.0960579
0.0931964
0.0962993
0.108776
0.139402
0.205582
0.336581
0.572945
0.761616
0.546285
0.326621
0.19266
0.131432
0.108916
0.102104
0.1005
0.100134
0.0990023
0.542852
0.235522
0.157835
0.122787
0.104853
0.0959029
0.0929225
0.0958772
0.108137
0.138447
0.204273
0.335212
0.572531
0.766863
0.555011
0.332763
0.196672
0.134883
0.112112
0.10473
0.102356
0.101304
0.0997125
0.543265
0.235882
0.158128
0.12297
0.104943
0.0959236
0.0928911
0.0957951
0.10797
0.138099
0.203569
0.334011
0.571025
0.766453
0.556432
0.333396
0.198451
0.138382
0.116185
0.108225
0.10481
0.102809
0.100585
0.541452
0.236247
0.158513
0.123278
0.105209
0.0961932
0.0932136
0.0962116
0.108469
0.138504
0.203319
0.331908
0.565297
0.753548
0.544424
0.325721
0.197481
0.142153
0.121324
0.112608
0.107779
0.104529
0.101498
0.537926
0.236784
0.159095
0.123809
0.105768
0.096874
0.0941209
0.0974399
0.110012
0.140003
0.203519
0.327798
0.551692
0.718943
0.512374
0.308071
0.194267
0.146848
0.127732
0.117785
0.111078
0.106284
0.102305
0.541779
0.238199
0.160141
0.124772
0.106859
0.0982839
0.0960456
0.100058
0.113324
0.143382
0.204711
0.32138
0.52851
0.651918
0.457259
0.28276
0.19151
0.153267
0.135246
0.123357
0.114345
0.10781
0.102823
0.56167
0.241973
0.162285
0.126583
0.1089
0.10093
0.0996577
0.104976
0.119658
0.150326
0.208886
0.314209
0.498513
0.571039
0.393124
0.257524
0.191118
0.161351
0.14318
0.12861
0.117065
0.1088
0.102885
0.5895
0.250246
0.166264
0.129756
0.112399
0.105432
0.105795
0.113397
0.130839
0.163922
0.221363
0.311032
0.442652
0.458945
0.329265
0.238057
0.194914
0.170465
0.150257
0.132517
0.118622
0.108949
0.102362
0.596471
0.263659
0.172545
0.135215
0.118175
0.112633
0.115506
0.126778
0.149095
0.188513
0.254459
0.338748
0.391958
0.360754
0.280781
0.230676
0.20263
0.178202
0.154413
0.133875
0.118458
0.108054
0.101212
0.578895
0.274476
0.181585
0.144304
0.127321
0.123272
0.129091
0.144724
0.172271
0.216397
0.28682
0.356888
0.350539
0.304313
0.259912
0.233108
0.207934
0.179996
0.1534
0.131836
0.116352
0.10613
0.0995256
0.561144
0.289661
0.192774
0.15461
0.137591
0.134123
0.141019
0.15753
0.183872
0.220184
0.265196
0.296103
0.289765
0.266922
0.249347
0.229052
0.201912
0.172579
0.146626
0.126642
0.112654
0.103454
0.0975028
0.545245
0.297685
0.201817
0.161826
0.144292
0.139876
0.144829
0.157524
0.17667
0.199769
0.222331
0.237519
0.241885
0.239262
0.229488
0.209741
0.183875
0.157971
0.13612
0.119663
0.108156
0.100462
0.0953902
0.532682
0.296701
0.207239
0.166449
0.14778
0.141542
0.143551
0.151705
0.164312
0.179019
0.19283
0.203376
0.209068
0.208048
0.198805
0.181684
0.161065
0.14131
0.124911
0.112515
0.10367
0.0975547
0.0933961
0.523353
0.290807
0.208739
0.168529
0.148841
0.140748
0.140047
0.144478
0.152346
0.161752
0.170508
0.176795
0.179183
0.176236
0.167794
0.154876
0.140282
0.126556
0.115104
0.106258
0.0997157
0.0949854
0.091647
0.515928
0.283463
0.206391
0.167246
0.146922
0.137299
0.134347
0.135796
0.140004
0.145377
0.150242
0.153177
0.153187
0.149643
0.142847
0.133953
0.124272
0.11518
0.107446
0.101265
0.096484
0.0928504
0.0901895
0.509381
0.276427
0.201725
0.163351
0.142641
0.131916
0.127297
0.126559
0.128148
0.13072
0.133024
0.134051
0.133159
0.130102
0.125185
0.119268
0.112983
0.107026
0.101813
0.0974741
0.0939521
0.0911414
0.0890162
0.50344
0.270185
0.196274
0.158273
0.137331
0.125912
0.12022
0.118078
0.118025
0.118916
0.1198
0.119957
0.11896
0.116689
0.113346
0.109406
0.105313
0.101354
0.0977692
0.0946556
0.0920082
0.0898023
0.0880935
0.498199
0.264657
0.190874
0.153048
0.132018
0.120244
0.113963
0.111036
0.110077
0.110078
0.110276
0.110125
0.109311
0.107741
0.105517
0.102887
0.100141
0.0974224
0.0948735
0.0925686
0.0905273
0.0887662
0.0873805
0.493744
0.2597
0.18586
0.14819
0.127211
0.115335
0.108806
0.105511
0.104116
0.103704
0.103617
0.103413
0.102833
0.101783
0.100304
0.0985233
0.096603
0.0946653
0.0927829
0.0910186
0.0894038
0.0879746
0.0868419
0.490071
0.25524
0.18134
0.143882
0.123073
0.111266
0.104704
0.101292
0.0997318
0.0991601
0.0989865
0.0988238
0.098447
0.0977608
0.0967668
0.0955303
0.0941448
0.0927043
0.0912604
0.0898673
0.0885613
0.0873867
0.0864561
0.487141
0.251233
0.177329
0.14015
0.119595
0.10796
0.101487
0.0980955
0.0965115
0.0959066
0.0957319
0.0956365
0.0954167
0.0949781
0.0943034
0.0934246
0.0923987
0.0912905
0.0901506
0.0890264
0.0879575
0.0869884
0.0862255
0.484913
0.24764
0.173802
0.136953
0.116699
0.10529
0.0989688
0.0956638
0.0941212
0.0935375
0.0933925
0.0933608
0.0932554
0.0929862
0.092528
0.0918963
0.0911278
0.0902668
0.0893616
0.0884572
0.0875929
0.0868066
0.086193
0.483342
0.244425
0.170717
0.134226
0.114293
0.103129
0.0969791
0.093784
0.0923047
0.0917574
0.0916443
0.0916605
0.0916336
0.0914805
0.091176
0.0907303
0.0901717
0.089534
0.0888548
0.0881802
0.0875334
0.0869355
0.086468
0.482352
0.241583
0.16804
0.131909
0.11229
0.101362
0.0953769
0.0922858
0.0908636
0.090344
0.0902482
0.0902892
0.0903087
0.090233
0.0900432
0.0897549
0.0894028
0.0890236
0.0886466
0.088308
0.0879517
0.0875758
0.0872605
0.481819
0.239158
0.165768
0.129967
0.110626
0.0999012
0.0940494
0.0910331
0.0896413
0.0891238
0.0890195
0.0890576
0.0890933
0.0890638
0.0889614
0.0888191
0.0887002
0.0886795
0.0888116
0.0891149
0.089195
0.0890802
0.0889103
0.481569
0.237261
0.16395
0.128405
0.109278
0.0986981
0.0929281
0.089942
0.0885425
0.0879951
0.0878545
0.0878642
0.0878913
0.0878826
0.0878426
0.087828
0.0879564
0.0884144
0.0894308
0.0911677
0.0918467
0.0919606
0.0918802
0.481211
0.235841
0.162621
0.127283
0.108307
0.0978147
0.0920802
0.0890909
0.087662
0.0870723
0.0868888
0.0868659
0.0868777
0.0868766
0.0868732
0.0869399
0.087246
0.0881417
0.0903246
0.0954906
0.096542
0.09665
0.0965635
1.32401
1.34922
1.4466
1.62613
0.417697
0.423533
0.4286
0.416669
0.229992
0.228453
0.223528
0.214854
0.161935
0.160096
0.156675
0.152087
0.131517
0.129221
0.126376
0.123454
0.116355
0.113892
0.111315
0.109065
0.10816
0.105663
0.103227
0.101272
0.103402
0.100941
0.0985988
0.0967855
0.100452
0.0980572
0.0957882
0.094051
0.0985256
0.0962062
0.0939954
0.0923007
0.0972428
0.0949899
0.0928205
0.0911454
0.0964141
0.0942075
0.092058
0.0903813
0.0959428
0.0937535
0.0915974
0.0898969
0.0957751
0.0935679
0.0913749
0.0896269
0.0958728
0.093609
0.0913471
0.0895278
0.0961972
0.093838
0.0914767
0.089565
0.0966971
0.0942083
0.0917236
0.0897046
0.0973002
0.0946587
0.0920388
0.0899087
0.0979097
0.0951111
0.0923631
0.0901337
0.098413
0.0954753
0.0926291
0.0903304
0.0986738
0.0956419
0.0927576
0.0904414
0.0985707
0.095522
0.0926808
0.0904161
0.0980304
0.0950686
0.0923682
0.0902343
0.0970516
0.0942908
0.0918289
0.0899014
0.0957192
0.0932597
0.0911138
0.0894495
0.0941841
0.0920895
0.0903018
0.0889284
0.0926146
0.0909025
0.0894758
0.0883912
0.0911477
0.0897963
0.0887019
0.0878802
0.0898652
0.0888289
0.08802
0.0874219
0.088797
0.0880215
0.0874452
0.0870275
0.0879373
0.0873698
0.0869756
0.0866973
0.0872621
0.0868565
0.0866008
0.0864265
0.0867429
0.0864612
0.0863085
0.0862098
0.0863558
0.0861684
0.086091
0.0860461
0.0860898
0.0859741
0.085952
0.0859451
0.0859566
0.0858969
0.0859163
0.0859374
0.0860076
0.0859942
0.0860469
0.0860907
0.0863595
0.0863873
0.0864697
0.0865345
0.087226
0.0872922
0.0874029
0.0874887
0.088939
0.0890383
0.0891746
0.0892807
0.0919344
0.0920442
0.0921864
0.0922974
0.0965771
0.0966414
0.0967285
0.0967935
0.628252
0.283927
0.172625
0.132874
0.116443
0.109021
0.105516
0.103823
0.10301
0.102692
0.102789
0.103477
0.105252
0.109122
0.116986
0.132481
0.163225
0.228388
0.419427
0.346543
0.211154
0.148456
0.120547
0.107327
0.100777
0.0974595
0.0957593
0.0949044
0.0945654
0.0946951
0.0955033
0.0975347
0.101856
0.110437
0.127014
0.159384
0.227075
0.423732
0.197563
0.157074
0.127791
0.110788
0.101275
0.096004
0.0930962
0.0914962
0.0906445
0.0902967
0.0904465
0.0913344
0.0935358
0.0981503
0.107178
0.124392
0.157635
0.226569
0.426517
0.144325
0.128177
0.113827
0.103717
0.0971898
0.0931591
0.090731
0.0892922
0.0884798
0.0881371
0.0882999
0.0892336
0.0915336
0.0963151
0.105589
0.123131
0.156793
0.226341
0.428744
0.11939
0.112169
0.1048
0.0987765
0.0943772
0.0913721
0.0894018
0.0881482
0.0874003
0.0870765
0.0872499
0.088206
0.0905525
0.0954114
0.104795
0.122474
0.156308
0.226189
0.430757
0.106456
0.102923
0.0989947
0.0953557
0.0923867
0.0901602
0.0885811
0.0875091
0.0868383
0.086544
0.0867288
0.0876933
0.0900531
0.0949333
0.104344
0.122056
0.15594
0.226037
0.432672
0.0992736
0.0973762
0.09521
0.0929626
0.0909276
0.0892641
0.087998
0.0870889
0.0864973
0.0862382
0.0864358
0.0874017
0.0897565
0.0946269
0.104023
0.121713
0.155591
0.225855
0.434527
0.0950498
0.0939083
0.0926738
0.0912467
0.0898165
0.0885509
0.0875264
0.0867552
0.0862381
0.0860157
0.0862269
0.0871911
0.089532
0.0943771
0.103736
0.12138
0.155226
0.225634
0.43633
0.0924245
0.0916385
0.0909118
0.0899776
0.0889414
0.0879553
0.0871137
0.0864554
0.0860043
0.0858171
0.0860419
0.0870028
0.0893256
0.094138
0.10345
0.121036
0.154834
0.22537
0.438078
0.0907095
0.0900851
0.0896415
0.0890099
0.0882338
0.0874448
0.0867407
0.0861731
0.0857785
0.0856229
0.0858603
0.0868169
0.0891194
0.0938956
0.103155
0.120675
0.154418
0.225065
0.439764
0.0895466
0.0889818
0.0886958
0.0882531
0.0876513
0.0870023
0.0864014
0.0859056
0.0855581
0.0854301
0.0856782
0.0866296
0.0889106
0.0936485
0.102852
0.120302
0.15398
0.224724
0.441379
0.0887432
0.088178
0.0879746
0.08765
0.0871657
0.0866167
0.0860935
0.0856544
0.0853458
0.0852411
0.0854978
0.086443
0.0887016
0.0933999
0.102546
0.119921
0.153528
0.224351
0.442916
0.0881908
0.0875851
0.0874161
0.0871627
0.0867575
0.0862801
0.0858155
0.0854212
0.0851443
0.0850591
0.0853226
0.0862605
0.0884962
0.0931542
0.102241
0.119539
0.153067
0.223953
0.444368
0.0878245
0.0871482
0.0869801
0.0867654
0.0864121
0.0859859
0.0855657
0.0852068
0.0849561
0.084887
0.0851556
0.0860856
0.0882981
0.0929153
0.101942
0.11916
0.152605
0.223536
0.445726
0.0876018
0.0868309
0.086639
0.0864397
0.0861185
0.0857285
0.085342
0.0850116
0.0847825
0.084727
0.0849993
0.0859209
0.0881101
0.0926868
0.101654
0.118791
0.152147
0.223107
0.446985
0.0874913
0.0866074
0.0863731
0.0861714
0.0858677
0.0855029
0.0851422
0.0848349
0.084624
0.0845801
0.0848553
0.0857683
0.0879347
0.0924715
0.101379
0.118435
0.1517
0.222672
0.448141
0.087467
0.086458
0.0861674
0.0859499
0.0856527
0.0853047
0.0849642
0.084676
0.0844808
0.0844471
0.0847245
0.085629
0.0877733
0.0922714
0.10112
0.118097
0.151268
0.222236
0.449189
0.0875042
0.0863661
0.0860097
0.0857664
0.0854673
0.0851303
0.0848057
0.0845339
0.0843526
0.084328
0.0846073
0.0855038
0.087627
0.092088
0.100881
0.117779
0.150856
0.221806
0.450127
0.0875785
0.0863173
0.08589
0.0856134
0.0853067
0.0849763
0.0846648
0.0844074
0.0842386
0.0842225
0.0845038
0.0853929
0.0874963
0.0919222
0.100661
0.117483
0.150466
0.221386
0.450953
0.0876651
0.0862981
0.0857989
0.0854846
0.0851662
0.0848398
0.0845395
0.0842952
0.0841383
0.0841301
0.0844135
0.085296
0.0873813
0.0917745
0.100463
0.117212
0.150104
0.220982
0.451667
0.0877407
0.0862972
0.085728
0.0853738
0.085042
0.0847183
0.0844282
0.0841963
0.0840505
0.0840503
0.084336
0.085213
0.087282
0.0916452
0.100286
0.116968
0.149772
0.220599
0.45227
0.0877678
0.086295
0.0856677
0.0852759
0.0849309
0.0846094
0.0843292
0.0841093
0.0839745
0.0839821
0.0842706
0.0851432
0.0871981
0.0915346
0.100133
0.116753
0.149474
0.220244
0.452764
0.0877318
0.0862788
0.0856101
0.0851854
0.084829
0.0845111
0.0842413
0.0840332
0.0839091
0.0839245
0.0842165
0.085086
0.0871292
0.0914428
0.100005
0.116569
0.149216
0.219926
0.453162
0.0876305
0.0862431
0.0855506
0.0850999
0.0847346
0.0844214
0.0841623
0.0839665
0.0838533
0.0838768
0.0841727
0.0850408
0.087075
0.0913698
0.0999005
0.116419
0.149002
0.219659
0.453496
0.0874731
0.0861867
0.0854868
0.0850175
0.0846467
0.0843393
0.0840915
0.0839078
0.0838056
0.0838376
0.0841388
0.0850071
0.0870351
0.0913152
0.0998214
0.116303
0.148837
0.219455
0.453838
0.0872768
0.0861118
0.0854176
0.084937
0.0845643
0.0842643
0.0840279
0.0838563
0.0837647
0.0838053
0.0841122
0.0849828
0.0870082
0.0912794
0.0997681
0.116222
0.148721
0.219325
0.454253
0.0870612
0.0860227
0.0853431
0.0848578
0.0844868
0.0841955
0.0839709
0.0838109
0.0837296
0.0837784
0.0840912
0.0849648
0.0869892
0.0912545
0.0997304
0.116164
0.148634
0.219227
0.454561
0.0868429
0.0859239
0.0852643
0.0847799
0.0844137
0.0841324
0.0839196
0.083771
0.0836994
0.0837559
0.0840744
0.0849513
0.0869759
0.0912369
0.099703
0.116119
0.148565
0.219141
0.454748
0.0866335
0.0858195
0.0851823
0.0847036
0.0843451
0.0840747
0.0838737
0.0837359
0.0836733
0.0837371
0.084061
0.0849413
0.0869667
0.091225
0.0996836
0.116086
0.148511
0.219065
0.454826
0.0864396
0.085713
0.0850991
0.0846297
0.0842811
0.0840223
0.0838329
0.0837053
0.0836511
0.0837215
0.0840505
0.0849342
0.0869609
0.0912178
0.0996712
0.116063
0.14847
0.219
0.454804
0.086264
0.0856076
0.0850168
0.0845596
0.0842227
0.0839759
0.0837977
0.0836795
0.083633
0.0837095
0.084043
0.08493
0.0869584
0.0912148
0.0996646
0.116049
0.148441
0.218944
0.454695
0.0861081
0.0855068
0.0849386
0.0844958
0.0841718
0.0839372
0.0837696
0.0836602
0.0836206
0.0837025
0.0840401
0.0849299
0.0869599
0.091216
0.0996631
0.116041
0.148423
0.218898
0.454512
0.0859743
0.0854161
0.0848701
0.0844434
0.0841332
0.0839107
0.0837533
0.0836521
0.0836186
0.0837051
0.084046
0.0849376
0.0869679
0.0912224
0.0996661
0.116039
0.148412
0.218861
0.454272
0.0858696
0.0853457
0.0848219
0.0844127
0.0841171
0.0839068
0.0837593
0.0836655
0.0836376
0.0837278
0.0840706
0.084962
0.0869891
0.0912375
0.0996726
0.116037
0.148402
0.218831
0.454
0.0858108
0.0853159
0.0848151
0.084425
0.084145
0.0839473
0.0838096
0.0837232
0.0837004
0.0837933
0.0841357
0.0850223
0.0870384
0.0912686
0.0996801
0.116022
0.148377
0.218807
0.453765
0.0858353
0.0853675
0.0848917
0.084523
0.0842604
0.0840763
0.0839491
0.0838704
0.0838526
0.0839467
0.0842848
0.0851578
0.0871463
0.0913314
0.0996825
0.115964
0.148297
0.218797
0.45378
0.0860165
0.0855777
0.0851308
0.0847872
0.0845447
0.0843764
0.0842614
0.0841916
0.0841789
0.0842724
0.0845996
0.0854432
0.0873723
0.0914566
0.0996651
0.115793
0.148067
0.218854
0.454799
0.0864885
0.0860837
0.0856716
0.0853582
0.0851399
0.0849909
0.0848908
0.0848319
0.0848248
0.084915
0.085221
0.086009
0.0878228
0.091702
0.0995983
0.115354
0.147463
0.219213
0.4597
0.0874729
0.0871079
0.0867372
0.0864602
0.0862714
0.0861457
0.0860639
0.0860183
0.0860174
0.0861003
0.0863704
0.0870643
0.0886752
0.0921719
0.0994372
0.11435
0.145989
0.220611
0.479596
0.0892938
0.088971
0.0886486
0.0884146
0.0882604
0.0881616
0.0881005
0.0880694
0.0880738
0.0881432
0.0883586
0.0889087
0.0901978
0.0930497
0.0991543
0.112294
0.142524
0.224282
0.552541
0.0923226
0.0920502
0.0917906
0.0916098
0.091495
0.0914245
0.0913832
0.0913639
0.0913687
0.0914156
0.0915552
0.0919094
0.0927463
0.0946365
0.0988407
0.108572
0.134438
0.227272
0.790876
0.0967904
0.0966146
0.096463
0.0963619
0.0962987
0.0962599
0.0962367
0.0962247
0.0962235
0.0962385
0.0962869
0.096411
0.0967067
0.0973853
0.0989569
0.102995
0.116641
0.196559
1.50495
)
;

boundaryField
{
    leftWall
    {
        type            epsilonWallFunction;
        value           nonuniform List<scalar> 
50
(
0.256785
0.303026
0.386336
0.446416
0.490543
0.522649
0.545698
0.562227
0.581522
0.591968
0.595255
0.593136
0.587746
0.580968
0.574068
0.567723
0.562201
0.55754
0.553667
0.550476
0.547869
0.545776
0.544179
0.54311
0.542852
0.543265
0.541452
0.537926
0.541779
0.56167
0.5895
0.596471
0.578895
0.561144
0.545245
0.532682
0.523353
0.515928
0.509381
0.50344
0.498199
0.493744
0.490071
0.487141
0.484913
0.483342
0.482352
0.481819
0.481569
0.481211
)
;
    }
    rightWall
    {
        type            epsilonWallFunction;
        value           nonuniform List<scalar> 
50
(
0.27042
0.282491
0.334624
0.365312
0.385167
0.398415
0.407322
0.41346
0.419427
0.423732
0.426517
0.428744
0.430757
0.432672
0.434527
0.43633
0.438078
0.439764
0.441379
0.442916
0.444368
0.445726
0.446985
0.448141
0.449189
0.450127
0.450953
0.451667
0.45227
0.452764
0.453162
0.453496
0.453838
0.454253
0.454561
0.454748
0.454826
0.454804
0.454695
0.454512
0.454272
0.454
0.453765
0.45378
0.454799
0.4597
0.479596
0.552541
0.790876
1.50495
)
;
    }
    lowerWall
    {
        type            epsilonWallFunction;
        value           nonuniform List<scalar> 
62
(
0.256785
0.385369
0.467631
0.532427
0.637452
0.90832
1.60184
2.98505
4.69069
5.60546
5.70279
5.35924
4.68197
3.86803
3.03644
2.35177
1.87009
1.55432
1.33552
1.15492
0.949866
0.642541
0.271755
0.271755
0.31017
0.385635
0.443369
0.517979
0.656459
0.899985
1.20588
1.32401
1.34922
1.4466
1.62613
0.250945
0.280102
0.368611
0.433938
0.493827
0.561021
0.653087
0.842942
0.250945
0.408611
0.498814
0.54658
0.571621
0.585156
0.595577
0.600038
0.600785
0.599314
0.596508
0.592772
0.588091
0.581551
0.570448
0.548165
0.500918
0.407621
0.27042
)
;
    }
    atmosphere
    {
        type            inletOutlet;
        inletValue      uniform 0.1;
        value           nonuniform List<scalar> 
46
(
0.481211
0.235841
0.162621
0.127283
0.108307
0.0978147
0.0920802
0.0890909
0.087662
0.0870723
0.0868888
0.0868659
0.0868777
0.0868766
0.0868732
0.0869399
0.087246
0.0881417
0.0903246
0.1
0.1
0.1
0.1
0.1
0.1
0.1
0.1
0.1
0.1
0.1
0.1
0.1
0.1
0.1
0.1
0.1
0.1
0.1
0.1
0.1
0.1
0.1
0.1
0.1
0.1
0.1
)
;
    }
    defaultFaces
    {
        type            empty;
    }
}


// ************************************************************************* //
