/*--------------------------------*- C++ -*----------------------------------*\
  =========                 |
  \\      /  F ield         | OpenFOAM: The Open Source CFD Toolbox
   \\    /   O peration     | Website:  https://openfoam.org
    \\  /    A nd           | Version:  9
     \\/     M anipulation  |
\*---------------------------------------------------------------------------*/
FoamFile
{
    format      ascii;
    class       volScalarField;
    location    "0.1";
    object      k;
}
// * * * * * * * * * * * * * * * * * * * * * * * * * * * * * * * * * * * * * //

dimensions      [0 2 -2 0 0 0 0];

internalField   nonuniform List<scalar> 
2268
(
0.0184507
0.021684
0.0264012
0.0296202
0.0319056
0.0337239
0.0354151
0.0372552
0.0394876
0.0423311
0.0459628
0.0502345
0.0544536
0.0572926
0.057423
0.054961
0.0518461
0.0494131
0.0475455
0.0447455
0.0415132
0.0368571
0.0255658
0.026693
0.0431611
0.0525088
0.058309
0.0622518
0.0652909
0.0680654
0.0710782
0.074754
0.0794218
0.0851897
0.0916022
0.0973698
0.100457
0.0991879
0.0940941
0.0876024
0.0825626
0.079023
0.0743704
0.0683302
0.0708414
0.044441
0.0299257
0.0520685
0.0635313
0.0705604
0.0754282
0.0792787
0.0828455
0.0866893
0.091262
0.0968499
0.103415
0.110314
0.116122
0.119029
0.117949
0.113268
0.106933
0.102132
0.100902
0.0993086
0.0934849
0.0909426
0.0531938
0.0317727
0.0571328
0.0698965
0.0776659
0.0831099
0.0874892
0.0915731
0.0959221
0.100949
0.106845
0.113421
0.11992
0.124993
0.127409
0.126914
0.123542
0.118024
0.11483
0.118781
0.124241
0.117041
0.103881
0.056881
0.0329571
0.0603186
0.0740022
0.0822912
0.0881269
0.0928555
0.0972602
0.101875
0.107048
0.11286
0.118994
0.124654
0.128699
0.130598
0.130924
0.129417
0.125166
0.123816
0.133319
0.144918
0.13645
0.109495
0.0579245
0.0337728
0.062428
0.076804
0.0854835
0.0915899
0.0965362
0.101111
0.105814
0.11092
0.116412
0.121885
0.126561
0.129568
0.131057
0.132236
0.132744
0.130394
0.1311
0.146182
0.161467
0.148573
0.113372
0.0587017
0.0343742
0.0638609
0.0787698
0.0877528
0.0940464
0.0991158
0.103754
0.108425
0.113342
0.118411
0.123183
0.126939
0.129101
0.130403
0.132415
0.134846
0.134959
0.137907
0.156463
0.170995
0.155039
0.120919
0.0609892
0.0348549
0.0648369
0.0801418
0.0893597
0.0957804
0.100907
0.105537
0.110108
0.114783
0.119421
0.123568
0.126594
0.128221
0.129644
0.132576
0.136874
0.139503
0.144409
0.162588
0.172313
0.156088
0.133391
0.0659589
0.0147613
0.0217925
0.0252128
0.0263949
0.026559
0.0263
0.0260167
0.025793
0.0255816
0.0253868
0.0252057
0.0250312
0.0248501
0.0246346
0.0243182
0.0237327
0.0224785
0.0197354
0.0189573
0.0277158
0.0434851
0.0502914
0.0527505
0.0534094
0.0533546
0.0530546
0.0527311
0.05248
0.0523046
0.0521821
0.0520839
0.051971
0.0517716
0.0513281
0.0502729
0.047768
0.041858
0.0279208
0.0317801
0.0531469
0.0616591
0.0647575
0.0657266
0.0658676
0.0657001
0.0654538
0.0652469
0.065098
0.0649905
0.0648956
0.0647665
0.0645099
0.0639253
0.0625689
0.0594515
0.0521039
0.0316636
0.0340979
0.0592329
0.068849
0.072234
0.0732726
0.0734509
0.0733187
0.0731032
0.0729168
0.0727793
0.072675
0.0725729
0.0724187
0.0721039
0.0714032
0.0698392
0.0663533
0.0581569
0.0339061
0.036242
0.0638147
0.0742733
0.0777475
0.0786546
0.0787134
0.0785068
0.0782538
0.0780472
0.0778967
0.0777804
0.077661
0.0774758
0.0771039
0.0763044
0.0745822
0.0708358
0.0620464
0.0353898
0.0395874
0.0678176
0.0789291
0.0823314
0.0829147
0.0827069
0.0823249
0.0819703
0.0817038
0.0815158
0.0813723
0.0812263
0.0810053
0.080578
0.0796925
0.0778424
0.0738929
0.0646516
0.0364088
0.0458221
0.0721427
0.0834404
0.086478
0.0865388
0.0859361
0.0852961
0.0847893
0.0844314
0.0841862
0.084003
0.0838226
0.0835624
0.0830815
0.0821197
0.0801616
0.0760437
0.0664415
0.0371195
0.0556546
0.0779506
0.0883988
0.090431
0.0897425
0.0886393
0.0876917
0.0870015
0.0865325
0.0862174
0.0859863
0.0857667
0.0854655
0.0849334
0.0839033
0.0818515
0.0775889
0.0676917
0.037622
0.0353026
0.0656315
0.0813396
0.0908386
0.0974041
0.102568
0.107133
0.111512
0.115827
0.119913
0.123353
0.125681
0.127028
0.129081
0.133609
0.140724
0.146874
0.154623
0.166204
0.163905
0.147641
0.141156
0.0883935
0.0358259
0.0660228
0.0817804
0.0913385
0.097901
0.102972
0.107341
0.111402
0.115267
0.118812
0.121763
0.123944
0.126078
0.130271
0.1382
0.150089
0.160524
0.167622
0.163948
0.148735
0.132887
0.129885
0.11841
0.0362732
0.0660797
0.0815413
0.0908885
0.0972699
0.102137
0.106242
0.109966
0.113439
0.116631
0.119474
0.122162
0.126062
0.133542
0.146309
0.164183
0.17876
0.180078
0.161944
0.139253
0.12482
0.124462
0.130798
0.0366781
0.0660277
0.0810104
0.0899605
0.0960179
0.100588
0.104386
0.107781
0.110946
0.113975
0.117053
0.120807
0.127213
0.138881
0.157787
0.183102
0.200024
0.19022
0.161028
0.135111
0.122441
0.122745
0.131441
0.0370533
0.065976
0.0804249
0.0888934
0.0945499
0.098773
0.102251
0.105355
0.108315
0.111372
0.114992
0.120266
0.129699
0.146204
0.172263
0.204487
0.218965
0.196585
0.15992
0.133194
0.122099
0.122759
0.130595
0.0374024
0.0659662
0.0798996
0.0878794
0.0931214
0.0969943
0.100174
0.103044
0.105905
0.109163
0.113578
0.120718
0.133528
0.155278
0.188843
0.225332
0.231969
0.198179
0.157462
0.131541
0.121841
0.122559
0.128452
0.0377259
0.0660077
0.0794762
0.0870039
0.0918596
0.0954119
0.0983346
0.101037
0.1039
0.107506
0.112919
0.122181
0.138627
0.165875
0.206939
0.244955
0.238626
0.19549
0.153638
0.129496
0.120953
0.121397
0.125433
0.0380232
0.066097
0.079161
0.0862921
0.0908105
0.0940894
0.0968087
0.0994103
0.102366
0.106441
0.113016
0.124599
0.144915
0.177858
0.226307
0.261881
0.239723
0.190151
0.149131
0.127078
0.119454
0.119536
0.122175
0.0382937
0.0662262
0.0789469
0.0857427
0.0899805
0.0930399
0.0956122
0.0981791
0.101309
0.105954
0.113823
0.127895
0.152331
0.191247
0.246771
0.275443
0.23763
0.184145
0.144692
0.124503
0.117571
0.117333
0.118978
0.0385374
0.0663874
0.0788247
0.0853475
0.0893635
0.0922597
0.0947426
0.0973389
0.100717
0.106022
0.115289
0.131985
0.160811
0.206219
0.268116
0.285819
0.234965
0.17888
0.140731
0.121942
0.115535
0.115071
0.116025
0.0387548
0.066573
0.0787876
0.0851021
0.088958
0.0917508
0.0942057
0.0968977
0.100597
0.106639
0.117378
0.13677
0.170185
0.222813
0.287964
0.290885
0.232187
0.174421
0.137212
0.119517
0.113577
0.112985
0.113455
0.0389474
0.0667822
0.0788395
0.0850162
0.0887804
0.0915378
0.0940359
0.0969002
0.101001
0.107848
0.120092
0.142137
0.180066
0.240078
0.303361
0.291298
0.228556
0.170079
0.13396
0.117369
0.111924
0.111269
0.111362
0.0391216
0.0670266
0.0789994
0.085117
0.0888701
0.0916772
0.0943111
0.0974469
0.102043
0.109761
0.123492
0.148012
0.190006
0.256298
0.316703
0.290768
0.223602
0.16533
0.130946
0.115686
0.110769
0.110046
0.109776
0.0392985
0.0673011
0.0792804
0.0854341
0.0892813
0.0922559
0.0951583
0.0987092
0.103936
0.112601
0.12775
0.154402
0.199756
0.271571
0.32758
0.287243
0.21628
0.159972
0.128377
0.114704
0.11025
0.109358
0.108671
0.0395178
0.0675209
0.079678
0.0860076
0.0900989
0.0934126
0.0967811
0.100966
0.107034
0.116775
0.133243
0.161455
0.208863
0.2845
0.331121
0.277701
0.206102
0.154192
0.126376
0.114483
0.110385
0.109166
0.107965
0.0399309
0.067612
0.0802697
0.0869691
0.0915072
0.0953988
0.0995178
0.104659
0.111891
0.122938
0.140671
0.169687
0.217057
0.293306
0.323813
0.259853
0.192959
0.148292
0.125147
0.115044
0.111091
0.109353
0.10753
0.0411483
0.0680506
0.0812772
0.0884873
0.0937105
0.0984942
0.103755
0.110308
0.119175
0.131922
0.151076
0.180299
0.224904
0.29534
0.304829
0.235727
0.178637
0.143274
0.124983
0.116335
0.112202
0.109747
0.107229
0.0441361
0.0712328
0.0830966
0.0906733
0.0968082
0.102867
0.109777
0.118357
0.129532
0.144648
0.165959
0.19577
0.235389
0.285581
0.267394
0.209725
0.166583
0.140423
0.126032
0.118132
0.113445
0.110123
0.106901
0.0468966
0.0728538
0.0863211
0.0934448
0.100327
0.107811
0.116715
0.127784
0.141727
0.159457
0.18266
0.212497
0.242797
0.256713
0.228116
0.18909
0.159401
0.140059
0.127884
0.119943
0.114437
0.11023
0.106394
0.0485314
0.0749999
0.0875909
0.0961089
0.103994
0.112468
0.122435
0.134604
0.149436
0.167156
0.187783
0.210098
0.227412
0.223055
0.202236
0.177265
0.156378
0.140851
0.129499
0.121089
0.114772
0.109847
0.105599
0.0473385
0.0746468
0.0876782
0.0971365
0.105474
0.114036
0.123763
0.135335
0.149039
0.164622
0.181053
0.195798
0.204
0.200233
0.187036
0.170291
0.154391
0.140846
0.129782
0.120996
0.114179
0.108865
0.104481
0.0459124
0.0748616
0.0881979
0.0973749
0.105312
0.113328
0.122256
0.132643
0.144614
0.157692
0.170616
0.181188
0.186508
0.184367
0.175866
0.163789
0.150861
0.138703
0.128121
0.119439
0.112615
0.107318
0.103088
0.0454412
0.0752614
0.0886006
0.0972196
0.104446
0.111612
0.119469
0.128447
0.138569
0.149317
0.159566
0.167658
0.171768
0.170676
0.164785
0.155534
0.144812
0.134158
0.124586
0.116602
0.110272
0.105365
0.101532
0.0448826
0.0752975
0.0885775
0.0966902
0.103157
0.109356
0.115998
0.123445
0.131685
0.140259
0.148258
0.154455
0.1576
0.156892
0.152488
0.145352
0.136707
0.127874
0.119795
0.112966
0.107494
0.103234
0.0999495
0.044254
0.0749552
0.0881291
0.0958097
0.101572
0.106812
0.112219
0.118119
0.124513
0.131042
0.137018
0.141548
0.143767
0.143148
0.139799
0.134432
0.127821
0.120955
0.11458
0.109107
0.104651
0.101146
0.0984606
0.0435816
0.0743614
0.0873668
0.094672
0.0998236
0.104203
0.108478
0.112961
0.117684
0.122401
0.126627
0.129745
0.13118
0.130608
0.128127
0.124236
0.11945
0.114417
0.109662
0.105496
0.102032
0.0992651
0.0971481
0.042902
0.0736494
0.0864409
0.0934103
0.0980532
0.10172
0.105055
0.108365
0.111719
0.114974
0.117818
0.119852
0.120715
0.12022
0.118444
0.115703
0.112406
0.108877
0.105471
0.10241
0.0997998
0.0976757
0.0960489
0.042244
0.072912
0.0854729
0.0921441
0.096377
0.0994898
0.102106
0.10453
0.106864
0.109046
0.110897
0.112175
0.112669
0.112275
0.111047
0.109184
0.10695
0.104533
0.102145
0.0999376
0.0980013
0.0963945
0.0951627
0.0416247
0.0722041
0.0845423
0.0909552
0.0948667
0.0975692
0.0996694
0.101471
0.103101
0.104557
0.105748
0.106542
0.10682
0.106526
0.105696
0.104447
0.102934
0.101292
0.0996255
0.0980377
0.0966054
0.0953945
0.0944665
0.041052
0.0715536
0.0836925
0.089888
0.0935525
0.0959609
0.0977069
0.0990941
0.100265
0.101257
0.102038
0.10254
0.102702
0.102494
0.101938
0.101101
0.100071
0.0989407
0.097765
0.0966125
0.0955455
0.0946285
0.0939278
0.0405288
0.0709713
0.0829414
0.0889591
0.092436
0.0946371
0.0961467
0.0972669
0.0981509
0.0988596
0.0993954
0.0997313
0.0998363
0.0996963
0.0993238
0.0987566
0.0980466
0.0972484
0.0964041
0.095554
0.0947485
0.094047
0.0935136
0.0400557
0.0704591
0.0822928
0.0881687
0.0915047
0.0935606
0.0949146
0.0958664
0.0965751
0.0971153
0.0975099
0.0977542
0.0978353
0.0977469
0.0974967
0.0971062
0.0966059
0.0960291
0.095408
0.0947682
0.0941502
0.0936064
0.0931954
0.0396307
0.0700166
0.081746
0.0875124
0.0907434
0.0926977
0.0939494
0.0947961
0.095399
0.0958406
0.0961552
0.0963507
0.0964244
0.0963745
0.0962061
0.0959321
0.0955711
0.0951446
0.094675
0.0941834
0.0937006
0.0932722
0.0929507
0.0392512
0.0696454
0.0813036
0.0869889
0.0901424
0.0920251
0.0932089
0.0939894
0.0945285
0.0949123
0.0951816
0.0953513
0.0954247
0.0954027
0.0952891
0.0950922
0.0948244
0.0944999
0.0941351
0.0937484
0.0933636
0.0930195
0.0927628
0.0389201
0.0693595
0.0809807
0.0866091
0.0897049
0.0915354
0.0926722
0.0934094
0.0939083
0.0942568
0.0944991
0.0946543
0.0947291
0.094726
0.0946482
0.0945017
0.094295
0.0940389
0.0937459
0.0934315
0.0931157
0.0928315
0.0926198
0.03866
0.0692073
0.0808243
0.0864112
0.0894586
0.091245
0.0923439
0.0930482
0.0935181
0.0938419
0.0940655
0.0942103
0.0942849
0.0942926
0.0942363
0.0941201
0.0939506
0.0937362
0.0934876
0.093218
0.0929455
0.0926987
0.0925142
0.0385494
0.0693201
0.0809493
0.0864838
0.0894701
0.0912033
0.0922594
0.0929293
0.0933712
0.0936724
0.093879
0.0940131
0.094084
0.0940951
0.0940486
0.0939471
0.0937948
0.0935982
0.0933665
0.0931125
0.0928539
0.0926185
0.092441
0.0388534
0.0700126
0.0815927
0.0869939
0.089859
0.0914993
0.0924876
0.0931084
0.0935141
0.0937883
0.093975
0.0940954
0.0941582
0.0941665
0.0941209
0.0940218
0.0938699
0.0936679
0.0934221
0.0931448
0.0928566
0.0925947
0.0923967
0.0404167
0.0719635
0.0831752
0.088201
0.0907971
0.0922574
0.0931268
0.0936688
0.0940216
0.0942594
0.0944206
0.0945232
0.0945745
0.0945758
0.0945262
0.0944228
0.0942609
0.0940343
0.0937394
0.0933822
0.0929881
0.0926358
0.0923763
0.0454125
0.0763826
0.0862791
0.0904085
0.0924689
0.0936099
0.0942857
0.0947082
0.0949856
0.0951746
0.0953035
0.0953847
0.0954225
0.0954169
0.095365
0.0952609
0.0950926
0.0948391
0.0944704
0.0939571
0.0933102
0.0927499
0.0923694
0.0582915
0.0846562
0.0912676
0.0937429
0.0949542
0.0956321
0.0960426
0.0963074
0.096488
0.0966156
0.0967048
0.0967615
0.0967866
0.096779
0.0967355
0.0966493
0.096505
0.0962667
0.0958586
0.0951435
0.0939809
0.0929399
0.0923591
0.0882508
0.0962542
0.0973438
0.0977995
0.0980795
0.0982647
0.0983926
0.0984858
0.0985569
0.0986123
0.0986544
0.0986833
0.0986985
0.0986989
0.0986833
0.0986489
0.098588
0.0984751
0.0982238
0.0975666
0.095867
0.0932192
0.0923422
0.0818622
0.0732194
0.0642613
0.0590595
0.11391
0.110639
0.107208
0.106583
0.136668
0.138836
0.139482
0.139928
0.139763
0.144497
0.145583
0.143375
0.136682
0.139067
0.138275
0.13509
0.131613
0.131907
0.130014
0.126738
0.126618
0.125779
0.1234
0.120226
0.122156
0.120734
0.11818
0.115173
0.118228
0.116525
0.113965
0.111164
0.114833
0.113015
0.110536
0.107949
0.111987
0.110135
0.107768
0.105384
0.109693
0.107836
0.105578
0.10337
0.10792
0.106053
0.103883
0.101817
0.106602
0.104708
0.102597
0.10064
0.105651
0.103707
0.101632
0.099757
0.104956
0.102955
0.100905
0.0990951
0.104393
0.102339
0.100318
0.0985705
0.103845
0.101764
0.0997929
0.0981214
0.103206
0.101149
0.099265
0.0976941
0.102408
0.100441
0.098691
0.0972516
0.101434
0.0996259
0.0980555
0.0967766
0.10032
0.0987269
0.0973702
0.096272
0.0991379
0.0977927
0.0966652
0.0957542
0.0979701
0.0968802
0.0959773
0.0952461
0.0968887
0.0960375
0.0953386
0.0947686
0.0959402
0.0952959
0.0947702
0.0943363
0.0951434
0.0946675
0.0942809
0.0939562
0.0944949
0.0941494
0.0938695
0.0936287
0.0939781
0.0937295
0.0935285
0.09335
0.0935707
0.0933923
0.0932479
0.0931146
0.0932509
0.0931222
0.0930176
0.0929162
0.0929998
0.0929056
0.0928283
0.0927492
0.0928022
0.0927316
0.0926728
0.0926089
0.0926467
0.0925918
0.0925451
0.0924913
0.092525
0.0924798
0.0924402
0.0923927
0.0924307
0.0923902
0.0923538
0.0923093
0.0923587
0.0923177
0.0922805
0.0922361
0.0923029
0.0922553
0.092213
0.0921657
0.0922545
0.0921931
0.092141
0.0920877
0.0922012
0.0921188
0.0920526
0.0919914
0.0921313
0.0920247
0.091944
0.0918755
0.092059
0.0919339
0.0918434
0.0917708
0.0691048
0.0882338
0.0963779
0.0962071
0.094176
0.0922225
0.0907595
0.0897631
0.0891087
0.0886765
0.0883652
0.0880814
0.0877168
0.0871102
0.0859852
0.0838056
0.0793468
0.0690702
0.0381863
0.111947
0.115949
0.110882
0.103891
0.0989021
0.0956296
0.093496
0.0921176
0.0912309
0.0906498
0.0902357
0.0898713
0.0894315
0.0887426
0.0875175
0.0852048
0.0805482
0.0699407
0.0385706
0.138176
0.128178
0.11642
0.10741
0.101529
0.097726
0.0952396
0.0936193
0.0925662
0.0918689
0.0913698
0.0909375
0.0904352
0.0896801
0.088376
0.0859613
0.081162
0.0703495
0.0387865
0.136003
0.125115
0.115197
0.107669
0.102385
0.0987182
0.0961983
0.0944976
0.0933625
0.0925949
0.0920378
0.0915557
0.0910061
0.0902004
0.0888369
0.0863474
0.0814511
0.0705191
0.0389131
0.127898
0.119431
0.112183
0.106477
0.102146
0.0989121
0.0965636
0.0949121
0.093774
0.0929838
0.0923983
0.0918864
0.0913053
0.0904642
0.0890588
0.0865186
0.0815621
0.0705673
0.0389947
0.120573
0.114168
0.108963
0.104741
0.101317
0.0985945
0.0965165
0.0949967
0.0939149
0.093142
0.0925547
0.0920313
0.091433
0.09057
0.0891379
0.0865668
0.0815771
0.070555
0.0390523
0.114862
0.109835
0.106019
0.10289
0.100223
0.0979902
0.0962121
0.0948645
0.0938748
0.0931467
0.0925776
0.0920575
0.0914537
0.0905796
0.089133
0.0865459
0.0815412
0.070512
0.0390945
0.110427
0.106339
0.103465
0.101127
0.0990623
0.09726
0.0957706
0.0946049
0.0937228
0.0930547
0.0925164
0.0920097
0.0914092
0.0905323
0.08908
0.0864868
0.0814783
0.0704526
0.0391248
0.106934
0.103526
0.101311
0.0995491
0.0979532
0.0965098
0.0952772
0.0942832
0.0935096
0.0929066
0.0924053
0.0919183
0.0913266
0.0904525
0.0890004
0.0864076
0.0814014
0.0703838
0.0391445
0.104166
0.101276
0.0995358
0.0981954
0.0969581
0.0958028
0.094786
0.0939434
0.0932701
0.0927306
0.092268
0.0918033
0.0912238
0.090356
0.0889077
0.0863187
0.0813177
0.0703093
0.0391542
0.101984
0.0994977
0.0981048
0.0970705
0.0961014
0.09517
0.0943275
0.093612
0.0930266
0.0925453
0.0921199
0.0916782
0.0911123
0.0902527
0.0888102
0.0862265
0.0812314
0.0702315
0.0391545
0.100286
0.0981133
0.0969726
0.0961568
0.0953835
0.0946212
0.0939155
0.0933035
0.0927925
0.0923625
0.0919714
0.0915518
0.091
0.0901493
0.0887132
0.0861352
0.0811455
0.0701522
0.039146
0.0989862
0.0970511
0.0960895
0.0954254
0.0947912
0.0941538
0.0935533
0.0930241
0.0925749
0.0921892
0.0918288
0.09143
0.0908918
0.0900501
0.0886205
0.0860477
0.0810622
0.0700729
0.0391293
0.0980055
0.0962461
0.0954069
0.0948438
0.0943056
0.0937591
0.0932387
0.0927754
0.0923772
0.0920294
0.0916962
0.0913164
0.090791
0.0899581
0.0885345
0.085966
0.080983
0.0699948
0.0391054
0.0972749
0.0956417
0.0948813
0.0943814
0.0939074
0.0934263
0.092967
0.0925562
0.0922003
0.091885
0.0915758
0.0912131
0.0906997
0.0898749
0.0884567
0.0858915
0.080909
0.0699191
0.0390751
0.0967393
0.0951924
0.0944767
0.0940119
0.0935791
0.093145
0.0927329
0.0923645
0.0920439
0.0917565
0.0914685
0.0911214
0.0906191
0.0898017
0.0883881
0.0858249
0.0808412
0.0698467
0.0390392
0.0963375
0.094862
0.0941649
0.0937142
0.0933063
0.0929063
0.0925312
0.0921976
0.0919069
0.0916437
0.0913746
0.0910416
0.0905494
0.0897388
0.0883291
0.0857666
0.0807799
0.0697783
0.0389988
0.0960181
0.0946074
0.0939177
0.0934703
0.0930777
0.092703
0.0923575
0.0920531
0.0917881
0.0915461
0.0912937
0.0909735
0.0904906
0.0896861
0.0882794
0.0857167
0.0807254
0.0697144
0.0389548
0.0957399
0.0943984
0.0937135
0.0932644
0.0928819
0.092528
0.092208
0.0919286
0.0916858
0.0914625
0.0912251
0.0909165
0.090442
0.0896429
0.0882386
0.0856746
0.0806775
0.0696553
0.038908
0.0954727
0.0942125
0.0935362
0.0930856
0.0927115
0.0923757
0.0920782
0.0918212
0.0915984
0.0913918
0.0911679
0.0908697
0.0904027
0.0896084
0.0882057
0.0856397
0.0806357
0.069601
0.0388592
0.0951987
0.0940347
0.0933746
0.0929259
0.0925607
0.092242
0.0919651
0.0917284
0.0915237
0.0913322
0.0911203
0.0908315
0.0903714
0.0895813
0.0881795
0.0856105
0.0805984
0.0695496
0.0388112
0.0949117
0.0938568
0.0932218
0.09278
0.0924257
0.0921238
0.0918662
0.0916484
0.0914601
0.0912822
0.0910812
0.0908008
0.0903465
0.0895594
0.0881574
0.0855838
0.0805612
0.0694957
0.0387813
0.0946148
0.0936762
0.0930744
0.0926448
0.0923037
0.0920188
0.0917797
0.0915792
0.091406
0.0912404
0.0910493
0.0907764
0.0903272
0.0895425
0.0881395
0.0855605
0.0805264
0.0694439
0.0387563
0.0943165
0.0934943
0.0929312
0.0925186
0.0921928
0.0919252
0.0917037
0.0915194
0.09136
0.0912057
0.0910235
0.0907572
0.0903126
0.0895298
0.0881255
0.0855407
0.0804952
0.0693964
0.0387312
0.0940266
0.0933142
0.0927927
0.0924005
0.0920918
0.0918416
0.0916369
0.0914676
0.0913208
0.0911768
0.0910026
0.0907424
0.0903017
0.0895206
0.0881149
0.0855247
0.0804684
0.0693545
0.038705
0.0937534
0.0931395
0.09266
0.0922904
0.0919998
0.0917668
0.0915781
0.0914227
0.0912874
0.0911526
0.0909856
0.0907309
0.0902938
0.0895142
0.0881072
0.0855121
0.0804462
0.0693191
0.0386778
0.0935021
0.0929733
0.0925343
0.0921883
0.0919162
0.0916999
0.0915261
0.0913834
0.0912585
0.0911321
0.0909716
0.0907218
0.0902882
0.08951
0.088102
0.0855027
0.0804287
0.0692901
0.0386504
0.0932751
0.0928178
0.0924165
0.0920941
0.0918404
0.0916401
0.0914801
0.091349
0.0912335
0.0911145
0.0909599
0.0907146
0.090284
0.0895074
0.0880988
0.0854962
0.0804157
0.0692676
0.0386232
0.0930726
0.0926743
0.0923075
0.0920078
0.091772
0.0915866
0.0914393
0.0913186
0.0912115
0.0910991
0.0909498
0.0907085
0.0902808
0.0895057
0.0880971
0.0854922
0.0804068
0.0692513
0.0385968
0.0928937
0.0925434
0.0922076
0.0919295
0.0917104
0.0915389
0.091403
0.0912916
0.0911919
0.0910854
0.0909408
0.0907031
0.0902782
0.0895048
0.0880965
0.0854903
0.0804017
0.0692409
0.0385715
0.0927366
0.0924253
0.0921171
0.0918589
0.0916552
0.0914963
0.0913707
0.0912675
0.0911744
0.0910731
0.0909325
0.0906982
0.0902759
0.0895043
0.0880968
0.0854903
0.0804001
0.0692361
0.0385477
0.0925995
0.0923198
0.0920357
0.0917956
0.091606
0.0914583
0.0913418
0.0912459
0.0911585
0.0910617
0.0909249
0.0906936
0.0902737
0.0895041
0.0880979
0.085492
0.0804016
0.0692364
0.0385258
0.0924806
0.0922264
0.0919634
0.0917394
0.0915624
0.0914247
0.0913161
0.0912265
0.091144
0.0910512
0.0909176
0.0906891
0.0902716
0.089504
0.0880995
0.0854951
0.0804062
0.0692415
0.038506
0.092378
0.0921443
0.0918993
0.0916896
0.0915237
0.0913948
0.0912931
0.091209
0.0911308
0.0910415
0.0909107
0.0906847
0.0902695
0.0895041
0.0881018
0.0854996
0.0804133
0.0692509
0.0384885
0.0922895
0.0920721
0.0918425
0.0916453
0.0914892
0.091368
0.0912724
0.091193
0.0911187
0.0910324
0.0909042
0.0906804
0.0902675
0.0895044
0.0881045
0.0855053
0.0804228
0.0692641
0.0384735
0.0922121
0.0920075
0.0917911
0.0916049
0.0914576
0.0913434
0.0912533
0.0911782
0.0911073
0.0910237
0.0908979
0.0906763
0.0902656
0.0895049
0.0881078
0.085512
0.0804343
0.0692805
0.0384611
0.0921413
0.0919465
0.0917418
0.091566
0.091427
0.0913195
0.0912347
0.0911637
0.0910961
0.0910151
0.0908916
0.0906723
0.0902638
0.0895056
0.0881114
0.0855196
0.0804474
0.0692995
0.0384513
0.0920697
0.0918831
0.0916897
0.0915245
0.0913945
0.0912941
0.0912149
0.0911484
0.0910842
0.0910061
0.090885
0.090668
0.0902618
0.0895062
0.0881153
0.0855276
0.0804613
0.06932
0.0384438
0.0919879
0.0918094
0.0916288
0.0914761
0.0913565
0.0912645
0.0911919
0.0911306
0.0910705
0.0909958
0.0908775
0.090663
0.0902595
0.0895066
0.0881189
0.0855356
0.0804752
0.0693406
0.0384384
0.0918866
0.0917186
0.0915543
0.0914171
0.0913105
0.0912287
0.0911642
0.0911091
0.0910541
0.0909834
0.0908685
0.0906569
0.0902562
0.0895063
0.0881219
0.0855428
0.080488
0.0693592
0.0384342
0.091768
0.0916144
0.0914698
0.0913506
0.0912586
0.0911884
0.0911329
0.0910849
0.0910354
0.0909693
0.0908581
0.0906497
0.0902519
0.0895048
0.0881236
0.0855484
0.0804986
0.0693745
0.0384304
0.0916643
0.0915256
0.0913984
0.0912945
0.0912147
0.091154
0.0911059
0.0910639
0.0910192
0.0909568
0.0908487
0.090643
0.0902474
0.0895025
0.0881236
0.0855512
0.0805057
0.069387
0.0384258
)
;

boundaryField
{
    leftWall
    {
        type            kqRWallFunction;
        value           nonuniform List<scalar> 
50
(
0.0184507
0.026693
0.0299257
0.0317727
0.0329571
0.0337728
0.0343742
0.0348549
0.0353026
0.0358259
0.0362732
0.0366781
0.0370533
0.0374024
0.0377259
0.0380232
0.0382937
0.0385374
0.0387548
0.0389474
0.0391216
0.0392985
0.0395178
0.0399309
0.0411483
0.0441361
0.0468966
0.0485314
0.0473385
0.0459124
0.0454412
0.0448826
0.044254
0.0435816
0.042902
0.042244
0.0416247
0.041052
0.0405288
0.0400557
0.0396307
0.0392512
0.0389201
0.03866
0.0385494
0.0388534
0.0404167
0.0454125
0.0582915
0.0882508
)
;
    }
    rightWall
    {
        type            kqRWallFunction;
        value           nonuniform List<scalar> 
50
(
0.0189573
0.0279208
0.0316636
0.0339061
0.0353898
0.0364088
0.0371195
0.037622
0.0381863
0.0385706
0.0387865
0.0389131
0.0389947
0.0390523
0.0390945
0.0391248
0.0391445
0.0391542
0.0391545
0.039146
0.0391293
0.0391054
0.0390751
0.0390392
0.0389988
0.0389548
0.038908
0.0388592
0.0388112
0.0387813
0.0387563
0.0387312
0.038705
0.0386778
0.0386504
0.0386232
0.0385968
0.0385715
0.0385477
0.0385258
0.038506
0.0384885
0.0384735
0.0384611
0.0384513
0.0384438
0.0384384
0.0384342
0.0384304
0.0384258
)
;
    }
    lowerWall
    {
        type            kqRWallFunction;
        value           nonuniform List<scalar> 
62
(
0.0184507
0.021684
0.0264012
0.0296202
0.0319056
0.0337239
0.0354151
0.0372552
0.0394876
0.0423311
0.0459628
0.0502345
0.0544536
0.0572926
0.057423
0.054961
0.0518461
0.0494131
0.0475455
0.0447455
0.0415132
0.0368571
0.0255658
0.0255658
0.044441
0.0531938
0.056881
0.0579245
0.0587017
0.0609892
0.0659589
0.0818622
0.0732194
0.0642613
0.0590595
0.0147613
0.0277158
0.0317801
0.0340979
0.036242
0.0395874
0.0458221
0.0556546
0.0147613
0.0217925
0.0252128
0.0263949
0.026559
0.0263
0.0260167
0.025793
0.0255816
0.0253868
0.0252057
0.0250312
0.0248501
0.0246346
0.0243182
0.0237327
0.0224785
0.0197354
0.0189573
)
;
    }
    atmosphere
    {
        type            inletOutlet;
        inletValue      uniform 0.1;
        value           nonuniform List<scalar> 
46
(
0.1
0.1
0.1
0.1
0.1
0.1
0.1
0.1
0.1
0.1
0.1
0.1
0.1
0.1
0.1
0.1
0.1
0.1
0.1
0.1
0.1
0.0932192
0.0923422
0.092059
0.0919339
0.0918434
0.0917708
0.0916643
0.0915256
0.0913984
0.0912945
0.0912147
0.091154
0.0911059
0.0910639
0.0910192
0.0909568
0.0908487
0.090643
0.0902474
0.0895025
0.0881236
0.0855512
0.0805057
0.069387
0.0384258
)
;
    }
    defaultFaces
    {
        type            empty;
    }
}


// ************************************************************************* //
