/*--------------------------------*- C++ -*----------------------------------*\
  =========                 |
  \\      /  F ield         | OpenFOAM: The Open Source CFD Toolbox
   \\    /   O peration     | Website:  https://openfoam.org
    \\  /    A nd           | Version:  9
     \\/     M anipulation  |
\*---------------------------------------------------------------------------*/
FoamFile
{
    format      ascii;
    class       volScalarField;
    location    "0.1";
    object      k;
}
// * * * * * * * * * * * * * * * * * * * * * * * * * * * * * * * * * * * * * //

dimensions      [0 2 -2 0 0 0 0];

internalField   nonuniform List<scalar> 
2268
(
0.0180893
0.0196558
0.022587
0.0251072
0.029616
0.0401495
0.0611992
0.0918561
0.115524
0.125163
0.125239
0.120196
0.110269
0.0969284
0.0824486
0.0695392
0.0596342
0.0526229
0.0475054
0.0430949
0.037675
0.0284161
0.0152026
0.0274748
0.0414495
0.0476935
0.0519232
0.0577759
0.06989
0.0939885
0.131163
0.18433
0.206198
0.197666
0.19042
0.182455
0.165525
0.143303
0.121983
0.104883
0.0931907
0.0858573
0.0804661
0.0726769
0.0558407
0.0277963
0.0325873
0.0540667
0.0629743
0.0691856
0.0765811
0.0893894
0.114581
0.16093
0.226773
0.278606
0.253708
0.225633
0.213031
0.19616
0.171467
0.146918
0.12609
0.111354
0.10226
0.0963316
0.0880918
0.0687977
0.0323672
0.0361004
0.0623057
0.072878
0.0801458
0.0878196
0.0990545
0.119624
0.157962
0.216896
0.288745
0.299297
0.250146
0.222958
0.206556
0.181874
0.157194
0.135223
0.119003
0.108809
0.102658
0.0948388
0.075824
0.0356662
0.0386069
0.0678775
0.0794416
0.0870542
0.0941999
0.103156
0.118033
0.146261
0.193607
0.261716
0.315025
0.276586
0.22605
0.206577
0.182145
0.158791
0.137361
0.12074
0.109739
0.103023
0.0953067
0.0782636
0.0397532
0.0404012
0.0717
0.0838711
0.0914566
0.0978184
0.104715
0.114983
0.134596
0.171033
0.229368
0.298364
0.301481
0.231431
0.202884
0.177484
0.155602
0.135648
0.119416
0.107885
0.100274
0.0923283
0.0784158
0.0471904
0.0416792
0.0743459
0.0869106
0.0943019
0.0998842
0.10516
0.112242
0.125848
0.153844
0.203953
0.273563
0.31558
0.243175
0.200352
0.171934
0.150679
0.132413
0.117084
0.105462
0.0972564
0.0898418
0.0795689
0.0593874
0.0425931
0.0762039
0.08904
0.0961905
0.101112
0.105225
0.110259
0.12019
0.142543
0.186298
0.252213
0.315407
0.259818
0.201951
0.168072
0.146062
0.129131
0.114955
0.103813
0.0959218
0.0904354
0.0837908
0.0730705
0.0145389
0.0204231
0.0234785
0.0250558
0.0258803
0.0263282
0.0266688
0.0268187
0.0268481
0.0268051
0.0267183
0.0265994
0.0264465
0.0262277
0.025852
0.0251039
0.0235283
0.0203457
0.0191112
0.0278868
0.0424396
0.0483944
0.0512536
0.0527585
0.0536326
0.0541169
0.0543864
0.0545373
0.0546117
0.0546354
0.0546102
0.0545133
0.0542634
0.053666
0.0522901
0.0492311
0.0425313
0.0279264
0.0337525
0.054346
0.0612265
0.0641462
0.0655296
0.0662946
0.0667058
0.0669447
0.0670833
0.0671527
0.0671697
0.0671271
0.0669858
0.0666385
0.0658498
0.064124
0.0604177
0.0522427
0.0313918
0.0379011
0.0627137
0.0697155
0.0723087
0.0733685
0.0739117
0.0741961
0.074365
0.0744639
0.0745086
0.0745039
0.0744327
0.0742427
0.0738102
0.0728802
0.0709328
0.0668575
0.057823
0.0333762
0.0416042
0.0699028
0.0763256
0.0782741
0.0788642
0.0791058
0.0792162
0.0792842
0.0793235
0.0793302
0.0792951
0.0791903
0.0789518
0.0784444
0.0774021
0.0752925
0.0709581
0.0613214
0.0346432
0.0456325
0.077321
0.0822075
0.0831022
0.0830703
0.0829375
0.082831
0.0827713
0.0827337
0.0826912
0.0826186
0.0824764
0.0821903
0.081616
0.0804798
0.0782401
0.0737007
0.0636047
0.0354851
0.0508852
0.0858201
0.0878995
0.0872651
0.0864782
0.0859184
0.0855669
0.0853619
0.0852356
0.0851357
0.0850204
0.0848384
0.0845057
0.0838706
0.0826532
0.080303
0.07559
0.0651282
0.0360525
0.0608417
0.0956008
0.0933415
0.0908847
0.0892929
0.0882978
0.0876982
0.087345
0.0871266
0.0869664
0.0868063
0.0865838
0.0862065
0.0855162
0.0842272
0.0817801
0.0769161
0.0661595
0.0364465
0.0436627
0.0782749
0.0913886
0.0982071
0.102399
0.105424
0.108752
0.115637
0.132682
0.168815
0.227969
0.302544
0.284217
0.211182
0.166771
0.141687
0.125666
0.113106
0.103302
0.0969086
0.0944193
0.0927371
0.084513
0.0442378
0.0790723
0.0922703
0.0988566
0.10268
0.105327
0.108221
0.114163
0.128752
0.159878
0.21311
0.287953
0.308402
0.236402
0.17527
0.141463
0.124071
0.11325
0.106047
0.102677
0.104236
0.11094
0.118874
0.0444286
0.0789525
0.0921155
0.0986065
0.10234
0.104985
0.107968
0.113791
0.12723
0.15521
0.204121
0.277442
0.326082
0.263934
0.189286
0.145153
0.124325
0.114027
0.108584
0.106744
0.108648
0.114002
0.119614
0.0443247
0.0782154
0.0912576
0.0977122
0.101482
0.104269
0.10749
0.113422
0.1262
0.151937
0.197209
0.267505
0.334791
0.288816
0.20481
0.151054
0.125689
0.114699
0.110044
0.108878
0.110358
0.113631
0.116459
0.0440322
0.0771231
0.0899687
0.0963785
0.100207
0.103152
0.106606
0.112665
0.124975
0.148975
0.19102
0.257193
0.335812
0.309633
0.219462
0.157826
0.127668
0.11513
0.110498
0.109526
0.110553
0.112426
0.113494
0.0436505
0.0758982
0.0884939
0.0948201
0.0986725
0.101731
0.105352
0.111489
0.123428
0.146091
0.185458
0.247081
0.329976
0.327014
0.232717
0.16483
0.129959
0.115355
0.110218
0.109139
0.109786
0.110809
0.110866
0.0432513
0.0746952
0.0870177
0.0932213
0.0970475
0.100153
0.103862
0.110014
0.121646
0.143339
0.180882
0.239836
0.322563
0.337862
0.244557
0.171806
0.132413
0.115477
0.109515
0.108157
0.108512
0.109064
0.108605
0.0428768
0.0736021
0.0856578
0.0917153
0.0954724
0.0985653
0.102287
0.108397
0.119758
0.140749
0.177125
0.234847
0.317999
0.34602
0.255119
0.178439
0.134936
0.115627
0.108672
0.106941
0.10707
0.107381
0.106704
0.0425462
0.072657
0.0844736
0.0903808
0.0940424
0.0970785
0.100757
0.106774
0.117879
0.138322
0.173885
0.230921
0.31451
0.351481
0.2635
0.184335
0.137468
0.115924
0.107907
0.105751
0.10569
0.105886
0.10515
0.0422646
0.0718652
0.083482
0.0892494
0.0928058
0.0957591
0.0993559
0.105247
0.116098
0.136078
0.170999
0.227498
0.311176
0.353642
0.269565
0.189458
0.140022
0.11645
0.107362
0.104748
0.104508
0.104645
0.103925
0.0420293
0.0712149
0.0826734
0.0883201
0.0917741
0.0946338
0.0981287
0.103873
0.114473
0.134043
0.168421
0.22445
0.308051
0.354063
0.274182
0.194073
0.142655
0.117253
0.107115
0.104025
0.103599
0.103692
0.103008
0.041835
0.0706869
0.0820255
0.0875737
0.0909353
0.0937017
0.0970881
0.10268
0.113039
0.132243
0.166156
0.221793
0.305317
0.354037
0.27816
0.198452
0.145418
0.118352
0.107205
0.103634
0.103006
0.103038
0.102377
0.0416759
0.0702613
0.0815126
0.0869837
0.0902664
0.0929469
0.0962282
0.101673
0.11181
0.130693
0.164221
0.219556
0.303082
0.354167
0.281965
0.202762
0.148324
0.119745
0.107656
0.10361
0.102754
0.10269
0.102017
0.0415475
0.0699203
0.0811106
0.0865234
0.0897418
0.092348
0.0955349
0.100847
0.11079
0.129405
0.162627
0.217759
0.301386
0.354695
0.285808
0.207046
0.151335
0.121411
0.108484
0.103984
0.102866
0.102652
0.101912
0.0414479
0.0696504
0.0807994
0.0861702
0.0893393
0.0918859
0.0949948
0.100197
0.109981
0.128383
0.161381
0.216403
0.300224
0.355684
0.289695
0.211188
0.154328
0.123303
0.109706
0.10479
0.103365
0.102925
0.102047
0.0413772
0.0694426
0.0805641
0.0859072
0.0890434
0.0915493
0.0946031
0.0997253
0.109394
0.127642
0.160479
0.215453
0.299504
0.356979
0.293349
0.214854
0.157078
0.125353
0.111342
0.106067
0.104269
0.103505
0.1024
0.0413468
0.0692889
0.080392
0.0857238
0.0888488
0.0913402
0.0943718
0.0994565
0.10906
0.127205
0.159915
0.214818
0.298997
0.358
0.296059
0.217434
0.159262
0.127488
0.113426
0.107849
0.105583
0.104368
0.102935
0.0413567
0.0691737
0.0802723
0.0856185
0.0887649
0.0912818
0.0943414
0.0994498
0.109054
0.127137
0.15968
0.214323
0.298276
0.357623
0.296596
0.218057
0.160528
0.129682
0.116012
0.110159
0.107284
0.105464
0.103592
0.0412841
0.0690641
0.0802037
0.0856057
0.0888225
0.0914276
0.0945952
0.0998213
0.109512
0.127558
0.159787
0.213697
0.296554
0.354164
0.293179
0.215725
0.160637
0.132024
0.119181
0.112988
0.109306
0.106706
0.104288
0.0411025
0.0689823
0.080213
0.0857224
0.0890824
0.0918766
0.0952812
0.100772
0.110677
0.128702
0.160341
0.212677
0.292869
0.345157
0.283642
0.209667
0.159726
0.134795
0.123014
0.116261
0.111518
0.107966
0.104918
0.0411776
0.0690509
0.0803574
0.0860293
0.0896463
0.0927936
0.0966428
0.102631
0.11296
0.131019
0.1617
0.211285
0.2867
0.327106
0.26636
0.200308
0.158862
0.138391
0.127417
0.119727
0.113683
0.109063
0.105352
0.0419916
0.069401
0.0806878
0.0865963
0.0906473
0.0943994
0.0990105
0.105869
0.117001
0.135349
0.164829
0.210234
0.27882
0.304455
0.24484
0.190417
0.159051
0.142834
0.132008
0.12296
0.115471
0.109787
0.105467
0.0433979
0.0700762
0.0811416
0.0874351
0.0921809
0.0968965
0.102729
0.11102
0.12363
0.143056
0.171927
0.211257
0.262065
0.269915
0.221951
0.182598
0.161259
0.147796
0.13608
0.125357
0.1165
0.109932
0.105166
0.0441645
0.0707623
0.0815749
0.0886512
0.0943862
0.100499
0.108149
0.118648
0.133752
0.15591
0.18785
0.224179
0.246173
0.235557
0.20287
0.179774
0.165334
0.152008
0.138501
0.12622
0.11642
0.109359
0.104413
0.0435068
0.0691189
0.0817772
0.0904299
0.0974492
0.10526
0.115101
0.1282
0.145906
0.169913
0.203129
0.233249
0.231925
0.213781
0.194332
0.181273
0.168172
0.153095
0.138018
0.125027
0.115072
0.108062
0.103255
0.0425784
0.0662045
0.0810225
0.0916096
0.100183
0.109368
0.12047
0.134399
0.151633
0.172032
0.194514
0.209255
0.207626
0.198148
0.18987
0.179547
0.165307
0.149242
0.134195
0.121847
0.112637
0.106208
0.101825
0.0417092
0.0645972
0.0800137
0.09153
0.101022
0.110534
0.121154
0.133438
0.147299
0.161672
0.174508
0.183068
0.186185
0.185369
0.180408
0.17003
0.155963
0.141177
0.127968
0.117402
0.109578
0.104077
0.100292
0.0409679
0.0647034
0.0803189
0.0916392
0.101013
0.109953
0.119272
0.129334
0.139989
0.150414
0.159388
0.166041
0.169757
0.169579
0.16467
0.155193
0.14332
0.13139
0.120952
0.112638
0.106419
0.10195
0.0988122
0.0403989
0.0655972
0.0813181
0.0921098
0.100824
0.108776
0.116626
0.124666
0.132809
0.140529
0.147002
0.151526
0.153495
0.152197
0.147482
0.139878
0.130924
0.12213
0.114457
0.108275
0.103539
0.100024
0.0974891
0.0399585
0.0663322
0.0819156
0.092127
0.10001
0.106837
0.113218
0.119419
0.125409
0.130842
0.13515
0.137788
0.138351
0.136548
0.132542
0.126976
0.120673
0.11453
0.109117
0.104654
0.10112
0.098393
0.0963706
0.0395832
0.0666561
0.0818822
0.0914734
0.0985119
0.104265
0.109332
0.113982
0.118236
0.121894
0.124604
0.126022
0.125922
0.124238
0.12118
0.117282
0.112986
0.108791
0.105024
0.101822
0.0991868
0.0970716
0.0954614
0.0392439
0.0667006
0.0814598
0.0904213
0.0966864
0.101525
0.105536
0.109006
0.112006
0.114448
0.11614
0.116896
0.116606
0.115285
0.11311
0.110412
0.107513
0.104644
0.102001
0.0996758
0.0976869
0.09603
0.0947427
0.0389411
0.0666366
0.0809064
0.0892765
0.0948814
0.0989952
0.102222
0.104861
0.107026
0.108703
0.109808
0.110249
0.109982
0.109038
0.107542
0.10569
0.103701
0.101699
0.0998004
0.0980723
0.0965403
0.0952239
0.0941873
0.0386805
0.0665653
0.0803728
0.0882224
0.0932894
0.0968539
0.0995227
0.101604
0.103239
0.104462
0.105247
0.105558
0.105381
0.104744
0.103728
0.102451
0.101044
0.0996063
0.0982008
0.0968797
0.0956728
0.0946113
0.0937703
0.0384639
0.0665277
0.0799233
0.0873333
0.0919744
0.0951315
0.0974116
0.0991271
0.100433
0.101391
0.102009
0.102277
0.102194
0.101783
0.101093
0.100199
0.0991798
0.0981107
0.0970356
0.0959976
0.0950277
0.0941616
0.0934762
0.0382902
0.0665362
0.079577
0.0866234
0.090931
0.093787
0.0957961
0.0972704
0.0983717
0.0991742
0.0997033
0.0999637
0.0999598
0.099708
0.0992408
0.0986042
0.0978508
0.0970327
0.0961899
0.0953588
0.0945712
0.0938623
0.0933051
0.0381576
0.0665934
0.0793321
0.0860788
0.0901237
0.0927543
0.0945702
0.0958807
0.0968488
0.0975553
0.0980342
0.0982975
0.0983526
0.0982123
0.0978989
0.097444
0.0968836
0.0962541
0.0955916
0.0949289
0.0942967
0.0937255
0.0932804
0.0380637
0.0666954
0.0791758
0.0856731
0.0895072
0.0919634
0.0936349
0.0948264
0.0957
0.0963392
0.0967826
0.097047
0.0971417
0.0970788
0.0968766
0.0965601
0.0961578
0.0956965
0.0952028
0.094708
0.0942328
0.0937975
0.0934583
0.0380043
0.0668299
0.0790881
0.0853749
0.0890351
0.0913494
0.0929041
0.0939989
0.0947943
0.0953752
0.0957837
0.0960399
0.0961559
0.0961451
0.0960271
0.0958281
0.0955778
0.0953013
0.0950152
0.0947411
0.0944573
0.0941709
0.0939358
0.0379721
0.0669765
0.0790455
0.0851536
0.0886653
0.0908561
0.0923058
0.0933099
0.0940283
0.0945476
0.0949129
0.0951477
0.0952673
0.0952884
0.0952353
0.0951433
0.0950566
0.0950169
0.0950444
0.0951428
0.0951177
0.0949929
0.0948513
0.0379572
0.0671105
0.0790264
0.0849837
0.0883652
0.0904429
0.0917916
0.0927047
0.0933425
0.0937939
0.0941072
0.0943093
0.0944185
0.0944548
0.0944484
0.0944475
0.094525
0.0947769
0.0952988
0.0961436
0.0964408
0.0964493
0.0963653
0.0379359
0.0671995
0.0789972
0.0848418
0.0881263
0.0901182
0.0913883
0.0922286
0.0928005
0.0931954
0.0934646
0.0936375
0.0937342
0.0937764
0.0937969
0.0938522
0.0940414
0.0945408
0.0956591
0.0981172
0.0985981
0.0986204
0.0985512
0.0788674
0.079828
0.0834689
0.0900246
0.12022
0.12063
0.122974
0.124887
0.120496
0.120058
0.119551
0.118877
0.11644
0.115763
0.114856
0.113832
0.112482
0.11135
0.11012
0.108999
0.109273
0.107879
0.106481
0.10531
0.106737
0.105223
0.10375
0.102562
0.104748
0.103201
0.101712
0.100527
0.103207
0.101673
0.100195
0.0990235
0.102037
0.100535
0.0990802
0.0979225
0.101182
0.0997137
0.0982789
0.0971297
0.1006
0.0991544
0.0977288
0.0965773
0.10026
0.098818
0.0973849
0.0962169
0.100136
0.0986752
0.0972141
0.096013
0.100207
0.0987008
0.0971894
0.095938
0.100447
0.0988682
0.0972847
0.0959672
0.10082
0.0991441
0.0974707
0.0960751
0.101274
0.0994845
0.097711
0.0962328
0.101742
0.0998327
0.0979614
0.0964065
0.102143
0.100123
0.0981713
0.096558
0.102378
0.100277
0.0982819
0.0966438
0.102358
0.100226
0.0982422
0.0966258
0.102025
0.0999333
0.0980263
0.0964867
0.101369
0.0993972
0.0976364
0.0962279
0.100442
0.0986626
0.0971059
0.0958718
0.0993433
0.0978079
0.0964908
0.0954555
0.0981938
0.096922
0.0958534
0.0950203
0.0970972
0.0960807
0.0952462
0.0946013
0.0961219
0.0953331
0.0947036
0.0942217
0.0952985
0.094701
0.0942412
0.093893
0.0946294
0.094186
0.0938607
0.0936174
0.094101
0.0937782
0.0935563
0.0933924
0.0936945
0.0934645
0.0933202
0.093215
0.0933937
0.0932345
0.0931477
0.0930851
0.0931912
0.0930861
0.093042
0.0930103
0.0930941
0.0930314
0.0930196
0.0930108
0.093132
0.0931038
0.0931176
0.093127
0.0933655
0.0933667
0.0934019
0.0934266
0.0938931
0.0939198
0.0939732
0.094011
0.0948485
0.094895
0.0949628
0.0950114
0.0963788
0.0964312
0.0965016
0.0965523
0.0985497
0.0985802
0.0986232
0.0986529
0.10027
0.108253
0.100417
0.0955688
0.0928517
0.0912334
0.0902745
0.0897029
0.0893469
0.089095
0.0888668
0.088584
0.0881423
0.0873743
0.0859858
0.0834018
0.0783251
0.0671884
0.0368294
0.122975
0.112552
0.104167
0.0989342
0.0956634
0.0936321
0.0923821
0.0916094
0.0911141
0.0907628
0.0904578
0.0901072
0.0895958
0.0887473
0.0872575
0.0845363
0.0792572
0.0678114
0.0371097
0.117217
0.111111
0.104843
0.100246
0.0970823
0.0949827
0.093621
0.0927413
0.0921568
0.0917344
0.0913708
0.0909678
0.0904033
0.0894947
0.0879309
0.0851131
0.0797044
0.0680942
0.0372911
0.112109
0.108177
0.10388
0.100275
0.0975443
0.0955998
0.0942661
0.0933627
0.0927388
0.0922755
0.0918741
0.0914351
0.0908337
0.0898837
0.0882706
0.0853927
0.0799134
0.0682334
0.0374352
0.107554
0.105121
0.102269
0.0996027
0.0974015
0.0957233
0.0945061
0.0936416
0.0930201
0.0925441
0.0921244
0.0916651
0.0910416
0.0900666
0.0884253
0.0855167
0.0800091
0.0683145
0.0375646
0.103998
0.102426
0.100551
0.0986405
0.0969356
0.0955494
0.0944884
0.0936994
0.093109
0.0926417
0.0922199
0.0917532
0.0911196
0.090133
0.0884798
0.0855622
0.0800536
0.068374
0.0376873
0.101315
0.100224
0.0989858
0.097636
0.0963418
0.0952238
0.0943233
0.0936237
0.0930798
0.0926346
0.0922219
0.0917575
0.0911229
0.0901345
0.0884814
0.0855692
0.0800763
0.0684271
0.0378059
0.0993145
0.098494
0.097665
0.0967132
0.0957359
0.0948414
0.0940859
0.0934746
0.0929821
0.0925658
0.0921688
0.0917131
0.0910839
0.0901007
0.0884557
0.0855582
0.0800905
0.06848
0.037921
0.0978306
0.0971622
0.0965944
0.0959179
0.0951752
0.0944567
0.0938227
0.0932906
0.0928479
0.0924624
0.0920845
0.0916413
0.0910216
0.0900483
0.0884167
0.0855394
0.0801027
0.0685352
0.0380326
0.0967357
0.0961479
0.0957441
0.0952548
0.0946812
0.0940965
0.0935598
0.0930949
0.0926971
0.0923414
0.0919837
0.0915549
0.0909474
0.0899869
0.0883718
0.0855182
0.0801157
0.0685935
0.0381402
0.0959343
0.0953797
0.0950751
0.0947106
0.0942566
0.0937714
0.0933106
0.0929007
0.0925419
0.0922137
0.0918757
0.0914622
0.0908682
0.0899222
0.0883256
0.0854976
0.0801311
0.0686553
0.0382433
0.0953565
0.0948006
0.0945503
0.0942665
0.0938957
0.0934834
0.0930809
0.0927154
0.0923896
0.0920858
0.0917666
0.0913684
0.0907887
0.0898582
0.0882809
0.0854795
0.0801497
0.0687203
0.0383414
0.0949515
0.0943674
0.094139
0.0939043
0.0935899
0.0932305
0.0928724
0.0925424
0.0922443
0.0919622
0.0916604
0.0912772
0.0907118
0.0897972
0.0882398
0.085465
0.0801718
0.0687882
0.0384341
0.0946823
0.0940476
0.0938172
0.0936084
0.093331
0.0930092
0.0926849
0.0923833
0.0921085
0.0918455
0.0915598
0.0911911
0.09064
0.0897413
0.0882036
0.0854551
0.0801978
0.0688587
0.038521
0.0945213
0.0938172
0.0935664
0.0933663
0.0931111
0.0928158
0.0925172
0.0922385
0.0919834
0.0917374
0.0914665
0.0911116
0.0905745
0.0896915
0.0881732
0.0854502
0.0802274
0.068931
0.0386016
0.0944457
0.0936574
0.0933722
0.0931678
0.092924
0.0926467
0.0923677
0.0921077
0.0918695
0.0916385
0.0913815
0.0910398
0.0905163
0.0896486
0.088149
0.0854505
0.0802606
0.0690045
0.0386757
0.0944353
0.0935527
0.0932231
0.0930046
0.092764
0.0924985
0.0922346
0.0919902
0.0917668
0.0915495
0.0913053
0.0909762
0.0904659
0.089613
0.0881313
0.0854558
0.0802969
0.0690783
0.038743
0.0944703
0.0934899
0.0931095
0.09287
0.0926267
0.0923684
0.0921163
0.0918851
0.0916749
0.0914701
0.091238
0.090921
0.0904234
0.0895846
0.0881198
0.0854659
0.0803356
0.0691518
0.0388034
0.0945304
0.0934569
0.0930232
0.0927582
0.0925079
0.0922538
0.0920112
0.0917916
0.0915933
0.0914003
0.0911795
0.090874
0.0903885
0.0895632
0.0881142
0.0854801
0.0803761
0.0692239
0.0388567
0.0945947
0.0934424
0.0929567
0.0926639
0.0924044
0.0921524
0.0919179
0.0917088
0.0915216
0.0913394
0.0911295
0.0908349
0.0903608
0.0895482
0.0881138
0.0854978
0.0804176
0.0692938
0.0389029
0.0946435
0.0934366
0.0929034
0.0925826
0.0923128
0.0920621
0.091835
0.0916357
0.0914588
0.091287
0.0910872
0.0908029
0.0903397
0.0895388
0.0881178
0.085518
0.0804589
0.0693604
0.0389422
0.0946498
0.093425
0.0928558
0.0925102
0.0922308
0.0919813
0.0917612
0.0915713
0.0914043
0.0912422
0.0910521
0.0907775
0.0903244
0.0895343
0.0881252
0.0855398
0.0804991
0.0694226
0.0389745
0.0946021
0.0933982
0.0928077
0.0924424
0.0921555
0.0919082
0.0916954
0.0915147
0.0913572
0.0912044
0.0910232
0.0907576
0.0903139
0.0895335
0.0881351
0.085562
0.0805368
0.0694791
0.0390007
0.0944989
0.0933527
0.092756
0.0923772
0.0920853
0.0918413
0.0916363
0.0914648
0.0913166
0.0911725
0.0909997
0.0907425
0.0903071
0.0895355
0.0881463
0.0855834
0.0805709
0.0695286
0.0390228
0.0943481
0.0932887
0.0926994
0.0923134
0.0920194
0.09178
0.091583
0.0914208
0.0912814
0.0911456
0.0909806
0.090731
0.0903033
0.0895393
0.0881577
0.0856029
0.0806001
0.06957
0.0390443
0.0941645
0.0932095
0.0926379
0.0922505
0.0919574
0.0917236
0.0915351
0.0913819
0.0912511
0.091123
0.0909652
0.0907223
0.0903012
0.0895437
0.0881683
0.0856195
0.0806234
0.0696015
0.0390703
0.0939651
0.0931198
0.0925725
0.0921883
0.0918987
0.0916718
0.0914921
0.0913476
0.0912249
0.0911041
0.0909527
0.090716
0.0903007
0.0895487
0.0881783
0.085634
0.0806425
0.0696261
0.0390911
0.093765
0.0930245
0.0925044
0.0921271
0.0918433
0.0916243
0.0914533
0.0913175
0.0912024
0.0910882
0.0909428
0.0907115
0.0903014
0.0895541
0.0881878
0.085647
0.0806587
0.0696461
0.0391043
0.0935752
0.0929279
0.0924354
0.0920676
0.0917913
0.0915808
0.0914188
0.0912911
0.0911831
0.091075
0.0909349
0.0907085
0.0903029
0.0895596
0.0881966
0.0856583
0.0806721
0.0696617
0.0391104
0.0934019
0.0928333
0.0923671
0.0920106
0.0917432
0.0915418
0.0913884
0.0912685
0.091167
0.0910644
0.0909291
0.090707
0.0903052
0.0895652
0.0882047
0.085668
0.0806828
0.0696731
0.0391101
0.0932482
0.0927435
0.0923017
0.0919576
0.0917001
0.091508
0.0913631
0.0912504
0.0911549
0.0910573
0.0909261
0.0907077
0.0903091
0.0895717
0.0882129
0.0856768
0.0806914
0.0696806
0.0391042
0.0931156
0.0926614
0.0922421
0.0919112
0.0916643
0.0914816
0.0913448
0.0912388
0.0911488
0.0910555
0.0909281
0.0907127
0.0903168
0.0895813
0.0882233
0.0856865
0.0806991
0.0696853
0.0390936
0.0930063
0.092592
0.0921933
0.0918762
0.0916403
0.091467
0.091338
0.0912384
0.0911533
0.091064
0.0909397
0.0907272
0.0903334
0.0895992
0.0882409
0.0857019
0.0807099
0.0696895
0.0390794
0.0929261
0.0925435
0.0921643
0.0918614
0.091637
0.0914731
0.0913517
0.091258
0.0911776
0.091092
0.0909709
0.090761
0.0903694
0.0896361
0.0882768
0.0857335
0.080733
0.0696994
0.0390636
0.0928877
0.0925313
0.0921711
0.0918831
0.0916707
0.0915163
0.0914026
0.0913148
0.0912391
0.0911573
0.0910396
0.0908329
0.0904444
0.0897134
0.0883537
0.0858049
0.0807907
0.0697316
0.0390516
0.092916
0.0925828
0.0922419
0.0919699
0.0917703
0.0916261
0.0915203
0.0914388
0.0913682
0.0912909
0.0911778
0.0909764
0.0905941
0.0898698
0.0885151
0.085965
0.0809347
0.0698312
0.0390602
0.0930549
0.0927441
0.0924239
0.0921695
0.091984
0.0918511
0.0917542
0.0916798
0.0916153
0.091544
0.0914378
0.091246
0.0908773
0.0901715
0.0888392
0.0863091
0.0812796
0.070117
0.0391471
0.0933748
0.0930871
0.0927898
0.0925554
0.0923861
0.0922661
0.0921795
0.0921137
0.092057
0.091994
0.0918989
0.091724
0.0913828
0.0907203
0.0894516
0.0870048
0.0820576
0.0708838
0.0395216
0.0939776
0.0937143
0.093443
0.0932318
0.0930815
0.0929766
0.0929023
0.0928469
0.0928001
0.0927485
0.0926699
0.0925228
0.0922307
0.0916535
0.0905272
0.088306
0.0836788
0.0727932
0.0409244
0.0949934
0.0947557
0.0945153
0.0943326
0.0942053
0.0941185
0.0940585
0.0940152
0.09398
0.0939426
0.0938858
0.0937783
0.0935611
0.0931243
0.0922559
0.090502
0.0867005
0.0770581
0.0455538
0.0965417
0.0963401
0.0961455
0.0960025
0.0959055
0.0958407
0.0957971
0.0957668
0.0957437
0.095721
0.0956884
0.0956274
0.0955036
0.0952526
0.0947504
0.0937296
0.0914624
0.0850755
0.0584457
0.0986382
0.0985169
0.0984098
0.0983346
0.0982847
0.0982517
0.0982296
0.0982146
0.0982039
0.0981949
0.0981843
0.0981668
0.0981328
0.0980662
0.097939
0.0977047
0.0972738
0.096261
0.088974
)
;

boundaryField
{
    leftWall
    {
        type            kqRWallFunction;
        value           nonuniform List<scalar> 
50
(
0.0180893
0.0274748
0.0325873
0.0361004
0.0386069
0.0404012
0.0416792
0.0425931
0.0436627
0.0442378
0.0444286
0.0443247
0.0440322
0.0436505
0.0432513
0.0428768
0.0425462
0.0422646
0.0420293
0.041835
0.0416759
0.0415475
0.0414479
0.0413772
0.0413468
0.0413567
0.0412841
0.0411025
0.0411776
0.0419916
0.0433979
0.0441645
0.0435068
0.0425784
0.0417092
0.0409679
0.0403989
0.0399585
0.0395832
0.0392439
0.0389411
0.0386805
0.0384639
0.0382902
0.0381576
0.0380637
0.0380043
0.0379721
0.0379572
0.0379359
)
;
    }
    rightWall
    {
        type            kqRWallFunction;
        value           nonuniform List<scalar> 
50
(
0.0191112
0.0279264
0.0313918
0.0333762
0.0346432
0.0354851
0.0360525
0.0364465
0.0368294
0.0371097
0.0372911
0.0374352
0.0375646
0.0376873
0.0378059
0.037921
0.0380326
0.0381402
0.0382433
0.0383414
0.0384341
0.038521
0.0386016
0.0386757
0.038743
0.0388034
0.0388567
0.0389029
0.0389422
0.0389745
0.0390007
0.0390228
0.0390443
0.0390703
0.0390911
0.0391043
0.0391104
0.0391101
0.0391042
0.0390936
0.0390794
0.0390636
0.0390516
0.0390602
0.0391471
0.0395216
0.0409244
0.0455538
0.0584457
0.088974
)
;
    }
    lowerWall
    {
        type            kqRWallFunction;
        value           nonuniform List<scalar> 
62
(
0.0180893
0.0196558
0.022587
0.0251072
0.029616
0.0401495
0.0611992
0.0918561
0.115524
0.125163
0.125239
0.120196
0.110269
0.0969284
0.0824486
0.0695392
0.0596342
0.0526229
0.0475054
0.0430949
0.037675
0.0284161
0.0152026
0.0152026
0.0277963
0.0323672
0.0356662
0.0397532
0.0471904
0.0593874
0.0730705
0.0788674
0.079828
0.0834689
0.0900246
0.0145389
0.0278868
0.0337525
0.0379011
0.0416042
0.0456325
0.0508852
0.0608417
0.0145389
0.0204231
0.0234785
0.0250558
0.0258803
0.0263282
0.0266688
0.0268187
0.0268481
0.0268051
0.0267183
0.0265994
0.0264465
0.0262277
0.025852
0.0251039
0.0235283
0.0203457
0.0191112
)
;
    }
    atmosphere
    {
        type            inletOutlet;
        inletValue      uniform 0.1;
        value           nonuniform List<scalar> 
46
(
0.0379359
0.0671995
0.0789972
0.0848418
0.0881263
0.0901182
0.0913883
0.0922286
0.0928005
0.0931954
0.0934646
0.0936375
0.0937342
0.0937764
0.0937969
0.0938522
0.0940414
0.0945408
0.0956591
0.1
0.1
0.1
0.1
0.1
0.1
0.1
0.1
0.1
0.1
0.1
0.1
0.1
0.1
0.1
0.1
0.1
0.1
0.1
0.1
0.1
0.1
0.1
0.1
0.1
0.1
0.1
)
;
    }
    defaultFaces
    {
        type            empty;
    }
}


// ************************************************************************* //
