/*--------------------------------*- C++ -*----------------------------------*\
  =========                 |
  \\      /  F ield         | OpenFOAM: The Open Source CFD Toolbox
   \\    /   O peration     | Website:  https://openfoam.org
    \\  /    A nd           | Version:  9
     \\/     M anipulation  |
\*---------------------------------------------------------------------------*/
FoamFile
{
    format      ascii;
    class       volScalarField;
    location    "0.1";
    object      p;
}
// * * * * * * * * * * * * * * * * * * * * * * * * * * * * * * * * * * * * * //

dimensions      [1 -1 -2 0 0 0 0];

internalField   nonuniform List<scalar> 
2268
(
-280.569
-276.955
-258.439
-226.396
-187.423
-124.759
-22.1239
-7.33914
-6.66621
-6.78652
-6.56045
-5.97153
-5.31082
-4.73021
-4.27145
-3.92913
-3.67207
-3.47924
-3.33618
-3.23996
-3.20076
-3.2221
-3.29293
-222.227
-217.442
-197.549
-164.439
-124.169
-64.6053
2.4659
-4.28135
-6.46325
-6.88388
-6.6579
-6.02819
-5.34233
-4.74426
-4.26996
-3.91562
-3.64974
-3.45184
-3.30609
-3.20707
-3.16142
-3.17726
-3.24325
-171.098
-167.518
-148.817
-117.256
-79.5925
-36.8472
-5.65002
-5.47546
-6.47084
-6.85881
-6.68632
-6.08685
-5.38611
-4.77115
-4.27862
-3.91102
-3.63358
-3.42795
-3.2774
-3.17342
-3.11947
-3.13239
-3.20143
-127.195
-127.186
-112.244
-84.8813
-52.6593
-25.6291
-15.0989
-7.75731
-6.58336
-6.82867
-6.64108
-6.07368
-5.38888
-4.77319
-4.26776
-3.89297
-3.60726
-3.39498
-3.23983
-3.13094
-3.06968
-3.08622
-3.16741
-89.7893
-94.0613
-84.1523
-62.2126
-36.0622
-18.6409
-21.1575
-12.5265
-7.104
-6.78302
-6.5449
-5.98128
-5.32829
-4.7407
-4.23171
-3.85709
-3.56813
-3.35181
-3.19368
-3.0813
-3.01305
-3.03652
-3.13838
-58.3731
-66.5861
-62.0744
-45.9183
-25.6257
-12.6229
-20.7618
-22.2485
-9.43314
-6.78948
-6.36847
-5.87206
-5.20045
-4.67263
-4.17294
-3.80549
-3.51802
-3.30013
-3.14048
-3.02538
-2.94779
-2.9778
-3.12203
-32.3444
-43.8216
-44.6529
-34.2724
-19.4947
-9.09353
-15.5579
-27.5814
-17.2359
-7.52002
-6.12245
-5.78606
-5.00334
-4.5654
-4.09313
-3.73958
-3.45817
-3.24128
-3.08103
-2.96169
-2.87121
-2.91205
-3.14546
-10.959
-24.8351
-30.4765
-25.477
-15.5717
-7.64816
-10.8523
-22.4782
-24.1642
-11.5866
-6.30754
-5.62267
-4.74366
-4.41472
-3.99606
-3.6625
-3.39126
-3.17791
-3.0169
-2.89004
-2.78687
-2.8341
-3.14038
-1.84083
-1.84081
-1.83422
-1.81885
-1.79679
-1.77026
-1.74155
-1.71236
-1.684
-1.65729
-1.63282
-1.61097
-1.59203
-1.57626
-1.5638
-1.55483
-1.54926
-1.54684
-1.54687
-1.78126
-1.78079
-1.77465
-1.75973
-1.73815
-1.71194
-1.68345
-1.65443
-1.62619
-1.59955
-1.57511
-1.55329
-1.53436
-1.51859
-1.50609
-1.49702
-1.49124
-1.48848
-1.4882
-1.72471
-1.72309
-1.71694
-1.70161
-1.68008
-1.65397
-1.6256
-1.59667
-1.56849
-1.54188
-1.51745
-1.49561
-1.47665
-1.46083
-1.44823
-1.43897
-1.43286
-1.42971
-1.42919
-1.67221
-1.66868
-1.6622
-1.64535
-1.62306
-1.59649
-1.56787
-1.5388
-1.51052
-1.48384
-1.45934
-1.43742
-1.41837
-1.40242
-1.38967
-1.38016
-1.37375
-1.37038
-1.36982
-1.62525
-1.61771
-1.61068
-1.59107
-1.56714
-1.5395
-1.51022
-1.48074
-1.45221
-1.42535
-1.4007
-1.37863
-1.35942
-1.3433
-1.33034
-1.32061
-1.314
-1.31056
-1.3101
-1.58685
-1.57045
-1.56264
-1.53882
-1.51227
-1.48295
-1.45262
-1.42248
-1.39353
-1.36638
-1.34149
-1.31921
-1.29979
-1.28346
-1.2703
-1.26038
-1.25367
-1.2503
-1.24996
-1.5626
-1.52922
-1.51866
-1.48881
-1.45846
-1.4268
-1.39501
-1.36398
-1.33444
-1.30689
-1.2817
-1.25915
-1.23949
-1.22293
-1.20957
-1.19952
-1.1928
-1.18957
-1.18937
-1.56501
-1.50466
-1.47947
-1.44128
-1.40572
-1.37103
-1.33741
-1.30524
-1.27498
-1.24695
-1.22139
-1.19854
-1.17861
-1.16181
-1.14826
-1.13811
-1.13145
-1.12839
-1.1283
16.2416
0.462752
-10.6693
-12.4193
-8.54283
-4.09188
-4.25481
-10.1981
-16.6512
-13.6867
-6.9714
-5.0675
-4.31959
-4.12246
-3.81726
-3.52485
-3.27531
-3.07123
-2.90808
-2.7695
-2.65888
-2.64777
-2.66587
41.2328
24.8103
10.8257
4.60067
3.90921
5.10333
5.10596
1.80999
-6.53287
-14.2155
-7.54085
-4.03296
-3.80285
-3.74538
-3.54166
-3.30588
-3.08887
-2.89988
-2.73789
-2.59584
-2.47964
-2.39506
-2.25163
56.0143
39.7757
24.661
15.9519
12.486
11.4655
10.4398
7.18596
-1.61667
-12.38
-7.4708
-3.36585
-3.40937
-3.40915
-3.26612
-3.07155
-2.8796
-2.7034
-2.54464
-2.40043
-2.27214
-2.15485
-2.01126
62.924
47.5538
32.3743
22.2676
16.8798
14.0913
11.8395
8.00917
-0.571914
-11.2799
-7.82187
-2.98306
-3.16946
-3.14718
-3.01435
-2.83612
-2.65675
-2.48884
-2.33419
-2.19076
-2.05685
-1.9282
-1.7909
64.4186
50.4626
36.0939
25.5471
18.9972
14.885
11.4958
7.00188
-1.24946
-11.2338
-8.82207
-2.88893
-3.13785
-2.95232
-2.77898
-2.59879
-2.4237
-2.26169
-2.1121
-1.97222
-1.8396
-1.71219
-1.58464
62.3549
50.0195
36.9315
26.614
19.5355
14.5738
10.3343
5.33105
-2.52042
-11.8975
-10.571
-3.31144
-3.12576
-2.67977
-2.51062
-2.34341
-2.17715
-2.02383
-1.88193
-1.74842
-1.62122
-1.49993
-1.38237
58.0189
47.2739
35.6184
25.9107
18.7546
13.3636
8.62951
3.39053
-3.94853
-12.736
-12.5437
-3.95202
-2.71653
-2.30521
-2.19947
-2.06416
-1.91677
-1.77744
-1.64637
-1.52166
-1.40228
-1.28899
-1.18104
52.3663
43.0897
32.8546
23.9531
17.0318
11.5599
6.67496
1.48376
-5.21673
-13.2556
-13.848
-4.40628
-2.12434
-1.9199
-1.87466
-1.77281
-1.64913
-1.52665
-1.40813
-1.29357
-1.18314
-1.07841
-0.979436
46.0987
38.1341
29.2249
21.2117
14.7341
9.44806
4.69441
-0.211684
-6.17682
-13.3252
-14.4195
-4.79087
-1.70711
-1.58065
-1.56109
-1.48451
-1.38222
-1.27576
-1.16972
-1.06549
-0.964183
-0.867877
-0.777144
39.6831
32.8614
25.15
18.0391
12.1341
7.22064
2.79989
-1.65521
-6.83677
-13.0415
-14.4107
-5.09003
-1.3867
-1.27778
-1.26655
-1.20652
-1.12067
-1.02779
-0.933005
-0.838437
-0.745773
-0.657371
-0.574112
33.3937
27.5552
20.9115
14.6817
9.42015
4.99802
1.03749
-2.87231
-7.26727
-12.5328
-13.9974
-5.24484
-1.09692
-0.997323
-0.989329
-0.939955
-0.86624
-0.784294
-0.699098
-0.613076
-0.52822
-0.446986
-0.370443
27.3732
22.3818
16.6901
11.303
6.71524
2.85062
-0.580894
-3.90581
-7.54407
-11.9076
-13.3196
-5.24475
-0.822559
-0.73266
-0.726236
-0.683965
-0.619198
-0.545817
-0.468484
-0.389721
-0.311666
-0.23677
-0.166216
21.6834
17.4296
12.5898
7.99899
4.08911
0.811294
-2.0632
-4.79771
-7.72555
-11.2471
-12.4958
-5.10803
-0.56002
-0.4805
-0.474904
-0.437461
-0.379217
-0.312338
-0.241199
-0.16837
-0.0960554
-0.0266507
0.0386056
16.341
12.7319
8.65557
4.81164
1.56872
-1.11484
-3.42797
-5.58547
-7.85647
-10.6166
-11.6456
-4.88311
-0.308617
-0.239205
-0.233981
-0.19966
-0.145889
-0.0836077
-0.0170357
0.0511838
0.118815
0.183553
0.24416
11.2978
8.26367
4.87718
1.7357
-0.857066
-2.94967
-4.70756
-6.30972
-7.9803
-10.0772
-10.8904
-4.64145
-0.0694853
-0.00850154
-0.0031098
0.0297231
0.0810484
0.140686
0.20437
0.269313
0.333279
0.394109
0.450639
6.51158
3.99002
1.21902
-1.26816
-3.23528
-4.74948
-5.96257
-7.02937
-8.14644
-9.67448
-10.3214
-4.44975
0.15493
0.210559
0.217151
0.250527
0.30176
0.360965
0.423585
0.486602
0.547847
0.60541
0.658302
1.90256
-0.20075
-2.42962
-4.27541
-5.6288
-6.57872
-7.25919
-7.80355
-8.38857
-9.39545
-9.923
-4.32588
0.357979
0.415495
0.425665
0.462463
0.516583
0.577934
0.641455
0.703877
0.763219
0.81798
0.867503
-2.89907
-4.56774
-6.15999
-7.29286
-8.02485
-8.41908
-8.57767
-8.60504
-8.63367
-9.00909
-9.20387
-4.04662
0.536676
0.603491
0.621351
0.665803
0.726614
0.792944
0.859301
0.92227
0.980274
1.03244
1.07864
-6.95813
-8.43583
-9.40153
-9.99702
-10.2404
-10.1493
-9.82986
-9.36551
-8.79473
-8.26159
-7.44918
-3.07687
0.701637
0.772905
0.803208
0.861894
0.934316
1.00854
1.07927
1.14341
1.20014
1.24951
1.29211
-8.66328
-10.9618
-12.272
-13.0854
-13.1585
-12.6989
-11.9688
-11.0661
-9.91139
-8.25945
-5.43364
-0.919785
0.869575
0.919406
0.969563
1.05453
1.1443
1.22892
1.30467
1.36962
1.4243
1.47007
1.50838
-15.1431
-20.5263
-22.6073
-23.4951
-22.9696
-21.7809
-20.4721
-19.1472
-17.5947
-15.111
-9.48966
0.0785286
0.977777
1.03333
1.12509
1.25286
1.36521
1.4606
1.53983
1.60352
1.65425
1.69491
1.72787
-30.7296
-35.699
-34.6698
-32.8413
-30.5569
-28.6986
-27.5886
-27.0643
-26.7872
-25.9014
-20.1944
-2.40362
1.46317
1.16219
1.30069
1.47913
1.61163
1.71228
1.78941
1.84735
1.89091
1.9243
1.95053
-17.889
-14.4885
-9.35306
-6.49339
-4.65576
-3.84827
-3.93498
-4.67873
-5.88278
-7.50599
-7.99507
0.864909
2.23385
1.45482
1.56902
1.76198
1.90002
1.99228
2.05666
2.10192
2.13408
2.15767
2.1757
4.7971
2.9903
4.2742
4.53129
4.70213
4.75985
4.70712
4.56076
4.33316
3.88419
2.55247
2.60726
2.55171
2.09431
2.04891
2.15169
2.24453
2.3026
2.34015
2.36506
2.38172
2.39331
2.40198
5.3194
4.52645
5.01118
5.04761
5.05498
5.03004
4.96224
4.84634
4.66493
4.34511
3.7501
3.42961
3.1331
2.8129
2.63135
2.60785
2.619
2.62627
2.6295
2.63041
2.62973
2.62847
2.62743
5.40527
5.0886
5.19887
5.19345
5.17169
5.1336
5.06629
4.9609
4.8033
4.57234
4.26568
3.96193
3.68207
3.37461
3.14288
3.03069
2.97494
2.93818
2.91099
2.89002
2.87328
2.86003
2.84987
5.37056
5.26403
5.26518
5.24317
5.21335
5.16934
5.10173
5.00426
4.86962
4.69131
4.47031
4.2253
3.97818
3.71602
3.50858
3.37486
3.28721
3.22369
3.17548
3.13808
3.10857
3.0854
3.06747
5.33374
5.30278
5.28545
5.26048
5.22777
5.18089
5.11383
5.02236
4.90237
4.75003
4.56632
4.36543
4.16086
3.95792
3.78606
3.65551
3.55688
3.48031
3.41994
3.37191
3.33345
3.3029
3.27891
5.31656
5.30955
5.29384
5.27073
5.23809
5.19136
5.12667
5.04142
4.93373
4.80256
4.65018
4.48581
4.31863
4.15589
4.01095
3.89003
3.79127
3.71067
3.64484
3.59108
3.54719
3.51176
3.48347
5.31498
5.31508
5.3031
5.28253
5.25144
5.20681
5.1463
5.06861
4.97333
4.86103
4.7342
4.5984
4.45991
4.32487
4.20059
4.09159
3.99814
3.9189
3.85222
3.79643
3.75
3.71187
3.68093
5.32199
5.3241
5.31513
5.29691
5.26793
5.22645
5.17129
5.10194
5.01872
4.92277
4.8163
4.70298
4.58722
4.47352
4.36661
4.26976
4.184
4.10915
4.04458
3.9894
3.94262
3.90358
3.87139
5.3354
5.33803
5.33106
5.31485
5.28831
5.25062
5.20132
5.14037
5.06839
4.98663
4.89692
4.80188
4.70458
4.60831
4.51632
4.4311
4.35389
4.285
4.22435
4.17154
4.12604
4.08748
4.05523
5.35448
5.35723
5.35153
5.33712
5.31332
5.27979
5.23643
5.18351
5.12177
5.05236
4.97678
4.89692
4.81499
4.73339
4.65445
4.5801
4.51156
4.44937
4.39367
4.3444
4.30131
4.26431
4.23295
5.37876
5.38135
5.37646
5.36382
5.34296
5.31368
5.2761
5.23067
5.17819
5.11964
5.05619
4.98924
4.92041
4.85144
4.78409
4.71983
4.65976
4.60452
4.55435
4.50935
4.46948
4.43482
4.4051
5.40761
5.4098
5.40554
5.39468
5.37677
5.35165
5.31957
5.28113
5.23706
5.18817
5.13534
5.07961
5.02216
4.96431
4.90734
4.85245
4.80054
4.75226
4.7079
4.66761
4.6315
4.59977
4.57226
5.44039
5.44215
5.43853
5.42941
5.41431
5.39315
5.3663
5.33437
5.29798
5.25777
5.21436
5.16853
5.12116
5.07321
5.02568
4.9795
4.93542
4.89401
4.85557
4.82027
4.78826
4.75985
4.73497
5.47672
5.47821
5.47526
5.46777
5.45529
5.43787
5.41594
5.39005
5.36069
5.3283
5.29334
5.25636
5.21801
5.17902
5.14018
5.10217
5.06561
5.03095
4.99847
4.96828
4.94057
4.91573
4.89379
5.51646
5.51781
5.51551
5.50949
5.49944
5.48555
5.46823
5.44792
5.42497
5.39966
5.37232
5.34333
5.31318
5.28243
5.25165
5.22138
5.19207
5.16407
5.13755
5.1125
5.08915
5.06803
5.04922
5.5594
5.56061
5.55887
5.55418
5.54643
5.53586
5.52284
5.50766
5.49056
5.47171
5.45131
5.42964
5.40704
5.38393
5.36074
5.33785
5.31559
5.29417
5.27367
5.25372
5.23465
5.21729
5.20176
5.60511
5.60608
5.60475
5.60126
5.59564
5.58818
5.57915
5.56872
5.55701
5.54412
5.53015
5.51528
5.49976
5.48388
5.46794
5.4522
5.43688
5.42219
5.40799
5.39292
5.37759
5.36383
5.35166
5.65311
5.65363
5.65246
5.64993
5.64624
5.64166
5.63634
5.63036
5.62372
5.61645
5.60859
5.60023
5.59152
5.58264
5.57376
5.56509
5.55686
5.54948
5.54284
5.53211
5.51875
5.50808
5.49917
5.70243
5.70233
5.70148
5.70025
5.6988
5.69724
5.69559
5.69385
5.69199
5.68998
5.68781
5.68551
5.68313
5.68073
5.6784
5.67626
5.67455
5.67406
5.67573
5.67213
5.66057
5.65395
5.64936
-2.37643
-2.26187
-2.20088
-2.09411
-2.0609
-1.95172
-1.84209
-1.72195
-1.87996
-1.79123
-1.69773
-1.5998
-1.67436
-1.59475
-1.51431
-1.43725
-1.48175
-1.4105
-1.33839
-1.27107
-1.28984
-1.22539
-1.16013
-1.09984
-1.09725
-1.03871
-0.979336
-0.924676
-0.903227
-0.84994
-0.795804
-0.745977
-0.707638
-0.659061
-0.609653
-0.56412
-0.510557
-0.466195
-0.42106
-0.379403
-0.312182
-0.271583
-0.230287
-0.192131
-0.112694
-0.0754602
-0.0376042
-0.00259572
0.0878718
0.122069
0.156823
0.188991
0.2896
0.321037
0.352955
0.382518
0.492615
0.521519
0.550809
0.57794
0.697078
0.723613
0.750421
0.775241
0.903214
0.927459
0.951858
0.974423
1.11128
1.13322
1.1552
1.17549
1.32148
1.341
1.36046
1.37842
1.53406
1.55093
1.56769
1.58316
1.74929
1.76319
1.77696
1.78971
1.96705
1.97761
1.98806
1.99782
2.18664
2.1935
2.20034
2.20687
2.4069
2.40985
2.41287
2.41603
2.62627
2.62529
2.62452
2.62433
2.84304
2.8384
2.83406
2.83072
3.05572
3.04788
3.0404
3.03426
3.2632
3.25275
3.24267
3.23419
3.46482
3.45238
3.44031
3.42999
3.6603
3.64649
3.63302
3.62139
3.84968
3.83509
3.82077
3.8083
4.03322
4.01835
4.00368
3.99081
4.21129
4.19658
4.182
4.1691
4.38434
4.37016
4.35602
4.34343
4.55284
4.5395
4.52611
4.51411
4.71724
4.70498
4.69261
4.68144
4.87801
4.86703
4.85589
4.84576
5.03558
5.02605
5.01633
5.00745
5.19045
5.18251
5.17438
5.1669
5.34294
5.33677
5.33037
5.32435
5.49268
5.4882
5.48359
5.47927
5.64611
5.64392
5.64167
5.63948
-1.6912
-1.49855
-1.42287
-1.36883
-1.32391
-1.28383
-1.24701
-1.21289
-1.18137
-1.15249
-1.12631
-1.10297
-1.08263
-1.06546
-1.05164
-1.04137
-1.03482
-1.032
-1.03203
-1.54876
-1.42502
-1.33267
-1.26363
-1.20888
-1.16248
-1.12158
-1.08482
-1.05157
-1.02151
-0.994504
-0.970534
-0.949691
-0.932135
-0.918073
-0.90774
-0.901323
-0.898698
-0.898847
-1.45066
-1.32348
-1.2256
-1.14925
-1.08804
-1.03683
-0.99255
-0.953489
-0.918675
-0.887543
-0.859785
-0.835284
-0.81407
-0.796287
-0.78215
-0.771892
-0.765648
-0.763186
-0.763403
-1.32143
-1.20097
-1.10328
-1.02447
-0.960007
-0.905853
-0.859271
-0.818525
-0.782519
-0.750561
-0.722241
-0.697373
-0.675944
-0.658081
-0.643989
-0.633875
-0.627807
-0.625461
-0.625701
-1.17221
-1.06191
-0.96824
-0.890081
-0.82478
-0.769362
-0.721576
-0.679854
-0.643123
-0.610662
-0.58202
-0.556975
-0.535486
-0.517661
-0.503687
-0.493734
-0.48781
-0.485536
-0.485764
-1.01227
-0.911569
-0.823263
-0.747513
-0.68299
-0.627587
-0.579535
-0.537501
-0.500515
-0.467892
-0.439184
-0.414155
-0.392753
-0.375066
-0.36126
-0.351472
-0.345667
-0.343433
-0.343628
-0.84567
-0.753314
-0.670566
-0.5981
-0.535371
-0.480899
-0.433321
-0.391547
-0.354739
-0.322281
-0.293755
-0.268935
-0.247759
-0.230303
-0.216713
-0.2071
-0.201399
-0.199186
-0.199332
-0.67404
-0.589028
-0.511696
-0.442919
-0.3826
-0.329693
-0.283155
-0.242111
-0.20586
-0.173868
-0.14576
-0.121328
-0.100513
-0.0833788
-0.0700553
-0.0606345
-0.0550365
-0.0528337
-0.0529211
-0.498304
-0.419873
-0.347727
-0.282803
-0.225258
-0.174348
-0.129274
-0.0893391
-0.0539679
-0.0227074
0.00476584
0.0286391
0.0489663
0.0656899
0.0786926
0.0878952
0.0933844
0.0955801
0.0955597
-0.319055
-0.246625
-0.179423
-0.118391
-0.0638335
-0.0152145
0.0280815
0.0666059
0.100827
0.131123
0.15777
0.180929
0.200648
0.216875
0.2295
0.238453
0.24382
0.246008
0.24606
-0.136731
-0.0698324
-0.00734544
0.049814
0.101261
0.147388
0.188671
0.225547
0.258395
0.287528
0.313178
0.335484
0.354486
0.370133
0.382324
0.390992
0.396222
0.398396
0.398523
0.0483186
0.110084
0.168067
0.221402
0.269671
0.313165
0.352257
0.387296
0.418589
0.446392
0.470899
0.492229
0.510414
0.525406
0.537108
0.545458
0.55053
0.552685
0.552887
0.235821
0.292791
0.346458
0.396028
0.441081
0.481841
0.518608
0.55166
0.581248
0.607582
0.630823
0.651072
0.668354
0.682623
0.693787
0.701783
0.706679
0.708807
0.709082
0.42558
0.478028
0.527533
0.573392
0.615206
0.653157
0.687493
0.71844
0.746203
0.770953
0.792827
0.811906
0.828212
0.841699
0.85228
0.859893
0.864593
0.866684
0.867029
0.617461
0.66559
0.711046
0.75323
0.791785
0.826868
0.858688
0.887435
0.913276
0.936352
0.956775
0.974613
0.989882
1.00254
1.0125
1.0197
1.02419
1.02623
1.02664
0.81137
0.855307
0.896781
0.935304
0.970575
1.00274
1.03197
1.05844
1.08229
1.10362
1.12253
1.13907
1.15325
1.16504
1.17435
1.18111
1.18537
1.18736
1.18783
1.00723
1.04703
1.08454
1.11939
1.15134
1.18053
1.20713
1.23127
1.25305
1.27258
1.28993
1.30513
1.3182
1.32908
1.33771
1.34402
1.34804
1.34996
1.35048
1.20497
1.2406
1.27412
1.30526
1.33385
1.36003
1.38394
1.40569
1.42538
1.44308
1.45882
1.47266
1.48458
1.49455
1.50249
1.50833
1.51208
1.51393
1.5145
1.40448
1.43586
1.4653
1.49268
1.51786
1.54098
1.56217
1.58152
1.59908
1.61492
1.62905
1.64151
1.65227
1.66131
1.66854
1.67391
1.6774
1.67916
1.67976
1.60563
1.63259
1.65786
1.68139
1.70312
1.72316
1.7416
1.75852
1.77395
1.78792
1.80044
1.81151
1.82112
1.82923
1.83576
1.84064
1.84385
1.84553
1.84616
1.8083
1.83059
1.85152
1.87112
1.88935
1.90629
1.92199
1.93649
1.94979
1.96191
1.97282
1.98253
1.99099
1.99818
2.004
2.0084
2.01134
2.01292
2.01357
2.01219
2.02953
2.04598
2.06157
2.07627
2.0901
2.10308
2.11518
2.12639
2.13669
2.14603
2.15439
2.16173
2.16801
2.17315
2.17706
2.17973
2.18122
2.18187
2.21675
2.22896
2.24085
2.25241
2.2636
2.27435
2.28464
2.29439
2.30356
2.31207
2.31988
2.32694
2.3332
2.3386
2.34306
2.34651
2.34891
2.35029
2.35094
2.42128
2.42831
2.43566
2.44325
2.45099
2.45876
2.46643
2.47391
2.48109
2.48789
2.49423
2.50004
2.50526
2.50981
2.51363
2.51662
2.51875
2.52003
2.52066
2.62497
2.62695
2.62991
2.63368
2.63812
2.64302
2.6482
2.65351
2.65881
2.66398
2.66892
2.67354
2.67777
2.68152
2.68472
2.68728
2.68915
2.69031
2.69092
2.82702
2.82426
2.8231
2.82329
2.82463
2.82685
2.82971
2.83299
2.83653
2.84017
2.8438
2.84731
2.85061
2.85361
2.85622
2.85837
2.85998
2.86104
2.86161
3.02667
3.01964
3.01476
3.0117
3.01023
3.01
3.01072
3.01214
3.01406
3.0163
3.01873
3.02121
3.02365
3.02595
3.02802
3.02978
3.03115
3.0321
3.03263
3.22331
3.2126
3.2045
3.19858
3.19462
3.19222
3.19102
3.19077
3.19124
3.19222
3.19356
3.19512
3.19678
3.19844
3.20001
3.2014
3.20254
3.20338
3.20389
3.41648
3.40279
3.39201
3.38369
3.3776
3.37331
3.37046
3.36876
3.36795
3.36782
3.36819
3.36892
3.36989
3.37098
3.3721
3.37315
3.37408
3.37481
3.37529
3.60593
3.58996
3.57707
3.56682
3.55899
3.55315
3.54891
3.54596
3.54407
3.54298
3.54253
3.54254
3.5429
3.54348
3.54419
3.54495
3.54567
3.5463
3.54674
3.79155
3.77399
3.75956
3.74786
3.73869
3.73161
3.72626
3.72231
3.71952
3.71765
3.7165
3.71591
3.71574
3.71588
3.71623
3.71671
3.71725
3.71777
3.71819
3.97336
3.95486
3.93945
3.92676
3.91663
3.90865
3.90246
3.89775
3.89427
3.89177
3.89006
3.88897
3.88836
3.88812
3.88815
3.88839
3.88875
3.88918
3.88956
4.1515
4.13264
4.11676
4.10353
4.09282
4.08426
4.0775
4.07225
4.06826
4.06529
4.06315
4.06167
4.0607
4.06014
4.0599
4.05992
4.06013
4.06046
4.06081
4.32614
4.30747
4.29158
4.27822
4.26728
4.25844
4.25137
4.24581
4.24149
4.23821
4.23576
4.23398
4.23273
4.2319
4.23143
4.23125
4.23132
4.23157
4.23188
4.49753
4.4795
4.46403
4.45091
4.44008
4.43125
4.42411
4.41843
4.41397
4.41051
4.40787
4.40588
4.40442
4.40338
4.4027
4.40235
4.40229
4.40246
4.40276
4.66593
4.64895
4.63428
4.62175
4.61132
4.60276
4.59578
4.59018
4.58573
4.58222
4.57949
4.57738
4.57577
4.57457
4.57371
4.57319
4.57299
4.57309
4.57339
4.83164
4.81607
4.80253
4.79089
4.78115
4.77308
4.76648
4.76112
4.75683
4.7534
4.75068
4.74853
4.74683
4.7455
4.74448
4.74378
4.74344
4.74344
4.74385
4.995
4.98117
4.96904
4.95856
4.94974
4.94239
4.93634
4.9314
4.92739
4.92416
4.92155
4.91943
4.9177
4.91628
4.91512
4.91424
4.91376
4.91371
4.91446
5.15633
5.14444
5.13396
5.12486
5.11716
5.11071
5.10537
5.10097
5.09737
5.09443
5.09201
5.09
5.08831
5.08684
5.08556
5.08451
5.08389
5.08367
5.08483
5.31555
5.30565
5.29692
5.28932
5.28285
5.27742
5.27288
5.26911
5.26599
5.26341
5.26124
5.25939
5.25777
5.25628
5.25486
5.25354
5.25236
5.25113
5.25324
5.47297
5.46528
5.4584
5.45242
5.44734
5.44303
5.43941
5.43637
5.43382
5.43166
5.42982
5.42819
5.42669
5.42523
5.42371
5.42194
5.41886
5.41321
5.42368
5.63608
5.63153
5.62743
5.62387
5.62082
5.61821
5.61597
5.61404
5.61239
5.61095
5.60968
5.60852
5.60738
5.60616
5.60468
5.60254
5.59721
5.5801
5.61103
)
;

boundaryField
{
    leftWall
    {
        type            calculated;
        value           nonuniform List<scalar> 
50
(
-280.569
-222.227
-171.098
-127.195
-89.7893
-58.3731
-32.3444
-10.959
16.2416
41.2328
56.0143
62.924
64.4186
62.3549
58.0189
52.3663
46.0987
39.6831
33.3937
27.3732
21.6834
16.341
11.2978
6.51158
1.90256
-2.89907
-6.95813
-8.66328
-15.1431
-30.7296
-17.889
4.7971
5.3194
5.40527
5.37056
5.33374
5.31656
5.31498
5.32199
5.3354
5.35448
5.37876
5.40761
5.44039
5.47672
5.51646
5.5594
5.60511
5.65311
5.70243
)
;
    }
    rightWall
    {
        type            calculated;
        value           nonuniform List<scalar> 
50
(
-1.54687
-1.4882
-1.42919
-1.36982
-1.3101
-1.24996
-1.18937
-1.1283
-1.03203
-0.898847
-0.763403
-0.625701
-0.485764
-0.343628
-0.199332
-0.0529211
0.0955597
0.24606
0.398523
0.552887
0.709082
0.867029
1.02664
1.18783
1.35048
1.5145
1.67976
1.84616
2.01357
2.18187
2.35094
2.52066
2.69092
2.86161
3.03263
3.20389
3.37529
3.54674
3.71819
3.88956
4.06081
4.23188
4.40276
4.57339
4.74385
4.91446
5.08483
5.25324
5.42368
5.61103
)
;
    }
    lowerWall
    {
        type            calculated;
        value           nonuniform List<scalar> 
62
(
-309.999
-306.385
-287.868
-255.82
-216.799
-153.228
-34.8567
-7.36857
-6.69564
-6.81595
-6.58988
-6.00096
-5.34025
-4.75964
-4.30088
-3.95856
-3.7015
-3.50867
-3.36561
-3.26939
-3.23019
-3.25153
-3.32236
-3.29293
-3.24325
-3.20143
-3.16741
-3.13838
-3.12203
-3.14546
-3.14038
-2.43903
-2.32447
-2.26347
-2.15671
-1.84083
-1.78126
-1.72471
-1.67221
-1.62525
-1.58685
-1.5626
-1.56501
-1.87026
-1.87024
-1.86365
-1.84828
-1.82622
-1.79969
-1.77098
-1.74179
-1.71343
-1.68672
-1.66225
-1.6404
-1.62146
-1.60569
-1.59323
-1.58425
-1.57869
-1.57626
-1.5763
)
;
    }
    atmosphere
    {
        type            calculated;
        value           nonuniform List<scalar> 
46
(
5.72904
5.72904
5.72904
5.72904
5.72904
5.72904
5.72904
5.72904
5.72904
5.72904
5.72904
5.72904
5.72904
5.72904
5.72904
5.72904
5.72904
5.72904
5.72904
5.72898
5.72861
5.72795
5.72718
5.72663
5.72618
5.72556
5.72473
5.72298
5.72075
5.71879
5.71708
5.71555
5.71419
5.71298
5.71189
5.71092
5.71006
5.70927
5.70855
5.70784
5.70709
5.70622
5.7051
5.70352
5.70058
5.7082
)
;
    }
    defaultFaces
    {
        type            empty;
    }
}


// ************************************************************************* //
