/*--------------------------------*- C++ -*----------------------------------*\
  =========                 |
  \\      /  F ield         | OpenFOAM: The Open Source CFD Toolbox
   \\    /   O peration     | Website:  https://openfoam.org
    \\  /    A nd           | Version:  9
     \\/     M anipulation  |
\*---------------------------------------------------------------------------*/
FoamFile
{
    format      ascii;
    class       volScalarField;
    location    "0.1";
    object      p_rgh;
}
// * * * * * * * * * * * * * * * * * * * * * * * * * * * * * * * * * * * * * //

dimensions      [1 -1 -2 0 0 0 0];

internalField   nonuniform List<scalar> 
2268
(
1825.97
1831.93
1829.73
1819.08
1797.99
1765.35
1720.56
1662.97
1591.45
1504.12
1397.59
1266.63
1104.6
905.731
672.961
434.225
241.324
129.141
69.7966
23.114
8.19401
6.1373
6.22986
1824.22
1828.18
1823.68
1811
1788.47
1754.67
1708.76
1649.79
1576.44
1486.56
1376.48
1240.83
1073.68
872.115
641.952
407.74
217.303
91.2754
29.3484
9.21003
5.75556
5.48414
5.92118
1823.33
1826.02
1819.06
1803.8
1779.09
1743.42
1695.68
1634.66
1558.74
1465.54
1351.27
1210.84
1039.61
837.329
608.932
374.69
175.989
46.9086
7.04297
4.72258
5.07668
5.0872
5.23598
1822.71
1825.07
1816.52
1799.09
1772.22
1734.5
1684.74
1621.55
1543.14
1446.98
1329.41
1185.8
1012.72
811.163
580.503
328.908
108.57
13.5939
4.02507
3.34809
3.34235
4.05436
4.43902
1822.39
1824.79
1815.43
1796.55
1767.93
1728.39
1676.77
1611.64
1531.14
1432.75
1313.06
1167.92
995.047
795.254
561.164
264.503
44.1002
4.99866
3.43371
2.98364
2.96616
3.26139
3.72558
1822.54
1825.09
1815.41
1795.68
1765.79
1724.78
1671.6
1604.85
1522.71
1422.75
1301.85
1156.45
985.451
788.417
546.616
199.94
16.0797
4.24737
3.04617
2.77069
2.80746
2.99649
3.21184
1823.29
1826.07
1816.39
1796.26
1765.56
1723.46
1669.05
1601.04
1517.69
1416.73
1295.35
1150.68
982.818
788.953
533.27
149.946
9.10519
3.70043
2.80377
2.63372
2.67179
2.78521
2.77592
1824.74
1827.65
1818.23
1798.04
1766.92
1724.12
1668.86
1599.97
1515.85
1414.43
1293.24
1150.13
985.607
793.324
513.404
105.663
7.42408
3.26099
2.61544
2.50856
2.51802
2.55829
2.29999
0.837616
0.865963
0.878722
0.882333
0.878752
0.870507
0.859554
0.847173
0.834278
0.821551
0.80949
0.798515
0.78894
0.781017
0.774983
0.770937
0.768884
0.768531
0.76976
0.833826
0.862261
0.875416
0.88012
0.877779
0.870421
0.860018
0.847992
0.835326
0.822723
0.810719
0.799762
0.790193
0.782262
0.776205
0.772093
0.76988
0.76926
0.770145
0.827781
0.859514
0.873479
0.878975
0.877585
0.870905
0.860917
0.84911
0.836534
0.823949
0.811922
0.800922
0.791308
0.783322
0.77718
0.772925
0.77047
0.76958
0.770225
0.818742
0.857844
0.873764
0.879704
0.878663
0.872124
0.862165
0.850316
0.837649
0.824953
0.812816
0.801705
0.791985
0.783887
0.777605
0.773166
0.770484
0.769466
0.770104
0.806809
0.857691
0.876671
0.882463
0.881093
0.874099
0.863734
0.851558
0.838614
0.825685
0.813353
0.80207
0.792191
0.783937
0.777481
0.772853
0.770007
0.769
0.769757
0.791442
0.8608
0.883334
0.887475
0.884893
0.87682
0.8656
0.852808
0.839411
0.826137
0.813535
0.802031
0.791953
0.783512
0.776868
0.772069
0.769127
0.768218
0.769128
0.765792
0.866943
0.894958
0.895204
0.89012
0.880287
0.86774
0.854036
0.840009
0.826285
0.813352
0.801585
0.791279
0.782631
0.775794
0.770848
0.767873
0.767108
0.768168
0.721236
0.870945
0.91053
0.906196
0.896918
0.884513
0.870163
0.855242
0.840407
0.826133
0.812808
0.800739
0.790178
0.781303
0.77427
0.7692
0.766245
0.765641
0.766833
1828.35
1831.01
1822.14
1802.23
1770.97
1727.7
1671.76
1602.22
1517.76
1416.64
1296.97
1157.44
996.558
803.265
449.348
50.8513
5.01561
2.72493
2.35834
2.29642
2.25271
2.13494
1.41573
1837.23
1839.41
1830.99
1811.78
1781.17
1738.47
1683.14
1614.48
1531.48
1432.8
1317.09
1183.27
1026.57
831.422
296.312
9.53227
3.23814
2.23561
2.06226
2.01766
1.95618
1.83697
1.61652
1850.33
1851.77
1843.65
1825.32
1795.9
1754.67
1701.13
1634.74
1554.7
1460.01
1349.73
1222.61
1069.77
795.942
156.343
5.30399
2.37407
1.8956
1.82919
1.81052
1.78651
1.74455
1.71082
1867.96
1868.62
1860.78
1843.42
1815.51
1776.3
1725.34
1662.17
1586.17
1496.58
1392.83
1273.13
1125.02
708.928
62.9636
3.09555
1.82323
1.63515
1.62808
1.63634
1.63765
1.61658
1.57041
1890.44
1890.39
1882.89
1866.59
1840.38
1803.56
1755.68
1696.39
1625.16
1541.47
1444.96
1333.05
1191.51
562.773
15.5442
2.04786
1.48114
1.44156
1.45414
1.47459
1.48527
1.47189
1.43058
1917.96
1917.33
1910.26
1895.1
1870.75
1836.57
1792.16
1737.19
1671.27
1594.04
1505.19
1400.99
1255.52
397.81
4.57295
1.5551
1.27755
1.28526
1.30209
1.32604
1.34209
1.33914
1.31385
1950.6
1949.53
1942.98
1929.04
1906.7
1875.35
1834.68
1784.39
1724.19
1653.86
1573.06
1476.91
1252.66
271.418
3.06924
1.27769
1.1326
1.14134
1.16056
1.18662
1.20667
1.21168
1.19795
1988.32
1986.92
1980.96
1968.34
1948.11
1919.77
1883.05
1837.71
1783.55
1720.46
1648.05
1560.63
1229.24
170.001
2.07171
1.05167
0.985986
0.998007
1.02253
1.05219
1.07631
1.08786
1.08379
2030.99
2029.35
2024.03
2012.77
1994.76
1969.56
1936.95
1896.77
1848.87
1793.26
1729.44
1651.28
1173.12
93.2888
1.31279
0.839646
0.829104
0.852568
0.88613
0.921826
0.951274
0.96958
0.974605
2078.22
2076.46
2071.82
2062
2046.28
2024.32
1995.93
1961.03
1919.53
1871.54
1816.43
1747.98
1084.15
41.3948
0.653378
0.621028
0.66737
0.708332
0.753165
0.796473
0.832293
0.857594
0.87099
2129.58
2127.86
2123.99
2115.64
2102.26
2083.58
2059.49
2029.93
1994.89
1954.55
1908.18
1849.76
960.809
12.5713
0.260316
0.431914
0.5184
0.573842
0.627766
0.677975
0.720105
0.752119
0.773053
2185.3
2183.53
2180.38
2173.42
2162.33
2146.91
2127.09
2102.86
2074.28
2041.55
2003.95
1955.77
802.448
1.50264
0.176673
0.316388
0.395888
0.453666
0.512025
0.567352
0.615115
0.653275
0.680902
2244.48
2242.12
2239.71
2234.23
2225.42
2213.18
2197.52
2178.49
2156.21
2130.97
2102.31
2065.28
625.175
0.803589
0.176131
0.232951
0.285687
0.341397
0.403472
0.463769
0.517014
0.560934
0.594558
2301.98
2299.84
2298.81
2295.41
2289.1
2280.04
2268.43
2254.43
2238.28
2220.4
2201.23
2177.08
472.838
0.544775
0.101912
0.120704
0.166457
0.228581
0.2985
0.365788
0.425264
0.474911
0.514017
2358.35
2359.86
2359.84
2358.32
2354.28
2348.25
2340.68
2331.84
2322.02
2311.63
2302.73
2292.07
376.192
0.268565
-0.0342242
-0.0253094
0.0328338
0.113058
0.19651
0.273299
0.339899
0.395286
0.439411
2132.64
2215.4
2263.34
2293.93
2305.14
2298.9
2278.45
2243.64
2196.32
2138.14
2092.58
2113.43
302.078
-0.236852
-0.231116
-0.200543
-0.110036
-0.0012022
0.100097
0.187884
0.261817
0.322562
0.371048
477.401
606.376
693.102
763.192
796.961
787.552
742.976
674.119
592.897
509.969
447.183
507.314
147.627
-0.962805
-0.491545
-0.378519
-0.243116
-0.104085
0.0147897
0.112582
0.192672
0.257633
0.309432
-1.48119
-0.552535
-1.16845
-1.3087
-1.38233
-1.42005
-1.43859
-1.44503
-1.44633
-1.44318
-1.39996
-1.30042
8.11547
-0.991303
-0.738553
-0.525416
-0.341492
-0.181797
-0.052554
0.0508681
0.134265
0.201458
0.255122
-1.14658
-1.01104
-1.11326
-1.10369
-1.11984
-1.13575
-1.15135
-1.16798
-1.18767
-1.21129
-1.23678
-1.26075
-1.26212
-1.09704
-0.810145
-0.581186
-0.386231
-0.225817
-0.0976523
0.00485061
0.0876325
0.154568
0.208426
-1.04145
-0.989577
-1.02625
-1.0376
-1.05412
-1.06802
-1.07859
-1.08711
-1.09462
-1.10119
-1.1068
-1.11622
-1.1044
-0.952424
-0.744111
-0.551972
-0.381784
-0.238829
-0.121758
-0.0261233
0.0523774
0.11671
0.169188
-0.936794
-0.92628
-0.947477
-0.961726
-0.975199
-0.984422
-0.988928
-0.989602
-0.98682
-0.979695
-0.966981
-0.946588
-0.902153
-0.788746
-0.639729
-0.490561
-0.352849
-0.232761
-0.130903
-0.0452355
0.0267426
0.086867
0.136794
-0.851219
-0.856567
-0.871347
-0.883082
-0.891404
-0.894869
-0.893295
-0.887141
-0.876409
-0.859985
-0.835981
-0.801478
-0.746
-0.655664
-0.543541
-0.427624
-0.317443
-0.218219
-0.131351
-0.0561935
0.00849961
0.0636607
0.110353
-0.775251
-0.78489
-0.796872
-0.805692
-0.809926
-0.808871
-0.802445
-0.790867
-0.774133
-0.751391
-0.721099
-0.680789
-0.625359
-0.55051
-0.462722
-0.371341
-0.282762
-0.200884
-0.127223
-0.0618498
-0.00429862
0.0457486
0.088912
-0.703497
-0.713736
-0.724323
-0.731047
-0.732521
-0.728392
-0.718627
-0.703395
-0.682794
-0.656412
-0.623324
-0.582103
-0.530523
-0.467578
-0.396867
-0.323481
-0.251438
-0.18345
-0.120872
-0.0641036
-0.013131
0.0319882
0.0715779
-0.636816
-0.646357
-0.655641
-0.660829
-0.660484
-0.654386
-0.642614
-0.625409
-0.60298
-0.575284
-0.541952
-0.502359
-0.455754
-0.402243
-0.343947
-0.283762
-0.224195
-0.1671
-0.113592
-0.0641832
-0.0190825
0.021452
0.0575663
-0.575442
-0.583989
-0.592044
-0.595987
-0.594412
-0.587146
-0.574418
-0.556556
-0.533874
-0.506564
-0.474619
-0.437898
-0.396326
-0.350338
-0.301271
-0.25087
-0.200745
-0.152174
-0.106049
-0.0628731
-0.0229424
0.0134038
0.0462171
-0.519272
-0.52687
-0.533776
-0.5367
-0.534316
-0.526512
-0.51362
-0.496035
-0.47414
-0.448243
-0.418525
-0.385106
-0.348187
-0.308262
-0.266247
-0.223277
-0.180426
-0.138622
-0.0985557
-0.0606744
-0.0252811
0.00727248
0.036995
-0.468181
-0.474863
-0.480696
-0.482785
-0.479927
-0.472066
-0.459555
-0.442827
-0.422295
-0.3983
-0.371112
-0.340974
-0.308193
-0.27324
-0.236792
-0.199645
-0.162579
-0.126271
-0.091257
-0.0579109
-0.0265066
0.00262621
0.0294812
-0.421762
-0.427563
-0.432427
-0.433852
-0.430793
-0.423201
-0.4114
-0.395828
-0.376894
-0.354944
-0.330287
-0.30322
-0.274082
-0.2433
-0.211408
-0.179004
-0.146677
-0.114941
-0.0842128
-0.0547893
-0.0269042
-0.000852085
0.0233576
-0.379414
-0.384404
-0.388443
-0.389383
-0.386321
-0.379187
-0.368259
-0.35395
-0.336654
-0.316719
-0.294469
-0.270221
-0.244306
-0.217108
-0.189069
-0.160656
-0.132324
-0.104476
-0.0774344
-0.051433
-0.0266653
-0.00338943
0.0183862
-0.340576
-0.34485
-0.348215
-0.348827
-0.345886
-0.339298
-0.329296
-0.316253
-0.300549
-0.282537
-0.26254
-0.240867
-0.217835
-0.193784
-0.169084
-0.14411
-0.119219
-0.0947291
-0.0708961
-0.0479043
-0.0259127
-0.00514634
0.0143877
-0.304835
-0.30849
-0.311315
-0.31171
-0.30895
-0.302929
-0.293837
-0.282013
-0.267826
-0.251625
-0.233722
-0.214408
-0.193974
-0.172723
-0.150963
-0.128997
-0.107111
-0.0855588
-0.0645469
-0.0442239
-0.0247223
-0.00623838
0.011222
-0.271871
-0.275008
-0.277402
-0.277646
-0.275085
-0.269603
-0.261364
-0.250685
-0.237926
-0.223416
-0.207448
-0.190292
-0.172211
-0.153467
-0.134319
-0.115013
-0.0957802
-0.0768257
-0.0583209
-0.0403889
-0.0231429
-0.0067545
0.0087717
-0.241366
-0.244086
-0.246136
-0.24627
-0.243892
-0.238891
-0.231428
-0.22181
-0.210377
-0.197432
-0.183246
-0.168063
-0.152116
-0.135629
-0.118819
-0.101888
-0.0850252
-0.0683988
-0.052151
-0.0363882
-0.0212114
-0.00677091
0.00693104
-0.212969
-0.21536
-0.217127
-0.217167
-0.214933
-0.210343
-0.203577
-0.194934
-0.184724
-0.173226
-0.16068
-0.147305
-0.133303
-0.118865
-0.104171
-0.0893887
-0.0746745
-0.0601662
-0.0459817
-0.0322157
-0.0189638
-0.0063599
0.0055985
-0.186313
-0.188443
-0.18995
-0.189876
-0.187724
-0.183474
-0.177333
-0.169588
-0.160516
-0.150362
-0.139341
-0.12764
-0.115432
-0.102878
-0.0901293
-0.0773255
-0.0645942
-0.0520468
-0.0397794
-0.0278772
-0.0164397
-0.00559259
0.00467513
-0.160841
-0.16288
-0.164135
-0.163902
-0.16176
-0.157786
-0.152218
-0.145317
-0.137325
-0.128448
-0.118868
-0.108743
-0.098218
-0.0874294
-0.076504
-0.0655578
-0.0546925
-0.0439942
-0.0335355
-0.0233916
-0.0136805
-0.00453579
0.00406679
-0.135793
-0.138138
-0.139151
-0.138727
-0.136535
-0.132796
-0.12778
-0.121711
-0.114779
-0.107147
-0.0989605
-0.0903492
-0.081436
-0.0723363
-0.0631565
-0.0539903
-0.0449161
-0.0359947
-0.0272699
-0.0187962
-0.0107266
-0.00324659
0.00368732
-0.111527
-0.114288
-0.114769
-0.114021
-0.111716
-0.108203
-0.103759
-0.0985426
-0.0926778
-0.086279
-0.0794571
-0.0723201
-0.0649726
-0.0575127
-0.0500283
-0.0425931
-0.0352653
-0.0280823
-0.0210463
-0.0141536
-0.00760044
-0.00174847
0.00346296
-0.0891872
-0.0933745
-0.0918226
-0.0900474
-0.0874824
-0.0842199
-0.0803834
-0.0760332
-0.0712224
-0.066022
-0.0605175
-0.0547999
-0.0489596
-0.0430801
-0.0372324
-0.0314733
-0.0258473
-0.0203676
-0.0149554
-0.00948532
-0.0041762
0.00016852
0.00337021
-0.0645642
-0.0799822
-0.0711012
-0.0667336
-0.0638078
-0.0608873
-0.0577053
-0.0542205
-0.0504355
-0.0463921
-0.0421584
-0.0378123
-0.0334304
-0.0290814
-0.0248202
-0.0206881
-0.0167148
-0.0128682
-0.00891309
-0.00452319
0.000337697
0.00340374
0.0034649
-0.0274273
-0.0722442
-0.0480991
-0.0411087
-0.0380163
-0.0354982
-0.0330308
-0.0304826
-0.0278132
-0.0250418
-0.0222177
-0.0193996
-0.0166444
-0.014
-0.0115
-0.00915648
-0.00695035
-0.00477442
-0.0022205
0.00152866
0.00673455
0.00592113
0.0026598
0.0283493
0.160388
0.436841
0.573037
1.28536
1.17576
1.11115
1.06454
1.59021
1.47044
1.35587
1.26848
1.47664
1.4063
1.34047
1.28308
1.37232
1.32975
1.28515
1.24155
1.27495
1.24369
1.20928
1.17526
1.17064
1.1481
1.12308
1.09813
1.06702
1.05224
1.03519
1.01773
0.966938
0.958599
0.948095
0.936843
0.871019
0.868066
0.863065
0.857051
0.779643
0.781268
0.78095
0.779404
0.693104
0.698627
0.702312
0.704608
0.611602
0.620469
0.627592
0.633197
0.535285
0.547043
0.557132
0.565598
0.464375
0.478639
0.491283
0.502202
0.399165
0.415543
0.43035
0.443343
0.339987
0.358032
0.374574
0.389237
0.287279
0.306482
0.324275
0.340172
0.24127
0.261088
0.279618
0.296284
0.201841
0.221752
0.240522
0.257505
0.168533
0.188093
0.206671
0.223578
0.140665
0.159536
0.177585
0.194101
0.117476
0.135426
0.152705
0.168596
0.0982221
0.115107
0.131457
0.146568
0.0822252
0.0979694
0.113304
0.127544
0.0688991
0.0834807
0.0977648
0.111093
0.0577584
0.0711933
0.0844315
0.09684
0.0484157
0.060745
0.0729649
0.0844675
0.0405694
0.0518473
0.0630881
0.073708
0.0339858
0.0442701
0.0545725
0.064334
0.0284799
0.0378245
0.0472249
0.0561485
0.0238988
0.032349
0.0408755
0.0489763
0.0201081
0.0276983
0.0353704
0.0426574
0.0169831
0.0237363
0.0305656
0.0370437
0.0144036
0.0203326
0.0263244
0.031996
0.0122528
0.017362
0.0225174
0.0273833
0.0104198
0.014706
0.0190228
0.0230834
0.00880016
0.0122527
0.0157257
0.0189814
0.00729653
0.00989701
0.0125184
0.0149698
0.00580864
0.00752609
0.00928687
0.0109347
0.00422287
0.00499218
0.00587338
0.0067155
0.00200298
0.00190379
0.00194971
0.00206182
0.722299
0.889788
0.940352
0.928747
0.909998
0.892013
0.874166
0.856935
0.840598
0.825324
0.811297
0.798701
0.787704
0.77846
0.771137
0.765929
0.763086
0.762736
0.764121
1.01595
1.02496
1.00789
0.967394
0.930874
0.90235
0.878448
0.857534
0.838878
0.822095
0.807043
0.79371
0.782154
0.772492
0.764909
0.759656
0.757008
0.756966
0.758584
1.16109
1.09146
1.04145
0.988185
0.942821
0.907483
0.878932
0.854957
0.834296
0.816195
0.800266
0.786336
0.774374
0.764463
0.756795
0.751633
0.749212
0.749404
0.751153
1.19625
1.11265
1.04898
0.991396
0.943277
0.905023
0.874036
0.84825
0.826315
0.807363
0.790885
0.776615
0.764468
0.754502
0.746905
0.741919
0.739713
0.740056
0.741845
1.17164
1.096
1.0342
0.979193
0.932652
0.894611
0.863271
0.837024
0.814704
0.795501
0.7789
0.764612
0.752529
0.742701
0.7353
0.730538
0.72852
0.728944
0.730715
1.12105
1.05855
1.0042
0.955087
0.912645
0.876937
0.846866
0.821341
0.799486
0.780644
0.764367
0.750394
0.738626
0.729113
0.722015
0.717514
0.715664
0.716129
0.717848
1.05813
1.00905
0.963923
0.922159
0.885131
0.853061
0.825407
0.801533
0.780866
0.762935
0.747399
0.734056
0.722836
0.713801
0.707102
0.7029
0.701215
0.701701
0.70335
0.989316
0.95249
0.916869
0.882879
0.851835
0.824132
0.799639
0.778088
0.759172
0.742606
0.728169
0.715732
0.705268
0.696855
0.690646
0.686783
0.685271
0.68577
0.687338
0.918019
0.892099
0.865562
0.839205
0.814256
0.791252
0.770355
0.751568
0.734807
0.719953
0.706901
0.695598
0.686063
0.678398
0.672756
0.669274
0.66795
0.668461
0.669941
0.84632
0.830022
0.811847
0.792692
0.773677
0.755437
0.738329
0.72256
0.708214
0.695313
0.683856
0.67386
0.665393
0.658575
0.653567
0.650503
0.649382
0.649907
0.651296
0.775586
0.767734
0.757109
0.744588
0.731184
0.717588
0.704293
0.69164
0.679848
0.669046
0.659321
0.650754
0.64345
0.637554
0.633231
0.630614
0.62971
0.630253
0.631546
0.706746
0.706292
0.702401
0.695892
0.687682
0.678495
0.668908
0.659358
0.650156
0.641517
0.633595
0.626525
0.620445
0.615517
0.611911
0.609761
0.609082
0.609646
0.610842
0.64048
0.646483
0.64854
0.647408
0.643925
0.638835
0.632765
0.626216
0.619562
0.613079
0.606975
0.601424
0.596591
0.59265
0.589775
0.588101
0.587652
0.588238
0.589336
0.577319
0.588917
0.596168
0.59978
0.600535
0.599182
0.59638
0.592665
0.588453
0.584065
0.579744
0.575694
0.572099
0.569141
0.566994
0.565792
0.565572
0.566179
0.567178
0.517709
0.534072
0.545798
0.553534
0.558023
0.56002
0.560195
0.559101
0.557181
0.55478
0.552168
0.549567
0.547173
0.54517
0.543731
0.542989
0.542991
0.543616
0.544517
0.462029
0.48232
0.497835
0.509085
0.516806
0.521748
0.524581
0.525864
0.52605
0.525496
0.524487
0.523254
0.521999
0.520906
0.520143
0.519839
0.52005
0.52069
0.521493
0.410442
0.434046
0.452606
0.466762
0.477211
0.484688
0.489848
0.493243
0.495324
0.496451
0.496914
0.496947
0.496751
0.496507
0.496375
0.496479
0.496882
0.497532
0.498239
0.363262
0.389346
0.410304
0.426796
0.439488
0.449091
0.456239
0.46147
0.465221
0.467846
0.469633
0.470812
0.471581
0.472113
0.472557
0.473034
0.47361
0.474264
0.474877
0.320583
0.348356
0.371063
0.389335
0.4038
0.415134
0.423941
0.430729
0.435915
0.439847
0.442796
0.444991
0.446621
0.447847
0.448808
0.449617
0.450345
0.450995
0.451521
0.282368
0.311096
0.334934
0.35446
0.370251
0.382937
0.393079
0.401149
0.407542
0.412581
0.41653
0.419603
0.421982
0.423816
0.42523
0.426328
0.427182
0.42782
0.42827
0.24844
0.277468
0.301879
0.322181
0.338886
0.352567
0.363735
0.372823
0.380192
0.386145
0.390927
0.394743
0.397758
0.400109
0.401909
0.403251
0.404209
0.404827
0.405209
0.218504
0.247285
0.271788
0.292445
0.309694
0.324043
0.335951
0.345803
0.35393
0.360605
0.366059
0.37048
0.374019
0.376799
0.378918
0.38046
0.381497
0.382093
0.38241
0.192196
0.220295
0.244496
0.265148
0.282616
0.297343
0.309727
0.32011
0.328787
0.336005
0.341975
0.346868
0.350822
0.353943
0.356316
0.358014
0.359108
0.359676
0.359922
0.169125
0.196217
0.2198
0.240152
0.257563
0.272409
0.285034
0.295735
0.30477
0.312363
0.318702
0.323942
0.328205
0.331584
0.334147
0.335959
0.337089
0.337623
0.337795
0.148904
0.174756
0.197484
0.217296
0.234418
0.249162
0.26182
0.272646
0.281867
0.289678
0.296249
0.301719
0.306192
0.309748
0.312444
0.314331
0.315475
0.315972
0.316069
0.13117
0.155629
0.177324
0.196409
0.21305
0.227502
0.240011
0.250793
0.260043
0.267933
0.274612
0.280201
0.284794
0.288454
0.291226
0.293151
0.294291
0.294748
0.294776
0.115597
0.138569
0.159104
0.177315
0.193317
0.207319
0.219523
0.230112
0.239253
0.247095
0.25377
0.259382
0.264011
0.267707
0.270504
0.272434
0.273553
0.273967
0.273932
0.1019
0.123328
0.142615
0.159839
0.175077
0.188495
0.200262
0.21053
0.219441
0.227125
0.233695
0.239242
0.243831
0.247503
0.25028
0.252185
0.253269
0.253638
0.253548
0.0898251
0.109683
0.12766
0.143811
0.158183
0.170908
0.182127
0.191965
0.200543
0.207972
0.21435
0.219754
0.224238
0.227832
0.230548
0.232402
0.233437
0.233762
0.233624
0.0791525
0.097428
0.114053
0.129067
0.142492
0.154437
0.165015
0.174332
0.182489
0.189581
0.195692
0.200886
0.205208
0.208676
0.211296
0.213074
0.214051
0.214332
0.214155
0.0696848
0.0863768
0.101622
0.11545
0.127867
0.13896
0.148823
0.157544
0.165207
0.171893
0.177673
0.1826
0.186709
0.190012
0.192504
0.194188
0.195098
0.195337
0.195128
0.0612436
0.0763563
0.0902048
0.102812
0.114174
0.124361
0.13345
0.141514
0.148624
0.154847
0.160242
0.164854
0.168709
0.171811
0.17415
0.175723
0.17656
0.176758
0.176527
0.0536658
0.0672074
0.0796496
0.0910122
0.101286
0.110525
0.118795
0.126155
0.132664
0.138379
0.143347
0.147604
0.151169
0.154041
0.156205
0.157655
0.158414
0.158575
0.158328
0.0468008
0.058782
0.0698155
0.0799197
0.0890813
0.0973447
0.104762
0.111383
0.117256
0.122426
0.126932
0.130802
0.134049
0.136667
0.138639
0.139955
0.140634
0.14076
0.140507
0.0405084
0.0509426
0.0605706
0.0694108
0.0774479
0.0847171
0.0912607
0.097118
0.102327
0.106925
0.110942
0.1144
0.117306
0.119651
0.121417
0.122592
0.123189
0.123285
0.123032
0.034658
0.0435604
0.0517919
0.0593703
0.0662793
0.0725457
0.0782028
0.0832806
0.0878087
0.091815
0.0953234
0.0983492
0.100896
0.102954
0.104504
0.105532
0.106047
0.106117
0.105872
0.0291276
0.0365157
0.0433649
0.0496912
0.0554768
0.0607406
0.0655068
0.0697972
0.0736331
0.0770352
0.0800206
0.0826002
0.0847749
0.0865344
0.0878609
0.0887396
0.0891753
0.0892241
0.0889932
0.0238038
0.0296984
0.0351861
0.0402775
0.0449521
0.0492206
0.0530986
0.0566
0.059739
0.0625295
0.0649833
0.0671072
0.0689006
0.0703541
0.0714519
0.0721799
0.0725384
0.0725704
0.0723612
0.0185805
0.0230065
0.0271608
0.0310418
0.0346243
0.0379106
0.0409083
0.0436243
0.0460664
0.0482427
0.0501604
0.0518232
0.0532298
0.0543725
0.0552394
0.055818
0.0561035
0.0561238
0.0559432
0.0133399
0.0163205
0.0191712
0.0218697
0.0243826
0.0267039
0.0288338
0.0307728
0.0325232
0.0340884
0.0354714
0.0366737
0.0376941
0.038528
0.0391686
0.0396065
0.0398316
0.0398517
0.0397092
0.00790742
0.00946499
0.0110379
0.0125792
0.0140466
0.0154248
0.0167063
0.0178854
0.0189593
0.019927
0.0207883
0.0215428
0.0221895
0.0227274
0.0231552
0.0234696
0.023659
0.02371
0.023637
0.00227215
0.00258899
0.00298029
0.00342393
0.00388546
0.00434603
0.004794
0.00522083
0.00562075
0.00599005
0.00632622
0.00662733
0.00689192
0.00711954
0.00731153
0.00747025
0.00759394
0.00767067
0.0076879
)
;

boundaryField
{
    leftWall
    {
        type            fixedFluxPressure;
        gradient        uniform 0;
        value           nonuniform List<scalar> 
50
(
1825.97
1824.22
1823.33
1822.71
1822.39
1822.54
1823.29
1824.74
1828.35
1837.23
1850.33
1867.96
1890.44
1917.96
1950.6
1988.32
2030.99
2078.22
2129.58
2185.3
2244.48
2301.98
2358.35
2132.64
477.401
-1.48119
-1.14658
-1.04145
-0.936794
-0.851219
-0.775251
-0.703497
-0.636816
-0.575442
-0.519272
-0.468181
-0.421762
-0.379414
-0.340576
-0.304835
-0.271871
-0.241366
-0.212969
-0.186313
-0.160841
-0.135793
-0.111527
-0.0891872
-0.0645642
-0.0274273
)
;
    }
    rightWall
    {
        type            fixedFluxPressure;
        gradient        uniform 0;
        value           nonuniform List<scalar> 
50
(
0.76976
0.770145
0.770225
0.770104
0.769757
0.769128
0.768168
0.766833
0.764121
0.758584
0.751153
0.741845
0.730715
0.717848
0.70335
0.687338
0.669941
0.651296
0.631546
0.610842
0.589336
0.567178
0.544517
0.521493
0.498239
0.474877
0.451521
0.42827
0.405209
0.38241
0.359922
0.337795
0.316069
0.294776
0.273932
0.253548
0.233624
0.214155
0.195128
0.176527
0.158328
0.140507
0.123032
0.105872
0.0889932
0.0723612
0.0559432
0.0397092
0.023637
0.0076879
)
;
    }
    lowerWall
    {
        type            fixedFluxPressure;
        gradient        uniform 0;
        value           nonuniform List<scalar> 
62
(
1825.97
1831.93
1829.73
1819.08
1797.99
1765.35
1720.56
1662.97
1591.45
1504.12
1397.59
1266.63
1104.6
905.731
672.961
434.225
241.324
129.141
69.7966
23.114
8.19401
6.1373
6.22986
6.22986
5.92118
5.23598
4.43902
3.72558
3.21184
2.77592
2.29999
0.0283493
0.160388
0.436841
0.573037
0.837616
0.833826
0.827781
0.818742
0.806809
0.791442
0.765792
0.721236
0.837616
0.865963
0.878722
0.882333
0.878752
0.870507
0.859554
0.847173
0.834278
0.821551
0.80949
0.798515
0.78894
0.781017
0.774983
0.770937
0.768884
0.768531
0.76976
)
;
    }
    atmosphere
    {
        type            totalPressure;
        rho             rho;
        psi             none;
        gamma           1;
        p0              uniform 0;
        value           nonuniform List<scalar> 
46
(
-0.0195686
-0.0301883
-0.0261261
-0.0237577
-0.0217691
-0.0198854
-0.017998
-0.0160682
-0.0141001
-0.0121237
-0.0101822
-0.00832211
-0.00658765
-0.00501658
-0.00363825
-0.00247288
-0.00153234
-0.000822135
-0.000343376
-8.42733e-05
0
0
0
0
0
0
0
0
0
0
0
0
0
0
0
0
0
0
0
0
0
0
0
0
0
0
)
;
    }
    defaultFaces
    {
        type            empty;
    }
}


// ************************************************************************* //
