/*--------------------------------*- C++ -*----------------------------------*\
  =========                 |
  \\      /  F ield         | OpenFOAM: The Open Source CFD Toolbox
   \\    /   O peration     | Website:  https://openfoam.org
    \\  /    A nd           | Version:  9
     \\/     M anipulation  |
\*---------------------------------------------------------------------------*/
FoamFile
{
    format      ascii;
    class       volScalarField;
    location    "0.1";
    object      p_rgh;
}
// * * * * * * * * * * * * * * * * * * * * * * * * * * * * * * * * * * * * * //

dimensions      [1 -1 -2 0 0 0 0];

internalField   nonuniform List<scalar> 
2268
(
-309.999
-306.385
-287.868
-255.82
-216.799
-153.228
-34.8567
-7.36857
-6.69564
-6.81595
-6.58988
-6.00096
-5.34025
-4.75964
-4.30088
-3.95856
-3.7015
-3.50867
-3.36561
-3.26939
-3.23019
-3.25153
-3.32236
-310.515
-305.73
-285.835
-252.696
-212.164
-144.213
-21.3132
-4.36967
-6.55154
-6.97223
-6.74634
-6.11648
-5.43062
-4.83255
-4.35825
-4.00391
-3.73803
-3.54013
-3.39438
-3.29535
-3.24971
-3.26554
-3.33154
-318.245
-314.665
-295.96
-264.356
-226.303
-171.031
-47.2498
-5.68577
-6.63138
-7.01348
-6.83377
-6.23406
-5.53325
-4.9183
-4.42576
-4.05816
-3.78073
-3.57509
-3.42455
-3.32057
-3.26661
-3.27954
-3.34858
-333.201
-333.192
-318.246
-290.844
-258.255
-222.103
-103.632
-14.4457
-7.4689
-7.09853
-6.85778
-6.28001
-5.59489
-4.9792
-4.47377
-4.09898
-3.81327
-3.60098
-3.44584
-3.33694
-3.27569
-3.29222
-3.37342
-354.653
-358.925
-349.013
-327.042
-300.624
-280.197
-213.954
-52.3677
-12.6998
-7.83222
-6.87848
-6.24615
-5.59315
-5.00556
-4.49657
-4.12196
-3.833
-3.61667
-3.45854
-3.34616
-3.27791
-3.30139
-3.40324
-382.096
-390.309
-385.795
-369.618
-349.174
-334.906
-331.044
-192.675
-39.0746
-11.6789
-7.19708
-6.19578
-5.52417
-4.99635
-4.49667
-4.12921
-3.84174
-3.62386
-3.4642
-3.3491
-3.27151
-3.30152
-3.44575
-414.926
-426.403
-427.233
-416.843
-401.992
-391.102
-395.301
-384.393
-170.196
-33.845
-8.62524
-6.16865
-5.38592
-4.94798
-4.47571
-4.12216
-3.84075
-3.62387
-3.46361
-3.34427
-3.2538
-3.29463
-3.52804
-452.399
-466.276
-471.916
-466.913
-456.972
-448.827
-450.971
-458.115
-415.527
-143.884
-15.9152
-6.06411
-5.1851
-4.85616
-4.4375
-4.10394
-3.8327
-3.61935
-3.45834
-3.33148
-3.22831
-3.27554
-3.58182
-1.87026
-1.87024
-1.86365
-1.84828
-1.82622
-1.79969
-1.77098
-1.74179
-1.71343
-1.68672
-1.66225
-1.6404
-1.62146
-1.60569
-1.59323
-1.58425
-1.57869
-1.57626
-1.5763
-1.86955
-1.86908
-1.86294
-1.84802
-1.82644
-1.80023
-1.77173
-1.74272
-1.71448
-1.68784
-1.6634
-1.64157
-1.62265
-1.60687
-1.59438
-1.58531
-1.57952
-1.57676
-1.57649
-1.87186
-1.87024
-1.86409
-1.84876
-1.82723
-1.80111
-1.77274
-1.74382
-1.71564
-1.68903
-1.66459
-1.64275
-1.6238
-1.60797
-1.59538
-1.58611
-1.58
-1.57686
-1.57633
-1.87821
-1.87469
-1.86821
-1.85135
-1.82907
-1.8025
-1.77387
-1.7448
-1.71653
-1.68985
-1.66535
-1.64343
-1.62437
-1.60843
-1.59567
-1.58617
-1.57976
-1.57639
-1.57583
-1.89011
-1.88257
-1.87554
-1.85593
-1.832
-1.80437
-1.77509
-1.74561
-1.71707
-1.69022
-1.66556
-1.64349
-1.62428
-1.60816
-1.59521
-1.58547
-1.57886
-1.57543
-1.57496
-1.91057
-1.89417
-1.88637
-1.86255
-1.83599
-1.80667
-1.77634
-1.74621
-1.71725
-1.6901
-1.66521
-1.64293
-1.62351
-1.60718
-1.59403
-1.5841
-1.57739
-1.57402
-1.57368
-1.94518
-1.9118
-1.90124
-1.87139
-1.84104
-1.80938
-1.77759
-1.74656
-1.71702
-1.68947
-1.66428
-1.64173
-1.62207
-1.60551
-1.59216
-1.5821
-1.57538
-1.57215
-1.57195
-2.00645
-1.9461
-1.92091
-1.88272
-1.84716
-1.81247
-1.77885
-1.74668
-1.71642
-1.68839
-1.66283
-1.63998
-1.62005
-1.60325
-1.5897
-1.57955
-1.57289
-1.56983
-1.56974
-517.225
-533.004
-544.136
-545.884
-541.997
-537.473
-537.265
-541.734
-542.92
-398.906
-44.0313
-5.60097
-4.85306
-4.65593
-4.35072
-4.05831
-3.80878
-3.6047
-3.44155
-3.30297
-3.19235
-3.18124
-3.19933
-617.429
-633.851
-647.836
-654.061
-654.749
-653.535
-653.422
-656.205
-661.975
-574.033
-99.895
-4.69162
-4.46151
-4.40404
-4.20032
-3.96454
-3.74753
-3.55854
-3.39655
-3.2545
-3.13831
-3.05373
-2.91029
-727.842
-744.08
-759.195
-767.904
-771.369
-772.383
-773.37
-776.408
-783.736
-715.178
-172.926
-4.14971
-4.19322
-4.193
-4.04997
-3.8554
-3.66345
-3.48726
-3.3285
-3.18429
-3.056
-2.9387
-2.79511
-846.127
-861.497
-876.676
-886.783
-892.171
-894.957
-897.193
-900.893
-908.17
-868.902
-294.41
-3.89211
-4.07851
-4.05623
-3.9234
-3.74517
-3.5658
-3.39789
-3.24324
-3.09981
-2.9659
-2.83725
-2.69995
-969.826
-983.783
-998.151
-1008.7
-1015.25
-1019.36
-1022.74
-1027.12
-1034.24
-1023.42
-487.849
-3.92318
-4.1721
-3.98656
-3.81322
-3.63303
-3.45795
-3.29593
-3.14634
-3.00646
-2.87384
-2.74644
-2.61889
-1097.08
-1109.42
-1122.51
-1132.83
-1139.9
-1144.87
-1149.1
-1154.01
-1161.03
-1163.15
-722.648
-19.9158
-4.2852
-3.83921
-3.67006
-3.50285
-3.33659
-3.18327
-3.04137
-2.90786
-2.78066
-2.65937
-2.54181
-1226.62
-1237.36
-1249.02
-1258.72
-1265.88
-1271.27
-1276
-1281.18
-1287.94
-1291.33
-952.341
-73.8088
-4.00116
-3.58985
-3.48411
-3.3488
-3.2014
-3.06208
-2.931
-2.80629
-2.68692
-2.57362
-2.46568
-1357.46
-1366.74
-1376.97
-1385.88
-1392.8
-1398.27
-1403.15
-1408.31
-1414.61
-1418.42
-1165.97
-161.109
-3.53417
-3.32973
-3.28449
-3.18264
-3.05896
-2.93648
-2.81796
-2.7034
-2.59297
-2.48824
-2.38926
-1488.92
-1496.89
-1505.8
-1513.81
-1520.29
-1525.58
-1530.33
-1535.21
-1540.91
-1544.96
-1365.54
-273.542
-3.24214
-3.11568
-3.09611
-3.01953
-2.91724
-2.81079
-2.70474
-2.60052
-2.49921
-2.4029
-2.31217
-1620.53
-1627.36
-1635.07
-1642.18
-1648.08
-1653
-1657.42
-1661.86
-1666.87
-1670.87
-1550.65
-412.395
-3.04692
-2.938
-2.92677
-2.86674
-2.78089
-2.68801
-2.59322
-2.49865
-2.40599
-2.31759
-2.23433
-1752.02
-1757.86
-1764.5
-1770.73
-1775.99
-1780.41
-1784.37
-1788.28
-1792.57
-1796.32
-1721.26
-574.831
-2.88234
-2.78274
-2.77474
-2.72537
-2.65165
-2.56971
-2.48451
-2.39849
-2.31363
-2.2324
-2.15586
-1883.23
-1888.23
-1893.92
-1899.3
-1903.89
-1907.76
-1911.19
-1914.51
-1918.08
-1921.43
-1878.45
-756.833
-2.73317
-2.64327
-2.63684
-2.59457
-2.52981
-2.45642
-2.37909
-2.30033
-2.22227
-2.14738
-2.07682
-2014.12
-2018.37
-2023.21
-2027.8
-2031.71
-2034.99
-2037.86
-2040.6
-2043.49
-2046.34
-2024.09
-954.202
-2.59582
-2.5163
-2.51071
-2.47326
-2.41502
-2.34814
-2.277
-2.20417
-2.13186
-2.06245
-1.9972
-2144.65
-2148.26
-2152.34
-2156.18
-2159.43
-2162.11
-2164.42
-2166.58
-2168.83
-2171.15
-2160.62
-1163.03
-2.46961
-2.4002
-2.39498
-2.36066
-2.30689
-2.2446
-2.17803
-2.10981
-2.04218
-1.97744
-1.91684
-2274.89
-2277.93
-2281.31
-2284.45
-2287.05
-2289.14
-2290.9
-2292.5
-2294.16
-2295.96
-2290.43
-1379.2
-2.35568
-2.29469
-2.2893
-2.25647
-2.20514
-2.1455
-2.08182
-2.01688
-1.95291
-1.89208
-1.83555
-2404.87
-2407.39
-2410.17
-2412.65
-2414.62
-2416.13
-2417.35
-2418.41
-2419.52
-2420.84
-2416.31
-1599.13
-2.25646
-2.20083
-2.19423
-2.16086
-2.10963
-2.05042
-1.9878
-1.92478
-1.86354
-1.80598
-1.75308
-2534.68
-2536.78
-2539.01
-2540.85
-2542.21
-2543.16
-2543.84
-2544.38
-2544.96
-2545.83
-2542.78
-1822.81
-2.1786
-2.12109
-2.11092
-2.07412
-2.02
-1.95865
-1.89512
-1.8327
-1.77336
-1.7186
-1.66908
-2664.67
-2666.34
-2667.93
-2669.07
-2669.8
-2670.19
-2670.35
-2670.38
-2670.41
-2670.73
-2670.51
-2014.89
-2.1251
-2.05829
-2.04044
-1.996
-1.93517
-1.86883
-1.80247
-1.7395
-1.6815
-1.62933
-1.58314
-2793.93
-2795.4
-2796.37
-2796.97
-2797.21
-2797.12
-2796.8
-2796.33
-2795.76
-2795.22
-2793.95
-2228.7
-2.08533
-2.01406
-1.98623
-1.92689
-1.85285
-1.77845
-1.7077
-1.64356
-1.58683
-1.53746
-1.49486
-2920.83
-2923.13
-2924.44
-2925.25
-2925.32
-2924.86
-2924.13
-2923.23
-2922.07
-2920.42
-2917.54
-2516.03
-2.04259
-2.00159
-1.98923
-1.86355
-1.76854
-1.6833
-1.6075
-1.54255
-1.48786
-1.44209
-1.40378
-3052.5
-3057.88
-3059.96
-3060.85
-3060.33
-3059.14
-3057.83
-3056.5
-3054.95
-3052.47
-3046.78
-2608.7
-2.05969
-2.17762
-2.03376
-1.79541
-1.67339
-1.57687
-1.49754
-1.43384
-1.38311
-1.34245
-1.30949
-3110.35
-2929.23
-2834.01
-2756.62
-2707.62
-2695.06
-2712.65
-2749.57
-2795.74
-2843.47
-2846.38
-1904.17
-1.69985
-2.87295
-2.03474
-1.69821
-1.55266
-1.45044
-1.37316
-1.31521
-1.27164
-1.23825
-1.21202
-1580.31
-960.473
-796.127
-687.96
-625.757
-610.53
-631.055
-676.134
-736.064
-802.999
-844.19
-320.489
-12.4734
-3.926
-1.8092
-1.54095
-1.38959
-1.29566
-1.2311
-1.18583
-1.15367
-1.13008
-1.11205
-93.1424
-41.5234
-35.5356
-32.2605
-30.0198
-29.192
-29.4892
-30.5377
-31.8825
-32.8414
-32.1977
-15.8603
-16.1447
-3.81245
-1.43752
-1.27057
-1.16948
-1.11045
-1.0728
-1.04788
-1.03122
-1.01963
-1.01096
-20.429
-9.69929
-7.26308
-6.49887
-5.96478
-5.73843
-5.76785
-5.9488
-6.15692
-6.19817
-5.81245
-4.43312
-5.40456
-1.67537
-0.941408
-0.935146
-0.919745
-0.911932
-0.908643
-0.907728
-0.908403
-0.909661
-0.910709
-3.95622
-1.36838
-0.525018
-0.328277
-0.208566
-0.161414
-0.183113
-0.25446
-0.351998
-0.432628
-0.413899
-0.674268
-0.649733
-0.373783
-0.526404
-0.633684
-0.688542
-0.725172
-0.75234
-0.773314
-0.790047
-0.803296
-0.813457
0.23444
0.79516
1.00468
1.04144
1.0506
1.03362
0.9859
0.907924
0.800722
0.669789
0.526996
0.285283
0.0911568
-0.0839374
-0.28061
-0.413773
-0.501331
-0.564841
-0.613042
-0.650448
-0.679953
-0.703124
-0.721055
1.12495
1.23525
1.26858
1.25966
1.23727
1.19809
1.13742
1.05249
0.940788
0.799979
0.628924
0.43172
0.236637
0.0428375
-0.127728
-0.258215
-0.356845
-0.433407
-0.493775
-0.541811
-0.580265
-0.610816
-0.634808
1.2175
1.23803
1.23361
1.21453
1.18443
1.13966
1.07666
0.993111
0.887371
0.758518
0.607891
0.444572
0.278764
0.116855
-0.027974
-0.14888
-0.24764
-0.328245
-0.39407
-0.447835
-0.49172
-0.527153
-0.55544
1.13939
1.14446
1.13485
1.1152
1.08468
1.0405
0.980374
0.903051
0.808158
0.696255
0.569679
0.434052
0.295723
0.160747
0.0364856
-0.0725145
-0.165969
-0.245213
-0.31189
-0.367675
-0.414107
-0.452236
-0.483183
1.03062
1.03358
1.02507
1.00704
0.97818
0.936796
0.881708
0.812426
0.729277
0.633384
0.52695
0.413655
0.297915
0.184212
0.0773032
-0.0195405
-0.1053
-0.180157
-0.244726
-0.299908
-0.346683
-0.385723
-0.417911
0.920552
0.923316
0.916434
0.900257
0.87374
0.836072
0.78678
0.725841
0.653879
0.572123
0.482422
0.387377
0.290086
0.193816
0.101824
0.0166011
-0.0606053
-0.129495
-0.190149
-0.242955
-0.288461
-0.327013
-0.359263
0.814734
0.817506
0.811816
0.797413
0.773621
0.740095
0.696734
0.643812
0.582074
0.512669
0.437089
0.357223
0.275298
0.193695
0.114755
0.0404049
-0.0281314
-0.0903254
-0.14602
-0.195292
-0.238382
-0.275381
-0.306741
0.713861
0.71646
0.711571
0.698929
0.678071
0.648796
0.611211
0.565787
0.513303
0.454752
0.391302
0.324351
0.255519
0.186558
0.1192
0.0549408
-0.00512325
-0.0603683
-0.110535
-0.155538
-0.195411
-0.230064
-0.259786
0.617528
0.61972
0.615461
0.604596
0.586685
0.561564
0.529491
0.49105
0.44698
0.398087
0.345259
0.289526
0.23208
0.174224
0.117262
0.0623643
0.0104605
-0.037826
-0.0821853
-0.122469
-0.158584
-0.190315
-0.217825
0.525115
0.526877
0.523253
0.514133
0.499034
0.477872
0.451023
0.41909
0.382707
0.34249
0.299089
0.253258
0.20588
0.157931
0.110408
0.0642264
0.0201481
-0.0212669
-0.0597026
-0.0950063
-0.127016
-0.155426
-0.180303
0.436253
0.437738
0.434793
0.4273
0.414817
0.397396
0.37547
0.349581
0.320221
0.287833
0.252874
0.21589
0.177537
0.138554
0.0997059
0.0617016
0.0251417
-0.00951618
-0.0419968
-0.0721912
-0.0999034
-0.124739
-0.146684
0.3508
0.352141
0.349847
0.343826
0.333778
0.319883
0.302566
0.282256
0.259302
0.233999
0.206659
0.177669
0.147517
0.116762
0.085982
0.0557142
0.0264082
-0.00159764
-0.0281157
-0.0531629
-0.0765119
-0.0976331
-0.116445
0.268544
0.269752
0.268008
0.263323
0.25557
0.245001
0.231977
0.216804
0.199703
0.180852
0.160452
0.138776
0.116177
0.0930701
0.0698798
0.0469945
0.0247297
0.00331302
-0.0171911
-0.0371391
-0.0562071
-0.0735671
-0.0891007
0.189055
0.190028
0.188695
0.185202
0.179589
0.17213
0.163094
0.152666
0.140959
0.128062
0.114091
0.0992244
0.0837065
0.0678272
0.0518832
0.0361421
0.0208287
0.00613305
-0.00806644
-0.0231328
-0.0384644
-0.0522236
-0.0643904
0.11186
0.112378
0.111208
0.108677
0.104991
0.100408
0.0950918
0.0891085
0.0824754
0.0752056
0.0673441
0.0589857
0.050274
0.0413869
0.0325152
0.0238456
0.0156095
0.00823507
0.00159392
-0.00914131
-0.0224943
-0.0331685
-0.0420764
0.0359852
0.0358852
0.0350421
0.0338076
0.0323549
0.0307925
0.02915
0.0274115
0.0255466
0.0235325
0.0213664
0.0190697
0.016688
0.0142892
0.0119616
0.00981944
0.0081087
0.0076161
0.00928528
0.00568869
-0.00587484
-0.0124896
-0.0170819
-2.9099
-2.79534
-2.73434
-2.62758
-2.71956
-2.61038
-2.50075
-2.38061
-2.66381
-2.57508
-2.48158
-2.38366
-2.58341
-2.5038
-2.42336
-2.3463
-2.51599
-2.44474
-2.37263
-2.30532
-2.44928
-2.38483
-2.31957
-2.25928
-2.38188
-2.32335
-2.26397
-2.20931
-2.31306
-2.25977
-2.20563
-2.15581
-2.24266
-2.19408
-2.14468
-2.09914
-2.17078
-2.12641
-2.08128
-2.03962
-2.09759
-2.05699
-2.0157
-1.97754
-2.0233
-1.98607
-1.94821
-1.9132
-1.94793
-1.91373
-1.87898
-1.84681
-1.8714
-1.83996
-1.80804
-1.77848
-1.79358
-1.76467
-1.73538
-1.70825
-1.71431
-1.68777
-1.66096
-1.63614
-1.63337
-1.60912
-1.58472
-1.56216
-1.5505
-1.52856
-1.50658
-1.48628
-1.46549
-1.44597
-1.42651
-1.40855
-1.3781
-1.36123
-1.34448
-1.329
-1.28807
-1.27417
-1.2604
-1.24765
-1.19551
-1.18494
-1.17449
-1.16473
-1.10111
-1.09424
-1.08741
-1.08088
-1.00604
-1.00309
-1.00007
-0.996909
-0.911868
-0.912841
-0.913617
-0.913808
-0.820288
-0.824926
-0.829267
-0.832611
-0.732802
-0.740643
-0.748123
-0.754266
-0.650517
-0.660974
-0.671047
-0.67953
-0.574097
-0.586537
-0.598606
-0.608921
-0.503811
-0.517614
-0.531085
-0.54272
-0.439621
-0.454213
-0.468531
-0.481004
-0.381278
-0.396149
-0.410816
-0.423691
-0.328401
-0.343112
-0.357697
-0.370594
-0.280544
-0.294724
-0.308862
-0.321454
-0.237241
-0.250585
-0.263971
-0.275975
-0.198032
-0.210292
-0.222666
-0.233839
-0.162463
-0.17344
-0.184581
-0.194708
-0.13008
-0.139611
-0.14933
-0.158214
-0.100414
-0.108353
-0.116479
-0.123956
-0.0731123
-0.079282
-0.0856811
-0.0917079
-0.0485654
-0.0530506
-0.0576546
-0.0619788
-0.0203317
-0.0225224
-0.0247715
-0.0269605
-2.22466
-2.03202
-1.95634
-1.9023
-1.85738
-1.8173
-1.78048
-1.74636
-1.71484
-1.68595
-1.65978
-1.63644
-1.6161
-1.59892
-1.58511
-1.57484
-1.56829
-1.56547
-1.5655
-2.20742
-2.08369
-1.99133
-1.92229
-1.86754
-1.82114
-1.78024
-1.74348
-1.71023
-1.68017
-1.65317
-1.6292
-1.60835
-1.5908
-1.57673
-1.5664
-1.55998
-1.55736
-1.55751
-2.23452
-2.10734
-2.00946
-1.93311
-1.8719
-1.82069
-1.77641
-1.73734
-1.70253
-1.6714
-1.64364
-1.61914
-1.59793
-1.58014
-1.56601
-1.55575
-1.5495
-1.54704
-1.54726
-2.23048
-2.11003
-2.01233
-1.93352
-1.86906
-1.8149
-1.76832
-1.72758
-1.69157
-1.65961
-1.63129
-1.60642
-1.585
-1.56713
-1.55304
-1.54293
-1.53686
-1.53451
-1.53475
-2.20646
-2.09616
-2.00249
-1.92433
-1.85903
-1.80361
-1.75582
-1.7141
-1.67737
-1.64491
-1.61627
-1.59122
-1.56973
-1.55191
-1.53793
-1.52798
-1.52206
-1.51978
-1.52001
-2.17171
-2.07101
-1.9827
-1.90695
-1.84243
-1.78703
-1.73897
-1.69694
-1.65995
-1.62733
-1.59862
-1.57359
-1.55219
-1.53451
-1.5207
-1.51091
-1.50511
-1.50287
-1.50307
-2.1303
-2.03795
-1.9552
-1.88273
-1.82
-1.76553
-1.71796
-1.67618
-1.63937
-1.60692
-1.57839
-1.55357
-1.53239
-1.51494
-1.50135
-1.49173
-1.48603
-1.48382
-1.48397
-2.08387
-1.99886
-1.92152
-1.85275
-1.79243
-1.73952
-1.69298
-1.65194
-1.61569
-1.5837
-1.55559
-1.53116
-1.51034
-1.49321
-1.47988
-1.47046
-1.46487
-1.46266
-1.46275
-2.03333
-1.9549
-1.88275
-1.81783
-1.76028
-1.70937
-1.6643
-1.62436
-1.58899
-1.55773
-1.53026
-1.50638
-1.48606
-1.46933
-1.45633
-1.44713
-1.44164
-1.43944
-1.43946
-1.97927
-1.90684
-1.83964
-1.77861
-1.72405
-1.67543
-1.63214
-1.59361
-1.55939
-1.52909
-1.50245
-1.47929
-1.45957
-1.44334
-1.43072
-1.42177
-1.4164
-1.41421
-1.41416
-1.92214
-1.85524
-1.79276
-1.7356
-1.68415
-1.63802
-1.59674
-1.55987
-1.52702
-1.49788
-1.47223
-1.44993
-1.43093
-1.41528
-1.40309
-1.39442
-1.38919
-1.38702
-1.38689
-1.86229
-1.80052
-1.74254
-1.6892
-1.64094
-1.59744
-1.55835
-1.52331
-1.49202
-1.46422
-1.43971
-1.41838
-1.40019
-1.3852
-1.3735
-1.36515
-1.36008
-1.35792
-1.35772
-1.79998
-1.74301
-1.68934
-1.63977
-1.59472
-1.55396
-1.51719
-1.48414
-1.45455
-1.42822
-1.40498
-1.38473
-1.36745
-1.35318
-1.34201
-1.33402
-1.32912
-1.32699
-1.32672
-1.73542
-1.68297
-1.63346
-1.5876
-1.54579
-1.50784
-1.4735
-1.44256
-1.41479
-1.39004
-1.36817
-1.34909
-1.33278
-1.3193
-1.30872
-1.3011
-1.2964
-1.29431
-1.29397
-1.66873
-1.6206
-1.57514
-1.53296
-1.49441
-1.45932
-1.4275
-1.39876
-1.37291
-1.34984
-1.32942
-1.31158
-1.29631
-1.28365
-1.27369
-1.26649
-1.262
-1.25996
-1.25955
-1.60002
-1.55608
-1.5146
-1.47608
-1.44081
-1.40865
-1.37941
-1.35294
-1.3291
-1.30777
-1.28886
-1.27232
-1.25813
-1.24635
-1.23704
-1.23027
-1.22602
-1.22403
-1.22356
-1.52935
-1.48955
-1.45204
-1.41719
-1.38524
-1.35605
-1.32945
-1.30531
-1.28353
-1.264
-1.24665
-1.23145
-1.21838
-1.2075
-1.19887
-1.19256
-1.18854
-1.18662
-1.1861
-1.4568
-1.42117
-1.38766
-1.35652
-1.32792
-1.30175
-1.27784
-1.25608
-1.23639
-1.2187
-1.20295
-1.18911
-1.17719
-1.16722
-1.15929
-1.15345
-1.14969
-1.14784
-1.14728
-1.38249
-1.35111
-1.32166
-1.29429
-1.26911
-1.24598
-1.22479
-1.20545
-1.18789
-1.17205
-1.15792
-1.14546
-1.1347
-1.12566
-1.11843
-1.11306
-1.10957
-1.1078
-1.1072
-1.30653
-1.27957
-1.2543
-1.23077
-1.20904
-1.18901
-1.17056
-1.15364
-1.13821
-1.12424
-1.11172
-1.10065
-1.09104
-1.08293
-1.07641
-1.07153
-1.06831
-1.06663
-1.066
-1.22906
-1.20677
-1.18584
-1.16624
-1.14801
-1.13107
-1.11537
-1.10087
-1.08756
-1.07545
-1.06454
-1.05483
-1.04636
-1.03918
-1.03336
-1.02896
-1.02602
-1.02443
-1.02379
-1.15036
-1.13302
-1.11657
-1.10098
-1.08628
-1.07245
-1.05947
-1.04737
-1.03616
-1.02587
-1.01653
-1.00817
-1.00082
-0.994541
-0.989406
-0.98549
-0.982822
-0.981336
-0.980684
-1.071
-1.05879
-1.0469
-1.03533
-1.02415
-1.01339
-1.00311
-0.993354
-0.984189
-0.975674
-0.967863
-0.960805
-0.954546
-0.949146
-0.944683
-0.941235
-0.938841
-0.937458
-0.936809
-0.991666
-0.984629
-0.977279
-0.969687
-0.961948
-0.954185
-0.946513
-0.939035
-0.931849
-0.925047
-0.918709
-0.912901
-0.907686
-0.903129
-0.899313
-0.896318
-0.894192
-0.892916
-0.892282
-0.913162
-0.911181
-0.908224
-0.904455
-0.900018
-0.895117
-0.889935
-0.884625
-0.879324
-0.874152
-0.869214
-0.864595
-0.860369
-0.856615
-0.853416
-0.850857
-0.84899
-0.847822
-0.84722
-0.836307
-0.839073
-0.840231
-0.840044
-0.838697
-0.836476
-0.833624
-0.830343
-0.826804
-0.823156
-0.819527
-0.81602
-0.812725
-0.809724
-0.807108
-0.804963
-0.80335
-0.802289
-0.801723
-0.761852
-0.768889
-0.773765
-0.776829
-0.778299
-0.778526
-0.777809
-0.77639
-0.774469
-0.772222
-0.769797
-0.767315
-0.764877
-0.762575
-0.760503
-0.758748
-0.757379
-0.756428
-0.755894
-0.690414
-0.701116
-0.709221
-0.715136
-0.719097
-0.721503
-0.722695
-0.722944
-0.722479
-0.721495
-0.720157
-0.718603
-0.716944
-0.71528
-0.713707
-0.712316
-0.711178
-0.710338
-0.709831
-0.622435
-0.636123
-0.646908
-0.655227
-0.661315
-0.6656
-0.668449
-0.670157
-0.670969
-0.671097
-0.670721
-0.66999
-0.669027
-0.667937
-0.666818
-0.66576
-0.664838
-0.664107
-0.663628
-0.55818
-0.57415
-0.587041
-0.59729
-0.605119
-0.610963
-0.615203
-0.618144
-0.620043
-0.621125
-0.621579
-0.621565
-0.621211
-0.620629
-0.619916
-0.619162
-0.618441
-0.617813
-0.617366
-0.497755
-0.515316
-0.52974
-0.541442
-0.550617
-0.557692
-0.563046
-0.566988
-0.56978
-0.571652
-0.572801
-0.573393
-0.573563
-0.573423
-0.573071
-0.572591
-0.572056
-0.571528
-0.571114
-0.441133
-0.459636
-0.475045
-0.487734
-0.497865
-0.505843
-0.512035
-0.516744
-0.520231
-0.52273
-0.524441
-0.525532
-0.52614
-0.52638
-0.526344
-0.52611
-0.525745
-0.525314
-0.524936
-0.388193
-0.407047
-0.422928
-0.436161
-0.446871
-0.455433
-0.462192
-0.467439
-0.471432
-0.474399
-0.47654
-0.478026
-0.478993
-0.479552
-0.47979
-0.479776
-0.479567
-0.479227
-0.478886
-0.338745
-0.357421
-0.373306
-0.38667
-0.397605
-0.406446
-0.413514
-0.419081
-0.423395
-0.426678
-0.429128
-0.430911
-0.432161
-0.432984
-0.433458
-0.433638
-0.43357
-0.433314
-0.433004
-0.292554
-0.310585
-0.326051
-0.339168
-0.349998
-0.358834
-0.365967
-0.371648
-0.376111
-0.37957
-0.382214
-0.384202
-0.385666
-0.386702
-0.387378
-0.387733
-0.387795
-0.387617
-0.387323
-0.24935
-0.266327
-0.280999
-0.293528
-0.303951
-0.31252
-0.319492
-0.325096
-0.32955
-0.333052
-0.335783
-0.337893
-0.339505
-0.34071
-0.341564
-0.342089
-0.342284
-0.342188
-0.341885
-0.208832
-0.224397
-0.237942
-0.249579
-0.259324
-0.267388
-0.273993
-0.279346
-0.283644
-0.287068
-0.289786
-0.291938
-0.293639
-0.294973
-0.295989
-0.296691
-0.297034
-0.297026
-0.296624
-0.170661
-0.184499
-0.196626
-0.207103
-0.215927
-0.223272
-0.229326
-0.234269
-0.238276
-0.24151
-0.244119
-0.246234
-0.247963
-0.249385
-0.250546
-0.251423
-0.251901
-0.251959
-0.251203
-0.134532
-0.146419
-0.156899
-0.165996
-0.173699
-0.180145
-0.185491
-0.189889
-0.193489
-0.196433
-0.198849
-0.200855
-0.202551
-0.204018
-0.205304
-0.206354
-0.206965
-0.207187
-0.206029
-0.100504
-0.110403
-0.119138
-0.126738
-0.133201
-0.138636
-0.143174
-0.146941
-0.15006
-0.152647
-0.154813
-0.156661
-0.158286
-0.159775
-0.161189
-0.162513
-0.163698
-0.164925
-0.162816
-0.068283
-0.0759679
-0.0828477
-0.0888234
-0.0939131
-0.0982151
-0.101836
-0.104875
-0.107428
-0.109584
-0.111432
-0.113058
-0.114556
-0.11602
-0.11754
-0.119311
-0.12239
-0.128041
-0.117568
-0.0303608
-0.03491
-0.0390115
-0.042568
-0.0456199
-0.0482356
-0.0504777
-0.0524011
-0.0540561
-0.0554919
-0.0567608
-0.057924
-0.0590615
-0.0602869
-0.061763
-0.0639077
-0.0692338
-0.0863399
-0.0554143
)
;

boundaryField
{
    leftWall
    {
        type            fixedFluxPressure;
        gradient        uniform 0;
        value           nonuniform List<scalar> 
50
(
-309.999
-310.515
-318.245
-333.201
-354.653
-382.096
-414.926
-452.399
-517.225
-617.429
-727.842
-846.127
-969.826
-1097.08
-1226.62
-1357.46
-1488.92
-1620.53
-1752.02
-1883.23
-2014.12
-2144.65
-2274.89
-2404.87
-2534.68
-2664.67
-2793.93
-2920.83
-3052.5
-3110.35
-1580.31
-93.1424
-20.429
-3.95622
0.23444
1.12495
1.2175
1.13939
1.03062
0.920552
0.814734
0.713861
0.617528
0.525115
0.436253
0.3508
0.268544
0.189055
0.11186
0.0359852
)
;
    }
    rightWall
    {
        type            fixedFluxPressure;
        gradient        uniform 0;
        value           nonuniform List<scalar> 
50
(
-1.5763
-1.57649
-1.57633
-1.57583
-1.57496
-1.57368
-1.57195
-1.56974
-1.5655
-1.55751
-1.54726
-1.53475
-1.52001
-1.50307
-1.48397
-1.46275
-1.43946
-1.41416
-1.38689
-1.35772
-1.32672
-1.29397
-1.25955
-1.22356
-1.1861
-1.14728
-1.1072
-1.066
-1.02379
-0.980684
-0.936809
-0.892282
-0.84722
-0.801723
-0.755894
-0.709831
-0.663628
-0.617366
-0.571114
-0.524936
-0.478886
-0.433004
-0.387323
-0.341885
-0.296624
-0.251203
-0.206029
-0.162816
-0.117568
-0.0554143
)
;
    }
    lowerWall
    {
        type            fixedFluxPressure;
        gradient        uniform 0;
        value           nonuniform List<scalar> 
62
(
-309.999
-306.385
-287.868
-255.82
-216.799
-153.228
-34.8567
-7.36857
-6.69564
-6.81595
-6.58988
-6.00096
-5.34025
-4.75964
-4.30088
-3.95856
-3.7015
-3.50867
-3.36561
-3.26939
-3.23019
-3.25153
-3.32236
-3.32236
-3.33154
-3.34858
-3.37342
-3.40324
-3.44575
-3.52804
-3.58182
-2.9099
-2.79534
-2.73434
-2.62758
-1.87026
-1.86955
-1.87186
-1.87821
-1.89011
-1.91057
-1.94518
-2.00645
-1.87026
-1.87024
-1.86365
-1.84828
-1.82622
-1.79969
-1.77098
-1.74179
-1.71343
-1.68672
-1.66225
-1.6404
-1.62146
-1.60569
-1.59323
-1.58425
-1.57869
-1.57626
-1.5763
)
;
    }
    atmosphere
    {
        type            totalPressure;
        rho             rho;
        psi             none;
        gamma           1;
        p0              uniform 0;
        value           nonuniform List<scalar> 
46
(
0
0
0
0
0
0
0
0
0
0
0
0
0
0
0
0
0
0
0
-6.326e-05
-0.000433784
-0.0010893
-0.00186077
-0.00240864
-0.00285884
-0.00347895
-0.00431411
-0.00606378
-0.008292
-0.0102458
-0.0119644
-0.0134887
-0.0148489
-0.0160648
-0.0171505
-0.0181189
-0.0189846
-0.0197667
-0.0204923
-0.0212009
-0.0219505
-0.0228244
-0.0239446
-0.0255249
-0.0284575
-0.0208432
)
;
    }
    defaultFaces
    {
        type            empty;
    }
}


// ************************************************************************* //
