/*--------------------------------*- C++ -*----------------------------------*\
  =========                 |
  \\      /  F ield         | OpenFOAM: The Open Source CFD Toolbox
   \\    /   O peration     | Website:  https://openfoam.org
    \\  /    A nd           | Version:  9
     \\/     M anipulation  |
\*---------------------------------------------------------------------------*/
FoamFile
{
    format      ascii;
    class       volVectorField;
    location    "0.1";
    object      U;
}
// * * * * * * * * * * * * * * * * * * * * * * * * * * * * * * * * * * * * * //

dimensions      [0 1 -1 0 0 0 0];

internalField   nonuniform List<vector> 
2268
(
(0.00650357 -0.00600602 0)
(0.042085 -0.0157532 0)
(0.101256 -0.0207411 0)
(0.167519 -0.0225457 0)
(0.237702 -0.0231228 0)
(0.310244 -0.0233775 0)
(0.384898 -0.0237818 0)
(0.462356 -0.0247024 0)
(0.545173 -0.0263866 0)
(0.63525 -0.0290679 0)
(0.736777 -0.0335431 0)
(0.854741 -0.0401508 0)
(0.991993 -0.0475854 0)
(1.14522 -0.0502738 0)
(1.29172 -0.0389238 0)
(1.38637 -0.0134047 0)
(1.39896 0.00363721 0)
(1.37019 -0.010758 0)
(1.36056 -0.0521274 0)
(1.3886 -0.0876892 0)
(1.37587 -0.067933 0)
(1.05777 0.0365251 0)
(0.456917 0.143713 0)
(0.0177593 -0.0166447 0)
(0.0609882 -0.0363058 0)
(0.118041 -0.045391 0)
(0.179465 -0.049457 0)
(0.244155 -0.051578 0)
(0.311668 -0.0531216 0)
(0.38208 -0.0549795 0)
(0.45617 -0.0579308 0)
(0.535756 -0.062582 0)
(0.623034 -0.0696065 0)
(0.72095 -0.0798537 0)
(0.83231 -0.0930511 0)
(0.957903 -0.10621 0)
(1.09332 -0.109464 0)
(1.22141 -0.0864943 0)
(1.31393 -0.0374136 0)
(1.36163 0.00367952 0)
(1.37349 0.0130658 0)
(1.36679 0.00560715 0)
(1.37779 0.0448546 0)
(1.44043 0.18073 0)
(1.2804 0.365686 0)
(0.582799 0.528881 0)
(0.0262938 -0.0371009 0)
(0.0741271 -0.0608428 0)
(0.129508 -0.0710719 0)
(0.186953 -0.0766145 0)
(0.247018 -0.0801996 0)
(0.310072 -0.0832213 0)
(0.376484 -0.0868012 0)
(0.447065 -0.0919768 0)
(0.523267 -0.0996509 0)
(0.606959 -0.110717 0)
(0.700112 -0.125932 0)
(0.804025 -0.144561 0)
(0.918318 -0.162319 0)
(1.03855 -0.166503 0)
(1.15091 -0.136725 0)
(1.23858 -0.0730753 0)
(1.30032 -0.0166389 0)
(1.33888 0.00144783 0)
(1.33367 -0.0175758 0)
(1.25488 -0.0507672 0)
(1.16076 0.15373 0)
(1.01087 0.512488 0)
(0.480569 0.921808 0)
(0.0309007 -0.0617846 0)
(0.0824634 -0.0872742 0)
(0.137391 -0.09709 0)
(0.192311 -0.103375 0)
(0.249052 -0.10816 0)
(0.308633 -0.11264 0)
(0.371704 -0.118015 0)
(0.439115 -0.125483 0)
(0.512064 -0.136132 0)
(0.591989 -0.150944 0)
(0.680078 -0.170473 0)
(0.776563 -0.193398 0)
(0.880405 -0.214254 0)
(0.987244 -0.21844 0)
(1.0852 -0.183525 0)
(1.16911 -0.108303 0)
(1.24145 -0.0362181 0)
(1.29008 0.00338213 0)
(1.24426 0.0118078 0)
(1.11607 0.0427407 0)
(0.927251 0.234745 0)
(0.689809 0.684589 0)
(0.312667 1.21156 0)
(0.0326152 -0.0883514 0)
(0.0870278 -0.114466 0)
(0.14243 -0.122849 0)
(0.196123 -0.129299 0)
(0.25074 -0.135053 0)
(0.307792 -0.140951 0)
(0.368187 -0.148152 0)
(0.432824 -0.157914 0)
(0.502714 -0.171407 0)
(0.578886 -0.18958 0)
(0.661897 -0.212674 0)
(0.751191 -0.238758 0)
(0.845308 -0.261367 0)
(0.939517 -0.264952 0)
(1.02312 -0.226877 0)
(1.10294 -0.144632 0)
(1.18006 -0.0564359 0)
(1.22238 0.0101887 0)
(1.14591 0.0530148 0)
(0.982287 0.137614 0)
(0.719887 0.379911 0)
(0.433298 0.854992 0)
(0.170704 1.40548 0)
(0.0328845 -0.115731 0)
(0.0892368 -0.142174 0)
(0.145567 -0.148514 0)
(0.198975 -0.154603 0)
(0.252445 -0.161017 0)
(0.307803 -0.168178 0)
(0.366166 -0.17711 0)
(0.428483 -0.189043 0)
(0.49562 -0.205128 0)
(0.568265 -0.226174 0)
(0.646472 -0.252045 0)
(0.729113 -0.280191 0)
(0.814387 -0.303246 0)
(0.896514 -0.305464 0)
(0.966099 -0.266002 0)
(1.03889 -0.182386 0)
(1.11153 -0.0752226 0)
(1.1649 0.0171086 0)
(1.06995 0.110608 0)
(0.869212 0.248474 0)
(0.578413 0.519703 0)
(0.302085 0.980825 0)
(0.103955 1.50817 0)
(0.0328013 -0.143535 0)
(0.0902832 -0.170373 0)
(0.147604 -0.174396 0)
(0.201307 -0.179714 0)
(0.254344 -0.186461 0)
(0.308684 -0.194662 0)
(0.365585 -0.205152 0)
(0.426028 -0.219061 0)
(0.49077 -0.23744 0)
(0.560233 -0.260883 0)
(0.6341 -0.288832 0)
(0.710882 -0.318101 0)
(0.788482 -0.340393 0)
(0.859513 -0.340294 0)
(0.91667 -0.300164 0)
(0.979412 -0.218711 0)
(1.04256 -0.0920757 0)
(1.11838 0.0317988 0)
(0.996317 0.179204 0)
(0.781791 0.367517 0)
(0.505015 0.650246 0)
(0.284778 1.071 0)
(0.114551 1.57913 0)
(0.0328937 -0.171712 0)
(0.0907938 -0.199166 0)
(0.148856 -0.200743 0)
(0.203094 -0.204979 0)
(0.256121 -0.211754 0)
(0.309902 -0.220746 0)
(0.365754 -0.232579 0)
(0.424667 -0.248235 0)
(0.487311 -0.268604 0)
(0.553915 -0.294013 0)
(0.623921 -0.323465 0)
(0.695735 -0.353123 0)
(0.766959 -0.373745 0)
(0.828145 -0.37065 0)
(0.875847 -0.329486 0)
(0.928945 -0.250457 0)
(0.988355 -0.118533 0)
(1.05488 0.0494342 0)
(0.923875 0.25049 0)
(0.721774 0.477736 0)
(0.490639 0.759783 0)
(0.354393 1.14034 0)
(0.136937 1.69934 0)
(-0.000156718 -0.00345461 0)
(0.0324183 -0.0143913 0)
(0.0874889 -0.0141504 0)
(0.129218 -0.00942501 0)
(0.154153 -0.00499513 0)
(0.165407 -0.00160876 0)
(0.166363 0.000743805 0)
(0.160664 0.0022032 0)
(0.150963 0.00306144 0)
(0.138776 0.0035886 0)
(0.125041 0.00392024 0)
(0.11032 0.00413906 0)
(0.0948921 0.00431553 0)
(0.078862 0.00449141 0)
(0.0622494 0.00468025 0)
(0.0451663 0.00482394 0)
(0.0281431 0.00471198 0)
(0.0124492 0.00374097 0)
(0.00249193 0.00183708 0)
(0.00668611 -0.00841273 0)
(0.0428582 -0.0325344 0)
(0.0966268 -0.0316971 0)
(0.134213 -0.0212168 0)
(0.155398 -0.0112695 0)
(0.164316 -0.00367338 0)
(0.16473 0.00163072 0)
(0.159267 0.00506648 0)
(0.149803 0.00720197 0)
(0.137792 0.00853163 0)
(0.124206 0.00936704 0)
(0.109634 0.00991621 0)
(0.0944073 0.0103348 0)
(0.0786983 0.0107117 0)
(0.0626224 0.0110529 0)
(0.0463845 0.0112109 0)
(0.0304345 0.0107708 0)
(0.0156906 0.00875847 0)
(0.00460878 0.00460573 0)
(0.0100711 -0.018037 0)
(0.0500583 -0.0538363 0)
(0.10488 -0.0495795 0)
(0.138961 -0.0322036 0)
(0.156017 -0.0166328 0)
(0.162038 -0.00507678 0)
(0.160622 0.00293963 0)
(0.15414 0.00823572 0)
(0.144312 0.0116069 0)
(0.132363 0.0137145 0)
(0.119115 0.015029 0)
(0.105074 0.0158769 0)
(0.0905331 0.0164894 0)
(0.075678 0.0169908 0)
(0.0606708 0.0173748 0)
(0.045749 0.0174362 0)
(0.0312478 0.016676 0)
(0.0177622 0.0141067 0)
(0.00633571 0.00913647 0)
(0.00970565 -0.0292352 0)
(0.0566248 -0.0785236 0)
(0.115279 -0.068181 0)
(0.146478 -0.0421826 0)
(0.15919 -0.0207442 0)
(0.161928 -0.00548948 0)
(0.158392 0.00495398 0)
(0.150697 0.0118579 0)
(0.140312 0.016269 0)
(0.128244 0.0190225 0)
(0.115171 0.0207274 0)
(0.101512 0.0218099 0)
(0.0875211 0.0225593 0)
(0.0733759 0.023123 0)
(0.0592477 0.0234834 0)
(0.0453542 0.0234067 0)
(0.0318994 0.0223819 0)
(0.0192159 0.0195441 0)
(0.00748609 0.0144632 0)
(0.0101101 -0.037473 0)
(0.0676179 -0.106698 0)
(0.129975 -0.0872171 0)
(0.157634 -0.0506337 0)
(0.1654 -0.0232033 0)
(0.164415 -0.00469066 0)
(0.158431 0.00774376 0)
(0.14926 0.0159282 0)
(0.138081 0.0211511 0)
(0.125683 0.0243965 0)
(0.112591 0.0263856 0)
(0.0991336 0.0276229 0)
(0.0855162 0.028442 0)
(0.0718919 0.0290054 0)
(0.0584101 0.0292895 0)
(0.0452342 0.0290556 0)
(0.0324421 0.0278299 0)
(0.0201659 0.0249447 0)
(0.00810732 0.0201572 0)
(0.0309614 -0.0498886 0)
(0.0926283 -0.1374 0)
(0.151593 -0.105236 0)
(0.173119 -0.0568661 0)
(0.174848 -0.0236734 0)
(0.169601 -0.00248804 0)
(0.160831 0.0114281 0)
(0.149914 0.0205271 0)
(0.137706 0.0263107 0)
(0.124762 0.0298786 0)
(0.111452 0.0320346 0)
(0.0980065 0.0333414 0)
(0.0845731 0.0341632 0)
(0.0712647 0.0346732 0)
(0.0581876 0.0348483 0)
(0.0454338 0.0344633 0)
(0.0329719 0.0331101 0)
(0.0207937 0.0303426 0)
(0.00838627 0.0260777 0)
(0.108894 -0.0953635 0)
(0.143831 -0.16861 0)
(0.181959 -0.118392 0)
(0.193143 -0.0596599 0)
(0.187511 -0.0217751 0)
(0.17739 0.00131202 0)
(0.165497 0.0161413 0)
(0.152583 0.0257652 0)
(0.139129 0.0318484 0)
(0.125441 0.0355633 0)
(0.111724 0.0377664 0)
(0.0981076 0.0390571 0)
(0.0846728 0.0398191 0)
(0.0714817 0.0402332 0)
(0.0585845 0.0402829 0)
(0.0459952 0.0397689 0)
(0.0335949 0.0383588 0)
(0.0212844 0.0358158 0)
(0.00851058 0.0321505 0)
(0.240352 -0.178849 0)
(0.223087 -0.196878 0)
(0.220334 -0.122464 0)
(0.216955 -0.0574313 0)
(0.202911 -0.017019 0)
(0.18735 0.00694787 0)
(0.172036 0.0220509 0)
(0.15693 0.0317795 0)
(0.142063 0.0378863 0)
(0.127476 0.0415648 0)
(0.113202 0.0436896 0)
(0.0992626 0.0448758 0)
(0.0856699 0.0455152 0)
(0.0724287 0.0457945 0)
(0.0595274 0.0457089 0)
(0.0469034 0.0450924 0)
(0.0343731 0.04369 0)
(0.0217824 0.0414332 0)
(0.00863364 0.0383381 0)
(0.0328295 -0.215186 0)
(0.0904061 -0.244794 0)
(0.148811 -0.242741 0)
(0.203674 -0.244992 0)
(0.256799 -0.251366 0)
(0.309927 -0.261146 0)
(0.364344 -0.274648 0)
(0.420995 -0.292576 0)
(0.480434 -0.315493 0)
(0.542686 -0.34326 0)
(0.607033 -0.374187 0)
(0.672085 -0.403486 0)
(0.734749 -0.420921 0)
(0.782561 -0.413048 0)
(0.821136 -0.369231 0)
(0.863897 -0.290325 0)
(0.934714 -0.141386 0)
(0.942427 0.083931 0)
(0.818018 0.351394 0)
(0.667972 0.611519 0)
(0.545467 0.864048 0)
(0.585985 1.14811 0)
(0.727619 1.64029 0)
(0.0317364 -0.273074 0)
(0.0871083 -0.3058 0)
(0.143593 -0.299503 0)
(0.197201 -0.299028 0)
(0.248999 -0.304236 0)
(0.30022 -0.314172 0)
(0.351879 -0.328886 0)
(0.404744 -0.348728 0)
(0.459209 -0.373795 0)
(0.515177 -0.403329 0)
(0.571991 -0.434807 0)
(0.628648 -0.46243 0)
(0.680576 -0.475168 0)
(0.71505 -0.46037 0)
(0.749616 -0.411501 0)
(0.782689 -0.322118 0)
(0.862527 -0.115204 0)
(0.792784 0.153392 0)
(0.687582 0.453457 0)
(0.606695 0.702767 0)
(0.578038 0.883052 0)
(0.653904 1.02095 0)
(0.876734 1.14347 0)
(0.0300539 -0.328489 0)
(0.0819247 -0.363125 0)
(0.134775 -0.353607 0)
(0.185459 -0.350921 0)
(0.23456 -0.354871 0)
(0.282846 -0.364456 0)
(0.33102 -0.379592 0)
(0.379618 -0.400356 0)
(0.428873 -0.426448 0)
(0.478617 -0.456585 0)
(0.528321 -0.487577 0)
(0.577262 -0.512866 0)
(0.618541 -0.520813 0)
(0.644791 -0.500334 0)
(0.676859 -0.447627 0)
(0.709318 -0.352934 0)
(0.747859 -0.0902872 0)
(0.651591 0.224962 0)
(0.566548 0.521494 0)
(0.526204 0.731939 0)
(0.531483 0.8441 0)
(0.58589 0.880297 0)
(0.73242 0.835945 0)
(0.0280918 -0.380518 0)
(0.075834 -0.41577 0)
(0.124194 -0.403781 0)
(0.170987 -0.39938 0)
(0.216494 -0.402156 0)
(0.261141 -0.411135 0)
(0.305366 -0.426166 0)
(0.34949 -0.44713 0)
(0.393599 -0.47341 0)
(0.437473 -0.503293 0)
(0.480725 -0.533057 0)
(0.522656 -0.555592 0)
(0.553976 -0.55924 0)
(0.576116 -0.534264 0)
(0.604142 -0.475593 0)
(0.642622 -0.354032 0)
(0.616753 -0.0345554 0)
(0.52196 0.295016 0)
(0.460683 0.566269 0)
(0.442952 0.73594 0)
(0.46049 0.80632 0)
(0.506551 0.802766 0)
(0.594785 0.735786 0)
(0.0259805 -0.428762 0)
(0.0693804 -0.463402 0)
(0.112973 -0.449489 0)
(0.155463 -0.443762 0)
(0.196918 -0.445499 0)
(0.237545 -0.453767 0)
(0.27759 -0.468378 0)
(0.317208 -0.489063 0)
(0.356364 -0.514956 0)
(0.394816 -0.544005 0)
(0.432306 -0.572065 0)
(0.467833 -0.591635 0)
(0.490475 -0.59156 0)
(0.511253 -0.563622 0)
(0.533069 -0.499879 0)
(0.586305 -0.310467 0)
(0.506186 0.0317353 0)
(0.419235 0.35578 0)
(0.376092 0.595961 0)
(0.370501 0.730802 0)
(0.392118 0.774877 0)
(0.431845 0.753987 0)
(0.485714 0.681048 0)
(0.0237796 -0.473014 0)
(0.0628157 -0.506009 0)
(0.101664 -0.490609 0)
(0.139772 -0.483841 0)
(0.177031 -0.484662 0)
(0.21351 -0.492189 0)
(0.249328 -0.506201 0)
(0.284522 -0.526305 0)
(0.318974 -0.551441 0)
(0.352444 -0.579292 0)
(0.384781 -0.605392 0)
(0.414339 -0.621949 0)
(0.43038 -0.618675 0)
(0.450534 -0.588154 0)
(0.468476 -0.523789 0)
(0.520862 -0.256101 0)
(0.418158 0.0997679 0)
(0.339643 0.408176 0)
(0.308062 0.616121 0)
(0.308575 0.721127 0)
(0.330128 0.745746 0)
(0.363141 0.71473 0)
(0.400211 0.640461 0)
(0.021532 -0.513178 0)
(0.0562742 -0.543726 0)
(0.090532 -0.527218 0)
(0.124347 -0.519618 0)
(0.157446 -0.519622 0)
(0.189811 -0.526406 0)
(0.221477 -0.539719 0)
(0.252403 -0.55906 0)
(0.282419 -0.583209 0)
(0.311299 -0.609649 0)
(0.338969 -0.633683 0)
(0.36297 -0.647294 0)
(0.374428 -0.641374 0)
(0.39357 -0.607889 0)
(0.410718 -0.544448 0)
(0.443182 -0.203277 0)
(0.338935 0.167278 0)
(0.272003 0.452819 0)
(0.249561 0.629304 0)
(0.254118 0.709203 0)
(0.274844 0.719534 0)
(0.303058 0.683273 0)
(0.332245 0.611535 0)
(0.0192744 -0.549224 0)
(0.049845 -0.576749 0)
(0.0797203 -0.559474 0)
(0.109401 -0.551203 0)
(0.138465 -0.550468 0)
(0.166834 -0.556523 0)
(0.194491 -0.569083 0)
(0.221343 -0.587555 0)
(0.247191 -0.610587 0)
(0.271841 -0.635508 0)
(0.295253 -0.657476 0)
(0.314273 -0.668385 0)
(0.322649 -0.659986 0)
(0.339991 -0.623293 0)
(0.356763 -0.554983 0)
(0.357195 -0.138422 0)
(0.261015 0.230255 0)
(0.20963 0.488217 0)
(0.1964 0.635832 0)
(0.204778 0.695603 0)
(0.225099 0.695798 0)
(0.250192 0.656928 0)
(0.274874 0.588446 0)
(0.0170413 -0.581142 0)
(0.0435972 -0.605292 0)
(0.0693144 -0.587564 0)
(0.0950446 -0.578757 0)
(0.120234 -0.577352 0)
(0.144767 -0.582696 0)
(0.168588 -0.59448 0)
(0.191569 -0.612029 0)
(0.213505 -0.633884 0)
(0.234247 -0.657264 0)
(0.25377 -0.677253 0)
(0.26839 -0.685744 0)
(0.274886 -0.675187 0)
(0.289477 -0.635604 0)
(0.305576 -0.548229 0)
(0.258063 -0.0719919 0)
(0.183327 0.281964 0)
(0.151019 0.511766 0)
(0.147206 0.635306 0)
(0.159204 0.680088 0)
(0.179421 0.67348 0)
(0.202356 0.633522 0)
(0.224091 0.568355 0)
(0.0148609 -0.609096 0)
(0.0375725 -0.629655 0)
(0.0593652 -0.611729 0)
(0.081341 -0.60248 0)
(0.102838 -0.600459 0)
(0.123713 -0.605113 0)
(0.143879 -0.616111 0)
(0.163191 -0.632714 0)
(0.18145 -0.653385 0)
(0.198561 -0.675275 0)
(0.214523 -0.693455 0)
(0.225334 -0.699867 0)
(0.230858 -0.687448 0)
(0.241972 -0.646194 0)
(0.253855 -0.507575 0)
(0.15827 -0.0127624 0)
(0.112443 0.317241 0)
(0.0987363 0.522537 0)
(0.102722 0.628265 0)
(0.117186 0.662927 0)
(0.137003 0.652171 0)
(0.158196 0.612166 0)
(0.177846 0.550259 0)
(0.0127883 -0.633426 0)
(0.0318205 -0.650141 0)
(0.0499206 -0.63219 0)
(0.0683506 -0.622568 0)
(0.086351 -0.619971 0)
(0.10376 -0.623951 0)
(0.120466 -0.634161 0)
(0.13631 -0.649812 0)
(0.151108 -0.669322 0)
(0.164831 -0.689829 0)
(0.177521 -0.706459 0)
(0.185124 -0.711219 0)
(0.190408 -0.697163 0)
(0.198146 -0.656477 0)
(0.203462 -0.414385 0)
(0.0911915 0.0364574 0)
(0.0618337 0.338165 0)
(0.0574328 0.524283 0)
(0.064374 0.617578 0)
(0.0788767 0.645484 0)
(0.0974238 0.632139 0)
(0.116924 0.592526 0)
(0.134996 0.53358 0)
(0.0108211 -0.65365 0)
(0.0264191 -0.666568 0)
(0.0410112 -0.648896 0)
(0.0561309 -0.639075 0)
(0.0708712 -0.635992 0)
(0.0850501 -0.639336 0)
(0.0985313 -0.648764 0)
(0.111142 -0.663464 0)
(0.12271 -0.68185 0)
(0.13326 -0.701118 0)
(0.142915 -0.716557 0)
(0.147887 -0.72029 0)
(0.153387 -0.704882 0)
(0.159434 -0.666615 0)
(0.164342 -0.306126 0)
(0.0645999 0.0784629 0)
(0.0340273 0.35465 0)
(0.0270145 0.524786 0)
(0.0312615 0.607643 0)
(0.0433861 0.629653 0)
(0.0599118 0.613878 0)
(0.0778103 0.574407 0)
(0.0947532 0.517867 0)
(0.00817105 -0.669333 0)
(0.0209574 -0.679213 0)
(0.0323946 -0.662206 0)
(0.0446132 -0.652361 0)
(0.056496 -0.648872 0)
(0.0678143 -0.651611 0)
(0.0784249 -0.660269 0)
(0.088148 -0.67403 0)
(0.0968118 -0.691329 0)
(0.104455 -0.709496 0)
(0.111285 -0.724114 0)
(0.114162 -0.727591 0)
(0.119624 -0.711572 0)
(0.125456 -0.675017 0)
(0.135484 -0.252214 0)
(0.0523852 0.117903 0)
(0.0146486 0.375933 0)
(-7.96228e-05 0.530171 0)
(-0.000753669 0.601417 0)
(0.00841995 0.616451 0)
(0.0231427 0.597415 0)
(0.0399929 0.557411 0)
(0.0564362 0.502625 0)
(0.00330686 -0.683972 0)
(0.0141811 -0.691365 0)
(0.0236716 -0.674508 0)
(0.0337204 -0.664121 0)
(0.0434159 -0.659947 0)
(0.0524734 -0.661941 0)
(0.0607822 -0.669768 0)
(0.0681824 -0.682559 0)
(0.0744997 -0.698759 0)
(0.0797502 -0.715853 0)
(0.084225 -0.729816 0)
(0.0857311 -0.733541 0)
(0.090232 -0.718252 0)
(0.0954754 -0.684921 0)
(0.107347 -0.201715 0)
(0.0314116 0.163941 0)
(-0.0120327 0.404911 0)
(-0.0326312 0.541182 0)
(-0.0364134 0.598638 0)
(-0.0285904 0.605181 0)
(-0.0142949 0.581915 0)
(0.00264366 0.540735 0)
(0.0194807 0.487187 0)
(-0.000625079 -0.693517 0)
(0.00682267 -0.701553 0)
(0.0158472 -0.684934 0)
(0.0241873 -0.673944 0)
(0.0323556 -0.669025 0)
(0.0399272 -0.670194 0)
(0.0467826 -0.677045 0)
(0.0527526 -0.688644 0)
(0.0576466 -0.70346 0)
(0.0614719 -0.719192 0)
(0.0647478 -0.732405 0)
(0.0660726 -0.736712 0)
(0.0701139 -0.723836 0)
(0.0734015 -0.695277 0)
(0.0633495 -0.151838 0)
(-0.00849845 0.214683 0)
(-0.054419 0.438362 0)
(-0.0762924 0.554539 0)
(-0.0790022 0.59654 0)
(-0.0694163 0.593688 0)
(-0.0533364 0.565755 0)
(-0.0347655 0.523186 0)
(-0.0164603 0.470724 0)
(0.0156801 -0.676761 0)
(0.00464307 -0.694421 0)
(0.0112722 -0.682254 0)
(0.0172973 -0.673771 0)
(0.0245117 -0.669699 0)
(0.031708 -0.670795 0)
(0.0384376 -0.676916 0)
(0.0443255 -0.687291 0)
(0.0490332 -0.700596 0)
(0.052451 -0.714943 0)
(0.0553221 -0.72787 0)
(0.0568018 -0.733643 0)
(0.0629118 -0.723191 0)
(0.0640647 -0.689365 0)
(-0.0241521 -0.0912882 0)
(-0.0800694 0.268311 0)
(-0.11939 0.470307 0)
(-0.134468 0.564461 0)
(-0.130072 0.590748 0)
(-0.114673 0.578916 0)
(-0.0941618 0.546852 0)
(-0.0722402 0.503352 0)
(-0.0513707 0.452296 0)
(0.118539 -0.680481 0)
(0.0089272 -0.680169 0)
(0.00969918 -0.67742 0)
(0.0123525 -0.672574 0)
(0.0200428 -0.669746 0)
(0.0288831 -0.671447 0)
(0.0375768 -0.677887 0)
(0.0452795 -0.688434 0)
(0.0512279 -0.701877 0)
(0.0546002 -0.716469 0)
(0.0548104 -0.730811 0)
(0.0507022 -0.738729 0)
(0.0472436 -0.714664 0)
(0.0416801 -0.621763 0)
(-0.169924 -0.0162148 0)
(-0.191724 0.316551 0)
(-0.209101 0.490295 0)
(-0.20648 0.562762 0)
(-0.188474 0.575827 0)
(-0.163275 0.557392 0)
(-0.135888 0.523011 0)
(-0.109126 0.47987 0)
(-0.0847927 0.431084 0)
(0.396188 -0.820547 0)
(0.00515339 -0.656517 0)
(0.0154692 -0.692577 0)
(0.00987569 -0.689445 0)
(0.0195052 -0.686134 0)
(0.0321997 -0.687237 0)
(0.0446974 -0.693042 0)
(0.0552994 -0.702809 0)
(0.062644 -0.715112 0)
(0.0654634 -0.727574 0)
(0.0608906 -0.737953 0)
(0.0360039 -0.751576 0)
(-0.0457735 -0.700123 0)
(-0.14941 -0.416025 0)
(-0.327278 0.0620378 0)
(-0.328945 0.342837 0)
(-0.313706 0.485778 0)
(-0.285244 0.541526 0)
(-0.249353 0.546996 0)
(-0.21204 0.526256 0)
(-0.176441 0.492538 0)
(-0.144074 0.451747 0)
(-0.115864 0.40654 0)
(-0.0176852 -0.973139 0)
(-0.0272202 -0.490208 0)
(0.0238345 -0.675607 0)
(0.000266278 -0.714672 0)
(-0.00511598 -0.725071 0)
(-0.0107966 -0.72847 0)
(-0.0174461 -0.730922 0)
(-0.0267293 -0.733548 0)
(-0.0408729 -0.735219 0)
(-0.0630919 -0.731278 0)
(-0.0990847 -0.710559 0)
(-0.160655 -0.667528 0)
(-0.254258 -0.596229 0)
(-0.411879 -0.254662 0)
(-0.482855 0.10373 0)
(-0.457004 0.329396 0)
(-0.410677 0.449566 0)
(-0.357629 0.497599 0)
(-0.304886 0.502598 0)
(-0.25619 0.484615 0)
(-0.212875 0.454967 0)
(-0.17526 0.418774 0)
(-0.143458 0.378612 0)
(-0.104428 -0.828381 0)
(-0.0539564 -0.613192 0)
(-0.0179354 -0.667867 0)
(-0.0374052 -0.682529 0)
(-0.0576806 -0.688052 0)
(-0.0806089 -0.69018 0)
(-0.105299 -0.691175 0)
(-0.132768 -0.69108 0)
(-0.165451 -0.687728 0)
(-0.207224 -0.674941 0)
(-0.263252 -0.64124 0)
(-0.344219 -0.566748 0)
(-0.456408 -0.421423 0)
(-0.559034 -0.168848 0)
(-0.580649 0.0957223 0)
(-0.539543 0.281849 0)
(-0.47724 0.388612 0)
(-0.410378 0.435945 0)
(-0.3472 0.445737 0)
(-0.290948 0.43436 0)
(-0.24226 0.411486 0)
(-0.200877 0.381744 0)
(-0.166459 0.347859 0)
(-0.0472361 -0.732263 0)
(-0.0592072 -0.66978 0)
(-0.0538375 -0.660662 0)
(-0.0781186 -0.655819 0)
(-0.107466 -0.654311 0)
(-0.140954 -0.653793 0)
(-0.177686 -0.652763 0)
(-0.218395 -0.649142 0)
(-0.265118 -0.639023 0)
(-0.320693 -0.615351 0)
(-0.388237 -0.567059 0)
(-0.469872 -0.480058 0)
(-0.558417 -0.336338 0)
(-0.61884 -0.132393 0)
(-0.619772 0.071195 0)
(-0.574572 0.223763 0)
(-0.509048 0.318664 0)
(-0.438876 0.366608 0)
(-0.372577 0.382708 0)
(-0.313634 0.379423 0)
(-0.262767 0.364576 0)
(-0.219725 0.342262 0)
(-0.18409 0.315346 0)
(-0.0224942 -0.687051 0)
(-0.0582069 -0.657341 0)
(-0.0795554 -0.637896 0)
(-0.109785 -0.626183 0)
(-0.144336 -0.619738 0)
(-0.18317 -0.615287 0)
(-0.226168 -0.610109 0)
(-0.273956 -0.601059 0)
(-0.327715 -0.583535 0)
(-0.388534 -0.550767 0)
(-0.456301 -0.494029 0)
(-0.527815 -0.404046 0)
(-0.59181 -0.274842 0)
(-0.62624 -0.113747 0)
(-0.617112 0.0434828 0)
(-0.573328 0.167291 0)
(-0.511755 0.250392 0)
(-0.445201 0.297957 0)
(-0.381441 0.319589 0)
(-0.324047 0.324001 0)
(-0.274042 0.317075 0)
(-0.231472 0.302244 0)
(-0.196091 0.282367 0)
(-0.0275372 -0.644784 0)
(-0.0629129 -0.626681 0)
(-0.0945217 -0.606299 0)
(-0.128581 -0.591582 0)
(-0.165699 -0.581255 0)
(-0.206538 -0.572638 0)
(-0.251492 -0.562852 0)
(-0.301045 -0.548504 0)
(-0.355534 -0.525189 0)
(-0.41451 -0.487323 0)
(-0.475803 -0.428779 0)
(-0.534163 -0.344678 0)
(-0.579599 -0.23441 0)
(-0.59902 -0.107158 0)
(-0.586162 0.0157621 0)
(-0.547134 0.116465 0)
(-0.493228 0.188852 0)
(-0.434211 0.235026 0)
(-0.376588 0.260653 0)
(-0.323726 0.271408 0)
(-0.276915 0.271428 0)
(-0.236564 0.263442 0)
(-0.202704 0.250154 0)
(-0.0258047 -0.597485 0)
(-0.064244 -0.589248 0)
(-0.0998076 -0.570524 0)
(-0.135813 -0.554577 0)
(-0.173642 -0.54149 0)
(-0.214252 -0.529319 0)
(-0.258218 -0.515499 0)
(-0.305809 -0.496946 0)
(-0.35677 -0.469951 0)
(-0.409794 -0.430369 0)
(-0.461924 -0.374327 0)
(-0.507979 -0.299641 0)
(-0.540452 -0.207892 0)
(-0.551659 -0.106742 0)
(-0.538823 -0.00932298 0)
(-0.506194 0.0732764 0)
(-0.46138 0.136352 0)
(-0.411524 0.180352 0)
(-0.361766 0.208338 0)
(-0.315085 0.223758 0)
(-0.272908 0.229348 0)
(-0.235956 0.227177 0)
(-0.204531 0.219687 0)
(-0.0241424 -0.555802 0)
(-0.0621467 -0.550278 0)
(-0.0987647 -0.53337 0)
(-0.134955 -0.517169 0)
(-0.172046 -0.50238 0)
(-0.210919 -0.487656 0)
(-0.252096 -0.470902 0)
(-0.295635 -0.449581 0)
(-0.340951 -0.420847 0)
(-0.386462 -0.381843 0)
(-0.429288 -0.330323 0)
(-0.465151 -0.265614 0)
(-0.488817 -0.189796 0)
(-0.495767 -0.108566 0)
(-0.484796 -0.0301826 0)
(-0.458826 0.0383115 0)
(-0.422954 0.0933886 0)
(-0.382262 0.134667 0)
(-0.340666 0.163581 0)
(-0.300687 0.182051 0)
(-0.263763 0.191775 0)
(-0.230817 0.194255 0)
(-0.202358 0.19162 0)
(-0.0223573 -0.515318 0)
(-0.0586275 -0.511944 0)
(-0.0942129 -0.496692 0)
(-0.12921 -0.480771 0)
(-0.164509 -0.465141 0)
(-0.200732 -0.448897 0)
(-0.238232 -0.430407 0)
(-0.276902 -0.407708 0)
(-0.316033 -0.378744 0)
(-0.354116 -0.341663 0)
(-0.388733 -0.29528 0)
(-0.416661 -0.23967 0)
(-0.43439 -0.176771 0)
(-0.439244 -0.110623 0)
(-0.430715 -0.0465128 0)
(-0.41077 0.0109819 0)
(-0.382788 0.059233 0)
(-0.350323 0.0974987 0)
(-0.316295 0.126252 0)
(-0.282768 0.146433 0)
(-0.251099 0.159006 0)
(-0.222303 0.165025 0)
(-0.197011 0.166294 0)
(-0.02044 -0.477958 0)
(-0.0542399 -0.475678 0)
(-0.0878025 -0.461727 0)
(-0.120776 -0.446332 0)
(-0.153652 -0.430488 0)
(-0.186794 -0.413589 0)
(-0.220373 -0.394394 0)
(-0.254171 -0.371434 0)
(-0.287485 -0.343278 0)
(-0.319031 -0.308787 0)
(-0.346931 -0.267422 0)
(-0.368887 -0.219578 0)
(-0.382593 -0.166868 0)
(-0.386449 -0.112116 0)
(-0.380249 -0.0587762 0)
(-0.365292 -0.00989634 0)
(-0.343807 0.0325601 0)
(-0.318245 0.0677495 0)
(-0.290764 0.095619 0)
(-0.263019 0.116507 0)
(-0.23623 0.130894 0)
(-0.211411 0.139489 0)
(-0.189246 0.143795 0)
(-0.018585 -0.44371 0)
(-0.0495307 -0.44202 0)
(-0.0805654 -0.429116 0)
(-0.111064 -0.41437 0)
(-0.141217 -0.398752 0)
(-0.171174 -0.381849 0)
(-0.200954 -0.362721 0)
(-0.230284 -0.340285 0)
(-0.258531 -0.313564 0)
(-0.284666 -0.281894 0)
(-0.307297 -0.245105 0)
(-0.324829 -0.203698 0)
(-0.335767 -0.158954 0)
(-0.339142 -0.112858 0)
(-0.334875 -0.0677262 0)
(-0.323819 -0.0256431 0)
(-0.307445 0.0119165 0)
(-0.287437 0.0441357 0)
(-0.265382 0.0707035 0)
(-0.242591 0.091613 0)
(-0.220124 0.107037 0)
(-0.198937 0.117435 0)
(-0.17971 0.12404 0)
(-0.0167961 -0.412729 0)
(-0.0447832 -0.411236 0)
(-0.0731001 -0.399174 0)
(-0.100938 -0.385128 0)
(-0.128288 -0.370017 0)
(-0.155139 -0.35355 0)
(-0.181411 -0.335004 0)
(-0.206814 -0.313578 0)
(-0.230808 -0.288612 0)
(-0.252594 -0.259737 0)
(-0.271164 -0.226985 0)
(-0.285427 -0.190859 0)
(-0.294413 -0.152365 0)
(-0.297527 -0.11292 0)
(-0.294749 -0.0741268 0)
(-0.286639 -0.0374532 0)
(-0.274178 -0.00402065 0)
(-0.258529 0.0254401 0)
(-0.240859 0.0505163 0)
(-0.2222 0.0710172 0)
(-0.203452 0.086929 0)
(-0.185479 0.0985347 0)
(-0.168921 0.106842 0)
(-0.015045 -0.38486 0)
(-0.0401624 -0.383361 0)
(-0.0657477 -0.371991 0)
(-0.0909056 -0.358655 0)
(-0.115502 -0.344215 0)
(-0.13942 -0.32845 0)
(-0.162522 -0.310791 0)
(-0.184531 -0.290635 0)
(-0.204999 -0.267531 0)
(-0.223314 -0.241291 0)
(-0.238752 -0.212042 0)
(-0.250568 -0.180251 0)
(-0.25813 -0.146709 0)
(-0.261069 -0.112455 0)
(-0.259385 -0.0786314 0)
(-0.25346 -0.0463065 0)
(-0.243955 -0.0163455 0)
(-0.231688 0.0106233 0)
(-0.217516 0.0341699 0)
(-0.202253 0.0540188 0)
(-0.186649 0.0700498 0)
(-0.171464 0.082424 0)
(-0.157282 0.0919642 0)
(-0.0133536 -0.359933 0)
(-0.0357713 -0.358316 0)
(-0.0587064 -0.347522 0)
(-0.0812598 -0.334889 0)
(-0.103217 -0.3212 0)
(-0.124405 -0.306276 0)
(-0.144666 -0.289657 0)
(-0.163746 -0.270873 0)
(-0.181278 -0.249606 0)
(-0.196798 -0.225771 0)
(-0.209786 -0.19954 0)
(-0.219727 -0.171325 0)
(-0.226205 -0.141757 0)
(-0.228988 -0.111617 0)
(-0.228088 -0.0817501 0)
(-0.223769 -0.0529558 0)
(-0.216491 -0.0259125 0)
(-0.206839 -0.00115251 0)
(-0.195448 0.0209191 0)
(-0.182957 0.0399997 0)
(-0.169985 0.0559146 0)
(-0.157192 0.0687426 0)
(-0.145097 0.0791581 0)
(-0.0117839 -0.337797 0)
(-0.0316842 -0.335983 0)
(-0.0520908 -0.325675 0)
(-0.0721546 -0.313714 0)
(-0.0916145 -0.300797 0)
(-0.110281 -0.286768 0)
(-0.127991 -0.271237 0)
(-0.144523 -0.253821 0)
(-0.159579 -0.234287 0)
(-0.172806 -0.212607 0)
(-0.183826 -0.188961 0)
(-0.192283 -0.163712 0)
(-0.197896 -0.137369 0)
(-0.200518 -0.110538 0)
(-0.200166 -0.0838634 0)
(-0.197029 -0.0579605 0)
(-0.191434 -0.0333707 0)
(-0.183807 -0.0105427 0)
(-0.174628 0.0101587 0)
(-0.164395 0.0284371 0)
(-0.153619 0.0440951 0)
(-0.142864 0.0571581 0)
(-0.132588 0.0681821 0)
(-0.0103594 -0.318277 0)
(-0.0279153 -0.316229 0)
(-0.0459365 -0.306332 0)
(-0.0636456 -0.294995 0)
(-0.0807638 -0.282832 0)
(-0.0971049 -0.269693 0)
(-0.112516 -0.255229 0)
(-0.126803 -0.239114 0)
(-0.139732 -0.221165 0)
(-0.151031 -0.201383 0)
(-0.160425 -0.179944 0)
(-0.167662 -0.157164 0)
(-0.172551 -0.133462 0)
(-0.174996 -0.109323 0)
(-0.175016 -0.0852501 0)
(-0.17275 -0.0617319 0)
(-0.168435 -0.039207 0)
(-0.162388 -0.0180541 0)
(-0.154974 0.00140486 0)
(-0.146583 0.0188973 0)
(-0.137635 0.0342235 0)
(-0.128611 0.0473749 0)
(-0.119911 0.0588137 0)
(-0.00903791 -0.301172 0)
(-0.0244076 -0.298883 0)
(-0.0402124 -0.28934 0)
(-0.0557217 -0.278573 0)
(-0.0706617 -0.267127 0)
(-0.0848594 -0.25484 0)
(-0.0981788 -0.241383 0)
(-0.110463 -0.226464 0)
(-0.121526 -0.209932 0)
(-0.131164 -0.1918 0)
(-0.139173 -0.172235 0)
(-0.145372 -0.151513 0)
(-0.149629 -0.129987 0)
(-0.151879 -0.108052 0)
(-0.152141 -0.0861156 0)
(-0.150517 -0.0645734 0)
(-0.147184 -0.0437874 0)
(-0.142377 -0.0240785 0)
(-0.136377 -0.00572749 0)
(-0.12949 0.0110237 0)
(-0.122063 0.0259883 0)
(-0.114508 0.0391364 0)
(-0.107175 0.0508542 0)
(-0.00776056 -0.286334 0)
(-0.0210873 -0.283751 0)
(-0.0348692 -0.274508 0)
(-0.048346 -0.264272 0)
(-0.0612662 -0.253509 0)
(-0.0734784 -0.242025 0)
(-0.0848766 -0.229496 0)
(-0.0953437 -0.21565 0)
(-0.10474 -0.200358 0)
(-0.112913 -0.183642 0)
(-0.11971 -0.165656 0)
(-0.124998 -0.146646 0)
(-0.128683 -0.126913 0)
(-0.130722 -0.106789 0)
(-0.131129 -0.0866123 0)
(-0.129981 -0.0667103 0)
(-0.127407 -0.0473877 0)
(-0.123583 -0.0289187 0)
(-0.118723 -0.0115455 0)
(-0.113068 0.00452357 0)
(-0.106907 0.0191269 0)
(-0.100597 0.0322225 0)
(-0.0944491 0.0441307 0)
(-0.00647608 -0.273777 0)
(-0.0179121 -0.270665 0)
(-0.029884 -0.261649 0)
(-0.0414833 -0.25193 0)
(-0.0525137 -0.241832 0)
(-0.0628635 -0.231102 0)
(-0.0724725 -0.219408 0)
(-0.0812671 -0.206503 0)
(-0.0891489 -0.192273 0)
(-0.0960028 -0.176751 0)
(-0.101714 -0.160081 0)
(-0.106182 -0.142485 0)
(-0.109339 -0.124225 0)
(-0.111152 -0.105585 0)
(-0.111633 -0.0868538 0)
(-0.110839 -0.0683098 0)
(-0.108862 -0.0502152 0)
(-0.105831 -0.0328073 0)
(-0.1019 -0.0162934 0)
(-0.0972576 -0.000843892 0)
(-0.092147 0.0134182 0)
(-0.0868945 0.0264466 0)
(-0.08178 0.0384965 0)
(-0.00504118 -0.263354 0)
(-0.0148106 -0.259372 0)
(-0.0252457 -0.250576 0)
(-0.0350833 -0.241422 0)
(-0.0443048 -0.231993 0)
(-0.052875 -0.221962 0)
(-0.0607937 -0.211002 0)
(-0.06803 -0.198892 0)
(-0.0745169 -0.185547 0)
(-0.0801665 -0.171009 0)
(-0.0848884 -0.155418 0)
(-0.0886056 -0.138975 0)
(-0.0912643 -0.121912 0)
(-0.0928415 -0.104477 0)
(-0.0933467 -0.0869222 0)
(-0.09282 -0.0694923 0)
(-0.0913277 -0.0524197 0)
(-0.0889551 -0.0359159 0)
(-0.0858034 -0.0201589 0)
(-0.0820019 -0.0052743 0)
(-0.0777661 0.00867705 0)
(-0.073415 0.0216541 0)
(-0.069213 0.0338323 0)
(-0.0033262 -0.254367 0)
(-0.011703 -0.249158 0)
(-0.0209485 -0.240976 0)
(-0.0290478 -0.232618 0)
(-0.0364764 -0.223901 0)
(-0.043316 -0.214505 0)
(-0.0496249 -0.204158 0)
(-0.0554013 -0.192692 0)
(-0.0605955 -0.180056 0)
(-0.0651344 -0.166307 0)
(-0.0689436 -0.151581 0)
(-0.0719611 -0.136061 0)
(-0.0741454 -0.119954 0)
(-0.0754802 -0.103481 0)
(-0.0759743 -0.0868666 0)
(-0.0756589 -0.0703328 0)
(-0.0745805 -0.0540952 0)
(-0.0727907 -0.0383542 0)
(-0.0703331 -0.0232723 0)
(-0.067261 -0.00892274 0)
(-0.0637673 0.00474815 0)
(-0.0602001 0.0177209 0)
(-0.0568283 0.0300488 0)
(-0.00244371 -0.248342 0)
(-0.00908745 -0.239346 0)
(-0.0171606 -0.232689 0)
(-0.0232784 -0.225536 0)
(-0.0288194 -0.217544 0)
(-0.0339484 -0.208666 0)
(-0.0387229 -0.198779 0)
(-0.0431322 -0.187794 0)
(-0.0471234 -0.175698 0)
(-0.0506285 -0.162559 0)
(-0.0535836 -0.148504 0)
(-0.0559391 -0.133701 0)
(-0.0576645 -0.118336 0)
(-0.0587505 -0.102606 0)
(-0.0592085 -0.0867167 0)
(-0.0590679 -0.0708735 0)
(-0.0583689 -0.0552874 0)
(-0.0571453 -0.0401693 0)
(-0.0553847 -0.0256994 0)
(-0.0530206 -0.011904 0)
(-0.0502156 0.00150291 0)
(-0.0473746 0.0145551 0)
(-0.0448068 0.0270931 0)
(-0.00728767 -0.249329 0)
(-0.00823524 -0.231743 0)
(-0.0142845 -0.227041 0)
(-0.0177322 -0.220913 0)
(-0.0211365 -0.213301 0)
(-0.0245469 -0.20465 0)
(-0.0278571 -0.195001 0)
(-0.0309784 -0.18431 0)
(-0.0338343 -0.172577 0)
(-0.0363572 -0.159865 0)
(-0.0384939 -0.146289 0)