/*--------------------------------*- C++ -*----------------------------------*\
  =========                 |
  \\      /  F ield         | OpenFOAM: The Open Source CFD Toolbox
   \\    /   O peration     | Website:  https://openfoam.org
    \\  /    A nd           | Version:  9
     \\/     M anipulation  |
\*---------------------------------------------------------------------------*/
FoamFile
{
    format      ascii;
    class       volScalarField;
    location    "100";
    object      nut;
}
// * * * * * * * * * * * * * * * * * * * * * * * * * * * * * * * * * * * * * //

dimensions      [0 2 -1 0 0 0 0];

internalField   nonuniform List<scalar> 
4000
(
0.00117433
0.0012744
0.00134934
0.00139947
0.00143635
0.00146696
0.00149587
0.00152574
0.00155604
0.00158106
0.00159616
0.00158665
0.00156519
0.00154476
0.00152032
0.00148994
0.00144947
0.00139324
0.00131155
0.00120679
0.00121242
0.00137443
0.0014886
0.00156997
0.00163119
0.00167818
0.001715
0.00174493
0.00176883
0.00178812
0.0018014
0.00179716
0.00177573
0.00174397
0.00170495
0.00165633
0.00159382
0.0015109
0.00139526
0.00123202
0.00123928
0.00143722
0.00157307
0.00167029
0.00174103
0.00179034
0.00182088
0.00183509
0.00183552
0.00183056
0.00183099
0.0018434
0.00184106
0.0018195
0.00178382
0.00173331
0.00166424
0.00157027
0.00143891
0.00124592
0.00125029
0.00146158
0.00160673
0.00171006
0.00178275
0.00182884
0.00184907
0.00184336
0.00181396
0.00177622
0.00175874
0.00179284
0.00181672
0.00181639
0.00179353
0.00174932
0.00168172
0.00158537
0.00144882
0.00124711
0.00124434
0.00145055
0.00159537
0.00169675
0.00176501
0.00180297
0.00180863
0.00177867
0.00171433
0.0016393
0.00159811
0.0016641
0.00172196
0.00175132
0.00174915
0.00171781
0.00165731
0.00156465
0.00142813
0.00123729
0.00122677
0.00142306
0.00156475
0.00165622
0.00170941
0.00172716
0.00170757
0.0016473
0.00154894
0.00142542
0.001309
0.00149174
0.00159997
0.00166576
0.00168911
0.00167371
0.00162228
0.00153119
0.00139554
0.00121839
0.00120518
0.00137933
0.0015119
0.00159742
0.00164021
0.00164244
0.0016
0.0015059
0.00136046
0.0011717
0.00112648
0.00129059
0.00145356
0.00156266
0.00161381
0.00161335
0.00156784
0.00148217
0.00135392
0.00119443
0.00117223
0.00132061
0.00143928
0.00151624
0.00155394
0.00155317
0.0015014
0.00138873
0.00122548
0.00110769
0.00110531
0.00114808
0.0013269
0.00146491
0.00153185
0.00153438
0.0014942
0.00141548
0.00129841
0.00115813
0.00111463
0.00123774
0.00133919
0.00140722
0.00144309
0.00144776
0.0014144
0.00133275
0.00119977
0.0011262
0.00110347
0.00114971
0.00127987
0.00138624
0.00143226
0.00143035
0.00139325
0.00132303
0.00121966
0.00109568
0.00101476
0.00111483
0.00119476
0.00125241
0.00128983
0.00130794
0.00130422
0.0012743
0.00122398
0.00115954
0.00110035
0.00117885
0.0012404
0.00128556
0.00129864
0.00128421
0.00124764
0.00118912
0.00110495
0.000989713
0.0012744
0.0014101
0.00150666
0.0015737
0.00162684
0.00167538
0.00172491
0.00178144
0.00184015
0.00188476
0.0019071
0.001872
0.00181424
0.00177437
0.00173054
0.00168456
0.00162975
0.0015584
0.00145791
0.00132274
0.00137443
0.00321504
0.00414693
0.00490423
0.00557043
0.00614882
0.0066207
0.00698393
0.00711438
0.00715646
0.00717494
0.00717225
0.00699181
0.00649302
0.00597708
0.00538252
0.00472784
0.00399389
0.003102
0.00139479
0.00143722
0.0043585
0.00583498
0.006929
0.00776304
0.00833897
0.00864657
0.00870554
0.00852039
0.00825811
0.0081692
0.00841633
0.00857732
0.00842241
0.00804049
0.00741777
0.00657067
0.00550056
0.00410388
0.00143149
0.00146158
0.0049034
0.00663334
0.00780803
0.00860389
0.0090448
0.00913755
0.00889988
0.00836045
0.00772724
0.00748699
0.0080103
0.00852854
0.00873549
0.00861703
0.0081556
0.00734978
0.00619567
0.00456458
0.00143794
0.00145055
0.00495173
0.00673427
0.00786504
0.00856721
0.00888286
0.0088092
0.00833341
0.00745898
0.00645569
0.00605432
0.00684786
0.00769898
0.0082214
0.00834889
0.00807174
0.00737912
0.00622852
0.00452835
0.00142945
0.00142306
0.00450071
0.00615363
0.00716228
0.00776489
0.00800542
0.00784148
0.00718742
0.00604464
0.00482528
0.00433388
0.00520691
0.0062024
0.00697557
0.00732545
0.0072204
0.00668909
0.0057179
0.0041414
0.00140364
0.00137933
0.00389206
0.00528835
0.00607406
0.00649119
0.00659537
0.00630023
0.00553152
0.00449679
0.00341943
0.00307178
0.00388926
0.00481652
0.00564449
0.00607853
0.00608
0.0057228
0.00496598
0.00362325
0.00135837
0.00132061
0.00325974
0.00434806
0.00491369
0.00516868
0.0051858
0.00494227
0.00440318
0.00360107
0.00268239
0.00237023
0.00310291
0.00392703
0.00453486
0.00486394
0.00491228
0.00469105
0.00413852
0.00308167
0.00129761
0.00123774
0.00262462
0.00336575
0.00371739
0.00384626
0.00382662
0.00366966
0.00335827
0.00286097
0.00218005
0.0019018
0.00245096
0.00307565
0.00344474
0.00365571
0.00371119
0.00359869
0.0032525
0.00252636
0.00121184
0.00111483
0.00126721
0.00136244
0.0014193
0.0014488
0.00145567
0.001439
0.00139333
0.0013251
0.00124943
0.00117945
0.0012637
0.00134011
0.00140735
0.00143612
0.00143365
0.00140434
0.00134536
0.00124558
0.00108448
0.00134934
0.00150666
0.00161334
0.00168747
0.00175003
0.00181881
0.00190482
0.00197804
0.00203482
0.00207502
0.00209628
0.00207289
0.00201998
0.00195316
0.00187924
0.00181892
0.0017543
0.00167469
0.00156436
0.00140949
0.0014886
0.00414693
0.00558615
0.00673845
0.0077101
0.00846753
0.00882845
0.00899165
0.00899086
0.00890586
0.00888987
0.00901935
0.0090137
0.00879537
0.00839274
0.00754662
0.00654988
0.00538976
0.00398751
0.00151604
0.00157307
0.00583498
0.0081592
0.00980427
0.010956
0.0116172
0.0117372
0.011494
0.0109691
0.0103491
0.0101388
0.0106768
0.0112333
0.0114881
0.0113295
0.0105959
0.00938126
0.00771859
0.0054873
0.00156938
0.00160673
0.00663334
0.00938419
0.0111496
0.0122192
0.0126511
0.0124686
0.0118034
0.0107608
0.00957244
0.00911598
0.0100467
0.0111472
0.0119206
0.0121502
0.0116967
0.0105735
0.00879358
0.00617039
0.00158042
0.00159537
0.00673427
0.00958474
0.0113054
0.0122567
0.012527
0.0121514
0.0111884
0.00976069
0.00808933
0.00739723
0.00864655
0.0101462
0.0113045
0.0118273
0.011607
0.0106289
0.00888665
0.00615029
0.00156703
0.00156475
0.00615363
0.00887677
0.0104574
0.0113051
0.0115282
0.0111508
0.0100724
0.0084542
0.00649181
0.005642
0.00704322
0.00868364
0.00998095
0.0106352
0.0105666
0.00978046
0.00822841
0.00562883
0.00153726
0.0015119
0.00528835
0.00766926
0.00899743
0.00965214
0.00977387
0.009387
0.00849183
0.00699937
0.00507889
0.0042097
0.00563351
0.0072437
0.00840627
0.00900356
0.00902625
0.00844476
0.00715341
0.0048826
0.00148452
0.00143928
0.00434806
0.00623706
0.00725566
0.00770531
0.0077411
0.00741485
0.0067596
0.00554803
0.00395272
0.00318962
0.00448545
0.00590597
0.00674378
0.00721122
0.00727547
0.00687758
0.00588587
0.00407557
0.00141108
0.00133919
0.00336575
0.00462102
0.0052556
0.00549446
0.00546973
0.00523293
0.00479761
0.00392179
0.00286285
0.0023544
0.00321488
0.00428339
0.00486307
0.00518308
0.0052639
0.0050533
0.00443412
0.00321869
0.00130958
0.00119476
0.00136244
0.00146201
0.00151706
0.00154102
0.00153998
0.00151399
0.00145921
0.00139618
0.00131757
0.00123663
0.00132163
0.00140283
0.00147224
0.00151224
0.0015186
0.00149508
0.0014379
0.00133458
0.00116282
0.00139947
0.0015737
0.00168747
0.00176332
0.00182662
0.00191224
0.00200107
0.00207642
0.00213089
0.00216646
0.00218588
0.00217843
0.00213553
0.00207288
0.00200097
0.00192229
0.00184478
0.00175703
0.00163867
0.00146874
0.00156997
0.00490423
0.00673845
0.00807863
0.00903109
0.00953451
0.00976925
0.00979875
0.00966912
0.0094762
0.00945246
0.00974417
0.00992655
0.00984519
0.00951999
0.00894191
0.00794745
0.00653437
0.00471012
0.0016028
0.00167029
0.006929
0.00980427
0.0116148
0.012668
0.0130544
0.0129784
0.012527
0.0117756
0.0109181
0.0106189
0.0113679
0.0122504
0.0127864
0.0128646
0.0124289
0.0112711
0.00936505
0.00654514
0.00166848
0.00171006
0.00780803
0.0111496
0.0130689
0.0140299
0.0141881
0.0137549
0.0128449
0.0115434
0.010057
0.00944896
0.0105876
0.0121004
0.0132418
0.0137897
0.0136151
0.0125532
0.0105546
0.00731174
0.00168239
0.00169675
0.00786504
0.0113054
0.0132165
0.0141095
0.0141541
0.0134957
0.0122823
0.0106084
0.00866908
0.00779913
0.00921512
0.0111675
0.0127017
0.0135505
0.0135289
0.0125589
0.0105838
0.00727368
0.00165959
0.00165622
0.00716228
0.0104574
0.0123123
0.01323
0.0133675
0.012689
0.011365
0.00947998
0.00732249
0.00625353
0.00781636
0.00997611
0.0116046
0.0124887
0.0124481
0.0115643
0.00972924
0.00658643
0.00162254
0.00159742
0.00607406
0.00899743
0.0106651
0.011499
0.0116896
0.0112638
0.0101104
0.00825399
0.00607719
0.00491657
0.00649603
0.00867656
0.0101374
0.0107862
0.010755
0.0100041
0.00838849
0.00561758
0.00156657
0.00151624
0.00491369
0.00725566
0.0086019
0.00925098
0.00939699
0.00914643
0.00828219
0.00672527
0.0048008
0.00374542
0.00519385
0.00708478
0.00824445
0.00870795
0.00870043
0.00812688
0.00683044
0.00460536
0.00148598
0.00140722
0.00371739
0.0052556
0.00609201
0.00644583
0.00647052
0.00624905
0.00567733
0.00457475
0.00331588
0.00262517
0.0035912
0.00488365
0.00576732
0.00609018
0.00614589
0.00583724
0.00503043
0.00355132
0.00137686
0.00125241
0.0014193
0.00151706
0.00156923
0.00158889
0.0015818
0.00154829
0.00150485
0.00144544
0.00136668
0.00128113
0.00135566
0.00143976
0.00149805
0.00154696
0.001561
0.00154288
0.00148944
0.00138915
0.00122112
0.00143635
0.00162684
0.00175003
0.00182662
0.00188116
0.00193119
0.00200262
0.00207024
0.0021338
0.00219208
0.00223595
0.0022486
0.00220674
0.00214694
0.00208141
0.00200911
0.00192138
0.00182164
0.00169465
0.00151163
0.00163119
0.00557043
0.0077101
0.00903109
0.0097069
0.0100318
0.0100936
0.00996692
0.00975645
0.00958895
0.00964241
0.0100387
0.0103907
0.0104274
0.0101743
0.00968494
0.00890098
0.00748341
0.00533112
0.00166674
0.00174103
0.00776304
0.010956
0.012668
0.013414
0.0135812
0.0133341
0.0127772
0.0120006
0.0111557
0.0107831
0.0114866
0.0125435
0.0132773
0.0135286
0.013275
0.0124132
0.0105466
0.00736322
0.00173963
0.00178275
0.00860389
0.0122192
0.0140299
0.0146888
0.0146083
0.014017
0.0130629
0.01184
0.0104477
0.00964525
0.0105262
0.0121922
0.013581
0.0143577
0.0144183
0.0136231
0.0116723
0.00811038
0.0017533
0.00176501
0.00856721
0.0122567
0.0141095
0.0147626
0.0145406
0.0137011
0.0124487
0.0109181
0.00924172
0.00814882
0.00913092
0.0112312
0.0130437
0.0141299
0.0143444
0.013553
0.0115821
0.00803189
0.00171933
0.00170941
0.00776489
0.0113051
0.01323
0.0140626
0.0139132
0.0130071
0.0115519
0.00979977
0.00800269
0.00676197
0.00781976
0.010191
0.0121444
0.0132409
0.0133516
0.0124672
0.0105426
0.00716337
0.00167191
0.00164021
0.00649119
0.00965214
0.011499
0.0124479
0.0126198
0.0119304
0.0104661
0.0085841
0.00673081
0.00546057
0.00657107
0.00902911
0.0108695
0.0117051
0.0116322
0.0107676
0.00899333
0.00601336
0.00160734
0.00155394
0.00516868
0.00770531
0.00925098
0.010086
0.0104009
0.0100284
0.00886416
0.00709292
0.00533015
0.00417362
0.00524375
0.00745837
0.00893563
0.00955713
0.00943171
0.00871086
0.00724596
0.00485264
0.00152372
0.00144309
0.00384626
0.00549446
0.00644583
0.00690281
0.00703297
0.00683227
0.00606877
0.00486877
0.00365155
0.00286206
0.00363067
0.00503392
0.00607496
0.00654988
0.00654258
0.00615908
0.00525566
0.00367928
0.0014141
0.00128983
0.0014488
0.00154102
0.00158889
0.00160386
0.00159055
0.0015684
0.00153273
0.00148091
0.00150861
0.00143739
0.00136829
0.00145819
0.00151607
0.00155054
0.00157239
0.00156056
0.00151271
0.00141922
0.0012606
0.00146696
0.00167538
0.00181881
0.00191224
0.00193119
0.00188367
0.00187052
0.00192762
0.00201184
0.00211767
0.00220443
0.00225004
0.00224759
0.00219317
0.00213921
0.00207488
0.00199288
0.00187771
0.00173985
0.00154427
0.00167818
0.00614882
0.00846753
0.00953451
0.0100318
0.0101373
0.00985005
0.00936025
0.0091753
0.00930111
0.00967205
0.0101435
0.0105795
0.0107186
0.0105287
0.0101005
0.00940922
0.00823055
0.00585397
0.00171431
0.00179034
0.00833897
0.0116172
0.0130544
0.0135812
0.0135735
0.0131904
0.0125747
0.011974
0.0115509
0.0113381
0.0116491
0.0125113
0.013284
0.0136447
0.0135303
0.0128415
0.0112454
0.00794017
0.00178927
0.00182884
0.0090448
0.0126511
0.0141881
0.0146083
0.0143968
0.0138712
0.0132098
0.0124853
0.0116711
0.0107758
0.010697
0.0118698
0.013277
0.0142057
0.0144499
0.0138759
0.0121631
0.0085682
0.00179874
0.00180297
0.00888286
0.012527
0.0141541
0.0145406
0.0141616
0.0134193
0.0126575
0.0119166
0.0109474
0.00959228
0.00924189
0.0107076
0.0125763
0.0138672
0.0142814
0.0137084
0.0119041
0.00833444
0.00175463
0.00172716
0.00800542
0.0115282
0.0133675
0.0139132
0.0135442
0.0126125
0.0116217
0.0108314
0.00982203
0.00821501
0.00783637
0.0095984
0.0117204
0.01308
0.0133951
0.0126342
0.010721
0.00733843
0.00169061
0.00164244
0.00659537
0.00977387
0.0116896
0.0126198
0.0125553
0.0116165
0.0103491
0.00936115
0.00835578
0.00671734
0.00648542
0.00846551
0.0106071
0.0117584
0.011829
0.0109082
0.00907502
0.00608988
0.00161174
0.00155317
0.0051858
0.0077411
0.00939699
0.0104009
0.010625
0.0100147
0.00871259
0.00751815
0.00656038
0.00512932
0.00507914
0.00701071
0.00883487
0.00969094
0.00965334
0.00880826
0.00726899
0.00487103
0.0015255
0.00144776
0.00382662
0.00546973
0.00647052
0.00703297
0.00723389
0.00688896
0.00605051
0.00514342
0.00453324
0.00358593
0.00350254
0.00480948
0.00593634
0.00655977
0.00660479
0.00616425
0.00523334
0.00366843
0.00142187
0.00130794
0.00145567
0.00153998
0.0015818
0.00159055
0.00158924
0.00157611
0.00154985
0.00170907
0.00232796
0.00220353
0.00150725
0.00145735
0.00151787
0.00154787
0.00155822
0.00155376
0.00151312
0.00142848
0.00128163
0.00149587
0.00172491
0.00190482
0.00200107
0.00200262
0.00187052
0.00181317
0.00181752
0.00191113
0.0020135
0.00208814
0.00215709
0.00220614
0.00221479
0.00218657
0.00212641
0.00204986
0.00193673
0.00177937
0.00157057
0.001715
0.0066207
0.00882845
0.00976925
0.0100936
0.00985005
0.00826756
0.00701633
0.00688144
0.00780157
0.00908193
0.00992997
0.0104903
0.0107132
0.0106065
0.0102583
0.00965733
0.00860395
0.00627239
0.00175038
0.00182088
0.00864657
0.0117372
0.0129784
0.0133341
0.0131904
0.0122995
0.0109655
0.0103671
0.0109089
0.0116677
0.0120249
0.0123934
0.0129347
0.0133121
0.0133186
0.012799
0.0114424
0.00828566
0.00182243
0.00184907
0.00913755
0.0124686
0.0137549
0.014017
0.0138712
0.0136299
0.0129695
0.012356
0.0123781
0.0123068
0.0117227
0.011663
0.0125391
0.0134783
0.0138711
0.0134912
0.0120542
0.00871222
0.00182257
0.00180863
0.0088092
0.0121514
0.0134957
0.0137011
0.0134193
0.0133167
0.0134255
0.0131998
0.0130028
0.0122308
0.0106702
0.010291
0.0115452
0.0129039
0.0135132
0.0131202
0.011568
0.00828318
0.001763
0.00170757
0.00784148
0.0111508
0.012689
0.0130071
0.0126125
0.0123086
0.0127009
0.0130736
0.0128378
0.0114649
0.00926988
0.00895646
0.0105523
0.0121015
0.0126754
0.0120742
0.0102736
0.00711485
0.00167681
0.0016
0.00630023
0.009387
0.0112638
0.0119304
0.0116165
0.0110077
0.0111794
0.0119803
0.0118602
0.00997116
0.00760743
0.0076537
0.00946516
0.0109623
0.0112986
0.0105056
0.00865741
0.00578461
0.00157499
0.0015014
0.00494227
0.00741485
0.00914643
0.0100284
0.0100147
0.00931994
0.00898322
0.0097463
0.00992477
0.00789882
0.00584433
0.00618886
0.00792405
0.00911753
0.00927882
0.00852969
0.00695188
0.00464495
0.00147651
0.0014144
0.00366966
0.00523293
0.00624905
0.00683227
0.00688896
0.0065191
0.00604647
0.00663501
0.00712089
0.0055923
0.0041308
0.00428439
0.00541009
0.00612538
0.00632292
0.00592879
0.0050131
0.00352866
0.00139134
0.00130422
0.001439
0.00151399
0.00154829
0.0015684
0.00157611
0.00157076
0.00171412
0.00282464
0.00354217
0.00334716
0.00251675
0.00152149
0.00150356
0.00153226
0.00153666
0.00152272
0.00148978
0.00141472
0.00128065
0.00152574
0.00178144
0.00197804
0.00207642
0.00207024
0.00192762
0.00181752
0.00172779
0.00180199
0.00193289
0.00200732
0.0020624
0.00211692
0.00220441
0.00222025
0.00216308
0.00209274
0.00198694
0.00181288
0.00159252
0.00174493
0.00698393
0.00899165
0.00979875
0.00996692
0.00936025
0.00701633
0.0052905
0.00491489
0.00603854
0.00735161
0.00871831
0.0100333
0.0103803
0.0103834
0.0101624
0.00969124
0.00877749
0.00663429
0.00177891
0.00183509
0.00870554
0.011494
0.012527
0.0127772
0.0125747
0.0109655
0.0088185
0.00780146
0.00903686
0.0105779
0.0117315
0.0122107
0.0122893
0.0125578
0.0126757
0.0123549
0.0112552
0.0084431
0.00184315
0.00184336
0.00889988
0.0118034
0.0128449
0.0130629
0.0132098
0.0129695
0.0115386
0.0103283
0.0111698
0.0123151
0.0125606
0.0118562
0.0116437
0.0122711
0.0127567
0.0125834
0.0114439
0.00858317
0.00182762
0.00177867
0.00833341
0.0111884
0.0122823
0.0124487
0.0126575
0.0134255
0.0132502
0.0123371
0.0127325
0.0133239
0.0125605
0.0107097
0.0104085
0.0113998
0.0121315
0.0119308
0.0106413
0.00789046
0.00174497
0.0016473
0.00718742
0.0100724
0.011365
0.0115519
0.0116217
0.0127009
0.0139406
0.0137116
0.0138139
0.0138306
0.0120134
0.00937228
0.00921255
0.010473
0.0112499
0.0108554
0.00925286
0.00648122
0.00163029
0.0015059
0.00553152
0.00849183
0.0101104
0.0104661
0.0103491
0.0111794
0.0133897
0.0142502
0.0142488
0.0136447
0.0107513
0.00791338
0.00802887
0.00939111
0.0100464
0.00946833
0.00779049
0.00508579
0.00149243
0.00138873
0.00440318
0.0067596
0.00828219
0.00886416
0.00871259
0.00898322
0.0110875
0.0134596
0.0136779
0.0123425
0.00865626
0.00625354
0.00660554
0.00782537
0.00826996
0.00773017
0.00633233
0.00415761
0.00136962
0.00133275
0.00335827
0.00479761
0.00567733
0.00606877
0.00605051
0.00604647
0.00734198
0.010412
0.0113379
0.00949418
0.00617969
0.00442946
0.00458608
0.00531275
0.00559357
0.00537558
0.00460603
0.00324612
0.00131272
0.0012743
0.00139333
0.00145921
0.00150485
0.00153273
0.00154985
0.00171412
0.00300608
0.00415777
0.0041699
0.00406518
0.00357053
0.002367
0.00154881
0.00150147
0.00150191
0.00148079
0.00143794
0.00137159
0.00125311
0.00155604
0.00184015
0.00203482
0.00213089
0.0021338
0.00201184
0.00191113
0.00180199
0.00175722
0.00189667
0.00197821
0.0020471
0.0021132
0.0022079
0.00223363
0.00218524
0.00212232
0.00202668
0.00184258
0.00161162
0.00176883
0.00711438
0.00899086
0.00966912
0.00975645
0.0091753
0.00688144
0.00491489
0.00382634
0.00448518
0.00590903
0.00764911
0.00932038
0.00982559
0.00989892
0.00984675
0.00954991
0.00881916
0.00696793
0.00180224
0.00183552
0.00852039
0.0109691
0.0117756
0.0120006
0.011974
0.0103671
0.00780146
0.00568673
0.00646399
0.00878743
0.0108222
0.0117329
0.0114615
0.0114376
0.0116708
0.0116028
0.0108231
0.00844196
0.00185381
0.00181396
0.00836045
0.0107608
0.0115434
0.01184
0.0124853
0.012356
0.0103283
0.00763429
0.00823086
0.0109344
0.0123548
0.0119094
0.0107521
0.0107247
0.0112046
0.0112772
0.0105146
0.00822019
0.00181644
0.00171433
0.00745898
0.00976069
0.0106084
0.0109181
0.0119166
0.0131998
0.0123371
0.0097082
0.00985761
0.0125137
0.0131096
0.0113475
0.0095225
0.00962811
0.0102551
0.0102668
0.00933396
0.00719171
0.0017042
0.00154894
0.00604464
0.0084542
0.00947998
0.00979977
0.0108314
0.0130736
0.0137116
0.0117741
0.0113926
0.0136385
0.0133886
0.010391
0.00831359
0.00858139
0.00925347
0.00908092
0.0077932
0.00555963
0.00155631
0.00136046
0.00449679
0.00699937
0.00825399
0.0085841
0.00936115
0.0119803
0.0142502
0.0135091
0.012804
0.0142618
0.0130271
0.00921135
0.00712581
0.00749637
0.00813181
0.00780602
0.00640033
0.00417689
0.0013631
0.00122548
0.00360107
0.00554803
0.00672527
0.00709292
0.00751815
0.0097463
0.0134596
0.0143823
0.0137467
0.0141952
0.0118943
0.00767943
0.00580226
0.00614926
0.00664421
0.00632416
0.0052243
0.00341611
0.00121057
0.00119977
0.00286097
0.00392179
0.00457475
0.00486877
0.00514342
0.00663501
0.010412
0.0131391
0.0130764
0.0125556
0.00943423
0.00576177
0.00420887
0.00424804
0.00450654
0.00436162
0.00379497
0.00278205
0.00117925
0.00122398
0.0013251
0.00139618
0.00144544
0.00148091
0.00170907
0.00282464
0.00415777
0.00443318
0.00418741
0.00426346
0.00405683
0.00334902
0.00211179
0.0014999
0.0014481
0.00142292
0.00137572
0.00130466
0.00120403
0.00158106
0.00188476
0.00207502
0.00216646
0.00219208
0.00211767
0.0020135
0.00193289
0.00189667
0.00202802
0.00209787
0.00213693
0.00218129
0.00223746
0.00224059
0.00219394
0.00214086
0.00205617
0.00187851
0.00162919
0.00178812
0.00715646
0.00890586
0.0094762
0.00958895
0.00930111
0.00780157
0.00603854
0.00448518
0.00366632
0.00523636
0.00790099
0.00907844
0.0093388
0.00937784
0.00945368
0.00933026
0.00877465
0.00709304
0.00181873
0.00183056
0.00825811
0.0103491
0.0109181
0.0111557
0.0115509
0.0109089
0.00903687
0.006464
0.00524889
0.00799329
0.0106842
0.0111464
0.0104915
0.0102381
0.0105776
0.0107774
0.0103253
0.00829712
0.00185596
0.00177622
0.00772724
0.00957244
0.010057
0.0104477
0.0116711
0.0123781
0.0111698
0.00823086
0.00678164
0.0101345
0.0121057
0.0114222
0.00970804
0.00912078
0.00953724
0.00987226
0.00953981
0.00777579
0.00179735
0.0016393
0.00645569
0.00808933
0.00866908
0.00924172
0.0109474
0.0130028
0.0127325
0.00985761
0.00819343
0.0117214
0.0129542
0.0111883
0.0085988
0.00788337
0.00822579
0.00841578
0.00796211
0.00644922
0.00165721
0.00142542
0.00482528
0.00649181
0.00732249
0.00800269
0.00982203
0.0128378
0.0138139
0.0113926
0.0094618
0.0128768
0.013431
0.0106023
0.00751177
0.00681942
0.007075
0.00698332
0.00622169
0.00467844
0.00147115
0.0011717
0.00341943
0.0050789
0.00607719
0.00673081
0.00835578
0.0118602
0.0142488
0.012804
0.0106298
0.0136338
0.0133453
0.00962938
0.00650117
0.00581051
0.0059902
0.00573092
0.00480286
0.00333367
0.00118005
0.00110769
0.00268239
0.00395272
0.0048008
0.00533015
0.00656038
0.00992477
0.0136779
0.0137467
0.0117926
0.0138295
0.0125239
0.00840274
0.00542046
0.00470615
0.00479824
0.00455092
0.00378582
0.00260302
0.00108884
0.0011262
0.00218005
0.00286285
0.00331588
0.00365155
0.00453324
0.00712089
0.0113379
0.0130764
0.0120378
0.0127765
0.0106329
0.00682059
0.00423605
0.00338867
0.00332852
0.00319945
0.00280364
0.00214115
0.00110222
0.00115954
0.00124943
0.00131757
0.00136668
0.00150861
0.00232796
0.00354217
0.0041699
0.00418741
0.00388273
0.00407397
0.00396966
0.00359756
0.00279824
0.00173541
0.00138501
0.00134347
0.00129692
0.00122865
0.00113896
0.00159616
0.0019071
0.00209628
0.00218588
0.00223595
0.00220443
0.00208814
0.00200732
0.00197821
0.00209787
0.00215953
0.00220422
0.00225835
0.00227736
0.00225433
0.00220059
0.00215272
0.00207144
0.00189542
0.00163845
0.0018014
0.00717494
0.00888987
0.00945246
0.00964241
0.00967205
0.00908193
0.00735161
0.00590903
0.00523636
0.00664886
0.00879979
0.00919255
0.00920571
0.00921531
0.00932972
0.00925898
0.00875504
0.00711278
0.00182578
0.00183099
0.0081692
0.0101388
0.0106189
0.0107831
0.0113381
0.0116677
0.0105779
0.00878743
0.00799329
0.00969958
0.0109811
0.0105819
0.00979916
0.00970258
0.0101858
0.0105027
0.0101673
0.00824084
0.00185578
0.00175874
0.00748699
0.00911598
0.00944896
0.00964525
0.0107758
0.0123068
0.0123151
0.0109344
0.0101345
0.0115177
0.0117945
0.0103196
0.00859055
0.00829418
0.00888243
0.00937008
0.00922086
0.00762401
0.00178705
0.00159811
0.00605432
0.00739723
0.00779913
0.00814882
0.00959228
0.0122308
0.0133239
0.0125137
0.0117214
0.012697
0.0122649
0.00987235
0.00735428
0.00689444
0.00735529
0.0076927
0.00748621
0.00619197
0.00163035
0.001309
0.00433388
0.005642
0.00625353
0.00676197
0.008215
0.0114649
0.0138306
0.0136385
0.0128768
0.0134923
0.0125496
0.00921262
0.00629232
0.00575863
0.00603193
0.00609122
0.00564794
0.00437513
0.0013662
0.00112648
0.00307178
0.0042097
0.00491657
0.00546057
0.00671734
0.00997116
0.0136447
0.0142618
0.0136338
0.0138918
0.0122939
0.00822796
0.00537644
0.00476265
0.00487867
0.0047649
0.00419639
0.00309432
0.00111906
0.00110531
0.00237023
0.00318962
0.00374542
0.00417362
0.00512932
0.00789882
0.0123425
0.0141952
0.0138295
0.0136559
0.0112949
0.00709775
0.00448752
0.00379341
0.0037919
0.00366874
0.00319043
0.00238306
0.00108198
0.00110347
0.0019018
0.0023544
0.00262517
0.00286206
0.00358593
0.0055923
0.00949418
0.0125556
0.0127765
0.0121612
0.0093475
0.00576326
0.00361986
0.0027969
0.00265853
0.00259139
0.00234169
0.00188375
0.00108151
0.00110035
0.00117945
0.00123663
0.00128113
0.00143739
0.00220353
0.00334716
0.00406518
0.00426346
0.00407397
0.00409517
0.00390996
0.00344418
0.002691
0.00172452
0.00131975
0.00125761
0.00121859
0.00115981
0.00107943
0.00158665
0.001872
0.00207289
0.00217843
0.0022486
0.00225004
0.00215709
0.0020624
0.0020471
0.00213693
0.00220422
0.00227507
0.00231218
0.00230971
0.00226932
0.00220905
0.00214661
0.0020502
0.00186588
0.0016259
0.00179716
0.00717225
0.00901935
0.00974417
0.0100387
0.0101435
0.00992997
0.00871831
0.00764911
0.00790099
0.00879979
0.00926739
0.00947015
0.00954398
0.00968611
0.00970677
0.00948144
0.0088168
0.00703009
0.00181409
0.0018434
0.00841633
0.0106768
0.0113679
0.0114866
0.0116491
0.0120249
0.0117315
0.0108222
0.0106842
0.0109811
0.0108079
0.0102675
0.0101052
0.0106042
0.011113
0.0112326
0.0106265
0.0083986
0.00185604
0.00179284
0.0080103
0.0100467
0.0105876
0.0105262
0.010697
0.0117227
0.0125606
0.0123548
0.0121057
0.0117945
0.0107288
0.00921421
0.00871178
0.00944932
0.0102581
0.0105877
0.0100979
0.00806498
0.00180786
0.0016641
0.00684786
0.00864655
0.00921512
0.00913092
0.00924189
0.0106702
0.0125605
0.0131096
0.0129542
0.0122649
0.0104991
0.0080552
0.00730429
0.0081444
0.00901471
0.00929692
0.00872102
0.00693459
0.00168367
0.00149174
0.00520691
0.00704322
0.00781636
0.00781976
0.00783637
0.00926988
0.0120134
0.0133886
0.013431
0.0125496
0.0101612
0.0070104
0.0061715
0.00700109
0.00780991
0.00790451
0.00707597
0.00523531
0.00152298
0.00129059
0.00388926
0.00563351
0.00649603
0.00657107
0.00648542
0.00760743
0.0107513
0.0130271
0.0133453
0.0122939
0.00934219
0.00604546
0.00518281
0.00591523
0.00662617
0.00657294
0.00566134
0.00391684
0.00132038
0.00114808
0.00310291
0.00448545
0.00519385
0.00524375
0.00507914
0.00584433
0.00865626
0.0118943
0.0125239
0.0112949
0.00808209
0.00509814
0.00421378
0.00473196
0.00526925
0.00518399
0.00447036
0.00310331
0.00114007
0.00114971
0.00245096
0.00321488
0.0035912
0.00363067
0.00350254
0.0041308
0.00617969
0.00943423
0.0106329
0.0093475
0.00649868
0.0041709
0.00319936
0.00329464
0.0035706
0.00353833
0.00317249
0.00241459
0.00113573
0.00117885
0.0012637
0.00132163
0.00135566
0.00136829
0.00150725
0.00251675
0.00357053
0.00405683
0.00396966
0.00390996
0.00357855
0.00302376
0.00200877
0.00139186
0.00135134
0.00133774
0.00130138
0.00124125
0.00115573
0.00156519
0.00181424
0.00201998
0.00213553
0.00220674
0.00224759
0.00220614
0.00211692
0.0021132
0.00218129
0.00225835
0.00231218
0.00233205
0.00231555
0.0022505
0.00218855
0.00211656
0.0020095
0.00183549
0.00161022
0.00177573
0.00699181
0.0090137
0.00992655
0.0103907
0.0105795
0.0104903
0.0100333
0.00932038
0.00907844
0.00919255
0.00947015
0.00979314
0.010097
0.0101962
0.0100236
0.00960825
0.00874972
0.00662421
0.00178942
0.00184106
0.00857732
0.0112333
0.0122504
0.0125435
0.0125113
0.0123934
0.0122107
0.0117329
0.0111464
0.0105819
0.0102675
0.0104932
0.0112452
0.0119393
0.0122229
0.0120259
0.0110594
0.00836589
0.00184202
0.00181672
0.00852854
0.0111472
0.0121004
0.0121922
0.0118698
0.011663
0.0118562
0.0119094
0.0114222
0.0103196
0.00921421
0.00915268
0.0102633
0.0114162
0.0120407
0.0120016
0.0110531
0.00842496
0.00181566
0.00172196
0.00769898
0.0101462
0.0111675
0.0112312
0.0107076
0.010291
0.0107097
0.0113475
0.0111883
0.00987235
0.0080552
0.00773879
0.00908827
0.0105033
0.0112409
0.0111395
0.0100717
0.00767135
0.00172415
0.00159997
0.0062024
0.00868364
0.00997611
0.010191
0.0095984
0.00895646
0.00937227
0.010391
0.0106023
0.00921262
0.0070104
0.00657588
0.00804218
0.0095655
0.0102423
0.00992256
0.00859086
0.00613953
0.00160775
0.00145356
0.00481652
0.0072437
0.00867656
0.00902911
0.00846551
0.0076537
0.00791338
0.00921135
0.00962938
0.00822796
0.00604546
0.0055548
0.00697606
0.00843523
0.00897075
0.0085567
0.00716161
0.00477104
0.00146153
0.0013269
0.00392703
0.00590597
0.00708478
0.00745837
0.00701071
0.00618886
0.00625354
0.00767943
0.00840274
0.00709775
0.00509814
0.00453471
0.00567228
0.0068206
0.00724543
0.006919
0.00579308
0.00387278
0.00132417
0.00127987
0.00307565
0.00428339
0.00488365
0.00503392
0.00480948
0.00428439
0.00442946
0.00576177
0.00682059
0.00576326
0.0041709
0.00343101
0.00390497
0.00454169
0.00484385
0.00475317
0.00418423
0.00302326
0.00126257
0.0012404
0.00134011
0.00140283
0.00143976
0.00145819
0.00145735
0.00152149
0.002367
0.00334902
0.00359756
0.00344418
0.00302376
0.00207124
0.00142457
0.00142547
0.00143194
0.00141479
0.0013774
0.00131376
0.001215
0.00154476
0.00177437
0.00195316
0.00207288
0.00214694
0.00219317
0.00221479
0.00220441
0.0022079
0.00223746
0.00227736
0.00230971
0.00231555
0.00226777
0.00221196
0.00214929
0.00207199
0.0019585
0.00180226
0.00159019
0.00174397
0.00649302
0.00879537
0.00984519
0.0104274
0.0107186
0.0107132
0.0103803
0.00982559
0.0093388
0.00920571
0.00954398
0.010097
0.0104163
0.0103681
0.0100791
0.00953709
0.00853401
0.00620111
0.00175862
0.0018195
0.00842241
0.0114881
0.0127864
0.0132773
0.013284
0.0129347
0.0122893
0.0114615
0.0104915
0.00979916
0.0101052
0.0112452
0.0123119
0.0128691
0.0129498
0.0125023
0.011232
0.00814673
0.00181652
0.00181639
0.00873549
0.0119206
0.0132418
0.013581
0.013277
0.0125391
0.0116437
0.0107521
0.00970804
0.00859055
0.00871178
0.0102633
0.0119121
0.0129685
0.0133598
0.0130217
0.0116948
0.00851384
0.00180532
0.00175132
0.0082214
0.0113045
0.0127017
0.0130437
0.0125763
0.0115452
0.0104085
0.0095225
0.00859879
0.00735428
0.00730429
0.00908827
0.0110965
0.012417
0.0129017
0.0125033
0.0110739
0.00805924
0.00173894
0.00166576
0.00697557
0.00998095
0.0116046
0.0121444
0.0117204
0.0105523
0.00921255
0.00831359
0.00751177
0.00629232
0.0061715
0.00804218
0.0102212
0.011575
0.0119594
0.0113724
0.00973202
0.00680503
0.00165545
0.00156266
0.00564449
0.00840627
0.0101374
0.0108695
0.0106071
0.00946516
0.00802887
0.00712581
0.00650117
0.00537644
0.00518281
0.00697606
0.00907107
0.0102774
0.0105334
0.00983565
0.00816498
0.00551213
0.00155192
0.00146491
0.00453486
0.00674378
0.00824445
0.00893563
0.00883487
0.00792405
0.00660554
0.00580226
0.00542046
0.00448752
0.00421378
0.00567228
0.00737284
0.00837085
0.00858827
0.0079878
0.00656322
0.00442671
0.00144893
0.00138624
0.00344474