/*--------------------------------*- C++ -*----------------------------------*\
  =========                 |
  \\      /  F ield         | OpenFOAM: The Open Source CFD Toolbox
   \\    /   O peration     | Website:  https://openfoam.org
    \\  /    A nd           | Version:  9
     \\/     M anipulation  |
\*---------------------------------------------------------------------------*/
FoamFile
{
    format      ascii;
    class       volScalarField;
    location    "0.1";
    object      epsilon;
}
// * * * * * * * * * * * * * * * * * * * * * * * * * * * * * * * * * * * * * //

dimensions      [0 2 -3 0 0 0 0];

internalField   nonuniform List<scalar> 
12225
(
278.515
263.66
249.434
236.839
226.739
219.486
215.075
213.273
213.722
216.015
219.749
224.555
230.114
236.164
242.506
248.977
255.639
265.337
61.1164
86.6968
97.9947
107.214
118.477
132.578
149.446
168.667
189.662
211.806
234.512
257.272
279.69
301.478
322.576
342.847
364.105
383.249
25.2776
36.1834
43.3827
48.6233
53.3902
58.3428
63.7815
69.8429
76.5526
83.8634
91.6863
99.914
108.438
117.164
126.036
135.054
144.422
154.183
17.5217
21.2988
24.7149
27.6109
30.1636
32.5428
34.871
37.2346
39.687
42.2552
44.9471
47.7591
50.6813
53.7039
56.822
60.0516
63.4243
66.9878
15.4879
16.752
18.186
19.5893
20.9102
22.1503
23.3283
24.4682
25.5908
26.7114
27.8402
28.9832
30.1435
31.3237
32.5267
33.7602
35.0324
36.3446
14.9084
15.2396
15.7464
16.3342
16.948
17.5595
18.1568
18.737
19.3023
19.8556
20.4005
20.9395
21.4752
22.0096
22.5449
23.0843
23.6306
24.1787
14.7451
14.7391
14.8342
15.0037
15.2217
15.4682
15.729
15.9955
16.263
16.5289
16.7923
17.0529
17.3107
17.5662
17.8202
18.0736
18.3272
18.577
14.7013
14.5825
14.5116
14.4858
14.4982
14.5404
14.6045
14.684
14.7741
14.8715
14.9735
15.0786
15.1857
15.2942
15.4036
15.5139
15.625
15.7342
14.6901
14.5373
14.407
14.3008
14.2182
14.1571
14.1146
14.0876
14.0734
14.0695
14.0739
14.085
14.1015
14.1225
14.1471
14.1749
14.2053
14.2367
14.6874
14.5252
14.3761
14.2411
14.1204
14.0137
13.9203
13.8391
13.7688
13.7084
13.6565
13.6121
13.5743
13.5423
13.5154
13.493
13.4746
13.4594
14.6868
14.5221
14.3677
14.2236
14.0896
13.9655
13.8511
13.7459
13.6494
13.561
13.48
13.406
13.3383
13.2764
13.2198
13.1681
13.1209
13.0779
14.6866
14.5213
14.3656
14.219
14.0812
13.9518
13.8304
13.7168
13.6104
13.511
13.418
13.3312
13.2502
13.1745
13.1039
13.038
12.9765
12.9196
14.6865
14.521
14.3648
14.2175
14.0785
13.9472
13.8234
13.7065
13.5962
13.4921
13.394
13.3014
13.2141
13.1317
13.0541
12.9809
12.9119
12.8475
14.6864
14.5208
14.3645
14.2169
14.0774
13.9456
13.8209
13.7029
13.5912
13.4854
13.3852
13.2903
13.2003
13.1151
13.0343
12.9577
12.8851
12.8171
14.6864
14.5207
14.3643
14.2165
14.0769
13.9449
13.8199
13.7016
13.5895
13.4832
13.3824
13.2867
13.1959
13.1097
13.0278
12.95
12.8762
12.8067
14.6863
14.5206
14.3641
14.2163
14.0766
13.9444
13.8193
13.7009
13.5886
13.4822
13.3812
13.2853
13.1943
13.1078
13.0256
12.9475
12.8732
12.8034
14.6863
14.5205
14.364
14.2161
14.0763
13.9441
13.8189
13.7004
13.5881
13.4815
13.3805
13.2845
13.1934
13.1068
13.0245
12.9463
12.8719
12.8019
14.6863
14.5204
14.3639
14.216
14.0761
13.9439
13.8187
13.7001
13.5877
13.4811
13.38
13.284
13.1928
13.1062
13.0238
12.9455
12.871
12.8009
14.6863
14.5204
14.3639
14.2159
14.0761
13.9438
13.8186
13.7
13.5875
13.4809
13.3798
13.2838
13.1925
13.1059
13.0235
12.9451
12.8706
12.8005
14.6863
14.5205
14.3639
14.216
14.0762
13.9439
13.8187
13.7002
13.5878
13.4812
13.3801
13.2841
13.1929
13.1062
13.0239
12.9455
12.8711
12.801
14.6863
14.5205
14.364
14.2162
14.0764
13.9443
13.8192
13.7008
13.5885
13.4822
13.3813
13.2855
13.1947
13.1084
13.0264
12.9484
12.8744
12.8048
14.6863
14.5206
14.3643
14.2167
14.0774
13.9457
13.8214
13.7039
13.5929
13.4879
13.3887
13.2948
13.206
13.122
13.0424
12.9671
12.8958
12.829
14.6865
14.5212
14.3659
14.2202
14.0837
13.9561
13.8368
13.7256
13.6218
13.5251
13.4348
13.3506
13.2721
13.1987
13.1301
13.066
13.006
12.9506
14.6876
14.5264
14.3794
14.2467
14.1282
14.0231
13.9302
13.8484
13.7762
13.7126
13.6564
13.6067
13.5627
13.5236
13.4888
13.4579
13.4303
13.4062
14.6976
14.5664
14.4707
14.4075
14.3714
14.3568
14.3584
14.3718
14.3939
14.4221
14.4547
14.4903
14.5281
14.5674
14.6077
14.6487
14.6902
14.732
14.7737
14.8186
14.9602
15.1591
15.3862
15.6231
15.8595
16.09
16.3129
16.5277
16.7349
16.9353
17.1298
17.3193
17.5045
17.6859
17.8641
18.0386
15.2587
16.1151
17.0711
17.9725
18.7875
19.5233
20.1937
20.8138
21.3974
21.9555
22.4963
23.0261
23.5492
24.0683
24.5852
25.1008
25.6153
26.1263
18.0414
22.0078
24.9883
27.1528
28.8876
30.4037
31.8107
33.1759
34.5402
35.9263
37.3451
38.8005
40.2916
41.8144
43.3633
44.932
46.5139
48.0962
34.0239
45.6873
51.3759
54.9408
58.0784
61.2941
64.7449
68.4747
72.4675
76.6802
81.0626
85.565
90.1409
94.7486
99.3524
103.924
108.447
112.894
163.308
157.417
151.704
146.261
141.3
136.947
133.249
130.205
127.779
125.916
124.555
123.632
123.087
122.862
122.906
123.174
123.625
124.224
1.64497
1.22045
1.74558
2.17031
2.5344
2.86322
3.18059
3.51676
3.88375
4.29205
4.75219
5.26913
5.84229
6.44851
7.0355
7.5782
8.05238
8.43852
8.72535
8.90951
8.97343
8.7995
8.85585
9.03688
9.04916
9.12928
38.8642
9.09794
39.0372
39.4942
39.6267
39.9914
42.9565
46.146
49.4449
52.8344
56.3087
59.8649
63.5033
67.226
71.0365
74.9395
78.9403
83.0445
87.2582
91.5877
96.039
100.618
105.331
110.184
115.182
120.329
125.631
131.091
136.714
142.503
148.46
154.588
160.889
167.364
174.015
180.84
187.841
195.017
202.366
209.887
217.577
225.434
233.455
241.636
249.972
258.46
267.094
275.869
284.778
293.815
302.974
312.246
321.624
331.1
340.665
350.311
360.027
369.803
379.629
389.495
399.388
409.297
419.209
429.113
438.995
448.845
458.655
468.422
478.154
487.878
497.607
507.196
516.641
525.933
535.06
544.006
552.754
561.288
569.591
577.646
585.435
592.944
600.156
607.055
613.626
619.856
625.73
631.235
636.359
641.09
645.418
649.333
652.827
655.891
658.52
660.707
662.449
663.743
664.586
664.979
664.923
664.419
663.472
662.086
660.268
658.024
655.364
652.298
648.836
644.991
640.776
636.205
631.292
626.054
620.505
614.663
608.543
602.163
595.54
588.69
581.629
574.373
566.937
559.337
551.585
543.696
535.682
527.549
519.317
510.98
502.571
494.063
485.535
477.235
471.447
468.826
466.494
464.162
461.789
459.36
456.863
454.289
451.628
448.868
445.996
442.992
439.829
436.467
432.836
428.81
424.113
418.098
408.782
391.994
2.93582
2.02076
2.00152
2.11029
2.26836
2.46607
2.71036
3.00956
3.36898
3.7981
4.30978
4.892
5.53986
6.24019
6.97436
7.72771
8.49256
9.27186
10.085
10.9818
12.0659
13.4141
14.3932
15.1782
16.3079
17.6198
19.7784
20.8381
22.8881
24.4661
26.1776
27.8684
29.4391
30.9787
32.53
34.1087
35.7188
37.3629
39.044
40.7647
42.5276
44.3354
46.1904
48.0948
50.0507
52.06
54.1244
56.2458
58.4255
60.6649
62.9653
65.3278
67.7532
70.2424
72.7959
75.4144
78.0981
80.8471
83.6617
86.5416
89.4866
92.4963
95.5701
98.7074
101.907
105.169
108.49
111.871
115.31
118.804
122.353
125.955
129.606
133.306
137.052
140.841
144.671
148.539
152.442
156.377
160.34
164.329
168.34
172.369
176.412
180.465
184.523
188.584
192.642
196.694
200.736
204.764
208.78
212.783
216.782
220.785
224.832
228.84
232.794
236.69
240.521
244.282
247.965
251.565
255.076
258.489
261.801
265.003
268.09
271.056
273.894
276.601
279.169
281.594
283.871
285.995
287.962
289.768
291.41
292.883
294.186
295.315
296.269
297.046
297.645
298.066
298.308
298.372
298.258
297.968
297.504
296.868
296.063
295.092
293.959
292.668
291.224
289.632
287.897
286.023
284.018
281.887
279.636
277.271
274.798
272.224
269.555
266.797
263.955
261.035
258.043
254.984
251.862
248.681
245.451
242.166
238.849
235.485
232.141
228.979
226.388
224.307
222.312
220.315
218.3
216.26
214.195
212.101
209.98
207.83
205.651
203.441
201.198
198.921
196.604
194.245
191.825
189.383
186.84
186.363
4.89552
2.97414
2.69892
2.69328
2.79513
2.97392
3.22086
3.53523
3.92249
4.39139
4.94817
5.59216
6.3167
7.10935
7.95435
8.83661
9.74491
10.6736
11.6233
12.6004
13.6149
14.6591
15.6609
16.6501
17.6872
18.7653
19.9161
21.0776
22.3028
23.5545
24.8391
26.1193
27.3784
28.6422
29.9281
31.2437
32.5914
33.9723
35.3876
36.8386
38.3263
39.8521
41.4172
43.0228
44.6702
46.3603
48.0944
49.8734
51.6984
53.57
55.4891
57.4565
59.4726
61.5379
63.653
65.818
68.0331
70.2985
72.6142
74.9799
77.3956
79.8609
82.3753
84.9383
87.5493
90.2075
92.9121
95.662
98.4562
101.294
104.173
107.092
110.051
113.046
116.078
119.142
122.239
125.365
128.519
131.698
134.9
138.123
141.363
144.619
147.887
151.165
154.451
157.741
161.034
164.327
167.619
170.909
174.196
177.482
180.769
184.058
187.335
190.579
193.784
196.942
200.049
203.101
206.09
209.014
211.865
214.64
217.333
219.938
222.452
224.869
227.184
229.393
231.492
233.476
235.341
237.083
238.7
240.187
241.542
242.761
243.844
244.786
245.588
246.246
246.761
247.132
247.357
247.439
247.376
247.17
246.822
246.334
245.709
244.947
244.052
243.028
241.878
240.605
239.213
237.708
236.092
234.372
232.551
230.635
228.629
226.537
224.365
222.118
219.8
217.416
214.971
212.469
209.916
207.311
204.667
201.976
199.264
196.548
193.859
191.269
188.891
186.681
184.515
182.351
180.177
177.989
175.787
173.57
171.34
169.098
166.846
164.586
162.32
160.054
157.793
155.556
153.37
151.337
149.613
149.216
7.34078
4.07984
3.54667
3.45774
3.53617
3.71331
3.96669
4.29705
4.70944
5.20963
5.80079
6.48091
7.24171
8.0692
8.94583
9.8537
10.7775
11.7063
12.6345
13.5608
14.487
15.415
16.3437
17.2831
18.2459
19.2382
20.2663
21.3295
22.4278
23.5568
24.7118
25.8857
27.076
28.2874
29.5253
30.7928
32.0919
33.4236
34.7889
36.1887
37.6239
39.0954
40.6043
42.1516
43.7382
45.3651
47.0333
48.7437
50.4972
52.2946
54.1369
56.0245
57.9584
59.9389
61.9667
64.0422
66.1656
68.3374
70.5577
72.8264
75.1437
77.5095
79.9234
82.3851
84.8943
87.4505
90.0528
92.7007
95.3932
98.1294
100.908
103.728
106.588
109.487
112.423
115.394
118.398
121.435
124.501
127.595
130.714
133.857
137.02
140.203
143.401
146.613
149.837
153.07
156.31
159.554
162.802
166.052
169.302
172.55
175.796
179.029
182.24
185.418
188.558
191.653
194.699
197.691
200.622
203.489
206.285
209.006
211.647
214.201
216.665
219.034
221.302
223.466
225.521
227.462
229.286
230.989
232.567
234.017
235.336
236.522
237.571
238.483
239.254
239.884
240.372
240.716
240.918
240.975
240.89
240.663
240.294
239.787
239.142
238.362
237.45
236.408
235.24
233.95
232.542
231.019
229.386
227.649
225.811
223.877
221.853
219.744
217.554
215.289
212.953
210.553
208.092
205.573
203.009
200.386
197.736
195.058
192.361
189.66
186.977
184.35
181.818
179.36
176.929
174.502
172.071
169.633
167.189
164.739
162.286
159.832
157.379
154.931
152.494
150.074
147.686
145.353
143.118
141.089
139.43
138.673
10.1785
5.32947
4.50586
4.32488
4.36818
4.52852
4.78041
5.11764
5.54071
6.05129
6.64893
7.32876
8.08067
8.88985
9.73887
10.6105
11.4905
12.3691
13.2424
14.1108
14.9785
15.8515
16.7365
17.6409
18.5714
19.5325
20.5272
21.5562
22.6186
23.7128
24.8368
25.989
27.1691
28.3781
29.6175
30.8888
32.1931
33.5312
34.904
36.3122
37.7568
39.2386
40.7585
42.3174
43.9165
45.5566
47.2389
48.9643
50.7338
52.5485
54.4093
56.3171
58.2728
60.2772
62.3311
64.4352
66.59
68.7962
71.054
73.364
75.7263
78.1411
80.6083
83.128
85.6998
88.3235
90.9986
93.7245
96.5005
99.3257
102.199
105.12
108.086
111.097
114.151
117.246
120.38
123.552
126.76
130.001
133.273
136.575
139.902
143.254
146.626
150.018
153.426
156.848
160.28
163.721
167.168
170.618
174.069
177.518
180.957
184.376
187.768
191.125
194.442
197.712
200.93
204.091
207.188
210.216
213.169
216.042
218.829
221.524
224.123
226.619
229.008
231.285
233.446
235.484
237.398
239.181
240.831
242.344
243.716
244.946
246.03
246.967
247.753
248.389
248.872
249.202
249.379
249.402
249.273
248.992
248.56
247.979
247.252
246.38
245.366
244.214
242.927
241.51
239.966
238.3
236.515
234.619
232.615
230.51
228.306
226.012
223.634
221.175
218.638
216.038
213.372
210.641
207.873
205.058
202.211
199.335
196.441
193.538
190.645
187.782
184.966
182.189
179.429
176.675
173.922
171.169
168.417
165.668
162.924
160.188
157.464
154.758
152.075
149.426
146.826
144.306
141.911
139.742
137.931
136.768
13.061
6.65284
5.51732
5.22562
5.21042
5.34289
5.58106
5.9101
6.32479
6.82251
7.39951
8.04896
8.76021
9.51957
10.312
11.1235
11.943
12.7641
13.585
14.4078
15.2375
16.0801
16.9422
17.8294
18.7462
19.6959
20.6802
21.6996
22.754
23.8429
24.9654
26.1214
27.3108
28.5339
29.7913
31.0839
32.4123
33.7771
35.1792
36.6192
38.098
39.6165
41.1756
42.7764
44.4199
46.1073
47.8397
49.6183
51.4444
53.3191
55.2437
57.2194
59.2473
61.3286
63.4643
65.6555
67.9031
70.2079
72.5707
74.9921
77.4728
80.0131
82.6132
85.2735
87.9938
90.7741
93.614
96.5132
99.4709
102.486
105.559
108.687
111.87
115.106
118.393
121.73
125.115
128.546
132.02
135.535
139.089
142.679
146.302
149.956
153.637
157.343
161.071
164.816
168.577
172.349
176.129
179.914
183.7
187.482
191.246
194.986
198.694
202.364
205.99
209.564
213.081
216.534
219.917
223.223
226.447
229.581
232.619
235.556
238.385
241.101
243.698
246.17
248.512
250.719
252.786
254.71
256.485
258.108
259.576
260.886
262.035
263.02
263.84
264.493
264.977
265.293
265.439
265.417
265.226
264.868
264.345
263.657
262.808
261.8
260.636
259.32
257.856
256.249
254.503
252.622
250.611
248.477
246.226
243.864
241.393
238.823
236.163
233.415
230.576
227.677
224.713
221.687
218.613
215.494
212.338
209.153
205.946
202.729
199.512
196.311
193.134
189.98
186.839
183.707
180.581
177.461
174.35
171.249
168.163
165.095
162.049
159.032
156.052
153.121
150.257
147.491
144.869
142.478
140.416
138.846
15.7251
7.93649
6.49628
6.07556
5.99913
6.09748
6.31241
6.62065
7.01173
7.47946
8.01794
8.61965
9.27486
9.9722
10.7
11.4478
12.2082
12.977
13.754
14.5416
15.344
16.1665
17.0139
17.8906
18.7999
19.7441
20.7246
21.7422
22.7972
23.8895
25.0192
26.1864
27.3913
28.6341
29.9153
31.2355
32.5953
33.9952
35.4359
36.9184
38.4433
40.0117
41.6245
43.283
44.9884
46.7419
48.545
50.399
52.3054
54.2658
56.2817
58.3546
60.4861
62.6776
64.9305
67.2463
69.6263
72.0717
74.5836
77.163
79.8108
82.5278
85.3144
88.1712
91.0984
94.096
97.1639
100.302
103.509
106.786
110.13
113.54
117.017
120.556
124.158
127.82
131.54
135.316
139.144
143.023
146.95
150.921
154.933
158.983
163.068
167.184
171.326
175.492
179.677
183.876
188.086
192.302
196.519
200.726
204.909
209.063
213.181
217.255
221.278
225.244
229.144
232.971
236.719
240.38
243.946
247.412
250.768
254.01
257.129
260.12
262.975
265.69
268.258
270.673
272.931
275.026
276.954
278.711
280.294
281.698
282.922
283.963
284.818
285.487
285.967
286.259
286.362
286.277
286.004
285.545
284.902
284.076
283.072
281.891
280.537
279.014
277.327
275.481
273.482
271.334
269.041
266.612
264.056
261.377
258.575
255.664
252.659
249.56
246.371
243.108
239.775
236.379
232.928
229.429
225.89
222.319
218.724
215.114
211.5
207.893
204.298
200.719
197.153
193.598
190.055
186.525
183.011
179.517
176.046
172.603
169.195
165.827
162.509
159.256
156.085
153.029
150.13
147.461
145.09
143.113
18.0836
9.09514
7.35668
6.82163
6.68797
6.75072
6.93752
7.21781
7.57687
8.006
8.49823
9.04636
9.64227
10.2773
10.9428
11.6319
12.3393
13.0629
13.8026
14.5606
15.3404
16.1456
16.98
17.8469
18.7489
19.688
20.6654
21.6822
22.739
23.8363
24.9746
26.1542
27.3757
28.6394
29.946
31.2959
32.6898
34.1285
35.6126
37.143
38.7208
40.3469
42.0226
43.7491
45.5279
47.3606
49.2487
51.194
53.1982
55.2633
57.3912
59.5837
61.8427
64.1703
66.5682
69.0382
71.5821
74.2016
76.8981
79.673
82.5275
85.4628
88.4797
91.5789
94.761
98.026
101.374
104.805
108.319
111.914
115.59
119.345
123.179
127.088
131.072
135.128
139.253
143.445
147.701
152.018
156.392
160.82
165.297
169.821
174.387
178.99
183.626
188.29
192.977
197.682
202.4
207.124
211.849
216.552
221.228
225.868
230.465
235.011
239.498
243.918
248.263
252.523
256.691
260.759
264.719
268.561
272.279
275.865
279.311
282.61
285.755
288.739
291.556
294.199
296.662
298.942
301.032
302.928
304.627
306.126
307.421
308.509
309.39
310.061
310.521
310.77
310.808
310.635
310.254
309.665
308.87
307.874
306.678
305.288
303.705
301.935
299.981
297.854
295.558
293.098
290.475
287.701
284.791
281.747
278.575
275.283
271.884
268.383
264.787
261.108
257.352
253.528
249.644
245.709
241.73
237.715
233.675
229.617
225.551
221.486
217.429
213.385
209.354
205.339
201.341
197.364
193.412
189.487
185.597
181.745
177.939
174.187
170.499
166.889
163.379
159.996
156.781
153.793
151.077
148.692
20.0119
10.0353
8.06221
7.43371
7.25041
7.27953
7.43736
7.68765
8.01245
8.40144
8.84731
9.34362
9.884
10.4621
11.0722
11.7095
12.3707
13.0545
13.7612
14.4923
15.2503
16.0381
16.8585
17.714
18.6069
19.5389
20.5117
21.5263
22.5838
23.6851
24.8311
26.0225
27.2601
28.5445
29.8767
31.2572
32.6868
34.1666
35.6972
37.2799
38.9157
40.606
42.352
44.1554
46.0179
47.9412
49.9274
51.9784
54.0965
56.284
58.5431
60.8761
63.2856
65.7737
68.3429
70.9954
73.7334
76.559
79.474
82.4804
85.5797
88.7733
92.0623
95.4479
98.9306
102.511
106.189
109.965
113.837
117.807
121.871
126.03
130.28
134.621
139.049
143.563
148.158
152.833
157.582
162.404
167.293
172.246
177.257
182.323
187.438
192.598
197.796
203.027
208.284
213.563
218.855
224.156
229.444
234.704
239.929
245.111
250.242
255.312
260.312
265.232
270.064
274.797
279.422
283.93
288.313
292.56
296.663
300.614
304.403
308.025
311.469
314.73
317.8
320.672
323.34
325.799
328.042
330.067
331.87
333.446
334.793
335.909
336.791
337.439
337.851
338.028
337.969
337.677
337.153
336.398
335.415
334.208
332.783
331.143
329.291
327.231
324.968
322.517
319.882
317.067
314.08
310.928
307.624
304.175
300.586
296.869
293.033
289.086
285.038
280.898
276.675
272.378
268.017
263.6
259.136
254.634
250.104
245.554
240.994
236.432
231.877
227.334
222.807
218.301
213.818
209.363
204.942
200.558
196.219
191.93
187.7
183.536
179.451
175.458
171.58
167.842
164.28
160.944
157.856
155.062
21.4115
10.7525
8.60526
7.90329
7.67843
7.67742
7.80802
8.02964
8.32203
8.67385
9.07774
9.52808
10.02
10.5491
11.1115
11.7041
12.3251
12.9735
13.6498
14.3552
15.0914
15.8607
16.6653
17.5074
18.389
19.3121
20.2782
21.289
22.3459
23.4501
24.6029
25.8055
27.059
28.3645
29.723
31.1355
32.6032
34.1271
35.7085
37.3486
39.0488
40.8108
42.6362
44.5268
46.4847
48.5121
50.6114
52.7849
55.0352
57.3652
59.7775
62.275
64.8605
67.537
70.3071
73.1737
76.1395
79.2068
82.3781
85.6556
89.0413
92.5368
96.1437
99.863
103.696
107.642
111.703
115.878
120.166
124.567
129.079
133.7
138.429
143.263
148.199
153.233
158.363
163.584
168.892
174.283
179.752
185.294
190.904
196.575
202.303
208.082
213.904
219.762
225.651
231.562
237.486
243.415
249.312
255.174
260.992
266.757
272.459
278.087
283.631
289.08
294.423
299.649
304.748
309.711
314.526
319.185
323.676
327.992
332.123
336.059
339.795
343.32
346.628
349.712
352.563
355.177
357.549
359.674
361.549
363.171
364.536
365.643
366.49
367.076
367.4
367.462
367.266
366.811
366.1
365.135
363.918
362.457
360.757
358.823
356.658
354.269
351.662
348.848
345.833
342.625
339.231
335.66
331.923
328.029
323.985
319.803
315.492
311.062
306.523
301.885
297.159
292.353
287.479
282.545
277.561
272.538
267.483
262.408
257.322
252.234
247.153
242.085
237.038
232.015
227.024
222.068
217.155
212.291
207.481
202.734
198.058
193.463
188.96
184.565
180.298
176.184
172.253
168.546
165.072
161.867
22.4045
11.2754
8.9979
8.2377
7.978
7.95056
8.05676
8.25278
8.51671
8.83648
9.2048
9.61667
10.0683
10.5566
11.0792
11.6341
12.2203
12.8374
13.4857
14.1664
14.881
15.6311
16.4189
17.2464
18.1156
19.0286
19.9875
20.994
22.05
23.1573
24.3176
25.5325
26.8036
28.1324
29.5203
30.9689
32.4795
34.0536
35.6929
37.3991
39.1738
41.019
42.9369
44.9297
46.9998
49.1499
51.3827
53.7013
56.1085
58.6078
61.2023
63.8953
66.6903
69.5905
72.5994
75.7201
78.9557
82.3092
85.7833
89.3805
93.1032
96.9532
100.932
105.042
109.282
113.655
118.159
122.795
127.562
132.458
137.482
142.633
147.906
153.3
158.81
164.432
170.162
175.995
181.927
187.951
194.063
200.256
206.524
212.861
219.26
225.713
232.214
238.755
245.326
251.92
258.527
265.105
271.645
278.137
284.574
290.943
297.234
303.436
309.535
315.518
321.374
327.092
332.66
338.067
343.303
348.355
353.215
357.872
362.317
366.54
370.533
374.288
377.797
381.052
384.045
386.77
389.224
391.401
393.3
394.916
396.248
397.294
398.053
398.522
398.703
398.598
398.208
397.537
396.586
395.36
393.862
392.099
390.077
387.801
385.278
382.514
379.516
376.295
372.859
369.216
365.374
361.344
357.136
352.76
348.226
343.543
338.724
333.779
328.718
323.553
318.293
312.95
307.535
302.057
296.527
290.956
285.354
279.731
274.097
268.462
262.835
257.225
251.64
246.086
240.57
235.098
229.679
224.319
219.025
213.807
208.672
203.632
198.699
193.888
189.219
184.715
180.402
176.31
172.443
168.831
23.04
11.6261
9.25681
8.45169
8.16318
8.11297
8.19799
8.37216
8.61234
8.90597
9.24571
9.62697
10.0466
10.5025
10.993
11.517
12.074
12.6641
13.2878
13.9461
14.6403
15.3724
16.1442
16.9578
17.8156
18.7199
19.673
20.6772
21.735
22.8486
24.0201
25.252
26.5461
27.9046
29.3295
30.8228
32.3865
34.0226
35.7332
37.5204
39.3865
41.3341
43.3657
45.4841
47.6923
49.9935
52.3908
54.8879
57.4882
60.1954
63.0134
65.9461
68.9972
72.1707
75.4702
78.8995
82.462
86.1609
89.9994
93.9801
98.1054
102.378
106.798
111.368
116.089
120.96
125.982
131.153
136.474
141.941
147.552
153.306
159.198
165.225
171.381
177.663
184.063
190.575
197.195
203.916
210.731
217.633
224.616
231.671
238.792
245.969
253.194
260.459
267.755
275.07
282.361
289.606
296.799
303.929
310.986
317.956
324.83
331.593
338.23
344.727
351.07
357.249
363.251
369.064
374.677
380.078
385.257
390.203
394.906
399.358
403.548
407.47
411.119
414.481
417.547
420.315
422.78
424.94
426.791
428.331
429.558
430.472
431.072
431.357
431.329
430.99
430.344
429.393
428.141
426.594
424.756
422.633
420.233
417.563
414.629
411.439
408.003
404.329
400.428
396.307
391.978
387.45
382.735
377.843
372.786
367.573
362.217
356.73
351.121
345.404
339.589
333.688
327.712
321.672
315.58
309.445
303.28
297.095
290.9
284.707
278.525
272.364
266.233
260.14
254.093
248.1
242.168
236.307
230.524
224.829
219.231
213.741
208.373
203.142
198.066
193.166
188.464
183.986
179.726
175.715
23.3688
11.828
9.40148
8.56377
8.25228
8.18308
8.25041
8.40677
8.62823
8.90181
9.2201
9.57865
9.9747
10.4065
10.873
11.3736
11.9082
12.4772
13.0813
13.7217
14.3999
15.1178
15.8776
16.6817
17.5327
18.4334
19.3865
20.3951
21.4621
22.5903
23.7827
25.0422
26.3715
27.7735
29.2508
30.8061
32.4422
34.1617
35.9674
37.8622
39.8491
41.9311
44.1115
46.3938
48.7816
51.2787
53.889
56.6164
59.465
62.439
65.5427
68.7803
72.1563
75.6748
79.3399
83.1555
87.1252
91.2525
95.5405
99.9918
104.609
109.393
114.346
119.469
124.762
130.225
135.856
141.655
147.619
153.746
160.033
166.475
173.069
179.809
186.691
193.707
200.848
208.107
215.478
222.954
230.527
238.189
245.932
253.748
261.628
269.563
277.542
285.558
293.601
301.615
309.576
317.475
325.301
333.042
340.686
348.219
355.63
362.908
370.033
376.984
383.75
390.321
396.685
402.828
408.739
414.406
419.819
424.967
429.839
434.427
438.722
442.716
446.401
449.771
452.816
455.533
457.918
459.969
461.682
463.056
464.091
464.785
465.14
465.157
464.839
464.187
463.206
461.9
460.275
458.336
456.089
453.542
450.702
447.578
444.177
440.508
436.582
432.408
427.995
423.356
418.5
413.439
408.183
402.745
397.136
391.367
385.452
379.401
373.227
366.941
360.557
354.084
347.537
340.926
334.262
327.558
320.825
314.074
307.317
300.564
293.827
287.116
280.441
273.812
267.237
260.725
254.285
247.927
241.659
235.491
229.435
223.501
217.703
212.055
206.576
201.284
196.198
191.338
186.694
182.297
23.4457
11.9063
9.45272
8.59408
8.26568
8.18179
8.23556
8.37879
8.58712
8.8473
9.15178
9.4961
9.87761
10.2948
10.7468
11.2333
11.7547
12.3114
12.9046
13.5357
14.2064
14.9192
15.6764
16.481
17.3361
18.2451
19.2115
20.239
21.3312
22.4919
23.7248
25.0335
26.422
27.8938
29.4527
31.1022
32.8461
34.6878
36.6312
38.6799
40.8378
43.1089
45.4972
48.0069
50.6426
53.4086
56.3096
59.3503
62.5346
65.867
69.3522
72.9949
76.7996
80.7706
84.9121
89.2278
93.7212
98.3954
103.253
108.296
113.527
118.946
124.554
130.35
136.335
142.507
148.863
155.401
162.117
169.008
176.069
183.294
190.678
198.217
205.905
213.731
221.679
229.743
237.918
246.195
254.565
263.019
271.549
280.145
288.799
297.5
306.236
315.001
323.721
332.377
340.957
349.449
357.841
366.118
374.267
382.275
390.127
397.809
405.305
412.599
419.676
426.524
433.13
439.483
445.569
451.378
456.899
462.121
467.034
471.631
475.902
479.84
483.439
486.691
489.59
492.134
494.318
496.14
497.599
498.694
499.425
499.793
499.799
499.447
498.739
497.679
496.273
494.526
492.444
490.034
487.303
484.26
480.913
477.271
473.343
469.14
464.672
459.95
454.984
449.785
444.366
438.739
432.913
426.903
420.72
414.377
407.885
401.258
394.507
387.645
380.685
373.639
366.518
359.336
352.104
344.835
337.539
330.229
322.918
315.616
308.335
301.086
293.88
286.728
279.638
272.622
265.689
258.848
252.11
245.486
238.986
232.622
226.408
220.358
214.489
208.819
203.362
198.136
193.127
188.365
23.3276
11.8864
9.43148
8.56339
8.22515
8.13231
8.17826
8.31475
8.5173
8.77252
9.07272
9.41337
9.7918
10.2065
10.6569
11.1428
11.6647
12.2236
12.8208
13.4582
14.1382
14.8634
15.637
16.4625
17.3439
18.2853
19.2914
20.3668
21.5163
22.7443
24.0557
25.4555
26.9487
28.5404
30.2353
32.0385
33.9548
35.9891
38.1463
40.4311
42.8487
45.4038
48.1015
50.9469
53.9452
57.1016
60.4218
63.912
67.5737
71.4108
75.429
79.6327
84.0263
88.6135
93.3977
98.382
103.569
108.96
114.557
120.361
126.372
132.589
139.012
145.638
152.464
159.489
166.706
174.113
181.703
189.471
197.409
205.512
213.771
222.178
230.725
239.401
248.195
257.097
266.097
275.187
284.357
293.598
302.9
312.255
321.652
331.086
340.521
349.886
359.169
368.357
377.437
386.395
395.216
403.887
412.393
420.72
428.854
436.78
444.483
451.949
459.162
466.112
472.784
479.168
485.251
491.024
496.474
501.594
506.374
510.806
514.882
518.597
521.943
524.916
527.512
529.726
531.558
533.005
534.068
534.746
535.04
534.954
534.489
533.65
532.441
530.867
528.934
526.648
524.019
521.052
517.757
514.142
510.218
505.994
501.481
496.69
491.631
486.315
480.756
474.964
468.951
462.731
456.314
449.714
442.943
436.014
428.939
421.731
414.403
406.967
399.437
391.823
384.14
376.399
368.613
360.794
352.953
345.105
337.259
329.429
321.627
313.864
306.153
298.502
290.925
283.431
276.03
268.734
261.552
254.497
247.579
240.811
234.206
227.78
221.546
215.52
209.717
204.151
198.804
193.708
23.0613
11.7898
9.35673
8.49186
8.15335
8.06052
8.10805
8.2482
8.45664
8.71997
9.03046
9.38351
9.77648
10.2079
10.6774
11.185
11.7317
12.3187
12.9481
13.6222
14.3442
15.1177
15.9466
16.8353
17.7888
18.8127
19.9134
21.0974
22.3723
23.7405
25.2096
26.7868
28.4789
30.2927
32.2351
34.3128
36.5321
38.8997
41.4219
44.1049
46.9548
49.9776
53.1791
56.5649
60.1406
63.9113
67.8821
72.0576
76.4411
81.036
85.8459
90.8736
96.1219
101.592
107.287
113.205
119.348
125.715
132.305
139.115
146.144
153.387
160.841
168.501
176.362
184.417
192.66
201.084
209.681
218.442
227.359
236.423
245.623
254.95
264.394
273.943
283.586
293.313
303.114
312.978
322.897
332.861
342.86
352.891
362.933
372.91
382.789
392.558
402.203
411.711
421.068
430.26
439.274
448.094
456.708
465.102
473.261
481.173
488.823
496.198
503.286
510.074
516.552
522.707
528.53
534.011
539.14
543.91
548.313
552.342
555.991
559.254
562.127
564.605
566.687
568.37
569.653
570.536
571.019
571.105
570.796
570.095
569.006
567.534
565.685
563.465
560.882
557.943
554.656
551.031
547.077
542.804
538.222
533.342
528.176
522.734
517.028
511.071
504.875
498.451
491.812
484.971
477.94
470.732
463.36
455.836
448.174
440.385
432.482
424.478
416.386
408.218
399.987
391.705
383.384
375.037
366.675
358.313
349.961
341.632
333.339
325.093
316.907
308.792
300.76
292.821
284.988
277.27
269.68
262.228
254.927
247.79
240.829
234.058
227.492
221.145
215.029
209.156
203.507
198.114
22.7427
11.6566
9.26211
8.41572
8.0923
8.01583
8.08279
8.24623
8.48218
8.77742
9.12438
9.51865
9.95785
10.4409
10.9679
11.5396
12.1575
12.8239
13.5416
14.3142
15.1457
16.042
17.009
18.0495
19.1713
20.3826
21.6918
23.1075
24.6384
26.2927
28.0794
30.008
32.0877
34.3276
36.7369
39.3242
42.0982
45.0667
48.2376
51.6181
55.2147
59.0337
63.0805
67.3601
71.8766
76.6336
81.6338
86.8791
92.3706
98.1086
104.093
110.322
116.795
123.51
130.462
137.648
145.065
152.706
160.567
168.641
176.92
185.399
194.069
202.922
211.949
221.141
230.489
239.982
249.612
259.368
269.239
279.214
289.284
299.438
309.665
319.953
330.295
340.677
351.091
361.534
371.987
382.459
392.919
403.294
413.542
423.658
433.629
443.441
453.082
462.539
471.8
480.85
489.679
498.273
506.619
514.706
522.522
530.054
537.291
544.221
550.833
557.117
563.064
568.662
573.905
578.783
583.289
587.416
591.159
594.511
597.468
600.026
602.183
603.934
605.28
606.22
606.753
606.88
606.605
605.93
604.857
603.393
601.541
599.308
596.701
593.726
590.393
586.709
582.684
578.328
573.65
568.661
563.373
557.796
551.942
545.824
539.452
532.839
525.998
518.941
511.68
504.228
496.597
488.8
480.85
472.758
464.538
456.202
447.762
439.231
430.621
421.944
413.212
404.439
395.635
386.813
377.985
369.164
360.362
351.591
342.865
334.194
325.592
317.071
308.642
300.317
292.108
284.026
276.083
268.291
260.662
253.208
245.944
238.881
232.034
225.416
219.036
212.906
207.006
201.367
22.4394
11.5218
9.18306
8.37651
8.09201
8.05826
8.1737
8.39238
8.69097
9.05687
9.48316
9.96626
10.5047
11.0987
11.7494
12.4592
13.2313
14.0696
14.979
15.9651
17.0299
18.1823
19.431
20.7845
22.2529
23.847
25.5784
27.4589
29.5006
31.7156
34.1161
36.7143
39.5222
42.5512
45.8122
49.3152
53.0693
57.0827
61.3623
65.9139
70.7418
75.8492
81.2378
86.9083
92.8596
99.0898
105.596
112.372
119.415
126.717
134.27
142.068
150.102
158.361
166.838
175.523
184.405
193.473
202.719
212.13
221.697
231.409
241.254
251.224
261.306
271.491
281.768
292.126
302.556
313.048
323.592
334.178
344.797
355.44
366.097
376.76
387.428
398.083
408.715
419.357
429.937
440.387
450.679
460.814
470.778
480.562
490.153
499.542
508.718
517.669
526.385
534.856
543.07
551.017
558.687
566.07
573.155
579.933
586.394
592.528
598.326
603.781
608.883
613.625
618
622.001
625.623
628.86
631.707
634.161
636.217
637.875
639.13
639.984
640.434
640.483
640.13
639.379
638.233