/*--------------------------------*- C++ -*----------------------------------*\
  =========                 |
  \\      /  F ield         | OpenFOAM: The Open Source CFD Toolbox
   \\    /   O peration     | Website:  https://openfoam.org
    \\  /    A nd           | Version:  9
     \\/     M anipulation  |
\*---------------------------------------------------------------------------*/
FoamFile
{
    format      ascii;
    class       volScalarField;
    location    "0.1";
    object      k;
}
// * * * * * * * * * * * * * * * * * * * * * * * * * * * * * * * * * * * * * //

dimensions      [0 2 -2 0 0 0 0];

internalField   nonuniform List<scalar> 
12225
(
0.353921
0.335043
0.316966
0.300961
0.288127
0.27891
0.273305
0.271015
0.271585
0.274499
0.279244
0.285351
0.292415
0.300102
0.308162
0.316383
0.324848
0.337169
0.436865
0.448981
0.438088
0.433069
0.438803
0.453614
0.474847
0.500052
0.527243
0.554936
0.582104
0.608087
0.632512
0.655214
0.676333
0.695772
0.71596
0.731527
0.395186
0.410873
0.41063
0.405747
0.402013
0.400929
0.402625
0.406826
0.41311
0.421022
0.430129
0.440053
0.450486
0.461193
0.472046
0.482952
0.494284
0.505351
0.379641
0.384839
0.386546
0.38573
0.383905
0.382028
0.38057
0.379744
0.379614
0.38016
0.381321
0.383016
0.385164
0.387694
0.390559
0.393735
0.397265
0.401049
0.374976
0.3759
0.376239
0.37572
0.37457
0.373083
0.371496
0.369967
0.368594
0.367428
0.366489
0.365776
0.365282
0.364991
0.364895
0.364988
0.365272
0.365716
0.373488
0.372554
0.371759
0.370806
0.36963
0.368274
0.366808
0.365299
0.363802
0.362356
0.360989
0.359713
0.358537
0.357465
0.356498
0.355635
0.35488
0.354225
0.373012
0.371296
0.369812
0.368416
0.367025
0.365609
0.364167
0.362709
0.361255
0.35982
0.358421
0.357068
0.355769
0.354528
0.353351
0.352239
0.351196
0.350229
0.372865
0.370838
0.369004
0.36731
0.36571
0.364173
0.362677
0.361214
0.35978
0.358377
0.35701
0.355682
0.354395
0.353153
0.351959
0.350814
0.349722
0.348693
0.37282
0.37068
0.368691
0.366836
0.365094
0.363447
0.361878
0.360373
0.358925
0.357527
0.356177
0.354873
0.353614
0.3524
0.351232
0.350108
0.349032
0.348014
0.372806
0.370628
0.368577
0.366647
0.364828
0.363109
0.361481
0.359932
0.358454
0.357042
0.355689
0.354391
0.353146
0.35195
0.350803
0.349703
0.34865
0.347654
0.372801
0.370609
0.368537
0.366576
0.36472
0.362963
0.361298
0.359717
0.358213
0.356781
0.355416
0.354113
0.352868
0.351677
0.350539
0.349451
0.348412
0.347432
0.372799
0.370602
0.368522
0.366549
0.36468
0.362906
0.361223
0.359625
0.358106
0.356661
0.355285
0.353974
0.352724
0.351531
0.350393
0.349308
0.348272
0.347297
0.372797
0.370599
0.368514
0.366537
0.36466
0.362879
0.361187
0.35958
0.358051
0.356597
0.355213
0.353895
0.35264
0.351443
0.350303
0.349215
0.34818
0.347205
0.372796
0.370596
0.368509
0.366528
0.364649
0.362863
0.361167
0.359554
0.35802
0.356561
0.355172
0.353849
0.352589
0.351388
0.350244
0.349154
0.348115
0.347138
0.372795
0.370593
0.368505
0.366523
0.364641
0.362853
0.361154
0.359538
0.358002
0.356539
0.355147
0.353821
0.352558
0.351355
0.350207
0.349114
0.348073
0.347093
0.372795
0.370592
0.368502
0.366518
0.364634
0.362845
0.361144
0.359527
0.357989
0.356525
0.35513
0.353803
0.352538
0.351332
0.350183
0.349088
0.348044
0.347061
0.372794
0.37059
0.368499
0.366515
0.36463
0.362839
0.361137
0.359519
0.357979
0.356514
0.355118
0.353789
0.352523
0.351316
0.350165
0.349068
0.348023
0.347039
0.372794
0.37059
0.368498
0.366512
0.364627
0.362835
0.361133
0.359513
0.357972
0.356506
0.35511
0.35378
0.352512
0.351304
0.350153
0.349054
0.348007
0.347022
0.372793
0.370589
0.368497
0.366512
0.364626
0.362834
0.361131
0.359511
0.35797
0.356503
0.355106
0.353776
0.352508
0.351299
0.350147
0.349047
0.348
0.347014
0.372794
0.37059
0.368498
0.366513
0.364628
0.362836
0.361134
0.359514
0.357974
0.356507
0.355111
0.35378
0.352513
0.351304
0.350152
0.349053
0.348005
0.347019
0.372794
0.370591
0.3685
0.366516
0.364632
0.362842
0.36114
0.359522
0.357983
0.356518
0.355123
0.353795
0.352529
0.351322
0.350171
0.349073
0.348027
0.347042
0.372795
0.370593
0.368504
0.366522
0.364642
0.362856
0.361159
0.359546
0.358013
0.356554
0.355164
0.353841
0.352581
0.351378
0.350232
0.349138
0.348095
0.347113
0.372796
0.370598
0.368518
0.366547
0.364681
0.362913
0.361235
0.359643
0.358128
0.356686
0.355313
0.354003
0.352753
0.351559
0.350419
0.349328
0.348286
0.347303
0.372804
0.370631
0.368592
0.366676
0.364872
0.363167
0.361548
0.360007
0.358533
0.357122
0.355769
0.354469
0.353221
0.352023
0.350871
0.349765
0.348705
0.347702
0.372856
0.370818
0.368973
0.367264
0.365645
0.364086
0.362568
0.361084
0.359632
0.358215
0.356834
0.355495
0.354199
0.352949
0.351747
0.350593
0.34949
0.348449
0.373166
0.37177
0.370579
0.369371
0.368049
0.366605
0.365072
0.363493
0.361906
0.360343
0.358827
0.357373
0.355992
0.35469
0.353469
0.35233
0.351273
0.350303
0.374797
0.375829
0.376175
0.375401
0.373834
0.371876
0.369792
0.36774
0.365813
0.364066
0.362523
0.361193
0.360073
0.359153
0.35842
0.357857
0.357449
0.357181
0.382729
0.391671
0.392376
0.388806
0.384385
0.380403
0.377246
0.374995
0.373617
0.373031
0.373143
0.373853
0.375067
0.376695
0.378659
0.380891
0.383328
0.385902
0.407499
0.414513
0.405422
0.39599
0.39055
0.389283
0.391442
0.396195
0.402807
0.410687
0.419383
0.428556
0.437951
0.447381
0.456709
0.465842
0.474734
0.4833
0.360554
0.347547
0.334933
0.322917
0.311964
0.302352
0.294189
0.287468
0.282111
0.277998
0.274993
0.272956
0.271752
0.271256
0.271354
0.271945
0.272942
0.274263
0.00566445
0.0192434
0.0275296
0.0342195
0.0399448
0.0451102
0.0500965
0.0553872
0.0611605
0.067583
0.0748187
0.0829393
0.0919336
0.101388
0.11051
0.118912
0.126226
0.132161
0.136548
0.139287
0.140087
0.13844
0.139407
0.141712
0.142274
0.142828
0.140272
0.141589
0.139843
0.141204
0.14238
0.144924
0.151934
0.159292
0.166727
0.174193
0.181679
0.189181
0.1967
0.204242
0.211815
0.219428
0.227092
0.234816
0.24261
0.250484
0.258447
0.266505
0.274668
0.28294
0.291327
0.299835
0.308465
0.317222
0.326107
0.335121
0.344264
0.353535
0.362934
0.372458
0.382104
0.39187
0.401752
0.411744
0.421843
0.432043
0.442338
0.452722
0.463188
0.473729
0.484339
0.49501
0.505733
0.516501
0.527306
0.538139
0.548991
0.559854
0.570718
0.581575
0.592414
0.603227
0.614004
0.624734
0.635409
0.646016
0.656546
0.666988
0.677331
0.687565
0.697679
0.707665
0.717517
0.727236
0.736832
0.746333
0.755763
0.764971
0.773958
0.78272
0.79125
0.799535
0.807564
0.815325
0.822807
0.829997
0.836883
0.843456
0.849704
0.855617
0.861186
0.8664
0.871252
0.875732
0.879834
0.883551
0.886875
0.889802
0.892327
0.894446
0.896155
0.897451
0.898334
0.898801
0.898854
0.898493
0.897719
0.896537
0.894948
0.892959
0.890575
0.887802
0.884647
0.881119
0.877227
0.872981
0.868391
0.863468
0.858225
0.852673
0.846826
0.840697
0.834299
0.827645
0.82075
0.813627
0.806289
0.798749
0.79102
0.783114
0.775041
0.766814
0.758443
0.749932
0.741301
0.73254
0.723679
0.714696
0.705647
0.696729
0.689798
0.686297
0.683189
0.680089
0.676952
0.673761
0.670507
0.667179
0.663768
0.66026
0.656642
0.652894
0.648989
0.644884
0.640511
0.635742
0.630301
0.62354
0.613476
0.59573
0.0101621
0.0298405
0.0422332
0.0515297
0.0593431
0.0664459
0.0733776
0.0803169
0.0875367
0.0953348
0.103972
0.113308
0.123262
0.133574
0.143873
0.153806
0.163083
0.171527
0.179093
0.185849
0.191994
0.198086
0.204479
0.210969
0.217886
0.225183
0.232872
0.242304
0.251798
0.262338
0.274135
0.287075
0.29955
0.311649
0.323876
0.336268
0.348797
0.361442
0.374192
0.387045
0.400007
0.413084
0.426289
0.439632
0.453128
0.466788
0.480627
0.494657
0.50889
0.523337
0.538008
0.552912
0.568057
0.58345
0.599096
0.615
0.631164
0.647591
0.664282
0.681237
0.698454
0.71593
0.733664
0.751649
0.769881
0.788355
0.807063
0.825996
0.845148
0.864509
0.884068
0.903816
0.923742
0.943833
0.964077
0.984463
1.00498
1.0256
1.04633
1.06715
1.08803
1.10897
1.12995
1.15096
1.17198
1.19298
1.21397
1.23491
1.25579
1.27659
1.2973
1.31789
1.33834
1.35864
1.37875
1.39866
1.41809
1.43722
1.45605
1.47458
1.49279
1.51065
1.52814
1.54524
1.56192
1.57815
1.59393
1.60921
1.62399
1.63823
1.65192
1.66503
1.67755
1.68945
1.70073
1.71135
1.72131
1.73058
1.73916
1.74703
1.75418
1.7606
1.76628
1.77122
1.7754
1.77882
1.78148
1.78338
1.78452
1.78491
1.78454
1.78342
1.78157
1.77899
1.7757
1.7717
1.76701
1.76166
1.75565
1.74901
1.74176
1.73393
1.72553
1.71659
1.70713
1.69719
1.68677
1.67592
1.66465
1.65299
1.64096
1.62859
1.61589
1.60288
1.58959
1.57602
1.56222
1.54815
1.53391
1.51974
1.50593
1.49254
1.47912
1.46556
1.45186
1.438
1.42398
1.4098
1.39546
1.38095
1.36626
1.35141
1.33636
1.32112
1.30564
1.2899
1.27377
1.2573
1.23927
1.21724
0.0169695
0.0428482
0.0584097
0.0698528
0.0794509
0.0882351
0.0966428
0.10494
0.113442
0.122447
0.132147
0.142581
0.153662
0.165186
0.176879
0.188464
0.199727
0.210551
0.220941
0.230999
0.240904
0.250891
0.261093
0.271645
0.282721
0.294393
0.306758
0.31996
0.333867
0.348467
0.363672
0.379289
0.395018
0.410805
0.426723
0.442791
0.459003
0.475349
0.491826
0.508438
0.525192
0.542098
0.55917
0.576423
0.593872
0.611533
0.629422
0.647554
0.665941
0.684599
0.703537
0.722767
0.742298
0.762137
0.78229
0.802763
0.823557
0.844676
0.866119
0.887886
0.909974
0.932381
0.955101
0.978128
1.00146
1.02508
1.04898
1.07316
1.0976
1.12229
1.14722
1.17238
1.19774
1.2233
1.24904
1.27495
1.301
1.32719
1.35348
1.37988
1.40635
1.43287
1.45944
1.48602
1.51261
1.53917
1.56569
1.59214
1.61852
1.64478
1.67093
1.69692
1.72275
1.7484
1.77385
1.79894
1.82369
1.84808
1.87212
1.89577
1.91901
1.94182
1.96415
1.98598
2.00728
2.02802
2.04816
2.06769
2.08656
2.10476
2.12225
2.139
2.155
2.17022
2.18462
2.1982
2.21093
2.22278
2.23375
2.2438
2.25294
2.26114
2.26839
2.27468
2.28001
2.28436
2.28773
2.29012
2.29154
2.29197
2.29144
2.28994
2.28748
2.28408
2.27975
2.2745
2.26836
2.26134
2.25347
2.24477
2.23527
2.22499
2.21397
2.20224
2.18982
2.17675
2.16306
2.14879
2.13396
2.11862
2.10279
2.08649
2.06978
2.05264
2.03516
2.01729
1.99916
1.98083
1.96232
1.94378
1.92536
1.90701
1.88856
1.86995
1.85117
1.83221
1.81309
1.7938
1.77435
1.75474
1.73497
1.71506
1.69499
1.6748
1.65448
1.63409
1.61366
1.5935
1.57339
1.55395
0.0254604
0.0576198
0.0761018
0.0894597
0.100574
0.110529
0.119848
0.129017
0.138392
0.148244
0.158745
0.169952
0.181803
0.194138
0.206741
0.219394
0.231928
0.244263
0.256415
0.268485
0.280626
0.293014
0.305803
0.319119
0.333061
0.347688
0.363027
0.379076
0.395767
0.413012
0.430708
0.448742
0.466997
0.485413
0.50398
0.522696
0.54156
0.560574
0.579742
0.599071
0.618572
0.638259
0.658146
0.678251
0.698589
0.719177
0.740033
0.761172
0.78261
0.80436
0.826435
0.848848
0.871608
0.894723
0.918201
0.942048
0.966267
0.990862
1.01583
1.04118
1.0669
1.09299
1.11944
1.14625
1.17342
1.20092
1.22876
1.25692
1.28539
1.31415
1.3432
1.37251
1.40207
1.43186
1.46186
1.49206
1.52244
1.55297
1.58363
1.61441
1.64529
1.67623
1.70722
1.73824
1.76926
1.80026
1.83121
1.86209
1.89288
1.92355
1.95409
1.98446
2.01464
2.0446
2.07432
2.10365
2.1326
2.16115
2.18929
2.21698
2.24418
2.27087
2.297
2.32254
2.34746
2.37172
2.39528
2.41811
2.44017
2.46144
2.48187
2.50145
2.52012
2.53788
2.55469
2.57051
2.58534
2.59914
2.61189
2.62357
2.63417
2.64366
2.65204
2.65928
2.66539
2.67034
2.67414
2.67679
2.67827
2.6786
2.67778
2.67581
2.67271
2.66849
2.66316
2.65674
2.64925
2.64072
2.63117
2.62062
2.60911
2.59668
2.58334
2.56915
2.55412
2.53832
2.52177
2.5045
2.48656
2.468
2.44885
2.42913
2.40893
2.38818
2.36708
2.34561
2.32383
2.30179
2.27955
2.25719
2.23481
2.21238
2.18981
2.16708
2.14417
2.12111
2.09788
2.07452
2.05101
2.02739
2.00365
1.97982
1.95593
1.93201
1.90812
1.88439
1.86097
1.83834
1.81674
1.79717
0.0353187
0.0731663
0.0940748
0.109087
0.12143
0.132241
0.142309
0.152146
0.162119
0.172494
0.183441
0.195026
0.207218
0.219904
0.232927
0.246133
0.259408
0.27271
0.286072
0.299591
0.313397
0.327627
0.342398
0.357797
0.373875
0.390648
0.408102
0.426194
0.444857
0.464012
0.483576
0.503472
0.523632
0.544009
0.56458
0.585336
0.606274
0.627395
0.648705
0.670213
0.691931
0.713873
0.736053
0.758489
0.781197
0.804195
0.8275
0.85113
0.875099
0.899424
0.924119
0.949196
0.974668
1.00054
1.02683
1.05354
1.08068
1.10824
1.13623
1.16466
1.19352
1.2228
1.2525
1.28263
1.31316
1.34409
1.37541
1.4071
1.43916
1.47157
1.50431
1.53736
1.57071
1.60433
1.63821
1.67233
1.70666
1.74118
1.77586
1.81069
1.84563
1.88066
1.91576
1.9509
1.98605
2.02119
2.05628
2.0913
2.12623
2.16103
2.19568
2.23015
2.26441
2.29843
2.3321
2.36536
2.39821
2.43061
2.46253
2.49395
2.52481
2.55508
2.58472
2.61368
2.64193
2.66943
2.69613
2.72199
2.74698
2.77106
2.79419
2.81633
2.83746
2.85753
2.87652
2.89439
2.91111
2.92667
2.94103
2.95417
2.96607
2.97672
2.98608
2.99416
3.00094
3.0064
3.01055
3.01337
3.01487
3.01505
3.01391
3.01146
3.0077
3.00267
2.99636
2.9888
2.98
2.97001
2.95884
2.94652
2.93308
2.91857
2.90302
2.88647
2.86895
2.85052
2.83122
2.81109
2.79016
2.76853
2.74619
2.72317
2.69964
2.67558
2.65105
2.62612
2.60081
2.57519
2.54933
2.52328
2.49712
2.47083
2.44439
2.41778
2.39102
2.36411
2.33708
2.30994
2.28271
2.2554
2.22806
2.2007
2.17338
2.14616
2.11915
2.09251
2.06653
2.04172
2.01849
1.99765
0.0453143
0.0877597
0.111162
0.127757
0.141071
0.152662
0.163356
0.173689
0.184038
0.194674
0.205776
0.217431
0.229648
0.242368
0.2555
0.268954
0.282668
0.296631
0.310882
0.3255
0.340581
0.356219
0.372488
0.389434
0.407073
0.425394
0.444364
0.463934
0.484041
0.504621
0.525609
0.546951
0.568596
0.590511
0.612673
0.63507
0.657697
0.680555
0.703648
0.726985
0.750576
0.774434
0.798575
0.823014
0.847769
0.872857
0.898296
0.924103
0.950296
0.976892
1.00391
1.03135
1.05924
1.08759
1.11641
1.14571
1.17549
1.20576
1.23652
1.26778
1.29953
1.33177
1.3645
1.39772
1.4314
1.46556
1.50017
1.53521
1.57069
1.60657
1.64285
1.67949
1.71649
1.75382
1.79146
1.82937
1.86754
1.90595
1.94455
1.98333
2.02226
2.0613
2.10044
2.13962
2.17884
2.21805
2.25722
2.29633
2.33533
2.37421
2.41291
2.45142
2.48969
2.52768
2.56525
2.60237
2.63903
2.67519
2.71082
2.74588
2.78031
2.81407
2.84712
2.87942
2.91091
2.94155
2.97129
3.0001
3.02792
3.05472
3.08045
3.10507
3.12855
3.15084
3.17192
3.19174
3.21028
3.2275
3.24339
3.25791
3.27104
3.28276
3.29305
3.30189
3.30928
3.31519
3.31963
3.32259
3.32406
3.32405
3.32257
3.31961
3.31519
3.30932
3.30202
3.29332
3.28322
3.27177
3.25899
3.24491
3.22956
3.21299
3.19525
3.17637
3.15638
3.13534
3.11333
3.09037
3.06645
3.04178
3.01634
2.99017
2.96338
2.93598
2.90806
2.87965
2.85082
2.82163
2.79213
2.7624
2.73248
2.7024
2.67216
2.64175
2.61121
2.58055
2.5498
2.51898
2.48813
2.45728
2.42647
2.39574
2.36516
2.33482
2.30487
2.27552
2.24709
2.22012
2.19499
2.17228
0.0545507
0.101084
0.126642
0.144487
0.158762
0.171089
0.182335
0.193056
0.203643
0.214381
0.225466
0.23702
0.249094
0.261689
0.274774
0.288313
0.302286
0.3167
0.331589
0.34701
0.363022
0.37968
0.397022
0.415065
0.433802
0.45321
0.473251
0.493878
0.515038
0.536679
0.558752
0.581214
0.604027
0.627166
0.650609
0.674345
0.698368
0.722678
0.747278
0.772173
0.797375
0.822895
0.848747
0.874946
0.901509
0.928455
0.955801
0.983566
1.01177
1.04042
1.06955
1.09917
1.12929
1.15994
1.19111
1.22282
1.25508
1.2879
1.32128
1.35523
1.38975
1.42483
1.46047
1.49667
1.53341
1.5707
1.60851
1.64684
1.68566
1.72497
1.76473
1.80493
1.84554
1.88654
1.92791
1.96961
2.01161
2.05389
2.09642
2.13915
2.18207
2.22513
2.26831
2.31156
2.35485
2.39816
2.44143
2.48463
2.52773
2.57069
2.61347
2.65602
2.69832
2.74025
2.78171
2.82269
2.86315
2.90306
2.94237
2.98104
3.01901
3.05624
3.09267
3.12825
3.16293
3.19667
3.22941
3.2611
3.2917
3.32115
3.34942
3.37645
3.40222
3.42667
3.44976
3.47146
3.49174
3.51057
3.52791
3.54373
3.55802
3.57075
3.5819
3.59144
3.59938
3.60569
3.61037
3.6134
3.6148
3.61456
3.61268
3.60918
3.60406
3.59734
3.58903
3.57915
3.56774
3.55482
3.54042
3.52458
3.50731
3.48868
3.46875
3.44754
3.42508
3.40143
3.37673
3.35097
3.3242
3.29653
3.26799
3.23866
3.20859
3.17785
3.1465
3.11461
3.08223
3.04944
3.01629
2.98285
2.94918
2.91532
2.88127
2.84709
2.81278
2.77839
2.74395
2.7095
2.67508
2.64073
2.60651
2.57247
2.53872
2.50535
2.47254
2.44053
2.40967
2.38046
2.35318
2.32824
0.0627246
0.11248
0.1397
0.158771
0.173975
0.187005
0.198761
0.209821
0.220589
0.231369
0.242381
0.253779
0.26566
0.278075
0.291046
0.304579
0.318682
0.333371
0.348675
0.364626
0.381256
0.398592
0.416643
0.435409
0.454871
0.475002
0.495765
0.51712
0.539022
0.561431
0.584309
0.607621
0.631339
0.655441
0.67991
0.704735
0.729911
0.755434
0.781309
0.807539
0.834134
0.861103
0.888461
0.916222
0.944403
0.973023
1.0021
1.03165
1.0617
1.09226
1.12336
1.15501
1.18722
1.22003
1.25343
1.28745
1.32209
1.35737
1.39328
1.42984
1.46705
1.5049
1.5434
1.58253
1.6223
1.66268
1.70367
1.74526
1.78742
1.83013
1.87338
1.91714
1.96138
2.00607
2.05118
2.09669
2.14255
2.18874
2.23521
2.28194
2.32888
2.37599
2.42325
2.4706
2.518
2.56543
2.61283
2.66016
2.70738
2.75445
2.80131
2.84794
2.89427
2.94012
2.98548
3.0303
3.07456
3.1182
3.16117
3.20342
3.2449
3.28555
3.32531
3.36413
3.40195
3.43872
3.47438
3.50889
3.54218
3.57422
3.60494
3.63431
3.66227
3.68878
3.71381
3.7373
3.75923
3.77955
3.79825
3.81529
3.83064
3.84429
3.85621
3.86637
3.87477
3.8814
3.88624
3.88929
3.89054
3.89001
3.88769
3.88359
3.87772
3.8701
3.86075
3.84968
3.83691
3.8225
3.80648
3.78886
3.76967
3.74897
3.72685
3.70334
3.67847
3.65232
3.62495
3.59643
3.56679
3.53614
3.50453
3.47202
3.4387
3.40461
3.36985
3.33446
3.29853
3.26213
3.22531
3.18816
3.15074
3.1131
3.07528
3.03731
2.99926
2.96115
2.92304
2.88497
2.84701
2.80919
2.7716
2.73431
2.69742
2.66107
2.62544
2.59079
2.55747
2.52591
2.4963
2.46891
0.0693834
0.121462
0.150207
0.170393
0.186451
0.200135
0.212373
0.223756
0.234703
0.245532
0.256486
0.267749
0.279454
0.291693
0.304527
0.317994
0.332122
0.346935
0.362452
0.378693
0.395669
0.413387
0.431843
0.451024
0.470908
0.491467
0.51267
0.534482
0.556869
0.579798
0.603241
0.627171
0.651565
0.676406
0.701681
0.727378
0.753494
0.780025
0.806973
0.834344
0.862143
0.890382
0.919073
0.94823
0.977871
1.00801
1.03868
1.06988
1.10165
1.134
1.16695
1.20053
1.23475
1.26964
1.3052
1.34145
1.37841
1.41609
1.45449
1.49362
1.53349
1.57409
1.61542
1.65748
1.70026
1.74374
1.78792
1.83278
1.87829
1.92444
1.9712
2.01854
2.06643
2.11484
2.16374
2.21309
2.26285
2.31297
2.36343
2.41418
2.46518
2.51638
2.56773
2.6192
2.67074
2.72231
2.77384
2.82531
2.87666
2.92783
2.97879
3.02949
3.07977
3.12953
3.17874
3.22737
3.27537
3.32268
3.36925
3.41502
3.45993
3.50391
3.54691
3.58887
3.62972
3.66942
3.70789
3.74509
3.78096
3.81545
3.8485
3.88006
3.91009
3.93854
3.96535
3.99049
4.01393
4.03562
4.05554
4.07366
4.08995
4.10439
4.11695
4.12762
4.13637
4.1432
4.1481
4.15106
4.15209
4.15118
4.14833
4.14357
4.13689
4.12833
4.11789
4.10558
4.09143
4.07551
4.05785
4.03847
4.0174
3.9947
3.97045
3.94467
3.91743
3.88878
3.8588
3.82755
3.79509
3.7615
3.72685
3.69121
3.65466
3.61726
3.57911
3.54026
3.50081
3.46082
3.42037
3.37953
3.33839
3.29701
3.25544
3.21374
3.17197
3.13018
3.08843
3.04679
3.00531
2.96408
2.92316
2.88265
2.84267
2.80338
2.76496
2.72768
2.69185
2.65786
2.62581
2.59586
0.074222
0.128255
0.158244
0.179365
0.196161
0.210429
0.223114
0.234815
0.245961
0.256877
0.267823
0.279005
0.290581
0.302673
0.315369
0.32873
0.3428
0.357606
0.373166
0.389492
0.406585
0.424441
0.443049
0.462391
0.482447
0.503192
0.524599
0.546642
0.569294
0.592531
0.616331
0.640674
0.665544
0.690927
0.716812
0.743192
0.770062
0.79742
0.825269
0.853611
0.882455
0.911811
0.94169
0.972108
1.00308
1.03463
1.06677
1.09953
1.13293
1.16699
1.20173
1.23717
1.27334
1.31026
1.34794
1.3864
1.42566
1.46572
1.5066
1.54831
1.59084
1.6342
1.67838
1.72338
1.7692
1.81581
1.86321
1.91137
1.96027
2.00989
2.06019
2.11115
2.16274
2.21491
2.26763
2.32085
2.37452
2.42862
2.48308
2.53787
2.59292
2.64821
2.70366
2.75924
2.8149
2.87058
2.92623
2.98179
3.03722
3.09246
3.14745
3.20212
3.25626
3.30983
3.3628
3.41513
3.46675
3.51762
3.56765
3.6168
3.66498
3.71215
3.75823
3.80315
3.84687
3.88931
3.93041
3.97011
4.00836
4.0451
4.08028
4.11385
4.14574
4.17592
4.20433
4.23093
4.25568
4.27854
4.2995
4.31851
4.33556
4.35062
4.36366
4.37467
4.38363
4.39051
4.39534
4.39809
4.39877
4.39737
4.39391
4.38839
4.38083
4.37126
4.35968
4.34612
4.3306
4.31318
4.29389
4.27277
4.24985
4.22518
4.19882
4.17084
4.14127
4.11019
4.07766
4.04375
4.00853
3.97207
3.93446
3.89576
3.85606
3.81543
3.77397
3.73174
3.68883
3.64532
3.60131
3.55687
3.51209
3.46704
3.4218
3.37643
3.33101
3.28561
3.24029
3.19514
3.15022
3.10563
3.06145
3.0178
2.97479
2.9326
2.89143
2.85154
2.8132
2.77675
2.74219
2.70967
0.077654
0.133098
0.164012
0.185856
0.203248
0.218009
0.231093
0.2431
0.25446
0.265503
0.276495
0.287655
0.299156
0.311137
0.323704
0.336933
0.350879
0.365576
0.381043
0.39729
0.414315
0.432111
0.450667
0.469965
0.489988
0.510717
0.532131
0.554211
0.57694
0.6003
0.624277
0.648856
0.674027
0.69978
0.726108
0.753007
0.780473
0.808506
0.837108
0.866285
0.896045
0.926397
0.957355
0.988933
1.02115
1.05402
1.08758
1.12183
1.15681
1.19254
1.22904
1.26633
1.30444
1.34339
1.3832
1.42388
1.46546
1.50794
1.55134
1.59565
1.64089
1.68706
1.73414
1.78215
1.83105
1.88085
1.93151
1.98303
2.03536
2.0885
2.14239
2.19702
2.25233
2.30828
2.36484
2.42195
2.47955
2.53761
2.59606
2.65486
2.71394
2.77326
2.83277
2.89239
2.95209
3.0118
3.07147
3.13103
3.19044
3.24963
3.30854
3.36692
3.42474
3.48195
3.53849
3.59432
3.64937
3.70357
3.75685
3.80914
3.86037
3.91046
3.95936
4.00699
4.0533
4.09821
4.14166
4.18359
4.22394
4.26266
4.29969
4.33497
4.36847
4.40011
4.42985
4.45763
4.48343
4.50722
4.52896
4.54862
4.56619
4.58165
4.59497
4.60612
4.61507
4.62184
4.62641
4.62879
4.62898
4.62698
4.62279
4.61644
4.60794
4.5973
4.58454
4.5697
4.5528
4.53388
4.51298
4.49013
4.46538
4.43879
4.41039
4.38026
4.34844
4.31501
4.28002
4.24356
4.20568
4.16647
4.12601
4.08437
4.04165
3.99791
3.95326
3.90777
3.86154
3.81465
3.7672
3.71928
3.67098
3.62239
3.5736
3.52469
3.47574
3.42684
3.37807
3.32952
3.28127
3.23342
3.18609
3.13938
3.09344
3.04845
3.00459
2.96213
2.92131
2.88242
2.84538
2.81031
0.0798477
0.136222
0.167764
0.190122
0.20796
0.223111
0.236528
0.248811
0.260385
0.271578
0.282658
0.293844
0.305316
0.31722
0.329671
0.342756
0.356535
0.371048
0.386321
0.402365
0.419181
0.436764
0.455107
0.474197
0.494023
0.514571
0.535831
0.55779
0.580438
0.603767
0.627768
0.652434
0.677761
0.703743
0.730378
0.757664
0.785601
0.814192
0.843441
0.873354
0.903941
0.935213
0.967183
0.999869
1.03329
1.06746
1.10241
1.13816
1.17473
1.21215
1.25043
1.28962
1.32972
1.37076
1.41277
1.45575
1.49972
1.5447
1.5907
1.63772
1.68576
1.73482
1.7849
1.83599
1.88807
1.94112
1.99513
2.05007
2.1059
2.1626
2.22012
2.27843
2.33749
2.39724
2.45763
2.5186
2.5801
2.64206
2.70444
2.76717
2.83018
2.89343
2.95685
3.02038
3.08396
3.14754
3.21104
3.27441
3.33759
3.40051
3.46295
3.52481
3.58604
3.64659
3.70641
3.76542
3.82357
3.88078
3.93697
3.99206
4.04596
4.09862
4.14997
4.19993
4.24845
4.29545
4.34087
4.38464
4.42672
4.46703
4.50553
4.54217
4.57691
4.60967
4.64038
4.669
4.69552
4.7199
4.74211
4.76213
4.77993
4.7955
4.80881
4.81985
4.82859
4.83503
4.83917
4.84102
4.84057
4.83783
4.83281
4.82552
4.81598
4.80421
4.79024
4.77408
4.75577
4.73535
4.71285
4.68832
4.6618
4.63333
4.60297
4.57078
4.53682
4.50115
4.46383
4.42494
4.38456
4.34275
4.2996
4.25519
4.20961
4.16295
4.11528
4.06672
4.01734
3.96725
3.91655
3.86533
3.8137
3.76176
3.7096
3.65732
3.60502
3.55279
3.50073
3.44893
3.39751
3.34656
3.29621
3.2466
3.19786
3.15018
3.10375
3.05882
3.01561
2.97434
2.9349
2.8974
0.0809786
0.137881
0.169788
0.192467
0.210602
0.226028
0.2397
0.25221
0.263978
0.275325
0.286513
0.297755
0.309232
0.321087
0.333439
0.346376
0.359964
0.37425
0.389263
0.40502
0.421528
0.43879
0.456804
0.475565
0.495071
0.515315
0.536297
0.558013
0.580461
0.603641
0.627553
0.652196
0.677573
0.703684
0.730532
0.758121
0.786454
0.815537
0.845378
0.875986
0.907371
0.939547
0.972531
1.00634
1.04099
1.07651
1.11291
1.15023
1.18848
1.22769
1.26788
1.30908
1.3513
1.39458
1.43892
1.48435
1.53088
1.57852
1.62727
1.67714
1.72813
1.78024
1.83344
1.88774
1.9431
1.99952
2.05696
2.11539
2.17477
2.23507
2.29624
2.35824
2.42102
2.48452
2.54869
2.61346
2.67875
2.7445
2.81065
2.87713
2.94389
3.01085
3.07795
3.14513
3.21232
3.27947
3.3465
3.41336
3.47998
3.54613
3.6117
3.67662
3.74084
3.8043
3.86693
3.92866
3.98943
4.04918
4.10782
4.1652
4.22128
4.276
4.32929
4.38107
4.4313
4.47988
4.52677
4.5719
4.6152
4.65663
4.69612
4.73363
4.76911
4.8025
4.83374
4.8628
4.88965
4.91425
4.93657
4.95661
4.97432
4.98969
5.00271
5.01336
5.02164
5.02752
5.03102
5.03214
5.03088
5.02725
5.02126
5.01292
5.00226
4.98929
4.97405
4.95654
4.93682
4.9149
4.89084
4.86467
4.83643
4.80618
4.77396
4.73984
4.70386
4.6661
4.62661
4.58548
4.54277
4.49856
4.45293
4.40597
4.35775
4.30838
4.25795
4.20654
4.15427
4.10122
4.04751
3.99324
3.93852
3.88347
3.82818
3.77277
3.71735
3.66202
3.60689
3.55207
3.49768
3.44384
3.39069
3.33835
3.287
3.2368
3.18796
3.1407
3.09523
3.05172
3.01004
2.97026
0.0812361
0.138336
0.170381
0.193206
0.211494
0.227082
0.240919
0.253593
0.265516
0.277
0.288295
0.299609
0.31111
0.322939
0.335209
0.348008
0.361404
0.375446
0.39017
0.405598
0.421747
0.438627
0.456245
0.474606
0.493717
0.513584
0.534215
0.555617
0.577798
0.600765
0.624528
0.649095
0.674476
0.70068
0.727715
0.755592
0.784319
0.813908
0.844369
0.875716
0.907963
0.941126
0.975221
1.01027
1.04629
1.08331
1.12135
1.16043
1.20056
1.24178
1.28411
1.32755
1.37215
1.4179
1.46484
1.51297
1.5623
1.61283
1.66458
1.71753
1.77168
1.82702
1.88353
1.94119
1.99998
2.05987
2.12082
2.1828
2.24576
2.30966
2.37445
2.44008
2.50648
2.57361
2.64142
2.70982
2.77868
2.84797
2.91761
2.98754
3.05769
3.128
3.19839
3.26881
3.33918
3.40945
3.47954
3.5494
3.61877
3.68754
3.75566
3.82305
3.88965
3.95538
4.02018
4.08398
4.1467
4.20827
4.2686
4.3276
4.3852
4.44132
4.4959
4.54887
4.60016
4.6497
4.69744
4.74331
4.78725
4.82921
4.86913
4.90696
4.94266
4.97617
5.00746
5.03647
5.06318
5.08756
5.10958
5.12923
5.14647
5.16131
5.17371
5.18368
5.1912
5.19627
5.19889
5.19907
5.19682
5.19213
5.18503
5.17554
5.16366
5.14943
5.13287
5.114
5.09286
5.06948
5.0439
5.01617
4.98631
4.95439
4.92044
4.88453
4.84671
4.80705
4.7656
4.72244
4.67764
4.63127
4.58342
4.53417
4.4836
4.43181
4.3789
4.32495
4.27007
4.21437
4.15796
4.10095
4.04345
3.98559
3.92749
3.86925
3.811
3.75286
3.69494
3.63739
3.58031
3.52384
3.46813
3.41333
3.35959
3.30711
3.25608
3.2067
3.15916
3.11361
3.06989
3.02806
0.080818
0.137845
0.169833
0.192646
0.210954
0.226589
0.240499
0.253265
0.265292
0.276882
0.288273
0.299659
0.311199
0.323021
0.335233
0.347917
0.361141
0.374957
0.389402
0.404509
0.4203
0.436795
0.454011
0.471966
0.490676
0.510161
0.530441
0.551536
0.573466
0.596243
0.619887
0.644419
0.669857
0.69622
0.723527
0.751793
0.781037
0.811275
0.842523
0.874798
0.908118
0.942502
0.977968
1.01454
1.05223
1.09107
1.13109
1.17231
1.21472
1.25834
1.30319
1.34928
1.39664
1.44528
1.49519
1.5464
1.59889
1.65267
1.70773
1.76405
1.82163
1.88043
1.94045
2.00164
2.06397
2.12741
2.19192
2.25744
2.32393
2.39133
2.45958
2.52864
2.59842
2.66887
2.73992
2.81149
2.88349
2.95584
3.02848
3.10133
3.17433
3.2474
3.32048
3.3935
3.46639
3.53912
3.61154
3.68343
3.75471
3.82532
3.89517
3.96421
4.03234
4.09951
4.16564
4.23064
4.29446
4.35702
4.41822
4.478
4.53627
4.59298
4.64803
4.70139
4.75296
4.8027
4.85054
4.89642
4.94029
4.98209
5.02177
5.05928
5.09458
5.12763
5.15838
5.1868
5.21285
5.23652
5.25777
5.27659
5.29296
5.30687
5.31831
5.32726
5.33374
5.33772
5.33923
5.33825
5.33482
5.32892
5.32059
5.30983
5.29667
5.28113
5.26323
5.24301
5.22049
5.1957
5.16869
5.1395
5.10815
5.07471
5.03921
5.00171
4.96227
4.92094
4.87778
4.83286
4.78626
4.73803
4.68828
4.63706
4.58448
4.53062
4.47557
4.41944
4.36233
4.30435
4.24561
4.18623
4.12633
4.06604
4.00548
3.94478
3.88407
3.82347
3.76313
3.70317
3.64374
3.58498
3.52703
3.47007
3.41426
3.35977
3.30682
3.25559
3.20624
3.15892
3.11343
3.06985
0.0798821
0.136607
0.168364
0.191019
0.20922
0.224794
0.238686
0.251475
0.263555
0.275219
0.286692
0.298152
0.309745
0.321588
0.333778
0.346392
0.359496
0.37314
0.387368
0.402216
0.417716
0.4339
0.450794
0.468425
0.486823
0.506024
0.526065
0.546987
0.568839
0.591599
0.615313
0.64002
0.665753
0.692544
0.720421
0.749412
0.77954
0.810831
0.843305
0.876986
0.911893
0.948045
0.985463
1.02416
1.06417
1.10548
1.14814
1.19213
1.23748
1.28417
1.33223
1.38165
1.43244
1.48459
1.5381
1.59296
1.64916
1.70668
1.7655
1.82559
1.88693
1.94948
2.01321
2.07808
2.14404
2.21105
2.27905
2.348
2.41782
2.48846
2.55986
2.63196
2.70467
2.77794
2.85169
2.92583
3.0003
3.07501
3.14989
3.22487
3.29988
3.37485
3.44972
3.52444
3.59891
3.67294
3.74641
3.81924
3.89136
3.9627
4.03318
4.10273
4.17128
4.23875
4.30508
4.37018
4.43399
4.49643
4.55744
4.61692
4.67482
4.73107
4.7856
4.83834
4.88924
4.93823
4.98525
5.03026
5.07319
5.114
5.15264
5.18907
5.22324
5.25512
5.28467
5.31185
5.33664
5.35902
5.37897
5.39646
5.41149
5.42403
5.4341
5.44168
5.44677
5.44937
5.44948
5.44713
5.44231
5.43503
5.42532
5.4132
5.39868
5.38178
5.36254
5.34097
5.31711
5.29099
5.26265
5.23211
5.19943
5.16464
5.12779
5.08892
5.04809
5.00535
4.96076
4.91439
4.86629
4.81655
4.76522
4.7124
4.65817
4.60262
4.54583
4.48792
4.42897
4.36911
4.30846
4.24712
4.18523
4.12292
4.06032
3.99756
3.9348
3.87215
3.80977
3.74781
3.68641
3.62572
3.56591
3.50714
3.44959
3.39345
3.3389
3.28613
3.23529
3.18651
3.13958
3.09458
0.0787764
0.134989
0.166347
0.188703
0.206672
0.222081
0.23587
0.248613
0.260699
0.272407
0.28395
0.295495
0.307172
0.31909
0.331337
0.343986
0.357098
0.370726
0.384918
0.399714
0.415155
0.431291
0.448169
0.465781
0.484189
0.50345
0.523619
0.544749
0.566891
0.590083
0.614374
0.639812
0.666442
0.694309
0.72345
0.753903
0.785699
0.818868
0.853434
0.889421
0.926847
0.965726
1.00607
1.04789
1.09119
1.13598
1.18224
1.22999
1.27919
1.32986
1.38196
1.43548
1.49041
1.54672
1.60439
1.66338
1.72366
1.78521
1.84797
1.91193
1.97702
2.04321
2.11044
2.17867
2.24785
2.31791
2.38881
2.46048
2.53286
2.60589
2.67951
2.75364
2.82822
2.90318
2.97844
3.05395
3.12961
3.20537
3.28115
3.35689
3.43252
3.508
3.58324
3.65806
3.73232
3.806
3.879
3.95126
4.02271
4.09329
4.16291
4.23151
4.29901
4.36536
4.43048
4.4943
4.55676
4.61778