/*--------------------------------*- C++ -*----------------------------------*\
  =========                 |
  \\      /  F ield         | OpenFOAM: The Open Source CFD Toolbox
   \\    /   O peration     | Website:  https://openfoam.org
    \\  /    A nd           | Version:  9
     \\/     M anipulation  |
\*---------------------------------------------------------------------------*/
FoamFile
{
    format      ascii;
    class       volScalarField;
    location    "0.1";
    object      nut;
}
// * * * * * * * * * * * * * * * * * * * * * * * * * * * * * * * * * * * * * //

dimensions      [0 2 -1 0 0 0 0];

internalField   nonuniform List<scalar> 
12225
(
4.04768e-05
3.83178e-05
3.62504e-05
3.442e-05
3.29522e-05
3.18981e-05
3.1257e-05
3.09951e-05
3.10603e-05
3.13936e-05
3.19362e-05
3.26346e-05
3.34425e-05
3.43216e-05
3.52433e-05
3.61835e-05
3.71514e-05
3.85603e-05
0.000281047
0.000209264
0.000176264
0.000157436
0.000146268
0.000139683
0.000135789
0.000133426
0.000131912
0.000130855
0.00013004
0.000129354
0.000128737
0.00012816
0.000127624
0.00012708
0.000126705
0.000125667
0.000556045
0.000419903
0.000349807
0.000304725
0.000272434
0.000247965
0.000228744
0.000213273
0.000200639
0.000190231
0.000181608
0.000174432
0.000168432
0.000163385
0.000159118
0.000155434
0.000152252
0.000149071
0.000740307
0.000625817
0.000544108
0.000484986
0.000439752
0.000403624
0.000373806
0.000348559
0.000326797
0.00030782
0.000291154
0.000276452
0.000263442
0.000251892
0.000241602
0.000232342
0.000223948
0.000216094
0.000817069
0.000759139
0.000700539
0.000648565
0.000603878
0.000565555
0.000532435
0.000503462
0.000477811
0.000454873
0.000434201
0.000415459
0.000398386
0.000382767
0.000368416
0.000355136
0.000342772
0.000331201
0.0008421
0.000819686
0.00078992
0.000757597
0.000725538
0.00069514
0.000666932
0.00064097
0.000617112
0.000595156
0.000574896
0.000556144
0.000538734
0.000522515
0.00050735
0.000493101
0.000479657
0.000467056
0.000849261
0.000841807
0.000829739
0.000814182
0.000796471
0.000777745
0.000758824
0.00074022
0.000722219
0.000704968
0.000688524
0.000672895
0.000658057
0.000643971
0.000630583
0.000617836
0.000605683
0.000594251
0.00085112
0.000848747
0.000844479
0.000838233
0.00083024
0.000820885
0.000810583
0.000799698
0.000788521
0.000777266
0.00076609
0.000755098
0.000744358
0.00073391
0.000723776
0.000713962
0.000704479
0.000695481
0.00085156
0.000850665
0.000849169
0.000846885
0.000843738
0.000839753
0.000835025
0.00082968
0.000823855
0.000817676
0.000811258
0.000804694
0.00079806
0.000791416
0.000784806
0.000778267
0.000771834
0.000765645
0.000851652
0.000851133
0.000850468
0.000849563
0.000848345
0.000846769
0.000844821
0.000842512
0.000839872
0.000836941
0.000833766
0.000830391
0.00082686
0.000823212
0.000819482
0.000815702
0.000811904
0.000808186
0.000851668
0.00085123
0.000850778
0.000850278
0.000849697
0.000849005
0.00084818
0.000847207
0.000846081
0.000844805
0.000843385
0.000841835
0.000840169
0.000838401
0.000836548
0.000834627
0.000832657
0.000830695
0.000851669
0.000851245
0.000850835
0.000850429
0.000850013
0.000849574
0.000849099
0.000848577
0.000847998
0.000847359
0.000846656
0.00084589
0.000845064
0.00084418
0.000843244
0.000842263
0.000841246
0.000840226
0.000851668
0.000851245
0.000850843
0.000850459
0.000850088
0.000849725
0.000849364
0.000848999
0.000848626
0.000848239
0.000847836
0.000847414
0.000846971
0.000846508
0.000846025
0.000845522
0.000845005
0.000844491
0.000851667
0.000851242
0.000850839
0.000850458
0.000850096
0.000849751
0.00084942
0.000849101
0.000848791
0.000848489
0.000848191
0.000847898
0.000847606
0.000847316
0.000847025
0.000846735
0.000846446
0.000846171
0.000851666
0.000851239
0.000850835
0.000850452
0.00085009
0.000849746
0.000849419
0.000849107
0.000848811
0.000848527
0.000848255
0.000847994
0.000847743
0.000847502
0.000847269
0.000847044
0.000846829
0.000846634
0.000851665
0.000851236
0.000850831
0.000850447
0.000850083
0.000849737
0.000849409
0.000849097
0.000848801
0.000848519
0.00084825
0.000847994
0.000847749
0.000847516
0.000847294
0.000847081
0.000846881
0.000846703
0.000851664
0.000851235
0.000850828
0.000850442
0.000850077
0.00084973
0.000849401
0.000849088
0.00084879
0.000848507
0.000848237
0.00084798
0.000847735
0.000847502
0.00084728
0.000847068
0.000846868
0.00084669
0.000851664
0.000851234
0.000850826
0.00085044
0.000850073
0.000849725
0.000849395
0.000849081
0.000848783
0.000848498
0.000848228
0.00084797
0.000847724
0.000847489
0.000847266
0.000847052
0.000846851
0.000846673
0.000851663
0.000851233
0.000850825
0.000850439
0.000850072
0.000849724
0.000849393
0.000849079
0.00084878
0.000848495
0.000848224
0.000847965
0.000847718
0.000847483
0.000847259
0.000847044
0.000846842
0.000846663
0.000851664
0.000851234
0.000850826
0.00085044
0.000850074
0.000849727
0.000849396
0.000849082
0.000848783
0.000848498
0.000848227
0.000847967
0.00084772
0.000847483
0.000847257
0.000847041
0.000846836
0.000846654
0.000851664
0.000851235
0.000850829
0.000850443
0.000850078
0.00084973
0.000849399
0.000849083
0.000848781
0.000848491
0.000848211
0.000847942
0.000847682
0.000847431
0.000847186
0.000846949
0.000846721
0.000846512
0.000851665
0.000851237
0.00085083
0.000850442
0.000850069
0.000849707
0.000849352
0.000849
0.000848649
0.000848295
0.000847937
0.000847573
0.000847202
0.000846824
0.000846438
0.000846046
0.000845649
0.000845261
0.000851664
0.000851228
0.000850794
0.000850348
0.00084987
0.000849346
0.000848763
0.000848113
0.000847391
0.000846597
0.000845732
0.000844803
0.000843813
0.00084277
0.000841682
0.000840557
0.000839403
0.000838244
0.000851634
0.000851073
0.000850343
0.000849364
0.000848081
0.000846469
0.000844534
0.000842296
0.000839791
0.00083706
0.000834146
0.000831088
0.000827926
0.000824693
0.000821418
0.000818126
0.000814842
0.000811613
0.000851287
0.000849596
0.000846722
0.000842579
0.000837265
0.000830984
0.000823978
0.000816481
0.000808687
0.000800755
0.000792805
0.000784929
0.00077719
0.000769634
0.00076229
0.000755179
0.000748314
0.00074175
0.000848318
0.000839426
0.000826162
0.00081002
0.000792363
0.000774234
0.000756331
0.000739058
0.000722611
0.000707073
0.000692452
0.000678723
0.00066584
0.000653746
0.000642386
0.000631706
0.000621657
0.000612249
0.000828548
0.000788844
0.000746036
0.000705707
0.000669469
0.000637509
0.000609456
0.000584752
0.00056286
0.000543325
0.000525777
0.000509917
0.000495504
0.000482343
0.000470275
0.000459171
0.000448922
0.000439482
0.000730726
0.000627348
0.000554511
0.000501064
0.000460324
0.000428355
0.000402642
0.00038148
0.000363722
0.000348595
0.000335552
0.000324196
0.000314228
0.000305419
0.00029759
0.000290595
0.000284315
0.000278668
0.00043925
0.000338472
0.000287937
0.000256871
0.000236364
0.000222513
0.000212996
0.000206315
0.000201509
0.000197962
0.000195274
0.00019318
0.000191502
0.000190119
0.000188949
0.000187934
0.000187037
0.00018621
7.16431e-05
6.90587e-05
6.65522e-05
6.41645e-05
6.19883e-05
6.00783e-05
5.84562e-05
5.71208e-05
5.60564e-05
5.52391e-05
5.4642e-05
5.42372e-05
5.39979e-05
5.38993e-05
5.39188e-05
5.40363e-05
5.42344e-05
5.44968e-05
1.7555e-06
2.73078e-05
3.90753e-05
4.85587e-05
5.66614e-05
6.39642e-05
7.10147e-05
7.8509e-05
8.66828e-05
9.57752e-05
0.000106015
0.000117496
0.000130199
0.000143468
0.000156226
0.000167931
0.000178079
0.000186287
0.000192323
0.000195979
0.000196824
0.000196023
0.000197508
0.000200002
0.00020132
0.00020111
4.55652e-05
0.000198316
4.50863e-05
4.54366e-05
4.60416e-05
4.72666e-05
4.83641e-05
4.94877e-05
5.05978e-05
5.16876e-05
5.27566e-05
5.38051e-05
5.48344e-05
5.58463e-05
5.68425e-05
5.78252e-05
5.8796e-05
5.97569e-05
6.07093e-05
6.16547e-05
6.25945e-05
6.35297e-05
6.44613e-05
6.539e-05
6.63165e-05
6.72413e-05
6.81647e-05
6.9087e-05
7.00083e-05
7.09287e-05
7.18481e-05
7.27664e-05
7.36835e-05
7.4599e-05
7.55127e-05
7.64243e-05
7.73333e-05
7.82393e-05
7.9142e-05
8.00408e-05
8.09352e-05
8.18248e-05
8.27091e-05
8.35876e-05
8.44597e-05
8.53249e-05
8.61827e-05
8.70327e-05
8.78742e-05
8.87068e-05
8.95299e-05
9.03431e-05
9.11459e-05
9.19379e-05
9.27184e-05
9.3487e-05
9.42433e-05
9.49867e-05
9.57169e-05
9.64333e-05
9.71354e-05
9.78227e-05
9.84948e-05
9.91513e-05
9.97917e-05
0.000100416
0.000101023
0.000101615
0.000102191
0.000102753
0.000103306
0.000103838
0.000104349
0.00010484
0.000105309
0.000105758
0.000106185
0.00010659
0.000106973
0.000107333
0.00010767
0.000107983
0.000108272
0.000108536
0.000108776
0.000108991
0.00010918
0.000109344
0.000109482
0.000109594
0.00010968
0.000109739
0.000109772
0.000109779
0.000109759
0.000109712
0.000109639
0.000109539
0.000109413
0.000109261
0.000109082
0.000108877
0.000108647
0.000108391
0.000108109
0.000107803
0.000107473
0.000107119
0.000106741
0.00010634
0.000105917
0.000105472
0.000105006
0.000104519
0.000104013
0.000103487
0.000102942
0.00010238
0.000101801
0.000101206
0.000100595
9.99699e-05
9.93303e-05
9.86775e-05
9.8012e-05
9.73344e-05
9.66455e-05
9.59454e-05
9.52354e-05
9.4515e-05
9.37857e-05
9.30471e-05
9.2299e-05
9.15455e-05
9.08351e-05
9.04182e-05
9.00487e-05
8.96817e-05
8.93128e-05
8.8941e-05
8.85653e-05
8.81852e-05
8.77999e-05
8.74085e-05
8.701e-05
8.66029e-05
8.61852e-05
8.57541e-05
8.53045e-05
8.4828e-05
8.43056e-05
8.36938e-05
8.28601e-05
8.14821e-05
3.1658e-06
3.96587e-05
8.02028e-05
0.000113244
0.000139724
0.000161129
0.00017879
0.000192909
0.000204703
0.000215367
0.000225745
0.0002362
0.000246831
0.000257328
0.000267114
0.000275509
0.000281853
0.000285589
0.000286236
0.000283067
0.000274954
0.000263263
0.000261446
0.000263914
0.000262001
0.000259007
0.000246768
0.000253575
0.000249309
0.000253162
0.000258369
0.000266147
0.00027432
0.00028217
0.000290212
0.000298365
0.000306544
0.000314687
0.000322758
0.000330737
0.000338615
0.000346393
0.000354077
0.000361679
0.00036921
0.000376686
0.000384119
0.000391527
0.000398922
0.00040632
0.000413731
0.000421169
0.000428644
0.000436165
0.00044374
0.000451376
0.000459078
0.000466853
0.000474702
0.00048263
0.000490636
0.000498723
0.000506891
0.000515137
0.000523462
0.000531864
0.000540338
0.000548884
0.000557497
0.000566173
0.000574909
0.000583699
0.00059254
0.000601427
0.000610353
0.000619316
0.000628308
0.000637326
0.000646364
0.000655418
0.00066448
0.000673548
0.000682617
0.00069168
0.000700734
0.000709774
0.000718795
0.000727792
0.000736758
0.000745687
0.000754568
0.000763389
0.000772128
0.000780752
0.00078921
0.000797439
0.000804991
0.000812372
0.000819642
0.000826803
0.00083385
0.000840777
0.000847578
0.000854246
0.000860775
0.000867159
0.000873391
0.000879464
0.000885374
0.000891112
0.000896675
0.000902055
0.000907246
0.000912245
0.000917044
0.00092164
0.000926026
0.000930199
0.000934154
0.000937887
0.000941394
0.000944671
0.000947715
0.000950522
0.000953091
0.000955418
0.000957503
0.000959343
0.000960937
0.000962287
0.00096339
0.000964248
0.000964863
0.000965235
0.000965367
0.000965263
0.000964925
0.000964358
0.000963568
0.000962559
0.000961337
0.00095991
0.000958285
0.00095647
0.000954472
0.000952302
0.000949968
0.000947478
0.000944843
0.000942074
0.000939178
0.000936165
0.000933046
0.000929821
0.00092651
0.000923104
0.00091961
0.000916023
0.000912197
0.000907786
0.000901572
0.000893828
0.0008857
0.000877419
0.000869035
0.000860561
0.000852003
0.00084336
0.000834634
0.000825823
0.000816925
0.000807937
0.000798854
0.000789667
0.000780362
0.000770911
0.000761232
0.000751236
0.000739786
0.000715541
5.29397e-06
5.55581e-05
0.000113769
0.000163053
0.000203253
0.000235612
0.000260982
0.000280352
0.000295276
0.000307283
0.000317623
0.000327181
0.000336424
0.00034543
0.000353989
0.000361756
0.000368415
0.000373806
0.000377977
0.000381133
0.000383633
0.000386461
0.000391756
0.000398867
0.000406724
0.000415662
0.000425234
0.000437132
0.000449811
0.000463972
0.00047921
0.000495702
0.000512941
0.000530284
0.000547589
0.000564778
0.000581796
0.000598608
0.000615198
0.000631562
0.000647711
0.000663662
0.000679437
0.000695066
0.000710577
0.000726
0.000741365
0.000756701
0.000772037
0.000787396
0.000802803
0.000818278
0.00083384
0.000849505
0.000865286
0.000881195
0.000897242
0.000913432
0.000929771
0.000946263
0.000962907
0.000979704
0.000996653
0.00101375
0.00103099
0.00104837
0.00106587
0.00108351
0.00110125
0.00111911
0.00113706
0.0011551
0.00117321
0.00119139
0.00120962
0.0012279
0.0012462
0.00126453
0.00128286
0.0013012
0.00131951
0.00133781
0.00135606
0.00137426
0.0013924
0.00141047
0.00142844
0.00144631
0.00146406
0.00148167
0.00149911
0.00151636
0.00153338
0.00155014
0.00156658
0.00158242
0.0015978
0.0016129
0.00162776
0.00164239
0.00165677
0.00167089
0.00168474
0.00169831
0.00171158
0.00172454
0.00173718
0.00174949
0.00176144
0.00177303
0.00178425
0.00179508
0.00180552
0.00181554
0.00182515
0.00183432
0.00184306
0.00185134
0.00185917
0.00186652
0.0018734
0.00187979
0.00188569
0.0018911
0.001896
0.00190039
0.00190426
0.00190762
0.00191046
0.00191279
0.00191458
0.00191586
0.00191662
0.00191687
0.0019166
0.00191583
0.00191456
0.0019128
0.00191056
0.00190784
0.00190467
0.00190105
0.001897
0.00189254
0.00188768
0.00188243
0.00187683
0.00187089
0.00186462
0.00185805
0.00185119
0.00184408
0.00183672
0.00182913
0.00182134
0.00181335
0.00180513
0.00179666
0.00178771
0.00177783
0.00176625
0.00175327
0.00173969
0.00172581
0.00171172
0.00169747
0.00168305
0.00166847
0.00165372
0.00163881
0.00162372
0.00160845
0.00159296
0.00157725
0.00156127
0.00154492
0.00152801
0.00151008
0.00148918
0.00145647
7.94749e-06
7.3239e-05
0.000146964
0.000208308
0.000257441
0.000296097
0.000325894
0.000348629
0.000366011
0.000379656
0.000390982
0.000401105
0.000410773
0.000420372
0.000430008
0.000439636
0.000449193
0.00045871
0.000468352
0.000478409
0.000489239
0.000501276
0.000514964
0.000530306
0.000547174
0.000565533
0.000585257
0.000606337
0.000628544
0.000651705
0.000675624
0.000700127
0.000724915
0.000749674
0.000774238
0.000798528
0.000822508
0.000846164
0.000869502
0.000892536
0.000915291
0.0009378
0.000960097
0.000982221
0.00100421
0.00102611
0.00104795
0.00106977
0.00109161
0.00111349
0.00113545
0.00115751
0.00117969
0.00120202
0.0012245
0.00124716
0.00127
0.00129303
0.00131626
0.00133969
0.00136331
0.00138713
0.00141114
0.00143534
0.00145972
0.00148426
0.00150897
0.00153382
0.00155881
0.00158393
0.00160915
0.00163446
0.00165985
0.00168531
0.00171081
0.00173633
0.00176187
0.00178741
0.00181292
0.0018384
0.00186382
0.00188917
0.00191442
0.00193957
0.00196459
0.00198947
0.00201418
0.00203871
0.00206302
0.0020871
0.00211091
0.00213443
0.00215762
0.00218045
0.00220286
0.00222467
0.00224604
0.00226705
0.00228773
0.00230807
0.00232806
0.00234768
0.00236693
0.00238578
0.0024042
0.0024222
0.00243974
0.00245682
0.0024734
0.00248948
0.00250505
0.00252007
0.00253455
0.00254845
0.00256177
0.00257449
0.00258661
0.00259809
0.00260894
0.00261914
0.00262867
0.00263754
0.00264572
0.0026532
0.00265999
0.00266607
0.00267143
0.00267607
0.00267999
0.00268318
0.00268564
0.00268738
0.00268838
0.00268866
0.00268822
0.00268706
0.0026852
0.00268265
0.0026794
0.00267549
0.00267092
0.00266571
0.00265988
0.00265344
0.00264644
0.00263887
0.00263078
0.00262218
0.00261311
0.00260359
0.00259365
0.00258332
0.00257263
0.00256159
0.00255024
0.00253859
0.00252659
0.0025142
0.00250122
0.00248736
0.00247223
0.00245604
0.00243925
0.00242209
0.00240466
0.00238702
0.00236918
0.00235114
0.00233291
0.00231447
0.00229583
0.00227697
0.00225787
0.00223849
0.00221879
0.00219867
0.00217786
0.00215577
0.00213044
0.00209617
1.10298e-05
9.04025e-05
0.000176771
0.000247635
0.000303803
0.000347553
0.000381281
0.000407092
0.000426916
0.000442529
0.000455495
0.000467088
0.000478245
0.000489569
0.000501389
0.000513861
0.000527075
0.000541134
0.000556196
0.000572465
0.000590153
0.00060944
0.000630435
0.000653123
0.00067741
0.000703164
0.000730214
0.000758378
0.000787442
0.000817182
0.000847379
0.000877817
0.00090828
0.000938582
0.000968604
0.00099828
0.00102759
0.00105651
0.00108508
0.00111331
0.00114123
0.00116888
0.00119631
0.00122355
0.00125065
0.00127766
0.00130461
0.00133154
0.0013585
0.00138551
0.00141262
0.00143984
0.0014672
0.00149472
0.00152243
0.00155032
0.00157843
0.00160674
0.00163527
0.00166401
0.00169298
0.00172216
0.00175154
0.00178113
0.00181091
0.00184086
0.00187098
0.00190126
0.00193166
0.00196219
0.00199282
0.00202353
0.0020543
0.00208511
0.00211595
0.00214679
0.00217762
0.0022084
0.00223913
0.00226978
0.00230032
0.00233075
0.00236103
0.00239115
0.00242109
0.00245082
0.00248032
0.00250956
0.00253853
0.0025672
0.00259554
0.00262352
0.00265112
0.00267832
0.00270496
0.00273107
0.00275673
0.00278198
0.00280684
0.00283128
0.00285531
0.00287891
0.00290204
0.00292471
0.00294687
0.00296852
0.00298964
0.0030102
0.00303018
0.00304957
0.00306834
0.00308647
0.00310396
0.00312077
0.0031369
0.00315231
0.003167
0.00318096
0.00319416
0.00320659
0.00321823
0.00322908
0.00323912
0.00324834
0.00325672
0.00326426
0.00327095
0.00327678
0.00328174
0.00328583
0.00328905
0.0032914
0.00329286
0.00329346
0.00329318
0.00329203
0.00329003
0.00328718
0.00328349
0.00327897
0.00327365
0.00326754
0.00326066
0.00325303
0.00324468
0.00323563
0.00322592
0.00321557
0.00320461
0.00319309
0.00318103
0.00316846
0.00315542
0.00314195
0.00312806
0.00311377
0.00309905
0.00308386
0.00306809
0.00305155
0.00303409
0.00301583
0.00299702
0.00297784
0.00295838
0.00293869
0.00291879
0.00289871
0.00287844
0.00285799
0.00283735
0.00281652
0.00279549
0.00277423
0.00275271
0.00273083
0.00270838
0.00268479
0.00265847
0.00262602
1.41494e-05
0.00010419
0.000201571
0.000281111
0.000343754
0.000392578
0.000430325
0.000459401
0.000481959
0.000499936
0.000515024
0.000528624
0.000541815
0.00055536
0.000569747
0.000585274
0.00060212
0.000620419
0.000640287
0.00066183
0.000685128
0.000710212
0.000737052
0.000765551
0.000795559
0.000826892
0.000859343
0.000892693
0.000926719
0.000961201
0.000995931
0.00103072
0.00106541
0.00109986
0.00113399
0.00116775
0.00120112
0.00123409
0.00126668
0.00129893
0.00133085
0.0013625
0.00139391
0.00142513
0.0014562
0.00148717
0.00151807
0.00154897
0.00157988
0.00161084
0.0016419
0.00167307
0.00170438
0.00173585
0.00176751
0.00179937
0.00183143
0.0018637
0.0018962
0.00192891
0.00196184
0.00199499
0.00202834
0.0020619
0.00209563
0.00212955
0.00216362
0.00219783
0.00223216
0.0022666
0.00230113
0.00233572
0.00237035
0.002405
0.00243965
0.00247428
0.00250885
0.00254336
0.00257777
0.00261206
0.00264621
0.0026802
0.002714
0.0027476
0.00278097
0.00281408
0.00284692
0.00287946
0.00291168
0.00294355
0.00297505
0.00300616
0.00303685
0.0030671
0.00309676
0.00312591
0.00315461
0.00318287
0.0032107
0.00323808
0.003265
0.00329144
0.00331739
0.00334281
0.0033677
0.00339202
0.00341576
0.00343889
0.0034614
0.00348325
0.00350444
0.00352493
0.00354471
0.00356376
0.00358206
0.00359958
0.00361631
0.00363223
0.00364733
0.00366158
0.00367497
0.00368749
0.00369912
0.00370984
0.00371964
0.00372851
0.00373643
0.00374341
0.00374942
0.00375447
0.00375854
0.00376164
0.00376375
0.00376488
0.00376503
0.0037642
0.0037624
0.00375964
0.00375592
0.00375126
0.00374568
0.00373918
0.0037318
0.00372355
0.00371446
0.00370456
0.00369387
0.00368244
0.00367028
0.00365745
0.00364398
0.0036299
0.00361527
0.0036001
0.00358443
0.00356827
0.00355163
0.00353449
0.00351678
0.00349842
0.00347936
0.00345968
0.00343952
0.00341901
0.00339824
0.00337725
0.00335608
0.00333475
0.00331328
0.00329169
0.00326998
0.00324815
0.00322621
0.00320416
0.00318199
0.00315964
0.00313695
0.0031135
0.0030881
0.00305874
1.70314e-05
0.000115873
0.000222195
0.000309253
0.000378134
0.00043205
0.00047401
0.000506649
0.000532299
0.000553023
0.000570615
0.000586574
0.000602092
0.000618049
0.000635055
0.000653506
0.000673642
0.000695606
0.000719472
0.00074527
0.000772979
0.000802532
0.000833813
0.000866662
0.000900887
0.000936278
0.000972611
0.00100967
0.00104722
0.00108509
0.00112307
0.00116102
0.00119879
0.0012363
0.00127347
0.00131026
0.00134666
0.00138266
0.00141828
0.00145355
0.0014885
0.00152316
0.00155758
0.0015918
0.00162586
0.00165981
0.00169369
0.00172754
0.0017614
0.0017953
0.00182928
0.00186337
0.00189759
0.00193196
0.0019665
0.00200123
0.00203616
0.0020713
0.00210665
0.0021422
0.00217797
0.00221394
0.00225012
0.00228647
0.00232301
0.00235971
0.00239655
0.00243353
0.00247062
0.00250779
0.00254504
0.00258233
0.00261965
0.00265696
0.00269426
0.0027315
0.00276867
0.00280575
0.00284271
0.00287951
0.00291616
0.0029526
0.00298884
0.00302483
0.00306057
0.00309602
0.00313117
0.00316599
0.00320046
0.00323457
0.00326828
0.00330159
0.00333446
0.00336682
0.00339863
0.00342997
0.00346085
0.00349128
0.00352127
0.0035508
0.00357984
0.0036084
0.00363643
0.00366393
0.00369087
0.00371722
0.00374297
0.00376808
0.00379255
0.00381633
0.00383942
0.00386179
0.00388342
0.00390428
0.00392435
0.00394361
0.00396204
0.00397963
0.00399634
0.00401217
0.00402709
0.0040411
0.00405416
0.00406626
0.00407738
0.00408752
0.00409665
0.00410477
0.00411187
0.00411793
0.00412295
0.00412691
0.00412981
0.00413165
0.00413244
0.00413216
0.00413083
0.00412843
0.00412499
0.00412052
0.00411502
0.00410852
0.00410102
0.00409256
0.00408316
0.00407284
0.00406163
0.00404957
0.0040367
0.00402305
0.00400867
0.00399359
0.00397786
0.00396152
0.00394459
0.00392712
0.00390911
0.00389057
0.00387149
0.00385183
0.00383161
0.00381087
0.00378973
0.00376827
0.00374658
0.0037247
0.00370268
0.00368057
0.00365838
0.00363614
0.00361388
0.00359162
0.00356938
0.00354718
0.00352506
0.00350299
0.0034809
0.00345849
0.00343491
0.00340892
1.95809e-05
0.000125194
0.000238756
0.000332582
0.000407309
0.000466226
0.00051251
0.000548951
0.000577992
0.00060178
0.000622172
0.000640737
0.000658743
0.000677159
0.000696683
0.000717781
0.000740738
0.000765703
0.000792725
0.000821781
0.000852787
0.000885615
0.000920095
0.000956033
0.000993213
0.00103141
0.00107041
0.00111
0.00114997
0.00119014
0.00123035
0.00127048
0.0013104
0.00135004
0.00138934
0.00142826
0.00146679
0.00150494
0.00154271
0.00158013
0.00161722
0.00165403
0.00169058
0.00172693
0.00176311
0.00179917
0.00183514
0.00187106
0.00190698
0.00194293
0.00197894
0.00201504
0.00205125
0.00208761
0.00212412
0.0021608
0.00219767
0.00223473
0.00227199
0.00230945
0.00234711
0.00238496
0.002423
0.00246123
0.00249962
0.00253816
0.00257684
0.00261565
0.00265456
0.00269355
0.0027326
0.00277169
0.00281079
0.00284989
0.00288895
0.00292795
0.00296687
0.00300568
0.00304436
0.00308287
0.0031212
0.00315932
0.00319722
0.00323485
0.00327222
0.00330928
0.00334603
0.00338244
0.00341849
0.00345417
0.00348945
0.00352431
0.00355873
0.00359262
0.00362603
0.00365898
0.0036915
0.00372358
0.00375522
0.0037864
0.0038171
0.00384731
0.00387699
0.00390614
0.00393472
0.00396272
0.0039901
0.00401685
0.00404293
0.00406834
0.00409303
0.004117
0.00414021
0.00416263
0.00418426
0.00420506
0.004225
0.00424408
0.00426227
0.00427954
0.00429589
0.00431128
0.0043257
0.00433914
0.00435156
0.00436295
0.0043733
0.00438259
0.00439082
0.00439796
0.00440402
0.00440896
0.00441278
0.00441548
0.00441706
0.00441751
0.00441684
0.00441503
0.0044121
0.00440805
0.00440291
0.00439667
0.00438935
0.00438097
0.00437156
0.00436114
0.00434974
0.0043374
0.00432416
0.00431005
0.00429511
0.00427939
0.00426294
0.00424578
0.00422798
0.00420956
0.00419056
0.004171
0.00415089
0.00413026
0.00410913
0.00408756
0.00406564
0.00404343
0.00402102
0.00399847
0.00397584
0.00395317
0.00393051
0.0039079
0.00388538
0.00386299
0.00384077
0.00381879
0.0037971
0.00377573
0.00375465
0.00373371
0.00371227
0.00368948
2.16503e-05
0.00013231
0.000251864
0.000351512
0.00043153
0.000495203
0.000545783
0.000586133
0.00061875
0.000645812
0.000669205
0.000690531
0.0007111
0.000731939
0.000753806
0.000777219
0.0008025
0.00082981
0.00085919
0.000890593
0.000923905
0.000958964
0.000995577
0.00103353
0.0010726
0.00111258
0.00115323
0.00119437
0.00123581
0.00127738
0.00131895
0.0013604
0.00140162
0.00144256
0.00148316
0.0015234
0.00156325
0.00160272
0.00164182
0.00168057
0.001719
0.00175713
0.00179501
0.00183268
0.00187016
0.00190751
0.00194476
0.00198194
0.00201911
0.00205629
0.00209351
0.0021308
0.0021682
0.00220572
0.00224338
0.0022812
0.00231919
0.00235737
0.00239574
0.0024343
0.00247305
0.002512
0.00255113
0.00259044
0.00262992
0.00266955
0.00270932
0.00274922
0.00278922
0.00282931
0.00286947
0.00290967
0.00294989
0.00299011
0.00303029
0.00307042
0.00311048
0.00315042
0.00319023
0.00322988
0.00326935
0.00330861
0.00334763
0.00338641
0.0034249
0.0034631
0.00350098
0.00353852
0.00357571
0.00361252
0.00364894
0.00368495
0.00372051
0.0037556
0.00379027
0.00382452
0.00385836
0.00389178
0.00392478
0.00395733
0.00398942
0.00402102
0.00405212
0.00408268
0.00411269
0.00414212
0.00417094
0.00419913
0.00422667
0.00425352
0.00427967
0.00430508
0.00432975
0.00435362
0.00437669
0.00439892
0.0044203
0.00444079
0.00446039
0.00447906
0.00449678
0.00451354
0.00452932
0.00454408
0.00455781
0.00457049
0.00458209
0.00459261
0.00460203
0.00461033
0.00461751
0.00462353
0.00462839
0.00463208
0.00463459
0.00463593
0.00463609
0.00463505
0.00463281
0.00462939
0.00462479
0.00461903
0.00461212
0.00460406
0.0045949
0.00458464
0.00457332
0.00456097
0.00454762
0.00453332
0.0045181
0.00450202
0.00448511
0.00446743
0.00444902
0.00442993
0.0044102
0.00438988
0.004369
0.0043476
0.00432573
0.00430347
0.00428087
0.00425803
0.00423502
0.00421192
0.00418878
0.00416568
0.00414267
0.00411981
0.00409716
0.00407479
0.00405277
0.00403117
0.00401008
0.00398958
0.0039697
0.00395034
0.00393102
0.00391111
2.31559e-05
0.000137684
0.0002619
0.000366361
0.000451021
0.000519083
0.000573791
0.000618015
0.000654251
0.000684671
0.000711152
0.000735293
0.000758421
0.000781586
0.000805583
0.000830968
0.000858093
0.000887141
0.000918163
0.000951109
0.000985858
0.00102224
0.00106006
0.00109911
0.00113916
0.00118
0.00122143
0.00126326
0.00130532
0.00134747
0.00138958
0.00143154
0.00147328
0.00151472
0.00155583
0.00159657
0.00163694
0.00167694
0.00171657
0.00175585
0.00179481
0.00183348
0.00187189
0.00191007
0.00194807
0.00198592
0.00202367
0.00206134
0.00209898
0.00213661
0.00217428
0.00221202
0.00224984
0.00228778
0.00232586
0.00236409
0.0024025
0.00244108
0.00247986
0.00251884
0.00255801
0.00259738
0.00263695
0.00267671
0.00271666
0.00275677
0.00279704
0.00283746
0.00287801
0.00291866
0.0029594
0.0030002
0.00304105
0.00308192
0.00312277
0.0031636
0.00320436
0.00324504
0.0032856
0.00332602
0.00336626
0.00340631
0.00344614
0.00348573
0.00352505
0.00356408
0.0036028
0.0036412
0.00367925
0.00371694
0.00375425
0.00379116
0.00382768
0.00386382
0.00389958
0.00393496
0.00396997
0.00400459
0.00403881
0.00407261
0.00410597
0.00413886
0.00417126
0.00420314
0.00423448
0.00426525
0.00429543
0.00432498
0.00435389
0.00438213
0.00440967
0.00443649
0.00446255
0.00448784
0.00451231
0.00453595
0.00455873
0.00458063
0.00460162
0.00462168
0.00464079
0.00465893
0.00467609
0.00469221
0.00470729
0.00472129
0.0047342
0.004746
0.00475668
0.00476623
0.00477464
0.00478184
0.00478785
0.00479264
0.00479622
0.00479857
0.00479969
0.00479957
0.0047982
0.00479559
0.00479174
0.00478666
0.00478036
0.00477284
0.00476414
0.00475427
0.00474325
0.00473112
0.0047179
0.00470365
0.00468839
0.00467217
0.00465505
0.00463706
0.00461827
0.00459873
0.00457849
0.00455761
0.00453614
0.00451413
0.00449166
0.0044688
0.00444563
0.00442223
0.00439869
0.00437509
0.00435151
0.00432803
0.00430473
0.00428168
0.00425897
0.00423667
0.00421489
0.00419373
0.00417329
0.00415369
0.004135
0.00411717
0.00409983
0.00408239
2.42234e-05
0.000141401
0.000269062
0.000377388
0.000466017
0.000538015
0.000596561
0.000644484
0.00068424
0.000717961
0.000747488
0.000774392
0.000799983
0.000825316
0.000851198
0.000878209
0.000906728
0.000936963
0.000968985
0.00100276
0.00103818
0.00107509
0.00111329
0.00115259
0.00119278
0.00123366
0.00127503
0.00131674
0.00135861
0.00140053
0.00144237
0.00148404
0.00152547
0.0015666
0.0016074
0.00164784
0.00168791
0.00172761
0.00176695
0.00180594
0.00184462
0.00188301
0.00192113
0.00195904
0.00199676
0.00203433
0.00207179
0.00210918
0.00214654
0.0021839
0.00222129
0.00225875
0.0022963
0.00233398
0.00237181
0.0024098
0.00244798
0.00248635
0.00252494
0.00256375
0.00260279
0.00264205
0.00268153
0.00272125
0.00276118
0.00280131
0.00284165
0.00288216
0.00292285
0.00296369
0.00300465
0.00304572
0.00308688
0.00312809
0.00316934
0.00321059
0.00325182
0.00329299
0.00333407
0.00337504
0.00341587
0.00345653
0.00349699
0.00353722
0.0035772
0.00361691
0.00365633
0.00369544
0.00373422
0.00377265
0.00381073
0.0038485
0.00388595
0.00392309
0.0039599
0.00399639
0.00403254
0.00406834
0.00410376
0.00413879
0.00417339
0.00420755
0.00424123
0.00427442
0.00430708
0.00433918
0.00437071
0.00440162
0.0044319
0.00446152
0.00449045
0.00451866
0.00454614
0.00457284
0.00459873
0.00462378
0.00464798
0.00467129
0.0046937
0.00471518
0.0047357
0.00475526
0.00477383
0.00479137
0.00480783
0.00482322
0.0048375
0.00485066
0.00486268
0.00487355
0.00488324
0.00489172
0.00489897
0.00490499
0.00490977
0.00491328
0.00491552
0.00491647
0.00491614
0.00491451
0.00491159
0.00490738
0.00490188
0.00489511
0.00488708
0.0048778
0.0048673
0.00485561
0.00484274
0.00482875
0.00481367
0.00479754
0.00478042
0.00476235
0.00474339
0.0047236
0.00470304
0.00468179
0.00465989
0.00463743
0.00461448
0.00459113
0.00456747
0.00454358
0.00451957
0.00449553
0.00447155
0.00444773
0.00442416
0.00440094
0.00437818
0.00435596
0.00433442
0.00431368
0.00429387
0.00427512
0.00425754
0.00424111
0.00422549
0.00421016
2.49049e-05
0.00014365
0.000273639
0.000384916
0.000476809
0.000552208
0.000614186
0.000665492
0.000708519
0.000745335
0.000777724
0.000807209
0.000835065
0.000862325
0.000889795
0.000918065
0.000947532
0.000978428
0.00101085
0.0010448
0.00108017
0.00111685
0.00115466
0.00119341
0.00123292
0.001273
0.00131349
0.00135423
0.00139507
0.00143589
0.00147661
0.00151712
0.00155738
0.00159733
0.00163694
0.00167619
0.00171507
0.00175359
0.00179176
0.0018296
0.00186713
0.00190438
0.00194139
0.00197819
0.00201482
0.00205132
0.00208773
0.00212408
0.00216042
0.00219679
0.00223322
0.00226974
0.00230638
0.00234318
0.00238017
0.00241736
0.00245477
0.00249243
0.00253035
0.00256854
0.002607
0.00264575
0.00268478
0.00272409
0.00276368