/*--------------------------------*- C++ -*----------------------------------*\
  =========                 |
  \\      /  F ield         | OpenFOAM: The Open Source CFD Toolbox
   \\    /   O peration     | Website:  https://openfoam.org
    \\  /    A nd           | Version:  9
     \\/     M anipulation  |
\*---------------------------------------------------------------------------*/
FoamFile
{
    format      ascii;
    class       volVectorField;
    location    "0.1";
    object      U;
}
// * * * * * * * * * * * * * * * * * * * * * * * * * * * * * * * * * * * * * //

dimensions      [0 1 -1 0 0 0 0];

internalField   nonuniform List<vector> 
12225
(
(9.86107 -0.874316 0)
(9.67244 -0.700185 0)
(9.45885 -0.387578 0)
(9.22445 -0.188456 0)
(9.00313 -0.0843679 0)
(8.80986 -0.0328424 0)
(8.64435 -0.0075067 0)
(8.50308 0.00508197 0)
(8.38257 0.0114105 0)
(8.27927 0.0145686 0)
(8.18978 0.0160943 0)
(8.11118 0.0168081 0)
(8.04102 0.0171609 0)
(7.97738 0.0174688 0)
(7.917 0.0179316 0)
(7.86095 0.0195439 0)
(7.78526 0.022757 0)
(7.75849 0.0361515 0)
(10.0547 0.263073 0)
(10.1201 0.360753 0)
(10.118 0.273842 0)
(10.0825 0.187123 0)
(10.0404 0.131208 0)
(9.99368 0.0969879 0)
(9.93975 0.0756374 0)
(9.87987 0.0618539 0)
(9.8171 0.0524789 0)
(9.75394 0.0457025 0)
(9.6918 0.0405871 0)
(9.63149 0.0366814 0)
(9.57336 0.0337438 0)
(9.5178 0.0317967 0)
(9.46382 0.0307066 0)
(9.41439 0.032578 0)
(9.361 0.0346609 0)
(9.33814 0.0595562 0)
(9.99919 0.0460925 0)
(10.0244 0.0342282 0)
(10.0538 0.0149823 0)
(10.0707 0.0218618 0)
(10.0777 0.0367425 0)
(10.078 0.0461006 0)
(10.0718 0.050068 0)
(10.0597 0.0512931 0)
(10.0432 0.0512437 0)
(10.0236 0.0505855 0)
(10.0018 0.0496964 0)
(9.9784 0.0488346 0)
(9.9538 0.0481672 0)
(9.92844 0.0479778 0)
(9.90218 0.0483725 0)
(9.87621 0.0509922 0)
(9.84943 0.0549002 0)
(9.82948 0.0694977 0)
(9.99679 0.00643524 0)
(10.0085 0.0250419 0)
(10.0342 0.0389792 0)
(10.0527 0.050364 0)
(10.0642 0.0571946 0)
(10.0728 0.0592809 0)
(10.0786 0.0590059 0)
(10.0811 0.0581321 0)
(10.0808 0.0571848 0)
(10.0785 0.056245 0)
(10.0746 0.0553739 0)
(10.0691 0.054673 0)
(10.0625 0.0542538 0)
(10.0548 0.0543605 0)
(10.0462 0.055176 0)
(10.0374 0.0577954 0)
(10.0288 0.0618691 0)
(10.0234 0.0706294 0)
(9.99922 0.00674733 0)
(10.0081 0.0336053 0)
(10.0271 0.0460986 0)
(10.0417 0.0509266 0)
(10.0522 0.0540266 0)
(10.0619 0.0556524 0)
(10.0704 0.0560445 0)
(10.0769 0.0559173 0)
(10.0815 0.0556212 0)
(10.0848 0.055254 0)
(10.0869 0.0548995 0)
(10.0879 0.0546782 0)
(10.0881 0.0547228 0)
(10.0875 0.0552531 0)
(10.0864 0.0564705 0)
(10.0852 0.0590024 0)
(10.0848 0.0626646 0)
(10.0867 0.0681507 0)
(10.0002 0.00908691 0)
(10.0078 0.0321646 0)
(10.0225 0.0419802 0)
(10.0349 0.0457665 0)
(10.0446 0.049264 0)
(10.0539 0.0518454 0)
(10.0626 0.0530392 0)
(10.0699 0.0534593 0)
(10.076 0.0535858 0)
(10.081 0.0535901 0)
(10.0852 0.0535738 0)
(10.0886 0.0536608 0)
(10.0914 0.0539842 0)
(10.0937 0.0547252 0)
(10.0957 0.0560489 0)
(10.0979 0.058274 0)
(10.1008 0.0612319 0)
(10.1055 0.0647856 0)
(10.0003 0.00881641 0)
(10.0068 0.0275666 0)
(10.0189 0.0371661 0)
(10.0302 0.0418625 0)
(10.0393 0.0458278 0)
(10.048 0.0487056 0)
(10.0562 0.0501801 0)
(10.0635 0.0508528 0)
(10.0699 0.0512149 0)
(10.0755 0.0514459 0)
(10.0804 0.0516427 0)
(10.0848 0.05192 0)
(10.0888 0.0523993 0)
(10.0923 0.0532196 0)
(10.0958 0.0544929 0)
(10.0995 0.0563494 0)
(10.1039 0.058606 0)
(10.1095 0.060895 0)
(10.0004 0.00785654 0)
(10.0057 0.0237527 0)
(10.016 0.0334676 0)
(10.0263 0.0387307 0)
(10.0349 0.0426776 0)
(10.043 0.0455324 0)
(10.0508 0.04716 0)
(10.0579 0.0480299 0)
(10.0643 0.0485723 0)
(10.07 0.048968 0)
(10.0752 0.0493137 0)
(10.08 0.0497144 0)
(10.0845 0.0502748 0)
(10.0887 0.0510948 0)
(10.0929 0.0522365 0)
(10.0973 0.0537209 0)
(10.1023 0.0553589 0)
(10.1082 0.0567794 0)
(10.0004 0.00697373 0)
(10.0049 0.0207752 0)
(10.0136 0.0301495 0)
(10.0229 0.035567 0)
(10.031 0.0394106 0)
(10.0387 0.0422401 0)
(10.0461 0.0440128 0)
(10.0529 0.0450583 0)
(10.0592 0.0457466 0)
(10.0649 0.0462656 0)
(10.0702 0.0467159 0)
(10.0751 0.0471912 0)
(10.0798 0.0477776 0)
(10.0844 0.0485425 0)
(10.089 0.0495093 0)
(10.0938 0.050643 0)
(10.0989 0.0517669 0)
(10.1047 0.0525848 0)
(10.0004 0.00619019 0)
(10.0042 0.0181994 0)
(10.0115 0.0269282 0)
(10.0198 0.0323273 0)
(10.0275 0.0361023 0)
(10.0347 0.0389089 0)
(10.0417 0.0407835 0)
(10.0484 0.0419637 0)
(10.0545 0.0427642 0)
(10.0601 0.0433741 0)
(10.0654 0.0438948 0)
(10.0705 0.0444075 0)
(10.0753 0.0449807 0)
(10.08 0.0456567 0)
(10.0848 0.0464342 0)
(10.0897 0.0472557 0)
(10.0948 0.0479707 0)
(10.1003 0.0483692 0)
(10.0003 0.00545661 0)
(10.0036 0.0158864 0)
(10.0098 0.0238582 0)
(10.0172 0.0291208 0)
(10.0244 0.0328113 0)
(10.0312 0.0355589 0)
(10.0378 0.0374754 0)
(10.0442 0.038745 0)
(10.0501 0.0396272 0)
(10.0557 0.0403004 0)
(10.061 0.0408631 0)
(10.066 0.0413851 0)
(10.0709 0.041919 0)
(10.0757 0.04249 0)
(10.0805 0.0430838 0)
(10.0854 0.0436405 0)
(10.0905 0.0440417 0)
(10.0957 0.0441508 0)
(10.0003 0.00480709 0)
(10.0031 0.01395 0)
(10.0085 0.0211985 0)
(10.0151 0.0262339 0)
(10.0218 0.0298032 0)
(10.0283 0.0324624 0)
(10.0346 0.0343715 0)
(10.0407 0.0356843 0)
(10.0465 0.0366131 0)
(10.052 0.0373199 0)
(10.0572 0.0378978 0)
(10.0622 0.0384074 0)
(10.0671 0.0388895 0)
(10.0719 0.0393592 0)
(10.0767 0.0397983 0)
(10.0816 0.0401544 0)
(10.0865 0.0403378 0)
(10.0914 0.0402657 0)
(10.0003 0.00420342 0)
(10.0027 0.0121911 0)
(10.0074 0.0186979 0)
(10.0134 0.0234154 0)
(10.0195 0.0268202 0)
(10.0257 0.0293664 0)
(10.0317 0.0312329 0)
(10.0375 0.0325554 0)
(10.0432 0.033506 0)
(10.0486 0.0342261 0)
(10.0537 0.0348018 0)
(10.0587 0.0352858 0)
(10.0636 0.0357101 0)
(10.0684 0.0360838 0)
(10.0731 0.0363895 0)
(10.0778 0.0365854 0)
(10.0826 0.0366063 0)
(10.0873 0.0364088 0)
(10.0003 0.00357445 0)
(10.0024 0.0103615 0)
(10.0064 0.0160199 0)
(10.0117 0.0202883 0)
(10.0173 0.0234408 0)
(10.023 0.0258151 0)
(10.0287 0.0275867 0)
(10.0343 0.0288756 0)
(10.0398 0.029816 0)
(10.045 0.0305242 0)
(10.0501 0.0310758 0)
(10.055 0.0315158 0)
(10.0599 0.0318691 0)
(10.0646 0.0321415 0)
(10.0692 0.0323196 0)
(10.0738 0.0323747 0)
(10.0783 0.0322644 0)
(10.0828 0.0319755 0)
(10.0002 0.00291843 0)
(10.002 0.00845964 0)
(10.0055 0.0131736 0)
(10.0101 0.0168577 0)
(10.0152 0.0196478 0)
(10.0205 0.0217718 0)
(10.0259 0.0233806 0)
(10.0312 0.0245767 0)
(10.0364 0.0254604 0)
(10.0415 0.0261208 0)
(10.0465 0.0266201 0)
(10.0513 0.0269952 0)
(10.056 0.0272656 0)
(10.0606 0.0274363 0)
(10.0652 0.0274999 0)
(10.0696 0.0274405 0)
(10.0739 0.0272345 0)
(10.0781 0.0268894 0)
(10.0002 0.00223533 0)
(10.0017 0.00648522 0)
(10.0047 0.0101623 0)
(10.0087 0.0131224 0)
(10.0134 0.0154207 0)
(10.0182 0.0171943 0)
(10.0233 0.0185553 0)
(10.0283 0.0195833 0)
(10.0333 0.0203489 0)
(10.0382 0.0209148 0)
(10.043 0.0213274 0)
(10.0477 0.021615 0)
(10.0523 0.0217928 0)
(10.0568 0.0218664 0)
(10.0611 0.0218338 0)
(10.0654 0.0216894 0)
(10.0695 0.0214231 0)
(10.0735 0.0210538 0)
(10.0002 0.00152152 0)
(10.0015 0.0044201 0)
(10.0041 0.00696125 0)
(10.0077 0.00905516 0)
(10.0118 0.0107184 0)
(10.0164 0.0120222 0)
(10.021 0.0130343 0)
(10.0258 0.0138062 0)
(10.0306 0.0143817 0)
(10.0353 0.0147988 0)
(10.04 0.0150867 0)
(10.0445 0.0152645 0)
(10.0489 0.0153428 0)
(10.0532 0.0153268 0)
(10.0574 0.0152181 0)
(10.0615 0.0150172 0)
(10.0654 0.0147214 0)
(10.0691 0.0143541 0)
(10.0001 0.00075862 0)
(10.0013 0.00220622 0)
(10.0037 0.0034874 0)
(10.0069 0.00456298 0)
(10.0108 0.00543694 0)
(10.015 0.00613505 0)
(10.0195 0.00668296 0)
(10.024 0.0071011 0)
(10.0286 0.00740709 0)
(10.0332 0.00761624 0)
(10.0376 0.00774009 0)
(10.042 0.00778617 0)
(10.0463 0.00775891 0)
(10.0505 0.00766095 0)
(10.0545 0.00749399 0)
(10.0583 0.00726031 0)
(10.0621 0.00695995 0)
(10.0656 0.00661491 0)
(10.0001 -0.000100994 0)
(10.0013 -0.000291326 0)
(10.0035 -0.000453032 0)
(10.0067 -0.000571888 0)
(10.0105 -0.000644134 0)
(10.0146 -0.000682836 0)
(10.0189 -0.000706841 0)
(10.0234 -0.000729965 0)
(10.0279 -0.000761189 0)
(10.0323 -0.000808332 0)
(10.0367 -0.000878804 0)
(10.0409 -0.000978716 0)
(10.0451 -0.00111255 0)
(10.0491 -0.00128334 0)
(10.053 -0.00149287 0)
(10.0567 -0.00174116 0)
(10.0602 -0.00202918 0)
(10.0637 -0.00234025 0)
(10.0002 -0.0009293 0)
(10.0014 -0.00270485 0)
(10.0038 -0.00426752 0)
(10.0072 -0.00553396 0)
(10.0111 -0.00649698 0)
(10.0154 -0.00721757 0)
(10.0199 -0.00776249 0)
(10.0244 -0.00817708 0)
(10.029 -0.00849617 0)
(10.0334 -0.00875231 0)
(10.0378 -0.00897274 0)
(10.042 -0.00917688 0)
(10.0461 -0.00937807 0)
(10.0501 -0.00958584 0)
(10.0539 -0.00980684 0)
(10.0575 -0.0100448 0)
(10.061 -0.0103031 0)
(10.0643 -0.0105708 0)
(10.0002 -0.00164776 0)
(10.0015 -0.00482184 0)
(10.0042 -0.00761335 0)
(10.008 -0.00981793 0)
(10.0124 -0.0114504 0)
(10.017 -0.0126669 0)
(10.0217 -0.0135853 0)
(10.0264 -0.0142649 0)
(10.0311 -0.0147603 0)
(10.0356 -0.0151308 0)
(10.04 -0.0154241 0)
(10.0443 -0.015671 0)
(10.0484 -0.0158917 0)
(10.0524 -0.0161008 0)
(10.0562 -0.0163087 0)
(10.0598 -0.0165215 0)
(10.0632 -0.0167442 0)
(10.0665 -0.0169692 0)
(10.0002 -0.00233422 0)
(10.0017 -0.0069241 0)
(10.0049 -0.010972 0)
(10.0093 -0.014019 0)
(10.0142 -0.0161588 0)
(10.0191 -0.0177284 0)
(10.0241 -0.0189082 0)
(10.0291 -0.0197626 0)
(10.034 -0.020364 0)
(10.0387 -0.0207952 0)
(10.0432 -0.0211182 0)
(10.0475 -0.0213716 0)
(10.0517 -0.0215822 0)
(10.0556 -0.0217695 0)
(10.0594 -0.0219473 0)
(10.063 -0.0221236 0)
(10.0664 -0.022304 0)
(10.0697 -0.0224836 0)
(10.0002 -0.0029741 0)
(10.0019 -0.00904584 0)
(10.0056 -0.0143751 0)
(10.0109 -0.0181759 0)
(10.0165 -0.0207508 0)
(10.0219 -0.0225996 0)
(10.0272 -0.0239169 0)
(10.0325 -0.0248086 0)
(10.0375 -0.0254126 0)
(10.0424 -0.0258406 0)
(10.047 -0.0261531 0)
(10.0514 -0.0263856 0)
(10.0556 -0.026567 0)
(10.0595 -0.0267204 0)
(10.0633 -0.0268611 0)
(10.0669 -0.0269977 0)
(10.0703 -0.0271357 0)
(10.0735 -0.027272 0)
(10.0001 -0.00355409 0)
(10.0019 -0.0114884 0)
(10.0065 -0.0178479 0)
(10.0128 -0.0219399 0)
(10.019 -0.0248871 0)
(10.0249 -0.0271504 0)
(10.0307 -0.0286545 0)
(10.0362 -0.0295289 0)
(10.0415 -0.0300506 0)
(10.0465 -0.030398 0)
(10.0512 -0.0306373 0)
(10.0556 -0.0308009 0)
(10.0598 -0.0309185 0)
(10.0638 -0.0310139 0)
(10.0676 -0.031101 0)
(10.0712 -0.0311869 0)
(10.0745 -0.0312755 0)
(10.0777 -0.0313625 0)
(9.99997 -0.00367772 0)
(10.0018 -0.0151428 0)
(10.0077 -0.0225879 0)
(10.0149 -0.0258913 0)
(10.0215 -0.0284267 0)
(10.0279 -0.0308602 0)
(10.0342 -0.0326091 0)
(10.0403 -0.0336183 0)
(10.0458 -0.0341889 0)
(10.051 -0.0345301 0)
(10.0558 -0.0347255 0)
(10.0603 -0.0348241 0)
(10.0645 -0.0348683 0)
(10.0684 -0.034888 0)
(10.0721 -0.0348997 0)
(10.0755 -0.034912 0)
(10.0786 -0.0349286 0)
(10.0816 -0.0349471 0)
(9.99898 -0.00130024 0)
(10 -0.0179463 0)
(10.0085 -0.0290218 0)
(10.0175 -0.0326254 0)
(10.0245 -0.0340275 0)
(10.0313 -0.0352313 0)
(10.0384 -0.0361552 0)
(10.0451 -0.0367742 0)
(10.0511 -0.037201 0)
(10.0564 -0.037476 0)
(10.0611 -0.037614 0)
(10.0653 -0.0376512 0)
(10.0691 -0.0376289 0)
(10.0725 -0.037577 0)
(10.0755 -0.0375136 0)
(10.0782 -0.0374503 0)
(10.0805 -0.0373906 0)
(10.0826 -0.0373339 0)
(9.99528 0.00387524 0)
(9.99335 -0.0102935 0)
(10.0071 -0.0270726 0)
(10.0213 -0.0388801 0)
(10.0312 -0.0448014 0)
(10.0393 -0.0463904 0)
(10.0468 -0.0458891 0)
(10.0532 -0.044914 0)
(10.0584 -0.0440206 0)
(10.0625 -0.0432298 0)
(10.0657 -0.0424986 0)
(10.068 -0.0418242 0)
(10.0697 -0.0412129 0)
(10.0707 -0.0406647 0)
(10.0713 -0.0401773 0)
(10.0713 -0.0397497 0)
(10.0711 -0.0393725 0)
(10.0705 -0.0390188 0)
(9.99144 -0.0172893 0)
(9.9919 0.000378459 0)
(10.01 0.0176873 0)
(10.0296 0.0116204 0)
(10.0442 -0.00506343 0)
(10.0542 -0.0187675 0)
(10.0602 -0.0271029 0)
(10.0625 -0.0319691 0)
(10.062 -0.0348395 0)
(10.0594 -0.0364337 0)
(10.0554 -0.0371996 0)
(10.0501 -0.0374621 0)
(10.0438 -0.0374345 0)
(10.0368 -0.0372462 0)
(10.0294 -0.0369812 0)
(10.0216 -0.0367005 0)
(10.0136 -0.0364598 0)
(10.0055 -0.0362277 0)
(10.0235 -0.206005 0)
(10.0684 -0.31233 0)
(10.0789 -0.255576 0)
(10.0704 -0.184154 0)
(10.0606 -0.134871 0)
(10.05 -0.102689 0)
(10.0343 -0.0811213 0)
(10.0131 -0.0665679 0)
(9.98807 -0.0565694 0)
(9.96091 -0.049407 0)
(9.93277 -0.0440434 0)
(9.90435 -0.0398888 0)
(9.87615 -0.0365852 0)
(9.8485 -0.0338999 0)
(9.82162 -0.0316848 0)
(9.79565 -0.0298765 0)
(9.77082 -0.0284448 0)
(9.74716 -0.027706 0)
(9.94226 0.671596 0)
(9.87998 0.56746 0)
(9.7745 0.338476 0)
(9.63248 0.183333 0)
(9.48781 0.0949218 0)
(9.35677 0.0471018 0)
(9.2413 0.0213209 0)
(9.13989 0.00710347 0)
(9.05106 -0.00095191 0)
(8.97318 -0.00558927 0)
(8.90454 -0.00827476 0)
(8.84358 -0.0098335 0)
(8.78908 -0.0107357 0)
(8.74003 -0.0112503 0)
(8.69562 -0.011538 0)
(8.65512 -0.0117235 0)
(8.61771 -0.0119007 0)
(8.58299 -0.0124307 0)
(0.00436406 -0.00550298 -3.54967e-20)
(0.0181931 -0.0174992 3.41312e-20)
(0.0348447 -0.0225675 0)
(0.0510437 -0.0222536 0)
(0.06395 -0.0181516 0)
(0.0723244 -0.0117318 -3.03439e-20)
(0.0756526 -0.00410986 0)
(0.0735374 0.00374924 0)
(0.0663567 0.0109749 0)
(0.0547271 0.0169736 0)
(0.0393961 0.0214443 2.80071e-20)
(0.0211778 0.0243559 0)
(0.000841805 0.025912 0)
(-0.0209692 0.0265201 0)
(-0.0438613 0.0266449 0)
(-0.0676848 0.0266805 2.50913e-20)
(-0.0924339 0.0269122 0)
(-0.118203 0.0274974 0)
(-0.145217 0.0284821 0)
(-0.173875 0.0305372 0)
(-0.203587 0.0357133 0)
(-0.235435 0.0363957 0)
(-0.270585 0.0320637 0)
(-0.305085 0.0360633 2.21849e-20)
(-0.341312 0.0405595 -2.1888e-20)
(-0.38121 0.0438567 2.16066e-20)
(-0.421821 0.0570738 2.20173e-20)
(-0.465623 0.0595624 0)
(-0.513623 0.0567799 0)
(-0.559554 0.0660942 -2.35411e-20)
(-0.607247 0.0689374 -2.31595e-20)
(-0.655341 0.0529759 0)
(-0.701091 0.0409795 0)
(-0.743806 0.0429125 -2.21868e-20)
(-0.788174 0.042708 0)
(-0.832076 0.0420125 0)
(-0.875417 0.0410392 2.13163e-20)
(-0.918022 0.0399381 0)
(-0.959837 0.0388028 2.08054e-20)
(-1.00086 0.0376899 4.11365e-20)
(-1.04112 0.0366323 0)
(-1.08067 0.035648 0)
(-1.11958 0.0347453 0)
(-1.15791 0.0339259 0)
(-1.19573 0.0331874 0)
(-1.2331 0.0325245 3.86668e-20)
(-1.27008 0.0319306 3.83016e-20)
(-1.30672 0.0313977 3.79461e-20)
(-1.34308 0.030918 0)
(-1.37918 0.0304832 -3.726e-20)
(-1.41507 0.0300854 0)
(-1.45077 0.0297171 3.66013e-20)
(-1.48629 0.0293712 3.62805e-20)
(-1.52165 0.0290413 0)
(-1.55685 0.0287213 0)
(-1.5919 0.028406 0)
(-1.62678 0.0280906 3.50398e-20)
(-1.6615 0.0277709 0)
(-1.69603 0.0274431 0)
(-1.73036 0.0271042 0)
(-1.76447 0.0267513 0)
(-1.79832 0.0263823 0)
(-1.83191 0.0259952 0)
(-1.86519 0.0255886 0)
(-1.89813 0.0251613 0)
(-1.9307 0.0247124 -3.23639e-20)
(-1.96288 0.0242413 0)
(-1.99461 0.0237477 0)
(-2.02587 0.0232314 3.14648e-20)
(-2.05661 0.0226924 3.11604e-20)
(-2.08681 0.0221309 0)
(-2.11641 0.0215472 -3.05422e-20)
(-2.14539 0.0209418 3.02275e-20)
(-2.17371 0.020315 0)
(-2.20132 0.0196676 -2.95845e-20)
(-2.22819 0.0189999 0)
(-2.25427 0.0183127 0)
(-2.27954 0.0176065 2.85799e-20)
(-2.30396 0.0168818 0)
(-2.32748 0.016139 -2.78784e-20)
(-2.35006 0.0153785 0)
(-2.37168 0.0146001 2.71477e-20)
(-2.3923 0.0138037 2.67704e-20)
(-2.41187 0.0129886 2.63847e-20)
(-2.43036 0.0121536 5.19802e-20)
(-2.44772 0.0112969 -5.11726e-20)
(-2.46393 0.010416 0)
(-2.47893 0.00950733 0)
(-2.49269 0.00856704 0)
(-2.50515 0.0075908 -4.77464e-20)
(-2.51625 0.00657409 -4.68381e-20)
(-2.52594 0.00551252 4.59083e-20)
(-2.53414 0.00440682 0)
(-2.54078 0.00327216 -4.39834e-20)
(-2.54576 0.0021403 -4.29884e-20)
(-2.54895 0.00104396 -4.19692e-20)
(-2.55033 3.9401e-05 0)
(-2.55041 -0.000819579 0)
(-2.54904 -0.00164385 0)
(-2.54626 -0.00245394 -3.76111e-20)
(-2.54206 -0.00325864 0)
(-2.53643 -0.00405976 0)
(-2.52936 -0.00485744 3.4062e-20)
(-2.52082 -0.00565105 0)
(-2.51082 -0.00643974 0)
(-2.49934 -0.00722256 3.02674e-20)
(-2.48638 -0.00799852 0)
(-2.47193 -0.00876663 0)
(-2.45598 -0.00952592 -2.62282e-20)
(-2.43853 -0.0102754 -2.48283e-20)
(-2.4196 -0.0110142 0)
(-2.39917 -0.0117413 2.19504e-20)
(-2.37726 -0.0124558 0)
(-2.35387 -0.0131569 -1.89712e-20)
(-2.32902 -0.0138437 0)
(-2.3027 -0.0145155 -1.58952e-20)
(-2.27495 -0.0151714 -1.43225e-20)
(-2.24577 -0.0158108 0)
(-2.21518 -0.016433 0)
(-2.1832 -0.0170375 0)
(-2.14985 -0.0176238 0)
(-2.11516 -0.0181913 0)
(-2.07915 -0.0187396 0)
(-2.04184 -0.0192685 0)
(-2.00327 -0.0197776 -1.02153e-21)
(-1.96346 -0.0202668 -7.16219e-22)
(-1.92244 -0.020736 0)
(-1.88025 -0.0211854 0)
(-1.83691 -0.021615 0)
(-1.79246 -0.022025 0)
(-1.74692 -0.0224158 -1.91536e-20)
(-1.70034 -0.0227879 0)
(-1.65273 -0.0231417 2.63578e-20)
(-1.60414 -0.023478 -2.99753e-20)
(-1.5546 -0.0237975 0)
(-1.50413 -0.0241011 0)
(-1.45276 -0.0243898 0)
(-1.40053 -0.0246646 4.44946e-20)
(-1.34745 -0.0249266 4.81265e-20)
(-1.29354 -0.025177 0)
(-1.23884 -0.0254171 5.53796e-20)
(-1.18335 -0.0256482 5.89977e-20)
(-1.1271 -0.0258715 -6.26082e-20)
(-1.0701 -0.0260883 0)
(-1.01235 -0.0263 0)
(-0.953876 -0.0265075 -7.33829e-20)
(-0.894671 -0.0267122 0)
(-0.834743 -0.0269149 0)
(-0.774092 -0.0271163 0)
(-0.712716 -0.0273172 0)
(-0.650613 -0.0275179 9.11058e-20)
(-0.58778 -0.0277183 9.46114e-20)
(-0.524211 -0.0279184 0)
(-0.459904 -0.0281172 1.01582e-19)
(-0.394855 -0.0283136 0)
(-0.329064 -0.028505 0)
(-0.262533 -0.0286869 1.11936e-19)
(-0.195268 -0.0288482 0)
(-0.127279 -0.0289735 1.1877e-19)
(-0.0586023 -0.0290313 0)
(0.0107012 -0.0289591 0)
(0.0807023 -0.0288062 1.26323e-19)
(0.151389 -0.0286461 0)
(0.222759 -0.0284832 1.28634e-19)
(0.294797 -0.0283073 0)
(0.367464 -0.0281102 0)
(0.440706 -0.0278852 0)
(0.514447 -0.0276262 -1.32266e-19)
(0.588589 -0.0273268 0)
(0.663011 -0.0269792 1.33604e-19)
(0.737559 -0.0265738 0)
(0.81204 -0.0260973 0)
(0.886205 -0.0255296 0)
(0.959706 -0.0248387 0)
(1.03209 -0.0239625 0)
(1.10241 -0.0227922 0)
(1.16992 -0.0209818 0)
(1.22871 -0.0178772 -2.73268e-19)
(1.28414 -0.0101328 0)
(1.27427 0.0105979 0)
(0.00999139 -0.0397288 1.05189e-19)
(0.0266029 -0.0538468 -9.81436e-20)
(0.0374373 -0.049618 0)
(0.0439872 -0.0394392 5.68776e-20)
(0.0464299 -0.0264615 0)
(0.0450022 -0.0122261 2.62483e-20)
(0.0400886 0.00225228 -5.1055e-20)
(0.0321048 0.0161641 -4.9858e-20)
(0.0210739 0.0288381 0)
(0.00702169 0.0397922 -4.81446e-20)
(-0.00997039 0.0487785 -2.36257e-20)
(-0.0297905 0.0558031 0)
(-0.0523104 0.0611104 0)
(-0.0773793 0.0651373 0)
(-0.10488 0.0684058 0)
(-0.134755 0.0713903 -2.10821e-20)
(-0.167008 0.0744441 0)
(-0.201717 0.0777564 4.06516e-20)
(-0.239029 0.0813593 0)
(-0.278878 0.0853404 0)
(-0.320706 0.0901704 -3.95036e-20)
(-0.365444 0.0954397 0)
(-0.412822 0.0994834 3.89939e-20)
(-0.4616 0.102962 -1.92522e-20)
(-0.512084 0.1065 1.89974e-20)
(-0.563271 0.109258 -1.87553e-20)
(-0.613522 0.112005 -1.85402e-20)
(-0.664141 0.114728 0)
(-0.713189 0.115067 0)
(-0.760738 0.115144 1.80202e-20)
(-0.806454 0.114934 -1.76743e-20)
(-0.85234 0.113515 0)
(-0.897775 0.11127 0)
(-0.94194 0.109291 1.70338e-20)
(-0.983896 0.106884 0)
(-1.02421 0.104152 0)
(-1.06329 0.101308 -1.63809e-20)
(-1.10136 0.0984782 0)
(-1.13858 0.0957447 1.59279e-20)
(-1.17506 0.0931577 -3.16597e-20)
(-1.21091 0.0907441 0)
(-1.24619 0.0885145 0)
(-1.28099 0.0864686 -6.12422e-20)
(-1.31536 0.0845984 -6.06499e-20)
(-1.34935 0.0828911 -6.00775e-20)
(-1.383 0.081331 2.96781e-20)
(-1.41635 0.0799009 -2.95761e-20)
(-1.44943 0.078583 -8.77734e-20)
(-1.48225 0.0773598 5.79467e-20)
(-1.51482 0.0762142 2.8808e-20)
(-1.54717 0.0751303 0)
(-1.57928 0.074093 -2.83207e-20)
(-1.61117 0.0730888 2.79119e-20)
(-1.64282 0.0721052 0)
(-1.67423 0.071131 0)
(-1.70539 0.0701563 0)
(-1.73627 0.0691723 -2.71578e-20)
(-1.76688 0.0681716 0)
(-1.79717 0.0671475 5.3247e-20)
(-1.82715 0.0660946 0)
(-1.85677 0.0650082 5.23527e-20)
(-1.88602 0.0638846 0)
(-1.91487 0.0627207 -5.14596e-20)
(-1.94329 0.0615143 0)
(-1.97125 0.0602638 5.05622e-20)
(-1.99874 0.0589679 -2.49817e-20)
(-2.02571 0.0576261 0)
(-2.05214 0.0562381 -4.91961e-20)
(-2.078 0.0548042 -2.44344e-20)
(-2.10325 0.0533248 -2.41982e-20)
(-2.12787 0.0518009 0)
(-2.15184 0.0502333 -2.35929e-20)
(-2.1751 0.0486233 -2.34703e-20)
(-2.19765 0.0469723 0)
(-2.21944 0.0452818 2.29658e-20)
(-2.24045 0.0435532 -4.53092e-20)
(-2.26064 0.0417883 0)
(-2.27999 0.0399887 -2.21736e-20)
(-2.29847 0.0381558 0)
(-2.31605 0.0362913 6.47728e-20)
(-2.3327 0.0343965 0)
(-2.34839 0.0324727 -6.30455e-20)
(-2.36309 0.0305209 -2.07386e-20)
(-2.37678 0.0285419 2.03751e-20)
(-2.38942 0.0265365 4.01357e-20)
(-2.401 0.0245046 -3.95067e-20)
(-2.41147 0.0224462 0)
(-2.42082 0.0203604 0)
(-2.42903 0.0182459 0)
(-2.43607 0.0161012 1.10561e-19)
(-2.44193 0.0139241 3.61382e-20)
(-2.44661 0.0117116 -3.53968e-20)
(-2.45011 0.00945969 0)
(-2.45246 0.00717442 -3.38973e-20)
(-2.45376 0.00489349 3.30677e-20)
(-2.45407 0.00268214 3.22468e-20)
(-2.45341 0.000544574 0)
(-2.45142 -0.0014982 0)
(-2.44811 -0.00350507 0)
(-2.44343 -0.00549043 2.87713e-20)
(-2.43735 -0.00746194 0)
(-2.42985 -0.00942037 -5.39977e-20)
(-2.42092 -0.0113645 -7.8073e-20)
(-2.41055 -0.0132921 5.01778e-20)
(-2.39873 -0.0152008 0)
(-2.38543 -0.0170878 2.32157e-20)
(-2.37067 -0.0189507 0)
(-2.35443 -0.0207867 4.20891e-20)
(-2.33671 -0.0225934 -2.01244e-20)
(-2.31752 -0.0243683 -1.90579e-20)
(-2.29684 -0.0261092 0)
(-2.27469 -0.0278136 -4.99782e-20)
(-2.25107 -0.0294793 3.1175e-20)
(-2.22598 -0.0311042 1.42708e-20)
(-2.19945 -0.0326863 0)
(-2.17147 -0.0342237 1.19276e-20)
(-2.14207 -0.0357146 3.25964e-20)
(-2.11126 -0.0371573 0)
(-2.07906 -0.0385505 1.70354e-20)
(-2.04549 -0.0398928 1.45841e-20)
(-2.01056 -0.0411831 1.21092e-20)
(-1.97431 -0.0424204 0)
(-1.93675 -0.0436038 0)
(-1.89792 -0.0447327 0)
(-1.85784 -0.0458066 -1.24712e-21)
(-1.81655 -0.0468253 5.31086e-22)
(-1.77406 -0.0477887 0)
(-1.73042 -0.0486972 5.74231e-21)
(-1.68565 -0.0495513 8.34848e-21)
(-1.63979 -0.0503518 0)
(-1.59286 -0.0510995 1.41256e-20)
(-1.54491 -0.0517956 3.2429e-20)
(-1.49596 -0.0524416 -1.93991e-20)
(-1.44605 -0.0530392 -2.09238e-20)
(-1.39521 -0.0535903 0)
(-1.34346 -0.0540973 0)
(-1.29084 -0.0545624 0)
(-1.23737 -0.0549883 -3.25935e-20)
(-1.18308 -0.0553777 3.40629e-20)
(-1.128 -0.0557334 7.45262e-20)
(-1.07213 -0.0560587 -4.04629e-20)
(-1.01552 -0.0563566 4.18928e-20)
(-0.958156 -0.0566303 4.56704e-20)
(-0.900069 -0.0568829 0)
(-0.841265 -0.0571175 0)
(-0.781751 -0.0573372 -5.22105e-20)
(-0.721534 -0.0575447 0)
(-0.660614 -0.0577426 0)
(-0.598991 -0.0579331 1.2087e-19)
(-0.536663 -0.0581182 0)
(-0.473624 -0.0582993 6.485e-20)
(-0.409869 -0.0584769 -6.85538e-20)
(-0.345389 -0.0586518 0)
(-0.280176 -0.0588226 7.22781e-20)
(-0.214224 -0.058988 0)
(-0.147526 -0.0591439 0)
(-0.0800744 -0.0592852 -8.08088e-20)
(-0.0118686 -0.0594076 1.64809e-19)
(0.057098 -0.0595072 -8.47056e-20)
(0.126833 -0.05959 0)
(0.197355 -0.059636 0)
(0.268675 -0.059637 8.75781e-20)
(0.340779 -0.0596179 0)
(0.413653 -0.0595837 9.01171e-20)
(0.487275 -0.0595214 0)
(0.56161 -0.0594163 0)
(0.636603 -0.0592543 0)
(0.712184 -0.0590212 9.56143e-20)
(0.788261 -0.0587013 0)
(0.864717 -0.0582757 -9.74494e-20)
(0.941404 -0.0577209 0)
(1.01813 -0.0570043 0)
(1.09466 -0.056078 1.98621e-19)
(1.17064 -0.0548657 -2.00009e-19)
(1.24564 -0.0532262 0)
(1.31885 -0.0509054 0)
(1.38946 -0.047208 0)
(1.45403 -0.0409199 6.16823e-19)
(1.5147 -0.026866 0)
(1.55092 0.00449116 -4.20736e-19)
(0.00904342 -0.0769703 -2.74245e-23)
(0.0189056 -0.0787545 1.26688e-19)
(0.0215197 -0.0606321 0)
(0.0204746 -0.0400641 -1.05985e-19)
(0.0160857 -0.0191108 0)
(0.00873224 0.00161119 0)
(-0.00119549 0.0216749 6.86413e-25)
(-0.0134781 0.0407195 4.4489e-20)
(-0.028058 0.0583955 4.325e-20)
(-0.0449713 0.0743764 4.2218e-20)
(-0.0643157 0.0884518 0)
(-0.0862208 0.100599 0)
(-0.110809 0.111021 -3.96238e-20)
(-0.138161 0.12011 -7.76724e-20)
(-0.168304 0.128361 7.61627e-20)
(-0.201209 0.136259 0)
(-0.236792 0.144181 7.34071e-20)
(-0.274919 0.152325 -3.61128e-20)
(-0.315403 0.1607 0)
(-0.357918 0.169175 6.9997e-20)
(-0.401915 0.177496 3.45255e-20)
(-0.447021 0.185038 -6.80757e-20)
(-0.49291 0.191091 -3.35339e-20)
(-0.539198 0.19593 0)
(-0.585321 0.199612 6.48657e-20)
(-0.630669 0.201902 6.37887e-20)
(-0.674676 0.202881 0)
(-0.717188 0.202072 6.17364e-20)
(-0.758349 0.199502 0)
(-0.798053 0.195989 5.9742e-20)
(-0.836188 0.191229 2.93897e-20)
(-0.873522 0.185186 0)
(-0.910463 0.178888 0)
(-0.946721 0.173105 0)
(-0.981983 0.167672 0)
(-1.01639 0.162538 0)
(-1.05009 0.1577 0)
(-1.08319 0.153166 5.31162e-20)
(-1.11577 0.148944 -7.87249e-20)
(-1.14791 0.145037 0)
(-1.17965 0.141438 0)
(-1.21106 0.138131 0)
(-1.24216 0.135099 8.89576e-23)
(-1.273 0.132316 4.96954e-20)
(-1.30358 0.129757 9.82894e-20)
(-1.33394 0.127396 -9.73133e-20)
(-1.3641 0.125204 -4.81322e-20)
(-1.39405 0.123155 4.77741e-20)
(-1.42382 0.121224 -1.05579e-22)
(-1.45341 0.119388 4.67795e-20)
(-1.48281 0.117623 0)
(-1.51203 0.11591 4.59243e-20)
(-1.54107 0.11423 -1.09652e-22)
(-1.5699 0.112567 0)
(-1.59853 0.110906 0)
(-1.62694 0.109233 -4.42884e-20)
(-1.65512 0.107539 0)
(-1.68305 0.105812 0)
(-1.71071 0.104045 4.29931e-20)
(-1.73808 0.10223 8.54192e-20)
(-1.76513 0.100362 -4.24249e-20)
(-1.79186 0.0984365 0)
(-1.81823 0.0964497 4.16414e-20)
(-1.84422 0.0943989 0)
(-1.86979 0.0922824 4.06553e-20)
(-1.89494 0.090099 4.04585e-20)
(-1.91962 0.0878483 -7.99295e-20)
(-1.94381 0.0855304 -3.94728e-20)
(-1.96748 0.0831459 0)
(-1.9906 0.080696 7.75154e-20)
(-2.01315 0.0781819 0)
(-2.03509 0.0756054 1.1388e-19)
(-2.05639 0.0729684 7.50251e-20)
(-2.07704 0.0702732 7.41735e-20)
(-2.09698 0.0675219 -7.33096e-20)
(-2.11621 0.0647171 1.08717e-19)
(-2.13468 0.0618612 0)
(-2.15238 0.0589566 0)
(-2.16926 0.0560059 -6.97118e-20)
(-2.1853 0.0530115 -1.03211e-19)
(-2.20048 0.0499756 0)
(-2.21477 0.0469005 3.34634e-20)
(-2.22813 0.0437884 0)
(-2.24055 0.0406411 -9.72782e-20)
(-2.25199 0.0374605 -5.87403e-23)
(-2.26243 0.0342486 4.87814e-23)
(-2.27185 0.0310073 6.16559e-20)
(-2.28022 0.0277386 0)
(-2.28753 0.0244453 -5.94272e-20)
(-2.29376 0.021131 -6.95798e-24)
(-2.29889 0.0178011 0)
(-2.30292 0.0144634 0)
(-2.30584 0.011129 0)
(-2.30765 0.00781161 5.33929e-20)
(-2.30831 0.00452968 0)
(-2.30782 0.00130588 0)
(-2.30614 -0.00188503 0)
(-2.30315 -0.00507779 0)
(-2.29885 -0.00826304 0)
(-2.29322 -0.0114362 4.52747e-20)
(-2.28623 -0.0145934 0)
(-2.27786 -0.0177305 4.22062e-20)
(-2.2681 -0.0208434 4.06868e-20)
(-2.25693 -0.0239276 -3.91409e-20)
(-2.24435 -0.0269789 0)
(-2.23034 -0.0299928 -3.59704e-20)
(-2.21491 -0.0329651 0)
(-2.19803 -0.0358916 -3.26975e-20)
(-2.17971 -0.0387682 3.10238e-20)
(-2.15996 -0.041591 8.84408e-20)
(-2.13876 -0.0443562 0)
(-2.11613 -0.0470601 7.80913e-20)
(-2.09207 -0.0496992 2.46253e-20)
(-2.06658 -0.05227 0)
(-2.03968 -0.0547694 4.15749e-20)
(-2.01137 -0.0571942 3.79422e-20)
(-1.98168 -0.0595417 -5.11014e-20)
(-1.95061 -0.0618093 0)
(-1.91819 -0.0639947 -1.30878e-20)
(-1.88443 -0.0660959 -1.11936e-20)
(-1.84935 -0.0681111 -2.85429e-20)
(-1.81299 -0.0700388 0)
(-1.77535 -0.0718778 0)
(-1.73647 -0.0736269 0)
(-1.69638 -0.0752857 -2.28307e-21)
(-1.6551 -0.0768537 0)
(-1.61267 -0.0783311 0)
(-1.56911 -0.0797184 -4.37473e-21)
(-1.52445 -0.0810165 -6.35472e-21)
(-1.47874 -0.0822267 0)
(-1.43199 -0.0833508 0)
(-1.38425 -0.0843905 -2.46228e-20)
(-1.33554 -0.0853484 0)
(-1.2859 -0.0862272 3.25703e-20)
(-1.23535 -0.0870303 3.568e-20)
(-1.18394 -0.0877613 0)
(-1.13168 -0.0884242 0)
(-1.0786 -0.0890231 -4.75238e-20)
(-1.02474 -0.0895625 -8.84239e-22)
(-0.970104 -0.0900474 -8.89257e-22)
(-0.914727 -0.0904826 0)
(-0.858624 -0.0908733 -1.27214e-19)
(-0.801811 -0.0912247 0)
(-0.744301 -0.0915418 0)
(-0.686106 -0.0918299 0)
(-0.627231 -0.0920938 7.94418e-20)
(-0.567683 -0.0923382 0)
(-0.507463 -0.0925674 -1.72195e-19)
(-0.446569 -0.092785 -9.07689e-20)
(-0.384997 -0.0929944 0)
(-0.322742 -0.0931981 -9.82099e-20)
(-0.259794 -0.0933975 0)
(-0.196145 -0.0935935 0)
(-0.131784 -0.0937849 -3.2573e-19)
(-0.066698 -0.0939701 2.23759e-19)
(-0.000876965 -0.0941472 0)
(0.0656941 -0.0943125 2.35935e-19)
(0.133028 -0.094463 -1.21376e-19)
(0.201142 -0.094599 0)
(0.270057 -0.0947259 0)
(0.339814 -0.0948489 0)
(0.410418 -0.0949611 -3.90647e-19)
(0.481848 -0.0950542 0)
(0.554081 -0.095117 -1.35249e-19)
(0.627089 -0.0951316 0)
(0.700835 -0.095078 0)
(0.775267 -0.0949355 0)
(0.850319 -0.0946816 0)
(0.925905 -0.0942911 0)
(1.00191 -0.0937338 0)
(1.0782 -0.0929713 -2.95182e-19)
(1.15459 -0.0919517 0)
(1.23085 -0.090599 -1.51437e-19)
(1.30665 -0.0887943 4.57112e-19)
(1.3816 -0.0863297 0)
(1.45501 -0.0828299 0)
(1.52622 -0.0774617 -3.12556e-19)
(1.59301 -0.0686763 -3.16829e-19)
(1.65771 -0.052166 3.19417e-19)
(1.70906 -0.0194301 3.25869e-19)
(0.0035684 -0.0962548 -2.04851e-19)
(0.00470515 -0.0815302 -1.84731e-19)
(-9.74027e-05 -0.0545645 -1.0957e-19)
(-0.00718315 -0.0276404 -4.98786e-20)
(-0.01657 -0.00147443 0)
(-0.0280481 0.0237962 8.76019e-20)
(-0.0414735 0.0480536 -4.18215e-20)
(-0.0568029 0.0711413 0)
(-0.0740658 0.0928645 -3.91868e-20)
(-0.0933524 0.11303 0)
(-0.114796 0.131509 7.4822e-20)
(-0.138545 0.148293 0)
(-0.164728 0.163518 3.59564e-20)
(-0.193416 0.177451 7.05346e-20)
(-0.22459 0.190422 -6.91871e-20)
(-0.25813 0.202737 0)
(-0.293809 0.214593 -6.65943e-20)
(-0.331303 0.226019 0)
(-0.37021 0.236866 0)
(-0.410071 0.246851 -6.29821e-20)
(-0.450385 0.255601 0)
(-0.490701 0.26268 -2.63442e-23)
(-0.530709 0.267798 0)
(-0.570156 0.270984 0)
(-0.60876 0.272291 4.02547e-23)
(-0.646305 0.271793 -5.6255e-20)
(-0.682665 0.269667 -5.52487e-20)
(-0.717841 0.265996 -5.41691e-20)
(-0.75196 0.26101 0)
(-0.785128 0.255111 -1.04534e-19)
(-0.817459 0.248422 0)
(-0.849195 0.241136 -5.05122e-20)
(-0.880537 0.233718 0)
(-0.911491 0.226548 0)
(-0.942027 0.219725 4.81463e-20)
(-0.972165 0.213291 0)
(-1.00194 0.207266 -4.67767e-20)
(-1.03139 0.201653 -6.57497e-24)
(-1.06054 0.196448 9.11121e-20)
(-1.08943 0.191638 -8.9964e-20)
(-1.11809 0.187203 0)
(-1.14653 0.183118 0)
(-1.17478 0.179354 -4.33959e-20)
(-1.20286 0.175879 0)
(-1.23077 0.17266 -4.25317e-20)
(-1.25852 0.169666 4.20906e-20)
(-1.28613 0.166863 4.16626e-20)
(-1.3136 0.164219 0)
(-1.34093 0.161706 -4.08403e-20)
(-1.36812 0.159294 -4.04434e-20)
(-1.39517 0.156959 8.00063e-20)
(-1.42207 0.154675 -3.96726e-20)
(-1.44882 0.152421 -3.92968e-20)
(-1.47541 0.150178 0)
(-1.50182 0.147928 0)
(-1.52804 0.145655 3.81983e-20)
(-1.55406 0.143347 0)