/*--------------------------------*- C++ -*----------------------------------*\
  =========                 |
  \\      /  F ield         | OpenFOAM: The Open Source CFD Toolbox
   \\    /   O peration     | Website:  https://openfoam.org
    \\  /    A nd           | Version:  9
     \\/     M anipulation  |
\*---------------------------------------------------------------------------*/
FoamFile
{
    format      ascii;
    class       surfaceScalarField;
    location    "0.4";
    object      alphaPhi0.water;
}
// * * * * * * * * * * * * * * * * * * * * * * * * * * * * * * * * * * * * * //

dimensions      [0 3 -1 0 0 0 0];

internalField   nonuniform List<scalar> 
3731
(
-1.11456e-05
-4.51044e-06
-1.11452e-05
-6.79404e-06
-3.10767e-06
-1.79388e-05
2.07047e-07
6.72642e-07
-1.77288e-05
4.77488e-06
6.55735e-06
-1.29604e-05
8.10639e-06
1.37406e-05
-4.85179e-06
1.05238e-05
2.20584e-05
5.66984e-06
1.29161e-05
3.13401e-05
1.85836e-05
1.60621e-05
4.13264e-05
3.46435e-05
2.11164e-05
5.13042e-05
5.57579e-05
2.90433e-05
6.00659e-05
8.48e-05
4.02083e-29
-5.0211e-29
-2.46087e-30
4.12814e-29
-1.38249e-29
6.5001e-29
-1.15627e-30
7.51365e-30
-6.60008e-32
2.62721e-31
-3.42835e-33
7.79716e-33
-1.14641e-34
1.99289e-34
-1.96188e-34
4.54302e-36
-2.99034e-34
-3.87351e-36
-1.51859e-33
-1.18085e-34
-6.6252e-33
-8.85916e-34
-1.93217e-32
-1.45382e-32
-2.6093e-32
-7.85279e-32
-1.58535e-32
-1.64438e-31
-5.59425e-33
-8.24474e-32
-1.24591e-33
-2.97336e-32
-1.40705e-34
-7.26659e-33
8.499e-37
-1.13112e-33
3.17931e-36
-1.19037e-34
4.98592e-37
-8.85344e-36
7.14903e-38
-5.27665e-37
7.95002e-39
-4.71512e-38
6.31137e-40
-5.35957e-39
2.95546e-41
-3.10365e-40
8.64313e-43
-8.4839e-42
1.79055e-44
-1.21642e-43
2.01207e-46
-5.73201e-46
4.77801e-48
1.9192e-48
1.71767e-49
9.48416e-50
5.03769e-51
4.97448e-51
1.37269e-52
2.08617e-52
3.26176e-54
7.29027e-54
6.51523e-56
2.14928e-55
1.04251e-57
5.30425e-57
1.24925e-59
1.04573e-58
1.01141e-61
1.56188e-60
4.64598e-64
1.60021e-62
9.73082e-67
9.35174e-65
1.46968e-67
2.09253e-67
1.41676e-70
-1.05066e-28
-7.6125e-28
-4.90115e-28
1.78639e-27
-2.32221e-28
1.31097e-27
-3.58677e-29
2.52786e-28
-4.40075e-30
2.12836e-29
-4.01887e-31
1.48188e-30
-2.31655e-32
6.81345e-32
-1.58257e-32
1.92476e-33
-5.55528e-32
-1.52081e-33
-3.50186e-31
-4.08734e-32
-1.04812e-30
-2.52736e-31
-1.76943e-30
-7.4387e-31
-1.68589e-30
-1.26014e-30
-1.19911e-30
-1.44793e-30
-5.40014e-31
-1.08415e-30
-1.49679e-31
-5.61134e-31
-2.34068e-32
-1.97152e-31
-1.33849e-33
-4.68747e-32
1.80243e-34
-7.34739e-33
4.53779e-35
-7.67539e-34
7.84154e-36
-6.35438e-35
9.01097e-37
-5.42234e-36
8.01315e-38
-7.08537e-37
4.18727e-39
-5.06685e-38
1.3258e-40
-1.59242e-39
2.9406e-42
-2.70039e-41
3.99464e-44
-2.1245e-43
5.64012e-46
4.40189e-46
2.54986e-47
3.74016e-47
6.42434e-49
2.17085e-48
1.81753e-50
9.58135e-50
4.57388e-52
3.54135e-51
9.83139e-54
1.11168e-52
1.73426e-55
2.92985e-54
2.37562e-57
6.30928e-56
2.3285e-59
1.06065e-57
1.43355e-61
1.28721e-59
4.3837e-64
9.81815e-62
4.67727e-67
3.55882e-64
3.17851e-67
-1.08293e-26
1.10483e-26
-1.36964e-26
5.03919e-26
-6.09189e-27
3.10432e-26
-1.17627e-27
7.42887e-27
-2.06062e-28
8.52285e-28
-2.79946e-29
8.79772e-29
-2.70174e-30
6.07633e-30
-1.96662e-30
2.50369e-31
-6.35266e-30
-3.2543e-31
-3.34604e-29
-5.86843e-30
-8.83793e-29
-3.09303e-29
-1.40408e-28
-8.12035e-29
-1.20407e-28
-1.29016e-28
-8.40264e-29
-1.37967e-28
-3.71293e-29
-9.93582e-29
-1.04909e-29
-5.02959e-29
-1.77371e-30
-1.76307e-29
-1.38906e-31
-4.26854e-30
5.40395e-33
-6.99158e-31
2.695e-33
-7.72972e-32
4.63699e-34
-6.7299e-33
5.66691e-35
-5.21607e-34
5.4253e-36
-5.59346e-35
3.15958e-37
-4.29352e-36
1.10207e-38
-1.52334e-37
2.65614e-40
-2.97225e-39
4.28531e-42
-3.06592e-41
3.73007e-44
1.03921e-44
1.49304e-45
3.68027e-45
4.22776e-47
1.95319e-46
1.20805e-48
8.83376e-48
3.10244e-50
3.329e-49
6.91809e-52
1.07069e-50
1.29134e-53
2.91856e-52
1.92356e-55
6.59998e-54
2.23677e-57
1.19208e-55
1.85532e-59
1.61662e-57
8.3509e-62
1.47787e-59
1.72094e-64
7.34832e-62
1.17485e-64
-1.94421e-25
5.04903e-25
-2.37557e-25
8.71682e-25
-1.16334e-25
5.50659e-25
-2.83483e-26
1.53507e-25
-7.03741e-27
2.34399e-26
-1.36368e-27
3.51492e-27
-2.07382e-28
3.44869e-28
-1.67077e-28
1.82156e-29
-4.93202e-28
-4.41658e-29
-2.15308e-27
-5.2639e-28
-4.91542e-27
-2.35048e-27
-7.00215e-27
-5.46784e-27
-5.92602e-27
-8.15033e-27
-3.85773e-27
-8.11711e-27
-1.66995e-27
-5.64099e-27
-4.74698e-28
-2.80045e-27
-8.37049e-29
-9.8032e-28
-7.48411e-30
-2.41718e-28
7.70794e-32
-4.12575e-29
1.1985e-31
-4.87149e-30
2.04233e-32
-4.45195e-31
2.58705e-33
-3.22854e-32
2.61413e-34
-3.04708e-33
1.67646e-35
-2.46375e-34
6.47182e-37
-9.76728e-36
1.69899e-38
-2.16338e-37
3.07757e-40
-2.68012e-39
2.31577e-42
-4.37374e-42
7.14395e-44
2.77667e-43
2.2255e-45
1.23906e-44
6.35707e-47
5.75456e-46
1.66005e-48
2.2068e-47
3.816e-50
7.24806e-49
7.45985e-52
2.03513e-50
1.31772e-53
4.798e-52
1.80256e-55
9.2211e-54
1.73871e-57
1.3655e-55
9.89706e-60
1.42621e-57
3.08275e-62
8.84255e-60
2.08941e-62
-2.11842e-24
7.55737e-24
-3.17857e-24
1.12593e-23
-1.83127e-24
8.08465e-24
-5.50043e-25
2.56859e-24
-1.80213e-25
4.95201e-25
-4.7267e-26
9.93215e-26
-1.12926e-26
1.31354e-26
-1.05046e-26
7.47827e-28
-2.87556e-26
-3.57814e-27
-1.04326e-25
-3.40249e-26
-2.05455e-25
-1.28569e-25
-2.59871e-25
-2.6451e-25
-2.15187e-25
-3.68098e-25
-1.32199e-25
-3.43493e-25
-5.58889e-26
-2.30542e-25
-1.58552e-26
-1.12445e-25
-2.85937e-27
-3.93584e-26
-2.7168e-28
-9.88996e-27
8.4692e-31
-1.75687e-27
4.49676e-30
-2.22405e-28
7.46134e-31
-2.13272e-29
9.58578e-32
-1.48772e-30
1.00873e-32
-1.28971e-31
7.03171e-34
-1.08485e-32
3.00495e-35
-4.75469e-34
8.65286e-37
-1.18861e-35
1.7297e-38
-1.71219e-37
1.41701e-40
-6.39762e-40
3.15592e-42
1.40374e-41
1.0747e-43
6.57122e-43
3.00573e-45
3.1492e-44
7.9876e-47
1.23301e-45
1.88742e-48
4.14112e-47
4.3284e-50
1.1962e-48
8.14283e-52
2.9415e-50
1.20549e-53
5.94943e-52
1.29858e-55
9.44838e-54
8.72881e-58
1.09055e-55
3.55329e-60
7.89644e-58
2.49635e-60
-2.06439e-23
7.69616e-23
-3.37636e-23
1.15019e-22
-2.1881e-23
9.29487e-23
-7.50328e-24
3.07274e-23
-3.08961e-24
6.99764e-24
-1.03981e-24
1.77615e-24
-3.61282e-25
2.95712e-25
-3.8921e-25
8.68259e-27
-1.29547e-24
-2.09429e-25
-4.01162e-24
-1.68292e-24
-6.85693e-24
-5.43077e-24
-7.65944e-24
-9.92993e-24
-6.16549e-24
-1.28003e-23
-3.59636e-24
-1.12737e-23
-1.48183e-24
-7.31908e-24
-4.17045e-25
-3.51459e-24
-7.57814e-26
-1.23218e-24
-7.27316e-27
-3.15934e-25
8.9971e-29
-5.84197e-26
1.50998e-28
-7.93375e-27
2.38407e-29
-7.984e-28
3.05708e-30
-5.48158e-29
3.31446e-31
-4.50944e-30
2.4783e-32
-3.90893e-31
1.16778e-33
-1.87244e-32
3.70744e-35
-5.25453e-34
8.17448e-37
-8.6689e-36
8.36671e-39
-4.78061e-38
1.35888e-40
6.0927e-40
4.70209e-42
3.12838e-41
1.34375e-43
1.55548e-42
3.64756e-45
6.25342e-44
9.56765e-47
2.15561e-45
2.32397e-48
6.43817e-47
4.60815e-50
1.6439e-48
7.27968e-52
3.4815e-50
8.52242e-54
5.86119e-52
6.43594e-56
7.30505e-54
3.07318e-58
5.90521e-56
2.23059e-58
-1.51403e-22
5.42065e-22
-2.40311e-22
8.07678e-22
-1.61429e-22
6.72265e-22
-6.69123e-23
2.1912e-22
-3.1226e-23
6.12398e-23
-1.10981e-23
1.73837e-23
-6.90702e-24
3.24899e-24
-1.04104e-23
-1.92173e-25
-4.7545e-23
-1.04153e-23
-1.25337e-22
-6.55908e-23
-1.90373e-22
-1.82931e-22
-1.85772e-22
-3.03061e-22
-1.44658e-22
-3.5707e-22
-8.04493e-23
-2.9969e-22
-3.22639e-23
-1.88738e-22
-8.96074e-24
-8.94795e-23
-1.61659e-24
-3.1493e-23
-1.48078e-25
-8.25443e-24
6.68827e-27
-1.59085e-24
4.60437e-27
-2.31332e-25
6.97898e-28
-2.44379e-26
8.72959e-29
-1.72423e-27
9.59018e-30
-1.38252e-28
7.59434e-31
-1.19594e-29
3.91863e-32
-6.18765e-31
1.37434e-33
-1.93591e-32
3.34684e-35
-3.62442e-34
4.06177e-37
-2.57203e-36
5.56517e-39
2.40239e-38
1.9706e-40
1.3781e-39
5.78983e-42
7.15058e-41
1.61274e-43
2.96963e-42
4.69427e-45
1.05597e-43
1.19038e-46
3.27169e-45
2.47397e-48
8.67842e-47
4.13161e-50
1.91984e-48
5.16452e-52
3.40172e-50
4.23018e-54
4.50912e-52
2.1854e-56
3.93647e-54
1.64185e-56
-1.0204e-21
3.10229e-21
-1.49913e-21
4.79276e-21
-9.55853e-22
3.94979e-21
-3.94539e-22
1.17417e-21
-1.91591e-22
3.49153e-22
-9.10741e-23
1.10394e-22
-9.73632e-23
2.79364e-23
-3.43792e-22
-1.73138e-23
-1.45866e-21
-4.2553e-22
-3.21338e-21
-2.12096e-21
-4.40277e-21
-5.06153e-21
-3.86758e-21
-7.67988e-21
-2.83894e-21
-8.2468e-21
-1.51032e-21
-6.61347e-21
-5.89103e-22
-4.05662e-21
-1.60585e-22
-1.90676e-21
-2.82468e-23
-6.76424e-22
-2.24334e-24
-1.81853e-22
2.95131e-25
-3.66366e-23
1.26323e-25
-5.68707e-24
1.86285e-26
-6.31304e-25
2.26598e-27
-4.69874e-26
2.48903e-28
-3.76821e-27
2.06268e-29
-3.17831e-28
1.15479e-30
-1.75518e-29
4.46531e-32
-6.06336e-31
1.20127e-33
-1.2764e-32
1.67355e-35
-1.08911e-34
2.17701e-37
8.85937e-37
7.96114e-39
5.69779e-38
2.41598e-40
3.09914e-39
7.29949e-42
1.33719e-40
2.2205e-43
4.94423e-42
5.88066e-45
1.59172e-43
1.28064e-46
4.39635e-45
2.24969e-48
1.01565e-46
2.97388e-50
1.88715e-48
2.59682e-52
2.63722e-50
1.40217e-54
2.44377e-52
1.09596e-54
-5.9286e-21
1.33375e-20
-7.26354e-21
2.07991e-20
-3.80661e-21
1.57598e-20
-2.23532e-21
5.04641e-21
-1.88998e-21
2.49772e-21
-1.89358e-21
1.36455e-21
-3.3011e-21
6.0443e-22
-1.14747e-20
-1.78312e-21
-3.84087e-20
-1.55429e-20
-6.95514e-20
-6.37395e-20
-8.22377e-20
-1.2417e-19
-6.98343e-20
-1.70799e-19
-4.71598e-20
-1.62347e-19
-2.40219e-20
-1.23198e-19
-9.10313e-21
-7.30617e-20
-2.41928e-21
-3.40272e-20
-4.0382e-22
-1.22011e-20
-2.15008e-23
-3.37786e-21
9.35701e-24
-7.15965e-22
3.07562e-24
-1.18014e-22
4.44122e-25
-1.37965e-23
5.32693e-26
-1.08631e-24
5.84829e-27
-8.94477e-26
5.02538e-28
-7.4675e-27
3.02181e-29
-4.35093e-28
1.28133e-30
-1.64034e-29
3.80026e-32
-3.84097e-31
5.95636e-34
-3.77172e-33
8.0968e-36
3.09765e-35
3.08103e-37
2.21549e-36
9.71113e-39
1.26698e-37
3.17972e-40
5.70959e-39
1.01126e-41
2.20649e-40
2.80224e-43
7.41309e-42
6.39777e-45
2.13852e-43
1.18025e-46
5.16624e-45
1.6426e-48
1.00565e-46
1.51597e-50
1.47561e-48
8.46178e-53
1.43955e-50
6.8387e-53
-2.28361e-20
8.0434e-20
-3.27989e-20
7.98392e-20
-3.86167e-20
7.59167e-20
-6.72565e-20
8.00948e-20
-1.13671e-19
1.09795e-19
-1.6458e-19
9.91509e-20
-2.27858e-19
4.07814e-20
-3.49221e-19
-1.36734e-19
-8.5888e-19
-4.06293e-19
-1.28861e-18
-1.40934e-18
-1.28871e-18
-2.47948e-18
-1.05118e-18
-3.39424e-18
-6.65351e-19
-2.81905e-18
-3.24319e-19
-2.03335e-18
-1.18933e-19
-1.14446e-18
-3.04343e-20
-5.16601e-19
-4.57563e-21
-1.84537e-19
2.1384e-23
-5.22506e-20
2.3172e-22
-1.17222e-20
6.53292e-23
-2.02379e-21
9.38066e-24
-2.48196e-22
1.15977e-24
-2.05791e-23
1.29145e-25
-1.77896e-24
1.13116e-26
-1.53656e-25
7.14892e-28
-9.3699e-27
3.28096e-29
-3.79019e-28
1.06517e-30
-9.70399e-30
1.84343e-32
-1.04743e-31
2.84e-34
1.02905e-33
1.13185e-35
8.07671e-35
3.72608e-37
4.86393e-36
1.31975e-38
2.29974e-37
4.40629e-40
9.33364e-39
1.28029e-41
3.28704e-40
3.07e-43
9.93867e-42
5.95077e-45
2.51674e-43
8.70925e-47
5.13728e-45
8.46522e-49
7.90822e-47
4.87621e-51
8.09723e-49
4.05964e-51
4.59922e-05
6.1147e-05
7.73878e-05
5.34044e-05
5.85888e-05
5.77171e-05
6.77077e-05
6.82689e-05
6.47383e-05
5.36765e-05
5.95317e-05
7.29143e-05
6.85908e-05
4.96029e-05
5.32982e-05
7.48243e-05
7.11463e-05
4.56344e-05
4.83519e-05
7.60926e-05
7.26645e-05
4.18518e-05
4.41403e-05
7.68761e-05
7.34103e-05
3.82585e-05
4.03518e-05
7.71988e-05
7.36008e-05
3.48345e-05
3.68313e-05
7.71213e-05
7.34209e-05
3.15661e-05
3.35053e-05
7.6747e-05
7.30696e-05
3.03462e-05
7.62287e-05
2.73649e-05
7.57711e-05
2.4532e-05
7.56217e-05
2.0021e-05
7.54772e-05
5.61484e-06
6.82541e-05
3.5513e-07
9.20621e-06
2.52215e-08
4.21107e-07
1.78366e-09
2.95276e-08
1.21218e-10
2.05436e-09
7.28361e-12
1.37386e-10
2.58301e-13
8.56313e-12
1.09613e-14
5.82466e-13
2.55059e-15
6.2617e-14
1.87019e-15
3.4689e-14
8.65529e-16
3.95892e-14
-1.58046e-16
2.01329e-14
-4.13792e-16
1.03869e-14
-7.60342e-16
8.19843e-15
-1.37743e-15
9.22411e-15
-2.67704e-15
1.20187e-14
-4.97617e-15
1.68699e-14
-8.46082e-15
2.26899e-14
-1.03555e-14
2.64226e-14
2.45995e-14
9.45061e-07
5.14321e-05
2.78514e-17
9.45061e-07
2.16469e-17
-1.74553e-17
-2.06188e-18
-3.54246e-19
6.05032e-05
5.91987e-05
1.42559e-05
4.30543e-05
2.07927e-06
1.11021e-05
2.07375e-06
5.58513e-09
7.60897e-05
5.60249e-05
6.80523e-05
5.1079e-05
3.49306e-05
4.29311e-05
2.46145e-05
8.62767e-06
7.98225e-05
5.10269e-05
8.13148e-05
4.95864e-05
7.7409e-05
4.67868e-05
4.19108e-05
5.84751e-05
8.05395e-05
4.65801e-05
8.38592e-05
4.62666e-05
8.53554e-05
4.52796e-05
4.34987e-05
8.37208e-05
8.07255e-05
4.27307e-05
8.40973e-05
4.28949e-05
8.67792e-05
4.25961e-05
4.19372e-05
8.83312e-05
8.06742e-05
3.92553e-05
8.38574e-05
3.97117e-05
8.66726e-05
3.97807e-05
3.96026e-05
8.90056e-05
8.03609e-05
3.60156e-05
8.33917e-05
3.66809e-05
8.61668e-05
3.70055e-05
3.71102e-05
8.8659e-05
7.98228e-05
3.29397e-05
8.27437e-05
3.376e-05
8.54699e-05
3.42793e-05
3.45906e-05
8.79894e-05
7.91694e-05
2.9999e-05
8.19963e-05
3.09332e-05
8.46729e-05
3.16027e-05
3.20769e-05
8.71867e-05
7.8568e-05
2.72021e-05
8.12877e-05
2.82135e-05
8.38955e-05
2.89949e-05
2.95969e-05
8.63755e-05
7.82385e-05
2.45829e-05
8.08061e-05
2.5646e-05
8.32999e-05
2.65011e-05
2.71956e-05
8.57012e-05
7.82759e-05
2.17887e-05
8.07498e-05
2.31776e-05
8.30785e-05
2.41757e-05
2.49362e-05
8.53373e-05
7.57893e-05
1.44017e-05
8.0658e-05
1.84344e-05
8.31671e-05
2.16631e-05
2.26909e-05
8.54152e-05
3.05818e-05
7.40649e-07
7.05854e-05
3.12016e-06
7.96863e-05
1.34198e-05
1.74226e-05
8.49826e-05
1.27037e-06
5.52598e-08
6.79162e-06
2.96052e-07
2.46841e-05
6.2707e-07
1.80119e-06
6.51086e-05
8.46634e-08
4.36053e-09
3.70057e-07
2.21837e-08
1.0676e-06
4.89798e-08
2.28886e-07
5.01871e-06
6.27914e-09
3.4224e-10
2.76469e-08
1.70434e-09
7.55865e-08
4.07413e-09
1.78534e-08
2.98424e-07
4.64876e-10
2.52687e-11
2.10443e-09
1.297e-10
6.05723e-09
3.50381e-10
1.4707e-09
2.34811e-08
3.27327e-11
1.6436e-12
1.57266e-10
9.39603e-12
4.92233e-10
2.93758e-11
1.25271e-10
1.92003e-09
2.15634e-12
9.51186e-14
1.11165e-11
6.13038e-13
3.91704e-11
2.28864e-12
1.0315e-11
1.59033e-10
1.54186e-13
6.69556e-15
7.40858e-13
3.5372e-14
2.9073e-12
1.54965e-13
7.96433e-13
1.27468e-11
4.08581e-14
3.05711e-15
7.75513e-14
3.89219e-15
2.2803e-13
7.96578e-15
5.1687e-14
9.81407e-13
4.38187e-14
2.27049e-15
4.70698e-14
3.23868e-15
5.0116e-14
4.05589e-15
4.02958e-15
9.58029e-14
2.66604e-14
3.57108e-16
3.49018e-14
1.36162e-15
3.84234e-14
3.02464e-15
3.45447e-15
3.59077e-14
1.35214e-14
-1.35646e-16
1.84665e-14
3.22023e-16
2.51809e-14
1.09963e-15
2.31643e-15
2.80878e-14
1.07613e-14
-5.3689e-16
1.35057e-14
-1.22039e-16
1.67707e-14
5.08818e-16
1.4651e-15
2.12555e-14
1.19375e-14
-1.152e-15
1.4272e-14
-6.46141e-16
2.17718e-14
3.3911e-17
2.13806e-15
6.5059e-14
1.61845e-14
-2.49539e-15
2.11222e-14
-2.85858e-15
2.53363e-14
-1.31247e-15
8.15005e-16
3.6559e-14
3.04387e-14
-6.47916e-15
7.72215e-14
-1.90006e-14
9.15723e-14
-1.41156e-14
-8.7254e-16
1.04199e-13
6.29813e-14
-1.27805e-14
1.78394e-13
-1.7751e-14
2.13709e-13
-1.70368e-14
-6.59569e-15
2.18832e-13
7.30573e-14
-1.72906e-14
1.30034e-13
-3.5615e-15
2.07595e-13
-8.59057e-15
-1.16631e-14
2.84734e-13
9.69039e-14
2.82862e-13
4.24241e-13
5.44027e-13
-4.58366e-19
1.02448e-18
-4.85546e-19
4.02017e-19
-9.98656e-19
9.15213e-19
-2.25698e-18
1.75586e-18
-4.37307e-18
2.57197e-18
-5.86677e-18
2.70681e-18
-6.56002e-18
1.09164e-18
-6.89469e-18
-7.78136e-18
-1.39563e-17
-5.22915e-18
-1.77978e-17
-1.28147e-17
-1.64558e-17
-2.41544e-17
-1.28353e-17
-2.9589e-17
-8.05815e-18
-3.15416e-17
-3.86081e-18
-2.6818e-17
-1.37837e-18
-1.81738e-17
-3.32525e-19
-7.82679e-18
-3.9494e-20
-2.7732e-18
6.81547e-21
-7.87598e-19
4.93777e-21
-1.85727e-19
1.26752e-21
-3.36478e-20
1.83744e-22
-4.36711e-21
2.27526e-23
-3.84951e-22
2.58051e-24
-3.43072e-23
2.32118e-25
-2.99124e-24
1.53656e-26
-1.88803e-25
7.55708e-28
-8.07407e-27
2.66661e-29
-2.2245e-28
5.03156e-31
-2.57237e-30
9.49786e-33
3.25275e-32
3.99201e-34
2.76937e-33
1.38073e-35
1.7585e-34
5.24355e-37
8.76427e-36
1.84534e-38
3.75326e-37
5.64769e-40
1.39264e-38
1.427e-41
4.43431e-40
2.91353e-43
1.18184e-41
4.49098e-45
2.53806e-43
4.59814e-47
4.10845e-45
2.74925e-49
4.42045e-47
2.33673e-49
-8.23861e-20
5.59215e-09
-8.04775e-20
7.63045e-20
-1.08142e-19
1.06698e-18
-2.43643e-19
1.84647e-18
-1.81368e-18
5.46349e-18
-2.12046e-17
5.33147e-17
-4.17279e-17
2.44463e-16
-6.49175e-17
-4.95912e-18
-2.06966e-16
-1.31154e-17
-2.06232e-16
-1.0086e-16
-1.61812e-16
-1.54673e-16
-1.15891e-16
-1.09577e-16
-6.91578e-17
-1.69988e-16
-3.40217e-17
-1.83698e-16
-1.24965e-17
-1.29675e-16
-2.83263e-18
-7.9768e-17
-1.4785e-19
-3.80647e-17
1.84167e-19
-1.09732e-17
8.85941e-20
-2.60515e-18
2.175e-20
-4.85535e-19
3.23176e-21
-6.65906e-20
4.13148e-22
-6.25518e-21
4.86043e-23
-5.87037e-22
4.50281e-24
-5.33139e-23
3.08414e-25
-3.49346e-24
1.59317e-26
-1.55478e-25
5.97391e-28
-4.48158e-27
1.1959e-29
-5.22043e-29
2.95585e-31
9.58707e-31
1.31843e-32
8.8694e-32
4.81181e-34
5.93808e-33
1.95883e-35
3.12895e-34
7.29801e-37
1.41912e-35
2.36089e-38
5.56935e-37
6.31099e-40
1.87416e-38
1.3611e-41
5.27475e-40
2.21509e-43
1.19522e-41
2.39426e-45
2.03975e-43
1.4927e-47
2.31187e-45
1.29197e-47
1.06075e-06
7.58121e-06
1.59292e-07
9.01687e-07
8.50424e-09
1.50911e-07
3.03474e-10
8.47673e-09
6.50862e-12
2.9868e-10
6.13223e-14
7.24084e-12
-8.93001e-19
6.39597e-14
-6.38992e-16
2.35072e-15
-2.03263e-15
0
-2.29157e-15
-1.85228e-15
-1.64582e-15
-2.32954e-15
-9.97409e-16
-1.73757e-15
-5.14148e-16
-1.45938e-15
-2.16258e-16
-1.02724e-15
-7.39412e-17
-3.48879e-16
-1.41806e-17
-4.34687e-16
2.79203e-18
-2.41857e-16
3.48045e-18
-1.12273e-16
1.38497e-18
-3.46592e-17
3.33994e-19
-6.52529e-18
5.14808e-20
-9.16405e-19
6.87375e-21
-9.16654e-20
8.53722e-22
-9.11684e-21
8.28455e-23
-8.80026e-22
5.89379e-24
-6.07509e-23
3.16147e-25
-2.80934e-24
1.2337e-26
-8.29595e-26
2.52038e-28
-9.06235e-28
8.4516e-30
2.49505e-29
4.01631e-31
2.6247e-30
1.55457e-32
1.85159e-31
6.82816e-34
1.03359e-32
2.7018e-35
4.98139e-34
9.24419e-37
2.07438e-35
2.61711e-38
7.39946e-37
5.97948e-40
2.20554e-38
1.03045e-41
5.2888e-40
1.1794e-43
9.54456e-42
7.73499e-46
1.14331e-43
6.78259e-46
1.93233e-05
3.89869e-05
4.82018e-06
1.36292e-05
9.37979e-07
4.04577e-06
1.26426e-07
8.19052e-07
1.57605e-08
1.13105e-07
1.1651e-09
1.46956e-08
6.99419e-11
1.01211e-09
7.82065e-13
7.52321e-11
8.32229e-14
9.36663e-13
3.55965e-14
-3.90874e-15
6.48116e-16
0
-3.45812e-15
-1.40029e-14
-2.55077e-15
-1.24466e-14
-1.12291e-15
-8.27943e-15
-2.74146e-16
-4.07753e-15
1.70687e-17
-2.25144e-15
6.22775e-17
-5.46816e-16
4.89439e-17
-5.7757e-16
1.91157e-17
-2.51284e-16
4.69987e-18
-7.80707e-17
7.48393e-19
-1.18732e-17
1.04326e-19
-1.23235e-18
1.37907e-20
-1.28368e-19
1.43351e-21
-1.32594e-20
1.0806e-22
-9.88922e-22
6.06441e-24
-4.83156e-23
2.44679e-25
-1.45863e-24
5.32e-27
-1.36577e-26
2.25911e-28
6.00881e-28
1.11452e-29
7.20441e-29
4.71062e-31
5.34844e-30
2.21224e-32
3.16967e-31
9.31611e-34
1.62559e-32
3.38261e-35
7.19977e-34
1.01759e-36
2.72889e-35
2.4692e-38
8.63647e-37
4.51773e-40
2.19739e-38
5.49132e-42
4.20538e-40
3.80742e-44
5.34762e-42
3.37718e-44
7.58275e-05
4.5289e-05
4.56554e-05
4.03459e-05
1.14465e-05
2.78075e-05
2.65509e-06
9.58325e-06
6.68791e-07
2.08983e-06
8.58802e-08
5.76162e-07
1.28231e-08
7.89302e-08
1.15422e-09
1.17462e-08
4.90252e-11
1.1666e-09
2.59316e-12
4.62794e-11
7.98061e-13
0
1.64008e-13
0
3.9452e-14
-2.63775e-14
1.00677e-14
-4.95436e-14
3.4846e-15
-3.14678e-14
1.78262e-15
-1.46248e-14
9.76135e-16
-4.76409e-15
4.40501e-16
-2.12143e-15
1.82258e-16
-6.69414e-16
5.86641e-17
-4.47449e-16
1.02624e-17
-1.18885e-16
1.44121e-18
-1.59079e-17
2.02371e-19
-1.63343e-18
2.28029e-20
-1.7937e-19
1.8581e-21
-1.47134e-20
1.10913e-22
-7.72713e-22
4.63258e-24
-2.39634e-23
1.04689e-25
-1.59885e-25
5.7705e-27
1.51931e-26
2.95053e-28
1.88336e-27
1.35232e-29
1.46841e-28
6.78751e-31
9.24372e-30
3.05008e-32
5.04904e-31
1.18339e-33
2.38175e-32
3.79235e-35
9.61252e-34
9.79042e-37
3.23622e-35
1.90585e-38
8.75423e-37
2.46946e-40
1.78084e-38
1.8107e-42
2.41087e-40
1.62613e-42
8.81256e-05
4.54476e-05
8.49568e-05
4.34081e-05
6.90921e-05
4.0458e-05
3.05911e-05
3.67458e-05
7.24624e-06
1.72812e-05
1.6133e-06
6.21102e-06
3.80806e-07
1.29185e-06
6.42352e-08
3.31245e-07
7.67992e-09
5.76215e-08
6.23039e-10
6.61294e-09
3.2532e-11
5.96675e-10
8.93698e-12
0
1.6471e-12
0
4.16042e-13
0
1.14832e-13
-9.64539e-14
3.55914e-14
-7.93805e-14
1.26252e-14
-3.53023e-14
4.69189e-15
-1.21721e-14
1.6251e-15
-3.58129e-15
4.7225e-16
-8.8707e-16
1.21158e-16
-6.17505e-16
1.78866e-17
-1.42556e-16
2.67646e-18
-1.85983e-17
3.28284e-19
-2.14343e-18
2.92262e-20
-1.959e-19
1.87634e-21
-1.11364e-20
8.1125e-23
-3.52411e-22
2.18151e-24
-8.08305e-25
1.45405e-25
3.94033e-25
7.58357e-27
4.78909e-26
3.74968e-28
3.91446e-27
2.0144e-29
2.61584e-28
9.67437e-31
1.52225e-29
4.00453e-32
7.65324e-31
1.37751e-33
3.29114e-32
3.7903e-35
1.18083e-33
7.86064e-37
3.40074e-35
1.0877e-38
7.36572e-37
8.45056e-41
1.06396e-38
7.68618e-41
9.07545e-05
4.36901e-05
9.13041e-05
4.28369e-05
8.99721e-05
4.17202e-05
8.50113e-05
4.02371e-05
5.95556e-05
3.75806e-05
1.48253e-05
3.05553e-05
4.1889e-06
1.17221e-05
1.14549e-06
3.31261e-06
1.9748e-07
9.57705e-07
3.38802e-08
1.69652e-07
3.87793e-09
3.0322e-08
2.20628e-10
3.77009e-09
5.63416e-11
2.48787e-11
8.83384e-12
0
2.09019e-12
0
5.3776e-13
0
1.54657e-13
-1.4445e-13
4.67562e-14
-6.88018e-14
1.40888e-14
-2.29819e-14
4.10845e-15
-5.71273e-15
9.53407e-16
-1.90045e-15
1.96984e-16
-6.19342e-16
3.19238e-17
-1.6951e-16
4.20351e-18
-2.26325e-17
4.12194e-19
-2.26444e-18
2.86304e-20
-1.40342e-19
1.2714e-21
-4.43162e-21
4.70692e-23
1.75851e-23
3.55033e-24
9.84021e-24
1.90852e-25
1.18904e-24
1.01388e-26
1.01796e-25
5.82992e-28
7.21628e-27
2.99319e-29
4.47313e-28
1.3228e-30
2.39707e-29
4.88541e-32
1.09862e-30
1.43372e-33
4.20363e-32
3.17024e-35
1.28987e-33
4.69049e-37
2.97751e-35
3.87429e-39
4.5957e-37
3.56465e-39
9.10117e-05
4.13359e-05
9.27577e-05
4.10878e-05
9.37125e-05
4.0753e-05
9.36093e-05
4.02926e-05
9.14301e-05
3.96379e-05
7.92192e-05
3.82907e-05
4.09896e-05
3.56206e-05
8.47083e-06
2.02542e-05
2.06287e-06
7.18115e-06
5.26417e-07
1.65248e-06
1.07494e-07
4.45755e-07
1.43785e-08
9.37244e-08
8.64444e-10
1.35074e-08
1.46421e-10
7.86323e-10
3.61939e-11
0
6.819e-12
0
1.71413e-12
0
4.62707e-13
-2.34932e-13
1.22904e-13
-1.1599e-13
3.10428e-14
-3.73266e-14
7.7228e-15
-1.12279e-14
1.84173e-15
-3.19017e-15
3.33663e-16
-6.8198e-16
4.65728e-17
-1.98727e-16
5.04064e-18
-2.16156e-17
3.80744e-19
-1.47389e-18
1.82436e-20
-4.45321e-20
9.8548e-22
7.05519e-22
7.72595e-23
2.29062e-22
4.54599e-24
2.7882e-23
2.61622e-25
2.50576e-24
1.60764e-26
1.88486e-25
8.81151e-28
1.24392e-26
4.15358e-29
7.10303e-28
1.63798e-30
3.46925e-29
5.12548e-32
1.41478e-30
1.20883e-33
4.62595e-32
1.9135e-35
1.13928e-33
1.69138e-37
1.87897e-35
1.56918e-37
9.05314e-05
3.87937e-05
9.27234e-05
3.88952e-05
9.44831e-05
3.89917e-05
9.5686e-05
3.90807e-05
9.61608e-05
3.91412e-05
9.52707e-05
3.9096e-05
9.12339e-05
3.8739e-05
6.55191e-05
3.68881e-05
1.44277e-05
3.00991e-05
3.7858e-06
1.18198e-05
1.12183e-06
2.94208e-06
2.38624e-07
9.49163e-07
3.91245e-08
2.06006e-07
3.69726e-09
3.49711e-08
3.6822e-10
3.1259e-09
8.26591e-11
0
1.67743e-11
0
4.20826e-12
0
1.06343e-12
-4.44373e-13
2.42662e-13
-1.96566e-13
5.23459e-14
-6.53312e-14
1.18536e-14
-2.11166e-14
2.88533e-15
-4.89376e-15
4.42202e-16
-8.68347e-16
5.16614e-17
-1.67285e-16
4.3075e-18
-1.26503e-17
2.50598e-19
-3.43388e-19
1.99515e-20
2.00873e-20
1.54148e-21
4.95138e-21
1.00215e-22
6.07252e-22
6.29667e-24
5.72984e-23
4.13043e-25
4.57338e-24
2.41315e-26
3.21015e-25
1.21183e-27
1.95154e-26
5.08189e-29
1.01504e-27
1.69415e-30
4.40682e-29
4.26357e-32
1.53461e-30
7.2142e-34
4.03491e-32
6.85627e-36
7.10337e-34
6.40293e-36
8.97924e-05
3.61879e-05
9.21639e-05
3.65236e-05
9.42639e-05
3.68914e-05
9.60263e-05
3.73171e-05
9.73682e-05
3.77969e-05
9.81483e-05
3.83044e-05
9.80692e-05
3.87682e-05
9.57919e-05
3.90065e-05
8.03935e-05
3.82259e-05
3.23579e-05
3.57224e-05
6.27615e-06
1.66471e-05
1.87575e-06
5.04689e-06
4.3992e-07
1.56226e-06
8.14166e-08
3.72751e-07
9.6496e-09
7.01362e-08
7.45317e-10
7.9967e-09
1.46256e-10
0
3.36121e-11
0
8.55408e-12
-1.62998e-12
1.88728e-12
-1.12459e-12
3.69507e-13
-4.23112e-13
7.08042e-14
-1.29608e-13
1.50752e-14
-3.43743e-14
3.15171e-15
-5.99532e-15
4.47417e-16
-7.12633e-16
4.52098e-17
-8.45656e-17
3.90182e-18
-1.87173e-18
3.54704e-19
4.70747e-19
2.82079e-20
9.58557e-20
1.99541e-21
1.19328e-20
1.37345e-22
1.18068e-21
9.60509e-24
1e-22
5.96864e-25
7.45711e-24
3.18734e-26
4.8209e-25
1.41263e-27
2.66723e-26
5.00943e-29
1.23044e-27
1.3457e-30
4.55885e-29
2.42974e-32
1.27792e-30
2.49727e-34
2.40146e-32
2.34204e-34
8.89876e-05
3.35758e-05
9.14263e-05
3.4085e-05
9.36765e-05
3.46411e-05
9.57049e-05
3.52886e-05
9.7459e-05
3.60425e-05
9.88681e-05
3.68941e-05
9.98238e-05
3.78056e-05
0.000100093
3.87137e-05
9.87426e-05
3.94421e-05
9.02431e-05
3.94342e-05
5.04819e-05
3.66452e-05
8.88776e-06
2.27888e-05
2.64597e-06
7.28502e-06
6.75585e-07
2.18256e-06
1.36652e-07
5.64752e-07
1.8212e-08
1.15689e-07
1.09206e-09
1.49386e-08
2.49272e-10
0
6.01991e-11
-2.50059e-11
1.34817e-11
-9.55615e-12
2.65427e-12
-3.24639e-12
4.63517e-13
-9.33767e-13
8.33095e-14
-2.24765e-13
1.60697e-14
-4.06878e-14
2.48284e-15
-4.79265e-15
4.40242e-16
-3.15477e-16
5.56701e-17
2.12999e-18
5.26745e-18
8.44694e-18
4.37109e-19
1.53973e-18
3.32559e-20
1.95712e-19
2.53992e-21
2.02847e-20
1.89141e-22
1.8272e-21
1.24458e-23
1.44645e-22
6.95491e-25
9.93439e-24
3.24671e-26
5.82359e-25
1.2239e-27
2.85055e-26
3.50345e-29
1.12232e-27
6.74953e-31
3.35054e-29
7.59074e-33
6.71508e-31
7.10103e-33
8.82655e-05
3.10114e-05
9.06999e-05
3.16506e-05
9.29974e-05
3.23436e-05
9.51411e-05
3.31449e-05
9.70997e-05
3.40838e-05
9.88251e-05
3.51686e-05
0.000100248
3.6382e-05
0.000101273
3.76827e-05
0.000101704
3.89915e-05
0.000100879
4.01477e-05
9.60241e-05
4.071e-05
6.17052e-05
3.83807e-05
1.1001e-05
2.76991e-05
3.24353e-06
9.0641e-06
8.90366e-07
2.64498e-06
1.89446e-07
7.32675e-07
2.73936e-08
1.56432e-07
1.92135e-09
2.14979e-08
4.01914e-10
-1.04626e-11
8.81569e-11
-7.07455e-11
1.79595e-11
-2.44998e-11
3.27619e-12
-6.68495e-12
5.86463e-13
-1.53671e-12
9.89031e-14
-2.3322e-13
1.5566e-14
-2.30163e-14
2.22094e-15
-1.38659e-15
4.74498e-16
3.27646e-16
6.27472e-17
1.16362e-16
5.50802e-18
1.971e-17
4.45057e-19
2.56975e-18
3.76544e-20
2.78608e-19
2.94675e-21
2.66899e-20
2.01609e-22
2.23464e-21
1.18851e-23
1.6221e-22
5.88816e-25
1.00736e-23
2.35619e-26
5.22873e-25
7.17443e-28
2.18403e-26
1.47306e-29
6.93415e-28
1.82918e-31
1.47999e-29
1.69947e-31
8.77838e-05
2.85649e-05
9.01432e-05
2.92912e-05
9.24087e-05
3.0078e-05
9.45687e-05
3.09849e-05
9.66034e-05
3.20491e-05
9.84801e-05
3.32918e-05
0.000100149
3.4713e-05
0.000101543
3.62886e-05
0.000102569
3.79633e-05
0.000103062
3.96407e-05
0.000102544
4.11637e-05
9.84657e-05
4.20276e-05
6.67905e-05
3.98972e-05
1.19771e-05
3.05047e-05
3.56504e-06
9.81223e-06
1.00384e-06
2.90515e-06
2.23166e-07
8.14242e-07
3.42671e-08
1.77984e-07
2.95087e-09
2.4786e-08
5.81226e-10
-1.20311e-11
1.17525e-10
-1.16332e-10
2.29289e-11
-3.8474e-11
4.1971e-12
-8.27075e-12
6.73951e-13
-1.16478e-12
1.05461e-13
-1.05412e-13
2.05425e-14
-3.85112e-15
3.13434e-15
6.40618e-15
4.55543e-16
1.39759e-15
5.39304e-17
2.02947e-16
4.74721e-18
2.67987e-17
4.22955e-19
3.03302e-18
3.50479e-20
3.05855e-19
2.53723e-21
2.70373e-20
1.58277e-22
2.07431e-21
8.29878e-24
1.36208e-22
3.51614e-25
7.47853e-24
1.13651e-26
3.30964e-25
2.48211e-28
1.11384e-26
3.42519e-30
2.52698e-28
3.1549e-30
8.77004e-05
2.62781e-05
8.9912e-05
2.70785e-05
9.2066e-05
2.7924e-05
9.41574e-05
2.88935e-05
9.61711e-05
3.00352e-05
9.80829e-05
3.13799e-05
9.98563e-05
3.29395e-05
0.000101439
3.47058e-05
0.000102759
3.66421e-05
0.000103723
3.86758e-05
0.000104182
4.06944e-05
0.000103636
4.25149e-05
9.9537e-05
4.35832e-05
6.63953e-05
4.1007e-05
1.1476e-05
3.09849e-05
3.46311e-06
9.39298e-06
9.84369e-07
2.80259e-06
2.25245e-07
7.82078e-07
3.61287e-08
1.70472e-07
3.91576e-09
2.30584e-08
7.72659e-10
5.00156e-11
1.47121e-10
-1.11101e-10
2.59852e-11
-2.86766e-11
4.36252e-12
-4.29589e-12
7.74136e-13
-3.72739e-13
1.61349e-13
4.80705e-14
2.66152e-14
7.14249e-14
3.44392e-15
1.54391e-14
3.92959e-16
2.00169e-15
4.22611e-17
2.43808e-16
4.12348e-18
2.85468e-17
3.5833e-19
3.01576e-18
2.73157e-20
2.80224e-19
1.79605e-21
2.26295e-20
9.92805e-23
1.56519e-21
4.44192e-24
9.05729e-23
1.51684e-25
4.23243e-24
3.51239e-27
1.50333e-25
5.32536e-29
3.61703e-27
4.89421e-29
8.77996e-05
2.34585e-05
9.00768e-05
2.48073e-05
9.2092e-05
2.59068e-05
9.40451e-05
2.69395e-05
9.59527e-05
2.81276e-05
9.78056e-05
2.95267e-05
9.95747e-05
3.11701e-05
0.000101219
3.30616e-05
0.00010268
3.51808e-05
0.00010388
3.74754e-05
0.000104721
3.98516e-05
0.000105052
4.21747e-05
0.000104326
4.42244e-05
9.96011e-05
4.53014e-05
6.11737e-05
4.12042e-05
9.34929e-06
2.82753e-05
2.9087e-06
7.7443e-06
8.32653e-07
2.34709e-06
1.91944e-07
6.45966e-07
3.27551e-08
1.34792e-07
4.24244e-09
1.76146e-08
7.31462e-10
3.99726e-10
1.35295e-10
-7.1659e-11
2.55319e-11
-1.31802e-11
5.58163e-12
-6.99655e-13
1.09896e-12
1.46768e-12
1.91217e-13
5.71957e-13
2.66524e-14
1.24353e-13
3.16569e-15
1.86858e-14
3.44441e-16
2.08954e-15
3.49819e-17
2.38751e-16
3.18679e-18
2.60221e-17
2.55121e-19
2.52908e-18
1.76183e-20
2.14204e-19
1.02319e-21
1.55525e-20
4.81834e-23
9.45365e-22
1.73061e-24
4.64277e-23
4.23982e-26
1.73542e-24
7.04897e-28
4.42052e-26
6.47218e-28
8.35876e-05
1.35195e-05
8.94595e-05
1.89849e-05
9.21599e-05
2.32175e-05
9.42446e-05
2.48623e-05
9.6036e-05
2.63331e-05
9.77677e-05
2.77949e-05
9.9446e-05
2.94921e-05
0.000101051
3.14561e-05
0.000102535
3.36963e-05
0.000103833
3.61769e-05
0.000104861
3.88228e-05
0.000105517
4.15153e-05
0.000105643
4.40885e-05
0.000104577
4.62911e-05
9.77282e-05
4.72662e-05
4.88968e-05
4.32091e-05
6.76206e-06
2.27158e-05
2.15722e-06
5.73136e-06
6.01297e-07
1.78829e-06
1.36522e-07
4.69965e-07
2.41916e-08
9.27174e-08
3.82755e-09
1.20849e-08
6.79431e-10
8.2532e-10
1.45921e-10
3.84621e-11
3.12554e-11
2.60594e-11
6.2045e-12
1.22338e-11
1.10887e-12
3.51611e-12
1.69973e-13
7.53678e-13
2.1173e-14
1.26581e-13
2.39082e-15
1.61891e-14
2.50127e-16
1.72829e-15
2.37883e-17
1.90571e-16
1.99361e-18
1.92562e-17
1.44187e-19
1.70516e-18
8.7728e-21
1.29595e-19
4.32956e-22
8.2516e-21
1.63149e-23
4.24364e-22
4.22429e-25
1.66399e-23
7.7744e-27
4.48201e-25