/*--------------------------------*- C++ -*----------------------------------*\
  =========                 |
  \\      /  F ield         | OpenFOAM: The Open Source CFD Toolbox
   \\    /   O peration     | Website:  https://openfoam.org
    \\  /    A nd           | Version:  9
     \\/     M anipulation  |
\*---------------------------------------------------------------------------*/
FoamFile
{
    format      ascii;
    class       volScalarField;
    location    "0.4";
    object      alpha.water;
}
// * * * * * * * * * * * * * * * * * * * * * * * * * * * * * * * * * * * * * //

dimensions      [0 0 0 0 0 0 0];

internalField   nonuniform List<scalar> 
1915
(
0.998389
0.998389
0.99789
0.998389
0.967978
0.998074
0.980117
0.998319
0.998873
0.999627
0.99996
0.99971
0.999996
0.999706
0.999999
0.999711
1
0.999724
1
0.999894
3.08527e-23
3.06608e-23
2.78803e-23
3.06617e-24
1.22437e-25
4.84427e-27
2.05928e-28
1.20689e-29
1.24443e-29
2.87186e-29
1.1876e-28
5.62468e-28
1.6648e-27
2.40341e-27
1.08111e-27
3.56125e-28
8.03509e-29
1.20536e-29
1.28616e-30
1.09194e-31
5.95909e-33
2.8463e-34
1.05568e-35
3.3836e-37
1.06009e-38
3.39513e-40
1.16919e-41
4.29892e-43
3.61129e-44
1.27549e-45
3.6499e-47
9.7254e-49
2.25891e-50
4.39889e-52
6.83556e-54
7.89662e-56
6.09133e-58
2.62298e-60
4.29335e-63
1.00775e-63
2.48274e-22
3.00649e-22
1.53724e-22
2.83048e-23
2.79079e-24
2.70372e-25
2.16616e-26
1.78713e-27
9.71198e-28
7.11262e-27
1.95181e-26
2.81762e-26
1.78756e-26
1.23234e-26
4.38094e-27
1.68716e-27
7.26336e-28
2.70162e-28
6.43212e-29
8.95398e-30
6.33849e-31
2.33206e-32
2.84289e-34
1.05479e-35
3.38275e-37
1.06e-38
3.39515e-40
1.1692e-41
4.00894e-42
1.77383e-43
4.10221e-45
1.08595e-46
2.54324e-48
5.02336e-50
7.96248e-52
9.41213e-54
7.39233e-56
3.18013e-58
5.77005e-61
1.04534e-63
6.90966e-21
4.96634e-21
2.35336e-21
5.81432e-22
8.22668e-23
1.2203e-23
1.51158e-24
2.09205e-25
1.26653e-25
7.20055e-25
1.79799e-24
2.55163e-24
2.00333e-24
1.578e-24
7.42574e-25
3.09384e-25
1.11096e-25
3.15758e-26
6.38356e-27
8.52729e-28
6.971e-29
2.72126e-30
4.16605e-32
1.56442e-33
4.89949e-35
1.46259e-36
4.44659e-38
1.43072e-39
2.54905e-40
9.86737e-42
2.5145e-43
6.50066e-45
1.4935e-46
2.91377e-48
4.56452e-50
5.24863e-52
4.43951e-54
2.70775e-56
7.21558e-59
3.84247e-61
7.77083e-20
5.96523e-20
3.23333e-20
9.75316e-21
1.88091e-21
4.13316e-22
7.51187e-23
1.63834e-23
1.15138e-23
4.94151e-23
1.10185e-22
1.47157e-22
1.32448e-22
9.85763e-23
5.17069e-23
2.23005e-23
7.72542e-24
2.05419e-24
3.96456e-25
5.31038e-26
4.72179e-27
1.92996e-28
3.32387e-30
1.28666e-31
4.04787e-33
1.17502e-34
3.41646e-36
1.02358e-37
8.63069e-39
4.49485e-40
1.25144e-41
3.09764e-43
6.90367e-45
1.30279e-46
1.9268e-48
2.86179e-50
3.16791e-52
2.28329e-54
7.81215e-57
7.10474e-59
6.02191e-19
5.78559e-19
3.91242e-19
1.40933e-19
3.52493e-20
1.05949e-20
2.70848e-21
9.25521e-22
7.7545e-22
2.56871e-21
5.11366e-21
6.34135e-21
6.18343e-21
4.40225e-21
2.40177e-21
1.04672e-21
3.57661e-22
9.30816e-23
1.78216e-23
2.44839e-24
2.30627e-25
9.80507e-27
1.83641e-28
7.44754e-30
2.41759e-31
7.02114e-33
1.99482e-34
5.73556e-36
2.02184e-37
1.92389e-38
5.7947e-40
1.3321e-41
2.85701e-43
5.05134e-45
1.01255e-46
1.60154e-48
1.91239e-50
1.54684e-52
6.3464e-55
7.67605e-57
3.9206e-18
4.72736e-18
3.92961e-18
1.54421e-18
4.66866e-19
1.82805e-19
6.2301e-20
2.9548e-20
3.33924e-20
1.0634e-19
1.90592e-19
2.19636e-19
2.20281e-19
1.51836e-19
8.37323e-20
3.65475e-20
1.24304e-20
3.22792e-21
6.24937e-22
8.92155e-23
8.80323e-24
3.86922e-25
7.83862e-27
3.36749e-28
1.1512e-29
3.43552e-31
9.7753e-33
2.77305e-34
8.85698e-36
8.13407e-37
2.41979e-38
5.44321e-40
1.11076e-41
2.31316e-43
5.00479e-45
8.30012e-47
1.05306e-48
9.21373e-51
4.186e-53
6.22089e-55
1.9369e-17
2.76217e-17
2.57169e-17
1.05029e-17
4.03691e-18
1.82574e-18
7.43296e-19
4.96244e-19
1.2212e-18
3.55759e-18
5.85146e-18
6.41623e-18
6.24892e-18
4.23412e-18
2.33003e-18
1.01555e-18
3.45606e-19
9.04848e-20
1.791e-20
2.67979e-21
2.75049e-22
1.28478e-23
2.99109e-25
1.2538e-26
4.58042e-28
1.43634e-29
4.19235e-31
1.19784e-32
3.78276e-34
3.29235e-35
9.75962e-37
2.15742e-38
4.15745e-40
1.05838e-41
2.39313e-43
4.12049e-45
5.48342e-47
5.05262e-49
2.41254e-51
4.09234e-53
7.96552e-17
1.42236e-16
1.4374e-16
5.55441e-17
2.27893e-17
1.16525e-17
6.91349e-18
1.01811e-17
4.08889e-17
9.81872e-17
1.48957e-16
1.6301e-16
1.45214e-16
9.79589e-17
5.35456e-17
2.3323e-17
7.98507e-18
2.12432e-18
4.33341e-19
6.8183e-20
7.26422e-21
3.69894e-22
1.02135e-23
3.96163e-25
1.56175e-26
5.23475e-28
1.6007e-29
4.69994e-31
1.49505e-32
1.2794e-33
3.82486e-35
8.31355e-37
1.77526e-38
4.71213e-40
1.11075e-41
1.98941e-43
2.75681e-45
2.64493e-47
1.3125e-49
2.35285e-51
3.06068e-16
5.77492e-16
5.57407e-16
2.26469e-16
1.56057e-16
1.42667e-16
1.70293e-16
4.18618e-16
1.17751e-15
2.43029e-15
3.28868e-15
3.57792e-15
2.87472e-15
1.89265e-15
1.0173e-15
4.41942e-16
1.53013e-16
4.17002e-17
8.85784e-18
1.46632e-18
1.62492e-19
8.88993e-21
2.85798e-22
1.08254e-23
4.63226e-25
1.67739e-26
5.47627e-28
1.68338e-29
5.49324e-31
4.74469e-32
1.44596e-33
3.10855e-35
7.39858e-37
2.03966e-38
5.01408e-40
9.34321e-42
1.34523e-43
1.33865e-45
6.86547e-48
1.27555e-49
5.77631e-16
1.9763e-15
2.53339e-15
3.35305e-15
6.91243e-15
1.12963e-14
1.65142e-14
2.17985e-14
3.12326e-14
5.40111e-14
6.50946e-14
7.10607e-14
5.07722e-14
3.22345e-14
1.65043e-14
6.99888e-15
2.4226e-15
6.74841e-16
1.5067e-16
2.6002e-17
2.98619e-18
1.68787e-19
5.93024e-21
2.59105e-22
1.20231e-23
4.6132e-25
1.6261e-26
5.49181e-28
1.8711e-29
1.66337e-30
5.21863e-32
1.11784e-33
2.966e-35
8.53764e-37
2.18683e-38
4.24666e-40
6.35852e-42
6.56382e-44
3.47889e-46
6.59026e-48
1
1
1
1
1
1
1
1
1
1
1
1
1
1
1
1
1
1
1
1
0.999999
1.00001
1.00049
0.694851
0.0426337
0.00021255
1.30703e-05
7.64541e-07
4.06177e-08
2.44697e-09
7.97835e-10
3.16731e-10
2.82074e-10
3.21847e-10
1.55631e-10
8.15754e-11
6.43979e-11
7.17369e-11
9.94113e-11
1.49022e-10
2.10338e-10
2.65448e-10
2.68727e-10
0.981494
0
-8.73205e-13
-4.17205e-13
1.00001
0.630633
0.0136271
-4.04148e-07
1.00002
1
0.810617
0.228076
1
1.00004
0.995652
0.892422
1
1.00001
0.999226
0.996918
1
1
0.999886
0.999489
1
1
0.999982
0.999922
1
1
0.999998
0.999989
1
1
0.999999
0.999998
1
1
0.999999
0.999999
1
1
0.999999
0.999999
1.00004
0.999999
0.999999
0.999999
0.999904
0.999975
1.00003
1
0.997491
0.999797
0.999877
0.999946
0.125915
0.545071
0.991854
0.999439
0.00138247
0.0291054
0.0915049
0.396656
4.79727e-05
0.00021021
0.00107081
0.0150322
2.65511e-06
1.29582e-05
3.78388e-05
0.000171403
1.50551e-07
8.43421e-07
2.64848e-06
1.08144e-05
8.18524e-09
4.8511e-08
1.73949e-07
7.72982e-07
5.87801e-10
2.38894e-09
9.80833e-09
4.99252e-08
3.01022e-10
3.85563e-10
7.87182e-10
2.57238e-09
2.8845e-10
3.15863e-10
3.26262e-10
3.64393e-10
3.59924e-10
3.55907e-10
3.32352e-10
2.67937e-10
1.98141e-10
2.59417e-10
3.08635e-10
2.82002e-10
1.02552e-10
1.31739e-10
1.82519e-10
2.19231e-10
8.38379e-11
1.03261e-10
1.23767e-10
1.51178e-10
9.76399e-11
1.11934e-10
1.43399e-10
3.22674e-10
1.29316e-10
1.65274e-10
1.91289e-10
2.44211e-10
2.1019e-10
5.42179e-10
7.80354e-10
7.90085e-10
3.87065e-10
1.23488e-09
1.96008e-09
1.9764e-09
5.27367e-10
8.58139e-10
1.31347e-09
1.82618e-09
6.18863e-10
1.33258e-09
1.41768e-09
1.89017e-09
-6.42633e-17
2.51191e-14
4.92592e-14
1.25768e-13
2.76596e-13
4.76332e-13
6.00661e-13
6.63428e-13
5.25625e-13
5.80826e-13
6.95914e-13
7.52477e-13
6.69297e-13
4.88535e-13
2.72554e-13
1.12261e-13
3.79955e-14
1.05986e-14
2.47769e-15
4.44173e-16
5.33993e-17
3.25567e-18
1.25075e-19
5.48667e-21
2.70165e-22
1.13536e-23
4.35568e-25
1.62606e-26
5.87745e-28
5.49284e-29
1.80089e-30
3.9236e-32
1.13569e-33
3.42659e-35
9.19938e-37
1.86977e-38
2.9221e-40
3.14018e-42
1.72575e-44
3.34291e-46
-4.17188e-08
9.07992e-15
8.69159e-15
1.41213e-14
2.53628e-14
1.81978e-13
3.94584e-12
6.52351e-12
3.9512e-12
2.24005e-12
2.7942e-12
2.91647e-12
4.11529e-12
3.53898e-12
2.38531e-12
1.33885e-12
5.43708e-13
1.52277e-13
3.58367e-14
6.59213e-15
8.29919e-16
5.38106e-17
2.22318e-18
1.03702e-19
5.51324e-21
2.5385e-22
1.06458e-23
4.35554e-25
1.69471e-26
1.70068e-27
5.88304e-29
1.3125e-30
4.12191e-32
1.31116e-33
3.70105e-35
7.936e-37
1.29978e-38
1.46002e-40
8.36415e-43
1.65726e-44
-0.000270609
-1.25879e-05
-4.23511e-05
-2.45156e-06
-3.80853e-08
-9.21241e-09
-1.47272e-11
1.32516e-11
3.56048e-11
4.11712e-11
4.01509e-11
3.00774e-11
2.18289e-11
1.38615e-11
9.36901e-12
8.06869e-12
4.27048e-12
1.79947e-12
4.87701e-13
9.00372e-14
1.16744e-14
8.09159e-16
3.58739e-17
1.78627e-18
1.02106e-19
5.12645e-21
2.34824e-22
1.06471e-23
4.50889e-25
4.82676e-26
1.77095e-27
4.07346e-29
1.41649e-30
4.78121e-32
1.40979e-33
3.1716e-35
5.46421e-37
6.44674e-39
3.87134e-41
8.02517e-43
0.614557
0.0150119
0.00038787
3.36971e-06
-5.35654e-05
-1.53321e-06
-1.62972e-07
-5.47691e-08
1.70681e-10
9.96939e-10
7.43108e-10
4.35561e-10
2.46484e-10
1.31355e-10
6.78762e-11
3.25683e-11
1.55926e-11
1.0833e-11
4.39647e-12
1.13926e-12
1.5458e-13
1.13518e-14
5.40496e-16
2.81378e-17
1.74317e-18
9.48392e-20
4.71701e-21
2.34866e-22
1.41635e-23
1.27834e-24
4.79236e-26
1.20656e-27
4.51889e-29
1.62078e-30
5.014e-32
1.1924e-33
2.16963e-35
2.69961e-37
1.66944e-39
3.71034e-41
0.98696
0.816303
0.298521
0.00320141
0.000604814
5.74956e-05
-3.86851e-05
-9.97219e-07
-1.00874e-06
7.26074e-09
2.78049e-08
1.00313e-08
3.23313e-09
1.52449e-09
6.81685e-10
2.75427e-10
1.0565e-10
3.95574e-11
1.93e-11
7.96355e-12
1.75662e-12
1.58847e-13
7.75831e-15
4.09786e-16
2.79667e-17
1.6466e-18
8.85188e-20
4.71749e-21
3.98778e-22
3.23795e-23
1.22316e-24
3.35039e-26
1.33828e-27
5.11442e-29
1.70207e-30
4.30581e-32
8.29256e-34
1.09177e-35
7.10504e-38
1.63206e-39
0.998543
0.995994
0.919287
0.705876
0.0867096
0.00232119
0.000507541
-4.44214e-05
2.81551e-06
1.25849e-07
3.18684e-08
3.4597e-07
1.0172e-07
2.01096e-08
7.18e-09
2.75949e-09
9.79071e-10
3.10721e-10
9.54188e-11
2.705e-11
1.0513e-11
1.73421e-12
1.0586e-13
5.54535e-15
4.23642e-16
2.72709e-17
1.58562e-18
8.85236e-20
1.23332e-20
8.10767e-22
3.0109e-23
8.81614e-25
3.76053e-26
1.53621e-27
5.449e-29
1.5132e-30
3.10231e-32
4.32698e-34
2.9791e-36
6.94392e-38
0.999763
0.999346
0.997889
0.994116
0.863968
0.462202
0.00775648
0.00198667
0.000388179
3.08695e-05
5.55535e-06
-4.4202e-08
2.11205e-06
6.07137e-07
9.98074e-08
2.70809e-08
9.08738e-09
2.88402e-09
8.05574e-10
1.95084e-10
4.17515e-11
8.82665e-12
1.2289e-12
7.71236e-14
5.9126e-15
4.26562e-16
2.7282e-17
1.58568e-18
3.12775e-19
1.97212e-20
7.2388e-22
2.24254e-23
1.02264e-24
4.47434e-26
1.69192e-27
5.19468e-29
1.13659e-30
1.68117e-32
1.22626e-34
2.89554e-36
0.999963
0.999907
0.999687
0.999148
0.99739
0.953932
0.76299
0.168744
0.00561431
0.00136413
0.000196878
4.55601e-05
3.57333e-06
3.38764e-06
1.67337e-06
3.77292e-07
8.40765e-08
2.49112e-08
7.11965e-09
1.76435e-09
3.53965e-10
5.52239e-11
7.73171e-12
1.1374e-12
7.74285e-14
6.16234e-15
4.31373e-16
3.48199e-17
6.30513e-18
4.1305e-19
1.64479e-20
5.54376e-22
2.70932e-23
1.26942e-24
5.12176e-26
1.6913e-27
3.94172e-29
6.14881e-31
4.78954e-33
1.18146e-34
0.999994
0.999986
0.999956
0.999884
0.99963
0.998699
0.995938
0.880312
0.475187
0.0126099
0.00356207
0.000673935
0.000151124
2.33572e-05
6.70124e-06
3.8656e-06
9.16009e-07
2.08885e-07
5.77966e-08
1.48769e-08
3.25141e-09
5.52543e-10
7.18867e-11
9.40402e-12
1.19986e-12
9.19812e-14
7.23824e-15
9.00608e-16
1.25388e-16
7.71683e-18
3.42333e-19
1.29271e-20
6.7931e-22
3.40588e-23
1.46688e-24
5.10932e-26
1.26519e-27
2.0763e-29
1.7311e-31
4.56208e-33
0.999998
0.999997
0.999993
0.999982
0.999955
0.999825
0.999437
0.997769
0.951243
0.685444
0.101836
0.00709578
0.00170176
0.00039626
7.8119e-05
1.77333e-05
7.79277e-06
1.76703e-06
4.42739e-07
1.15208e-07
2.62042e-08
5.06053e-09
7.59445e-10
9.08714e-11
1.07889e-11
1.63608e-12
1.67532e-13
2.34622e-14
2.16099e-15
1.33375e-16
6.43151e-18
2.7877e-19
1.58284e-20
8.47459e-22
3.89562e-23
1.39027e-24
3.63902e-26
6.39094e-28
5.58604e-30
1.63597e-31
0.999998
0.999998
0.999997
0.999995
0.999991
0.999976
0.999922
0.999699
0.998699
0.990991
0.790674
0.239716
0.0117562
0.00322868
0.000801611
0.000176636
3.88225e-05
1.33084e-05
3.33555e-06
8.2766e-07
1.90823e-07
3.87889e-08
6.69498e-09
9.30607e-10
1.12532e-10
1.26158e-11
2.80743e-12
4.0036e-13
3.11864e-14
1.98071e-15
1.02114e-16
5.38939e-18
3.34251e-19
1.90091e-20
8.65477e-22
3.13827e-23
8.71857e-25
1.62941e-26
1.49588e-28
5.38749e-30
0.999998
0.999997
0.999996
0.999996
0.999994
0.999992
0.999985
0.999971
0.999832
0.999273
0.996485
0.849275
0.352019
0.017409
0.00508596
0.00137705
0.000320478
7.02258e-05
2.27854e-05
5.49966e-06
1.26768e-06
2.64781e-07
4.83471e-08
7.60934e-09
9.66865e-10
1.24533e-10
1.71233e-11
3.33008e-12
3.62703e-13
2.43278e-14
1.32315e-15
8.53085e-17
5.54486e-18
3.10233e-19
1.46516e-20
5.64444e-22
1.66291e-23
3.28921e-25
3.17211e-27
1.49499e-28
0.999997
0.999997
0.999996
0.999994
0.999994
0.999993
0.99999
0.999986
0.999976
0.999902
0.99955
0.997185
0.878826
0.402522
0.0229442
0.00692516
0.00196663
0.000485657
0.000109036
3.30075e-05
7.59425e-06
1.61927e-06
3.05618e-07
4.94933e-08
6.90349e-09
8.81905e-10
1.18021e-10
1.55246e-11
2.33499e-12
2.34117e-13
1.39033e-14
9.4512e-16
6.53993e-17
3.87633e-18
1.93923e-19
7.90727e-21
2.44523e-22
5.16425e-24
5.21332e-26
3.29483e-27
1.00004
1
0.999995
0.999995
0.999993
0.999991
0.999989
0.999988
0.999985
0.999977
0.999927
0.999643
0.997359
0.881418
0.391075
0.0265785
0.0082919
0.00240434
0.000622414
0.00014374
4.02399e-05
8.6695e-06
1.6406e-06
2.73946e-07
4.09613e-08
5.74082e-09
7.03776e-10
9.50092e-11
1.22847e-11
1.38167e-12
1.15859e-13
9.03725e-15
6.55699e-16
4.09508e-17
2.16398e-18
9.30859e-20
3.03551e-21
6.83889e-23
7.13174e-25
5.59699e-26
0.999762
0.999907
1.00004
0.999995
0.999992
0.999991
0.999988
0.999984
0.999981
0.999979
0.999971
0.999931
0.999717
0.997383
0.857991
0.336496
0.0247386
0.00797197
0.00237359
0.000632904
0.000149239
3.7048e-05
7.38609e-06
1.3078e-06
2.14216e-07
3.12286e-08
4.08196e-09
5.28434e-10
6.93983e-11
8.90676e-12
8.69834e-13
7.49624e-14
5.69437e-15
3.74904e-16
2.0861e-17
9.43682e-19
3.27382e-20
7.78291e-22
8.24427e-24
7.93103e-25
0.94604
0.998958
0.999587
0.99987
1.00003
0.999984
0.999986
0.999983
0.999979
0.999971
0.999966
0.999965
0.999926
0.99967
0.997326
0.784828
0.232778
0.0198001
0.00630167
0.0018484
0.000488761
0.000114757
2.69795e-05
5.34832e-06
9.31662e-07
1.45478e-07
2.0926e-08
2.92181e-09
3.74798e-10
4.62779e-11
5.67571e-12
5.2277e-13
4.18863e-14
2.90036e-15
1.69488e-16
8.04456e-18
2.94336e-19
7.39942e-21
7.89258e-23
9.71645e-24
0.0806523
0.381095
0.935826
0.998439
0.999369
0.999823
0.999989
0.999973
0.999978
0.999968
0.999958
0.999946
0.999937
0.999905
0.999594
0.997113
0.652473
0.116232
0.0144599
0.00450293
0.00129788
0.000337901
7.94289e-05
1.78095e-05
3.43909e-06
5.82531e-07
9.28222e-08
1.37655e-08
1.86724e-09
2.30217e-10
2.81881e-11
3.06278e-12
2.59619e-13
1.88668e-14
1.15469e-15
5.73579e-17
2.18637e-18
5.80684e-20
6.21652e-22
1.00382e-22
0.000796168
0.0134513
0.0836169
0.410858
0.950647
0.997854
0.999243
0.999909
0.999942
0.999954
0.999951
0.999935
0.999907
0.999886
0.999866
0.999467
0.96483
0.462271
0.0360943
0.0099099
0.00300565
0.000838096
0.000211906
4.84792e-05
1.01214e-05
1.90222e-06
3.28575e-07
5.17117e-08
7.39738e-09
9.6064e-10
1.12634e-10
1.38604e-11
1.26654e-12
9.67498e-14
6.1974e-15
3.21849e-16
1.27354e-17
3.51377e-19
3.86813e-21
8.5954e-22
3.57423e-05
0.000200302
0.00119357
0.0162493
0.103495
0.523424
0.982625
0.997572
0.999259
0.999822
0.999904
0.999921
0.999888
0.99984
0.999795
0.999743
0.999231
0.810459
0.231817
0.0191077
0.00600626
0.00176685
0.000476197
0.000116395
2.58119e-05
5.2029e-06
9.53577e-07
1.58683e-07
2.39232e-08
3.26121e-09
4.00328e-10
4.36985e-11
4.94407e-12
3.98878e-13
2.66978e-14
1.44584e-15
5.96584e-17
1.69015e-18
1.91843e-20
5.76266e-21
2.82177e-06
1.22833e-05
4.12359e-05
0.000226704
0.00181129
0.0271005
0.184197
0.748629
0.993124
0.997793
0.999428
0.999807
0.999844
0.9998
0.999731
0.99965
0.999537
0.998031
0.542603
0.0639156
0.0111086
0.00339048
0.000957856
0.000247508
5.80972e-05
1.23751e-05
2.39083e-06
4.18337e-07
6.61285e-08
9.41098e-09
1.20267e-09
1.37263e-10
1.58142e-11
1.36587e-12
9.5428e-14
5.37317e-15
2.30426e-16
6.68254e-18
7.74717e-20
3.05466e-20
1.9538e-07
9.46465e-07
3.35846e-06
1.48054e-05
5.44305e-05
0.000277145
0.00378702
0.071918
0.431342
0.960852
0.995102
0.998582
0.999568
0.999698
0.999655
0.999507
0.999371
0.999069
0.82727
0.235169
0.0188125
0.00586485
0.00171866
0.000464423
0.000114433
2.5592e-05
5.18388e-06
9.49253e-07
1.56717e-07
2.32454e-08
3.0884e-09
3.64723e-10
3.98457e-11
3.93179e-12
2.8729e-13
1.6781e-14
7.45773e-16
2.21011e-17
2.58101e-19
1.32144e-19
1.34456e-08
5.90837e-08
2.24438e-07
9.25541e-07
3.276e-06
2.02668e-05
9.77689e-05
0.00059008
0.0237483
0.275897
0.858016
0.991134
0.997419
0.999101
0.99945
0.999376
0.999132
0.998927
0.98471
0.4798
0.042055
0.0094646
0.00284321
0.000794069
0.000203353
4.73574e-05
9.9871e-06
1.90205e-06
3.26177e-07
5.01801e-08
6.89328e-09
8.40771e-10
8.97564e-11
9.63514e-12
7.3986e-13
4.47418e-14
2.0543e-15
6.27804e-17
7.42121e-19
4.75221e-19
8.95124e-10
3.95035e-09
1.38689e-08
6.32669e-08
2.28343e-07
1.12464e-06
8.04087e-06
4.78413e-05
0.00035632
0.00460631
0.225894
0.79775
0.986949
0.996236
0.998561
0.999065
0.998922
0.998556
0.998177
0.72526
0.138342
0.0140569
0.00429811
0.00123161
0.000325561
7.849e-05
1.71417e-05
3.37762e-06
5.98526e-07
9.50236e-08
1.34493e-08
1.68788e-09
1.85901e-10
2.02306e-11
1.64424e-12
1.02814e-13
4.8651e-15
1.53008e-16
1.79669e-18
1.44351e-18
2.68471e-10
4.84256e-10
5.75945e-10
4.6278e-09
2.09112e-08
7.17473e-08
3.55694e-07
2.60682e-07
2.75557e-05
0.000278798
0.0027906
0.248677
0.818009
0.984973
0.995281
0.997907
0.998567
0.998096
0.99769
0.883311
0.283189
0.0199829
0.00615028
0.0017883
0.000482843
0.000119317
2.67391e-05
5.40691e-06
9.83034e-07
1.60073e-07
2.32274e-08
2.98584e-09
3.3671e-10
3.68473e-11
3.18817e-12
2.05867e-13
1.00128e-14
3.23293e-16
3.56214e-18
3.74642e-18
2.20715e-10
2.29603e-10
3.28214e-10
7.33508e-10
1.12096e-09
9.62587e-09
-9.68887e-09
1.87604e-07
2.90199e-06
2.14228e-05
0.000269565
0.0024982
0.357076
0.901485
0.987862
0.995319
0.997323
0.997625
0.996481
0.959581
0.460357
0.0318843
0.00826885
0.00242681
0.000664541
0.000167084
3.81621e-05
7.87057e-06
1.45996e-06
2.42597e-07
3.59249e-08
4.7107e-09
5.42334e-10
5.91563e-11
5.45001e-12
3.62807e-13
1.80883e-14
5.982e-16
7.30832e-18
8.40598e-18
2.21666e-10
2.22211e-10
2.45733e-10
2.87625e-10
5.89609e-10
6.53387e-10
6.82428e-09
3.493e-08
7.79178e-08
2.56477e-06
-2.07024e-06
0.00029926
0.0477981
0.576452
0.974938
0.990659
0.995324
0.996478
0.995685
0.99091
0.603731
0.070833
0.0106668
0.0031382
0.000862355
0.000217952
5.03573e-05
1.05615e-05
1.99636e-06
3.38076e-07
5.09845e-08
6.79821e-09
7.91103e-10
8.51658e-11
8.29509e-12
5.63527e-13
2.84971e-14
9.77945e-16
1.12318e-17
1.64871e-17
1.91185e-10
2.27166e-10
2.35045e-10
2.56647e-10
3.61869e-10
7.26509e-10
1.72721e-09
7.12198e-10
1.34865e-08
-6.64193e-07
2.61258e-06
3.08383e-05
0.000505568
0.25655
0.847567
0.984402
0.992191
0.994595
0.99517
0.994306
0.697161
0.109694
0.0128299
0.00377862
0.00104582
0.000266931
6.23707e-05
1.32389e-05
2.53421e-06
4.34891e-07
6.65037e-08
8.99079e-09
1.06414e-09
1.11431e-10
1.13507e-11
8.29938e-13
4.52919e-14
1.41982e-15
1.56662e-17
2.85263e-17
1.03897e-09
1.34784e-09
1.36025e-09
1.21917e-09
1.1483e-09
1.22264e-09
1.36659e-09
1.85655e-09
7.06449e-09
2.62845e-08
2.57711e-07
3.40225e-06
4.20344e-05
0.0686881
0.639167
0.977909
0.988855
0.992301
0.99383
0.992323
0.768247
0.158359
0.0146928
0.00433685
0.00120042
0.000307378
7.21604e-05
1.54004e-05
2.96705e-06
5.13132e-07
7.91836e-08
1.08127e-08
1.29402e-09
1.3542e-10
1.41242e-11
1.34207e-12
8.76002e-14
2.43471e-15
3.86945e-17
4.39183e-17
4.51485e-10
1.0018e-09
1.36164e-09
1.27379e-09
1.25051e-09
1.29913e-09
1.38462e-09
1.60346e-09
2.35443e-09
5.81741e-09
3.27177e-08
-4.70388e-07
-9.78318e-06
0.00486813
0.454849
0.948095
0.985857
0.990007
0.992006
0.989854
0.796175
0.193016
0.0159405
0.0046993
0.00129426
0.000330265
7.733e-05
1.64812e-05
3.17808e-06
5.51551e-07
8.56185e-08
1.17852e-08
1.42367e-09
1.50905e-10
1.6117e-11
2.19692e-12
1.64562e-13
5.0906e-15
8.01405e-17
6.07961e-17
1.72047e-09
1.96493e-09
1.55047e-09
1.27673e-09
1.30078e-09
1.39458e-09
1.48321e-09
1.53675e-09
1.69406e-09
2.47727e-09
-1.00138e-08
-4.18125e-07
-3.20923e-06
3.42987e-05
0.305363
0.894442
0.981946
0.987261
0.989773
0.986936
0.784402
0.182243
0.0159278
0.00469099
0.00129107
0.000329504
7.7075e-05
1.639e-05
3.15395e-06
5.46823e-07
8.49151e-08
1.17074e-08
1.41814e-09
1.51304e-10
1.67473e-11
2.63397e-12
2.06633e-13
7.6987e-15
1.62028e-16
7.64255e-17
1.7484e-09
1.7777e-09
6.83181e-09
3.18419e-08
3.36549e-08
1.48114e-08
1.65995e-09
1.76612e-09
3.0739e-09
3.78342e-09
1.83086e-09
-1.7418e-08
1.93469e-07
5.17675e-06
0.189268
0.818888
0.977834
0.984028
0.986904
0.97995
0.749372
0.154949
0.0150276
0.00440279
0.00120759
0.000306768
7.12795e-05
1.50467e-05
2.88021e-06
4.98272e-07
7.7428e-08
1.07156e-08
1.30626e-09
1.43374e-10
1.74663e-11
3.27483e-12
2.66585e-13
1.01538e-14
2.31925e-16
6.96228e-17
4.21193e-09
4.42698e-09
6.16111e-09
7.8016e-08
2.21426e-07
1.45817e-07
9.45698e-09
2.92583e-09
3.81236e-09
1.17484e-08
5.1336e-08
6.155e-08
1.2698e-07
9.44045e-07
0.190056
0.814804
0.97331
0.980153
0.983592
0.96927
0.683338
0.111108
0.01311
0.00380199
0.00103565
0.000260327
5.98305e-05
1.25061e-05
2.37254e-06
4.07437e-07
6.29059e-08
8.6484e-09
1.0694e-09
1.28201e-10
2.11809e-11
3.69746e-12
2.67674e-13
1.18078e-14
2.947e-16
5.36837e-17
1.83545e-08
1.46305e-07
5.26051e-07
5.44575e-07
2.71587e-07
4.36577e-08
1.27316e-08
9.33047e-09
1.00184e-08
6.41062e-08
6.57262e-07
6.53937e-06
1.27098e-05
0.00275134
0.227232
0.848612
0.96867
0.975905
0.979836
0.944701
0.572505
0.0641832
0.0107467
0.00306313
0.000820358
0.000201847
4.53784e-05
9.55267e-06
1.85567e-06
3.27629e-07
5.24654e-08
7.56663e-09
9.81814e-10
1.28032e-10
2.58431e-11
3.60583e-12
2.51603e-13
1.16876e-14
3.29449e-16
3.85101e-17
)
;

boundaryField
{
    leftWall
    {
        type            zeroGradient;
    }
    rightWall
    {
        type            zeroGradient;
    }
    lowerWall
    {
        type            zeroGradient;
    }
    atmosphere
    {
        type            inletOutlet;
        inletValue      nonuniform List<scalar> 0();
        value           nonuniform List<scalar> 0();
    }
    defaultFaces
    {
        type            empty;
    }
    procBoundary1to0
    {
        type            processor;
        value           nonuniform List<scalar> 
44
(
0.984393
0.944567
0.944567
0.966768
0.999498
0.999975
0.999998
1
1
1
1
1
1
1
1
1
1
1
1
0.999999
1.00002
1.00002
0.999944
0.998687
0.16991
0.00123591
4.44159e-05
2.00731e-06
9.41893e-08
6.92159e-09
3.06266e-09
3.17095e-09
4.93092e-10
2.63458e-10
2.69725e-10
1.23848e-10
6.29228e-11
4.71174e-11
4.69876e-11
7.12338e-11
1.28663e-10
1.99939e-10
2.53706e-10
2.85868e-10
)
;
    }
    procBoundary1to3
    {
        type            processor;
        value           nonuniform List<scalar> 
45
(
2.71714e-10
2.80085e-10
3.32006e-08
2.66579e-08
2.65349e-09
1.36857e-07
1.06549e-06
1.06549e-06
1.06549e-06
3.49956e-07
4.42457e-08
2.77441e-08
2.39196e-08
6.8944e-08
7.71138e-07
7.07607e-06
5.27592e-05
0.000801816
0.0156855
0.328789
0.911598
0.963055
0.968866
0.972862
0.898248
0.415965
0.0282301
0.00814855
0.00227518
0.00059482
0.000151509
3.54237e-05
7.61113e-06
1.50836e-06
2.73359e-07
4.51969e-08
6.7712e-09
9.10007e-10
1.26547e-10
2.50395e-11
3.0672e-12
2.12358e-13
1.05438e-14
3.25042e-16
2.57939e-17
)
;
    }
}


// ************************************************************************* //
