/*--------------------------------*- C++ -*----------------------------------*\
  =========                 |
  \\      /  F ield         | OpenFOAM: The Open Source CFD Toolbox
   \\    /   O peration     | Website:  https://openfoam.org
    \\  /    A nd           | Version:  9
     \\/     M anipulation  |
\*---------------------------------------------------------------------------*/
FoamFile
{
    format      ascii;
    class       volScalarField;
    location    "0.4";
    object      k;
}
// * * * * * * * * * * * * * * * * * * * * * * * * * * * * * * * * * * * * * //

dimensions      [0 2 -2 0 0 0 0];

internalField   nonuniform List<scalar> 
1915
(
0.027943
0.0230367
0.0616469
0.0387691
0.0958477
0.0531344
0.126032
0.0698165
0.152351
0.0849314
0.176274
0.0999951
0.198826
0.115325
0.221423
0.131234
0.245852
0.150153
0.273191
0.174853
0.00901406
0.0148473
0.0164993
0.0171515
0.0165852
0.0168252
0.0174799
0.0184634
0.01931
0.0200344
0.0205015
0.0207477
0.0207988
0.0206742
0.0203913
0.0199678
0.019423
0.0187819
0.0181138
0.0175348
0.0172667
0.0170386
0.0171435
0.016872
0.0169895
0.0168381
0.0166623
0.0166462
0.0165327
0.0169526
0.0168352
0.0168763
0.0168669
0.0162471
0.016517
0.0156886
0.0141784
0.01192
0.00901331
0.00705233
0.00949238
0.0211313
0.0264887
0.0296868
0.0321897
0.0344728
0.0365395
0.0383096
0.0397887
0.0409076
0.0416969
0.042174
0.0423506
0.0422389
0.0418542
0.0412164
0.0403502
0.0392862
0.0380547
0.0367153
0.0353517
0.0339347
0.0324719
0.0311215
0.0299106
0.0285988
0.0275047
0.0264754
0.0255604
0.0247485
0.0239344
0.0231344
0.0223373
0.021474
0.02053
0.0191616
0.0172353
0.0146017
0.0111988
0.00817852
0.0137007
0.028458
0.0355317
0.039977
0.0431857
0.0457643
0.0479192
0.0497057
0.0511786
0.0523033
0.0530887
0.0535374
0.0536529
0.0534425
0.0529195
0.0521043
0.051024
0.0497119
0.0482017
0.0465367
0.0447985
0.0430109
0.0412157
0.0394776
0.0378214
0.0362252
0.0347375
0.033336
0.0320306
0.0307947
0.02959
0.0283765
0.02712
0.025777
0.0242793
0.022465
0.0201604
0.0171635
0.0131781
0.00864718
0.0180822
0.0356817
0.0436702
0.0486698
0.0521796
0.0548274
0.0569169
0.0586009
0.0599697
0.0609967
0.0616841
0.0620282
0.0620275
0.0616861
0.0610157
0.0600362
0.0587752
0.0572668
0.0555457
0.0536502
0.0516645
0.0496315
0.0475965
0.0456023
0.0436792
0.0418406
0.040101
0.0384592
0.0369087
0.0354295
0.0339849
0.0325314
0.0310178
0.0293864
0.0275661
0.0254376
0.0228391
0.0195419
0.0150712
0.00864991
0.0223314
0.0428552
0.0515452
0.05683
0.0604428
0.0630639
0.0650514
0.0666071
0.0678401
0.068724
0.0692645
0.0694579
0.069302
0.0687999
0.0679626
0.0668097
0.0653686
0.0636729
0.0617575
0.059661
0.0574694
0.0552301
0.0529873
0.0507799
0.0486394
0.0465868
0.0446345
0.0427849
0.0410284
0.0393491
0.0377093
0.0360628
0.0343538
0.0325171
0.0304747
0.0281175
0.0252894
0.0217393
0.0168607
0.00859884
0.0268368
0.0502668
0.0595073
0.0648988
0.0684777
0.0710092
0.0728786
0.0743009
0.0753827
0.0760973
0.0764579
0.0764653
0.0761202
0.0754274
0.0743988
0.0730542
0.0714208
0.0695313
0.0674196
0.065129
0.0627444
0.060312
0.0578746
0.0554698
0.053129
0.0508751
0.0487218
0.0466732
0.0447218
0.0428525
0.041029
0.0392047
0.037322
0.0353123
0.0330924
0.0305525
0.027534
0.0237647
0.0185479
0.00879059
0.0319665
0.0583369
0.0678328
0.073136
0.076565
0.078961
0.0807056
0.0820038
0.0829165
0.0834397
0.0835896
0.0833753
0.0828046
0.081887
0.0806371
0.0790757
0.0772296
0.0751304
0.0728105
0.0703218
0.0677437
0.0651197
0.0624906
0.0598924
0.0573557
0.0549037
0.0525514
0.0503043
0.0481575
0.0460973
0.0440896
0.042089
0.0400381
0.0378663
0.0354867
0.0327856
0.0295965
0.0256226
0.0200848
0.00948523
0.038262
0.0677894
0.0769281
0.0818682
0.0850386
0.0872609
0.088866
0.0900281
0.0907473
0.0910388
0.0909271
0.0904359
0.0895854
0.0883934
0.086879
0.0850642
0.0829751
0.0806416
0.0780934
0.0753955
0.0726157
0.0697944
0.0669696
0.0641754
0.0614408
0.0587886
0.0562341
0.0537846
0.0514376
0.0491807
0.046983
0.0448011
0.0425788
0.0402451
0.0377101
0.0348547
0.0315023
0.0273302
0.0214853
0.0101932
0.046813
0.0799833
0.0877355
0.0918805
0.0946496
0.0966146
0.0979963
0.0989329
0.0993666
0.0993159
0.0988259
0.0979444
0.0967108
0.0951554
0.0933025
0.0911745
0.0887948
0.0861887
0.0833836
0.0804578
0.0774613
0.0744308
0.071401
0.0684032
0.0654645
0.0626063
0.059844
0.0571858
0.0546315
0.05217
0.0497735
0.0474018
0.0450005
0.0424988
0.0398047
0.0367938
0.033278
0.0289099
0.0227699
0.0108535
0.0618839
0.0989931
0.102848
0.105339
0.107292
0.108654
0.109469
0.10986
0.109708
0.109027
0.107889
0.106373
0.104547
0.102454
0.100125
0.0975764
0.0948244
0.0918826
0.0887811
0.0855965
0.0823595
0.0791011
0.0758514
0.0726381
0.0694853
0.0664127
0.0634347
0.0605599
0.0577901
0.0551149
0.0525098
0.0499378
0.047347
0.0446677
0.0418063
0.0386332
0.0349496
0.0303848
0.0239596
0.0114695
0.293762
0.217067
0.305614
0.261901
0.314541
0.291825
0.322734
0.30992
0.330706
0.32302
0.338584
0.333869
0.346433
0.343563
0.354315
0.352651
0.362277
0.361389
0.370336
0.369887
0.378198
0.386353
0.394535
0.403208
0.412411
0.420334
0.423841
0.424589
0.423378
0.421528
0.420359
0.420629
0.422486
0.425635
0.429486
0.433274
0.436237
0.4378
0.437646
0.435766
0.432454
0.428265
0.42388
0.160116
0.0918217
0.112497
0.110051
0.208358
0.179493
0.275393
0.296951
0.251376
0.219712
0.237726
0.257236
0.283752
0.256072
0.244372
0.243375
0.306439
0.285634
0.26771
0.254947
0.3231
0.308101
0.291805
0.276304
0.33633
0.325492
0.312296
0.297978
0.347653
0.339678
0.329259
0.317071
0.357838
0.351817
0.343547
0.33339
0.367248
0.362543
0.355852
0.347365
0.376073
0.372216
0.366641
0.359444
0.384448
0.381085
0.376261
0.370013
0.39253
0.389383
0.385024
0.379439
0.40078
0.397501
0.393286
0.388103
0.409699
0.405965
0.401614
0.396541
0.418625
0.414764
0.410468
0.405306
0.424255
0.422668
0.419385
0.414432
0.426918
0.427411
0.426044
0.42293
0.427141
0.429341
0.430007
0.428993
0.426135
0.429304
0.431179
0.431804
0.425311
0.428859
0.431216
0.432519
0.425639
0.42918
0.431493
0.43279
0.427437
0.430782
0.432767
0.433648
0.430507
0.433601
0.435151
0.435431
0.434309
0.437175
0.438296
0.437947
0.438115
0.440817
0.441584
0.440683
0.441147
0.44378
0.444312
0.443003
0.442784
0.445425
0.445863
0.444332
0.442704
0.445406
0.445884
0.444337
0.440926
0.443773
0.444425
0.44306
0.437815
0.440955
0.441968
0.440991
0.434023
0.437709
0.439356
0.439028
0.430394
0.435015
0.437677
0.438317
0.113756
0.134842
0.129547
0.128178
0.127652
0.127107
0.126252
0.125145
0.123629
0.121649
0.119276
0.116619
0.113774
0.1108
0.107726
0.104556
0.101283
0.0978964
0.0944339
0.0909381
0.0874222
0.0839064
0.0804136
0.0769662
0.0735842
0.0702844
0.0670795
0.0639775
0.0609815
0.0580813
0.0552551
0.0524693
0.0496753
0.0468047
0.0437632
0.0404167
0.0365562
0.0317899
0.0250844
0.012057
0.246501
0.213003
0.185573
0.173695
0.165559
0.159342
0.153999
0.149066
0.144461
0.139812
0.135052
0.130272
0.125587
0.121067
0.116731
0.112552
0.108479
0.104458
0.100512
0.0966169
0.0927584
0.0889383
0.0851669
0.0814577
0.0778247
0.0742798
0.0708327
0.06749
0.0642549
0.061116
0.0580541
0.0550392
0.0520255
0.0489468
0.0457087
0.0421736
0.0381235
0.033147
0.0261615
0.012624
0.295999
0.2971
0.279332
0.253257
0.232455
0.214752
0.200413
0.187758
0.17701
0.1674
0.158354
0.149806
0.14187
0.134634
0.128104
0.122212
0.11683
0.111856
0.1072
0.102754
0.0984505
0.0942547
0.0901535
0.086145
0.0822323
0.0784204
0.0747136
0.0711156
0.0676283
0.0642377
0.0609264
0.057667
0.0544173
0.0511134
0.0476615
0.0439212
0.0396669
0.0344702
0.0272027
0.0131775
0.257035
0.275616
0.299803
0.312647
0.308626
0.289407
0.26785
0.246741
0.226476
0.2091
0.193354
0.178803
0.165559
0.153786
0.143518
0.134688
0.127124
0.120598
0.114827
0.109565
0.104643
0.0999559
0.0954467
0.0910841
0.0868526
0.0827446
0.0787562
0.0748854
0.0711313
0.0674749
0.0638997
0.0603805
0.0568778
0.0533307
0.0496461
0.0456823
0.0412071
0.0357771
0.0282219
0.0137243
0.250272
0.254245
0.266556
0.288004
0.313608
0.331845
0.329588
0.313441
0.291027
0.266496
0.24293
0.220785
0.200269
0.181734
0.165549
0.151906
0.140692
0.131536
0.123925
0.117382
0.111546
0.10618
0.10114
0.096342
0.0917359
0.0872926
0.0829942
0.0788295
0.0747913
0.0708538
0.0669996
0.0632048
0.0594321
0.055623
0.0516862
0.047479
0.0427642
0.037085
0.0292322
0.0142706
0.263117
0.255584
0.255205
0.263203
0.280167
0.306038
0.332601
0.348113
0.344936
0.328602
0.303746
0.275523
0.247741
0.221345
0.197319
0.176573
0.159544
0.146029
0.135359
0.126736
0.119485
0.113129
0.107363
0.102004
0.0969414
0.0921084
0.0874629
0.0829782
0.0786349
0.0743985
0.0702493
0.0661628
0.062103
0.0580132
0.0538039
0.0493324
0.0443574
0.0384104
0.030246
0.0148221
0.282891
0.269957
0.261242
0.258505
0.26323
0.276252
0.297906
0.324894
0.35021
0.360831
0.354333
0.33375
0.304279
0.272362
0.240646
0.211352
0.186236
0.166052
0.150458
0.138457
0.12896
0.1211
0.114295
0.108183
0.102543
0.097243
0.0922001
0.0873642
0.0826874
0.0781313
0.0736696
0.069275
0.0649109
0.0605219
0.0560199
0.0512625
0.0460052
0.0397691
0.0312749
0.0153843
0.302927
0.288733
0.276227
0.267024
0.26278
0.264961
0.274659
0.291993
0.316704
0.34394
0.364273
0.368337
0.355222
0.327718
0.29308
0.256858
0.222872
0.193906
0.17105
0.153772
0.140724
0.130542
0.122201
0.115036
0.108637
0.102758
0.0972471
0.0920141
0.0869722
0.082072
0.0772785
0.0725587
0.0678736
0.0631673
0.0583527
0.0532876
0.0477251
0.0411764
0.0323301
0.015962
0.320972
0.307436
0.294021
0.281902
0.272458
0.267177
0.267508
0.274561
0.288907
0.310549
0.336708
0.361221
0.37347
0.368061
0.344491
0.308631
0.268897
0.231071
0.199081
0.174275
0.155847
0.142103
0.131459
0.122782
0.115352
0.108731
0.102653
0.09696
0.0915121
0.0862387
0.0810912
0.0760283
0.0710054
0.0659645
0.0608182
0.0554241
0.0495326
0.0426461
0.033422
0.0165598
0.336662
0.324408
0.311471
0.298611
0.286801
0.277234
0.27127
0.270293
0.275465
0.287496
0.306276
0.330559
0.355831
0.372865
0.37365
0.354358
0.318316
0.276038
0.235432
0.201502
0.17563
0.156655
0.142594
0.131725
0.122862
0.115262
0.108478
0.10224
0.0963308
0.0906471
0.0851197
0.079694
0.0743168
0.068925
0.0634291
0.0576855
0.0514416
0.0441907
0.03456
0.017182
0.350203
0.339299
0.327351
0.31483
0.302368
0.290801
0.281193
0.274809
0.27297
0.276839
0.287129
0.303843
0.326185
0.350616
0.369417
0.373966
0.357867
0.322021
0.277987
0.235842
0.201198
0.17519
0.156272
0.142264
0.131395
0.122484
0.114803
0.107898
0.101452
0.0953108
0.0893724
0.0835623
0.0778139
0.0720558
0.0661939
0.0600819
0.0534629
0.0458211
0.0357525
0.0178323
0.36194
0.352244
0.34138
0.329634
0.317399
0.305221
0.29385
0.284271
0.277674
0.275333
0.278373
0.287492
0.302742
0.323374
0.346353
0.364953
0.370744
0.355811
0.319839
0.274924
0.232572
0.198449
0.173186
0.154871
0.141238
0.130562
0.121731
0.113984
0.106901
0.100241
0.0938534
0.0876344
0.0814976
0.075359
0.0691167
0.0626193
0.0556042
0.0475451
0.0370064
0.0185142
0.372251
0.363554
0.353692
0.342827
0.331196
0.319141
0.307161
0.295957
0.286467
0.279838
0.2773
0.279925
0.288364
0.302609
0.32181
0.343055
0.360123
0.364831
0.349003
0.312334
0.267417
0.2262
0.193757
0.16999
0.152705
0.139687
0.129345
0.120548
0.1127
0.105444
0.098562
0.0919061
0.0853631
0.0788307
0.0721957
0.0652985
0.0578688
0.049368
0.0383267
0.0192301
0.381548
0.373625
0.364604
0.354563
0.343638
0.332033
0.320067
0.308216
0.297163
0.28783
0.28134
0.278883
0.281463
0.289625
0.303222
0.321193
0.340464
0.35496
0.356732
0.338181
0.300327
0.256373
0.217618
0.187815
0.166065
0.150081
0.137776
0.127652
0.118872
0.110924
0.103492
0.0963669
0.0893988
0.0824607
0.075423
0.0681149
0.0602551
0.051291
0.0397158
0.019982
0.3903
0.382898
0.374522
0.365169
0.354902
0.343837
0.332168
0.320207
0.308432
0.297534
0.288441
0.28227
0.280164
0.283026
0.291242
0.304445
0.321298
0.338379
0.349385
0.346528
0.323757
0.284844
0.243125
0.207988
0.181412
0.161928
0.147135
0.135348
0.125436
0.116679
0.10863
0.100999
0.0935862
0.0862315
0.0787839
0.071057
0.062756
0.0533107
0.0411736
0.0207706
0.399102
0.391925
0.383917
0.375046
0.365309
0.354737
0.343439
0.331615
0.319588
0.307858
0.297147
0.288409
0.282758
0.281273
0.284708
0.293228
0.306202
0.321923
0.336295
0.342579
0.333552
0.306112
0.26742
0.229405
0.198535
0.175128
0.157437
0.143658
0.132393
0.122695
0.113954
0.105777
0.0978986
0.0901178
0.0822559
0.0741068
0.0653581
0.0554188
0.0426961
0.0215954
0.408355
0.401229
0.39334
0.384689
0.375252
0.365029
0.354053
0.342428
0.330367
0.318224
0.306542
0.296094
0.28787
0.282971
0.282371
0.286617
0.29559
0.308331
0.322534
0.333099
0.333171
0.317303
0.286469
0.249807
0.216273
0.189298
0.168564
0.152541
0.139719
0.128945
0.119432
0.110665
0.102301
0.0940863
0.085809
0.0772384
0.068041
0.0576015
0.0442759
0.0224546
0.417826
0.410943
0.403174
0.394568
0.385202
0.375096
0.364274
0.352788
0.340747
0.328391
0.316119
0.304538
0.294487
0.28699
0.2831
0.283623
0.288822
0.298213
0.310394
0.322092
0.327353
0.320269
0.298395
0.266378
0.232879
0.203631
0.180185
0.161866
0.147346
0.135377
0.125016
0.115618
0.106748
0.098095
0.0894049
0.0804188
0.070778
0.0598389
0.045901
0.0233447
0.425888
0.420516
0.413365
0.404872
0.395511
0.385334
0.37445
0.36292
0.350826
0.338308
0.325636
0.313278
0.30192
0.292471
0.285963
0.28334
0.285147
0.291272
0.300776
0.311625
0.319394
0.318083
0.303924
0.278116
0.247052
0.217213
0.191819
0.1714
0.155152
0.141912
0.130642
0.120578
0.111187
0.102094
0.0929977
0.0836074
0.0735352
0.0621053
0.0475554
0.0242606
0.430963
0.428122
0.422858
0.415349
0.406218
0.395938
0.384869
0.373105
0.36078
0.34802
0.335005
0.322058
0.30973
0.2988
0.290229
0.285002
0.283851
0.286957
0.293742
0.302765
0.311036
0.313219
0.30478
0.285077
0.257969
0.229201
0.202905
0.180829
0.162964
0.14844
0.136228
0.125473
0.115554
0.106024
0.0965342
0.086757
0.0762724
0.0643692
0.0492184
0.0251952
0.432808
0.431802
0.429102
0.424153
0.416597
0.406794
0.395596
0.383506
0.370799
0.357642
0.344211
0.330744
0.317641
0.305553
0.295345
0.287985
0.284306
0.284706
0.288902
0.295805
0.30334
0.307288
0.302751
0.288104
0.265434
0.239002
0.212909
0.189798
0.170564
0.154822
0.141672
0.130223
0.119777
0.10982
0.0999549
0.0898142
0.0789438
0.0665941
0.0508655
0.0261398
0.433273
0.432862
0.431417
0.428605
0.423848
0.416394
0.406163
0.394063
0.38093
0.367266
0.353299
0.339263
0.325473
0.312432
0.300899
0.291789
0.285975
0.284005
0.285822
0.290614
0.296779
0.301188
0.299165
0.288342
0.269797
0.246375
0.221427
0.197967
0.177717
0.1609
0.146861
0.134736
0.123777
0.113412
0.103196
0.0927215
0.0814993
0.0687393
0.0524688
0.0270842
0.43371
0.433068
0.431822
0.429842
0.426731
0.421827
0.414418
0.403953
0.390937
0.37686
0.362282
0.347588
0.333095
0.319214
0.306574
0.296016
0.288411
0.284394
0.284078
0.286872
0.291447
0.29547
0.294895
0.286792
0.271692
0.251409
0.228236
0.205057
0.184198
0.166508
0.15167
0.138913
0.127471
0.116726
0.10619
0.095419
0.0838865
0.0707615
0.0539976
0.0280165
0.434754
0.433392
0.431672
0.429674
0.427181
0.423655
0.418402
0.41064
0.399754
0.385997
0.37108
0.355668
0.340411
0.325717
0.312114
0.300341
0.291235
0.285474
0.283285
0.284247
0.287235
0.290397
0.290406
0.284163
0.271793
0.254418
0.233309
0.210893
0.189815
0.171491
0.15598
0.142658
0.130776
0.119689
0.108872
0.0978471
0.0860523
0.0726165
0.0554201
0.0289239
0.436434
0.434141
0.431596
0.429078
0.426554
0.423625
0.419616
0.413696
0.405218
0.393576
0.379131
0.363349
0.347294
0.331774
0.317291
0.304484
0.294125
0.286896
0.283093
0.282418
0.2839
0.285978
0.285977
0.280958
0.270691
0.255818
0.236772
0.2154
0.194431
0.175713
0.159676
0.145877
0.133614
0.122232
0.11118
0.0999489
0.0879461
0.074261
0.0567046
0.0297931
0.438393
0.435171
0.431708
0.428454
0.425555
0.422761
0.419452
0.41477
0.4079
0.398285
0.385648
0.37013
0.353494
0.337185
0.321886
0.308193
0.2968
0.288357
0.283194
0.281089
0.281194
0.282133
0.281749
0.277475
0.268819
0.256016
0.238827
0.21859
0.197963
0.17907
0.162663
0.148489
0.135914
0.124293
0.113056
0.101673
0.0895218
0.0756555
0.057821
0.0306106
0.440101
0.436104
0.431823
0.427848
0.424479
0.421609
0.418698
0.414878
0.409197
0.400865
0.389587
0.375299
0.358693
0.341711
0.325677
0.311237
0.299011
0.289595
0.283316
0.279999
0.278884
0.278742
0.277785
0.273894
0.266484
0.255346
0.239691
0.220526
0.200377
0.181492
0.164867
0.150426
0.137619
0.12582
0.114456
0.102978
0.0907401
0.0767652
0.0587423
0.0313634
0.441052
0.436533
0.431664
0.427139
0.423382
0.420403
0.41774
0.414527
0.409713
0.402302
0.391783
0.378546
0.362288
0.344974
0.328414
0.313402
0.300547
0.290388
0.28323
0.278915
0.276748
0.275627
0.274059
0.270364
0.263958
0.254098
0.239567
0.221299
0.201678
0.182942
0.166238
0.151641
0.138685
0.126776
0.115344
0.10383
0.0915712
0.0775628
0.0594462
0.0320398
0.440945
0.436208
0.43105
0.426227
0.422251
0.419216
0.416714
0.413882
0.409597
0.402776
0.392723
0.379847
0.364008
0.346748
0.329902
0.314524
0.301242
0.290561
0.282751
0.27765
0.274609
0.272649
0.270527
0.266979
0.261429
0.25246
0.238596
0.220993
0.201892
0.183408
0.166751
0.152107
0.139088
0.127139
0.115701
0.104212
0.0919961
0.0780296
0.0599161
0.0326297
0.439828
0.43518
0.430033
0.425167
0.421142
0.418105
0.41567
0.412967
0.408847
0.402199
0.392321
0.379582
0.364131
0.346971
0.330072
0.314513
0.300987
0.289989
0.281741
0.276062
0.27234
0.269719
0.267187
0.263852
0.259032
0.250492
0.236826
0.219661
0.201054
0.182903
0.166405
0.151818
0.138823
0.126905
0.115523
0.104117
0.0920074
0.0781567
0.0601422
0.0331249
0.438171
0.433879
0.428979
0.424246
0.42026
0.417199
0.414685
0.411837
0.407517
0.400669
0.390672
0.377876
0.362735
0.345893
0.328953
0.313326
0.29972
0.288594
0.280112
0.274057
0.269853
0.266785
0.264075
0.261107
0.256815
0.248129
0.234243
0.217356
0.199223
0.181468
0.165226
0.150794
0.137906
0.126087
0.11482
0.103554
0.0916103
0.0779445
0.0601213
0.0335201
0.436847
0.433101
0.428562
0.423981
0.419961
0.416713
0.41388
0.410582
0.405725
0.398368
0.387987
0.375102
0.360117
0.343353
0.326406
0.310895
0.297403
0.286346
0.277825
0.271592
0.267117
0.263862
0.261286
0.258864
0.254722
0.245226
0.230837
0.214155
0.196485
0.179173
0.163269
0.149076
0.13637
0.124715
0.113618
0.102545
0.0908219
0.0774041
0.0598579
0.0338124
0.436998
0.433889
0.429657
0.425036
0.420689
0.416909
0.413389
0.409268
0.403496
0.395254
0.384309
0.371131
0.355985
0.339104
0.322403
0.307226
0.294058
0.283267
0.274899
0.268687
0.264183
0.261069
0.259005
0.25719
0.252533
0.241586
0.226621
0.210155
0.192944
0.176109
0.160606
0.146725
0.134267
0.122833
0.111959
0.101125
0.0896702
0.076555
0.0593617
0.0340009
)
;

boundaryField
{
    leftWall
    {
        type            kqRWallFunction;
        value           nonuniform List<scalar> 0();
    }
    rightWall
    {
        type            kqRWallFunction;
        value           nonuniform List<scalar> 
43
(
0.00705233
0.00817852
0.00864718
0.00864991
0.00859884
0.00879059
0.00948523
0.0101932
0.0108535
0.0114695
0.012057
0.012624
0.0131775
0.0137243
0.0142706
0.0148221
0.0153843
0.015962
0.0165598
0.017182
0.0178323
0.0185142
0.0192301
0.019982
0.0207706
0.0215954
0.0224546
0.0233447
0.0242606
0.0251952
0.0261398
0.0270842
0.0280165
0.0289239
0.0297931
0.0306106
0.0313634
0.0320398
0.0326297
0.0331249
0.0335201
0.0338124
0.0340009
)
;
    }
    lowerWall
    {
        type            kqRWallFunction;
        value           nonuniform List<scalar> 
66
(
0.027943
0.0230367
0.0230367
0.0387691
0.0531344
0.0698165
0.0849314
0.0999951
0.115325
0.131234
0.150153
0.174853
0.160116
0.0918217
0.112497
0.110051
0.00901406
0.00949238
0.0137007
0.0180822
0.0223314
0.0268368
0.0319665
0.038262
0.046813
0.0618839
0.00901406
0.0148473
0.0164993
0.0171515
0.0165852
0.0168252
0.0174799
0.0184634
0.01931
0.0200344
0.0205015
0.0207477
0.0207988
0.0206742
0.0203913
0.0199678
0.019423
0.0187819
0.0181138
0.0175348
0.0172667
0.0170386
0.0171435
0.016872
0.0169895
0.0168381
0.0166623
0.0166462
0.0165327
0.0169526
0.0168352
0.0168763
0.0168669
0.0162471
0.016517
0.0156886
0.0141784
0.01192
0.00901331
0.00705233
)
;
    }
    atmosphere
    {
        type            inletOutlet;
        inletValue      nonuniform List<scalar> 0();
        value           nonuniform List<scalar> 0();
    }
    defaultFaces
    {
        type            empty;
    }
    procBoundary1to0
    {
        type            processor;
        value           nonuniform List<scalar> 
44
(
0.0305056
0.0792366
0.114693
0.14311
0.168545
0.192147
0.214495
0.236049
0.257081
0.277245
0.294152
0.306344
0.315421
0.323304
0.330774
0.338108
0.345472
0.352986
0.360731
0.368748
0.378485
0.378485
0.386702
0.395328
0.404956
0.414903
0.419904
0.421135
0.420202
0.41777
0.415219
0.413734
0.413875
0.415658
0.418724
0.422438
0.42604
0.428826
0.430254
0.430018
0.428085
0.42469
0.420258
0.415371
)
;
    }
    procBoundary1to3
    {
        type            processor;
        value           nonuniform List<scalar> 
45
(
0.420044
0.427808
0.433884
0.438072
0.440076
0.439853
0.437364
0.433192
0.428099
0.422886
0.418018
0.413306
0.407916
0.400803
0.39131
0.379442
0.365754
0.350187
0.333301
0.317086
0.302436
0.289786
0.279449
0.271423
0.265446
0.261203
0.258643
0.257462
0.255957
0.249779
0.237018
0.221654
0.205464
0.188712
0.172379
0.157329
0.143815
0.131659
0.120496
0.109888
0.0993364
0.0881903
0.0754239
0.058648
0.034086
)
;
    }
}


// ************************************************************************* //
