/*--------------------------------*- C++ -*----------------------------------*\
  =========                 |
  \\      /  F ield         | OpenFOAM: The Open Source CFD Toolbox
   \\    /   O peration     | Website:  https://openfoam.org
    \\  /    A nd           | Version:  9
     \\/     M anipulation  |
\*---------------------------------------------------------------------------*/
FoamFile
{
    format      ascii;
    class       volScalarField;
    location    "0.4";
    object      p;
}
// * * * * * * * * * * * * * * * * * * * * * * * * * * * * * * * * * * * * * //

dimensions      [1 -1 -2 0 0 0 0];

internalField   nonuniform List<scalar> 
1915
(
1352
1377.01
1285.02
1318.92
1236.09
1275.13
1210.1
1249.3
1188.3
1238.86
1164.69
1231.28
1130.26
1213.67
1075.58
1170.6
989.082
1074.27
851.367
872.042
7.32441
7.32073
7.31686
7.31179
7.30664
7.3022
7.29773
7.29392
7.29078
7.28813
7.28567
7.28304
7.27992
7.27604
7.27122
7.2653
7.25819
7.24986
7.24033
7.2297
7.2181
7.20572
7.19278
7.17946
7.16585
7.15264
7.13999
7.12765
7.11596
7.10509
7.09512
7.08614
7.07823
7.07137
7.06557
7.06083
7.05716
7.05457
7.05302
7.05242
7.2785
7.27539
7.27258
7.2686
7.26314
7.25702
7.25132
7.24659
7.24273
7.23946
7.23641
7.23327
7.22976
7.22561
7.22063
7.21465
7.20758
7.19938
7.19006
7.17972
7.16847
7.1565
7.14395
7.13103
7.11824
7.10536
7.09257
7.08037
7.06884
7.05811
7.04831
7.03949
7.03166
7.02484
7.019
7.01415
7.01029
7.00748
7.00573
7.00518
7.23368
7.22935
7.22664
7.2224
7.21687
7.2105
7.20438
7.19907
7.19455
7.1906
7.18692
7.18323
7.17927
7.17479
7.16959
7.16351
7.15645
7.14836
7.13925
7.12919
7.11828
7.10667
7.09454
7.08207
7.06955
7.05703
7.04462
7.03266
7.02129
7.01066
7.0009
6.99208
6.98424
6.97737
6.97146
6.9665
6.96249
6.95953
6.95769
6.95734
7.18972
7.18319
7.17897
7.17445
7.16879
7.16254
7.15648
7.15105
7.14629
7.142
7.13795
7.13391
7.12965
7.12492
7.11956
7.11339
7.10631
7.09827
7.08926
7.07935
7.06863
7.05724
7.04535
7.03314
7.02083
7.00854
6.9964
6.98461
6.97335
6.96276
6.95296
6.94406
6.93611
6.92911
6.92307
6.91796
6.91381
6.91073
6.90893
6.90868
7.14533
7.13644
7.13014
7.12513
7.11953
7.11362
7.10791
7.10271
7.09803
7.09373
7.0896
7.08545
7.08106
7.07622
7.07076
7.06453
7.05743
7.0494
7.04043
7.03058
7.01991
7.00857
6.99673
6.98457
6.9723
6.96006
6.94799
6.93628
6.92504
6.91442
6.90453
6.89548
6.88733
6.88013
6.87387
6.86858
6.86429
6.86117
6.85948
6.85935
7.09931
7.08822
7.07994
7.07465
7.0694
7.06407
7.05894
7.05418
7.04983
7.04573
7.04173
7.03764
7.03326
7.02841
7.02292
7.01667
7.00956
7.00153
6.99257
6.98272
6.97204
6.96063
6.94869
6.9364
6.92398
6.91161
6.89945
6.88767
6.87639
6.86569
6.85566
6.8464
6.83796
6.83043
6.82386
6.81832
6.81391
6.81081
6.80932
6.80938
7.04996
7.03757
7.02792
7.02307
7.01856
7.01409
7.00973
7.00559
7.00169
6.99794
6.99421
6.99032
6.98607
6.98131
6.97587
6.96963
6.96253
6.95449
6.94551
6.93561
6.92484
6.91329
6.90115
6.88862
6.87592
6.86326
6.85086
6.83888
6.82744
6.81658
6.80636
6.7968
6.78798
6.78001
6.77302
6.76717
6.76264
6.75962
6.75836
6.75859
6.99428
6.98344
6.97378
6.97046
6.96723
6.96388
6.96045
6.95701
6.95366
6.95034
6.94697
6.94339
6.9394
6.93482
6.92951
6.92335
6.91627
6.90821
6.89915
6.88913
6.8782
6.86645
6.85405
6.84121
6.82815
6.81511
6.80232
6.78998
6.77823
6.76709
6.75655
6.74661
6.73732
6.72881
6.72131
6.71511
6.71045
6.70755
6.70653
6.70695
6.92484
6.92457
6.91793
6.91737
6.91581
6.91379
6.91134
6.90861
6.9058
6.90295
6.9
6.89681
6.89317
6.88889
6.8838
6.87778
6.87075
6.86265
6.85347
6.84326
6.83208
6.82005
6.80734
6.79415
6.78069
6.76719
6.7539
6.74105
6.72879
6.71716
6.70615
6.69571
6.68585
6.67675
6.66871
6.66213
6.65735
6.65455
6.65378
6.65439
6.82734
6.85837
6.86274
6.86516
6.86505
6.86435
6.8628
6.8606
6.85825
6.85582
6.8533
6.85055
6.84734
6.84344
6.83866
6.83285
6.82593
6.81782
6.8085
6.79805
6.78654
6.77413
6.76102
6.7474
6.73349
6.71949
6.70561
6.69209
6.67911
6.66676
6.65505
6.64395
6.63346
6.62374
6.61517
6.60822
6.60331
6.60062
6.60007
6.60085
632.379
437.439
461.842
311.395
375.906
293.618
311.614
248.102
250.517
195.31
195.856
152.667
146.607
115.52
100.511
79.8546
56.6566
45.0864
14.0862
11.1486
-23.3102
-59.8047
-81.1224
-43.7063
-8.45702
-4.02513
-3.80624
-3.96943
-4.08627
-4.16813
-4.24636
-4.3251
-4.40361
-4.48198
-4.56058
-4.63981
-4.72009
-4.80189
-4.88571
-4.97212
-5.06175
-5.15367
-5.24686
-87.7169
2.63988
5.61297
6.01805
1.43987
-8.07019
5.40675
6.63295
119.759
29.7035
1.11261
3.14649
141.869
60.6541
21.0002
0.967707
123.137
66.827
34.5329
12.9297
102.375
61.7079
34.9883
17.2606
80.5297
50.4689
28.3545
13.276
56.2738
34.9383
17.9193
5.54313
30.7691
16.9807
5.15
-4.05644
4.90735
-2.23582
-9.08002
-14.8799
-21.3618
-22.1418
-24.1103
-26.431
-49.551
-43.3741
-39.8667
-38.385
-74.9165
-66.0559
-57.2592
-51.3725
-61.6482
-72.2654
-69.9913
-64.4856
-16.7241
-31.7347
-46.6519
-59.9854
-4.92973
-6.8992
-12.0725
-22.6081
-3.98997
-4.27328
-4.97036
-6.02528
-4.06455
-4.15036
-4.30212
-4.52287
-4.19631
-4.29048
-4.38496
-4.47317
-4.27967
-4.38651
-4.49364
-4.58928
-4.35357
-4.45899
-4.56604
-4.6701
-4.42875
-4.5307
-4.63373
-4.73601
-4.50473
-4.604
-4.70372
-4.80252
-4.5814
-4.67864
-4.77565
-4.87109
-4.65896
-4.75471
-4.8495
-4.94204
-4.73761
-4.83231
-4.9255
-5.01595
-4.81772
-4.91188
-5.00416
-5.09342
-4.89983
-4.99409
-5.08624
-5.17503
-4.9846
-5.07957
-5.17226
-5.26101
-5.07259
-5.16868
-5.26217
-5.35099
-5.16444
-5.26159
-5.35561
-5.44436
-5.25979
-5.35822
-5.4524
-5.54084
-5.3556
-5.45664
-5.55175
-5.63995
6.65077
6.77414
6.81028
6.81468
6.81544
6.81617
6.81519
6.813
6.81081
6.80866
6.80651
6.8042
6.80146
6.79802
6.79363
6.78812
6.78137
6.7733
6.76388
6.75316
6.74126
6.72837
6.71473
6.70056
6.68607
6.67146
6.65688
6.64256
6.62868
6.61538
6.60273
6.59078
6.57955
6.56922
6.56016
6.55289
6.54785
6.54523
6.54487
6.54582
6.80945
6.75375
6.7759
6.76781
6.7669
6.77028
6.76988
6.7667
6.76398
6.76169
6.75966
6.7577
6.75541
6.75244
6.74848
6.74332
6.73682
6.72888
6.7194
6.70844
6.69613
6.68268
6.66835
6.65344
6.63819
6.62278
6.60736
6.59209
6.57715
6.56268
6.54887
6.53586
6.52377
6.51281
6.50332
6.49579
6.49064
6.48805
6.48783
6.48894
6.78107
6.87528
6.81413
6.73338
6.72074
6.7272
6.72836
6.72348
6.71945
6.71617
6.71361
6.71167
6.70963
6.707
6.70342
6.69863
6.69244
6.68469
6.67525
6.66412
6.65141
6.63733
6.62219
6.60633
6.59007
6.57361
6.55712
6.54072
6.52454
6.50876
6.49359
6.47934
6.46627
6.45464
6.44478
6.43705
6.43181
6.42921
6.42909
6.43034
-4.50248
5.88294
6.94616
6.80131
6.7233
6.70277
6.69343
6.68322
6.67799
6.67359
6.66964
6.66703
6.66476
6.66207
6.6586
6.65404
6.64816
6.64067
6.63137
6.62016
6.6071
6.59238
6.57632
6.55934
6.54179
6.52399
6.50612
6.48833
6.47073
6.45346
6.4368
6.42116
6.40698
6.39464
6.38442
6.37655
6.37122
6.36857
6.36852
6.36992
-5.64449
-8.58691
0.847619
6.4652
6.80913
6.78873
6.69755
6.65012
6.63754
6.63389
6.62887
6.62518
6.62196
6.61842
6.61442
6.60969
6.60392
6.59671
6.58766
6.5765
6.56318
6.54784
6.53079
6.51251
6.49344
6.47398
6.4544
6.43489
6.41559
6.39665
6.37836
6.36123
6.34585
6.33272
6.32212
6.31411
6.3087
6.30598
6.30598
6.30754
1.56548
-7.46397
-9.55746
-6.5346
4.35836
6.90427
6.72962
6.66387
6.62442
6.60092
6.59124
6.58723
6.5829
6.57722
6.57158
6.56592
6.5598
6.55272
6.544
6.53305
6.5196
6.50368
6.48561
6.46588
6.44506
6.42365
6.40201
6.38042
6.3591
6.33824
6.31817
6.29945
6.28278
6.26878
6.25775
6.24958
6.24405
6.24125
6.24131
6.24304
1.43864
-6.33078
-10.3983
-13.3218
-10.3519
-2.33085
5.91983
6.75039
6.69855
6.6104
6.56708
6.55509
6.5486
6.53978
6.53098
6.52324
6.51608
6.50874
6.50028
6.48969
6.47628
6.45987
6.44075
6.41946
6.39667
6.37302
6.349
6.32498
6.30126
6.27817
6.25612
6.2357
6.21765
6.2027
6.19114
6.18273
6.17706
6.17416
6.17431
6.17625
-4.21426
-10.8545
-13.6643
-15.2394
-14.7791
-13.6098
-8.23521
2.91794
6.69543
6.61041
6.56491
6.54447
6.52276
6.5068
6.49355
6.48231
6.4731
6.46497
6.45655
6.44636
6.43315
6.41638
6.3962
6.37323
6.34825
6.32207
6.29535
6.26854
6.24207
6.2164
6.1921
6.16982
6.1503
6.13429
6.12208
6.11332
6.10745
6.10448
6.10477
6.10697
-11.8015
-17.5266
-20.0261
-20.4241
-19.0204
-17.6382
-15.7479
-10.8324
-2.58208
5.77916
6.58844
6.58155
6.53001
6.48912
6.4614
6.4441
6.43139
6.42164
6.41296
6.40311
6.3902
6.37317
6.35195
6.32717
6.29977
6.27075
6.24097
6.21104
6.18145
6.15286
6.12602
6.10166
6.08054
6.06333
6.05032
6.04109
6.03496
6.03195
6.03246
6.03497
-20.3048
-24.7504
-26.9218
-27.2221
-25.7921
-23.2033
-20.2863
-17.2898
-14.2571
-6.62489
4.17496
6.54044
6.5552
6.49008
6.44306
6.41153
6.3921
6.37925
6.36968
6.36009
6.3475
6.33022
6.30793
6.2812
6.25113
6.21893
6.18572
6.15229
6.11926
6.08741
6.05771
6.03103
6.00811
5.98955
5.97557
5.96571
5.95927
5.95626
5.95708
5.95999
-29.3164
-32.1614
-33.6217
-33.7437
-32.5868
-30.1961
-26.8155
-22.8186
-19.5478
-15.9614
-8.68165
1.61191
6.28158
6.46806
6.43039
6.38899
6.35877
6.3393
6.32732
6.31751
6.3052
6.28759
6.26405
6.23518
6.20215
6.16642
6.12937
6.09204
6.05523
6.01982
5.98696
5.95769
5.93275
5.91263
5.89747
5.88683
5.88003
5.8771
5.87835
5.88172
-38.4627
-39.4389
-39.9204
-39.6557
-38.5772
-36.5959
-33.6729
-29.7615
-25.3375
-21.1575
-16.9063
-10.4256
-0.220578
5.98347
6.35982
6.36389
6.33161
6.30554
6.28805
6.27627
6.26357
6.24534
6.22019
6.18882
6.15252
6.11289
6.07158
6.02993
5.98898
5.94973
5.91345
5.88132
5.85412
5.83221
5.81566
5.80408
5.79687
5.79411
5.79592
5.79983
-47.912
-46.4674
-45.6236
-44.8015
-43.6602
-41.9666
-39.5583
-36.2838
-32.121
-27.2746
-22.3422
-17.9787
-11.5686
-0.86502
5.76206
6.25428
6.2954
6.27583
6.25529
6.23883
6.22348
6.20357
6.1762
6.14177
6.10177
6.05786
6.01189
5.9655
5.92003
5.87667
5.83673
5.80152
5.77182
5.7479
5.72974
5.71706
5.70941
5.7069
5.70939
5.71393
-58.1902
-53.8114
-50.9923
-49.1685
-47.7274
-46.2183
-44.2798
-41.6638
-38.2185
-33.8648
-28.716
-23.5092
-18.8623
-11.8074
-0.488326
5.63885
6.15864
6.23209
6.22365
6.20572
6.18593
6.1623
6.13167
6.09348
6.04921
6.00062
5.94961
5.8981
5.84779
5.80004
5.75624
5.71774
5.68535
5.65921
5.63927
5.62536
5.61724
5.61506
5.61836
5.62361
-62.0112
-59.946
-56.3683
-53.2752
-51.0363
-49.3634
-47.761
-45.7897
-43.1324
-39.5919
-35.0856
-29.7685
-24.3324
-19.2525
-11.1049
0.522817
5.57035
6.09452
6.17728
6.16891
6.14744
6.12006
6.08549
6.04303
5.99393
5.94021
5.88381
5.8269
5.77147
5.71911
5.67128
5.62936
5.59413
5.56564
5.54378
5.52854
5.51994
5.51815
5.52237
5.52839
-35.6087
-50.1961
-55.3953
-55.8226
-53.9149
-51.8527
-50.1876
-48.624
-46.741
-44.1051
-40.4831
-35.8234
-30.2943
-24.6063
-19.0021
-9.46695
1.98231
5.56283
6.06514
6.11758
6.1005
6.0721
6.03531
5.98894
5.93474
5.87542
5.81334
5.75085
5.69015
5.63303
5.58106
5.53563
5.49748
5.46656
5.44273
5.42614
5.41706
5.41573
5.42092
5.42778
-9.59239
-17.9562
-30.1365
-45.0157
-51.2558
-52.8586
-51.9067
-50.4943
-49.099
-47.2963
-44.6646
-40.9148
-36.0156
-30.189
-24.2667
-17.9116
-6.50677
3.6148
5.57681
6.00252
6.03379
6.01416
5.97816
5.92934
5.87013
5.80481
5.73682
5.6687
5.60273
5.54083
5.48468
5.43571
5.39463
5.36131
5.33555
5.31767
5.30815
5.3073
5.31352
5.32125
-5.01107
-5.91053
-8.86175
-16.0675
-28.3696
-43.2221
-49.5377
-51.1759
-50.55
-49.3141
-47.5546
-44.8436
-40.8463
-35.5875
-29.4719
-23.4404
-15.417
-2.34266
4.72301
5.69565
5.92323
5.94044
5.91108
5.86149
5.79801
5.72666
5.65265
5.57899
5.50793
5.44141
5.38118
5.32874
5.2848
5.24916
5.22161
5.20256
5.19269
5.19237
5.19964
5.20827
-4.59251
-4.80179
-5.23441
-6.06046
-8.90827
-16.635
-31.2826
-44.4915
-49.7263
-50.3412
-49.3557
-47.5746
-44.6043
-40.1912
-34.5132
-28.27
-21.9782
-11.0186
1.6341
5.0702
5.74797
5.8438
5.82823
5.78118
5.71545
5.63886
5.55899
5.48007
5.4043
5.33352
5.2695
5.21379
5.16715
5.12938
5.10025
5.08024
5.07016
5.07041
5.07875
5.08829
-4.6787
-4.77419
-4.88895
-5.08525
-5.4858
-6.38363
-10.2188
-21.2231
-38.3997
-47.6342
-50.0448
-49.3418
-47.2858
-43.8214
-38.8538
-32.7642
-26.4401
-18.6603
-4.58194
4.00677
5.35275
5.69578
5.72239
5.68417
5.61895
5.53869
5.4537
5.37007
5.29026
5.21584
5.14853
5.08993
5.04089
5.00126
4.97083
4.95012
4.93999
4.94089
4.95031
4.96078
-4.77485
-4.87489
-4.96266
-5.04706
-5.14754
-5.3388
-5.78634
-7.35781
-15.3769
-32.5516
-46.128
-49.9859
-49.1302
-46.5016
-42.3459
-36.7717
-30.4449
-23.8349
-12.1461
1.03298
4.67889
5.47214
5.58207
5.56424
5.50432
5.42291
5.3343
5.24698
5.16407
5.08694
5.01712
4.95623
4.90525
4.86414
4.83275
4.81164
4.80168
4.8033
4.81382
4.8252
-4.8417
-4.94709
-5.04492
-5.13084
-5.20269
-5.269
-5.3688
-5.58436
-6.3811
-12.2183
-29.8502
-45.7134
-49.9496
-48.4663
-44.9931
-40.0432
-33.9583
-27.5561
-18.9754
-3.68699
3.91827
5.10467
5.39156
5.41607
5.36769
5.28836
5.19825
5.10874
5.02401
4.94535
4.87405
4.81173
4.75947
4.71738
4.68546
4.6643
4.65472
4.65717
4.66879
4.68109
-4.90417
-5.0062
-5.10268
-5.19197
-5.27235
-5.33963
-5.39624
-5.44465
-5.58495
-6.11683
-11.2429
-30.0904
-46.6079
-49.714
-46.9923
-42.544
-36.8826
-30.6536
-23.6512
-9.51067
2.1608
4.53739
5.15462
5.2361
5.20466
5.1318
5.04306
4.95338
4.86846
4.78972
4.71823
4.65555
4.60285
4.56044
4.52849
4.50766
4.49871
4.50208
4.51483
4.52802
-4.96865
-5.06607
-5.15746
-5.24269
-5.3221
-5.39452
-5.45903
-5.50896
-5.56349
-5.62907
-5.94073
-12.3047
-33.9658
-48.2497
-48.4863
-44.3743
-39.1004
-33.0702
-26.5438
-15.2062
-0.751428
3.86503
4.85551
5.01456
5.01179
4.95076
4.86662
4.77924
4.69608
4.61894
4.54872
4.48694
4.43481
4.39284
4.36144
4.34135
4.3333
4.33773
4.3516
4.36565
-5.03599
-5.1291
-5.21558
-5.29576
-5.37015
-5.43931
-5.50404
-5.56322
-5.62047
-5.66294
-5.698
-6.27918
-17.2505
-40.635
-48.7058
-45.7303
-40.6142
-34.8275
-28.66
-19.3916
-3.75397
3.24854
4.48246
4.75052
4.78735
4.743
4.66729
4.58503
4.50592
4.43225
4.36491
4.30539
4.25493
4.21426
4.18405
4.16516
4.15828
4.16389
4.17889
4.19375
-5.10715
-5.1966
-5.27849
-5.35331
-5.42174
-5.48464
-5.54389
-5.60048
-5.65696
-5.70666
-5.72294
-5.76574
-7.5236
-26.7044
-46.1008
-46.6922
-41.5534
-35.9093
-30.036
-22.0485
-6.67887
2.37342
4.03215
4.45476
4.53195
4.50775
4.44411
4.37005
4.29741
4.22919
4.16643
4.1106
4.06299
4.02454
3.99622
3.97899
3.97358
3.98049
3.9966
4.01221
-5.18284
-5.26951
-5.34722
-5.41611
-5.47717
-5.53222
-5.58383
-5.63471
-5.68562
-5.73556
-5.76922
-5.76563
-5.97433
-14.1181
-39.2409
-46.385
-41.9981
-36.3516
-30.7157
-23.5825
-9.20384
1.16849
3.54167
4.1243
4.24485
4.24444
4.19692
4.13414
4.07047
4.00971
3.95324
3.90256
3.85898
3.82372
3.79801
3.78295
3.77929
3.78763
3.80482
3.82111
-5.2633
-5.34767
-5.42151
-5.48437
-5.53711
-5.58277
-5.6258
-5.66958
-5.7156
-5.76157
-5.79502
-5.79334
-5.93638
-8.47503
-29.4944
-44.2324
-41.8831
-36.1684
-30.6779
-24
-10.8847
-0.00277539
3.03187
3.7631
3.92745
3.95452
3.92648
3.87806
3.82572
3.77436
3.7258
3.6816
3.64319
3.61205
3.58968
3.57728
3.57568
3.58557
3.60381
3.62068
-5.3483
-5.43035
-5.50029
-5.55734
-5.60217
-5.63815
-5.67132
-5.70711
-5.74662
-5.78825
-5.82364
-5.83133
-5.8662
-6.22253
-20.3635
-40.6972
-41.1347
-35.4501
-30.0056
-23.5155
-11.3724
-0.816862
2.57747
3.38716
3.5852
3.64039
3.63482
3.60343
3.56458
3.52436
3.48508
3.44846
3.41621
3.39005
3.37165
3.36235
3.36312
3.37474
3.39402
3.41139
-5.43722
-5.51677
-5.58268
-5.63419
-5.67197
-5.69909
-5.72154
-5.74672
-5.778
-5.81264
-5.84628
-5.85643
-5.84071
-5.93008
-14.6766
-36.8821
-39.8688
-34.3482
-28.87
-22.4282
-10.9218
-1.20057
2.18273
3.00202
3.224
3.30685
3.32531
3.31269
3.28905
3.26141
3.23244
3.20429
3.179
3.15849
3.14456
3.13873
3.14218
3.15574
3.17607
3.19387
-5.52945
-5.60634
-5.66801
-5.71372
-5.74433
-5.76277
-5.77437
-5.78705
-5.80735
-5.83415
-5.86311
-5.87193
-5.84834
-6.00494
-11.7568
-33.4515
-38.3027
-32.8436
-27.2062
-20.6093
-9.6394
-1.26337
1.83382
2.61806
2.85492
2.96196
3.00292
3.00924
3.00164
2.98739
2.96947
2.95052
2.93286
2.91844
2.90922
2.9071
2.91356
2.92933
2.9508
2.96893
-5.62459
-5.69845
-5.75521
-5.79412
-5.81627
-5.82483
-5.82501
-5.82459
-5.83213
-5.8506
-5.87663
-5.88366
-5.86894
-6.0861
-11.5767
-31.6086
-36.3403
-30.6241
-24.7904
-17.7694
-7.65874
-1.13643
1.51886
2.24324
2.4882
2.61385
2.67336
2.69722
2.70535
2.70444
2.6979
2.6888
2.67931
2.67118
2.66668
2.66839
2.67816
2.69644
2.71913
2.73751
-5.72198
-5.79206
-5.84305
-5.87431
-5.88717
-5.88505
-5.87324
-5.85911
-5.85277
-5.86246
-5.88091
-5.88328
-5.89781
-6.21811
-12.5677
-30.1669
-33.4328
-27.6317
-21.5669
-13.8834
-5.48951
-0.811138
1.2467
1.88299
2.13005
2.268
2.34113
2.38059
2.40348
2.41528
2.41999
2.42096
2.41987
2.41816
2.41849
2.42414
2.43733
2.45815
2.48203
2.50061
)
;

boundaryField
{
    leftWall
    {
        type            calculated;
        value           nonuniform List<scalar> 0();
    }
    rightWall
    {
        type            calculated;
        value           nonuniform List<scalar> 
43
(
7.05242
7.00518
6.95734
6.90868
6.85935
6.80938
6.75859
6.70695
6.65439
6.60085
6.54582
6.48894
6.43034
6.36992
6.30754
6.24304
6.17625
6.10697
6.03497
5.95999
5.88172
5.79983
5.71393
5.62361
5.52839
5.42778
5.32125
5.20827
5.08829
4.96078
4.8252
4.68109
4.52802
4.36565
4.19375
4.01221
3.82111
3.62068
3.41139
3.19387
2.96893
2.73751
2.50061
)
;
    }
    lowerWall
    {
        type            calculated;
        value           nonuniform List<scalar> 
66
(
1375.5
1400.52
1377.01
1318.92
1275.13
1249.3
1238.86
1231.28
1213.67
1170.6
1074.27
872.042
-64.1945
2.66385
5.63693
6.04202
7.32441
7.2785
7.23368
7.18972
7.14533
7.09931
7.04996
6.99428
6.92484
6.82734
7.34796
7.34427
7.34041
7.33533
7.33019
7.32575
7.32128
7.31747
7.31433
7.31168
7.30922
7.30658
7.30346
7.29959
7.29477
7.28884
7.28173
7.27341
7.26387
7.25325
7.24164
7.22926
7.21633
7.20301
7.18939
7.17619
7.16353
7.15119
7.13951
7.12863
7.11866
7.10969
7.10177
7.09491
7.08912
7.08438
7.0807
7.07811
7.07657
7.07597
)
;
    }
    atmosphere
    {
        type            calculated;
        value           nonuniform List<scalar> 0();
    }
    defaultFaces
    {
        type            empty;
    }
    procBoundary1to0
    {
        type            processor;
        value           nonuniform List<scalar> 
44
(
1332.5
1281.19
1241.66
1205.44
1167.45
1124.3
1071.64
1003.77
914.34
799.42
663.006
538.246
444.109
365.748
294.344
229.418
170.104
114.904
62.6672
11.2114
-29.9425
-29.9425
-72.4974
-74.132
-22.4372
-4.77894
-3.65813
-3.72482
-3.87828
-3.97469
-4.05649
-4.13865
-4.22051
-4.30132
-4.38122
-4.46067
-4.54018
-4.62029
-4.70145
-4.78403
-4.8683
-4.95436
-5.0431
-5.13501
)
;
    }
    procBoundary1to3
    {
        type            processor;
        value           nonuniform List<scalar> 
45
(
-5.34242
-5.45142
-5.55467
-5.65235
-5.74066
-5.82036
-5.88545
-5.92962
-5.95304
-5.95746
-5.94619
-5.92402
-5.89782
-5.87807
-5.87434
-5.88396
-5.88785
-5.95826
-6.76083
-15.0452
-29.6297
-29.8511
-24.0351
-17.7759
-9.54461
-3.61034
-0.335783
1.04871
1.54608
1.78394
1.92691
2.00983
2.06295
2.0993
2.12313
2.13875
2.14934
2.15627
2.161
2.16652
2.17639
2.19281
2.21565
2.24025
2.25886
)
;
    }
}


// ************************************************************************* //
