/*--------------------------------*- C++ -*----------------------------------*\
  =========                 |
  \\      /  F ield         | OpenFOAM: The Open Source CFD Toolbox
   \\    /   O peration     | Website:  https://openfoam.org
    \\  /    A nd           | Version:  9
     \\/     M anipulation  |
\*---------------------------------------------------------------------------*/
FoamFile
{
    format      ascii;
    class       volScalarField;
    location    "20";
    object      p;
}
// * * * * * * * * * * * * * * * * * * * * * * * * * * * * * * * * * * * * * //

dimensions      [0 2 -2 0 0 0 0];

internalField   nonuniform List<scalar> 
10720
(
-179.475
-195.26
-211.835
-223.497
-228.908
-232.24
-231.937
-227.707
-220.877
-211.255
-199.666
-186.849
-173.26
-159.294
-145.226
-131.208
-117.544
-104.391
-92.2315
-81.5848
-73.2709
-68.3661
-67.689
-70.6598
-74.1511
-74.7334
-72.7129
-71.544
-76.2634
-87.6996
-97.9289
-100.437
-95.4502
-86.5156
-78.3589
-71.6759
-59.5553
-32.3658
-10.5478
-159.88
-141.128
-116.173
-89.0523
-60.7712
-32.1742
-4.75533
19.2718
38.6402
53.6087
64.4761
71.7608
76.1565
78.3065
79.1421
79.288
78.8254
77.7251
76.2845
75.0304
74.2572
73.7351
72.9187
71.2548
68.5888
65.0067
60.644
55.8109
50.8695
46.2261
41.8897
37.9915
34.2993
30.8693
27.4597
24.0385
20.0408
15.7977
11.7408
-107.416
-121.883
-135.92
-148.025
-158.333
-166.894
-172.489
-175.116
-175.283
-173.137
-169.005
-163.106
-155.57
-146.605
-136.482
-125.483
-114.025
-102.462
-91.3722
-81.3632
-73.2835
-68.3081
-67.5072
-70.5865
-74.139
-74.6915
-72.6144
-71.3333
-75.985
-87.5015
-97.7384
-100.152
-95.0369
-85.9786
-77.8242
-71.4013
-59.8427
-33.3495
-11.2822
-93.2069
-78.9127
-63.3594
-45.988
-27.5368
-8.48131
10.3157
27.6041
42.4726
54.6423
64.0423
70.7546
75.111
77.5193
78.5688
78.7511
78.3577
77.391
76.0976
74.934
74.1543
73.5641
72.675
70.9953
68.3525
64.8186
60.5391
55.8025
50.9558
46.3915
42.12
38.2489
34.5722
31.1418
27.7241
24.2903
20.2917
16.0634
11.9467
-95.8399
-108.441
-120.73
-132.597
-142.961
-151.357
-157.442
-160.984
-161.983
-160.593
-157.071
-151.808
-145.186
-137.509
-128.988
-119.772
-110.071
-100.138
-90.424
-81.4642
-74.0204
-69.1641
-68.0269
-70.7116
-74.109
-74.6214
-72.4582
-71.011
-75.6999
-87.4875
-97.7741
-100.101
-94.8
-85.3477
-76.8269
-70.4699
-59.6104
-34.3701
-12.457
-83.1026
-69.0281
-53.2879
-36.2953
-18.8224
-1.32676
15.4273
30.593
43.6754
54.5022
63.0712
69.4258
73.7463
76.3108
77.5497
77.8895
77.6446
76.8541
75.7179
74.6014
73.7299
72.9783
71.9524
70.2366
67.6466
64.2361
60.1375
55.5973
50.9343
46.5129
42.3539
38.535
34.891
31.4671
28.0454
24.5968
20.6013
16.387
12.2762
-72.163
-83.2529
-94.5924
-105.554
-115.673
-124.629
-131.931
-137.253
-140.425
-141.407
-140.303
-137.399
-133.047
-127.547
-121.098
-113.848
-105.969
-97.6977
-89.417
-81.621
-75.0079
-70.5163
-69.1742
-71.1887
-74.0763
-74.4462
-72.2419
-70.7116
-75.5443
-87.6586
-98.0024
-100.308
-94.8695
-84.8709
-75.5811
-68.9285
-58.7895
-35.1508
-13.876
-61.3666
-50.017
-37.4584
-23.5597
-9.07601
5.67462
20.0068
33.1153
44.5536
54.1819
61.9728
67.9238
72.1349
74.8032
76.2414
76.7763
76.707
76.1097
75.1325
74.0557
73.0923
72.1929
71.0662
69.3648
66.899
63.6866
59.8305
55.5328
51.0823
46.8141
42.7618
38.9848
35.3595
31.9263
28.4865
25.0119
21.0126
16.816
12.7012
-59.9007
-70.1648
-80.6871
-91.0586
-100.75
-109.591
-117.108
-122.904
-126.819
-128.781
-128.868
-127.327
-124.444
-120.453
-115.5
-109.7
-103.188
-96.1698
-88.9883
-82.1043
-76.1619
-71.9888
-70.4678
-71.7872
-73.9924
-74.1703
-72.0082
-70.5278
-75.5265
-87.9689
-98.3659
-100.704
-95.2471
-84.7249
-74.3815
-66.9992
-57.4295
-35.5971
-15.3096
-49.8427
-39.3456
-27.855
-15.3631
-2.54113
10.4555
23.1043
34.7091
44.8969
53.5823
60.7288
66.3069
70.3695
73.0875
74.7021
75.4492
75.5776
75.1798
74.3665
73.3543
72.343
71.3458
70.1624
68.5072
66.1903
63.1941
59.5896
55.5406
51.3042
47.1832
43.2288
39.4932
35.8844
32.4416
28.9863
25.4899
21.4907
17.3254
13.1986
-48.7018
-57.9688
-67.5969
-77.1018
-86.0932
-94.5046
-101.875
-107.907
-112.484
-115.487
-116.905
-116.872
-115.575
-113.164
-109.738
-105.376
-100.193
-94.3748
-88.2343
-82.2097
-76.898
-73.0422
-71.4077
-72.1654
-73.771
-73.7975
-71.8031
-70.5378
-75.6513
-88.3589
-98.8022
-101.191
-95.8229
-84.9355
-73.4935
-65.027
-55.7142
-35.7126
-16.6311
-39.6585
-30.3094
-20.0643
-8.90111
2.51123
14.0805
25.3629
35.7451
44.9104
52.8081
59.3889
64.6085
68.5113
71.2504
73.0058
73.9541
74.2812
74.0816
73.4441
72.5348
71.5321
70.4896
69.2811
67.6805
65.5074
62.7182
59.3543
55.5459
51.5166
47.5413
43.6865
40.0018
36.4184
32.9752
29.514
26.0055
22.0175
17.8924
13.7596
-40.3075
-48.7806
-57.6332
-66.4117
-74.7492
-82.6782
-89.7871
-95.8152
-100.654
-104.182
-106.379
-107.33
-107.158
-105.958
-103.772
-100.635
-96.6239
-91.8936
-86.7272
-81.5261
-76.8354
-73.3227
-71.6654
-72.0311
-73.2247
-73.2477
-71.5744
-70.668
-75.9161
-88.7558
-99.2707
-101.684
-96.4526
-85.3948
-73.0128
-63.308
-53.8982
-35.5484
-17.7438
-32.0494
-23.5592
-14.2476
-4.10749
6.21182
16.6651
26.8776
36.2895
44.635
51.8836
57.9724
62.8493
66.5899
69.3339
71.1985
72.3229
72.8406
72.8357
72.3828
71.6066
70.6582
69.6116
68.3984
66.848
64.801
62.1972
59.0551
55.4742
51.6486
47.8215
44.0761
40.4586
36.9157
33.488
30.0352
26.5279
22.5608
18.4896
14.3582
-33.466
-41.2347
-49.4122
-57.532
-65.2702
-72.7279
-79.5256
-85.4389
-90.3926
-94.2681
-97.016
-98.6795
-99.331
-99.0305
-97.7917
-95.623
-92.5759
-88.7792
-84.4828
-80.0439
-75.949
-72.7944
-71.1829
-71.2925
-72.2285
-72.3859
-71.1781
-70.7369
-76.2321
-89.1031
-99.7121
-102.122
-97.0174
-85.9348
-72.88
-61.9957
-52.1931
-35.1992
-18.6785
-25.898
-18.158
-9.65119
-0.385575
9.02079
18.5508
27.8742
36.4851
44.1504
50.8466
56.5009
61.0625
64.6401
67.3683
69.3178
70.5903
71.2811
71.4612
71.1919
70.5664
69.7056
68.6889
67.4894
65.9865
64.048
61.6077
58.6678
55.3011
51.6741
48.0011
44.3765
40.8416
37.3553
33.9586
30.5281
27.0347
23.1031
19.0953
14.984
-27.9914
-35.1725
-42.7665
-50.3258
-57.5476
-64.5704
-71.0603
-76.8192
-81.7928
-85.8781
-88.9982
-91.166
-92.4072
-92.7556
-92.2135
-90.7769
-88.4799
-85.4366
-81.8644
-78.0801
-74.5111
-71.6877
-70.1434
-70.0713
-70.825
-71.1737
-70.538
-70.6373
-76.4369
-89.3241
-100.051
-102.462
-97.4499
-86.428
-72.9629
-61.1088
-50.7483
-34.7572
-19.4466
-21.0002
-13.8749
-6.04058
2.50233
11.1443
19.8999
28.4839
36.4262
43.5134
49.7243
54.9858
59.2695
62.6973
65.3859
67.393
68.7839
69.6269
69.9772
69.8844
69.4167
68.6667
67.7084
66.5419
65.0882
63.2447
60.9484
58.1904
55.0241
51.5897
48.073
44.5755
41.1355
37.7186
34.3672
30.9712
27.5041
23.6164
19.6847
15.6091
-23.4948
-30.1588
-37.232
-44.2868
-51.0354
-57.6511
-63.8256
-69.3856
-74.3015
-78.4775
-81.8464
-84.3968
-86.1152
-87.005
-87.0519
-86.2377
-84.582
-82.1827
-79.2304
-76.0054
-72.8848
-70.3381
-68.8425
-68.603
-69.1785
-69.6668
-69.6114
-70.3322
-76.4161
-89.3054
-100.182
-102.653
-97.7078
-86.7841
-73.1271
-60.5764
-49.6259
-34.3333
-20.0782
-17.0042
-10.4173
-3.1533
4.76226
12.7546
20.855
28.8092
36.1823
42.7708
48.5472
53.446
57.4796
60.7736
63.4109
65.4478
66.9284
67.9005
68.404
68.4763
68.1659
67.5411
66.6644
65.5505
64.1526
62.3967
60.2295
57.6365
54.6562
51.4048
48.0447
44.6779
41.3406
38.0037
34.7079
31.3567
27.9249
24.0944
20.2434
16.2254
-19.7849
-25.9932
-32.6065
-39.2106
-45.5364
-51.7732
-57.6413
-62.9891
-67.7944
-71.97
-75.4729
-78.2706
-80.3342
-81.646
-82.1821
-81.9116
-80.8374
-79.0345
-76.6635
-73.965
-71.2671
-68.9813
-67.5361
-67.1429
-67.5234
-68.0548
-68.4744
-69.8174
-76.096
-88.8916
-99.9626
-102.621
-97.765
-86.9627
-73.2668
-60.2773
-48.8156
-34.0024
-20.5504
-13.7343
-7.60451
-0.843573
6.53668
13.9676
21.4995
28.914
35.7947
41.9443
47.3321
51.9072
55.7134
58.8748
61.4553
63.4993
65.0439
66.1219
66.7596
66.9831
66.8248
66.3324
65.5547
64.5115
63.179
61.5086
59.4594
57.0166
54.2082
51.1312
47.9241
44.6879
41.458
38.2076
34.9756
31.6764
28.2885
24.5189
20.7564
16.8085
-16.6909
-22.4966
-28.6975
-34.8998
-40.8416
-46.7335
-52.311
-57.4371
-62.1054
-66.2303
-69.7871
-72.7326
-75.0344
-76.6619
-77.5823
-77.7621
-77.1944
-75.9357
-74.1134
-71.93
-69.6622
-67.6656
-66.3146
-65.8232
-66.0304
-66.5337
-67.2635
-69.1297
-75.4625
-87.9614
-99.2062
-102.23
-97.5691
-86.9372
-73.3119
-60.0742
-48.2341
-33.7895
-20.8911
-11.0269
-5.30678
1.02222
7.92472
14.8667
21.9065
28.8434
35.2905
41.0454
46.0804
50.3747
53.9828
57.0124
59.5259
61.5601
63.1463
64.3075
65.0601
65.4189
65.404
65.0455
64.3785
63.4216
62.1653
60.5822
58.645
56.3419
53.6935
50.781
47.7231
44.6165
41.4951
38.3362
35.173
31.9313
28.5924
24.894
21.22
17.3562
-14.089
-19.5338
-25.3665
-31.2068
-36.8066
-42.3784
-47.6812
-52.5889
-57.102
-61.1444
-64.6937
-67.7201
-70.1822
-72.0407
-73.2592
-73.8034
-73.662
-72.8776
-71.552
-69.8557
-68.0196
-66.345
-65.1546
-64.6544
-64.7648
-65.2435
-66.1625
-68.3795
-74.5932
-86.5058
-97.7752
-101.316
-97.0314
-86.6893
-73.2279
-59.8862
-47.8191
-33.6763
-21.1074
-8.77526
-3.41184
2.52505
9.01187
15.5187
22.1188
28.6365
34.6951
40.0936
44.8104
48.8554
52.2836
55.1879
57.628
59.6383
61.247
62.4713
63.3191
63.7973
63.9144
63.6874
63.1375
62.2791
61.1098
59.6182
57.79
55.6182
53.1198
50.3635
47.4498
44.4692
41.4569
38.3911
35.3021
32.122
28.8378
25.2103
21.6291
17.8546
-11.8869
-17.0107
-22.5087
-28.0234
-33.3084
-38.5903
-43.6355
-48.3264
-52.6779
-56.6155
-60.1175
-63.1761
-65.7381
-67.7613
-69.2109
-70.049
-70.263
-69.8846
-68.9973
-67.7433
-66.3188
-64.976
-63.9952
-63.5692
-63.6781
-64.1866
-65.2506
-67.6777
-73.6265
-84.6725
-95.6706
-99.7472
-96.0357
-86.1511
-72.9835
-59.6616
-47.4921
-33.6267
-21.2374
-6.8858
-1.84766
3.74573
9.85105
15.9716
22.1829
28.3211
34.0293
39.1032
43.5374
47.3601
50.6201
53.4024
55.7643
57.7397
59.3547
60.6235
61.5483
62.1295
62.3664
62.2648
61.8343
61.0827
60.01
58.6155
56.8963
54.851
52.495
49.8869
47.113
44.2561
41.3516
38.381
35.3684
32.2538
29.0265
25.4784
21.9861
18.3082
-10.0142
-14.8451
-20.0427
-25.26
-30.263
-35.2731
-40.0758
-44.5614
-48.7462
-52.5649
-55.9969
-59.0497
-61.6628
-63.7996
-65.4243
-66.4985
-67.0076
-66.9758
-66.471
-65.6136
-64.5685
-63.5507
-62.8036
-62.5102
-62.6943
-63.2994
-64.5189
-67.0793
-72.6836
-82.6824
-93.0686
-97.5243
-94.4998
-85.2553
-72.5373
-59.3601
-47.1905
-33.5951
-21.3021
-5.29686
-0.548802
4.72619
10.4948
16.2646
22.1217
27.9218
33.3083
38.0836
42.2645
45.8885
48.9913
51.6551
53.9363
55.8679
57.4768
58.7736
59.7587
60.4267
60.7706
60.7863
60.4743
59.8344
58.8658
57.5739
55.965
54.0431
51.8236
49.3578
46.719
43.9824
41.1845
38.3091
35.3765
32.3305
29.1644
25.6927
22.2914
18.7097
-8.41628
-12.9828
-17.9041
-22.851
-27.5917
-32.3549
-36.93
-41.2159
-45.2365
-48.9287
-52.2775
-55.2942
-57.9225
-60.1327
-61.8877
-63.1491
-63.9019
-64.1645
-63.9919
-63.4869
-62.7876
-62.0778
-61.5694
-61.4387
-61.7419
-62.4836
-63.8725
-66.5397
-71.7942
-80.7066
-90.2162
-94.7851
-92.4268
-83.9501
-71.8404
-58.9462
-46.8459
-33.5377
-21.3387
-3.95666
0.524778
5.5168
10.9702
16.4244
21.9653
27.4532
32.5429
37.0441
40.9963
44.4393
47.3962
49.9457
52.1444
54.0268
55.6181
56.93
57.9596
58.6992
59.1364
59.2601
59.0624
58.5358
57.6764
56.4921
54.9959
53.1963
51.1095
48.7806
46.2735
43.6552
40.9623
38.1829
35.3309
32.3565
29.2531
25.8648
22.5489
19.066
-7.04963
-11.3723
-16.0424
-20.7395
-25.2441
-29.7731
-34.1353
-38.2331
-42.0908
-45.6536
-48.9087
-51.8661
-54.4862
-56.7387
-58.5865
-59.9937
-60.9461
-61.4561
-61.5707
-61.3766
-60.991
-60.5689
-60.297
-60.3416
-60.784
-61.6735
-63.2265
-65.9782
-70.9116
-78.8043
-87.3165
-91.7428
-89.9194
-82.2521
-70.8618
-58.3766
-46.4197
-33.4129
-21.3609
-2.82739
1.4135
6.13909
11.3112
16.4745
21.722
26.9269
31.7427
35.9957
39.7413
43.0151
45.8339
48.2735
50.3902
52.2184
53.7841
55.0991
56.1598
56.9568
57.4741
57.6956
57.606
57.192
56.4444
55.3717
53.9904
52.3127
50.3557
48.16
45.7811
43.2785
40.6894
38.0048
35.2361
32.3356
29.2992
25.9902
22.7608
19.3745
-5.87993
-9.98064
-14.4155
-18.8845
-23.1655
-27.4824
-31.6439
-35.5599
-39.2607
-42.6933
-45.8482
-48.7335
-51.3266
-53.596
-55.5052
-57.0245
-58.1387
-58.8553
-59.2156
-59.294
-59.1897
-59.0339
-58.9899
-59.2124
-59.7975
-60.8245
-62.511
-65.3115
-69.9504
-76.9391
-84.4556
-88.5711
-87.1257
-80.2207
-69.6087
-57.6262
-45.8853
-33.1949
-21.3708
-1.87501
2.14167
6.62799
11.5325
16.4305
21.4117
26.3501
30.9131
34.9424
38.4998
41.6157
44.3043
46.6386
48.6743
50.4453
51.979
53.2873
54.3673
55.2086
55.7932
56.1013
56.1123
55.8071
55.1716
54.2124
52.9478
51.3922
49.5633
47.4976
45.2442
42.856
40.3694
37.7797
35.0945
32.27
29.3021
26.0795
22.9298
19.6407
-4.87732
-8.7702
-12.9905
-17.246
-21.325
-25.4384
-29.4122
-33.1584
-36.7068
-40.0105
-43.0615
-45.8689
-48.4198
-50.6831
-52.6281
-54.231
-55.4742
-56.3623
-56.9309
-57.2458
-57.3905
-57.4785
-57.65
-58.0474
-58.771
-59.9184
-61.6992
-64.4999
-68.8501
-75.0473
-81.6392
-85.37
-84.1786
-77.9566
-68.12
-56.6959
-45.2422
-32.8804
-21.3555
-1.07434
2.73752
6.9956
11.6594
16.3084
21.0388
25.7326
30.062
33.887
37.2727
40.2417
42.8076
45.0409
46.997
48.7093
50.2062
51.5
52.5894
53.4632
54.1033
54.4867
54.5898
54.3881
53.8633
53.0181
51.8711
50.4376
48.7352
46.7971
44.6667
42.3912
40.0059
37.51
34.9097
32.1633
29.2683
26.1277
23.0592
19.8638
-4.01778
-7.72028
-11.7386
-15.7966
-19.6829
-23.612
-27.4084
-30.9912
-34.3954
-37.5729
-40.519
-43.2449
-45.7413
-47.981
-49.9415
-51.6031
-52.947
-53.9754
-54.7197
-55.2374
-55.6005
-55.9071
-56.2782
-56.8413
-57.6947
-58.9416
-60.7771
-63.5281
-67.5812
-73.0768
-78.8339
-82.165
-81.1533
-75.5355
-66.4478
-55.615
-44.4925
-32.4845
-21.3118
-0.402121
3.21685
7.26827
11.7003
16.121
20.6217
25.0832
29.1959
32.8332
36.0606
38.8937
41.3437
43.4807
45.3592
47.0123
48.4688
49.7425
50.8324
51.7287
52.4128
52.8607
53.046
52.9409
52.5226
51.79
50.7603
49.4482
47.8709
46.0581
44.0488
41.885
39.6004
37.1979
34.6821
32.0158
29.1946
26.1437
23.1503
20.0474
-3.28125
-6.80403
-10.636
-14.5086
-18.2197
-21.9704
-25.6012
-29.0325
-32.2965
-35.3512
-38.1933
-40.8349
-43.2679
-45.4721
-47.4322
-49.1306
-50.5495
-51.6899
-52.5809
-53.2707
-53.8231
-54.3224
-54.8748
-55.5903
-56.5619
-57.8884
-59.7468
-62.4078
-66.153
-71.0156
-76.0233
-78.9657
-78.0897
-73.0189
-64.6398
-54.4076
-43.6644
-32.0369
-21.2404
0.158754
3.6
7.45253
11.6755
15.881
20.1637
24.412
28.3243
31.7887
34.8672
37.5725
39.9134
41.9589
43.7617
45.3557
46.7693
48.0183
49.1017
50.0115
50.7293
51.2311
51.489
51.473
51.1562
50.5336
49.6195
48.4277
46.9737
45.2843
43.3942
41.3408
39.1562
36.8463
34.4157
31.8309
29.0873
26.1218
23.2061
20.1931
-2.65163
-6.00834
-9.66298
-13.3627
-16.9049
-20.4934
-23.9669
-27.2516
-30.3831
-33.3195
-36.0588
-38.6149
-40.9772
-43.1384
-45.0861
-46.8033
-48.2748
-49.5034
-50.5141
-51.3486
-52.0621
-52.7293
-53.4416
-54.2933
-55.3674
-56.7545
-58.6087
-61.1515
-64.5838
-68.8704
-73.2036
-75.7742
-75.0041
-70.4315
-62.7285
-53.1035
-42.7777
-31.5617
-21.1537
0.62501
3.89785
7.56969
11.5902
15.5972
19.6802
23.7231
27.4485
30.7529
33.6927
36.278
38.5164
40.4745
42.2045
43.7396
45.1098
46.3302
47.4017
48.3172
49.0594
49.6049
49.9255
49.99
49.7682
49.251
48.4497
47.3757
46.0428
44.4745
42.7016
40.7578
38.6726
36.4552
34.1093
31.6072
28.942
26.0693
23.226
20.3023
-2.11332
-5.31216
-8.80268
-12.3385
-15.7262
-19.1556
-22.4815
-25.6298
-28.6332
-31.4548
-34.0932
-36.5628
-38.8514
-40.9635
-42.8882
-44.6097
-46.1155
-47.4109
-48.5172
-49.471
-50.3195
-51.13
-51.9801
-52.95
-54.1093
-55.5389
-57.3692
-59.7775
-62.9025
-66.6668
-70.3949
-72.6128
-71.9216
-67.8041
-60.7393
-51.7182
-41.8502
-31.079
-21.0739
1.00887
4.12628
7.62335
11.4604
15.2792
19.17
23.0242
26.5744
29.7288
32.5391
35.0114
37.153
39.0279
40.6881
42.1657
43.4913
44.6804
45.735
46.649
47.4072
47.9873
48.3618
48.4984
48.3651
47.9483
47.2559
46.2968
45.0822
43.6325
41.975
40.1395
38.1533
36.028
33.7673
31.3488
28.765
25.9807
23.2133
20.3771
-1.65425
-4.7068
-8.04
-11.4217
-14.6591
-17.944
-21.1283
-24.1439
-27.0266
-29.7379
-32.2778
-34.661
-36.8762
-38.9333
-40.8253
-42.5389
-44.0652
-45.409
-46.5901
-47.6394
-48.5994
-49.529
-50.4949
-51.5625
-52.7893
-54.2437
-56.0341
-58.2989
-61.1296
-64.4233
-67.6116
-69.4976
-68.86
-65.1524
-58.6906
-50.2717
-40.8864
-30.5902
-21.0085
1.32339
4.29257
7.63026
11.288
14.9322
18.6459
22.3182
25.7039
28.7183
31.4066
33.7729
35.8227
37.6188
39.2114
40.6333
41.9142
43.0701
44.1028
45.0095
45.7765
46.3833
46.803
47.0036
46.9509
46.6282
46.0396
45.1911
44.0912
42.757
41.2125
39.484
37.5967
35.5631
33.3877
31.0532
28.5515
25.8615
23.1664
20.4166
-1.26317
-4.17563
-7.36256
-10.5973
-13.6967
-16.8383
-19.8892
-22.7811
-25.5459
-28.1507
-30.5946
-32.8927
-35.0355
-37.0339
-38.8853
-40.5811
-42.1161
-43.4938
-44.7309
-45.8545
-46.9038
-47.9296
-48.9894
-50.1346
-51.4112
-52.8744
-54.6128
-56.7317
-59.2871
-62.1617
-64.8749
-66.4543
-65.8479
-62.5052
-56.6051
-48.7748
-39.8968
-30.0991
-20.9594
1.57718
4.4089
7.59109
11.0863
14.5632
18.1049
21.6106
24.8429
27.7252
30.298
32.5634
34.5261
36.247
37.7751
39.1426
40.3792
41.4983
42.5057
43.3999
44.1698
44.7965
45.2538
45.5106
45.5314
45.2965
44.8061
44.0635
43.0742
41.8524
40.4185
38.7956
37.0067
35.0647
32.9752
30.7252
28.3076
25.7074
23.0891
20.4236
-0.931842
-3.71379
-6.75945
-9.85579
-12.8192
-15.8301
-18.7523
-21.5224
-24.1763
-26.6783
-29.029
-31.2436
-33.3142
-35.252
-37.0572
-38.7276
-40.2613
-41.6606
-42.9377
-44.1176
-45.2353
-46.3369
-47.4694
-48.6732
-49.9819
-51.4392
-53.1153
-55.089
-57.3891
-59.8929
-62.1914
-63.4921
-62.8992
-59.8773
-54.4987
-47.2428
-38.8819
-29.6003
-20.9198
1.78003
4.48017
7.52047
10.8554
14.1768
17.5603
20.9035
23.9916
26.7492
29.2127
31.3824
33.2625
34.9117
36.3784
37.6937
38.8829
39.9641
40.9433
41.8218
42.59
43.2304
43.7185
44.0239
44.1106
43.956
43.5572
42.9146
42.031
40.9173
39.5909
38.0719
36.3807
34.5304
32.527
30.362
28.0289
25.5231
22.979
20.3959
-0.651082
-3.30749
-6.22158
-9.18498
-12.023
-14.9033
-17.7036
-20.3601
-22.9049
-25.3075
-27.5678
-29.7008
-31.6999
-33.5752
-35.3313
-36.9707
-38.4945
-39.9039
-41.2074
-42.4274
-43.5957
-44.7535
-45.9395
-47.1835
-48.5082
-49.947
-51.5537
-53.3861
-55.4525
-57.6316
-59.5719
-60.6253
-60.0338
-57.2925
-52.3927
-45.6876
-37.8515
-29.0991
-20.8859
1.93835
4.51594
7.41716
10.6069
13.7783
17.0073
20.2034
23.1555
25.7941
28.1529
30.2311
32.0319
33.6126
35.0206
36.2816
37.4251
38.4669
39.417
40.2768
41.0391
41.6879
42.2006
42.5476
42.6929
42.6115
42.2977
41.7492
40.9661
39.9566
38.7347
37.3177
35.7234
33.9647
32.048
29.9687
27.7211
25.3055
22.84
20.3373
-0.414441
-2.95373
-5.74023
-8.57755
-11.2919
-14.0533
-16.7353
-19.2798
-21.7216
-24.0281
-26.2005
-28.2537
-30.1818
-31.9933
-33.6985
-35.3029
-36.8095
-38.2187
-39.5368
-40.783
-41.9867
-43.1835
-44.4055
-45.6728
-46.9994
-48.4083
-49.9402
-51.6358
-53.4894
-55.3838
-57.016
-57.8527
-57.2559
-54.7596
-50.2978
-44.1204
-36.8058
-28.5883
-20.8424
2.0596
4.51952
7.29364
10.3387
13.3705
16.4574
19.5093
22.3336
24.8587
27.1174
29.1081
30.8332
32.3488
33.6969
34.9067
36.0028
37.0064
37.9262
38.7659
39.519
40.1715
40.7036
41.0855
41.2817
41.2657
41.0293
40.568
39.8795
38.9691
37.8479
36.5303
35.0319
33.3646
31.5353
29.5419
27.3808
25.0582
22.6693
20.245
-0.215066
-2.64131
-5.30867
-8.02473
-10.6254
-13.267
-15.8369
-18.2769
-20.617
-22.8307
-24.9174
-26.8925
-28.7506
-30.4978
-32.151
-33.7173
-35.1999
-36.6
-37.9222
-39.183
-40.4084
-41.6291
-42.8712
-44.1473
-45.4629
-46.833
-48.287
-49.8519
-51.5133
-53.1599
-54.5299
-55.1806
-54.576
-52.2949
-48.2313
-42.5531
-35.7535
-28.0708
-20.7855
2.14846
4.49847
7.14701
10.0613
12.9575
15.9046
18.8255
21.5284
23.9454
26.1077
28.014
29.6661
31.1169
32.4089
33.5657
34.6167
35.5823
36.4722
37.29
38.0302
38.6836
39.2293
39.6395
39.8793
39.9214
39.7555
39.375
38.7755
37.9595
36.9354
35.7148
34.3111
32.735
30.9935
29.0868
27.0127
24.7796
22.4711
20.1231
-0.0488268
-2.36936
-4.92034
-7.52169
-10.0092
-12.5415
-15.0028
-17.3387
-19.5833
-21.707
-23.7107
-25.6093
-27.398
-29.0824
-30.6824
-32.2067
-33.6597
-35.0427
-36.3599
-37.6255
-38.861
-40.0926
-41.3411
-42.6127
-43.9066
-45.2308
-46.6049
-48.0459
-49.5337
-50.9642
-52.1108
-52.6035
-51.992
-49.9
-46.1989
-40.9921
-34.6937
-27.5372
-20.7086
2.21083
4.45476
6.98869
9.77194
12.5419
15.3611
18.1515
20.7387
23.0527
25.1225
26.9475
28.529
29.9178
31.153
32.2602
33.2675
34.1959
35.0551
35.8485
36.5758
37.2259
37.7799
38.2117
38.488
38.5808
38.478
38.1713
37.6544
36.9273
35.9958
34.869
33.5582
32.0726
30.4194
28.5999
26.6139
24.4721
22.2421
19.9686
0.0901037
-2.12778
-4.57052
-7.06087
-9.44407
-11.8663
-14.2242
-16.4634
-18.6136
-20.6503
-22.5732
-24.3971
-26.1176
-27.7405
-29.2859
-30.765
-32.1836
-33.5428
-34.847
-36.1082
-37.3437
-38.5748
-39.8177
-41.0739
-42.3374
-43.61
-44.9041
-46.229
-47.5608
-48.8043
-49.7624
-50.1235
-49.5087
-47.5855
-44.2135
-39.4478
-33.6346
-26.9916
-20.6121
2.25
4.3948
6.81498
9.48008
12.1273
14.82
17.4914
19.968
22.1828
24.1637
25.9097
27.4225
28.7502
29.9319
30.9903
31.955
32.8467
33.6743
34.4444
35.1557
35.7981
36.355
36.8027
37.109
37.2458
37.1994
36.9602
36.52
35.8768
35.0338
33.9978
32.7781
31.3825
29.8177
28.086
26.1884
24.1354
21.9866
19.786
0.205062
-1.9169
-4.25355
-6.63853
-8.91815
-11.2402
-13.4976
-15.641
-17.7022
-19.6546
-21.4991
-23.2499
-24.9033
-26.4655
-27.9553
-29.3865
-30.7664
-32.0964
-33.3807
-34.6295
-35.8556
-37.0764
-38.3036
-39.5352
-40.7612
-41.9788
-43.1938
-44.4099
-45.602
-46.6832
-47.4822
-47.7346
-47.1208
-45.349
-42.2764
-37.9229
-32.5734
-26.4274
-20.4869
2.27068
4.31956
6.63605
9.18163
11.715
14.2918
16.8439
19.2144
21.3343
23.2297
24.8996
26.3459
27.6156
28.7439
29.7558
30.6789
31.5338
32.3306
33.0757
33.7679
34.3992
34.9551
35.4132
35.7442
35.9186
35.922
35.7435
35.3737
34.8085
34.049
33.1001
31.9689
30.662
29.1855
27.542
25.7335
23.7706
21.7014
19.5724
0.300526
-1.72825
-3.96585
-6.2491
-8.43318
-10.6538
-12.8161
-14.8698
-16.8431
-18.714
-20.4823
-22.1618
-23.7493
-25.2515
-26.6849
-28.0657
-29.4034
-30.6998
-31.9585
-33.1873
-34.3961
-35.5978
-36.801
-38.0007
-39.1838
-40.3438
-41.4819
-42.5973
-43.6648
-44.6063
-45.2721
-45.4371
-44.8301
-43.1963
-40.3967
-36.4256
-31.518
-25.8495
-20.3304
2.27514
4.23422
6.44706
8.88578
11.3075
13.7689
16.2126
18.481
20.5096
22.3222
23.9186
25.3005
26.5126
27.5909
28.5564
29.4386
30.2572
31.0225
31.741
32.4124
33.03
33.5801
34.0454
34.3956
34.6017
34.6482
34.5241
34.2188
33.7264
33.046
32.1807
31.1356
29.9162
28.5277
26.9727
25.2532
23.3786
21.3906
19.3324
0.378252
-1.56306
-3.70323
-5.88984
-7.97866
-10.1069
-12.1765
-14.1413
-16.0317
-17.8237
-19.5178
-21.1275
-22.6502
-24.0926
-25.4696
-26.7982
-28.0907
-29.3496
-30.5775
-31.7802
-32.9645
-34.1399
-35.3121
-36.474
-37.6103
-38.7118
-39.7755
-40.798
-41.7547
-42.5757
-43.1302
-43.2254
-42.6303
-41.1232
-38.5725
-34.9561
-30.4648
-25.2519
-20.139
2.26721
4.13906
6.2577
8.58766
10.9057
13.2616
15.5956
17.7661
19.7068
21.4399
22.9653
24.2851
25.443
26.471
27.3921
28.234
29.0163
29.7498
30.4408
31.0899
31.6901
32.2343
32.7021
33.0662
33.2979
33.3814
33.3051
33.0578
32.6323
32.026
31.24
30.2778
29.1439
27.8423
26.3755
24.7453
22.9596
21.0513
19.0634
0.442319
-1.41368
-3.46316
-5.55606
-7.5567
-9.59166
-11.5732
-13.4548
-15.2636
-16.9789
-18.6008
-20.1424
-21.6012
-22.9843
-24.3046
-25.5799
-26.8247
-28.0428
-29.2356
-30.4069
-31.5607
-32.7037
-33.8395
-34.9591
-36.0457
-37.0883
-38.0812
-39.0187
-39.8773
-40.5948
-41.0575
-41.099
-40.5216
-39.1326
-36.8099
-33.5208
-29.4206
-24.6391
-19.911
2.24837
4.03851
6.06262
8.29524
10.511
12.7615
14.9964
17.0725
18.9281
20.5842
22.041
23.301
24.4057
25.3847
26.2625
27.0637
27.8113
28.5119
29.1761
29.8001
30.3855
30.9181
31.3846
31.7577
32.0094
32.1239
32.0894
31.8943
31.5303
30.9933
30.2827
29.4006
28.3502
27.1344
25.7553
24.2136
22.5155
20.6878
18.7703
0.494034
-1.2819
-3.2419
-5.24552
-7.15856
-9.10824
-11.0039
-12.8034
-14.5346
-16.1756
-17.7274
-19.2022
-20.5982
-21.9224
-23.1857
-24.4071
-25.6029
-26.7772
-27.9309
-29.0661
-30.1846
-31.2905
-32.3854
-33.4592
-34.4946
-35.4792
-36.405
-37.2647
-38.0367
-38.6658
-39.0526
-39.0535
-38.4982
-37.2194
-35.1054
-32.1179
-28.3824
-24.0064
-19.6461
2.22176
3.93227
5.87046
8.00292
10.1239
12.2778
14.4123
16.3978
18.1715
19.7535
21.1443
22.347
23.3982
24.3314
25.1641
25.929
26.6393
27.3109
27.9446
28.5474
29.1118
29.6325
30.0946
30.4721
30.7391
30.8793
30.8809
30.7319
30.4236
29.9505
29.3108
28.505
27.5352
26.4033
25.1106
23.6568
22.046
20.2977
18.4507
0.536677
-1.1611
-3.0376
-4.95483
-6.78659
-8.65016
-10.4644
-12.1863
-13.8412
-15.4102
-16.8936
-18.3032
-19.6373
-20.9032
-22.1094
-23.2768
-24.4228
-25.5509
-26.6622
-27.7575
-28.8367
-29.9016
-30.9524
-31.9783
-32.9617
-33.8894
-34.7519
-35.5412
-36.2372
-36.7912
-37.1163
-37.088
-36.5592
-35.3844
-33.4625
-30.7524
-27.3555
-23.3586
-19.3423
2.18822
3.82403
5.67523
7.71853
9.7452
11.8024
13.8464
15.7445
17.4389
18.949
20.2759
21.4211
22.4226
23.3077
24.1004
24.8265
25.5044
26.1433
26.7504
27.3277
27.8726
28.3792
28.8327
29.2118
29.4898
29.6506
29.6826
29.574
29.3159
28.9018
28.3287
27.5958
26.7039
25.6539
24.4462
23.0789
21.554
19.8855
18.1098
0.570644
-1.05354
-2.8474
-4.68229
-6.43326
-8.21772
-9.95242
-11.5978
-13.1801
-14.6794
-16.0962
-17.442
-18.7155
-19.9235
-21.0733
-22.1868
-23.2819
-24.3622
-25.4285
-26.4809
-27.5178
-28.539
-29.5434
-30.52
-31.4513
-32.324
-33.1275
-33.853
-34.4823
-34.9726
-35.2476
-35.1994
-34.7001
-33.623
-31.8773
-29.4217
-26.3373
-22.6927
-19.002
2.15026
3.71304
5.48528
7.43616
9.37532
11.3444
13.2958
15.1097
16.7277
18.1688
19.4337
20.5247
21.4757
22.3166
23.0696
23.7598
24.4044
25.0127
25.5919
26.1443
26.6685
27.1576
27.6022
27.9798
28.2647
28.4411
28.4981
28.4244
28.2109
27.8506
27.3393
26.6751
25.8577
24.8868
23.7617
22.4793
21.0393
19.4495
17.7455
0.598908
-0.953163
-2.67009
-4.42506
-6.10076
-7.80554
-9.46449
-11.0375
-12.5486
-13.9801
-15.3321
-16.6158
-17.8296
-18.9807
-20.0754
-21.1354
-22.1788
-23.2099
-24.2294
-25.2368
-26.2289
-27.2045
-28.1611
-29.0877
-29.9678
-30.7877
-31.5361
-32.2041
-32.7752
-33.2117
-33.4467
-33.3863
-32.9193
-31.9347
-30.3515
-28.1289
-25.3326
-22.0138
-18.624
2.10844
3.60251
5.29449
7.16309
9.01493
10.8948
12.7629
14.4957
16.0398
17.414
18.6189
19.6562
20.5603
21.3581
22.0727
22.7278
23.3401
23.9184
24.4699
24.9974
25.4992
25.9718
26.4047
26.7769
27.0644
27.2523
27.3297
27.2859
27.1118
26.8004
26.3466
25.7473
25.0009
24.1063
23.0616
21.8619
20.5051
18.994
17.363
0.621607
-0.862552
-2.50318
-4.18179
-5.78295
-7.41427
-8.99911
-10.501
-11.9439
-13.3097
-14.5988
-15.8217
-16.9773
-18.0724
-19.1134
-20.1204
-21.1119
-22.0932
-23.065
-24.0258
-24.9718
-25.9004
-26.8085
-27.6855
-28.5155
-29.2849
-29.9822
-30.5984
-31.1188
-31.5098
-31.7132
-31.6466
-31.2131
-30.3154
-28.8813
-26.8716
-24.339
-21.3204
-18.2125
2.06475
3.49135
5.11057
6.8931
8.66426
10.4625
12.2448
13.8995
15.3726
16.6823
17.8295
18.8163
19.6739
20.4311
21.1087
21.7299
22.3107
22.8597
23.3838
23.8861
24.366
24.8198
25.2382
25.6022
25.8898
26.0855
26.1799
26.1619
26.0227
25.7553
25.3541
24.8151
24.1358
23.3138
22.3462
21.2267
19.9513
18.5179
16.9601
0.641174
-0.776444
-2.34586
-3.95054
-5.48203
-7.0395
-8.55374
-9.98787
-11.3639
-12.666
-13.8939
-15.0576
-16.1563
-17.1967
-18.1851
-19.1399
-20.08
-21.0116
-21.9352
-22.8488
-23.7479
-24.629
-25.4889
-26.3171
-27.0984
-27.8198
-28.4694
-29.0388
-29.5148
-29.8676
-30.0462
-29.9784
-29.5794
-28.7637
-27.4667
-25.6517
-23.3603
-20.617
-17.7676
2.01923
3.3823
4.92689
6.63334
8.32347
10.0388
11.7441
13.3234
14.7278
15.9751
17.0665
18.0034
18.8179
19.535
20.1768
20.765
21.3152
21.8353
22.3325
22.8097
23.2667
23.7005
24.1027
24.4569
24.741
24.943
25.0514
25.0553
24.9465
24.7183
24.365
23.882
23.2657
22.5127
21.6192
20.5774
19.3814
18.0253
16.5421
0.656974
-0.697712
-2.19633
-3.73036
-5.19281
-6.68182
-8.12693
-9.49459
-10.8067
-12.0468
-13.2152
-14.3215
-15.3648
-16.3518
-17.2889
-18.1926
-19.0819
-19.9644
-20.84
-21.7064
-22.5584
-23.3925
-24.2049
-24.9856
-25.7205
-26.3958
-27.0008
-27.5278
-27.965
-28.2857
-28.445
-28.3797
-28.0152
-27.2761
-26.1047
-24.4666
-22.3947
-19.9032
-17.2939
1.9735
3.27396
4.75104
6.37753
7.99275
9.63255
11.2578
12.7645
14.1027
15.2901
16.3278
17.2179
17.9892
18.6687
19.276
19.8323
20.3526
20.8446
21.3153
21.7674
22.2012
22.6142
22.9995
23.3412
23.6222
23.8278
23.9469
23.9692
23.8866
23.693
23.3828
22.9509
22.393
21.705
20.8819
19.9146
18.7959
17.5159
16.1067
0.671268
-0.621597
-2.05429
-3.51973
-4.91724
-6.33771
-7.71682
-9.02087
-10.2703
-11.4504
-12.5611
-13.6114
-14.6009
-15.536
-16.4231
-17.2769
-18.1167
-18.9508
-19.7791
-20.5988
-21.4045
-22.1925
-22.959
-23.695
-24.3841
-25.0152
-25.5784
-26.067
-26.47
-26.7637
-26.9083
-26.8483
-26.5178
-25.8502
-24.794
-23.3169
-21.4448
-19.1828
-16.7932
1.92736
3.16881
4.57641
6.13228
7.67217
9.23492
10.7884
12.2249
13.4992
14.6286
15.6143
16.458
17.1894
17.8316
18.4055
18.9309
19.4223
19.8869
20.3316
20.7591
21.1699
21.5621
21.9294
22.2596
22.5347
22.7411
22.8679
22.9051
22.8451
22.6817
22.4098
22.0244
21.5207
20.8937
20.1375
19.2421
18.1983
16.9936
15.6598
0.68326
-0.551146
-1.91817
-3.31788
-4.65139
-6.00786
-7.32233
-8.56427
-9.75352
-10.8754
-11.93
-12.9262
-13.8634
-14.7481
-15.5865
-16.3918
-17.1833
-17.9701
-18.7521
-19.5261
-20.2868
-21.0302
-21.7534
-22.4449
-23.0903
-23.6798
-24.2039
-24.6575
-25.0306
-25.3015
-25.4349
-25.3821
-25.0845
-24.4831
-23.5317
-22.2004
-20.5091
-18.4561
-16.2684
1.88211
3.0652
4.41009
5.89102
7.3616
8.85403
10.3329
11.7019
12.9147
13.9884
14.9241
15.7243
16.4155
17.0229
17.5646
18.0602
18.5235
18.9615
19.3808
19.7843
20.1726
20.5443
20.8943
21.2112
21.4784
21.6829
21.8151
21.8646
21.824
21.6871
21.4494
21.1059
20.6518
20.0816
19.3885
18.5615
17.5902
16.4594
15.1993
0.69484
-0.482224
-1.78797
-3.12393
-4.397
-5.68951
-6.94222
-8.12441
-9.25505
-10.3205
-11.3209
-12.2645
-13.1511
-13.987
-14.7781
-15.5364
-16.281
-17.0217
-17.7585
-18.4881
-19.205
-19.9061
-20.5872
-21.2357
-21.8404
-22.3898
-22.8785
-23.3005
-23.6468
-23.8979
-24.023
-23.9784
-23.7122
-23.1717
-22.3159
-21.1167
-19.5895
-17.7259
-15.7242
1.83725
2.96539
4.24523
5.66046
7.06087
8.4815
9.89379
11.1976
12.351
13.3707
14.2581
15.0151
15.6693
16.242
16.7526
17.2194
17.6558