/*--------------------------------*- C++ -*----------------------------------*\
  =========                 |
  \\      /  F ield         | OpenFOAM: The Open Source CFD Toolbox
   \\    /   O peration     | Website:  https://openfoam.org
    \\  /    A nd           | Version:  9
     \\/     M anipulation  |
\*---------------------------------------------------------------------------*/
FoamFile
{
    format      ascii;
    class       surfaceScalarField;
    location    "20";
    object      phi;
}
// * * * * * * * * * * * * * * * * * * * * * * * * * * * * * * * * * * * * * //

dimensions      [0 3 -1 0 0 0 0];

internalField   nonuniform List<scalar> 
21254
(
-0.175479
0.178374
-0.00290454
0.181993
-0.0036317
0.18243
-0.000443213
0.181188
0.00122768
0.178866
0.0023134
0.174064
0.00478736
0.167296
0.00675658
0.159033
0.0082441
0.148897
0.0101154
0.137789
0.0110802
0.12625
0.0115097
0.114674
0.0115395
0.103585
0.0110483
0.0930524
0.0104879
0.0828976
0.0101077
0.0729227
0.00992163
0.0627252
0.0101406
0.0521139
0.0105418
0.041068
0.0109852
0.0301247
0.0108667
0.0202711
0.00985277
0.0136696
0.00660233
0.00491972
0.00898845
-0.0114524
0.0166413
-0.0255724
0.0143952
-0.0290502
0.00363367
-0.0257727
-0.00337844
-0.0259443
0.000469118
-0.0413562
0.0155904
-0.066166
0.0249533
-0.0833141
0.0180618
-0.091557
0.00763216
-0.0927012
0.00120953
-0.08842
-0.00408012
-0.0804668
-0.00782409
-0.0731973
-0.00715022
-0.0723214
-0.000715115
-0.0564788
-0.0156691
0.0329038
-0.0855475
-0.169569
-0.00591899
-0.163715
-0.00586151
-0.154477
-0.00924847
-0.143
-0.0114914
-0.129933
-0.0130822
-0.115186
-0.0147696
-0.0991252
-0.0160844
-0.0827826
-0.0163667
-0.0670836
-0.0157251
-0.0521981
-0.0149142
-0.0383951
-0.0138375
-0.0259147
-0.0125253
-0.0150121
-0.0109683
-0.00590335
-0.00921762
0.00224452
-0.00830292
0.0102236
-0.00811759
0.0176208
-0.0075152
0.0243447
-0.00684542
0.030668
-0.00644958
0.0367813
-0.00625998
0.0427453
-0.00610343
0.0484563
-0.00586314
0.053924
-0.00549027
0.0589037
-0.00494887
0.0633305
-0.00437798
0.0672901
-0.00394739
0.0708537
-0.00359269
0.074043
-0.0033307
0.076722
-0.00313885
0.079702
-0.00264405
0.0822702
-0.00258323
0.0847393
-0.00244263
0.0870039
-0.00232649
0.0892813
-0.00222402
0.0914725
-0.00225448
0.0938781
-0.00219146
0.0966626
-0.00278744
0.0976204
-0.00351034
0.106893
-0.00634345
-0.168078
0.174836
-0.00967715
0.181299
-0.0101032
0.1873
-0.00645459
0.192425
-0.00391018
0.197167
-0.00244076
0.200958
0.000980001
0.203717
0.00398071
0.205363
0.00658236
0.205448
0.0100073
0.203624
0.012879
0.199522
0.0155854
0.193006
0.0180241
0.184256
0.0197662
0.173574
0.0211329
0.161313
0.022334
0.147665
0.0235293
0.132809
0.0249591
0.116749
0.0265587
0.0990659
0.0286356
0.0793069
0.0305921
0.0564149
0.0327506
0.029851
0.0331872
0.00597594
0.0329717
-0.00952072
0.0322533
-0.0196693
0.0246475
-0.0265226
0.0105278
-0.0304882
0.000539534
-0.0386213
0.008665
-0.0581205
0.0351428
-0.0786997
0.0456963
-0.088129
0.0282937
-0.0908945
0.00988044
-0.0901318
0.000492347
-0.0861358
-0.00789082
-0.0799119
-0.0137426
-0.0737422
-0.0130163
-0.0681998
-0.00614899
-0.0500434
-0.0338036
0.0236677
-0.157499
-0.160655
-0.0133513
-0.15261
-0.0139157
-0.142818
-0.0190544
-0.131809
-0.0225176
-0.11937
-0.0255454
-0.105621
-0.0285404
-0.0911743
-0.0305588
-0.0765855
-0.0309821
-0.0624216
-0.0299171
-0.0488465
-0.0285184
-0.0361122
-0.0266053
-0.0243723
-0.0243048
-0.013716
-0.0216774
-0.00411812
-0.0188892
0.00467446
-0.0171845
0.0127873
-0.0163172
0.0203058
-0.0151246
0.0273024
-0.0139444
0.0339128
-0.0131737
0.0402451
-0.0127233
0.0463837
-0.0123739
0.0523213
-0.011928
0.0580795
-0.0112629
0.0634667
-0.0102789
0.0683661
-0.00917863
0.0728227
-0.00835231
0.0768944
-0.00764408
0.0805831
-0.00714087
0.08379
-0.00676183
0.0872128
-0.00573325
0.0902265
-0.00557539
0.0931098
-0.00524382
0.0957704
-0.0049933
0.0984005
-0.00470746
0.10093
-0.00481301
0.103639
-0.00455449
0.106631
-0.00555524
0.108327
-0.00713204
0.115094
-0.0102175
-0.163554
0.169798
-0.0159417
0.175605
-0.0159195
0.181347
-0.0122106
0.186004
-0.00857991
0.189607
-0.0060644
0.192382
-0.00181139
0.194203
0.00214
0.195475
0.005283
0.196243
0.00921353
0.19682
0.0122744
0.196929
0.0154447
0.196203
0.0187194
0.194003
0.0219311
0.190077
0.025026
0.183966
0.0284072
0.175797
0.0316618
0.165388
0.0353246
0.152909
0.0389939
0.138199
0.043299
0.120982
0.0477656
0.100582
0.0531202
0.0754986
0.0582561
0.0471831
0.0613159
0.0211705
0.0583445
5.47421e-05
0.0459248
-0.0163315
0.0270271
-0.0280271
0.0122116
-0.0401678
0.0209733
-0.0576645
0.0527577
-0.0737891
0.0618594
-0.082397
0.0371605
-0.0862926
0.0135727
-0.0857984
2.4387e-05
-0.0816353
-0.011999
-0.0754957
-0.0199084
-0.0688134
-0.0197057
-0.0615089
-0.0132975
-0.0453974
-0.0496781
0.0132339
-0.214701
-0.156871
-0.0200412
-0.148802
-0.0219985
-0.13856
-0.0293182
-0.127236
-0.033863
-0.114743
-0.0380625
-0.101044
-0.0422736
-0.0867329
-0.0448973
-0.0727412
-0.0450037
-0.0591185
-0.0435689
-0.0460084
-0.0416593
-0.0337585
-0.0388878
-0.0223845
-0.0357158
-0.0119077
-0.0321989
-0.00223668
-0.0286156
0.00672714
-0.0262093
0.0149554
-0.0246053
0.0226454
-0.0228804
0.0298852
-0.0212569
0.0367273
-0.0201005
0.0432483
-0.0193396
0.049552
-0.0187822
0.055674
-0.0181462
0.0616416
-0.0172775
0.067315
-0.0159519
0.0725599
-0.0144082
0.077377
-0.0131578
0.0818167
-0.0120836
0.0858722
-0.0112708
0.0894732
-0.0105931
0.0932478
-0.00930442
0.0966581
-0.00896924
0.0999388
-0.00847673
0.103039
-0.0080983
0.106116
-0.00774136
0.109114
-0.00778849
0.112298
-0.00758971
0.115674
-0.00897162
0.118108
-0.0112338
0.12395
-0.0142212
-0.160151
0.167462
-0.0232685
0.174363
-0.0228332
0.181449
-0.0193114
0.187458
-0.0146076
0.19259
-0.0112104
0.196744
-0.00599335
0.199853
-0.000995566
0.20164
0.00347384
0.202306
0.00851709
0.201981
0.0125682
0.200847
0.0165457
0.199052
0.0204796
0.19663
0.0243138
0.193447
0.0281697
0.189408
0.0324015
0.184069
0.0369579
0.177234
0.0421091
0.168551
0.0476304
0.157933
0.0538682
0.145044
0.0606193
0.129654
0.0684915
0.111041
0.076883
0.0883502
0.0840631
0.0620375
0.0847427
0.0332176
0.0748299
0.00480506
0.0555193
-0.0174721
0.0345353
-0.0336684
0.0372528
-0.050358
0.0694898
-0.0660606
0.0776675
-0.0764472
0.0479775
-0.0817235
0.0186115
-0.081537
-0.000157863
-0.0773624
-0.016111
-0.07108
-0.0260485
-0.0638091
-0.0267362
-0.0552673
-0.0215499
-0.0410555
-0.0636431
0.00333948
-0.258037
-0.152773
-0.0274338
-0.144435
-0.030356
-0.133947
-0.039826
-0.122605
-0.0452368
-0.110163
-0.0505397
-0.0965235
-0.0559388
-0.0824651
-0.058991
-0.0687777
-0.0587267
-0.0555289
-0.0568514
-0.042828
-0.0543964
-0.0309876
-0.0507652
-0.0200093
-0.046736
-0.00977112
-0.0424852
-0.000157941
-0.0382871
0.00881713
-0.0352471
0.0171283
-0.0329828
0.0249373
-0.0307631
0.0323499
-0.0287533
0.0393936
-0.0272418
0.0461201
-0.0261748
0.0525999
-0.0253794
0.0588997
-0.0245472
0.0650585
-0.0234796
0.070958
-0.0218215
0.0764735
-0.019849
0.0815911
-0.0181876
0.0863345
-0.0167536
0.0906965
-0.0156318
0.0946154
-0.0146776
0.0986579
-0.0130519
0.102354
-0.0125309
0.105919
-0.011879
0.109314
-0.0113449
0.112699
-0.010895
0.116026
-0.0109393
0.119548
-0.0106796
0.123204
-0.0122175
0.126171
-0.015241
0.13143
-0.0171485
-0.15918
0.166794
-0.0308997
0.174031
-0.0300891
0.18175
-0.0270449
0.188116
-0.0209927
0.193813
-0.0169387
0.19858
-0.0107819
0.202272
-0.00471224
0.204785
0.00092305
0.20636
0.00691255
0.206748
0.0121475
0.206126
0.0171351
0.204517
0.0220521
0.20214
0.0266552
0.198851
0.0314189
0.194774
0.03644
0.189875
0.0418119
0.184083
0.0478555
0.177222
0.0544405
0.168919
0.0621223
0.159056
0.0704346
0.147375
0.0801399
0.13364
0.0906023
0.117108
0.100609
0.0963536
0.10555
0.0692065
0.102079
0.0353181
0.0894921
0.00169253
0.0681565
-0.0222305
0.0613154
-0.0401625
0.0875313
-0.0568761
0.0943908
-0.0695483
0.0607453
-0.076356
0.0253442
-0.0767456
0.000254541
-0.0726975
-0.0201251
-0.0661657
-0.0326167
-0.058228
-0.0346981
-0.0487215
-0.0309585
-0.0363
-0.0758842
-0.00517555
-0.288336
-0.151255
-0.0353757
-0.14249
-0.03914
-0.131322
-0.0510312
-0.119541
-0.0570448
-0.106734
-0.063378
-0.0928455
-0.0698715
-0.0786169
-0.0732572
-0.0649176
-0.0724622
-0.0518414
-0.0699661
-0.0394091
-0.0668668
-0.0278586
-0.0623561
-0.0172216
-0.0574157
-0.00725415
-0.0525005
0.00221637
-0.0478094
0.0111285
-0.0442117
0.0194344
-0.0413432
0.0273093
-0.038696
0.0348434
-0.0363534
0.0420504
-0.0345213
0.048956
-0.0331648
0.0556286
-0.0321383
0.0621233
-0.0311273
0.068488
-0.0298982
0.0746277
-0.0279955
0.0804154
-0.0256401
0.0858245
-0.0236011
0.0908594
-0.0217839
0.0955132
-0.0203466
0.0997417
-0.0190113
0.10402
-0.0172541
0.107966
-0.0164845
0.111772
-0.0156647
0.115413
-0.0150149
0.119029
-0.0145112
0.122615
-0.0145265
0.126387
-0.0143912
0.130248
-0.0162301
0.133545
-0.019563
0.138438
-0.021186
-0.15877
0.166867
-0.0390266
0.174842
-0.0380749
0.18317
-0.0354013
0.190195
-0.0280469
0.196442
-0.0232046
0.201995
-0.0163745
0.206303
-0.00905614
0.209668
-0.0024653
0.211892
0.00465334
0.213062
0.0109436
0.213189
0.0169745
0.21217
0.0230328
0.21016
0.0286273
0.20715
0.0343843
0.203137
0.0404076
0.19835
0.0465467
0.192645
0.0535083
0.18607
0.060958
0.178617
0.0695256
0.170068
0.0789377
0.160318
0.0898706
0.149358
0.101567
0.136725
0.113297
0.121095
0.121263
0.0996016
0.123677
0.0684593
0.120737
0.0290183
0.107699
-0.00492465
0.0953609
-0.0272772
0.109952
-0.0457271
0.11292
-0.060875
0.0761551
-0.0695183
0.0338906
-0.070834
0.00158379
-0.0671546
-0.0237671
-0.0605279
-0.0391693
-0.0520185
-0.0430294
-0.0417093
-0.04094
-0.0308907
-0.0863762
-0.0118455
-0.306546
-0.150377
-0.0437915
-0.141218
-0.0483247
-0.129437
-0.0628359
-0.117085
-0.06944
-0.103786
-0.0767177
-0.0894666
-0.0842181
-0.0749272
-0.087841
-0.0611014
-0.0863301
-0.048045
-0.083068
-0.035732
-0.0792251
-0.024414
-0.0737232
-0.0140529
-0.0678273
-0.00432929
-0.0622806
0.00495234
-0.0571496
0.0137366
-0.0530562
0.0220023
-0.0496725
0.0298959
-0.0466603
0.0374925
-0.0440306
0.0448178
-0.0419383
0.0518789
-0.0403299
0.0587238
-0.0390923
0.0654158
-0.0379198
0.0719919
-0.0365381
0.0783872
-0.0343986
0.0844516
-0.031662
0.0901442
-0.0292096
0.0954693
-0.0270204
0.100406
-0.0252163
0.104925
-0.0235747
0.109442
-0.0215336
0.113638
-0.020509
0.11767
-0.0195204
0.121531
-0.0186888
0.125372
-0.0181138
0.129172
-0.018076
0.133165
-0.0179536
0.137197
-0.0198185
0.140758
-0.0235489
0.145388
-0.0241433
-0.159295
0.168015
-0.0477761
0.176381
-0.0464658
0.185383
-0.0444256
0.193
-0.0356885
0.199834
-0.0300846
0.205876
-0.0224412
0.210816
-0.0140231
0.21463
-0.00631961
0.217478
0.00177282
0.219268
0.00912162
0.220012
0.0161939
0.219785
0.023226
0.218485
0.0298882
0.216093
0.0367373
0.212679
0.0437779
0.208188
0.0509941
0.202773
0.0588736
0.196457
0.0672255
0.189286
0.0766461
0.181241
0.086941
0.172344
0.0987327
0.162642
0.111257
0.151992
0.123953
0.139405
0.13389
0.12292
0.140236
0.0982455
0.145482
0.0608793
0.145075
0.0194863
0.136849
-0.0105715
0.140109
-0.0320451
0.13439
-0.0498744
0.0940195
-0.0607363
0.0447166
-0.0633956
0.00428051
-0.060415
-0.0267137
-0.0539757
-0.0456413
-0.0451637
-0.0518641
-0.0342415
-0.0517918
-0.0247764
-0.0957087
-0.0162298
-0.314529
-0.150342
-0.0527563
-0.140658
-0.058031
-0.128264
-0.0752748
-0.115307
-0.0824214
-0.101462
-0.0905923
-0.0865535
-0.0991827
-0.0715572
-0.102876
-0.0574178
-0.100515
-0.0442066
-0.0963245
-0.0318403
-0.0916415
-0.0206704
-0.0849434
-0.0105184
-0.0780334
-0.000985035
-0.071869
0.00811121
-0.0663008
0.0167168
-0.0617149
0.0249066
-0.0579166
0.0327604
-0.0545722
0.0403777
-0.0517103
0.0477778
-0.0494086
0.0549703
-0.047597
0.0619779
-0.0461827
0.0688597
-0.0448748
0.0756498
-0.0433999
0.0822848
-0.0410747
0.088621
-0.0380413
0.0946071
-0.0351997
0.10021
-0.0326532
0.105429
-0.0304685
0.110228
-0.0284743
0.114979
-0.0262694
0.11941
-0.0249881
0.123668
-0.0237869
0.127756
-0.0228485
0.131794
-0.0221955
0.135816
-0.022146
0.140004
-0.0221628
0.144195
-0.0242643
0.147992
-0.0280199
0.152415
-0.0283707
-0.160383
0.169685
-0.0570862
0.178695
-0.0554922
0.188396
-0.0541549
0.196485
-0.0438158
0.203894
-0.0375079
0.21049
-0.0290823
0.215912
-0.0194803
0.220396
-0.0108262
0.223677
-0.001544
0.225997
0.00676707
0.22737
0.0147847
0.227691
0.0228684
0.226985
0.0305535
0.225248
0.0384312
0.222435
0.0465411
0.218539
0.0548395
0.213618
0.063737
0.207712
0.0730764
0.200846
0.0834546
0.193118
0.0946285
0.184677
0.107145
0.175589
0.120352
0.165809
0.133772
0.154751
0.145029
0.141248
0.153841
0.122552
0.164299
0.0921713
0.175576
0.0498385
0.179299
0.0118727
0.178157
-0.0149975
0.161323
-0.0359556
0.115132
-0.0495077
0.0582436
-0.0540158
0.00882278
-0.052175
-0.0285072
-0.0463197
-0.0514431
-0.0375906
-0.0604673
-0.0263639
-0.062717
-0.0179932
-0.103725
-0.0179728
-0.313795
-0.150924
-0.0622337
-0.140753
-0.0682355
-0.127568
-0.0884734
-0.113917
-0.0961232
-0.0994165
-0.105139
-0.0838735
-0.114751
-0.0682965
-0.118503
-0.0537103
-0.115155
-0.0402509
-0.109837
-0.0278007
-0.104151
-0.0166458
-0.0961578
-0.00661363
-0.0881278
0.00278933
-0.0813338
0.0116931
-0.0752639
0.0201275
-0.070208
0.0281897
-0.0660403
0.035981
-0.0624309
0.0435809
-0.059386
0.0510212
-0.0569349
0.0583057
-0.0549787
0.0654531
-0.0534328
0.0725077
-0.0520302
0.0795059
-0.0504769
0.0863777
-0.0479876
0.0929799
-0.0446377
0.0992427
-0.0414095
0.105129
-0.0384633
0.110626
-0.0358907
0.115704
-0.0335552
0.120681
-0.0310717
0.125354
-0.0294857
0.129832
-0.0280992
0.13413
-0.0269771
0.138374
-0.0262352
0.142583
-0.0261083
0.146955
-0.0261503
0.151301
-0.0282141
0.155306
-0.032141
0.159598
-0.0314778
-0.162186
0.172019
-0.066951
0.181626
-0.0651155
0.191981
-0.0645432
0.200637
-0.0524941
0.208654
-0.0455768
0.21582
-0.0362683
0.221782
-0.0254691
0.226619
-0.0157063
0.230487
-0.00544289
0.233228
0.00398931
0.234976
0.0130035
0.235774
0.0220318
0.235632
0.0306582
0.234458
0.0395628
0.232241
0.0487166
0.228987
0.0580459
0.224635
0.0680432
0.219229
0.0784328
0.212812
0.0898284
0.205485
0.101912
0.197404
0.1152
0.188707
0.129032
0.179404
0.143082
0.169149
0.155305
0.157146
0.165903
0.142263
0.179233
0.119676
0.198188
0.0828919
0.216152
0.0408767
0.22025
0.00702325
0.195158
-0.0182702
0.140452
-0.0351729
0.0751292
-0.0421982
0.0158951
-0.042044
-0.0286141
-0.0372746
-0.0562381
-0.0291374
-0.0686201
-0.0180667
-0.0737291
-0.0106205
-0.111071
-0.0168295
-0.307171
-0.15206
-0.0723869
-0.141278
-0.0790296
-0.127348
-0.102469
-0.11303
-0.110465
-0.097747
-0.120456
-0.0814682
-0.131092
-0.0651399
-0.134878
-0.05006
-0.130282
-0.0362359
-0.123716
-0.0235622
-0.11688
-0.0123805
-0.1074
-0.00236463
-0.0982036
0.00697933
-0.0907362
0.0157204
-0.0840588
0.0239688
-0.0785091
0.0319033
-0.0740283
0.0395856
-0.0701691
0.0471463
-0.067007
0.054594
-0.0644466
0.0619459
-0.0624015
0.069212
-0.0607701
0.0764254
-0.059319
0.0836086
-0.0577258
0.0907111
-0.0551556
0.0975766
-0.0515505
0.104105
-0.0479824
0.110269
-0.0446593
0.116033
-0.0417242
0.121394
-0.0390008
0.126605
-0.0363273
0.13151
-0.0344442
0.136212
-0.0328365
0.140711
-0.031582
0.145148
-0.0307375
0.14955
-0.0306081
0.154096
-0.0307543
0.158569
-0.0330394
0.162768
-0.0368212
0.166976
-0.0358519
-0.164375
0.174904
-0.0775029
0.18513
-0.0753757
0.196246
-0.0756913
0.205442
-0.0617322
0.213929
-0.0540767
0.221677
-0.044064
0.22811
-0.0319407
0.233448
-0.0210639
0.237759
-0.00979168
0.240933
0.000777947
0.243103
0.0107953
0.244373
0.0207217
0.244621
0.0303699
0.243877
0.0402611
0.242221
0.0503259
0.239457
0.0607566
0.235654
0.0717929
0.23076
0.0832702
0.224883
0.0956543
0.218058
0.108692
0.21035
0.122882
0.202055
0.137326
0.193144
0.152023
0.183414
0.165101
0.172281
0.17713
0.15935
0.192282
0.142703
0.214959
0.114886
0.244091
0.075091
0.260131
0.0356166
0.23468
0.0045362
0.171607
-0.0167581
0.0964171
-0.0272587
0.0264296
-0.0295166
-0.0262902
-0.0264422
-0.0592499
-0.0195034
-0.0754576
-0.00918287
-0.0837883
-0.00269595
-0.117205
-0.0131253
-0.296033
-0.153721
-0.083052
-0.142328
-0.0904756
-0.127512
-0.117293
-0.112348
-0.125688
-0.096341
-0.136512
-0.0791562
-0.148297
-0.0621127
-0.151976
-0.0464011
-0.146047
-0.0321399
-0.138038
-0.0191426
-0.129941
-0.00781212
-0.118797
0.00225356
-0.108333
0.0115614
-0.100102
0.0201723
-0.0927252
0.0282632
-0.0866537
0.0360431
-0.0818645
0.0436416
-0.0778282
0.051116
-0.074549
0.0585479
-0.0719559
0.0659393
-0.069879
0.073296
-0.0682226
0.0806462
-0.0667648
0.0880119
-0.0651822
0.0953323
-0.062539
0.102436
-0.0586899
0.109234
-0.0547659
0.115663
-0.0510577
0.121707
-0.0477173
0.127337
-0.0446486
0.132785
-0.0416584
0.137933
-0.0394366
0.142851
-0.0375935
0.147559
-0.0361467
0.152185
-0.0352084
0.15676
-0.0349785
0.161458
-0.0351326
0.166068
-0.0373365
0.170434
-0.0411702
0.174577
-0.0391458
-0.167119
0.178254
-0.0886686
0.18909
-0.086231
0.200938
-0.0875794
0.210832
-0.0716508
0.219935
-0.0632362
0.228242
-0.0523896
0.235067
-0.0387919
0.2409
-0.0269441
0.245639
-0.0145667
0.249251
-0.00287193
0.251772
0.00823355
0.253336
0.0191202
0.25401
0.029653
0.253759
0.0404737
0.252459
0.0515803
0.250189
0.0629845
0.246856
0.0750778
0.242502
0.0875834
0.237083
0.101028
0.230709
0.115035
0.223471
0.130088
0.21553
0.14526
0.206988
0.160558
0.197735
0.174378
0.187323
0.187572
0.175499
0.204158
0.162334
0.228145
0.143284
0.263206
0.111254
0.292214
0.0707907
0.275124
0.0340093
0.208431
0.00712082
0.123292
-0.00820063
0.0418258
-0.0139161
-0.0205113
-0.0132792
-0.0599133
-0.00821652
-0.0805196
0.000669439
-0.0926043
0.00591548
-0.12238
-0.0074
-0.282357
-0.155753
-0.0944608
-0.143722
-0.102515
-0.128028
-0.133054
-0.111999
-0.141734
-0.0950636
-0.153476
-0.0770421
-0.166388
-0.0591294
-0.169927
-0.0427288
-0.162498
-0.0279064
-0.152911
-0.0145958
-0.143309
-0.00301314
-0.130435
0.00721343
-0.118614
0.0165395
-0.109478
0.0250329
-0.101266
0.0329919
-0.0946606
0.0406622
-0.0895838
0.0481335
-0.0853513
0.0555414
-0.0820118
0.0629225
-0.0793964
0.0703238
-0.0773432
0.0777479
-0.0757139
0.0852145
-0.0742992
0.0927488
-0.0727871
0.100273
-0.070129
0.107614
-0.0661018
0.114664
-0.0618722
0.121364
-0.0578298
0.127677
-0.0541101
0.133589
-0.0506744
0.139277
-0.0474138
0.144658
-0.0448899
0.149812
-0.042765
0.154723
-0.0411884
0.15954
-0.0401008
0.164283
-0.0398456
0.169138
-0.040078
0.173855
-0.0424589
0.178358
-0.0460744
0.182476
-0.0436516
-0.170199
0.182085
-0.100599
0.193617
-0.0978074
0.206249
-0.10025
0.216699
-0.0821465
0.226417
-0.072962
0.235296
-0.0613205
0.24272
-0.0462558
0.248956
-0.0332031
0.254085
-0.0197396
0.258067
-0.00689848
0.260989
0.00526825
0.262954
0.0171109
0.263913
0.0286516
0.263977
0.0403652
0.263122
0.0523895
0.261263
0.0647934
0.258349
0.077942
0.254394
0.0914863
0.249418
0.105957
0.243501
0.120911
0.236705
0.136859
0.229195
0.152763
0.221049
0.168725
0.212237
0.183239
0.202482
0.197406
0.191528
0.215213
0.180146
0.239642
0.16747
0.276
0.145607
0.314162
0.110168
0.310604
0.0705467
0.248079
0.0377732
0.156048
0.0163965
0.0632063
0.00583501
-0.00988755
0.00298948
-0.0569807
0.00528663
-0.0827069
0.011927
-0.0990122
0.0153973
-0.125514
2.65092e-05
-0.266317
-0.158169
-0.106508
-0.145401
-0.115332
-0.128791
-0.149665
-0.111835
-0.158749
-0.0939856
-0.171372
-0.0750036
-0.185383
-0.056146
-0.188839
-0.0390081
-0.179693
-0.0236042
-0.168372
-0.00981218
-0.15716
0.0021249
-0.142428
0.0125404
-0.129078
0.0218631
-0.118848
0.0303415
-0.109789
0.0382113
-0.102576
0.0457554
-0.0971752
0.0531213
-0.0927692
0.0604247
-0.0893732
0.0677567
-0.0867943
0.0751423
-0.0848053
0.0826048
-0.0832608
0.0901692
-0.0819574
0.0978546
-0.0805645
0.105575
-0.0779357
0.11314
-0.0737313
0.120435
-0.0692068
0.127393
-0.0648069
0.133981
-0.0607103
0.140161
-0.0569008
0.146103
-0.0533106
0.151734
-0.0503911
0.157116
-0.0479983
0.162251
-0.0461836
0.167255
-0.0449853
0.172177
-0.0446153
0.177178
-0.0448418
0.182005
-0.047066
0.186643
-0.0506476
0.190766
-0.0471596
-0.173768
0.186285
-0.113163
0.198565
-0.110109
0.212017
-0.113746
0.223198
-0.0933502
0.233544
-0.0833699
0.243009
-0.0708015
0.250938
-0.0542153
0.257653
-0.0399749
0.263136
-0.0252636
0.267494
-0.0113023
0.270736
0.00198193
0.272988
0.0148139
0.274333
0.0272662
0.27474
0.0399154
0.274202
0.0528879
0.272679
0.0662737
0.27017
0.0804125
0.266637
0.0949768
0.262079
0.110482
0.256525
0.12643
0.250127
0.143239
0.242983
0.15989
0.23522
0.176491
0.226885
0.191581
0.217799
0.206525
0.20772
0.225324
0.19739
0.250004
0.188322
0.285115
0.175606
0.326925
0.149618
0.336579
0.11233
0.285429
0.0754345
0.192952
0.0474031
0.0913341
0.0306506
0.00695698
0.0230444
-0.0494018
0.0214985
-0.0811579
0.0249584
-0.102372
0.0260884
-0.126594
0.00895841
-0.248888
-0.160903
-0.119416
-0.147473
-0.128776
-0.129848
-0.16736
-0.111931
-0.176674
-0.0930242
-0.19031
-0.0729768
-0.205503
-0.0532032
-0.208654
-0.0352022
-0.197735
-0.0191438
-0.184476
-0.0048171
-0.171527
0.00750511
-0.154788
0.018145
-0.139754
0.0276083
-0.128345
0.0360749
-0.118293
0.043905
-0.110445
0.0513684
-0.104681
0.0586213
-0.100068
0.065813
-0.0966146
0.073064
-0.0940996
0.0804284
-0.0922277
0.0879156
-0.0908108
0.0955634
-0.0896709
0.103369
-0.0884412
0.111271
-0.0859103
0.119051
-0.0815918
0.126581
-0.0768165
0.133793
-0.0721154
0.140641
-0.0676701
0.147105
-0.0634995
0.153303
-0.0596044
0.159191
-0.05635
0.164823
-0.0536583
0.170183
-0.0516477
0.175402
-0.0502809
0.180503
-0.0498576
0.185671
-0.0500979
0.190613
-0.0524609
0.195347
-0.0557143
0.19949
-0.0517735
-0.177636
0.190939
-0.126512
0.203991
-0.123211
0.218331
-0.12812
0.230206
-0.105272
0.241201
-0.0943703
0.251267
-0.0809251
0.25974
-0.0627342
0.266886
-0.0471447
0.272798
-0.0312257
0.277488
-0.0160394
0.281118
-0.00169868
0.283662
0.0122253
0.285288
0.0255954
0.285987
0.0391753
0.285692
0.0531373
0.284538
0.0673862
0.282375
0.0825279
0.279197
0.098113
0.275038
0.114595
0.269894
0.13154
0.263866
0.14924
0.257119
0.166632
0.249749
0.183869
0.241867
0.199503
0.233365
0.215085
0.224112
0.234665
0.214673
0.25954
0.207306
0.292594
0.200753
0.333562
0.185161
0.352218
0.155263
0.315344
0.118415
0.229771
0.0850144
0.124705
0.0612817
0.0307247
0.0474803
-0.0354925
0.0409544
-0.0744838
0.0401859
-0.101373
0.0382871
-0.124363
0.0192842
-0.229249
-0.164087
-0.132993
-0.14974
-0.143171
-0.131103
-0.185993
-0.112131
-0.195712
-0.0922091
-0.210277
-0.071067
-0.226649
-0.0501774
-0.229597
-0.03131
-0.216651
-0.014481
-0.201349
0.000435246
-0.186482
0.0132312
-0.167615
0.0241437
-0.150695
0.0337454
-0.137976
0.0422747
-0.126855
0.0500593
-0.118264
0.0574524
-0.112114
0.0646214
-0.10728
0.0717247
-0.103767
0.0788996
-0.101332
0.0862143
-0.099609
0.0937088
-0.0983832
0.101404
-0.0974543
0.109334
-0.0964693
0.117402
-0.0940776
0.12538
-0.0896673
0.133133
-0.0846525
0.140592
-0.0796563
0.147708
-0.0748618
0.154451
-0.0703392
0.160912
-0.0660807
0.167062
-0.062431
0.172946
-0.0594073
0.178553
-0.0571184
0.183996
-0.0556043
0.189298
-0.0550455
0.194634
-0.0552766
0.199708
-0.0574114
0.204572
-0.0604987
0.208738
-0.0554992
-0.181867
0.196041
-0.140736
0.209879
-0.137066
0.225137
-0.143422
0.237724
-0.117883
0.249386
-0.106098
0.260185
-0.0917376
0.269143
-0.0717212
0.276771
-0.0548329
0.283162
-0.0376586
0.288213
-0.0211374
0.29214
-0.00567294
0.294991
0.00932977
0.29681
0.0237358
0.297785
0.0381613
0.297842
0.0530422
0.296949
0.0682421
0.295108
0.0843329
0.292258
0.100929
0.288371
0.11845
0.283575
0.136312
0.277929
0.154866
0.27151
0.173043
0.264535
0.19084
0.2571
0.206948
0.249184
0.223019
0.240744
0.243138
0.232178
0.268132
0.22561
0.299208
0.222184
0.337027
0.214793
0.359616
0.194628
0.335592
0.162673
0.261761
0.127478
0.160016
0.0975316
0.0607984
0.0766697
-0.0146637
0.0641352
-0.0619487
0.0580655
-0.0951575
0.0522421
-0.118495
0.0310273
-0.207765
-0.167502
-0.147394
-0.152409
-0.158276
-0.132621
-0.205854
-0.112546
-0.21579
-0.0914752
-0.231374
-0.0691335
-0.249068
-0.0471513
-0.251606
-0.0272686
-0.236566
-0.00968602
-0.218954
0.00593826
-0.202122
0.0192087
-0.180898
0.0304647
-0.161964
0.0402887
-0.147821
0.048903
-0.135494
0.0567303
-0.126123
0.0640698
-0.119488
0.0711634
-0.114414
0.0781918
-0.110842
0.0852849
-0.108475
0.0925437
-0.106925
0.100017
-0.105917
0.107755
-0.105261
0.115781
-0.104567
0.124008
-0.102386
0.132176
-0.0979237
0.140141
-0.0927188
0.147838
-0.0874683
0.155207
-0.0823741
0.16223
-0.0775071
0.168954
-0.0729308
0.175377
-0.0689401
0.181533
-0.0655871
0.18739
-0.0630668
0.193081
-0.0613247
0.198602
-0.0607091
0.204125
-0.0608782
0.209343
-0.0630819
0.214322
-0.0657781
0.218534
-0.0602352
-0.186523
0.201571
-0.155825
0.216217
-0.151761
0.232419
-0.159659
0.245743
-0.131255
0.258216
-0.118569
0.269661
-0.103242
0.279194
-0.0812982
0.287343
-0.063002
0.294124
-0.0444882
0.299506
-0.0265684
0.303755
-0.009967
0.306896
0.00614186
0.309063
0.0215301
0.310238
0.0369443
0.310525
0.0527188
0.309884
0.0688418
0.30831
0.0858713
0.305749
0.103448
0.302244
0.121923
0.297749
0.140771
0.292403
0.160193
0.286356
0.179077
0.279744
0.197461
0.272771
0.213943
0.265382
0.230459
0.257644
0.250942
0.24994
0.275924
0.243916
0.305335
0.24159
0.339444
0.238991
0.362282
0.227451
0.347166
0.203261
0.285933
0.170651
0.192579
0.137521
0.0939354
0.110314
0.0126548
0.0911214
-0.0425532
0.0788152
-0.0825804
0.06812
-0.107446
0.0441787
-0.183188
-0.171241
-0.162699
-0.15525
-0.174312
-0.134299
-0.226794
-0.113075
-0.237079
-0.0908107
-0.253679
-0.0671911
-0.272682
-0.0440092
-0.274836
-0.0231042
-0.257506
-0.00463071
-0.237451
0.0117317
-0.218496
0.0255669
-0.194742
0.0371981
-0.173606
0.0472397
-0.15788
0.0560315
-0.144308
0.0638768
-0.133998
0.071242
-0.126886
0.0782624
-0.121473
0.0852204
-0.117843
0.0922333
-0.11554
0.0994344
-0.114186
0.106891
-0.113446
0.114648
-0.113104
0.12276
-0.112779
0.131116
-0.110857
0.139467
-0.106395
0.14763
-0.10101
0.155555
-0.0955221
0.163176
-0.0901383
0.170473
-0.0849402
0.177473
-0.0800241
0.184172
-0.0756334
0.190594
-0.0719291
0.196732
-0.0690699
0.202674
-0.0671417
0.208433
-0.0663538
0.214157
-0.0665028
0.219535
-0.0684192
0.22466
-0.0708267
0.228964
-0.0642315
-0.19147
0.207381
-0.171776
0.222961
-0.167352
0.240188
-0.176929
0.25434
-0.145425
0.267568
-0.131866
0.2797
-0.115383
0.289874
-0.0914995
0.29854
-0.0717268
0.305728
-0.0517163
0.311496
-0.0323769
0.316132
-0.0146478
0.319531
0.00270356
0.321922
0.0191001
0.323351
0.0354811
0.323837
0.0521972
0.323444
0.0692035
0.322096
0.0871861
0.319819
0.105697
0.316556
0.125158
0.312396
0.144911
0.307349
0.165224
0.301618
0.1848
0.295387
0.20369
0.288853
0.220486
0.282033
0.237296
0.274905
0.258098
0.267953
0.282905
0.262436
0.310897
0.260281
0.341644
0.259645
0.362945
0.253695
0.353216
0.236941
0.302744
0.209716
0.219942
0.17738
0.126414
0.146314
0.0436755
0.121037
-0.0172964
0.102233
-0.0635667
0.0859172
-0.0910831
0.0586761
-0.15571
-0.175289
-0.178913
-0.158368
-0.191241
-0.136215
-0.24902
-0.113704
-0.259586
-0.0901914
-0.277219
-0.0652814
-0.297669
-0.0407556
-0.299384
-0.0187816
-0.27949
0.000665445
-0.256897
0.0178061
-0.235629
0.0322271
-0.209155
0.0442743
-0.185657
0.0546596
-0.168275
0.0636027
-0.153272
0.0715692
-0.141989
0.0789368
-0.134287
0.0859529
-0.128527
0.0928388
-0.124773
0.0997884
-0.12254
0.106923
-0.121377
0.114336
-0.120924
0.122111
-0.120948
0.130293
-0.121041
0.138793
-0.119443
0.147292
-0.114995
0.155649
-0.10948
0.163788
-0.103797
0.171659
-0.0981624
0.179219
-0.0926627
0.186495
-0.0874411
0.19347
-0.0827224
0.200181
-0.0786818
0.206593
-0.0755428
0.212802
-0.0733648
0.218816
-0.0724552
0.224757
-0.0725049
0.230322
-0.0744185
0.235599
-0.0763519
0.239983
-0.069107
-0.196825
0.213705
-0.188689
0.230242
-0.18394
0.248436
-0.195151
0.263535
-0.16057
0.277491
-0.145817
0.290423
-0.128376
0.301177
-0.102295
0.310402
-0.0809651
0.318076
-0.0594332
0.324252
-0.0385937
0.329112
-0.0195483
0.332866
-0.001089
0.335454
0.0164733
0.337101
0.0337993
0.337854
0.0514081
0.337631
0.0693939
0.336535
0.0882461
0.334486
0.107714
0.331512
0.128099
0.327599
0.148799
0.322839
0.169961
0.317449
0.190183
0.31154
0.209598
0.30542
0.226628
0.299094
0.243657
0.292556
0.264696
0.286258
0.289279
0.281218
0.316038
0.278975
0.343987
0.278658
0.363359
0.275343
0.356601
0.263687
0.314419
0.241892
0.241712
0.212733
0.155566
0.181129
0.075373
0.151956
0.0121052
0.127254
-0.0385131
0.105252
-0.0686743
0.0744043
-0.124188
-0.179686
-0.196073
-0.161776
-0.209193
-0.138262
-0.272518
-0.114502
-0.283416
-0.0896149
-0.302146
-0.0632837
-0.323987
-0.03746
-0.325241
-0.0142305
-0.302736
0.00620203
-0.27733
0.0242134
-0.253635
0.0392799
-0.224217
0.0518238
-0.198205
0.0625372
-0.179001
0.0717216
-0.162477
0.0798033
-0.150097
0.0872253
-0.141741
0.0942456
-0.135583
0.101084
-0.131654
0.107964
-0.129468
0.115047
-0.128518
0.122428
-0.128374
0.130196
-0.128801
0.138436
-0.129384
0.147045
-0.128173
0.155702
-0.123794
0.164236
-0.118166
0.172579
-0.112314
0.180679
-0.106444
0.188505
-0.100679
0.196049
-0.0951309
0.20331
-0.0900698
0.210298
-0.0856495
0.217006
-0.0821688
0.223505
-0.0797237
0.229772
-0.0786089
0.23596
-0.0785933
0.241715
-0.0801938
0.247188
-0.0817482
0.251711
-0.0734231
-0.202508
0.220396
-0.206616
0.237876
-0.201424
0.257275
-0.214592
0.273158
-0.176473
0.288041
-0.16077
0.301732
-0.14207
0.313229
-0.113815
0.322943
-0.0907337
0.331107
-0.0676257
0.337653
-0.0451769
0.342922
-0.0248515
0.346909
-0.00511536
0.349811
0.013539
0.351663
0.0319116
0.352593
0.0504494
0.352582
0.0693714
0.351666
0.0891365
0.349806
0.109545
0.347029
0.130855
0.343369
0.152438
0.338908
0.174412
0.333762
0.19532
0.328193
0.215169
0.322495
0.232332
0.316648
0.249523
0.31066
0.270709
0.304915
0.295058
0.30027
0.320729
0.297878
0.34643
0.297221
0.364068
0.294644
0.359278
0.285609
0.323534
0.267645
0.259806
0.241827
0.181524
0.211687
0.105471
0.180998
0.0427125
0.152176
-0.00942531
0.125351
-0.0418181
0.0911227
-0.0897699
-0.184372
-0.21424
-0.165394
-0.228178
-0.140522
-0.297465
-0.115412
-0.308517
-0.0890903
-0.328493
-0.0612806
-0.351867
-0.0339771
-0.352544
-0.00951864
-0.327184
0.0120027
-0.298831
0.030914
-0.272523
0.0466948
-0.239989
0.0597741
-0.211284
0.0708702
-0.190111
0.0803332
-0.171959
0.0885938
-0.158385
0.0961034
-0.149282
0.103141
-0.14266
0.10997
-0.138526
0.116802
-0.136352
0.123829
-0.135604
0.131172