/*--------------------------------*- C++ -*----------------------------------*\
  =========                 |
  \\      /  F ield         | OpenFOAM: The Open Source CFD Toolbox
   \\    /   O peration     | Website:  https://openfoam.org
    \\  /    A nd           | Version:  9
     \\/     M anipulation  |
\*---------------------------------------------------------------------------*/
FoamFile
{
    format      ascii;
    class       volVectorField;
    location    "20";
    object      U;
}
// * * * * * * * * * * * * * * * * * * * * * * * * * * * * * * * * * * * * * //

dimensions      [0 1 -1 0 0 0 0];

internalField   nonuniform List<vector> 
10720
(
(-2.17319 20.1224 3.74995e-17)
(-0.917917 20.6326 -3.68413e-17)
(0.493083 21.002 0)
(1.98565 20.9538 -4.4379e-16)
(3.48477 20.5963 5.1159e-16)
(4.92814 19.8998 3.20613e-16)
(6.22695 18.8507 3.78582e-16)
(7.33219 17.5014 0)
(8.19232 15.8609 0)
(8.77984 13.9997 0)
(9.09674 12.0304 5.98464e-17)
(9.15544 10.0659 0)
(8.98569 8.20928 1.64979e-15)
(8.62047 6.52972 0)
(8.07498 5.05123 0)
(7.35976 3.7769 0)
(6.4603 2.68307 -2.81122e-15)
(5.35559 1.74995 -4.06286e-15)
(4.01417 0.962483 3.78245e-15)
(2.44081 0.331652 0)
(0.747464 -0.096016 4.29552e-15)
(-0.970979 -0.265954 -1.09427e-14)
(-1.58594 0.0712016 7.2116e-15)
(-1.11573 0.16578 -1.79659e-16)
(-2.01386 -0.082605 0)
(-2.4575 -0.215566 2.22734e-15)
(-1.91606 -0.234696 3.88581e-17)
(-1.28854 -0.13121 -1.38206e-15)
(-2.49655 0.188916 -3.49319e-15)
(-5.72645 0.60367 -9.71758e-15)
(-8.50873 0.942175 4.10271e-15)
(-9.75852 1.2115 7.82669e-15)
(-10.0537 1.47735 7.18261e-15)
(-9.84281 1.75983 2.57901e-14)
(-9.50697 2.07726 -1.19313e-14)
(-9.18644 2.30795 -9.33211e-17)
(-8.6996 2.2012 5.44105e-17)
(-7.42876 1.64424 1.88022e-14)
(-3.12934 0.98079 -5.67681e-15)
(-3.29324 19.4203 1.62963e-17)
(-4.38837 18.4746 2.98399e-17)
(-5.42255 17.2764 -5.10763e-17)
(-6.30719 15.6518 7.01842e-17)
(-6.94507 13.8264 1.52847e-16)
(-7.2577 11.8126 -7.17647e-17)
(-7.18215 9.72429 1.11485e-17)
(-6.72199 7.72254 1.16579e-16)
(-5.97002 5.94347 0)
(-5.02609 4.43395 0)
(-3.96313 3.19095 7.09426e-16)
(-2.87403 2.18478 5.4462e-16)
(-1.834 1.37668 -1.61868e-15)
(-0.888461 0.768633 2.78459e-15)
(-0.0236689 0.365715 8.79451e-15)
(0.820317 0.078566 4.98444e-15)
(1.65507 -0.18357 4.78003e-15)
(2.46742 -0.403082 2.76818e-15)
(3.23128 -0.54809 0)
(3.90195 -0.613316 0)
(4.4693 -0.622897 -3.60967e-15)
(4.96618 -0.60668 -1.97068e-16)
(5.44373 -0.585513 2.99633e-15)
(5.93057 -0.557165 -2.52295e-15)
(6.42145 -0.516799 -3.78114e-18)
(6.91037 -0.465857 0)
(7.39416 -0.399932 8.87017e-16)
(7.85975 -0.314814 0)
(8.29085 -0.208909 0)
(8.68932 -0.0831526 5.90569e-16)
(9.04747 0.0668778 0)
(9.35998 0.230505 -1.80221e-15)
(9.63878 0.404934 -3.05612e-15)
(9.89304 0.586393 -1.32266e-14)
(10.1293 0.773425 4.51054e-15)
(10.3687 0.965075 -1.57701e-17)
(10.6022 1.16674 0)
(10.9149 1.38645 4.41013e-15)
(10.9296 1.68776 3.13532e-15)
(2.94919 18.423 1.48558e-17)
(4.24892 18.8734 -2.21533e-17)
(5.73881 19.1457 0)
(7.35145 19.2017 0)
(8.94745 19.0578 -1.41548e-16)
(10.5001 18.7603 -2.85815e-16)
(11.9201 18.2973 0)
(13.1593 17.688 0)
(14.1942 16.958 4.46892e-16)
(15.0025 16.0819 0)
(15.5653 15.033 1.34249e-15)
(15.8639 13.8011 0)
(15.887 12.4105 4.13422e-16)
(15.6326 10.9144 -4.2889e-16)
(15.106 9.37462 7.87788e-16)
(14.3202 7.85567 -1.53262e-15)
(13.2835 6.40413 1.53214e-15)
(11.998 5.06102 1.42871e-15)
(10.4449 3.84992 1.37821e-15)
(8.59023 2.79428 8.05555e-17)
(6.39714 1.91941 -1.49066e-15)
(3.69285 1.20648 1.70044e-15)
(0.6705 0.756859 -1.23836e-16)
(-0.976909 0.520717 0)
(-1.46331 0.179463 0)
(-1.96603 -0.0916242 0)
(-2.42168 -0.173205 1.70145e-16)
(-2.83391 0.0404299 -3.81057e-17)
(-4.54402 0.527646 1.54225e-15)
(-7.3921 0.9275 3.05322e-18)
(-9.0495 0.969546 -1.9946e-18)
(-9.45923 0.947085 -4.65246e-17)
(-9.42299 1.02986 4.7055e-15)
(-9.18229 1.26543 -8.04779e-15)
(-8.82092 1.7022 -5.36682e-17)
(-8.47179 2.24404 -1.30035e-14)
(-7.8822 2.49682 0)
(-6.27204 1.92214 -5.05303e-15)
(-3.10616 0.572327 -2.86651e-15)
(1.73917 17.8466 -2.03073e-17)
(0.569554 17.1277 3.13478e-17)
(-0.668631 16.1952 1.97327e-16)
(-1.84489 15.0022 -2.24811e-16)
(-2.87191 13.5606 0)
(-3.67767 11.8988 -2.26807e-18)
(-4.18045 10.0907 -6.09733e-17)
(-4.3271 8.26622 -4.44031e-16)
(-4.13501 6.55174 2.04521e-16)
(-3.66171 5.02464 -4.09626e-16)
(-2.98047 3.73059 7.7505e-16)
(-2.18762 2.66768 -3.48447e-16)
(-1.36716 1.79952 0)
(-0.557044 1.11399 -7.44605e-16)
(0.287706 0.635584 -4.20478e-17)
(1.11851 0.291994 -2.13288e-15)
(1.89383 -0.00139961 0)
(2.65672 -0.223572 0)
(3.39646 -0.348727 -2.12606e-16)
(4.06775 -0.389938 1.8883e-16)
(4.65213 -0.392128 -2.49066e-15)
(5.17177 -0.396833 -3.0015e-16)
(5.66824 -0.423374 1.37266e-16)
(6.16869 -0.457803 1.97764e-15)
(6.67379 -0.485673 -1.86209e-15)
(7.17877 -0.500458 -1.56133e-15)
(7.67993 -0.487258 0)
(8.16495 -0.435238 0)
(8.61887 -0.341434 0)
(9.04203 -0.209927 1.50224e-18)
(9.42524 -0.0361138 0)
(9.76425 0.156632 0)
(10.0688 0.36364 5.03169e-15)
(10.3477 0.576789 4.29416e-15)
(10.6067 0.793192 -3.61562e-15)
(10.8664 1.00988 3.03794e-15)
(11.1181 1.24086 -4.7508e-15)
(11.4278 1.49628 -3.56355e-15)
(11.5485 1.7636 -2.57339e-15)
(1.87874 16.9764 4.85999e-18)
(2.85489 17.4214 1.06049e-16)
(3.98779 17.7778 -8.37737e-17)
(5.23946 17.9965 -8.70066e-17)
(6.52608 18.0356 -2.11752e-16)
(7.82399 17.8819 6.58612e-16)
(9.11913 17.5311 -4.40651e-16)
(10.3685 16.9993 -4.18986e-16)
(11.5621 16.3208 -2.075e-17)
(12.6679 15.5402 -4.34615e-16)
(13.658 14.6841 3.34142e-16)
(14.5046 13.7539 -7.94109e-16)
(15.1648 12.7398 -3.38691e-16)
(15.5969 11.6371 0)
(15.7648 10.4544 -6.99281e-16)
(15.6418 9.21823 1.31175e-15)
(15.2133 7.96237 0)
(14.4747 6.7324 -2.23916e-15)
(13.4248 5.56972 -1.04497e-15)
(12.0606 4.51802 1.15784e-16)
(10.3643 3.60889 -1.20869e-16)
(8.24218 2.83345 -5.6678e-17)
(5.53994 2.15194 -9.25887e-16)
(2.86015 1.52761 5.90951e-16)
(0.944424 0.858868 0)
(-0.514456 0.298507 9.5982e-16)
(-1.85897 0.0537457 -1.24831e-16)
(-2.91692 0.244931 0)
(-4.60107 0.791526 1.0663e-15)
(-6.69475 1.10461 1.79633e-15)
(-7.94221 0.9624 -3.58548e-15)
(-8.50669 0.826055 -3.60441e-15)
(-8.58733 0.776341 -5.8073e-17)
(-8.32668 0.844368 -5.63957e-15)
(-7.91936 1.20391 -4.92319e-15)
(-7.48647 1.84472 8.90806e-15)
(-6.77442 2.27699 0)
(-5.27682 1.72639 -3.50872e-15)
(-3.02709 0.112997 4.02638e-15)
(1.02207 16.4336 1.40645e-17)
(0.206235 15.7703 1.97041e-17)
(-0.599321 14.9051 -1.0848e-16)
(-1.37834 13.8503 0)
(-2.05313 12.6308 -2.52234e-17)
(-2.59329 11.2489 0)
(-2.95138 9.75091 1.23545e-16)
(-3.08233 8.22368 1.07386e-16)
(-2.97095 6.75303 1.87625e-16)
(-2.63287 5.40046 0)
(-2.11466 4.2098 -8.56434e-16)
(-1.48554 3.19016 -2.92775e-16)
(-0.814694 2.31588 1.83321e-15)
(-0.126471 1.58339 0)
(0.629803 1.03682 -1.64385e-15)
(1.3911 0.639562 -4.623e-16)
(2.11214 0.309333 2.03245e-15)
(2.825 0.0549308 1.08741e-15)
(3.522 -0.107327 3.24776e-16)
(4.16792 -0.196473 -1.50286e-16)
(4.7446 -0.256795 2.00942e-15)
(5.26617 -0.326791 0)
(5.76471 -0.419534 0)
(6.26426 -0.519797 -1.92599e-17)
(6.76903 -0.607774 0)
(7.27545 -0.668693 2.8179e-15)
(7.77952 -0.685673 -4.03746e-17)
(8.27002 -0.648508 -2.77178e-16)
(8.73408 -0.557101 0)
(9.17091 -0.418718 -4.32567e-16)
(9.57197 -0.230555 7.63292e-16)
(9.93478 -0.0209763 0)
(10.2676 0.205194 -2.31362e-15)
(10.5779 0.438634 0)
(10.8701 0.677195 0)
(11.1625 0.913831 4.17359e-17)
(11.4495 1.17123 -6.27352e-17)
(11.7656 1.44422 3.34068e-15)
(11.9962 1.76118 4.8222e-15)
(3.24694 15.7822 1.22739e-17)
(4.16332 16.1946 2.74289e-17)
(5.20671 16.5351 -6.15504e-17)
(6.35337 16.7504 -5.3763e-17)
(7.53468 16.8131 0)
(8.7338 16.7123 0)
(9.90293 16.4417 -7.10475e-16)
(10.9934 16.0058 7.63942e-16)
(11.9746 15.4158 0)
(12.8304 14.6974 -6.99371e-16)
(13.5558 13.8833 -7.61081e-16)
(14.1586 13.0059 -6.71319e-16)
(14.6443 12.0919 7.0184e-16)
(15.0088 11.1553 6.23747e-16)
(15.2368 10.2004 0)
(15.3015 9.23008 8.4863e-16)
(15.1725 8.24941 2.77672e-16)
(14.8198 7.27498 1.9863e-15)
(14.2197 6.32888 1.09179e-16)
(13.357 5.44493 -1.09985e-16)
(12.2242 4.65672 8.77386e-16)
(10.8042 3.97663 -1.41727e-16)
(9.00263 3.35105 7.85887e-16)
(6.83924 2.66841 4.13972e-16)
(4.49516 1.84451 -3.05176e-17)
(1.98114 0.999454 -5.71995e-16)
(-0.489308 0.442702 5.54646e-18)
(-2.18425 0.503805 -4.92211e-18)
(-3.77008 1.01696 -8.51346e-16)
(-5.54748 1.24701 -2.34153e-17)
(-6.85622 1.01018 1.48194e-15)
(-7.62286 0.806833 -2.93228e-15)
(-7.77884 0.650777 -2.52589e-15)
(-7.53272 0.56163 -1.96696e-17)
(-7.10477 0.771623 3.70146e-15)
(-6.61509 1.39143 0)
(-5.85032 1.94083 5.2608e-15)
(-4.41413 1.45406 2.67259e-15)
(-2.8671 -0.293932 -1.65494e-15)
(2.41696 15.3044 5.27098e-18)
(1.61111 14.7385 -4.31145e-17)
(0.798123 14.0164 -8.66224e-17)
(0.00646862 13.1229 0)
(-0.687477 12.0803 2.36735e-17)
(-1.25982 10.8898 0)
(-1.67124 9.58737 -1.45873e-16)
(-1.88379 8.24682 -1.12226e-17)
(-1.88241 6.93776 1.76409e-16)
(-1.67601 5.7091 2.99177e-16)
(-1.30186 4.59872 1.33125e-17)
(-0.816271 3.62137 9.01736e-16)
(-0.275055 2.76326 -9.41943e-16)
(0.310302 2.02567 3.70408e-16)
(0.97376 1.44723 1.55434e-15)
(1.65474 1.00176 1.74334e-15)
(2.31525 0.63298 -1.60567e-15)
(2.97425 0.341706 -1.28016e-17)
(3.62673 0.134443 0)
(4.24569 -0.00614004 1.93308e-15)
(4.81277 -0.115305 1.10571e-16)
(5.33404 -0.224505 -1.73471e-15)
(5.83248 -0.343466 0)
(6.32811 -0.460433 -1.75345e-17)
(6.82682 -0.556495 0)
(7.32627 -0.61756 -1.19302e-15)
(7.8227 -0.630759 0)
(8.30639 -0.588478 2.4395e-16)
(8.76672 -0.492935 -9.88078e-18)
(9.20211 -0.351988 6.2002e-18)
(9.60465 -0.16667 -6.43807e-16)
(9.97343 0.0370758 -1.92835e-17)
(10.3158 0.254893 0)
(10.6392 0.478362 1.77302e-15)
(10.9474 0.706781 2.53259e-17)
(11.2576 0.934936 -2.52798e-15)
(11.5646 1.18879 8.15555e-15)
(11.8838 1.46208 1.36543e-17)
(12.1676 1.77902 0)
(3.61648 14.871 1.45205e-17)
(4.38442 15.2599 2.51e-17)
(5.2745 15.6012 -1.06614e-16)
(6.25355 15.8509 4.86558e-16)
(7.26363 15.9793 -1.26405e-16)
(8.3044 15.9758 -2.70639e-16)
(9.341 15.8275 3.32e-16)
(10.3404 15.5279 0)
(11.2926 15.0711 9.43102e-16)
(12.1641 14.471 3.57835e-16)
(12.9261 13.7501 0)
(13.5626 12.9361 6.42115e-16)
(14.0658 12.0615 -2.93859e-16)
(14.4351 11.1557 8.14603e-16)
(14.6719 10.2408 0)
(14.7745 9.33404 -1.05817e-15)
(14.7364 8.44563 9.59861e-16)
(14.5445 7.58607 -1.55938e-17)
(14.1822 6.76567 0)
(13.6331 6.00247 8.59481e-16)
(12.8882 5.31608 -7.94026e-16)
(11.9499 4.7181 -4.12362e-17)
(10.7956 4.16943 -6.56435e-16)
(9.36239 3.55958 -6.35615e-16)
(7.52411 2.7907 0)
(4.9842 1.88657 0)
(1.74233 1.07746 -1.26041e-16)
(-0.943417 0.859621 -1.63939e-17)
(-2.65179 1.24637 7.54243e-16)
(-4.30645 1.39147 -2.06269e-17)
(-5.76032 1.08714 1.82402e-17)
(-6.70724 0.818609 2.41867e-15)
(-6.95119 0.582411 0)
(-6.74343 0.374042 7.25369e-15)
(-6.31459 0.419553 -2.54964e-17)
(-5.78801 0.933093 0)
(-5.00205 1.54086 -1.17672e-16)
(-3.60756 1.14831 0)
(-2.62131 -0.642238 1.68853e-15)
(2.92867 14.4271 -1.60086e-17)
(2.26682 13.9126 5.04401e-17)
(1.58826 13.2637 -3.38815e-17)
(0.907578 12.4717 5.18963e-18)
(0.295146 11.5607 2.92752e-17)
(-0.232443 10.5214 -9.40173e-17)
(-0.638435 9.37901 1.31887e-16)
(-0.881638 8.1955 -2.55884e-16)
(-0.942432 7.02931 -2.05832e-16)
(-0.824148 5.91852 -2.69231e-16)
(-0.555812 4.89451 6.46366e-16)
(-0.184033 3.97285 -8.36657e-16)
(0.248422 3.14827 -5.25598e-16)
(0.74328 2.4258 5.98602e-16)
(1.31646 1.83491 -1.55698e-15)
(1.91653 1.35787 2.62667e-16)
(2.51528 0.960046 0)
(3.12034 0.636339 -1.23442e-15)
(3.72771 0.389214 4.53692e-16)
(4.31684 0.207091 -1.89035e-15)
(4.87002 0.0642068 0)
(5.38683 -0.0653387 1.43487e-15)
(5.88213 -0.191874 1.23261e-15)
(6.37172 -0.309622 -1.15964e-15)
(6.862 -0.403897 0)
(7.35174 -0.462678 -1.04349e-15)
(7.83769 -0.475973 0)
(8.31175 -0.437139 0)
(8.76531 -0.34912 0)
(9.19613 -0.218744 3.40394e-16)
(9.59674 -0.0488622 0)
(9.96691 0.139319 0)
(10.3129 0.341676 -1.85744e-15)
(10.6417 0.550795 -1.58963e-15)
(10.9566 0.767086 0)
(11.2741 0.986084 -2.33428e-15)
(11.5883 1.23506 8.63156e-17)
(11.9047 1.50672 0)
(12.2044 1.81525 -2.17692e-15)
(4.21594 14.0793 -2.2716e-17)
(4.92134 14.4368 1.75251e-17)
(5.73836 14.7517 0)
(6.63073 14.9861 -3.72694e-18)
(7.54529 15.1173 -3.07908e-16)
(8.49175 15.1359 2.59987e-16)
(9.44007 15.0294 2.23874e-17)
(10.3596 14.7945 -7.97373e-16)
(11.2274 14.4342 -6.60315e-17)
(12.0206 13.9565 8.19392e-16)
(12.7204 13.3739 -2.75735e-16)
(13.3157 12.7 5.21399e-16)
(13.797 11.9535 2.48141e-16)
(14.158 11.1545 1.92618e-16)
(14.3951 10.3235 0)
(14.5066 9.48233 -2.279e-16)
(14.4917 8.65038 -4.54477e-16)
(14.3495 7.8461 -1.66071e-15)
(14.077 7.08481 4.6818e-16)
(13.6706 6.38334 -5.29255e-16)
(13.1287 5.75505 -8.477e-17)
(12.4598 5.20613 0)
(11.6701 4.70636 5.54857e-16)
(10.7159 4.16875 3.76718e-17)
(9.4594 3.51867 -1.9918e-17)
(7.52126 2.73241 -3.05421e-16)
(4.4288 1.87912 8.06896e-17)
(0.902137 1.37375 2.02752e-16)
(-1.35047 1.52274 -6.90569e-16)
(-2.98934 1.54798 -3.85563e-17)
(-4.58986 1.17937 1.21107e-15)
(-5.71386 0.838418 2.18059e-15)
(-6.06927 0.534597 0)
(-5.92346 0.24679 3.66777e-17)
(-5.5174 0.152251 -2.72897e-15)
(-4.9764 0.512557 0)
(-4.19662 1.11015 -7.80242e-15)
(-2.83442 0.826555 0)
(-2.30196 -0.931888 -1.52587e-15)
(3.5824 13.6747 1.55655e-17)
(2.97561 13.2106 -1.92138e-17)
(2.35114 12.6288 0)
(1.72266 11.9198 0)
(1.15421 11.1092 -1.16033e-17)
(0.65427 10.1855 1.55907e-16)
(0.253807 9.16825 0)
(-0.00817143 8.11153 -2.53925e-16)
(-0.111036 7.0651 -3.49308e-16)
(-0.0565225 6.05806 4.63868e-16)
(0.130288 5.11616 -1.36698e-17)
(0.409135 4.25422 3.48622e-16)
(0.750315 3.47211 -2.21527e-17)
(1.16664 2.77698 1.5238e-15)
(1.65786 2.18902 1.51928e-15)
(2.18149 1.69574 -1.45389e-15)
(2.71904 1.27801 2.27185e-16)
(3.27076 0.929946 -4.26372e-16)
(3.83248 0.652851 1.999e-16)
(4.38859 0.439882 1.2848e-15)
(4.92276 0.272771 1.72415e-16)
(5.43019 0.130046 -1.5759e-16)
(5.91899 8.14326e-05 -1.03991e-15)
(6.40075 -0.116536 0)
(6.88133 -0.209576 6.27046e-17)
(7.36023 -0.26905 1.8279e-15)
(7.83478 -0.286917 -1.30504e-17)
(8.29839 -0.257441 1.25825e-17)
(8.7441 -0.183206 0)
(9.16919 -0.0692555 -3.08825e-16)
(9.56649 0.0813512 0)
(9.93595 0.251529 0)
(10.2829 0.437275 1.65089e-15)
(10.6139 0.632127 1.50107e-15)
(10.9315 0.836738 0)
(11.2517 1.0473 2.08799e-15)
(11.5675 1.29071 -6.78298e-15)
(11.8791 1.55817 2.27344e-17)
(12.1815 1.85804 1.9298e-15)
(4.66615 13.4015 -5.56623e-18)
(5.30628 13.7341 1.40216e-17)
(6.05039 14.0304 -7.60506e-17)
(6.86011 14.2565 7.61753e-17)
(7.68474 14.3935 1.96147e-16)
(8.54146 14.4349 0)
(9.4044 14.3689 -4.09269e-16)
(10.2465 14.1911 4.2455e-17)
(11.055 13.8997 -2.86027e-16)
(11.8085 13.5001 -5.25297e-16)
(12.4862 13.0061 0)
(13.0753 12.4297 -9.6804e-16)
(13.5651 11.7851 -7.24048e-16)
(13.947 11.0856 -1.59984e-15)
(14.214 10.3448 0)
(14.3607 9.5798 -8.21515e-16)
(14.3843 8.80829 -7.82167e-16)
(14.2854 8.0507 7.61593e-16)
(14.0668 7.32696 -7.07057e-16)
(13.7338 6.65736 6.45375e-16)
(13.2946 6.05648 7.40109e-17)
(12.7641 5.53024 -6.41173e-16)
(12.1597 5.05591 0)
(11.4583 4.56652 -5.83675e-16)
(10.5701 4.01529 3.50594e-17)
(9.2443 3.39229 2.89532e-16)
(6.87555 2.67233 0)
(3.29631 2.03805 -9.90712e-18)
(0.221055 1.87571 3.00997e-17)
(-1.57805 1.72809 1.12219e-15)
(-3.31373 1.28165 -1.08822e-15)
(-4.62134 0.857974 -2.0651e-15)
(-5.11566 0.486816 1.92545e-15)
(-5.05676 0.148399 1.81884e-17)
(-4.70053 -0.0449878 2.55485e-15)
(-4.16935 0.152642 4.31349e-15)
(-3.42328 0.679393 3.68458e-15)
(-2.09715 0.498243 -3.2776e-17)
(-1.91726 -1.17119 9.77e-18)
(4.09118 13.0276 -5.99382e-18)
(3.54225 12.6034 -2.20798e-17)
(2.97338 12.0743 1.01819e-18)
(2.39629 11.4315 2.5318e-17)
(1.87151 10.7012 -6.45746e-17)
(1.40286 9.87074 4.52479e-17)
(1.0169 8.95587 1.65927e-16)
(0.750449 8.00463 6.12625e-16)
(0.623057 7.05995 3.56195e-16)
(0.632925 6.14407 -4.21008e-16)
(0.75732 5.27867 -3.88449e-17)
(0.962217 4.47761 -3.58026e-16)
(1.23062 3.74179 0)
(1.57889 3.07968 -2.48148e-17)
(1.99546 2.50415 -8.76639e-16)
(2.44921 2.00692 4.18067e-16)
(2.92789 1.57857 -3.96611e-16)
(3.42768 1.21476 0)
(3.94388 0.916118 7.0432e-16)
(4.46451 0.679067 -1.33615e-15)
(4.97515 0.491219 0)
(5.46847 0.335477 1.14397e-15)
(5.94744 0.199824 0)
(6.41964 0.0813839 -6.16529e-17)
(6.88972 -0.0134934 5.93466e-17)
(7.35736 -0.0768718 -8.41764e-16)
(7.82029 -0.102195 -1.34205e-17)
(8.27322 -0.0846255 -1.15907e-17)
(8.71052 -0.0256174 4.85695e-18)
(9.12907 0.0712325 -2.93073e-16)
(9.52191 0.2035 -5.11726e-16)
(9.88918 0.356907 8.76769e-16)
(10.2353 0.527584 2.58068e-17)
(10.5662 0.709783 2.00465e-17)
(10.8842 0.904092 0)
(11.2045 1.10661 2.84073e-17)
(11.5191 1.34349 3.05183e-15)
(11.8253 1.60496 4.21272e-18)
(12.1268 1.89487 1.91275e-15)
(5.08343 12.8044 -2.88173e-18)
(5.67255 13.113 -2.31393e-17)
(6.35706 13.39 0)
(7.09932 13.6044 -1.69549e-17)
(7.85067 13.7412 1.42641e-16)
(8.63288 13.7958 0)
(9.42375 13.7565 -1.50117e-16)
(10.1994 13.62 1.04908e-15)
(10.9505 13.3838 -1.28922e-15)
(11.6586 13.0498 4.0714e-16)
(12.3055 12.6288 4.31351e-16)
(12.8791 12.1317 1.27997e-15)
(13.3687 11.5701 8.15176e-16)
(13.7653 10.954 8.50324e-16)
(14.0606 10.2929 1.96181e-16)
(14.2464 9.59972 5.89401e-16)
(14.3168 8.88901 7.40992e-16)
(14.2694 8.17955 6.7191e-16)
(14.1062 7.49159 -4.75375e-16)
(13.8339 6.84689 -1.3496e-15)
(13.4643 6.2622 0)
(13.0161 5.7459 5.85846e-18)
(12.5111 5.28305 5.04377e-16)
(11.9396 4.82401 5.39536e-16)
(11.2414 4.33841 -3.17399e-17)
(10.2984 3.84268 -2.53585e-16)
(8.69531 3.31764 1.9699e-18)
(5.76678 2.73904 -1.47158e-16)
(2.23429 2.33492 1.59816e-17)
(-0.0295709 1.95011 -2.13656e-15)
(-1.90828 1.39413 2.26327e-18)
(-3.40989 0.87627 -3.18608e-17)
(-4.07377 0.429844 -1.92744e-15)
(-4.13049 0.0551876 1.85259e-17)
(-3.85438 -0.196678 -2.48246e-15)
(-3.36147 -0.142131 -8.35918e-15)
(-2.67623 0.273206 3.38696e-15)
(-1.40282 0.171901 2.01781e-15)
(-1.484 -1.36774 -1.7633e-15)
(4.55345 12.4593 1.4036e-17)
(4.04896 12.0709 2.82143e-17)
(3.52327 11.5873 1.93706e-18)
(2.9874 11.0002 -1.07568e-17)
(2.49806 10.3363 3.09424e-17)
(2.05648 9.58212 8.79967e-18)
(1.68581 8.75144 -4.99378e-16)
(1.4206 7.88793 -2.77138e-16)
(1.27849 7.02914 -2.44268e-17)
(1.25597 6.19264 0)
(1.33084 5.39662 -5.01887e-16)
(1.47651 4.65411 6.05877e-16)
(1.6894 3.9656 -7.07026e-16)
(1.979 3.33909 -3.83829e-16)
(2.32803 2.78173 3.69273e-16)
(2.71904 2.28941 3.54044e-16)
(3.14222 1.85804 1.4005e-15)
(3.59198 1.48513 -3.36834e-16)
(4.06337 1.17124 -6.45042e-16)
(4.54699 0.914911 0)
(5.03062 0.708395 -1.11916e-15)
(5.50583 0.538755 -9.30012e-16)
(5.97196 0.394885 -2.44717e-18)
(6.43301 0.271847 -1.16322e-16)
(6.89196 0.172996 -5.27998e-17)
(7.34809 0.104347 8.45882e-16)
(7.79939 0.0708891 -2.23403e-17)
(8.24158 0.0768637 1.88352e-16)
(8.66996 0.121629 4.22065e-17)
(9.08118 0.203076 2.65179e-16)
(9.46864 0.318814 -2.71479e-18)
(9.83245 0.456798 -1.71908e-15)
(10.1762 0.613456 -1.44292e-15)
(10.5054 0.783638 -1.2779e-15)
(10.8218 0.967649 -3.43458e-17)
(11.14 1.16175 1.5383e-17)
(11.4514 1.39044 -2.99884e-15)
(11.7518 1.64321 -2.3471e-15)
(12.0518 1.92262 -1.73696e-15)
(5.4466 12.2783 9.35085e-18)
(5.98973 12.5657 1.30073e-17)
(6.62101 12.8255 1.03367e-16)
(7.30267 13.0298 -4.52098e-16)
(7.98857 13.1655 2.40447e-16)
(8.70328 13.2305 -2.72827e-16)
(9.42752 13.2138 6.45758e-16)
(10.1395 13.1123 0)
(10.833 12.9242 4.01851e-16)
(11.493 12.6492 -1.298e-17)
(12.1062 12.2919 -3.85719e-16)
(12.6625 11.861 -1.19845e-15)
(13.1504 11.3668 -4.12725e-16)
(13.5606 10.8175 0)
(13.8834 10.2208 0)
(14.1087 9.58707 0)
(14.2283 8.92868 0)
(14.2372 8.26215 -6.38236e-16)
(14.1346 7.60647 5.97825e-16)
(13.9256 6.98288 5.57935e-16)
(13.6209 6.40934 -4.47019e-16)
(13.2392 5.89659 3.68778e-16)
(12.8024 5.43662 -3.83922e-16)
(12.3098 4.99503 -2.89783e-17)
(11.7177 4.55122 -1.45715e-17)
(10.9674 4.13156 2.47203e-16)
(9.8839 3.76582 5.57237e-17)
(7.86419 3.36071 0)
(4.57492 2.86923 0)
(1.78687 2.24218 -1.17365e-18)
(-0.336009 1.52473 0)
(-2.05128 0.896792 2.08319e-15)
(-2.92064 0.363283 -2.01709e-15)
(-3.12838 -0.0467774 -3.06942e-15)
(-2.96474 -0.327421 4.94181e-15)
(-2.5447 -0.379327 4.18131e-15)
(-1.94544 -0.0889116 -3.41214e-15)
(-0.753734 -0.143046 -4.14326e-15)
(-1.02377 -1.52545 1.847e-15)
(4.95716 11.9584 0)
(4.49189 11.5999 -9.94305e-18)
(4.00459 11.1546 -1.2081e-17)
(3.50513 10.6146 -2.92891e-17)
(3.04771 10.006 7.58634e-17)
(2.63121 9.3157 -9.74336e-17)
(2.27665 8.55575 -2.29654e-17)
(2.01651 7.76614 1.90463e-16)
(1.86656 6.98095 2.85871e-16)
(1.82072 6.21422 0)
(1.85646 5.48097 2.37627e-16)
(1.95536 4.79266 -8.4968e-16)
(2.12435 4.15041 1.60497e-15)
(2.36331 3.55995 3.23853e-16)
(2.6545 3.02493 -6.63579e-16)
(2.98977 2.54391 -6.53518e-16)
(3.36141 2.11567 -6.36576e-16)
(3.76366 1.73931 0)
(4.19168 1.41565 0)
(4.63788 1.14456 0)
(5.09218 0.921843 1.04156e-15)
(5.54612 0.738274 0)
(5.99668 0.584497 -7.88137e-16)
(6.44491 0.454778 -1.0751e-16)
(6.8919 0.350357 -7.92381e-16)
(7.33622 0.275535 -7.47471e-16)
(7.77582 0.233871 0)
(8.20712 0.229048 -1.57267e-16)
(8.62618 0.260855 -4.41283e-17)
(9.02947 0.328311 8.2832e-18)
(9.41074 0.428821 9.09359e-16)
(9.77003 0.552333 -4.90791e-18)
(10.1102 0.695536 1.38285e-15)
(10.4361 0.853683 -1.21034e-15)
(10.7494 1.02707 0)
(11.0638 1.21175 -2.56794e-17)
(11.3701 1.43081 -3.56397e-17)
(11.664 1.67284 2.22011e-15)
(11.9616 1.93935 -1.52897e-17)
(5.77651 11.808 -5.71678e-18)
(6.28141 12.0758 0)
(6.86792 12.3191 -1.59517e-16)
(7.49891 12.5125 1.88112e-16)
(8.13067 12.6451 -1.15174e-16)
(8.78929 12.7153 2.60125e-16)
(9.45733 12.7133 -2.91497e-16)
(10.1149 12.6368 -2.90126e-16)
(10.7582 12.4843 0)
(11.3734 12.2561 -3.618e-16)
(11.9497 11.9533 -3.34388e-16)
(12.4791 11.5827 3.21927e-16)
(12.9519 11.1518 1.00807e-15)
(13.3603 10.6666 3.37227e-16)
(13.6958 10.1322 -9.65042e-16)
(13.9479 9.55652 -6.16823e-16)
(14.1071 8.94953 4.42763e-16)
(14.1664 8.3255 2.86975e-16)
(14.1223 7.7018 -1.3806e-16)
(13.9768 7.0985 1.24698e-16)
(13.7375 6.53399 3.0236e-16)
(13.4201 6.02105 5.75426e-17)
(13.0441 5.55772 -5.41624e-17)
(12.6137 5.12192 -3.68848e-16)
(12.0994 4.70195 0)
(11.4587 4.32103 -2.07891e-16)
(10.6442 4.04301 -1.01678e-16)
(9.38885 3.8236 -9.82935e-17)
(6.88805 3.40208 -4.07921e-16)
(3.93546 2.61184 1.85133e-15)
(1.47249 1.69261 9.47552e-16)
(-0.499177 0.925654 3.40205e-17)
(-1.62405 0.293339 -3.32738e-18)
(-2.0287 -0.162044 0)
(-2.01119 -0.456771 -2.55954e-15)
(-1.70501 -0.575707 0)
(-1.21399 -0.398911 0)
(-0.143258 -0.440787 2.16186e-15)
(-0.552378 -1.64894 -2.17962e-17)
(5.32073 11.5102 1.47429e-17)
(4.88827 11.1782 -2.13026e-17)
(4.43344 10.7662 -5.83624e-18)
(3.96548 10.2664 -3.37746e-18)
(3.53589 9.70514 -9.80072e-17)
(3.14224 9.06921 1.18109e-16)
(2.80351 8.36928 3.89714e-17)
(2.55039 7.64288 -1.79965e-16)
(2.39663 6.9212 -2.41274e-16)
(2.33364 6.21586 -3.15665e-16)
(2.33911 5.53945 -8.36149e-16)
(2.40429 4.90078 0)
(2.53794 4.30257 -5.64658e-16)
(2.73135 3.7474 -1.76882e-17)
(2.97361 3.23747 0)
(3.25989 2.77235 -5.65753e-16)
(3.58441 2.35219 -2.73797e-16)
(3.94213 1.97717 -2.72973e-16)
(4.32867 1.64854 1.04284e-15)
(4.73791 1.3671 9.94883e-16)
(5.16162 1.13111 -1.18066e-16)
(5.59199 0.934573 8.89111e-16)
(6.02464 0.770228 2.22728e-16)
(6.45841 0.632564 -9.97047e-17)
(6.89253 0.521495 7.0152e-16)
(7.32461 0.439956 4.41857e-17)
(7.75235 0.390269 0)
(8.17267 0.375429 0)
(8.58205 0.395481 -8.13238e-18)
(8.97692 0.450189 2.24892e-17)
(9.35141 0.536717 -8.80576e-16)
(9.70531 0.646536 -3.02439e-18)
(10.0408 0.776749 1.37726e-15)
(10.3624 0.922895 1.15312e-15)
(10.6712 1.08524 2.99387e-17)
(10.9802 1.25997 -3.46008e-18)
(11.2799 1.46843 5.52403e-15)
(11.5664 1.69819 -2.24736e-15)
(11.8605 1.9501 1.50703e-17)
(6.07355 11.3837 -2.45912e-18)
(6.54488 11.6343 0)
(7.09194 11.8627 6.97516e-17)
(7.6785 12.0461 0)
(8.263 12.1745 -1.95589e-16)
(8.87273 12.2478 1.96336e-16)
(9.49166 12.257 2.26613e-16)
(10.1013 12.1998 2.77121e-16)
(10.6992 12.0751 0)
(11.274 11.8837 -2.82901e-16)
(11.8166 11.6253 3.54496e-16)
(12.3207 11.3035 -6.58983e-16)
(12.7772 10.9256 -3.33529e-16)
(13.1785 10.4964 -3.0422e-16)
(13.5172 10.0194 6.16254e-16)
(13.7842 9.49998 5.94455e-16)
(13.9704 8.94552 -5.68723e-16)
(14.0681 8.36741 -5.19302e-16)
(14.0726 7.78036 0)
(13.9834 7.20243 1.15925e-16)
(13.8052 6.6511 -2.22549e-16)
(13.5496 6.14049 5.49314e-17)
(13.2326 5.67309 7.00872e-19)
(12.8599 5.23629 8.64989e-16)
(12.4139 4.82605 -4.8943e-17)
(11.8623 4.46165 2.84412e-17)
(11.1845 4.20988 9.34205e-17)
(10.3933 4.11007 1.02203e-16)
(8.82927 3.84384 3.35235e-16)
(6.25547 3.02272 -8.39313e-16)
(3.57318 1.91694 -8.5417e-16)
(1.30774 0.974226 -4.09173e-15)
(-0.135405 0.229038 4.21228e-15)
(-0.801505 -0.28512 -5.90918e-17)
(-0.968206 -0.594697 2.7485e-15)
(-0.820522 -0.748415 -9.94216e-17)
(-0.455991 -0.65673 6.02889e-17)
(0.444115 -0.718237 -2.7467e-17)
(-0.0732756 -1.74077 2.2488e-15)
(5.64737 11.1061 -1.03488e-17)
(5.24371 10.7972 8.26985e-18)
(4.81747 10.4142 -4.31088e-18)
(4.37736 9.94973 0)
(3.97286 9.42924 5.88124e-17)
(3.60023 8.84019 0)
(3.2769 8.19225 0)
(3.03204 7.52043 0)
(2.87691 6.85417 4.95636e-16)
(2.80046 6.20299 -3.26348e-16)
(2.78287 5.57724 3.9968e-16)
(2.82386 4.98446 0)
(2.92764 4.42715 0)
(3.08303 3.90612 -5.10917e-16)
(3.28421 3.42275 0)
(3.5278 2.97661 5.20423e-16)
(3.80982 2.56817 1.37871e-17)
(4.12632 2.19847 0)
(4.47363 1.86904 -7.31831e-16)
(4.84694 1.58133 -1.16074e-15)
(5.23964 1.33523 -8.67271e-16)
(5.64484 1.12741 -8.34643e-16)
(6.05768 0.952706 1.55724e-15)
(6.47547 0.806465 0)
(6.89571 0.688043 6.44099e-16)
(7.31499 0.59937 6.86172e-16)
(7.73065 0.541745 3.00461e-16)
(8.13981 0.51747 0)
(8.53926 0.526818 -3.17211e-17)
(8.9254 0.569692 -2.30262e-16)
(9.29265 0.643276 8.28994e-16)
(9.6406 0.740263 -1.39853e-18)
(9.97079 0.858108 -1.26424e-15)
(10.2872 0.992608 1.07481e-15)
(10.5907 1.14395 3.24716e-18)
(10.8935 1.30846 2.77562e-17)
(11.1857 1.50579 -5.44519e-15)
(11.464 1.72267 2.14663e-15)
(11.7527 1.95772 3.47901e-15)
(6.34367 10.9989 -3.69192e-18)
(6.78535 11.2336 9.67129e-18)
(7.29757 11.4486 0)
(7.84512 11.6223 1.2747e-16)
(8.38857 11.7463 0)
(8.95559 11.8209 0)
(9.53114 11.8377 -9.01451e-19)
(10.0982 11.7955 2.2068e-16)
(10.6553 11.693 4.86811e-16)
(11.1928 11.531 1.11223e-15)
(11.7029 11.3099 5.57229e-16)
(12.1815 11.0293 5.55098e-16)
(12.6205 10.696 0)
(13.0123 10.3145 8.23931e-16)
(13.3502 9.88743 -2.71507e-16)
(13.6257 9.41881 0)
(13.8303 8.91398 4.99283e-16)
(13.9566 8.3819 4.98672e-16)
(13.9992 7.83452 0)
(13.9566 7.28736 4.32701e-16)
(13.8311 6.75621 -4.09599e-16)
(13.6313 6.25509 0)
(13.3697 5.78923 -4.69782e-17)
(13.052 5.3523 1.61718e-17)
(12.6684 4.94509 2.26376e-17)
(12.2001 4.58574 3.56655e-16)
(11.6224 4.32581 -7.44739e-19)
(11.0532 4.25843 -1.09221e-17)
(10.2356 4.13531 -1.28448e-17)
(8.43009 3.40509 2.22614e-17)
(5.88561 2.19175 8.71966e-16)
(3.39299 1.06238 3.75563e-15)
(1.60288 0.180961 5.65279e-17)
(0.599609 -0.408347 -3.68291e-15)
(0.194894 -0.742556 -2.73327e-15)
(0.137383 -0.908256 -4.50386e-15)
(0.343657 -0.878906 -3.48757e-15)
(1.03112 -0.963833 7.10441e-17)
(0.417757 -1.80602 -2.36298e-15)
(5.94354 10.739 1.29724e-17)
(5.56499 10.4508 9.88734e-18)
(5.16408 10.0933 2.02347e-18)
(4.74899 9.65972 0)
(4.36692 9.17517 1.26056e-16)
(4.01377 8.6271 0)
(3.7055 8.02451 -1.42793e-16)
(3.4694 7.40063 6.9222e-16)
(3.3146 6.78317 -6.61859e-16)
(3.2275 6.18008 0)
(3.19345 5.59879 7.26033e-16)
(3.21705 5.04788 7.98582e-16)
(3.29474 4.5287 0)
(3.41886 4.04039 -8.77273e-16)
(3.58541 3.58397 2.31143e-16)
(3.79206 3.15853 -2.27086e-16)
(4.03618 2.7646 2.34456e-16)
(4.31491 2.40337 4.49981e-16)
(4.62554 2.07666 5.99213e-19)
(4.96436 1.78628 6.24238e-16)
(5.32623 1.53329 2.17177e-16)
(5.70534 1.31626 -1.92462e-16)
(6.09694 1.132 -7.28972e-16)
(6.49735 0.977113 6.76526e-16)
(6.9027 0.850971 -5.70973e-16)
(7.30856 0.754861 -6.89366e-16)
(7.71182 0.689333 -2.85785e-16)
(8.10967 0.656118 -4.00447e-18)
(8.499 0.655461 3.41932e-17)
(8.8762 0.687411 2.20494e-16)
(9.23604 0.749151 -9.64911e-19)
(9.57776 0.834328 -8.43288e-21)
(9.90239 0.940641 1.26673e-15)
(10.2134 1.06417 -1.10927e-15)
(10.5116 1.20502 2.86042e-17)
(10.8077 1.35969 -1.67658e-15)
(11.092 1.54596 2.68556e-15)
(11.3619 1.74971 0)
(11.6438 1.96781 -3.43084e-15)
(6.59013 10.6475 -3.7364e-18)
(7.00543 10.8683 0)
(7.48659 11.0708 0)
(7.99959 11.2355 -2.44859e-16)
(8.50688 11.3546 -4.25567e-18)
(9.03625 11.4292 0)
(9.57354 11.4517 0)
(10.1025 11.4208 -8.02388e-16)
(10.6228 11.3357 -3.67592e-17)
(11.1262 11.1975 -3.84973e-17)
(11.6056 11.0073 -1.31948e-15)
(12.0593 10.7617 -2.86771e-16)
(12.4796 10.4668 5.01592e-16)
(12.8597 10.1265 -3.15468e-17)
(13.1935 9.74305 0)
(13.4731 9.31947 0)
(13.6907 8.85979 -1.39984e-15)
(13.8389 8.37093 -2.23446e-16)
(13.912 7.86272 2.16988e-16)
(13.9076 7.3483 -4.14572e-16)
(13.8266 6.84197 7.74203e-16)
(13.6752 6.35691 3.6474e-16)
(13.4633 5.90003 -3.50652e-16)
(13.1966 5.46872 -3.90843e-16)
(12.87 5.06568 6.35398e-17)
(12.4766 4.70818 -3.52852e-16)
(11.9956 4.43033 -4.07538e-17)
(11.5318 4.33198 1.02567e-17)
(11.1502 4.27696 -9.56151e-18)
(10.1697 3.69012 4.74905e-17)
(8.16127 2.48079 -1.08084e-17)
(5.68208 1.20161 -1.8754e-15)
(3.59141 0.170351 -7.19636e-17)
(2.20705 -0.514787 7.97896e-17)
(1.49958 -0.890587 0)
(1.19029 -1.06286 4.52415e-15)
(1.18992 -1.07848 3.52349e-15)
(1.63836 -1.17498 0)
(0.932285 -1.84967 0)
(6.2132 10.4038 0)
(5.85699 10.1338 -5.93328e-18)
(5.47881 9.79898 -1.67382e-17)
(5.08621 9.39306 -3.62256e-17)
(4.7247 8.94008 -1.18658e-16)
(4.38951 8.42827 0)
(4.09561 7.86585 0)
(3.8685 7.28433 -3.26247e-16)
(3.71486 6.71023 4.26975e-16)
(3.61969 6.14969 0)
(3.57439 5.60812 -3.34539e-16)
(3.58387 5.09512 -3.80794e-16)
(3.64039 4.61107 3.87035e-16)
(3.73905 4.15384 4.18612e-16)
(3.87658 3.72401 -8.04791e-16)
(4.05142 3.3202 0)
(4.26201 2.94258 -2.08571e-16)
(4.5065 2.59235 -2.15977e-18)
(4.7831 2.27128 9.90514e-16)
(5.08921 1.98138 -2.11954e-16)
(5.42093 1.72444 2.026e-16)
(5.77361 1.50044 -1.75996e-16)
(6.14294 1.30787 2.51994e-16)
(6.52478 1.14471 -1.34998e-15)
(6.91425 1.01075 -5.23225e-16)
(7.30604 0.907017 5.27552e-16)
(7.69654 0.833552 -3.4065e-17)
(8.08287 0.791669 0)
(8.46192 0.781555 -2.85338e-17)
(8.83013 0.803209 1.9645e-16)
(9.18248 0.853915 -3.69553e-16)
(9.51794 0.928146 6.87505e-16)
(9.83706 1.02369 -2.45174e-15)
(10.1429 1.13702 2.20045e-15)