/*--------------------------------*- C++ -*----------------------------------*\
  =========                 |
  \\      /  F ield         | OpenFOAM: The Open Source CFD Toolbox
   \\    /   O peration     | Website:  https://openfoam.org
    \\  /    A nd           | Version:  9
     \\/     M anipulation  |
\*---------------------------------------------------------------------------*/
FoamFile
{
    format      ascii;
    class       volScalarField;
    location    "0.25";
    object      epsilon;
}
// * * * * * * * * * * * * * * * * * * * * * * * * * * * * * * * * * * * * * //

dimensions      [0 2 -3 0 0 0 0];

internalField   nonuniform List<scalar> 
1935
(
0.0371889
0.118538
0.231088
0.328578
0.410196
0.481604
0.546299
0.607092
0.666163
0.725182
0.785443
0.84798
0.913662
0.983242
1.05737
1.1366
1.22134
1.31184
1.40814
1.51002
1.61699
1.72821
1.84246
1.95818
2.07337
2.18568
2.29239
2.39045
2.47659
2.54734
2.59911
2.62816
2.63029
2.60039
2.55226
2.4799
2.37828
2.24414
2.07599
1.87491
1.64642
1.40337
1.1632
1.00623
0.0602146
0.0991479
0.14216
0.177459
0.205788
0.229243
0.249632
0.268306
0.286198
0.303944
0.321993
0.340693
0.360328
0.381143
0.403354
0.427145
0.452666
0.480018
0.509248
0.540325
0.57314
0.607486
0.643051
0.679417
0.716054
0.752334
0.787537
0.820886
0.851575
0.87883
0.901983
0.92057
0.934484
0.94474
0.96312
0.98934
1.02638
1.07871
1.15276
1.25706
1.40082
1.58135
1.73625
1.74637
0.0946936
0.119005
0.147008
0.16897
0.185867
0.199278
0.210541
0.220653
0.230303
0.239952
0.249914
0.260422
0.271654
0.283759
0.296859
0.311052
0.32641
0.342973
0.360742
0.379673
0.399668
0.420573
0.442171
0.464179
0.486256
0.508007
0.528995
0.54877
0.566901
0.583026
0.596928
0.608634
0.61857
0.628052
0.641306
0.66156
0.69299
0.741333
0.814541
0.923992
1.08589
1.31661
1.59763
1.83345
0.126196
0.141777
0.161314
0.175703
0.186434
0.194825
0.201848
0.208211
0.214412
0.220788
0.227577
0.234951
0.243043
0.251955
0.261768
0.272539
0.284301
0.297057
0.31078
0.325403
0.340821
0.35688
0.373381
0.39008
0.406687
0.422882
0.438324
0.452682
0.465663
0.477068
0.486861
0.495273
0.502952
0.51129
0.523199
0.542098
0.572274
0.619193
0.689696
0.792744
0.941453
1.1556
1.45341
1.82908
0.150609
0.160665
0.174552
0.183936
0.190642
0.195865
0.200332
0.204544
0.208847
0.213485
0.218634
0.224425
0.230959
0.238311
0.246536
0.255665
0.265707
0.276644
0.288429
0.30098
0.314181
0.327879
0.341879
0.355954
0.369841
0.38326
0.395926
0.407574
0.417998
0.427101
0.434967
0.441961
0.448882
0.457216
0.469599
0.489548
0.521544
0.571198
0.645171
0.751333
0.900258
1.11032
1.41655
1.87808
0.170912
0.174597
0.184036
0.190169
0.19438
0.197656
0.200568
0.203489
0.206676
0.210312
0.214532
0.219439
0.225114
0.231613
0.238973
0.247211
0.25632
0.266267
0.276993
0.288408
0.300392
0.312788
0.325409
0.338039
0.350436
0.362349
0.373535
0.383781
0.392949
0.40102
0.408175
0.414891
0.422092
0.431371
0.445355
0.467728
0.503257
0.558004
0.639253
0.755496
0.917488
1.1435
1.47465
2.00321
0.18815
0.184355
0.189733
0.193683
0.196459
0.198671
0.200738
0.202955
0.20553
0.208614
0.212323
0.216746
0.221948
0.227978
0.234861
0.242605
0.251193
0.260586
0.270718
0.281497
0.292798
0.30447
0.31633
0.328174
0.33978
0.350924
0.361396
0.371032
0.379748
0.387599
0.394847
0.40207
0.410303
0.421259
0.43764
0.463352
0.503523
0.564851
0.655706
0.786261
0.969475
1.22597
1.60065
2.20186
0.203167
0.190992
0.192443
0.194792
0.196764
0.198478
0.200185
0.202107
0.204422
0.207268
0.21075
0.214952
0.219934
0.225739
0.23239
0.239888
0.248214
0.257327
0.267159
0.277618
0.288583
0.299906
0.311413
0.322913
0.334201
0.345078
0.355368
0.364949
0.37379
0.38201
0.389947
0.398268
0.408114
0.42131
0.44067
0.470342
0.515848
0.584599
0.686261
0.833208
1.0418
1.3372
1.77023
2.46334
0.216637
0.195389
0.193037
0.194082
0.195569
0.197098
0.198734
0.200628
0.202928
0.205757
0.209217
0.213388
0.218332
0.224089
0.230682
0.238113
0.246365
0.255398
0.265147
0.275523
0.28641
0.297668
0.309132
0.320624
0.331957
0.342957
0.35348
0.363442
0.372862
0.381918
0.391019
0.400913
0.412834
0.428711
0.451466
0.485469
0.536616
0.612993
0.725507
0.888763
1.12288
1.45894
1.95749
2.76502
0.229051
0.198184
0.192208
0.192099
0.193229
0.19471
0.196425
0.198448
0.200888
0.203854
0.20744
0.211724
0.216768
0.222614
0.229289
0.236798
0.245128
0.254245
0.264091
0.274582
0.28561
0.297043
0.308727
0.320497
0.332185
0.343638
0.354743
0.365456
0.37584
0.386129
0.396795
0.408658
0.423031
0.441929
0.468366
0.506831
0.563548
0.647088
0.769276
0.946428
1.20173
1.57171
2.12813
3.05529
0.240765
0.199834
0.190445
0.189249
0.190046
0.191512
0.193364
0.195594
0.198269
0.201473
0.205291
0.209797
0.215051
0.221099
0.227973
0.235685
0.244231
0.253582
0.26369
0.27448
0.285853
0.297685
0.309834
0.322148
0.334475
0.346687
0.358699
0.370501
0.382204
0.394091
0.406692
0.420889
0.438055
0.460262
0.490575
0.533488
0.595414
0.685097
0.814715
1.00128
1.26921
1.65708
2.23959
3.20608
0.252149
0.20067
0.188058
0.185789
0.186223
0.187659
0.189658
0.192129
0.195091
0.198602
0.202729
0.20754
0.213095
0.219444
0.226625
0.234659
0.243551
0.253285
0.263822
0.275097
0.287021
0.29948
0.312342
0.325468
0.338723
0.351999
0.365238
0.378467
0.391838
0.405682
0.420581
0.437465
0.457747
0.483518
0.517817
0.565036
0.631543
0.725848
0.859752
1.04965
1.31882
1.70311
2.26863
3.17271
0.263299
0.200908
0.185276
0.18193
0.181957
0.183329
0.185462
0.188182
0.191456
0.195312
0.199799
0.204976
0.210904
0.217637
0.225221
0.233687
0.243054
0.253317
0.264449
0.276398
0.289084
0.302402
0.316231
0.330441
0.344912
0.359556
0.37434
0.389326
0.404705
0.420853
0.438396
0.458301
0.481999
0.511552
0.549898
0.601193
0.671508
0.768683
0.90342
1.09033
1.3497
1.71157
2.22807
3.01439
0.274345
0.200728
0.182252
0.177819
0.177399
0.178674
0.180922
0.183886
0.187481
0.191701
0.196579
0.202167
0.208524
0.21571
0.223782
0.232785
0.242751
0.253689
0.265588
0.278406
0.292073
0.306494
0.321555
0.337133
0.35312
0.369445
0.386101
0.403179
0.420913
0.439717
0.460258
0.483526
0.51095
0.544528
0.587023
0.642216
0.715646
0.814089
0.946563
1.12515
1.36632
1.69381
2.14697
2.80695
0.285412
0.200275
0.179096
0.173564
0.172673
0.173834
0.176185
0.179386
0.183301
0.187892
0.193177
0.199202
0.206028
0.213725
0.222362
0.231999
0.242684
0.254445
0.267285
0.281174
0.296054
0.311835
0.328407
0.345654
0.363473
0.381809
0.400675
0.420197
0.440644
0.462473
0.486383
0.513388
0.544894
0.582816
0.629687
0.688817
0.764982
0.863605
0.991622
1.15824
1.37614
1.66371
2.05093
2.59557
0.296641
0.19968
0.175894
0.169264
0.167904
0.168951
0.171402
0.174834
0.179061
0.184019
0.189713
0.196187
0.203509
0.211761
0.221028
0.231388
0.24291
0.25564
0.269598
0.28477
0.301106
0.318519
0.336902
0.356137
0.376124
0.396817
0.418253
0.440586
0.464126
0.489373
0.517061
0.548221
0.584242
0.626948
0.67864
0.742136
0.821178
0.91973
1.04237
1.19536
1.38807
1.63506
1.96015
2.40624
0.308211
0.199073
0.17273
0.165021
0.163218
0.164172
0.16673
0.170385
0.17491
0.18022
0.186311
0.193233
0.201064
0.209902
0.219852
0.231016
0.243485
0.257329
0.272586
0.289258
0.307304
0.326641
0.347153
0.368717
0.391229
0.414648
0.43903
0.464565
0.491606
0.520698
0.552616
0.588414
0.629477
0.677563
0.734779
0.803502
0.886313
0.985632
1.10347
1.24316
1.4115
1.62095
1.89179
2.25748
0.320373
0.198597
0.169701
0.160954
0.158763
0.159657
0.162329
0.166198
0.170997
0.176629
0.183092
0.190445
0.198783
0.208225
0.2189
0.230938
0.244458
0.259555
0.276292
0.294688
0.314711
0.336276
0.359257
0.383514
0.40893
0.435464
0.463191
0.492341
0.523319
0.556724
0.593377
0.634364
0.681092
0.735303
0.798994
0.87418
0.962509
1.06457
1.17963
1.30816
1.4552
1.6328
1.85986
2.16273
0.33348
0.198422
0.166933
0.157215
0.154704
0.155574
0.158363
0.16242
0.167456
0.173367
0.180162
0.187914
0.196743
0.206794
0.218224
0.231195
0.245858
0.26234
0.280735
0.301081
0.323355
0.34747
0.373279
0.400613
0.429333
0.459388
0.490878
0.52408
0.559465
0.597694
0.639636
0.686419
0.739493
0.800657
0.871924
0.955127
1.05118
1.15874
1.2743
1.39523
1.52559
1.67887
1.8742
2.12974
0.348029
0.198752
0.164598
0.153998
0.151233
0.152097
0.154983
0.159185
0.164399
0.17053
0.177601
0.18571
0.195002
0.205653
0.217855
0.231804
0.24769
0.26568
0.2859
0.308418
0.333222
0.360217
0.389229
0.420044
0.452483
0.486484
0.52217
0.559885
0.600178
0.643779
0.691602
0.7448
0.804875
0.873727
0.953496
1.04603
1.15184
1.26786
1.38758
1.50431
1.62186
1.7594
1.93837
2.16171
0.364685
0.199822
0.162929
0.151534
0.148549
0.149388
0.152316
0.156591
0.161905
0.16818
0.17546
0.183872
0.193591
0.204824
0.2178
0.232759
0.249933
0.269534
0.291734
0.316632
0.344238
0.374447
0.407045
0.441757
0.478344
0.516723
0.557053
0.599762
0.645494
0.695047
0.749343
0.80951
0.877051
0.953938
1.04249
1.14496
1.26192
1.38871
1.51457
1.62956
1.73698
1.87014
2.05658
2.26411
2.48677
0.384271
0.201875
0.162224
0.150083
0.146842
0.147574
0.150445
0.154688
0.160006
0.166339
0.173757
0.182414
0.192516
0.204305
0.21805
0.234034
0.252539
0.273833
0.298138
0.325602
0.356261
0.390005
0.426573
0.465602
0.50677
0.549966
0.595398
0.643601
0.695329
0.75142
0.812726
0.880228
0.955292
1.03988
1.13662
1.24884
1.37677
1.51639
1.63979
1.74574
1.84739
1.9816
2.18857
2.42648
2.59351
0.407717
0.205155
0.162853
0.149904
0.146255
0.146719
0.149384
0.153468
0.158682
0.164985
0.172472
0.18132
0.191765
0.204082
0.21858
0.235589
0.255448
0.278482
0.304981
0.335152
0.369075
0.406647
0.44755
0.491309
0.53749
0.585943
0.636946
0.691166
0.749464
0.812647
0.881351
0.956208
1.03826
1.12941
1.2324
1.3532
1.48003
1.60571
1.7185
1.82438
1.93168
2.06417
2.26341
2.53992
2.73298
0.436019
0.210031
0.16527
0.15122
0.146855
0.146802
0.149072
0.152855
0.157862
0.16406
0.17156
0.180558
0.191315
0.204135
0.219368
0.23739
0.258597
0.283384
0.312114
0.345072
0.382404
0.424036
0.469599
0.518478
0.570091
0.624244
0.681305
0.742093
0.80753
0.87826
0.954492
1.03623
1.1239
1.21937
1.32328
1.43026
1.53626
1.64149
1.7479
1.85383
1.96509
2.10074
2.29866
2.59135
2.86908
0.470424
0.217477
0.170062
0.154201
0.148609
0.147707
0.149368
0.152715
0.157431
0.163476
0.17096
0.180093
0.191148
0.20446
0.220412
0.239427
0.261957
0.288469
0.319408
0.355152
0.395943
0.441773
0.492246
0.546585
0.604026
0.664329
0.727971
0.795905
0.869007
0.94756
1.03104
1.11841
1.20911
1.30134
1.39125
1.47664
1.56197
1.64796
1.73802
1.83612
1.94914
2.09279
2.30359
2.6191
2.9767
0.512842
0.230044
0.17771
0.158922
0.1514
0.14924
0.150078
0.152884
0.157264
0.163144
0.170621
0.179901
0.19127
0.20508
0.221748
0.241739
0.265557
0.293737
0.326809
0.365255
0.409435
0.459466
0.514974
0.575026
0.638653
0.705573
0.776365
0.852034
0.933234
1.01955
1.10935
1.20028
1.28962
1.37218
1.44594
1.51271
1.57556
1.64052
1.71529
1.80689
1.92226
2.07415
2.29593
2.63771
3.05771
0.554671
0.247956
0.188598
0.165324
0.155044
0.151189
0.151012
0.153214
0.157261
0.163008
0.170523
0.18
0.191727
0.206072
0.223477
0.244444
0.269522
0.299307
0.334408
0.375405
0.422792
0.476854
0.537335
0.60321
0.673328
0.747364
0.825928
0.909919
0.999364
1.09273
1.1872
1.27901
1.36342
1.43591
1.4951
1.54263
1.58444
1.63086
1.69309
1.78024
1.89939
2.06213
2.30128
2.68114
3.15067
0.585961
0.273242
0.203953
0.173649
0.1594
0.153386
0.152031
0.153617
0.157378
0.163065
0.170697
0.180452
0.192615
0.207561
0.225758
0.247733
0.274075
0.305426
0.342462
0.385844
0.436185
0.49395
0.559112
0.630743
0.707612
0.789325
0.876361
0.969003
1.06612
1.16503
1.26173
1.35176
1.43001
1.49111
1.53373
1.56179
1.58452
1.61519
1.66719
1.75141
1.87636
2.05523
2.32452
2.76097
3.28138
0.600277
0.313251
0.226855
0.184568
0.1645
0.155762
0.153106
0.154091
0.157632
0.163346
0.171192
0.181324
0.194023
0.209669
0.228742
0.251793
0.279439
0.312366
0.351298
0.396967
0.450079
0.511228
0.580667
0.657874
0.74174
0.831712
0.927585
1.0284
1.13175
1.23368
1.33028
1.41647
1.48508
1.53092
1.55489
1.56371
1.56934
1.58672
1.63047
1.71305
1.84541
2.04423
2.35127
2.85184
3.43776
0.614088
0.387443
0.263884
0.199361
0.170576
0.15846
0.154424
0.154833
0.158205
0.164006
0.172137
0.182731
0.196064
0.21252
0.232579
0.256807
0.285857
0.320455
0.361361
0.409377
0.465303
0.52973
0.603103
0.685723
0.776758
0.875041
0.979148
1.08673
1.19376
1.29666
1.39078
1.46823
1.52187
1.54907
1.55349
1.54419
1.53509
1.54168
1.57898
1.66055
1.79987
2.01731
2.35831
2.91427
3.61732
0.682312
0.509734
0.322876
0.219298
0.17802
0.161924
0.156467
0.156336
0.159562
0.165475
0.173922
0.185035
0.199091
0.216479
0.237658
0.263206
0.293835
0.330316
0.373385
0.423912
0.482806
0.550536
0.627514
0.715354
0.813294
0.919061
1.03006
1.14195
1.2509
1.3523
1.4382
1.50069
1.53511
1.54199
1.52743
1.50235
1.48151
1.48001
1.51246
1.59286
1.73646
1.9665
2.33205
2.94333
3.91981
0.800012
0.553087
0.355309
0.238299
0.185975
0.166278
0.159631
0.159149
0.162328
0.168348
0.177093
0.188772
0.203651
0.222118
0.244573
0.271616
0.304085
0.342784
0.388165
0.44114
0.502778
0.573381
0.653764
0.74659
0.850677
0.962535
1.07827
1.19326
1.30149
1.39507
1.46609
1.50896
1.52218
1.50909
1.47755
1.44019
1.41104
1.40428
1.43349
1.51236
1.65703
1.89277
2.27414
2.93684
4.12702
0.884156
0.534226
0.360731
0.244886
0.191885
0.170132
0.162245
0.161339
0.164688
0.171244
0.180795
0.193431
0.209397
0.229065
0.252816
0.281211
0.315019
0.355003
0.401934
0.456741
0.520599
0.594651
0.680119
0.777794
0.886829
1.00366
1.1231
1.23755
1.33834
1.4176
1.46928
1.49067
1.48316
1.45227
1.40735
1.36164
1.32764
1.31789
1.34484
1.4218
1.56553
1.80297
2.18975
2.85773
4.06101
0.875805
0.504265
0.34269
0.243414
0.194818
0.172773
0.163986
0.162472
0.165641
0.172452
0.182577
0.195951
0.212744
0.233315
0.258143
0.287774
0.32283
0.364222
0.413149
0.470736
0.538206
0.61662
0.706624
0.808498
0.921148
1.04039
1.15841
1.26566
1.35328
1.41448
1.4455
1.44626
1.42047
1.37559
1.32201
1.27156
1.23522
1.22391
1.24877
1.3224
1.46141
1.69249
2.06746
2.69675
3.78028
0.76551
0.422648
0.310533
0.235764
0.194832
0.174375
0.165606
0.163933
0.167114
0.174122
0.184564
0.198415
0.215897
0.237386
0.26339
0.29454
0.331603
0.375486
0.427236
0.48795
0.558671
0.640247
0.733088
0.836905
0.949629
1.06578
1.1763
1.27129
1.34245
1.38454
1.39595
1.3789
1.33922
1.28486
1.22675
1.17457
1.1378
1.12575
1.14812
1.21631
1.34572
1.56042
1.90342
2.45752
3.36629
0.685736
0.369069
0.282083
0.22574
0.192874
0.175377
0.167639
0.166419
0.169985
0.177489
0.188598
0.203303
0.221821
0.244535
0.271972
0.304792
0.343778
0.38982
0.443899
0.506987
0.579902
0.66312
0.756557
0.859099
0.967542
1.07546
1.17379
1.2532
1.30658
1.33032
1.32481
1.29426
1.24523
1.18606
1.12662
1.07501
1.03915
1.02677
1.046
1.1066
1.22185
1.41164
1.70845
2.1684
2.88415
0.664018
0.344388
0.261614
0.216049
0.189943
0.175944
0.170014
0.169877
0.174281
0.182597
0.194592
0.210302
0.22996
0.253952
0.282807
0.317178
0.357826
0.405584
0.461305
0.525752
0.599422
0.682327
0.773725
0.871613
0.971907
1.06788
1.15111
1.21351
1.24929
1.25683
1.2383
1.19857
1.14425
1.08416
1.026
0.97665
0.942593
0.930035
0.945522
0.99695
1.09498
1.25502
1.50021
1.86631
2.40755
0.677865
0.335267
0.24817
0.208017
0.186806
0.1761
0.172329
0.173725
0.179361
0.188792
0.201883
0.218719
0.239552
0.264771
0.294888
0.330521
0.372365
0.421145
0.477536
0.542032
0.614757
0.695218
0.782014
0.872392
0.9618
1.04365
1.11067
1.15584
1.17585
1.17055
1.14283
1.09784
1.04203
0.983553
0.928479
0.882493
0.85075
0.838074
0.849488
0.891009
0.970675
1.0998
1.29455
1.57789
1.98143
0.71494
0.334124
0.239924
0.201996
0.183958
0.17593
0.174269
0.177368
0.184456
0.195197
0.209518
0.227534
0.249505
0.275808
0.306918
0.343391
0.385824
0.434794
0.490765
0.55393
0.624031
0.700086
0.780164
0.860983
0.93799
1.00478
1.05539
1.08527
1.09241
1.0776
1.04412
0.997039
0.942645
0.887536
0.836691
0.794673
0.765477
0.752713
0.760044
0.791778
0.85359
0.953352
1.10207
1.31486
1.61144
0.765324
0.336282
0.235122
0.197843
0.181703
0.175643
0.175782
0.180494
0.189038
0.201111
0.216659
0.2358
0.258775
0.285928
0.317678
0.354495
0.39685
0.445153
0.499636
0.560186
0.626201
0.696267
0.76815
0.838178
0.901727
0.953853
0.990026
1.00717
1.0044
0.983152
0.946812
0.900001
0.848967
0.79834
0.752303
0.714465
0.687837
0.675019
0.678531
0.701253
0.746901
0.82057
0.929309
1.08267
1.29285
0.820931
0.339235
0.232555
0.195304
0.180228
0.175502
0.177021
0.183076
0.192895
0.206155
0.222784
0.24287
0.266617
0.294308
0.326287
0.36292
0.404533
0.451353
0.503401
0.56024
0.621049
0.683989
0.746409
0.805
0.85583
0.894923
0.91898
0.9261
0.916228
0.891181
0.85429
0.809796
0.762889
0.717222
0.676127
0.642384
0.6182
0.605366
0.605508
0.620391
0.652232
0.70402
0.779829
0.885064
1.02636
0.876059
0.342091
0.231609
0.194189
0.179654
0.17575
0.178217
0.18526
0.196054
0.210232
0.227678
0.248432
0.272635
0.300493
0.332257
0.368184
0.408432
0.45304
0.5019
0.554146
0.608644
0.663568
0.716426
0.764206
0.803638
0.831668
0.846014
0.84567
0.831148
0.804425
0.768611
0.727558
0.685247
0.644616
0.608285
0.578354
0.556398
0.543593
0.540904
0.549292
0.569909
0.604272
0.654402
0.722866
0.812548
0.927371
0.344981
0.232052
0.194368
0.180031
0.176553
0.179576
0.187238
0.198658
0.213418
0.231349
0.25243
0.276728
0.30435
0.335448
0.370186
0.408525
0.450271
0.495041
0.541986
0.58983
0.63677
0.680539
0.718548
0.748183
0.767189
0.774096
0.76854
0.75138
0.72458
0.690878
0.653818
0.616177
0.580362
0.548415
0.521902
0.501916
0.489192
0.484233
0.487463
0.499338
0.520442
0.551525
0.59345
0.646971
0.973453
0.348456
0.23379
0.195713
0.181324
0.177973
0.181225
0.189166
0.200868
0.215862
0.233921
0.254966
0.278992
0.305976
0.335961
0.368937
0.404764
0.443131
0.483482
0.524918
)
;

boundaryField
{
    leftWall
    {
        type            epsilonWallFunction;
        value           nonuniform List<scalar> 
44
(
0.0371889
0.0602146
0.0946936
0.126196
0.150609
0.170912
0.18815
0.203167
0.216637
0.229051
0.240765
0.252149
0.263299
0.274345
0.285412
0.296641
0.308211
0.320373
0.33348
0.348029
0.364685
0.384271
0.407717
0.436019
0.470424
0.512842
0.554671
0.585961
0.600277
0.614088
0.682312
0.800012
0.884156
0.875805
0.76551
0.685736
0.664018
0.677865
0.71494
0.765324
0.820931
0.876059
0.927371
0.973453
)
;
    }
    rightWall
    {
        type            epsilonWallFunction;
        value           nonuniform List<scalar> 0();
    }
    lowerWall
    {
        type            epsilonWallFunction;
        value           nonuniform List<scalar> 
44
(
0.0371889
0.118538
0.231088
0.328578
0.410196
0.481604
0.546299
0.607092
0.666163
0.725182
0.785443
0.84798
0.913662
0.983242
1.05737
1.1366
1.22134
1.31184
1.40814
1.51002
1.61699
1.72821
1.84246
1.95818
2.07337
2.18568
2.29239
2.39045
2.47659
2.54734
2.59911
2.62816
2.63029
2.60039
2.55226
2.4799
2.37828
2.24414
2.07599
1.87491
1.64642
1.40337
1.1632
1.00623
)
;
    }
    atmosphere
    {
        type            inletOutlet;
        inletValue      nonuniform List<scalar> 0();
        value           nonuniform List<scalar> 0();
    }
    defaultFaces
    {
        type            empty;
    }
    procBoundary0to1
    {
        type            processor;
        value           nonuniform List<scalar> 
44
(
0.901142
1.40207
1.84604
2.2435
2.59347
2.94103
3.337
3.83065
4.46368
5.20947
5.325
4.91098
4.36163
3.85165
3.4139
3.05421
2.77732
2.58576
2.47737
2.44554
2.44554
2.80794
2.82346
2.88537
2.9777
3.10558
3.24696
3.38007
3.51962
3.67695
3.90051
4.31947
4.95492
5.38492
5.30671
4.72199
3.9418
3.18527
2.54212
2.01379
1.57295
1.21034
0.925764
0.712248
)
;
    }
    procBoundary0to2
    {
        type            processor;
        value           nonuniform List<scalar> 
46
(
0.566148
0.605502
0.640999
0.670508
0.692014
0.70393
0.705397
0.696485
0.678227
0.652475
0.621603
0.58853
0.555333
0.523927
0.495884
0.472353
0.454081
0.441496
0.434806
0.434101
0.439429
0.450841
0.468395
0.492094
0.521707
1.0144
0.353204
0.236714
0.198035
0.183407
0.179963
0.183189
0.191124
0.202801
0.217704
0.235548
0.256176
0.279491
0.305414
0.333864
0.364707
0.397694
0.432413
0.468226
0.566148
0.504218
)
;
    }
}


// ************************************************************************* //
