/*--------------------------------*- C++ -*----------------------------------*\
  =========                 |
  \\      /  F ield         | OpenFOAM: The Open Source CFD Toolbox
   \\    /   O peration     | Website:  https://openfoam.org
    \\  /    A nd           | Version:  9
     \\/     M anipulation  |
\*---------------------------------------------------------------------------*/
FoamFile
{
    format      ascii;
    class       surfaceScalarField;
    location    "0.25";
    object      phi;
}
// * * * * * * * * * * * * * * * * * * * * * * * * * * * * * * * * * * * * * //

dimensions      [0 3 -1 0 0 0 0];

internalField   nonuniform List<scalar> 
3781
(
-2.28434e-06
2.28434e-06
-1.29175e-06
-9.92597e-07
1.37077e-06
-2.66252e-06
4.62569e-06
-3.25492e-06
7.95567e-06
-3.32999e-06
1.11441e-05
-3.18844e-06
1.41325e-05
-2.98842e-06
1.69275e-05
-2.795e-06
1.95593e-05
-2.63179e-06
2.20643e-05
-2.50502e-06
2.44776e-05
-2.41325e-06
2.68296e-05
-2.35204e-06
2.91459e-05
-2.31631e-06
3.14473e-05
-2.30137e-06
3.37504e-05
-2.30306e-06
3.60681e-05
-2.31773e-06
3.84102e-05
-2.34212e-06
4.07834e-05
-2.37316e-06
4.31913e-05
-2.40793e-06
4.56348e-05
-2.44347e-06
4.81115e-05
-2.47672e-06
5.06159e-05
-2.5044e-06
5.31388e-05
-2.52292e-06
5.56671e-05
-2.52824e-06
5.81828e-05
-2.51576e-06
6.06629e-05
-2.48009e-06
6.30777e-05
-2.41483e-06
6.539e-05
-2.31224e-06
6.75527e-05
-2.16274e-06
6.95067e-05
-1.954e-06
7.1176e-05
-1.66923e-06
7.24565e-05
-1.28055e-06
7.31997e-05
-7.4319e-07
7.31792e-05
2.05323e-08
7.19215e-05
1.25772e-06
6.91121e-05
2.80935e-06
6.43586e-05
4.75346e-06
5.72882e-05
7.07049e-06
4.76763e-05
9.61182e-06
3.56788e-05
1.19975e-05
2.20183e-05
1.36605e-05
8.06856e-06
1.39498e-05
-4.57323e-06
1.26418e-05
9.14204e-06
1.87985e-07
2.09636e-06
2.00143e-06
-2.80604e-06
4.6588e-06
-5.31989e-06
7.61719e-06
-6.21331e-06
1.06032e-05
-6.31599e-06
1.34993e-05
-6.08451e-06
1.62625e-05
-5.75169e-06
1.88928e-05
-5.42522e-06
2.14092e-05
-5.14826e-06
2.38377e-05
-4.93344e-06
2.62041e-05
-4.77966e-06
2.85322e-05
-4.68017e-06
3.08426e-05
-4.62669e-06
3.31522e-05
-4.611e-06
3.54747e-05
-4.62558e-06
3.78205e-05
-4.66356e-06
4.01971e-05
-4.71866e-06
4.26088e-05
-4.78492e-06
4.50575e-05
-4.85657e-06
4.75418e-05
-4.92781e-06
5.00577e-05
-4.99263e-06
5.2598e-05
-5.04465e-06
5.51519e-05
-5.07687e-06
5.77052e-05
-5.08149e-06
6.0239e-05
-5.04957e-06
6.27296e-05
-4.97073e-06
6.51475e-05
-4.83264e-06
6.74557e-05
-4.62049e-06
6.96091e-05
-4.31611e-06
7.15518e-05
-3.89673e-06
7.32157e-05
-3.33314e-06
7.45217e-05
-2.58651e-06
7.53861e-05
-1.60763e-06
7.57438e-05
-3.37156e-07
7.56339e-05
1.36767e-06
7.48407e-05
3.6025e-06
7.30936e-05
6.5006e-06
6.99978e-05
1.01663e-05
6.50115e-05
1.45981e-05
5.7484e-05
1.9525e-05
4.6938e-05
2.42065e-05
3.36202e-05
2.72676e-05
1.91958e-05
2.70662e-05
2.16011e-05
1.61905e-06
4.77308e-07
3.96488e-06
-5.15188e-06
6.67951e-06
-8.03451e-06
9.49331e-06
-9.02711e-06
1.22708e-05
-9.09343e-06
1.49578e-05
-8.77159e-06
1.75409e-05
-8.3348e-06
2.00274e-05
-7.91168e-06
2.24344e-05
-7.55522e-06
2.47823e-05
-7.28138e-06
2.70916e-05
-7.08895e-06
2.93809e-05
-6.96953e-06
3.16666e-05
-6.91235e-06
3.39621e-05
-6.90647e-06
3.6278e-05
-6.94151e-06
3.86223e-05
-7.00785e-06
4.10001e-05
-7.09649e-06
4.34141e-05
-7.19888e-06
4.58642e-05
-7.30666e-06
4.83478e-05
-7.41142e-06
5.08596e-05
-7.50446e-06
5.33915e-05
-7.57651e-06
5.59321e-05
-7.61746e-06
5.84665e-05
-7.61598e-06
6.09761e-05
-7.55913e-06
6.34373e-05
-7.43189e-06
6.58211e-05
-7.21651e-06
6.80924e-05
-6.89175e-06
7.02081e-05
-6.43187e-06
7.21166e-05
-5.80524e-06
7.37561e-05
-4.97257e-06
7.50544e-05
-3.88485e-06
7.59276e-05
-2.48084e-06
7.62787e-05
-6.88209e-07
7.60454e-05
1.60096e-06
7.51373e-05
4.51061e-06
7.34617e-05
8.1762e-06
7.09089e-05
1.27191e-05
6.73175e-05
1.81895e-05
6.23947e-05
2.44477e-05
5.56553e-05
3.09459e-05
4.65302e-05
3.63928e-05
3.49934e-05
3.86029e-05
3.45906e-05
2.16495e-06
-1.68764e-06
5.02738e-06
-8.01431e-06
7.93795e-06
-1.09451e-05
1.07469e-05
-1.18361e-05
1.34259e-05
-1.17725e-05
1.59853e-05
-1.1331e-05
1.8445e-05
-1.07945e-05
2.08262e-05
-1.02929e-05
2.31496e-05
-9.87857e-06
2.54343e-05
-9.56606e-06
2.76977e-05
-9.35236e-06
2.99551e-05
-9.22697e-06
3.22196e-05
-9.17684e-06
3.45017e-05
-9.1886e-06
3.68097e-05
-9.24946e-06
3.91492e-05
-9.34738e-06
4.15238e-05
-9.47102e-06
4.39344e-05
-9.60949e-06
4.63798e-05
-9.75213e-06
4.88566e-05
-9.88817e-06
5.13586e-05
-1.00065e-05
5.38772e-05
-1.00951e-05
5.64009e-05
-1.01411e-05
5.89147e-05
-1.01298e-05
6.14002e-05
-1.00446e-05
6.38345e-05
-9.86621e-06
6.61899e-05
-9.57185e-06
6.84326e-05
-9.13449e-06
7.05223e-05
-8.52161e-06
7.24109e-05
-7.6938e-06
7.40413e-05
-6.60295e-06
7.53468e-05
-5.19038e-06
7.62507e-05
-3.38468e-06
7.66648e-05
-1.10236e-06
7.65034e-05
1.7624e-06
7.56818e-05
5.33214e-06
7.4124e-05
9.73406e-06
7.17661e-05
1.50769e-05
6.85501e-05
2.14056e-05
6.43809e-05
2.86169e-05
5.90259e-05
3.63009e-05
5.19702e-05
4.34485e-05
4.25146e-05
4.80586e-05
4.68483e-05
2.39448e-06
-4.08211e-06
5.58733e-06
-1.12072e-05
8.67169e-06
-1.40294e-05
1.15187e-05
-1.46831e-05
1.41605e-05
-1.44143e-05
1.66515e-05
-1.3822e-05
1.90372e-05
-1.31802e-05
2.13516e-05
-1.26072e-05
2.362e-05
-1.2147e-05
2.58624e-05
-1.18085e-05
2.8095e-05
-1.1585e-05
3.03312e-05
-1.14631e-05
3.25816e-05
-1.14272e-05
3.48548e-05
-1.14618e-05
3.71571e-05
-1.15518e-05
3.94926e-05
-1.1683e-05
4.18636e-05
-1.18419e-05
4.42699e-05
-1.20158e-05
4.67096e-05
-1.21918e-05
4.91784e-05
-1.23571e-05
5.16702e-05
-1.24982e-05
5.41759e-05
-1.26009e-05
5.66842e-05
-1.26494e-05
5.91804e-05
-1.26261e-05
6.16467e-05
-1.25109e-05
6.4061e-05
-1.22805e-05
6.63968e-05
-1.19077e-05
6.86225e-05
-1.13602e-05
7.07001e-05
-1.05992e-05
7.2585e-05
-9.57864e-06
7.42245e-05
-8.24246e-06
7.55576e-05
-6.52343e-06
7.65142e-05
-4.3413e-06
7.70148e-05
-1.60296e-06
7.69759e-05
1.80123e-06
7.63154e-05
5.99269e-06
7.49567e-05
1.10928e-05
7.2833e-05
1.72006e-05
6.98831e-05
2.43556e-05
6.60261e-05
3.24739e-05
6.10941e-05
4.12329e-05
5.46966e-05
4.9846e-05
4.61055e-05
5.66496e-05
5.85613e-05
2.52986e-06
-6.61197e-06
5.89226e-06
-1.45696e-05
9.06577e-06
-1.72029e-05
1.19308e-05
-1.75481e-05
1.45512e-05
-1.70347e-05
1.70041e-05
-1.62749e-05
1.93487e-05
-1.55247e-05
2.16257e-05
-1.48842e-05
2.38636e-05
-1.43849e-05
2.60831e-05
-1.4028e-05
2.82997e-05
-1.38015e-05
3.05253e-05
-1.36887e-05
3.27694e-05
-1.36713e-05
3.5039e-05
-1.37314e-05
3.7339e-05
-1.38518e-05
3.96727e-05
-1.40166e-05
4.2041e-05
-1.42103e-05
4.44436e-05
-1.44183e-05
4.68778e-05
-1.4626e-05
4.93392e-05
-1.48186e-05
5.18216e-05
-1.49806e-05
5.43162e-05
-1.50954e-05
5.68117e-05
-1.51449e-05
5.92942e-05
-1.51086e-05
6.17466e-05
-1.49632e-05
6.41478e-05
-1.46818e-05
6.6473e-05
-1.42329e-05
6.86923e-05
-1.35794e-05
7.07705e-05
-1.26774e-05
7.26661e-05
-1.14743e-05
7.43309e-05
-9.90726e-06
7.5709e-05
-7.90155e-06
7.67368e-05
-5.36902e-06
7.73421e-05
-2.2083e-06
7.74479e-05
1.69543e-06
7.69753e-05
6.46533e-06
7.58461e-05
1.22219e-05
7.39836e-05
1.90631e-05
7.13051e-05
2.7034e-05
6.77013e-05
3.60776e-05
6.29868e-05
4.59475e-05
5.68019e-05
5.60309e-05
4.84668e-05
6.49846e-05
7.01319e-05
2.62756e-06
-9.23952e-06
6.05395e-06
-1.7996e-05
9.23669e-06
-2.03857e-05
1.20818e-05
-2.03932e-05
1.46735e-05
-1.96264e-05
1.70982e-05
-1.86997e-05
1.94187e-05
-1.78452e-05
2.16769e-05
-1.71425e-05
2.39015e-05
-1.66095e-05
2.61125e-05
-1.6239e-05
2.83246e-05
-1.60136e-05
3.05487e-05
-1.59129e-05
3.27932e-05
-1.59158e-05
3.50639e-05
-1.60021e-05
3.7365e-05
-1.61529e-05
3.96988e-05
-1.63504e-05
4.2066e-05
-1.65775e-05
4.44657e-05
-1.6818e-05
4.68952e-05
-1.70555e-05
4.93503e-05
-1.72736e-05
5.18247e-05
-1.74549e-05
5.431e-05
-1.75808e-05
5.67957e-05
-1.76306e-05
5.92685e-05
-1.75814e-05
6.1712e-05
-1.74067e-05
6.41067e-05
-1.70764e-05
6.6429e-05
-1.65552e-05
6.86512e-05
-1.58017e-05
7.07407e-05
-1.47669e-05
7.26593e-05
-1.33929e-05
7.43629e-05
-1.16108e-05
7.58006e-05
-9.33931e-06
7.69149e-05
-6.48324e-06
7.76407e-05
-2.93417e-06
7.79078e-05
1.42834e-06
7.76418e-05
6.73141e-06
7.67642e-05
1.30994e-05
7.51904e-05
2.06369e-05
7.28198e-05
2.94047e-05
6.95153e-05
3.93821e-05
6.50617e-05
5.04011e-05
5.90844e-05
6.20081e-05
5.09042e-05
7.31648e-05
8.16882e-05
2.70112e-06
-1.19406e-05
6.12027e-06
-2.14151e-05
9.25187e-06
-2.35173e-05
1.20425e-05
-2.31838e-05
1.45916e-05
-2.21754e-05
1.69873e-05
-2.10955e-05
1.92899e-05
-2.01477e-05
2.15384e-05
-1.9391e-05
2.37592e-05
-1.88303e-05
2.59706e-05
-1.84504e-05
2.81858e-05
-1.82289e-05
3.04146e-05
-1.81416e-05
3.2664e-05
-1.81652e-05
3.49392e-05
-1.82773e-05
3.72437e-05
-1.84574e-05
3.95793e-05
-1.8686e-05
4.19464e-05
-1.89446e-05
4.43441e-05
-1.92157e-05
4.67698e-05
-1.94813e-05
4.92195e-05
-1.97234e-05
5.16874e-05
-1.99228e-05
5.41656e-05
-2.00591e-05
5.66443e-05
-2.01093e-05
5.9111e-05
-2.0048e-05
6.15504e-05
-1.98461e-05
6.39441e-05
-1.94702e-05
6.62704e-05
-1.88815e-05
6.85033e-05
-1.80346e-05
7.0613e-05
-1.68765e-05
7.25644e-05
-1.53443e-05
7.43174e-05
-1.33639e-05
7.58262e-05
-1.08482e-05
7.70392e-05
-7.69621e-06
7.78985e-05
-3.79348e-06
7.83409e-05
9.85926e-07
7.8298e-05
6.77434e-06
7.76943e-05
1.37032e-05
7.64428e-05
2.18885e-05
7.44347e-05
3.14127e-05
7.15197e-05
4.22972e-05
6.7467e-05
5.44537e-05
6.18896e-05
6.75856e-05
5.40892e-05
8.09652e-05
9.30076e-05
2.75324e-06
-1.46939e-05
6.11394e-06
-2.47758e-05
9.15188e-06
-2.65552e-05
1.18621e-05
-2.5894e-05
1.43555e-05
-2.46689e-05
1.67173e-05
-2.34573e-05
1.90017e-05
-2.24321e-05
2.1243e-05
-2.16322e-05
2.34637e-05
-2.1051e-05
2.56793e-05
-2.06661e-05
2.79012e-05
-2.04507e-05
3.01375e-05
-2.03779e-05
3.23941e-05
-2.04218e-05
3.46755e-05
-2.05587e-05
3.69844e-05
-2.07663e-05
3.93224e-05
-2.1024e-05
4.16899e-05
-2.13121e-05
4.4086e-05
-2.16117e-05
4.65085e-05
-2.19038e-05
4.89537e-05
-2.21686e-05
5.14165e-05
-2.23856e-05
5.38896e-05
-2.25322e-05
5.63639e-05
-2.25836e-05
5.88279e-05
-2.2512e-05
6.12673e-05
-2.22855e-05
6.3665e-05
-2.1868e-05
6.60008e-05
-2.12173e-05
6.82509e-05
-2.02847e-05
7.03876e-05
-1.90132e-05
7.23791e-05
-1.73358e-05
7.41893e-05
-1.51741e-05
7.57773e-05
-1.24362e-05
7.70974e-05
-9.01633e-06
7.8099e-05
-4.79512e-06
7.87268e-05
3.58134e-07
7.89201e-05
6.58111e-06
7.86099e-05
1.40133e-05
7.77146e-05
2.27838e-05
7.613e-05
3.29973e-05
7.37123e-05
4.47148e-05
7.02455e-05
5.79205e-05
6.53696e-05
7.24614e-05
5.84192e-05
8.79156e-05
0.000103392
2.78421e-06
-1.74781e-05
6.04796e-06
-2.80396e-05
8.96328e-06
-2.94705e-05
1.15756e-05
-2.85064e-05
1.40031e-05
-2.70963e-05
1.63248e-05
-2.57791e-05
1.85878e-05
-2.4695e-05
2.08202e-05
-2.38646e-05
2.30401e-05
-2.3271e-05
2.526e-05
-2.2886e-05
2.74887e-05
-2.26794e-05
2.97326e-05
-2.26218e-05
3.19964e-05
-2.26857e-05
3.42836e-05
-2.28459e-05
3.65966e-05
-2.30793e-05
3.89367e-05
-2.3364e-05
4.13042e-05
-2.36797e-05
4.36986e-05
-2.40061e-05
4.6118e-05
-2.43232e-05
4.85594e-05
-2.461e-05
5.10181e-05
-2.48443e-05
5.34877e-05
-2.50019e-05
5.596e-05
-2.50559e-05
5.84243e-05
-2.49762e-05
6.08673e-05
-2.47286e-05
6.32732e-05
-2.42739e-05
6.56232e-05
-2.35672e-05
6.78952e-05
-2.25567e-05
7.00638e-05
-2.11818e-05
7.21003e-05
-1.93723e-05
7.39722e-05
-1.70459e-05
7.56434e-05
-1.41074e-05
7.70744e-05
-1.04473e-05
7.82218e-05
-5.94251e-06
7.90387e-05
-4.58772e-07
7.94738e-05
6.14598e-06
7.94689e-05
1.40182e-05
7.89545e-05
2.32982e-05
7.78437e-05
3.41081e-05
7.60219e-05
4.65366e-05
7.33254e-05
6.0617e-05
6.94908e-05
7.62961e-05
6.40152e-05
9.33912e-05
0.000111669
2.84283e-06
-2.03209e-05
6.03676e-06
-3.12335e-05
8.8588e-06
-3.22926e-05
1.14058e-05
-3.10534e-05
1.38013e-05
-2.94917e-05
1.61176e-05
-2.80954e-05
1.83941e-05
-2.69716e-05
2.06534e-05
-2.61239e-05
2.29091e-05
-2.55267e-05
2.51704e-05
-2.51473e-05
2.74435e-05
-2.49526e-05
2.97333e-05
-2.49115e-05
3.2043e-05
-2.49954e-05
3.43754e-05
-2.51783e-05
3.67324e-05
-2.54362e-05
3.9115e-05
-2.57467e-05
4.15238e-05
-2.60885e-05
4.39586e-05
-2.64408e-05
4.64179e-05
-2.67825e-05
4.88992e-05
-2.70913e-05
5.13987e-05
-2.73437e-05
5.39105e-05
-2.75138e-05
5.64272e-05
-2.75725e-05
5.89386e-05
-2.74876e-05
6.14324e-05
-2.72223e-05
6.38933e-05
-2.67349e-05
6.63036e-05
-2.59775e-05
6.86422e-05
-2.48953e-05
7.08855e-05
-2.34251e-05
7.30068e-05
-2.14936e-05
7.49767e-05
-1.90158e-05
7.67632e-05
-1.58939e-05
7.83317e-05
-1.20158e-05
7.96456e-05
-7.25646e-06
8.06663e-05
-1.47942e-06
8.13522e-05
5.46007e-06
8.16577e-05
1.37128e-05
8.15303e-05
2.34256e-05
8.09089e-05
3.47294e-05
7.97233e-05
4.77223e-05
7.78935e-05
6.24468e-05
7.53242e-05
7.88653e-05
7.18687e-05
9.68467e-05
0.00011625
2.85697e-06
-2.31779e-05
5.92491e-06
-3.43014e-05
8.61147e-06
-3.49791e-05
1.10603e-05
-3.35022e-05
1.33949e-05
-3.18263e-05
1.56788e-05
-3.03793e-05
1.79433e-05
-2.92361e-05
2.02048e-05
-2.83853e-05
2.24723e-05
-2.77942e-05
2.47516e-05
-2.74265e-05
2.70463e-05
-2.72473e-05
2.93592e-05
-2.72244e-05
3.16923e-05
-2.73286e-05
3.40474e-05
-2.75334e-05
3.64259e-05
-2.78147e-05
3.88288e-05
-2.81496e-05
4.12569e-05
-2.85166e-05
4.37102e-05
-2.88941e-05
4.6188e-05
-2.92602e-05
4.86884e-05
-2.95917e-05
5.12083e-05
-2.98636e-05
5.37427e-05
-3.00482e-05
5.62847e-05
-3.01146e-05
5.88251e-05
-3.0028e-05
6.13519e-05
-2.97492e-05
6.38509e-05
-2.92338e-05
6.63048e-05
-2.84313e-05
6.86938e-05
-2.72843e-05
7.09956e-05
-2.57269e-05
7.31855e-05
-2.36835e-05
7.52369e-05
-2.10673e-05
7.71217e-05
-1.77786e-05
7.88104e-05
-1.37045e-05
8.02732e-05
-8.7193e-06
8.148e-05
-2.68613e-06
8.23999e-05
4.54009e-06
8.30021e-05
1.31106e-05
8.32541e-05
2.31735e-05
8.31248e-05
3.48588e-05
8.2592e-05
4.8255e-05
8.16594e-05
6.33794e-05
8.03861e-05
8.01387e-05
7.89454e-05
9.82874e-05
0.000117391
2.85024e-06
-2.60281e-05
5.76938e-06
-3.72206e-05
8.30817e-06
-3.75179e-05
1.06512e-05
-3.58452e-05
1.29183e-05
-3.40935e-05
1.51633e-05
-3.26242e-05
1.74092e-05
-3.14821e-05
1.96666e-05
-3.06426e-05
2.19399e-05
-3.00676e-05
2.42315e-05
-2.97182e-05
2.65425e-05
-2.95583e-05
2.88737e-05
-2.95555e-05
3.12257e-05
-2.96806e-05
3.35994e-05
-2.99071e-05
3.59958e-05
-3.02111e-05
3.84159e-05
-3.05698e-05
4.08606e-05
-3.09613e-05
4.33305e-05
-3.1364e-05
4.58255e-05
-3.17552e-05
4.83446e-05
-3.21108e-05
5.08853e-05
-3.24043e-05
5.34434e-05
-3.26063e-05
5.60127e-05
-3.26839e-05
5.85845e-05
-3.25998e-05
6.11473e-05
-3.2312e-05
6.36871e-05
-3.17736e-05
6.6187e-05
-3.09312e-05
6.86277e-05
-2.9725e-05
7.09877e-05
-2.80869e-05
7.32438e-05
-2.59396e-05
7.53714e-05
-2.31949e-05
7.73453e-05
-1.97525e-05
7.91406e-05
-1.54997e-05
8.07329e-05
-1.03117e-05
8.20999e-05
-4.05308e-06
8.3221e-05
3.41892e-06
8.40793e-05
1.22522e-05
8.46616e-05
2.25913e-05
8.49631e-05
3.45573e-05
8.49991e-05
4.8219e-05
8.48254e-05
6.35532e-05
8.45694e-05
8.03946e-05
8.44716e-05
9.83852e-05
0.000116944
2.82314e-06
-2.88513e-05
5.57392e-06
-3.99713e-05
7.95553e-06
-3.98995e-05
1.01867e-05
-3.80764e-05
1.23803e-05
-3.62871e-05
1.45798e-05
-3.48237e-05
1.68004e-05
-3.37027e-05
1.90468e-05
-3.2889e-05
2.13194e-05
-3.23402e-05
2.36169e-05
-3.20157e-05
2.59381e-05
-3.18794e-05
2.82816e-05
-3.18991e-05
3.06471e-05
-3.2046e-05
3.30344e-05
-3.22944e-05
3.54441e-05
-3.26209e-05
3.78774e-05
-3.30031e-05
4.03355e-05
-3.34194e-05
4.28193e-05
-3.38479e-05
4.53297e-05
-3.42656e-05
4.78664e-05
-3.46475e-05
5.04278e-05
-3.49657e-05
5.30105e-05
-3.5189e-05
5.56086e-05
-3.5282e-05
5.82138e-05
-3.5205e-05
6.08148e-05
-3.4913e-05
6.33972e-05
-3.4356e-05
6.5944e-05
-3.34781e-05
6.84358e-05
-3.22168e-05
7.0851e-05
-3.05022e-05
7.31668e-05
-2.82555e-05
7.53598e-05
-2.53878e-05
7.74065e-05
-2.17992e-05
7.92849e-05
-1.73781e-05
8.09749e-05
-1.20017e-05
8.246e-05
-5.53823e-06
8.37284e-05
2.15056e-06
8.47748e-05
1.12058e-05
8.56024e-05
2.17638e-05
8.62272e-05
3.39325e-05
8.66889e-05
4.77573e-05
8.70661e-05
6.31759e-05
8.7495e-05
7.99657e-05
8.81794e-05
9.77009e-05
0.00011576
2.77644e-06
-3.16277e-05
5.34133e-06
-4.25362e-05
7.5579e-06
-4.21161e-05
9.67165e-06
-4.01901e-05
1.17859e-05
-3.84013e-05
1.39333e-05
-3.69711e-05
1.61218e-05
-3.58912e-05
1.83505e-05
-3.51177e-05
2.06154e-05
-3.46051e-05
2.29121e-05
-3.43125e-05
2.52368e-05
-3.42041e-05
2.75865e-05
-3.42487e-05
2.99592e-05
-3.44188e-05
3.23545e-05
-3.46897e-05
3.47724e-05
-3.50388e-05
3.72142e-05
-3.54448e-05
3.96814e-05
-3.58866e-05
4.21759e-05
-3.63424e-05
4.46992e-05
-3.67889e-05
4.7252e-05
-3.72002e-05
4.98334e-05
-3.75471e-05
5.24407e-05
-3.77963e-05
5.50686e-05
-3.79099e-05
5.77086e-05
-3.7845e-05
6.0349e-05
-3.75534e-05
6.29747e-05
-3.69817e-05
6.55676e-05
-3.6071e-05
6.81072e-05
-3.47564e-05
7.0571e-05
-3.2966e-05
7.29355e-05
-3.06199e-05
7.51768e-05
-2.76291e-05
7.7272e-05
-2.38944e-05
7.91997e-05
-1.93059e-05
8.09422e-05
-1.37442e-05
8.24864e-05
-7.08239e-06
8.3826e-05
8.10921e-07
8.49648e-05
1.0067e-05
8.59189e-05
2.08097e-05
8.67212e-05
3.31302e-05
8.7429e-05
4.70495e-05
8.81317e-05
6.24732e-05
8.89598e-05
7.91376e-05
9.00862e-05
9.65745e-05
0.00011416
2.71095e-06
-3.43387e-05
5.07324e-06
-4.48985e-05
7.11713e-06
-4.416e-05
9.10774e-06
-4.21807e-05
1.11365e-05
-4.04301e-05
1.32256e-05
-3.90603e-05
1.53755e-05
-3.80411e-05
1.75797e-05
-3.73219e-05
1.98302e-05
-3.68556e-05
2.21195e-05
-3.66017e-05
2.44411e-05
-3.65257e-05
2.67903e-05
-3.65979e-05
2.91641e-05
-3.67926e-05
3.15612e-05
-3.70867e-05
3.39815e-05
-3.74592e-05
3.64265e-05
-3.78898e-05
3.88982e-05
-3.83584e-05
4.13994e-05
-3.88436e-05
4.39323e-05
-3.93218e-05
4.64987e-05
-3.97666e-05
4.90986e-05
-4.01471e-05
5.173e-05
-4.04277e-05
5.43877e-05
-4.05676e-05
5.70629e-05
-4.05202e-05
5.97429e-05
-4.02333e-05
6.24109e-05
-3.96497e-05
6.50469e-05
-3.87071e-05
6.76282e-05
-3.73377e-05
7.013e-05
-3.54678e-05
7.25267e-05
-3.30166e-05
7.47926e-05
-2.98951e-05
7.69031e-05
-2.60048e-05
7.88357e-05
-2.12385e-05
8.0572e-05
-1.54804e-05
8.20988e-05
-8.60918e-06
8.34118e-05
-5.02161e-07
8.45199e-05
8.95894e-06
8.54498e-05
1.98798e-05
8.62506e-05
3.23295e-05
8.69986e-05
4.63015e-05
8.77965e-05
6.16753e-05
8.87725e-05
7.81616e-05
9.00863e-05
9.52606e-05
0.000112368
2.62764e-06
-3.69663e-05
4.76962e-06
-4.70405e-05
6.63209e-06
-4.60225e-05
8.4931e-06
-4.40417e-05
1.04303e-05
-4.23672e-05
1.24551e-05
-4.10851e-05
1.45604e-05
-4.01464e-05
1.67343e-05
-3.94958e-05
1.89645e-05
-3.90858e-05
2.12401e-05
-3.88773e-05
2.35523e-05
-3.88379e-05
2.58947e-05
-3.89403e-05
2.82632e-05
-3.9161e-05
3.06557e-05
-3.94792e-05
3.30724e-05
-3.98758e-05
3.55148e-05
-4.03322e-05
3.79857e-05
-4.08293e-05
4.04886e-05
-4.13464e-05
4.30269e-05
-4.18602e-05
4.56035e-05
-4.23432e-05
4.82195e-05
-4.2763e-05
5.08733e-05
-4.30815e-05
5.35597e-05
-4.32541e-05
5.62692e-05
-4.32296e-05
5.89873e-05
-4.29513e-05
6.16947e-05
-4.23571e-05
6.43682e-05
-4.13806e-05
6.69814e-05
-3.99509e-05
6.95059e-05
-3.79923e-05
7.19126e-05
-3.54233e-05
7.41721e-05
-3.21545e-05
7.62561e-05
-2.80889e-05
7.81387e-05
-2.3121e-05
7.97971e-05
-1.71388e-05
8.12141e-05
-1.00262e-05
8.23823e-05
-1.67036e-06
8.33107e-05
8.03052e-06
8.4035e-05
1.91555e-05
8.4624e-05
3.17405e-05
8.51845e-05
4.57409e-05
8.58496e-05
6.10101e-05
8.67587e-05
7.72525e-05
8.80703e-05
9.39491e-05
0.000110528
2.52778e-06
-3.94941e-05
4.42793e-06
-4.89406e-05
6.0978e-06
-4.76923e-05
7.82198e-06
-4.57659e-05
9.6619e-06
-4.42072e-05
1.16175e-05
-4.30407e-05
1.36737e-05
-4.22026e-05
1.58126e-05
-4.16347e-05
1.80175e-05
-4.12907e-05
2.02741e-05
-4.1134e-05
2.25714e-05
-4.11352e-05
2.49011e-05
-4.127e-05
2.7258e-05
-4.1518e-05
2.96399e-05
-4.18611e-05
3.20465e-05
-4.22825e-05
3.448e-05
-4.27657e-05
3.69439e-05
-4.32932e-05
3.94428e-05
-4.38453e-05
4.19812e-05
-4.43987e-05
4.45634e-05
-4.49253e-05
4.71913e-05
-4.5391e-05
4.98643e-05
-4.57545e-05
5.25768e-05
-4.59666e-05
5.53179e-05
-4.59708e-05
5.80707e-05
-4.57041e-05
6.0812e-05
-4.50984e-05
6.3514e-05
-4.40825e-05
6.61452e-05
-4.2582e-05
6.8672e-05
-4.05192e-05
7.10601e-05
-3.78114e-05
7.3275e-05
-3.43695e-05
7.52829e-05
-3.00968e-05
7.70513e-05
-2.48895e-05
7.85503e-05
-1.86378e-05
7.97531e-05
-1.12291e-05
8.06422e-05
-2.55948e-06
8.12202e-05
7.45254e-06
8.1527e-05
1.88488e-05
8.16565e-05
3.1611e-05
8.17729e-05
4.56245e-05
8.20933e-05
6.06898e-05
8.2813e-05
7.65328e-05
8.40659e-05
9.26962e-05
0.000108652
2.41232e-06
-4.19064e-05
4.04111e-06
-5.05694e-05
5.50414e-06
-4.91554e-05
7.08425e-06
-4.7346e-05
8.82271e-06
-4.59456e-05
1.07062e-05
-4.49242e-05
1.27107e-05
-4.42071e-05
1.48119e-05
-4.37359e-05
1.69882e-05
-4.34671e-05
1.92221e-05
-4.33679e-05
2.14998e-05
-4.34129e-05
2.38116e-05
-4.35818e-05
2.61513e-05
-4.38578e-05
2.85163e-05
-4.4226e-05
3.09064e-05
-4.46726e-05
3.33242e-05
-4.51836e-05
3.57742e-05
-4.57432e-05
3.8262e-05
-4.63331e-05
4.07938e-05
-4.69304e-05
4.3375e-05
-4.75065e-05
4.6009e-05
-4.80251e-05
4.86957e-05
-4.84412e-05
5.14295e-05
-4.87003e-05
5.41974e-05
-4.87388e-05
5.69789e-05
-4.84856e-05
5.97457e-05
-4.78652e-05
6.24633e-05
-4.68002e-05
6.50937e-05
-4.52124e-05
6.75965e-05
-4.3022e-05
6.99312e-05
-4.0146e-05
7.20568e-05
-3.64951e-05
7.39324e-05
-3.19724e-05
7.55173e-05
-2.64744e-05
7.67711e-05
-1.98916e-05
7.76529e-05
-1.21109e-05
7.81263e-05
-3.03283e-06
7.81726e-05
7.40625e-06
7.78151e-05
1.92062e-05
7.71704e-05
3.22557e-05
7.6536e-05
4.62589e-05
7.63161e-05
6.09097e-05
7.69376e-05
7.59113e-05
7.83976e-05
9.12362e-05
0.000106547
2.27846e-06
-4.41849e-05
3.59428e-06
-5.18853e-05
4.83459e-06
-5.03957e-05
6.26565e-06
-4.87771e-05
7.90171e-06
-4.75817e-05
9.71356e-06
-4.6736e-05
1.16669e-05
-4.61604e-05
1.37302e-05
-4.57992e-05
1.58769e-05
-4.56138e-05
1.80857e-05
-4.55767e-05
2.03406e-05
-4.56678e-05
2.26302e-05
-4.58714e-05
2.49476e-05
-4.61752e-05
2.72897e-05
-4.65681e-05
2.96566e-05
-4.70395e-05
3.20515e-05
-4.75784e-05
3.44796e-05
-4.81713e-05
3.69481e-05
-4.88015e-05
3.94644e-05
-4.94468e-05
4.20358e-05
-5.00779e-05
4.46673e-05
-5.06565e-05
4.73596e-05
-5.11335e-05
5.01067e-05
-5.14475e-05
5.28937e-05
-5.15257e-05
5.56948e-05
-5.12867e-05
5.84748e-05
-5.06452e-05
6.11909e-05
-4.95163e-05
6.37962e-05
-4.78177e-05
6.62426e-05
-4.54685e-05
6.84827e-05
-4.23861e-05
7.0469e-05
-3.84814e-05
7.2153e-05
-3.36564e-05
7.34854e-05
-2.78067e-05
7.44149e-05
-2.08212e-05
7.48833e-05
-1.25792e-05
7.48257e-05
-2.97525e-06
7.41887e-05
8.04322e-06
7.29869e-05
2.04081e-05
7.13522e-05
3.38904e-05
6.98461e-05
4.7765e-05
6.91234e-05
6.16324e-05
7.00594e-05
7.49753e-05
7.22862e-05
8.90093e-05
0.000103993
2.11146e-06
-4.62963e-05
3.06081e-06
-5.28346e-05
4.06641e-06
-5.14013e-05
5.34941e-06
-5.00601e-05
6.88772e-06
-4.912e-05
8.63314e-06
-4.84814e-05
1.05397e-05
-4.80669e-05
1.2568e-05
-4.78275e-05
1.46863e-05
-4.7732e-05
1.68697e-05
-4.77601e-05
1.90999e-05
-4.78979e-05
2.13641e-05
-4.81357e-05
2.36546e-05
-4.84657e-05
2.59681e-05
-4.88816e-05
2.8305e-05
-4.93764e-05
3.06689e-05
-4.99423e-05
3.30662e-05
-5.05686e-05
3.55051e-05
-5.12404e-05
3.7995e-05
-5.19366e-05
4.05448e-05
-5.26277e-05
4.31615e-05
-5.32732e-05
4.58474e-05
-5.38193e-05
4.85964e-05
-5.41965e-05
5.13908e-05
-5.43201e-05
5.41986e-05
-5.40945e-05
5.69753e-05
-5.34218e-05
5.96672e-05
-5.22082e-05
6.2217e-05
-5.03674e-05
6.4568e-05
-4.78194e-05
6.66664e-05
-4.44846e-05
6.846e-05
-4.0275e-05
6.9894e-05
-3.50903e-05
7.09115e-05
-2.88242e-05
7.14533e-05
-2.1363e-05
7.14467e-05
-1.25726e-05
7.08328e-05
-2.36138e-06
6.94488e-05
9.42727e-06
6.72203e-05
2.26366e-05
6.4282e-05
3.68287e-05
6.14878e-05
5.05591e-05
6.03186e-05
6.28016e-05
6.22529e-05
7.3041e-05
6.67428e-05
8.45195e-05
7.04303e-05
0.000100306
0.000116381
1.87115e-06
-4.81675e-05
2.40146e-06
-5.33649e-05
3.17427e-06
-5.21741e-05
4.32058e-06
-5.12064e-05
5.77338e-06
-5.05728e-05
7.46319e-06
-5.01712e-05
9.33154e-06
-4.99353e-05
1.1331e-05
-4.9827e-05
1.34244e-05
-4.98254e-05
1.55837e-05
-4.99194e-05
1.77884e-05
-5.01027e-05
2.00248e-05
-5.03721e-05
2.22845e-05
-5.07255e-05
2.45641e-05
-5.11611e-05
2.68639e-05
-5.16763e-05
2.91884e-05
-5.22668e-05
3.15446e-05
-5.29248e-05
3.39419e-05
-5.36377e-05
3.63914e-05
-5.4386e-05
3.89041e-05
-5.51404e-05
4.14893e-05
-5.58585e-05
4.41516e-05
-5.64816e-05
4.68859e-05
-5.69308e-05
4.96715e-05
-5.71056e-05
5.24685e-05
-5.68915e-05
5.52204e-05
-5.61737e-05
5.78596e-05
-5.48475e-05
6.03163e-05
-5.28241e-05
6.25252e-05
-5.00283e-05
6.44289e-05
-4.63883e-05
6.59735e-05
-4.18196e-05
6.71002e-05
-3.62171e-05
6.77525e-05
-2.94765e-05
6.78791e-05
-2.14896e-05
6.73795e-05
-1.2073e-05
6.61011e-05
-1.08306e-06
6.32382e-05
1.22902e-05
5.9306e-05
2.65687e-05
5.69926e-05
3.91422e-05
5.60733e-05
5.14784e-05
5.62825e-05
6.25924e-05
5.79606e-05
7.13629e-05
6.21195e-05
8.03605e-05
6.78908e-05
9.45345e-05
0.000114527
1.47808e-06
-4.96455e-05
1.57211e-06
-5.34589e-05
2.13956e-06
-5.27415e-05
3.17358e-06
-5.22404e-05
4.56103e-06
-5.19602e-05
6.21144e-06
-5.18217e-05
8.0538e-06
-5.17776e-05
1.00328e-05
-5.18059e-05
1.21065e-05
-5.18991e-05
1.42441e-05
-5.20569e-05
1.64236e-05
-5.22822e-05
1.86305e-05
-5.25789e-05
2.0856e-05
-5.29509e-05
2.30963e-05
-5.34014e-05
2.53522e-05
-5.39322e-05
2.76282e-05
-5.45428e-05
2.99319e-05
-5.52285e-05
3.22738e-05
-5.59795e-05
3.46659e-05
-5.67782e-05
3.71216e-05
-5.75961e-05
3.9653e-05
-5.83899e-05
4.22682e-05
-5.90968e-05
4.49646e-05
-5.96273e-05
4.77193e-05
-5.98603e-05
5.04826e-05
-5.96548e-05
5.31822e-05
-5.88733e-05
5.57331e-05
-5.73984e-05
5.80508e-05
-5.51418e-05
6.00618e-05
-5.20393e-05
6.17085e-05
-4.8035e-05
6.29419e-05
-4.30531e-05
6.37184e-05
-3.69936e-05
6.40021e-05
-2.97601e-05
6.36757e-05
-2.11632e-05
6.23117e-05
-1.0709e-05
5.92451e-05
1.98349e-06
5.82689e-05
1.32664e-05
5.76483e-05
2.71893e-05
5.69658e-05
3.98248e-05
5.69625e-05
5.14817e-05
5.77319e-05
6.1823e-05
5.884e-05
7.02548e-05
6.10316e-05
7.81689e-05
6.67881e-05
8.87781e-05
0.000114214
8.26135e-07
-5.04717e-05
5.48367e-07
-5.31812e-05
9.66e-07
-5.31592e-05
1.92232e-06
-5.31967e-05
3.27036e-06
-5.33083e-05
4.9011e-06
-5.34524e-05
6.73154e-06
-5.36081e-05
8.69931e-06
-5.37737e-05
1.07587e-05
-5.39586e-05
1.28772e-05
-5.41754e-05
1.50319e-05
-5.44369e-05
1.72077e-05
-5.47548e-05
1.93958e-05
-5.5139e-05
2.15921e-05
-5.55977e-05
2.37972e-05
-5.61374e-05
2.60157e-05
-5.67613e-05
2.82552e-05
-5.7468e-05
3.0526e-05
-5.82504e-05
3.28413e-05
-5.90935e-05
3.52156e-05
-5.99704e-05
3.76642e-05
-6.08385e-05
4.02004e-05
-6.1633e-05
4.28276e-05
-6.22546e-05
4.55221e-05
-6.25548e-05
4.82219e-05
-6.23547e-05
5.08346e-05
-6.14859e-05
5.32529e-05
-5.98167e-05
5.53747e-05
-5.72636e-05
5.7119e-05
-5.37836e-05
5.84361e-05
-4.93521e-05
5.9314e-05
-4.39309e-05
5.97496e-05
-3.74292e-05
5.97623e-05
-2.97729e-05
5.79931e-05
-1.9394e-05
5.75189e-05
-1.02349e-05
5.77259e-05
1.77656e-06
5.74597e-05
1.35327e-05
5.81229e-05
2.6526e-05
5.90464e-05
3.89013e-05
6.02616e-05
5.02665e-05
6.16466e-05
6.0438e-05
6.25403e-05
6.93612e-05
6.2749e-05
7.79601e-05
6.28294e-05
8.86977e-05
0.00011266
-2.16058e-07
-5.02556e-05
-6.27733e-07
-5.27695e-05
-3.0277e-07
-5.34841e-05
6.11383e-07
-5.41109e-05
1.94766e-06
-5.46446e-05
3.5784e-06
-5.50831e-05
5.40959e-06
-5.54393e-05
7.37336e-06
-5.57375e-05
9.42194e-06
-5.60071e-05
1.15221e-05
-5.62756e-05
1.36511e-05
-5.6566e-05
1.5794e-05
-5.68976e-05
1.79414e-05
-5.72864e-05
2.00892e-05
-5.77454e-05
2.22374e-05
-5.82856e-05
2.43901e-05
-5.89139e-05
2.6554e-05
-5.96319e-05
2.87385e-05
-6.0435e-05
3.0956e-05
-6.13109e-05
3.32212e-05
-6.22356e-05
3.55513e-05
-6.31686e-05
3.79671e-05
-6.40487e-05
4.04834e-05
-6.47709e-05
4.30788e-05
-6.51502e-05
4.56765e-05
-6.49524e-05
4.81573e-05
-6.39667e-05
5.03856e-05
-6.20451e-05
5.22397e-05
-5.91177e-05
5.36401e-05
-5.5184e-05
5.45819e-05
-5.02939e-05
5.5113e-05
-4.4462e-05
5.52987e-05
-3.76149e-05
5.49203e-05
-2.93945e-05
5.56114e-05
-2.0085e-05
5.53291e-05
-9.95262e-06
5.5609e-05
1.49667e-06
5.5823e-05
1.33186e-05
5.67876e-05
2.55615e-05
5.83053e-05
3.73836e-05
6.02432e-05
4.83286e-05
6.23532e-05
5.8328e-05
6.39849e-05
6.77295e-05
6.42768e-05
7.76682e-05
6.24956e-05
9.04789e-05
0.000110324
-1.26381e-06
-4.89918e-05
-1.83421e-06
-5.21991e-05
-1.56749e-06
-5.37508e-05
-6.67068e-07
-5.50113e-05
6.77785e-07
-5.59894e-05
2.32136e-06
-5.67267e-05
4.15907e-06
-5.7277e-05
6.11962e-06
-5.7698e-05
8.1554e-06
-5.80429e-05
1.02341e-05
-5.83543e-05
1.23338e-05
-5.86657e-05
1.444e-05
-5.90038e-05
1.65432e-05
-5.93896e-05
1.86383e-05
-5.98405e-05
2.07247e-05
-6.0372e-05
2.28052e-05
-6.09945e-05
2.48849e-05
-6.17115e-05
2.69704e-05
-6.25204e-05
2.90712e-05
-6.34118e-05
3.11997e-05
-6.43641e-05
3.33717e-05
-6.53407e-05
3.56155e-05
-6.62925e-05
3.79664e-05
-6.71218e-05
4.04115e-05
-6.75953e-05
4.28545e-05
-6.73953e-05
4.51411e-05
-6.62533e-05
4.71017e-05
-6.40057e-05
4.86058e-05
-6.06218e-05
4.96223e-05
-5.62004e-05
5.02165e-05
-5.08881e-05
5.05185e-05
-4.47641e-05
5.06939e-05
-3.77902e-05
5.12911e-05
-2.99916e-05
5.1481e-05
-2.02749e-05
5.12176e-05
-9.68917e-06
5.10962e-05
1.61806e-06
5.12361e-05
1.31788e-05
5.20686e-05
2.4729e-05
5.36513e-05
3.58009e-05
5.58958e-05
4.6084e-05
5.85917e-05
5.5632e-05
6.12852e-05
6.5036e-05
6.32315e-05
7.57219e-05
6.36181e-05
9.00923e-05
0.00011014
-2.16039e-06
-4.68314e-05
-2.83614e-06
-5.15234e-05
-2.63935e-06
-5.39476e-05
-1.7545e-06
-5.58962e-05
-4.00274e-07
-5.73436e-05
1.25053e-06
-5.83775e-05
3.0843e-06
-5.91107e-05
5.02933e-06
-5.96431e-05
7.04031e-06
-6.00539e-05
9.08713e-06
-6.04011e-05
1.11491e-05
-6.07276e-05
1.3212e-05
-6.10667e-05
1.52661e-05
-6.14438e-05
1.73047e-05
-6.18791e-05
1.93263e-05
-6.23936e-05
2.13323e-05
-6.30005e-05
2.33245e-05
-6.37037e-05
2.53052e-05
-6.45012e-05
2.72789e-05
-6.53854e-05
2.92509e-05
-6.63361e-05
3.12282e-05
-6.7318e-05
3.32421e-05
-6.83064e-05
3.53601e-05
-6.92398e-05
3.75861e-05
-6.98213e-05
3.97978e-05
-6.96071e-05
4.18001e-05
-6.82556e-05
4.33958e-05
-6.56014e-05
4.44995e-05
-6.17254e-05
4.51761e-05
-5.6877e-05
4.55628e-05
-5.12748e-05
4.59748e-05
-4.51761e-05
4.66093e-05
-3.84247e-05
4.63942e-05
-2.97765e-05
4.57684e-05
-1.96492e-05
4.49484e-05
-8.86915e-06
4.4304e-05
2.26248e-06
4.41074e-05
1.33753e-05
4.46512e-05
2.41852e-05
4.60694e-05
3.43826e-05
4.83466e-05
4.38069e-05
5.1347e-05
5.26316e-05
5.47666e-05
6.16164e-05
5.80454e-05
7.2443e-05
6.02819e-05
8.78559e-05
0.00011071
-2.38161e-06
-4.44498e-05
-3.19622e-06
-5.07088e-05
-3.2137e-06
-5.39302e-05
-2.4076e-06
-5.67023e-05
-1.08415e-06
-5.86671e-05
5.38329e-07
-6e-05
2.3324e-06
-6.09048e-05
4.22815e-06
-6.15388e-05
6.18562e-06
-6.20114e-05
8.17779e-06
-6.23933e-05
1.01849e-05