/*--------------------------------*- C++ -*----------------------------------*\
  =========                 |
  \\      /  F ield         | OpenFOAM: The Open Source CFD Toolbox
   \\    /   O peration     | Website:  https://openfoam.org
    \\  /    A nd           | Version:  9
     \\/     M anipulation  |
\*---------------------------------------------------------------------------*/
FoamFile
{
    format      ascii;
    class       volScalarField;
    location    "150";
    object      p;
}
// * * * * * * * * * * * * * * * * * * * * * * * * * * * * * * * * * * * * * //

dimensions      [0 2 -2 0 0 0 0];

internalField   nonuniform List<scalar> 
12225
(
-0.982906
-3.17153
-4.27118
-4.59147
-4.77222
-4.94063
-5.07148
-5.16567
-5.24113
-5.30704
-5.36519
-5.41765
-5.46424
-5.50613
-5.54301
-5.56803
-5.59741
-5.53279
-4.14644
-4.91469
-5.07499
-4.98232
-4.9693
-5.03655
-5.11336
-5.17816
-5.23663
-5.29262
-5.34542
-5.39397
-5.43876
-5.47957
-5.51705
-5.54567
-5.57951
-5.58636
-4.5476
-4.53241
-4.65955
-4.73753
-4.83192
-4.95151
-5.05795
-5.1419
-5.21258
-5.27654
-5.33488
-5.38754
-5.4358
-5.4796
-5.52034
-5.55466
-5.59534
-5.62784
-4.42564
-4.36863
-4.60996
-4.7679
-4.86915
-4.97475
-5.07169
-5.15086
-5.21849
-5.28023
-5.33712
-5.38905
-5.43703
-5.48122
-5.52305
-5.56144
-5.60503
-5.65085
-4.41531
-4.43967
-4.66746
-4.80863
-4.89177
-4.98323
-5.07373
-5.15057
-5.21706
-5.278
-5.33455
-5.38663
-5.43511
-5.4804
-5.52392
-5.56592
-5.61211
-5.66374
-4.4733
-4.52217
-4.69618
-4.81971
-4.90075
-4.988
-5.07534
-5.15101
-5.21698
-5.27748
-5.33384
-5.38608
-5.43502
-5.48126
-5.52614
-5.57056
-5.61832
-5.67149
-4.53367
-4.57784
-4.71276
-4.82873
-4.91202
-4.9956
-5.07885
-5.15269
-5.21783
-5.27774
-5.33375
-5.38603
-5.43529
-5.48228
-5.52818
-5.5741
-5.62253
-5.67517
-4.58725
-4.62482
-4.73454
-4.84248
-4.92504
-5.00411
-5.0829
-5.15464
-5.21883
-5.27807
-5.33365
-5.3859
-5.4354
-5.48292
-5.52951
-5.57618
-5.62456
-5.67565
-4.63704
-4.67009
-4.76079
-4.85841
-4.93808
-5.01295
-5.08753
-5.15698
-5.22002
-5.27847
-5.33354
-5.38561
-5.4352
-5.48301
-5.5299
-5.57671
-5.62446
-5.67359
-4.68416
-4.71333
-4.78864
-4.87554
-4.95136
-5.02245
-5.09303
-5.15993
-5.22158
-5.27909
-5.33349
-5.38521
-5.43467
-5.48248
-5.5293
-5.57577
-5.6225
-5.66955
-4.72855
-4.75397
-4.81697
-4.89385
-4.96519
-5.0326
-5.09936
-5.16353
-5.22356
-5.27996
-5.33355
-5.38473
-5.43384
-5.48136
-5.52779
-5.57356
-5.61902
-5.66401
-4.76665
-4.78893
-4.84295
-4.91152
-4.97832
-5.04234
-5.10576
-5.16738
-5.22575
-5.281
-5.3337
-5.38421
-5.4328
-5.47983
-5.52565
-5.57056
-5.61474
-5.65795
-4.80186
-4.82152
-4.86819
-4.92934
-4.99155
-5.05224
-5.1125
-5.17157
-5.2282
-5.2822
-5.33391
-5.38363
-5.43155
-5.47791
-5.52298
-5.56689
-5.60977
-5.6513
-4.83878
-4.85592
-4.8958
-4.94962
-5.00672
-5.06363
-5.12049
-5.17673
-5.23127
-5.28372
-5.3342
-5.38286
-5.42984
-5.47527
-5.51929
-5.56197
-5.60333
-5.64314
-4.87617
-4.89091
-4.9248
-4.97175
-5.02346
-5.07627
-5.12956
-5.18274
-5.2349
-5.2855
-5.33443
-5.38176
-5.4275
-5.4717
-5.5144
-5.55562
-5.59533
-5.63334
-4.91207
-4.92467
-4.95354
-4.9944
-5.04087
-5.08949
-5.13917
-5.1892
-5.23877
-5.28725
-5.3344
-5.3801
-5.42434
-5.46703
-5.5082
-5.54777
-5.58576
-5.62198
-4.9436
-4.95446
-4.97939
-5.01531
-5.05717
-5.10189
-5.14817
-5.1952
-5.24216
-5.28843
-5.33361
-5.37752
-5.42004
-5.46107
-5.50054
-5.53841
-5.57464
-5.60916
-4.96639
-4.97605
-4.99833
-5.03083
-5.06932
-5.11105
-5.15462
-5.19916
-5.24386
-5.28809
-5.3314
-5.37354
-5.41433
-5.45367
-5.49146
-5.52766
-5.56221
-5.59513
-4.97355
-4.98273
-5.004
-5.03523
-5.07244
-5.11286
-5.1551
-5.19829
-5.24164
-5.28452
-5.32646
-5.36721
-5.40659
-5.4445
-5.48084
-5.51561
-5.54875
-5.58032
-4.95775
-4.96755
-4.99022
-5.02341
-5.06255
-5.10443
-5.14759
-5.19138
-5.23503
-5.27796
-5.31967
-5.36003
-5.39883
-5.43608
-5.47165
-5.50561
-5.53789
-5.56862
-4.93112
-4.94195
-4.9673
-5.00444
-5.04737
-5.09207
-5.13738
-5.18287
-5.22781
-5.27148
-5.31362
-5.35409
-5.3929
-5.42993
-5.46524
-5.4988
-5.53071
-5.56097
-4.89607
-4.90792
-4.93736
-4.98107
-5.02952
-5.07769
-5.12573
-5.17371
-5.22056
-5.26546
-5.30833
-5.34925
-5.38824
-5.4253
-5.46049
-5.49387
-5.52551
-5.55551
-4.85564
-4.86757
-4.90212
-4.95552
-5.01124
-5.06339
-5.11451
-5.16521
-5.21401
-5.26019
-5.30394
-5.34547
-5.3848
-5.42203
-5.45721
-5.49054
-5.52203
-5.55191
-4.81202
-4.82304
-4.8649
-4.92946
-4.99181
-5.04869
-5.10454
-5.15865
-5.20919
-5.25632
-5.30075
-5.34276
-5.38235
-5.41963
-5.4548
-5.48803
-5.51943
-5.54912
-4.76515
-4.7707
-4.83345
-4.9118
-4.97391
-5.03236
-5.09373
-5.15234
-5.20514
-5.25349
-5.29881
-5.34139
-5.38124
-5.41859
-5.45372
-5.48685
-5.51814
-5.54775
-4.72189
-4.6856
-4.79523
-4.90635
-4.96876
-5.02425
-5.08669
-5.14668
-5.20017
-5.24919
-5.2952
-5.3383
-5.37847
-5.41601
-5.45123
-5.4844
-5.5157
-5.5453
-4.73614
-4.57723
-4.70625
-4.86047
-4.95074
-5.02231
-5.09146
-5.15262
-5.20569
-5.25426
-5.29983
-5.34237
-5.38197
-5.41894
-5.4536
-5.48626
-5.51714
-5.54645
-4.85935
-4.67901
-4.69328
-4.76554
-4.85408
-4.9535
-5.04442
-5.11845
-5.18042
-5.23584
-5.28643
-5.33249
-5.3746
-5.41339
-5.44937
-5.48298
-5.51468
-5.54503
-4.56673
-5.15787
-5.24679
-5.12268
-5.0685
-5.09586
-5.14307
-5.18656
-5.22839
-5.27086
-5.31263
-5.35224
-5.38951
-5.42454
-5.45738
-5.4882
-5.51721
-5.54614
-1.57741
-3.34076
-4.34555
-4.64482
-4.79416
-4.93799
-5.05225
-5.13346
-5.19795
-5.25509
-5.30663
-5.35296
-5.39493
-5.43346
-5.46903
-5.50144
-5.53054
-5.55453
-6.5416
-6.54133
-6.54188
-6.54382
-6.54672
-6.55037
-6.55464
-6.55949
-6.5649
-6.57103
-6.57802
-6.58582
-6.5941
-6.60279
-6.61171
-6.62092
-6.63159
-6.64471
-6.65957
-6.67571
-6.69245
-6.70841
-6.72432
-6.7421
-6.75982
-6.7774
-6.79632
-6.81515
-6.83528
-6.85753
-6.8811
-6.90569
-6.93104
-6.95705
-6.98352
-7.01044
-7.03763
-7.06509
-7.09267
-7.12038
-7.14805
-7.17574
-7.20327
-7.23068
-7.25781
-7.2847
-7.31118
-7.3373
-7.36288
-7.38797
-7.41237
-7.43613
-7.45904
-7.48112
-7.50216
-7.52219
-7.54096
-7.5585
-7.57454
-7.58913
-7.60197
-7.61307
-7.62214
-7.62919
-7.63392
-7.6363
-7.63603
-7.63308
-7.62709
-7.61805
-7.60563
-7.58979
-7.5702
-7.54681
-7.51924
-7.48737
-7.45082
-7.40942
-7.36275
-7.3106
-7.25254
-7.18834
-7.11758
-7.04008
-6.95541
-6.86334
-6.76344
-6.65541
-6.53886
-6.41344
-6.2787
-6.13403
-5.97875
-5.81214
-5.63356
-5.44247
-5.23844
-5.02105
-4.78982
-4.54431
-4.28404
-4.00861
-3.71762
-3.41076
-3.0878
-2.74863
-2.39327
-2.0219
-1.63486
-1.23266
-0.815987
-0.385741
0.0569599
0.510802
0.974242
1.44557
1.92279
2.40381
2.88644
3.36859
3.84806
4.32258
4.7898
5.24753
5.69371
6.1266
6.54456
6.94628
7.33058
7.69663
8.04374
8.37157
8.6799
8.96879
9.23842
9.48918
9.72146
9.93624
10.1349
10.3184
10.4869
10.641
10.7813
10.9088
11.0242
11.1285
11.2227
11.3075
11.3838
11.4524
11.514
11.5695
11.6194
11.6644
11.7051
11.742
11.7756
11.8064
11.8349
11.8614
11.8862
11.9098
11.9323
11.9541
11.9754
11.9963
12.0171
12.0379
12.0588
12.08
12.1016
12.1237
12.1465
12.1703
12.1954
12.2227
12.2542
12.2923
12.3513
12.4253
-6.53819
-6.53882
-6.53983
-6.5413
-6.5429
-6.54469
-6.54692
-6.54979
-6.55337
-6.55773
-6.56281
-6.5684
-6.57441
-6.58106
-6.58832
-6.59678
-6.60706
-6.6181
-6.62905
-6.63955
-6.64947
-6.66039
-6.6747
-6.69068
-6.70915
-6.73121
-6.75387
-6.77811
-6.8031
-6.82773
-6.85251
-6.87769
-6.9033
-6.92937
-6.95581
-6.9826
-7.00963
-7.03687
-7.06421
-7.09164
-7.11905
-7.14643
-7.17367
-7.20076
-7.2276
-7.25418
-7.2804
-7.30625
-7.33159
-7.35643
-7.38065
-7.40421
-7.42697
-7.4489
-7.46985
-7.48978
-7.50853
-7.52603
-7.54212
-7.55674
-7.56968
-7.58088
-7.59014
-7.59737
-7.60235
-7.605
-7.60509
-7.60248
-7.59695
-7.58836
-7.57647
-7.56117
-7.54219
-7.51942
-7.49259
-7.46153
-7.42592
-7.38554
-7.34008
-7.28927
-7.23276
-7.17027
-7.10143
-7.02596
-6.94348
-6.85365
-6.75606
-6.65032
-6.53601
-6.41277
-6.28012
-6.13757
-5.98453
-5.82048
-5.64494
-5.45745
-5.25746
-5.04443
-4.81787
-4.57728
-4.32222
-4.05225
-3.76697
-3.46606
-3.14925
-2.81642
-2.46755
-2.10279
-1.72238
-1.3268
-0.91665
-0.492779
-0.0561838
0.391861
0.849952
1.31639
1.78934
2.2667
2.74641
3.22634
3.70438
4.17822
4.64558
5.1042
5.55207
5.98731
6.40831
6.81364
7.2021
7.57274
7.92486
8.25798
8.57186
8.86645
9.14191
9.39865
9.63705
9.85737
10.0603
10.2474
10.4194
10.577
10.721
10.8521
10.9711
11.079
11.1765
11.2646
11.3441
11.4158
11.4803
11.5384
11.5908
11.6382
11.681
11.7199
11.7553
11.7877
11.8176
11.8454
11.8714
11.8959
11.9192
11.9416
11.9634
11.9847
12.0057
12.0267
12.0477
12.0689
12.0904
12.1124
12.1351
12.1588
12.184
12.2114
12.2434
12.2813
12.3397
12.4047
-6.52932
-6.5319
-6.53543
-6.53834
-6.5404
-6.54211
-6.54395
-6.54622
-6.54907
-6.5526
-6.5568
-6.56154
-6.56672
-6.57245
-6.57897
-6.58668
-6.59588
-6.60617
-6.61702
-6.62825
-6.63983
-6.65237
-6.6665
-6.68191
-6.69868
-6.7174
-6.7375
-6.7592
-6.78222
-6.80597
-6.83023
-6.85496
-6.88008
-6.9056
-6.93144
-6.95759
-6.98395
-7.0105
-7.03716
-7.06391
-7.09065
-7.11738
-7.14399
-7.17048
-7.19675
-7.22278
-7.24848
-7.27383
-7.29872
-7.32313
-7.34695
-7.37014
-7.39258
-7.4142
-7.4349
-7.4546
-7.47316
-7.49051
-7.5065
-7.52103
-7.53396
-7.54517
-7.5545
-7.56182
-7.56698
-7.56983
-7.57019
-7.56791
-7.56279
-7.55466
-7.54332
-7.5286
-7.51029
-7.4882
-7.46212
-7.43185
-7.39715
-7.35777
-7.31345
-7.26392
-7.20888
-7.14804
-7.08108
-7.0077
-6.92753
-6.84023
-6.74537
-6.64254
-6.53131
-6.41125
-6.28194
-6.14287
-5.99351
-5.8334
-5.66209
-5.47912
-5.28398
-5.07613
-4.85507
-4.6203
-4.37136
-4.10781
-3.82926
-3.53534
-3.22581
-2.9005
-2.55936
-2.20249
-1.8301
-1.4426
-1.0405
-0.624592
-0.195779
0.244748
0.695689
1.15542
1.62222
2.0941
2.56908
3.04507
3.51996
3.99148
4.45742
4.91549
5.36373
5.80019
6.22325
6.63136
7.02335
7.39812
7.75497
8.09329
8.41281
8.7134
8.99512
9.25813
9.50289
9.73001
9.94034
10.1348
10.3141
10.4788
10.6296
10.7672
10.8925
11.0063
11.1095
11.2029
11.2873
11.3635
11.4323
11.4944
11.5504
11.601
11.6468
11.6883
11.7261
11.7606
11.7924
11.8217
11.849
11.8747
11.8989
11.9221
11.9445
11.9662
11.9875
12.0086
12.0296
12.0508
12.0721
12.0939
12.1164
12.1399
12.165
12.1924
12.2245
12.2614
12.3178
12.3662
-6.51524
-6.52007
-6.52705
-6.53243
-6.53596
-6.53855
-6.54081
-6.54312
-6.5457
-6.54876
-6.55237
-6.55655
-6.56127
-6.5666
-6.57266
-6.57971
-6.58791
-6.59726
-6.60758
-6.61886
-6.63115
-6.64468
-6.65956
-6.67572
-6.69299
-6.71146
-6.73101
-6.75172
-6.77352
-6.79622
-6.81962
-6.84358
-6.86801
-6.89284
-6.91801
-6.94348
-6.96917
-6.99506
-7.02107
-7.04717
-7.0733
-7.09943
-7.12548
-7.15143
-7.17719
-7.20274
-7.228
-7.25293
-7.27745
-7.30152
-7.32503
-7.34793
-7.37013
-7.39155
-7.41207
-7.43163
-7.4501
-7.46738
-7.48335
-7.4979
-7.51089
-7.52219
-7.53166
-7.53916
-7.54455
-7.54767
-7.54835
-7.54644
-7.54176
-7.53414
-7.52337
-7.50929
-7.49169
-7.47038
-7.44513
-7.41574
-7.38197
-7.3436
-7.30036
-7.252
-7.19825
-7.13882
-7.0734
-7.0017
-6.92337
-6.83806
-6.74536
-6.64487
-6.53612
-6.41875
-6.29228
-6.15624
-6.01012
-5.85346
-5.68581
-5.50669
-5.31561
-5.11203
-4.89546
-4.66541
-4.42139
-4.16297
-3.88973
-3.60131
-3.29746
-2.97798
-2.64282
-2.29202
-1.92578
-1.54442
-1.14846
-0.738583
-0.315666
0.119205
0.564748
1.01945
1.48162
1.9494
2.42087
2.89397
3.36658
3.83642
4.3013
4.75901
5.20755
5.64497
6.0696
6.47987
6.87455
7.25252
7.613
7.95539
8.27938
8.58479
8.87166
9.14016
9.39073
9.62392
9.84049
10.0411
10.2264
10.3969
10.5534
10.6964
10.8269
10.9457
11.0536
11.1514
11.24
11.3201
11.3925
11.4579
11.517
11.5704
11.6187
11.6626
11.7024
11.7388
11.7721
11.8028
11.8313
11.8579
11.8829
11.9067
11.9295
11.9515
11.973
11.9941
12.015
12.036
12.0571
12.0786
12.1008
12.1239
12.1486
12.1754
12.2065
12.2406
12.2917
12.3225
-6.49957
-6.50673
-6.51746
-6.52568
-6.53113
-6.5351
-6.53835
-6.5413
-6.54427
-6.54752
-6.55121
-6.55545
-6.56031
-6.56588
-6.57223
-6.5795
-6.58779
-6.59714
-6.60751
-6.61894
-6.63147
-6.64522
-6.66026
-6.67655
-6.69397
-6.71249
-6.73196
-6.75237
-6.77363
-6.79568
-6.81838
-6.84166
-6.86541
-6.88958
-6.9141
-6.93893
-6.96399
-6.98927
-7.01469
-7.04023
-7.06581
-7.09141
-7.11696
-7.14244
-7.16777
-7.19291
-7.2178
-7.24239
-7.2666
-7.29038
-7.31364
-7.33633
-7.35834
-7.3796
-7.4
-7.41946
-7.43786
-7.45512
-7.47108
-7.48566
-7.49871
-7.51011
-7.51972
-7.52739
-7.53298
-7.53634
-7.53731
-7.53573
-7.53142
-7.52423
-7.51395
-7.50042
-7.48345
-7.46282
-7.43834
-7.40978
-7.37693
-7.33954
-7.29737
-7.25017
-7.19766
-7.13957
-7.07561
-7.00546
-6.92881
-6.84531
-6.75456
-6.65615
-6.54967
-6.43471
-6.31084
-6.17757
-6.0344
-5.88085
-5.71643
-5.54069
-5.35308
-5.15313
-4.94029
-4.71408
-4.47401
-4.21962
-3.95048
-3.66623
-3.36657
-3.05131
-2.72037
-2.37374
-2.01162
-1.63425
-1.24216
-0.835929
-0.416458
0.0152818
0.457963
0.910179
1.37022
1.83635
2.3066
2.779
3.25128
3.72128
4.18663
4.64531
5.09511
5.53427
5.96089
6.37354
6.77081
7.15174
7.51541
7.86133
8.18902
8.49835
8.78924
9.06192
9.31668
9.55409
9.77475
9.97936
10.1684
10.3426
10.5026
10.6491
10.7828
10.9048
11.0156
11.1163
11.2075
11.2901
11.3648
11.4323
11.4933
11.5485
11.5984
11.6437
11.6848
11.7222
11.7565
11.788
11.8171
11.8443
11.8697
11.8937
11.9167
11.9388
11.9602
11.9812
12.002
12.0227
12.0436
12.0647
12.0864
12.1091
12.133
12.1589
12.1882
12.2189
12.2638
12.2788
-6.48559
-6.49488
-6.50885
-6.5197
-6.52711
-6.53266
-6.53717
-6.54112
-6.54488
-6.54878
-6.55301
-6.55777
-6.56316
-6.56928
-6.57622
-6.58406
-6.59287
-6.60268
-6.61351
-6.62537
-6.63827
-6.65227
-6.66738
-6.68361
-6.70088
-6.71916
-6.73834
-6.75837
-6.77917
-6.80068
-6.8228
-6.84549
-6.86865
-6.89224
-6.91618
-6.94045
-6.96497
-6.98972
-7.01463
-7.03967
-7.06479
-7.08995
-7.11509
-7.14019
-7.16516
-7.18998
-7.21457
-7.2389
-7.26287
-7.28645
-7.30953
-7.33206
-7.35395
-7.37511
-7.39544
-7.41486
-7.43325
-7.45051
-7.46651
-7.48115
-7.49429
-7.50581
-7.51556
-7.52341
-7.5292
-7.53281
-7.53405
-7.53278
-7.52882
-7.52202
-7.5122
-7.49917
-7.48275
-7.46274
-7.43895
-7.41116
-7.37916
-7.3427
-7.30156
-7.25547
-7.20418
-7.14741
-7.08486
-7.01624
-6.94123
-6.85947
-6.77059
-6.67419
-6.56986
-6.45721
-6.3358
-6.20514
-6.06473
-5.91407
-5.75267
-5.58003
-5.39563
-5.19895
-4.98948
-4.76668
-4.53005
-4.27912
-4.01343
-3.7326
-3.43632
-3.12436
-2.7966
-2.45304
-2.09377
-1.71907
-1.32935
-0.925226
-0.507495
-0.0771713
0.364505
0.816078
1.27593
1.74227
2.21317
2.68657
3.16023
3.63184
4.09914
4.55995
5.01216
5.45383
5.88319
6.2987
6.69903
7.08313
7.45009
7.7993
8.13031
8.44292
8.73706
9.01291
9.27074
9.51108
9.7345
9.94165
10.1331
10.3096
10.4717
10.6202
10.7558
10.8796
10.9921
11.0944
11.1871
11.271
11.3469
11.4156
11.4776
11.5336
11.5843
11.6302
11.6718
11.7097
11.7443
11.7761
11.8054
11.8326
11.858
11.8821
11.9049
11.9268
11.9481
11.9688
11.9893
12.0097
12.0301
12.0508
12.072
12.094
12.1171
12.1417
12.169
12.196
12.2355
12.2369
-6.47574
-6.48673
-6.50306
-6.51598
-6.52513
-6.53218
-6.53798
-6.54304
-6.54776
-6.55249
-6.55748
-6.56294
-6.56899
-6.57577
-6.58334
-6.59179
-6.60116
-6.61148
-6.62277
-6.63504
-6.6483
-6.66257
-6.67782
-6.69406
-6.71123
-6.72931
-6.74822
-6.76793
-6.78834
-6.80942
-6.83108
-6.8533
-6.87597
-6.89908
-6.92254
-6.94634
-6.97041
-6.99472
-7.01921
-7.04386
-7.06861
-7.09343
-7.11825
-7.14305
-7.16776
-7.19235
-7.21673
-7.24088
-7.2647
-7.28815
-7.31113
-7.33358
-7.35541
-7.37654
-7.39686
-7.41629
-7.43471
-7.45202
-7.4681
-7.48283
-7.49608
-7.50773
-7.51763
-7.52567
-7.53167
-7.5355
-7.53701
-7.53603
-7.53241
-7.52598
-7.51657
-7.504
-7.48809
-7.46866
-7.4455
-7.41841
-7.38719
-7.35159
-7.3114
-7.26636
-7.21621
-7.16068
-7.09949
-7.03233
-6.95889
-6.87882
-6.79174
-6.69726
-6.59499
-6.48452
-6.36544
-6.23723
-6.0994
-5.95143
-5.79284
-5.62307
-5.44163
-5.24795
-5.04152
-4.82178
-4.58823
-4.34032
-4.07761
-3.79969
-3.50621
-3.19692
-2.87166
-2.53038
-2.17313
-1.80018
-1.41185
-1.00878
-0.591664
-0.161568
0.280344
0.732568
1.19354
1.66139
2.13423
2.60982
3.086
3.56028
4.03051
4.49433
4.94975
5.39465
5.82739
6.24625
6.65
7.03737
7.40758
7.75986
8.09385
8.40923
8.70603
8.98433
9.24449
9.48692
9.71226
9.92109
10.1141
10.2919
10.4552
10.6048
10.7415
10.8662
10.9796
11.0826
11.176
11.2605
11.3369
11.4059
11.4682
11.5245
11.5754
11.6213
11.663
11.7008
11.7353
11.7669
11.796
11.823
11.8481
11.8718
11.8943
11.9158
11.9367
11.957
11.9771
11.997
12.0169
12.0371
12.0577
12.0789
12.101
12.1242
12.1493
12.1727
12.2074
12.1972
-6.47142
-6.48347
-6.50118
-6.51549
-6.52598
-6.53427
-6.54122
-6.54733
-6.55299
-6.55858
-6.56435
-6.57053
-6.57727
-6.58468
-6.59285
-6.60185
-6.61171
-6.62248
-6.63416
-6.64678
-6.6603
-6.67477
-6.69013
-6.70639
-6.7235
-6.74145
-6.76015
-6.7796
-6.79971
-6.82045
-6.84175
-6.86359
-6.88588
-6.90861
-6.93171
-6.95515
-6.97887
-7.00286
-7.02704
-7.05141
-7.07589
-7.10047
-7.12508
-7.1497
-7.17425
-7.19871
-7.22298
-7.24704
-7.2708
-7.2942
-7.31716
-7.33961
-7.36145
-7.38261
-7.40298
-7.42247
-7.44096
-7.45836
-7.47453
-7.48938
-7.50275
-7.51455
-7.52461
-7.53282
-7.53902
-7.54307
-7.54481
-7.54411
-7.54079
-7.53469
-7.52566
-7.51351
-7.49807
-7.47915
-7.45658
-7.43014
-7.39963
-7.36484
-7.32553
-7.28147
-7.23239
-7.17805
-7.11814
-7.05237
-6.98043
-6.90197
-6.81662
-6.72399
-6.62369
-6.51531
-6.39842
-6.27253
-6.13712
-5.99167
-5.83566
-5.66856
-5.48983
-5.2989
-5.09523
-4.87825
-4.64739
-4.40214
-4.142
-3.86653
-3.57536
-3.26821
-2.94486
-2.60522
-2.24932
-1.87735
-1.48966
-1.08677
-0.669419
-0.238598
0.204473
0.658364
1.12143
1.59181
2.06747
2.54619
3.02568
3.50353
3.97743
4.44506
4.9043
5.35306
5.78954
6.21206
6.61926
7.00991
7.38316
7.73827
8.07483
8.39255
8.69145
8.97163
9.23345
9.47735
9.70392
9.91376
10.1076
10.286
10.4499
10.5999
10.737
10.8619
10.9755
11.0786
11.1721
11.2566
11.3329
11.4018
11.464
11.52
11.5706
11.6162
11.6576
11.695
11.7291
11.7602
11.7888
11.8152
11.8399
11.8631
11.885
11.9061
11.9264
11.9462
11.9657
11.9851
12.0045
12.024
12.0439
12.0643
12.0853
12.1068
12.1297
12.1496
12.1801
12.16
-6.47295
-6.48542
-6.50357
-6.51856
-6.52989
-6.53907
-6.5469
-6.55385
-6.56032
-6.56666
-6.57313
-6.57996
-6.58729
-6.59525
-6.60391
-6.61336
-6.62362
-6.63474
-6.64672
-6.65958
-6.67329
-6.68788
-6.70331
-6.71958
-6.73663
-6.75446
-6.77301
-6.79227
-6.81215
-6.83264
-6.85368
-6.87524
-6.89726
-6.91972
-6.94255
-6.96575
-6.98924
-7.01301
-7.037
-7.06119
-7.08553
-7.10999
-7.13449
-7.15903
-7.18353
-7.20794
-7.2322
-7.25626
-7.28004
-7.30348
-7.32649
-7.349
-7.37091
-7.39216
-7.41261
-7.4322
-7.45079
-7.4683
-7.48459
-7.49955
-7.51306
-7.52499
-7.5352
-7.54356
-7.54993
-7.55417
-7.55612
-7.55564
-7.55258
-7.54677
-7.53806
-7.52628
-7.51125
-7.49281
-7.47076
-7.44491
-7.41506
-7.38101
-7.34252
-7.29937
-7.25131
-7.19807
-7.13939
-7.07495
-7.00445
-6.92754
-6.84385
-6.753
-6.65459
-6.54822
-6.43343
-6.30975
-6.17662
-6.03355
-5.87996
-5.71536
-5.53913
-5.35075
-5.14958
-4.93508
-4.70664
-4.46371
-4.20577
-3.93237
-3.64309
-3.33758
-3.01564
-2.67708
-2.32194
-1.95032
-1.56259
-1.15916
-0.740848
-0.308547
0.136475
0.592845
1.05881
1.53255
2.01183
2.4945
2.97805
3.46023
3.93846
4.41054
4.87404
5.32704
5.76746
6.19377
6.60436
6.9982
7.37423
7.73187
8.07058
8.39021
8.69066
8.97219
9.23507
9.47983
9.70699
9.91724
10.1112
10.2897
10.4535
10.6034
10.7402
10.8648
10.978
11.0807
11.1736
11.2577
11.3335
11.4018
11.4634
11.5188
11.5688
11.6138
11.6544
11.6912
11.7245
11.755
11.7829
11.8087
11.8327
11.8552
11.8765
11.8969
11.9166
11.9359
11.9548
11.9736
11.9924
12.0113
12.0304
12.0498
12.0696
12.0896
12.1101
12.1268
12.1536
12.1251
-6.47992
-6.49224
-6.51002
-6.52502
-6.53667
-6.54634
-6.55472
-6.56226
-6.56931
-6.57622
-6.58322
-6.59055
-6.59833
-6.60671
-6.61574
-6.62551
-6.63605
-6.64741
-6.65958
-6.67259
-6.68641
-6.70107
-6.71652
-6.73277
-6.74977
-6.76751
-6.78594
-6.80506
-6.82478
-6.84511
-6.86597
-6.88736
-6.9092
-6.9315
-6.95417
-6.97723
-7.00059
-7.02426
-7.04817
-7.07231
-7.0966
-7.12104
-7.14555
-7.17012
-7.19465
-7.21912
-7.24345
-7.2676
-7.29147
-7.31501
-7.33812
-7.36075
-7.38278
-7.40414
-7.42471
-7.44441
-7.46312
-7.48074
-7.49714
-7.51221
-7.52583
-7.53787
-7.54819
-7.55667
-7.56316
-7.56753
-7.56963
-7.56932
-7.56644
-7.56086
-7.5524
-7.54091
-7.52622
-7.50817
-7.48657
-7.46124
-7.43198
-7.3986
-7.36086
-7.31856
-7.27144
-7.21925
-7.16172
-7.09854
-7.02942
-6.954
-6.87192
-6.78278
-6.68619
-6.58174
-6.46899
-6.34741
-6.21647
-6.07564
-5.92437
-5.76209
-5.58823
-5.40217
-5.20333
-4.99107
-4.76478
-4.5239
-4.26786
-3.99618
-3.70841
-3.40416
-3.08316
-2.74524
-2.39033
-2.01856
-1.63018
-1.22568
-0.805757
-0.371362
0.0763143
0.535815
1.00541
1.48313
1.96678
2.45404
2.94242
3.42948
3.91267
4.38955
4.85774
5.31512
5.75967
6.1897
6.60368
7.00046
7.37906
7.73885
8.07935
8.40038
8.70193
8.98425
9.24766
9.49267
9.71986
9.92991
10.1235
10.3015
10.4646
10.6138
10.7498
10.8736
10.9859
11.0877
11.1797
11.2628
11.3377
11.4051
11.4658
11.5203
11.5693
11.6133
11.653
11.6889
11.7214
11.751
11.778
11.803
11.8262
11.8479
11.8685
11.8883
11.9073
11.9259
11.9442
11.9624
11.9805
11.9988
12.0171
12.0356
12.0542
12.0725
12.0909
12.1045
12.1279
12.0923
-6.49146
-6.50316
-6.51991
-6.53433
-6.54584
-6.55558
-6.56417
-6.572
-6.57938
-6.58663
-6.59397
-6.60162
-6.60969
-6.61833
-6.62759
-6.63756
-6.64826
-6.65975
-6.67201
-6.68509
-6.69895
-6.71362
-6.72906
-6.74527
-6.76221
-6.77988
-6.79823
-6.81725
-6.83688
-6.85712
-6.8779
-6.8992
-6.92096
-6.94319
-6.96582
-6.98884
-7.01219
-7.03586
-7.05979
-7.08397
-7.10833
-7.13285
-7.15746
-7.18213
-7.20679
-7.23139
-7.25586
-7.28016
-7.30417
-7.32786
-7.35112
-7.37389
-7.39605
-7.41754
-7.43823
-7.45804
-7.47684
-7.49455
-7.51103
-7.52617
-7.53984
-7.55193
-7.5623
-7.57082
-7.57736
-7.58179
-7.58395
-7.58372
-7.58095
-7.57549
-7.56719
-7.55591
-7.54147
-7.52371
-7.50247
-7.47757
-7.44882
-7.41601
-7.37895
-7.33742
-7.29117
-7.23995
-7.1835
-7.12152
-7.05371
-6.97971
-6.89916
-6.81168
-6.71684
-6.61424
-6.50343
-6.38386
-6.25502
-6.11631
-5.96723
-5.80713
-5.63547
-5.45158
-5.25485
-5.04462
-4.82026
-4.58117
-4.32676
-4.0565
-3.76991
-3.46658
-3.14616
-2.80848
-2.4534
-2.08104
-1.69159
-1.28556
-0.863582
-0.42662
0.0242147
0.487375
0.961177
1.44346
1.93209
2.4245
2.91831
3.41075
3.89933
4.3813
4.8544
5.31624
5.76494
6.19859
6.61581
7.01527
7.39616
7.7577
8.09958
8.42154
8.72372
9.00628
9.26969
9.51439
9.74106
9.95034
10.1431
10.32
10.482
10.6299
10.7646
10.8871
10.9981
11.0986
11.1894
11.2712
11.3448
11.4109
11.4703
11.5236
11.5714
11.6143
11.6529
11.6876
11.7191
11.7476
11.7737
11.7977
11.82
11.841
11.8608
11.8798
11.8981
11.9161
11.9337
11.9513
11.9688
11.9863
12.0039
12.0214
12.0388
12.0555
12.0717
12.0826
12.1028
12.0614
-6.50646
-6.51717
-6.5324
-6.54577
-6.55672
-6.56617
-6.57463
-6.58245
-6.5899
-6.59726
-6.60473
-6.61251
-6.62071
-6.62945
-6.63879
-6.64883
-6.65958
-6.67109
-6.68336
-6.69643
-6.71027
-6.72491
-6.74031
-6.75648
-6.77337
-6.79099
-6.80929
-6.82827
-6.84787
-6.86808
-6.88884
-6.91014
-6.93192
-6.95418
-6.97685
-6.99993
-7.02336
-7.04713
-7.07118
-7.09549
-7.11999
-7.14467
-7.16945
-7.1943
-7.21914
-7.24393
-7.26858
-7.29305
-7.31724
-7.34109
-7.3645
-7.3874
-7.40969
-7.43127
-7.45204
-7.47191
-7.49076
-7.50849
-7.52497
-7.5401
-7.55374
-7.56579
-7.57611
-7.58458
-7.59106
-7.59543
-7.59755
-7.59729
-7.5945
-7.58906
-7.58081
-7.56961
-7.5553
-7.53774
-7.51675
-7.49218
-7.46382
-7.43151
-7.39503
-7.35418
-7.30871
-7.25839
-7.20295
-7.14209
-7.07551
-7.00286
-6.92377
-6.83785
-6.74469
-6.64386
-6.53489
-6.41725
-6.29036
-6.15368
-6.00662
-5.84859
-5.67895
-5.49707
-5.30226
-5.09387
-4.87124
-4.63373
-4.38073
-4.11167
-3.82604
-3.52338
-3.20334
-2.86565
-2.51018
-2.13694
-1.74616
-1.33825
-0.913875
-0.473903
-0.0194933
0.447853
0.926317
1.41375
1.90782
2.40598
2.9056
3.40388
3.89806
4.38539
4.86341
5.32977
5.78246
6.2196
6.63975
7.04164
7.42439
7.78731
8.13008
8.45253
8.7548
9.03712
9.29996
9.54383
9.76942
9.97744
10.1687
10.3441
10.5045
10.6507
10.7838
10.9046
11.0139
11.1127
11.2019
11.2821
11.3541
11.4188
11.4767
11.5285
11.5749
11.6165
11.6538
11.6873
11.7175
11.7449
11.7699
11.7929
11.8143
11.8343
11.8533
11.8715
11.8892
11.9064
11.9235
11.9404
11.9572
11.974
11.9908
12.0074
12.0236
12.0387
12.0529
12.0612
12.0786
12.0324
-6.52371
-6.5332
-6.54658
-6.55855
-6.56859
-6.57743
-6.58547
-6.593
-6.60026
-6.6075
-6.61488
-6.62259
-6.63074
-6.63942
-6.64872
-6.65869
-6.66938
-6.68083
-6.69304
-6.70605
-6.71984
-6.73442
-6.74978
-6.76591
-6.78277
-6.80037
-6.81866
-6.83764
-6.85724
-6.87747
-6.89827
-6.91964
-6.94151
-6.96388
-6.98668
-7.0099
-7.03349
-7.05743
-7.08166
-7.10616
-7.13087
-7.15576
-7.18075
-7.2058
-7.23085
-7.25583
-7.28067
-7.3053
-7.32964
-7.35362
-7.37713
-7.40011
-7.42244
-7.44405
-7.46482
-7.48466
-7.50344
-7.52109
-7.53745
-7.55245
-7.56594
-7.57781
-7.58795
-7.59622
-7.60251
-7.60668
-7.60861
-7.60818
-7.60524
-7.59967
-7.59133
-7.58009
-7.5658
-7.5483
-7.52745
-7.50309
-7.47504
-7.44311
-7.40712
-7.36685
-7.32208
-7.27257
-7.21805
-7.15824
-7.09281
-7.02143
-6.94373
-6.8593
-6.76772
-6.66859
-6.56138
-6.44558
-6.32058
-6.18584
-6.04074
-5.88468
-5.71698
-5.53701
-5.34403
-5.1374
-4.91639
-4.68036
-4.42866
-4.16069
-3.87589
-3.57376
-3.25392
-2.91601
-2.55991
-2.18553
-1.79311
-1.38298
-0.955805
-0.512386
-0.0539607
0.418041
0.901599
1.39464
1.89455
2.39888
2.9046
3.40897
3.90886
4.40165
4.88453
5.35531
5.81171
6.25208
6.67475
7.07867
7.4628
7.82665
8.16978
8.49221
8.794
9.07555
9.33726
9.57978
9.80375
10.01
10.1994
10.3728
10.5311
10.6753
10.8063
10.925
11.0323
11.1292
11.2164
11.2948
11.365
11.4279
11.4841
11.5344
11.5792
11.6193
11.6551
11.6873
11.7162
11.7424
11.7663
11.7882
11.8086
11.8277
11.8459
11.8633
11.8802
11.8968
11.9132
11.9295
11.9457
11.9619
11.9779
11.9935
12.0085
12.0222
12.0345
12.0404
12.0551
12.0051
-6.54212
-6.55023
-6.56157
-6.57191
-6.58078
-6.58873
-6.59608
-6.60306
-6.60988
-6.61676
-6.62385
-6.63131
-6.63922
-6.64771
-6.65682
-6.66664
-6.67718
-6.68851
-6.70061
-6.71352
-6.72722
-6.74173
-6.75703
-6.77312
-6.78996
-6.80755
-6.82584
-6.84484
-6.86449
-6.88479
-6.90569
-6.92718
-6.94919
-6.97172
-6.99469
-7.01811
-7.0419
-7.06604
-7.09048
-7.1152
-7.14011
-7.1652
-7.19038
-7.21562
-7.24083
-7.26596
-7.29092
-7.31565
-7.34004
-7.36405
-7.38755
-7.41049
-7.43275
-7.45424
-7.47486
-7.49451
-7.51308
-7.53047
-7.54656
-7.56125
-7.57441
-7.58594
-7.59572
-7.60363
-7.60955
-7.61337
-7.61495
-7.61419
-7.61095
-7.60512
-7.59655
-7.58514
-7.57073
-7.55319
-7.53237
-7.50812
-7.48027
-7.44865
-7.41306
-7.37332
-7.32918
-7.28043
-7.22678
-7.16797
-7.10366
-7.03353
-6.95719
-6.87424
-6.78426
-6.68678
-6.58134
-6.46735
-6.34423
-6.21138
-6.06822
-5.91408
-5.7483
-5.57018
-5.379
-5.17404
-4.95459
-4.71996
-4.46945
-4.20242
-3.91826
-3.61645
-3.29654
-2.95817
-2.60112
-2.22532
-1.83091
-1.41825
-0.9879
-0.540708
-0.0778564
0.399107
0.88818
1.38708
1.89324
2.40387
2.91592
3.42633
3.93198
4.43003
4.91768
5.39253
5.85236
6.29544
6.72021
7.12557
7.51059
7.87474
8.21772
8.53952
8.84031
9.12048
9.38053
9.62112
9.843
10.047
10.234
10.405
10.5609
10.7027
10.8312
10.9476
11.0527
11.1473
11.2324
11.3087
11.377
11.438
11.4924
11.5409
11.5841
11.6225
11.6569
11.6876
11.7152
11.7401
11.7628
11.7837
11.803
11.8212
11.8385
11.8552
11.8714
11.8874
11.9032
11.9189
11.9345
11.95
11.9652
11.98
11.9939
12.0061
12.0167
12.0205
12.0326
11.9797
-6.56069
-6.56736
-6.5766
-6.58518
-6.59269
-6.59952
-6.60593
-6.61212
-6.61827
-6.62456
-6.63115
-6.63816
-6.6457
-6.65385
-6.66267
-6.67223
-6.68255
-6.69367
-6.7056
-6.71836
-6.73193
-6.74634
-6.76156
-6.77759
-6.7944
-6.81198
-6.83029
-6.84933
-6.86906
-6.88946
-6.91047
-6.9321
-6.95427
-6.97696
-7.00012
-7.02372
-7.0477
-7.07202
-7.09663
-7.12149
-7.14654
-7.17174
-7.19702
-7.22233
-7.24759
-7.27272
-7.29765
-7.32231
-7.3466
-7.37046
-7.39377
-7.41648
-7.43846
-7.45964
-7.4799
-7.49916
-7.51731
-7.53424
-7.54985
-7.56403
-7.57668
-7.58767
-7.59691
-7.60428
-7.60966
-7.61295
-7.61403
-7.61279
-7.60911
-7.60287
-7.59397
-7.58227
-7.56765
-7.54997
-7.52911
-7.5049
-7.47719
-7.44582
-7.41061
-7.37135
-7.32783
-7.27982
-7.22705
-7.16923
-7.10607
-7.03718
-6.96224
-6.88077
-6.79238
-6.69657
-6.59286
-6.48065
-6.35937
-6.22839
-6.08711
-5.93483
-5.77089
-5.59453
-5.40504
-5.20165
-4.98365
-4.75026
-4.5008
-4.23454
-3.95083
-3.64913
-3.32893
-2.98986
-2.63161
-2.25415
-1.85753
-1.44211
-1.00835
-0.557152
-0.0896354
0.392479
0.887271
1.39217
1.90466
2.42154
2.93979
3.45598
3.96716
4.47008
4.96212
5.44055
5.90333
6.3485
6.77477
7.18089
7.56616
7.92996
8.27218
8.59275
8.89196
9.17019
9.42806
9.66622
9.88555
10.0869
10.2712
10.4394
10.5925
10.7316
10.8575
10.9713
11.0739
11.1661
11.2489
11.323
11.3892
11.4482
11.5007
11.5474
11.5889
11.6257
11.6585
11.6878
11.714
11.7377
11.7592
11.779
11.7974
11.8147
11.8312
11.8471
11.8627
11.878
11.8933
11.9084
11.9235
11.9384
11.953
11.9669
11.9797
11.9906
11.9995
12.0014
12.0111
11.9561
-6.57936
-6.58464
-6.59184
-6.59858
-6.60454
-6.61001
-6.61519
-6.62029
-6.62547
-6.6309
-6.63672
-6.64306
-6.64999
-6.65762
-6.66597
-6.67511
-6.68507
-6.69587
-6.70752
-6.72004
-6.7334
-6.74764
-6.76271
-6.77863
-6.79535
-6.81288
-6.83116
-6.8502
-6.86994
-6.89037
-6.91143
-6.93311
-6.95533
-6.9781
-7.00133
-7.025
-7.04905
-7.07343
-7.09807
-7.12294
-7.14796
-7.1731
-7.19828
-7.22345
-7.24851
-7.27341
-7.29806
-7.3224
-7.34632
-7.36977
-7.39262
-7.41484
-7.43628
-7.4569
-7.47655
-7.49518
-7.51265
-7.52891
-7.54381
-7.55728
-7.56919
-7.57946
-7.58797
-7.59463
-7.59931
-7.60194
-7.60238
-7.60054
-7.59631
-7.58959
-7.58026
-7.56821
-7.55331
-7.53547
-7.51451
-7.49032
-7.46277
-7.43164
-7.39682
-7.35804
-7.31518
-7.26792
-7.21607
-7.15929
-7.09729
-7.0297
-6.95614
-6.87619
-6.78937
-6.69522
-6.5932
-6.48275
-6.36324
-6.23408
-6.0946
-5.94411
-5.7819
-5.60723
-5.41932
-5.21741
-5.00071
-4.76848
-4.51993
-4.25432
-3.97094
-3.66919
-3.34855
-3.00858
-2.64898
-2.26967
-1.8707
-1.45234
-1.01508
-0.559746
-0.0875726
0.399763
0.900152
1.41103
1.92952
2.45238
2.9763
3.4979
4.01395
4.52127
5.017
5.49845
5.96347
6.41017
6.8372
7.24341
7.62814
7.99095
8.33172
8.65047
8.9475
9.22327
9.47844
9.71375
9.93011
10.1284
10.3097
10.4748
10.625
10.7611
10.8842
10.9953
11.0953
11.1851
11.2655
11.3373
11.4014
11.4584
11.509
11.5538
11.5936
11.6288
11.6601
11.6879
11.7128
11.7352
11.7556
11.7744
11.7918
11.8082
11.824
11.8393
11.8542
11.869
11.8838