/*--------------------------------*- C++ -*----------------------------------*\
  =========                 |
  \\      /  F ield         | OpenFOAM: The Open Source CFD Toolbox
   \\    /   O peration     | Website:  https://openfoam.org
    \\  /    A nd           | Version:  9
     \\/     M anipulation  |
\*---------------------------------------------------------------------------*/
FoamFile
{
    format      ascii;
    class       surfaceScalarField;
    location    "150";
    object      phi;
}
// * * * * * * * * * * * * * * * * * * * * * * * * * * * * * * * * * * * * * //

dimensions      [0 3 -1 0 0 0 0];

internalField   nonuniform List<scalar> 
24170
(
3.12901e-06
5.94e-08
3.04661e-06
8.23931e-08
2.9735e-06
7.31062e-08
2.90484e-06
6.86559e-08
2.84048e-06
6.43583e-08
2.7831e-06
5.73698e-08
2.73373e-06
4.93679e-08
2.69172e-06
4.20081e-08
2.65597e-06
3.57464e-08
2.62543e-06
3.0541e-08
2.5991e-06
2.63257e-08
2.57613e-06
2.29649e-08
2.55583e-06
2.02933e-08
2.53757e-06
1.82599e-08
2.5209e-06
1.66647e-08
2.50439e-06
1.65158e-08
2.48848e-06
1.59063e-08
2.49458e-08
2.46353e-06
3.45306e-06
2.35865e-08
3.457e-06
7.845e-08
3.45053e-06
7.95745e-08
3.43906e-06
8.01197e-08
3.42427e-06
7.91509e-08
3.407e-06
7.46304e-08
3.38775e-06
6.86177e-08
3.36718e-06
6.25711e-08
3.34598e-06
5.69409e-08
3.32474e-06
5.17821e-08
3.30392e-06
4.71346e-08
3.28381e-06
4.30714e-08
3.26459e-06
3.95103e-08
3.24629e-06
3.6562e-08
3.22897e-06
3.39757e-08
3.2126e-06
3.28875e-08
3.19757e-06
3.09355e-08
3.57254e-08
3.18679e-06
3.66815e-06
1.79482e-08
3.67919e-06
6.74124e-08
3.68541e-06
7.33557e-08
3.68943e-06
7.60982e-08
3.69101e-06
7.75691e-08
3.69002e-06
7.56179e-08
3.68685e-06
7.17821e-08
3.68197e-06
6.74487e-08
3.67577e-06
6.31404e-08
3.66857e-06
5.89829e-08
3.66064e-06
5.50615e-08
3.65222e-06
5.14838e-08
3.6435e-06
4.82336e-08
3.63461e-06
4.54443e-08
3.6256e-06
4.29882e-08
3.61692e-06
4.15687e-08
3.60781e-06
4.00383e-08
4.14528e-08
3.60208e-06
3.92584e-06
1.74913e-08
3.93591e-06
5.7348e-08
3.94255e-06
6.67135e-08
3.94807e-06
7.05714e-08
3.95246e-06
7.31723e-08
3.95539e-06
7.26935e-08
3.95702e-06
7.01415e-08
3.95762e-06
6.68532e-08
3.95735e-06
6.34013e-08
3.95637e-06
5.99575e-08
3.95481e-06
5.6618e-08
3.95279e-06
5.35057e-08
3.95038e-06
5.06369e-08
3.9477e-06
4.8129e-08
3.94475e-06
4.59341e-08
3.94189e-06
4.44249e-08
3.93881e-06
4.31148e-08
4.2948e-08
3.93731e-06
4.2082e-06
1.64216e-08
4.21597e-06
4.95713e-08
4.22166e-06
6.10274e-08
4.22674e-06
6.54826e-08
4.23147e-06
6.84452e-08
4.23541e-06
6.87489e-08
4.23855e-06
6.70066e-08
4.24098e-06
6.44182e-08
4.24282e-06
6.15611e-08
4.24415e-06
5.86269e-08
4.24504e-06
5.57195e-08
4.24559e-06
5.29599e-08
4.24583e-06
5.03901e-08
4.24586e-06
4.81018e-08
4.24571e-06
4.60877e-08
4.2456e-06
4.4527e-08
4.24552e-06
4.31966e-08
4.22796e-08
4.24619e-06
4.51071e-06
1.48014e-08
4.51687e-06
4.34061e-08
4.5221e-06
5.57907e-08
4.5269e-06
6.06821e-08
4.53159e-06
6.37541e-08
4.53581e-06
6.45272e-08
4.53945e-06
6.33666e-08
4.54256e-06
6.12987e-08
4.54523e-06
5.88893e-08
4.54751e-06
5.63428e-08
4.54946e-06
5.37729e-08
4.55112e-06
5.12922e-08
4.55255e-06
4.89585e-08
4.55381e-06
4.68393e-08
4.55496e-06
4.49433e-08
4.55614e-06
4.33417e-08
4.55742e-06
4.19104e-08
4.05823e-08
4.55912e-06
4.83433e-06
1.31939e-08
4.83961e-06
3.81176e-08
4.84472e-06
5.06795e-08
4.84941e-06
5.59968e-08
4.85402e-06
5.91445e-08
4.8583e-06
6.0239e-08
4.86214e-06
5.953e-08
4.86556e-06
5.78768e-08
4.86862e-06
5.58257e-08
4.87137e-06
5.35921e-08
4.87384e-06
5.12975e-08
4.87609e-06
4.90462e-08
4.87814e-06
4.69028e-08
4.88007e-06
4.4917e-08
4.88191e-06
4.30995e-08
4.88378e-06
4.14657e-08
4.88576e-06
3.99294e-08
3.83689e-08
4.88797e-06
5.18104e-06
1.17304e-08
5.18574e-06
3.34198e-08
5.19073e-06
4.56903e-08
5.19536e-06
5.13633e-08
5.19992e-06
5.45817e-08
5.20425e-06
5.59085e-08
5.2082e-06
5.55688e-08
5.21181e-06
5.42679e-08
5.21511e-06
5.25219e-08
5.21815e-06
5.05564e-08
5.22094e-06
4.84972e-08
5.22355e-06
4.64427e-08
5.22599e-06
4.44579e-08
5.22832e-06
4.25817e-08
5.2306e-06
4.08219e-08
5.23289e-06
3.91685e-08
5.23527e-06
3.75543e-08
3.58709e-08
5.23776e-06
5.55269e-06
1.03779e-08
5.55687e-06
2.9233e-08
5.56167e-06
4.08976e-08
5.56625e-06
4.67739e-08
5.57079e-06
5.00414e-08
5.57517e-06
5.1533e-08
5.57923e-06
5.14991e-08
5.58299e-06
5.05086e-08
5.58648e-06
4.90341e-08
5.58973e-06
4.73083e-08
5.59276e-06
4.54589e-08
5.59562e-06
4.35798e-08
5.59835e-06
4.17338e-08
5.60097e-06
3.99538e-08
5.60355e-06
3.82447e-08
5.60613e-06
3.65891e-08
5.60875e-06
3.49336e-08
3.32033e-08
5.61141e-06
5.95104e-06
9.1179e-09
5.95477e-06
2.54939e-08
5.95933e-06
3.63378e-08
5.96386e-06
4.22366e-08
5.96839e-06
4.5517e-08
5.9728e-06
4.71161e-08
5.97697e-06
4.73284e-08
5.98086e-06
4.66101e-08
5.98451e-06
4.53808e-08
5.98795e-06
4.38737e-08
5.99119e-06
4.2217e-08
5.99427e-06
4.04999e-08
5.99721e-06
3.87823e-08
6.00007e-06
3.7094e-08
6.00288e-06
3.54398e-08
6.00566e-06
3.38035e-08
6.00845e-06
3.21457e-08
3.04221e-08
6.01123e-06
6.37798e-06
7.94966e-09
6.38133e-06
2.214e-08
6.38565e-06
3.20231e-08
6.39011e-06
3.77692e-08
6.39461e-06
4.10152e-08
6.39905e-06
4.26707e-08
6.40331e-06
4.30695e-08
6.40734e-06
4.25832e-08
6.41114e-06
4.1574e-08
6.41475e-06
4.02671e-08
6.41817e-06
3.87895e-08
6.42144e-06
3.72255e-08
6.42459e-06
3.56318e-08
6.42765e-06
3.40375e-08
6.43064e-06
3.24489e-08
6.43358e-06
3.08557e-08
6.4365e-06
2.92311e-08
2.75573e-08
6.43936e-06
5.74176e-06
7.02601e-09
5.74433e-06
1.95632e-08
5.74779e-06
2.85638e-08
5.7515e-06
3.40549e-08
5.75528e-06
3.72296e-08
5.75905e-06
3.88984e-08
5.76271e-06
3.94095e-08
5.76621e-06
3.90861e-08
5.76954e-06
3.82434e-08
5.77271e-06
3.70926e-08
5.77574e-06
3.57571e-08
5.77864e-06
3.43182e-08
5.78145e-06
3.28293e-08
5.78416e-06
3.13193e-08
5.78681e-06
2.97978e-08
5.78941e-06
2.82593e-08
5.79195e-06
2.66881e-08
2.50814e-08
5.79443e-06
6.99914e-06
6.04479e-09
7.00186e-06
1.68371e-08
7.00561e-06
2.48102e-08
7.00976e-06
2.99021e-08
7.01406e-06
3.29265e-08
7.01839e-06
3.45637e-08
7.02264e-06
3.5157e-08
7.02675e-06
3.49826e-08
7.03068e-06
3.4306e-08
7.03445e-06
3.33179e-08
7.03807e-06
3.21365e-08
7.04155e-06
3.08367e-08
7.04491e-06
2.94697e-08
7.04817e-06
2.80646e-08
7.05133e-06
2.66336e-08
7.05441e-06
2.51791e-08
7.0574e-06
2.36924e-08
2.21875e-08
7.0603e-06
8.53188e-06
5.01418e-09
8.53472e-06
1.39876e-08
8.53874e-06
2.07894e-08
8.54333e-06
2.53171e-08
8.54816e-06
2.80864e-08
8.5531e-06
2.96278e-08
8.558e-06
3.02555e-08
8.56278e-06
3.02021e-08
8.5674e-06
2.96811e-08
8.57186e-06
2.8858e-08
8.57615e-06
2.78386e-08
8.5803e-06
2.66938e-08
8.5843e-06
2.54692e-08
8.58817e-06
2.41947e-08
8.59191e-06
2.28856e-08
8.59554e-06
2.15499e-08
8.59905e-06
2.01876e-08
1.88196e-08
8.60241e-06
1.04003e-05
3.9424e-09
1.04032e-05
1.10342e-08
1.04075e-05
1.65213e-08
1.04125e-05
2.03067e-08
1.04179e-05
2.26906e-08
1.04235e-05
2.40504e-08
1.04291e-05
2.46481e-08
1.04346e-05
2.46712e-08
1.044e-05
2.42848e-08
1.04453e-05
2.36202e-08
1.04503e-05
2.27707e-08
1.04552e-05
2.17956e-08
1.04599e-05
2.07383e-08
1.04645e-05
1.96252e-08
1.04689e-05
1.84756e-08
1.04732e-05
1.72997e-08
1.04773e-05
1.61046e-08
1.49143e-08
1.04812e-05
1.26779e-05
2.83451e-09
1.2681e-05
7.9693e-09
1.26855e-05
1.2003e-08
1.26909e-05
1.48623e-08
1.26969e-05
1.67079e-08
1.27032e-05
1.77788e-08
1.27096e-05
1.82657e-08
1.27159e-05
1.83081e-08
1.27222e-05
1.80226e-08
1.27283e-05
1.75064e-08
1.27342e-05
1.68297e-08
1.274e-05
1.60428e-08
1.27455e-05
1.51791e-08
1.27509e-05
1.42644e-08
1.27561e-05
1.33149e-08
1.2761e-05
1.23453e-08
1.27657e-05
1.13617e-08
1.0392e-08
1.27703e-05
1.54543e-05
1.67858e-09
1.54576e-05
4.74586e-09
1.54624e-05
7.17363e-09
1.54683e-05
8.9204e-09
1.5475e-05
1.00601e-08
1.5482e-05
1.07178e-08
1.54893e-05
1.1003e-08
1.54966e-05
1.09997e-08
1.55038e-05
1.07774e-08
1.5511e-05
1.03948e-08
1.55179e-05
9.89733e-09
1.55246e-05
9.31779e-09
1.55311e-05
8.68041e-09
1.55374e-05
8.00335e-09
1.55434e-05
7.30071e-09
1.55491e-05
6.58399e-09
1.55546e-05
5.86026e-09
5.15304e-09
1.55599e-05
1.88389e-05
4.34002e-10
1.88424e-05
1.23652e-09
1.88477e-05
1.85642e-09
1.88543e-05
2.28603e-09
1.88618e-05
2.54541e-09
1.88699e-05
2.66165e-09
1.88782e-05
2.65696e-09
1.88867e-05
2.55052e-09
1.88951e-05
2.36202e-09
1.89034e-05
2.10873e-09
1.89115e-05
1.80522e-09
1.89193e-05
1.46293e-09
1.89269e-05
1.09189e-09
1.89342e-05
7.00358e-10
1.89412e-05
2.95789e-10
1.89479e-05
-1.15025e-10
1.89543e-05
-5.2797e-10
-9.24634e-10
1.89604e-05
2.29648e-05
-1.00174e-09
2.29689e-05
-2.84998e-09
2.29751e-05
-4.37105e-09
2.29829e-05
-5.51993e-09
2.29917e-05
-6.31743e-09
2.30012e-05
-6.84938e-09
2.30111e-05
-7.20443e-09
2.30211e-05
-7.43591e-09
2.3031e-05
-7.58274e-09
2.30408e-05
-7.67475e-09
2.30504e-05
-7.73819e-09
2.30596e-05
-7.7862e-09
2.30685e-05
-7.82896e-09
2.30771e-05
-7.86927e-09
2.30853e-05
-7.91106e-09
2.30931e-05
-7.95263e-09
2.31006e-05
-7.99602e-09
-8.02793e-09
2.31077e-05
1.68118e-05
-2.12983e-09
1.6815e-05
-6.03536e-09
1.68199e-05
-9.22281e-09
1.68259e-05
-1.15474e-08
1.68326e-05
-1.30666e-08
1.68398e-05
-1.40105e-08
1.68471e-05
-1.45646e-08
1.68545e-05
-1.48352e-08
1.68619e-05
-1.48988e-08
1.6869e-05
-1.48308e-08
1.68759e-05
-1.46812e-08
1.68826e-05
-1.44863e-08
1.68891e-05
-1.4264e-08
1.68952e-05
-1.40312e-08
1.69011e-05
-1.37934e-08
1.69067e-05
-1.35581e-08
1.69121e-05
-1.33252e-08
-1.30902e-08
1.69171e-05
1.46357e-05
-3.21325e-09
1.46387e-05
-9.13634e-09
1.46435e-05
-1.39583e-08
1.46492e-05
-1.73194e-08
1.46556e-05
-1.93895e-08
1.46622e-05
-2.06185e-08
1.46689e-05
-2.12776e-08
1.46755e-05
-2.15012e-08
1.46821e-05
-2.14227e-08
1.46884e-05
-2.11567e-08
1.46945e-05
-2.07808e-08
1.47003e-05
-2.03385e-08
1.47059e-05
-1.98613e-08
1.47113e-05
-1.93691e-08
1.47163e-05
-1.88761e-08
1.47212e-05
-1.83884e-08
1.47258e-05
-1.79118e-08
-1.74399e-08
1.47301e-05
1.27411e-05
-4.22739e-09
1.27443e-05
-1.22766e-08
1.27491e-05
-1.88085e-08
1.27548e-05
-2.29912e-08
1.27608e-05
-2.54021e-08
1.2767e-05
-2.68151e-08
1.27732e-05
-2.7493e-08
1.27793e-05
-2.75853e-08
1.27852e-05
-2.72992e-08
1.27908e-05
-2.68002e-08
1.27962e-05
-2.61783e-08
1.28013e-05
-2.54844e-08
1.28062e-05
-2.4757e-08
1.28109e-05
-2.40198e-08
1.28153e-05
-2.32903e-08
1.28195e-05
-2.25739e-08
1.28234e-05
-2.18778e-08
-2.11962e-08
1.28272e-05
1.10918e-05
-5.07496e-09
1.1095e-05
-1.55097e-08
1.11001e-05
-2.39512e-08
1.11058e-05
-2.86383e-08
1.11116e-05
-3.11653e-08
1.11174e-05
-3.26615e-08
1.11232e-05
-3.3258e-08
1.11287e-05
-3.31373e-08
1.1134e-05
-3.26021e-08
1.11391e-05
-3.18497e-08
1.11438e-05
-3.09719e-08
1.11484e-05
-3.00261e-08
1.11527e-05
-2.9054e-08
1.11567e-05
-2.80862e-08
1.11606e-05
-2.7135e-08
1.11642e-05
-2.62112e-08
1.11677e-05
-2.53159e-08
-2.44488e-08
1.11709e-05
9.65582e-06
-5.68527e-09
9.65926e-06
-1.89433e-08
9.66461e-06
-2.93114e-08
9.67013e-06
-3.41542e-08
9.67571e-06
-3.67469e-08
9.68129e-06
-3.82477e-08
9.68665e-06
-3.8621e-08
9.69171e-06
-3.81982e-08
9.69649e-06
-3.73821e-08
9.70101e-06
-3.63673e-08
9.70526e-06
-3.52323e-08
9.70927e-06
-3.4037e-08
9.71304e-06
-3.28291e-08
9.71659e-06
-3.16372e-08
9.71993e-06
-3.0477e-08
9.72307e-06
-2.93548e-08
9.72603e-06
-2.82728e-08
-2.72277e-08
9.72881e-06
8.40533e-06
-5.65858e-09
8.40965e-06
-2.32665e-08
8.41489e-06
-3.45589e-08
8.41994e-06
-3.91982e-08
8.42532e-06
-4.21325e-08
8.43075e-06
-4.36784e-08
8.43586e-06
-4.37318e-08
8.44059e-06
-4.29315e-08
8.44499e-06
-4.17803e-08
8.44907e-06
-4.04543e-08
8.45286e-06
-3.90236e-08
8.45637e-06
-3.75505e-08
8.45963e-06
-3.60845e-08
8.46264e-06
-3.46526e-08
8.46543e-06
-3.32703e-08
8.46802e-06
-3.19435e-08
8.47042e-06
-3.06744e-08
-2.94585e-08
8.47265e-06
7.31455e-06
-2.92313e-09
7.3212e-06
-2.99169e-08
7.32676e-06
-4.01209e-08
7.33172e-06
-4.41633e-08
7.33713e-06
-4.7547e-08
7.34247e-06
-4.90183e-08
7.34737e-06
-4.86307e-08
7.3518e-06
-4.73672e-08
7.35581e-06
-4.57823e-08
7.35939e-06
-4.40351e-08
7.36257e-06
-4.22055e-08
7.36538e-06
-4.0368e-08
7.36787e-06
-3.85728e-08
7.37006e-06
-3.68447e-08
7.37199e-06
-3.51991e-08
7.37368e-06
-3.36384e-08
7.37517e-06
-3.21632e-08
-3.07636e-08
7.37647e-06
6.36245e-06
4.69079e-09
6.3719e-06
-3.93648e-08
6.37933e-06
-4.75569e-08
6.38598e-06
-5.08162e-08
6.39228e-06
-5.38429e-08
6.39761e-06
-5.43472e-08
6.40192e-06
-5.29431e-08
6.40542e-06
-5.08669e-08
6.40824e-06
-4.86024e-08
6.41044e-06
-4.62406e-08
6.41209e-06
-4.38603e-08
6.41326e-06
-4.15368e-08
6.41401e-06
-3.93217e-08
6.4144e-06
-3.72322e-08
6.41448e-06
-3.52827e-08
6.41431e-06
-3.34691e-08
6.41394e-06
-3.17921e-08
-3.02332e-08
6.4134e-06
5.5412e-06
8.95162e-09
5.55033e-06
-4.84927e-08
5.55835e-06
-5.55828e-08
5.56606e-06
-5.85281e-08
5.57254e-06
-6.03161e-08
5.57687e-06
-5.86851e-08
5.57913e-06
-5.51994e-08
5.5797e-06
-5.14424e-08
5.57897e-06
-4.7866e-08
5.5772e-06
-4.44742e-08
5.57462e-06
-4.12856e-08
5.57143e-06
-3.83426e-08
5.56776e-06
-3.56532e-08
5.56373e-06
-3.32095e-08
5.55946e-06
-3.10081e-08
5.55502e-06
-2.90319e-08
5.55051e-06
-2.72837e-08
-2.57129e-08
5.54599e-06
4.86004e-06
-2.34851e-08
4.86539e-06
-5.38384e-08
4.86525e-06
-5.54431e-08
4.86218e-06
-5.54666e-08
4.85702e-06
-5.51551e-08
4.84953e-06
-5.11956e-08
4.83984e-06
-4.55159e-08
4.82846e-06
-4.00631e-08
4.8159e-06
-3.53081e-08
4.80264e-06
-3.12128e-08
4.78906e-06
-2.77053e-08
4.77544e-06
-2.47224e-08
4.76197e-06
-2.21873e-08
4.74879e-06
-2.00287e-08
4.73598e-06
-1.81997e-08
4.72362e-06
-1.66677e-08
4.7118e-06
-1.54709e-08
-1.51282e-08
4.70121e-06
4.17919e-06
4.12535e-06
4.06991e-06
4.01444e-06
3.95929e-06
3.90809e-06
3.86258e-06
3.82251e-06
3.7872e-06
3.75599e-06
3.72829e-06
3.70356e-06
3.68138e-06
3.66135e-06
3.64315e-06
3.62648e-06
3.61101e-06
3.59588e-06
1.92342e-08
-1.9301e-08
3.46973e-08
-1.55627e-08
4.22403e-08
-7.60068e-09
4.16831e-08
4.89531e-10
3.41643e-08
7.4782e-09
2.11479e-08
1.29619e-08
4.09427e-09
1.70223e-08
-1.58889e-08
1.99372e-08
-3.79433e-08
2.20286e-08
-6.15544e-08
2.35699e-08
-8.63527e-08
2.4777e-08
-1.12204e-07
2.58094e-08
-1.38984e-07
2.67636e-08
-1.6664e-07
2.76102e-08
-1.94844e-07
2.81916e-08
-2.23312e-07
2.84204e-08
-2.51944e-07
2.86246e-08
-2.81492e-07
2.95003e-08
-3.12699e-07
3.12002e-08
-3.46234e-07
3.34897e-08
-3.82648e-07
3.64047e-08
-4.21834e-07
3.91456e-08
-4.63567e-07
4.1723e-08
-5.10235e-07
4.66203e-08
-5.52119e-07
4.18602e-08
-5.81131e-07
2.89585e-08
-6.26722e-07
4.55705e-08
-6.79175e-07
5.2387e-08
-7.19577e-07
4.03704e-08
-7.61787e-07
4.21353e-08
-8.05413e-07
4.36021e-08
-8.49882e-07
4.43956e-08
-8.94615e-07
4.47145e-08
-9.39456e-07
4.47721e-08
-9.84142e-07
4.46824e-08
-1.02871e-06
4.45023e-08
-1.07298e-06
4.42732e-08
-1.11705e-06
4.40121e-08
-1.16078e-06
4.37402e-08
-1.2043e-06
4.34607e-08
-1.24748e-06
4.31865e-08
-1.29045e-06
4.29137e-08
-1.33309e-06
4.2653e-08
-1.37555e-06
4.23991e-08
-1.41769e-06
4.21607e-08
-1.45967e-06
4.19289e-08
-1.50136e-06
4.17117e-08
-1.54291e-06
4.1498e-08
-1.58419e-06
4.12947e-08
-1.62534e-06
4.10897e-08
-1.66622e-06
4.08913e-08
-1.70698e-06
4.06857e-08
-1.74746e-06
4.04818e-08
-1.7878e-06
4.02674e-08
-1.82786e-06
4.00517e-08
-1.86775e-06
3.9819e-08
-1.90734e-06
3.95797e-08
-1.94674e-06
3.93203e-08
-1.98579e-06
3.9052e-08
-2.02463e-06
3.87576e-08
-2.06308e-06
3.84505e-08
-2.10126e-06
3.81158e-08
-2.13901e-06
3.77671e-08
-2.17646e-06
3.73858e-08
-2.21342e-06
3.69881e-08
-2.25003e-06
3.6555e-08
-2.2861e-06
3.61045e-08
-2.32177e-06
3.56174e-08
-2.35685e-06
3.51128e-08
-2.39146e-06
3.45696e-08
-2.42543e-06
3.40065e-08
-2.45887e-06
3.34001e-08
-2.49159e-06
3.2769e-08
-2.52372e-06
3.20883e-08
-2.55507e-06
3.13802e-08
-2.58574e-06
3.06185e-08
-2.61554e-06
2.98255e-08
-2.64457e-06
2.89785e-08
-2.67263e-06
2.80986e-08
-2.69982e-06
2.71549e-08
-2.72593e-06
2.61687e-08
-2.75106e-06
2.51097e-08
-2.77498e-06
2.39968e-08
-2.79777e-06
2.27909e-08
-2.8192e-06
2.15128e-08
-2.8393e-06
2.01269e-08
-2.85785e-06
1.8652e-08
-2.87479e-06
1.70493e-08
-2.88992e-06
1.53129e-08
-2.90307e-06
1.34335e-08
-2.91418e-06
1.13547e-08
-2.92301e-06
9.06466e-09
-2.92934e-06
6.53191e-09
-2.93292e-06
3.79645e-09
-2.93371e-06
9.79481e-10
-2.93177e-06
-1.73599e-09
-2.92721e-06
-4.37727e-09
-2.91995e-06
-7.08046e-09
-2.90989e-06
-9.90349e-09
-2.89688e-06
-1.28609e-08
-2.88081e-06
-1.59616e-08
-2.86153e-06
-1.92089e-08
-2.8389e-06
-2.25963e-08
-2.81278e-06
-2.6129e-08
-2.783e-06
-2.97851e-08
-2.74946e-06
-3.35711e-08
-2.71199e-06
-3.74575e-08
-2.67053e-06
-4.14502e-08
-2.62495e-06
-4.55176e-08
-2.57521e-06
-4.96598e-08
-2.52125e-06
-5.38422e-08
-2.46305e-06
-5.80554e-08
-2.4006e-06
-6.22657e-08
-2.33394e-06
-6.64506e-08
-2.26312e-06
-7.05815e-08
-2.18822e-06
-7.4621e-08
-2.10936e-06
-7.85603e-08
-2.02669e-06
-8.23698e-08
-1.94043e-06
-8.59808e-08
-1.8508e-06
-8.93272e-08
-1.75803e-06
-9.24147e-08
-1.6624e-06
-9.5191e-08
-1.56427e-06
-9.76492e-08
-1.464e-06
-9.97305e-08
-1.36205e-06
-1.01472e-07
-1.25877e-06
-1.02809e-07
-1.15461e-06
-1.03788e-07
-1.04993e-06
-1.04334e-07
-9.45197e-07
-1.04509e-07
-8.40742e-07
-1.04258e-07
-7.37032e-07
-1.03655e-07
-6.34352e-07
-1.02657e-07
-5.33129e-07
-1.01347e-07
-4.33597e-07
-9.96937e-08
-3.36131e-07
-9.77692e-08
-2.40856e-07
-9.56161e-08
-1.47847e-07
-9.34799e-08
-5.70137e-08
-9.13706e-08
3.18641e-08
-8.95648e-08
1.18455e-07
-8.7307e-08
2.01642e-07
-8.39121e-08
2.80997e-07
-8.0009e-08
3.56353e-07
-7.59436e-08
4.27664e-07
-7.1829e-08
4.94929e-07
-6.77371e-08
5.58208e-07
-6.3702e-08
6.17578e-07
-5.97544e-08
6.73144e-07
-5.59092e-08
7.25015e-07
-5.21827e-08
7.73321e-07
-4.85841e-08
8.18192e-07
-4.51244e-08
8.59774e-07
-4.18095e-08
8.98212e-07
-3.86468e-08
9.33667e-07
-3.56409e-08
9.66293e-07
-3.27982e-08
9.96267e-07
-3.01224e-08
1.02375e-06
-2.76187e-08
1.04892e-06
-2.529e-08
1.07196e-06
-2.31407e-08
1.09305e-06
-2.11738e-08
1.11237e-06
-1.93924e-08
1.13012e-06
-1.7798e-08
1.14647e-06
-1.63908e-08
1.16161e-06
-1.51708e-08
1.17573e-06
-1.41347e-08
1.18901e-06
-1.32801e-08
1.20161e-06
-1.25977e-08
1.2137e-06
-1.20807e-08
1.22544e-06
-1.1713e-08
1.23694e-06
-1.14785e-08
1.24832e-06
-1.13438e-08
1.25963e-06
-1.12719e-08
1.27085e-06
-1.11906e-08
1.2819e-06
-1.0998e-08
1.29243e-06
-1.0485e-08
1.30174e-06
-9.24799e-09
1.30811e-06
-6.29833e-09
1.30661e-06
1.56666e-09
1.28581e-06
2.08655e-08
6.65146e-08
1.21931e-06
9.37448e-09
-2.87317e-08
9.69829e-09
-1.59509e-08
4.72285e-09
-2.66003e-09
-4.17508e-09
9.35263e-09
-1.65439e-08
1.98237e-08
-3.2275e-08
2.86659e-08
-5.11897e-08
3.59176e-08
-7.30339e-08
4.17576e-08
-9.74752e-08
4.64525e-08
-1.24219e-07
5.029e-08
-1.5299e-07
5.35322e-08
-1.83595e-07
5.63906e-08
-2.1586e-07
5.90136e-08
-2.49768e-07
6.14911e-08
-2.85435e-07
6.38456e-08
-3.23125e-07
6.60828e-08
-3.62874e-07
6.83621e-08
-4.04422e-07
7.1022e-08
-4.47446e-07
7.42139e-08
-4.91777e-07
7.77966e-08
-5.36962e-07
8.15792e-08
-5.82903e-07
8.50663e-08
-6.28992e-07
8.78014e-08
-6.7206e-07
8.96667e-08
-7.19271e-07
8.90577e-08
-7.77488e-07
8.71526e-08
-8.21688e-07
8.97544e-08
-8.61116e-07
9.17866e-08
-9.10358e-07
8.95929e-08
-9.57041e-07
8.87882e-08
-1.00187e-06
8.84132e-08
-1.04559e-06
8.80788e-08
-1.08854e-06
8.76538e-08
-1.13093e-06
8.71316e-08
-1.1728e-06
8.65363e-08
-1.21422e-06
8.58945e-08
-1.25518e-06
8.52291e-08
-1.29575e-06
8.45573e-08
-1.33591e-06
8.38925e-08
-1.37572e-06
8.32425e-08
-1.41515e-06
8.26143e-08
-1.45427e-06
8.201e-08
-1.49306e-06
8.14316e-08
-1.53155e-06
8.08771e-08
-1.56974e-06
8.03457e-08
-1.60766e-06
7.98327e-08
-1.64529e-06
7.93356e-08
-1.68266e-06
7.88487e-08
-1.71973e-06
7.83689e-08
-1.75655e-06
7.78894e-08
-1.79308e-06
7.74071e-08
-1.82933e-06
7.69158e-08
-1.86528e-06
7.64137e-08
-1.90093e-06
7.58945e-08
-1.93625e-06
7.53557e-08
-1.97125e-06
7.47911e-08
-2.00589e-06
7.41998e-08
-2.04018e-06
7.35757e-08
-2.07406e-06
7.29181e-08
-2.10755e-06
7.22207e-08
-2.1406e-06
7.14848e-08
-2.17322e-06
7.07046e-08
-2.20534e-06
6.98811e-08
-2.23699e-06
6.90077e-08
-2.26809e-06
6.80863e-08
-2.29866e-06
6.71105e-08
-2.32865e-06
6.60833e-08
-2.35804e-06
6.49983e-08
-2.38679e-06
6.38587e-08
-2.41489e-06
6.26566e-08
-2.44227e-06
6.13948e-08
-2.46894e-06
6.00638e-08
-2.49482e-06
5.86665e-08
-2.51993e-06
5.71927e-08
-2.54419e-06
5.56451e-08
-2.5676e-06
5.40131e-08
-2.59008e-06
5.23011e-08
-2.6116e-06
5.04972e-08
-2.6321e-06
4.86028e-08
-2.65155e-06
4.66017e-08
-2.66985e-06
4.44939e-08
-2.68699e-06
4.22606e-08
-2.70286e-06
3.98985e-08
-2.71744e-06
3.73852e-08
-2.73061e-06
3.47186e-08
-2.74233e-06
3.18787e-08
-2.75249e-06
2.8864e-08
-2.76103e-06
2.56514e-08
-2.76783e-06
2.22451e-08
-2.77286e-06
1.86194e-08
-2.77612e-06
1.47778e-08
-2.77764e-06
1.07147e-08
-2.77742e-06
6.43878e-09
-2.77549e-06
1.98311e-09
-2.77174e-06
-2.6522e-09
-2.76587e-06
-7.4964e-09
-2.75755e-06
-1.25898e-08
-2.7466e-06
-1.79339e-08
-2.73287e-06
-2.35503e-08
-2.71622e-06
-2.94421e-08
-2.69651e-06
-3.5622e-08
-2.6736e-06
-4.20871e-08
-2.64737e-06
-4.88367e-08
-2.61765e-06
-5.58622e-08
-2.58432e-06
-6.31473e-08
-2.54723e-06
-7.06778e-08
-2.50627e-06
-7.84272e-08
-2.46133e-06
-8.63775e-08
-2.41233e-06
-9.44937e-08
-2.35919e-06
-1.02749e-07
-2.30186e-06
-1.11097e-07
-2.24033e-06
-1.19497e-07
-2.17459e-06
-1.27892e-07
-2.10469e-06
-1.3623e-07
-2.03069e-06
-1.44441e-07
-1.95268e-06
-1.5247e-07
-1.87082e-06
-1.60247e-07
-1.7853e-06
-1.67727e-07
-1.69632e-06
-1.74797e-07
-1.60416e-06
-1.81331e-07
-1.50907e-06
-1.87291e-07
-1.41139e-06
-1.92632e-07
-1.31147e-06
-1.97277e-07
-1.20976e-06
-2.01174e-07
-1.10665e-06
-2.0431e-07
-1.00259e-06
-2.06643e-07
-8.97994e-07
-2.08171e-07
-7.93308e-07
-2.08863e-07
-6.88939e-07
-2.08747e-07
-5.85299e-07
-2.07818e-07
-4.82773e-07
-2.06134e-07
-3.81728e-07
-2.03704e-07
-2.82501e-07
-2.00611e-07
-1.85381e-07
-1.96897e-07
-9.05388e-08
-1.92727e-07
1.91078e-09
-1.88218e-07
9.16361e-08
-1.83385e-07
1.78171e-07
-1.78133e-07
2.608e-07
-1.7246e-07
3.39357e-07
-1.66164e-07
4.14308e-07
-1.59158e-07
4.85768e-07
-1.51742e-07
5.53706e-07
-1.44123e-07
6.18094e-07
-1.3644e-07
6.78933e-07
-1.28777e-07
7.3625e-07
-1.2121e-07
7.90103e-07
-1.13779e-07
8.40565e-07
-1.06532e-07
8.87728e-07
-9.9491e-08
9.31698e-07
-9.26887e-08
9.72592e-07
-8.61411e-08
1.01054e-06
-7.98702e-08
1.04568e-06
-7.38883e-08
1.07816e-06
-6.82114e-08
1.10812e-06
-6.28508e-08
1.13574e-06
-5.78177e-08
1.16118e-06
-5.31229e-08
1.18461e-06
-4.87727e-08
1.2062e-06
-4.47781e-08
1.22613e-06
-4.11418e-08
1.24458e-06
-3.78738e-08
1.26174e-06
-3.49709e-08
1.27778e-06
-3.24394e-08
1.29288e-06
-3.02709e-08
1.30722e-06
-2.84677e-08
1.32097e-06
-2.70124e-08
1.33429e-06
-2.58988e-08
1.34734e-06
-2.50985e-08
1.36025e-06
-2.4593e-08
1.37314e-06
-2.43332e-08
1.38611e-06
-2.42718e-08
1.3992e-06
-2.43165e-08
1.41241e-06
-2.43503e-08
1.42563e-06
-2.41579e-08
1.43858e-06
-2.33811e-08
1.45072e-06
-2.13213e-08
1.46095e-06
-1.64605e-08
1.46824e-06
-5.64438e-09
1.47045e-06
1.8723e-08
7.40755e-08
1.46293e-06
-4.56417e-09
-2.42105e-08
-1.54154e-08
-5.1428e-09
-2.89306e-08
1.08327e-08
-4.44454e-08
2.48456e-08
-6.18221e-08
3.71853e-08
-8.11713e-08
4.79974e-08
-1.02639e-07
5.73725e-08
-1.26335e-07
6.54365e-08
-1.52269e-07
7.2374e-08
-1.804e-07
7.8405e-08
-2.10633e-07
8.3752e-08
-2.42871e-07
8.86112e-08
-2.77001e-07
9.3132e-08
-3.12938e-07
9.74091e-08
-3.50586e-07
1.01484e-07
-3.89895e-07
1.05372e-07
-4.3067e-07
1.09128e-07
-4.72522e-07
1.12856e-07
-5.14909e-07
1.16593e-07
-5.57384e-07
1.20256e-07
-5.99503e-07
1.23692e-07
-6.41071e-07
1.26622e-07
-6.82028e-07
1.28752e-07
-7.22368e-07
1.29995e-07
-7.63566e-07
1.30248e-07
-8.06375e-07
1.29949e-07
-8.46754e-07
1.30124e-07
-8.85175e-07
1.30192e-07
-9.24906e-07
1.29312e-07
-9.64457e-07
1.28321e-07
-1.00342e-06
1.27365e-07
-1.04179e-06
1.26426e-07
-1.07962e-06
1.25475e-07
-1.11701e-06
1.24502e-07
-1.15399e-06
1.23513e-07
-1.19064e-06
1.22519e-07
-1.22695e-06
1.21531e-07
-1.26297e-06
1.20561e-07
-1.2987e-06
1.19616e-07
-1.33417e-06
1.18702e-07
-1.36939e-06
1.17821e-07
-1.40437e-06
1.16975e-07
-1.4391e-06
1.16163e-07
-1.47362e-06
1.15382e-07
-1.50791e-06
1.14627e-07
-1.54198e-06
1.13893e-07
-1.57582e-06
1.13175e-07
-1.60945e-06
1.12466e-07
-1.64284e-06
1.11759e-07
-1.67601e-06
1.11047e-07
-1.70893e-06
1.10325e-07
-1.74161e-06
1.09585e-07
-1.77403e-06
1.08823e-07
-1.80618e-06
1.08031e-07
-1.83804e-06
1.07205e-07
-1.8696e-06
1.06339e-07
-1.90084e-06
1.05429e-07
-1.93175e-06
1.04469e-07
-1.9623e-06
1.03455e-07
-1.99248e-06
1.02383e-07
-2.02226e-06
1.0125e-07
-2.05163e-06
1.00053e-07
-2.08054e-06
9.87873e-08
-2.109e-06
9.74504e-08
-2.13696e-06
9.60395e-08
-2.16442e-06
9.45511e-08
-2.19133e-06
9.29833e-08
-2.21767e-06
9.13326e-08
-2.24341e-06
8.95971e-08
-2.26853e-06
8.77721e-08
-2.29299e-06
8.58549e-08
-2.31677e-06
8.38401e-08
-2.33982e-06
8.17243e-08
-2.36213e-06
7.95011e-08
-2.38365e-06
7.71667e-08
-2.40435e-06
7.47142e-08
-2.42419e-06
7.21395e-08
-2.44312e-06
6.94338e-08
-2.46111e-06
6.65899e-08
-2.47809e-06
6.35957e-08
-2.49403e-06
6.04417e-08
-2.50887e-06
5.7113e-08
-2.52255e-06
5.35971e-08
-2.53503e-06
4.98767e-08
-2.54623e-06
4.59405e-08
-2.5561e-06
4.17719e-08
-2.56458e-06
3.73604e-08
-2.57157e-06
3.26944e-08
-2.57702e-06
2.77593e-08
-2.58085e-06
2.25538e-08
-2.58303e-06
1.70575e-08
-2.58351e-06
1.1264e-08
-2.58217e-06
5.17554e-09
-2.57891e-06
-1.22534e-09
-2.57354e-06
-7.9594e-09
-2.56591e-06
-1.50725e-08
-2.55587e-06
-2.25783e-08
-2.54327e-06
-3.04923e-08
-2.52797e-06
-3.88168e-08
-2.50983e-06
-4.75632e-08
-2.48871e-06
-5.67347e-08
-2.46448e-06
-6.63315e-08
-2.43699e-06
-7.63512e-08
-2.40611e-06
-8.67764e-08
-2.3717e-06
-9.75939e-08
-2.33363e-06
-1.08771e-07
-2.29179e-06
-1.20285e-07
-2.24606e-06
-1.32092e-07
-2.19639e-06
-1.44155e-07
-2.14268e-06
-1.56417e-07
-2.08491e-06
-1.68821e-07
-2.02306e-06
-1.81291e-07
-1.95712e-06
-1.9375e-07
-1.88716e-06
-2.06106e-07
-1.81324e-06
-2.18261e-07
-1.73549e-06
-2.30115e-07
-1.65406e-06
-2.41564e-07
-1.56916e-06
-2.52516e-07
-1.48102e-06
-2.62835e-07
-1.38989e-06
-2.72345e-07
-1.29608e-06
-2.80951e-07
-1.19993e-06
-2.886e-07
-1.10182e-06
-2.95181e-07
-1.00218e-06
-3.00631e-07
-9.01401e-07
-3.04894e-07
-7.99947e-07
-3.07944e-07
-6.98219e-07
-3.0975e-07
-5.96662e-07
-3.10314e-07
-4.95662e-07
-3.09648e-07
-3.95637e-07
-3.0779e-07
-2.96935e-07
-3.04792e-07
-1.99921e-07
-3.00718e-07
-1.04863e-07
-2.95681e-07
-1.2009e-08
-2.89802e-07
7.83605e-08
-2.8316e-07
1.65862e-07
-2.75813e-07
2.5018e-07
-2.67814e-07
3.31102e-07
-2.59197e-07
4.08438e-07
-2.49964e-07
4.82169e-07
-2.40074e-07
5.52435e-07
-2.29597e-07
6.19282e-07
-2.18736e-07
6.82708e-07
-2.07676e-07
7.42719e-07
-1.96555e-07
7.99333e-07
-1.85487e-07
8.52599e-07
-1.74555e-07
9.0258e-07
-1.63833e-07
9.49363e-07
-1.53374e-07
9.93042e-07
-1.43227e-07
1.03373e-06
-1.33426e-07
1.07156e-06
-1.24008e-07
1.10664e-06
-1.14996e-07
1.13914e-06
-1.06419e-07
1.16919e-06
-9.82928e-08
1.19694e-06
-9.06412e-08
1.22257e-06
-8.3476e-08
1.24624e-06
-7.68164e-08
1.26811e-06
-7.06699e-08
1.28836e-06
-6.50527e-08
1.30717e-06
-5.99679e-08
1.3247e-06
-5.54274e-08
1.34115e-06
-5.14281e-08
1.35667e-06
-4.79746e-08
1.37144e-06
-4.50572e-08
1.38563e-06
-4.26726e-08
1.39941e-06
-4.07997e-08
1.41292e-06
-3.94218e-08
1.42632e-06
-3.85023e-08
1.43972e-06
-3.80046e-08
1.45325e-06
-3.78639e-08
1.46697e-06
-3.80026e-08
1.48094e-06
-3.82952e-08
1.49515e-06
-3.85668e-08
1.50951e-06
-3.85259e-08
1.52381e-06
-3.76879e-08
1.53766e-06
-3.51794e-08
1.55047e-06
-2.92693e-08
1.56166e-06
-1.684e-08
1.5716e-06
8.77968e-09
6.19948e-08
1.58366e-06
-1.56349e-08
-8.61071e-09
-3.43574e-08
1.3548e-08
-5.41967e-08
3.06557e-08
-7.48853e-08
4.55179e-08
-9.64845e-08
5.87731e-08
-1.19187e-07
7.06862e-08
-1.43205e-07
8.13804e-08
-1.68735e-07
9.09533e-08
-1.95895e-07
9.95249e-08
-2.24744e-07
1.0724e-07
-2.55251e-07
1.14249e-07
-2.87343e-07
1.20689e-07
-3.20881e-07
1.2666e-07
-3.55707e-07
1.32219e-07
-3.91618e-07
1.37386e-07
-4.28423e-07
1.42163e-07
-4.65864e-07
1.46562e-07
-5.03636e-07
1.50614e-07
-5.41379e-07
1.5433e-07
-5.78812e-07
1.57678e-07
-6.15702e-07
1.60577e-07
-6.51992e-07
1.62902e-07
-6.87785e-07
1.6454e-07
-7.23279e-07
1.65481e-07
-7.58816e-07
1.65779e-07
-7.94491e-07
1.65615e-07
-8.29621e-07
1.65247e-07
-8.6411e-07
1.6467e-07
-8.98568e-07
1.63762e-07
-9.32926e-07
1.62666e-07
-9.67056e-07
1.61486e-07
-1.00091e-06
1.60266e-07
-1.03447e-06
1.59027e-07
-1.06776e-06
1.57779e-07
-1.10079e-06
1.56534e-07
-1.13359e-06
1.55302e-07
-1.16616e-06
1.54092e-07
-1.19852e-06
1.52914e-07
-1.23068e-06
1.51771e-07
-1.26266e-06
1.50668e-07
-1.29445e-06
1.49605e-07
-1.32607e-06
1.48581e-07
-1.35751e-06
1.47594e-07
-1.38877e-06
1.46639e-07
-1.41986e-06
1.45709e-07
-1.45077e-06
1.448e-07
-1.4815e-06
1.43902e-07
-1.51205e-06
1.43008e-07
-1.54241e-06
1.4211e-07
-1.57256e-06
1.412e-07
-1.60251e-06
1.40269e-07
-1.63224e-06
1.39311e-07
-1.66174e-06
1.38317e-07
-1.691e-06
1.3728e-07
-1.71999e-06
1.36194e-07
-1.74871e-06
1.35051e-07
-1.77714e-06
1.33847e-07
-1.80526e-06
1.32575e-07
-1.83304e-06
1.3123e-07
-1.86048e-06
1.29807e-07
-1.88754e-06
1.28302e-07
-1.91421e-06
1.2671e-07
-1.94046e-06
1.25028e-07
-1.96628e-06
1.23252e-07
-1.99163e-06
1.21378e-07
-2.01649e-06
1.19402e-07
-2.04084e-06
1.17322e-07
-2.06465e-06
1.15133e-07
-2.08789e-06
1.12833e-07
-2.11054e-06
1.10416e-07
-2.13256e-06
1.07878e-07
-2.15393e-06
1.05214e-07
-2.17462e-06
1.02419e-07
-2.19461e-06
9.94851e-08
-2.21384e-06
9.64068e-08
-2.2323e-06
9.31763e-08
-2.24995e-06
8.97862e-08
-2.26673e-06
8.62266e-08
-2.28262e-06
8.24868e-08
-2.29758e-06
7.85541e-08
-2.31154e-06
7.44149e-08
-2.32447e-06
7.00535e-08
-2.33632e-06
6.54536e-08
-2.34702e-06
6.05974e-08
-2.35654e-06
5.54681e-08
-2.3648e-06
5.00486e-08
-2.37175e-06
4.4323e-08
-2.3773e-06
3.8274e-08
-2.38137e-06
3.18918e-08
-2.3839e-06
2.51457e-08
-2.38482e-06
1.80326e-08
-2.38404e-06
1.05222e-08
-2.38143e-06
2.60067e-09
-2.37686e-06
-5.76005e-09
-2.37021e-06
-1.45894e-08
-2.36134e-06
-2.39223e-08
-2.35012e-06
-3.37774e-08
-2.33643e-06
-4.41717e-08
-2.32014e-06
-5.51129e-08
-2.3011e-06
-6.66108e-08
-2.27918e-06
-7.86708e-08
-2.25426e-06
-9.12905e-08
-2.22619e-06
-1.04466e-07
-2.19483e-06
-1.18176e-07
-2.16006e-06
-1.32402e-07
-2.12176e-06
-1.47105e-07
-2.0798e-06
-1.62253e-07
-2.0341e-06
-1.77791e-07
-1.98458e-06
-1.93667e-07
-1.93116e-06
-2.09804e-07
-1.87382e-06
-2.26125e-07
-1.81254e-06
-2.42526e-07
-1.74732e-06
-2.58904e-07
-1.67823e-06
-2.75131e-07
-1.60533e-06
-2.91078e-07
-1.52876e-06
-3.06601e-07
-1.44868e-06
-3.21558e-07
-1.36531e-06
-3.35811e-07
-1.27886e-06
-3.49194e-07