/*--------------------------------*- C++ -*----------------------------------*\
  =========                 |
  \\      /  F ield         | OpenFOAM: The Open Source CFD Toolbox
   \\    /   O peration     | Website:  https://openfoam.org
    \\  /    A nd           | Version:  9
     \\/     M anipulation  |
\*---------------------------------------------------------------------------*/
FoamFile
{
    format      ascii;
    class       volVectorField;
    location    "150";
    object      U;
}
// * * * * * * * * * * * * * * * * * * * * * * * * * * * * * * * * * * * * * //

dimensions      [0 1 -1 0 0 0 0];

internalField   nonuniform List<vector> 
12225
(
(9.85699 -0.886389 0)
(9.66662 -0.740762 0)
(9.45566 -0.429469 0)
(9.22437 -0.222216 0)
(9.00628 -0.106441 0)
(8.81401 -0.0458467 0)
(8.64693 -0.0151556 0)
(8.50462 0.000487597 0)
(8.38266 0.0084356 0)
(8.27967 0.0123417 0)
(8.1908 0.0140863 0)
(8.11417 0.0151351 0)
(8.04661 0.0155598 0)
(7.98663 0.0158754 0)
(7.93164 0.01599 0)
(7.88286 0.0168902 0)
(7.82318 0.0165979 0)
(7.81192 0.0155728 0)
(10.0545 0.227541 0)
(10.1211 0.326944 0)
(10.1196 0.261574 0)
(10.0855 0.186572 0)
(10.0433 0.134695 0)
(9.99657 0.101158 0)
(9.9438 0.0793471 0)
(9.8849 0.0646357 0)
(9.82344 0.0543543 0)
(9.7607 0.0467991 0)
(9.69906 0.0410834 0)
(9.63892 0.036606 0)
(9.58129 0.0330679 0)
(9.5264 0.0304033 0)
(9.47386 0.0282362 0)
(9.42581 0.028112 0)
(9.37611 0.0266351 0)
(9.34491 0.0397753 0)
(10.0035 0.0579195 0)
(10.0303 0.0560128 0)
(10.056 0.0338028 0)
(10.0703 0.032922 0)
(10.0769 0.0406911 0)
(10.0777 0.0466024 0)
(10.0723 0.0494363 0)
(10.061 0.0504068 0)
(10.0457 0.0503426 0)
(10.0271 0.049678 0)
(10.0064 0.0487057 0)
(9.98387 0.0476456 0)
(9.96039 0.0466156 0)
(9.93628 0.0458068 0)
(9.91172 0.0451446 0)
(9.88766 0.0456203 0)
(9.86323 0.0458496 0)
(9.84131 0.0512321 0)
(9.99779 0.0110595 0)
(10.011 0.0266211 0)
(10.035 0.0371779 0)
(10.0524 0.0481259 0)
(10.0642 0.0555097 0)
(10.0732 0.0582629 0)
(10.0792 0.0584601 0)
(10.082 0.0577547 0)
(10.0823 0.0567543 0)
(10.0806 0.0556255 0)
(10.0773 0.0544476 0)
(10.0727 0.0533557 0)
(10.067 0.0523665 0)
(10.0605 0.0516398 0)
(10.0532 0.05113 0)
(10.0458 0.0514679 0)
(10.0383 0.0519294 0)
(10.0314 0.054619 0)
(9.99935 0.00720529 0)
(10.009 0.0316748 0)
(10.0274 0.0439574 0)
(10.0417 0.0499757 0)
(10.0526 0.0536864 0)
(10.0627 0.0553373 0)
(10.0713 0.0556523 0)
(10.078 0.055407 0)
(10.083 0.0549239 0)
(10.0867 0.0543017 0)
(10.0893 0.0536066 0)
(10.091 0.0529505 0)
(10.0919 0.0523733 0)
(10.0922 0.0519999 0)
(10.092 0.0518411 0)
(10.0916 0.0522325 0)
(10.0913 0.0528537 0)
(10.0916 0.0543213 0)
(10.0003 0.00918771 0)
(10.0083 0.0311959 0)
(10.0227 0.0409879 0)
(10.0349 0.0454584 0)
(10.0449 0.0491297 0)
(10.0546 0.0514967 0)
(10.0635 0.0525192 0)
(10.071 0.0528052 0)
(10.0774 0.0527418 0)
(10.0828 0.0524736 0)
(10.0875 0.0520881 0)
(10.0915 0.0516899 0)
(10.0949 0.0513387 0)
(10.0979 0.0511294 0)
(10.1005 0.0510935 0)
(10.103 0.0513902 0)
(10.1057 0.0518666 0)
(10.1088 0.0525717 0)
(10.0005 0.00895612 0)
(10.0071 0.0271175 0)
(10.019 0.0364667 0)
(10.0301 0.0414694 0)
(10.0395 0.0455237 0)
(10.0485 0.0482263 0)
(10.057 0.0495428 0)
(10.0646 0.050073 0)
(10.0713 0.0502255 0)
(10.0772 0.0501539 0)
(10.0826 0.049947 0)
(10.0875 0.0496981 0)
(10.0919 0.0494718 0)
(10.096 0.0493376 0)
(10.0999 0.0493254 0)
(10.1037 0.0494976 0)
(10.1076 0.0497546 0)
(10.1119 0.0499721 0)
(10.0004 0.00792929 0)
(10.006 0.0234177 0)
(10.0161 0.032799 0)
(10.0262 0.0381943 0)
(10.035 0.0422245 0)
(10.0434 0.04495 0)
(10.0515 0.0464141 0)
(10.0589 0.0471151 0)
(10.0655 0.047424 0)
(10.0716 0.0474933 0)
(10.0772 0.0474119 0)
(10.0824 0.0472636 0)
(10.0873 0.0471117 0)
(10.0919 0.0470067 0)
(10.0963 0.0469691 0)
(10.1007 0.0470101 0)
(10.1051 0.0470481 0)
(10.1098 0.0469341 0)
(10.0004 0.00697567 0)
(10.005 0.0204721 0)
(10.0136 0.0295274 0)
(10.0228 0.0349685 0)
(10.0311 0.0388589 0)
(10.039 0.041568 0)
(10.0466 0.0431585 0)
(10.0537 0.0440056 0)
(10.0602 0.0444384 0)
(10.0663 0.0446141 0)
(10.0719 0.0446226 0)
(10.0772 0.0445409 0)
(10.0822 0.0444269 0)
(10.087 0.0443184 0)
(10.0917 0.0442264 0)
(10.0963 0.0441382 0)
(10.101 0.0439824 0)
(10.1058 0.0436377 0)
(10.0004 0.00614689 0)
(10.0043 0.0179131 0)
(10.0116 0.0263598 0)
(10.0198 0.0317028 0)
(10.0275 0.0354715 0)
(10.035 0.0381496 0)
(10.0422 0.0398248 0)
(10.049 0.0407804 0)
(10.0554 0.0413054 0)
(10.0613 0.0415589 0)
(10.0669 0.0416305 0)
(10.0722 0.0415903 0)
(10.0773 0.0414896 0)
(10.0821 0.041358 0)
(10.0869 0.0411996 0)
(10.0915 0.0409937 0)
(10.0962 0.0406804 0)
(10.1009 0.040177 0)
(10.0003 0.00538893 0)
(10.0036 0.0156099 0)
(10.0099 0.0233313 0)
(10.0172 0.0284805 0)
(10.0244 0.032111 0)
(10.0314 0.0347166 0)
(10.0382 0.0364211 0)
(10.0447 0.0374448 0)
(10.0509 0.0380338 0)
(10.0567 0.0383417 0)
(10.0622 0.0384554 0)
(10.0674 0.0384381 0)
(10.0725 0.0383353 0)
(10.0773 0.0381708 0)
(10.082 0.037946 0)
(10.0867 0.0376405 0)
(10.0913 0.037208 0)
(10.0958 0.0365991 0)
(10.0003 0.00472549 0)
(10.0032 0.0136738 0)
(10.0086 0.020693 0)
(10.0152 0.0255801 0)
(10.0218 0.0290477 0)
(10.0284 0.031551 0)
(10.0349 0.0332394 0)
(10.0412 0.0342919 0)
(10.0471 0.0349159 0)
(10.0528 0.0352539 0)
(10.0582 0.0353895 0)
(10.0633 0.0353802 0)
(10.0683 0.0352663 0)
(10.0731 0.0350684 0)
(10.0778 0.034788 0)
(10.0823 0.0344089 0)
(10.0868 0.033897 0)
(10.0912 0.033229 0)
(10.0003 0.00411231 0)
(10.0027 0.0119094 0)
(10.0075 0.0182011 0)
(10.0134 0.0227494 0)
(10.0196 0.0260192 0)
(10.0258 0.0283939 0)
(10.0319 0.0300324 0)
(10.0379 0.0310852 0)
(10.0437 0.0317237 0)
(10.0492 0.0320762 0)
(10.0545 0.0322213 0)
(10.0595 0.0322115 0)
(10.0644 0.0320826 0)
(10.0691 0.0318536 0)
(10.0737 0.031527 0)
(10.0782 0.0310926 0)
(10.0825 0.0305265 0)
(10.0868 0.0298257 0)
(10.0002 0.00347884 0)
(10.0024 0.0100754 0)
(10.0064 0.0155279 0)
(10.0117 0.0196123 0)
(10.0174 0.0226004 0)
(10.0231 0.0247859 0)
(10.0289 0.0263228 0)
(10.0346 0.0273365 0)
(10.0401 0.0279624 0)
(10.0455 0.0283098 0)
(10.0506 0.0284499 0)
(10.0555 0.0284296 0)
(10.0603 0.0282803 0)
(10.0649 0.0280196 0)
(10.0694 0.0276522 0)
(10.0737 0.0271745 0)
(10.0779 0.0265725 0)
(10.0819 0.0258585 0)
(10.0002 0.00282096 0)
(10.002 0.00817001 0)
(10.0055 0.0126829 0)
(10.0101 0.0161731 0)
(10.0152 0.0187766 0)
(10.0206 0.0206964 0)
(10.026 0.0220658 0)
(10.0313 0.0229863 0)
(10.0366 0.0235601 0)
(10.0417 0.0238738 0)
(10.0467 0.0239884 0)
(10.0515 0.0239442 0)
(10.0561 0.0237683 0)
(10.0606 0.0234771 0)
(10.0649 0.0230782 0)
(10.0691 0.0225732 0)
(10.0731 0.0219575 0)
(10.0769 0.0212521 0)
(10.0002 0.00213772 0)
(10.0017 0.00619459 0)
(10.0047 0.00967316 0)
(10.0087 0.0124347 0)
(10.0134 0.014533 0)
(10.0182 0.0160925 0)
(10.0233 0.0172132 0)
(10.0283 0.0179717 0)
(10.0333 0.01844 0)
(10.0382 0.0186812 0)
(10.043 0.0187431 0)
(10.0476 0.018658 0)
(10.052 0.0184486 0)
(10.0563 0.0181297 0)
(10.0605 0.0177103 0)
(10.0645 0.0171965 0)
(10.0683 0.0165889 0)
(10.072 0.0159139 0)
(10.0002 0.00142581 0)
(10.0015 0.00413395 0)
(10.0041 0.00648082 0)
(10.0076 0.00837743 0)
(10.0118 0.00983771 0)
(10.0163 0.0109261 0)
(10.0209 0.0117038 0)
(10.0257 0.01222 0)
(10.0304 0.0125192 0)
(10.0351 0.0126416 0)
(10.0396 0.0126188 0)
(10.044 0.0124742 0)
(10.0483 0.0122239 0)
(10.0524 0.0118802 0)
(10.0564 0.0114518 0)
(10.0602 0.0109462 0)
(10.0639 0.0103664 0)
(10.0674 0.00973927 0)
(10.0001 0.000668264 0)
(10.0013 0.00193484 0)
(10.0036 0.00303128 0)
(10.0069 0.00391811 0)
(10.0107 0.00459619 0)
(10.0149 0.00508775 0)
(10.0193 0.00541589 0)
(10.0237 0.00560029 0)
(10.0282 0.00565962 0)
(10.0327 0.00561119 0)
(10.037 0.00546917 0)
(10.0413 0.00524458 0)
(10.0454 0.00494588 0)
(10.0493 0.00458016 0)
(10.0531 0.0041533 0)
(10.0568 0.00367142 0)
(10.0602 0.00313726 0)
(10.0636 0.00257442 0)
(10.0001 -0.000178593 0)
(10.0013 -0.00052652 0)
(10.0035 -0.000851235 0)
(10.0066 -0.00113878 0)
(10.0103 -0.00138826 0)
(10.0143 -0.00161398 0)
(10.0186 -0.00183399 0)
(10.0229 -0.00206061 0)
(10.0273 -0.00230203 0)
(10.0316 -0.00256451 0)
(10.0358 -0.00285363 0)
(10.0399 -0.00317274 0)
(10.0439 -0.00352397 0)
(10.0477 -0.00390767 0)
(10.0513 -0.0043236 0)
(10.0548 -0.00476971 0)
(10.0581 -0.00524596 0)
(10.0613 -0.00573481 0)
(10.0001 -0.000989858 0)
(10.0013 -0.00289161 0)
(10.0037 -0.00458818 0)
(10.007 -0.00599668 0)
(10.0109 -0.00711324 0)
(10.0151 -0.00799837 0)
(10.0194 -0.0087134 0)
(10.0238 -0.00930097 0)
(10.0282 -0.00979558 0)
(10.0325 -0.0102297 0)
(10.0367 -0.0106286 0)
(10.0408 -0.01101 0)
(10.0447 -0.0113854 0)
(10.0485 -0.0117635 0)
(10.052 -0.0121494 0)
(10.0555 -0.0125461 0)
(10.0587 -0.0129561 0)
(10.0618 -0.0133683 0)
(10.0002 -0.00168985 0)
(10.0015 -0.00495816 0)
(10.0041 -0.00785519 0)
(10.0078 -0.0101777 0)
(10.012 -0.0119461 0)
(10.0165 -0.0133112 0)
(10.0211 -0.0143789 0)
(10.0257 -0.0152068 0)
(10.0302 -0.015852 0)
(10.0346 -0.0163738 0)
(10.0389 -0.0168169 0)
(10.0429 -0.0172109 0)
(10.0469 -0.017575 0)
(10.0506 -0.017924 0)
(10.0542 -0.018267 0)
(10.0575 -0.0186102 0)
(10.0608 -0.0189576 0)
(10.0638 -0.019302 0)
(10.0002 -0.00235453 0)
(10.0017 -0.00699965 0)
(10.0047 -0.0111186 0)
(10.009 -0.0142649 0)
(10.0138 -0.0165382 0)
(10.0186 -0.0182491 0)
(10.0235 -0.0195578 0)
(10.0283 -0.0205354 0)
(10.033 -0.0212638 0)
(10.0376 -0.0218242 0)
(10.0419 -0.0222741 0)
(10.046 -0.0226499 0)
(10.05 -0.0229792 0)
(10.0537 -0.0232812 0)
(10.0573 -0.0235699 0)
(10.0607 -0.0238523 0)
(10.0639 -0.0241348 0)
(10.0669 -0.0244117 0)
(10.0002 -0.00297645 0)
(10.0018 -0.00906598 0)
(10.0054 -0.0144026 0)
(10.0105 -0.0182736 0)
(10.0159 -0.0209995 0)
(10.0212 -0.0230041 0)
(10.0264 -0.0244424 0)
(10.0315 -0.02544 0)
(10.0365 -0.0261515 0)
(10.0411 -0.0266869 0)
(10.0456 -0.0271032 0)
(10.0498 -0.0274363 0)
(10.0538 -0.027716 0)
(10.0575 -0.0279648 0)
(10.0611 -0.0281972 0)
(10.0645 -0.0284214 0)
(10.0676 -0.0286432 0)
(10.0707 -0.02886 0)
(10.0001 -0.00352466 0)
(10.0018 -0.0115265 0)
(10.0063 -0.0178484 0)
(10.0123 -0.021932 0)
(10.0184 -0.0249852 0)
(10.0241 -0.0273812 0)
(10.0298 -0.0290061 0)
(10.0352 -0.0300037 0)
(10.0403 -0.0306444 0)
(10.0451 -0.0310937 0)
(10.0496 -0.031419 0)
(10.0539 -0.0316615 0)
(10.058 -0.0318551 0)
(10.0618 -0.0320242 0)
(10.0653 -0.0321817 0)
(10.0687 -0.0323356 0)
(10.0718 -0.032489 0)
(10.0748 -0.0326393 0)
(9.99991 -0.0033752 0)
(10.0016 -0.014949 0)
(10.0073 -0.0226957 0)
(10.0143 -0.0261967 0)
(10.0207 -0.0287732 0)
(10.0269 -0.0311284 0)
(10.0332 -0.0328397 0)
(10.0392 -0.0339181 0)
(10.0446 -0.0346089 0)
(10.0496 -0.0350648 0)
(10.0543 -0.0353562 0)
(10.0586 -0.0355378 0)
(10.0627 -0.0356557 0)
(10.0664 -0.0357407 0)
(10.0698 -0.035811 0)
(10.073 -0.0358767 0)
(10.076 -0.0359426 0)
(10.0788 -0.0360073 0)
(9.9986 -0.000393934 0)
(9.99909 -0.0157421 0)
(10.0076 -0.0274067 0)
(10.0166 -0.0324593 0)
(10.0238 -0.0348278 0)
(10.0307 -0.0361757 0)
(10.0377 -0.0369197 0)
(10.0442 -0.037379 0)
(10.05 -0.0377206 0)
(10.0552 -0.0379616 0)
(10.0598 -0.0381014 0)
(10.0639 -0.0381659 0)
(10.0675 -0.0381845 0)
(10.0707 -0.038178 0)
(10.0735 -0.0381624 0)
(10.076 -0.0381457 0)
(10.0781 -0.0381323 0)
(10.08 -0.0381197 0)
(9.99488 0.00133852 0)
(9.99288 -0.00808241 0)
(10.0061 -0.0203349 0)
(10.0202 -0.0322536 0)
(10.0307 -0.0404496 0)
(10.0393 -0.0441151 0)
(10.0468 -0.0450213 0)
(10.053 -0.0448709 0)
(10.058 -0.0443985 0)
(10.0618 -0.0437978 0)
(10.0649 -0.0431493 0)
(10.0671 -0.0425101 0)
(10.0685 -0.041914 0)
(10.0694 -0.0413689 0)
(10.0698 -0.0408848 0)
(10.0697 -0.0404583 0)
(10.0692 -0.0400868 0)
(10.0685 -0.0397452 0)
(9.99473 -0.0305594 0)
(9.99926 -0.0228646 0)
(10.0147 -0.00262328 0)
(10.0304 -0.00189263 0)
(10.0435 -0.0116375 0)
(10.0534 -0.0208969 0)
(10.0595 -0.0272496 0)
(10.062 -0.0314733 0)
(10.0617 -0.0342443 0)
(10.0593 -0.0359371 0)
(10.0553 -0.0368665 0)
(10.05 -0.0372982 0)
(10.0438 -0.0374228 0)
(10.0368 -0.0373598 0)
(10.0293 -0.0371996 0)
(10.0214 -0.0369975 0)
(10.0133 -0.0368189 0)
(10.0051 -0.0366326 0)
(10.0273 -0.182757 0)
(10.0763 -0.288309 0)
(10.0872 -0.247748 0)
(10.0777 -0.18651 0)
(10.0664 -0.140284 0)
(10.0538 -0.108206 0)
(10.0366 -0.0858636 0)
(10.0146 -0.0704009 0)
(9.98951 -0.0596295 0)
(9.96251 -0.0518539 0)
(9.93457 -0.0460307 0)
(9.90629 -0.0415322 0)
(9.87815 -0.0379757 0)
(9.85049 -0.035101 0)
(9.82354 -0.0327356 0)
(9.79741 -0.0308162 0)
(9.77235 -0.0293023 0)
(9.74839 -0.0284864 0)
(9.93574 0.68932 0)
(9.86862 0.609607 0)
(9.76456 0.380627 0)
(9.62669 0.217448 0)
(9.48597 0.119275 0)
(9.35733 0.0631957 0)
(9.24284 0.0315857 0)
(9.14134 0.0136272 0)
(9.0517 0.0032752 0)
(8.97278 -0.00278561 0)
(8.90292 -0.00634098 0)
(8.8408 -0.00845992 0)
(8.78515 -0.00971034 0)
(8.73508 -0.0104574 0)
(8.6897 -0.0109609 0)
(8.6484 -0.0112304 0)
(8.61023 -0.0114397 0)
(8.57492 -0.0121028 0)
(0.0105098 -0.0211651 -5.77097e-19)
(0.0262372 -0.022075 3.1334e-19)
(0.0354435 -0.0129727 0)
(0.0386846 -0.00194821 0)
(0.0349306 0.00762491 0)
(0.0255265 0.0147213 -1.22661e-19)
(0.0119147 0.0194511 0)
(-0.00470951 0.0223111 0)
(-0.0234491 0.0238517 0)
(-0.0437697 0.0245569 0)
(-0.065367 0.0248006 7.42211e-20)
(-0.0880402 0.0248754 0)
(-0.111669 0.0249995 0)
(-0.136168 0.0251109 0)
(-0.161328 0.0249403 0)
(-0.186844 0.0245717 5.32903e-20)
(-0.212453 0.0251735 0)
(-0.2382 0.0284454 0)
(-0.265136 0.0340574 0)
(-0.294285 0.0412248 0)
(-0.325597 0.0504325 0)
(-0.35948 0.0589009 0)
(-0.396304 0.0661141 0)
(-0.432932 0.0788889 5.32863e-20)
(-0.473073 0.0555196 -6.99691e-20)
(-0.514784 0.00471692 6.34018e-20)
(-0.54324 0.062005 5.01876e-20)
(-0.579612 0.084743 0)
(-0.630413 0.0385427 0)
(-0.665799 0.0373745 -6.29918e-20)
(-0.704545 0.0383967 -6.03557e-20)
(-0.744558 0.0390631 0)
(-0.785127 0.0392113 0)
(-0.825911 0.0390806 -5.37242e-20)
(-0.866719 0.0387904 0)
(-0.907448 0.0384085 0)
(-0.948037 0.0379788 4.86241e-20)
(-0.988452 0.0375223 0)
(-1.02867 0.0370592 4.58448e-20)
(-1.0687 0.0365946 8.92039e-20)
(-1.10852 0.0361382 0)
(-1.14815 0.0356868 0)
(-1.18759 0.0352494 0)
(-1.22685 0.0348243 0)
(-1.26593 0.0344175 0)
(-1.30485 0.0340232 7.73015e-20)
(-1.34363 0.0336466 7.56986e-20)
(-1.38226 0.0332795 7.41772e-20)
(-1.42077 0.0329265 0)
(-1.45914 0.0325791 -7.1352e-20)
(-1.4974 0.0322423 0)
(-1.53553 0.0319068 6.87753e-20)
(-1.57354 0.0315786 6.75674e-20)
(-1.61142 0.0312495 0)
(-1.64916 0.0309244 0)
(-1.68676 0.030593 0)
(-1.72421 0.0302625 6.31723e-20)
(-1.76149 0.029924 0)
(-1.79858 0.0295841 0)
(-1.83548 0.0292323 0)
(-1.87216 0.0288778 0)
(-1.90861 0.028511 0)
(-1.9448 0.0281403 0)
(-1.98071 0.0277544 0)
(-2.01633 0.0273634 0)
(-2.05162 0.0269561 -5.50329e-20)
(-2.08657 0.0265441 0)
(-2.12115 0.0261163 0)
(-2.15534 0.0256855 5.26513e-20)
(-2.1891 0.0252405 5.18796e-20)
(-2.22241 0.0247953 0)
(-2.25525 0.0243388 -5.03611e-20)
(-2.28757 0.0238855 4.96123e-20)
(-2.31936 0.0234218 0)
(-2.35057 0.0229602 -4.81317e-20)
(-2.38118 0.0224826 0)
(-2.41113 0.022 0)
(-2.44039 0.021495 4.59434e-20)
(-2.4689 0.0209735 0)
(-2.49661 0.0204094 -4.44976e-20)
(-2.52349 0.0198072 0)
(-2.54947 0.0191412 4.30517e-20)
(-2.57448 0.0184162 4.23252e-20)
(-2.59847 0.0176067 4.15945e-20)
(-2.62135 0.0167255 8.17166e-20)
(-2.64304 0.0157564 -8.02317e-20)
(-2.66344 0.0147196 0)
(-2.68242 0.0136062 0)
(-2.69985 0.0124344 0)
(-2.71556 0.0112165 -7.41527e-20)
(-2.72946 0.00994062 -7.2605e-20)
(-2.74139 0.00861523 7.10468e-20)
(-2.75112 0.00722576 0)
(-2.75839 0.00579359 -6.78757e-20)
(-2.76301 0.00435967 -6.62287e-20)
(-2.76497 0.00299461 -6.44974e-20)
(-2.76457 0.00167232 0)
(-2.76168 0.000313128 0)
(-2.7562 -0.00111394 0)
(-2.74802 -0.00262027 -5.68489e-20)
(-2.737 -0.00421491 0)
(-2.723 -0.00590468 0)
(-2.70588 -0.00769198 5.00414e-20)
(-2.6855 -0.00958625 0)
(-2.6617 -0.0115829 0)
(-2.63433 -0.0136932 4.18344e-20)
(-2.60325 -0.0159089 0)
(-2.56835 -0.0182412 0)
(-2.52952 -0.0206801 -3.16185e-20)
(-2.48666 -0.023233 -2.7638e-20)
(-2.43971 -0.0258861 0)
(-2.38862 -0.0286397 1.86184e-20)
(-2.33335 -0.0314775 0)
(-2.27391 -0.0343831 -7.94076e-21)
(-2.21032 -0.0373388 0)
(-2.14262 -0.040297 4.7089e-21)
(-2.07092 -0.0432773 1.18744e-20)
(-1.9953 -0.0462456 0)
(-1.91598 -0.0491359 0)
(-1.83312 -0.0519729 0)
(-1.74687 -0.0546981 0)
(-1.65755 -0.0572577 0)
(-1.56542 -0.0596682 0)
(-1.47084 -0.0618822 0)
(-1.37419 -0.0639008 9.48827e-20)
(-1.27585 -0.0656863 -1.09166e-19)
(-1.1762 -0.0672588 0)
(-1.07564 -0.0685654 0)
(-0.974567 -0.0696318 0)
(-0.873363 -0.0704252 0)
(-0.772416 -0.07098 -3.95972e-19)
(-0.672095 -0.0712705 0)
(-0.572747 -0.0713395 4.87081e-19)
(-0.474695 -0.0711753 -5.38071e-19)
(-0.378249 -0.0708259 0)
(-0.283661 -0.070265 0)
(-0.191026 -0.0695008 0)
(-0.101004 -0.0684894 7.89453e-19)
(-0.0123268 -0.0667092 8.24115e-19)
(0.075298 -0.063828 0)
(0.159833 -0.0603762 7.8319e-19)
(0.240899 -0.0568237 7.62805e-19)
(0.318317 -0.0533323 -7.45033e-19)
(0.391947 -0.0499435 0)
(0.461748 -0.0466826 0)
(0.527735 -0.043556 -7.03239e-19)
(0.589964 -0.0405706 0)
(0.648512 -0.0377242 0)
(0.703472 -0.0350172 0)
(0.754952 -0.0324454 0)
(0.803067 -0.030008 6.57748e-19)
(0.847944 -0.0277004 6.51014e-19)
(0.889716 -0.0255214 0)
(0.928526 -0.0234664 6.39235e-19)
(0.964522 -0.0215344 0)
(0.997859 -0.0197217 0)
(1.0287 -0.0180276 6.24922e-19)
(1.0572 -0.0164482 0)
(1.08354 -0.0149832 6.17052e-19)
(1.1079 -0.0136305 0)
(1.13045 -0.0123904 0)
(1.15137 -0.0112591 6.06917e-19)
(1.17085 -0.0102343 0)
(1.18907 -0.00931262 6.00796e-19)
(1.20623 -0.00849245 0)
(1.2225 -0.0077719 0)
(1.23806 -0.00714759 0)
(1.25308 -0.0066148 -5.88866e-19)
(1.26773 -0.00616708 0)
(1.28215 -0.00579616 5.82648e-19)
(1.29646 -0.00548921 0)
(1.31074 -0.00523047 0)
(1.32505 -0.00499314 0)
(1.33929 -0.00473867 0)
(1.35332 -0.004393 0)
(1.36643 -0.00381896 0)
(1.37804 -0.00270242 0)
(1.38318 1.71043e-06 -1.12383e-18)
(1.38393 0.0062558 0)
(1.32356 0.0211338 0)
(0.00536919 -0.0529402 1.25331e-18)
(0.00982046 -0.0364481 -4.94298e-19)
(0.00718858 -0.0149143 0)
(0.00100158 0.00488554 1.47015e-19)
(-0.00837421 0.0217903 0)
(-0.0209112 0.0353773 5.41518e-20)
(-0.0363851 0.0457727 -9.83685e-20)
(-0.0545733 0.0534531 -9.09399e-20)
(-0.0752176 0.0590379 0)
(-0.0980626 0.0631344 -8.03046e-20)
(-0.122884 0.0662549 -3.82024e-20)
(-0.149483 0.0687955 0)
(-0.177682 0.0710351 0)
(-0.207339 0.0731336 0)
(-0.238454 0.0750591 0)
(-0.271249 0.0766785 -3.17673e-20)
(-0.305848 0.078166 0)
(-0.34224 0.080194 5.99252e-20)
(-0.380318 0.0832024 0)
(-0.419635 0.0869187 0)
(-0.459667 0.0908707 -5.80505e-20)
(-0.500621 0.0942896 0)
(-0.541984 0.0967945 5.8643e-20)
(-0.582067 0.0992757 -3.01326e-20)
(-0.624531 0.100798 3.06797e-20)
(-0.672489 0.0999661 -2.94157e-20)
(-0.715322 0.101291 -2.76771e-20)
(-0.755586 0.104068 0)
(-0.796114 0.103062 0)
(-0.839352 0.103033 2.71179e-20)
(-0.880797 0.102864 -2.61552e-20)
(-0.921049 0.102352 0)
(-0.960541 0.101512 0)
(-0.999495 0.100443 2.45525e-20)
(-1.03801 0.0992304 0)
(-1.07613 0.0979322 0)
(-1.1139 0.0965935 -2.3042e-20)
(-1.15133 0.0952421 0)
(-1.18845 0.093902 2.19923e-20)
(-1.22527 0.092584 -4.35615e-20)
(-1.26182 0.0913006 0)
(-1.2981 0.0900531 0)
(-1.33414 0.0888468 -8.24477e-20)
(-1.36994 0.0876778 -8.11513e-20)
(-1.40553 0.0865488 -7.99141e-20)
(-1.44091 0.0854521 3.91864e-20)
(-1.47608 0.0843885 -3.89768e-20)
(-1.51106 0.0833483 -1.14939e-19)
(-1.54583 0.0823313 7.54588e-20)
(-1.58041 0.0813269 3.73981e-20)
(-1.6148 0.0803357 0)
(-1.64897 0.0793472 -3.64317e-20)
(-1.68294 0.0783635 3.56286e-20)
(-1.71669 0.077375 0)
(-1.75021 0.0763837 0)
(-1.78348 0.0753786 0)
(-1.81649 0.0743634 -3.42341e-20)
(-1.84924 0.0733286 0)
(-1.88169 0.0722784 6.6519e-20)
(-1.91384 0.0712022 0)
(-1.94566 0.0701064 6.4949e-20)
(-1.97713 0.0689822 0)
(-2.00824 0.0678359 -6.34187e-20)
(-2.03895 0.0666566 0)
(-2.06925 0.0654524 6.19173e-20)
(-2.09912 0.0642124 -3.04434e-20)
(-2.12852 0.0629462 0)
(-2.15744 0.0616425 -5.96987e-20)
(-2.18585 0.0603112 -2.96179e-20)
(-2.21371 0.0589391 -2.92478e-20)
(-2.241 0.0575355 0)
(-2.26768 0.056086 -2.82495e-20)
(-2.29373 0.0546012 -2.81318e-20)
(-2.31912 0.0530677 0)
(-2.3438 0.0514984 2.73804e-20)
(-2.36775 0.0498796 -5.37695e-20)
(-2.39093 0.0482253 0)
(-2.41329 0.046522 -2.62376e-20)
(-2.43478 0.0447808 0)
(-2.45536 0.0429818 7.61644e-20)
(-2.47497 0.041134 0)
(-2.49356 0.0392148 -7.37944e-20)
(-2.51105 0.0372287 -2.42642e-20)
(-2.5274 0.0351464 2.36534e-20)
(-2.54254 0.0329735 4.64883e-20)
(-2.55639 0.0306835 -4.56582e-20)
(-2.56887 0.0282808 0)
(-2.5799 0.0257368 0)
(-2.58939 0.0230515 0)
(-2.59727 0.0202094 1.27079e-19)
(-2.60352 0.0171965 4.1507e-20)
(-2.60814 0.0140134 -4.05601e-20)
(-2.61114 0.0106694 0)
(-2.61254 0.00721566 -3.84363e-20)
(-2.61234 0.00371999 3.75689e-20)
(-2.61041 0.000231742 3.64912e-20)
(-2.60625 -0.00329943 0)
(-2.59969 -0.00692655 0)
(-2.59058 -0.0106822 0)
(-2.57877 -0.0145707 3.17719e-20)
(-2.56413 -0.0185996 0)
(-2.54652 -0.0227657 -5.82744e-20)
(-2.52579 -0.0270643 -8.31394e-20)
(-2.50181 -0.0314906 5.25122e-20)
(-2.47441 -0.0360275 0)
(-2.44347 -0.0406689 2.32111e-20)
(-2.40885 -0.045391 0)
(-2.37042 -0.0501874 3.89348e-20)
(-2.32808 -0.055031 -1.77945e-20)
(-2.28175 -0.0599105 -1.57609e-20)
(-2.23135 -0.0647935 0)
(-2.17683 -0.0696618 -3.2024e-20)
(-2.11816 -0.0744796 1.66141e-20)
(-2.05536 -0.0792237 5.01854e-21)
(-1.98845 -0.0838567 0)
(-1.91749 -0.088356 -1.03111e-21)
(-1.84259 -0.0926798 -1.13318e-20)
(-1.7639 -0.0968016 0)
(-1.68163 -0.100655 -2.10158e-20)
(-1.59596 -0.104157 -2.86028e-20)
(-1.50711 -0.107323 -3.65465e-20)
(-1.4154 -0.110128 0)
(-1.32113 -0.112522 0)
(-1.22468 -0.114481 0)
(-1.12646 -0.116016 3.45038e-20)
(-1.02687 -0.1171 4.21747e-20)
(-0.926328 -0.117745 0)
(-0.82524 -0.117927 1.01388e-19)
(-0.724018 -0.117679 1.11698e-19)
(-0.623065 -0.11699 0)
(-0.52277 -0.115908 1.36058e-19)
(-0.423501 -0.114435 2.87203e-19)
(-0.325605 -0.112628 -1.57707e-19)
(-0.229393 -0.110491 -1.62169e-19)
(-0.135156 -0.108085 0)
(-0.0429558 -0.10554 0)
(0.0471016 -0.102996 0)
(0.13446 -0.100374 -1.99439e-19)
(0.218447 -0.0971593 1.98133e-19)
(0.298671 -0.0929901 4.09915e-19)
(0.375305 -0.0882488 -2.11367e-19)
(0.448646 -0.0833377 2.10424e-19)
(0.518719 -0.0784194 2.18429e-19)
(0.585471 -0.0735761 0)
(0.648873 -0.0688534 0)
(0.708928 -0.0642829 -2.23687e-19)
(0.765665 -0.0598812 0)
(0.819137 -0.0556623 0)
(0.869416 -0.051632 4.65617e-19)
(0.916588 -0.0477973 0)
(0.960754 -0.04416 2.35534e-19)
(1.00203 -0.040723 -2.39671e-19)
(1.04053 -0.0374862 0)
(1.07639 -0.0344503 2.406e-19)
(1.10976 -0.031615 0)
(1.14078 -0.0289794 0)
(1.16961 -0.0265433 -2.45865e-19)
(1.19641 -0.0243044 4.92158e-19)
(1.22135 -0.0222624 -2.47508e-19)
(1.2446 -0.020414 0)
(1.26634 -0.018759 0)
(1.28675 -0.0172919 2.48312e-19)
(1.306 -0.0160112 0)
(1.32427 -0.0149101 2.49076e-19)
(1.34176 -0.0139851 0)
(1.35863 -0.0132257 0)
(1.37505 -0.0126246 0)
(1.39119 -0.0121674 2.49756e-19)
(1.4072 -0.0118424 0)
(1.42321 -0.0116281 -2.49202e-19)
(1.43935 -0.0115013 0)
(1.45568 -0.011424 0)
(1.47223 -0.0113458 4.95344e-19)
(1.48896 -0.0111815 -4.94278e-19)
(1.50569 -0.0107822 0)
(1.52193 -0.00986876 0)
(1.53726 -0.00777147 0)
(1.54865 -0.0030473 1.47997e-18)
(1.56079 0.00818924 0)
(1.55375 0.0330025 -1.00723e-18)
(-0.00397999 -0.0542128 -1.16671e-21)
(-0.00927579 -0.0231366 4.81686e-19)
(-0.0192913 0.00476522 0)
(-0.0320179 0.0292317 -1.95059e-19)
(-0.0466597 0.0503359 0)
(-0.0629995 0.068233 0)
(-0.0811466 0.0831011 -1.75601e-23)
(-0.101241 0.0952547 6.0719e-20)
(-0.123352 0.105142 5.75985e-20)
(-0.147481 0.113273 5.50788e-20)
(-0.173578 0.120134 0)
(-0.20155 0.12613 0)
(-0.231285 0.131553 -4.99974e-20)
(-0.262675 0.136585 -9.73828e-20)
(-0.295611 0.141306 9.48347e-20)
(-0.330047 0.145762 0)
(-0.36594 0.150123 8.97827e-20)
(-0.403084 0.154688 -4.37801e-20)
(-0.441045 0.159573 0)
(-0.479278 0.164585 8.33681e-20)
(-0.517339 0.169424 4.09637e-20)
(-0.55503 0.173518 -8.0237e-20)
(-0.592286 0.176282 -3.94811e-20)
(-0.629105 0.177554 0)
(-0.66616 0.176472 7.58975e-20)
(-0.704001 0.174013 7.38281e-20)
(-0.741322 0.17382 0)
(-0.777355 0.173395 7.0648e-20)
(-0.813022 0.170501 0)
(-0.849043 0.167976 6.75657e-20)
(-0.884757 0.1657 3.31425e-20)
(-0.919995 0.163478 0)
(-0.954779 0.161222 0)
(-0.989171 0.158918 0)
(-1.02323 0.156586 0)
(-1.05699 0.15425 0)
(-1.09049 0.151934 0)
(-1.12376 0.149656 5.78381e-20)
(-1.15681 0.14743 -8.54509e-20)
(-1.18966 0.145265 0)
(-1.22232 0.143165 0)
(-1.25479 0.141132 0)
(-1.2871 0.139167 1.91522e-22)
(-1.31925 0.137263 5.30641e-20)
(-1.35123 0.135416 1.04528e-19)
(-1.38306 0.133619 -1.03176e-19)
(-1.41474 0.131864 -5.08384e-20)
(-1.44626 0.130142 5.04039e-20)
(-1.47762 0.128447 -1.95424e-22)
(-1.50883 0.12677 4.90071e-20)
(-1.53986 0.125103 0)
(-1.57073 0.123439 4.78709e-20)
(-1.60141 0.121773 -1.93846e-22)
(-1.6319 0.120098 0)
(-1.66218 0.118408 0)
(-1.69225 0.116698 -4.57448e-20)
(-1.72208 0.114964 0)
(-1.75166 0.1132 0)
(-1.78098 0.111405 4.40533e-20)
(-1.81002 0.109572 8.74966e-20)
(-1.83875 0.107702 -4.34433e-20)
(-1.86716 0.10579 0)
(-1.89522 0.103837 4.24747e-20)
(-1.92292 0.101837 0)
(-1.95023 0.0997922 4.11683e-20)
(-1.97713 0.0976972 4.10327e-20)
(-2.0036 0.0955544 -8.07701e-20)
(-2.02961 0.0933595 -3.97418e-20)
(-2.05513 0.0911144 0)
(-2.08014 0.0888138 7.78877e-20)
(-2.1046 0.0864583 0)
(-2.1285 0.0840412 1.14064e-19)
(-2.15179 0.0815632 7.49573e-20)
(-2.17446 0.0790169 7.39649e-20)
(-2.19646 0.0764036 -7.2963e-20)
(-2.21777 0.0737165 1.08063e-19)
(-2.23835 0.070958 0)
(-2.25816 0.0681201 0)
(-2.27715 0.065202 -6.88467e-20)
(-2.29529 0.0621927 -1.01804e-19)
(-2.31252 0.05909 0)
(-2.32879 0.0558802 3.29296e-20)
(-2.34406 0.0525583 0)
(-2.35826 0.0491084 -9.52039e-20)
(-2.37135 0.0455267 -2.13202e-22)
(-2.38327 0.0417995 2.0259e-22)
(-2.39394 0.0379242 5.99138e-20)
(-2.4033 0.0338896 0)
(-2.41128 0.0296946 -5.74891e-20)
(-2.41781 0.0253343 -1.41937e-22)
(-2.42284 0.0208055 0)
(-2.42632 0.0161089 0)
(-2.42817 0.0112519 0)
(-2.42828 0.0062366 5.10467e-20)
(-2.42653 0.00104502 0)
(-2.42274 -0.00435254 0)
(-2.41676 -0.00996304 0)
(-2.40842 -0.0157875 0)
(-2.3976 -0.0218292 0)
(-2.38416 -0.0280891 4.16062e-20)
(-2.36795 -0.0345676 0)
(-2.34884 -0.0412583 3.79207e-20)
(-2.32669 -0.0481542 3.5988e-20)
(-2.30135 -0.0552384 -3.39673e-20)
(-2.27268 -0.0624945 0)
(-2.24055 -0.0698973 -2.9628e-20)
(-2.20483 -0.0774237 0)
(-2.16539 -0.0850442 -2.48321e-20)
(-2.12215 -0.0927281 2.22403e-20)
(-2.075 -0.100438 5.94989e-20)
(-2.0239 -0.108133 0)
(-1.96878 -0.115766 4.19951e-20)
(-1.90964 -0.123286 1.17806e-20)
(-1.84649 -0.130636 0)
(-1.77936 -0.137757 8.56935e-21)
(-1.70833 -0.144594 1.24206e-21)
(-1.63353 -0.151087 1.07267e-20)
(-1.55512 -0.157189 0)
(-1.47331 -0.162815 1.26923e-20)
(-1.38829 -0.167852 1.71681e-20)
(-1.30032 -0.172265 6.25975e-20)
(-1.20973 -0.176039 0)
(-1.11684 -0.179111 0)
(-1.02203 -0.181455 0)
(-0.925705 -0.183056 3.83225e-20)
(-0.828274 -0.183909 0)
(-0.730148 -0.184014 0)
(-0.631739 -0.183377 -5.75896e-20)
(-0.533448 -0.182027 -6.29682e-20)
(-0.43567 -0.179991 0)
(-0.338777 -0.17732 0)
(-0.243123 -0.174055 -1.58167e-19)
(-0.14903 -0.170259 0)
(-0.0567523 -0.16602 1.78782e-19)
(0.0335045 -0.161461 1.83239e-19)
(0.121362 -0.156587 0)
(0.206442 -0.151343 0)
(0.288487 -0.145755 -2.02868e-19)
(0.367278 -0.139882 -3.23584e-21)
(0.442703 -0.133689 -3.07194e-21)
(0.514828 -0.127188 0)
(0.583747 -0.120525 -4.54197e-19)
(0.649466 -0.113823 0)
(0.711969 -0.107168 0)
(0.771257 -0.100623 0)
(0.827349 -0.0942359 2.46638e-19)
(0.88029 -0.0880396 0)
(0.930143 -0.082061 -5.0456e-19)
(0.976988 -0.0763191 -2.5753e-19)
(1.02092 -0.0708294 0)
(1.06204 -0.0656033 -2.63618e-19)
(1.10048 -0.0606493 0)
(1.13635 -0.0559741 0)
(1.16979 -0.0515821 -8.11234e-19)
(1.20096 -0.0474776 5.44521e-19)
(1.22999 -0.0436623 0)
(1.25705 -0.0401385 5.52342e-19)
(1.2823 -0.0369052 -2.78647e-19)
(1.30591 -0.0339637 0)
(1.32804 -0.0313106 0)
(1.34887 -0.0289457 0)
(1.36858 -0.0268624 -8.4953e-19)
(1.38734 -0.0250575 0)
(1.40533 -0.0235213 -2.85068e-19)
(1.42271 -0.0222479 0)
(1.43967 -0.0212223 0)
(1.45635 -0.0204327 0)
(1.47292 -0.0198582 0)
(1.48952 -0.0194793 0)
(1.50628 -0.0192635 0)
(1.52329 -0.0191748 -5.72718e-19)
(1.54063 -0.019156 0)
(1.55833 -0.0191311 -2.86127e-19)
(1.57635 -0.0189738 8.5716e-19)
(1.59455 -0.0184757 0)
(1.61256 -0.0172544 0)
(1.63016 -0.0145268 -5.70639e-19)
(1.64547 -0.008815 -5.72262e-19)
(1.66208 0.00316757 5.75638e-19)
(1.67012 0.0290649 5.84012e-19)
(-0.0120074 -0.0333441 -1.79169e-18)
(-0.0240087 0.00527415 -5.77837e-19)
(-0.0391803 0.0363615 -2.12345e-19)
(-0.0568895 0.0631781 -7.66635e-20)
(-0.0757483 0.0865601 0)
(-0.0954605 0.106959 1.11191e-19)
(-0.116224 0.124641 -5.08825e-20)
(-0.138265 0.139865 0)
(-0.161741 0.152953 -4.5201e-20)
(-0.186738 0.164278 0)
(-0.213275 0.174209 8.37462e-20)
(-0.241303 0.183073 0)
(-0.270717 0.191105 3.94196e-20)
(-0.301365 0.198437 7.67425e-20)
(-0.333076 0.205114 -7.4714e-20)
(-0.365681 0.211157 0)
(-0.399015 0.216626 -7.07159e-20)
(-0.432846 0.221633 0)
(-0.466857 0.226225 0)
(-0.500733 0.230334 -6.50422e-20)
(-0.534234 0.233794 0)
(-0.567249 0.236323 4.37274e-24)
(-0.599811 0.237651 0)
(-0.632074 0.237716 0)
(-0.664239 0.236526 -3.65086e-23)
(-0.696458 0.234546 -5.58636e-20)
(-0.728528 0.232585 -5.44904e-20)
(-0.760191 0.230329 -5.33124e-20)
(-0.791597 0.227313 0)
(-0.822944 0.224076 -1.02137e-19)
(-0.854169 0.220815 0)
(-0.885206 0.21757 -4.90381e-20)
(-0.916026 0.214343 0)
(-0.946633 0.211138 0)
(-0.97704 0.207967 4.64218e-20)
(-1.00726 0.204844 0)
(-1.03732 0.201782 -4.48972e-20)
(-1.06722 0.198793 -7.21858e-23)
(-1.09697 0.195886 8.71264e-20)
(-1.1266 0.193064 -8.5782e-20)
(-1.15609 0.190329 0)
(-1.18546 0.187678 0)
(-1.21472 0.185108 -4.10731e-20)
(-1.24385 0.182611 0)
(-1.27287 0.18018 -4.02015e-20)
(-1.30177 0.177804 3.97122e-20)
(-1.33055 0.175475 3.92394e-20)
(-1.35921 0.173182 0)
(-1.38774 0.170914 -3.83377e-20)
(-1.41613 0.168662 -3.79057e-20)
(-1.44439 0.166417 7.47879e-20)
(-1.47249 0.164168 -3.70727e-20)
(-1.50044 0.161909 -3.66693e-20)
(-1.52821 0.159632 0)
(-1.5558 0.157329 0)
(-1.58319 0.154994 3.55002e-20)
(-1.61037 0.152622 0)
(-1.63731 0.150207 0)
(-1.66401 0.147744 -6.87491e-20)
(-1.69044 0.145229 -6.80111e-20)
(-1.71659 0.142661 0)
(-1.74243 0.140034 0)
(-1.76795 0.137348 0)
(-1.79312 0.134599 0)