# vtk DataFile Version 2.0
track0
ASCII
DATASET POLYDATA
POINTS 12073 float
-0.0205 0.001 1e-05
-0.02052 0.000999985 1e-05
-0.02054 0.000999974 1e-05
-0.02056 0.000999965 1e-05
-0.02058 0.000999959 1e-05
-0.0206 0.000999956 1e-05
-0.0205 0.00367778 1e-05
-0.02052 0.00367778 1e-05
-0.02054 0.00367777 1e-05
-0.02056 0.00367777 1e-05
-0.02058 0.00367777 1e-05
-0.0206 0.00367777 1e-05
-0.0205 0.00635556 1e-05
-0.02052 0.00635555 1e-05
-0.02054 0.00635555 1e-05
-0.02056 0.00635555 1e-05
-0.02058 0.00635555 1e-05
-0.0206 0.00635555 1e-05
-0.0205 0.00903333 1e-05
-0.02052 0.00903333 1e-05
-0.02054 0.00903333 1e-05
-0.02056 0.00903333 1e-05
-0.02058 0.00903333 1e-05
-0.0206 0.00903333 1e-05
-0.0205 0.0117111 1e-05
-0.02052 0.0117111 1e-05
-0.02054 0.0117111 1e-05
-0.02056 0.0117111 1e-05
-0.02058 0.0117111 1e-05
-0.0206 0.0117111 1e-05
-0.0205 0.0143889 1e-05
-0.02052 0.0143889 1e-05
-0.02054 0.0143889 1e-05
-0.02056 0.0143889 1e-05
-0.02058 0.0143889 1e-05
-0.0206 0.0143889 1e-05
-0.0205 0.0170667 1e-05
-0.02052 0.0170667 1e-05
-0.02054 0.0170667 1e-05
-0.02056 0.0170667 1e-05
-0.02058 0.0170667 1e-05
-0.0206 0.0170667 1e-05
-0.0205 0.0197444 1e-05
-0.02052 0.0197444 1e-05
-0.02054 0.0197444 1e-05
-0.02056 0.0197444 1e-05
-0.02058 0.0197444 1e-05
-0.0206 0.0197444 1e-05
-0.0205 0.0224222 1e-05
-0.02052 0.0224222 1e-05
-0.02054 0.0224222 1e-05
-0.02056 0.0224222 1e-05
-0.02058 0.0224222 1e-05
-0.0206 0.0224222 1e-05
-0.0205 0.0251 1e-05
-0.02052 0.0250998 1e-05
-0.02054 0.0250997 1e-05
-0.02056 0.0250995 1e-05
-0.02058 0.0250995 1e-05
-0.0206 0.0250994 1e-05
-0.0205 0.001 1e-05
-0.0202034 0.00100022 1e-05
-0.0199069 0.00100067 1e-05
-0.0196103 0.00100133 1e-05
-0.0193137 0.0010022 1e-05
-0.0190172 0.00100327 1e-05
-0.0187132 0.00100468 1e-05
-0.0184093 0.00100591 1e-05
-0.0181054 0.00100713 1e-05
-0.0178015 0.00100835 1e-05
-0.0174976 0.00100957 1e-05
-0.0172058 0.00101087 1e-05
-0.016914 0.00101198 1e-05
-0.0166222 0.00101309 1e-05
-0.0163305 0.00101419 1e-05
-0.0160387 0.0010153 1e-05
-0.0157586 0.00101645 1e-05
-0.0154784 0.00101754 1e-05
-0.0151983 0.00101867 1e-05
-0.0149182 0.00101983 1e-05
-0.0146381 0.00102104 1e-05
-0.0143834 0.00102219 1e-05
-0.0141286 0.00102335 1e-05
-0.0138739 0.00102454 1e-05
-0.0136192 0.00102576 1e-05
-0.013404 0.00102682 1e-05
-0.0133819 0.00102693 1e-05
-0.0133598 0.00102704 1e-05
-0.0133377 0.00102715 1e-05
-0.0133156 0.00102726 1e-05
-0.0132934 0.00102737 1e-05
-0.0130353 0.00102868 1e-05
-0.0127771 0.00103 1e-05
-0.0125189 0.00103134 1e-05
-0.0122607 0.0010327 1e-05
-0.0120025 0.00103407 1e-05
-0.0117547 0.00103541 1e-05
-0.0115068 0.00103675 1e-05
-0.0112589 0.00103809 1e-05
-0.0110111 0.00103945 1e-05
-0.0107632 0.00104081 1e-05
-0.0105252 0.00104211 1e-05
-0.0102873 0.00104342 1e-05
-0.0100493 0.00104473 1e-05
-0.00981133 0.00104604 1e-05
-0.00957337 0.00104736 1e-05
-0.00934491 0.00104861 1e-05
-0.00911645 0.00104988 1e-05
-0.00888799 0.00105113 1e-05
-0.00865954 0.00105239 1e-05
-0.00843108 0.00105365 1e-05
-0.00821175 0.00105485 1e-05
-0.00799242 0.00105605 1e-05
-0.00777309 0.00105726 1e-05
-0.00755376 0.00105846 1e-05
-0.00733443 0.00105966 1e-05
-0.00712387 0.0010608 1e-05
-0.0069133 0.00106195 1e-05
-0.00670273 0.00106309 1e-05
-0.00649217 0.00106424 1e-05
-0.0062816 0.00106538 1e-05
-0.00607944 0.00106647 1e-05
-0.00587729 0.00106757 1e-05
-0.00567514 0.00106866 1e-05
-0.00547298 0.00106976 1e-05
-0.00527083 0.00107085 1e-05
-0.00507675 0.0010719 1e-05
-0.00488267 0.00107295 1e-05
-0.0046886 0.00107401 1e-05
-0.00449452 0.00107506 1e-05
-0.00430044 0.00107612 1e-05
-0.00411412 0.00107713 1e-05
-0.0039278 0.00107815 1e-05
-0.00374147 0.00107918 1e-05
-0.00355515 0.00108021 1e-05
-0.00336883 0.00108124 1e-05
-0.00318995 0.00108223 1e-05
-0.00301107 0.00108323 1e-05
-0.00283219 0.00108425 1e-05
-0.00265331 0.00108527 1e-05
-0.00247443 0.0010863 1e-05
-0.0023027 0.0010873 1e-05
-0.00213097 0.00108832 1e-05
-0.00195924 0.00108936 1e-05
-0.00178751 0.00109041 1e-05
-0.00161577 0.00109147 1e-05
-0.0014509 0.0010925 1e-05
-0.00128603 0.00109357 1e-05
-0.00112116 0.00109466 1e-05
-0.00095629 0.00109579 1e-05
-0.000791418 0.00109695 1e-05
-0.000633135 0.0010981 1e-05
-0.000474851 0.00109929 1e-05
-0.000316568 0.00110053 1e-05
-0.000158286 0.0011018 1e-05
0 0.00110312 1e-05
0.000105677 0.00110402 1e-05
0.000211355 0.00110495 1e-05
0.000317032 0.00110588 1e-05
0.000422709 0.00110682 1e-05
0.000528387 0.00110778 1e-05
0.000634886 0.00110874 1e-05
0.000741385 0.00110971 1e-05
0.000847885 0.00111067 1e-05
0.000954384 0.00111162 1e-05
0.00106088 0.00111257 1e-05
0.00116821 0.00111353 1e-05
0.00127554 0.00111447 1e-05
0.00138286 0.0011154 1e-05
0.00149019 0.00111631 1e-05
0.00159752 0.00111722 1e-05
0.00170568 0.00111811 1e-05
0.00181384 0.001119 1e-05
0.001922 0.00111988 1e-05
0.00203016 0.00112074 1e-05
0.00213833 0.00112159 1e-05
0.00224733 0.00112242 1e-05
0.00235633 0.00112326 1e-05
0.00246533 0.00112408 1e-05
0.00257434 0.00112488 1e-05
0.00268334 0.00112568 1e-05
0.00279319 0.00112646 1e-05
0.00290304 0.00112724 1e-05
0.00301289 0.00112801 1e-05
0.00312274 0.00112877 1e-05
0.00323259 0.00112952 1e-05
0.00334329 0.00113025 1e-05
0.003454 0.00113099 1e-05
0.0035647 0.00113172 1e-05
0.0036754 0.00113243 1e-05
0.00378611 0.00113314 1e-05
0.00389767 0.00113384 1e-05
0.00400924 0.00113454 1e-05
0.0041208 0.00113523 1e-05
0.00423237 0.00113592 1e-05
0.00434393 0.00113659 1e-05
0.00445636 0.00113726 1e-05
0.00456879 0.00113793 1e-05
0.00468123 0.0011386 1e-05
0.00479366 0.00113926 1e-05
0.00490609 0.00113991 1e-05
0.0050194 0.00114055 1e-05
0.0051327 0.0011412 1e-05
0.00524601 0.00114185 1e-05
0.00535931 0.00114249 1e-05
0.00547262 0.00114313 1e-05
0.00558681 0.00114375 1e-05
0.005701 0.00114439 1e-05
0.00581518 0.00114502 1e-05
0.00592937 0.00114564 1e-05
0.00604356 0.00114627 1e-05
0.00615863 0.00114688 1e-05
0.00627371 0.00114751 1e-05
0.00638878 0.00114813 1e-05
0.00650386 0.00114875 1e-05
0.00661893 0.00114937 1e-05
0.0067349 0.00114998 1e-05
0.00685087 0.0011506 1e-05
0.00696684 0.00115123 1e-05
0.00708281 0.00115185 1e-05
0.00719878 0.00115247 1e-05
0.00731565 0.00115308 1e-05
0.00743252 0.0011537 1e-05
0.00754939 0.00115433 1e-05
0.00766626 0.00115496 1e-05
0.00778313 0.00115558 1e-05
0.00790091 0.0011562 1e-05
0.00801869 0.00115684 1e-05
0.00813647 0.00115748 1e-05
0.00825425 0.00115811 1e-05
0.00837203 0.00115875 1e-05
0.00849073 0.00115938 1e-05
0.00860942 0.00116003 1e-05
0.00872812 0.00116069 1e-05
0.00884682 0.00116134 1e-05
0.00896551 0.001162 1e-05
0.00908513 0.00116264 1e-05
0.00920475 0.00116331 1e-05
0.00932437 0.00116398 1e-05
0.00944398 0.00116466 1e-05
0.0095636 0.00116533 1e-05
0.00968415 0.001166 1e-05
0.0098047 0.00116669 1e-05
0.00992525 0.00116739 1e-05
0.0100458 0.00116808 1e-05
0.0101663 0.00116878 1e-05
0.0102878 0.00116947 1e-05
0.0104093 0.00117019 1e-05
0.0105308 0.0011709 1e-05
0.0106523 0.00117162 1e-05
0.0107738 0.00117235 1e-05
0.0108962 0.00117307 1e-05
0.0110186 0.0011738 1e-05
0.0111411 0.00117454 1e-05
0.0112635 0.00117529 1e-05
0.0113859 0.00117604 1e-05
0.0115093 0.00117678 1e-05
0.0116327 0.00117755 1e-05
0.0117561 0.00117831 1e-05
0.0118795 0.00117908 1e-05
0.0120028 0.00117986 1e-05
0.0121272 0.00118063 1e-05
0.0122515 0.00118142 1e-05
0.0123759 0.00118222 1e-05
0.0125002 0.00118301 1e-05
0.0126245 0.00118381 1e-05
0.0127498 0.00118462 1e-05
0.0128752 0.00118544 1e-05
0.0130005 0.00118626 1e-05
0.0131258 0.00118708 1e-05
0.0132511 0.00118791 1e-05
0.0133774 0.00118874 1e-05
0.0135036 0.00118959 1e-05
0.0136299 0.00119043 1e-05
0.0137562 0.00119128 1e-05
0.0138825 0.00119214 1e-05
0.0140098 0.001193 1e-05
0.014137 0.00119387 1e-05
0.0142643 0.00119474 1e-05
0.0143915 0.00119562 1e-05
0.0145188 0.0011965 1e-05
0.0146471 0.00119739 1e-05
0.0147753 0.00119829 1e-05
0.0149036 0.00119919 1e-05
0.0150318 0.00120009 1e-05
0.0151601 0.001201 1e-05
0.0151838 0.00120117 1e-05
0.0152076 0.00120134 1e-05
0.0152313 0.00120151 1e-05
0.0152551 0.00120168 1e-05
0.0152791 0.00120185 1e-05
0.0153846 0.0012026 1e-05
0.01549 0.00120335 1e-05
0.0155954 0.00120411 1e-05
0.0157009 0.00120487 1e-05
0.0158063 0.00120563 1e-05
0.0159366 0.00120657 1e-05
0.0160668 0.00120752 1e-05
0.0161971 0.00120847 1e-05
0.0163274 0.00120942 1e-05
0.0164576 0.00121038 1e-05
0.0165889 0.00121135 1e-05
0.0167201 0.00121232 1e-05
0.0168514 0.00121329 1e-05
0.0169827 0.00121427 1e-05
0.0171139 0.00121525 1e-05
0.0172462 0.00121624 1e-05
0.0173785 0.00121723 1e-05
0.0175108 0.00121823 1e-05
0.0176431 0.00121923 1e-05
0.0177754 0.00122023 1e-05
0.0179087 0.00122124 1e-05
0.018042 0.00122226 1e-05
0.0181753 0.00122328 1e-05
0.0183087 0.0012243 1e-05
0.018442 0.00122532 1e-05
0.0185763 0.00122636 1e-05
0.0187107 0.0012274 1e-05
0.018845 0.00122844 1e-05
0.0189794 0.00122948 1e-05
0.0191137 0.00123053 1e-05
0.0192491 0.00123159 1e-05
0.0193845 0.00123265 1e-05
0.0195199 0.00123372 1e-05
0.0196553 0.00123478 1e-05
0.0197907 0.00123585 1e-05
0.0199272 0.00123693 1e-05
0.0200636 0.00123801 1e-05
0.0202001 0.0012391 1e-05
0.0203365 0.00124018 1e-05
0.020473 0.00124127 1e-05
0.0206105 0.00124237 1e-05
0.020748 0.00124346 1e-05
0.0208855 0.00124456 1e-05
0.021023 0.00124566 1e-05
0.0211606 0.00124676 1e-05
0.0212991 0.00124788 1e-05
0.0214377 0.00124899 1e-05
0.0215763 0.00125011 1e-05
0.0217149 0.00125122 1e-05
0.0218535 0.00125234 1e-05
0.0219931 0.00125347 1e-05
0.0221328 0.00125459 1e-05
0.0222724 0.00125572 1e-05
0.0224121 0.00125684 1e-05
0.0225517 0.00125797 1e-05
0.0226925 0.00125911 1e-05
0.0228332 0.00126024 1e-05
0.022974 0.00126138 1e-05
0.0231147 0.00126251 1e-05
0.0232555 0.00126364 1e-05
0.0233973 0.00126479 1e-05
0.0235391 0.00126593 1e-05
0.023681 0.00126707 1e-05
0.0238228 0.00126821 1e-05
0.0239647 0.00126935 1e-05
0.0241076 0.00127051 1e-05
0.0242505 0.00127165 1e-05
0.0243935 0.0012728 1e-05
0.0245364 0.00127395 1e-05
0.0246794 0.00127509 1e-05
0.0248234 0.00127626 1e-05
0.0249675 0.00127741 1e-05
0.0251115 0.00127856 1e-05
0.0252556 0.00127972 1e-05
[...]
POINT_DATA 12073
 FIELD attributes 1
U 3 12073 float
10.0004 	0.00735453 	0 10.0004 	0.00588362 	0 10.0003 	0.00441272 	0 10.0002 	0.00294181 	0 10.0001 	0.00147091 	0 10 	0 	0
10 	0.000904243 	0 10 	0.000723395 	0 10 	0.000542546 	0 10 	0.000361697 	0 10 	0.000180849 	0 10 	0 	0
10.0001 	0.000503427 	0 10.0001 	0.000402602 	0 10.0001 	0.000301777 	0 10 	0.000200951 	0 10 	0.000100126 	0 10 	0 	0
10 	0.000319626 	0 10 	0.000255701 	0 10 	0.000191776 	0 10 	0.000127851 	0 10 	6.39253e-05 	0 10 	0 	0
10 	0.000137624 	0 10 	0.000110099 	0 10 	8.25745e-05 	0 10 	5.50497e-05 	0 10 	2.75248e-05 	0 10 	0 	0
10 	2.8262e-05 	0 10 	2.26096e-05 	0 10 	1.69572e-05 	0 10 	1.13048e-05 	0 10 	5.6524e-06 	0 10 	0 	0
10 	-0.00017349 	0 10 	-0.000138792 	0 10 	-0.000104094 	0 10 	-6.93959e-05 	0 10 	-3.46979e-05 	0 10 	0 	0
10 	-0.000347636 	0 10 	-0.000278109 	0 10 	-0.000208582 	0 10 	-0.000139054 	0 10 	-6.95272e-05 	0 10 	0 	0
9.99999 	-0.000407682 	0 9.99999 	-0.000326145 	0 9.99999 	-0.000244609 	0 10 	-0.000163073 	0 10 	-8.15363e-05 	0 10 	0 	0
9.17388 	0.0871292 	0 9.13081 	0.0697034 	0 9.08741 	0.0522773 	0 9.04369 	0.0348509 	0 8.99963 	0.0174244 	0 8.95524 	0 	0
10.0004 	0.00735453 	0 10.0024 	0.015234 	0 10.0045 	0.0222771 	0 10.0065 	0.0292756 	0 10.0085 	0.0362297 	0 10.0135 	0.0464402 	0 10.0163 	0.0403454 	0 10.0207 	0.0403197 	0 10.0251 	0.0402941 	0 10.0295 	0.0402686 	0 10.0354 	0.0447419 	0 10.0382 	0.0381433 	0 10.0421 	0.0381276 	0 10.046 	0.038112 	0 10.0499 	0.0380963 	0 10.0539 	0.041205 	0 10.056 	0.039181 	0 10.0584 	0.0405238 	0 10.0607 	0.0418682 	0 10.0631 	0.0432144 	0 10.0651 	0.0456802 	0 10.0665 	0.0458132 	0 10.0677 	0.0470136 	0 10.0688 	0.0482152 	0 10.07 	0.0494178 	0 10.071 	0.0504344 	0 10.0711 	0.0505396 	0 10.0712 	0.0506448 	0 10.0713 	0.05075 	0 10.0714 	0.0508553 	0 10.0715 	0.0509451 	0 10.0719 	0.0516229 	0 10.0723 	0.0522905 	0 10.0726 	0.0529587 	0 10.073 	0.0536274 	0 10.0733 	0.0541258 	0 10.073 	0.0544817 	0 10.0725 	0.0547276 	0 10.0719 	0.0549736 	0 10.0714 	0.0552198 	0 10.0707 	0.0552228 	0 10.07 	0.0554399 	0 10.0687 	0.0554835 	0 10.0674 	0.0555272 	0 10.066 	0.0555709 	0 10.0642 	0.0553427 	0 10.0636 	0.055511 	0 10.0617 	0.0554598 	0 10.0598 	0.0554085 	0 10.0579 	0.0553572 	0 10.055 	0.0550199 	0 10.0547 	0.0551863 	0 10.0524 	0.0550976 	0 10.05 	0.0550089 	0 10.0476 	0.0549202 	0 10.0437 	0.0545366 	0 10.044 	0.0547385 	0 10.0413 	0.0546594 	0 10.0385 	0.0545802 	0 10.0358 	0.0545011 	0 10.0307 	0.0541239 	0 10.0318 	0.0543974 	0 10.0288 	0.0543642 	0 10.0258 	0.0543309 	0 10.0228 	0.0542976 	0 10.0164 	0.053959 	0 10.0185 	0.0543354 	0 10.0152 	0.0543959 	0 10.012 	0.0544565 	0 10.0087 	0.0545171 	0 10.001 	0.0542809 	0 10.0043 	0.0548168 	0 10.0008 	0.0550142 	0 9.99733 	0.0552116 	0 9.99386 	0.0554092 	0 9.98471 	0.055307 	0 9.9892 	0.0560809 	0 9.98561 	0.0565984 	0 9.98202 	0.0571161 	0 9.97843 	0.057634 	0 9.96794 	0.057926 	0 9.97389 	0.0591605 	0 9.97019 	0.0600501 	0 9.96649 	0.06094 	0 9.9628 	0.0618302 	0 9.95081 	0.0623918 	0 9.95846 	0.0641352 	0 9.95516 	0.0661265 	0 9.95188 	0.068118 	0 9.94861 	0.0701099 	0 9.93579 	0.0719977 	0 9.94607 	0.0749158 	5.24653e-22 9.94462 	0.0775933 	6.13837e-21 9.9432 	0.0802713 	1.1749e-20 9.9418 	0.0829498 	1.73565e-20 9.92939 	0.0845617 	1.37014e-20 9.94233 	0.0865847 	1.14134e-19 9.94211 	0.0877207 	1.07203e-19 9.94191 	0.0888568 	1.00287e-19 9.94171 	0.089993 	9.3386e-20 9.92928 	0.0899574 	-1.83865e-20 9.94323 	0.0901191 	-5.1211e-20 9.94309 	0.0896587 	-5.65828e-20 9.94294 	0.0891984 	-6.19519e-20 9.94279 	0.0887381 	-6.73182e-20 9.92959 	0.0879337 	-2.16963e-20 9.9434 	0.0872848 	-1.96708e-20 9.94209 	0.0860608 	-1.3303e-20 9.94078 	0.0848367 	-6.93616e-21 9.93946 	0.0836126 	-5.70394e-22 9.92472 	0.0823609 	1.00761e-20 9.93833 	0.0817349 	-2.0784e-21 9.93585 	0.0804003 	-2.28369e-20 9.93337 	0.0790654 	-4.35992e-20 9.93088 	0.0777303 	-6.43652e-20 9.91455 	0.0761959 	-9.67265e-20 9.92821 	0.075826 	-1.57174e-19 9.92475 	0.0746367 	-1.43713e-19 9.92129 	0.0734471 	-1.30239e-19 9.91782 	0.0722572 	-1.16753e-19 9.89992 	0.0706219 	-3.14909e-20 9.91383 	0.0704666 	6.60663e-20 9.90947 	0.069431 	8.16616e-20 9.90511 	0.068395 	9.72424e-20 9.90073 	0.0673588 	1.12809e-19 9.88121 	0.0657448 	3.97701e-20 9.89549 	0.0658053 	-1.00899e-19 9.89026 	0.0649324 	-1.08473e-19 9.88502 	0.0640591 	-1.16028e-19 9.87977 	0.0631855 	-1.23563e-19 9.85855 	0.0616465 	-1.61636e-22 9.87327 	0.0619612 	1.2063e-19 9.86718 	0.061247 	1.11015e-19 9.86107 	0.0605324 	1.01384e-19 9.85496 	0.0598175 	9.17367e-20 9.83198 	0.0583234 	-2.29123e-20 9.84713 	0.0588616 	-1.14793e-19 9.84019 	0.0582687 	-1.40086e-19 9.83324 	0.0576755 	-1.65373e-19 9.82629 	0.057082 	-1.90656e-19 9.80155 	0.0556129 	-1.34174e-19 9.81703 	0.0563567 	-1.93483e-19 9.80927 	0.0558716 	-1.79787e-19 9.80151 	0.0553861 	-1.66089e-19 9.79374 	0.0549004 	-1.52387e-19 9.76733 	0.0534608 	-7.73988e-20 9.78296 	0.0544081 	-7.04689e-20 9.77443 	0.0540325 	-4.9666e-20 9.76591 	0.0536567 	-2.88641e-20 9.75737 	0.0532806 	-8.06313e-21 9.72951 	0.0518791 	7.02746e-21 9.74506 	0.0530232 	0 9.73583 	0.0527592 	0 9.72661 	0.0524951 	0 9.71738 	0.0522308 	0 9.68836 	0.0508721 	0 9.70352 	0.0521864 	-9.28535e-21 9.69368 	0.0520257 	-3.01784e-20 9.68383 	0.0518649 	-5.10717e-20 9.67398 	0.0517039 	-7.19653e-20 9.64415 	0.05039 	-9.98279e-20 9.65858 	0.0518345 	-1.3756e-19 9.64818 	0.0517666 	-1.38527e-19 9.63778 	0.0516986 	-1.39494e-19 9.62738 	0.0516307 	-1.4046e-19 9.59715 	0.0503734 	-1.06136e-19 9.61046 	0.0519109 	-2.29483e-20 9.59955 	0.0519271 	1.01894e-20 9.58864 	0.0519434 	4.33284e-20 9.57773 	0.0519598 	7.64687e-20 9.54751 	0.0507715 	5.58816e-20 9.55935 	0.0523492 	9.48306e-20 9.54799 	0.0524392 	9.55691e-20 9.53663 	0.0525294 	9.63094e-20 9.52528 	0.0526198 	9.70515e-20 9.49547 	0.051525 	6.2124e-20 9.5055 	0.053081 	4.83194e-20 9.49378 	0.0532276 	3.51083e-20 9.48205 	0.0533746 	2.18968e-20 9.47034 	0.0535218 	8.68484e-21 9.44138 	0.0525451 	0 9.44931 	0.0540211 	-8.756e-21 9.43729 	0.0542009 	-2.19391e-20 9.42528 	0.054381 	-3.51217e-20 9.41327 	0.0545614 	-4.83038e-20 9.38555 	0.0537142 	-6.19504e-20 9.39116 	0.0550671 	-9.41059e-20 9.37891 	0.0552643 	-1.01817e-19 9.36666 	0.055462 	-1.0953e-19 9.35443 	0.0556602 	-1.17247e-19 9.32827 	0.0549527 	-9.82475e-20 9.33139 	0.0561595 	-6.0191e-20 9.31897 	0.0563695 	-4.79549e-20 9.30656 	0.0565799 	-3.57129e-20 9.29415 	0.0567908 	-2.34652e-20 9.26979 	0.056233 	-3.8343e-20 9.27037 	0.0572813 	-3.06288e-20 9.25783 	0.0575007 	-2.26111e-20 9.2453 	0.0577205 	-1.45931e-20 9.23278 	0.0579408 	-6.57476e-21 9.2104 	0.0575359 	-2.11804e-21 9.20844 	0.0584168 	0 9.19584 	0.0586377 	0 9.18325 	0.0588591 	0 9.17067 	0.059081 	0 9.15034 	0.0588216 	0 9.14594 	0.0595371 	6.73324e-21 9.13333 	0.0597564 	1.45629e-20 9.12073 	0.0599762 	2.23922e-20 9.10813 	0.0601966 	3.02212e-20 9.08987 	0.0600741 	3.66856e-20 9.0832 	0.060628 	2.71083e-20 9.07062 	0.0608361 	2.78132e-20 9.05805 	0.0610447 	2.85127e-20 9.04548 	0.0612538 	2.92067e-20 9.02923 	0.0612466 	3.68796e-20 9.02051 	0.0616491 	3.09547e-20 9.00801 	0.0618388 	2.41675e-20 8.99551 	0.062029 	1.738e-20 8.98302 	0.0622196 	1.0592e-20 8.96866 	0.0623047 	2.71315e-21 8.95816 	0.0625811 	2.7762e-23 8.94576 	0.0627569 	-1.91688e-22 8.93337 	0.0629332 	-4.1548e-22 8.92099 	0.0631099 	-6.43633e-22 8.90835 	0.0632726 	-4.17581e-22 8.90636 	0.063315 	-1.24884e-21 8.90411 	0.0633441 	-2.85096e-21 8.90185 	0.0633732 	-4.45293e-21 8.8996 	0.0634023 	-6.05476e-21 8.89732 	0.0634318 	-7.67707e-21 8.88726 	0.0635586 	-1.47607e-20 8.8772 	0.0636856 	-2.18415e-20 8.86715 	0.0638129 	-2.89196e-20 8.85711 	0.0639405 	-3.5995e-20 8.84676 	0.0641163 	-4.09189e-20 8.83492 	0.0642073 	-4.43873e-20 8.82274 	0.0643394 	-4.4522e-20 8.81058 	0.064472 	-4.46513e-20 8.79842 	0.064605 	-4.4775e-20 8.78573 	0.0648479 	-3.70432e-20 8.77436 	0.0648617 	-2.87429e-20 8.76236 	0.0649682 	-2.13946e-20 8.75037 	0.0650751 	-1.40465e-20 8.73839 	0.0651824 	-6.69877e-21 8.72577 	0.0654612 	0 8.7148 	0.0654061 	0 8.70301 	0.0654964 	0 8.69123 	0.065587 	0 8.67945 	0.0656779 	0 8.66702 	0.0660017 	4.03838e-22 8.6564 	0.0659019 	0 8.64483 	0.0659964 	0 8.63327 	0.0660913 	0 8.62172 	0.0661865 	0 8.60955 	0.0665698 	5.019e-22 8.59922 	0.0664364 	5.89819e-21 8.58789 	0.0665328 	1.2816e-20 8.57656 	0.0666295 	1.97339e-20 8.56524 	0.0667266 	2.66522e-20 8.55339 	0.067151 	3.57245e-20 8.54333 	0.0669519 	5.96073e-20 8.53224 	0.0670068 	6.02758e-20 8.52116 	0.067062 	6.09407e-20 8.51008 	0.0671174 	6.16021e-20 8.4986 	0.0675257 	3.53734e-20 8.48878 	0.0672369 	2.59907e-20 8.47796 	0.067241 	1.91031e-20 8.46715 	0.0672452 	1.22157e-20 8.45634 	0.0672495 	5.32832e-21 8.44526 	0.0676484 	7.4216e-22 8.43564 	0.0673103 	4.42651e-21 8.42509 	0.0672969 	1.01595e-20 8.41454 	0.0672835 	1.58926e-20 8.40399 	0.0672703 	2.16257e-20 8.39334 	0.0676881 	2.50173e-20 8.38389 	0.0673109 	1.36374e-20 8.3736 	0.0672695 	1.3956e-20 8.36331 	0.0672282 	1.4275e-20 8.35302 	0.0671869 	1.45945e-20 8.34282 	0.0675919 	2.66524e-20 8.33351 	0.0671477 	6.04165e-20 8.32346 	0.0670576 	6.66132e-20 8.31341 	0.0669676 	7.28101e-20 8.30336 	0.0668775 	7.90071e-20 8.29362 	0.0672527 	5.71224e-20 8.2844 	0.0667554 	5.31999e-20 8.27458 	0.0666401 	5.272e-20 8.26475 	0.0665248 	5.22399e-20 8.25492 	0.0664094 	5.17596e-20 8.24564 	0.0667881 	5.32469e-20 8.2365 	0.066268 	1.97189e-20 8.22689 	0.0661492 	-2.7426e-20 8.21729 	0.0660303 	-7.45706e-20 8.20768 	0.0659114 	-1.21715e-19 8.19884 	0.0663089 	-1.70977e-19 8.18977 	0.0657686 	-2.19762e-19 8.18038 	0.0656468 	-2.20125e-19 8.17099 	0.0655249 	-2.20489e-19 8.1616 	0.0654029 	-2.20854e-19 8.15322 	0.0658162 	-1.62538e-19 8.14422 	0.0652448 	-9.14882e-20 8.13505 	0.0651122 	-5.57101e-20 8.12589 	0.0649795 	-1.99304e-20 8.11672 	0.0648467 	1.58507e-20 8.1088 	0.0652705 	-2.70261e-22 8.09988 	0.0646598 	-3.8088e-20 8.09094 	0.0645093 	-3.87465e-20 8.082 	0.0643587 	-3.94064e-20 8.07305 	0.064208 	-4.00677e-20 8.06556 	0.0646377 	-6.00824e-21 8.05671 	0.0639942 	1.17135e-20 8.04798 	0.0638375 	3.38409e-20 8.03924 	0.0636805 	5.59679e-20 8.0305 	0.0635235 	7.80946e-20 8.02344 	0.0639747 	1.00155e-19 8.01467 	0.0633084 	9.01404e-20 8.00615 	0.0631542 	9.00754e-20 7.99763 	0.0629999 	9.00095e-20 7.9891 	0.0628455 	8.99429e-20 7.98246 	0.0633248 	9.77206e-20 7.97378 	0.0626328 	7.27793e-20 7.96547 	0.0624756 	4.01766e-20 7.95715 	0.0623182 	7.57374e-21 7.94882 	0.0621607 	-2.50294e-20 7.94257 	0.0626606 	-5.22063e-20 7.93398 	0.0619438 	8.61619e-21 7.92585 	0.0617799 	1.98484e-20 7.91772 	0.0616159 	3.10825e-20 7.90959 	0.0614518 	4.23186e-20 7.9037 	0.0619664 	-1.55925e-21 7.89517 	0.0612332 	5.2258e-20 7.88722 	0.0610675 	6.32165e-20 7.87926 	0.0609016 	7.41765e-20 7.8713 	0.0607357 	8.51381e-20 7.86577 	0.0612665 	4.82008e-20 7.85728 	0.0605217 	4.63409e-20 7.8495 	0.0603614 	5.5715e-20 7.84172 	0.0602011 	6.50885e-20 7.83393 	0.0600406 	7.44614e-20 7.82879 	0.0605963 	9.01888e-20 7.82033 	0.0598342 	7.8244e-20 7.81274 	0.059671 	7.81721e-20 7.80514 	0.0595076 	7.80993e-20 7.79754 	0.0593441 	7.80257e-20 7.79282 	0.0599178 	9.04177e-20 7.78438 	0.0591332 	6.97597e-20 7.77697 	0.0589644 	4.90494e-20 7.76955 	0.0587954 	2.83386e-20 7.76213 	0.0586263 	7.62739e-21 7.75783 	0.0592212 	0 7.74938 	0.0584158 	-6.99491e-21 7.74217 	0.0582462 	-2.62649e-20 7.73495 	0.0580765 	-4.55343e-20 7.72773 	0.0579067 	-6.48034e-20 7.72393 	0.0585297 	-8.41225e-20 7.71551 	0.0576932 	-7.75275e-20 7.70852 	0.0575054 	-9.63802e-20 7.70153 	0.0573174 	-1.15231e-19 7.69453 	0.0571292 	-1.3408e-19 7.69121 	0.0577629 	-1.66435e-19 7.68281 	0.0568885 	-1.39265e-19 7.67604 	0.0566817 	-1.38096e-19 7.66927 	0.0564747 	-1.36924e-19 7.66249 	0.0562675 	-1.35749e-19 7.65971 	0.0569193 	-1.62464e-19 7.65131 	0.0560126 	-1.24511e-19 7.64481 	0.0557926 	-8.67689e-20 7.6383 	0.0555723 	-4.90257e-20 7.63178 	0.0553519 	-1.12811e-20 7.62962 	0.0560248 	-8.72342e-21 7.62129 	0.0550706 	-5.18069e-20 7.61509 	0.0548104 	-3.32827e-20 7.60887 	0.0545499 	-1.47627e-20 7.60265 	0.0542891 	3.75309e-21 7.60111 	0.0549549 	7.18326e-20 7.59284 	0.0539393 	5.63093e-20 7.58695 	0.0536279 	1.98646e-20 7.58105 	0.0533163 	-1.65802e-20 7.57514 	0.0530044 	-5.30251e-20 7.57428 	0.0536611 	-7.441e-20 7.56607 	0.0525888 	-5.66837e-20 7.56054 	0.0522353 	-3.9278e-20 7.55499 	0.0518814 	-2.18711e-20 7.54944 	0.0515273 	-4.46293e-21 7.54935 	0.052186 	-5.47249e-21 7.54125 	0.0510503 	1.29764e-21 7.53613 	0.0506456 	1.96045e-20 7.53099 	0.0502406 	3.791e-20 7.52584 	0.0498352 	5.6214e-20 7.52657 	0.0504867 	5.59943e-20 7.51863 	0.0492713 	-6.04499e-20 7.51395 	0.0487965 	-7.08694e-20 7.50926 	0.0483214 	-8.13044e-20 7.50455 	0.0478459 	-9.17549e-20 7.50613 	0.0484703 	2.48009e-20 7.4984 	0.0471577 	8.68014e-20 7.49419 	0.0465946 	7.02856e-20 7.48997 	0.0460311 	5.37776e-20 7.48573 	0.0454671 	3.72771e-20 7.48818 	0.0460441 	-2.93142e-20 7.48069 	0.0446148 	-2.59741e-20 7.47698 	0.0439439 	-3.41864e-20 7.47324 	0.0432726 	-4.23951e-20 7.46949 	0.0426008 	-5.06004e-20 7.47282 	0.0431104 	-6.69826e-20 7.4656 	0.041545 	-5.03761e-20 7.4624 	0.0407474 	-4.93589e-20 7.45917 	0.0399492 	-4.83362e-20 7.45604 	0.0391715 	-4.76011e-20 7.46013 	0.0395758 	-6.34749e-20 7.45334 	0.0378867 	-4.74077e-20 7.45051 	0.0369192 	-4.61302e-20 7.44779 	0.0359766 	-4.53651e-20 7.44551 	0.0351079 	-4.65601e-20 7.45016 	0.0353537 	-7.72006e-20 7.44387 	0.0335375 	-1.67858e-19 7.44137 	0.0323704 	-1.61998e-19 7.43918 	0.0312607 	-1.47558e-19 7.43779 	0.030281 	-1.20749e-19 7.44297 	0.0303318 	4.09477e-21 7.43722 	0.0283643 	1.19995e-19 7.43503 	0.0269691 	1.36142e-19 7.43338 	0.0256627 	1.36771e-19 7.43292 	0.024544 	1.20356e-19 7.4386 	0.0243619 	1.88675e-20 7.4334 	0.0222131 	1.35767e-21 7.43152 	0.020558 	-7.21003e-21 7.4304 	0.0190214 	-1.36237e-20 7.43092 	0.0177317 	-2.03125e-20 7.43708 	0.0172769 	-2.79383e-20 7.43247 	0.0149145 	-7.83972e-20 7.43087 	0.0129688 	-9.20433e-20 7.43029 	0.0111697 	-9.27354e-20 7.43182 	0.00967877 	-7.81811e-20 7.43842 	0.00891774 	-2.74888e-20 7.43441 	0.00631484 	-1.96561e-20 7.43306 	0.00404685 	-1.67463e-20 7.43302 	0.00194815 	-1.63215e-20 7.43561 	0.000217802 	-1.88354e-20 7.44263 	-0.00089643 	-2.62705e-20 7.43924 	-0.00377885 	-7.55128e-20 7.43811 	-0.00639224 	-9.67623e-20 7.43859 	-0.00880955 	-9.76238e-20 7.44224 	-0.0107895 	-7.52315e-20 7.44962 	-0.0122593 	-2.57037e-20 7.44684 	-0.0154153 	-1.8008e-20 7.44585 	-0.0183633 	-1.05035e-20 7.44683 	-0.0210863 	-3.2065e-21 7.45155 	-0.0233058 	0 7.45921 	-0.0251305 	0 7.45702 	-0.0285577 	0 7.45613 	-0.0318481 	0 7.45753 	-0.0349049 	0 7.46329 	-0.0374309 	0 7.47113 	-0.039698 	0 7.46948 	-0.0434958 	0 7.4686 	-0.0472289 	3.17162e-21 7.47036 	-0.0507613 	1.64145e-20 7.47711 	-0.0537836 	4.08916e-20 7.48505 	-0.0566766 	6.81905e-20 7.48391 	-0.0610284 	1.50556e-19 7.48297 	-0.0653598 	2.23783e-19 7.48494 	-0.0695141 	2.06757e-19 7.49246 	-0.0731501 	9.90068e-20 7.50025 	-0.0767524 	-1.42623e-20 7.49937 	-0.0817334 	-1.74126e-19 7.49837 	-0.0867109 	-3.33978e-19 7.50077 	-0.0914513 	-3.54492e-19 7.50848 	-0.0957035 	-2.38184e-19 7.5161 	-0.0999527 	-1.21863e-19 7.51542 	-0.10551 	-2.37462e-19 7.51461 	-0.111062 	-3.53053e-19 7.51746 	-0.11635 	-3.32198e-19 7.52497 	-0.121253 	-1.71599e-19 7.53238 	-0.126153 	-1.09741e-20 7.53185 	-0.132288 	1.0271e-19 7.53118 	-0.138418 	2.16406e-19 7.53441 	-0.14428 	2.2912e-19 7.54159 	-0.149873 	1.39748e-19 7.54865 	-0.155462 	5.04069e-20 7.54817 	-0.162211 	8.83549e-20 7.54754 	-0.168953 	1.26356e-19 7.55106 	-0.175425 	1.18623e-19 7.55781 	-0.181732 	8.08986e-20 7.56442 	-0.188035 	4.31727e-20 7.56389 	-0.195429 	2.66371e-20 7.56321 	-0.202815 	1.0115e-20 7.5671 	-0.209929 	-2.85473e-21 7.57315 	-0.216985 	5.8214e-21 7.57921 	-0.224031 	1.60593e-20 7.57853 	-0.232105 	3.51533e-21 7.57902 	-0.240111 	-4.36733e-21 7.58249 	-0.247969 	-1.283e-21 7.58712 	-0.255806 	0 7.59254 	-0.26363 	0 7.59161 	-0.272424 	0 7.59316 	-0.281121 	1.00656e-20 7.59611 	-0.289758 	2.6067e-20 7.59925 	-0.298387 	4.44007e-20 7.60391 	-0.307016 	7.30587e-20 7.60262 	-0.316565 	2.73066e-19 7.6051 	-0.326023 	2.72358e-19 7.6074 	-0.33547 	2.70435e-19 7.60952 	-0.344906 	2.6813e-19 7.61278 	-0.354356 	1.23484e-19 7.61249 	-0.364678 	9.78938e-20 7.61424 	-0.37497 	7.09675e-20 7.61578 	-0.385249 	4.41072e-20 7.61711 	-0.395517 	1.7313e-20 7.61855 	-0.405786 	-6.8602e-21 7.61837 	-0.409552 	-2.17663e-20 7.61871 	-0.413319 	-2.02271e-20 7.61903 	-0.417084 	-1.86576e-20 7.61932 	-0.420848 	-1.70578e-20 7.61957 	-0.424316 	-1.5555e-20 7.61987 	-0.43167 	-1.93883e-20 7.62008 	-0.439017 	-2.3212e-20 7.62018 	-0.446357 	-2.7026e-20 7.62019 	-0.45369 	-3.08304e-20 7.62124 	-0.46109 	-3.48371e-20 7.62044 	-0.472906 	1.07183e-21 7.62002 	-0.484768 	1.5834e-20 7.61935 	-0.496613 	3.077e-20 7.61845 	-0.50844 	4.58797e-20 7.62009 	-0.520468 	-1.8277e-21 7.6175 	-0.533048 	5.53825e-20 7.61573 	-0.545713 	7.04218e-20 7.61387 	-0.558376 	7.85669e-20 7.61312 	-0.571138 	5.63026e-20 7.61369 	-0.58403 	-6.30093e-22 7.61 	-0.597443 	5.73454e-20 7.60606 	-0.610838 	1.13836e-19 7.60313 	-0.624315 	1.22651e-19 7.60236 	-0.637999 	7.12059e-20 7.60132 	-0.651682 	1.96732e-20 7.59635 	-0.665893 	1.09035e-20 7.5911 	-0.680083 	2.11197e-21 7.58759 	-0.694438 	0 7.58506 	-0.708842 	0 7.58224 	-0.723249 	0 7.57585 	-0.738202 	0 7.57034 	-0.75324 	0 7.5656 	-0.768352 	0 7.56057 	-0.78344 	2.57135e-22 7.55578 	-0.798487 	1.2877e-20 7.54926 	-0.811972 	3.08297e-21 7.54389 	-0.825541 	1.89249e-20 7.53828 	-0.839092 	3.48072e-20 7.53244 	-0.852627 	5.07298e-20 7.52733 	-0.864001 	6.41632e-20 7.52607 	-0.866588 	6.6178e-20 7.52479 	-0.869174 	6.8191e-20 7.52351 	-0.871759 	7.02024e-20 7.52222 	-0.874343 	7.22119e-20 7.52131 	-0.876987 	7.35859e-20 7.5129 	-0.893156 	4.22802e-20 7.50434 	-0.909289 	2.29065e-20 7.49544 	-0.925396 	3.17493e-21 7.48633 	-0.941494 	-1.24397e-20 7.4792 	-0.957928 	5.28029e-20 7.46826 	-0.974634 	3.64388e-20 7.45713 	-0.991266 	1.56302e-20 7.44605 	-1.00777 	-1.50676e-20 7.43691 	-1.02447 	-1.77399e-20 7.4274 	-1.0412 	-2.03215e-20 7.41434 	-1.05827 	5.18086e-20 7.40098 	-1.07532 	1.22299e-19 7.38932 	-1.09244 	1.15421e-19 7.3775 	-1.10936 	7.91369e-20 7.3654 	-1.1262 	2.32189e-20 7.35244 	-1.1408 	3.35178e-20 7.34072 	-1.15534 	3.53678e-20 7.32887 	-1.16986 	3.6538e-20 7.31676 	-1.18435 	3.77688e-20 7.30606 	-1.19686 	3.88855e-20 7.30322 	-1.1999 	3.88156e-20 7.30037 	-1.20293 	3.87473e-20 7.2975 	-1.20596 	3.86808e-20 7.29465 	-1.20898 	3.74966e-20 7.29186 	-1.21198 	3.18175e-20 7.27503 	-1.22928 	3.97952e-20 7.25757 	-1.24632 	3.72263e-20 7.23972 	-1.26333 	3.47892e-20 7.22167 	-1.28016 	1.61628e-20 7.2034 	-1.29682 	-2.34224e-20 7.18425 	-1.31425 	-1.44305e-20 7.16468 	-1.33165 	-5.46082e-21 7.1449 	-1.34858 	6.28063e-21 7.12411 	-1.36468 	1.0682e-20 7.10281 	-1.38084 	1.51778e-20 7.08754 	-1.39267 	1.90864e-20 7.07214 	-1.40413 	2.272e-20 7.05657 	-1.41538 	2.62189e-20 7.04081 	-1.42662 	2.97525e-20 7.02644 	-1.43673 	3.29661e-20 7.01955 	-1.44199 	3.76878e-20 7.01261 	-1.44725 	4.24309e-20 7.00564 	-1.45251 	4.71953e-20 6.99834 	-1.45768 	4.46578e-20 6.9905 	-1.4627 	2.92012e-20 6.9693 	-1.47937 	1.99665e-20 6.94573 	-1.49516 	1.08016e-20 6.92176 	-1.51094 	1.60575e-21 6.89529 	-1.52589 	-1.3955e-20 6.86782 	-1.54072 	-3.10114e-20 6.84379 	-1.55651 	-2.38773e-20 6.81863 	-1.57193 	-2.14773e-20 6.79111 	-1.58645 	-3.17428e-20 6.76317 	-1.60093 	-4.21401e-20 6.73339 	-1.61492 	-5.6898e-20 6.72919 	-1.6172 	-5.58349e-20 6.72477 	-1.61938 	-5.3575e-20 6.72011 	-1.62143 	-5.00101e-20 6.71545 	-1.62349 	-4.64458e-20 6.71086 	-1.6255 	-4.29508e-20 6.68705 	-1.6373 	-2.28483e-20 6.66296 	-1.64909 	-2.75363e-21 6.63859 	-1.66086 	1.73329e-20 6.61278 	-1.67202 	2.70596e-20 6.58534 	-1.68261 	2.61011e-20 6.55669 	-1.69623 	5.73655e-20 6.52762 	-1.70983 	8.85128e-20 6.49587 	-1.72207 	6.29729e-20 6.46172 	-1.73323 	9.66796e-21 6.42625 	-1.74412 	-5.03168e-20 6.41418 	-1.74874 	-5.50175e-20 6.4016 	-1.75306 	-5.58007e-20 6.3883 	