# vtk DataFile Version 2.0
track0
ASCII
DATASET POLYDATA
POINTS 12073 float
-0.0205 0.001 1e-05
-0.02052 0.000999985 1e-05
-0.02054 0.000999974 1e-05
-0.02056 0.000999965 1e-05
-0.02058 0.000999959 1e-05
-0.0206 0.000999956 1e-05
-0.0205 0.00367778 1e-05
-0.02052 0.00367778 1e-05
-0.02054 0.00367777 1e-05
-0.02056 0.00367777 1e-05
-0.02058 0.00367777 1e-05
-0.0206 0.00367777 1e-05
-0.0205 0.00635556 1e-05
-0.02052 0.00635555 1e-05
-0.02054 0.00635555 1e-05
-0.02056 0.00635555 1e-05
-0.02058 0.00635555 1e-05
-0.0206 0.00635555 1e-05
-0.0205 0.00903333 1e-05
-0.02052 0.00903333 1e-05
-0.02054 0.00903333 1e-05
-0.02056 0.00903333 1e-05
-0.02058 0.00903333 1e-05
-0.0206 0.00903333 1e-05
-0.0205 0.0117111 1e-05
-0.02052 0.0117111 1e-05
-0.02054 0.0117111 1e-05
-0.02056 0.0117111 1e-05
-0.02058 0.0117111 1e-05
-0.0206 0.0117111 1e-05
-0.0205 0.0143889 1e-05
-0.02052 0.0143889 1e-05
-0.02054 0.0143889 1e-05
-0.02056 0.0143889 1e-05
-0.02058 0.0143889 1e-05
-0.0206 0.0143889 1e-05
-0.0205 0.0170667 1e-05
-0.02052 0.0170667 1e-05
-0.02054 0.0170667 1e-05
-0.02056 0.0170667 1e-05
-0.02058 0.0170667 1e-05
-0.0206 0.0170667 1e-05
-0.0205 0.0197444 1e-05
-0.02052 0.0197444 1e-05
-0.02054 0.0197444 1e-05
-0.02056 0.0197444 1e-05
-0.02058 0.0197444 1e-05
-0.0206 0.0197444 1e-05
-0.0205 0.0224222 1e-05
-0.02052 0.0224222 1e-05
-0.02054 0.0224222 1e-05
-0.02056 0.0224222 1e-05
-0.02058 0.0224222 1e-05
-0.0206 0.0224222 1e-05
-0.0205 0.0251 1e-05
-0.02052 0.0250998 1e-05
-0.02054 0.0250997 1e-05
-0.02056 0.0250995 1e-05
-0.02058 0.0250995 1e-05
-0.0206 0.0250994 1e-05
-0.0205 0.001 1e-05
-0.0202034 0.00100022 1e-05
-0.0199069 0.00100067 1e-05
-0.0196103 0.00100133 1e-05
-0.0193137 0.0010022 1e-05
-0.0190172 0.00100327 1e-05
-0.0187132 0.00100468 1e-05
-0.0184093 0.00100591 1e-05
-0.0181054 0.00100713 1e-05
-0.0178015 0.00100835 1e-05
-0.0174976 0.00100957 1e-05
-0.0172058 0.00101087 1e-05
-0.016914 0.00101198 1e-05
-0.0166222 0.00101309 1e-05
-0.0163305 0.00101419 1e-05
-0.0160387 0.0010153 1e-05
-0.0157586 0.00101645 1e-05
-0.0154784 0.00101754 1e-05
-0.0151983 0.00101867 1e-05
-0.0149182 0.00101983 1e-05
-0.0146381 0.00102104 1e-05
-0.0143834 0.00102219 1e-05
-0.0141286 0.00102335 1e-05
-0.0138739 0.00102454 1e-05
-0.0136192 0.00102576 1e-05
-0.013404 0.00102682 1e-05
-0.0133819 0.00102693 1e-05
-0.0133598 0.00102704 1e-05
-0.0133377 0.00102715 1e-05
-0.0133156 0.00102726 1e-05
-0.0132934 0.00102737 1e-05
-0.0130353 0.00102868 1e-05
-0.0127771 0.00103 1e-05
-0.0125189 0.00103134 1e-05
-0.0122607 0.0010327 1e-05
-0.0120025 0.00103407 1e-05
-0.0117547 0.00103541 1e-05
-0.0115068 0.00103675 1e-05
-0.0112589 0.00103809 1e-05
-0.0110111 0.00103945 1e-05
-0.0107632 0.00104081 1e-05
-0.0105252 0.00104211 1e-05
-0.0102873 0.00104342 1e-05
-0.0100493 0.00104473 1e-05
-0.00981133 0.00104604 1e-05
-0.00957337 0.00104736 1e-05
-0.00934491 0.00104861 1e-05
-0.00911645 0.00104988 1e-05
-0.00888799 0.00105113 1e-05
-0.00865954 0.00105239 1e-05
-0.00843108 0.00105365 1e-05
-0.00821175 0.00105485 1e-05
-0.00799242 0.00105605 1e-05
-0.00777309 0.00105726 1e-05
-0.00755376 0.00105846 1e-05
-0.00733443 0.00105966 1e-05
-0.00712387 0.0010608 1e-05
-0.0069133 0.00106195 1e-05
-0.00670273 0.00106309 1e-05
-0.00649217 0.00106424 1e-05
-0.0062816 0.00106538 1e-05
-0.00607944 0.00106647 1e-05
-0.00587729 0.00106757 1e-05
-0.00567514 0.00106866 1e-05
-0.00547298 0.00106976 1e-05
-0.00527083 0.00107085 1e-05
-0.00507675 0.0010719 1e-05
-0.00488267 0.00107295 1e-05
-0.0046886 0.00107401 1e-05
-0.00449452 0.00107506 1e-05
-0.00430044 0.00107612 1e-05
-0.00411412 0.00107713 1e-05
-0.0039278 0.00107815 1e-05
-0.00374147 0.00107918 1e-05
-0.00355515 0.00108021 1e-05
-0.00336883 0.00108124 1e-05
-0.00318995 0.00108223 1e-05
-0.00301107 0.00108323 1e-05
-0.00283219 0.00108425 1e-05
-0.00265331 0.00108527 1e-05
-0.00247443 0.0010863 1e-05
-0.0023027 0.0010873 1e-05
-0.00213097 0.00108832 1e-05
-0.00195924 0.00108936 1e-05
-0.00178751 0.00109041 1e-05
-0.00161577 0.00109147 1e-05
-0.0014509 0.0010925 1e-05
-0.00128603 0.00109357 1e-05
-0.00112116 0.00109466 1e-05
-0.00095629 0.00109579 1e-05
-0.000791418 0.00109695 1e-05
-0.000633135 0.0010981 1e-05
-0.000474851 0.00109929 1e-05
-0.000316568 0.00110053 1e-05
-0.000158286 0.0011018 1e-05
0 0.00110312 1e-05
0.000105677 0.00110402 1e-05
0.000211355 0.00110495 1e-05
0.000317032 0.00110588 1e-05
0.000422709 0.00110682 1e-05
0.000528387 0.00110778 1e-05
0.000634886 0.00110874 1e-05
0.000741385 0.00110971 1e-05
0.000847885 0.00111067 1e-05
0.000954384 0.00111162 1e-05
0.00106088 0.00111257 1e-05
0.00116821 0.00111353 1e-05
0.00127554 0.00111447 1e-05
0.00138286 0.0011154 1e-05
0.00149019 0.00111631 1e-05
0.00159752 0.00111722 1e-05
0.00170568 0.00111811 1e-05
0.00181384 0.001119 1e-05
0.001922 0.00111988 1e-05
0.00203016 0.00112074 1e-05
0.00213833 0.00112159 1e-05
0.00224733 0.00112242 1e-05
0.00235633 0.00112326 1e-05
0.00246533 0.00112408 1e-05
0.00257434 0.00112488 1e-05
0.00268334 0.00112568 1e-05
0.00279319 0.00112646 1e-05
0.00290304 0.00112724 1e-05
0.00301289 0.00112801 1e-05
0.00312274 0.00112877 1e-05
0.00323259 0.00112952 1e-05
0.00334329 0.00113025 1e-05
0.003454 0.00113099 1e-05
0.0035647 0.00113172 1e-05
0.0036754 0.00113243 1e-05
0.00378611 0.00113314 1e-05
0.00389767 0.00113384 1e-05
0.00400924 0.00113454 1e-05
0.0041208 0.00113523 1e-05
0.00423237 0.00113592 1e-05
0.00434393 0.00113659 1e-05
0.00445636 0.00113726 1e-05
0.00456879 0.00113793 1e-05
0.00468123 0.0011386 1e-05
0.00479366 0.00113926 1e-05
0.00490609 0.00113991 1e-05
0.0050194 0.00114055 1e-05
0.0051327 0.0011412 1e-05
0.00524601 0.00114185 1e-05
0.00535931 0.00114249 1e-05
0.00547262 0.00114313 1e-05
0.00558681 0.00114375 1e-05
0.005701 0.00114439 1e-05
0.00581518 0.00114502 1e-05
0.00592937 0.00114564 1e-05
0.00604356 0.00114627 1e-05
0.00615863 0.00114688 1e-05
0.00627371 0.00114751 1e-05
0.00638878 0.00114813 1e-05
0.00650386 0.00114875 1e-05
0.00661893 0.00114937 1e-05
0.0067349 0.00114998 1e-05
0.00685087 0.0011506 1e-05
0.00696684 0.00115123 1e-05
0.00708281 0.00115185 1e-05
0.00719878 0.00115247 1e-05
0.00731565 0.00115308 1e-05
0.00743252 0.0011537 1e-05
0.00754939 0.00115433 1e-05
0.00766626 0.00115496 1e-05
0.00778313 0.00115558 1e-05
0.00790091 0.0011562 1e-05
0.00801869 0.00115684 1e-05
0.00813647 0.00115748 1e-05
0.00825425 0.00115811 1e-05
0.00837203 0.00115875 1e-05
0.00849073 0.00115938 1e-05
0.00860942 0.00116003 1e-05
0.00872812 0.00116069 1e-05
0.00884682 0.00116134 1e-05
0.00896551 0.001162 1e-05
0.00908513 0.00116264 1e-05
0.00920475 0.00116331 1e-05
0.00932437 0.00116398 1e-05
0.00944398 0.00116466 1e-05
0.0095636 0.00116533 1e-05
0.00968415 0.001166 1e-05
0.0098047 0.00116669 1e-05
0.00992525 0.00116739 1e-05
0.0100458 0.00116808 1e-05
0.0101663 0.00116878 1e-05
0.0102878 0.00116947 1e-05
0.0104093 0.00117019 1e-05
0.0105308 0.0011709 1e-05
0.0106523 0.00117162 1e-05
0.0107738 0.00117235 1e-05
0.0108962 0.00117307 1e-05
0.0110186 0.0011738 1e-05
0.0111411 0.00117454 1e-05
0.0112635 0.00117529 1e-05
0.0113859 0.00117604 1e-05
0.0115093 0.00117678 1e-05
0.0116327 0.00117755 1e-05
0.0117561 0.00117831 1e-05
0.0118795 0.00117908 1e-05
0.0120028 0.00117986 1e-05
0.0121272 0.00118063 1e-05
0.0122515 0.00118142 1e-05
0.0123759 0.00118222 1e-05
0.0125002 0.00118301 1e-05
0.0126245 0.00118381 1e-05
0.0127498 0.00118462 1e-05
0.0128752 0.00118544 1e-05
0.0130005 0.00118626 1e-05
0.0131258 0.00118708 1e-05
0.0132511 0.00118791 1e-05
0.0133774 0.00118874 1e-05
0.0135036 0.00118959 1e-05
0.0136299 0.00119043 1e-05
0.0137562 0.00119128 1e-05
0.0138825 0.00119214 1e-05
0.0140098 0.001193 1e-05
0.014137 0.00119387 1e-05
0.0142643 0.00119474 1e-05
0.0143915 0.00119562 1e-05
0.0145188 0.0011965 1e-05
0.0146471 0.00119739 1e-05
0.0147753 0.00119829 1e-05
0.0149036 0.00119919 1e-05
0.0150318 0.00120009 1e-05
0.0151601 0.001201 1e-05
0.0151838 0.00120117 1e-05
0.0152076 0.00120134 1e-05
0.0152313 0.00120151 1e-05
0.0152551 0.00120168 1e-05
0.0152791 0.00120185 1e-05
0.0153846 0.0012026 1e-05
0.01549 0.00120335 1e-05
0.0155954 0.00120411 1e-05
0.0157009 0.00120487 1e-05
0.0158063 0.00120563 1e-05
0.0159366 0.00120657 1e-05
0.0160668 0.00120752 1e-05
0.0161971 0.00120847 1e-05
0.0163274 0.00120942 1e-05
0.0164576 0.00121038 1e-05
0.0165889 0.00121135 1e-05
0.0167201 0.00121232 1e-05
0.0168514 0.00121329 1e-05
0.0169827 0.00121427 1e-05
0.0171139 0.00121525 1e-05
0.0172462 0.00121624 1e-05
0.0173785 0.00121723 1e-05
0.0175108 0.00121823 1e-05
0.0176431 0.00121923 1e-05
0.0177754 0.00122023 1e-05
0.0179087 0.00122124 1e-05
0.018042 0.00122226 1e-05
0.0181753 0.00122328 1e-05
0.0183087 0.0012243 1e-05
0.018442 0.00122532 1e-05
0.0185763 0.00122636 1e-05
0.0187107 0.0012274 1e-05
0.018845 0.00122844 1e-05
0.0189794 0.00122948 1e-05
0.0191137 0.00123053 1e-05
0.0192491 0.00123159 1e-05
0.0193845 0.00123265 1e-05
0.0195199 0.00123372 1e-05
0.0196553 0.00123478 1e-05
0.0197907 0.00123585 1e-05
0.0199272 0.00123693 1e-05
0.0200636 0.00123801 1e-05
0.0202001 0.0012391 1e-05
0.0203365 0.00124018 1e-05
0.020473 0.00124127 1e-05
0.0206105 0.00124237 1e-05
0.020748 0.00124346 1e-05
0.0208855 0.00124456 1e-05
0.021023 0.00124566 1e-05
0.0211606 0.00124676 1e-05
0.0212991 0.00124788 1e-05
0.0214377 0.00124899 1e-05
0.0215763 0.00125011 1e-05
0.0217149 0.00125122 1e-05
0.0218535 0.00125234 1e-05
0.0219931 0.00125347 1e-05
0.0221328 0.00125459 1e-05
0.0222724 0.00125572 1e-05
0.0224121 0.00125684 1e-05
0.0225517 0.00125797 1e-05
0.0226925 0.00125911 1e-05
0.0228332 0.00126024 1e-05
0.022974 0.00126138 1e-05
0.0231147 0.00126251 1e-05
0.0232555 0.00126364 1e-05
0.0233973 0.00126479 1e-05
0.0235391 0.00126593 1e-05
0.023681 0.00126707 1e-05
0.0238228 0.00126821 1e-05
0.0239647 0.00126935 1e-05
0.0241076 0.00127051 1e-05
0.0242505 0.00127165 1e-05
0.0243935 0.0012728 1e-05
0.0245364 0.00127395 1e-05
0.0246794 0.00127509 1e-05
0.0248234 0.00127626 1e-05
0.0249675 0.00127741 1e-05
0.0251115 0.00127856 1e-05
0.0252556 0.00127972 1e-05
[...]
POINT_DATA 12073
 FIELD attributes 3
age 1 12073 float
0 -2e-05 -4e-05 -6e-05 -8e-05 -0.0001
0 -2e-05 -4e-05 -6e-05 -8e-05 -0.0001
0 -2e-05 -4e-05 -6e-05 -8e-05 -0.0001
0 -2e-05 -4e-05 -6e-05 -8e-05 -0.0001
0 -2e-05 -4e-05 -6e-05 -8e-05 -0.0001
0 -2e-05 -4e-05 -6e-05 -8e-05 -0.0001
0 -2e-05 -4e-05 -6e-05 -8e-05 -0.0001
0 -2e-05 -4e-05 -6e-05 -8e-05 -0.0001
0 -2e-05 -4e-05 -6e-05 -8e-05 -0.0001
0 -2.00009e-05 -4.00018e-05 -6.00027e-05 -8.00036e-05 -0.000100002
0 0.000296567 0.000593135 0.000889702 0.00118627 0.00148284 0.00178676 0.00209069 0.00239461 0.00269853 0.00300245 0.00329423 0.00358601 0.00387779 0.00416957 0.00446135 0.00474147 0.00502159 0.00530171 0.00558183 0.00586196 0.00611669 0.00637142 0.00662615 0.00688089 0.00709602 0.00711814 0.00714025 0.00716237 0.00718449 0.00720661 0.0074648 0.00772298 0.00798117 0.00823936 0.00849754 0.00874541 0.00899329 0.00924116 0.00948903 0.0097369 0.00997487 0.0102128 0.0104508 0.0106888 0.0109267 0.0111552 0.0113837 0.0116121 0.0118406 0.012069 0.0122884 0.0125077 0.012727 0.0129464 0.0131657 0.0133763 0.0135869 0.0137974 0.014008 0.0142186 0.0144207 0.0146229 0.014825 0.0150272 0.0152293 0.0154234 0.0156175 0.0158116 0.0160057 0.0161997 0.0163861 0.0165724 0.0167587 0.016945 0.0171314 0.0173103 0.0174891 0.017668 0.0178469 0.0180258 0.0181975 0.0183693 0.018541 0.0187127 0.0188845 0.0190493 0.0192142 0.0193791 0.019544 0.0197088 0.0198671 0.0200254 0.0201837 0.020342 0.0205003 0.020606 0.0207116 0.0208173 0.020923 0.0210287 0.0211352 0.0212417 0.0213482 0.0214547 0.0215612 0.0216685 0.0217759 0.0218832 0.0219905 0.0220979 0.022206 0.0223142 0.0224223 0.0225305 0.0226387 0.0227477 0.0228567 0.0229657 0.0230747 0.0231837 0.0232936 0.0234034 0.0235133 0.0236231 0.023733 0.0238437 0.0239544 0.0240651 0.0241758 0.0242865 0.0243981 0.0245096 0.0246212 0.0247328 0.0248443 0.0249568 0.0250692 0.0251816 0.0252941 0.0254065 0.0255198 0.0256331 0.0257464 0.0258597 0.025973 0.0260872 0.0262014 0.0263156 0.0264298 0.026544 0.0266591 0.0267741 0.0268892 0.0270043 0.0271194 0.0272353 0.0273513 0.0274673 0.0275833 0.0276992 0.0278161 0.027933 0.0280498 0.0281667 0.0282836 0.0284014 0.0285192 0.0286369 0.0287547 0.0288725 0.0289912 0.0291099 0.0292286 0.0293473 0.029466 0.0295856 0.0297052 0.0298248 0.0299445 0.0300641 0.0301846 0.0303052 0.0304257 0.0305463 0.0306668 0.0307883 0.0309098 0.0310313 0.0311528 0.0312743 0.0313967 0.0315191 0.0316416 0.031764 0.0318864 0.0320098 0.0321332 0.0322566 0.03238 0.0325034 0.0326277 0.032752 0.0328764 0.0330007 0.0331251 0.0332504 0.0333757 0.033501 0.0336263 0.0337516 0.0338779 0.0340042 0.0341305 0.0342568 0.0343831 0.0345103 0.0346376 0.0347649 0.0348921 0.0350194 0.0351476 0.0352759 0.0354042 0.0355324 0.0356607 0.0356844 0.0357082 0.0357319 0.0357557 0.0357797 0.0358852 0.0359906 0.0360961 0.0362015 0.0363069 0.0364372 0.0365675 0.0366977 0.036828 0.0369582 0.0370895 0.0372208 0.0373521 0.0374833 0.0376146 0.0377469 0.0378792 0.0380115 0.0381438 0.0382761 0.0384094 0.0385427 0.038676 0.0388093 0.0389427 0.039077 0.0392114 0.0393457 0.0394801 0.0396145 0.0397499 0.0398853 0.0400207 0.0401561 0.0402915 0.0404279 0.0405644 0.0407008 0.0408373 0.0409737 0.0411113 0.0412488 0.0413863 0.0415238 0.0416613 0.0417999 0.0419385 0.0420771 0.0422157 0.0423543 0.0424939 0.0426336 0.0427732 0.0429129 0.0430526 0.0431933 0.0433341 0.0434748 0.0436156 0.0437563 0.0438982 0.04404 0.0441818 0.0443237 0.0444655 0.0446085 0.0447514 0.0448944 0.0450373 0.0451803 0.0453243 0.0454684 0.0456124 0.0457565 0.0459005 0.0460457 0.0461909 0.0463361 0.0464812 0.0466264 0.0467727 0.046919 0.0470653 0.0472116 0.047358 0.0475054 0.0476528 0.0478003 0.0479477 0.0480952 0.0482438 0.0483923 0.0485409 0.0486895 0.0488381 0.0489879 0.0491376 0.0492874 0.0494371 0.0495868 0.0497378 0.0498887 0.0500396 0.0501905 0.0503414 0.0504935 0.0506456 0.0507976 0.0509497 0.0511018 0.0512551 0.0514083 0.0515616 0.0517149 0.0518681 0.0520226 0.052177 0.0523315 0.0524859 0.0526404 0.0527961 0.0529517 0.0531074 0.053263 0.0534187 0.0535755 0.0537324 0.0538893 0.0540461 0.054203 0.0543611 0.0545192 0.0546773 0.0548354 0.0549934 0.0551528 0.0553121 0.0554714 0.0556307 0.05579 0.0559506 0.0561111 0.0562717 0.0564322 0.0565928 0.0567546 0.0569164 0.0570782 0.05724 0.0574018 0.0575649 0.0577279 0.057891 0.058054 0.0582171 0.0583814 0.0585458 0.0587101 0.0588744 0.0590387 0.0592043 0.0593699 0.0595356 0.0597012 0.0598668 0.0600337 0.0602005 0.0603674 0.0605343 0.0607012 0.0608694 0.0610376 0.0612058 0.061374 0.0615422 0.0617117 0.0618812 0.0620507 0.0622202 0.0623896 0.0625605 0.0627313 0.0629021 0.0630729 0.0632437 0.0634159 0.063588 0.0637601 0.0639323 0.0641044 0.0642779 0.0644514 0.0646249 0.0647983 0.0649718 0.0651466 0.0653215 0.0654963 0.0656711 0.065846 0.0660221 0.0661983 0.0663745 0.0665507 0.0667269 0.0669044 0.067082 0.0672596 0.0674371 0.0676147 0.0677936 0.0679725 0.0681515 0.0683304 0.0685093 0.0686897 0.06887 0.0690503 0.0692307 0.069411 0.0695927 0.0697744 0.0699562 0.0701379 0.0703196 0.0705028 0.0706859 0.0708691 0.0710522 0.0712354 0.0714199 0.0716045 0.0717891 0.0719736 0.0721582 0.0723442 0.0725303 0.0727163 0.0729023 0.0730883 0.0732758 0.0734632 0.0736507 0.0738382 0.0740256 0.0742146 0.0744035 0.0745924 0.0747814 0.0749703 0.0751607 0.0753511 0.0755416 0.075732 0.0759224 0.0761143 0.0763062 0.0764982 0.0766901 0.076882 0.0770755 0.0772689 0.0774623 0.0776557 0.0778492 0.0780442 0.0782392 0.0784341 0.0786291 0.0788241 0.0790207 0.0792172 0.0794137 0.0796102 0.0798069 0.080005 0.0802031 0.0804012 0.0805993 0.0807975 0.080865 0.0809325 0.081 0.0810675 0.0811297 0.081263 0.0813963 0.0815296 0.0816629 0.0817962 0.0819976 0.0821989 0.0824003 0.0826016 0.0828032 0.0830062 0.0832092 0.0834122 0.0836152 0.0838185 0.0840232 0.0842279 0.0844326 0.0846373 0.0848423 0.0850488 0.0852553 0.0854617 0.0856682 0.085875 0.0860832 0.0862915 0.0864997 0.086708 0.0869166 0.0870975 0.0872785 0.0874594 0.0876403 0.0877926 0.0878276 0.0878626 0.0878975 0.0879325 0.0879675 0.0881795 0.0883915 0.0886034 0.0888154 0.0890279 0.0892418 0.0894557 0.0896697 0.0898836 0.0900981 0.0903141 0.09053 0.0907459 0.0909618 0.0911785 0.0913629 0.0915473 0.0917317 0.0919161 0.0920755 0.0921143 0.0921531 0.0921918 0.0922306 0.0922694 0.0924895 0.0927097 0.0929298 0.09315 0.0933711 0.0935935 0.0938159 0.0940382 0.0942606 0.0944841 0.0946405 0.0947969 0.0949533 0.0951096 0.0952505 0.0953221 0.0953938 0.0954655 0.0955371 0.0956089 0.095836 0.0960631 0.0962902 0.0965173 0.0967457 0.0969753 0.0972049 0.0974344 0.097664 0.0978951 0.0979313 0.0979674 0.0980036 0.0980398 0.0980753 0.0982715 0.0984677 0.0986639 0.0988601 0.0990576 0.0992924 0.0995272 0.099762 0.0999968 0.100233 0.100324 0.100415 0.100506 0.100597 0.100685 0.100832 0.10098 0.101127 0.101275 0.101423 0.101664 0.101904 0.102145 0.102385 0.102627 0.102734 0.102841 0.102948 0.103055 0.103158 0.103295 0.103433 0.103571 0.103708 0.103846 0.104093 0.104339 0.104585 0.104832 0.10508 0.105175 0.105269 0.105364 0.105458 0.105549 0.105705 0.105861 0.106017 0.106173 0.10633 0.106582 0.106835 0.107087 0.10734 0.107594 0.107656 0.107717 0.107778 0.107839 0.107899 0.108094 0.108289 0.108484 0.108679 0.108875 0.109134 0.109393 0.109652 0.109911 0.110172 0.110185 0.110198 0.110211 0.110224 0.110237 0.110486 0.110735 0.110984 0.111233 0.111484 0.111708 0.111931 0.112154 0.112377 0.11259 0.112635 0.112679 0.112724 0.112768 0.112813 0.113081 0.11335 0.113618 0.113886 0.114157 0.114323 0.114489 0.114654 0.11482 0.114982 0.115089 0.115196 0.115302 0.115409 0.115516 0.115791 0.116065 0.11634 0.116614 0.11689 0.117001 0.117111 0.117221 0.117331 0.11744 0.117607 0.117775 0.117943 0.118111 0.118279 0.118559 0.118839 0.119119 0.119399 0.11968 0.119743 0.119805 0.119868 0.119931 0.119993 0.120213 0.120433 0.120654 0.120874 0.121094 0.121379 0.121664 0.121949 0.122234 0.122519 0.122551 0.122583 0.122615 0.122648 0.12268 0.122935 0.12319 0.123445 0.1237 0.123954 0.124219 0.124484 0.124749 0.125013 0.125282 0.125305 0.125328 0.125351 0.125375 0.125398 0.125689 0.125979 0.12627 0.12656 0.12685 0.127065 0.127281 0.127496 0.127712 0.127933 0.128008 0.128083 0.128158 0.128233 0.128307 0.1286 0.128894 0.129187 0.12948 0.129771 0.129952 0.130134 0.130315 0.130497 0.130684 0.130795 0.130906 0.131017 0.131127 0.131238 0.131533 0.131827 0.132122 0.132417 0.132709 0.132886 0.133063 0.13324 0.133417 0.133603 0.133719 0.133835 0.133951 0.134067 0.134182 0.134478 0.134774 0.13507 0.135366 0.135659 0.135881 0.136104 0.136326 0.136549 0.136789 0.136859 0.136928 0.136998 0.137068 0.137137 0.137434 0.137731 0.138028 0.138325 0.138618 0.138916 0.139213 0.139511 0.139808 0.140103 0.140164 0.140224 0.140285 0.140346 0.140409 0.140646 0.140882 0.141119 0.141355 0.14159 0.141889 0.142188 0.142486 0.142785 0.143081 0.143381 0.143681 0.143981 0.14428 0.144578 0.144615 0.144651 0.144688 0.144725 0.144763 0.145027 0.14529 0.145554 0.145818 0.14608 0.146382 0.146684 0.146986 0.147288 0.147588 0.147891 0.148195 0.148498 0.148802 0.149104 0.149367 0.149631 0.149894 0.150158 0.150463 0.150496 0.150529 0.150561 0.150594 0.150627 0.150934 0.15124 0.151547 0.151853 0.152159 0.152467 0.152776 0.153084 0.153392 0.1537 0.15401 0.15432 0.154631 0.154941 0.155251 0.155563 0.155875 0.156187 0.1565 0.156811 0.157126 0.15744 0.157754 0.158069 0.158382 0.158503 0.158623 0.158743 0.158863 0.158992 0.159186 0.159381 0.159575 0.15977 0.159965 0.160283 0.160602 0.160921 0.161239 0.161558 0.161879 0.1622 0.162521 0.162842 0.163162 0.163486 0.163809 0.164132 0.164456 0.164779 0.165104 0.16543 0.165756 0.166081 0.166407 0.166735 0.167063 0.167391 0.167719 0.168047 0.168378 0.168708 0.169039 0.169369 0.1697 0.170033 0.170366 0.170699 0.171032 0.171365 0.1717 0.172036 0.172371 0.172707 0.173042 0.173381 0.173719 0.174057 0.174395 0.174733 0.174785 0.174837 0.174888 0.17494 0.174993 0.175282 0.17557 0.175859 0.176148 0.176436 0.176779 0.177123 0.177466 0.177809 0.178152 0.178498 0.178844 0.17919 0.179536 0.179882 0.18023 0.180579 0.180928 0.181276 0.181625 0.181976 0.182327 0.182678 0.18303 0.183381 0.183735 0.184089 0.184443 0.184797 0.185151 0.185507 0.185864 0.186221 0.186577 0.186934 0.187293 0.187653 0.188012 0.188372 0.188731 0.189093 0.189456 0.189818 0.19018 0.190542 0.190907 0.191272 0.191637 0.192002 0.192367 0.192735 0.193103 0.193471 0.193839 0.194206 0.194577 0.194948 0.195318 0.195689 0.19606 0.196433 0.196807 0.197181 0.197554 0.197928 0.198304 0.198681 0.199057 0.199433 0.19981 0.200189 0.200569 0.200948 0.201327 0.201707 0.202089 0.202471 0.202854 0.203236 0.203618 0.204004 0.204389 0.204774 0.205159 0.205545 0.205933 0.206321 0.20671 0.207098 0.207486 0.207877 0.208269 0.20866 0.209051 0.209443 0.209837 0.210231 0.210625 0.21102 0.211414 0.211811 0.212209 0.212606 0.213004 0.213401 0.213801 0.214202 0.214602 0.215003 0.215403 0.215807 0.21621 0.216614 0.217018 0.217421 0.217464 0.217507 0.21755 0.217593 0.217638 0.218001 0.218364 0.218728 0.219091 0.219455 0.219864 0.220274 0.220684 0.221094 0.221504 0.221917 0.22233 0.222743 0.223156 0.223569 0.223985 0.224401 0.224818 0.225234 0.22565 0.226069 0.226489 0.226908 0.227328 0.227747 0.228146 0.228544 0.228943 0.229286 0.229401 0.229516 0.229631 0.229746 0.229861 0.229909 0.229957 0.230004 0.230052 0.230103 0.230464 0.230825 0.231186 0.231547 0.231909 0.232334 0.23276 0.233186 0.233611 0.234037 0.23448 0.234922 0.235364 0.235807 0.236249 0.236709 0.237169 0.237629 0.238088 0.238548 0.239026 0.239504 0.239982 0.240459 0.240937 0.241434 0.24193 0.242427 0.242923 0.24342 0.243936 0.244452 0.244968 0.245484 0.246 0.246536 0.247072 0.247608 0.248144 0.24868 0.249237 0.249794 0.250351 0.250908 0.251465 0.252044 0.252623 0.253202 0.25378 0.254359 0.254961 0.255562 0.256164 0.256765 0.257366 0.257991 0.258616 0.259241 0.259866 0.260491 0.26114 0.261789 0.262439 0.263088 0.263737 0.264412 0.265087 0.265761 0.266436 0.26711 0.267792 0.268474 0.269156 0.269838 0.270615 0.270628 0.270641 0.270653 0.270666 0.270679 0.271394 0.27211 0.272825 0.273541 0.274257 0.275013 0.27577 0.276527 0.277283 0.27804 0.278826 0.279613 0.280399 0.281185 0.281971 0.282788 0.283605 0.284422 0.285238 0.286055 0.286904 0.287752 0.288601 0.28945 0.290298 0.29118 0.292062 0.292943 0.293825 0.294707 0.295623 0.296539 0.297455 0.298371 0.299287 0.300239 0.301191 0.302142 0.303094 0.304046 0.305035 0.306024 0.307013 0.308002 0.308991 0.310018 0.311045 0.312072 0.3131 0.314126