/*--------------------------------*- C++ -*----------------------------------*\
  =========                 |
  \\      /  F ield         | OpenFOAM: The Open Source CFD Toolbox
   \\    /   O peration     | Website:  https://openfoam.org
    \\  /    A nd           | Version:  9
     \\/     M anipulation  |
\*---------------------------------------------------------------------------*/
FoamFile
{
    format      ascii;
    class       volScalarField;
    location    "0.1";
    object      epsilon;
}
// * * * * * * * * * * * * * * * * * * * * * * * * * * * * * * * * * * * * * //

dimensions      [0 2 -3 0 0 0 0];

internalField   nonuniform List<scalar> 
1915
(
0.372678
0.0786454
0.370131
0.343226
0.402315
0.506641
0.416687
0.649476
0.423751
0.775674
0.430698
0.894985
0.442845
1.02048
0.467608
1.17326
0.516659
1.39208
0.605424
1.7345
0.0737735
0.0846599
0.459029
0.550875
0.609072
0.642884
0.660116
0.666668
0.666773
0.663308
0.658097
0.652686
0.649084
0.645692
0.64237
0.639154
0.636054
0.633051
0.630122
0.627249
0.624429
0.621664
0.618958
0.616309
0.6137
0.6111
0.608445
0.605635
0.602505
0.598792
0.594079
0.587709
0.578656
0.565342
0.545358
0.515046
0.468816
0.398352
0.365817
0.124732
0.246678
0.255836
0.288946
0.306388
0.315811
0.320442
0.322354
0.322826
0.322599
0.322076
0.321478
0.321036
0.321117
0.321217
0.321216
0.32111
0.320918
0.320658
0.320342
0.319979
0.319577
0.31914
0.318675
0.318189
0.31769
0.317183
0.316674
0.316161
0.315638
0.315086
0.314463
0.313686
0.312593
0.310884
0.308007
0.302975
0.29403
0.277931
0.245899
0.248007
0.322441
0.275804
0.270741
0.265693
0.260051
0.254828
0.250618
0.247571
0.245576
0.244411
0.243845
0.243709
0.243958
0.244323
0.244668
0.244941
0.245132
0.245243
0.245284
0.245266
0.245199
0.245091
0.244951
0.244789
0.244616
0.244447
0.244298
0.244195
0.244171
0.24427
0.244555
0.245105
0.246011
0.247364
0.249219
0.251541
0.254128
0.256717
0.261239
0.328193
0.375407
0.29227
0.269303
0.251564
0.236859
0.225379
0.216981
0.211212
0.20751
0.205324
0.204188
0.203741
0.203777
0.204035
0.204359
0.204666
0.20492
0.20511
0.205237
0.20531
0.205335
0.205323
0.205283
0.205226
0.205167
0.205125
0.205125
0.205207
0.205427
0.205868
0.206649
0.207932
0.209941
0.212967
0.217388
0.223701
0.232645
0.245793
0.270015
0.389356
0.416103
0.309666
0.275686
0.248043
0.22571
0.208857
0.196816
0.188614
0.183293
0.180034
0.178192
0.177281
0.176992
0.177036
0.177229
0.177465
0.177688
0.177872
0.17801
0.178102
0.178156
0.178179
0.17818
0.178173
0.178173
0.178204
0.178299
0.178509
0.178908
0.179604
0.180753
0.182571
0.185361
0.189536
0.195674
0.204612
0.217709
0.237795
0.275131
0.434606
0.452601
0.335124
0.291806
0.253149
0.222291
0.199692
0.183938
0.173338
0.16644
0.162122
0.159555
0.158147
0.157501
0.157294
0.157317
0.157442
0.157596
0.157739
0.157856
0.157942
0.158
0.158034
0.158055
0.158077
0.158116
0.158201
0.158372
0.158688
0.159238
0.160148
0.1616
0.163848
0.167243
0.172281
0.179669
0.190476
0.206487
0.231432
0.278108
0.467776
0.495268
0.379395
0.321861
0.267358
0.225206
0.195663
0.175795
0.162716
0.154263
0.148924
0.145657
0.143768
0.14277
0.142308
0.142151
0.14215
0.14222
0.142308
0.142391
0.142458
0.142508
0.142544
0.142576
0.142616
0.142686
0.142816
0.143053
0.143464
0.144148
0.145246
0.146959
0.149564
0.153449
0.159164
0.167507
0.179706
0.197849
0.226313
0.27979
0.491974
0.572184
0.455344
0.369284
0.29071
0.233236
0.195234
0.170818
0.155211
0.145262
0.138975
0.135068
0.132738
0.131413
0.13071
0.130377
0.130252
0.130233
0.130262
0.130305
0.130348
0.130385
0.130417
0.130454
0.130509
0.130605
0.130776
0.131073
0.13157
0.132375
0.133641
0.13558
0.13849
0.142782
0.149044
0.158138
0.171407
0.191156
0.222227
0.280703
0.509554
0.763256
0.574613
0.433805
0.320356
0.243947
0.196647
0.167677
0.149709
0.13843
0.131321
0.126873
0.124156
0.122544
0.121627
0.121134
0.120891
0.120788
0.120757
0.12076
0.120777
0.120798
0.120825
0.120864
0.120932
0.121051
0.121258
0.12161
0.122187
0.123102
0.124518
0.126657
0.129829
0.134464
0.141176
0.150877
0.164988
0.185972
0.219005
0.28117
0.52228
1.16096
0.727644
0.502474
0.346902
0.252653
0.197608
0.16506
0.145296
0.133015
0.125282
0.120422
0.117399
0.115552
0.114453
0.113822
0.113475
0.113295
0.113209
0.113173
0.113163
0.113169
0.113189
0.11323
0.113308
0.113448
0.11369
0.114093
0.114742
0.115758
0.117308
0.119624
0.123023
0.127951
0.135041
0.145238
0.160025
0.181975
0.216499
0.281395
0.531469
0.625375
1.31389
0.572612
1.11834
0.495483
0.898682
0.408788
0.655675
0.33113
0.474092
0.26914
0.351772
0.222002
0.270598
0.187032
0.216392
0.16134
0.179584
0.142471
0.154095
0.136116
0.123239
0.1139
0.107063
0.102027
0.0983035
0.0955445
0.0934993
0.0919833
0.0908596
0.090026
0.0894065
0.0889443
0.0885977
0.0883361
0.0881373
0.0879856
0.0878696
0.0877813
0.0877149
0.087666
0.0876308
0.0876064
2.45666
1.66444
1.46548
1.5433
1.41263
1.16032
0.968211
0.811863
1.07729
0.977716
0.844248
0.716873
0.791933
0.777893
0.693121
0.591831
0.567991
0.578665
0.532839
0.466539
0.410604
0.424713
0.402695
0.363265
0.306379
0.318233
0.308395
0.285776
0.238259
0.246958
0.242806
0.229921
0.193184
0.199235
0.197607
0.190196
0.162728
0.166853
0.166294
0.161943
0.1417
0.144489
0.144351
0.141719
0.126899
0.128771
0.128769
0.127117
0.116314
0.117555
0.11757
0.116482
0.108653
0.109455
0.10944
0.108681
0.10306
0.103552
0.103492
0.102927
0.098952
0.0992252
0.0991179
0.0986686
0.0959256
0.096041
0.0958917
0.0955102
0.0936917
0.0936929
0.0935076
0.0931656
0.0920413
0.091959
0.0917438
0.0914242
0.0908208
0.0906769
0.0904373
0.0901297
0.0899167
0.0897269
0.0894673
0.0891654
0.0892449
0.0890204
0.0887444
0.0884444
0.0887432
0.0884917
0.0882021
0.0879017
0.0883656
0.0880928
0.0877916
0.0874893
0.0880789
0.0877883
0.087477
0.087172
0.0878588
0.0875529
0.0872324
0.0869241
0.0876879
0.0873682
0.0870391
0.0867269
0.0875539
0.0872211
0.0868835
0.0865672
0.0874477
0.0871021
0.0867562
0.0864354
0.0873631
0.0870046
0.0866502
0.0863246
0.0872953
0.0869233
0.0865603
0.0862297
0.0872407
0.0868547
0.0864828
0.086147
0.0871952
0.0867959
0.0864147
0.0860736
0.95463
0.722164
0.51305
0.351614
0.253157
0.1957
0.161777
0.141205
0.12841
0.120327
0.115202
0.111964
0.109941
0.1087
0.107955
0.107519
0.107272
0.107136
0.107064
0.10703
0.107021
0.107034
0.107076
0.107163
0.107323
0.107597
0.108047
0.108764
0.109872
0.111544
0.114017
0.117617
0.122798
0.130211
0.140824
0.156165
0.178885
0.214562
0.281497
0.53816
0.703377
0.593491
0.453223
0.327998
0.242695
0.189596
0.157076
0.136927
0.124217
0.116098
0.110881
0.107532
0.105399
0.104057
0.103226
0.10272
0.102417
0.102239
0.102136
0.10208
0.102056
0.102063
0.102106
0.102202
0.10238
0.102684
0.103179
0.103958
0.10515
0.106932
0.109546
0.113323
0.118726
0.126415
0.13738
0.15318
0.176519
0.213092
0.281548
0.543031
0.606692
0.496484
0.386398
0.2928
0.22506
0.179987
0.150931
0.132282
0.120229
0.112377
0.107241
0.103888
0.101713
0.100316
0.0994279
0.0988707
0.0985246
0.0983115
0.0981821
0.0981073
0.0980723
0.0980735
0.0981177
0.0982221
0.0984168
0.0987481
0.0992838
0.10012
0.101388
0.103269
0.106008
0.109941
0.115536
0.123464
0.134726
0.150903
0.17474
0.212005
0.281588
0.546582
0.49677
0.406907
0.324502
0.256103
0.204637
0.168397
0.143802
0.127342
0.116354
0.109014
0.104115
0.100856
0.0987024
0.0972915
0.0963759
0.0957868
0.0954105
0.0951716
0.0950216
0.0949317
0.0948869
0.0948838
0.0949294
0.0950419
0.0952524
0.0956091
0.096182
0.0970693
0.0984058
0.100375
0.103225
0.107294
0.113056
0.121187
0.132698
0.149187
0.173422
0.211221
0.281637
0.549192
0.396578
0.330416
0.271643
0.222771
0.184666
0.156462
0.136343
0.122294
0.112592
0.105933
0.101387
0.0983034
0.0962276
0.0948421
0.093925
0.0933224
0.0929285
0.0926722
0.0925074
0.092406
0.0923537
0.0923476
0.0923952
0.0925153
0.0927404
0.0931203
0.0937268
0.0946601
0.0960574
0.098104
0.101051
0.105239
0.111144
0.119448
0.131168
0.147912
0.172464
0.210673
0.281704
0.551142
0.317006
0.271175
0.229916
0.194969
0.166845
0.145173
0.129048
0.117345
0.108992
0.103101
0.098985
0.0961362
0.0941824
0.0928546
0.0919593
0.0913596
0.0909596
0.090694
0.0905197
0.0904105
0.0903532
0.0903453
0.0903952
0.0905225
0.0907611
0.0911618
0.0917983
0.0927724
0.0942231
0.0963375
0.099368
0.103658
0.109685
0.118135
0.130029
0.14698
0.171783
0.210306
0.281792
0.552634
0.256486
0.225715
0.197127
0.172212
0.151514
0.134991
0.122241
0.112663
0.105615
0.10051
0.0968619
0.0942854
0.0924854
0.0912401
0.0903855
0.0898026
0.0894066
0.0891388
0.0889601
0.0888465
0.0887862
0.0887778
0.0888304
0.0889647
0.0892154
0.0896347
0.0902975
0.0913072
0.0928043
0.0949772
0.0980795
0.102456
0.108586
0.117157
0.129194
0.146312
0.171312
0.210074
0.281897
0.553815
0.211642
0.191244
0.171555
0.153824
0.13862
0.126087
0.1161
0.108364
0.10251
0.0981632
0.094988
0.0927009
0.0910736
0.089928
0.0891283
0.0885732
0.0881895
0.0879256
0.0877468
0.0876319
0.0875706
0.0875628
0.0876185
0.0877592
0.0880207
0.0884563
0.089142
0.0901824
0.0917191
0.0939417
0.0971047
0.101554
0.10777
0.116441
0.128593
0.145844
0.170998
0.209941
0.282018
0.554785
0.178775
0.165276
0.151721
0.1391
0.12794
0.118465
0.110696
0.104511
0.0997103
0.096063
0.0933424
0.091345
0.0898983
0.0888622
0.0881265
0.0876072
0.0872422
0.0869871
0.0868119
0.0866981
0.0866375
0.0866312
0.0866902
0.0868369
0.087108
0.0875576
0.0882629
0.0893294
0.0908995
0.0931637
0.0963773
0.100887
0.107173
0.115925
0.128169
0.145526
0.170799
0.20988
0.282151
0.555613
0.15473
0.14575
0.136387
0.127385
0.119192
0.112046
0.106033
0.101128
0.0972319
0.0942082
0.0919081
0.0901881
0.0889204
0.087997
0.0873304
0.0868519
0.08651
0.0862674
0.0860985
0.0859879
0.0859294
0.0859254
0.0859878
0.08614
0.0864194
0.0868811
0.0876028
0.088691
0.0902888
0.0925874
0.0958424
0.100401
0.106744
0.11556
0.127878
0.145317
0.170682
0.209869
0.282291
0.556345
0.137086
0.131056
0.124552
0.118111
0.112091
0.106709
0.102074
0.0982086
0.0950735
0.092592
0.090669
0.0892055
0.0881084
0.0872958
0.0866993
0.086264
0.0859479
0.0857201
0.0855595
0.0854538
0.0853984
0.0853972
0.0854631
0.0856203
0.0859068
0.0863785
0.0871139
0.08822
0.0898405
0.0921669
0.0954554
0.100053
0.106441
0.11531
0.127686
0.145189
0.170624
0.209893
0.282437
0.557011
0.124077
0.119978
0.115427
0.110799
0.106369
0.10232
0.098758
0.0957272
0.0932216
0.0912019
0.089609
0.0883759
0.087436
0.0867282
0.0861999
0.0858079
0.0855186
0.0853071
0.0851562
0.0850563
0.0850048
0.0850068
0.0850762
0.0852378
0.0855304
0.0860105
0.086757
0.0878776
0.0895164
0.0918652
0.0951804
0.0998093
0.106234
0.115143
0.127564
0.145117
0.170607
0.209941
0.282586
0.557628
0.114436
0.111611
0.108399
0.105059
0.101792
0.098745
0.0960135
0.0936462
0.0916543
0.0900208
0.0887108
0.0876798
0.086881
0.0862693
0.085805
0.0854548
0.0851922
0.0849973
0.0848568
0.0847634
0.0847162
0.0847216
0.0847944
0.08496
0.0852578
0.0857448
0.0865003
0.0876325
0.0892857
0.0916523
0.0949886
0.0996422
0.106095
0.115035
0.127492
0.145084
0.170619
0.210004
0.282735
0.558208
0.107263
0.105283
0.102994
0.100569
0.0981532
0.0958593
0.0937665
0.0919219
0.0903439
0.0890287
0.0879567
0.0870993
0.086424
0.0858983
0.0854925
0.0851813
0.0849442
0.0847657
0.0846357
0.0845491
0.0845065
0.0845155
0.0845915
0.0847606
0.0850628
0.0855554
0.0863182
0.0874596
0.0891243
0.0915048
0.0948577
0.0995306
0.106005
0.114971
0.127456
0.145079
0.170649
0.210077
0.282884
0.558756
0.101911
0.100496
0.0988463
0.0970736
0.0952797
0.093549
0.0919448
0.0905084
0.0892603
0.0882036
0.0873288
0.0866178
0.0860485
0.085598
0.0852444
0.0849687
0.0847553
0.0845925
0.0844727
0.0843929
0.084355
0.0843675
0.0844466
0.084619
0.0849248
0.085422
0.0861906
0.0873393
0.0890131
0.0914046
0.0947705
0.0994586
0.105951
0.114937
0.127444
0.145093
0.170692
0.210157
0.283031
0.559274
0.0979113
0.0968774
0.0956715
0.0943641
0.0930243
0.0917135
0.0904807
0.0893606
0.0883726
0.0875235
0.0868095
0.08622
0.0857403
0.0853543
0.0850463
0.0848022
0.0846103
0.0844621
0.084352
0.0842788
0.0842456
0.0842616
0.0843436
0.0845189
0.0848279
0.0853289
0.0861022
0.0872568
0.0889377
0.0913378
0.0947141
0.0994144
0.105921
0.114923
0.127448
0.145119
0.170743
0.210241
0.283176
0.559764
0.094921
0.0941451
0.0932484
0.0922729
0.0912639
0.0902649
0.0893129
0.0884358
0.0876511
0.0869666
0.0863822
0.0858921
0.0854868
0.0851554
0.0848866
0.0846701
0.0844975
0.0843625
0.0842616
0.0841947
0.084166
0.0841853
0.0842702
0.0844481
0.0847599
0.0852641
0.0860413
0.0872006
0.0888873
0.0912944
0.0946791
0.0993893
0.105907
0.114923
0.127465
0.145154
0.1708
0.210327
0.283319
0.560223
0.0926862
0.0920854
0.0914043
0.0906654
0.0898967
0.0891281
0.088387
0.0876952
0.0870678
0.0865126
0.0860316
0.0856219
0.0852777
0.0849918
0.0847562
0.0845636
0.084408
0.0842849
0.0841924
0.0841314
0.084107
0.0841296
0.0842171
0.0843974
0.0847118
0.0852188
0.0859992
0.0871625
0.088854
0.0912669
0.0946586
0.0993772
0.105905
0.114933
0.127488
0.145194
0.170861
0.210415
0.283457
0.56065
0.0910165
0.0905348
0.090004
0.0894332
0.0888385
0.0882394
0.0876558
0.0871045
0.0865978
0.0861433
0.0857439
0.0853986
0.0851041
0.0848557
0.084648
0.0844759
0.084335
0.0842226
0.0841377
0.0840822
0.0840619
0.0840876
0.0841777
0.0843604
0.0846771
0.0851865
0.0859698
0.0871365
0.0888321
0.0912501
0.0946478
0.0993737
0.10591
0.114949
0.127517
0.145239
0.170925
0.210504
0.283593
0.561045
0.0897686
0.0893678
0.0889416
0.0884902
0.088021
0.0875461
0.0870794
0.0866337
0.0862193
0.0858426
0.0855071
0.085213
0.0849587
0.0847411
0.0845567
0.0844019
0.0842738
0.0841708
0.0840928
0.0840424
0.0840259
0.0840547
0.0841473
0.0843322
0.084651
0.0851628
0.0859487
0.0871184
0.0888178
0.0912402
0.0946434
0.099376
0.105921
0.114969
0.12755
0.145286
0.17099
0.210593
0.283724
0.561406
0.0888345
0.0884885
0.088135
0.087768
0.0873889
0.0870046
0.0866243
0.0862579
0.0859135
0.0855967
0.0853111
0.0850575
0.0848354
0.084643
0.0844779
0.0843378
0.0842208
0.0841261
0.0840543
0.0840087
0.0839958
0.0840275
0.0841225
0.0843095
0.0846305
0.0851445
0.0859329
0.0871055
0.0888083
0.091235
0.0946433
0.0993822
0.105935
0.114993
0.127585
0.145336
0.171057
0.210683
0.28385
0.56173
0.0881327
0.0878236
0.0875204
0.087213
0.0868985
0.08658
0.0862636
0.0859563
0.0856649
0.0853941
0.0851473
0.0849258
0.0847295
0.0845576
0.0844086
0.0842809
0.0841735
0.0840861
0.08402
0.0839787
0.0839693
0.0840037
0.0841011
0.0842903
0.0846133
0.0851295
0.0859203
0.0870957
0.0888019
0.0912326
0.094646
0.099391
0.105951
0.115018
0.127622
0.145387
0.171126
0.210773
0.283973
0.562017
0.087602
0.0873176
0.087049
0.0867835
0.0865154
0.0862447
0.0859752
0.0857122
0.0854608
0.0852254
0.0850089
0.0848127
0.0846373
0.0844821
0.0843465
0.0842294
0.0841303
0.0840494
0.0839883
0.0839511
0.0839449
0.083982
0.0840817
0.084273
0.0845981
0.0851165
0.0859097
0.0870879
0.0887975
0.0912322
0.0946506
0.0994018
0.10597
0.115046
0.127661
0.14544
0.171196
0.210862
0.28409
0.562266
0.0871968
0.0869287
0.086684
0.0864479
0.0862128
0.0859769
0.0857421
0.0855122
0.0852913
0.0850832
0.0848903
0.0847142
0.0845556
0.0844143
0.0842899
0.0841818
0.0840899
0.0840148
0.0839583
0.0839248
0.0839217
0.0839614
0.0840634
0.0842568
0.084584
0.0851046
0.0859003
0.0870813
0.0887943
0.0912332
0.0946565
0.0994139
0.105989
0.115075
0.127702
0.145495
0.171267
0.210952
0.284203
0.562475
0.0868833
0.086626
0.0863974
0.086182
0.0859707
0.0857601
0.085551
0.085346
0.0851484
0.0849614
0.0847871
0.0846272
0.0844823
0.0843524
0.0842375
0.0841372
0.0840516
0.0839816
0.0839294
0.0838994
0.0838992
0.0839414
0.0840457
0.0842412
0.0845705
0.0850933
0.0858915
0.0870755
0.0887919
0.091235
0.0946635
0.0994272
0.10601
0.115106
0.127744
0.145551
0.171339
0.211041
0.28431
0.562644
0.0866371
0.0863864
0.0861688
0.0859679
0.0857736
0.0855817
0.0853917
0.0852056
0.085026
0.0848555
0.0846961
0.0845492
0.0844156
0.0842954
0.0841885
0.0840949
0.0840149
0.0839496
0.0839013
0.0838745
0.0838771
0.0839217
0.0840282
0.0842259
0.0845573
0.0850824
0.0858832
0.0870702
0.0887902
0.0912377
0.0946714
0.0994415
0.106033
0.115137
0.127787
0.145608
0.171412
0.21113
0.284412
0.562772
0.0864401
0.0861933
0.0859831
0.0857923
0.0856103
0.0854321
0.0852566
0.085085
0.0849194
0.084762
0.0846147
0.0844785
0.0843542
0.0842421
0.0841422
0.0840546
0.0839796
0.0839185
0.0838737
0.08385
0.0838552
0.0839022
0.0840108
0.0842106
0.0845443
0.0850718
0.0858753
0.0870654
0.0887891
0.091241
0.0946802
0.0994568
0.106056
0.11517
0.127832
0.145666
0.171485
0.211219
0.284509
0.562859
0.0862795
0.0860347
0.0858292
0.0856455
0.0854724
0.0853044
0.0851399
0.0849797
0.0848252
0.0846784
0.0845408
0.0844136
0.0842973
0.0841921
0.0840983
0.0840158
0.0839454
0.0838881
0.0838466
0.0838258
0.0838335
0.0838828
0.0839936
0.0841956
0.0845315
0.0850614
0.0858676
0.0870609
0.0887885
0.091245
0.0946897
0.0994731
0.10608
0.115205
0.127878
0.145726
0.17156
0.211307
0.284601
0.562905
0.0861459
0.0859018
0.0856992
0.0855203
0.0853537
0.0851934
0.0850375
0.0848862
0.0847407
0.0846025
0.0844731
0.0843534
0.0842439
0.0841448
0.0840563
0.0839786
0.0839122
0.0838584
0.08382
0.0838019
0.0838121
0.0838636
0.0839766
0.0841806
0.0845188
0.0850512
0.0858603
0.0870569
0.0887884
0.0912496
0.0947
0.0994903
0.106106
0.11524
0.127925
0.145787
0.171635
0.211395
0.284686
0.56291
0.0860327
0.0857883
0.0855872
0.0854116
0.0852497
0.0850954
0.0849462
0.084802
0.0846639
0.084533
0.0844105
0.0842972
0.0841936
0.0840999
0.0840162
0.0839426
0.0838799
0.0838295
0.083794
0.0837784
0.0837909
0.0838446
0.0839597
0.0841659
0.0845063
0.0850413
0.0858533
0.0870533
0.0887889
0.091255
0.0947112
0.0995085
0.106132
0.115277
0.127974
0.145848
0.171711
0.211482
0.284766
0.562876
0.0859351
0.0856896
0.0854891
0.0853156
0.0851572
0.0850074
0.0848636
0.0847254
0.0845934
0.0844686
0.0843521
0.0842444
0.084146
0.0840571
0.0839776
0.0839079
0.0838487
0.0838012
0.0837685
0.0837553
0.0837701
0.0838259
0.0839431
0.0841515
0.0844942
0.0850317
0.0858467
0.0870503
0.08879
0.0912611
0.0947233
0.0995277
0.10616
0.115314
0.128023
0.145911
0.171788
0.211568
0.28484
0.562803
0.0858493
0.0856023
0.0854018
0.0852295
0.0850736
0.0849274
0.084788
0.0846547
0.0845279
0.0844085
0.0842972
0.0841945
0.0841008
0.0840161
0.0839406
0.0838744
0.0838183
0.0837737
0.0837435
0.0837327
0.0837497
0.0838076
0.0839268
0.0841374
0.0844824
0.0850226
0.0858406
0.0870478
0.0887917
0.0912679
0.0947362
0.0995479
0.106189
0.115353
0.128074
0.145975
0.171864
0.211652
0.284908
0.562692
0.0857728
0.0855239
0.0853228
0.0851512
0.0849971
0.0848538
0.0847181
0.084589
0.0844668
0.084352
0.0842453
0.0841471
0.0840576
0.0839769
0.083905
0.0838421
0.0837889
0.083747
0.0837192
0.0837106
0.0837297
0.0837897
0.083911
0.0841237
0.0844711
0.0850139
0.085835
0.0870458
0.0887942
0.0912756
0.0947501
0.099569
0.106219
0.115393
0.128125
0.146039
0.171941
0.211736
0.284971
0.562541
)
;

boundaryField
{
    leftWall
    {
        type            epsilonWallFunction;
        value           nonuniform List<scalar> 0();
    }
    rightWall
    {
        type            epsilonWallFunction;
        value           nonuniform List<scalar> 
43
(
0.124732
0.248007
0.328193
0.389356
0.434606
0.467776
0.491974
0.509554
0.52228
0.531469
0.53816
0.543031
0.546582
0.549192
0.551142
0.552634
0.553815
0.554785
0.555613
0.556345
0.557011
0.557628
0.558208
0.558756
0.559274
0.559764
0.560223
0.56065
0.561045
0.561406
0.56173
0.562017
0.562266
0.562475
0.562644
0.562772
0.562859
0.562905
0.56291
0.562876
0.562803
0.562692
0.562541
)
;
    }
    lowerWall
    {
        type            epsilonWallFunction;
        value           nonuniform List<scalar> 
66
(
0.372678
0.0786454
0.0786454
0.343226
0.506641
0.649476
0.775674
0.894985
1.02048
1.17326
1.39208
1.7345
2.45666
1.66444
1.46548
1.5433
0.0737735
0.246678
0.322441
0.375407
0.416103
0.452601
0.495268
0.572184
0.763256
1.16096
0.0737735
0.0846599
0.459029
0.550875
0.609072
0.642884
0.660116
0.666668
0.666773
0.663308
0.658097
0.652686
0.649084
0.645692
0.64237
0.639154
0.636054
0.633051
0.630122
0.627249
0.624429
0.621664
0.618958
0.616309
0.6137
0.6111
0.608445
0.605635
0.602505
0.598792
0.594079
0.587709
0.578656
0.565342
0.545358
0.515046
0.468816
0.398352
0.365817
0.124732
)
;
    }
    atmosphere
    {
        type            inletOutlet;
        inletValue      nonuniform List<scalar> 0();
        value           nonuniform List<scalar> 0();
    }
    defaultFaces
    {
        type            empty;
    }
    procBoundary1to0
    {
        type            processor;
        value           nonuniform List<scalar> 
44
(
0.472502
0.451203
0.439951
0.413992
0.385359
0.36104
0.343533
0.334087
0.333886
0.342898
0.346756
0.33172
0.303362
0.270009
0.23687
0.206886
0.181335
0.16045
0.143839
0.130839
0.128561
0.128561
0.118254
0.110582
0.10485
0.10056
0.097347
0.0949425
0.0931457
0.0918055
0.0908073
0.0900643
0.0895112
0.0890986
0.0887903
0.0885595
0.0883868
0.0882585
0.0881647
0.0880987
0.0880553
0.088031
0.0880219
0.0880259
)
;
    }
    procBoundary1to3
    {
        type            processor;
        value           nonuniform List<scalar> 
45
(
0.0875899
0.0871573
0.0867436
0.0863536
0.0860074
0.0857033
0.0854524
0.0852503
0.085079
0.0849263
0.0847853
0.0846526
0.0845272
0.084409
0.0842985
0.084196
0.0841019
0.0840163
0.0839391
0.0838705
0.0838107
0.0837603
0.083721
0.0836955
0.0836891
0.0837102
0.0837721
0.0838954
0.0841102
0.0844601
0.0850056
0.0858299
0.0870445
0.0887973
0.091284
0.0947647
0.0995911
0.106249
0.115434
0.128178
0.146104
0.172018
0.211818
0.285026
0.56234
)
;
    }
}


// ************************************************************************* //
