/*--------------------------------*- C++ -*----------------------------------*\
  =========                 |
  \\      /  F ield         | OpenFOAM: The Open Source CFD Toolbox
   \\    /   O peration     | Website:  https://openfoam.org
    \\  /    A nd           | Version:  9
     \\/     M anipulation  |
\*---------------------------------------------------------------------------*/
FoamFile
{
    format      ascii;
    class       volScalarField;
    location    "0.1";
    object      p_rgh;
}
// * * * * * * * * * * * * * * * * * * * * * * * * * * * * * * * * * * * * * //

dimensions      [1 -1 -2 0 0 0 0];

internalField   nonuniform List<scalar> 
1915
(
2.34507
2.34545
2.34498
2.34538
2.32462
2.32936
2.28699
2.29902
2.23713
2.25471
2.17654
2.1964
2.10503
2.12246
2.02102
2.02685
1.92157
1.89191
1.80504
1.68581
0.933411
0.936479
0.937786
0.937296
0.934347
0.929038
0.921831
0.913227
0.903657
0.893468
0.88293
0.872264
0.861561
0.850964
0.840563
0.830426
0.820596
0.811101
0.801963
0.793195
0.784815
0.776836
0.769278
0.762158
0.755492
0.749295
0.743581
0.73836
0.733644
0.729443
0.725767
0.722626
0.720031
0.71799
0.716506
0.715571
0.715156
0.715092
0.715379
0.716086
0.93211
0.934805
0.935692
0.934775
0.931792
0.926758
0.919976
0.911835
0.9027
0.892886
0.88265
0.872182
0.861684
0.851245
0.840969
0.830928
0.821171
0.811735
0.802641
0.793909
0.785555
0.777597
0.770053
0.762942
0.756283
0.750091
0.74438
0.739164
0.734453
0.730258
0.72659
0.723457
0.720869
0.718827
0.717326
0.716342
0.715829
0.715687
0.715842
0.716299
0.930699
0.93386
0.934645
0.93332
0.930128
0.925156
0.918614
0.910795
0.901995
0.892487
0.88251
0.87226
0.861916
0.8516
0.841418
0.831449
0.821749
0.812356
0.803295
0.794587
0.78625
0.778302
0.770764
0.763656
0.756997
0.750804
0.745093
0.739876
0.735165
0.730972
0.727303
0.724167
0.721566
0.719495
0.71794
0.716866
0.716214
0.715908
0.715957
0.716462
0.92863
0.933296
0.934786
0.933523
0.930163
0.925041
0.918439
0.910641
0.901914
0.8925
0.882616
0.872449
0.862162
0.85189
0.841739
0.831793
0.82211
0.81273
0.803678
0.794975
0.786638
0.778688
0.771144
0.764027
0.757359
0.751157
0.745437
0.740211
0.735492
0.731288
0.727605
0.724447
0.721814
0.719695
0.718071
0.716907
0.716152
0.715779
0.715908
0.716539
0.925616
0.932834
0.935756
0.935047
0.931654
0.926271
0.919378
0.911346
0.902453
0.89293
0.882973
0.872753
0.86242
0.852106
0.841918
0.831941
0.822234
0.812835
0.80377
0.795056
0.786709
0.778746
0.771187
0.764055
0.75737
0.751152
0.745414
0.740172
0.735435
0.73121
0.727503
0.724313
0.721639
0.719469
0.717784
0.716555
0.715752
0.715394
0.715662
0.716433
0.921273
0.932615
0.937752
0.937905
0.934501
0.92871
0.921308
0.91281
0.903541
0.893728
0.88355
0.873155
0.862679
0.852244
0.841956
0.831898
0.822129
0.812687
0.803591
0.794855
0.786489
0.778508
0.77093
0.763777
0.757071
0.750829
0.745068
0.739802
0.73504
0.730789
0.727051
0.723826
0.721112
0.718897
0.717167
0.715904
0.715095
0.714792
0.715198
0.716084
0.915776
0.933683
0.941777
0.942547
0.938874
0.932398
0.924198
0.914982
0.905125
0.894848
0.884306
0.873622
0.862909
0.852279
0.841831
0.831648
0.821786
0.812278
0.803138
0.79437
0.78598
0.777977
0.770377
0.7632
0.756467
0.750199
0.744411
0.739116
0.734325
0.730043
0.726272
0.723014
0.720265
0.718017
0.71626
0.714987
0.7142
0.71397
0.714492
0.715461
0.908904
0.937955
0.949795
0.949715
0.945028
0.93742
0.928041
0.917811
0.907142
0.896228
0.885186
0.874103
0.863067
0.852173
0.841515
0.831169
0.821187
0.811594
0.802397
0.793591
0.785173
0.777146
0.769522
0.762319
0.755559
0.749261
0.743443
0.738117
0.733294
0.72898
0.725179
0.721891
0.719115
0.716845
0.715078
0.713815
0.713068
0.712913
0.713527
0.714547
0.888452
0.94656
0.964876
0.960592
0.95324
0.943806
0.932781
0.921208
0.9095
0.897783
0.886115
0.874535
0.8631
0.851886
0.840974
0.830433
0.820309
0.810618
0.801355
0.792506
0.784057
0.776006
0.768358
0.761131
0.754343
0.748016
0.742165
0.736807
0.731953
0.727609
0.72378
0.720468
0.717673
0.715394
0.713633
0.712394
0.711695
0.711612
0.712293
0.713338
0.847616
0.960075
0.988338
0.976152
0.963681
0.951414
0.938241
0.925013
0.912061
0.899399
0.886998
0.874843
0.862951
0.851372
0.840174
0.829415
0.819134
0.809335
0.800001
0.791106
0.782627
0.774553
0.766884
0.759634
0.75282
0.746464
0.740583
0.735194
0.73031
0.725939
0.722087
0.718757
0.715953
0.713675
0.71193
0.710725
0.710078
0.710059
0.710786
0.711838
1.65682
1.34481
1.56695
1.38875
1.5427
1.45786
1.51848
1.44624
1.48738
1.41866
1.45725
1.39662
1.4277
1.37451
1.39757
1.35022
1.36641
1.32428
1.33404
1.29656
1.26689
1.23622
1.20458
1.17198
1.13864
1.10466
1.07014
1.03522
1.00003
0.964664
0.929189
0.893629
0.858008
0.822362
0.786743
0.751215
0.715844
0.680696
0.645835
0.611309
0.577135
0.543513
0.510681
0.659313
0.872763
1.00895
1.01831
1.07711
1.0505
1.07029
1.06226
1.28273
1.17239
1.13344
1.10783
1.32182
1.22739
1.17914
1.14473
1.32828
1.25501
1.20534
1.16559
1.32693
1.26537
1.21624
1.17484
1.31677
1.26321
1.21675
1.17603
1.30037
1.25317
1.21014
1.17112
1.28018
1.23796
1.19829
1.16137
1.2573
1.21899
1.18239
1.14775
1.23193
1.1972
1.16336
1.131
1.2047
1.17301
1.14184
1.11173
1.17583
1.14697
1.11833
1.09042
1.14577
1.11948
1.09321
1.06742
1.11477
1.09082
1.06678
1.04306
1.08299
1.06123
1.03931
1.01758
1.05056
1.03087
1.01099
0.9912
1.01763
0.999934
0.981995
0.964084
0.984347
0.968545
0.952476
0.936373
0.950812
0.936817
0.922538
0.908176
0.917092
0.904827
0.892264
0.879576
0.883228
0.872627
0.861715
0.850641
0.849251
0.840261
0.830946
0.821431
0.815203
0.807778
0.800009
0.792002
0.781137
0.775231
0.768959
0.762413
0.747118
0.74268
0.737857
0.732724
0.713209
0.710191
0.706766
0.703
0.679476
0.677828
0.675751
0.673305
0.645982
0.645658
0.644882
0.643709
0.612777
0.613744
0.614229
0.614283
0.579864
0.582117
0.583847
0.585091
0.547346
0.550835
0.553793
0.556197
0.515691
0.520199
0.524247
0.527723
0.938701
0.992401
1.01184
0.993876
0.975736
0.959786
0.944081
0.928988
0.914647
0.900935
0.887727
0.874941
0.862551
0.850577
0.839071
0.828081
0.817633
0.80772
0.798313
0.789372
0.780865
0.77277
0.765083
0.757814
0.750978
0.744595
0.738687
0.73327
0.728359
0.723964
0.720094
0.716754
0.713947
0.71168
0.709959
0.708792
0.708197
0.708233
0.708989
0.710036
1.023
1.02801
1.02928
1.00915
0.987424
0.96798
0.949744
0.932773
0.917009
0.902211
0.888166
0.874725
0.861817
0.849435
0.837613
0.826387
0.81577
0.805742
0.796262
0.787279
0.778747
0.770637
0.762938
0.755654
0.7488
0.742396
0.736464
0.731024
0.72609
0.721678
0.717795
0.71445
0.711649
0.709399
0.707706
0.70658
0.706034
0.706115
0.706887
0.707921
1.07534
1.05843
1.04476
1.02151
0.997194
0.975006
0.954609
0.93595
0.918856
0.903022
0.888166
0.874085
0.860668
0.847886
0.835755
0.824299
0.813519
0.803384
0.793837
0.784817
0.776268
0.768149
0.760444
0.753152
0.746287
0.739868
0.733919
0.72846
0.723511
0.719086
0.715198
0.711855
0.709066
0.706838
0.705178
0.704093
0.703591
0.703708
0.704488
0.705503
1.10823
1.08039
1.05719
1.03079
1.00447
0.98028
0.958203
0.938156
0.919924
0.903173
0.887582
0.872911
0.859022
0.845867
0.833449
0.821782
0.810853
0.800622
0.791019
0.781972
0.773413
0.765295
0.757592
0.750301
0.743433
0.737007
0.731048
0.725578
0.72062
0.716191
0.712304
0.708971
0.706199
0.703998
0.702373
0.701329
0.700866
0.701012
0.701792
0.702788
1.12685
1.09396
1.06546
1.03674
1.00901
0.983474
0.960202
0.939118
0.919994
0.902494
0.886282
0.871102
0.8568
0.843319
0.830651
0.818801
0.807747
0.797437
0.787793
0.778731
0.770174
0.762066
0.754376
0.747095
0.740233
0.733809
0.727849
0.722378
0.71742
0.712994
0.709116
0.705798
0.703051
0.70088
0.699291
0.698285
0.697858
0.698027
0.698803
0.699777
1.13563
1.1006
1.06938
1.0393
1.01076
0.984443
0.960433
0.938662
0.918909
0.900851
0.884158
0.868571
0.853936
0.84019
0.827321
0.815326
0.804177
0.793812
0.784145
0.775083
0.766541
0.758456
0.75079
0.743531
0.736686
0.730274
0.724324
0.718861
0.713912
0.709498
0.705637
0.702341
0.699621
0.697484
0.695933
0.694964
0.694568
0.694754
0.695523
0.696475
1.13731
1.10164
1.06929
1.03864
1.00982
0.98319
0.958836
0.936698
0.916571
0.89815
0.881125
0.865249
0.850372
0.836435
0.823425
0.811332
0.800123
0.789731
0.780064
0.77102
0.762509
0.75446
0.74683
0.739605
0.732788
0.726401
0.720471
0.715027
0.710097
0.705704
0.701867
0.698601
0.695914
0.693813
0.692298
0.691364
0.690995
0.691195
0.691954
0.692885
1.13353
1.09817
1.06566
1.03505
1.00636
0.979796
0.955428
0.933201
0.912929
0.894334
0.877128
0.861085
0.846068
0.832022
0.818935
0.806796
0.795569
0.785182
0.775539
0.766534
0.75807
0.750072
0.742493
0.735314
0.728539
0.722188
0.716291
0.710878
0.705978
0.701615
0.697811
0.694578
0.691929
0.689866
0.688388
0.687487
0.687142
0.687352
0.6881
0.68901
1.12534
1.09092
1.05893
1.02881
1.00058
0.97438
0.950266
0.928188
0.907975
0.889378
0.872137
0.856049
0.840993
0.826924
0.81383
0.801701
0.7905
0.780154
0.770563
0.761619
0.753221
0.745289
0.737775
0.730656
0.723936
0.717636
0.711784
0.706414
0.701554
0.697232
0.693467
0.690276
0.687667
0.685644
0.684203
0.683332
0.683009
0.683226
0.683963
0.684851
1.11355
1.08046
1.04944
1.02015
0.992661
0.967074
0.943437
0.921705
0.901727
0.883282
0.866141
0.850126
0.835134
0.821126
0.808097
0.796036
0.784908
0.774639
0.76513
0.75627
0.747956
0.740108
0.732674
0.72563
0.71898
0.712744
0.706951
0.701635
0.696827
0.692555
0.688839
0.685694
0.683129
0.681147
0.679743
0.678902
0.678598
0.67882
0.679544
0.680412
1.09878
1.06729
1.03753
1.00933
0.982802
0.958023
0.935041
0.913819
0.894225
0.876069
0.859151
0.843319
0.828486
0.814622
0.801727
0.789793
0.778785
0.768632
0.759234
0.750482
0.742273
0.734527
0.727189
0.720236
0.71367
0.707512
0.701792
0.696544
0.691799
0.687585
0.683925
0.680832
0.678315
0.676376
0.675009
0.674195
0.673908
0.674135
0.674845
0.675693
1.08155
1.0518
1.0235
0.996596
0.97119
0.947373
0.925188
0.904608
0.885524
0.867773
0.851188
0.835639
0.821054
0.807413
0.79472
0.78297
0.772128
0.762128
0.752872
0.744253
0.736171
0.728543
0.721318
0.714472
0.708006
0.701941
0.696307
0.691139
0.686468
0.682323
0.678726
0.67569
0.673225
0.671331
0.67
0.669213
0.668943
0.669171
0.669867
0.670696
1.06227
1.03435
1.00765
0.982162
0.958003
0.935263
0.913985
0.894155
0.875685
0.858442
0.842285
0.827107
0.812852
0.799507
0.787079
0.775566
0.764937
0.755126
0.746043
0.737582
0.729647
0.722157
0.715062
0.708338
0.701987
0.69603
0.690497
0.685421
0.680836
0.676769
0.673242
0.670269
0.667859
0.666011
0.664717
0.663957
0.663701
0.663931
0.664613
0.665423
1.0413
1.01525
0.990227
0.966237
0.943409
0.921828
0.901542
0.882546
0.864776
0.848126
0.83248
0.817751
0.803899
0.790915
0.778811
0.767586
0.757212
0.747628
0.738747
0.730469
0.722701
0.715368
0.70842
0.701834
0.695614
0.68978
0.684361
0.67939
0.674901
0.670921
0.667472
0.664568
0.662216
0.660417
0.65916
0.658427
0.658185
0.658415
0.659083
0.659873
1.01893
0.994769
0.971451
0.949007
0.927562
0.907196
0.887962
0.869867
0.852868
0.836881
0.821816
0.807606
0.794219
0.781656
0.769929
0.759038
0.74896
0.739636
0.730985
0.722915
0.715336
0.708177
0.701392
0.694962
0.688888
0.683191
0.677899
0.673047
0.668665
0.664781
0.661416
0.658586
0.656296
0.654548
0.65333
0.652623
0.652395
0.652626
0.653279
0.654049
0.995413
0.97312
0.951517
0.930637
0.910599
0.891484
0.873345
0.856202
0.840028
0.824764
0.81034
0.796706
0.783841
0.77175
0.760447
0.749933
0.740187
0.731155
0.722762
0.714921
0.707551
0.700585
0.693981
0.687722
0.681809
0.676263
0.671113
0.66639
0.662126
0.658347
0.655074
0.652323
0.6501
0.648405
0.647228
0.646548
0.646333
0.646563
0.647202
0.647952
0.970944
0.950492
0.930589
0.911269
0.892647
0.8748
0.857785
0.841631
0.826327
0.811833
0.798099
0.785091
0.772795
0.761221
0.750383
0.740284
0.730903
0.722192
0.714082
0.706493
0.699351
0.692596
0.68619
0.680116
0.67438
0.668999
0.664003
0.659422
0.655285
0.65162
0.648447
0.64578
0.643627
0.641988
0.640853
0.640201
0.64
0.640229
0.640852
0.641582
0.945688
0.927036
0.908804
0.891028
0.873816
0.857243
0.841369
0.826231
0.81183
0.798144
0.785142
0.7728
0.761114
0.750095
0.739758
0.730106
0.72112
0.712756
0.704951
0.697635
0.69074
0.684213
0.67802
0.672149
0.666603
0.661401
0.656572
0.652143
0.648144
0.644602
0.641535
0.638958
0.63688
0.6353
0.634208
0.633584
0.633397
0.633625
0.634233
0.634942
0.919777
0.902876
0.886279
0.870021
0.854205
0.838904
0.824179
0.810073
0.796601
0.783755
0.771516
0.759875
0.748831
0.738399
0.728593
0.719416
0.71085
0.702856
0.695378
0.688354
0.681725
0.675443
0.669479
0.663824
0.658482
0.653473
0.648821
0.644556
0.640705
0.637293
0.634339
0.631858
0.629858
0.62834
0.627294
0.6267
0.626527
0.626754
0.627345
0.628033
0.893317
0.878114
0.863111
0.848341
0.833901
0.819863
0.806289
0.793227
0.780703
0.768719
0.757271
0.746356
0.735982
0.726163
0.716913
0.708233
0.700109
0.692505
0.685374
0.67866
0.672312
0.666291
0.660572
0.655147
0.650023
0.645218
0.640756
0.636664
0.63297
0.629695
0.626861
0.624482
0.622565
0.621112
0.620114
0.61955
0.619391
0.619617
0.620191
0.620857
0.866393
0.852836
0.839384
0.82607
0.812984
0.800196
0.787771
0.775759
0.764195
0.753091
0.742454
0.732288
0.722604
0.713417
0.704741
0.696577
0.688912
0.681717
0.674949
0.668562
0.662513
0.656768
0.651307
0.646126
0.641232
0.636642
0.63238
0.628472
0.624942
0.621813
0.619105
0.616832
0.615003
0.613618
0.612669
0.612137
0.611993
0.612218
0.612775
0.613418
0.839078
0.827116
0.815173
0.803281
0.791525
0.779973
0.768691
0.757732
0.747136
0.736924
0.727112
0.717709
0.70873
0.700191
0.692103
0.68447
0.677279
0.670507
0.664118
0.658073
0.652337
0.646882
0.641694
0.636769
0.632116
0.627753
0.6237
0.619983
0.616625
0.613649
0.611073
0.608912
0.607174
0.605861
0.604964
0.604464
0.604336
0.604559
0.605098
0.605719
0.811434
0.801019
0.790545
0.780043
0.769592
0.759261
0.749114
0.739206
0.729582
0.720271
0.711292
0.702662
0.694398
0.686516
0.679027
0.671934
0.66523
0.658893
0.652896
0.647207
0.641797
0.636646
0.631742
0.627085
0.622685
0.618557
0.614722
0.611204
0.608026
0.605208
0.60277
0.600726
0.599083
0.597843
0.597
0.596535
0.596423
0.596644
0.597166
0.597763
0.783523
0.774609
0.765565
0.756422
0.747253
0.738126
0.729103
0.720241
0.711589
0.70318
0.695039
0.687187
0.679642
0.672422
0.665538
0.658994
0.652785
0.646895
0.641301
0.63598
0.630909
0.626073
0.621465
0.617086
0.612946
0.609062
0.605453
0.602142
0.599149
0.596496
0.594201
0.592277
0.590733
0.58957
0.588783
0.588354
0.588258
0.588478
0.58898
0.589553
0.755404
0.747948
0.740298
0.732482
0.724572
0.71663
0.708718
0.700895
0.69321
0.685701
0.678397
0.671322
0.664498
0.657941
0.651665
0.645675
0.639968
0.634532
0.629352
0.62441
0.619688
0.615178
0.610875
0.606783
0.602912
0.599279
0.595902
0.592803
0.590002
0.587518
0.58537
0.583571
0.582129
0.581046
0.580316
0.579924
0.579845
0.580063
0.580547
0.581096
0.727139
0.721101
0.714808
0.70829
0.701613
0.694837
0.688021
0.681224
0.674496
0.66788
0.661407
0.655106
0.648999
0.643105
0.637437
0.632003
0.626802
0.621828
0.61707
0.612514
0.608151
0.603975
0.599985
0.596188
0.592593
0.589217
0.586078
0.583196
0.580592
0.578283
0.576286
0.574615
0.573278
0.572277
0.571606
0.571251
0.57119
0.571407
0.571872
0.572395
0.698795
0.694132
0.689161
0.683911
0.67844
0.672806
0.667067
0.66128
0.655497
0.649762
0.644112
0.638576
0.63318
0.627943
0.622882
0.618005
0.613314
0.608806
0.604475
0.600313
0.596316
0.592482
0.588812
0.585315
0.582001
0.578888
0.575991
0.573332
0.570927
0.568796
0.566954
0.565414
0.564184
0.563267
0.562657
0.56234
0.562297
0.562513
0.562958
0.563455
0.670438
0.66711
0.663424
0.659408
0.655115
0.650598
0.645913
0.641116
0.63626
0.631391
0.626549
0.621768
0.617074
0.61249
0.608032
0.603709
0.599529
0.59549
0.59159
0.587828
0.584203
0.580715
0.57737
0.574178
0.57115
0.568303
0.565653
0.563219
0.561018
0.559068
0.557383
0.555977
0.554856
0.554024
0.553475
0.553199
0.553174
0.553388
0.553813
0.554284
0.642134
0.640101
0.637662
0.634845
0.631697
0.628268
0.62461
0.620779
0.616828
0.612807
0.608759
0.604719
0.600717
0.596777
0.592915
0.589146
0.585474
0.581906
0.578441
0.575081
0.571831
0.568693
0.565677
0.562792
0.560053
0.557475
0.555074
0.552868
0.550873
0.549106
0.547581
0.54631
0.5453
0.544554
0.544069
0.543832
0.543826
0.544038
0.544443
0.544887
0.613953
0.61317
0.611939
0.610284
0.608246
0.605871
0.603209
0.600316
0.597247
0.594052
0.590779
0.587465
0.584142
0.580836
0.577565
0.574343
0.571179
0.56808
0.56505
0.562095
0.55922
0.556434
0.553748
0.551173
0.548724
0.546417
0.544266
0.54229
0.540503
0.538921
0.537557
0.536423
0.535525
0.534867
0.534445
0.534248
0.53426
0.53447
0.534854
0.535272
0.585962
0.586383
0.586316
0.585781
0.584815
0.583458
0.581759
0.579773
0.577557
0.575165
0.572646
0.570042
0.567384
0.564702
0.562013
0.559333
0.556672
0.554039
0.551443
0.54889
0.546392
0.543958
0.541602
0.539337
0.537178
0.535142
0.533243
0.531496
0.529918
0.528522
0.52732
0.526323
0.525538
0.524969
0.524611
0.524454
0.524484
0.524691
0.525054
0.525444
0.558225
0.559801
0.560848
0.561388
0.561449
0.561069
0.560296
0.559185
0.557795
0.556181
0.554396
0.552482
0.550475
0.548403
0.546286
0.54414
0.541977
0.539807
0.53764
0.535488
0.533364
0.53128
0.529253
0.527297
0.525429
0.523663
0.522014
0.520498
0.519128
0.517917
0.516878
0.516019
0.515348
0.514867
0.514573
0.514457
0.514506
0.514709
0.51505
0.515412
0.530833
0.533491
0.535585
0.537138
0.538173
0.538725
0.53884
0.538573
0.537982
0.537125
0.536053
0.534813
0.53344
0.531963
0.530404
0.528782
0.527108
0.525395
0.523655
0.5219
0.520148
0.518413
0.516713
0.515066
0.513486
0.51199
0.510592
0.509305
0.508142
0.507116
0.506239
0.505518
0.50496
0.504567
0.504337
0.504262
0.504329
0.504529
0.504849
0.505182
)
;

boundaryField
{
    leftWall
    {
        type            fixedFluxPressure;
        gradient        nonuniform List<scalar> 0();
        value           nonuniform List<scalar> 0();
    }
    rightWall
    {
        type            fixedFluxPressure;
        gradient        uniform 0;
        value           nonuniform List<scalar> 
43
(
0.716086
0.716299
0.716462
0.716539
0.716433
0.716084
0.715461
0.714547
0.713338
0.711838
0.710036
0.707921
0.705503
0.702788
0.699777
0.696475
0.692885
0.68901
0.684851
0.680412
0.675693
0.670696
0.665423
0.659873
0.654049
0.647952
0.641582
0.634942
0.628033
0.620857
0.613418
0.605719
0.597763
0.589553
0.581096
0.572395
0.563455
0.554284
0.544887
0.535272
0.525444
0.515412
0.505182
)
;
    }
    lowerWall
    {
        type            fixedFluxPressure;
        gradient        uniform 0;
        value           nonuniform List<scalar> 
66
(
2.34507
2.34545
2.34545
2.34538
2.32936
2.29902
2.25471
2.1964
2.12246
2.02685
1.89191
1.68581
0.659313
0.872763
1.00895
1.01831
0.933411
0.93211
0.930699
0.92863
0.925616
0.921273
0.915776
0.908904
0.888452
0.847616
0.933411
0.936479
0.937786
0.937296
0.934347
0.929038
0.921831
0.913227
0.903657
0.893468
0.88293
0.872264
0.861561
0.850964
0.840563
0.830426
0.820596
0.811101
0.801963
0.793195
0.784815
0.776836
0.769278
0.762158
0.755492
0.749295
0.743581
0.73836
0.733644
0.729443
0.725767
0.722626
0.720031
0.71799
0.716506
0.715571
0.715156
0.715092
0.715379
0.716086
)
;
    }
    atmosphere
    {
        type            totalPressure;
        rho             rho;
        psi             none;
        gamma           1;
        p0              nonuniform List<scalar> 0();
        value           nonuniform List<scalar> 0();
    }
    defaultFaces
    {
        type            empty;
    }
    procBoundary1to0
    {
        type            processor;
        value           nonuniform List<scalar> 
44
(
2.35316
2.3521
2.3266
2.28218
2.22731
2.16512
2.09608
2.01967
1.935
1.84337
1.74866
1.67343
1.62663
1.58767
1.54883
1.51165
1.47593
1.44062
1.40527
1.36956
1.30107
1.30107
1.26686
1.23249
1.1977
1.16212
1.12599
1.08942
1.05254
1.01545
0.97825
0.940996
0.903718
0.866436
0.829173
0.791973
0.7549
0.718026
0.681422
0.645156
0.609302
0.573966
0.539113
0.504788
)
;
    }
    procBoundary1to3
    {
        type            processor;
        value           nonuniform List<scalar> 
45
(
0.478548
0.484986
0.490527
0.4954
0.499795
0.503871
0.507511
0.510564
0.513054
0.515001
0.516436
0.517402
0.51795
0.518135
0.518014
0.517637
0.517052
0.516297
0.515401
0.514387
0.513273
0.512075
0.510807
0.509487
0.508128
0.506749
0.505365
0.503996
0.502657
0.501366
0.500138
0.498988
0.497928
0.49697
0.496127
0.495409
0.494824
0.494379
0.494074
0.493908
0.493873
0.493959
0.494157
0.494456
0.494762
)
;
    }
}


// ************************************************************************* //
