/*--------------------------------*- C++ -*----------------------------------*\
  =========                 |
  \\      /  F ield         | OpenFOAM: The Open Source CFD Toolbox
   \\    /   O peration     | Website:  https://openfoam.org
    \\  /    A nd           | Version:  9
     \\/     M anipulation  |
\*---------------------------------------------------------------------------*/
FoamFile
{
    format      ascii;
    class       volVectorField;
    location    "120";
    object      U;
}
// * * * * * * * * * * * * * * * * * * * * * * * * * * * * * * * * * * * * * //

dimensions      [0 1 -1 0 0 0 0];

internalField   nonuniform List<vector> 
112055
(
(0.479024 0.0165181 0)
(0.503462 -0.00469342 0)
(0.525811 -3.19849e-05 -1.87499e-20)
(0.533687 -0.0072631 5.98692e-21)
(0.465334 0.00283185 6.89039e-21)
(0.499779 0.00456252 0)
(0.480222 0.0158587 -6.51396e-20)
(0.533087 -0.00709142 0)
(0.518791 -7.78515e-05 -1.12078e-20)
(0.48033 -0.0026517 3.58278e-21)
(0.503445 -0.00478649 1.56488e-20)
(0.481881 0.019943 -4.35345e-20)
(0.518617 -0.000313893 5.4089e-21)
(0.4819 0.0195655 4.15909e-20)
(0.459165 -0.0060707 -2.65059e-20)
(0.519531 -0.00332802 5.76095e-22)
(0.39414 -0.0265216 6.32952e-20)
(0.468899 -0.048006 -2.42209e-21)
(0.504067 -0.00682925 0)
(0.518709 0.00635213 -7.67897e-21)
(0.515061 0.00304025 2.78965e-23)
(0.5064 0.00481491 0)
(0.504076 -0.00692992 -9.06323e-21)
(0.514375 -0.0106532 -3.32181e-22)
(0.380082 0.0452408 0)
(0.503149 -6.82601e-05 -3.19072e-21)
(0.430562 0.0260361 -1.99458e-20)
(0.500546 0.0018846 0)
(0.49983 0.00450577 0)
(0.515059 0.00327791 -4.01101e-23)
(0.499991 -4.82361e-06 -4.21504e-20)
(0.544004 0.0219213 0)
(0.517242 0.00191376 0)
(0.0980215 -0.0481401 -3.31475e-20)
(0.518826 -6.89997e-05 1.03443e-20)
(0.516211 0.000901802 -7.76031e-22)
(0.518834 0.00627579 0)
(0.356088 0.120547 1.60511e-20)
(0.536272 -0.0147399 0)
(0.513339 -0.0018961 2.36089e-22)
(0.516346 0.000942233 2.85748e-21)
(0.534475 -0.0147583 1.11419e-20)
(0.511826 -0.00514644 5.15634e-22)
(0.525585 -3.30376e-05 3.14364e-20)
(0.467815 -0.0482428 0)
(0.5161 -0.00816429 0)
(0.102182 -0.0474215 0)
(0.391489 -0.0361404 0)
(0.522751 -0.0220281 -1.05464e-20)
(0.534045 -0.0150099 2.27711e-21)
(0.532372 -0.00642251 1.67767e-20)
(0.541936 0.107492 0)
(0.512684 0.00603271 9.22581e-22)
(0.535777 -0.0142134 3.02126e-20)
(0.519702 0.0017664 1.80317e-20)
(0.479951 0.0163373 3.19278e-20)
(0.364327 0.0729413 1.0366e-21)
(0.369878 -0.108064 0)
(0.53517 0.0674623 0)
(0.516129 -0.00803201 1.36758e-21)
(0.487015 -0.00898888 2.32371e-20)
(0.399134 -0.0365982 5.3183e-21)
(0.514974 0.00272823 -1.81243e-22)
(0.514973 0.00282569 1.91477e-22)
(0.494321 -0.00124645 0)
(0.519267 -1.79829e-05 -1.24424e-20)
(0.35032 0.121479 0)
(0.498363 0.00506584 0)
(0.508738 0.0144737 6.51591e-22)
(0.521851 -0.00388375 -7.43206e-21)
(0.364889 -0.108032 7.85072e-21)
(-0.072128 -0.0044904 -4.55884e-22)
(0.514182 -0.0106555 0)
(0.439123 0.00709613 7.37876e-20)
(0.601247 0.00373979 -1.34941e-19)
(0.253444 -0.202054 -7.41985e-21)
(0.50279 0.000711678 -2.45344e-21)
(0.479296 0.0162221 -3.37257e-20)
(0.541786 0.0458774 -2.4325e-20)
(0.535249 -0.0143004 -3.97334e-20)
(0.500479 -0.0340364 -1.0164e-20)
(0.217405 -0.187361 -7.54004e-21)
(0.532149 -0.00650784 0)
(0.502475 -0.00189952 -1.6018e-21)
(0.519702 -0.00348268 1.82353e-21)
(0.507507 -0.00106801 6.12929e-21)
(0.524917 -0.0359016 -1.31175e-20)
(0.519613 0.00168641 1.88285e-20)
(0.0531854 0.149136 1.04043e-19)
(0.519438 0.00179797 0)
(0.519879 0.00304513 -1.32881e-21)
(0.516208 0.000909258 8.03331e-22)
(0.525491 -0.0358233 0)
(0.467601 0.00625439 -1.41228e-20)
(0.602423 0.00276048 0)
(0.502877 0.000798703 3.93272e-21)
(0.528953 0.0173898 -7.46697e-20)
(0.45982 -0.0060548 4.5164e-20)
(0.499989 -9.35925e-06 1.94745e-20)
(0.36478 0.0783534 0)
(0.518584 -0.000318729 4.94855e-21)
(0.515111 0.00069261 2.58093e-24)
(0.518702 -0.000560568 1.26845e-21)
(0.50246 -0.00570441 -3.05237e-20)
(0.565394 -0.00484338 0)
(0.306792 -0.0171306 -2.48872e-20)
(0.49435 -0.00135552 0)
(0.512437 -0.0151969 0)
(0.513794 0.000213275 -3.83639e-22)
(0.507535 -0.000863167 0)
(-0.072724 -0.00631831 6.48293e-20)
(0.523755 0.0118024 -1.18677e-20)
(0.519616 8.67922e-05 0)
(0.502311 0.0232999 1.29816e-20)
(0.508689 0.0143456 0)
(0.474063 0.00937573 6.38677e-20)
(0.493052 0.0212179 0)
(0.518561 -0.00176844 0)
(0.0627377 0.152843 -1.21892e-19)
(0.519118 -0.000377245 -6.54369e-21)
(0.500577 -0.00270607 8.69404e-21)
(0.500551 0.0019268 0)
(0.480465 -0.00238811 0)
(0.533285 -0.0127817 7.80896e-21)
(0.516361 0.000966196 -5.43668e-21)
(0.502573 -0.00572871 9.86578e-21)
(0.498144 0.0303353 -6.63611e-20)
(0.530679 0.00121883 1.66769e-21)
(0.523626 0.00252679 -1.01707e-20)
(0.566449 -0.00367054 0)
(0.531904 -0.0142793 -1.1315e-21)
(0.431161 0.0273658 -7.1802e-20)
(0.534384 -0.00603979 8.26834e-21)
(0.402559 0.0196425 8.39694e-20)
(0.536864 -0.0146602 1.19217e-20)
(0.513428 -0.00194167 0)
(0.51814 -0.000375463 8.37161e-22)
(0.508513 0.00682605 0)
(0.525669 0.00107294 7.10634e-21)
(0.258576 -0.127055 -2.02745e-20)
(0.508649 0.00684295 0)
(0.32844 -0.0492855 0)
(0.52106 0.0194726 -7.75001e-21)
(0.443894 -0.218625 0)
(0.512513 -0.0158946 5.56906e-22)
(0.52046 0.0219278 3.73829e-21)
(0.474011 -0.0371308 8.30929e-21)
(0.510803 0.00941201 0)
(0.518409 -0.00172994 2.22869e-21)
(0.475152 0.0033689 0)
(0.320331 -0.0191952 0)
(0.50695 0.00427928 0)
(0.485245 0.00273446 0)
(0.51256 0.0052548 2.44416e-22)
(0.52552 0.00100176 0)
(0.501512 -0.0132001 2.90094e-20)
(0.498405 8.23911e-05 -1.50792e-20)
(0.502165 0.0229653 0)
(0.533862 0.0672184 -1.14406e-20)
(0.522364 0.0397829 1.23542e-20)
(0.519568 9.06226e-05 2.1461e-23)
(0.395736 -0.0117241 -2.81049e-21)
(0.521196 0.00350467 -1.79092e-21)
(0.518892 0.00598827 7.22819e-21)
(0.516284 0.000294865 -3.47017e-21)
(0.513145 0.00613136 -3.55975e-22)
(0.497569 0.00361536 -4.83842e-21)
(0.544475 0.0215283 8.02844e-22)
(0.518919 0.0014905 5.03154e-21)
(0.494165 0.00291266 0)
(0.498861 -0.00916638 -5.83282e-20)
(0.501565 -0.0133222 1.63539e-20)
(0.521138 0.00341372 6.40342e-21)
(0.444078 -0.212225 2.76098e-21)
(0.549365 0.00227066 -1.3326e-20)
(0.51915 -0.000376545 9.56295e-21)
(0.523742 -0.0217059 4.41422e-21)
(0.521536 -0.00121851 1.47651e-20)
(0.523691 0.0178933 2.29175e-20)
(0.498282 -0.0174856 4.63309e-21)
(0.548781 0.00225495 6.62444e-20)
(0.516277 -0.000978517 -6.67989e-22)
(0.521609 0.00920529 4.69263e-21)
(0.499934 -6.4085e-06 -6.30066e-20)
(0.540087 -0.0172383 -4.62692e-20)
(0.481431 -0.0515707 2.81116e-20)
(0.395601 -0.0143725 3.04513e-21)
(0.516318 0.000300172 4.07429e-21)
(0.521363 0.021124 4.56452e-21)
(0.51601 0.0133948 3.74098e-21)
(0.509025 -0.00953637 0)
(0.517208 0.00190163 -3.72983e-21)
(0.519295 0.00182981 -7.27195e-21)
(0.500578 -0.00278974 1.56752e-20)
(0.523279 -0.00078178 -8.88566e-21)
(0.517062 0.00214173 1.94494e-23)
(0.532461 0.00768306 0)
(0.528514 0.0107679 -1.64924e-20)
(0.530315 -0.0102956 -2.42011e-21)
(0.498475 9.7033e-05 4.6278e-20)
(0.376669 -0.00175276 -2.71471e-20)
(0.491403 0.00284574 3.61052e-20)
(0.486799 -0.00866208 4.78885e-20)
(0.524122 -0.00910167 0)
(0.499865 -0.0275689 1.02921e-22)
(0.47455 0.00916727 -5.40257e-20)
(0.358992 -0.0740722 0)
(0.495539 0.01843 2.72896e-20)
(0.41407 -0.027895 -6.40011e-20)
(0.518604 -0.000499526 0)
(0.511021 -0.00821688 2.16159e-21)
(0.515439 0.000217239 0)
(0.474755 -0.0374357 -3.3681e-20)
(0.518593 -0.000543133 -1.92157e-23)
(0.528464 0.0168001 4.16075e-20)
(0.495295 0.0185622 1.61882e-21)
(0.498698 -0.00921092 3.61412e-20)
(0.526881 -0.0238832 0)
(0.517876 0.000249731 3.57271e-21)
(0.534546 -0.00616437 0)
(0.516442 -0.00393993 2.85526e-22)
(0.55321 0.0278901 0)
(0.519257 -2.56863e-05 1.13731e-20)
(0.522785 0.0394357 -1.48489e-20)
(0.587422 -0.0126089 1.53109e-19)
(0.518886 0.00149371 -3.1549e-21)
(0.515081 0.000694336 -3.06399e-22)
(0.497166 0.0209239 -2.16801e-20)
(0.506241 -0.0120094 -6.92543e-21)
(0.51762 -0.000988743 -3.69627e-23)
(0.516152 0.000880424 -6.59725e-22)
(0.517921 0.000254127 -3.3172e-21)
(0.539853 -0.0177023 -3.15576e-20)
(0.501263 0.000979174 -1.2062e-20)
(0.552352 -0.102275 0)
(0.345912 0.0233225 -1.16583e-20)
(0.517101 0.00196698 -1.21619e-22)
(0.516154 0.000882098 0)
(-0.00949417 -0.0135328 8.99252e-21)
(0.256156 0.053302 5.15193e-20)
(0.489042 -0.0122422 -2.69937e-21)
(0.534794 0.0275735 -3.25027e-20)
(0.521417 -0.0024845 -8.27906e-21)
(0.487749 -0.0134953 -2.46434e-22)
(0.517214 -0.000832079 6.95592e-21)
(0.552601 -0.100847 1.9466e-20)
(0.527835 0.0065779 -2.02592e-20)
(0.534365 -0.00524798 3.57225e-20)
(0.52949 0.0264182 8.73819e-21)
(0.534101 -0.006399 1.06206e-20)
(0.516968 0.0160847 0)
(0.516431 -0.000861976 1.06209e-21)
(0.20542 -0.0229619 0)
(0.522113 0.00532151 1.15887e-20)
(0.532138 0.00741851 2.33616e-21)
(0.474466 0.00544203 -8.40362e-23)
(0.509051 -0.00942848 7.61603e-21)
(0.523638 0.00246699 1.87817e-20)
(0.0336457 0.0177408 4.31695e-20)
(0.518687 -0.000603313 -2.82064e-21)
(0.58815 -0.0114346 -1.67298e-19)
(0.469936 0.0680053 -4.49967e-21)
(0.513247 0.00609776 9.55939e-22)
(0.480959 -0.0508323 -5.28834e-20)
(0.400893 0.0295863 0)
(0.515859 0.0134803 -3.25142e-21)
(0.502136 -0.0275935 7.36842e-24)
(0.52146 -0.00123158 -7.66215e-21)
(0.488641 -0.0299955 -1.72815e-20)
(0.497972 0.00385028 2.16661e-21)
(0.51695 0.0157795 4.41999e-21)
(0.472865 -0.038449 0)
(0.52984 -0.0106713 2.39528e-21)
(0.540216 0.106753 -2.335e-21)
(0.522073 -0.00292294 -2.15196e-24)
(0.289236 -0.0311656 7.20487e-20)
(0.592582 0.018557 5.76788e-20)
(-0.0028629 -0.00599125 0)
(-0.00256993 -0.00547026 -9.46908e-21)
(0.196166 -0.021236 5.15585e-20)
(0.513783 0.000233255 -1.14259e-22)
(0.504595 0.0103926 -8.81519e-21)
(0.489532 -0.0404575 4.20586e-20)
(0.499486 0.0054568 0)
(0.500329 0.00104384 0)
(0.523922 0.0178681 -2.57833e-20)
(0.500192 -0.000320968 1.2647e-20)
(0.515749 -0.000689417 -4.04206e-21)
(0.529826 0.00101653 2.01432e-22)
(0.487988 -0.0299658 -4.09707e-20)
(0.542162 0.0160416 7.60109e-21)
(0.513953 0.00144968 0)
(0.50079 -0.00170314 0)
(0.517468 0.000491521 0)
(0.501197 0.000943248 0)
(0.500363 0.00106177 0)
(0.496014 0.00341189 0)
(0.519749 0.000981363 0)
(0.516818 0.000834817 0)
(0.519765 0.0031975 -1.76256e-21)
(0.504127 0.00999329 -2.17998e-20)
(0.499921 1.76851e-05 2.80947e-20)
(0.497449 0.0208109 0)
(0.500442 -0.000102439 0)
(0.530659 -0.00614182 -2.40804e-20)
(0.534572 -0.00667567 -1.03726e-20)
(0.522054 0.00935865 -4.74707e-21)
(0.519785 0.0127151 -1.63634e-20)
(0.52219 -0.00294911 7.35381e-23)
(0.514014 0.001326 2.97907e-22)
(0.518739 0.00606576 -1.17445e-21)
(0.507175 0.00868327 2.34046e-22)
(0.516892 -0.002227 -1.02507e-21)
(0.47571 0.00262668 0)
(0.537039 0.00363713 0)
(0.554094 0.0278017 1.38397e-22)
(0.550093 -0.0243998 0)
(0.341294 0.0117183 -7.50217e-21)
(0.517544 -0.000803197 -3.10363e-23)
(0.516772 0.000820791 -2.14469e-21)
(0.517182 -0.00078556 -7.68609e-21)
(0.400066 0.0187355 9.02556e-22)
(0.454778 -0.0258305 -2.22646e-22)
(0.51967 0.000976878 -2.65762e-21)
(0.527762 0.0058857 2.66124e-20)
(0.526777 -0.0107744 -1.70457e-20)
(0.33115 -0.0522779 3.21113e-20)
(0.511707 -0.00521318 -7.38861e-22)
(0.50447 0.0102675 0)
(0.518202 -0.000355408 0)
(0.506223 -0.0118882 7.61545e-21)
(0.368417 -0.0592442 -4.82842e-21)
(0.493332 0.0213694 1.41074e-20)
(0.529527 -0.00353566 1.56071e-22)
(0.530759 0.00153495 2.86947e-20)
(0.51219 0.00358609 -1.62943e-21)
(0.517684 -0.000983903 -1.62428e-21)
(0.562794 0.00989379 -2.71504e-20)
(0.506997 0.00861339 2.3186e-22)
(0.213658 0.0629089 7.42113e-20)
(0.376294 -0.00416788 -8.86593e-21)
(0.519207 0.0331859 3.38555e-20)
(0.386923 0.0485006 3.58832e-21)
(0.51989 0.0035152 -5.49572e-23)
(0.393217 -0.0444344 -2.50396e-21)
(0.534687 -0.00508567 -3.57806e-20)
(0.511446 0.00966365 0)
(0.536388 -0.0101478 0)
(0.494318 0.00290696 1.17982e-20)
(0.508888 -0.0308992 0)
(0.462884 -0.0270986 -5.3423e-20)
(0.486744 -0.0181651 -1.0237e-20)
(0.48374 0.000271905 5.07202e-22)
(0.291474 -0.0563278 -5.95207e-20)
(0.522446 -0.00157216 2.6038e-20)
(0.522428 -0.00153595 -2.45421e-20)
(0.439119 -0.0150744 0)
(0.496573 -0.0193707 0)
(0.517345 0.00210636 0)
(0.482636 -0.00407521 -1.38576e-22)
(0.58258 0.132305 -9.15357e-22)
(0.517305 0.00208099 2.40116e-21)
(0.530639 0.00158199 -1.56898e-20)
(0.221724 -0.0662941 0)
(0.527945 0.0267825 2.44698e-21)
(-0.0105868 -0.0152533 1.80527e-20)
(0.214853 0.0580528 -2.03219e-20)
(0.527149 0.014384 -1.43e-20)
(0.504279 0.0100497 6.55766e-21)
(0.521878 -0.00416604 2.36584e-21)
(0.468758 -0.0406337 -8.10698e-20)
(0.467962 -0.0401297 7.24394e-20)
(0.494948 -0.017995 0)
(0.480661 -0.058378 0)
(0.00874846 -0.00972606 -2.12703e-20)
(0.511493 -0.000948644 -1.03839e-22)
(0.51147 -0.000950564 9.58862e-23)
(0.523414 -0.010433 0)
(0.523455 0.0120307 3.49257e-21)
(0.529822 0.018093 -4.90577e-21)
(0.516948 -0.00234105 -9.32085e-22)
(0.499916 -0.00152015 4.83208e-21)
(0.482586 -0.0043919 2.01539e-22)
(0.412267 0.0298902 -8.35298e-21)
(0.520072 0.0127568 1.72571e-20)
(0.511943 0.00125167 -4.41845e-23)
(0.511936 0.00127723 0)
(0.526327 -0.0238044 -2.47104e-21)
(0.490003 -0.0397696 -1.71919e-20)
(0.471197 -0.0158168 0)
(0.505249 0.0789767 1.0787e-21)
(0.510452 -0.0033918 -9.45637e-22)
(0.51507 0.0437592 0)
(0.563813 0.0167396 -7.58854e-20)
(0.439919 0.00632914 -5.50408e-20)
(0.542801 0.0152639 -1.10652e-20)
(0.508394 -0.00631379 2.2172e-21)
(0.532374 -0.0189829 -2.42372e-20)
(0.352489 -0.294424 -3.94948e-22)
(0.506457 0.040299 0)
(0.471063 0.0686206 -5.87623e-22)
(0.503967 0.0777651 0)
(0.140615 -0.12093 0)
(0.483548 0.0197148 0)
(0.51047 0.00788175 8.01977e-22)
(0.559991 0.148959 -3.72433e-20)
(0.529276 0.0214645 -1.26131e-20)
(0.52185 -0.00376354 5.59303e-21)
(0.512199 -0.00943005 4.64691e-21)
(0.505512 0.00586382 0)
(0.52949 -0.00367422 0)
(0.512837 -0.00198403 0)
(0.523278 -0.00256493 4.50908e-21)
(0.512848 -0.00194183 -7.97241e-24)
(0.512624 0.00354396 -7.67153e-22)
(0.534602 0.00709341 0)
(0.500107 0.0012717 1.70259e-20)
(0.536807 0.0033539 -1.12187e-20)
(0.517937 9.87831e-05 -1.44546e-20)
(0.500975 -0.00689925 0)
(0.453808 -0.0252437 1.46232e-20)
(0.520037 0.000475681 0)
(0.510774 0.0115915 -8.75588e-21)
(0.500231 -0.0028787 3.84934e-20)
(0.500218 -0.000348879 -5.47438e-20)
(0.530367 0.00295822 7.16992e-21)
(0.495368 -0.0226713 2.09009e-20)
(0.46597 -0.0100858 4.70724e-21)
(0.549539 -0.0233753 0)
(0.529576 0.0213824 -4.52532e-21)
(0.523387 -0.00249109 -4.15853e-21)
(0.495204 -0.0178982 0)
(0.521309 0.00213126 3.19712e-20)
(0.524749 -0.132496 0)
(0.535077 0.0469038 1.60618e-20)
(0.463464 -0.0276404 0)
(0.51478 0.00199452 0)
(0.536637 -0.00996544 -2.75961e-21)
(0.260599 0.058068 -5.1692e-20)
(0.463351 -0.0407471 -2.58823e-20)
(0.530308 0.00286067 0)
(0.563367 0.00646703 2.30685e-20)
(0.500093 0.00130409 4.57169e-23)
(0.27694 -0.0566188 -3.24814e-20)
(0.503061 0.000844743 0)
(0.510708 -0.000459347 -4.89444e-23)
(0.440219 -0.0158853 -1.71251e-20)
(0.464307 -0.0401054 -1.12167e-20)
(0.367774 -0.0571265 4.30327e-21)
(0.531826 -0.0189022 3.94359e-20)
(0.273762 -0.117835 1.27344e-20)
(0.500537 -0.00238866 -2.71493e-20)
(0.520074 0.000512655 3.69698e-21)
(0.499542 0.00555415 -1.15359e-20)
(0.526588 -0.0104894 1.70185e-20)
(0.0458974 -0.0109913 -8.76353e-20)
(0.520558 -0.00411294 2.1988e-22)
(0.525188 -0.00819898 1.80888e-21)
(0.496952 -0.0289719 0)
(0.513885 0.00125444 0)
(0.511708 -0.00823722 3.22804e-21)
(0.520151 0.0219351 0)
(0.514 0.00145656 0)
(0.306688 0.0540913 4.85956e-20)
(0.534224 0.0275674 2.67038e-20)
(0.520023 -0.00318359 -1.75933e-22)
(0.515656 -0.00113852 0)
(0.483482 0.0201363 -3.70874e-22)
(0.500795 -0.00165886 0)
(0.534886 -0.00928506 1.4648e-20)
(0.499895 -0.00155414 1.94967e-20)
(0.515409 0.000205932 1.18217e-21)
(0.521203 0.00217871 -2.24232e-20)
(0.512932 0.00722395 -7.07129e-21)
(0.500197 0.0216364 9.50261e-21)
(0.532007 -0.0072337 1.33467e-20)
(0.518728 -0.00162319 0)
(0.516531 -0.0038815 0)
(0.518738 0.000595606 0)
(0.472151 0.00877634 3.48732e-22)
(0.308552 -0.056183 1.14785e-19)
(0.0106718 -0.0102559 1.91222e-20)
(0.406651 0.0291196 4.656e-21)
(0.542409 0.0448516 0)
(0.516505 -0.000638706 5.80295e-21)
(0.0387339 0.0243932 0)
(0.490928 0.00369222 -8.65636e-21)
(0.39405 -0.045783 2.06311e-21)
(0.521357 -0.00253106 0)
(0.518684 -0.00163085 0)
(0.511511 -0.00113008 0)
(0.600352 0.0146821 -1.73078e-20)
(0.53071 -0.00619817 2.49779e-20)
(0.520138 -0.00280466 2.18671e-22)
(0.495783 -0.0227111 6.43619e-21)
(0.519559 -0.000518372 1.35853e-20)
(0.500002 0.00169682 -3.35403e-20)
(0.526694 0.00719888 -4.00871e-21)
(0.517429 0.000503762 0)
(0.514869 0.0294125 -2.11745e-22)
(0.511928 -0.00960971 0)
(0.513344 0.0293593 -6.02217e-22)
(0.519499 -0.000546224 -1.04496e-20)
(0.496169 0.00343898 4.99361e-21)
(0.518847 -0.00249277 -7.81372e-23)
(0.501026 -0.00229925 0)
(0.517227 -0.000768884 -4.99165e-21)
(0.600241 0.0393178 0)
(0.512799 -0.00164884 0)
(0.515612 -0.00115533 0)
(0.531951 -0.00685947 -1.81677e-20)
(0.459357 -0.0995641 -2.3286e-20)
(0.507751 -0.0144435 -6.64149e-22)
(0.505616 0.00590411 0)
(0.27991 0.240482 0)
(0.513362 0.00123537 0)
(0.513379 0.00139272 1.10326e-23)
(0.511498 -0.00114624 0)
(0.294611 -0.0657537 0)
(0.548801 -0.0195308 -1.23177e-20)
(0.499532 -0.00299576 -2.65151e-20)
(0.52695 -0.0315363 6.56263e-21)
(0.515725 -0.000695854 -2.63924e-21)
(0.518831 0.000408454 8.9211e-22)
(0.507961 0.0244102 3.96137e-21)
(0.510487 0.12353 2.38497e-21)
(0.513353 -0.00558669 0)
(0.360674 -0.0696576 0)
(0.518774 0.00059306 3.04637e-22)
(0.518893 -0.00212105 -2.53356e-21)
(0.500501 -0.00238724 0)
(0.523422 -0.01015 0)
(0.412116 -0.0329058 -2.88502e-20)
(0.40213 0.0318545 0)
(0.513546 0.000713106 -3.74761e-22)
(0.488743 0.0223626 -4.92634e-21)
(0.535526 -0.00670954 -2.72957e-20)
(0.418503 0.205881 -2.34541e-20)
(0.521426 0.00035027 -9.14055e-21)
(0.517076 -0.00612268 0)
(0.514782 0.00203218 0)
(0.517434 -0.00606505 0)
(0.444116 0.215386 -5.05269e-20)
(0.462286 -0.0350428 0)
(0.51928 0.0115523 2.52859e-20)
(0.535194 -0.00637091 0)
(0.52039 0.0127572 -2.87765e-20)
(0.507897 0.0319994 1.56107e-20)
(0.50106 -0.00693909 0)
(0.517743 -0.00208093 -4.87691e-21)
(0.461888 -0.0360926 0)
(0.500156 -0.000697647 3.34567e-20)
(0.498498 -0.000892066 0)
(0.55878 0.0402457 -4.03314e-22)
(0.499998 0.00164325 1.50521e-20)
(0.519926 0.00334512 0)
(0.547668 0.0147186 4.86258e-20)
(0.517189 -0.000772708 5.79029e-21)
(0.520723 -0.00350483 -1.19445e-22)
(0.534725 0.0462069 0)
(0.0182231 -0.0770875 4.04597e-21)
(0.515668 -0.000361612 -1.73408e-21)
(0.482225 0.0502916 -4.65748e-21)
(0.511785 -0.00940759 -1.88294e-22)
(0.230391 -0.0649359 -3.32424e-20)
(0.518826 0.000428377 2.83523e-21)
(0.522972 -0.00922358 5.70876e-21)
(-0.0042421 -0.00762406 9.86694e-21)
(0.51648 -0.000617345 0)
(-0.0029834 -0.00611562 2.42625e-21)
(0.5397 -0.0863409 -7.54175e-20)
(0.499841 0.0217104 9.66511e-21)
(0.515308 0.000714951 -3.51949e-23)
(0.5309 0.00864546 9.63223e-20)
(0.490232 -0.00487642 0)
(0.502164 0.00155335 0)
(0.501156 -0.00497648 -4.88318e-21)
(0.514283 0.0084867 0)
(0.497446 0.0035403 0)
(0.556159 0.148619 3.62418e-20)
(0.517971 9.56319e-05 1.14537e-20)
(0.510735 -0.000452498 4.99363e-25)
(0.491604 -0.00216153 -1.79699e-20)
(0.500984 0.00094373 2.42742e-24)
(0.499531 -0.000553285 4.51636e-20)
(0.513507 -0.00583839 0)
(0.498941 -0.0374694 1.17418e-20)
(0.508321 0.0318667 -9.95401e-21)
(0.501303 -0.00725872 9.87726e-21)
(0.505613 -0.0179247 7.50808e-23)
(0.501234 -0.00500042 0)
(0.511626 0.00987719 3.67935e-21)
(0.518741 -0.00226496 1.77022e-21)
(0.511702 0.00997228 -9.16693e-21)
(0.529062 0.018549 2.3737e-21)
(0.500276 -0.00291256 -4.39842e-20)
(0.504623 0.00453098 -3.26706e-22)
(0.515681 0.00244834 3.82258e-21)
(0.500925 0.00271842 -2.88358e-20)
(0.523272 -0.00074307 9.04236e-21)
(0.523706 -0.00210926 6.35552e-22)
(0.517282 0.00908385 -1.48313e-20)
(0.305785 0.0427043 -3.14252e-20)
(0.502153 -0.00638554 -1.24461e-20)
(0.521924 0.0052107 -9.41144e-21)
(0.507964 0.0241204 -5.23577e-22)
(0.520879 -0.001349 1.97108e-21)
(0.499654 -0.0013855 5.59461e-20)
(0.49232 0.0391864 -3.89174e-20)
(0.514884 0.00285749 -2.42507e-22)
(0.519402 -0.00175744 -7.628e-21)
(0.494064 0.00858176 1.56643e-20)
(0.538339 -0.0153064 4.24049e-21)
(0.525535 -0.000457092 1.58611e-20)
(0.392615 0.108735 5.17909e-20)
(0.500119 -0.000669054 -1.34837e-20)
(0.519195 -0.00230751 -5.37486e-23)
(0.514962 -0.000428274 -2.35326e-21)
(0.518706 0.0086583 -8.06551e-22)
(0.503018 0.000817536 -3.72261e-21)
(0.556586 0.010915 0)
(0.49899 0.000668966 0)
(0.500405 -0.000107253 0)
(0.54005 -0.0166814 0)
(0.500972 -0.00228771 0)
(0.599464 0.0388434 -4.66113e-20)
(0.517419 -0.00448662 0)
(0.538094 -0.0123969 3.12806e-22)
(0.521676 -0.00403113 0)
(0.526853 0.0142694 1.23132e-20)
(0.350332 -0.296255 1.37513e-21)
(-0.00521067 0.0145567 0)
(0.523369 -0.0147309 -8.41353e-23)
(-0.0789985 -0.0311065 -6.29588e-20)
(0.464963 0.0441253 -2.96027e-21)
(0.513575 0.000708579 7.11789e-22)
(0.515649 0.0032538 0)
(0.458843 0.0434622 0)
(0.523476 -0.023959 7.22862e-22)
(0.500965 0.000980151 -3.60049e-20)
(0.515505 -0.00114787 0)
(0.527279 -0.0206384 5.47586e-21)
(0.519129 3.38428e-06 2.51571e-21)
(0.522938 -0.00931879 0)
(0.507657 0.0826851 0)
(0.46823 0.00608195 -6.0281e-20)
(0.340985 -0.0375364 0)
(0.498959 -0.0114304 4.39604e-23)
(0.00367696 -0.0775209 0)
(0.525617 -0.000383124 1.66562e-20)
(0.0121401 -0.0110829 -1.1931e-22)
(0.51586 -0.00856016 0)
(0.510233 0.00419062 5.93457e-22)
(0.477796 0.000281088 0)
(0.510701 0.00398751 0)
(0.478632 0.0509092 0)
(0.495717 -0.00910898 1.93424e-20)
(0.48749 0.00709561 -6.81452e-20)
(0.523583 0.012274 0)
(0.526128 0.0095711 8.36402e-21)
(0.497378 -0.000913778 -4.46248e-21)
(0.498807 -0.0114358 -1.99365e-20)
(0.46395 -0.00899843 0)
(0.479318 0.0347156 -2.93129e-20)
(0.513036 0.00271552 -4.30115e-23)
(0.51872 0.000277565 -9.42838e-21)
(0.557089 0.0109641 0)
(0.547034 0.00781356 5.21159e-20)
(0.514941 0.00292539 -4.8933e-23)
(0.50087 0.00272328 2.88305e-20)
(0.54346 -0.0073485 -4.50291e-20)
(0.557832 0.0394113 -7.36343e-20)
(0.512396 -0.00571408 1.73794e-21)
(0.481488 -0.00263387 -2.81951e-20)
(0.522995 -0.0019541 -1.71453e-20)
(0.519445 0.0157642 3.34298e-21)
(0.50251 0.00764051 0)
(0.478251 0.000384103 2.6592e-20)
(0.326849 0.0488629 7.7842e-20)
(0.515575 0.00314116 2.09695e-23)
(0.515323 0.00375876 0)
(0.516722 -0.00871874 1.39587e-22)
(0.516904 0.000565782 0)
(0.59463 0.0194059 -4.43944e-20)
(0.518898 0.00105429 0)
(0.491366 0.00257541 0)
(0.525962 0.00171914 0)
(0.523355 -0.00195228 6.00806e-22)
(0.583703 -0.0325148 1.21738e-20)
(0.505829 -0.015442 0)
(0.430509 -0.0296996 6.10049e-21)
(0.499867 -0.00259298 1.40199e-20)
(0.502175 -0.00129829 0)
(0.500097 0.0183032 -3.02358e-20)
(0.468524 0.00549129 5.42274e-20)
(0.47915 0.0351783 0)
(0.460521 -0.0980575 2.40981e-20)
(0.490319 0.017073 3.60569e-20)
(0.528143 0.023092 -8.82482e-21)
(0.304816 -0.0202216 -1.35852e-19)
(0.519506 -0.0018125 -3.02465e-21)
(0.527341 0.00514002 0)
(0.498949 -0.0368163 0)
(0.526502 0.00485543 0)
(0.518717 0.000264404 8.51002e-21)
(0.506296 0.0382805 3.01384e-21)
(0.519129 4.56975e-07 0)
(0.517712 -0.00217786 0)
(0.0813722 0.0327387 -9.29891e-21)
(0.435969 -0.0303189 -1.2057e-20)
(0.497496 -0.0290378 -2.47895e-20)
(0.51818 -0.015675 0)
(0.516929 0.000583016 0)
(0.527013 0.0174596 1.33203e-20)
(0.510473 -0.00365561 9.7741e-22)
(0.349787 -0.117201 1.2931e-20)
(0.490517 0.0167926 0)
(0.509715 0.00827426 7.41121e-22)
(0.501564 0.00036018 1.23066e-20)
(0.517119 0.00101568 0)
(0.519732 -0.0125231 7.2808e-21)
(0.51858 -0.0001918 -6.03476e-21)
(0.515707 -0.000375026 -1.63168e-21)
(0.540996 -9.30825e-05 5.58575e-20)
(0.51277 -0.00162925 -1.0723e-22)
(0.497305 -0.000844823 2.90904e-20)
(0.491807 -0.00214531 -4.41256e-20)
(0.464533 0.150235 3.66936e-21)
(0.510789 0.0054248 -4.70501e-22)
(0.376238 -0.0765822 6.23683e-21)
(0.520195 0.00491351 0)
(0.486153 -0.0193061 -4.70031e-20)
(0.437751 -0.0363014 -2.85622e-20)
(0.519891 -0.000474372 6.59986e-21)
(0.500478 -0.00359206 -4.6494e-21)
(0.515533 -0.00114707 0)
(0.396195 0.110893 -3.97688e-20)
(0.527213 -0.000280604 0)
(0.522229 -0.00348313 0)
(0.408324 -0.0676943 4.21764e-21)
(0.539702 -0.0279886 0)
(0.526833 0.00674633 3.45713e-21)
(0.105758 0.0984795 -4.5504e-20)
(0.500407 0.0184395 2.72595e-20)
(0.499801 -0.068597 7.28619e-20)
(0.51092 0.011487 1.03575e-20)
(0.539098 0.00676056 4.96236e-20)
(0.494297 0.00847793 -2.81064e-21)
(0.502993 -0.000607371 1.27182e-20)
(0.502631 0.00767795 1.76944e-20)
(0.51451 -0.00210378 3.65245e-22)
(0.516254 -0.000599347 0)
(0.514321 0.00140396 0)
(0.544036 -0.00700003 4.37052e-20)
(0.528058 -0.00173745 8.91603e-21)
(0.495138 -0.00302966 -2.46109e-20)
(0.500518 -0.00362215 1.56496e-20)
(0.515286 0.00360011 1.23418e-22)
(0.483798 2.3702e-05 -3.75883e-22)
(0.521891 -0.0138558 1.597e-21)
(0.514367 0.00139254 -1.92247e-23)
(0.510706 0.121095 -4.68892e-21)
(0.525886 0.00884213 -1.42402e-20)
(0.574004 -0.0318497 -8.38366e-20)
(0.433765 0.0376221 3.97985e-20)
(0.288994 0.236015 0)
(0.50121 -0.0071922 -1.14267e-20)
(0.520793 -0.00191522 0)
(0.51247 -0.000555278 -4.87642e-22)
(0.488657 0.0231791 -2.12392e-21)
(0.516224 -0.000596887 0)
(0.527001 -0.0003602 8.13991e-21)
(0.499988 0.0013913 0)
(0.514941 -0.00102273 -1.17941e-21)
(0.514955 -0.00102915 -6.48628e-22)
(0.503006 -0.0105463 1.10372e-20)
(0.13899 -0.00843374 6.763e-20)
(0.517962 -0.000374116 -1.54088e-20)
(0.511355 -0.000558411 -2.95163e-22)
(0.487096 -0.0183465 5.61051e-20)
(0.537929 -0.045081 -3.09312e-21)
(0.481646 -0.0028244 -6.32128e-22)
(0.489176 0.0226543 -5.20142e-22)
(0.515755 0.00255458 -3.20821e-21)
(0.565058 0.188196 2.18766e-20)
(0.518873 -0.00297458 5.41892e-21)
(0.51351 -0.00186283 0)
(0.515583 -0.00127568 0)
(0.518334 0.00280886 -6.23746e-21)
(0.53753 -0.04445 3.22761e-21)
(0.517962 -0.000348162 9.78064e-21)
(0.521958 -0.00144613 0)
(0.519654 0.00348978 2.98427e-21)
(0.541027 0.000402235 0)
(0.522233 -0.000960682 1.01398e-20)
(0.551288 -0.030178 0)
(0.5803 0.133628 2.39608e-20)
(0.518916 0.00102631 9.78121e-21)
(0.504435 0.0125127 0)
(0.51354 -0.00190726 -6.22737e-22)
(0.518729 -0.000263351 -1.18242e-20)
(0.486825 0.019901 0)
(0.518239 0.00282587 -1.11511e-20)
(0.512768 -0.00713794 -1.84515e-21)
(0.213504 -0.0637251 -3.31071e-21)
(0.512443 -0.000514933 -3.92363e-22)
(0.479806 0.0169643 0)
(0.483055 -0.0365174 0)
(0.453814 0.0302484 9.89406e-21)
(0.51917 0.000865855 -1.83173e-21)
(0.559114 0.0289293 0)
(0.520111 0.0047535 0)
(0.538513 -0.0122619 0)
(0.490893 0.00333739 -3.07464e-20)
(0.521432 0.00031408 8.27883e-21)
(0.539271 0.00951469 0)
(0.522672 -0.0150494 -3.40402e-21)
(0.499618 -0.00142431 -3.75465e-20)
(0.514785 0.00120447 1.1153e-21)
(0.522187 -0.000979853 0)
(0.519421 -0.019619 -2.57492e-21)
(0.500601 -0.00475447 0)
(0.504956 -0.0199501 0)
(0.499312 0.00240532 -1.34972e-20)
(0.517582 0.000644284 4.81397e-21)
(0.177196 -0.159574 3.20742e-21)
(0.485561 0.00290089 2.14981e-20)
(0.530252 -0.0192228 1.35408e-20)
(0.540474 2.0077e-05 -5.96131e-20)
(0.516265 0.00126632 9.4542e-25)
(0.514824 0.00123854 0)
(0.481872 -0.0582229 0)
(0.480431 0.0205992 0)
(0.517733 -0.000825153 0)
(0.0911888 0.042723 1.98086e-20)
(0.502768 -0.00687213 -5.17445e-21)
(0.42605 0.0247732 -2.86348e-21)
(0.500025 0.000208984 2.45533e-20)
(0.495166 -0.00294418 0)
(0.53017 -0.0194831 -2.52985e-20)
(0.517716 -0.000799188 0)
(0.0146281 -0.00596526 6.57375e-20)
(0.488185 -0.0104021 -5.33437e-20)
(0.518587 -0.000143105 5.10192e-21)
(0.519793 0.00346332 -3.22667e-21)
(0.517452 0.000710801 0)
(0.00499606 -0.0421277 -2.34286e-20)
(0.519482 -0.012547 7.61079e-21)
(0.498599 -0.0174253 0)
(0.516507 0.00190313 -1.27306e-21)
(0.522014 -0.00150505 0)
(0.445457 0.0287137 0)
(0.434349 0.0363243 -3.98071e-20)
(0.516378 0.00188719 1.70482e-23)
(0.539517 0.00906896 0)
(0.41101 -0.0477872 -5.03226e-22)
(0.479853 0.0246177 0)
(0.521394 -0.0129908 1.10465e-21)
(0.49961 0.00348331 -1.66202e-20)
(0.518662 0.0155012 -1.38692e-21)
(0.32653 0.0525641 -8.24873e-20)
(0.523882 0.00773132 -4.06593e-21)
(0.51728 0.00483112 0)
(0.541384 0.00122906 -1.59485e-20)
(0.537628 -0.0861457 8.59413e-20)
(0.427578 0.0269309 0)
(0.500017 0.000182376 0)
(0.498341 -0.0174115 2.0849e-20)
(0.598996 0.0176139 6.02067e-20)
(0.523112 -0.0019088 0)
(0.398341 0.0864394 -6.11913e-20)
(0.500598 0.0112634 -2.09494e-22)
(0.487795 0.00718771 7.57277e-20)
(0.475264 0.0555641 3.18009e-20)
(0.0463665 0.126717 -7.79794e-20)
(0.502194 -0.00630011 0)
(0.499662 0.00350576 -5.95573e-21)
(0.510801 -0.00819106 7.77842e-21)
(0.536741 -0.0960256 -1.16915e-20)
(0.504596 0.012494 0)
(0.516585 -0.000627615 -3.2391e-21)
(0.515555 -0.0012436 0)
(0.515479 0.000569078 -1.53704e-22)
(0.51759 -0.000799302 -6.37182e-21)
(0.512524 -0.00178673 0)
(0.517391 0.00478817 -1.48522e-21)
(0.510775 0.00524308 -1.84561e-21)
(0.487899 -0.0473725 0)
(0.518139 -0.00141332 -1.33135e-22)
(0.503469 0.000349872 2.21616e-20)
(0.373088 -0.0843173 3.84196e-21)
(0.50002 9.20424e-07 5.29039e-20)
(0.51869 -0.000218537 1.52687e-20)
(0.525251 -0.130269 0)
(0.583489 -0.0812999 0)
(0.504079 -0.0188013 -7.29762e-23)
(0.526128 0.00176894 0)
(0.308978 -0.00161286 0)
(0.528029 -0.0328948 5.2546e-21)
(0.0522921 -0.0107605 6.12929e-20)
(0.529256 -0.0201957 1.08176e-20)
(0.503085 -0.000563033 0)
(0.534185 -0.004017 -2.08828e-20)
(0.514615 -0.00214289 -3.98485e-22)
(0.537678 0.00292412 0)
(0.582349 -0.0823773 0)
(0.523303 0.0112105 -1.03908e-21)
(0.5039 0.00687595 0)
(0.530964 -0.00113719 2.02718e-21)
(0.502749 0.00207377 -1.26417e-21)
(0.479963 0.0366401 1.34745e-20)
(0.52326 -0.00467672 0)
(0.508571 0.0115131 -8.86827e-21)
(0.50358 0.000345603 -4.67997e-21)
(0.128212 -0.00815096 -7.07868e-20)
(0.47712 0.125676 4.44003e-21)
(0.517078 0.00098761 0)
(0.521493 0.000322004 0)
(0.420217 -0.0392925 0)
(0.516487 -0.000712388 -2.89919e-23)
(0.511983 0.00107214 -4.76462e-23)
(0.5154 0.000690352 1.80895e-22)
(0.513759 -0.00612631 4.64774e-23)
(0.527793 0.00345561 -2.91249e-20)
(0.478033 -0.0487658 -1.3396e-20)
(0.501263 0.000827631 0)
(0.509603 7.28181e-05 1.80769e-21)
(0.499015 0.00275169 4.41921e-20)
(0.504367 -0.00768778 -3.38544e-21)
(0.517916 -0.0096612 -2.25168e-21)
(0.523509 -0.00073568 3.65436e-22)