/*--------------------------------*- C++ -*----------------------------------*\
  =========                 |
  \\      /  F ield         | OpenFOAM: The Open Source CFD Toolbox
   \\    /   O peration     | Website:  https://openfoam.org
    \\  /    A nd           | Version:  9
     \\/     M anipulation  |
\*---------------------------------------------------------------------------*/
FoamFile
{
    format      ascii;
    class       volVectorField;
    location    "600";
    object      U;
}
// * * * * * * * * * * * * * * * * * * * * * * * * * * * * * * * * * * * * * //

dimensions      [0 1 -1 0 0 0 0];

internalField   nonuniform List<vector> 
4000
(
(0.00374805 -0.0039677 0.00374805)
(0.00327974 0.00617464 0.0026219)
(-0.00468557 0.00904742 0.000487149)
(-0.0131177 0.00358342 -0.000244)
(-0.0157841 -0.00159905 -2.54967e-06)
(-0.015322 -0.00346095 0.000622225)
(-0.013743 -0.0036326 0.00104732)
(-0.0119149 -0.00386314 0.00141174)
(-0.00964002 -0.00457399 0.00169234)
(-0.00658597 -0.0056683 0.00191028)
(-0.00157552 -0.00674366 0.00200258)
(0.00414488 -0.00646372 0.00184791)
(0.00927184 -0.00562744 0.00167308)
(0.0127642 -0.00472389 0.00155747)
(0.0149541 -0.00427981 0.00139789)
(0.0161458 -0.00331882 0.00113555)
(0.0134066 0.000264678 0.000946843)
(0.0057779 0.00544599 0.00132091)
(-0.00333989 0.00464991 0.00282081)
(-0.00415147 -0.00618711 0.00427335)
(0.00396112 -0.0156361 0.00396112)
(0.0101733 -0.00117056 0.00449274)
(0.0119088 0.00913927 0.00391402)
(0.0094573 0.00908984 0.00271211)
(0.00409581 0.00642624 0.00168285)
(-0.00494939 0.000655019 0.000650232)
(-0.00936669 -0.00418191 0.000118314)
(-0.00896793 -0.00582124 4.84234e-05)
(-0.00736992 -0.00720834 -2.9807e-05)
(-0.00497354 -0.00938565 6.72625e-05)
(-0.00189345 -0.0117993 0.000129635)
(0.00151524 -0.0117552 0.000148131)
(0.00443577 -0.00948037 0.000251601)
(0.0055393 -0.00704181 0.000304458)
(0.00530155 -0.00418518 0.000363155)
(-0.00327897 0.00325324 0.000777627)
(-0.00914133 0.00644462 0.00142899)
(-0.0123922 0.00668796 0.00224859)
(-0.0116506 -0.00164495 0.0032816)
(-0.00397817 -0.018718 0.00400241)
(0.00274847 -0.0294827 0.00274847)
(0.00852692 -0.0155581 0.00393848)
(0.0135803 -0.00217152 0.00435046)
(0.0161025 0.00574871 0.00393158)
(0.0139567 0.00770736 0.00311119)
(0.00933022 0.00635366 0.00219619)
(0.00403038 0.00208715 0.00111722)
(-0.00237582 -0.0048564 -0.000162652)
(-0.00305704 -0.00771044 -0.000738245)
(-0.00203071 -0.0103538 -0.000876029)
(-0.000932875 -0.0128239 -0.000764832)
(-0.000960046 -0.0121242 -0.000555792)
(-0.00189526 -0.00896128 -0.000329906)
(-0.00481849 -0.0041759 -9.36431e-05)
(-0.0102631 0.00264948 0.000604346)
(-0.0136035 0.00624614 0.00141122)
(-0.0160054 0.00589552 0.00210252)
(-0.0146049 -0.000105093 0.00280434)
(-0.00925795 -0.0139172 0.00315174)
(-0.00199016 -0.0321413 0.00324715)
(0.00155129 -0.0380727 0.00155129)
(0.00509319 -0.025327 0.00303635)
(0.00685913 -0.0121675 0.00396053)
(0.00977221 -0.00217647 0.00452849)
(0.0116681 0.00418862 0.00458395)
(0.01099 0.00581297 0.00417884)
(0.00876009 0.00445534 0.003472)
(0.00549681 0.000843618 0.0022933)
(0.0021164 -0.00407404 0.000952562)
(0.000891912 -0.00799427 0.000154791)
(-0.000331086 -0.0100634 8.96486e-05)
(-0.00292319 -0.00824256 0.000461537)
(-0.00635702 -0.00410572 0.00109594)
(-0.0102549 0.000489371 0.00192414)
(-0.0125625 0.00384026 0.00263155)
(-0.0133704 0.00480562 0.00323411)
(-0.0115975 0.000869918 0.00371463)
(-0.00744822 -0.00904003 0.00357479)
(-0.00489039 -0.0233613 0.00302576)
(-0.000369109 -0.0404884 0.0025388)
(0.000592049 -0.0429826 0.000592049)
(0.00230357 -0.031321 0.00231322)
(0.000774979 -0.0195588 0.00334621)
(0.00164483 -0.0108563 0.00422637)
(0.00215109 -0.00539733 0.00494844)
(0.00331374 -0.0024977 0.00515723)
(0.00403422 -0.00183438 0.00484648)
(0.00425992 -0.00304654 0.00417225)
(0.00400775 -0.00514746 0.00344737)
(0.00309493 -0.0071835 0.00290346)
(0.0013533 -0.00808031 0.0026597)
(-0.00113737 -0.00692406 0.0028401)
(-0.00277248 -0.00466434 0.00345471)
(-0.00373084 -0.00269126 0.00432576)
(-0.00403842 -0.0019574 0.00497156)
(-0.00308811 -0.00363777 0.00516807)
(-0.00206536 -0.00843374 0.0045702)
(-0.000271683 -0.0171771 0.00356733)
(-0.00127311 -0.030003 0.00264481)
(0.000778812 -0.0452325 0.0017971)
(-0.000255763 -0.04473 -0.000255763)
(9.91404e-05 -0.0344324 0.00153904)
(-0.00335082 -0.0250057 0.00219957)
(-0.00373373 -0.018637 0.00265031)
(-0.00377024 -0.0147337 0.0028487)
(-0.00272318 -0.0127783 0.00281542)
(-0.00110467 -0.0121228 0.00258899)
(0.0007532 -0.012381 0.0023033)
(0.00227795 -0.0131293 0.00219319)
(0.00278296 -0.0134377 0.00228629)
(0.00240638 -0.0128591 0.00250385)
(0.00147111 -0.0123915 0.00246289)
(0.00156297 -0.0117068 0.00257983)
(0.00231046 -0.0112517 0.002895)
(0.00332646 -0.0116471 0.00323279)
(0.00415145 -0.0132934 0.00332071)
(0.00425706 -0.0170936 0.00306771)
(0.00427436 -0.0237318 0.00247324)
(0.00121975 -0.0340367 0.00190909)
(0.00162986 -0.0469086 0.000930213)
(-0.00131265 -0.0433437 -0.00131265)
(-0.00198498 -0.0352897 0.000403155)
(-0.00654508 -0.0283835 0.000419666)
(-0.00781347 -0.0242601 0.000250483)
(-0.00816671 -0.022047 -0.000120176)
(-0.00716032 -0.0210954 -0.000519066)
(-0.00529134 -0.0209063 -0.000914471)
(-0.00296576 -0.0211162 -0.00123288)
(-0.000534243 -0.0213476 -0.0013418)
(0.00116131 -0.021034 -0.00109902)
(0.00230637 -0.0199962 -0.000670064)
(0.00300973 -0.0199835 -0.000818659)
(0.00460951 -0.0199785 -0.000813046)
(0.00639696 -0.0199982 -0.000562886)
(0.00792931 -0.020279 -0.000185378)
(0.00877254 -0.0212615 0.000186124)
(0.00847721 -0.0236239 0.000488844)
(0.00745406 -0.0280603 0.000547802)
(0.00305648 -0.0356331 0.000634697)
(0.00248218 -0.0456691 -0.000278368)
(-0.00290012 -0.0382629 -0.00290012)
(-0.0046103 -0.0324774 -0.00153163)
(-0.010039 -0.0281921 -0.00214755)
(-0.0119736 -0.0261691 -0.00289062)
(-0.0124753 -0.025406 -0.00369294)
(-0.0113655 -0.0253671 -0.00441364)
(-0.00912853 -0.0256563 -0.00502403)
(-0.00620658 -0.0260645 -0.00549138)
(-0.0029724 -0.0263113 -0.0056848)
(-0.00031849 -0.0260814 -0.00548308)
(0.00208003 -0.0252807 -0.00509502)
(0.00397067 -0.0254736 -0.00537008)
(0.00682748 -0.0255925 -0.0053218)
(0.00961841 -0.0255864 -0.00497138)
(0.0117853 -0.0254497 -0.00435464)
(0.0128813 -0.0255792 -0.0036405)
(0.0124667 -0.0264756 -0.00286101)
(0.0107347 -0.0286922 -0.00217268)
(0.00540694 -0.0333894 -0.00149427)
(0.00386855 -0.040354 -0.00221794)
(-0.00555891 -0.0286879 -0.00555891)
(-0.00872946 -0.0247395 -0.00508729)
(-0.0146354 -0.0226289 -0.00615165)
(-0.0168052 -0.0220981 -0.00740885)
(-0.0171973 -0.0222471 -0.00867312)
(-0.0158857 -0.0227954 -0.0098183)
(-0.0132761 -0.0235006 -0.0107749)
(-0.00972626 -0.0241475 -0.0114746)
(-0.00562325 -0.0245298 -0.0117579)
(-0.0020107 -0.0244421 -0.0114252)
(0.00183315 -0.0240374 -0.0109376)
(0.00504895 -0.0243259 -0.0114638)
(0.009177 -0.0243955 -0.0114213)
(0.0129603 -0.0241072 -0.0108705)
(0.0158419 -0.0236305 -0.00995788)
(0.0173865 -0.0231946 -0.00883533)
(0.0171859 -0.023061 -0.00761455)
(0.0152086 -0.0235838 -0.00641163)
(0.00939474 -0.0258212 -0.0053052)
(0.00645364 -0.0303639 -0.00528681)
(-0.00971662 -0.0179733 -0.00971662)
(-0.0154626 -0.0143539 -0.0110717)
(-0.0215132 -0.0126375 -0.0133588)
(-0.0236355 -0.0120946 -0.0155771)
(-0.023762 -0.0119416 -0.0177337)
(-0.022136 -0.011947 -0.0197657)
(-0.0190901 -0.0119387 -0.0216009)
(-0.0148681 -0.0117838 -0.0231191)
(-0.0097752 -0.011369 -0.0240997)
(-0.00490315 -0.0106714 -0.0241081)
(0.00153116 -0.0098476 -0.0238897)
(0.00736689 -0.0105836 -0.0246203)
(0.0132076 -0.0113521 -0.0240626)
(0.0181789 -0.0118522 -0.0227055)
(0.021833 -0.0121287 -0.0208885)
(0.0239053 -0.0123102 -0.0188211)
(0.0240984 -0.0125698 -0.01661)
(0.0222441 -0.0131695 -0.0143436)
(0.0163586 -0.0149862 -0.0119332)
(0.0107363 -0.0190397 -0.01001)
(0.0026219 0.00617464 0.00327974)
(0.000564041 0.00929725 0.000564041)
(-0.00550918 0.00782616 -0.00233656)
(-0.0110138 0.00292101 -0.00214457)
(-0.0134902 -0.000990405 -0.000884725)
(-0.0137084 -0.00261538 0.000851062)
(-0.0123914 -0.00271887 0.00225215)
(-0.0109744 -0.00284765 0.00332097)
(-0.00911877 -0.00372316 0.00404932)
(-0.00635768 -0.00502408 0.00446572)
(-0.00147943 -0.00629939 0.00456849)
(0.00433897 -0.00623294 0.00423155)
(0.00940107 -0.00526862 0.00387283)
(0.0128589 -0.00422794 0.00358362)
(0.0148971 -0.00360585 0.00317455)
(0.0156086 -0.00255232 0.0025537)
(0.0126548 0.000872314 0.00223865)
(0.00534259 0.0055989 0.0028285)
(-0.00250823 0.00536985 0.00532424)
(-0.00400935 -0.00257875 0.00793872)
(0.00449274 -0.00117056 0.0101733)
(0.00928709 0.00696289 0.00928709)
(0.0108803 0.0100641 0.00713247)
(0.00893126 0.0088816 0.00462085)
(0.00423954 0.0063763 0.00258676)
(-0.00260021 0.00200686 0.00116917)
(-0.00755013 -0.00280508 0.000444028)
(-0.00752674 -0.00442319 0.000589131)
(-0.00647009 -0.00642349 0.000609495)
(-0.00448928 -0.00913872 0.000783405)
(-0.0016951 -0.012042 0.000841818)
(0.00152108 -0.012159 0.000801883)
(0.00409174 -0.00932842 0.00092661)
(0.00499605 -0.00618753 0.00105755)
(0.00383344 -0.00247013 0.00120852)
(-0.00418248 0.00396804 0.00218448)
(-0.0097006 0.00666246 0.00373437)
(-0.0126168 0.00661641 0.00559114)
(-0.0116034 -0.000221282 0.00742777)
(-0.00494028 -0.0132996 0.00849014)
(0.00393848 -0.0155581 0.00852692)
(0.0100414 -0.00705006 0.0100414)
(0.0148504 0.00186854 0.00976907)
(0.0165532 0.00682964 0.00803854)
(0.0144848 0.00810462 0.00598326)
(0.0102968 0.00678175 0.00406837)
(0.00569243 0.00286602 0.00213984)
(-0.000105676 -0.00335482 -4.94248e-05)
(-0.001817 -0.00761903 -0.00145569)
(-0.00155102 -0.0110801 -0.00184215)
(-0.00107319 -0.0141986 -0.00168579)
(-0.00155952 -0.0134747 -0.00128842)
(-0.0030388 -0.00917526 -0.000703065)
(-0.00636034 -0.0031971 0.000212554)
(-0.0117939 0.00322607 0.00175529)
(-0.0152504 0.00627185 0.00342673)
(-0.0175088 0.00540917 0.00501111)
(-0.0161299 -0.000392441 0.00656212)
(-0.0108408 -0.0119692 0.00736896)
(-0.00364797 -0.0259213 0.00690702)
(0.00303635 -0.025327 0.00509319)
(0.00798539 -0.0171244 0.00798539)
(0.0109888 -0.00745992 0.00937843)
(0.0139652 0.0012006 0.00929598)
(0.0148389 0.00623194 0.00833357)
(0.0134314 0.00725918 0.00701795)
(0.0108597 0.00543462 0.00533138)
(0.00757361 0.00113766 0.00283807)
(0.0033915 -0.00481 6.20433e-05)
(0.00101039 -0.0094686 -0.00137263)
(-0.00102171 -0.0122232 -0.00134566)
(-0.00429206 -0.0103228 -0.000541919)
(-0.00851384 -0.00525976 0.000665109)
(-0.0127548 0.000464449 0.00248356)
(-0.0151823 0.00439478 0.00429421)
(-0.0163681 0.00533795 0.00571793)
(-0.0154059 0.00165835 0.00696215)
(-0.011556 -0.00781923 0.00772849)
(-0.00808118 -0.0205199 0.00714312)
(-0.00248068 -0.0335881 0.00507607)
(0.00231322 -0.031321 0.00230357)
(0.00649549 -0.0231673 0.00649549)
(0.00694823 -0.0133281 0.00893199)
(0.00799453 -0.00424577 0.0100841)
(0.00890872 0.00238316 0.0103838)
(0.00915443 0.00519932 0.00976556)
(0.00846513 0.00503936 0.00857456)
(0.00702599 0.00276145 0.00696058)
(0.00501388 -0.000954509 0.00499588)
(0.00277923 -0.00482747 0.00337728)
(-7.86681e-05 -0.00697434 0.00292302)
(-0.00377873 -0.00516853 0.00376276)
(-0.00700253 -0.00140122 0.00516617)
(-0.0091124 0.002001 0.00682817)
(-0.0102482 0.00370982 0.00814399)
(-0.0100247 0.002582 0.00919118)
(-0.0082454 -0.00322292 0.0095927)
(-0.00638324 -0.0132098 0.00884084)
(-0.00588027 -0.0257723 0.00693837)
(-0.00162663 -0.0377899 0.00323152)
(0.00153904 -0.0344324 9.91402e-05)
(0.00540195 -0.0261524 0.00540195)
(0.00392985 -0.0166705 0.00833)
(0.00383303 -0.00798743 0.00985832)
(0.00341379 -0.00185126 0.0106197)
(0.00400477 0.0016848 0.0106924)
(0.00461485 0.0026119 0.0102038)
(0.00490504 0.00159018 0.0094733)
(0.00472288 -0.000516466 0.0088654)
(0.0036388 -0.00248393 0.00820712)
(0.00167706 -0.00338463 0.00793102)
(-0.000967995 -0.00250546 0.00832253)
(-0.00266341 -0.000555567 0.00907371)
(-0.00353776 0.00104875 0.0098442)
(-0.00361796 0.00124074 0.010609)
(-0.00293083 -0.00129399 0.0109994)
(-0.00302205 -0.00713402 0.0104553)
(-0.00269287 -0.0165749 0.00904181)
(-0.00447879 -0.0282783 0.00641104)
(-0.00091929 -0.0392656 0.0012531)
(0.000403155 -0.0352897 -0.00198498)
(0.00407369 -0.0267488 0.00407369)
(0.000990178 -0.0181567 0.00690786)
(0.000456483 -0.0108085 0.00823089)
(-8.55771e-05 -0.00589373 0.00871737)
(0.000322997 -0.00320816 0.00870424)
(0.00126084 -0.00217751 0.00849654)
(0.00228622 -0.00232638 0.00827559)
(0.00302201 -0.00305225 0.00829595)
(0.00292232 -0.00365508 0.00861118)
(0.00213334 -0.0037067 0.00895284)
(0.000942879 -0.00336251 0.0090165)
(0.000438612 -0.00270743 0.00906595)
(0.000496012 -0.00243589 0.00934882)
(0.000789735 -0.00319462 0.00969272)
(0.000993022 -0.00571604 0.00976502)
(0.000458827 -0.0106053 0.00927357)
(0.000171701 -0.0183354 0.00785981)
(-0.00326363 -0.0285209 0.00508688)
(1.18115e-06 -0.0385247 -0.00103089)
(-0.00153163 -0.0324774 -0.0046103)
(0.0012887 -0.0244013 0.0012887)
(-0.00321295 -0.0175539 0.00348088)
(-0.00396211 -0.0126017 0.00406794)
(-0.0042701 -0.00922346 0.00384827)
(-0.00361727 -0.00749836 0.00326179)
(-0.00238831 -0.00692515 0.00263338)
(-0.000823595 -0.00685708 0.00223453)
(0.000747745 -0.00672476 0.00241903)
(0.00158321 -0.00599198 0.00336175)
(0.00187679 -0.00518352 0.00424593)
(0.0019161 -0.00541247 0.00394002)
(0.00263547 -0.00585623 0.00369028)
(0.00358071 -0.00630683 0.00400678)
(0.00445362 -0.00735077 0.00455753)
(0.00499622 -0.00951341 0.00499552)
(0.00459496 -0.013096 0.00512551)
(0.00384926 -0.0182857 0.00429807)
(-0.000842371 -0.0259136 0.00199534)
(0.00176625 -0.0347587 -0.00407207)
(-0.00508729 -0.0247395 -0.00872946)
(-0.00512138 -0.0188502 -0.00512138)
(-0.0100544 -0.0147261 -0.00430213)
(-0.0114181 -0.0126451 -0.00481327)
(-0.0115387 -0.0116134 -0.00589815)
(-0.0103127 -0.0113591 -0.0070995)
(-0.00819355 -0.0115734 -0.00807044)
(-0.00557212 -0.0119959 -0.00861083)
(-0.00275691 -0.0123586 -0.00837793)
(-0.000442375 -0.0121615 -0.00714176)
(0.00171913 -0.0118908 -0.00591864)
(0.00344437 -0.0122809 -0.00685871)
(0.00594013 -0.0124199 -0.00737908)
(0.00850835 -0.0123266 -0.00710726)
(0.010656 -0.0123025 -0.00624092)
(0.0118774 -0.0126364 -0.00514597)
(0.0117131 -0.0136529 -0.00424792)
(0.0103553 -0.015686 -0.0040127)
(0.00522264 -0.0199546 -0.0051322)
(0.00532325 -0.0263061 -0.00880867)
(-0.0110717 -0.0143539 -0.0154626)
(-0.0163667 -0.00898534 -0.0163667)
(-0.0224693 -0.00604768 -0.0190309)
(-0.0243882 -0.00456537 -0.0220243)
(-0.0244145 -0.00368083 -0.0250833)
(-0.0228419 -0.00309678 -0.0280711)
(-0.020017 -0.00255741 -0.0308168)
(-0.0161046 -0.00187819 -0.0331137)
(-0.0111845 -0.000924081 -0.0346277)
(-0.00598918 0.000414168 -0.034779)
(0.00207807 0.00176717 -0.0346041)
(0.00889263 0.00048742 -0.0355285)
(0.0147935 -0.000820192 -0.0346796)
(0.0195403 -0.00188168 -0.0326465)
(0.0229488 -0.00276815 -0.0299389)
(0.0248902 -0.00363486 -0.0268943)
(0.0250407 -0.00470599 -0.0237112)
(0.0231982 -0.00631332 -0.0206054)
(0.0169963 -0.00942519 -0.0177781)
(0.0116019 -0.0152213 -0.0164326)
(0.000487149 0.00904742 -0.00468557)
(-0.00233656 0.00782616 -0.00550918)
(-0.00572764 0.0046028 -0.00572764)
(-0.00891867 0.00129752 -0.00412887)
(-0.0107195 -0.000915132 -0.00187203)
(-0.0110848 -0.0018014 0.000667615)
(-0.0102928 -0.0017918 0.00298433)
(-0.00939633 -0.00190518 0.00488285)
(-0.00811256 -0.00282221 0.00636182)
(-0.00586883 -0.00426166 0.00727245)
(-0.00140148 -0.00568363 0.00761206)
(0.00425307 -0.00584061 0.00713153)
(0.00910327 -0.00489722 0.00637273)
(0.0123843 -0.00379676 0.00561021)
(0.0142042 -0.0031136 0.00468765)
(0.0147686 -0.00219861 0.00363573)
(0.012369 0.000501812 0.00305159)
(0.00703497 0.00462835 0.00343899)
(0.000545359 0.00667601 0.0059817)
(-0.002606 0.00357811 0.00910906)
(0.00391402 0.00913927 0.0119088)
(0.00713247 0.0100641 0.0108803)
(0.00848517 0.00957979 0.00848517)
(0.00684988 0.00807591 0.00555565)
(0.00299405 0.00590831 0.00307392)
(-0.0022238 0.00213866 0.00142595)
(-0.006004 -0.0016395 0.000821827)
(-0.00622731 -0.00314956 0.00128464)
(-0.00545777 -0.00523557 0.00185114)
(-0.00389934 -0.00824335 0.00237701)
(-0.00148004 -0.0114459 0.00264303)
(0.00141605 -0.0118044 0.00255649)
(0.00363388 -0.00889208 0.00236395)
(0.00435079 -0.00557012 0.00214427)
(0.00316169 -0.00194555 0.0021908)
(-0.0035519 0.00375744 0.00357259)
(-0.00841998 0.00652544 0.00597269)
(-0.0109411 0.00726904 0.00871321)
(-0.00986889 0.00446792 0.0109114)
(-0.00505495 -0.0033265 0.0115794)
(0.00435046 -0.00217152 0.0135803)
(0.00976907 0.00186854 0.0148504)
(0.0138848 0.00587901 0.0138848)
(0.0150637 0.00812589 0.0112965)
(0.0132822 0.00847801 0.00844434)
(0.00977192 0.00685754 0.00586912)
(0.00555689 0.0029727 0.00331356)
(0.000702594 -0.00252932 0.00092118)
(-0.00100612 -0.00676601 -0.000474073)
(-0.00114372 -0.0106268 -0.00102304)
(-0.00106364 -0.0141225 -0.000852125)
(-0.0018561 -0.0135705 -0.000319886)
(-0.003626 -0.00900483 0.000366481)
(-0.00687785 -0.00292537 0.00137525)
(-0.0120097 0.00320507 0.00331984)
(-0.0153299 0.00625736 0.00565481)
(-0.017314 0.0058094 0.00793675)
(-0.0160858 0.00179044 0.00985841)
(-0.011175 -0.00608883 0.0102802)
(-0.00441083 -0.0148278 0.00846707)
(0.00396053 -0.0121675 0.00685913)
(0.00937843 -0.00745992 0.0109888)
(0.0130306 -0.00157825 0.0130306)
(0.015692 0.00428764 0.0128484)
(0.0160715 0.00757168 0.0113695)
(0.0144958 0.00793662 0.00939105)
(0.0117829 0.00578173 0.00702088)
(0.00833133 0.00118561 0.00390443)
(0.00392946 -0.0049423 0.000555919)
(0.00107971 -0.0100163 -0.00151781)
(-0.00139992 -0.0132254 -0.00165776)
(-0.00497188 -0.0114125 -0.0004771)
(-0.00951742 -0.00587575 0.00124617)
(-0.0140651 0.000358065 0.0034674)
(-0.0168668 0.00453035 0.00578896)
(-0.0182568 0.00546231 0.00770635)
(-0.0175914 0.00235992 0.00919994)
(-0.0140091 -0.00505097 0.00974559)
(-0.00972898 -0.0139474 0.0080971)
(-0.00351086 -0.0220604 0.00382751)
(0.00334621 -0.0195588 0.000774979)
(0.00893199 -0.0133281 0.00694823)
(0.0108717 -0.00670829 0.0108717)
(0.012406 0.000103162 0.0126661)
(0.0131377 0.00532897 0.0128621)
(0.0127305 0.0075089 0.011849)
(0.0112721 0.00680286 0.0100456)
(0.00893117 0.00369954 0.00755803)
(0.00572541 -0.00154007 0.00412028)
(0.00244134 -0.00660913 0.00126243)
(-0.00115574 -0.00927635 0.000719015)
(-0.00550843 -0.00708742 0.0022973)
(-0.00975474 -0.00217 0.00470116)
(-0.0126389 0.00260677 0.00735688)
(-0.0143102 0.00494703 0.00923854)
(-0.0145199 0.00401981 0.0106242)
(-0.0129555 -0.0011357 0.0111131)
(-0.0106397 -0.00943993 0.00983648)
(-0.0085549 -0.0185661 0.00621083)
(-0.00269944 -0.0264174 -0.000370966)
(0.00219957 -0.0250057 -0.00335082)
(0.00833 -0.0166705 0.00392985)
(0.00880573 -0.00926703 0.00880573)
(0.00920796 -0.0020676 0.0114528)
(0.00907111 0.00360022 0.0126184)
(0.00887049 0.00661395 0.0124305)
(0.00834724 0.00691068 0.0113459)
(0.00731421 0.00500006 0.00972125)
(0.00576387 0.00179978 0.0080214)
(0.00361311 -0.00159766 0.00616166)
(0.000484297 -0.00347916 0.00556388)
(-0.00326496 -0.00200015 0.00676537)
(-0.00596655 0.00125293 0.00864729)
(-0.00789634 0.00400869 0.0102754)
(-0.00884546 0.00508008 0.0117263)
(-0.00884676 0.00300521 0.0125401)
(-0.00852461 -0.00286556 0.0118227)
(-0.00770565 -0.011446 0.00929376)
(-0.00767952 -0.0206421 0.0042672)
(-0.00165282 -0.0293033 -0.00381523)
(0.000419666 -0.0283835 -0.00654508)
(0.00690786 -0.0181567 0.000990178)
(0.00608313 -0.0102192 0.00608313)
(0.00620865 -0.00323417 0.00885018)
(0.00581588 0.00170164 0.0101966)
(0.00570381 0.00441278 0.0102345)
(0.00577689 0.00490787 0.00957105)
(0.00568647 0.00360841 0.00861239)
(0.00516059 0.00146964 0.00786422)
(0.00381178 -0.000419782 0.00753862)
(0.00154524 -0.00133355 0.00769703)
(-0.00127209 -0.000642679 0.00819059)
(-0.00318275 0.00116679 0.00892498)
(-0.00425477 0.00286232 0.0099931)
(-0.00464714 0.00327428 0.0111344)
(-0.00476964 0.00106398 0.0116226)
(-0.00511447 -0.00409932 0.0103206)
(-0.00486419 -0.0119541 0.00719303)
(-0.00644455 -0.0209544 0.00149705)
(-9.00805e-05 -0.0311026 -0.00681978)
(-0.00214755 -0.0281921 -0.010039)
(0.00348088 -0.0175539 -0.00321295)
(0.00121307 -0.00976015 0.00121307)
(0.001427 -0.00326482 0.00319525)
(0.00137567 0.00134781 0.00377676)
(0.00215036 0.00391315 0.00379212)
(0.00289795 0.00474179 0.00319026)
(0.00340453 0.00456645 0.00246544)
(0.00351451 0.00403134 0.00214441)
(0.00288336 0.00361874 0.00247446)
(0.0013654 0.00359598 0.00310335)
(-0.000321667 0.00373336 0.00315677)
(-0.00108299 0.00412798 0.00350008)
(-0.00123793 0.00430371 0.0043875)
(-0.000887048 0.00356978 0.00528891)
(-0.000238524 0.000848864 0.00535479)
(-0.000560546 -0.00416321 0.00462565)
(-0.000451915 -0.0111352 0.00215889)
(-0.00344746 -0.019325 -0.00308252)
(0.00229593 -0.0299868 -0.0103906)
(-0.00615165 -0.0226289 -0.0146354)
(-0.00430213 -0.0147261 -0.0100544)
(-0.00769509 -0.00927333 -0.00769509)
(-0.00765743 -0.0060251 -0.00718601)
(-0.00701815 -0.00404645 -0.00783708)
(-0.00550261 -0.00324586 -0.00882351)
(-0.00345608 -0.00326684 -0.00964715)
(-0.00147774 -0.00377767 -0.0103268)
(0.000186689 -0.00422724 -0.0101083)
(0.00103696 -0.00370316 -0.00889057)
(0.00119385 -0.00334583 -0.00792349)
(0.00123992 -0.00428793 -0.00845268)
(0.00236528 -0.00464443 -0.00905908)
(0.00405836 -0.00450167 -0.00888074)
(0.00589164 -0.00459603 -0.00803789)
(0.0072903 -0.00547019 -0.00704263)
(0.00786134 -0.00739846 -0.00666335)
(0.00787165 -0.0104768 -0.00764577)
(0.00417371 -0.0158988 -0.0105669)
(0.00629153 -0.0239152 -0.0154088)
(-0.0133588 -0.0126375 -0.0215132)
(-0.0190309 -0.00604768 -0.0224693)
(-0.0252461 -0.00253589 -0.0252461)
(-0.0268539 -0.00067692 -0.0286341)
(-0.0265082 0.000493145 -0.0321923)
(-0.0247142 0.00132821 -0.0358328)
(-0.0218068 0.00215588 -0.0393352)
(-0.0178534 0.00318014 -0.0424075)
(-0.0127288 0.00455231 -0.0445458)
(-0.00695021 0.00639606 -0.0449155)
(0.00251668 0.00815271 -0.044837)
(0.0103556 0.00642364 -0.0459583)
(0.016773 0.00466597 -0.0447936)
(0.0217305 0.00320087 -0.0421536)
(0.0252816 0.00196025 -0.0387289)
(0.0274611 0.000765859 -0.0349988)
(0.0278913 -0.000657168 -0.0311999)
(0.0261961 -0.0026822 -0.0275763)
(0.0197219 -0.006362 -0.0245487)
(0.0138747 -0.01331 -0.0231631)
(-0.000244 0.00358342 -0.0131177)
(-0.00214457 0.00292101 -0.0110138)
(-0.00412887 0.00129752 -0.00891867)
(-0.00616541 -0.000166886 -0.00616541)
(-0.00744151 -0.000979033 -0.00303661)
(-0.00780712 -0.00114407 0.000273579)
(-0.00751531 -0.000925824 0.00333885)
(-0.00719906 -0.001091 0.00600802)
(-0.00659037 -0.00200088 0.00827101)
(-0.00505851 -0.00352997 0.00980728)
(-0.00130263 -0.00506241 0.0104798)
(0.00387316 -0.0054325 0.00987645)
(0.00836424 -0.00458789 0.00869542)
(0.0113825 -0.00344203 0.00738405)
(0.0129623 -0.00269807 0.00589205)
(0.013483 -0.00200459 0.00429225)
(0.0118989 -0.000250128 0.00312797)
(0.00846071 0.00285119 0.00273402)
(0.00408178 0.00614788 0.0038754)
(-0.000401607 0.00701225 0.00596821)
(0.00271211 0.00908984 0.0094573)
(0.00462085 0.0088816 0.00893126)
(0.00555565 0.00807591 0.00684988)
(0.00427537 0.00681446 0.00427537)
(0.00141268 0.00480293 0.00214012)
(-0.00222825 0.00154566 0.000992647)
(-0.0045357 -0.000800372 0.00105109)
(-0.00475241 -0.0020665 0.00203139)
(-0.00419108 -0.00406744 0.00317191)
(-0.00310683 -0.00715675 0.00417286)
(-0.00127661 -0.0104918 0.00470857)
(0.00106855 -0.0111198 0.00450755)
(0.00291701 -0.00843277 0.00386781)
(0.00353168 -0.00519338 0.00312976)
(0.00287575 -0.00212963 0.00280281)
(-0.0019333 0.00267242 0.00401072)
(-0.00587134 0.00582638 0.00661597)
(-0.00801553 0.00755825 0.00973714)
(-0.00720337 0.00796969 0.012143)
(-0.00436856 0.00654694 0.012924)
(0.00393158 0.00574871 0.0161025)
(0.00803854 0.00682964 0.0165532)
(0.0112965 0.00812589 0.0150637)
(0.0122269 0.00879603 0.0122269)
(0.0109661 0.00827932 0.00920715)
(0.00824838 0.00620249 0.00644115)
(0.00456381 0.00229865 0.0037608)
(0.00097066 -0.00228197 0.00174027)
(-0.000375469 -0.00588512 0.000853992)
(-0.000713501 -0.00962335 0.000559881)
(-0.00108194 -0.0131878 0.000823069)
(-0.00216873 -0.0129444 0.00121311)
(-0.00392108 -0.00887975 0.00156049)
(-0.00659973 -0.00344486 0.00230225)
(-0.0108525 0.00228302 0.00425125)
(-0.0137724 0.0058755 0.0070299)
(-0.015283 0.00661788 0.00983112)
(-0.0142334 0.0050781 0.0121669)
(-0.0101802 0.00148407 0.0127257)
(-0.00457963 -0.00285839 0.0105623)
(0.00452849 -0.00217647 0.00977221)
(0.00929598 0.0012006 0.0139652)
(0.0128484 0.00428764 0.015692)
(0.0150489 0.00708349 0.0150489)
(0.0153785 0.00849428 0.0131656)
(0.0140468 0.00797771 0.0107909)
(0.0115662 0.00550326 0.00811266)
(0.0081151 0.000843452 0.00486304)
(0.00402338 -0.00483019 0.00173153)
(0.00118012 -0.00964061 -0.000282731)
(-0.00173489 -0.0129137 -0.000466714)
(-0.00544319 -0.0114091 0.000679765)
(-0.00980248 -0.00629246 0.00226064)
(-0.0141666 -0.00027226 0.00436241)
(-0.0171112 0.00417967 0.0068881)
(-0.018353 0.00566628 0.00909198)
(-0.0176952 0.00406812 0.0107606)
(-0.0145906 -0.000344598 0.0111003)
(-0.0101036 -0.00550029 0.00886365)
(-0.00404395 -0.0102498 0.00390298)
(0.00422637 -0.0108563 0.00164483)
(0.0100841 -0.00424577 0.00799453)
(0.0126661 0.000103162 0.012406)
(0.0143491 0.00416643 0.0143491)
(0.0149858 0.00715305 0.0143552)
(0.0144422 0.00813683 0.0131188)
(0.0128128 0.00687175 0.0110685)
(0.0102177 0.00341372 0.00828936)
(0.0064934 -0.00213134 0.00446992)
(0.00253423 -0.00727416 0.0013794)
(-0.00199489 -0.010061 0.000811265)
(-0.00686554 -0.00790494 0.00251116)
(-0.0116036 -0.00290385 0.00499041)
(-0.0149498 0.00215011 0.00772872)
(-0.0167313 0.0048049 0.00969454)
(-0.0169933 0.00454536 0.01108)
(-0.0155375 0.00116595 0.011425)
(-0.0127472 -0.00420186 0.0098194)
(-0.00970801 -0.00977398 0.00546237)
(-0.00323223 -0.0161514 -0.0016168)
(0.00265031 -0.018637 -0.00373373)
(0.00985832 -0.00798743 0.00383303)
(0.0114528 -0.0020676 0.00920796)
(0.0123252 0.00276048 0.0123252)
(0.0124325 0.00640725 0.0136111)
(0.0120386 0.00818839 0.0134203)
(0.0110467 0.00777973 0.0121743)
(0.00933864 0.0052993 0.0101749)
(0.00682979 0.00134247 0.0077474)
(0.0036127 -0.00293753 0.00507366)
(-0.000890734 -0.00515284 0.00436627)
(-0.00554876 -0.00322308 0.0060546)
(-0.00905171 0.000778901 0.00843361)
(-0.0114235 0.00421993 0.0104109)
(-0.0126429 0.00579205 0.0119255)
(-0.0127437 0.00452874 0.0126282)
(-0.0119515 0.000332858 0.0117569)
(-0.0104122 -0.00567447 0.00869817)
(-0.00910041 -0.0121482 0.00291378)
(-0.00182731 -0.0218488 -0.00535781)
(0.000250483 -0.0242601 -0.00781347)
(0.00823089 -0.0108085 0.000456483)
(0.00885018 -0.00323417 0.00620865)
(0.00956138 0.00211105 0.00956138)
(0.00942724 0.00571147 0.0111288)
(0.00922463 0.00742832 0.0113865)
(0.00889588 0.00720998 0.0107248)
(0.00814325 0.00527641 0.00948118)
(0.00667778 0.00245998 0.00810549)
(0.00425339 -8.85017e-05 0.00702344)
(0.000407008 -0.00142403 0.00699488)
(-0.00370691 -0.000434679 0.0079945)
(-0.0064909 0.00195764 0.00929482)
(-0.0080616 0.00435683 0.0106902)
(-0.00861776 0.00544948 0.0118569)
(-0.00860582 0.00404474 0.0121456)
(-0.00854136 -1.64282e-05 0.0106871)
(-0.00755876 -0.00591908 0.00673374)
(-0.00771046 -0.0134166 6.55061e-05)
(0.000208956 -0.02609 -0.00874693)
(-0.00289062 -0.0261691 -0.0119736)
(0.00406794 -0.0126017 -0.00396211)
(0.00319525 -0.00326482 0.001427)
(0.00462941 0.00316264 0.00462941)
(0.00492493 0.00639661 0.00579654)
(0.00536152 0.00776195 0.00592715)
(0.00581365 0.00779128 0.00543197)
(0.0058579 0.00696176 0.00465403)
(0.0051842 0.00591162 0.0040829)
(0.00351402 0.00520299 0.00407)
(0.000450839 0.00513877 0.00463776)
(-0.00256956 0.00525795 0.00491028)
(-0.0041591 0.00597765 0.00545686)
(-0.00473785 0.00681072 0.00641147)
(-0.00454897 0.00704923 0.00731077)
(-0.00409214 0.00572067 0.00742806)
(-0.00366534 0.00200282 0.00588344)
(-0.00224724 -0.0049926 0.00201528)
(-0.00406289 -0.0141358 -0.00437874)
(0.00306829 -0.0273785 -0.0127594)
(-0.00740885 -0.0220981 -0.0168052)
(-0.00481327 -0.0126451 -0.0114181)
(-0.00718601 -0.0060251 -0.00765743)
(-0.00584357 -0.00187876 -0.00584357)
(-0.00442197 0.000629662 -0.00553818)
(-0.00284292 0.00133737 -0.00642999)
(-0.00116661 0.00095406 -0.00767988)
(0.000185697 0.000184508 -0.00902614)
(0.00101126 -0.000230342 -0.00981995)
(0.00127598 0.000527541 -0.00944752)
(0.000712241 0.00084311 -0.00852346)
(9.98989e-05 -0.00027737 -0.00908041)
(0.000636099 -0.000827262 -0.00874751)
(0.0015789 -0.000593915 -0.00739458)
(0.00301311 -0.00035872 -0.00573834)
(0.00445998 -0.00124606 -0.00460324)
(0.00603104 -0.00367322 -0.00551973)
(0.00720328 -0.00746933 -0.00786464)
(0.00449301 -0.0138147 -0.012281)
(0.0075221 -0.0231746 -0.0179303)
(-0.0155771 -0.0120946 -0.0236355)
(-0.0220243 -0.00456537 -0.0243882)
(-0.0286341 -0.00067692 -0.0268539)
(-0.0300055 0.00139933 -0.0300055)
(-0.0291798 0.00274091 -0.0333906)
(-0.0271889 0.0037057 -0.0372863)
(-0.0242931 0.00474086 -0.0414496)
(-0.0203221 0.00609114 -0.0454173)
(-0.0148754 0.00789573 -0.0484312)
(-0.0083336 0.0102704 -0.0495126)
(0.00303516 0.0125322 -0.0499919)
(0.0122808 0.0102264 -0.0506625)
(0.019395 0.00806576 -0.0488329)
(0.0246201 0.0062427 -0.0454156)
(0.0283203 0.00471385 -0.041313)
(0.0307791 0.00328065 -0.0372487)
(0.0315707 0.00159481 -0.0334664)
(0.0299075 -0.000670912 -0.0298639)
(0.0228744 -0.00472746 -0.0269742)
(0.0161665 -0.012622 -0.025667)
(-2.54976e-06 -0.00159905 -0.0157841)
(-0.000884726 -0.000990405 -0.0134902)
(-0.00187203 -0.000915132 -0.0107195)
(-0.00303661 -0.000979033 -0.0074415)
(-0.00381182 -0.000887849 -0.00381182)
(-0.0041083 -0.000536069 -8.19535e-06)
(-0.00417434 -0.000265824 0.00359503)
(-0.00437244 -0.000464968 0.00695414)
(-0.0044841 -0.00131433 0.0100442)
(-0.00386909 -0.0029031 0.0123551)
(-0.00117391 -0.00453462 0.0134331)
(0.00319872 -0.00504491 0.0126416)
(0.00719415 -0.00430447 0.0110385)
(0.00986319 -0.00313875 0.00913427)
(0.0111277 -0.00225167 0.00704863)
(0.0114594 -0.00168244 0.00486168)
(0.0106383 -0.000810211 0.00295037)
(0.00847768 0.000998181 0.00148517)
(0.0055833 0.00380867 0.000713923)
(0.00127653 0.00643085 5.51694e-05)
(0.00168285 0.00642624 0.00409581)
(0.00258676 0.0063763 0.00423954)
(0.00307392 0.00590831 0.00299405)
(0.00214012 0.00480293 0.00141268)