/*--------------------------------*- C++ -*----------------------------------*\
  =========                 |
  \\      /  F ield         | OpenFOAM: The Open Source CFD Toolbox
   \\    /   O peration     | Website:  https://openfoam.org
    \\  /    A nd           | Version:  9
     \\/     M anipulation  |
\*---------------------------------------------------------------------------*/
FoamFile
{
    format      ascii;
    class       volScalarField;
    location    "950";
    object      epsilon;
}
// * * * * * * * * * * * * * * * * * * * * * * * * * * * * * * * * * * * * * //

dimensions      [0 2 -3 0 0 0 0];

internalField   nonuniform List<scalar> 
4000
(
4.09287e-07
2.98514e-07
1.48704e-07
6.82244e-08
4.59779e-08
3.91682e-08
3.34885e-08
3.0975e-08
3.01792e-08
2.93256e-08
2.78156e-08
2.68289e-08
2.79144e-08
3.02535e-08
3.56268e-08
3.90355e-08
4.34575e-08
6.01794e-08
1.38602e-07
2.64776e-07
5.44341e-07
4.28019e-07
2.86536e-07
2.05263e-07
1.51903e-07
7.21692e-08
4.82903e-08
4.58745e-08
4.79912e-08
5.00885e-08
4.98368e-08
4.83613e-08
4.96866e-08
5.22354e-08
5.47035e-08
1.43659e-07
2.2106e-07
2.99071e-07
3.86663e-07
4.9847e-07
6.38759e-07
5.56852e-07
4.23557e-07
3.25795e-07
2.45743e-07
1.67508e-07
1.09687e-07
5.58252e-08
6.15651e-08
6.79631e-08
7.09862e-08
7.36955e-08
8.07454e-08
1.20901e-07
1.86165e-07
2.48045e-07
3.5121e-07
4.74588e-07
5.67021e-07
6.22953e-07
6.96284e-07
6.36986e-07
5.19369e-07
3.96419e-07
2.89539e-07
2.09216e-07
1.46886e-07
1.03868e-07
8.35537e-08
1.01308e-07
1.20907e-07
1.40123e-07
1.5902e-07
1.86191e-07
2.40422e-07
3.24555e-07
4.40481e-07
5.59894e-07
6.54347e-07
6.90328e-07
7.35472e-07
7.07107e-07
6.1851e-07
5.11008e-07
4.06485e-07
3.18656e-07
2.71272e-07
2.54448e-07
2.55943e-07
2.67926e-07
2.98261e-07
3.26749e-07
3.50723e-07
3.76493e-07
4.17943e-07
4.83905e-07
5.71656e-07
6.64324e-07
7.28187e-07
7.34022e-07
7.65751e-07
7.74403e-07
7.39106e-07
6.8956e-07
6.4276e-07
6.04132e-07
5.75658e-07
5.52913e-07
5.36476e-07
5.30198e-07
5.57908e-07
5.97961e-07
6.32436e-07
6.62389e-07
6.91894e-07
7.22684e-07
7.55271e-07
7.86472e-07
7.99007e-07
7.6761e-07
7.94762e-07
8.46946e-07
8.72507e-07
8.85281e-07
8.94182e-07
8.97091e-07
8.9242e-07
8.78474e-07
8.53614e-07
8.21354e-07
8.4378e-07
8.99871e-07
9.42086e-07
9.66832e-07
9.75322e-07
9.68583e-07
9.49747e-07
9.21487e-07
8.74864e-07
8.00078e-07
8.28144e-07
9.27328e-07
1.01329e-06
1.08362e-06
1.14267e-06
1.18658e-06
1.2115e-06
1.21163e-06
1.18078e-06
1.12192e-06
1.14099e-06
1.2209e-06
1.26907e-06
1.28083e-06
1.26138e-06
1.21574e-06
1.14901e-06
1.065e-06
9.59125e-07
8.36883e-07
8.73431e-07
1.03051e-06
1.17821e-06
1.30578e-06
1.41645e-06
1.50546e-06
1.56839e-06
1.59323e-06
1.56299e-06
1.47596e-06
1.4959e-06
1.61009e-06
1.66005e-06
1.64921e-06
1.59327e-06
1.50029e-06
1.37976e-06
1.23699e-06
1.06828e-06
8.85787e-07
9.42247e-07
1.16403e-06
1.37836e-06
1.56246e-06
1.72584e-06
1.86769e-06
1.98119e-06
2.05195e-06
2.05895e-06
1.98229e-06
2.00382e-06
2.10206e-06
2.10658e-06
2.04609e-06
1.93953e-06
1.79864e-06
1.6299e-06
1.4346e-06
1.20335e-06
9.58052e-07
2.98514e-07
2.29194e-07
1.25301e-07
7.91216e-08
6.63133e-08
6.44847e-08
5.85038e-08
5.09602e-08
4.93034e-08
4.83725e-08
4.60028e-08
4.384e-08
4.46239e-08
4.87157e-08
6.37565e-08
6.38918e-08
6.44879e-08
6.92791e-08
1.04052e-07
1.58838e-07
4.28019e-07
4.31543e-07
3.09373e-07
2.5431e-07
2.37517e-07
1.6128e-07
7.64162e-08
5.69847e-08
4.99319e-08
5.11731e-08
5.22376e-08
5.3551e-08
5.84102e-08
6.91658e-08
1.05868e-07
2.37864e-07
3.01458e-07
3.54452e-07
4.1938e-07
3.54184e-07
5.56852e-07
7.00091e-07
5.28704e-07
3.75974e-07
2.80751e-07
2.09123e-07
1.57785e-07
1.01023e-07
6.35589e-08
6.03567e-08
6.13544e-08
6.93793e-08
9.68261e-08
1.59518e-07
2.19686e-07
2.80469e-07
3.89104e-07
5.26684e-07
6.19943e-07
5.43896e-07
6.36986e-07
6.41351e-07
5.57686e-07
4.18794e-07
3.01848e-07
2.19375e-07
1.59854e-07
1.19473e-07
9.42594e-08
8.61341e-08
9.08437e-08
1.12437e-07
1.42722e-07
1.80623e-07
2.38736e-07
3.24877e-07
4.48125e-07
5.52708e-07
6.10769e-07
6.31232e-07
7.07107e-07
6.48273e-07
5.85331e-07
4.85992e-07
3.6526e-07
2.7453e-07
2.15298e-07
1.79455e-07
1.60338e-07
1.48703e-07
1.59187e-07
1.87516e-07
2.27491e-07
2.69471e-07
3.28469e-07
4.19675e-07
5.23017e-07
6.01821e-07
6.42536e-07
7.06326e-07
7.74403e-07
6.92925e-07
6.57433e-07
5.98748e-07
5.21545e-07
4.31535e-07
3.69503e-07
3.24121e-07
2.97641e-07
2.90972e-07
3.01532e-07
3.28021e-07
3.6888e-07
4.23429e-07
4.9913e-07
5.78929e-07
6.36405e-07
6.80167e-07
6.99818e-07
7.78031e-07
8.46946e-07
7.53434e-07
7.37309e-07
7.18983e-07
7.06137e-07
6.60499e-07
5.85811e-07
5.23095e-07
4.81029e-07
4.61086e-07
4.72598e-07
5.204e-07
5.81664e-07
6.52669e-07
7.11403e-07
7.42969e-07
7.54836e-07
7.69821e-07
7.71815e-07
8.5513e-07
9.27328e-07
8.50272e-07
8.59039e-07
8.75539e-07
9.16906e-07
9.4589e-07
9.41054e-07
9.02325e-07
8.33728e-07
7.45495e-07
7.46619e-07
8.46337e-07
9.24642e-07
9.67936e-07
9.78514e-07
9.54116e-07
9.22704e-07
9.08018e-07
8.81027e-07
9.39514e-07
1.03051e-06
1.06586e-06
1.16272e-06
1.25398e-06
1.35007e-06
1.4348e-06
1.49986e-06
1.51692e-06
1.44678e-06
1.28432e-06
1.28871e-06
1.47626e-06
1.57699e-06
1.58619e-06
1.53675e-06
1.44417e-06
1.33965e-06
1.23353e-06
1.11094e-06
1.04747e-06
1.16403e-06
1.44479e-06
1.72609e-06
1.98277e-06
2.22632e-06
2.45393e-06
2.65226e-06
2.79255e-06
2.83574e-06
2.75061e-06
2.76618e-06
2.87912e-06
2.85727e-06
2.73558e-06
2.54888e-06
2.32153e-06
2.06911e-06
1.79651e-06
1.4934e-06
1.1851e-06
1.48704e-07
1.25301e-07
9.27532e-08
7.95603e-08
7.64702e-08
7.58388e-08
7.02095e-08
6.37893e-08
6.39387e-08
6.43141e-08
6.16378e-08
5.77746e-08
5.7895e-08
6.20557e-08
7.69952e-08
7.89823e-08
7.64664e-08
7.13028e-08
7.33698e-08
7.65221e-08
2.86536e-07
3.09373e-07
2.73868e-07
2.62963e-07
2.50433e-07
1.68752e-07
8.6906e-08
6.84244e-08
6.15809e-08
6.25868e-08
6.3259e-08
6.37328e-08
6.79157e-08
8.00564e-08
1.05289e-07
2.22568e-07
2.87463e-07
3.1755e-07
3.24284e-07
2.49879e-07
4.23557e-07
5.28704e-07
4.41345e-07
3.4877e-07
2.79748e-07
2.17244e-07
1.72535e-07
1.18122e-07
7.85587e-08
6.93328e-08
6.83014e-08
7.76123e-08
1.04832e-07
1.69911e-07
2.30106e-07
2.71462e-07
3.5184e-07
4.42808e-07
5.01325e-07
4.37478e-07
5.19369e-07
5.57686e-07
4.92991e-07
3.87832e-07
2.95126e-07
2.23768e-07
1.71291e-07
1.35419e-07
1.10195e-07
8.93546e-08
8.85446e-08
1.13217e-07
1.46066e-07
1.81617e-07
2.32235e-07
3.03888e-07
4.01273e-07
4.92173e-07
5.30296e-07
5.19772e-07
6.1851e-07
5.85331e-07
5.1765e-07
4.26601e-07
3.2692e-07
2.48621e-07
1.9388e-07
1.57592e-07
1.32673e-07
1.1708e-07
1.19768e-07
1.46053e-07
1.81676e-07
2.18145e-07
2.71213e-07
3.49127e-07
4.44482e-07
5.216e-07
5.7778e-07
6.20567e-07
7.39106e-07
6.57433e-07
5.77819e-07
4.92807e-07
4.01489e-07
3.1763e-07
2.57823e-07
2.15297e-07
1.87569e-07
1.72116e-07
1.73927e-07
1.99282e-07
2.37897e-07
2.86046e-07
3.49869e-07
4.28182e-07
5.10538e-07
5.87848e-07
6.59122e-07
7.44654e-07
8.72507e-07
7.37309e-07
6.54448e-07
5.6468e-07
4.85939e-07
4.17193e-07
3.56835e-07
3.11453e-07
2.82461e-07
2.71889e-07
2.75956e-07
2.97247e-07
3.32722e-07
3.81837e-07
4.40549e-07
5.08605e-07
5.91882e-07
6.76245e-07
7.48065e-07
8.82513e-07
1.01329e-06
8.59039e-07
8.11898e-07
7.34391e-07
6.39599e-07
5.95901e-07
5.62954e-07
5.25776e-07
4.75711e-07
4.18241e-07
4.14449e-07
4.73002e-07
5.28534e-07
5.72793e-07
6.15373e-07
6.931e-07
7.85856e-07
8.52163e-07
8.79735e-07
1.02596e-06
1.17821e-06
1.16272e-06
1.31573e-06
1.47451e-06
1.6212e-06
1.7081e-06
1.79918e-06
1.83189e-06
1.68924e-06
1.40965e-06
1.41698e-06
1.74019e-06
1.9407e-06
1.96836e-06
1.89896e-06
1.7433e-06
1.57376e-06
1.38231e-06
1.19778e-06
1.19457e-06
1.37836e-06
1.72609e-06
2.07404e-06
2.40168e-06
2.72399e-06
3.03862e-06
3.32876e-06
3.55003e-06
3.64189e-06
3.54982e-06
3.55316e-06
3.67495e-06
3.61314e-06
3.41873e-06
3.14465e-06
2.82799e-06
2.49271e-06
2.14563e-06
1.77439e-06
1.3989e-06
6.82244e-08
7.91216e-08
7.95603e-08
8.06855e-08
8.11237e-08
8.03937e-08
7.36872e-08
7.13866e-08
7.56576e-08
7.86752e-08
7.50434e-08
6.87409e-08
6.76753e-08
7.02572e-08
7.92201e-08
8.951e-08
8.10847e-08
7.11375e-08
5.95631e-08
4.45333e-08
2.05263e-07
2.5431e-07
2.62963e-07
2.62614e-07
2.24407e-07
1.40354e-07
8.49578e-08
7.3639e-08
7.09647e-08
7.35128e-08
7.25688e-08
6.98056e-08
7.19811e-08
8.22246e-08
9.57898e-08
1.62349e-07
2.37992e-07
2.71828e-07
2.63445e-07
1.8879e-07
3.25795e-07
3.75974e-07
3.4877e-07
3.04045e-07
2.54894e-07
2.04747e-07
1.66512e-07
1.16658e-07
8.77387e-08
8.02841e-08
7.71141e-08
8.17693e-08
1.01855e-07
1.556e-07
2.19557e-07
2.46847e-07
2.92965e-07
3.43416e-07
3.63938e-07
3.25464e-07
3.96419e-07
4.18794e-07
3.87832e-07
3.28184e-07
2.65788e-07
2.11517e-07
1.69655e-07
1.39778e-07
1.16551e-07
9.83107e-08
9.38576e-08
1.12573e-07
1.45155e-07
1.77842e-07
2.1602e-07
2.66737e-07
3.29593e-07
3.85506e-07
4.07643e-07
3.96808e-07
5.11008e-07
4.85992e-07
4.26601e-07
3.58716e-07
2.86968e-07
2.26335e-07
1.81203e-07
1.50813e-07
1.30867e-07
1.15992e-07
1.14412e-07
1.36083e-07
1.62484e-07
1.9146e-07
2.33926e-07
2.92529e-07
3.61405e-07
4.24837e-07
4.79696e-07
5.1026e-07
6.8956e-07
5.98748e-07
4.92807e-07
4.07399e-07
3.29811e-07
2.6238e-07
2.11841e-07
1.75466e-07
1.49069e-07
1.34244e-07
1.34595e-07
1.53575e-07
1.87103e-07
2.2543e-07
2.75351e-07
3.3857e-07
4.10644e-07
4.92668e-07
5.98569e-07
6.94388e-07
8.85281e-07
7.18983e-07
5.6468e-07
4.58723e-07
3.81196e-07
3.18827e-07
2.70175e-07
2.3508e-07
2.13135e-07
2.04676e-07
2.08602e-07
2.23986e-07
2.47651e-07
2.83811e-07
3.31504e-07
3.92286e-07
4.68355e-07
5.71394e-07
7.24216e-07
8.93442e-07
1.08362e-06
8.75539e-07
7.34391e-07
6.106e-07
5.56699e-07
5.32332e-07
5.22502e-07
5.1245e-07
4.80142e-07
4.26216e-07
4.31753e-07
5.00618e-07
5.45942e-07
5.60907e-07
5.69227e-07
5.92477e-07
6.33801e-07
7.48938e-07
8.84944e-07
1.0919e-06
1.30578e-06
1.25398e-06
1.47451e-06
1.71154e-06
1.88779e-06
2.14831e-06
2.41086e-06
2.54476e-06
2.39745e-06
2.00816e-06
1.99762e-06
2.40758e-06
2.63622e-06
2.58259e-06
2.34508e-06
2.0566e-06
1.818e-06
1.516e-06
1.26807e-06
1.31532e-06
1.56246e-06
1.98277e-06
2.40168e-06
2.8066e-06
3.22246e-06
3.64921e-06
4.05764e-06
4.38587e-06
4.5499e-06
4.49118e-06
4.48094e-06
4.56253e-06
4.43024e-06
4.13479e-06
3.74571e-06
3.31837e-06
2.8852e-06
2.45899e-06
2.01878e-06
1.57415e-06
4.59779e-08
6.63133e-08
7.64702e-08
8.11237e-08
8.09031e-08
7.86505e-08
7.298e-08
7.57517e-08
8.54912e-08
9.2273e-08
8.69013e-08
7.79319e-08
7.47975e-08
7.43806e-08
7.62175e-08
8.24375e-08
7.83379e-08
6.65661e-08
5.29334e-08
3.44631e-08
1.51903e-07
2.37517e-07
2.50433e-07
2.24407e-07
1.65289e-07
1.06855e-07
8.03216e-08
7.59717e-08
7.86784e-08
8.38578e-08
8.0315e-08
7.36655e-08
7.37163e-08
8.01334e-08
8.79346e-08
1.10701e-07
1.64853e-07
2.09087e-07
2.11118e-07
1.36853e-07
2.45743e-07
2.80751e-07
2.79748e-07
2.54894e-07
2.1756e-07
1.82626e-07
1.46624e-07
1.07252e-07
9.14174e-08
9.1189e-08
8.60144e-08
8.31559e-08
9.52299e-08
1.29172e-07
1.87255e-07
2.21331e-07
2.40282e-07
2.62669e-07
2.64749e-07
2.34642e-07
2.89539e-07
3.01848e-07
2.95126e-07
2.65788e-07
2.27093e-07
1.89872e-07
1.58792e-07
1.34763e-07
1.16275e-07
1.08306e-07
1.02719e-07
1.0882e-07
1.35222e-07
1.66578e-07
1.94799e-07
2.28235e-07
2.62568e-07
2.89419e-07
2.93683e-07
2.84167e-07
4.06485e-07
3.6526e-07
3.2692e-07
2.86968e-07
2.4196e-07
1.99979e-07
1.6614e-07
1.43296e-07
1.30712e-07
1.26619e-07
1.24751e-07
1.31735e-07
1.49483e-07
1.71069e-07
2.02314e-07
2.4217e-07
2.84586e-07
3.22805e-07
3.62273e-07
4.05619e-07
6.4276e-07
5.21545e-07
4.01489e-07
3.29811e-07
2.72583e-07
2.23224e-07
1.84204e-07
1.56154e-07
1.38615e-07
1.40471e-07
1.43011e-07
1.41016e-07
1.61732e-07
1.90196e-07
2.27744e-07
2.74252e-07
3.28616e-07
4.00097e-07
5.24837e-07
6.45067e-07
8.94182e-07
7.06137e-07
4.85939e-07
3.81196e-07
3.17179e-07
2.6893e-07
2.32162e-07
2.07373e-07
1.97412e-07
2.08155e-07
2.18784e-07
2.10735e-07
2.18622e-07
2.42799e-07
2.77856e-07
3.23254e-07
3.83485e-07
4.8425e-07
7.02544e-07
8.96098e-07
1.14267e-06
9.16906e-07
6.39599e-07
5.56699e-07
5.45905e-07
5.5517e-07
5.73135e-07
5.83191e-07
5.55166e-07
5.03457e-07
5.16788e-07
5.81625e-07
6.23991e-07
6.21849e-07
6.00366e-07
5.79818e-07
5.73868e-07
6.3512e-07
9.09477e-07
1.14073e-06
1.41645e-06
1.35007e-06
1.6212e-06
1.88779e-06
2.36198e-06
2.87467e-06
3.29757e-06
3.49799e-06
3.21534e-06
2.59397e-06
2.56483e-06
3.14897e-06
3.49904e-06
3.40279e-06
3.01812e-06
2.48486e-06
1.9416e-06
1.61396e-06
1.33555e-06
1.41178e-06
1.72584e-06
2.22632e-06
2.72399e-06
3.22246e-06
3.77089e-06
4.34598e-06
4.90663e-06
5.38139e-06
5.66838e-06
5.69612e-06
5.6708e-06
5.64718e-06
5.38483e-06
4.94295e-06
4.40437e-06
3.83198e-06
3.267e-06
2.74965e-06
2.23715e-06
1.72001e-06
3.91682e-08
6.44847e-08
7.58388e-08
8.03937e-08
7.86505e-08
7.30726e-08
7.16173e-08
7.93119e-08
9.53971e-08
1.07504e-07
9.92751e-08
8.65563e-08
8.01235e-08
7.55155e-08
7.15628e-08
6.94676e-08
6.67188e-08
6.01567e-08
4.81806e-08
2.94285e-08
7.21692e-08
1.6128e-07
1.68752e-07
1.40354e-07
1.06855e-07
8.51642e-08
7.76522e-08
7.99961e-08
8.90957e-08
9.86143e-08
9.11503e-08
7.87753e-08
7.56654e-08
7.80253e-08
8.1392e-08
8.35459e-08
9.8246e-08
1.22764e-07
1.27133e-07
6.05343e-08
1.67508e-07
2.09123e-07
2.17244e-07
2.04747e-07
1.82626e-07
1.54405e-07
1.20719e-07
9.79893e-08
9.50648e-08
1.05107e-07
9.8152e-08
8.5085e-08
8.89461e-08
1.06311e-07
1.41786e-07
1.83007e-07
1.99753e-07
2.03216e-07
1.93267e-07
1.59318e-07
2.09216e-07
2.19375e-07
2.23768e-07
2.11517e-07
1.89872e-07
1.65501e-07
1.42933e-07
1.23726e-07
1.13504e-07
1.21691e-07
1.1643e-07
1.04736e-07
1.20009e-07
1.4834e-07
1.72853e-07
1.9304e-07
2.10761e-07
2.1986e-07
2.15026e-07
2.07707e-07
3.18657e-07
2.7453e-07
2.48621e-07
2.26335e-07
1.99979e-07
1.72617e-07
1.48812e-07
1.3299e-07
1.28516e-07
1.4361e-07
1.4323e-07
1.28011e-07
1.37341e-07
1.53116e-07
1.74727e-07
2.0069e-07
2.25767e-07
2.47815e-07
2.74541e-07
3.14049e-07
6.04132e-07
4.31535e-07
3.1763e-07
2.6238e-07
2.23224e-07
1.8929e-07
1.61249e-07
1.41905e-07
1.36605e-07
1.65728e-07
1.71709e-07
1.39558e-07
1.45487e-07
1.64999e-07
1.92459e-07
2.25356e-07
2.63685e-07
3.19222e-07
4.33938e-07
6.01387e-07
8.97091e-07
6.605e-07
4.17193e-07
3.18827e-07
2.6893e-07
2.35088e-07
2.10389e-07
1.96541e-07
2.02093e-07
2.52164e-07
2.70599e-07
2.18929e-07
2.0886e-07
2.21871e-07
2.45262e-07
2.76493e-07
3.21999e-07
4.13468e-07
6.46426e-07
8.88504e-07
1.18658e-06
9.4589e-07
5.95901e-07
5.32332e-07
5.5517e-07
6.00608e-07
6.47345e-07
6.67713e-07
6.27297e-07
5.83334e-07
5.9972e-07
6.49247e-07
7.01396e-07
6.92859e-07
6.45809e-07
5.89311e-07
5.49277e-07
5.9096e-07
9.17227e-07
1.16876e-06
1.50546e-06
1.4348e-06
1.7081e-06
2.14831e-06
2.87467e-06
3.60478e-06
4.18258e-06
4.365e-06
3.81055e-06
3.01926e-06
2.99042e-06
3.69531e-06
4.2467e-06
4.16697e-06
3.65018e-06
2.92577e-06
2.13972e-06
1.63048e-06
1.38313e-06
1.47876e-06
1.86769e-06
2.45393e-06
3.03862e-06
3.64921e-06
4.34598e-06
5.09153e-06
5.84126e-06
6.51621e-06
7.01333e-06
7.25736e-06
7.21749e-06
6.9571e-06
6.46928e-06
5.81937e-06
5.09172e-06
4.35197e-06
3.64181e-06
3.01731e-06
2.42768e-06
1.8364e-06
3.34885e-08
5.85038e-08
7.02095e-08
7.36872e-08
7.298e-08
7.16173e-08
7.53326e-08
8.59372e-08
1.066e-07
1.2714e-07
1.15595e-07
9.59385e-08
8.449e-08
7.54052e-08
6.77106e-08
6.0721e-08
5.37342e-08
4.71891e-08
3.8067e-08
2.39597e-08
4.82903e-08
7.64162e-08
8.6906e-08
8.49578e-08
8.03216e-08
7.76522e-08
8.03379e-08
8.9693e-08
1.08387e-07
1.33613e-07
1.1948e-07
9.07939e-08
8.09132e-08
7.79333e-08
7.65508e-08
7.46796e-08
7.11877e-08
6.6891e-08
5.66951e-08
4.02297e-08
1.09687e-07
1.57785e-07
1.72535e-07
1.66512e-07
1.46624e-07
1.20719e-07
1.01019e-07
9.49019e-08
1.08459e-07
1.52325e-07
1.42208e-07
9.55725e-08
8.6546e-08
9.26671e-08
1.0749e-07
1.31909e-07
1.53305e-07
1.57731e-07
1.42501e-07
1.04036e-07
1.46886e-07
1.59854e-07
1.71291e-07
1.69655e-07
1.58792e-07
1.42933e-07
1.25531e-07
1.12511e-07
1.20538e-07
1.86123e-07
1.81554e-07
1.1109e-07
1.06531e-07
1.25822e-07
1.48667e-07
1.63781e-07
1.71096e-07
1.70418e-07
1.59544e-07
1.50018e-07
2.71272e-07
2.15298e-07
1.9388e-07
1.81203e-07
1.6614e-07
1.48812e-07
1.32759e-07
1.23194e-07
1.35669e-07
2.28973e-07
2.3163e-07
1.34042e-07
1.25799e-07
1.37315e-07
1.52259e-07
1.6862e-07
1.83286e-07
1.96371e-07
2.16734e-07
2.61272e-07
5.75658e-07
3.69503e-07
2.57823e-07
2.11841e-07
1.84204e-07
1.61249e-07
1.42173e-07
1.31462e-07
1.4843e-07
2.79079e-07
2.86854e-07
1.51707e-07
1.35151e-07
1.46501e-07
1.66019e-07
1.89319e-07
2.17297e-07
2.63198e-07
3.71944e-07
5.6475e-07
8.9242e-07
5.85811e-07
3.56835e-07
2.70175e-07
2.32162e-07
2.10389e-07
1.96722e-07
1.94237e-07
2.27967e-07
4.10683e-07
4.28547e-07
2.45682e-07
2.0833e-07
2.106e-07
2.23711e-07
2.431e-07
2.75482e-07
3.50537e-07
5.59732e-07
8.69937e-07
1.2115e-06
9.41054e-07
5.62954e-07
5.22502e-07
5.73135e-07
6.47345e-07
7.13011e-07
7.23984e-07
6.74344e-07
7.36693e-07
7.43574e-07
6.8576e-07
7.43436e-07
7.43424e-07
6.82521e-07
5.98897e-07
5.30956e-07
5.47372e-07
8.9034e-07
1.17336e-06
1.56839e-06
1.49986e-06
1.79918e-06
2.41086e-06
3.29757e-06
4.18258e-06
4.87413e-06
4.85021e-06
4.0642e-06
3.68585e-06
3.65815e-06
3.96034e-06
4.6577e-06
4.69194e-06
4.11256e-06
3.23947e-06
2.30023e-06
1.62663e-06
1.4013e-06
1.51236e-06
1.98119e-06
2.65226e-06
3.32876e-06
4.05764e-06
4.90663e-06
5.84126e-06
6.82599e-06
7.79369e-06
8.6917e-06
9.47111e-06
9.41487e-06
8.60975e-06
7.70441e-06
6.74427e-06
5.77653e-06
4.8456e-06
3.98435e-06
3.24772e-06
2.57879e-06
1.91816e-06
3.0975e-08
5.09602e-08
6.37893e-08
7.13866e-08
7.57517e-08
7.93119e-08
8.59372e-08
9.90864e-08
1.23647e-07
1.54642e-07
1.38618e-07
1.08392e-07
9.01588e-08
7.66835e-08
6.68843e-08
5.85639e-08
5.07663e-08
4.3317e-08
3.45394e-08
2.22477e-08
4.58745e-08
5.69847e-08
6.84244e-08
7.3639e-08
7.59717e-08
7.99961e-08
8.9693e-08
1.10935e-07
1.50654e-07
2.32557e-07
2.07532e-07
1.22398e-07
9.42097e-08
8.115e-08
7.43616e-08
6.94501e-08
6.48104e-08
5.86119e-08
4.84494e-08
3.87327e-08
5.58252e-08
1.01023e-07
1.18122e-07
1.16658e-07
1.07252e-07
9.79893e-08
9.49019e-08
1.07542e-07
1.68843e-07
4.57134e-07
4.43693e-07
1.48727e-07
9.57998e-08
8.73924e-08
9.02971e-08
9.78019e-08
1.06447e-07
1.08639e-07
9.46945e-08
5.54152e-08
1.03868e-07
1.19473e-07
1.35419e-07
1.39778e-07
1.34763e-07
1.23726e-07
1.12511e-07
1.16641e-07
2.06618e-07
7.73545e-07
7.89531e-07
1.96118e-07
1.08467e-07
1.07914e-07
1.23189e-07
1.3707e-07
1.42058e-07
1.36541e-07
1.2121e-07
1.08018e-07
2.54448e-07
1.79455e-07
1.57592e-07
1.50813e-07
1.43296e-07
1.3299e-07
1.23194e-07
1.28522e-07
2.55351e-07
1.16038e-06
1.21663e-06
2.55844e-07
1.2765e-07
1.25152e-07
1.35339e-07
1.45018e-07
1.5225e-07
1.58861e-07
1.74748e-07
2.26559e-07
5.52913e-07
3.24121e-07
2.15297e-07
1.75466e-07
1.56154e-07
1.41905e-07
1.31462e-07
1.40053e-07
3.0858e-07
1.58713e-06
1.63706e-06
3.14003e-07
1.43242e-07
1.35961e-07
1.47238e-07
1.62168e-07
1.815e-07
2.18973e-07
3.20291e-07
5.31874e-07
8.78474e-07
5.23095e-07
3.11453e-07
2.3508e-07
2.07373e-07
1.96541e-07
1.94237e-07
2.16705e-07
4.3758e-07
1.92013e-06
1.93788e-06
4.52043e-07
2.30643e-07
2.08408e-07
2.10003e-07
2.17586e-07
2.3746e-07
2.98516e-07
4.87031e-07
8.40964e-07
1.21163e-06
9.02325e-07
5.25776e-07
5.1245e-07
5.83191e-07
6.67713e-07
7.23984e-07
7.24563e-07
8.35589e-07
2.08592e-06
2.06527e-06
8.31008e-07
7.29968e-07
7.34755e-07
6.7973e-07
5.86389e-07
4.99638e-07
4.94242e-07
8.31616e-07
1.15244e-06
1.59323e-06
1.51692e-06
1.83189e-06
2.54476e-06
3.49799e-06
4.365e-06
4.85021e-06
4.62168e-06
4.43116e-06
5.87392e-06
5.9619e-06
4.32736e-06
4.47008e-06
4.62832e-06
4.15301e-06
3.29911e-06
2.32209e-06
1.56163e-06
1.37055e-06
1.5058e-06
2.05195e-06
2.79255e-06
3.55003e-06
4.38587e-06
5.38139e-06
6.51621e-06
7.79369e-06
9.23731e-06
1.09357e-05
1.29096e-05
1.28443e-05
1.08442e-05
9.12944e-06
7.6754e-06
6.39643e-06
5.25574e-06
4.24558e-06
3.40439e-06
2.66807e-06
1.95534e-06
3.01792e-08
4.93034e-08
6.39387e-08
7.56576e-08
8.54912e-08
9.53971e-08
1.066e-07
1.23647e-07
1.46466e-07
1.70334e-07
1.5394e-07
1.22944e-07
1.0064e-07
8.29232e-08
7.10078e-08
6.1756e-08
5.34634e-08
4.48352e-08
3.49894e-08
2.20293e-08
4.79912e-08
4.99319e-08
6.15809e-08
7.09647e-08
7.86784e-08
8.90957e-08
1.08387e-07
1.50654e-07
2.5389e-07
1.12277e-06
1.10643e-06
2.12373e-07
1.22897e-07
9.11669e-08
7.62077e-08
6.72946e-08
5.99165e-08
5.20061e-08
4.22772e-08
3.80756e-08
6.15651e-08
6.35589e-08
7.85587e-08
8.77387e-08
9.14174e-08
9.50648e-08
1.08459e-07
1.68843e-07
5.77556e-07
4.22109e-06
4.33224e-06
5.30203e-07
1.43518e-07
9.36423e-08
8.37149e-08
8.19185e-08
8.06758e-08
7.55404e-08
6.25997e-08
5.24207e-08
8.35537e-08
9.42594e-08
1.10195e-07
1.16551e-07
1.16275e-07
1.13504e-07
1.20538e-07
2.06618e-07
1.05119e-06
7.69548e-06
8.10205e-06
1.0476e-06
1.87498e-07
1.07477e-07
1.04125e-07
1.1084e-07
1.15299e-07
1.10937e-07
9.50917e-08
7.73681e-08
2.55943e-07
1.60338e-07
1.32673e-07
1.30867e-07
1.30712e-07
1.28516e-07
1.35669e-07
2.55351e-07
1.6821e-06
1.1426e-05
1.21999e-05
1.77344e-06
2.45497e-07
1.27691e-07
1.23575e-07
1.27405e-07
1.29276e-07
1.31869e-07
1.46731e-07
2.06112e-07
5.36476e-07
2.97641e-07
1.87569e-07
1.49069e-07
1.38615e-07
1.36605e-07
1.4843e-07
3.0858e-07
2.26997e-06
1.44431e-05
1.54507e-05
2.4055e-06
3.06128e-07
1.45755e-07
1.36623e-07
1.41094e-07
1.5188e-07
1.84077e-07
2.83043e-07
5.03745e-07
8.53614e-07
4.81029e-07
2.82461e-07
2.13135e-07
1.97412e-07
2.02093e-07
2.27967e-07
4.3758e-07
2.72369e-06
1.57223e-05
1.6747e-05
2.88035e-06
4.44313e-07
2.3185e-07
2.0513e-07
1.96765e-07
2.0407e-07
2.5721e-07
4.37747e-07
8.04118e-07
1.18078e-06
8.33728e-07
4.75711e-07
4.80142e-07
5.55166e-07
6.27297e-07
6.74344e-07
8.35589e-07
2.88525e-06
1.46713e-05
1.54361e-05
3.00526e-06
8.246e-07
6.62034e-07
6.10737e-07
5.27264e-07
4.39718e-07
4.3147e-07
7.55188e-07
1.10766e-06
1.56299e-06
1.44678e-06
1.68924e-06
2.39745e-06
3.21534e-06
3.81055e-06
4.0642e-06
4.43116e-06
6.48714e-06
1.27688e-05
1.3177e-05
6.6409e-06
4.38182e-06
3.93287e-06
3.59858e-06
2.95162e-06
2.10521e-06
1.38639e-06
1.27763e-06
1.45553e-06
2.05895e-06
2.83574e-06
3.64189e-06
4.5499e-06
5.66838e-06
7.01333e-06
8.6917e-06
1.09357e-05
1.4093e-05
1.81837e-05
1.80543e-05
1.40447e-05
1.08412e-05
8.56728e-06
6.87021e-06
5.50369e-06
4.36069e-06
3.44073e-06
2.67019e-06
1.93666e-06
2.93256e-08
4.83725e-08
6.43141e-08
7.86752e-08
9.2273e-08
1.07504e-07
1.2714e-07
1.54642e-07
1.70334e-07
1.85938e-07
1.61738e-07
1.38579e-07
1.20446e-07
9.59696e-08
7.92872e-08
6.74082e-08
5.69676e-08
4.66422e-08
3.56478e-08
2.21146e-08
5.00885e-08
5.11731e-08
6.25868e-08
7.35128e-08
8.38578e-08
9.86143e-08
1.33613e-07
2.32557e-07
1.12277e-06
1.56874e-06
1.47973e-06
1.02681e-06
1.91803e-07
1.11025e-07
8.09293e-08
6.71556e-08
5.72658e-08
4.83903e-08
3.91839e-08
3.69229e-08
6.79631e-08
6.03567e-08
6.93328e-08
8.02841e-08
9.1189e-08
1.05107e-07
1.52325e-07
4.57134e-07
4.22109e-06
3.52474e-06
3.32813e-06
4.06846e-06
3.8176e-07
1.19431e-07
8.38945e-08
7.3984e-08
6.71728e-08
5.9788e-08
5.02149e-08
5.0885e-08
1.01308e-07
8.61341e-08
8.93546e-08
9.83107e-08
1.08306e-07
1.21691e-07
1.86123e-07
7.73545e-07
7.69548e-06
6.09096e-06
5.75095e-06
7.82978e-06
6.98114e-07
1.4784e-07
9.77648e-08
9.15843e-08
8.9027e-08
8.54913e-08
7.68712e-08
6.26591e-08
2.67926e-07
1.48703e-07
1.1708e-07
1.15992e-07
1.26619e-07
1.4361e-07
2.28973e-07
1.16038e-06
1.1426e-05
9.2173e-06
8.71266e-06
1.2139e-05
1.14775e-06
1.90099e-07
1.19712e-07
1.12146e-07
1.088e-07
1.1195e-07
1.35822e-07
2.06862e-07
5.30198e-07
2.90972e-07
1.72116e-07
1.34244e-07
1.40471e-07
1.65728e-07
2.79079e-07
1.58713e-06
1.44431e-05
1.25835e-05
1.19292e-05
1.57749e-05
1.60338e-06
2.41188e-07
1.41298e-07
1.26592e-07
1.2858e-07
1.61374e-07
2.64015e-07
4.86678e-07
8.21354e-07
4.61086e-07
2.71889e-07
2.04676e-07
2.08155e-07
2.52164e-07
4.10683e-07
1.92013e-06
1.57223e-05
1.55428e-05
1.47982e-05
1.75224e-05
1.98512e-06
3.67927e-07
2.2407e-07
1.85823e-07
1.78352e-07
2.30838e-07
4.07656e-07
7.70381e-07
1.12192e-06
7.45495e-07
4.18241e-07
4.26216e-07
5.03457e-07
5.83334e-07
7.36693e-07
2.08592e-06
1.46713e-05
1.70372e-05
1.62774e-05
1.64952e-05
2.14499e-06
6.6273e-07
5.23192e-07
4.44624e-07
3.67972e-07
3.75583e-07
6.89017e-07
1.05454e-06
1.47596e-06
1.28432e-06
1.40965e-06
2.00816e-06
2.59397e-06
3.01926e-06
3.68585e-06
5.87392e-06
1.27688e-05
1.71913e-05
1.65994e-05
1.38285e-05
6.00937e-06
3.5712e-06
2.90808e-06
2.41751e-06
1.76316e-06
1.1635e-06
1.14487e-06
1.37836e-06
1.98229e-06
2.75061e-06
3.54982e-06
4.49118e-06
5.69612e-06
7.25736e-06
9.47111e-06
1.29096e-05
1.81837e-05
2.22731e-05
2.14162e-05
1.82929e-05
1.28744e-05
9.35601e-06
7.12551e-06
5.53471e-06
4.29314e-06
3.33645e-06
2.57929e-06
1.86115e-06
2.78156e-08
4.60028e-08
6.16378e-08
7.50434e-08
8.69013e-08
9.92751e-08
1.15595e-07
1.38618e-07
1.5394e-07
1.61738e-07
1.39966e-07
1.2681e-07
1.13577e-07
9.24682e-08
7.72239e-08
6.62202e-08
5.66663e-08
4.7065e-08
3.64074e-08
2.30134e-08
4.98368e-08
5.22376e-08
6.32591e-08
7.25688e-08
8.0315e-08
9.11503e-08
1.1948e-07
2.07532e-07
1.10643e-06
1.47973e-06
1.42888e-06
1.08479e-06
1.89243e-07
1.06668e-07
7.63062e-08
6.31239e-08
5.41238e-08
4.61757e-08
3.79185e-08
3.5601e-08
7.09862e-08
6.13544e-08
6.83014e-08
7.71141e-08
8.60144e-08
9.8152e-08
1.42208e-07
4.43693e-07
4.33224e-06
3.32813e-06
3.20719e-06
4.46561e-06
4.08996e-07
1.19617e-07
7.96346e-08
6.78763e-08
5.97747e-08
5.26551e-08
4.55867e-08
4.93528e-08
1.20907e-07
9.08437e-08
8.85446e-08
9.38576e-08
1.02719e-07
1.1643e-07
1.81554e-07
7.89531e-07
8.10205e-06
5.75095e-06
5.44975e-06
8.69092e-06
7.80752e-07
1.54995e-07
9.40065e-08
8.27454e-08
7.55436e-08
7.05706e-08
6.61245e-08
6.56966e-08
2.98262e-07
1.59187e-07
1.19768e-07
1.14412e-07
1.24751e-07
1.4323e-07
2.3163e-07
1.21663e-06
1.21999e-05
8.71266e-06
8.09868e-06
1.3453e-05
1.29832e-06
2.06128e-07
1.20657e-07
1.07052e-07
9.79971e-08
1.01704e-07
1.40412e-07
2.31823e-07
5.57908e-07
3.01532e-07
1.73927e-07
1.34595e-07
1.43011e-07
1.71709e-07
2.86854e-07
1.63706e-06
1.54507e-05
1.19292e-05
1.09372e-05
1.74346e-05
1.7228e-06
2.59683e-07
1.46773e-07
1.2334e-07
1.19997e-07
1.57201e-07
2.66836e-07
5.01606e-07
8.4378e-07
4.72598e-07
2.75956e-07
2.08602e-07
2.18784e-07
2.70599e-07
4.28547e-07
1.93788e-06
1.6747e-05
1.47982e-05
1.34771e-05
1.92143e-05
1.97928e-06
3.49455e-07
2.16004e-07
1.78155e-07
1.70879e-07
2.26717e-07
4.06557e-07
7.78439e-07
1.14099e-06
7.46619e-07
4.14449e-07
4.31753e-07
5.16788e-07
5.9972e-07
7.43574e-07
2.06527e-06
1.54361e-05
1.62774e-05
1.48104e-05
1.76487e-05
2.01834e-06
6.23945e-07
5.06667e-07
4.35195e-07
3.64423e-07
3.69943e-07
6.8827e-07
1.05741e-06
1.4959e-06
1.28871e-06
1.41698e-06
1.99762e-06
2.56483e-06
2.99042e-06
3.65815e-06
5.9619e-06
1.3177e-05
1.65994e-05
1.52523e-05
1.44033e-05
6.09873e-06
3.53969e-06
2.89181e-06
2.39507e-06
1.76043e-06
1.17697e-06
1.13659e-06
1.37632e-06
2.00382e-06
2.76618e-06
3.55316e-06
4.48094e-06
5.6708e-06
7.21749e-06
9.41486e-06
1.28443e-05
1.80543e-05
2.14162e-05
1.96389e-05
1.78165e-05
1.25732e-05
9.13591e-06
6.96476e-06
5.41161e-06
4.20284e-06
3.27267e-06
2.54115e-06
1.84594e-06
2.68289e-08
4.38401e-08
5.77746e-08
6.87409e-08
7.79319e-08
8.65563e-08
9.59385e-08
1.08392e-07
1.22944e-07
1.38579e-07
1.2681e-07
1.04946e-07
9.02325e-08
7.85799e-08
7.03666e-08
6.35173e-08
5.66015e-08
4.85727e-08
3.8399e-08
2.47022e-08
4.83613e-08
5.3551e-08
6.37328e-08
6.98056e-08
7.36655e-08
7.87753e-08
9.07939e-08
1.22398e-07
2.12373e-07
1.02681e-06
1.08479e-06
1.92965e-07
1.08991e-07
7.87662e-08
6.56611e-08
5.83832e-08
5.28975e-08
4.69072e-08
3.87957e-08
3.4964e-08
7.36955e-08
6.93793e-08
7.76123e-08
8.17693e-08
8.31559e-08
8.5085e-08
9.55725e-08
1.48727e-07
5.30202e-07
4.06846e-06
4.46561e-06
5.14738e-07
1.31112e-07
8.08008e-08
6.90253e-08
6.49304e-08
6.19479e-08
5.68526e-08
4.79412e-08
4.84244e-08
1.40123e-07
1.12437e-07
1.13217e-07
1.12573e-07
1.0882e-07
1.04736e-07
1.1109e-07
1.96118e-07
1.0476e-06
7.82977e-06
8.69092e-06
1.1298e-06
1.85948e-07
9.72541e-08
8.83999e-08
9.11503e-08
9.42845e-08
9.14785e-08
7.88537e-08
7.49225e-08
3.26749e-07
1.87516e-07
1.46053e-07
1.36083e-07
1.31735e-07
1.28011e-07
1.34042e-07
2.55844e-07
1.77344e-06
1.2139e-05
1.3453e-05
1.93907e-06
2.57221e-07
1.2755e-07
1.21277e-07
1.23012e-07
1.21583e-07
1.24684e-07
1.58164e-07
2.6169e-07
5.97961e-07
3.28021e-07
1.99282e-07
1.53575e-07
1.41016e-07
1.39558e-07
1.51707e-07
3.14003e-07
2.4055e-06
1.57749e-05
1.74346e-05
2.64669e-06
3.18133e-07
1.43806e-07
1.29286e-07
1.27465e-07
1.34039e-07
1.7087e-07
2.87588e-07
5.41408e-07
8.99871e-07
5.204e-07
2.97247e-07
2.23986e-07
2.10735e-07
2.18929e-07
2.45682e-07
4.52043e-07
2.88035e-06
1.75224e-05
1.92143e-05
3.10965e-06
4.12281e-07
2.0251e-07
1.77257e-07
1.69553e-07
1.80149e-07
2.43168e-07
4.38622e-07
8.31963e-07
1.2209e-06
8.46337e-07
4.73002e-07
5.00618e-07
5.81625e-07
6.49247e-07
6.8576e-07
8.31008e-07
3.00526e-06
1.64952e-05
1.76487e-05
3.10763e-06
7.43516e-07
5.93158e-07
5.37226e-07
4.64894e-07
4.0006e-07
4.04796e-07
7.7419e-07
1.12999e-06
1.61009e-06
1.47626e-06
1.74019e-06
2.40758e-06
3.14897e-06
3.69531e-06
3.96034e-06
4.32736e-06
6.6409e-06
1.38285e-05
1.44033e-05
6.65873e-06
4.22863e-06
3.95466e-06
3.46956e-06
2.75667e-06
1.99904e-06
1.3748e-06
1.28136e-06
1.47173e-06
2.10206e-06
2.87912e-06
3.67495e-06
4.56253e-06
5.64718e-06
6.9571e-06
8.60975e-06
1.08442e-05
1.40447e-05
1.82929e-05
1.78165e-05
1.36774e-05
1.05221e-05
8.31429e-06
6.63703e-06
5.29451e-06
4.20096e-06
3.33733e-06
2.61683e-06
1.92255e-06
2.79144e-08
4.46239e-08
5.7895e-08
6.76753e-08
7.47975e-08
8.01235e-08
8.449e-08
9.01588e-08
1.0064e-07
1.20446e-07
1.13577e-07
9.02325e-08
7.90597e-08
7.27312e-08
6.82318e-08
6.4068e-08
5.92365e-08
5.23737e-08
4.20456e-08
2.6991e-08
4.96866e-08
5.84102e-08
6.79158e-08
7.19811e-08
7.37163e-08
7.56654e-08
8.09132e-08
9.42097e-08
1.22897e-07
1.91803e-07
1.89243e-07
1.08991e-07
8.07522e-08
6.85022e-08
6.28175e-08
5.95267e-08
5.68999e-08
5.24791e-08
4.34059e-08
3.64715e-08
8.07454e-08
9.68261e-08
1.04832e-07
1.01855e-07
9.52299e-08
8.89461e-08
8.6546e-08
9.57998e-08
1.43518e-07
3.8176e-07
4.08996e-07
1.31112e-07
8.24781e-08
7.18706e-08
7.15322e-08
7.44511e-08
7.76307e-08
7.62975e-08
6.18675e-08
4.8599e-08
1.5902e-07
1.42722e-07
1.46066e-07
1.45155e-07
1.35222e-07
1.20009e-07
1.06531e-07
1.08467e-07
1.87498e-07