/*--------------------------------*- C++ -*----------------------------------*\
  =========                 |
  \\      /  F ield         | OpenFOAM: The Open Source CFD Toolbox
   \\    /   O peration     | Website:  https://openfoam.org
    \\  /    A nd           | Version:  9
     \\/     M anipulation  |
\*---------------------------------------------------------------------------*/
FoamFile
{
    format      ascii;
    class       surfaceScalarField;
    location    "950";
    object      phi;
}
// * * * * * * * * * * * * * * * * * * * * * * * * * * * * * * * * * * * * * //

dimensions      [1 0 -1 0 0 0 0];

internalField   nonuniform List<scalar> 
11200
(
0.000993028
-0.00198612
0.000993028
-0.00110857
0.00200763
9.37073e-05
-0.00352394
0.00324017
-0.000825273
-0.00412065
0.00131955
-0.000722908
-0.00384721
0.000196156
-0.000469546
-0.00315114
-0.000487785
-0.000208227
-0.00239678
-0.000643274
-0.000111044
-0.00165811
-0.000711999
-2.65985e-05
-0.000893367
-0.000792713
2.80448e-05
-0.000151381
-0.000807306
6.53965e-05
0.000534507
-0.000756319
7.05037e-05
0.0010737
-0.00064188
0.00010275
0.0014989
-0.000526721
0.000101559
0.00194814
-0.000478697
2.95025e-05
0.00278239
-0.000800797
-3.34172e-05
0.00270142
0.000341185
-0.00026017
0.00231326
0.000803708
-0.000415509
0.00162279
0.00106953
-0.000379087
0.000172397
0.00170849
-0.000258384
-5.89703e-05
0.000231173
0.00181446
-0.00561503
0.00181446
0.00298935
-0.000830973
0.00166355
0.00274989
0.00212302
0.00135635
0.00121592
0.00192366
0.000929733
-0.000764553
0.001562
0.000614584
-0.0021562
0.000686958
0.000216904
-0.00234117
-0.000256629
-0.00020163
-0.00164446
-0.00114194
-0.000266719
-0.000936542
-0.00104185
-0.00045872
-0.000151246
-0.00101514
-0.000577395
0.000591625
-0.000921788
-0.000577339
0.00119265
-0.000872865
-0.000369979
0.00160813
-0.000789711
-0.000152439
0.00147441
-0.00024912
-9.58164e-05
0.000203411
0.000410434
5.98122e-05
-0.00196624
0.0018615
0.000649296
-0.00365238
0.00138174
0.00110801
-0.00411302
-0.000321678
0.0018517
-0.0026319
-0.00224953
0.00247672
-0.00522242
0.00253153
0.0015985
-0.00881203
0.0015985
0.0035831
-0.00475245
0.00193686
0.00464586
-0.000867059
0.0019272
0.00401888
0.000972936
0.00157762
0.00277426
0.00165327
0.00115329
0.00140838
0.00126609
0.000786744
-5.09094e-05
0.000662969
0.000539685
-0.000714178
-0.000381697
-9.69387e-05
-0.00042898
-0.00071907
-0.000607935
8.79317e-05
-0.000716203
-0.00081581
0.000476567
-0.000575158
-0.000735231
0.000363599
-0.000450513
-0.000309356
-0.000564688
-6.96566e-05
0.000208247
-0.00205352
0.000623297
0.000616423
-0.00368721
0.00108369
0.000960411
-0.00417342
0.00105308
0.0012946
-0.00419216
-0.000281985
0.00168244
-0.00355604
-0.00301403
0.00205622
-0.00197058
-0.00617905
0.00234405
-0.00934088
0.00214788
0.0010006
-0.0108132
0.0010006
0.00197996
-0.00724095
0.00150914
0.00299205
-0.0036717
0.00179254
0.00339645
-0.00116213
0.00173064
0.00322452
0.000298746
0.00152643
0.00257984
0.000637335
0.00127343
0.00189324
0.000379694
0.00096988
0.000820275
0.000145869
0.000545398
0.000177116
-0.000119596
4.36956e-05
0.000101211
-0.000317395
-0.000322886
3.84597e-05
-0.000376449
-0.000135944
-0.000516569
-0.000306772
0.000411298
-0.00151557
-0.000104806
0.00103415
-0.0023853
3.63912e-05
0.00145661
-0.00278696
-0.000159477
0.00164481
-0.00261848
-0.000908982
0.00179357
-0.00216112
-0.0025981
0.00185877
-0.00170904
-0.00527326
0.00180715
-0.00105265
-0.0084863
0.00165086
-0.0115752
0.00118172
0.000470082
-0.0117534
0.000470083
0.000522123
-0.0085378
0.00124479
0.00060396
-0.00545757
0.00170402
0.000770028
-0.00330376
0.00197556
0.000961427
-0.00194043
0.00204777
0.000987293
-0.00130361
0.00191507
0.000784214
-0.0011186
0.00170137
0.000506556
-0.00101455
0.00143808
0.000218124
-0.00101689
0.00118572
0.000146021
-0.00123346
0.000988172
0.000216307
-0.00148489
0.00103817
0.000201578
-0.001599
0.00130696
0.000133641
-0.00166763
0.00163076
6.45048e-05
-0.00183541
0.00194093
1.73285e-05
-0.00226654
0.00215424
-4.3439e-07
-0.00307303
0.00218181
-3.34106e-05
-0.00451781
0.00195268
-0.000282155
-0.00668835
0.00166383
-0.000436516
-0.00957563
0.00124368
-0.012503
0.00049123
-2.24399e-06
-0.0117489
-2.24367e-06
-0.000508923
-0.00907732
0.00104618
-0.000921092
-0.00663068
0.00158526
-0.0011126
-0.00502703
0.00191475
-0.00108813
-0.00404987
0.00208496
-0.000922053
-0.00353933
0.00206963
-0.000706475
-0.00328299
0.00194881
-0.000420331
-0.00311252
0.00181181
-0.000103982
-0.00304603
0.00171279
0.000149879
-0.00314801
0.00166068
0.000436766
-0.00336996
0.00159817
0.000783127
-0.00355144
0.00160607
0.00114432
-0.00372911
0.00170028
0.00144071
-0.00399018
0.00185837
0.00158582
-0.00439166
0.00198
0.00155376
-0.00500483
0.00196385
0.00126128
-0.00601513
0.00178979
0.000687346
-0.0075955
0.00148108
5.075e-05
-0.00991763
0.00097859
-0.0124122
-4.00841e-05
-0.000359007
-0.0110309
-0.000359007
-0.00128363
-0.00895059
0.000797878
-0.00197924
-0.00720669
0.0012716
-0.00231643
-0.00619779
0.00150793
-0.00230911
-0.00565079
0.00159358
-0.00205625
-0.00539783
0.00160561
-0.00161948
-0.00528236
0.00156258
-0.00104011
-0.0051998
0.00150788
-0.000437839
-0.0051352
0.00148688
4.61075e-05
-0.0051223
0.00149032
0.000537181
-0.00525764
0.00139659
0.00114275
-0.00542895
0.00127192
0.00177325
-0.00559634
0.00123671
0.00229138
-0.0057939
0.00128557
0.00259046
-0.00604306
0.0013523
0.00258452
-0.00637852
0.00137961
0.00219695
-0.00694786
0.00132028
0.00141763
-0.0079385
0.0011223
0.000422252
-0.00961054
0.000688274
-0.0115814
-0.000408508
-0.000827677
-0.00937561
-0.000827677
-0.00209059
-0.00787488
0.000187173
-0.00299503
-0.00684111
0.000538824
-0.00341122
-0.00636143
0.000579792
-0.00337914
-0.00616087
0.000477969
-0.00300905
-0.00611271
0.000344751
-0.00237378
-0.00610886
0.000191194
-0.00156231
-0.00607847
6.71601e-05
-0.000737152
-0.00600713
4.67353e-05
-8.76215e-05
-0.00592173
0.00014987
0.000576444
-0.00596012
3.83817e-05
0.00143808
-0.00613401
-0.000156606
0.00231716
-0.00628142
-0.00019402
0.00305081
-0.00639173
-0.000135852
0.00350222
-0.00648571
-8.78854e-06
0.00356981
-0.00659757
0.000151442
0.00314283
-0.00683432
0.000313411
0.00220126
-0.00731784
0.000320878
0.000910066
-0.00831662
-2.74062e-06
-0.00979279
-0.000878591
-0.00162951
-0.00611662
-0.00162951
-0.00323012
-0.00530147
-0.000972836
-0.00423489
-0.00492378
-0.0009126
-0.00464405
-0.00489811
-0.0010542
-0.00453659
-0.00499985
-0.00126851
-0.00402218
-0.00515721
-0.00146995
-0.00318743
-0.00530268
-0.00164098
-0.00213677
-0.00538842
-0.00174075
-0.00105717
-0.00538268
-0.00170409
-0.000195652
-0.00530854
-0.00147474
0.000693671
-0.00529339
-0.00155609
0.00185762
-0.00542062
-0.00187736
0.0030081
-0.00546523
-0.00196672
0.00394408
-0.00542001
-0.00190774
0.00454408
-0.00531991
-0.00176582
0.00471051
-0.00520765
-0.00155639
0.00433516
-0.00513864
-0.00132036
0.00334093
-0.00517818
-0.00114545
0.00172678
-0.00555005
-0.00115244
-0.00636659
-0.00169944
-0.00305833
-0.00305833
-0.00506287
-0.00329697
-0.00607497
-0.00391172
-0.00641883
-0.00455429
-0.00622434
-0.00519439
-0.00558042
-0.00580118
-0.00454549
-0.00633765
-0.00318324
-0.00675071
-0.0016364
-0.00692958
-0.00030633
-0.00663865
0.00113777
-0.00673753
0.00281283
-0.00709573
0.00430214
-0.00695457
0.00545542
-0.00657333
0.00620203
-0.00606656
0.00647884
-0.0054845
0.00619356
-0.00485339
0.00521354
-0.00419819
0.00319562
-0.00353217
-0.00317099
9.37076e-05
0.00200763
-0.00110857
-0.00174317
0.00367322
-0.00174317
-0.00318825
0.00259272
-0.00197324
-0.00346045
0.000964608
-0.00141536
-0.00321311
0.000140348
-0.000857199
-0.00267219
-0.00036282
-0.000386265
-0.00202403
-0.000629004
-0.00013016
-0.00139758
-0.000682273
2.92916e-05
-0.000763239
-0.000732257
0.000126035
-0.000176594
-0.000712907
0.000191727
0.000343877
-0.000671838
0.000221934
0.000803613
-0.000637303
0.000280375
0.00121744
-0.000577757
0.000265542
0.0016459
-0.000522401
0.000123488
0.00235737
-0.000701919
-4.29364e-05
0.00233223
0.000197269
-0.000432265
0.00201931
0.000621062
-0.000723629
0.00160859
0.000887239
-0.000855605
0.000872512
0.00149452
-0.00101698
0.00232259
-0.0012192
0.00166355
-0.000830974
0.00298935
0.00271159
0.00157687
0.00271159
0.00244674
0.00219205
0.00202163
0.00133603
0.00175011
0.00125482
-2.12443e-05
0.00142454
0.000687623
-0.00123895
0.000801963
0.000269816
-0.00163307
-0.000242259
-0.000194223
-0.00130285
-0.000979339
-0.000299822
-0.000794954
-0.00121724
-0.000481565
-0.000212867
-0.00126108
-0.000611249
0.000351731
-0.00124567
-0.00056804
0.000810361
-0.00116636
-0.000299487
0.00115178
-0.000998699
-7.28583e-05
0.000980595
-0.000406052
-4.09378e-05
-0.000121129
0.000337736
0.000121921
-0.00176575
0.00169627
0.000794884
-0.00306659
0.00154297
0.00148687
-0.00346009
0.000608657
0.00252366
-0.00240199
-0.000570209
0.00348318
-0.00143144
0.00388337
0.00193686
-0.00475245
0.0035831
0.00386503
-0.00227954
0.00386503
0.00464199
-0.000130312
0.00347249
0.00407904
0.0012427
0.00264788
0.0030345
0.0017407
0.00188161
0.00192728
0.00139157
0.00130434
0.00070989
0.000696162
0.000818651
-0.000111527
-0.000325836
7.09988e-05
-0.00024189
-0.00112315
-0.000571618
-3.53653e-05
-0.00139273
-0.000890637
0.000128757
-0.00136755
-0.000777427
-9.15529e-05
-0.00101519
-0.000240175
-0.000937013
-0.000312747
0.000367781
-0.00223322
0.00060177
0.000904826
-0.00369783
0.00123452
0.00152822
-0.00424307
0.00139008
0.00214601
-0.00435548
0.000505713
0.00283207
-0.00370118
-0.00155181
0.00356237
-0.00219235
-0.00381122
0.00407623
-0.00553281
0.00405689
0.00150914
-0.00724096
0.00197996
0.00291707
-0.00509539
0.00291706
0.00388033
-0.00249604
0.00319499
0.00412731
-0.000185148
0.00291149
0.00375705
0.00119538
0.00244199
0.00304874
0.00139763
0.00197566
0.00230011
0.000941212
0.00147347
0.00132417
0.0003726
0.000822908
0.000466963
-0.000240294
1.80703e-05
3.72952e-05
-0.00071199
-0.000573921
-0.000368051
-0.000720958
-0.000377152
-0.00121349
-0.000207406
0.000448977
-0.00228459
0.000463791
0.00132873
-0.00316721
0.000933149
0.00200784
-0.00371566
0.00101767
0.0024101
-0.00378057
0.000440842
0.00280769
-0.00334794
-0.001198
0.00312985
-0.00263236
-0.00371327
0.00325303
-0.00155545
-0.00618602
0.00294875
-0.00802655
0.00212001
0.00124479
-0.0085378
0.000522123
0.00194786
-0.00650152
0.00194786
0.00229258
-0.00384236
0.00270562
0.00251752
-0.00137636
0.00294184
0.00255628
0.000365215
0.00283916
0.00228056
0.0010353
0.00255312
0.00180467
0.000962574
0.00215589
0.00124092
0.000717827
0.00165662
0.000647944
0.000469259
0.00106916
0.000232626
0.000170252
0.000521272
-0.000144258
9.6632e-05
0.000597487
-0.000682495
0.000332018
0.0013058
-0.00126417
0.000651595
0.00202464
-0.00172481
0.000779289
0.00255544
-0.00197626
0.000493258
0.0029301
-0.00200993
-0.000471072
0.0031274
-0.00196038
-0.00232638
0.00303151
-0.00182402
-0.00485497
0.00266917
-0.00126425
-0.00736557
0.00186346
-0.00924321
0.000443631
0.00104618
-0.00907732
-0.000508922
0.0012853
-0.00697977
0.0012853
0.00115126
-0.00444109
0.00231801
0.00100238
-0.00211192
0.00279919
0.00100647
-0.00052116
0.00296723
0.000967075
0.000307781
0.00283656
0.000765885
0.000566265
0.00254631
0.000523253
0.000573751
0.00219853
0.000337664
0.000486298
0.00188135
0.000264026
0.000277182
0.0016274
0.000205249
0.00017375
0.00157984
3.14691e-05
0.000251401
0.00186048
-0.000181457
0.000323192
0.00224161
-0.00034712
0.00017236
0.00263097
-0.000496193
-0.000274796
0.00289713
-0.000706448
-0.00123352
0.00293656
-0.00100955
-0.00292115
0.00268766
-0.00127019
-0.0052605
0.00214724
-0.00108488
-0.00765912
0.00108682
-0.00967754
-0.000690652
0.000797878
-0.00895059
-0.00128363
0.000676918
-0.00673787
0.000676918
0.00023945
-0.00453525
0.00180321
-1.40326e-05
-0.00270988
0.00235935
-8.58659e-05
-0.00145832
0.00260257
-2.34073e-05
-0.000727745
0.00257867
3.64518e-05
-0.000365642
0.00243462
9.46075e-05
-0.000238469
0.00226195
0.000162236
-0.000220857
0.0021264
0.000220044
-0.000302684
0.00201238
0.00023236
-0.000359664
0.00191769
0.000316549
-0.000489714
0.00192885
0.000428605
-0.000586508
0.00203436
0.000470684
-0.000790431
0.00220628
0.000396167
-0.00120372
0.00235574
0.000174315
-0.00199576
0.00236368
-0.000185829
-0.00331086
0.00207012
-0.000699884
-0.00514191
0.00151775
-0.000839089
-0.00724245
0.00041079
-0.00944557
-0.00147958
0.000187173
-0.00787488
-0.00209059
-0.000211441
-0.00594067
-0.000211441
-0.000837781
-0.00419049
0.000820381
-0.00113226
-0.0030732
0.00123757
-0.00115969
-0.00233745
0.0013845
-0.000998673
-0.00189887
0.00135484
-0.000730293
-0.00165768
0.00121483
-0.000427168
-0.00152225
0.0010478
-0.00011782
-0.00143216
0.000948675
0.000123764
-0.00133625
0.000941843
0.000318341
-0.00134351
0.000827637
0.000613514
-0.00157387
0.000632366
0.000944727
-0.00173531
0.000623557
0.00119586
-0.00192886
0.000751426
0.00128788
-0.00220813
0.00090358
0.00121922
-0.00268497
0.000909307
0.000869833
-0.0034611
0.000813017
0.000185612
-0.00459343
0.000456602
-0.000209153
-0.00628641
-0.000564036
-0.00825119
-0.00228215
-0.000972836
-0.00530147
-0.00323012
-0.0019794
-0.00392759
-0.0019794
-0.00269048
-0.00304917
-0.00134288
-0.0029934
-0.00262749
-0.00119702
-0.00288395
-0.00241139
-0.00130406
-0.00251572
-0.00232725
-0.00140983
-0.00194892
-0.00228196
-0.00158352
-0.00127209
-0.00221683
-0.00172303
-0.00061458
-0.00208952
-0.00170426
-6.73314e-05
-0.00182843
-0.00152984
0.000461145
-0.00176235
-0.00166574
0.00111152
-0.00203646
-0.00206517
0.00181312
-0.00218704
-0.00221661
0.00243827
-0.00228757
-0.0021742
0.00288877
-0.00237575
-0.00204873
0.00302438
-0.00250867
-0.00186831
0.00273057
-0.00276172
-0.00172596
0.00201106
-0.00320731
-0.0018121
0.00100856
-0.0040976
-0.00233878
-0.00551205
-0.00343006
-0.00329697
-0.00506287
-0.00526079
-0.00526079
-0.00623356
-0.00598816
-0.00655447
-0.00686092
-0.00638053
-0.00777976
-0.00580625
-0.00870276
-0.00487919
-0.00954671
-0.00362559
-0.0102212
-0.00208007
-0.0105647
-0.000267548
-0.0102796
0.0016112
-0.0103787
0.0032557
-0.0107767
0.00462531
-0.0105113
0.00565947
-0.00989509
0.00632184
-0.00910472
0.0065635
-0.00823487
0.00628861
-0.00734025
0.00533927
-0.0064562
0.00337022
-0.00566076
-0.00531284
-0.000825273
0.00324017
-0.00352394
-0.00197324
0.00259272
-0.00318825
-0.00263686
0.00132714
-0.00263686
-0.0027234
0.000496858
-0.00182568
-0.00254823
7.2909e-05
-0.00110526
-0.00215577
-0.000286368
-0.00049233
-0.00162204
-0.00057382
-9.00323e-05
-0.00109911
-0.000652161
0.000158592
-0.000590814
-0.000699612
0.000317425
-0.000160896
-0.000672309
0.000434181
0.000199545
-0.000636447
0.000497996
0.00055738
-0.000625584
0.000548179
0.000930338
-0.000594263
0.000486901
0.00130123
-0.000529062
0.000281699
0.00189721
-0.000669426
3.05505e-05
0.00194983
-3.11069e-05
-0.000453766
0.00169929
0.000421757
-0.000894841
0.00135905
0.000699226
-0.00121459
0.000821341
0.00106473
-0.00154404
0.00164285
-0.00204083
0.00135635
0.00212302
0.00274989
0.00202163
0.00219205
0.00244674
0.0017647
0.00184085
0.0017647
0.000967325
0.00152737
0.00102159
-3.70079e-05
0.00129267
0.000472156
-0.000896205
0.000706642
0.000135989
-0.00122884
-0.000263317
-0.000172057
-0.00102624
-0.000968864
-0.00018567
-0.00067661
-0.00126914
-0.000261605
-0.000226384
-0.00139672
-0.000337001
0.000235781
-0.00141232
-0.000254269
0.000620546
-0.00129854
-1.12318e-05
0.000940948
-0.00110476
0.000117298
0.000911596
-0.000600434
5.98311e-05
0.000142618
0.000131513
8.99987e-05
-0.00103558
0.00133352
0.000608446
-0.00201467
0.00163961
0.00124805
-0.00231792
0.00130802
0.00221803
-0.00164162
0.000788695
0.00308279
0.000479863
0.00340459
0.0019272
-0.000867059
0.00464586
0.00347249
-0.000130313
0.00464199
0.00399583
0.000794054
0.00399583
0.00359265
0.00153632
0.00304202
0.00279469
0.00179192
0.00218026
0.00188267
0.00138534
0.00153763
0.000859481
0.000632717
0.000945798
0.000125282
-0.000429257
0.000265612
-0.000131635
-0.00132276
-0.00026104
-7.10318e-05
-0.00176301
-0.000584896
1.27919e-05
-0.00181522
-0.000458301
-0.000158292
-0.00140771
4.01247e-05
-0.000813636
-0.000613669
0.000532061
-0.00191146
0.000415564
0.000986668
-0.00317256
0.00122619
0.00169463
-0.00372266
0.00150968
0.00251992
-0.00383018
0.0012646
0.00331457
-0.00318278
2.47108e-05
0.00419825
-0.00188213
-0.00118329
0.00474754
-0.0020779
0.00473249
0.00179254
-0.0036717
0.00299205
0.00319499
-0.00249604
0.00388033
0.00407105
-0.000958077
0.00407105
0.00425895
0.000606673
0.0036532
0.00388043
0.00157945
0.00303295
0.0031824
0.00163274
0.00242628
0.00241653
0.00104737
0.00182469
0.0014552
0.00022517
0.00112982
0.000578948
-0.000741613
0.000313204
4.23289e-05
-0.00146157
-0.000338707
-0.000457987
-0.00149633
-0.00019568
-0.00134392
-0.0007335
0.000660727
-0.00244872
0.000278916
0.00154098
-0.00338261
0.00103594
0.00232135
-0.00395091
0.00133869
0.0028659
-0.00415506
0.00105749
0.00346402
-0.00372265
-3.34762e-05
0.0039955
-0.00289988
-0.00174605
0.00420102
-0.00169979
-0.00330169
0.00386705
-0.00454127
0.00288359
0.00170402
-0.00545757
0.00060396
0.00270562
-0.00384237
0.00229258
0.0032869
-0.00212063
0.0032869
0.00355037
-0.000267044
0.00355209
0.00346351
0.00114072
0.00336475
0.00304627
0.00162458
0.00297853
0.00242718
0.00133536
0.00248699
0.00169675
0.000730798
0.00188144
0.00085661
9.353e-05
0.00107418
0.000175818
-0.000560202
0.000300729
-0.000475479
-0.000611525
0.000364012
-0.00133945
0.000105331
0.00133096
-0.00215107
0.000811055
0.00230414
-0.00278508
0.00127096
0.00295444
-0.00319183
0.00125614
0.00341941
-0.00326982
0.000530549
0.00373234
-0.00305294
-0.000965316
0.00374648
-0.00259815
-0.00280151
0.00326983
-0.00170428
-0.00445462
0.00212251
-0.00614397
0.000342042
0.00158526
-0.00663068
-0.000921092
0.00231801
-0.00444109
0.00115126
0.00253102
-0.00254665
0.00253102
0.00252103
-0.000654295
0.00319643
0.00244317
0.000801935
0.00338389
0.00219222
0.00148715
0.00322495
0.00174803
0.00145091
0.00287497
0.00118641
0.00108398
0.00240698
0.000647475
0.000649248
0.00186459
0.000222486
0.000199884
0.00129233
-0.000175213
0.000117783
0.00124826
-0.00070824
0.000596804
0.00190205
-0.00128167
0.00106916
0.00255695
-0.00176554
0.00131397
0.00307183
-0.00212575
0.00111422
0.00339927
-0.00234156
0.000220458
0.00346246
-0.00248124
-0.00124257
0.00310461
-0.00233863
-0.00309565
0.00229876
-0.00162584
-0.00488881
0.000808211
-0.0071888
-0.00127168
0.0012716
-0.00720669
-0.00197924
0.00180321
-0.00453525
0.000239451
0.00182182
-0.00258388
0.00182182
0.0016521
-0.000793767
0.00266853
0.00149513
0.000534679
0.0030268
0.0013658
0.00116093
0.00303422
0.00116978
0.00123519
0.00284637
0.000900178
0.00104412
0.00257143
0.000586881
0.000804927
0.00228404
0.000233594
0.000610669
0.0019549
-0.000151765
0.000589964
0.00183089
-0.000503706
0.000782723
0.00209488
-0.000797576
0.00100793
0.00238947
-0.00105862
0.0010977
0.0026836
-0.00131602
0.000874702
0.00285266
-0.00163386
0.000135381
0.0027666
-0.00186507
-0.00125637
0.00231513
-0.00186222
-0.00299794
0.00141718
-0.00129964
-0.00485958
-0.000181036
-0.00765284
-0.00231519
0.000538824
-0.00684111
-0.00299503
0.000820381
-0.00419049
-0.00083778
0.000668395
-0.00227992
0.000668395
0.000528983
-0.000922794
0.001506
0.000570741
-9.29715e-05
0.00197039
0.000575101
0.000479145
0.00203227
0.000556963
0.000572166
0.00189599
0.000500427
0.000456632
0.00169183
0.000416986
0.000324161
0.00151289
0.000123063
0.000478289
0.00136816
-0.000201999
0.00052485
0.00121782
-0.000348828
0.000394595
0.00116733
-0.000439939
0.000468785
0.00125382
-0.000489887
0.000473915
0.00142516
-0.000480463
0.00023275
0.00153611
-0.0005163
-0.000282974
0.0013635
-0.000718699
-0.00116447
0.000923503
-0.000832999
-0.00251449
8.74282e-05
-0.000523932
-0.00443657
-0.00129614
-0.00715371
-0.00330523
-0.0009126
-0.00492378
-0.00423489
-0.00134289
-0.00304917
-0.00269048
-0.00154767
-0.00187038
-0.00154767
-0.00152009
-0.00120118
-0.000946245
-0.00123845
-0.000761462
-0.000917235
-0.000748662
-0.000465899
-0.00095459
-0.000308815
-0.000314228
-0.00113699
-3.67649e-05
-0.000170553
-0.0013679
3.81979e-05
3.78859e-06
-0.00145886
-5.33702e-06
0.000367247
-0.00137527
-6.59064e-05
0.000438765
-0.00151909
2.41583e-05
0.000104844
-0.0018655
0.000337867
-9.53085e-05
-0.00196624
0.000807684
-0.000287154
-0.00188296
0.0012601
-0.000509619
-0.00175879
0.00154299
-0.000802261
-0.00163194
0.00157665
-0.0012531
-0.00167101
0.00138032
-0.00194285
-0.00218743
0.000949448
-0.00315206
-0.00319244
-0.00508602
-0.00454833
-0.00391172
-0.00607497
-0.00598816
-0.00623356
-0.00692337
-0.00692337
-0.0071629
-0.00782262
-0.00691995
-0.00878422
-0.00629573
-0.00979293
-0.00535817
-0.0107985
-0.00407961
-0.0116703
-0.00242924
-0.0122113
-0.000296835
-0.0120448
0.0019013
-0.0121381
0.00366729
-0.0124379
0.00506532
-0.0120046
0.00610576
-0.0112227
0.00679375
-0.0103024
0.00710408
-0.0093475
0.00692238
-0.00841169
0.00603129
-0.007508
0.00396702
-0.00674858
-0.00643188
-0.000722907
0.00131955
-0.00412065
-0.00141536
0.000964608
-0.00346045
-0.00182568
0.000496858
-0.0027234
-0.00192679
0.000202233
-0.00192679
-0.00185535
1.94266e-05
-0.00119613
-0.00158223
-0.000251923
-0.000513522
-0.00118329
-0.000501301
1.23557e-05
-0.000764225
-0.000630001
0.000369595
-0.000379651
-0.000699283
0.000632207
-0.000116619
-0.000668051
0.000839262
7.55326e-05
-0.000625812
0.000931713
0.000314735
-0.000618369
0.000927401
0.000621602
-0.0005953
0.000775388
0.000924487
-0.000525241
0.0005041
0.00131628
-0.000554487
0.000193279
0.00150114
-0.000324345
-0.000314286
0.0013183
0.000180775
-0.000892778
0.00100338
0.000434081
-0.00133375
0.00057729
0.000615736
-0.00173369
0.000756297
-0.00221983
0.000929734
0.00192366
0.00121592
0.00125482
0.00175011
0.00133603
0.00102159
0.00152737
0.000967324
0.000444951
0.00135546
0.000444951
-0.000246198
0.00109512
8.75849e-05
-0.0007295
0.000423829
-5.64688e-05
-0.000915914
-0.000367017
-0.000119897
-0.000761733
-0.000998673
2.88697e-05
-0.00052581
-0.00130402
0.000107268
-0.000202855
-0.00146326
0.000135323
0.000141656
-0.00146358
0.000239056
0.000468372
-0.00134145
0.000385195
0.000747859
-0.00114172
0.000384282
0.000877383
-0.000811925
0.000217035
0.000442636
-9.66754e-05
6.69669e-05
-0.000245845
0.000683895
0.000288698
-0.000950302
0.00144325
0.000690011
-0.0012296
0.00156375
0.00136761
-0.000884326
0.0014181
0.00193508
0.00131865
0.00195783
0.00157762
0.000972936
0.00401888
0.00264788
0.0012427
0.00407904
0.00304202
0.00153632
0.00359265
0.00282129
0.00179686
0.00282129
0.00228849
0.00172504
0.0020831
0.00156114
0.00120175
0.00148705
0.000784119
0.000422167
0.000933628
0.00021343
-0.000616993
0.000454645
-3.04347e-05
-0.00147013
0.000148985
-6.63195e-05
-0.00194727
-6.49545e-05
-3.03818e-05
-0.00200228
4.45082e-05
-0.000127873
-0.00161108
0.00040729
-0.000514687
-0.000915159
0.000692353
-0.00136339
6.32625e-05
0.000960204
-0.00232638
0.00100407
0.00155687
-0.00290704
0.00143414
0.0023503
-0.00292089
0.00163355
0.00313809
-0.00241399
0.00138581
0.00386926
-0.00143658
0.000871098
0.0043171
0.000367119
0.00424743
0.00173064
-0.00116213
0.00339645
0.00291149
-0.000185148
0.00412731
0.0036532
0.000606673
0.00425895
0.00385615
0.00139093
0.00385615
0.00358046
0.00179204
0.00324162
0.00300169
0.00158985
0.00261693
0.00230396
0.000916583
0.00202801
0.00143377
3.76708e-06
0.00137926
0.000632337
-0.00106338
0.000707909
5.31111e-05
-0.00185187
0.000145153
-0.000473335
-0.00190884
0.00023737
-0.00124568
-0.00113209
0.00095412
-0.00223972
-7.28728e-05
0.00169275
-0.0031289
0.000848434
0.00242537
-0.00362601
0.00133482
0.00303225
-0.00380682
0.00141732
0.00366165
-0.00346197
0.00103434
0.00424985
-0.0026791
0.000259326
0.00454462
-0.001616
-0.000577989
0.00425303
-0.00173133
0.00336604
0.00197556
-0.00330377
0.000770028
0.00294184
-0.00137636
0.00251752
0.00355209
-0.000267045
0.00355037
0.00384578
0.000803547
0.00384578
0.00376511
0.00157898
0.00365846
0.00335538
0.00172523
0.00325288
0.00273019
0.00127641
0.00275236
0.00194682
0.000508415
0.00216018
0.0010054
-0.000407462
0.0013597
0.000133993
-0.00126862
0.00058892
-0.00071968
-0.00131518
0.00062406
-0.00169601
-0.000397034
0.00157226
-0.00257885
0.000576214
0.00253791
-0.00322087
0.00123351
0.00321139
-0.0036268
0.00147024
0.00368993
-0.0036998
0.00118041
0.00404224
-0.00342692
0.000396455
0.00411149
-0.00289651
-0.000623107
0.00362185
-0.00201831
-0.00173055
0.00239688
-0.00382758
0.000419969
0.00191475
-0.00502703
-0.0011126
0.00279919
-0.00211192
0.00100238
0.00319643
-0.000654295
0.00252103
0.00332859
0.000539234
0.00332859
0.00326508
0.00144459
0.0035818
0.00297072
0.00178115
0.0034634
0.00245035
0.00154029
0.00313148
0.00175187
0.000965025
0.00264887
0.000975755
0.000234037
0.00199922
0.000167941
-0.000423625
0.00125518
-0.000639505
-0.000466439
0.00120699
-0.00143363
0.000250957
0.00204821
-0.00215509
0.00102779
0.00282686
-0.00271274
0.00150438
0.00335863
-0.00307588
0.00157181
0.00366085
-0.00323233
0.00112082
0.0036785
-0.00319205
0.000203754
0.00325704
-0.00287158
-0.000898042
0.00225322
-0.00198554
-0.00236727
0.000558884
-0.00549331
-0.00159151
0.00150793
-0.00619779
-0.00231643
0.00235935
-0.00270988
-1.4032e-05
0.00266853
-0.000793768
0.0016521
0.00263819
0.000599925
0.00263819
0.00255479
0.00140478
0.00315001
0.00239347
0.00171108
0.00326562
0.00210226
0.00154778
0.00313009
0.00164511
0.00115326
0.00284036
0.000973644
0.000741626
0.00244794
0.000173297
0.000434512
0.00189713
-0.00067123
0.000440127
0.00176887
-0.001407
0.000804885
0.00227675
-0.00190414
0.00122197
0.00269243
-0.00224727
0.00153751
0.00299361
-0.00248905
0.00158018
0.00308609
-0.00266105
0.00119953
0.0028599
-0.00276137
0.000413496
0.0022057
-0.00244812
-0.000928715
0.00113459
-0.00153612
-0.00290484
-0.000555477
-0.00657674
-0.0027679
0.000579792
-0.00636143
-0.00341122
0.00123757
-0.0030732
-0.00113226
0.001506
-0.000922794
0.000528983
0.00160205
0.000407825
0.00160205
0.00161749
0.00122236
0.00213738
0.00162128
0.00142417
0.0023154
0.00153944
0.00127326
0.00225236
0.00130286
0.00102611
0.00205556
0.000869538
0.000865606
0.00182225
8.74337e-05
0.00100916
0.00157562
-0.000752593
0.00109201
0.00140597
-0.00126753
0.00101721
0.00146995
-0.00154912
0.00114351
0.00161388
-0.0016518
0.00130327
0.00176208
-0.00166343
0.00135553
0.0017724
-0.00169338
0.00108466
0.00150831
-0.00156333
0.000286928
0.000920019
-0.00127275
-0.000987926
-0.000143955
-0.000547215
-0.00320495
-0.00172159
-0.00660915
-0.00382006
-0.0010542
-0.00489811
-0.00464405
-0.00119702
-0.00262749
-0.0029934
-0.000946246
-0.00120118
-0.00152009
-0.000604241
-0.0002762
-0.00060424
-0.000205286
0.000239555
-0.000333398
0.00019115
0.000405883
-0.000332746
0.000441081
0.000465575
-0.000579241
0.000468147
0.000555155
-0.00092402
0.000302174
0.000760148
-0.00118744
-5.24431e-05
0.00122804
-0.00123953
-0.000429495
0.00133449
-0.00138452
-0.000562586
0.000884947
-0.00160015
-0.000488494
0.000663136
-0.00155997
-0.000234796
0.000534935
-0.00136833
0.000138732
0.000432366
-0.00120917
0.000581912
0.000242183
-0.00123266
0.000975533
-0.000251475
-0.00152624
0.00125192
-0.00118485
-0.00226691
0.00110915
-0.00265835
-0.00359629
-0.00500982
-0.00503855
-0.00455429
-0.00641883
-0.00686092
-0.00655447
-0.00782262
-0.0071629
-0.00796074
-0.00796074
-0.00761217
-0.00889328
-0.00697373
-0.0100255
-0.00604895
-0.0112578
-0.00473567
-0.0124285
-0.00291307
-0.0132738
-0.000365217
-0.0133647
0.00228775
-0.0134566
0.00424417
-0.0135094
0.0056806
-0.012778
0.00670854
-0.0117157
0.00741955
-0.010581
0.00782821
-0.00951401
0.00776243
-0.00859742
0.00687735
-0.0078078
0.00460295
-0.00713257
-0.00683879
-0.000469546
0.000196156
-0.00384721
-0.000857199
0.000140349
-0.00321311
-0.00110526
7.2909e-05
-0.00254823
-0.00119613
1.94266e-05
-0.00185535
-0.0011571
-7.80812e-05
-0.0011571
-0.000960222
-0.000268824
-0.000441587
-0.000685947
-0.000434064
0.00017217
-0.000360092
-0.000629395
0.000673202
-0.000117317
-0.000718188
0.0011077
-4.74902e-05
-0.000679546
0.00144905
-6.05541e-05
-0.000622807
0.00156764
5.08973e-05
-0.000601751
0.00141776
0.000275077
-0.000579339
0.0011306
0.000521387
-0.000495299
0.000753131
0.000755167
-0.000414897
0.000374418
0.000950592
-0.00040431
-0.000105395
0.000881945
-0.000133495
-0.00069065
0.000645968
9.24443e-05
-0.00119023
0.000351567
0.000161898
-0.00160119
0.000162939
-0.00203119
0.000614584
0.001562
-0.000764554
0.000687623
0.00142454
-2.12447e-05
0.000472157
0.00129267
-3.70084e-05
8.75853e-05
0.00109512
-0.000246198
-0.000307002
0.000711075
-0.000307003
-0.000521873
9.58586e-05
-0.000206284
-0.000569928
-0.000507099
1.22067e-06
-0.000464268
-0.00102401
0.000317869
-0.000328105
-0.00133351
0.000586486
-0.000137173
-0.00148349
0.000748402
6.60065e-05
-0.00145609
0.000869221
0.000290829
-0.00133451
0.000893195
0.000505122
-0.00115238
0.000743084
0.000673026
-0.000916713
0.000470587
0.000548369
-0.00038556
0.000162314
0.000209801
0.00015656
6.64093e-05
-0.000240509
0.00083175
0.00017507
-0.000519019
0.00128966
0.000448888
-0.00048318
0.00142469
0.000636419
0.00149073
0.00014682
0.00115329
0.00165327
0.00277426
0.00188161
0.0017407
0.0030345
0.00218026
0.00179192
0.00279469
0.0020831
0.00172504
0.00228849
0.00173336
0.00141051
0.00173336
0.00120994
0.000853855
0.00125246
0.000680078
9.08594e-05
0.000865529
0.000278696
-0.000838889
0.000670936
6.45545e-05
-0.00157444
0.000604103
-2.79002e-05
-0.00199898
0.000543033
-5.2897e-05
-0.00202659
0.000640062
-0.000120864
-0.00169854
0.000839336
-0.000324418
-0.00116306
0.000906625
-0.000865463
-0.000378357
0.000962917
-0.00150564
0.000538213
0.00127328
-0.00202549
0.0011488
0.0018779
-0.00210039
0.00150515
0.00253956
-0.00174382
0.00168304
0.00311928
-0.00105226
0.00165396
0.00339626
0.00152331
0.00316258
0.00152643
0.000298746
0.00322452
0.00244199
0.00119538
0.00375705
0.00303295
0.00157945
0.00388043
0.00324162
0.00179204
0.00358046
0.00307436
0.00174502
0.00307436
0.00265723
0.0013406
0.00254731
0.00207081
0.000641346
0.00206395
0.00133379
-0.000274368
0.00155177
0.000637796
-0.0012658
0.00109529
7.85779e-05
-0.00199395
0.00069938
-0.000426659
-0.00204281
0.000758863
-0.00105571
-0.00138331
0.00126798
-0.00184474
-0.000449799
0.00176855
-0.00259531
0.000484301
0.0023133
-0.00305176