/*--------------------------------*- C++ -*----------------------------------*\
  =========                 |
  \\      /  F ield         | OpenFOAM: The Open Source CFD Toolbox
   \\    /   O peration     | Website:  https://openfoam.org
    \\  /    A nd           | Version:  9
     \\/     M anipulation  |
\*---------------------------------------------------------------------------*/
FoamFile
{
    format      ascii;
    class       volVectorField;
    location    "950";
    object      U;
}
// * * * * * * * * * * * * * * * * * * * * * * * * * * * * * * * * * * * * * //

dimensions      [0 1 -1 0 0 0 0];

internalField   nonuniform List<vector> 
4000
(
(0.00351912 -0.00407295 0.00351912)
(0.00231049 0.00706635 0.0023105)
(-0.00886829 0.00900803 -0.000435594)
(-0.0149249 0.0010617 -0.000983679)
(-0.0142687 -0.00301969 -0.000682268)
(-0.0120888 -0.00284948 -0.000304327)
(-0.00970771 -0.0020169 -0.000270167)
(-0.0069819 -0.00204588 -0.000132284)
(-0.00444446 -0.00233021 -4.36527e-05)
(-0.00188794 -0.00233749 1.16816e-05)
(0.000685144 -0.00206542 4.45003e-06)
(0.00294361 -0.00157801 0.000112557)
(0.00450352 -0.00111851 0.000191062)
(0.0058524 -0.000969985 7.24287e-05)
(0.00823257 -0.00252387 -1.28844e-05)
(0.0099655 -0.00302318 -0.000364104)
(0.00920015 -0.000365358 -0.000625541)
(0.00750086 0.00476201 -0.000316993)
(0.00296554 0.0123337 0.000681895)
(-0.00200756 0.00892933 0.0027892)
(0.00342742 -0.013024 0.00342742)
(0.00979141 0.00453024 0.00407527)
(0.00959863 0.0120061 0.00335259)
(0.0074013 0.00850166 0.00242198)
(0.00250505 0.00480102 0.0017977)
(-0.00714147 -0.000294246 0.000436633)
(-0.00878237 -0.00315748 -0.000678392)
(-0.0068563 -0.00349879 -0.000891746)
(-0.00448993 -0.00349469 -0.00136254)
(-0.00197712 -0.00349322 -0.00162492)
(0.000798037 -0.0032982 -0.00159903)
(0.00330749 -0.00320032 -0.00101433)
(0.00503596 -0.00305227 -0.000385995)
(0.00530054 -0.00291754 -0.000192512)
(0.00574306 -0.00255588 0.000131297)
(-0.00424406 0.00593949 0.00205072)
(-0.0109204 0.00650247 0.00324603)
(-0.0143701 0.00387364 0.00476779)
(-0.0117106 -0.00056079 0.00573029)
(-0.00573813 -0.0102055 0.00555045)
(0.00258196 -0.0263623 0.00258196)
(0.00877206 -0.0114513 0.00372423)
(0.0146115 0.00216584 0.0041382)
(0.0159149 0.00588101 0.00361793)
(0.0127561 0.00631818 0.0028537)
(0.00712512 0.00463668 0.00204156)
(0.00298803 0.00174444 0.00149478)
(-0.00324961 -0.00396094 -0.000630379)
(-0.00198777 -0.00404567 -0.00161421)
(-0.000735368 -0.00356571 -0.00206999)
(0.0012569 -0.00299907 -0.00180689)
(0.00192127 -0.00271313 -0.000716037)
(0.000750283 -0.0018982 0.0006921)
(-0.00455856 0.00164492 0.00181843)
(-0.010876 0.00514187 0.00258898)
(-0.0137415 0.00613901 0.00327146)
(-0.0156253 0.00260895 0.00403044)
(-0.0134393 -0.00689937 0.0044608)
(-0.00956061 -0.0169514 0.00458071)
(-0.00351152 -0.0273962 0.00362288)
(0.00153127 -0.034876 0.00153127)
(0.00523306 -0.0217909 0.00286282)
(0.007974 -0.00907987 0.00369577)
(0.0114228 -0.000178237 0.00394296)
(0.0124672 0.00469177 0.00372478)
(0.0103818 0.00486923 0.00331511)
(0.00774638 0.00325752 0.00272632)
(0.00492884 0.00165519 0.00177615)
(0.00117488 -0.000241536 0.000605222)
(0.000104313 -0.000880516 -0.000278858)
(0.000573214 -0.000549151 0.000190154)
(-0.000286393 5.97027e-05 0.00143741)
(-0.00349456 0.00163846 0.00299532)
(-0.00714542 0.00295388 0.00401579)
(-0.00968676 0.00296207 0.00431865)
(-0.00994795 0.000932235 0.00441506)
(-0.00814046 -0.00519855 0.00412256)
(-0.00615699 -0.0150741 0.00360816)
(-0.00511024 -0.0264682 0.00309217)
(-0.00177174 -0.0373438 0.00186977)
(0.00061875 -0.0397374 0.000618751)
(0.00229704 -0.0279735 0.00221792)
(0.00131659 -0.0161927 0.00314049)
(0.00241634 -0.00794295 0.00402065)
(0.00290261 -0.00269435 0.00469096)
(0.00379683 -0.000208429 0.00469714)
(0.00320956 -0.00013542 0.0043304)
(0.00221336 -0.00030607 0.00377636)
(0.00119589 -0.000381555 0.00326549)
(0.00047326 -0.00106667 0.00299505)
(0.000647259 -0.00187784 0.00289003)
(0.000747186 -0.00214393 0.00302542)
(0.00058062 -0.00227876 0.00348273)
(0.000295231 -0.00268182 0.00418739)
(5.78677e-05 -0.00414377 0.00466298)
(9.33712e-05 -0.00706145 0.00446433)
(-0.000126742 -0.012414 0.00364084)
(8.72711e-07 -0.0210615 0.00287146)
(-0.00197501 -0.0319302 0.00217794)
(-0.000642774 -0.04242 0.000706109)
(-0.00018646 -0.0413885 -0.000186459)
(9.67279e-06 -0.031022 0.00153578)
(-0.00319498 -0.0214262 0.00218263)
(-0.00361605 -0.014985 0.00276015)
(-0.00397639 -0.0110379 0.00309884)
(-0.00354488 -0.00906222 0.00315175)
(-0.00287028 -0.00797996 0.00295625)
(-0.00199218 -0.00716177 0.00272427)
(-0.000798689 -0.00692384 0.00256071)
(8.9067e-05 -0.00751249 0.0024571)
(0.00101177 -0.00841864 0.00208463)
(0.00200084 -0.00904649 0.00179156)
(0.00334684 -0.00962637 0.00177667)
(0.00452473 -0.0105721 0.00200193)
(0.00534297 -0.0121617 0.00225953)
(0.00563013 -0.0146729 0.00232814)
(0.00502287 -0.0188263 0.00215552)
(0.00407492 -0.0251811 0.00179677)
(0.000335181 -0.0342624 0.00139119)
(0.000255184 -0.0438431 -0.000179486)
(-0.00114824 -0.0400196 -0.00114824)
(-0.00199292 -0.0319048 0.000532407)
(-0.0063882 -0.024811 0.000581902)
(-0.00768547 -0.0204701 0.000515576)
(-0.00824396 -0.0179818 0.000251345)
(-0.00771409 -0.0167358 -7.2875e-05)
(-0.0064769 -0.0161424 -0.000408499)
(-0.00467232 -0.0157604 -0.00064726)
(-0.0023901 -0.0155382 -0.000703248)
(-0.00069502 -0.0156273 -0.000548716)
(0.00103706 -0.0162283 -0.000896384)
(0.00273401 -0.016877 -0.00132157)
(0.00508351 -0.0175008 -0.00140015)
(0.00713598 -0.0182896 -0.00118501)
(0.00862671 -0.0193569 -0.000851935)
(0.0092301 -0.0208947 -0.000471201)
(0.00856414 -0.0234652 -8.7782e-05)
(0.00698713 -0.0277253 0.00015962)
(0.0023312 -0.0344851 0.000333417)
(0.00129868 -0.0421213 -0.00116594)
(-0.00256731 -0.0353117 -0.00256731)
(-0.00433719 -0.0295389 -0.00119187)
(-0.00955727 -0.0251611 -0.00176343)
(-0.0114354 -0.0229902 -0.00242894)
(-0.012034 -0.0220487 -0.00318406)
(-0.0112539 -0.0218216 -0.00389337)
(-0.00946083 -0.0218459 -0.00449532)
(-0.00688853 -0.0218365 -0.00490361)
(-0.00375863 -0.0217195 -0.00500975)
(-0.00154245 -0.0215615 -0.00467834)
(0.000936256 -0.0218448 -0.00498033)
(0.00326899 -0.0222948 -0.00538863)
(0.00655525 -0.0226929 -0.00534379)
(0.00941641 -0.0230706 -0.0049872)
(0.0115556 -0.0234962 -0.00447186)
(0.0125466 -0.0240001 -0.00378455)
(0.0119929 -0.0250621 -0.00298024)
(0.0100115 -0.0272188 -0.00220299)
(0.0047035 -0.031415 -0.00146252)
(0.00280982 -0.036967 -0.00261691)
(-0.00500705 -0.0265001 -0.00500705)
(-0.00805452 -0.0227087 -0.00439093)
(-0.0136782 -0.0206974 -0.00536409)
(-0.0157594 -0.0202081 -0.00648027)
(-0.0161781 -0.0203655 -0.0075815)
(-0.0150181 -0.0208438 -0.00855934)
(-0.0126337 -0.0213487 -0.00938521)
(-0.00929686 -0.0216922 -0.00994929)
(-0.00531013 -0.0217764 -0.0100462)
(-0.00246266 -0.0216175 -0.00941874)
(0.00107707 -0.021639 -0.00973086)
(0.00420475 -0.0220331 -0.0105582)
(0.00850831 -0.0221219 -0.0105291)
(0.0121813 -0.0219455 -0.0100352)
(0.014896 -0.0216242 -0.00927406)
(0.0163191 -0.0213308 -0.00829141)
(0.0160628 -0.0213157 -0.00713877)
(0.0140556 -0.02187 -0.00593841)
(0.00846321 -0.0238506 -0.00483666)
(0.00531985 -0.0276318 -0.00514497)
(-0.00892145 -0.0165181 -0.00892145)
(-0.0143434 -0.0131208 -0.0100765)
(-0.020007 -0.0115515 -0.0121823)
(-0.0220112 -0.0110587 -0.0142551)
(-0.0221576 -0.0108791 -0.0162912)
(-0.0206266 -0.0107689 -0.0182088)
(-0.0176734 -0.010546 -0.0198961)
(-0.0134568 -0.0101129 -0.0211909)
(-0.00823571 -0.00945745 -0.0217481)
(-0.00403347 -0.008817 -0.0208474)
(0.00201839 -0.00862324 -0.021261)
(0.00673021 -0.00934442 -0.0223833)
(0.0124077 -0.0100898 -0.0218826)
(0.0170397 -0.0106254 -0.0206463)
(0.0203746 -0.0109685 -0.0190206)
(0.0222286 -0.0112074 -0.0171574)
(0.0223277 -0.0114981 -0.01513)
(0.0204862 -0.0120682 -0.0130016)
(0.0148961 -0.0136825 -0.0107322)
(0.00933199 -0.017144 -0.00919868)
(0.0023105 0.00706635 0.00231049)
(-0.00164866 0.0109539 -0.00164866)
(-0.00945537 0.00630471 -0.00491591)
(-0.0123477 -0.000143247 -0.0037988)
(-0.0119279 -0.00301827 -0.00234871)
(-0.0102492 -0.00287571 -0.00102914)
(-0.00814671 -0.00197242 -0.000448815)
(-0.00591085 -0.00180661 -5.94073e-05)
(-0.00379352 -0.00184643 0.00017326)
(-0.00169017 -0.00171377 0.000333808)
(0.000307847 -0.00146836 0.00037542)
(0.00208262 -0.0012324 0.000539742)
(0.00355533 -0.00109869 0.000545304)
(0.00491463 -0.00110839 0.0001775)
(0.00693042 -0.00241851 -0.00020536)
(0.00853524 -0.00324545 -0.00128785)
(0.00792213 -0.00162322 -0.002024)
(0.00645361 0.00155578 -0.00208156)
(0.00449325 0.00756462 -0.00219422)
(0.000817341 0.012441 -0.00126047)
(0.00407527 0.00453024 0.00979141)
(0.00823279 0.0125336 0.00823279)
(0.0086146 0.0114023 0.00584203)
(0.00726994 0.00732268 0.00384277)
(0.00324864 0.00432232 0.0024056)
(-0.00328932 0.000649128 0.00101384)
(-0.00601176 -0.00300819 -0.00070608)
(-0.00510979 -0.00353503 -0.00108807)
(-0.00370718 -0.00376524 -0.00187388)
(-0.00181218 -0.00376292 -0.00233832)
(0.00026024 -0.00375451 -0.00226701)
(0.00213968 -0.00377929 -0.00140487)
(0.00351845 -0.00355799 -0.000565333)
(0.00385836 -0.00316516 -0.000378024)
(0.00342945 -0.00225074 0.000358359)
(-0.00411257 0.00502491 0.00271317)
(-0.00921751 0.00646943 0.0048327)
(-0.012238 0.00565093 0.00798794)
(-0.0102819 0.0043296 0.0106333)
(-0.00533531 0.00315991 0.0114756)
(0.00372423 -0.0114513 0.00877206)
(0.0102339 -0.00235832 0.0102339)
(0.0150483 0.0043716 0.0095281)
(0.0159194 0.0059967 0.00749488)
(0.0130636 0.00613877 0.00538811)
(0.00843706 0.0046335 0.00367647)
(0.00496897 0.00166169 0.00235042)
(0.000191359 -0.00282975 -7.2038e-05)
(-0.000945398 -0.00487706 -0.00234225)
(-0.000609118 -0.00517227 -0.00326472)
(0.000363241 -0.00509887 -0.00289963)
(0.00044155 -0.00454182 -0.00117875)
(-0.00107892 -0.00295288 0.000926934)
(-0.00536828 0.000906711 0.00268337)
(-0.0111027 0.00472296 0.00437503)
(-0.0138265 0.00629917 0.00607012)
(-0.0156374 0.00445523 0.00805902)
(-0.0143031 -0.00191626 0.0100479)
(-0.0103338 -0.00920383 0.0112104)
(-0.00445302 -0.0145948 0.0106139)
(0.00286282 -0.0217909 0.00523306)
(0.00793595 -0.0142494 0.00793595)
(0.0114364 -0.00581598 0.0089188)
(0.0144132 0.00166258 0.00822606)
(0.014316 0.00544545 0.0069544)
(0.0120181 0.00545996 0.00564553)
(0.00927927 0.00344026 0.00420714)
(0.00647213 0.000825751 0.00225429)
(0.00286998 -0.00230783 -0.000266438)
(0.000545982 -0.00403045 -0.00182795)
(-0.000264047 -0.00388187 -0.00105042)
(-0.002381 -0.00183293 0.0014784)
(-0.00627147 0.00120129 0.00415134)
(-0.00970386 0.00353969 0.0060008)
(-0.0123876 0.00434704 0.00703598)
(-0.0135389 0.00330285 0.00803411)
(-0.0124358 -0.00162739 0.00887859)
(-0.0100663 -0.0100083 0.00909653)
(-0.00768083 -0.0183981 0.00825101)
(-0.00305915 -0.0246028 0.00586196)
(0.00221792 -0.0279735 0.00229704)
(0.00627822 -0.0207956 0.00627823)
(0.00699787 -0.0116059 0.00834498)
(0.00816991 -0.00318141 0.00902037)
(0.00913881 0.00275764 0.00872563)
(0.00870694 0.00452435 0.00789295)
(0.00721205 0.00369013 0.00681499)
(0.00529681 0.00225898 0.00552491)
(0.00322691 0.00103647 0.00423836)
(0.0013865 -0.000314371 0.00306504)
(0.000317863 -0.000573124 0.00341318)
(-0.00136159 0.000709041 0.00507609)
(-0.00342658 0.00222623 0.00679387)
(-0.0054002 0.00311008 0.00819454)
(-0.00675985 0.00260836 0.00918651)
(-0.00695221 -0.000354468 0.00965694)
(-0.0067892 -0.00661815 0.0092425)
(-0.00627526 -0.0154531 0.00828251)
(-0.00622572 -0.0241503 0.00616556)
(-0.00230014 -0.0305774 0.00225757)
(0.00153578 -0.031022 9.67427e-06)
(0.00522111 -0.0239102 0.00522111)
(0.0038037 -0.014835 0.00797314)
(0.00367106 -0.00636083 0.00928213)
(0.00329952 -0.000321792 0.00984007)
(0.00362681 0.00255759 0.00956386)
(0.00309711 0.00294215 0.00888241)
(0.00223421 0.00274642 0.00813333)
(0.00146398 0.00243254 0.00758705)
(0.000982658 0.00172606 0.00733879)
(0.00088327 0.00138016 0.00728669)
(0.000457708 0.0017535 0.00761213)
(-0.000266185 0.00225326 0.00826879)
(-0.00105739 0.00209232 0.00912811)
(-0.00148118 0.000544068 0.00974629)
(-0.00190724 -0.00316332 0.00972762)
(-0.00297466 -0.00948606 0.00901531)
(-0.00358834 -0.0180144 0.00761398)
(-0.00536611 -0.026582 0.00483208)
(-0.00159994 -0.0332614 -0.000330216)
(0.000532407 -0.0319048 -0.00199292)
(0.00410117 -0.0245156 0.00410118)
(0.00100054 -0.016158 0.00701012)
(0.000368652 -0.00875873 0.00837272)
(-0.000413482 -0.00376837 0.00900972)
(-0.000221674 -0.000940759 0.00923558)
(7.03901e-05 0.000246068 0.0091756)
(0.000213868 0.000459443 0.00899552)
(0.000511594 0.000194383 0.00888487)
(0.000670383 -0.000398988 0.00876131)
(0.000807235 -0.000616079 0.00851398)
(0.000866358 -0.000486051 0.00818248)
(0.0012747 -0.000508373 0.0080797)
(0.00157987 -0.00124553 0.00820891)
(0.00157163 -0.00287943 0.00837303)
(0.00114114 -0.00597449 0.00830649)
(-1.87796e-05 -0.0112383 0.00769634)
(-0.000993334 -0.0186408 0.00639112)
(-0.00431026 -0.0265751 0.00350997)
(-0.000539015 -0.0338093 -0.00239309)
(-0.00119187 -0.0295389 -0.00433719)
(0.00173516 -0.0224389 0.00173516)
(-0.00273025 -0.0156228 0.00429347)
(-0.00354344 -0.0105924 0.00508146)
(-0.0041207 -0.00690618 0.00514308)
(-0.00379547 -0.00447552 0.00505933)
(-0.00300757 -0.00293681 0.00486132)
(-0.00200772 -0.00197423 0.0046218)
(-0.000811236 -0.00141602 0.00459071)
(1.76017e-05 -0.00122352 0.00487023)
(0.000802862 -0.00134773 0.00453564)
(0.00147098 -0.00248552 0.00341224)
(0.00269193 -0.0034492 0.00300677)
(0.00374444 -0.00455489 0.00320339)
(0.00434143 -0.00601993 0.00366132)
(0.00447885 -0.00851282 0.00399047)
(0.00375477 -0.0123063 0.00404964)
(0.00274387 -0.0173308 0.00340148)
(-0.0019006 -0.0238197 0.000910082)
(0.00126868 -0.0310423 -0.00473427)
(-0.00439093 -0.0227087 -0.00805452)
(-0.00403975 -0.0172611 -0.00403975)
(-0.00877214 -0.0134573 -0.0026982)
(-0.0100977 -0.0116123 -0.00279472)
(-0.0103781 -0.0107278 -0.0034891)
(-0.00946922 -0.0105336 -0.00426339)
(-0.00779879 -0.0107118 -0.00492959)
(-0.00559373 -0.010994 -0.00527669)
(-0.00311067 -0.0111481 -0.00503184)
(-0.00139725 -0.0107326 -0.00395212)
(0.000924917 -0.0106621 -0.00429099)
(0.00255346 -0.0111338 -0.00589961)
(0.00506659 -0.0110771 -0.00648191)
(0.00741417 -0.0109784 -0.00634774)
(0.00933715 -0.011024 -0.00582005)
(0.0104425 -0.0113983 -0.00502664)
(0.0102287 -0.0124088 -0.00423837)
(0.00889657 -0.0143335 -0.00397617)
(0.00417562 -0.0181669 -0.00501945)
(0.00454235 -0.0237135 -0.00851304)
(-0.0100765 -0.0131208 -0.0143434)
(-0.014987 -0.00820099 -0.014987)
(-0.0206632 -0.00552622 -0.0174113)
(-0.0225068 -0.00416076 -0.0202103)
(-0.0226519 -0.0032507 -0.0230994)
(-0.0212908 -0.002489 -0.0259001)
(-0.0186798 -0.00162871 -0.0283933)
(-0.0148789 -0.000568267 -0.030341)
(-0.00989497 0.000697876 -0.0312758)
(-0.00512479 0.00202613 -0.0303192)
(0.0033215 0.00235765 -0.030698)
(0.00843694 0.0010211 -0.0319929)
(0.0138133 -0.000270468 -0.0312511)
(0.0179964 -0.00138752 -0.0294551)
(0.0209416 -0.00232675 -0.0271027)
(0.0225706 -0.00320373 -0.0244396)
(0.0226222 -0.00423242 -0.0216146)
(0.0209138 -0.00570234 -0.0187715)
(0.0152857 -0.00847827 -0.0161269)
(0.0102989 -0.0135795 -0.0149834)
(-0.000435593 0.00900803 -0.00886829)
(-0.00491591 0.00630471 -0.00945537)
(-0.00829145 0.00131521 -0.00829146)
(-0.0095844 -0.0017353 -0.00567111)
(-0.00937056 -0.00283771 -0.00339369)
(-0.00822164 -0.00241996 -0.00152925)
(-0.00654952 -0.00171719 -0.000415527)
(-0.00469529 -0.00160078 0.000283182)
(-0.00297536 -0.00162026 0.000696399)
(-0.00135771 -0.00140042 0.000987643)
(9.54898e-05 -0.00115997 0.00115746)
(0.00133174 -0.00107238 0.00137958)
(0.00265244 -0.00110268 0.00127448)
(0.00381502 -0.00108135 0.000695681)
(0.00558903 -0.00218052 -6.97364e-05)
(0.00688175 -0.00310167 -0.00161443)
(0.00660392 -0.00245892 -0.00283362)
(0.0053776 -0.000602296 -0.00361727)
(0.00388602 0.0024821 -0.00456123)
(0.00143841 0.00612138 -0.00635485)
(0.00335259 0.0120061 0.00959863)
(0.00584203 0.0114023 0.0086146)
(0.0069029 0.00833006 0.0069029)
(0.00545338 0.0055144 0.00440481)
(0.00205462 0.00355176 0.00235265)
(-0.00226708 0.000586307 0.000886309)
(-0.00445458 -0.0028042 -0.000611758)
(-0.00393972 -0.00348573 -0.000903942)
(-0.00301073 -0.00378794 -0.00141495)
(-0.00162721 -0.00386501 -0.00181975)
(1.39592e-05 -0.00390074 -0.00159508)
(0.00155794 -0.00391277 -0.000640937)
(0.00280194 -0.00367676 6.80699e-05)
(0.00325391 -0.00327034 7.55785e-05)
(0.00319451 -0.00285289 0.000421912)
(-0.00198259 0.00302873 0.00274548)
(-0.00583628 0.00579375 0.00517811)
(-0.00828496 0.00609574 0.00880651)
(-0.00714612 0.006031 0.0120059)
(-0.00385916 0.00667807 0.012977)
(0.0041382 0.00216583 0.0146115)
(0.0095281 0.0043716 0.0150483)
(0.0133656 0.00569072 0.0133656)
(0.013835 0.00615485 0.0103109)
(0.0115038 0.0059798 0.00737724)
(0.00801513 0.00433101 0.00512667)
(0.00506885 0.00129485 0.00321874)
(0.00113063 -0.00284193 0.000625119)
(-0.000306859 -0.00517401 -0.00154424)
(-0.000487688 -0.00601945 -0.00275259)
(4.23737e-05 -0.0061474 -0.00233944)
(2.27071e-05 -0.00542859 -0.000423539)
(-0.00119772 -0.00377052 0.00161114)
(-0.00433449 -0.000239556 0.00347972)
(-0.00964066 0.00399653 0.00590912)
(-0.0120476 0.00602645 0.00836835)
(-0.0134921 0.00607763 0.0110522)
(-0.0125786 0.003433 0.0139526)
(-0.00904535 -0.000820186 0.0158155)
(-0.00423109 -0.00383322 0.0156214)
(0.00369577 -0.00907987 0.007974)
(0.00891881 -0.00581598 0.0114364)
(0.012617 -0.00102411 0.012617)
(0.0149038 0.00373851 0.0115826)
(0.0145509 0.00611036 0.00970533)
(0.0124267 0.00560289 0.00779077)
(0.00976017 0.00327727 0.00581763)
(0.00690225 8.75525e-05 0.00343195)
(0.00336581 -0.00354768 0.000442226)
(0.000838932 -0.00592516 -0.00185385)
(-0.000506257 -0.00609906 -0.00130435)
(-0.00280054 -0.00371577 0.00184335)
(-0.00677993 -2.29795e-05 0.00507338)
(-0.0104271 0.0032278 0.00764992)
(-0.0130353 0.00474833 0.0093409)
(-0.0144306 0.00464779 0.0110826)
(-0.0139191 0.00209163 0.0125169)
(-0.0114142 -0.00352562 0.0128506)
(-0.00833802 -0.00859136 0.0114271)
(-0.00362176 -0.0121567 0.00804252)
(0.00314049 -0.0161927 0.00131659)
(0.00834498 -0.0116059 0.00699787)
(0.0102933 -0.00605227 0.0102933)
(0.0118892 9.7273e-05 0.0113679)
(0.0124683 0.00456682 0.0109221)
(0.0115492 0.00568237 0.00972814)
(0.00962666 0.00426107 0.00814331)
(0.0072354 0.00172578 0.00615524)
(0.00446138 -0.0012703 0.00351072)
(0.0016885 -0.00384438 0.000907735)
(-0.000358442 -0.0039703 0.00117313)
(-0.00314101 -0.00128122 0.00446361)
(-0.00619211 0.00199072 0.00764774)
(-0.00878937 0.00400892 0.00974956)
(-0.0106633 0.00436176 0.0112182)
(-0.011413 0.00234782 0.012073)
(-0.0109069 -0.0024455 0.0117931)
(-0.00979035 -0.00858399 0.0101369)
(-0.00823275 -0.0140228 0.00649434)
(-0.00320295 -0.0188419 0.000713455)
(0.00218263 -0.0214262 -0.00319498)
(0.00797314 -0.014835 0.0038037)
(0.00836744 -0.00855234 0.00836744)
(0.00870547 -0.00196666 0.0106045)
(0.00861854 0.00332253 0.0113169)
(0.00822932 0.00556745 0.0107828)
(0.00698102 0.00514703 0.009593)
(0.00515323 0.00367335 0.00806258)
(0.00311679 0.002144 0.00647725)
(0.0014544 0.000598972 0.00495018)
(0.000189382 0.000411092 0.00472642)
(-0.00145845 0.0021847 0.00645022)
(-0.00351569 0.00392556 0.00841098)
(-0.00546797 0.00489411 0.010136)
(-0.00686805 0.00429215 0.0112461)
(-0.00774079 0.00128037 0.0114202)
(-0.00838513 -0.00424017 0.0101701)
(-0.00839719 -0.0106908 0.00758642)
(-0.00812828 -0.0166516 0.0028187)
(-0.00225524 -0.0235248 -0.00411545)
(0.000581902 -0.024811 -0.0063882)
(0.00701012 -0.016158 0.00100054)
(0.00612391 -0.00927843 0.00612391)
(0.00603628 -0.00287917 0.00891925)
(0.00540076 0.00170687 0.0101766)
(0.00500522 0.00406861 0.0100469)
(0.00446472 0.00412544 0.00929167)
(0.00360362 0.00295089 0.00835645)
(0.00260228 0.00149206 0.00754292)
(0.00147532 0.000283703 0.00683696)
(0.000189298 5.02777e-05 0.00644197)
(-0.00119656 0.00114461 0.00684725)
(-0.00228139 0.00258033 0.00763779)
(-0.0032657 0.00337229 0.00864603)
(-0.00413382 0.00270362 0.00938547)
(-0.00510938 -0.000115689 0.00928124)
(-0.00612624 -0.00471117 0.0076561)
(-0.00637562 -0.0109306 0.00481351)
(-0.00718474 -0.0174151 -0.000259687)
(-0.000556935 -0.0265508 -0.00732611)
(-0.00176343 -0.0251611 -0.00955727)
(0.00429347 -0.0156229 -0.00273025)
(0.00214677 -0.00860539 0.00214677)
(0.00207888 -0.00219411 0.00459575)
(0.00187239 0.0026545 0.00592337)
(0.00201132 0.00498629 0.0059591)
(0.00200473 0.0056842 0.00526694)
(0.00187032 0.00570767 0.00436805)
(0.00170985 0.00551779 0.0036951)
(0.00105911 0.00520859 0.00333683)
(-0.000186453 0.00526336 0.00279979)
(-0.00110938 0.00564594 0.00240417)
(-0.00141133 0.00577879 0.00270281)
(-0.00167087 0.00545571 0.00345445)
(-0.00175897 0.00431875 0.00408712)
(-0.00164608 0.00142134 0.00364619)
(-0.0022283 -0.0035052 0.00260109)
(-0.00231042 -0.00973862 0.000437191)
(-0.00425973 -0.0166035 -0.00409643)
(0.00185583 -0.0264691 -0.0104524)
(-0.00536409 -0.0206974 -0.0136782)
(-0.0026982 -0.0134573 -0.00877214)
(-0.00564185 -0.00850521 -0.00564185)
(-0.0053825 -0.00563621 -0.00448975)
(-0.00491802 -0.00393329 -0.00449383)
(-0.00333232 -0.00321597 -0.00419604)
(-0.00173985 -0.00357093 -0.00445482)
(-0.000501671 -0.00435456 -0.0048636)
(0.000242698 -0.0048659 -0.00480076)
(6.83146e-05 -0.00373669 -0.00456858)
(-0.000102911 -0.00351738 -0.00507877)
(-0.00032542 -0.00458263 -0.00623354)
(0.000503289 -0.00427481 -0.0068667)
(0.00188574 -0.00380246 -0.00697481)
(0.00356679 -0.00376644 -0.00694719)
(0.00492278 -0.00443415 -0.00671877)
(0.00544295 -0.00610924 -0.00659815)
(0.00574497 -0.00901901 -0.00755098)
(0.00286433 -0.0140742 -0.0102777)
(0.00550511 -0.0215045 -0.0145993)
(-0.0121823 -0.0115515 -0.020007)
(-0.0174113 -0.00552622 -0.0206632)
(-0.0231748 -0.00239254 -0.0231748)
(-0.0247471 -0.000702159 -0.026327)
(-0.0245799 0.000510228 -0.0296363)
(-0.0230247 0.00161474 -0.0329574)
(-0.0203637 0.00286173 -0.0361014)
(-0.0165562 0.00436551 -0.0387156)
(-0.011409 0.00614317 -0.0401846)
(-0.00599525 0.00793532 -0.0391937)
(0.00397945 0.00832463 -0.0395077)
(0.00977169 0.00650933 -0.0409318)
(0.015356 0.00476415 -0.0398439)
(0.0195422 0.00322593 -0.037497)
(0.0224936 0.00192448 -0.0345922)
(0.0242672 0.000752499 -0.0314437)
(0.0246306 -0.000548628 -0.0282195)
(0.0232625 -0.00233508 -0.0250394)
(0.0176169 -0.00560086 -0.0222873)
(0.0123679 -0.0118516 -0.0210979)
(-0.000983679 0.0010617 -0.0149249)
(-0.0037988 -0.000143247 -0.0123477)
(-0.00567111 -0.0017353 -0.0095844)
(-0.00663756 -0.00244201 -0.00663756)
(-0.00670179 -0.00240206 -0.00404939)
(-0.00599025 -0.00172848 -0.0017725)
(-0.00479464 -0.00131901 -0.000181817)
(-0.00335957 -0.001447 0.000884546)
(-0.00200544 -0.00157596 0.0015865)
(-0.000886561 -0.00133176 0.00212407)
(-4.38012e-05 -0.00108731 0.0024035)
(0.000616882 -0.00103924 0.00250527)
(0.00170728 -0.00110518 0.00215352)
(0.00266283 -0.00100749 0.00133797)
(0.00396983 -0.0014967 0.000353677)
(0.00488572 -0.00220948 -0.00136207)
(0.00514805 -0.00262132 -0.00320504)
(0.00414009 -0.00204033 -0.00459239)
(0.0028031 -0.000923106 -0.00603353)
(0.000975369 -0.00010139 -0.008003)
(0.00242198 0.00850166 0.0074013)
(0.00384277 0.00732268 0.00726994)
(0.00440481 0.0055144 0.00545338)
(0.00301306 0.00406195 0.00301306)
(0.00046428 0.00262916 0.00116521)
(-0.00213822 -0.000220536 0.000164811)
(-0.00325793 -0.00262006 -0.000524477)
(-0.00291994 -0.00339061 -0.000319729)
(-0.00225878 -0.00381352 -0.000333416)
(-0.00131301 -0.00392302 -0.000447619)
(-0.000142995 -0.00389822 -0.000103567)
(0.00108407 -0.00386029 0.000580689)
(0.0021635 -0.00361665 0.000829381)
(0.00282268 -0.0032551 0.000441906)
(0.00293679 -0.00290447 0.000221268)
(0.000529125 8.50627e-05 0.00157711)
(-0.00244752 0.00413638 0.00364865)
(-0.00432114 0.00546667 0.00671139)
(-0.00397878 0.00581547 0.00947102)
(-0.00244065 0.00612987 0.0102974)
(0.00361793 0.00588101 0.0159149)
(0.00749488 0.0059967 0.0159194)
(0.0103109 0.00615485 0.013835)
(0.0106384 0.00615703 0.0106384)
(0.00903562 0.00544336 0.00766499)
(0.00674145 0.00345619 0.00544324)
(0.00423713 0.000407129 0.00340441)
(0.00129716 -0.00327805 0.00126689)
(0.000139605 -0.00539895 -0.00021324)
(-0.000277041 -0.00640067 -0.00124209)
(-0.000156787 -0.00650244 -0.000811509)
(-0.000123656 -0.00578108 0.000748114)
(-0.000880588 -0.00444324 0.0021251)
(-0.00267602 -0.00180352 0.00341837)
(-0.00700864 0.00249576 0.00595367)
(-0.0093874 0.00494212 0.0088074)
(-0.0103316 0.00630744 0.0115382)
(-0.00960818 0.00602121 0.0145161)
(-0.0068802 0.00461842 0.0165463)
(-0.00343832 0.00359173 0.0167483)
(0.00394296 -0.00017824 0.0114228)
(0.00822606 0.00166257 0.0144132)
(0.0115826 0.0037385 0.0149038)
(0.0133814 0.0058161 0.0133814)
(0.0131863 0.00646453 0.0111519)
(0.0115789 0.00519261 0.00894756)
(0.00930157 0.00265183 0.00680509)
(0.00662722 -0.000759837 0.00441631)
(0.00348273 -0.00440435 0.00177304)
(0.00110924 -0.00687929 -0.000445826)
(-0.000705525 -0.00713657 -3.72974e-05)
(-0.00273085 -0.00491952 0.00277505)
(-0.00609732 -0.00139913 0.00568971)
(-0.00970471 0.0023137 0.00845239)
(-0.0119133 0.00445707 0.0104608)
(-0.0132158 0.00531168 0.0126829)
(-0.0128603 0.00487842 0.0146564)
(-0.0107542 0.0028862 0.0156355)
(-0.00763547 0.000481202 0.0145409)
(-0.00383621 -0.00191407 0.0109447)
(0.00402065 -0.00794295 0.00241634)
(0.00902037 -0.00318141 0.00816991)
(0.0113679 9.7272e-05 0.0118892)
(0.0129688 0.00348212 0.0129688)
(0.0134349 0.00572839 0.0123386)
(0.0125584 0.00575828 0.0109305)
(0.0106897 0.00387387 0.0091521)
(0.00827347 0.000859376 0.00701343)
(0.00519029 -0.00279587 0.00411835)
(0.00205094 -0.0057366 0.00133261)
(-0.00103684 -0.00590225 0.00150328)
(-0.00420505 -0.00287817 0.00496424)
(-0.00764458 0.00090905 0.00844998)
(-0.01027 0.00359819 0.0107929)
(-0.0121116 0.00477882 0.0124819)
(-0.0129149 0.00421719 0.0136645)
(-0.0124511 0.00193897 0.0137757)
(-0.0110835 -0.00130046 0.0119007)
(-0.00904468 -0.00448145 0.00757671)
(-0.00424929 -0.00969044 0.00134889)
(0.00276015 -0.014985 -0.00361605)
(0.00928213 -0.00636083 0.00367106)
(0.0106045 -0.00196666 0.00870547)
(0.01136 0.00203834 0.01136)
(0.0115114 0.00515552 0.0121503)
(0.0109784 0.00620154 0.0116436)
(0.00955389 0.00515968 0.0104022)
(0.00740955 0.00299823 0.00867345)
(0.00477454 0.000434788 0.00649152)
(0.002145 -0.00225503 0.00404333)
(-0.000903562 -0.00241071 0.00387563)
(-0.00365913 0.000602333 0.00664186)
(-0.00633784 0.00337806 0.0092717)
(-0.00861873 0.00510111 0.0111807)
(-0.010183 0.00540709 0.0123245)
(-0.0110073 0.003882 0.0124683)
(-0.0112296 0.000753851 0.0110732)
(-0.0108108 -0.0030027 0.00782377)
(-0.00956307 -0.00741342 0.00233473)
(-0.00290651 -0.0167015 -0.00508525)
(0.000515576 -0.0204701 -0.00768547)
(0.00837272 -0.00875873 0.000368654)
(0.00891925 -0.00287917 0.00603629)
(0.00928531 0.00131473 0.00928532)
(0.00901079 0.00434394 0.0107795)
(0.00862915 0.00558766 0.0109297)
(0.0078754 0.00486542 0.0102796)
(0.00658046 0.00294485 0.00920966)
(0.00466907 0.000668576 0.00795168)
(0.00225518 -0.00133029 0.00637153)
(-0.000981417 -0.00149655 0.00591431)
(-0.0037991 0.000674225 0.00734547)
(-0.00584347 0.00301181 0.008694)
(-0.00727177 0.00463502 0.00983654)
(-0.0082386 0.00486842 0.0103694)
(-0.00897416 0.00333564 0.00986465)
(-0.00955896 0.000362333 0.00794866)
(-0.00932864 -0.00355997 0.00446452)
(-0.00857344 -0.00949575 -0.00128456)
(-0.000468768 -0.0219456 -0.00907233)
(-0.00242894 -0.0229902 -0.0114354)
(0.00508146 -0.0105924 -0.00354343)
(0.00459575 -0.00219411 0.00207889)
(0.00561916 0.00351306 0.00561916)
(0.00559021 0.00628545 0.00727418)
(0.00563972 0.0072927 0.00763224)
(0.00553596 0.00710023 0.00724246)
(0.00501426 0.00643174 0.00653587)
(0.00396151 0.00578835 0.00583823)
(0.00203096 0.00538206 0.00517924)
(-0.00139703 0.00556801 0.00468341)
(-0.00374513 0.00617188 0.00477001)
(-0.00499405 0.00677499 0.00517655)
(-0.00561453 0.00721511 0.00573167)
(-0.00577072 0.00708882 0.00595569)
(-0.00585559 0.00583027 0.00528949)
(-0.00594145 0.00309485 0.00349944)
(-0.00488067 -0.00245002 -4.94377e-05)
(-0.00502484 -0.0111281 -0.00539738)
(0.00258313 -0.0240642 -0.0127067)
(-0.00648027 -0.0202081 -0.0157594)
(-0.00279472 -0.0116123 -0.0100977)
(-0.00448975 -0.00563621 -0.0053825)
(-0.00239169 -0.0019565 -0.00239169)
(-0.00125815 9.58961e-05 -0.00143956)
(2.17442e-05 0.000251987 -0.0016781)
(0.00120336 -0.000700733 -0.00257899)
(0.00166683 -0.00172131 -0.00371384)
(0.00148688 -0.00211926 -0.00446844)
(0.000550747 -0.000811289 -0.00439594)
(-0.000917175 -0.000474163 -0.00489179)
(-0.00191132 -0.00152045 -0.005854)
(-0.00190826 -0.00123623 -0.00579996)
(-0.00134501 -0.000521806 -0.00511406)
(-0.00023775 0.00010065 -0.0044035)
(0.00106925 -0.000225501 -0.00420604)
(0.00245536 -0.00214577 -0.00531314)
(0.00457503 -0.00581069 -0.00784279)
(0.00305555 -0.0119284 -0.0120411)
(0.00666032 -0.0208091 -0.0170136)
(-0.0142551 -0.0110587 -0.0220112)
(-0.0202103 -0.00416076 -0.0225068)
(-0.026327 -0.000702159 -0.0247471)
(-0.0276531 0.00120772 -0.0276531)
(-0.0270479 0.00264855 -0.0307739)
(-0.0253534 0.00396951 -0.034357)
(-0.0227766 0.00551387 -0.0381786)
(-0.0189843 0.00737839 -0.0416496)
(-0.0135012 0.00952229 -0.043928)
(-0.00724746 0.0118233 -0.0437223)
(0.00480873 0.0122868 -0.044026)
(0.0115856 0.00987276 -0.0447273)
(0.0175047 0.00771876 -0.042828)
(0.0216918 0.00586106 -0.0397286)
(0.0245809 0.00430752 -0.0362522)
(0.0265043 0.00296365 -0.032891)
(0.0272903 0.00150924 -0.0298367)
(0.0262575 -0.00045856 -0.0269202)
(0.0203634 -0.00406024 -0.0244366)
(0.0144357 -0.0112139 -0.0233897)
(-0.000682268 -0.00301969 -0.0142687)
(-0.00234871 -0.00301827 -0.0119279)
(-0.00339369 -0.00283771 -0.00937056)
(-0.00404939 -0.00240206 -0.00670179)
(-0.00414296 -0.00171933 -0.00414296)
(-0.00368798 -0.00106494 -0.00166156)
(-0.00283306 -0.000931283 0.000331887)
(-0.00181881 -0.00135939 0.00180665)
(-0.000780857 -0.00160198 0.00295002)
(-0.000238339 -0.00136507 0.00386101)
(-0.000174777 -0.00109312 0.00423684)
(-0.00016847 -0.00102026 0.00402)
(0.000619043 -0.00106121 0.00328015)
(0.00138884 -0.000846348 0.00218273)
(0.00225045 -0.000771797 0.00100192)
(0.00302512 -0.00137894 -0.000747761)
(0.00326851 -0.00196791 -0.00279859)