/*--------------------------------*- C++ -*----------------------------------*\
  =========                 |
  \\      /  F ield         | OpenFOAM: The Open Source CFD Toolbox
   \\    /   O peration     | Website:  https://openfoam.org
    \\  /    A nd           | Version:  9
     \\/     M anipulation  |
\*---------------------------------------------------------------------------*/
FoamFile
{
    format      ascii;
    class       volScalarField;
    location    "0.02";
    object      epsilon;
}
// * * * * * * * * * * * * * * * * * * * * * * * * * * * * * * * * * * * * * //

dimensions      [0 2 -3 0 0 0 0];

internalField   nonuniform List<scalar> 
12225
(
278.485
263.583
249.33
236.734
226.671
219.505
215.249
213.685
214.473
217.219
221.537
227.073
233.53
240.676
248.359
256.503
265.294
278.84
61.0671
86.6306
98.0161
107.427
119.026
133.665
151.336
171.689
194.205
218.322
243.517
269.371
295.606
322.13
349.181
377.247
409.142
445.553
25.2708
36.1703
43.3853
48.6793
53.5486
58.6652
64.351
70.7679
77.9718
85.9504
94.6567
104.036
114.05
124.71
136.121
148.561
162.793
180.131
17.5202
21.2988
24.7256
27.6445
30.2371
32.678
35.0971
37.5901
40.2218
43.0336
46.0525
49.2996
52.7996
56.5926
60.7517
65.4181
70.8545
77.5079
15.4879
16.7538
18.1934
19.6075
20.9468
22.2148
23.4334
24.6299
25.8297
27.0541
28.3211
29.6472
31.0504
32.5549
34.196
36.0321
38.1558
40.6872
14.9087
15.2408
15.7502
16.3434
16.9664
17.5922
18.2099
18.8185
19.4219
20.0261
20.6378
21.2648
21.9161
22.6034
23.3428
24.1581
25.0832
26.1471
14.7453
14.7397
14.8357
15.0077
15.2304
15.4843
15.7559
16.0374
16.3253
16.6184
16.9175
17.2248
17.5437
17.8794
18.239
18.6327
19.0735
19.5666
14.7015
14.5828
14.5121
14.4871
14.5015
14.5471
14.6167
14.7041
14.8053
14.9176
15.0395
15.1709
15.3125
15.4661
15.6347
15.8225
16.0347
16.2706
14.6904
14.5375
14.4071
14.3009
14.2188
14.1589
14.1187
14.0955
14.0869
14.091
14.1064
14.1324
14.1689
14.2162
14.2754
14.3484
14.4369
14.5394
14.6877
14.5254
14.3761
14.2408
14.1198
14.0132
13.9204
13.8406
13.7728
13.7162
13.6701
13.634
13.6076
13.5911
13.5849
13.5897
13.6061
13.633
14.687
14.5224
14.3678
14.2233
14.0888
13.9644
13.8498
13.7447
13.649
13.5622
13.484
13.4144
13.3532
13.3005
13.2564
13.2214
13.1957
13.1787
14.6868
14.5216
14.3658
14.2189
14.0806
13.9507
13.8289
13.715
13.6087
13.5099
13.4184
13.3342
13.2571
13.1874
13.1251
13.0703
13.0234
12.984
14.6867
14.5214
14.3652
14.2176
14.0782
13.9465
13.8222
13.7049
13.5945
13.4907
13.3933
13.3023
13.2177
13.1394
13.0676
13.0023
12.9436
12.8916
14.6867
14.5212
14.3649
14.2172
14.0775
13.9453
13.8203
13.7021
13.5903
13.4847
13.3852
13.2915
13.2037
13.1216
13.0453
12.9747
12.9099
12.8512
14.6866
14.5211
14.3648
14.217
14.0773
13.9451
13.82
13.7017
13.5897
13.4838
13.3837
13.2894
13.2006
13.1172
13.0392
12.9665
12.8989
12.837
14.6866
14.521
14.3647
14.2169
14.0773
13.9452
13.8202
13.7019
13.59
13.4843
13.3843
13.2899
13.201
13.1173
13.0387
12.9651
12.8963
12.8328
14.6865
14.5209
14.3645
14.2168
14.0772
13.9452
13.8204
13.7023
13.5907
13.4851
13.3853
13.2911
13.2022
13.1184
13.0396
12.9655
12.896
12.8316
14.6864
14.5208
14.3644
14.2167
14.0772
13.9453
13.8207
13.7028
13.5914
13.486
13.3865
13.2924
13.2036
13.1199
13.0409
12.9665
12.8965
12.8313
14.6864
14.5207
14.3643
14.2166
14.0772
13.9455
13.8211
13.7034
13.5922
13.4872
13.3878
13.294
13.2053
13.1215
13.0424
12.9678
12.8973
12.8316
14.6863
14.5206
14.3642
14.2167
14.0774
13.9458
13.8216
13.7042
13.5933
13.4884
13.3893
13.2956
13.207
13.1233
13.0442
12.9694
12.8987
12.8327
14.6863
14.5206
14.3643
14.2168
14.0777
13.9464
13.8224
13.7053
13.5947
13.4901
13.3914
13.298
13.2098
13.1263
13.0475
12.9729
12.9025
12.8366
14.6863
14.5206
14.3645
14.2174
14.0788
13.9481
13.8249
13.7088
13.5994
13.4962
13.399
13.3073
13.221
13.1395
13.0627
12.9903
12.922
12.8583
14.6864
14.5212
14.3662
14.221
14.0851
13.9583
13.8401
13.73
13.6274
13.5318
13.4428
13.36
13.2828
13.2109
13.1438
13.0812
13.0227
12.9687
14.6875
14.5263
14.3795
14.2472
14.129
14.0241
13.9314
13.8495
13.7771
13.713
13.656
13.6053
13.5598
13.519
13.4825
13.4496
13.42
13.3938
14.6975
14.5661
14.4702
14.4066
14.3695
14.3533
14.3528
14.3634
14.3821
14.4061
14.4339
14.464
14.4956
14.528
14.5606
14.5931
14.6254
14.6576
14.7734
14.8173
14.9571
15.1533
15.3765
15.6083
15.8379
16.0603
16.2734
16.4769
16.6713
16.8572
17.0356
17.2073
17.3731
17.5338
17.6898
17.841
15.2581
16.1112
17.0606
17.9529
18.7568
19.4791
20.1331
20.7335
21.2937
21.8243
22.3334
22.8271
23.3095
23.7836
24.2512
24.7133
25.1706
25.6211
18.0384
21.9946
24.959
27.1037
28.8135
30.2968
31.6617
32.9742
34.274
35.5828
36.911
38.262
39.6349
41.0262
42.4308
43.8433
45.2583
46.6648
33.9888
45.5994
51.2457
54.7643
57.8351
60.9544
64.2719
67.8268
71.6
75.5473
79.6189
83.7666
87.9469
92.1217
96.2599
100.338
104.344
108.262
163.298
157.39
151.663
146.211
141.24
136.873
133.156
130.083
127.616
125.699
124.269
123.263
122.62
122.284
122.204
122.335
122.639
123.082
68.8738
104.982
121.498
132.59
139.917
144.698
147.755
149.616
150.561
150.661
149.919
149.301
151.327
155.849
163.099
173.426
186.934
203.078
220.097
235.244
246.455
253.368
259.87
279.591
323.169
378.962
444.157
515.503
590.001
665.143
738.994
810.165
877.729
941.119
1000.04
1054.4
1104.23
1149.67
1190.91
1228.17
1261.72
1291.82
1318.75
1342.8
1364.27
1383.47
1400.72
1416.35
1430.72
1444.21
1456.84
1468.08
1478.15
1487.26
1495.57
1503.23
1510.34
1517.01
1523.32
1529.31
1535
1540.37
1545.35
1549.81
1553.58
1556.39
1557.91
1557.72
1555.31
1550.08
1541.37
1528.45
1510.6
1487.12
1457.45
1421.17
1378.14
1328.51
1272.78
1211.77
1146.55
1078.47
1009.01
939.95
873.705
814.319
768.402
733.318
700.715
669.614
639.874
611.479
584.418
558.662
534.163
510.862
488.692
467.585
447.472
428.29
409.979
392.484
375.758
359.76
344.454
329.811
315.81
302.433
289.668
277.51
265.956
255.008
244.671
234.952
225.858
217.398
209.577
202.396
195.855
189.941
184.631
179.879
175.62
171.786
168.328
165.213
162.412
159.899
157.648
155.636
153.837
152.229
150.792
149.507
148.358
147.33
146.412
145.592
144.863
144.215
143.642
143.138
142.696
142.313
141.984
141.703
141.468
141.275
141.119
140.999
140.91
140.85
140.817
140.807
140.819
140.849
140.897
140.959
141.033
141.117
141.209
141.307
141.407
141.506
141.602
141.688
141.761
141.813
141.835
141.816
141.74
141.588
141.329
140.925
140.315
139.41
138.081
136.054
133.173
127.754
121.618
111.335
106.464
103.534
102.425
103.226
105.973
110.733
117.668
127.132
139.899
157.951
181.703
212.42
252.25
304.007
370.664
454.772
556.341
650.87
731.195
790.427
824.99
836.629
830.231
811.451
785.703
756.922
727.785
699.966
674.4
651.504
631.359
613.847
598.74
585.765
574.642
565.11
556.942
549.948
543.983
538.946
534.777
531.455
528.998
527.459
526.923
527.51
529.35
532.564
537.355
542.263
547.212
552.219
557.306
562.494
567.805
573.259
578.871
584.651
590.604
596.722
602.985
609.357
615.781
622.174
628.421
634.37
639.82
644.522
648.168
650.402
650.819
648.995
644.507
636.984
626.146
611.856
594.149
573.258
549.598
523.746
496.398
468.332
440.367
413.298
388.083
366.142
345.621
326.222
307.897
290.621
274.365
259.084
244.723
231.224
218.526
206.571
195.302
184.666
174.614
165.105
156.099
147.561
139.461
131.773
124.475
117.546
110.971
104.736
98.8283
93.2395
87.9613
82.987
78.311
73.9282
69.8338
66.0232
62.4917
59.2347
56.25
53.5412
51.1333
49.1042
47.3929
45.9226
44.6423
43.51
42.5026
41.6084
40.8163
40.1161
39.4985
38.9553
38.479
38.0627
37.7003
37.3864
37.1159
36.8844
36.6878
36.5223
36.3848
36.2721
36.1816
36.1108
36.0576
36.0201
35.9965
35.9853
35.9854
35.9954
36.0144
36.0416
36.0762
36.1177
36.1655
36.2194
36.279
36.3444
36.4155
36.4927
36.5765
36.6677
36.7674
36.8773
36.9996
37.1375
37.2953
37.4791
37.6974
37.9628
38.2935
38.7179
39.2809
40.0575
41.1783
42.8874
45.6422
50.7341
154.737
137.961
131.307
128.887
129.948
134.344
142.248
154.163
171.087
194.959
227.735
268.837
321.515
385.644
459.68
541.364
624.464
699.972
758.029
790.593
796.731
780.207
747.532
705.86
661.263
618.005
578.637
544.36
515.496
491.833
472.856
457.906
446.281
437.306
430.385
425.023
420.843
417.575
415.045
413.153
411.847
411.106
410.922
411.289
412.197
413.629
415.559
417.954
420.774
423.962
427.239
430.442
433.564
436.622
439.654
442.709
445.841
449.115
452.595
456.348
460.44
464.929
469.867
475.293
481.227
487.667
494.576
501.877
509.436
517.053
524.451
531.268
537.058
541.306
543.458
542.965
539.346
532.252
521.523
507.225
489.651
469.292
446.78
422.815
398.079
373.117
349.603
327.989
307.618
288.395
270.315
253.365
237.514
222.712
208.899
196.008
183.971
172.722
162.196
152.335
143.084
134.394
126.221
118.525
111.271
104.428
97.9685
91.8679
86.105
80.661
75.5195
70.6659
66.0875
61.7729
57.7121
53.8958
50.3158
46.9642
43.834
40.9181
38.2106
35.7058
33.3984
31.2839
29.3534
27.5958
26.0016
24.57
23.2905
22.1468
21.1241
20.2101
19.3963
18.6744
18.0367
17.4756
16.9842
16.5558
16.1842
15.8634
15.5881
15.3533
15.1542
14.9868
14.8472
14.7318
14.6377
14.5621
14.5025
14.4567
14.4229
14.3994
14.3848
14.3778
14.3774
14.3827
14.3928
14.4073
14.4255
14.4471
14.4718
14.4995
14.53
14.5636
14.6004
14.6408
14.6856
14.7356
14.7922
14.8575
14.9342
15.0266
15.1408
15.2866
15.4798
15.7473
16.1387
16.7472
17.7924
19.7077
177.221
183.051
173.597
172.196
176.972
187.35
203.686
227.106
259.44
299.201
345.061
397.514
455.541
516.349
575.558
627.508
666.146
686.779
687.643
670.529
640.196
602.438
562.554
524.514
490.749
462.369
439.548
421.899
408.76
399.378
393.01
388.981
386.708
385.712
385.625
386.182
387.207
388.592
390.279
392.238
394.448
396.887
399.521
402.307
405.188
408.096
410.96
413.706
416.266
418.576
420.429
421.78
422.642
423.053
423.074
422.787
422.294
421.714
421.18
420.834
420.823
421.293
422.387
424.237
426.957
430.638
435.336
441.062
447.766
455.32
463.5
471.967
480.261
487.804
493.924
497.899
499.039
496.762
490.69
480.701
466.961
449.887
430.09
408.275
385.155
361.563
339.408
318.29
298.181
279.138
261.204
244.388
228.669
214.004
200.335
187.597
175.722
164.644
154.299
144.627
135.573
127.087
119.125
111.644
104.609
97.9875
91.7494
85.8693
80.3238
75.0925
70.157
65.5009
61.1098
56.9704
53.0712
49.4018
45.9525
42.7148
39.6807
36.843
34.1947
31.7291
29.4398
27.3203
25.3639
23.5637
21.9127
20.4044
19.032
17.788
16.6666
15.6607
14.7604
13.9566
13.2416
12.608
12.0488
11.5572
11.1268
10.7515
10.4257
10.144
9.90154
9.69381
9.51668
9.36641
9.23962
9.1333
9.04473
8.97152
8.91157
8.86302
8.82427
8.7939
8.77072
8.75367
8.74187
8.73458
8.73115
8.73108
8.73393
8.7394
8.74724
8.7573
8.76955
8.78402
8.8009
8.82051
8.84335
8.87021
8.90224
8.94114
8.98951
9.05134
9.13307
9.24548
9.40787
9.65621
10.0666
10.7799
813.917
298.53
238.472
232.287
240.084
256.017
279.3
309.428
343.574
381.441
422.208
463.942
503.857
538.602
564.76
579.524
581.448
570.977
550.421
523.328
493.563
464.431
438.237
416.246
398.872
385.96
377.04
371.514
368.769
368.232
369.39
371.808
375.132
379.093
383.498
388.22
393.181
398.333
403.637
409.052
414.526
419.989
425.356
430.528
435.397
439.851
443.781
447.086
449.681
451.433
452.188
451.895
450.55
448.18
444.845
440.641
435.697
430.177
424.275
418.213
412.232
406.589
401.544
397.355
394.265
392.497
392.233
393.613
396.705
401.497
407.862
415.542
424.117
433
441.443
448.585
453.524
455.43
453.663
447.873
438.049
424.509
407.815
388.679
367.89
347.222
327.018
307.395
288.525
270.546
253.538
237.533
222.526
208.486
195.367
183.113
171.665
160.965
150.955
141.582
132.796
124.552
116.807
109.524
102.67
96.2136
90.1272
84.386
78.9677
73.8521
69.0213
64.4589
60.1503
56.0824
52.2433
48.6226
45.2106
41.9988
38.9794
36.1453
33.49
31.0074
28.6915
26.5367
24.5374
22.6879
20.9826
19.4156
17.9812
16.6731
15.4851
14.4109
13.4442
12.5782
11.8051
11.1177
10.5087
9.97159
9.49964
9.08665
8.72673
8.41433
8.14428
7.91179
7.71246
7.54228
7.3976
7.27514
7.17196
7.08545
7.01331
6.95349
6.90424
6.86401
6.83145
6.80543
6.78496
6.76921
6.75746
6.74912
6.74371
6.74081
6.74012
6.74139
6.74446
6.74922
6.75569
6.76392
6.7741
6.78658
6.80186
6.82077
6.84454
6.87508
6.91548
6.97079
7.04972
7.16803
7.35493
7.66065
831.848
359.663
301.821
296.796
306.923
324.825
346.666
370.551
396.314
422.784
448.235
470.622
487.882
498.289
500.811
495.373
482.942
465.361
444.954
424.053
404.586
387.862
374.556
364.837
358.536
355.302
354.705
356.3
359.669
364.43
370.256
376.882
384.103
391.772
399.786
408.075
416.582
425.254
434.027
442.82
451.536
460.056
468.25
475.972
483.073
489.399
494.804
499.147
502.305
504.057
504.298
502.961
500.005
495.424
489.245
481.541
472.425
462.065
450.676
438.521
425.914
413.205
400.776
389.027
378.36
369.164
361.794
356.554
353.676
353.298
355.435
359.951
366.524
374.62
383.487
392.176
399.62
404.751
406.66
404.728
398.736
388.854
375.571
359.588
342.528
325.005
307.406
290.068
273.243
257.101
241.744
227.217
213.53
200.664
188.586
177.252
166.616
156.631
147.249
138.429
130.129
122.311
114.942
107.991
101.427
95.2271
89.366
83.8226
78.5774
73.6128
68.9125
64.4619
60.2477
56.2578
52.4814
48.9087
45.5308
42.34
39.3291
36.4919
33.8227
31.3162
28.9675
26.7722
24.7257
22.8238
21.0619
19.4354
17.9396
16.5693
15.319
14.1832
13.1559
12.231
11.4022
10.6629
10.0062
9.42541
8.91387
8.46527
8.07354
7.73291
7.43795
7.1836
6.96517
6.77836
6.61925
6.48427
6.37025
6.27433
6.194
6.12701
6.07143
6.02557
5.98795
5.95731
5.93256
5.9128
5.89723
5.8852
5.87616
5.86965
5.86531
5.86283
5.862
5.86264
5.86467
5.86805
5.87282
5.87913
5.88722
5.89751
5.91069
5.92779
5.95048
5.98148
6.02529
6.0897
6.18769
6.33918
825.654
404.096
355.335
353.282
362.867
375.844
390.457
405.566
420.088
432.852
442.675
448.516
449.678
445.965
437.754
425.957
411.866
396.925
382.501
369.695
359.251
351.555
346.699
344.57
344.933
347.489
351.918
357.907
365.167
373.447
382.54
392.286
402.565
413.286
424.381
435.785
447.433
459.242
471.114
482.931
494.553
505.825
516.576
526.627
535.794
543.889
550.734
556.155
559.995
561.997
562.113
560.264
556.382
550.424
542.375
532.263
520.158
506.184
490.524
473.425
455.2
436.231
416.963
397.896
379.568
362.536
347.341
334.485
324.393
317.385
313.642
313.17
315.772
321.014
328.204
336.396
344.439
351.113
355.289
356.096
353.095
346.315
336.148
323.939
310.325
295.91
281.183
266.516
252.176
238.335
225.096
212.507
200.581
189.308
178.662
168.613
159.124
150.16
141.688
133.674
126.088
118.903
112.094
105.637
99.5114
93.6971
88.1763
82.9324
77.9502
73.2156
68.7157
64.4384
60.3727
56.5087
52.8371
49.3497
46.039
42.8984
39.922
37.1046
34.4418
31.9293
29.5637
27.3416
25.26
23.316
21.5063
19.8277
18.2767
16.8493
15.5413
14.3479
13.2641
12.2843
11.4027
10.6134
9.91025
9.28664
8.73614
8.25238
7.8292
7.46067
7.14115
6.86533
6.62827
6.42538
6.25248
6.10573
5.98169
5.87728
5.78975
5.71667
5.65592
5.60565
5.56425
5.53032
5.5027
5.48037
5.46247
5.44828
5.43721
5.42874
5.42246
5.41804
5.41521
5.41376
5.41355
5.41449
5.41654
5.41975
5.42423
5.43022
5.4381
5.4485
5.46242
5.48149
5.50829
5.54712
5.60459
5.68947
896.179
442.628
391.817
387.76
394.161
403.053
411.752
418.914
423.729
425.688
424.52
420.208
413.021
403.508
392.444
380.729
369.268
358.865
350.15
343.547
339.279
337.399
337.834
340.419
344.942
351.16
358.832
367.73
377.652
388.432
399.937
412.065
424.736
437.883
451.44
465.334
479.474
493.753
508.039
522.179
536.001
549.319
561.934
573.641
584.232
593.501
601.248
607.28
611.42
613.481
613.445
611.239
606.789
600.03
590.924
579.461
565.669
549.623
531.449
511.336
489.546
466.415
442.366
417.904
393.615
370.146
348.181
328.397
311.419
297.766
287.801
281.675
279.304
280.349
284.208
290.005
296.614
302.775
307.275
309.069
307.557
302.788
295.346
285.872
274.995
263.289
251.22
239.14
227.289
215.821
204.821
194.326
184.342
174.856
165.847
157.288
149.151
141.409
134.037
127.013
120.317
113.929
107.833
102.014
96.4583
91.1522
86.0842
81.2432
76.6186
72.2008
67.9806
63.9492
60.0986
56.4214
52.9105
49.5597
46.3632
43.3159
40.4135
37.6521
35.0285
32.5401
30.1845
27.96
25.8648
23.8976
22.0567
20.3403
18.7463
17.2723
15.9152
14.6716
13.5373
12.5078
11.578
10.7425
9.99561
9.33135
8.74349
8.22578
7.77206
7.3763
7.03274
6.73587
6.48052
6.26187
6.07546
5.91723
5.78348
5.67089
5.57652
5.49772
5.4322
5.37794
5.33321
5.29648
5.26648
5.24211
5.22244
5.20668
5.19417
5.18438
5.17684
5.17119
5.16712
5.1644
5.16286
5.16235
5.16282
5.16422
5.16662
5.17013
5.17499
5.1816
5.1906
5.20303
5.22053
5.2457
5.28229
5.33465
935.849
455.986
401.706
396.887
402.201
408.828
413.811
415.927
414.801
410.579
403.721
394.869
384.759
374.154
363.778
354.268
346.137
339.761
335.38
333.116
332.989
334.934
338.828
344.501
351.762
360.412
370.26
381.137
392.9
405.434
418.648
432.471
446.841
461.696
476.966
492.561
508.374
524.271
540.097
555.673
570.804
585.28
598.884
611.394
622.59
632.256
640.187
646.189
650.052
651.758
651.296
648.609
643.633
636.311
626.597
614.47
599.936
583.033
563.845
542.502
519.199
494.2
467.848
440.577
412.917
385.499
359.038
334.299
312.05
292.988
277.674
266.417
259.209
255.772
255.561
257.792
261.444
265.329
268.318
269.333
267.869
263.927
257.785
249.919
240.865
231.127
221.12
211.146
201.406
192.019
183.038
174.48
166.335
158.579
151.186
144.126
137.374
130.906
124.702
118.746
113.022
107.52
102.228
97.1372
92.2403
87.5299
82.9992
78.6421
74.4526
70.4252
66.5544
62.8348
59.2615
55.8297
52.5347
49.3723
46.3388
43.4307
40.6452
37.9798
35.4328
33.0029
30.6892
28.4912
26.4088
24.442
22.5909
20.8551
19.2343
17.7275
16.3331
15.0492
13.8728
12.8006
11.8284
10.9515
10.165
9.46325
8.84058
8.29093
7.80824
7.38651
7.01988
6.70274
6.42972
6.1958
5.99631
5.82695
5.68381
5.56334
5.46238
5.37811
5.30806
5.25006
5.20223
5.16295
5.13082
5.10466
5.08346
5.06639
5.05273
5.04189
5.03339
5.02683
5.02187
5.01825
5.01578
5.01429
5.01369
5.0139
5.01493
5.01684
5.01977
5.02398
5.02991
5.03827
5.05016
5.06728
5.09198
5.12668
938.184
447.222
391.051
385.869
391.067
397.206
401.073
401.489
398.335
392.135
383.752
374.15
364.241
354.798
346.42
339.538
334.434
331.265
330.1
330.932
333.697
338.285
344.551
352.331
361.448
371.735
383.035
395.216
408.17
421.811
436.074
450.903
466.244
482.035
498.201
514.646
531.248
547.861
564.316
580.419
595.963
610.726
624.479
636.992
648.037
657.393
664.851
670.22
673.333
674.282
673.08
669.7
664.106
656.262
646.138
633.72
619.009
602.032
582.843
561.535
538.249
513.185
486.601
458.824
430.278
401.495
373.116
345.883
320.59
298.027
278.932
263.804
252.67
245.265
241.06
239.342
239.265
239.805
240.01
239.109
236.593
232.294
226.347
219.099
210.985
202.428
193.774
185.274
177.083
169.279
161.886
154.894
148.274
141.988
136
130.275
124.782
119.496
114.398
109.472
104.704
100.087
95.6124
91.2747
87.0694
82.993
79.0424
75.2149
71.5079
67.9192
64.4464
61.0869
57.8385
54.6988
51.6652
48.7357
45.908
43.1805
40.5516
38.0204
35.5863
33.2492
31.0095
28.8681
26.8262
24.8852
23.0467
21.3121
19.6826
18.1587
16.7408
15.4282
14.2196
13.1129
12.1051
11.1926
10.3712
9.63586
8.9815
8.40241
7.89276
7.44665
7.05826
6.72187
6.43202
6.18353
5.97152
5.7915
5.63935
5.51133
5.40407
5.31459
5.24024
5.1787
5.12796
5.08629
5.05219
5.02439
5.00183
4.98359
4.96893
4.9572
4.94789
4.94057
4.93488
4.93055
4.92735
4.92511
4.92369
4.92301
4.92305
4.9238
4.92537
4.92791
4.93175
4.93739
4.94561
4.9576
4.97496
4.99919
903.609
422.707
366.302
361.007
366.687
373.637
378.422
379.764
377.551
372.38
365.218
357.121
349.043
341.737
335.736
331.377
328.844
328.212
329.48
332.592
337.448
343.92
351.854
361.09
371.462
382.819
395.025
407.967
421.556
435.723
450.413
465.579
481.172
497.133
513.387
529.838
546.364
562.817
579.026
594.798
609.923
624.18
637.338
649.167
659.436
667.919
674.401
678.676
680.696
680.586
678.397
674.144
667.83
659.451
649.004
636.496
621.938
605.357
586.795
566.317
544.025
520.097
494.722
468.124
440.611
412.587
384.566
357.184
331.16
307.217
286.14
268.732
254.913
244.413
236.708
231.146
227.071
223.839
220.812
217.393
213.116
207.753
201.328
194.068
186.299
178.354
170.508
162.955
155.804
149.099
142.838
136.989
131.509
126.347
121.458
116.801
112.339
108.044
103.894
99.8701
95.9588
92.15
88.4362
84.8122
81.2742
77.8196
74.447
71.1552
67.9436
64.8115
61.7588
58.7847
55.8889
53.0708
50.3295
47.6645
45.0751
42.5606
40.1209
37.756
35.4663
33.2528
31.1168
29.0603
27.0856
25.1955
23.3927
21.6802
20.0608
18.5367
17.1098
15.7812
14.5511
13.4189
12.3832
11.4413
10.59
9.82536
9.14273
8.53695
8.00255
7.53385
7.12511
6.77062
6.46487
6.20255
5.97863
5.78846
5.62773
5.49251
5.37926
5.28481
5.20638
5.14149
5.08801
5.04409
5.00815
4.97884
4.95501
4.9357
4.92012
4.90758
4.89754
4.88954
4.88322
4.87826
4.87443
4.87154
4.86945
4.86804
4.86727
4.86711
4.86762
4.86891
4.8712
4.87488
4.88054
4.88903
4.90154
4.91911
840.753
389.173
334.087
328.824
335.14
343.477
350.263
354.052
354.55
352.194
347.84
342.478
337.032
332.247
328.647
326.565
326.177
327.548
330.666
335.462
341.831
349.637
358.726
368.937
380.112
392.098
404.768
418.017
431.762
445.937
460.494
475.387
490.573
505.998
521.593
537.27
552.915
568.393
583.544
598.185
612.119
625.136
637.018
647.543
656.491
663.64
668.77
671.654
672.354
671.012
667.716
662.52
655.468
646.591
635.922
623.491
609.329
593.474
575.964
556.837
536.113
514.051
490.8
466.482
441.303
415.552
389.614
363.986
339.268
316.127
295.216
277.01
261.619
248.803
238.081
228.947
221.024
214.033
207.666
201.537
195.258
188.563
181.387
173.842
166.144
158.532
151.202
144.288
137.856
131.918
126.449
121.406
116.735
112.381
108.294
104.429
100.748
97.2209
93.8205
90.5266
87.3232
84.1977
81.1406
78.1451
75.206
72.32
69.485
66.6998
63.964
61.2775
58.6406
56.0537
53.5171
51.0313
48.5966
46.2132
43.8813
41.6012
39.3735
37.1988
35.0781
33.0132
31.0059
29.059
27.1756
25.3594
23.6141
21.9441
20.3534
18.8459
17.425
16.0934
14.8531
13.7051
12.6493
11.6846
10.809
10.0194
9.31208
8.68246
8.12557
7.63606
7.20839
6.83695
6.5162
6.24077
6.00554
5.8057
5.63677
5.49468
5.3757
5.27652
5.19419
5.12611
5.07003
5.02398
4.98629
4.95554
4.93051
4.91019
4.89373
4.88043
4.8697
4.86106
4.85413
4.84858
4.84417
4.84068
4.83796
4.8359
4.83441
4.83348
4.8331
4.83336
4.83444
4.83662
4.84036
4.84634
4.85545
4.86849
775.989
353.62
299.829
294.458
301.223
310.925
319.97
326.742
330.695
331.985
331.215
329.199
326.767
324.64
323.364
323.311
324.699
327.629
332.115
338.104
345.502
354.178
363.985
374.771
386.389
398.637
411.384
424.538
438.016
451.751
465.689
479.786
494
508.281
522.571
536.794
550.853
564.632
577.992
590.774
602.805
613.9
623.865
632.503
639.619
645.013
648.485
649.81
649.116
646.537
642.181
636.135
628.476
619.269
608.576
596.454
582.956
568.135
552.042
534.735
516.279
496.776
476.322
455.023
433.018
410.499
387.728
365.057
342.93
321.853
302.31
284.616
268.785
254.511
241.363
229.055
217.586
207.095
197.609
188.934
180.748
172.758
164.824
156.96
149.279
141.925
135.016
128.622
122.764
117.423
112.559
108.116
104.038
100.27
96.7625
93.4727
90.3636
87.4038
84.5675
81.8329
79.1824
76.6013
74.0782
71.6039
69.1713
66.7753
64.4122
62.0796
59.776
57.5008
55.2538
53.0353
50.8458
48.6857
46.5558
44.4566
42.3886
40.3525
38.349
36.379
34.444
32.5456
30.6863
28.8688
27.0968
25.3745
23.7064
22.0976
20.5533
19.0786
17.6785
16.3571
15.1181
13.9641
12.8966
11.9161
11.0217
10.2118
9.48337
8.83277
8.25564
7.74707
7.30181
6.91445
6.5795
6.29161
6.04556
5.83643
5.65963
5.51092
5.38642
5.28268
5.19659
5.12543
5.06683
5.01873
4.97935
4.9472
4.92101
4.8997
4.88238
4.86832
4.8569
4.84763
4.84009
4.83395
4.82895
4.82487
4.82155
4.81886
4.8167
4.81504
4.81387
4.81324
4.81329
4.81425
4.81648
4.82055
4.82716
4.83698
175.124
288.267
263.092
260.612
268.027
278.834
289.867
299.475
306.893
311.979
315.027
316.599
317.365
317.981
319.001
320.834
323.755
327.921
333.391
340.151
348.131
357.222
367.288
378.178
389.734
401.791
414.213
426.886
439.714
452.622
465.546
478.435
491.244
503.926
516.431
528.695
540.641
552.177
563.192
573.56
583.141
591.784
599.333
605.632
610.522
613.849
615.461
615.189
613.166
609.503
604.308
597.683
589.725
580.525
570.163
558.716
546.251
532.832
518.517
503.364
487.429
470.775
453.465
435.569
417.176
398.402
379.409
360.421
341.722
323.628
306.395
290.094
274.514
259.243
243.96
228.74
214.071
200.521
188.385
177.587
167.823
158.776
150.244
142.166
134.569
127.512
121.036
115.149
109.829
105.028
100.687
96.7471
93.1491
89.8414
86.7788
83.9227
81.2401
78.7031
76.2877
73.9736
71.7432
69.5817
67.4764
65.4168
63.3944
61.4021
59.4346
57.4879
55.5592
53.6465
51.7488
49.8655
47.9965
46.1418
44.3019
42.477
40.6676
38.8741
37.0971
35.3374
33.5963
31.8753
30.1764
28.5027
26.8575
25.2453
23.6708
22.1397
20.6579
19.2313
17.8661
16.5679
15.3417
14.1918
13.1212
12.132
11.2249
10.3993
9.65356
8.9849
8.38974
7.86378
7.40219
6.99983
6.65137
6.35149
6.09499
5.87685
5.69237
5.53718
5.40728
5.29905
5.20927
5.13509
5.07401
5.02387
4.98282
4.94929
4.92192
4.89962
4.88144
4.8666
4.85448
4.84455
4.83638
4.82963
4.82403
4.81934
4.8154
4.81207
4.80925
4.80689
4.80497
4.80353
4.80267
4.80258
4.80358
4.80613
4.81082
4.81823
174.608
254.845
231.65
229.888
237.568
249.054
261.561
273.468
283.875
292.416
299.105
304.233
308.258
311.693
315.03
318.683
322.969
328.104
334.211
341.332
349.447
358.484
368.334
378.864
389.929
401.378
413.072
424.886
436.713
448.461
460.056
471.437
482.55
493.349
503.787
513.813
523.367
532.381
540.774
548.455
555.321
561.264
566.171
569.929
572.43
573.573
573.266
571.426
568.18
563.616
557.834
550.936
543.024
534.193
524.535
514.131
503.056
491.373
479.141
466.412
453.232
439.645
425.691
411.412
396.856
382.081
367.168
352.221
337.356
322.658
308.082
293.36
278.009
261.576
244.04
226.03
208.576
192.582
178.461
166.137
155.276
145.532
136.669
128.572
121.201
114.54
108.562
103.22
98.4499
94.181
90.3417
86.8667
83.6992
80.7913
78.1033
75.6022
73.2605
71.0548
68.965
66.9737
65.0652
63.226
61.4438
59.708
58.0095
56.3403
54.6942
53.0657
51.4508
49.8464
48.2502
46.6607
45.0769
43.4981
41.9239
40.3542
38.7887
37.2276
35.6709
34.119
32.5724
31.0324
29.5004
27.9789
26.4711
24.9808
23.513
22.0732
20.6676
19.3029
17.9858
16.7231
15.5211
14.3853
13.3204
12.33
11.4164
10.5802
9.82101
9.13732
8.52641
7.98472
7.50798
7.09142
6.72999
6.41848
6.15172
5.92469
5.73259
5.57095
5.43564
5.32291
5.22942
5.15218
5.0886
5.0364
4.99366
4.95871
4.93015
4.90683
4.88775
4.87211
4.85925
4.84863
4.8398
4.83241
4.82618
4.82086
4.81628
4.8123
4.80882
4.80577
4.80313
4.80092
4.79923
4.79822
4.79817
4.79947
4.80265
4.80819
171.345
229.364
204.619
202.697
210.285
221.943
235.192
248.612
261.316
272.778
282.77
291.312
298.603
304.959
310.743
316.315
321.991
328.025
334.596
341.814
349.72
358.3
367.494
377.209
387.327
397.72
408.255
418.809
429.267
439.527
449.504
459.123
468.326
477.059
485.276
492.935
499.991
506.396
512.097
517.035
521.147
524.367
526.627
527.861
528.013
527.04
524.925
521.708
517.491
512.339
506.333
499.561
492.113
484.08
475.548
466.594
457.289
447.692
437.855
427.823
417.631
407.309
396.878
386.357
375.756
365.08
354.321
343.449
332.374
320.877
308.53
294.687
278.691
260.315
240.149
219.512
199.869
182.227
166.911
153.74
142.327
132.313
123.449
115.585
108.627
102.495
97.1042
92.3605
88.1694
84.4418
81.0988
78.0743
75.3146
72.7769
70.4275
68.2392
66.1903
64.2623
62.4396
60.7082
59.0557
57.4705
55.9422
54.4611
53.0185
51.6068
50.2191
48.8496
47.4935
46.1468
44.8064
43.4699
42.1352
40.8009
39.4659
38.1291
36.7898
35.4472
34.1007
32.75
31.395
30.0359
28.6736
27.3097
25.9466
24.5877
23.2373
21.9006
20.5838
19.2936
18.0373
16.8222
15.6556
14.5442
13.4941
12.5104
11.5966
10.755
9.98648
9.29083
8.66639
8.11051
7.6196
7.18942
6.81529
6.49221
6.21513
5.97905
5.77914
5.61085
5.46994
5.35254
5.25517
5.17474
5.10853
5.05417
5.00964
4.9732
4.94339
4.91899
4.89896
4.88248
4.86885
4.85751
4.84799
4.83993
4.83304
4.82707
4.82184
4.8172
4.81306
4.80934
4.806
4.80307
4.80063
4.7988
4.79785
4.79811
4.80006
4.80414
177.536
185.759
178.65
180.98
189.342
201.025
214.434
228.519
242.514
255.866
268.211
279.372
289.334
298.213
306.214
313.592
320.608
327.505
334.486
341.702
349.251
357.175
365.472
374.098
382.978
392.018
401.111
410.145
419.012
427.612
435.852
443.655
450.952
457.688
463.814
469.29
474.08
478.15
481.466
483.997
485.709
486.569
486.55
485.627
483.786
481.033
477.409
473.091
468.151
462.646
456.647
450.229
443.473
436.457
429.257
421.942
414.572
407.2
399.87
392.617
385.465
378.431
371.519
364.716
357.988
351.263
344.41
337.198
329.229
319.872
308.26
293.495
275.117
253.613
230.473
207.621
186.626
168.267
152.604
139.304
127.942
118.167
109.728
102.447
96.1769
90.7808
86.1249
82.0825
78.5394
75.3987
72.5814
70.0256
67.6836
65.5196
63.5065
61.6235
59.8543
58.1856
56.6061
55.1057
53.6751
52.3057
50.9891
49.7176
48.4837
47.2807
46.1024
44.9431
43.798
42.6629
41.5343
40.4091
39.285
38.1598
37.0316
35.899
34.7605
33.6145
32.4598
31.2952
30.1199
28.9331
27.7349
26.526
25.3078
24.0828
22.8545
21.6275
20.4075
19.2009
18.0151
16.8577
15.7366
14.6593
13.6331
12.6639
11.7569
10.9158
10.1429
9.4392
8.80429
8.23648
7.73301
7.29031
6.90414
6.56986
6.28261
6.03749
5.82968
5.65459
5.5079
5.38565
5.28424
5.20047
5.1315
5.07488
5.02848
4.99048
4.95936
4.93384
4.91285
4.89551
4.8811
4.86903
4.85882
4.85011
4.84257
4.83597
4.83011
4.82485
4.82007
4.81572
4.81175
4.80817
4.80505
4.80253
4.80082
4.80023
4.8012
4.80412
174.766
163.265
161.047
165.629
174.438
185.953
199.177
213.364
227.896
242.257
256.037
268.95
280.835
291.651
301.457
310.389
318.623
326.354
333.771
341.034
348.273
355.574
362.981
370.5
378.105
385.741
393.337
400.808
408.065
415.018
421.584
427.685
433.255
438.237
442.584
446.257
449.226
451.468
452.964
453.699
453.663
452.851
451.262
448.904
445.795
441.974
437.509
432.641
427.43
421.943
416.25
410.425
404.542
398.672
392.882
387.235
381.784
376.574
371.64
367.009
362.694
358.691
354.975
351.487
348.112
344.648
340.758
335.901
329.267
319.786
306.343
288.269
265.928
240.891
215.408
191.507
170.388
152.367
137.207
124.467
113.727
104.656
97.0016
90.5543
85.1255
80.5395
76.6353
73.2724
70.3338
67.7259
65.3769
63.2331
61.2553
59.4149
57.6912
56.0692
54.5373
53.0863
51.7085
50.3971
49.1455
47.9475
46.7969
45.6877
44.6142
43.5705
42.5515
41.5521
40.568
39.5951
38.63
37.6695
36.7109
35.7519
34.7902