/*--------------------------------*- C++ -*----------------------------------*\
  =========                 |
  \\      /  F ield         | OpenFOAM: The Open Source CFD Toolbox
   \\    /   O peration     | Website:  https://openfoam.org
    \\  /    A nd           | Version:  9
     \\/     M anipulation  |
\*---------------------------------------------------------------------------*/
FoamFile
{
    format      ascii;
    class       volScalarField;
    location    "0.02";
    object      k;
}
// * * * * * * * * * * * * * * * * * * * * * * * * * * * * * * * * * * * * * //

dimensions      [0 2 -2 0 0 0 0];

internalField   nonuniform List<scalar> 
12225
(
0.353883
0.334946
0.316834
0.300829
0.288042
0.278937
0.273531
0.27155
0.272557
0.276057
0.281555
0.288605
0.296829
0.305932
0.315721
0.326097
0.337308
0.354522
0.436651
0.448606
0.437824
0.43312
0.439385
0.455005
0.477361
0.504033
0.53306
0.562985
0.592818
0.621961
0.650143
0.677375
0.704052
0.730695
0.760429
0.792034
0.395152
0.410727
0.410417
0.405566
0.401948
0.401072
0.403086
0.407743
0.414652
0.42339
0.433565
0.444854
0.457025
0.469955
0.483697
0.498484
0.515285
0.534812
0.379625
0.384794
0.386485
0.385669
0.383862
0.382028
0.380652
0.379957
0.380023
0.380849
0.382399
0.384628
0.387503
0.391029
0.395273
0.400397
0.406776
0.414759
0.374974
0.375889
0.376214
0.375682
0.374521
0.373034
0.371461
0.369967
0.368656
0.367588
0.366795
0.366296
0.366109
0.366262
0.366805
0.367826
0.369474
0.371856
0.37349
0.37255
0.37174
0.370772
0.369582
0.368213
0.36674
0.365232
0.363749
0.362335
0.361024
0.359842
0.358811
0.357959
0.357321
0.356944
0.356892
0.357198
0.373015
0.371294
0.369798
0.368387
0.366981
0.365549
0.364092
0.362623
0.361164
0.359735
0.358358
0.357049
0.355829
0.354717
0.353738
0.352923
0.352305
0.351894
0.372868
0.370839
0.368994
0.367286
0.365671
0.364117
0.362604
0.361125
0.35968
0.358273
0.356914
0.35561
0.354375
0.353222
0.35217
0.351237
0.350443
0.349797
0.372824
0.370683
0.368685
0.366817
0.365061
0.363398
0.361811
0.36029
0.358829
0.357424
0.356077
0.354791
0.353572
0.35243
0.351376
0.350423
0.349584
0.348867
0.37281
0.370632
0.368575
0.366634
0.364802
0.363068
0.361423
0.359859
0.358369
0.356949
0.355598
0.354317
0.353108
0.351976
0.35093
0.349978
0.349127
0.348387
0.372805
0.370615
0.368537
0.366568
0.364701
0.362931
0.361251
0.359657
0.358143
0.356706
0.355344
0.354057
0.352846
0.351716
0.350671
0.349715
0.348855
0.348098
0.372803
0.370609
0.368525
0.366546
0.364668
0.362883
0.361189
0.35958
0.358052
0.356604
0.355233
0.353939
0.352724
0.351589
0.350537
0.349573
0.3487
0.347925
0.372802
0.370606
0.36852
0.366538
0.364655
0.362865
0.361165
0.359549
0.358015
0.35656
0.355184
0.353885
0.352664
0.351523
0.350464
0.349488
0.3486
0.347804
0.372801
0.370603
0.368516
0.366534
0.36465
0.362859
0.361157
0.35954
0.358004
0.356548
0.35517
0.353868
0.352644
0.351497
0.350429
0.349441
0.348534
0.347716
0.3728
0.370601
0.368514
0.366532
0.364648
0.362858
0.361157
0.359542
0.358008
0.356553
0.355175
0.353874
0.352648
0.351498
0.350423
0.349423
0.348499
0.347657
0.372799
0.370599
0.368512
0.36653
0.364647
0.362859
0.361161
0.359548
0.358017
0.356565
0.35519
0.353891
0.352666
0.351513
0.350432
0.349422
0.348483
0.347622
0.372798
0.370597
0.36851
0.366528
0.364647
0.36286
0.361165
0.359555
0.358028
0.35658
0.355209
0.353912
0.352688
0.351534
0.350449
0.349431
0.34848
0.347601
0.372796
0.370595
0.368507
0.366526
0.364646
0.362862
0.361169
0.359563
0.35804
0.356597
0.35523
0.353936
0.352713
0.351559
0.35047
0.349446
0.348483
0.347591
0.372795
0.370593
0.368505
0.366525
0.364646
0.362865
0.361176
0.359574
0.358055
0.356616
0.355253
0.353962
0.352741
0.351586
0.350495
0.349465
0.348495
0.34759
0.372794
0.370592
0.368504
0.366525
0.364649
0.362871
0.361185
0.359587
0.358072
0.356637
0.355278
0.35399
0.35277
0.351616
0.350524
0.34949
0.348514
0.347603
0.372794
0.370592
0.368505
0.366528
0.364655
0.36288
0.361198
0.359604
0.358094
0.356663
0.355307
0.354022
0.352805
0.351652
0.35056
0.349526
0.348548
0.347633
0.372794
0.370593
0.368508
0.366535
0.364667
0.362898
0.361223
0.359637
0.358134
0.35671
0.355361
0.354082
0.35287
0.351722
0.350633
0.3496
0.348622
0.347706
0.372795
0.370598
0.368522
0.366562
0.36471
0.36296
0.361305
0.359739
0.358256
0.35685
0.355516
0.35425
0.353048
0.351906
0.35082
0.349788
0.348808
0.347887
0.372803
0.37063
0.368597
0.366693
0.364902
0.363215
0.361619
0.360104
0.358661
0.357284
0.355968
0.354711
0.353508
0.352357
0.351257
0.350205
0.349201
0.348254
0.372853
0.370817
0.368978
0.36728
0.365674
0.36413
0.362632
0.361172
0.359747
0.358359
0.357012
0.355708
0.35445
0.353239
0.352078
0.350967
0.349906
0.348907
0.373164
0.371764
0.370575
0.369376
0.368066
0.366637
0.365119
0.363557
0.361988
0.360443
0.358944
0.357508
0.356144
0.354857
0.35365
0.352524
0.351477
0.350516
0.374797
0.375824
0.376154
0.375364
0.37379
0.371831
0.369747
0.367692
0.365758
0.363996
0.362432
0.361072
0.359914
0.358948
0.358159
0.357534
0.357055
0.35671
0.382733
0.391671
0.392354
0.388764
0.384316
0.380292
0.377073
0.374736
0.373245
0.37252
0.372463
0.372975
0.373963
0.375339
0.377027
0.37896
0.381081
0.383326
0.407343
0.414176
0.405018
0.395526
0.389966
0.38849
0.390337
0.39467
0.400756
0.408011
0.415993
0.424374
0.432912
0.441431
0.44981
0.457965
0.465864
0.473436
0.360531
0.347488
0.334844
0.322805
0.311831
0.302189
0.293981
0.287195
0.281747
0.277512
0.274352
0.272127
0.270703
0.269954
0.26977
0.270053
0.270717
0.271685
0.243762
0.283415
0.312465
0.33107
0.342859
0.350193
0.354564
0.356905
0.357725
0.357183
0.355298
0.353451
0.355657
0.361643
0.371699
0.386291
0.405528
0.428583
0.453151
0.47518
0.49156
0.501241
0.507933
0.526316
0.576242
0.640068
0.711975
0.7873
0.862571
0.935407
1.00432
1.0685
1.12758
1.1815
1.2304
1.27453
1.31417
1.34967
1.38135
1.40952
1.43452
1.45663
1.47614
1.49333
1.50846
1.5218
1.53361
1.54414
1.55367
1.56248
1.57077
1.57803
1.58444
1.59015
1.59529
1.59997
1.60429
1.60831
1.61211
1.61571
1.61915
1.62242
1.62548
1.62826
1.63066
1.6325
1.63359
1.63365
1.63236
1.62931
1.62405
1.61608
1.60486
1.58983
1.57048
1.54638
1.5172
1.48282
1.44328
1.39888
1.35013
1.29777
1.24268
1.18603
1.12939
1.07551
1.02938
0.99542
0.965083
0.935912
0.907625
0.880217
0.853711
0.82812
0.803436
0.779634
0.756682
0.734536
0.713151
0.692483
0.672488
0.653125
0.634358
0.616156
0.598492
0.581348
0.564709
0.548566
0.532918
0.51777
0.503132
0.48902
0.475457
0.462468
0.450085
0.438338
0.427259
0.416879
0.407224
0.398311
0.390142
0.382694
0.375911
0.369716
0.364044
0.358851
0.354107
0.349785
0.345856
0.342291
0.339057
0.336125
0.333465
0.33105
0.328855
0.326858
0.32504
0.323382
0.321871
0.320492
0.319234
0.318088
0.317043
0.31609
0.315223
0.314434
0.313717
0.313065
0.312472
0.311933
0.311444
0.310999
0.310593
0.310223
0.309885
0.309574
0.309287
0.309021
0.308771
0.308535
0.308309
0.308088
0.307869
0.307646
0.307415
0.307169
0.3069
0.306597
0.306249
0.305839
0.305344
0.304736
0.303973
0.302997
0.301725
0.300025
0.297713
0.294388
0.289815
0.281504
0.427756
0.519213
0.576679
0.614456
0.641146
0.662546
0.68245
0.703491
0.727634
0.756618
0.792555
0.839111
0.892047
0.955801
1.035
1.13329
1.25146
1.38638
1.52969
1.64829
1.73609
1.7898
1.81045
1.80443
1.78061
1.74688
1.70994
1.67445
1.64361
1.61948
1.60316
1.59501
1.5948
1.60193
1.6155
1.6345
1.65783
1.68443
1.71333
1.74365
1.77465
1.80574
1.83644
1.8664
1.89541
1.92334
1.95015
1.97588
2.00066
2.02469
2.04731
2.06935
2.09105
2.1126
2.13424
2.15619
2.17867
2.2019
2.22609
2.25144
2.27812
2.30624
2.33588
2.36707
2.39974
2.43373
2.46878
2.50445
2.54018
2.57518
2.60847
2.63883
2.66487
2.68505
2.69772
2.70133
2.69448
2.67611
2.64564
2.60305
2.54889
2.48425
2.41068
2.32998
2.2441
2.15483
2.0648
1.98121
1.9004
1.82195
1.74603
1.67283
1.60245
1.53492
1.47018
1.40814
1.34868
1.29166
1.23692
1.18434
1.13376
1.08505
1.03811
0.992807
0.949058
0.906777
0.865889
0.826333
0.788058
0.751023
0.715197
0.680559
0.647096
0.614804
0.583686
0.553752
0.525015
0.497497
0.471218
0.446206
0.42249
0.400105
0.379074
0.35941
0.341138
0.324265
0.308781
0.294678
0.281896
0.270355
0.259975
0.250677
0.242382
0.235013
0.228493
0.222752
0.217717
0.213323
0.209505
0.206203
0.203362
0.200928
0.198853
0.197093
0.195608
0.194362
0.193322
0.192459
0.191749
0.191168
0.190697
0.19032
0.190021
0.189789
0.189612
0.189481
0.18939
0.18933
0.189298
0.189289
0.189299
0.189328
0.189373
0.189434
0.189512
0.189609
0.189727
0.189872
0.19005
0.190273
0.190555
0.190917
0.191393
0.192032
0.192915
0.19418
0.196054
0.199076
0.203774
0.214459
0.540881
0.651285
0.73928
0.802978
0.851485
0.892548
0.932297
0.975836
1.02788
1.09367
1.17565
1.26749
1.37388
1.49345
1.62227
1.75477
1.87935
1.98179
2.04917
2.07411
2.06013
2.01705
1.95733
1.89298
1.8335
1.78515
1.75145
1.73376
1.73197
1.74489
1.77058
1.80658
1.85022
1.89879
1.94979
2.0011
2.0511
2.09866
2.1431
2.18414
2.2218
2.25623
2.28771
2.31652
2.34297
2.36729
2.38971
2.41041
2.42956
2.44728
2.46329
2.47782
2.49111
2.50343
2.51512
2.52658
2.53824
2.55056
2.564
2.57901
2.59604
2.6155
2.63772
2.66299
2.6915
2.72331
2.75837
2.79641
2.83695
2.87925
2.92225
2.96455
3.00443
3.03986
3.06858
3.08828
3.09678
3.09223
3.07334
3.03953
2.99101
2.9287
2.85416
2.76937
2.67643
2.57716
2.47782
2.38173
2.2876
2.19562
2.10623
2.01973
1.93633
1.85609
1.77902
1.70501
1.63395
1.56569
1.50006
1.43692
1.3761
1.31746
1.26087
1.20619
1.15331
1.10215
1.05261
1.00462
0.958115
0.913046
0.869372
0.827062
0.786095
0.746458
0.708147
0.671165
0.635521
0.60123
0.568312
0.536788
0.506684
0.47802
0.450802
0.425024
0.400689
0.377801
0.356357
0.336328
0.317706
0.30049
0.284672
0.270219
0.257069
0.245155
0.234409
0.224759
0.21613
0.208448
0.201638
0.195627
0.190344
0.185721
0.181693
0.178198
0.175177
0.172578
0.170351
0.168449
0.166833
0.165464
0.164309
0.163338
0.162525
0.161847
0.161282
0.160813
0.160425
0.160105
0.15984
0.159622
0.159442
0.159294
0.159172
0.15907
0.158986
0.158917
0.158859
0.158812
0.158775
0.158748
0.158732
0.15873
0.158749
0.158799
0.1589
0.159097
0.159457
0.16019
0.161538
0.164921
0.61375
0.787862
0.925991
1.02021
1.09005
1.14927
1.20782
1.27387
1.35429
1.44447
1.53989
1.64126
1.746
1.84866
1.94168
2.01622
2.06387
2.07962
2.06404
2.02359
1.96894
1.91153
1.86117
1.82473
1.80604
1.80629
1.82471
1.85919
1.90684
1.9644
2.02862
2.09643
2.16517
2.23271
2.29744
2.35832
2.41478
2.46665
2.51401
2.55711
2.59629
2.63182
2.66396
2.69288
2.71865
2.74127
2.76071
2.77689
2.78974
2.7991
2.80469
2.80662
2.80514
2.80059
2.79343
2.78423
2.77364
2.76243
2.75139
2.74139
2.73329
2.72794
2.72615
2.72866
2.73611
2.74902
2.76771
2.79233
2.82273
2.85845
2.89863
2.94196
2.98668
3.03053
3.07087
3.10481
3.12944
3.14209
3.14065
3.12377
3.09101
3.04282
2.98046
2.9057
2.82061
2.72792
2.63517
2.54227
2.44983
2.35859
2.26918
2.18207
2.09755
2.01576
1.93676
1.86051
1.78692
1.71591
1.64733
1.58106
1.51698
1.45495
1.39487
1.33662
1.28012
1.22528
1.17202
1.12028
1.07001
1.02116
0.973693
0.927585
0.882818
0.839384
0.79728
0.756515
0.717101
0.679057
0.642409
0.607184
0.573412
0.541122
0.510339
0.481081
0.453365
0.427203
0.402599
0.379548
0.358036
0.33804
0.319516
0.302425
0.286745
0.272437
0.259434
0.247663
0.23705
0.227519
0.218991
0.21139
0.204642
0.198671
0.193408
0.188785
0.184737
0.181205
0.178133
0.175468
0.173163
0.171175
0.169464
0.167994
0.166734
0.165654
0.164731
0.16394
0.163263
0.162683
0.162185
0.161756
0.161386
0.161065
0.160784
0.160538
0.16032
0.160126
0.159951
0.159793
0.159648
0.159514
0.159391
0.159277
0.159175
0.159086
0.159019
0.158992
0.159033
0.159225
0.15963
0.160658
0.61453
0.94173
1.14671
1.27097
1.35821
1.42938
1.49732
1.56839
1.63851
1.70971
1.78188
1.85176
1.9144
1.96433
1.9967
2.00842
1.99938
1.97303
1.93603
1.89677
1.86352
1.84283
1.83875
1.85282
1.88451
1.93187
1.99212
2.06212
2.13881
2.2193
2.30111
2.38218
2.46089
2.53615
2.60726
2.67392
2.73611
2.79397
2.84769
2.89748
2.94344
2.98559
3.02382
3.05795
3.08769
3.11272
3.1327
3.14732
3.15632
3.15911
3.15542
3.14519
3.12853
3.1057
3.07711
3.04338
3.00528
2.96378
2.91999
2.87518
2.8307
2.78801
2.74855
2.71378
2.68503
2.66354
2.65034
2.6462
2.65159
2.66657
2.69073
2.7231
2.76209
2.80547
2.85038
2.89351
2.9313
2.96027
2.9774
2.98043
2.96811
2.9402
2.8974
2.8411
2.77326
2.69962
2.62257
2.54324
2.4628
2.38222
2.30225
2.22344
2.14615
2.07062
1.99697
1.92523
1.8554
1.78745
1.72132
1.65694
1.59424
1.53316
1.47362
1.41557
1.35895
1.30371
1.24981
1.1972
1.14587
1.09578
1.04691
0.999253
0.952808
0.907574
0.863562
0.820786
0.77927
0.739042
0.700138
0.662596
0.626457
0.591764
0.558556
0.526874
0.496749
0.468211
0.44128
0.415966
0.392271
0.370183
0.349677
0.330719
0.313257
0.297241
0.282634
0.269372
0.257379
0.246576
0.236881
0.228214
0.220493
0.21364
0.207578
0.202234
0.197536
0.193421
0.189825
0.186692
0.183969
0.181608
0.179564
0.177798
0.176274
0.174961
0.173828
0.172852
0.17201
0.171283
0.170653
0.170107
0.169631
0.169214
0.168848
0.168524
0.168235
0.167975
0.16774
0.167524
0.167325
0.167139
0.166965
0.166798
0.16664
0.166491
0.166354
0.166237
0.166157
0.166157
0.166261
0.166639
0.633857
1.13151
1.38011
1.52716
1.62557
1.69866
1.75428
1.79783
1.83662
1.87264
1.90479
1.93036
1.94644
1.95102
1.94381
1.92662
1.90333
1.87929
1.86038
1.85185
1.8575
1.87924
1.91718
1.97
2.03553
2.11117
2.19425
2.28222
2.37283
2.4641
2.55447
2.6427
2.72799
2.80983
2.888
2.96248
3.03332
3.10061
3.16437
3.22452
3.28089
3.33315
3.38089
3.42359
3.46069
3.49158
3.51568
3.53242
3.54131
3.5413
3.53215
3.51363
3.48563
3.4482
3.40155
3.34611
3.28255
3.21178
3.13498
3.05359
2.96931
2.88406
2.79996
2.71921
2.64408
2.57676
2.51928
2.4734
2.44049
2.42142
2.4165
2.42531
2.44665
2.4785
2.51801
2.56164
2.60535
2.64496
2.67661
2.69711
2.70434
2.69723
2.67584
2.64105
2.59672
2.5455
2.48919
2.42927
2.36695
2.3032
2.23876
2.17419
2.10986
2.04605
1.98292
1.9206
1.85914
1.79858
1.73896
1.68027
1.62252
1.5657
1.50982
1.45487
1.40086
1.34777
1.29562
1.24439
1.19409
1.14473
1.09632
1.04887
1.00238
0.956892
0.912418
0.868991
0.826646
0.785426
0.745377
0.706552
0.669006
0.632795
0.597979
0.564615
0.532755
0.502449
0.473736
0.446648
0.421203
0.397408
0.375257
0.354726
0.335782
0.318376
0.302447
0.28795
0.274818
0.262971
0.252326
0.242798
0.234303
0.226756
0.220075
0.21418
0.208996
0.204451
0.200478
0.197014
0.194002
0.191388
0.189124
0.187166
0.185476
0.184017
0.182759
0.181674
0.180737
0.179928
0.179227
0.178618
0.178088
0.177624
0.177215
0.176854
0.176532
0.176242
0.17598
0.17574
0.175518
0.17531
0.175114
0.174926
0.174746
0.174571
0.174405
0.174251
0.17412
0.174037
0.17402
0.174161
0.669625
1.30112
1.58464
1.75095
1.85223
1.91005
1.94168
1.95773
1.96451
1.96514
1.96058
1.95087
1.93621
1.91769
1.89758
1.87918
1.86635
1.86286
1.87176
1.89492
1.93292
1.98514
2.05006
2.1257
2.20984
2.30029
2.395
2.49213
2.59011
2.68767
2.78385
2.87797
2.96963
3.05863
3.14489
3.2284
3.30913
3.38699
3.46177
3.53315
3.60068
3.66377
3.72177
3.77392
3.81944
3.85751
3.88734
3.90816
3.91928
3.9194
3.90837
3.88588
3.85162
3.80539
3.74714
3.67703
3.59543
3.50299
3.40064
3.28969
3.17177
3.0489
2.92349
2.79825
2.67619
2.56044
2.45415
2.36028
2.28141
2.21955
2.17594
2.15093
2.14386
2.15309
2.17595
2.20891
2.24776
2.28794
2.32501
2.35506
2.37524
2.38367
2.37994
2.36556
2.34265
2.31297
2.27799
2.23894
2.19682
2.15242
2.10633
2.05898
2.01071
1.96176
1.9123
1.86247
1.81239
1.76215
1.71184
1.66152
1.61129
1.5612
1.51131
1.46168
1.41237
1.36343
1.31491
1.26685
1.21929
1.17227
1.12583
1.08001
1.03485
0.99039
0.946669
0.903736
0.861641
0.820441
0.780196
0.740972
0.70284
0.665872
0.630145
0.595734
0.562715
0.531157
0.501123
0.472666
0.445829
0.420639
0.397109
0.375237
0.355003
0.336375
0.319302
0.303724
0.28959
0.276824
0.265343
0.255061
0.24589
0.237743
0.230531
0.22417
0.218579
0.21368
0.209401
0.205674
0.202436
0.19963
0.197202
0.195106
0.193299
0.191743
0.190402
0.189249
0.188255
0.187398
0.186657
0.186016
0.185459
0.184972
0.184546
0.184169
0.183835
0.183535
0.183264
0.183017
0.182789
0.182576
0.182375
0.182182
0.181996
0.181816
0.181642
0.181477
0.181329
0.181215
0.181151
0.181198
0.708618
1.4106
1.72119
1.89579
1.99488
2.04522
2.06324
2.06008
2.04369
2.01963
1.99172
1.96275
1.93522
1.91173
1.89505
1.88787
1.89253
1.91063
1.94289
1.9891
2.0483
2.119
2.1994
2.28762
2.38179
2.48019
2.58125
2.68363
2.78626
2.8883
2.98916
3.08847
3.18604
3.28175
3.37554
3.46733
3.55696
3.64416
3.72855
3.80957
3.8866
3.95885
4.02549
4.0856
4.13824
4.18245
4.21729
4.24184
4.25524
4.25642
4.24529
4.2215
4.18463
4.13433
4.07036
3.99262
3.9012
3.79644
3.67895
3.54966
3.40988
3.26137
3.10634
2.94749
2.78803
2.63158
2.48208
2.34355
2.21981
2.11419
2.02913
1.96592
1.92454
1.90372
1.90109
1.91332
1.93638
1.96574
1.99686
2.02543
2.04843
2.06321
2.06961
2.06854
2.06106
2.04825
2.03108
2.01036
1.98673
1.96064
1.93244
1.90235
1.87055
1.83718
1.80235
1.76617
1.72876
1.69022
1.65067
1.61024
1.56904
1.52719
1.48481
1.44199
1.39885
1.35549
1.31199
1.26843
1.22491
1.18148
1.13823
1.09521
1.05248
1.01011
0.968167
0.926703
0.885788
0.84549
0.805884
0.767048
0.729066
0.692027
0.656024
0.62115
0.587501
0.555168
0.524237
0.494787
0.466885
0.440582
0.415917
0.392907
0.371556
0.351847
0.333747
0.317206
0.302165
0.288562
0.276319
0.265349
0.255563
0.24687
0.239178
0.232398
0.226445
0.221235
0.21669
0.212738
0.209311
0.206346
0.203787
0.201583
0.199687
0.198059
0.196661
0.195461
0.194431
0.193546
0.192784
0.192127
0.191558
0.191064
0.190632
0.190253
0.189918
0.189619
0.18935
0.189105
0.18888
0.188671
0.188473
0.188285
0.188104
0.187928
0.187757
0.187596
0.187449
0.18733
0.187255
0.18727
0.727977
1.44587
1.76823
1.95235
2.05751
2.10956
2.12458
2.11428
2.08803
2.05351
2.01681
1.98269
1.95494
1.93654
1.92981
1.93637
1.95708
1.99203
2.04063
2.10176
2.17396
2.25558
2.3449
2.44026
2.54011
2.64303
2.7478
2.85341
2.95908
3.06426
3.16856
3.27177
3.37377
3.47448
3.57381
3.67159
3.76756
3.86131
3.95233
4.03993
4.12334
4.20167
4.27395
4.33917
4.39629
4.44426
4.48205
4.50868
4.52298
4.52464
4.51355
4.48935
4.45161
4.39993
4.33397
4.25348
4.15839
4.04877
3.92494
3.78752
3.63744
3.47605
3.30514
3.12701
2.94456
2.7613
2.5813
2.40907
2.24929
2.1064
1.98421
1.88516
1.80984
1.75735
1.72555
1.71139
1.71132
1.72127
1.73715
1.75459
1.7702
1.7824
1.79048
1.79448
1.79481
1.79201
1.78659
1.77891
1.76922
1.75762
1.74413
1.72872
1.71136
1.69201
1.67068
1.64739
1.6222
1.59519
1.56647
1.53616
1.5044
1.47132
1.43707
1.40178
1.36558
1.3286
1.29096
1.25278
1.21416
1.17521
1.13601
1.09665
1.05721
1.01778
0.978431
0.939238
0.90028
0.861638
0.823396
0.785642
0.748473
0.711988
0.676294
0.641501
0.607722
0.575068
0.543649
0.513568
0.484917
0.457776
0.432208
0.408258
0.385952
0.365295
0.346273
0.328852
0.312982
0.298607
0.285654
0.274041
0.263679
0.254474
0.246333
0.239164
0.232875
0.227378
0.222591
0.218436
0.21484
0.211737
0.209065
0.20677
0.204802
0.203117
0.201676
0.200443
0.199389
0.198487
0.197715
0.197051
0.196479
0.195985
0.195556
0.195181
0.194851
0.194558
0.194296
0.194059
0.193842
0.193641
0.193453
0.193273
0.193101
0.192935
0.192775
0.192623
0.192487
0.192377
0.192309
0.19232
0.730215
1.42273
1.74588
1.9365
2.05048
2.11122
2.13326
2.12781
2.10466
2.07249
2.03871
2.00922
1.98841
1.97931
1.98376
2.00259
2.03579
2.0827
2.1422
2.21287
2.29313
2.38139
2.47605
2.57564
2.67878
2.78427
2.89111
2.99848
3.10578
3.21261
3.31869
3.42389
3.52812
3.63131
3.73331
3.83394
3.93284
4.02957
4.12352
4.21396
4.30003
4.3808
4.45523
4.52226
4.58079
4.62969
4.66789
4.69434
4.7079
4.70883
4.69703
4.6722
4.634
4.58204
4.51596
4.43548
4.34042
4.23071
4.10648
3.96808
3.81616
3.65173
3.47615
3.29123
3.09932
2.90342
2.70724
2.51513
2.33192
2.16258
2.01205
1.88417
1.78
1.69894
1.63908
1.5976
1.57175
1.55854
1.55389
1.55458
1.55789
1.56191
1.56553
1.56827
1.57008
1.57107
1.57135
1.57096
1.5698
1.56766
1.5643
1.55945
1.55287
1.54438
1.53382
1.52111
1.50624
1.48923
1.47013
1.44903
1.42605
1.40132
1.37496
1.34712
1.31792
1.28752
1.25603
1.22359
1.1903
1.15629
1.12167
1.08652
1.05095
1.01505
0.978895
0.942583
0.906196
0.86982
0.833546
0.797468
0.761689
0.726317
0.691466
0.657258
0.623821
0.591283
0.559773
0.529417
0.500333
0.472627
0.446391
0.421697
0.398598
0.377124
0.357284
0.339065
0.322431
0.307334
0.293712
0.281488
0.270574
0.260879
0.252308
0.244764
0.238154
0.232384
0.227367
0.223021
0.219268
0.216037
0.213262
0.210886
0.208855
0.207122
0.205645
0.204386
0.203315
0.202402
0.201624
0.200958
0.200388
0.199898
0.199475
0.199107
0.198785
0.198501
0.198248
0.19802
0.197813
0.197622
0.197444
0.197275
0.197114
0.196959
0.196812
0.196674
0.196551
0.196455
0.196401
0.19642
0.712924
1.35801
1.6725
1.86591
1.98943
2.06321
2.09948
2.10799
2.09778
2.07743
2.05464
2.03572
2.02542
2.02682
2.04161
2.07036
2.11275
2.16791
2.23459
2.31134
2.39663
2.48894
2.58678
2.68876
2.79365
2.90034
3.00794
3.11574
3.22323
3.33005
3.43602
3.54099
3.6449
3.74768
3.84918
3.94919
4.04738
4.14326
4.23625
4.3256
4.41046
4.4899
4.5629
4.62836
4.68519
4.73221
4.76829
4.79224
4.80343
4.80221
4.78859
4.76243
4.72346
4.67139
4.60591
4.52676
4.43372
4.32666
4.20556
4.07059
3.92215
3.76113
3.5886
3.40585
3.2147
3.01757
2.81755
2.61849
2.42484
2.24114
2.07254
1.92516
1.79957
1.69548
1.61134
1.54498
1.49427
1.45713
1.4313
1.41436
1.40387
1.39777
1.39453
1.3932
1.39328
1.39448
1.39659
1.39933
1.40238
1.40533
1.40777
1.40927
1.40949
1.4081
1.40489
1.39968
1.39237
1.38294
1.37138
1.35773
1.34206
1.32447
1.30504
1.2839
1.26116
1.23694
1.21136
1.18454
1.15658
1.12761
1.09772
1.06702
1.0356
1.00356
0.97099
0.937969
0.904587
0.870932
0.837096
0.803173
0.769266
0.735485
0.701948
0.668784
0.636127
0.604118
0.572902
0.542624
0.513423
0.485431
0.458768
0.433535
0.409812
0.387659
0.36711
0.348175
0.330839
0.315068
0.300811
0.287999
0.276552
0.266379
0.257386
0.249475
0.242548
0.23651
0.231267
0.226734
0.222827
0.219472
0.216599
0.214145
0.212055
0.210277
0.208767
0.207485
0.206399
0.205477
0.204695
0.204029
0.203462
0.202976
0.202559
0.202198
0.201885
0.201609
0.201365
0.201147
0.200949
0.200768
0.200599
0.20044
0.20029
0.200146
0.200011
0.199886
0.199778
0.199697
0.199658
0.199688
0.679988
1.26698
1.56671
1.75977
1.89197
1.98029
2.03444
2.06217
2.07096
2.06836
2.06152
2.05663
2.0585
2.07043
2.09429
2.13076
2.17967
2.24025
2.31138
2.39171
2.47981
2.57423
2.67358
2.77654
2.88188
2.98855
3.09566
3.20255
3.30873
3.41387
3.51775
3.62026
3.72132
3.82085
3.91874
4.01478
4.10868
4.20001
4.28822
4.37264
4.45248
4.52687
4.59484
4.65538
4.70741
4.7498
4.78135
4.8008
4.80796
4.80323
4.78674
4.75844
4.71822
4.66588
4.60121
4.524
4.43405
4.33121
4.2154
4.08655
3.94459
3.79084
3.62621
3.45149
3.26805
3.07777
2.88318
2.68753
2.49475
2.30927
2.1357
1.97796
1.83808
1.71632
1.61174
1.52312
1.44966
1.39083
1.34575
1.3128
1.2898
1.27445
1.26484
1.2595
1.25745
1.25797
1.2605
1.26449
1.26943
1.27478
1.28003
1.28473
1.28848
1.29095
1.2919
1.29114
1.28855
1.28406
1.27764
1.26928
1.25902
1.2469
1.23298
1.21733
1.20004
1.18118
1.16084
1.13913
1.11613
1.09194
1.06664
1.04032
1.01308
0.984997
0.956153
0.926629
0.896506
0.865866
0.834795
0.80338
0.77172
0.739921
0.708097
0.676375
0.644893
0.613797
0.58324
0.553382
0.52438
0.496387
0.469547
0.44399
0.419826
0.397143
0.376004
0.356444
0.338474
0.322078
0.307221
0.293844
0.281876
0.271232
0.26182
0.253541
0.246296
0.239987
0.234517
0.229794
0.225732
0.222252
0.219279
0.216747
0.214595
0.212772
0.211228
0.209923
0.208821
0.207889
0.207102
0.206435
0.205869
0.205386
0.204974
0.204619
0.204311
0.204042
0.203805
0.203594
0.203403
0.203229
0.203068
0.202917
0.202775
0.202641
0.202515
0.202401
0.202305
0.202237
0.202211
0.202252
0.639819
1.16163
1.44427
1.63458
1.77365
1.87577
1.94837
1.99713
2.02764
2.04583
2.0577
2.06883
2.08387
2.10627
2.1382
2.18074
2.2341
2.29785
2.37114
2.45284
2.54169
2.63636
2.73554
2.83799
2.9426
3.04793
3.15312
3.25759
3.36086
3.46256
3.56244
3.66037
3.75623
3.84996
3.94145
4.03053
4.11696
4.20039
4.28037
4.35633
4.42759
4.49341
4.55294
4.60528
4.64949
4.68453
4.70929
4.72248
4.72429
4.71503
4.6949
4.66396
4.62221
4.56955
4.50588
4.43104
4.3449
4.24733
4.13827
4.01774
3.88589
3.7432
3.59025
3.42778
3.25683
3.07888
2.89589
2.71046
2.52581
2.34566
2.17384
2.01353
1.86656
1.73329
1.61334
1.50676
1.4145
1.33782
1.27714
1.2315
1.19884
1.17665
1.1626
1.15476
1.15164
1.15211
1.15523
1.1602
1.1663
1.1729
1.17946
1.18553
1.19074
1.19483
1.19759
1.1989
1.19865
1.1968
1.19331
1.18818
1.18141
1.17302
1.16302
1.15146
1.13837
1.12379
1.10779
1.09042
1.07173
1.0518
1.03069
1.00846
0.985192
0.960942
0.935782
0.909778
0.882998
0.85551
0.827389
0.79871
0.769561
0.740035
0.710239
0.680292
0.650325
0.620484
0.590925
0.561813
0.533318
0.505608
0.478851
0.453198
0.428789
0.40574
0.384143
0.364064
0.345539
0.328576
0.313156
0.299239
0.286764
0.275655
0.265823
0.257173
0.249604
0.243017
0.237312
0.232393
0.228169
0.224557
0.221479
0.218863
0.216647
0.214774
0.213193
0.211861
0.21074
0.209795
0.208999
0.208328
0.20776
0.207277
0.206866
0.206513
0.206209
0.205943
0.20571
0.205503
0.205316
0.205146
0.204989
0.204843
0.204706
0.204577
0.204457
0.204351
0.204263
0.204204
0.204187
0.204234
0.640652
1.05782
1.31801
1.50305
1.64661
1.76037
1.84987
1.91893
1.97128
2.01112
2.04296
2.07138
2.10054
2.13396
2.17403
2.22199
2.27859
2.34388
2.41741
2.49837
2.58574
2.67837
2.77507
2.87463
2.97588
3.07768
3.1791
3.27945
3.37813
3.47472
3.56889
3.66045
3.74924
3.83516
3.91811
3.99795
4.07449
4.14749
4.21658
4.28134
4.34124
4.39569
4.44402
4.48552
4.51941
4.54488
4.56102
4.56675
4.56238
4.54814
4.52422
4.49074
4.44778
4.39533
4.33335
4.26176
4.18045
4.08932
3.98831
3.87741
3.7567
3.62644
3.48698
3.3389
3.18298
3.02034
2.85251
2.6815
2.50983
2.3404
2.17607
2.01907
1.87048
1.73051
1.59955
1.47935
1.37298
1.28339
1.21198
1.1581
1.1196
1.09372
1.07774
1.06936
1.06669
1.06821
1.07264
1.07893
1.08621
1.09377
1.10103
1.1076
1.11319
1.11762
1.12077
1.12259
1.12307
1.12219
1.11996
1.1164
1.11151
1.1053
1.09778
1.08895
1.07882
1.06741
1.05474
1.04081
1.02567
1.00933
0.991844
0.973242
0.953569
0.932869
0.911186
0.88857
0.865067
0.84073
0.815614
0.789778
0.763292
0.736234
0.708694
0.680778
0.652606
0.624313
0.596052
0.567987
0.540292
0.513147
0.486732
0.46122
0.436775
0.413539
0.391636
0.371158
0.352174
0.334712
0.318779
0.304353
0.291388
0.27982
0.269568
0.260541
0.25264
0.245765
0.239814
0.234688
0.230292
0.226539
0.223347
0.22064
0.218352
0.216423
0.2148
0.213435
0.212289
0.211327
0.210518
0.209838
0.209263
0.208777
0.208363
0.208008
0.207703
0.207437
0.207203
0.206995
0.206809
0.206639
0.206482
0.206337
0.206201
0.206073
0.205957
0.205853
0.205769
0.205715
0.205703
0.205752
0.620936
0.952665
1.19412
1.37364
1.51975
1.6425
1.74629
1.83335
1.90587
1.96653
2.01839
2.06478
2.109
2.15403
2.20224
2.25531
2.31435
2.37987
2.4519
2.53006
2.61369
2.70191
2.79371
2.88803
2.98378
3.07992
3.17553
3.26982
3.36212
3.45191
3.53879
3.62246
3.70272
3.7794
3.85239
3.92156
3.98677
4.04784
4.10453
4.15654
4.20351
4.24501
4.28059
4.30973
4.33188
4.34647
4.35288
4.35038
4.33933
4.3199
4.29225
4.25652
4.21282
4.16117
4.10157
4.03396
3.95825
3.87433
3.78211
3.68154
3.57263
3.45549
3.33037
3.19766
3.05797
2.91214
2.76132
2.60703
2.45109
2.29545
2.1418
1.99112
1.84358
1.69947
1.5606
1.43098
1.31579
1.21916
1.14277
1.08577
1.04571
1.01955
1.00431
0.997412
0.996663
1.00024
1.00664
1.01462
1.02318
1.03158
1.03929
1.04596
1.05139
1.0555
1.05827
1.05975
1.06
1.05906
1.05701
1.05389
1.04972
1.04454
1.03835
1.03114
1.02291
1.01366
1.00336
0.992008
0.979609
0.96616
0.951668
0.936142
0.919597
0.902053
0.883531
0.864054
0.84365
0.822347
0.800179
0.777187
0.753416
0.728925
0.703784
0.678079
0.651912
0.625405
0.598697
0.571944
0.54532
0.519005
0.493188
0.468057
0.443794
0.420567
0.398523
0.377787
0.358453
0.340578
0.324192
0.309298
0.295868
0.283854
0.273184
0.263776
0.255534
0.248359
0.242149
0.236802
0.232222
0.228316
0.224998
0.22219
0.219821
0.217828
0.216154
0.21475
0.213574
0.212588
0.211761
0.211066
0.210481
0.209986
0.209564
0.209204
0.208893
0.208622
0.208384
0.208172
0.207981
0.207808
0.207648
0.207499
0.207361
0.207231
0.207113
0.207009
0.206926
0.206871
0.20686
0.206907
0.5995
0.86309
1.07864
1.25
1.39614
1.52475
1.63914
1.74091
1.83117
1.91118
1.98251
2.04714
2.10726
2.16507
2.22261
2.2816
2.34337
2.40885
2.47851
2.55247
2.63049
2.7121
2.79659
2.88315
2.97087
3.05885
3.14621
3.23215
3.31595
3.39703
3.47489
3.54915
3.61951
3.68575
3.74772
3.80527
3.8583
3.90666
3.95021
3.98878
4.02215
4.05006
4.07226
4.08843
4.09829
4.10153
4.09788
4.08718
4.06971
4.04557
4.01487
3.97771
3.93416
3.88425
3.82797
3.76523
3.69595
3.61997
3.53718
3.44746
3.35077
3.24714
3.13671
3.01976
2.89672
2.76822
2.63507
2.49824
2.35877
2.2175
2.07469
1.93002
1.7832
1.63556
1.49126
1.35687
1.23897
1.14185
1.0666
1.01172
0.974354
0.951225
0.939221
0.935585
0.937947
0.944306
0.953004
0.962715
0.972436
0.98145
0.9893
0.995731
1.00065
1.00406
1.00605
1.00673
1.00623
1.00467
1.00217
0.998806
0.994642
0.989719
0.984057
0.977658
0.970512
0.962602
0.953903
0.944391
0.93404
0.922829
0.91074
0.897758
0.883873
0.86908
0.853375
0.836758
0.819232
0.800804
0.781484
0.761286
0.740236
0.718365
0.695721
0.672365
0.648378
0.623861
0.598934
0.57374
0.548441
0.523215
0.498252
0.473746
0.449892
0.426878
0.404874
0.384035
0.364474
0.34628
0.329512
0.314198
0.300333
0.287886
0.276802
0.267005
0.25841
0.25092
0.244433
0.238848
0.234065
0.229989
0.226531
0.223608
0.221146
0.219077
0.217343
0.215892
0.214677
0.213661
0.21281
0.212095
0.211493
0.210984
0.210551
0.21018
0.20986
0.20958
0.209334
0.209114
0.208916
0.208735
0.208568
0.208413
0.208268
0.208134
0.208011
0.207903
0.207816
0.207759
0.207743
0.207785
0.614574
0.809374
0.99333
1.15298
1.29553
1.42575
1.54597
1.65722
1.75992
1.85438
1.94113
2.02099
2.09511
2.16484
2.23166
2.297
2.36214
2.42816
2.49582
2.5656
2.63767
2.71193
2.78806
2.86555
2.94376
3.02198
3.09946
3.17549
3.24936
3.32048
3.3883
3.45238
3.51236
3.56797
3.61897
3.66522
3.70658
3.74295
3.77423
3.80032
3.82112
3.83653
3.84641
3.85067
3.8492
3.84194
3.82889
3.81056
3.78713
3.75864
3.72518
3.68681
3.64357
3.59546
3.54242
3.48436
3.42114
3.3526
3.27858
3.19893
3.11355
3.02244
2.92566
2.82339
2.71591
2.60359
2.48682
2.3659
2.24081
2.11099
1.97528
1.83261
1.6836