/*--------------------------------*- C++ -*----------------------------------*\
  =========                 |
  \\      /  F ield         | OpenFOAM: The Open Source CFD Toolbox
   \\    /   O peration     | Website:  https://openfoam.org
    \\  /    A nd           | Version:  9
     \\/     M anipulation  |
\*---------------------------------------------------------------------------*/
FoamFile
{
    format      ascii;
    class       volScalarField;
    location    "0.02";
    object      nut;
}
// * * * * * * * * * * * * * * * * * * * * * * * * * * * * * * * * * * * * * //

dimensions      [0 2 -1 0 0 0 0];

internalField   nonuniform List<scalar> 
12225
(
4.04724e-05
3.83067e-05
3.62352e-05
3.44049e-05
3.29425e-05
3.19015e-05
3.12836e-05
3.10575e-05
3.11735e-05
3.15748e-05
3.2205e-05
3.3013e-05
3.39556e-05
3.49992e-05
3.61217e-05
3.73115e-05
3.85985e-05
4.05671e-05
0.000280999
0.000209074
0.000176013
0.000157161
0.000145979
0.000139399
0.000135517
0.000133174
0.000131684
0.000130659
0.000129884
0.000129246
0.000128691
0.000128195
0.000127762
0.000127376
0.0001272
0.000126716
0.000556098
0.000419757
0.000349422
0.000304104
0.00027154
0.000246777
0.000227239
0.000211436
0.00019846
0.000187705
0.000178731
0.000171197
0.000164826
0.000159387
0.000154691
0.000150536
0.000146792
0.000142908
0.000740307
0.000625667
0.000543702
0.000484244
0.000438585
0.000401956
0.000371558
0.000345651
0.000323148
0.000303348
0.000285775
0.000270072
0.000255954
0.000243164
0.000231461
0.00022056
0.000210177
0.000199751
0.000817058
0.00075901
0.000700163
0.000647828
0.000602667
0.000563764
0.000529949
0.000500158
0.000473551
0.000449501
0.000427542
0.000407309
0.000388505
0.00037086
0.000354109
0.000337938
0.000321995
0.000305869
0.000842094
0.000819604
0.000789655
0.000757034
0.000724558
0.000693619
0.000664739
0.000637964
0.000613134
0.000590023
0.000568396
0.000548029
0.000528702
0.000510195
0.000492274
0.000474656
0.000457018
0.000439174
0.00084926
0.000841766
0.000829589
0.000813835
0.000795824
0.000776682
0.000757219
0.000737936
0.000719102
0.000700842
0.000683187
0.000666108
0.000649536
0.000633364
0.000617455
0.000601625
0.000585663
0.000569576
0.000851122
0.000848731
0.000844405
0.000838049
0.000829874
0.000820251
0.00080958
0.000798213
0.000786425
0.000774415
0.000762315
0.000750203
0.000738113
0.000726036
0.000713933
0.000701724
0.000689311
0.00067682
0.000851564
0.000850662
0.000849137
0.000846796
0.000843552
0.000839417
0.000834472
0.000828834
0.000822626
0.00081596
0.000808934
0.000801623
0.00079408
0.000786333
0.000778392
0.00077024
0.000761853
0.000753382
0.000851657
0.000851136
0.000850456
0.000849522
0.000848255
0.000846603
0.000844543
0.000842078
0.00083923
0.00083603
0.000832512
0.000828712
0.000824659
0.000820377
0.00081588
0.000811175
0.000806263
0.000801263
0.000851674
0.000851236
0.000850776
0.00085026
0.000849654
0.000848924
0.000848045
0.000846998
0.000845774
0.00084437
0.00084279
0.000841041
0.00083913
0.000837068
0.000834863
0.000832519
0.000830045
0.000827509
0.000851675
0.000851252
0.000850839
0.000850423
0.000849992
0.000849532
0.000849029
0.000848471
0.000847848
0.000847153
0.000846384
0.00084554
0.000844622
0.000843634
0.000842578
0.000841459
0.000840281
0.000839083
0.000851674
0.000851253
0.00085085
0.00085046
0.00085008
0.000849705
0.00084933
0.000848949
0.000848558
0.000848154
0.000847736
0.000847303
0.000846856
0.000846396
0.000845927
0.000845451
0.000844972
0.000844508
0.000851673
0.000851251
0.000850849
0.000850466
0.000850099
0.000849747
0.000849409
0.000849084
0.000848772
0.000848471
0.000848184
0.000847912
0.000847656
0.00084742
0.000847206
0.000847018
0.000846858
0.000846737
0.000851671
0.000851249
0.000850847
0.000850464
0.000850101
0.000849755
0.000849427
0.000849117
0.000848825
0.000848553
0.000848303
0.000848077
0.000847877
0.000847707
0.00084757
0.000847468
0.000847405
0.000847388
0.00085167
0.000851246
0.000850844
0.000850462
0.0008501
0.000849757
0.000849433
0.000849128
0.000848844
0.00084858
0.00084834
0.000848125
0.000847936
0.000847778
0.000847651
0.000847558
0.000847503
0.00084749
0.000851669
0.000851244
0.000850841
0.00085046
0.000850099
0.000849759
0.000849438
0.000849138
0.000848858
0.0008486
0.000848364
0.000848152
0.000847966
0.000847806
0.000847675
0.000847573
0.000847502
0.00084747
0.000851667
0.000851241
0.000850838
0.000850458
0.000850099
0.000849761
0.000849444
0.000849148
0.000848873
0.000848619
0.000848388
0.000848178
0.000847993
0.00084783
0.000847693
0.000847579
0.000847492
0.000847439
0.000851665
0.000851239
0.000850835
0.000850455
0.000850098
0.000849764
0.000849451
0.000849159
0.000848889
0.00084864
0.000848413
0.000848206
0.000848021
0.000847857
0.000847713
0.000847591
0.00084749
0.000847418
0.000851664
0.000851237
0.000850834
0.000850456
0.000850101
0.00084977
0.000849461
0.000849174
0.000848909
0.000848664
0.000848439
0.000848234
0.000848049
0.000847883
0.000847735
0.000847605
0.000847493
0.000847408
0.000851664
0.000851236
0.000850835
0.000850459
0.000850107
0.000849779
0.000849472
0.000849187
0.000848922
0.000848675
0.000848447
0.000848236
0.000848041
0.000847861
0.000847696
0.000847545
0.000847409
0.000847296
0.000851664
0.000851237
0.000850836
0.000850459
0.000850103
0.000849764
0.000849438
0.000849124
0.000848818
0.000848518
0.000848221
0.000847928
0.000847637
0.000847347
0.000847059
0.000846772
0.000846489
0.00084622
0.000851663
0.000851228
0.000850802
0.000850371
0.000849917
0.000849426
0.000848889
0.000848298
0.000847651
0.000846949
0.000846193
0.000845387
0.000844538
0.000843652
0.000842736
0.000841796
0.000840841
0.000839891
0.000851633
0.000851075
0.00085036
0.00084941
0.000848173
0.000846632
0.000844793
0.000842682
0.000840334
0.000837793
0.000835105
0.000832309
0.000829443
0.000826538
0.000823611
0.000820686
0.000817786
0.000814951
0.000851286
0.000849607
0.000846773
0.000842705
0.000837507
0.000831388
0.000824594
0.000817356
0.000809871
0.000802293
0.000794741
0.000787302
0.000780039
0.000772993
0.000766199
0.000759673
0.00075342
0.000747481
0.000848323
0.000839474
0.000826318
0.000810352
0.000792934
0.000775104
0.000757555
0.000740685
0.000724688
0.00070964
0.000695549
0.000682385
0.000670095
0.000658623
0.000647906
0.000637887
0.000628512
0.000619781
0.000828579
0.000789012
0.000746412
0.000706341
0.000670409
0.000638802
0.00061114
0.000586863
0.00056543
0.000546382
0.000529347
0.000514021
0.000500158
0.000487559
0.000476061
0.000465527
0.000455848
0.000446966
0.000730863
0.000627724
0.0005551
0.000501864
0.000461342
0.000429616
0.000404165
0.000383282
0.000365818
0.000350995
0.000338262
0.000327216
0.000317557
0.00030905
0.000301513
0.000294799
0.000288787
0.000283392
0.000439367
0.000338574
0.000288093
0.000257096
0.000236649
0.000222842
0.000213353
0.000206685
0.000201878
0.00019832
0.000195613
0.000193495
0.000191788
0.000190374
0.000189171
0.000188124
0.000187194
0.000186334
7.16387e-05
6.90469e-05
6.65344e-05
6.41423e-05
6.19616e-05
6.00457e-05
5.84147e-05
5.7066e-05
5.5983e-05
5.5141e-05
5.45125e-05
5.40696e-05
5.37855e-05
5.36357e-05
5.35978e-05
5.36524e-05
5.37828e-05
5.39734e-05
7.76466e-05
6.8861e-05
7.23227e-05
7.43999e-05
7.56142e-05
7.62771e-05
7.65754e-05
7.66249e-05
7.6494e-05
7.62122e-05
7.5783e-05
7.53074e-05
7.52295e-05
7.55265e-05
7.62383e-05
7.74389e-05
7.91767e-05
8.14046e-05
8.3968e-05
8.63853e-05
8.82384e-05
8.92453e-05
8.93507e-05
8.91686e-05
9.24747e-05
9.72969e-05
0.000102715
0.000108216
0.000113496
0.000118394
0.000122842
0.000126828
0.000130369
0.000133495
0.000136244
0.000138655
0.000140763
0.000142601
0.000144201
0.000145589
0.000146789
0.000147823
0.000148709
0.000149467
0.000150111
0.000150657
0.00015112
0.000151512
0.000151848
0.000152139
0.000152425
0.00015266
0.000152853
0.000153014
0.000153149
0.000153265
0.000153367
0.00015346
0.000153546
0.00015363
0.000153713
0.000153796
0.000153879
0.000153962
0.00015404
0.00015411
0.000154165
0.000154196
0.00015419
0.000154133
0.000154006
0.000153786
0.00015345
0.000152966
0.000152306
0.000151436
0.000150328
0.000148954
0.000147295
0.00014534
0.000143088
0.000140549
0.000137743
0.000134688
0.000131391
0.000127843
0.000124109
0.000121608
0.000119627
0.00011773
0.000115867
0.000114036
0.000112238
0.000110479
0.00010876
0.000107083
0.000105447
0.00010385
0.000102292
0.000100768
9.92774e-05
9.78167e-05
9.63835e-05
9.49754e-05
9.359e-05
9.22252e-05
9.08794e-05
8.95512e-05
8.82394e-05
8.69436e-05
8.56637e-05
8.44001e-05
8.3154e-05
8.19273e-05
8.07226e-05
7.95434e-05
7.83938e-05
7.72787e-05
7.62034e-05
7.5174e-05
7.41967e-05
7.32767e-05
7.24166e-05
7.16129e-05
7.08585e-05
7.01497e-05
6.94856e-05
6.88653e-05
6.8288e-05
6.77521e-05
6.72554e-05
6.67953e-05
6.6369e-05
6.59734e-05
6.56059e-05
6.52636e-05
6.49441e-05
6.46452e-05
6.43649e-05
6.41013e-05
6.3853e-05
6.36184e-05
6.33964e-05
6.31858e-05
6.29855e-05
6.27947e-05
6.26123e-05
6.24377e-05
6.227e-05
6.21086e-05
6.19528e-05
6.18019e-05
6.16555e-05
6.15129e-05
6.13737e-05
6.12374e-05
6.11034e-05
6.09715e-05
6.0841e-05
6.07117e-05
6.0583e-05
6.04545e-05
6.03258e-05
6.01963e-05
6.00655e-05
5.99326e-05
5.97969e-05
5.96574e-05
5.95127e-05
5.93613e-05
5.9201e-05
5.90289e-05
5.88411e-05
5.86318e-05
5.83929e-05
5.81117e-05
5.777e-05
5.73286e-05
5.67635e-05
5.58259e-05
0.000135406
0.000217921
0.00028113
0.000328203
0.000361203
0.000382725
0.000395541
0.000402237
0.000404958
0.000405268
0.000404099
0.000401199
0.000394144
0.000387063
0.000382199
0.000380222
0.000380272
0.000380376
0.000378539
0.000375676
0.000370985
0.000364745
0.000357574
0.000350259
0.000343702
0.000338458
0.000334923
0.000333376
0.000334071
0.000337224
0.000342989
0.000351439
0.000362559
0.000376242
0.000392301
0.000410475
0.00043045
0.000451872
0.000474366
0.000497552
0.000521054
0.00054451
0.000567572
0.000589912
0.000611219
0.000631199
0.000649576
0.000666092
0.000680531
0.000692769
0.00070202
0.000710725
0.000719141
0.00072739
0.000735592
0.000743872
0.000752358
0.000761177
0.000770455
0.000780312
0.000790858
0.000802193
0.000814401
0.000827548
0.000841675
0.000856794
0.000872881
0.000889869
0.000907642
0.000926022
0.000944768
0.000963571
0.000982055
0.000999781
0.00101627
0.00103103
0.00104356
0.00105342
0.00106025
0.00106379
0.0010639
0.00106051
0.00105364
0.00104326
0.00102923
0.00101113
0.000988717
0.00096484
0.000940448
0.000915806
0.000891133
0.000866601
0.000842333
0.000818413
0.000794891
0.000771794
0.000749128
0.000726886
0.000705053
0.000683608
0.000662525
0.000641777
0.000621336
0.000601175
0.000581268
0.000561587
0.000542109
0.000522811
0.000503674
0.000484679
0.000465814
0.000447068
0.000428438
0.000409926
0.000391542
0.000373304
0.000355239
0.000337385
0.00031979
0.000302508
0.000285597
0.000269093
0.000252922
0.000236757
0.000220998
0.000206071
0.000192219
0.000179617
0.00016827
0.0001581
0.00014903
0.000140979
0.000133864
0.000127602
0.000122114
0.000117323
0.000113157
0.000109548
0.000106431
0.000103751
0.000101452
9.94863e-05
9.78107e-05
9.63857e-05
9.51763e-05
9.41515e-05
9.3284e-05
9.25498e-05
9.19278e-05
9.14e-05
9.09505e-05
9.05658e-05
9.02342e-05
8.99457e-05
8.96919e-05
8.94656e-05
8.92606e-05
8.9072e-05
8.88952e-05
8.87267e-05
8.85635e-05
8.84027e-05
8.82421e-05
8.80796e-05
8.7913e-05
8.77404e-05
8.75594e-05
8.73676e-05
8.71617e-05
8.69377e-05
8.66902e-05
8.6412e-05
8.6093e-05
8.5719e-05
8.5269e-05
8.47168e-05
8.40092e-05
8.31667e-05
8.18791e-05
8.15886e-05
0.000170158
0.000276713
0.000374603
0.000450237
0.000502145
0.000533688
0.000549927
0.000555924
0.000555794
0.000552168
0.000546222
0.00053783
0.000528367
0.000520521
0.000515271
0.000511907
0.000509041
0.000504982
0.000498554
0.000489725
0.000479423
0.000469317
0.000461255
0.000456896
0.000457541
0.000464089
0.000477124
0.000496975
0.000523718
0.000557135
0.000596681
0.000641479
0.000690371
0.000742011
0.000794987
0.000847947
0.0008997
0.000949272
0.000995935
0.00103919
0.00107874
0.00111444
0.00114626
0.00117427
0.00119859
0.00121937
0.0012368
0.00125111
0.00126255
0.00127141
0.00127821
0.00128371
0.00128818
0.00129184
0.00129494
0.00129775
0.00130056
0.00130364
0.00130728
0.00131175
0.00131733
0.00132423
0.00133268
0.00134283
0.00135481
0.00136872
0.00138457
0.00140232
0.00142186
0.001443
0.00146545
0.00148884
0.00151268
0.00153641
0.00155938
0.0015809
0.00160028
0.00161685
0.00163001
0.00163929
0.00164433
0.00164493
0.001641
0.00163251
0.00161952
0.00160206
0.00158054
0.00155657
0.00153105
0.00150442
0.001477
0.00144904
0.00142073
0.00139219
0.00136353
0.00133482
0.00130608
0.00127733
0.00124859
0.00121986
0.00119112
0.00116236
0.00113357
0.00110474
0.00107586
0.0010469
0.00101787
0.000988738
0.000959509
0.000930174
0.000900731
0.000871182
0.000841537
0.000811812
0.000782029
0.000752222
0.000722434
0.000692718
0.00066314
0.000633771
0.000604689
0.000575964
0.000547632
0.000519695
0.000492264
0.000465508
0.000439554
0.000414347
0.000390046
0.000366938
0.000345267
0.000325167
0.000306635
0.000289652
0.00027418
0.000260162
0.00024753
0.000236203
0.000226097
0.000217122
0.000209184
0.000202193
0.000196059
0.000190694
0.000186018
0.000181952
0.000178425
0.000175371
0.000172728
0.000170443
0.000168466
0.000166753
0.000165265
0.000163967
0.000162829
0.000161825
0.000160932
0.000160128
0.000159398
0.000158726
0.000158098
0.000157503
0.00015693
0.000156369
0.000155811
0.000155244
0.000154659
0.000154044
0.000153382
0.000152656
0.000151841
0.000150904
0.000149801
0.000148466
0.0001468
0.000144664
0.000141795
0.000137903
0.000131996
0.00012421
0.000191298
0.00030519
0.000444542
0.000543997
0.000604268
0.000634506
0.000644593
0.000643079
0.00063625
0.000627616
0.000618483
0.000609883
0.000602288
0.000595678
0.000589533
0.00058304
0.000575492
0.000566756
0.00055759
0.000549631
0.000544995
0.000545876
0.000554178
0.000571323
0.000598186
0.000635081
0.000681747
0.000737362
0.000800572
0.000869601
0.000942408
0.00101689
0.00109105
0.00116317
0.00123187
0.00129615
0.00135536
0.00140917
0.00145747
0.00150035
0.001538
0.00157068
0.00159867
0.00162225
0.00164169
0.00165724
0.00166911
0.00167752
0.00168267
0.00168463
0.00168391
0.00168083
0.00167563
0.00166858
0.00165998
0.00165018
0.00163957
0.00162857
0.00161763
0.00160722
0.00159777
0.00158975
0.00158355
0.00157955
0.00157807
0.00157937
0.00158365
0.00159102
0.00160151
0.00161505
0.00163146
0.00165046
0.00167164
0.00169447
0.00171833
0.00174249
0.0017662
0.00178867
0.00180915
0.00182695
0.00184146
0.00185222
0.00185887
0.00186119
0.00185906
0.00185235
0.00184135
0.00182752
0.00181148
0.0017936
0.00177419
0.00175348
0.00173164
0.00170883
0.00168514
0.00166065
0.00163542
0.00160948
0.00158286
0.00155558
0.00152766
0.00149912
0.00146996
0.00144021
0.00140986
0.00137893
0.00134745
0.00131541
0.00128285
0.00124978
0.00121623
0.00118223
0.00114782
0.00111305
0.00107797
0.00104264
0.00100715
0.000971576
0.000936021
0.000900592
0.000865402
0.000830569
0.000796205
0.000762419
0.000729328
0.000697058
0.000665722
0.000635406
0.000606196
0.000578164
0.000551289
0.000525612
0.000501343
0.000478626
0.000457463
0.000437843
0.000419738
0.000403109
0.000387903
0.000374061
0.000361515
0.000350189
0.000340008
0.000330888
0.000322749
0.000315507
0.000309083
0.000303397
0.000298373
0.00029394
0.000290031
0.000286583
0.000283539
0.000280845
0.000278455
0.000276326
0.000274419
0.0002727
0.00027114
0.000269711
0.000268389
0.000267154
0.000265986
0.000264866
0.000263779
0.000262707
0.000261631
0.000260532
0.000259388
0.000258171
0.000256845
0.000255363
0.000253661
0.000251648
0.000249187
0.000246074
0.00024195
0.000236298
0.00022782
0.000215493
4.17588e-05
0.000267367
0.000496263
0.000625874
0.000691533
0.000718242
0.000722435
0.000715473
0.000703267
0.000689701
0.000676822
0.000665194
0.000654636
0.000644769
0.000635335
0.000626442
0.00061876
0.000613611
0.000612876
0.000618724
0.000633238
0.000658099
0.000694349
0.000742262
0.000801321
0.000870277
0.000947294
0.00103014
0.00111643
0.0012038
0.00129013
0.00137364
0.00145293
0.00152702
0.00159532
0.00165754
0.00171363
0.00176376
0.00180816
0.00184716
0.00188105
0.00191013
0.00193465
0.0019548
0.00197072
0.00198252
0.00199027
0.00199404
0.00199388
0.00198966
0.0019817
0.00197015
0.00195515
0.00193691
0.00191567
0.00189178
0.00186565
0.00183776
0.00180867
0.00177899
0.0017494
0.00172058
0.00169324
0.00166806
0.00164571
0.00162677
0.00161176
0.00160111
0.0015951
0.00159392
0.0015976
0.00160603
0.00161895
0.00163593
0.00165643
0.00167976
0.00170515
0.00173174
0.00175866
0.00178503
0.00181
0.00183277
0.00185266
0.00186907
0.00188151
0.00188904
0.00189289
0.00189375
0.00189198
0.00188783
0.0018815
0.00187313
0.00186287
0.00185084
0.0018371
0.00182174
0.00180483
0.0017864
0.00176651
0.0017452
0.00172252
0.00169851
0.00167319
0.00164663
0.00161885
0.0015899
0.00155982
0.00152865
0.00149645
0.00146326
0.00142914
0.00139415
0.00135836
0.00132185
0.00128469
0.00124699
0.00120886
0.00117043
0.00113181
0.00109317
0.00105465
0.00101642
0.000978642
0.000941475
0.000905085
0.000869625
0.000835242
0.000802061
0.000770189
0.000739707
0.000710662
0.000683074
0.000656918
0.000632181
0.000609006
0.000587401
0.000567333
0.000548755
0.000531614
0.000515849
0.000501397
0.00048819
0.00047616
0.000465237
0.000455348
0.000446422
0.000438389
0.000431175
0.000424713
0.000418933
0.000413771
0.000409162
0.000405047
0.00040137
0.000398079
0.000395126
0.000392466
0.00039006
0.000387871
0.000385868
0.00038402
0.0003823
0.000380686
0.000379154
0.000377682
0.000376251
0.000374839
0.000373422
0.000371975
0.000370467
0.000368861
0.000367107
0.00036514
0.000362866
0.000360151
0.000356793
0.00035246
0.000346642
0.000338256
0.000326234
4.34691e-05
0.000320378
0.00056796
0.000707215
0.000774866
0.000799477
0.00079897
0.000785038
0.000766023
0.000746505
0.000728499
0.0007126
0.000698889
0.000687517
0.000679008
0.000674376
0.00067511
0.000683033
0.00070005
0.000727834
0.000767517
0.000819464
0.000883181
0.000957364
0.00104008
0.00112899
0.00122165
0.00131566
0.00140887
0.0014995
0.00158614
0.00166776
0.00174373
0.00181372
0.00187763
0.00193559
0.00198783
0.00203464
0.00207634
0.00211323
0.00214553
0.00217341
0.00219699
0.00221628
0.00223129
0.00224194
0.00224817
0.00224988
0.002247
0.00223918
0.00222655
0.00220912
0.00218691
0.00215998
0.00212848
0.00209262
0.00205273
0.00200923
0.00196267
0.00191369
0.00186308
0.0018117
0.00176053
0.0017106
0.00166298
0.00161872
0.00157883
0.00154421
0.00151562
0.00149363
0.00147862
0.00147073
0.00146989
0.0014758
0.00148802
0.00150591
0.00152872
0.00155558
0.00158555
0.00161762
0.00165075
0.00168381
0.00171581
0.00174578
0.00177172
0.00179432
0.00181404
0.00183103
0.00184532
0.00185696
0.00186597
0.00187238
0.00187625
0.0018776
0.00187648
0.00187294
0.00186702
0.00185878
0.00184828
0.00183558
0.00182073
0.00180382
0.0017849
0.00176404
0.00174131
0.00171678
0.00169053
0.00166262
0.00163313
0.00160213
0.00156971
0.00153596
0.00150096
0.00146482
0.00142766
0.00138959
0.00135075
0.0013113
0.0012714
0.00123122
0.00119095
0.0011508
0.00111097
0.00107168
0.00103312
0.000995494
0.000958999
0.000923801
0.000890046
0.000857854
0.000827309
0.000798462
0.000771323
0.000745865
0.000722021
0.000699841
0.000679299
0.000660323
0.000642834
0.000626747
0.000611975
0.000598434
0.000586043
0.000574723
0.0005644
0.000555006
0.000546472
0.000538737
0.000531738
0.000525416
0.000519713
0.000514575
0.000509947
0.000505779
0.000502022
0.00049863
0.00049556
0.000492772
0.000490231
0.000487902
0.000485755
0.000483761
0.000481896
0.000480135
0.000478456
0.000476836
0.000475253
0.000473684
0.000472104
0.000470483
0.000468785
0.000466964
0.000464962
0.000462696
0.000460051
0.00045686
0.000452857
0.000447642
0.000440463
0.000430635
4.88774e-05
0.000377044
0.000636009
0.000781033
0.000850913
0.000873626
0.000869014
0.000850526
0.000826824
0.000802949
0.000781493
0.000763698
0.000750321
0.000742165
0.000740309
0.000746128
0.000761155
0.000786854
0.000824344
0.000874143
0.000935997
0.00100886
0.001091
0.00118024
0.00127418
0.00137046
0.00146694
0.00156176
0.00165344
0.00174087
0.00182329
0.00190025
0.00197157
0.00203725
0.00209748
0.00215251
0.00220264
0.00224817
0.00228936
0.00232639
0.00235938
0.00238836
0.00241328
0.00243402
0.00245044
0.00246233
0.00246948
0.00247167
0.00246871
0.00246007
0.00244574
0.00242565
0.00239969
0.00236779
0.00232993
0.00228618
0.00223671
0.00218178
0.0021218
0.00205732
0.00198904
0.00191784
0.00184479
0.00177112
0.00169819
0.0016275
0.00156059
0.00149897
0.00144404
0.00139696
0.00135863
0.00132958
0.00130998
0.0012997
0.00129836
0.00130541
0.00132017
0.00134179
0.00136934
0.00140177
0.00143802
0.0014766
0.0015165
0.0015547
0.00159162
0.00162713
0.00166095
0.00169279
0.00172238
0.00174948
0.00177389
0.00179546
0.00181406
0.00182964
0.00184213
0.00185153
0.00185785
0.00186111
0.00186138
0.00185871
0.00185317
0.00184486
0.00183385
0.00182025
0.00180413
0.0017856
0.00176475
0.00174168
0.00171648
0.00168925
0.0016601
0.00162913
0.00159646
0.00156221
0.00152651
0.0014895
0.00145134
0.0014122
0.00137226
0.00133174
0.00129083
0.00124978
0.00120883
0.00116822
0.0011282
0.00108902
0.00105091
0.0010141
0.000978774
0.000945103
0.000913217
0.000883208
0.000855124
0.000828971
0.000804705
0.000782248
0.000761596
0.00074266
0.000725333
0.000709498
0.000695037
0.000681834
0.000669779
0.000658771
0.00064872
0.000639545
0.000631172
0.000623539
0.000616587
0.000610262
0.000604514
0.000599297
0.000594565
0.000590274
0.000586383
0.000582851
0.00057964
0.000576715
0.000574042
0.000571588
0.000569326
0.000567228
0.000565268
0.000563424
0.000561672
0.000559993
0.000558363
0.000556761
0.000555164
0.000553542
0.000551866
0.000550095
0.000548178
0.000546047
0.000543611
0.000540736
0.000537228
0.000532799
0.000526963
0.00051937
5.0428e-05
0.000404585
0.000680483
0.000834183
0.000908663
0.000934033
0.000930478
0.000911772
0.000887125
0.000862374
0.000841007
0.000825102
0.00081608
0.000815166
0.000823578
0.000842503
0.000872945
0.000915517
0.000970252
0.0010365
0.00111294
0.00119773
0.00128869
0.00138355
0.00148014
0.00157654
0.00167113
0.00176263
0.0018501
0.00193291
0.00201071
0.00208336
0.00215092
0.00221357
0.00227158
0.00232524
0.00237484
0.00242063
0.00246277
0.00250136
0.00253639
0.00256777
0.00259534
0.00261887
0.00263808
0.00265266
0.00266229
0.00266662
0.00266533
0.00265785
0.00264413
0.002624
0.00259728
0.00256377
0.00252334
0.0024759
0.00242146
0.00236011
0.00229207
0.00221773
0.00213761
0.00205244
0.00196317
0.00187099
0.00177732
0.00168385
0.00159247
0.00150519
0.00142407
0.00135099
0.00128757
0.00123489
0.0011935
0.00116346
0.00114449
0.00113609
0.00113771
0.00114861
0.00116792
0.00119459
0.00122789
0.00126529
0.00130524
0.0013471
0.00139027
0.00143408
0.00147789
0.00152104
0.00156293
0.00160304
0.00164089
0.00167607
0.00170828
0.00173726
0.00176284
0.0017849
0.00180337
0.00181824
0.00182953
0.00183728
0.00184156
0.00184245
0.00184005
0.00183445
0.00182577
0.00181412
0.00179961
0.00178234
0.00176244
0.00174002
0.0017152
0.0016881
0.00165885
0.00162757
0.00159442
0.00155954
0.0015231
0.00148529
0.00144631
0.00140636
0.0013657
0.00132456
0.00128321
0.00124194
0.00120102
0.00116074
0.00112139
0.00108324
0.00104652
0.00101145
0.000978231
0.000946989
0.000917823
0.000890778
0.00086585
0.000842983
0.000822092
0.000803115
0.000785923
0.000770373
0.000756315
0.0007436
0.000732082
0.000721631
0.000712128
0.000703471
0.000695572
0.000688359
0.000681767
0.000675744
0.000670243
0.000665222
0.000660643
0.000656468
0.000652663
0.000649194
0.000646029
0.000643137
0.000640488
0.000638054
0.000635809
0.000633728
0.000631788
0.000629965
0.00062824
0.000626593
0.000625003
0.00062345
0.000621912
0.000620364
0.00061878
0.000617126
0.000615358
0.000613424
0.000611251
0.000608739
0.000605748
0.00060208
0.000597433
0.000591663
5.09651e-05
0.00041262
0.000700506
0.000864355
0.000947288
0.00097968
0.000981719
0.000967276
0.000945971
0.000924355
0.000906753
0.000895987
0.000893966
0.000902079
0.000921372
0.000952549
0.00099589
0.00105114
0.00111747
0.00119348
0.00127737
0.00136709
0.00146053
0.0015557
0.00165082
0.00174441
0.00183529
0.0019226
0.00200574
0.00208436
0.00215832
0.00222767
0.00229256
0.00235324
0.00241001
0.00246315
0.00251292
0.00255951
0.00260301
0.00264345
0.00268074
0.0027147
0.0027451
0.00277163
0.00279392
0.00281157
0.00282416
0.00283127
0.00283232
0.00282699
0.00281514
0.00279657
0.00277101
0.0027382
0.0026979
0.00264991
0.0025941
0.00253043
0.00245895
0.00237986
0.00229351
0.00220045
0.00210143
0.00199746
0.00188982
0.0017801
0.00167024
0.00156245
0.00145918
0.00136293
0.0012761
0.00120055
0.0011373
0.00108669
0.00104858
0.00102251
0.00100815
0.00100498
0.0010122
0.00102874
0.00105284
0.00108335
0.00111924
0.00115963
0.00120366
0.00125047
0.00129916
0.00134887
0.00139873
0.00144794
0.00149575
0.00154151
0.00158468
0.00162482
0.00166157
0.0016947
0.00172403
0.00174947
0.00177097
0.00178854
0.00180221
0.00181205
0.00181815
0.0018206
0.00181951
0.00181499
0.00180716
0.00179613
0.00178204
0.001765
0.00174513
0.00172257
0.00169744
0.00166989
0.00164005
0.00160809
0.00157418
0.00153849
0.00150124
0.00146265
0.00142295
0.00138241
0.00134131
0.00129995
0.00125865
0.00121771
0.00117746
0.00113822
0.00110028
0.0010639
0.00102934
0.000996778
0.000966369
0.000938208
0.000912333
0.000888726
0.000867311
0.000848013
0.000830699
0.000815214
0.000801382
0.000789024
0.000777964
0.000768038
0.000759095
0.000751006
0.000743661
0.000736971
0.00073086
0.000725271
0.000720153
0.000715466
0.000711175
0.000707248
0.000703656
0.00070037
0.000697364
0.000694611
0.000692087
0.000689765
0.000687624
0.00068564
0.000683793
0.000682063
0.00068043
0.000678876
0.000677382
0.00067593
0.000674501
0.000673074
0.000671625
0.000670126
0.000668543
0.000666833
0.000664941
0.000662795
0.000660297
0.000657314
0.000653662
0.000649313
5.11512e-05
0.000407344
0.000701516
0.000874655
0.000967617
0.00100993
0.00102119
0.00101493
0.00100082
0.000985808
0.000974773
0.000971072
0.000976934
0.000993777
0.00102239
0.00106301
0.00111532
0.00117848
0.00125117
0.00133173
0.00141824
0.00150876
0.00160143
0.00169458
0.00178678
0.00187686
0.00196396
0.00204744
0.00212689
0.00220211
0.00227308
0.00233991
0.0024028
0.00246201
0.00251783
0.00257054
0.00262034
0.00266741
0.00271179
0.00275348
0.00279233
0.00282815
0.00286066
0.00288948
0.00291422
0.00293442
0.00294958
0.0029592
0.00296256
0.00295956
0.00295
0.00293363
0.00291016
0.00287927
0.00284065
0.00279401
0.0027391
0.00267577
0.00260393
0.00252363
0.00243507
0.00233865
0.00223495
0.00212478
0.00200921
0.00188965
0.00176787
0.00164601
0.00152658
0.00141232
0.00130624
0.00121116
0.00112857
0.00105917
0.00100304
0.000959757
0.000929249
0.000911639
0.000905433
0.000909644
0.000923236
0.00094519
0.000974521
0.00101029
0.00105156
0.00109739
0.00114682
0.00119884
0.00125243
0.0013066
0.00136041
0.00141303
0.00146369
0.0015118
0.00155686
0.00159847
0.00163637
0.00167036
0.00170033
0.00172622
0.00174803
0.00176579
0.00177955
0.00178938
0.00179539
0.00179766
0.00179632
0.00179146
0.00178321
0.00177168
0.001757
0.00173928
0.00171865
0.00169526
0.00166923
0.00164072
0.0016099
0.00157693
0.00154203
0.0015054
0.00146729
0.00142795
0.00138768
0.00134678
0.00130558
0.00126442
0.00122365
0.00118362
0.00114467
0.00110712
0.00107126
0.00103735
0.0010056
0.00097614
0.000949076
0.000924431
0.00090217
0.000882214
0.000864446
0.000848706
0.000834806
0.000822546
0.000811721
0.000802138
0.000793615
0.000785994
0.000779137
0.000772935
0.000767296
0.000762151
0.000757443
0.000753128
0.000749172
0.000745545
0.000742219
0.000739172
0.000736379
0.000733819
0.000731469
0.00072931
0.000727319
0.000725477
0.000723766
0.000722167
0.000720662
0.000719235
0.00071787
0.000716549
0.000715257
0.000713974
0.000712681
0.000711355
0.000709968
0.000708489
0.000706876
0.000705079
0.00070303
0.000700646
0.000697816
0.000694568
5.06231e-05
0.000392654
0.000687279
0.000867972
0.000971414
0.00102536
0.00104831
0.00105309
0.00104903
0.00104306
0.0010403
0.0010444
0.00105777
0.00108188
0.00111735
0.00116415
0.00122165
0.00128875
0.00136398
0.00144563
0.00153193
0.00162111
0.00171158
0.00180191
0.00189091
0.00197764
0.00206137
0.0021416
0.00221803
0.00229052
0.00235907
0.00242381
0.00248493
0.0025427
0.00259737
0.00264921
0.00269841
0.00274511
0.00278937
0.00283116
0.00287035
0.00290674
0.00294004
0.0029699
0.00299588
0.0030175
0.00303423
0.00304549
0.00305065
0.00304959
0.00304211
0.00302794
0.00300675
0.00297819
0.00294189
0.00289749
0.00284467
0.00278315
0.00271272
0.00263329
0.0025449
0.00244791
0.00234278
0.00223014
0.00211091
0.00198628
0.00185787
0.00172764
0.00159797
0.00147142
0.00135105
0.00124124
0.00114337
0.00105853
0.000987204
0.000929404
0.000884994
0.000853698
0.000834989
0.000828162
0.000832305
0.000846387
0.000869349
0.000900157
0.0009378
0.000981267
0.00102952
0.00108148
0.00113604
0.00119213
0.00124871
0.00130481
0.0013596
0.00141236
0.00146251
0.00150957
0.00155319
0.00159311
0.00162917
0.00166125
0.00168929
0.00171329
0.00173326
0.00174924
0.0017613
0.00176951
0.00177396
0.00177473
0.00177193
0.00176566
0.00175601
0.0017431
0.00172705
0.00170796
0.00168597
0.00166121
0.00163383
0.001604
0.00157189
0.00153771
0.00150169
0.00146407
0.00142514
0.00138521
0.00134459
0.00130366
0.00126277
0.0012223
0.00118262
0.00114411
0.00110709
0.00107189
0.00103876
0.00100792
0.000979499
0.000953591
0.000930205
0.00090929
0.000890748
0.000874425
0.000860136
0.000847668
0.000836799
0.000827309
0.000818989
0.000811653
0.000805136
0.000799304
0.000794047
0.00078928
0.000784935
0.000780964
0.000777326
0.000773991
0.000770933
0.00076813
0.000765561
0.000763206
0.000761047
0.000759064
0.000757239
0.000755555
0.000753994
0.00075254
0.000751177
0.00074989
0.000748664
0.000747485
0.000746337
0.000745204
0.000744071
0.000742919
0.000741726
0.000740469
0.000739118
0.000737637
0.000735986
0.000734111
0.000731952
0.000729562
4.94968e-05
0.000371224
0.000661239
0.000847595
0.000961271
0.00102755
0.0010635
0.00108099
0.00108871
0.00109324
0.00109961
0.00111153
0.00113155
0.00116119
0.00120112
0.00125124
0.0013109
0.00137899
0.00145411
0.00153467
0.00161907
0.00170577
0.00179336
0.0018806
0.00196646
0.00205006
0.0021308