/*--------------------------------*- C++ -*----------------------------------*\
  =========                 |
  \\      /  F ield         | OpenFOAM: The Open Source CFD Toolbox
   \\    /   O peration     | Website:  https://openfoam.org
    \\  /    A nd           | Version:  9
     \\/     M anipulation  |
\*---------------------------------------------------------------------------*/
FoamFile
{
    format      ascii;
    class       volScalarField;
    location    "0.02";
    object      p;
}
// * * * * * * * * * * * * * * * * * * * * * * * * * * * * * * * * * * * * * //

dimensions      [0 2 -2 0 0 0 0];

internalField   nonuniform List<scalar> 
12225
(
-1.68799
-3.96611
-5.10527
-5.37509
-5.49524
-5.59266
-5.64185
-5.64023
-5.60309
-5.53826
-5.44446
-5.31756
-5.1525
-4.94135
-4.67184
-4.31932
-3.88768
-3.27901
-5.16849
-5.85696
-5.91999
-5.74545
-5.6565
-5.663
-5.66895
-5.64501
-5.59554
-5.5235
-5.42574
-5.29729
-5.13278
-4.92459
-4.66236
-4.32807
-3.92711
-3.40323
-5.36742
-5.25148
-5.38505
-5.47189
-5.52996
-5.59159
-5.62547
-5.61894
-5.58066
-5.51654
-5.42547
-5.30363
-5.14661
-4.94826
-4.70102
-4.39433
-4.03754
-3.61991
-5.23116
-5.14268
-5.39529
-5.53759
-5.58289
-5.61986
-5.64159
-5.6313
-5.59221
-5.5289
-5.44031
-5.32295
-5.17311
-4.98628
-4.75792
-4.48425
-4.1771
-3.84602
-5.24155
-5.24901
-5.46527
-5.57863
-5.60637
-5.63169
-5.6491
-5.63893
-5.60139
-5.54058
-5.456
-5.34486
-5.20444
-5.03202
-4.82595
-4.58727
-4.3284
-4.06479
-5.30761
-5.34044
-5.49457
-5.58932
-5.6201
-5.64435
-5.66004
-5.6508
-5.61578
-5.5586
-5.47932
-5.37599
-5.24694
-5.09117
-4.9094
-4.70574
-4.49255
-4.28674
-5.37305
-5.40319
-5.51654
-5.60368
-5.64019
-5.66322
-5.67642
-5.66804
-5.63621
-5.58369
-5.511
-5.41706
-5.30125
-5.16404
-5.00797
-4.83886
-4.66864
-4.51321
-5.43357
-5.45946
-5.54756
-5.62633
-5.6647
-5.68604
-5.69731
-5.69039
-5.66261
-5.61588
-5.55116
-5.46823
-5.36739
-5.25031
-5.12072
-4.98525
-4.85487
-4.74323
-5.49269
-5.51584
-5.58547
-5.65394
-5.69191
-5.71253
-5.72308
-5.71833
-5.69539
-5.65556
-5.60013
-5.52963
-5.44519
-5.3493
-5.24636
-5.14312
-5.04924
-4.97591
-5.5516
-5.57212
-5.62736
-5.68578
-5.72258
-5.74339
-5.7543
-5.75233
-5.73497
-5.70306
-5.65808
-5.60122
-5.53419
-5.46002
-5.38333
-5.31052
-5.24983
-5.21018
-5.61041
-5.62814
-5.67244
-5.72221
-5.75747
-5.77899
-5.7912
-5.79271
-5.78164
-5.75856
-5.72503
-5.68268
-5.63367
-5.58125
-5.52996
-5.48555
-5.45484
-5.44483
-5.66434
-5.6797
-5.71654
-5.75983
-5.79359
-5.81613
-5.83035
-5.83577
-5.83109
-5.81679
-5.79444
-5.76592
-5.73361
-5.70076
-5.67162
-5.65123
-5.64523
-5.65913
-5.71774
-5.73116
-5.76235
-5.80048
-5.83298
-5.85689
-5.87377
-5.88366
-5.88582
-5.88071
-5.86986
-5.85527
-5.8394
-5.82537
-5.81701
-5.81863
-5.83483
-5.86984
-5.77876
-5.79046
-5.81703
-5.85092
-5.88258
-5.90852
-5.92925
-5.94502
-5.95557
-5.96143
-5.96404
-5.96539
-5.96787
-5.9743
-5.98797
-6.01236
-6.05099
-6.1069
-5.84797
-5.8583
-5.88159
-5.91266
-5.94439
-5.97337
-5.99937
-6.02266
-6.04335
-6.06199
-6.07991
-6.09893
-6.12119
-6.14909
-6.18524
-6.23224
-6.29261
-6.36834
-5.92559
-5.93511
-5.95671
-5.98682
-6.02008
-6.05347
-6.0864
-6.11901
-6.15157
-6.18463
-6.21932
-6.25715
-6.29984
-6.34926
-6.40729
-6.47571
-6.55612
-6.64965
-6.01099
-6.02043
-6.04211
-6.07349
-6.11026
-6.14984
-6.19147
-6.23516
-6.28112
-6.3298
-6.38204
-6.43891
-6.50165
-6.5715
-6.64965
-6.73713
-6.8348
-6.9431
-6.10154
-6.11178
-6.13544
-6.17052
-6.21315
-6.26095
-6.31304
-6.36926
-6.42965
-6.4944
-6.56399
-6.63902
-6.7202
-6.80819
-6.90357
-7.00675
-7.11803
-7.23739
-6.19009
-6.20226
-6.23012
-6.27167
-6.32288
-6.3811
-6.44529
-6.51509
-6.59027
-6.67069
-6.75639
-6.84755
-6.94438
-7.04705
-7.15564
-7.27015
-7.39046
-7.51627
-6.24473
-6.2593
-6.29253
-6.34194
-6.40249
-6.47078
-6.54555
-6.62639
-6.71293
-6.80473
-6.90154
-7.00328
-7.1099
-7.22129
-7.33731
-7.4577
-7.5822
-7.71037
-6.26728
-6.28396
-6.32242
-6.37963
-6.44879
-6.52544
-6.60837
-6.6974
-6.79196
-6.89137
-6.99529
-7.10355
-7.216
-7.3324
-7.45246
-7.57585
-7.70222
-7.8311
-6.26891
-6.28746
-6.3319
-6.3985
-6.4767
-6.5607
-6.65051
-6.74646
-6.84754
-6.95275
-7.06177
-7.17454
-7.29086
-7.41043
-7.53289
-7.65788
-7.78502
-7.91383
-6.25504
-6.2743
-6.32538
-6.40399
-6.4921
-6.5826
-6.67813
-6.77984
-6.8861
-6.9957
-7.10852
-7.22457
-7.3436
-7.46528
-7.58927
-7.71519
-7.84268
-7.97124
-6.23036
-6.24883
-6.30786
-6.39989
-6.49726
-6.59426
-6.69609
-6.80314
-6.91322
-7.02578
-7.14119
-7.2595
-7.38034
-7.50335
-7.62822
-7.75462
-7.88215
-8.01035
-6.19693
-6.21192
-6.28994
-6.39587
-6.49497
-6.59549
-6.70473
-6.81804
-6.93173
-7.04658
-7.16391
-7.28379
-7.40577
-7.52953
-7.6548
-7.78131
-7.9087
-8.03653
-6.15754
-6.14249
-6.27063
-6.40542
-6.50021
-6.59607
-6.7078
-6.8248
-6.94088
-7.05749
-7.17638
-7.29748
-7.42031
-7.54457
-7.6701
-7.79663
-7.92384
-8.0513
-6.1529
-6.01826
-6.19678
-6.3898
-6.50795
-6.61046
-6.72358
-6.83959
-6.95441
-7.07044
-7.18913
-7.31005
-7.43259
-7.55651
-7.68162
-7.80766
-7.93435
-8.06125
-6.30143
-6.02169
-6.07541
-6.23573
-6.39094
-6.5403
-6.68318
-6.81427
-6.93795
-7.06036
-7.18361
-7.30763
-7.43229
-7.55768
-7.68379
-7.81046
-7.9377
-8.06548
-6.24799
-6.75144
-6.77707
-6.64506
-6.59997
-6.66496
-6.76745
-6.87219
-6.97885
-7.0907
-7.20697
-7.32595
-7.4468
-7.56918
-7.69275
-7.81707
-7.94191
-8.06862
-2.89882
-4.78166
-5.87221
-6.1924
-6.36177
-6.54
-6.70024
-6.83531
-6.95952
-7.08251
-7.20611
-7.32999
-7.45421
-7.579
-7.70423
-7.82936
-7.9535
-8.07421
-8.78247
-8.78488
-8.86209
-9.01105
-9.20959
-9.4375
-9.67895
-9.9209
-10.1527
-10.366
-10.5541
-10.7132
-10.8495
-10.9659
-11.0677
-11.1608
-11.2521
-11.3483
-11.4555
-11.5793
-11.7234
-11.8902
-12.0819
-12.3023
-12.561
-12.8735
-13.2585
-13.7354
-14.3213
-15.0274
-15.8559
-16.7994
-17.8416
-18.9591
-20.1238
-21.3061
-22.4767
-23.6089
-24.6793
-25.6689
-26.5624
-27.3488
-28.0203
-28.572
-29.0012
-29.3082
-29.4964
-29.5713
-29.5344
-29.3796
-29.1006
-28.6951
-28.1768
-27.5541
-26.8337
-26.0206
-25.1192
-24.133
-23.0649
-21.9172
-20.6915
-19.3885
-18.0085
-16.5511
-15.0158
-13.4019
-11.7093
-9.9388
-8.0929
-6.17642
-4.19723
-2.16684
-0.100742
1.9816
4.05715
6.10027
8.08406
9.98204
11.7699
13.4272
14.9382
16.2929
17.4871
18.5216
19.4024
20.1404
20.7509
21.2465
21.6325
21.922
22.1285
22.264
22.3398
22.3655
22.3497
22.3
22.2227
22.1232
22.0064
21.8761
21.7357
21.588
21.4356
21.2805
21.1242
20.9683
20.8139
20.6619
20.5132
20.3683
20.2278
20.092
19.9611
19.8354
19.715
19.5999
19.4902
19.3858
19.2867
19.1928
19.1043
19.0214
18.9451
18.8691
18.7956
18.7251
18.6583
18.5952
18.5359
18.4801
18.4279
18.3791
18.3335
18.2909
18.2512
18.2143
18.1799
18.1478
18.118
18.0902
18.0642
18.04
18.0174
17.9962
17.9763
17.9577
17.9401
17.9235
17.9079
17.893
17.8789
17.8654
17.8526
17.8403
17.8286
17.8174
17.8066
17.7963
17.7865
17.7772
17.7685
17.7604
17.7531
17.7466
17.7413
17.7372
17.7349
17.7346
17.7371
17.7431
17.7537
17.7704
17.7952
17.8309
17.8816
17.9533
18.0558
18.1998
18.4187
18.678
-9.02338
-9.02913
-9.12956
-9.29376
-9.48894
-9.69983
-9.9165
-10.1303
-10.3346
-10.5248
-10.6981
-10.8489
-10.9632
-11.0422
-11.0938
-11.1298
-11.162
-11.2008
-11.2529
-11.3246
-11.4232
-11.5567
-11.7341
-11.9627
-12.2454
-12.5951
-13.0363
-13.5938
-14.286
-15.1203
-16.0912
-17.1806
-18.3609
-19.599
-20.8605
-22.1127
-23.3268
-24.4785
-25.5488
-26.5231
-27.3908
-28.1443
-28.7786
-29.2903
-29.6776
-29.9395
-30.0753
-30.0855
-29.974
-29.7462
-29.4162
-28.993
-28.4721
-27.8541
-27.1422
-26.3402
-25.4519
-24.4809
-23.4301
-22.3021
-21.0987
-19.8209
-18.469
-17.0428
-15.5414
-13.9641
-12.3101
-10.5793
-8.77334
-6.89567
-4.95273
-2.95448
-0.914895
1.14787
3.2118
5.25189
7.24139
9.15352
10.9633
12.6493
14.1948
15.5887
16.8258
17.9061
18.8341
19.618
20.2658
20.7896
21.2039
21.522
21.7565
21.9192
22.021
22.0713
22.0788
22.0507
21.9935
21.9128
21.8132
21.6988
21.5731
21.439
21.2991
21.1554
21.0097
20.8635
20.718
20.5743
20.4332
20.2953
20.1613
20.0314
19.9061
19.7855
19.6698
19.5591
19.4534
19.3527
19.257
19.1662
19.0802
18.9983
18.9187
18.8446
18.774
18.707
18.6435
18.5835
18.5266
18.4729
18.4223
18.3748
18.3303
18.2886
18.2496
18.2132
18.1793
18.1476
18.118
18.0904
18.0646
18.0404
18.0179
17.9967
17.9768
17.9582
17.9406
17.924
17.9083
17.8933
17.8792
17.8657
17.8528
17.8405
17.8287
17.8174
17.8066
17.7962
17.7864
17.777
17.7682
17.76
17.7526
17.746
17.7405
17.7362
17.7336
17.7331
17.7352
17.7406
17.7505
17.7661
17.7894
17.8229
17.8704
17.9367
18.0303
18.1584
18.347
18.5588
-9.13495
-9.17542
-9.28255
-9.43303
-9.60735
-9.79396
-9.98447
-10.1718
-10.3504
-10.5157
-10.6639
-10.791
-10.893
-10.9688
-11.021
-11.0562
-11.0844
-11.1179
-11.1707
-11.2564
-11.3902
-11.5896
-11.8742
-12.2611
-12.7596
-13.3724
-14.0979
-14.9299
-15.8576
-16.866
-17.9365
-19.0491
-20.1834
-21.3202
-22.4417
-23.5319
-24.577
-25.5644
-26.4834
-27.3242
-28.0787
-28.7395
-29.3008
-29.7578
-30.107
-30.3458
-30.4722
-30.4834
-30.3777
-30.1622
-29.8377
-29.4106
-28.8844
-28.2625
-27.5488
-26.7472
-25.8619
-24.8965
-23.8545
-22.7387
-21.5512
-20.2933
-18.9654
-17.5673
-16.0977
-14.5553
-12.9383
-11.2458
-9.47749
-7.63528
-5.72373
-3.75103
-1.72966
0.323277
2.38621
4.43384
6.43856
8.37223
10.2083
11.9237
13.5004
14.9264
16.1957
17.3078
18.2667
19.081
19.7604
20.3166
20.7628
21.1116
21.3755
21.5661
21.6941
21.769
21.7995
21.7929
21.7557
21.6935
21.6112
21.5127
21.4018
21.2813
21.154
21.0219
20.887
20.7508
20.6145
20.4793
20.3461
20.2155
20.0881
19.9645
19.8449
19.7296
19.6187
19.5125
19.4108
19.3138
19.2214
19.1335
19.05
18.9706
18.8949
18.8234
18.7552
18.6901
18.6282
18.5693
18.5136
18.4612
18.4118
18.3655
18.322
18.2813
18.2432
18.2076
18.1744
18.1433
18.1143
18.0872
18.0619
18.0382
18.0159
17.9951
17.9755
17.9571
17.9397
17.9232
17.9076
17.8929
17.8788
17.8654
17.8525
17.8403
17.8285
17.8172
17.8064
17.796
17.7861
17.7767
17.7679
17.7596
17.7521
17.7453
17.7396
17.7352
17.7323
17.7314
17.733
17.7378
17.7468
17.7612
17.7827
17.8135
17.8569
17.9168
17.9992
18.1079
18.2555
18.3975
-8.98458
-9.06128
-9.17824
-9.32229
-9.48418
-9.65486
-9.82892
-10.001
-10.1669
-10.3233
-10.4663
-10.593
-10.7024
-10.7958
-10.8783
-10.9588
-11.0503
-11.1695
-11.3355
-11.5675
-11.8824
-12.2925
-12.8045
-13.4181
-14.1269
-14.9197
-15.7834
-16.7044
-17.67
-18.6689
-19.691
-20.7267
-21.7664
-22.8004
-23.8183
-24.8096
-25.7632
-26.6681
-27.5137
-28.29
-28.9875
-29.5981
-30.1144
-30.5308
-30.8426
-31.0467
-31.1413
-31.1251
-30.9987
-30.7645
-30.425
-29.9834
-29.4435
-28.8091
-28.0847
-27.2746
-26.3834
-25.4154
-24.3744
-23.2638
-22.0858
-20.8422
-19.5335
-18.159
-16.7172
-15.2055
-13.621
-11.9607
-10.2223
-8.40511
-6.51124
-4.54668
-2.52231
-0.454578
1.63448
3.71794
5.76555
7.74596
9.62936
11.3899
13.0075
14.4689
15.7677
16.9037
17.8825
18.7144
19.4104
19.9827
20.4443
20.8083
21.0871
21.2925
21.4351
21.5245
21.569
21.576
21.552
21.5024
21.4321
21.3452
21.2452
21.1351
21.0176
20.8948
20.7686
20.6405
20.512
20.384
20.2576
20.1334
20.012
19.8939
19.7795
19.669
19.5627
19.4607
19.363
19.2696
19.1806
19.0958
19.0151
18.9383
18.865
18.7954
18.7292
18.6663
18.6066
18.55
18.4965
18.4461
18.3986
18.3539
18.3119
18.2726
18.2357
18.2012
18.1689
18.1387
18.1104
18.0839
18.0591
18.0359
18.0141
17.9936
17.9743
17.9561
17.9389
17.9226
17.9072
17.8925
17.8785
17.8652
17.8524
17.8402
17.8284
17.8171
17.8063
17.7959
17.7859
17.7764
17.7675
17.7591
17.7514
17.7445
17.7385
17.7337
17.7304
17.729
17.7299
17.7338
17.7415
17.7542
17.7732
17.8006
17.8387
17.8905
17.9597
18.0467
18.154
18.2393
-8.51312
-8.61656
-8.76944
-8.92865
-9.08731
-9.24746
-9.40929
-9.57174
-9.73327
-9.89113
-10.0441
-10.1927
-10.3392
-10.489
-10.651
-10.8378
-11.0645
-11.3472
-11.7007
-12.1361
-12.6587
-13.2676
-13.9565
-14.7155
-15.5332
-16.3989
-17.3033
-18.2384
-19.1977
-20.1753
-21.1652
-22.1609
-23.1553
-24.1403
-25.1072
-26.0464
-26.9482
-27.8026
-28.5995
-29.3296
-29.9838
-30.5541
-31.0332
-31.4152
-31.6954
-31.8701
-31.9369
-31.8948
-31.7443
-31.487
-31.1254
-30.6628
-30.103
-29.4503
-28.7094
-27.8853
-26.983
-26.0073
-24.9627
-23.8531
-22.6815
-21.4499
-20.159
-18.8082
-17.3952
-15.9167
-14.3679
-12.7435
-11.0383
-9.24844
-7.3724
-5.41298
-3.37869
-1.28488
0.845779
2.98391
5.09526
7.1436
9.09411
10.9166
12.5881
14.0937
15.4267
16.5884
17.5869
18.4333
19.1398
19.7207
20.1902
20.5619
20.8488
21.0627
21.2143
21.313
21.3672
21.384
21.3698
21.3299
21.2691
21.1915
21.1005
20.9991
20.8899
20.7751
20.6565
20.5357
20.414
20.2926
20.1723
20.054
19.9381
19.8252
19.7157
19.6098
19.5078
19.4098
19.3158
19.226
19.1402
19.0584
18.9804
18.9062
18.8355
18.7682
18.7043
18.6436
18.5859
18.5313
18.4796
18.4308
18.3849
18.3416
18.3009
18.2628
18.227
18.1935
18.1621
18.1327
18.1052
18.0794
18.0552
18.0325
18.0112
17.9911
17.9722
17.9543
17.9374
17.9214
17.9062
17.8917
17.8778
17.8646
17.8519
17.8397
17.828
17.8167
17.8059
17.7955
17.7855
17.7759
17.7668
17.7583
17.7504
17.7433
17.737
17.7319
17.7281
17.726
17.726
17.7288
17.735
17.7456
17.7618
17.7851
17.8173
17.8601
17.9153
17.981
18.0532
18.0963
-7.76849
-7.91778
-8.1285
-8.30968
-8.46611
-8.6172
-8.77083
-8.92944
-9.09443
-9.26795
-9.45276
-9.65292
-9.87442
-10.1254
-10.4159
-10.7569
-11.1587
-11.6295
-12.1735
-12.7909
-13.4774
-14.2259
-15.0278
-15.874
-16.7565
-17.6683
-18.6037
-19.5578
-20.5262
-21.5046
-22.4881
-23.4712
-24.4478
-25.4106
-26.3519
-27.263
-28.1348
-28.958
-29.7232
-30.4213
-31.0437
-31.5826
-32.031
-32.383
-32.634
-32.7804
-32.8199
-32.7515
-32.5757
-32.2941
-31.9093
-31.4245
-30.8438
-30.1717
-29.4135
-28.5743
-27.6599
-26.6754
-25.626
-24.5163
-23.35
-22.1295
-20.8561
-19.5294
-18.147
-16.7048
-15.1964
-13.6143
-11.9501
-10.1956
-8.34481
-6.39601
-4.35386
-2.23151
-0.0517085
2.1535
4.34483
6.47949
8.51571
10.4171
12.1565
13.7166
15.0915
16.2849
17.306
18.1673
18.8843
19.473
19.9489
20.3267
20.62
20.8409
21
21.1067
21.1693
21.1949
21.1895
21.1585
21.1066
21.0377
20.9552
20.8621
20.7609
20.6538
20.5426
20.4289
20.314
20.199
20.0848
19.9722
19.8619
19.7542
19.6496
19.5484
19.4507
19.3568
19.2667
19.1805
19.0981
19.0194
18.9444
18.873
18.8049
18.7401
18.6785
18.62
18.5645
18.5118
18.462
18.4149
18.3705
18.3287
18.2894
18.2524
18.2178
18.1853
18.1548
18.1263
18.0995
18.0744
18.0508
18.0287
18.0079
17.9883
17.9697
17.9522
17.9356
17.9199
17.9049
17.8905
17.8769
17.8638
17.8512
17.8391
17.8274
17.8161
17.8053
17.7949
17.7848
17.7752
17.766
17.7573
17.7492
17.7418
17.7352
17.7296
17.7252
17.7223
17.7214
17.7229
17.7273
17.7356
17.7486
17.7674
17.7931
17.8266
17.868
17.9137
17.9567
17.9673
-6.90515
-7.13836
-7.39161
-7.58858
-7.7477
-7.89733
-8.0509
-8.21628
-8.40017
-8.60902
-8.84926
-9.12768
-9.4515
-9.82802
-10.2639
-10.7641
-11.331
-11.9641
-12.6597
-13.4121
-14.2139
-15.0577
-15.9366
-16.8444
-17.7759
-18.7268
-19.6934
-20.6722
-21.6598
-22.6523
-23.6452
-24.6335
-25.611
-26.5708
-27.5052
-28.406
-29.2643
-30.0713
-30.8178
-31.4954
-32.0957
-32.6114
-33.0358
-33.3634
-33.5898
-33.7116
-33.7268
-33.6346
-33.4357
-33.132
-32.7259
-32.221
-31.6216
-30.9324
-30.1589
-29.307
-28.3824
-27.3911
-26.3386
-25.2302
-24.0701
-22.8615
-21.6062
-20.3043
-18.9535
-17.5496
-16.0854
-14.5514
-12.9364
-11.2279
-9.41458
-7.48873
-5.44937
-3.30552
-1.0784
1.19798
3.47883
5.71325
7.85053
9.84557
11.6658
13.2923
14.7198
15.9522
17.0006
17.8811
18.6115
19.2101
19.6941
20.0794
20.38
20.6086
20.7758
20.891
20.9625
20.9971
21.0009
20.9792
20.9364
20.8765
20.8028
20.7182
20.6252
20.526
20.4224
20.316
20.2081
20.0998
19.992
19.8854
19.7808
19.6786
19.5792
19.4828
19.3898
19.3003
19.2143
19.1319
19.053
18.9778
18.906
18.8375
18.7723
18.7102
18.6511
18.595
18.5417
18.4911
18.4432
18.398
18.3552
18.3149
18.277
18.2414
18.2079
18.1764
18.1469
18.1193
18.0933
18.0689
18.046
18.0245
18.0042
17.985
17.9669
17.9498
17.9335
17.918
17.9033
17.8892
17.8757
17.8627
17.8502
17.8382
17.8266
17.8154
17.8046
17.7941
17.784
17.7743
17.765
17.7561
17.7478
17.7401
17.733
17.7269
17.7219
17.7182
17.7161
17.7161
17.7186
17.7243
17.7338
17.7478
17.7669
17.7911
17.8193
17.847
17.8658
17.8511
-6.13661
-6.40882
-6.70067
-6.91668
-7.08449
-7.24183
-7.40757
-7.59371
-7.81095
-8.06907
-8.37671
-8.74121
-9.16837
-9.66203
-10.2236
-10.852
-11.5435
-12.2925
-13.0918
-13.9344
-14.8132
-15.7223
-16.6564
-17.6115
-18.5842
-19.5716
-20.5709
-21.5793
-22.5934
-23.6093
-24.6225
-25.6274
-26.6177
-27.5864
-28.5258
-29.4277
-30.2834
-31.0844
-31.8221
-32.4881
-33.0748
-33.575
-33.9826
-34.2924
-34.5003
-34.6032
-34.5994
-34.4882
-34.271
-33.9494
-33.5263
-33.0054
-32.3911
-31.6887
-30.9038
-30.0425
-29.1112
-28.1161
-27.0634
-25.9585
-24.8064
-23.6109
-22.3743
-21.0972
-19.778
-18.4123
-16.9931
-15.5099
-13.9493
-12.2955
-10.5319
-8.64424
-6.62418
-4.47433
-2.21199
0.12874
2.49787
4.83538
7.08011
9.17717
11.0889
12.7932
14.2818
15.5605
16.6431
17.5486
18.2977
18.9107
19.4068
19.803
20.1141
20.353
20.5306
20.6563
20.7383
20.7835
20.7978
20.7863
20.7536
20.7035
20.6393
20.5639
20.4798
20.3891
20.2937
20.1951
20.0946
19.9934
19.8923
19.7922
19.6937
19.5973
19.5033
19.4122
19.3241
19.2392
19.1576
19.0793
19.0044
18.9328
18.8645
18.7993
18.7371
18.6779
18.6216
18.568
18.5171
18.4688
18.4231
18.3797
18.3388
18.3002
18.2637
18.2295
18.1972
18.1669
18.1384
18.1117
18.0866
18.0629
18.0407
18.0198
18
17.9814
17.9637
17.947
17.9311
17.9159
17.9014
17.8876
17.8743
17.8615
17.8491
17.8372
17.8257
17.8145
17.8037
17.7932
17.783
17.7732
17.7638
17.7547
17.7461
17.7381
17.7306
17.7239
17.7181
17.7135
17.7102
17.7086
17.7091
17.7121
17.7179
17.727
17.7394
17.7545
17.7705
17.7822
17.781
17.7467
-5.59499
-5.87435
-6.17987
-6.40774
-6.58732
-6.75928
-6.94518
-7.15952
-7.41511
-7.72317
-8.09272
-8.5301
-9.03868
-9.6188
-10.2679
-10.981
-11.7515
-12.5719
-13.4347
-14.3331
-15.2614
-16.2146
-17.1891
-18.1818
-19.1902
-20.2117
-21.2438
-22.2834
-23.3269
-24.37
-25.4078
-26.4342
-27.4428
-28.4264
-29.3771
-30.2867
-31.1468
-31.949
-32.685
-33.3469
-33.9272
-34.4193
-34.8173
-35.1163
-35.3125
-35.4032
-35.3869
-35.2633
-35.0338
-34.7003
-34.2659
-33.7344
-33.1106
-32.3999
-31.6083
-30.7422
-29.8081
-28.8128
-27.7627
-26.6638
-25.5213
-24.3397
-23.1217
-21.8685
-20.579
-19.2495
-17.873
-16.439
-14.933
-13.3371
-11.6306
-9.7927
-7.80755
-5.66981
-3.39074
-1.0025
1.44123
3.87193
6.21865
8.41875
10.4245
12.2092
13.7635
15.0936
16.2161
17.1524
17.926
18.5594
19.0732
19.4854
19.8115
20.0648
20.2563
20.3957
20.4909
20.5489
20.5756
20.5761
20.555
20.516
20.4625
20.3973
20.3229
20.2416
20.155
20.0649
19.9725
19.8789
19.7851
19.6919
19.5999
19.5097
19.4217
19.3361
19.2533
19.1734
19.0965
19.0227
18.952
18.8843
18.8197
18.758
18.6992
18.6432
18.5898
18.539
18.4907
18.4448
18.4013
18.3601
18.3211
18.2842
18.2494
18.2166
18.1857
18.1566
18.1292
18.1034
18.0792
18.0564
18.0349
18.0147
17.9955
17.9774
17.9602
17.9439
17.9284
17.9135
17.8994
17.8857
17.8727
17.86
17.8478
17.836
17.8246
17.8135
17.8027
17.7922
17.782
17.772
17.7624
17.7532
17.7443
17.7359
17.7279
17.7206
17.7141
17.7084
17.7039
17.7006
17.699
17.6991
17.7012
17.7054
17.7113
17.7178
17.7224
17.7201
17.7024
17.6529
-5.31735
-5.58497
-5.87835
-6.10524
-6.29253
-6.47829
-6.68386
-6.92406
-7.21191
-7.55845
-7.97198
-8.45746
-9.0164
-9.64698
-10.3447
-11.1032
-11.9151
-12.7729
-13.6698
-14.5997
-15.5577
-16.54
-17.5434
-18.5651
-19.6027
-20.6535
-21.7148
-22.783
-23.8541
-24.9234
-25.9855
-27.0341
-28.0624
-29.0629
-30.0278
-30.9488
-31.8177
-32.6261
-33.366
-34.0296
-34.6099
-35.1004
-35.4956
-35.7908
-35.9826
-36.0683
-36.0467
-35.918
-35.6834
-35.345
-34.906
-34.3706
-33.7437
-33.0309
-32.2384
-31.3729
-30.4412
-29.4501
-28.4064
-27.3163
-26.1856
-25.0188
-23.8193
-22.5886
-21.3264
-20.0294
-18.6912
-17.3015
-15.8455
-14.304
-12.6535
-10.8686
-8.92659
-6.81457
-4.53705
-2.12324
0.372775
2.87836
5.31284
7.60379
9.69531
11.5547
13.1714
14.5527
15.7167
16.6874
17.4903
18.1494
18.6864
19.1201
19.4663
19.7386
19.9483
20.1049
20.2165
20.29
20.3316
20.3462
20.3385
20.3122
20.2707
20.217
20.1536
20.0825
20.0058
19.9249
19.8412
19.7559
19.67
19.5843
19.4994
19.4158
19.3341
19.2545
19.1773
19.1027
19.0309
18.9618
18.8956
18.8322
18.7716
18.7137
18.6585
18.6058
18.5556
18.5077
18.4622
18.419
18.3779
18.3389
18.3019
18.267
18.2339
18.2027
18.1732
18.1454
18.1192
18.0946
18.0713
18.0494
18.0287
18.0091
17.9906
17.9731
17.9564
17.9405
17.9254
17.9109
17.8971
17.8837
17.8709
17.8584
17.8464
17.8347
17.8234
17.8123
17.8015
17.791
17.7808
17.7707
17.761
17.7515
17.7423
17.7335
17.7251
17.7171
17.7098
17.7031
17.6972
17.6922
17.6884
17.6856
17.684
17.6834
17.683
17.6814
17.6759
17.6614
17.6301
17.5684
-5.26904
-5.50555
-5.76581
-5.97857
-6.16567
-6.35889
-6.57715
-6.8341
-7.14171
-7.50996
-7.94611
-8.45415
-9.03468
-9.68523
-10.4009
-11.1755
-12.002
-12.8736
-13.7842
-14.7285
-15.7021
-16.7016
-17.7237
-18.7658
-19.8251
-20.8986
-21.9831
-23.0747
-24.1689
-25.2607
-26.3441
-27.4126
-28.4593
-29.4763
-30.4559
-31.3898
-32.2696
-33.0873
-33.8348
-34.5048
-35.0901
-35.5848
-35.9833
-36.2813
-36.4755
-36.5635
-36.5441
-36.4177
-36.1856
-35.8498
-35.4139
-34.882
-34.2592
-33.5515
-32.765
-31.9066
-30.9833
-30.0021
-28.9698
-27.8928
-26.777
-25.6273
-24.4472
-23.2389
-22.0021
-20.7343
-19.4294
-18.0776
-16.6641
-15.1692
-13.568
-11.8323
-9.93451
-7.85507
-5.59176
-3.16856
-0.638528
1.92145
4.42297
6.78406
8.94225
10.8611
12.5292
13.9545
15.1568
16.1617
16.9956
17.6837
18.248
18.7076
19.0784
19.3739
19.6056
19.7828
19.914
20.0059
20.0648
20.0957
20.1033
20.0914
20.0636
20.0227
19.9713
19.9116
19.8456
19.7748
19.7007
19.6245
19.5471
19.4693
19.392
19.3156
19.2406
19.1674
19.0962
19.0273
18.9609
18.8969
18.8354
18.7766
18.7202
18.6664
18.6149
18.5658
18.519
18.4743
18.4318
18.3913
18.3528
18.3162
18.2815
18.2485
18.2173
18.1878
18.1599
18.1335
18.1086
18.085
18.0628
18.0418
18.0219
18.0031
17.9853
17.9684
17.9523
17.9369
17.9222
17.9081
17.8946
17.8815
17.8689
17.8567
17.8449
17.8333
17.8221
17.8111
17.8003
17.7898
17.7794
17.7693
17.7594
17.7497
17.7402
17.731
17.7221
17.7135
17.7053
17.6975
17.6903
17.6836
17.6775
17.6719
17.6666
17.6613
17.6549
17.6459
17.6313
17.6062
17.5636
17.4923
-5.36295
-5.55223
-5.76667
-5.95597
-6.13492
-6.32741
-6.54917
-6.81197
-7.12612
-7.50032
-7.94091
-8.45136
-9.03217
-9.68115
-10.394
-11.1652
-11.9887
-12.8585
-13.7691
-14.7157
-15.6943
-16.7012
-17.7333
-18.7874
-19.8605
-20.9493
-22.0501
-23.1586
-24.27
-25.3788
-26.4788
-27.5633
-28.6251
-29.6564
-30.6492
-31.5953
-32.4865
-33.3146
-34.0719
-34.751
-35.3452
-35.8483
-36.2552
-36.5617
-36.7644
-36.8612
-36.8511
-36.7343
-36.5121
-36.1867
-35.7616
-35.2411
-34.6304
-33.9355
-33.1627
-32.3189
-31.4112
-30.4465
-29.4317
-28.3734
-27.2773
-26.1486
-24.9908
-23.8061
-22.5947
-21.3543
-20.0793
-18.7602
-17.3826
-15.9261
-14.3651
-12.6695
-10.8083
-8.75691
-6.50795
-4.08166
-1.53109
1.0628
3.60588
6.01025
8.20954
10.1658
11.8679
13.3249
14.5576
15.5923
16.456
17.1736
17.7669
18.2548
18.6529
18.9746
19.231
19.4317
19.5849
19.6976
19.7759
19.8251
19.8497
19.8539
19.8411
19.8144
19.7762
19.729
19.6747
19.615
19.5512
19.4847
19.4164
19.3473
19.278
19.2093
19.1415
19.075
19.0103
18.9474
18.8866
18.828
18.7717
18.7176
18.6657
18.6161
18.5687
18.5234
18.4801
18.4388
18.3994
18.3619
18.3261
18.292
18.2597
18.2289
18.1996
18.1719
18.1456
18.1207
18.0972
18.0749
18.0537
18.0337
18.0148
17.9968
17.9796
17.9634
17.9478
17.933
17.9187
17.9051
17.8919
17.8791
17.8668
17.8548
17.8432
17.8318
17.8206
17.8097
17.799
17.7884
17.7781
17.7678
17.7578
17.7478
17.738
17.7284
17.719
17.7097
17.7007
17.6918
17.6832
17.6748
17.6664
17.658
17.6493
17.6394
17.6275
17.6117
17.5889
17.5547
17.5027
17.4237
-5.50287
-5.63332
-5.79798
-5.95941
-6.12402
-6.30859
-6.5258
-6.78527
-7.09558
-7.46416
-7.89663
-8.3963
-8.96399
-9.59819
-10.2956
-11.0516
-11.8612
-12.7192
-13.6207
-14.5611
-15.5365
-16.543
-17.5774
-18.6361
-19.7159
-20.8129
-21.923
-23.0417
-24.1638
-25.2834
-26.3944
-27.4898
-28.5622
-29.604
-30.607
-31.5632
-32.4645
-33.3027
-34.0702
-34.7598
-35.3648
-35.8793
-36.2983
-36.6176
-36.834
-36.9454
-36.9507
-36.8503
-36.6452
-36.3378
-35.9314
-35.4304
-34.8401
-34.1663
-33.4154
-32.5943
-31.7099
-30.7692
-29.779
-28.7457
-27.6748
-26.5714
-25.4391
-24.2802
-23.0948
-21.8809
-20.633
-19.3418
-17.9929
-16.566
-15.0345
-13.3667
-11.5291
-9.49438
-7.25274
-4.82398
-2.26305
0.34541
2.90367
5.32169
7.53299
9.501
11.2164
12.6894
13.9418
14.9995
15.889
16.6341
17.256
17.7725
18.1988
18.5479
18.8305
19.0562
19.233
19.368
19.4672
19.5361
19.5793
19.6009
19.6044
19.5929
19.5691
19.5354
19.4937
19.4457
19.393
19.3369
19.2784
19.2185
19.1578
19.0971
19.037
18.9777
18.9197
18.8632
18.8084
18.7555
18.7044
18.6554
18.6083
18.5632
18.52
18.4786
18.4391
18.4013
18.3652
18.3308
18.2979
18.2665
18.2366
18.2081
18.1809
18.1551
18.1306
18.1073
18.0851
18.0641
18.0441
18.0252
18.0072
17.99
17.9737
17.9581
17.9431
17.9288
17.9151
17.9018
17.889
17.8766
17.8646
17.8528
17.8413
17.8301
17.8191
17.8083
17.7976
17.787
17.7766
17.7663
17.756
17.7459
17.7358
17.7258
17.7158
17.7059
17.696
17.686
17.6761
17.6659
17.6554
17.6443
17.6322
17.6181
17.601
17.579
17.549
17.507
17.4471
17.3619
-5.60488
-5.66924
-5.7902
-5.92329
-6.07032
-6.2428
-6.4506
-6.70109
-7.00125
-7.35745
-7.77478
-8.25655
-8.8041
-9.41675
-10.0922
-10.8271
-11.6172
-12.4579
-13.3448
-14.2735
-15.24
-16.2404
-17.2709
-18.328
-19.4078
-20.5062
-21.6188
-22.7407
-23.8665
-24.9904
-26.1059
-27.2062
-28.2838
-29.3311
-30.3402
-31.303
-32.2114
-33.0578
-33.8344
-34.5343
-35.1508
-35.6783
-36.1116
-36.4467
-36.6806
-36.811
-36.837
-36.7587
-36.577
-36.2943
-35.9138
-35.4398
-34.8776
-34.2327
-33.5116
-32.7209
-31.8674
-30.9579
-29.999
-28.9968
-27.9568
-26.8837
-25.7811
-24.6508
-23.4931
-22.3057
-21.083
-19.8156
-18.4888
-17.0818
-15.5673
-13.9123
-12.0822
-10.0494
-7.80533
-5.37279
-2.81086
-0.207491
2.33877
4.73994
6.93353
8.8872
10.5948
12.068
13.3286
14.4014
15.3112
16.0804
16.7285
17.2723
17.7261
18.1023
18.4112
18.6622
18.8632
19.0212
19.1422
19.2317
19.2944
19.3342
19.355
19.3596
19.351
19.3315
19.3032
19.2678
19.2268
19.1817
19.1335
19.0833
19.0317
18.9796
18.9274
18.8757
18.8248
18.775
18.7265
18.6795
18.634
18.5903
18.5481
18.5077
18.4689
18.4317
18.3961
18.362
18.3293
18.2981
18.2682
18.2396
18.2123
18.1862
18.1613
18.1375
18.1148
18.0931
18.0725
18.0528
18.0341
18.0162
17.9992
17.9829
17.9674
17.9525
17.9382
17.9245
17.9112
17.8984
17.886
17.8739
17.8622
17.8507
17.8394
17.8284
17.8175
17.8067
17.7961
17.7856
17.7751
17.7647
17.7543
17.7439
17.7335
17.7231
17.7126
17.702
17.6913
17.6803
17.669
17.6572
17.6446
17.6309
17.6155
17.5976
17.5757
17.548
17.5117
17.4629
17.3964
17.3061
-5.60942
-5.60987
-5.70135
-5.8049
-5.93272
-6.09239
-6.28925
-6.52864
-6.8163
-7.15776
-7.5577
-8.01947
-8.54484
-9.13395
-9.78549
-10.4969
-11.2647
-12.0851
-12.9538
-13.8668
-14.8199
-15.8092
-16.8308
-17.8805
-18.9544
-20.048
-21.1566
-22.2752
-23.3983
-24.5199
-25.6336
-26.7325
-27.8095
-28.8568
-29.8669
-30.8318
-31.7437
-32.5951
-33.3784
-34.0869
-34.7142
-35.2545
-35.7029
-36.0555
-36.3092
-36.4618
-36.5122
-36.4606
-36.3075
-36.0552
-35.7069
-35.2668
-34.7396
-34.1311
-33.4472
-32.6942
-31.8789
-31.0075
-30.0865
-29.1215
-28.1179
-27.0798
-26.0104
-24.9115
-23.7826
-22.6212
-21.4212
-20.1726
-18.8599
-17.4617
-15.9496
-14.2903
-12.4501
-10.4039
-8.14846
-5.71309
-3.16247
-0.586555
1.91899
4.27282
6.42024
8.33541
10.016
11.4749
12.7328
13.8127
14.7369
15.5257
16.1965
16.765
17.2443
17.646
17.9803
18.2559
18.4808
18.6617
18.8047
18.9151
18.9976
19.0562
19.0947
19.1162
19.1234
19.1187
19.1043
19.082
19.0534
19.0198
18.9824
18.9423
18.9002
18.857
18.8133
18.7694
18.7259
18.6831
18.6411
18.6003
18.5607
18.5224
18.4854
18.4498
18.4156
18.3828
18.3512
18.3209
18.2918
18.2639
18.2372
18.2115
18.1869
18.1633
18.1407
18.119
18.0982
18.0783
18.0593
18.041
18.0236
18.0069
17.9909
17.9756
17.9608
17.9467
17.9331
17.9199
17.9072
17.8948
17.8828
17.8711
17.8597
17.8485
17.8375
17.8266
17.8158
17.8052
17.7946
17.7841
17.7736
17.7631
17.7525
17.7419
17.7313
17.7204
17.7094
17.6982
17.6866
17.6747
17.6621
17.6486
17.6341
17.6179
17.5995
17.5779
17.5517
17.519
17.4771
17.4224
17.3503
17.2559
-5.51428
-5.44626
-5.49231
-5.57755
-5.69246
-5.84126
-6.02755
-6.25568
-6.53059
-6.85723
-7.23998
-7.68223
-8.18609
-8.7523
-9.38022
-10.068
-10.813
-11.6117
-12.4604
-13.3551
-14.2917
-15.2661
-16.2742
-17.3117
-18.3743
-19.4572
-20.5558
-21.6648
-22.7786
-23.8912
-24.9964
-26.0874
-27.1571
-28.1983
-29.2034
-30.1649
-31.0753
-31.9272
-32.7135
-33.4276
-34.0633
-34.615
-35.078
-35.4483
-35.7228
-35.8994
-35.9768
-35.9552
-35.835
-35.6184
-35.3082
-34.9082
-34.4231
-33.8579
-33.2185
-32.5107
-31.7408
-30.9147
-30.0382
-29.1167
-28.1549
-27.1566
-26.1243
-25.0591
-23.9602
-22.824
-21.6436
-20.408
-19.1006
-17.6982
-16.1719
-14.4886
-12.6176
-10.5407
-8.26449
-5.82901
-3.3056
-0.783651
1.64899
3.92284
5.99483
7.84742
9.48224
10.9126
12.1571
13.2359
14.1681
14.9712
15.6608
16.2506
16.7527
17.178
17.5361
17.8354
18.0835
18.287
18.4519
18.5834
18.6861
18.764
18.8209
18.8597
18.8834
18.8942
18.8944
18.8859
18.8702
18.8487
18.8228
18.7933
18.7614
18.7276
18.6927
18.6572
18.6215
18.586
18.551
18.5167
18.4833
18.4508
18.4193
18.3888
18.3595
18.3311
18.3039
18.2776
18.2523
18.2279
18.2044
18.1818
18.16
18.1391
18.1189
18.0994
18.0807
18.0627
18.0453
18.0286
18.0126
17.9971
17.9822
17.9678
17.954
17.9406
17.9277
17.9152
17.903
17.8911
17.8796
17.8682
17.8571
17.8462
17.8354
17.8247
17.8141
17.8036
17.793
17.7825
17.772
17.7614
17.7508
17.74
17.729
17.7178
17.7063
17.6945
17.6821
17.6691
17.6553
17.6404
17.6239
17.6055
17.5843
17.5593
17.5292
17.492
17.4451
17.3854
17.3087
17.2107
-5.28833
-5.17833
-5.20008
-5.26772
-5.36758
-5.50342
-5.67826
-5.89552
-6.15922
-6.47363
-6.84269
-7.26959
-7.75646
-8.30429
-8.91282
-9.58072
-10.3057
-11.0848
-11.9144
-12.7908
-13.7099
-14.6676
-15.6595
-16.6812
-17.7283
-18.7959
-19.8792
-20.9729
-22.0714
-23.1689
-24.2592
-25.3357
-26.3918
-27.4204
-28.4143
-29.3664
-30.2695
-31.1167
-31.901
-32.6163
-33.2565
-33.8163
-34.2912
-34.6771
-34.9712
-35.1713
-35.2761
-35.2854
-35.1998
-35.0208
-34.7512
-34.3943
-33.9544
-33.4362
-32.8448
-32.1859
-31.4649
-30.6873
-29.8585
-28.983
-28.0649
-27.1073
-26.1121
-25.0795
-24.0076
-22.8918
-21.7241
-20.4916
-19.1761
-17.7532