/*--------------------------------*- C++ -*----------------------------------*\
  =========                 |
  \\      /  F ield         | OpenFOAM: The Open Source CFD Toolbox
   \\    /   O peration     | Website:  https://openfoam.org
    \\  /    A nd           | Version:  9
     \\/     M anipulation  |
\*---------------------------------------------------------------------------*/
FoamFile
{
    format      ascii;
    class       surfaceScalarField;
    location    "0.02";
    object      phi;
}
// * * * * * * * * * * * * * * * * * * * * * * * * * * * * * * * * * * * * * //

dimensions      [0 3 -1 0 0 0 0];

internalField   nonuniform List<scalar> 
24170
(
3.13339e-06
5.50123e-08
3.04693e-06
8.64597e-08
2.97007e-06
7.68649e-08
2.89895e-06
7.11206e-08
2.83109e-06
6.7854e-08
2.77027e-06
6.08209e-08
2.71707e-06
5.32009e-08
2.67047e-06
4.66041e-08
2.62905e-06
4.14235e-08
2.59146e-06
3.75886e-08
2.5565e-06
3.49611e-08
2.52302e-06
3.34725e-08
2.48988e-06
3.31473e-08
2.45568e-06
3.41956e-08
2.41862e-06
3.7058e-08
2.37521e-06
4.34118e-08
2.32098e-06
5.42301e-08
8.38368e-08
2.23714e-06
3.45345e-06
1.88084e-08
3.4556e-06
8.43156e-08
3.44826e-06
8.42023e-08
3.43548e-06
8.38994e-08
3.41934e-06
8.3993e-08
3.3996e-06
8.05675e-08
3.37718e-06
7.5621e-08
3.35283e-06
7.09504e-08
3.32726e-06
6.69968e-08
3.30097e-06
6.38785e-08
3.27423e-06
6.16975e-08
3.2471e-06
6.06014e-08
3.21946e-06
6.07874e-08
3.19098e-06
6.26749e-08
3.16126e-06
6.67749e-08
3.12958e-06
7.50965e-08
3.09577e-06
8.80389e-08
1.2188e-07
3.05773e-06
3.66507e-06
1.62542e-08
3.6774e-06
7.19845e-08
3.68349e-06
7.81136e-08
3.68635e-06
8.10413e-08
3.68623e-06
8.4115e-08
3.6828e-06
8.39931e-08
3.67653e-06
8.18896e-08
3.66792e-06
7.95667e-08
3.65729e-06
7.76264e-08
3.64488e-06
7.62834e-08
3.63084e-06
7.57389e-08
3.61519e-06
7.62485e-08
3.59786e-06
7.81252e-08
3.57862e-06
8.19083e-08
3.55711e-06
8.82861e-08
3.53314e-06
9.90636e-08
3.50595e-06
1.15229e-07
1.44937e-07
3.4829e-06
3.92438e-06
1.72646e-08
3.93482e-06
6.15413e-08
3.94041e-06
7.25226e-08
3.94428e-06
7.71761e-08
3.94667e-06
8.17198e-08
3.94709e-06
8.358e-08
3.94561e-06
8.3363e-08
3.94248e-06
8.26947e-08
3.93781e-06
8.23023e-08
3.93163e-06
8.24592e-08
3.92396e-06
8.34101e-08
3.91475e-06
8.54643e-08
3.90387e-06
8.90023e-08
3.89117e-06
9.46036e-08
3.87644e-06
1.03024e-07
3.85981e-06
1.15685e-07
3.84138e-06
1.33664e-07
1.60799e-07
3.82552e-06
4.20748e-06
1.69102e-08
4.21492e-06
5.40981e-08
4.21932e-06
6.81231e-08
4.22252e-06
7.39849e-08
4.22502e-06
7.92106e-08
4.22629e-06
8.23152e-08
4.22616e-06
8.34964e-08
4.22471e-06
8.41453e-08
4.22198e-06
8.50314e-08
4.21797e-06
8.64677e-08
4.21265e-06
8.87249e-08
4.20598e-06
9.214e-08
4.19786e-06
9.71223e-08
4.18823e-06
1.04235e-07
4.17706e-06
1.14186e-07
4.16472e-06
1.28028e-07
4.15178e-06
1.46604e-07
1.71684e-07
4.1409e-06
4.51013e-06
1.58648e-08
4.51571e-06
4.85248e-08
4.51967e-06
6.41632e-08
4.52247e-06
7.11771e-08
4.52475e-06
7.69318e-08
4.52609e-06
8.09763e-08
4.52627e-06
8.3319e-08
4.5253e-06
8.51104e-08
4.52321e-06
8.71206e-08
4.51999e-06
8.96971e-08
4.51558e-06
9.31269e-08
4.50997e-06
9.77544e-08
4.50311e-06
1.03984e-07
4.49502e-06
1.12325e-07
4.48583e-06
1.23372e-07
4.476e-06
1.37858e-07
4.4663e-06
1.56304e-07
1.79389e-07
4.4586e-06
4.8338e-06
1.47874e-08
4.83836e-06
4.39639e-08
4.84218e-06
6.0338e-08
4.84483e-06
6.85354e-08
4.84688e-06
7.48795e-08
4.84812e-06
7.9738e-08
4.84832e-06
8.31113e-08
4.84749e-06
8.59418e-08
4.84563e-06
8.89775e-08
4.84274e-06
9.25943e-08
4.83878e-06
9.70869e-08
4.83374e-06
1.02789e-07
4.82765e-06
1.10077e-07
4.8206e-06
1.1938e-07
4.81281e-06
1.31154e-07
4.80481e-06
1.45864e-07
4.79737e-06
1.6374e-07
1.849e-07
4.79186e-06
5.18057e-06
1.38009e-08
5.18444e-06
4.00952e-08
5.18808e-06
5.66914e-08
5.19063e-06
6.59834e-08
5.19254e-06
7.29716e-08
5.1937e-06
7.85781e-08
5.19391e-06
8.29005e-08
5.19315e-06
8.67059e-08
5.19143e-06
9.06986e-08
5.18875e-06
9.52735e-08
5.18511e-06
1.00725e-07
5.18054e-06
1.07363e-07
5.1751e-06
1.15517e-07
5.16895e-06
1.25525e-07
5.1624e-06
1.37706e-07
5.15596e-06
1.52308e-07
5.15035e-06
1.69345e-07
1.88663e-07
5.14659e-06
5.55226e-06
1.28767e-08
5.55555e-06
3.68074e-08
5.55894e-06
5.3304e-08
5.56142e-06
6.34963e-08
5.56326e-06
7.11353e-08
5.5644e-06
7.74398e-08
5.56466e-06
8.26424e-08
5.564e-06
8.73673e-08
5.56244e-06
9.2256e-08
5.56e-06
9.77083e-08
5.55672e-06
1.0401e-07
5.55264e-06
1.11438e-07
5.54789e-06
1.20264e-07
5.54268e-06
1.30735e-07
5.53735e-06
1.43044e-07
5.53238e-06
1.57276e-07
5.52842e-06
1.73303e-07
1.90856e-07
5.52623e-06
5.95064e-06
1.20079e-08
5.95344e-06
3.40102e-08
5.95655e-06
5.01989e-08
5.95898e-06
6.10643e-08
5.96079e-06
6.93217e-08
5.96196e-06
7.62722e-08
5.96233e-06
8.22773e-08
5.96184e-06
8.78535e-08
5.96053e-06
9.35668e-08
5.95843e-06
9.98054e-08
5.9556e-06
1.06839e-07
5.95214e-06
1.14902e-07
5.9482e-06
1.24205e-07
5.94402e-06
1.34911e-07
5.93996e-06
1.47107e-07
5.93647e-06
1.60764e-07
5.9341e-06
1.75673e-07
1.91532e-07
5.93343e-06
6.37762e-06
1.12039e-08
6.38002e-06
3.16106e-08
6.38286e-06
4.73592e-08
6.38524e-06
5.86768e-08
6.38708e-06
6.74883e-08
6.38832e-06
7.50234e-08
6.38886e-06
8.17379e-08
6.38864e-06
8.8076e-08
6.38769e-06
9.45232e-08
6.38605e-06
1.0144e-07
6.38382e-06
1.0907e-07
6.38112e-06
1.17604e-07
6.37813e-06
1.27192e-07
6.37512e-06
1.37922e-07
6.37243e-06
1.49801e-07
6.37046e-06
1.62726e-07
6.36969e-06
1.76449e-07
1.90681e-07
6.37054e-06
5.74147e-06
1.05727e-08
5.74325e-06
2.98296e-08
5.74547e-06
4.51383e-08
5.74747e-06
5.66754e-08
5.74907e-06
6.5884e-08
5.75024e-06
7.38573e-08
5.75089e-06
8.1089e-08
5.75098e-06
8.79844e-08
5.75054e-06
9.49655e-08
5.74962e-06
1.02357e-07
5.74831e-06
1.10377e-07
5.74674e-06
1.19177e-07
5.74507e-06
1.28861e-07
5.74353e-06
1.39464e-07
5.74239e-06
1.50941e-07
5.74196e-06
1.63154e-07
5.74256e-06
1.75847e-07
1.88755e-07
5.74449e-06
6.99882e-06
9.90687e-09
7.00067e-06
2.79834e-08
7.00305e-06
4.27584e-08
7.00532e-06
5.43978e-08
7.00726e-06
6.39487e-08
7.00878e-06
7.23357e-08
7.00981e-06
8.00581e-08
7.01032e-06
8.74818e-08
7.01032e-06
9.49603e-08
7.00991e-06
1.02772e-07
7.00918e-06
1.11099e-07
7.00831e-06
1.20052e-07
7.00748e-06
1.29686e-07
7.00696e-06
1.39991e-07
7.00701e-06
1.50883e-07
7.00797e-06
1.62199e-07
7.01012e-06
1.73695e-07
1.85146e-07
7.01373e-06
8.53155e-06
9.20584e-09
8.53347e-06
2.60638e-08
8.53604e-06
4.01896e-08
8.53867e-06
5.17685e-08
8.54106e-06
6.15497e-08
8.54313e-06
7.02728e-08
8.54478e-06
7.84049e-08
8.54599e-06
8.62685e-08
8.54681e-06
9.41465e-08
8.54732e-06
1.02261e-07
8.54767e-06
1.10751e-07
8.54803e-06
1.19685e-07
8.54865e-06
1.29074e-07
8.54977e-06
1.3887e-07
8.55169e-06
1.48965e-07
8.55469e-06
1.59194e-07
8.55905e-06
1.69336e-07
1.79215e-07
8.56498e-06
1.04e-05
8.45879e-09
1.0402e-05
2.40181e-08
1.04049e-05
3.73364e-08
1.0408e-05
4.86352e-08
1.04111e-05
5.84581e-08
1.0414e-05
6.7363e-08
1.04167e-05
7.57481e-08
1.0419e-05
8.38843e-08
1.04212e-05
9.1985e-08
1.04233e-05
1.0021e-07
1.04254e-05
1.08649e-07
1.04277e-05
1.17333e-07
1.04305e-05
1.26237e-07
1.04341e-05
1.35288e-07
1.04387e-05
1.44371e-07
1.04446e-05
1.53334e-07
1.04519e-05
1.6199e-07
1.70219e-07
1.04609e-05
1.26776e-05
7.63035e-09
1.26799e-05
2.17154e-08
1.26833e-05
3.39915e-08
1.26872e-05
4.47143e-08
1.26914e-05
5.42918e-08
1.26956e-05
6.31211e-08
1.26998e-05
7.15066e-08
1.27041e-05
7.9655e-08
1.27083e-05
8.77122e-08
1.27128e-05
9.57752e-08
1.27175e-05
1.03888e-07
1.27228e-05
1.12046e-07
1.27289e-05
1.20201e-07
1.27359e-05
1.28272e-07
1.27441e-05
1.36149e-07
1.27537e-05
1.43706e-07
1.27649e-05
1.50798e-07
1.57356e-07
1.27778e-05
1.54542e-05
6.64167e-09
1.5457e-05
1.8909e-08
1.54612e-05
2.9774e-08
1.54664e-05
3.95116e-08
1.54723e-05
4.84367e-08
1.54786e-05
5.68116e-08
1.54852e-05
6.48354e-08
1.54922e-05
7.26394e-08
1.54997e-05
8.03041e-08
1.55076e-05
8.78701e-08
1.55161e-05
9.534e-08
1.55255e-05
1.02682e-07
1.55358e-05
1.09839e-07
1.55474e-05
1.16731e-07
1.55603e-05
1.23268e-07
1.55746e-05
1.29354e-07
1.55905e-05
1.34887e-07
1.3984e-07
1.5608e-05
1.88389e-05
5.34552e-09
1.88427e-05
1.51831e-08
1.88484e-05
2.40499e-08
1.88557e-05
3.22256e-08
1.88642e-05
3.99507e-08
1.88736e-05
4.73685e-08
1.88839e-05
5.45668e-08
1.88949e-05
6.15939e-08
1.89067e-05
6.84671e-08
1.89194e-05
7.51775e-08
1.89331e-05
8.16935e-08
1.89478e-05
8.79662e-08
1.89637e-05
9.39353e-08
1.89809e-05
9.95338e-08
1.89995e-05
1.04693e-07
1.90195e-05
1.09347e-07
1.90409e-05
1.13432e-07
1.16953e-07
1.90638e-05
2.29652e-05
3.46371e-09
2.29706e-05
9.84555e-09
2.29788e-05
1.57922e-08
2.29894e-05
2.15976e-08
2.3002e-05
2.74301e-08
2.3016e-05
3.32941e-08
2.30315e-05
3.91455e-08
2.30481e-05
4.49437e-08
2.30659e-05
5.06452e-08
2.30849e-05
5.61941e-08
2.31051e-05
6.15273e-08
2.31265e-05
6.65828e-08
2.31491e-05
7.1302e-08
2.3173e-05
7.56304e-08
2.31982e-05
7.95191e-08
2.32246e-05
8.29283e-08
2.32522e-05
8.58222e-08
8.82205e-08
2.32809e-05
1.68124e-05
1.80127e-09
1.6817e-05
5.18933e-09
1.68242e-05
8.59702e-09
1.68334e-05
1.23864e-08
1.68442e-05
1.66656e-08
1.68562e-05
2.12765e-08
1.68693e-05
2.60546e-08
1.68833e-05
3.09049e-08
1.68982e-05
3.5745e-08
1.6914e-05
4.04829e-08
1.69304e-05
4.50331e-08
1.69477e-05
4.93257e-08
1.69657e-05
5.33033e-08
1.69844e-05
5.69175e-08
1.70038e-05
6.0129e-08
1.70238e-05
6.29097e-08
1.70444e-05
6.52371e-08
6.71335e-08
1.70655e-05
1.46362e-05
1.47041e-10
1.46409e-05
4.92922e-10
1.46482e-05
1.33137e-09
1.46574e-05
3.20622e-09
1.46679e-05
6.10304e-09
1.46796e-05
9.61032e-09
1.46922e-05
1.34575e-08
1.47056e-05
1.75196e-08
1.47197e-05
2.16701e-08
1.47344e-05
2.57751e-08
1.47497e-05
2.97312e-08
1.47655e-05
3.34659e-08
1.47819e-05
3.6923e-08
1.47988e-05
4.00574e-08
1.48161e-05
4.28355e-08
1.48337e-05
4.52357e-08
1.48517e-05
4.72432e-08
4.88788e-08
1.487e-05
1.27417e-05
-1.43516e-09
1.27464e-05
-4.23749e-09
1.27538e-05
-6.03932e-09
1.27629e-05
-5.83318e-09
1.2773e-05
-4.05323e-09
1.27841e-05
-1.48863e-09
1.2796e-05
1.58158e-09
1.28085e-05
5.03422e-09
1.28215e-05
8.67161e-09
1.28349e-05
1.23087e-08
1.28488e-05
1.58315e-08
1.28631e-05
1.91695e-08
1.28778e-05
2.22682e-08
1.28928e-05
2.50847e-08
1.2908e-05
2.75901e-08
1.29235e-05
2.97674e-08
1.29391e-05
3.16068e-08
3.31275e-08
1.29549e-05
1.10923e-05
-2.81434e-09
1.10971e-05
-9.00386e-09
1.11046e-05
-1.36114e-08
1.11135e-05
-1.46656e-08
1.11231e-05
-1.36806e-08
1.11335e-05
-1.18928e-08
1.11445e-05
-9.43138e-09
1.1156e-05
-6.41669e-09
1.11678e-05
-3.14645e-09
1.11799e-05
1.52395e-10
1.11924e-05
3.36747e-09
1.12052e-05
6.43125e-09
1.12181e-05
9.28864e-09
1.12313e-05
1.18987e-08
1.12447e-05
1.42374e-08
1.12581e-05
1.62909e-08
1.12717e-05
1.80533e-08
1.95412e-08
1.12853e-05
9.65628e-06
-3.88353e-09
9.66114e-06
-1.38605e-08
9.66883e-06
-2.13046e-08
9.67731e-06
-2.31457e-08
9.68641e-06
-2.27746e-08
9.69612e-06
-2.16024e-08
9.70621e-06
-1.95275e-08
9.71657e-06
-1.67745e-08
9.72718e-06
-1.37546e-08
9.73803e-06
-1.06988e-08
9.7491e-06
-7.69955e-09
9.76035e-06
-4.82105e-09
9.77176e-06
-2.12001e-09
9.7833e-06
3.62211e-10
9.79492e-06
2.60965e-09
9.80661e-06
4.60677e-09
9.81831e-06
6.35301e-09
7.86443e-09
9.82998e-06
8.40586e-06
-4.38778e-09
8.41141e-06
-1.94171e-08
8.41879e-06
-2.86845e-08
8.4265e-06
-3.08567e-08
8.43503e-06
-3.1304e-08
8.44414e-06
-3.07048e-08
8.45343e-06
-2.88167e-08
8.46281e-06
-2.61566e-08
8.47231e-06
-2.32602e-08
8.48195e-06
-2.03349e-08
8.4917e-06
-1.74481e-08
8.50154e-06
-1.46619e-08
8.51145e-06
-1.20333e-08
8.52141e-06
-9.59896e-09
8.5314e-06
-7.37682e-09
8.54138e-06
-5.37703e-09
8.55134e-06
-3.60066e-09
-2.03386e-09
8.56124e-06
7.3155e-06
-2.60444e-09
7.32341e-06
-2.73218e-08
7.33047e-06
-3.57469e-08
7.33744e-06
-3.78264e-08
7.34547e-06
-3.93387e-08
7.35403e-06
-3.92572e-08
7.36261e-06
-3.73979e-08
7.37112e-06
-3.46743e-08
7.3796e-06
-3.17315e-08
7.38802e-06
-2.87557e-08
7.39638e-06
-2.58139e-08
7.4047e-06
-2.29761e-08
7.41296e-06
-2.02986e-08
7.42118e-06
-1.78131e-08
7.42933e-06
-1.55347e-08
7.43743e-06
-1.34702e-08
7.44544e-06
-1.16177e-08
-9.96307e-09
7.45337e-06
6.36262e-06
4.83829e-09
6.37427e-06
-3.89683e-08
6.38276e-06
-4.42418e-08
6.39078e-06
-4.58386e-08
6.39906e-06
-4.7625e-08
6.40706e-06
-4.72543e-08
6.41452e-06
-4.4861e-08
6.42157e-06
-4.17229e-08
6.4283e-06
-3.84554e-08
6.43472e-06
-3.51806e-08
6.44088e-06
-3.19719e-08
6.44681e-06
-2.89115e-08
6.45257e-06
-2.60522e-08
6.45817e-06
-2.34172e-08
6.46365e-06
-2.10155e-08
6.46903e-06
-1.8849e-08
6.47432e-06
-1.69092e-08
-1.51699e-08
6.47953e-06
5.53617e-06
1.41337e-08
5.54864e-06
-5.14417e-08
5.55954e-06
-5.51432e-08
5.56964e-06
-5.5938e-08
5.57833e-06
-5.63139e-08
5.58499e-06
-5.39168e-08
5.58973e-06
-4.95941e-08
5.59308e-06
-4.50738e-08
5.59546e-06
-4.08361e-08
5.59714e-06
-3.68573e-08
5.59831e-06
-3.31468e-08
5.59914e-06
-2.97437e-08
5.59975e-06
-2.66629e-08
5.60023e-06
-2.38979e-08
5.60065e-06
-2.14351e-08
5.60108e-06
-1.92708e-08
5.60156e-06
-1.73947e-08
-1.57245e-08
5.60212e-06
4.85736e-06
-1.56207e-08
4.86115e-06
-5.52298e-08
4.86256e-06
-5.65539e-08
4.86109e-06
-5.44683e-08
4.85853e-06
-5.37571e-08
4.8537e-06
-4.90806e-08
4.84662e-06
-4.2521e-08
4.83789e-06
-3.63344e-08
4.82811e-06
-3.10568e-08
4.81786e-06
-2.66107e-08
4.80757e-06
-2.28597e-08
4.79753e-06
-1.96998e-08
4.7879e-06
-1.70385e-08
4.7788e-06
-1.47975e-08
4.77028e-06
-1.29136e-08
4.76239e-06
-1.13766e-08
4.75521e-06
-1.02169e-08
-9.94186e-09
4.74943e-06
4.18706e-06
4.13183e-06
4.07527e-06
4.0208e-06
3.96705e-06
3.91797e-06
3.87544e-06
3.83911e-06
3.80805e-06
3.78144e-06
3.75858e-06
3.73888e-06
3.72184e-06
3.70705e-06
3.69413e-06
3.68276e-06
3.67254e-06
3.6626e-06
1.8015e-07
-1.8015e-07
4.29108e-07
-2.48957e-07
6.75182e-07
-2.46074e-07
8.97505e-07
-2.22323e-07
1.08996e-06
-1.92451e-07
1.25134e-06
-1.61382e-07
1.38235e-06
-1.31011e-07
1.48438e-06
-1.02027e-07
1.55875e-06
-7.43762e-08
1.60627e-06
-4.75198e-08
1.62717e-06
-2.08947e-08
1.62116e-06
6.00908e-09
1.5842e-06
3.69615e-08
1.52176e-06
6.24375e-08
1.43919e-06
8.25732e-08
1.34221e-06
9.69755e-08
1.23518e-06
1.07034e-07
1.12008e-06
1.151e-07
9.95452e-07
1.24625e-07
8.55828e-07
1.39624e-07
6.93101e-07
1.62727e-07
4.97499e-07
1.95601e-07
2.59401e-07
2.38098e-07
-2.94055e-08
2.88807e-07
-3.75321e-07
3.45916e-07
-7.78594e-07
4.03273e-07
-1.23332e-06
4.54726e-07
-1.73018e-06
4.96863e-07
-2.25765e-06
5.27468e-07
-2.80324e-06
5.45588e-07
-3.35461e-06
5.51369e-07
-3.9004e-06
5.45797e-07
-4.43082e-06
5.30418e-07
-4.93789e-06
5.07071e-07
-5.41555e-06
4.77656e-07
-5.85951e-06
4.43961e-07
-6.26711e-06
4.07596e-07
-6.637e-06
3.69897e-07
-6.96891e-06
3.3191e-07
-7.26332e-06
2.94403e-07
-7.52122e-06
2.57902e-07
-7.74395e-06
2.22734e-07
-7.93303e-06
1.89076e-07
-8.09003e-06
1.57e-07
-8.21654e-06
1.26514e-07
-8.31412e-06
9.7576e-08
-8.38425e-06
7.01329e-08
-8.42851e-06
4.42597e-08
-8.44879e-06
2.0278e-08
-8.44757e-06
-1.22131e-09
-8.42912e-06
-1.84476e-08
-8.39559e-06
-3.3526e-08
-8.34855e-06
-4.70444e-08
-8.28899e-06
-5.95544e-08
-8.21764e-06
-7.13556e-08
-8.13501e-06
-8.2633e-08
-8.04148e-06
-9.35229e-08
-7.93733e-06
-1.0415e-07
-7.82269e-06
-1.1464e-07
-7.69756e-06
-1.25129e-07
-7.5618e-06
-1.35763e-07
-7.4151e-06
-1.46695e-07
-7.25702e-06
-1.58088e-07
-7.08692e-06
-1.70099e-07
-6.90404e-06
-1.82877e-07
-6.70749e-06
-1.96548e-07
-6.49629e-06
-2.11199e-07
-6.26943e-06
-2.26863e-07
-6.02593e-06
-2.43497e-07
-5.76496e-06
-2.60972e-07
-5.48591e-06
-2.7905e-07
-5.18853e-06
-2.97384e-07
-4.87301e-06
-3.15516e-07
-4.54011e-06
-3.32897e-07
-4.1912e-06
-3.48914e-07
-3.82826e-06
-3.62937e-07
-3.45389e-06
-3.74375e-07
-3.07116e-06
-3.82725e-07
-2.68353e-06
-3.87628e-07
-2.29464e-06
-3.88899e-07
-1.9081e-06
-3.86535e-07
-1.5274e-06
-3.80699e-07
-1.15573e-06
-3.71669e-07
-7.95979e-07
-3.59753e-07
-4.50749e-07
-3.45231e-07
-1.21605e-07
-3.29144e-07
1.91826e-07
-3.13431e-07
4.89331e-07
-2.97505e-07
7.70391e-07
-2.81059e-07
1.03513e-06
-2.64739e-07
1.28396e-06
-2.48829e-07
1.51748e-06
-2.33517e-07
1.73639e-06
-2.18914e-07
1.94147e-06
-2.05079e-07
2.1335e-06
-1.92033e-07
2.31327e-06
-1.79773e-07
2.48155e-06
-1.68274e-07
2.63905e-06
-1.57501e-07
2.78646e-06
-1.47413e-07
2.92443e-06
-1.37964e-07
3.05353e-06
-1.29108e-07
3.17433e-06
-1.20799e-07
3.28732e-06
-1.12992e-07
3.39297e-06
-1.05643e-07
3.49168e-06
-9.87118e-08
3.58384e-06
-9.21572e-08
3.66978e-06
-8.59406e-08
3.7498e-06
-8.0024e-08
3.82417e-06
-7.43708e-08
3.89312e-06
-6.89452e-08
3.95683e-06
-6.37124e-08
4.01547e-06
-5.8639e-08
4.06916e-06
-5.3693e-08
4.11801e-06
-4.88451e-08
4.16208e-06
-4.40698e-08
4.20142e-06
-3.93433e-08
4.23606e-06
-3.46395e-08
4.266e-06
-2.99386e-08
4.29126e-06
-2.52599e-08
4.31188e-06
-2.06199e-08
4.32761e-06
-1.57318e-08
4.33737e-06
-9.7584e-09
4.33998e-06
-2.61187e-09
4.3349e-06
5.08413e-09
4.32407e-06
1.08233e-08
4.30898e-06
1.50907e-08
4.29084e-06
1.81433e-08
4.27062e-06
2.02198e-08
4.24904e-06
2.15794e-08
4.22667e-06
2.23675e-08
4.20396e-06
2.27153e-08
4.18123e-06
2.27246e-08
4.15876e-06
2.24763e-08
4.13672e-06
2.2036e-08
4.11526e-06
2.14562e-08
4.09448e-06
2.07795e-08
4.07444e-06
2.00403e-08
4.05518e-06
1.92668e-08
4.0367e-06
1.84807e-08
4.019e-06
1.76996e-08
4.00206e-06
1.69366e-08
3.98586e-06
1.62017e-08
3.97036e-06
1.55017e-08
3.95552e-06
1.48412e-08
3.94129e-06
1.4223e-08
3.92764e-06
1.36486e-08
3.91452e-06
1.31185e-08
3.90189e-06
1.26325e-08
3.8897e-06
1.21903e-08
3.87791e-06
1.17909e-08
3.86648e-06
1.14335e-08
3.85536e-06
1.11174e-08
3.84452e-06
1.08418e-08
3.83391e-06
1.06062e-08
3.8235e-06
1.04104e-08
3.81325e-06
1.02548e-08
3.80311e-06
1.01402e-08
3.79304e-06
1.00682e-08
3.783e-06
1.00414e-08
3.77293e-06
1.00638e-08
3.76279e-06
1.01413e-08
3.75251e-06
1.02817e-08
3.74201e-06
1.04961e-08
3.73121e-06
1.07994e-08
3.72e-06
1.1212e-08
3.70824e-06
1.17616e-08
3.69576e-06
1.24857e-08
3.68232e-06
1.34366e-08
3.66763e-06
1.46869e-08
3.65129e-06
1.63398e-08
3.63275e-06
1.85448e-08
3.61122e-06
2.15241e-08
3.58561e-06
2.56181e-08
3.55424e-06
3.13646e-08
3.51457e-06
3.96671e-08
3.46258e-06
5.19954e-08
3.39104e-06
7.1542e-08
3.28945e-06
1.01589e-07
3.12644e-06
1.63007e-07
2.32334e-07
2.89411e-06
2.31242e-07
-4.11392e-07
4.28307e-07
-4.46022e-07
5.84287e-07
-4.02055e-07
7.09932e-07
-3.47968e-07
8.10574e-07
-2.93093e-07
8.88884e-07
-2.39692e-07
9.46308e-07
-1.88435e-07
9.83528e-07
-1.39248e-07
1.00073e-06
-9.15828e-08
9.97851e-07
-4.46354e-08
9.74347e-07
2.60856e-09
9.29166e-07
5.11903e-08
8.64077e-07
1.02051e-07
7.72518e-07
1.53997e-07
6.4946e-07
2.05631e-07
4.89776e-07
2.56659e-07
2.88077e-07
3.08733e-07
3.81824e-08
3.64995e-07
-2.66171e-07
4.28978e-07
-6.29752e-07
5.03205e-07
-1.05424e-06
5.87217e-07
-1.53629e-06
6.77647e-07
-2.06718e-06
7.68995e-07
-2.63339e-06
8.5501e-07
-3.21742e-06
9.2995e-07
-3.80297e-06
9.88819e-07
-4.37607e-06
1.02783e-06
-4.92438e-06
1.04517e-06
-5.4379e-06
1.04099e-06
-5.90934e-06
1.01703e-06
-6.3342e-06
9.76233e-07
-6.71061e-06
9.22208e-07
-7.03894e-06
8.5875e-07
-7.32134e-06
7.89465e-07
-7.56117e-06
7.17491e-07
-7.76256e-06
6.45352e-07
-7.92989e-06
5.74923e-07
-8.06747e-06
5.07477e-07
-8.17932e-06
4.43762e-07
-8.26905e-06
3.84129e-07
-8.33978e-06
3.28632e-07
-8.39418e-06
2.77131e-07
-8.43448e-06
2.29381e-07
-8.46258e-06
1.85094e-07
-8.48004e-06
1.43974e-07
-8.48821e-06
1.05754e-07
-8.48831e-06
7.02332e-08
-8.48129e-06
3.72334e-08
-8.4679e-06
6.89214e-09
-8.44684e-06
-2.22824e-08
-8.41563e-06
-4.9658e-08
-8.37311e-06
-7.60456e-08
-8.31889e-06
-1.01266e-07
-8.25309e-06
-1.25352e-07
-8.17602e-06
-1.48424e-07
-8.08802e-06
-1.70633e-07
-7.98939e-06
-1.92155e-07
-7.88035e-06
-2.13189e-07
-7.76103e-06
-2.33958e-07
-7.63145e-06
-2.54715e-07
-7.49147e-06
-2.75739e-07
-7.34083e-06
-2.97333e-07
-7.17911e-06
-3.19814e-07
-7.00571e-06
-3.43501e-07
-6.81989e-06
-3.68696e-07
-6.62078e-06
-3.95659e-07
-6.4074e-06
-4.24579e-07
-6.17872e-06
-4.55537e-07
-5.93375e-06
-4.88468e-07
-5.6716e-06
-5.23125e-07
-5.3916e-06
-5.59049e-07
-5.09343e-06
-5.95549e-07
-4.77724e-06
-6.31709e-07
-4.44372e-06
-6.66416e-07
-4.09421e-06
-6.98429e-07
-3.73068e-06
-7.26465e-07
-3.35574e-06
-7.49316e-07
-2.97249e-06
-7.65968e-07
-2.58442e-06
-7.75701e-07
-2.19516e-06
-7.78162e-07
-1.8083e-06
-7.73389e-07
-1.42723e-06
-7.61778e-07
-1.05488e-06
-7.44013e-07
-6.9366e-07
-7.20974e-07
-3.4518e-07
-6.93711e-07
-1.07493e-08
-6.63574e-07
3.07637e-07
-6.31817e-07
6.09243e-07
-5.99111e-07
8.94312e-07
-5.66128e-07
1.16311e-06
-5.33538e-07
1.41611e-06
-5.01827e-07
1.65391e-06
-4.71323e-07
1.87723e-06
-4.42231e-07
2.08682e-06
-4.14662e-07
2.28344e-06
-3.88659e-07
2.46788e-06
-3.64214e-07
2.64089e-06
-3.41281e-07
2.80318e-06
-3.19796e-07
2.95545e-06
-2.99678e-07
3.09833e-06
-2.80841e-07
3.23242e-06
-2.63198e-07
3.35828e-06
-2.46662e-07
3.47644e-06
-2.31149e-07
3.58737e-06
-2.16578e-07
3.69153e-06
-2.02873e-07
3.78933e-06
-1.89959e-07
3.88116e-06
-1.77766e-07
3.96736e-06
-1.66226e-07
4.04826e-06
-1.55273e-07
4.12416e-06
-1.44843e-07
4.19532e-06
-1.34875e-07
4.26199e-06
-1.25309e-07
4.32439e-06
-1.16087e-07
4.3827e-06
-1.07157e-07
4.43709e-06
-9.84667e-08
4.48772e-06
-8.99707e-08
4.53471e-06
-8.16245e-08
4.57816e-06
-7.33901e-08
4.61814e-06
-6.52401e-08
4.65466e-06
-5.71381e-08
4.68793e-06
-4.90047e-08
4.71898e-06
-4.08054e-08
4.749e-06
-3.26345e-08
4.77845e-06
-2.43689e-08
4.80585e-06
-1.65735e-08
4.83033e-06
-9.39256e-09
4.85131e-06
-2.8382e-09
4.8686e-06
2.93459e-09
4.88214e-06
8.0396e-09
4.89206e-06
1.24497e-08
4.89854e-06
1.62325e-08
4.90183e-06
1.94357e-08
4.90219e-06
2.21129e-08
4.89991e-06
2.43129e-08
4.89529e-06
2.60812e-08
4.88861e-06
2.74603e-08
4.88016e-06
2.84914e-08
4.87021e-06
2.92132e-08
4.85903e-06
2.9663e-08
4.84685e-06
2.98767e-08
4.8339e-06
2.98886e-08
4.82037e-06
2.97307e-08
4.80644e-06
2.94336e-08
4.79226e-06
2.90252e-08
4.77795e-06
2.85314e-08
4.76362e-06
2.79754e-08
4.74936e-06
2.73781e-08
4.73523e-06
2.67579e-08
4.72129e-06
2.6131e-08
4.70757e-06
2.55113e-08
4.6941e-06
2.49108e-08
4.68087e-06
2.43398e-08
4.66791e-06
2.38067e-08
4.6552e-06
2.3319e-08
4.64272e-06
2.28828e-08
4.63047e-06
2.25039e-08
4.61843e-06
2.21875e-08
4.60656e-06
2.19391e-08
4.59483e-06
2.17647e-08
4.58323e-06
2.16714e-08
4.5717e-06
2.16685e-08
4.56021e-06
2.17676e-08
4.54872e-06
2.19843e-08
4.53718e-06
2.23396e-08
4.52553e-06
2.28615e-08
4.51371e-06
2.35884e-08
4.50162e-06
2.45719e-08
4.48918e-06
2.58835e-08
4.47624e-06
2.76223e-08
4.46265e-06
2.99279e-08
4.4482e-06
3.30014e-08
4.43258e-06
3.71368e-08
4.41542e-06
4.27833e-08
4.39616e-06
5.06264e-08
4.37398e-06
6.18467e-08
4.34779e-06
7.81862e-08
4.31544e-06
1.03883e-07
4.27437e-06
1.42667e-07
4.21795e-06
2.19422e-07
3.26955e-07
4.12333e-06
1.59106e-07
-5.70498e-07
2.62837e-07
-5.49753e-07
3.34446e-07
-4.73664e-07
3.84312e-07
-3.97834e-07
4.16293e-07
-3.25075e-07
4.31396e-07
-2.54794e-07
4.28956e-07
-1.85995e-07
4.07331e-07
-1.17623e-07
3.64278e-07
-4.85303e-08
2.96947e-07
2.26958e-08
2.02245e-07
9.73105e-08
7.70083e-08
1.76427e-07
-8.15674e-08
2.60626e-07
-2.77489e-07
3.49919e-07
-5.15918e-07
4.44059e-07
-8.02508e-07
5.4325e-07
-1.14183e-06
6.48058e-07
-1.53547e-06
7.58632e-07
-1.98018e-06
8.73686e-07
-2.46687e-06
9.89898e-07
-2.98163e-06
1.10198e-06
-3.50758e-06
1.20359e-06
-4.02719e-06
1.28861e-06
-4.52438e-06
1.3522e-06
-4.98579e-06
1.39136e-06
-5.40208e-06
1.40511e-06
-5.76852e-06
1.39427e-06
-6.08462e-06
1.36127e-06
-6.35329e-06
1.30966e-06
-6.57989e-06
1.24362e-06
-6.77108e-06
1.16743e-06
-6.93392e-06
1.08504e-06
-7.07498e-06
9.99812e-07
-7.19989e-06
9.14377e-07
-7.31303e-06
8.3063e-07
-7.41748e-06
7.49804e-07
-7.51516e-06
6.72597e-07
-7.60698e-06
5.99303e-07
-7.69316e-06
5.29937e-07
-7.77337e-06
4.64342e-07
-7.84701e-06
4.02268e-07
-7.9133e-06
3.43427e-07
-7.97146e-06
2.87537e-07
-8.0207e-06
2.34337e-07
-8.06032e-06
1.83596e-07
-8.08969e-06
1.35122e-07
-8.10821e-06
8.87506e-08
-8.11532e-06
4.43455e-08
-8.11019e-06
1.75931e-09
-8.09321e-06
-3.92642e-08
-8.0641e-06
-7.87612e-08
-8.02341e-06
-1.16742e-07
-7.97145e-06
-1.53221e-07
-7.90855e-06
-1.88257e-07
-7.83501e-06
-2.21965e-07
-7.75113e-06
-2.54509e-07
-7.65719e-06
-2.86099e-07
-7.55338e-06
-3.16996e-07
-7.43983e-06
-3.47511e-07
-7.31654e-06
-3.78003e-07
-7.1834e-06
-4.08881e-07
-7.04014e-06
-4.40595e-07
-6.88633e-06
-4.73626e-07
-6.72136e-06
-5.08465e-07
-6.54447e-06
-5.45587e-07
-6.35471e-06
-5.85415e-07
-6.15102e-06
-6.28271e-07
-5.93224e-06
-6.74324e-07
-5.69718e-06
-7.23522e-07
-5.44477e-06
-7.75536e-07
-5.17412e-06
-8.29702e-07
-4.88468e-06
-8.84985e-07
-4.57641e-06
-9.39984e-07
-4.24986e-06
-9.92969e-07
-3.9063e-06
-1.04199e-06
-3.54776e-06
-1.08501e-06
-3.17697e-06
-1.12011e-06
-2.79726e-06
-1.14568e-06
-2.41235e-06
-1.1606e-06
-2.02617e-06
-1.16435e-06
-1.64253e-06
-1.15703e-06
-1.26494e-06
-1.13936e-06
-8.96447e-07
-1.11251e-06
-5.39439e-07
-1.07798e-06
-1.9564e-07
-1.03751e-06
1.33407e-07
-9.92621e-07
4.4645e-07
-9.44861e-07
7.43063e-07
-8.95723e-07
1.0233e-06
-8.46361e-07
1.28745e-06
-7.97691e-07
1.53602e-06
-7.50394e-07
1.76963e-06
-7.04933e-07
1.989e-06
-6.61601e-07
2.19489e-06
-6.20554e-07
2.38808e-06
-5.81846e-07
2.56932e-06
-5.45459e-07
2.73936e-06
-5.11323e-07
2.89891e-06
-4.79341e-07
3.04862e-06
-4.49395e-07
3.18914e-06
-4.21359e-07
3.32105e-06
-3.95106e-07
3.4449e-06
-3.70512e-07
3.56121e-06
-3.47455e-07
3.67045e-06
-3.25822e-07
3.77308e-06
-3.05502e-07
3.86951e-06
-2.86392e-07
3.96014e-06
-2.68393e-07
4.04533e-06
-2.51411e-07
4.12541e-06
-2.35352e-07
4.20069e-06
-2.20131e-07
4.27148e-06
-2.0566e-07
4.33803e-06
-1.91859e-07
4.40059e-06
-1.78646e-07
4.45938e-06
-1.65947e-07
4.5146e-06
-1.53691e-07
4.56644e-06
-1.41809e-07
4.61506e-06
-1.3024e-07
4.6606e-06
-1.1893e-07
4.70318e-06
-1.07828e-07
4.74293e-06
-9.68798e-08
4.77997e-06
-8.60495e-08
4.81456e-06
-7.53914e-08
4.84692e-06
-6.49948e-08
4.87738e-06
-5.48297e-08
4.90583e-06
-4.50226e-08
4.93212e-06
-3.56885e-08
4.95618e-06
-2.68976e-08
4.97785e-06
-1.87308e-08
4.99706e-06
-1.11709e-08
5.01375e-06
-4.24264e-09
5.02791e-06
2.07199e-09
5.03958e-06
7.76241e-09
5.04884e-06
1.2853e-08
5.05579e-06
1.73651e-08
5.06055e-06
2.13237e-08
5.06325e-06
2.47552e-08
5.06406e-06
2.76881e-08
5.06312e-06
3.0153e-08
5.0606e-06
3.21821e-08
5.05667e-06
3.38099e-08
5.05148e-06
3.50723e-08
5.04521e-06
3.6006e-08
5.03799e-06
3.66482e-08
5.02998e-06
3.70359e-08
5.02131e-06
3.72059e-08
5.01209e-06
3.71931e-08
5.00244e-06
3.7031e-08
4.99244e-06
3.67513e-08
4.98219e-06
3.6383e-08
4.97175e-06
3.59526e-08
4.96118e-06
3.54844e-08
4.95052e-06
3.49996e-08
4.93981e-06
3.45176e-08
4.92907e-06
3.4055e-08
4.91833e-06
3.36268e-08
4.90758e-06
3.32465e-08
4.89684e-06
3.29262e-08
4.88611e-06
3.26778e-08
4.87536e-06
3.2513e-08
4.86458e-06
3.24448e-08
4.85376e-06
3.24877e-08
4.84287e-06
3.26595e-08
4.83187e-06
3.29827e-08
4.82073e-06
3.3486e-08
4.80938e-06
3.42075e-08
4.79777e-06
3.51977e-08
4.78582e-06
3.65248e-08
4.77342e-06
3.82816e-08
4.76045e-06
4.05957e-08
4.74673e-06
4.36455e-08
4.73205e-06
4.76847e-08
4.7161e-06
5.30802e-08
4.69851e-06
6.0381e-08
4.67872e-06
7.04128e-08
4.65603e-06
8.45403e-08
4.62943e-06
1.04786e-07
4.59787e-06
1.35439e-07
4.5593e-06
1.81242e-07
4.51799e-06
2.60728e-07
3.75718e-07
4.46923e-06
5.45585e-08
-6.25056e-07
6.10591e-08
-5.56254e-07
4.99082e-08
-4.62513e-07
2.58828e-08
-3.73808e-07
-1.07875e-08
-2.88405e-07
-6.19821e-08
-2.036e-07
-1.30594e-07
-1.17383e-07
-2.20359e-07
-2.78572e-08
-3.3506e-07
6.61707e-08
-4.78715e-07
1.66351e-07
-6.5493e-07
2.73525e-07
-8.66691e-07
3.88188e-07
-1.11639e-06
5.1032e-07
-1.40576e-06
6.39296e-07
-1.7356e-06
7.739e-07
-2.1046e-06
9.12243e-07
-2.50804e-06
1.05151e-06
-2.93707e-06
1.18766e-06
-3.37892e-06
1.31553e-06
-3.81832e-06
1.4293e-06
-4.23978e-06
1.52344e-06
-4.62983e-06
1.59364e-06
-4.97871e-06
1.63749e-06
-5.28114e-06
1.65463e-06
-5.53636e-06
1.64658e-06
-5.74751e-06
1.61627e-06
-5.92072e-06
1.56748e-06
-6.06383e-06
1.50437e-06
-6.18512e-06
1.43096e-06
-6.29234e-06
1.35084e-06
-6.39186e-06
1.26695e-06
-6.48839e-06
1.18157e-06
-6.58489e-06
1.09631e-06
-6.68275e-06
1.01224e-06
-6.78211e-06
9.29992e-07
-6.88221e-06
8.49905e-07
-6.98171e-06
7.721e-07
-7.07898e-06
6.96571e-07
-7.17229e-06
6.23245e-07
-7.25997e-06
5.52021e-07
-7.3405e-06
4.82801e-07
-7.41258e-06
4.155e-07
-7.4751e-06
3.50059e-07
-7.52721e-06
2.86445e-07
-7.56826e-06
2.2465e-07
-7.59782e-06
1.64684e-07
-7.61564e-06
1.06572e-07
-7.62164e-06
5.03402e-08
-7.61585e-06
-4.02514e-09
-7.59858e-06
-5.6532e-08
-7.57017e-06
-1.07172e-07
-7.53099e-06
-1.5593e-07
-7.48139e-06
-2.02818e-07
-7.42174e-06
-2.47901e-07
-7.35241e-06
-2.91302e-07
-7.27371e-06
-3.33206e-07
-7.18594e-06
-3.73865e-07
-7.08934e-06
-4.13603e-07
-6.98403e-06
-4.52817e-07
-6.87005e-06
-4.91979e-07
-6.7473e-06
-5.31633e-07
-6.61551e-06
-5.72391e-07
-6.47422e-06
-6.14915e-07
-6.32279e-06
-6.59897e-07
-6.16035e-06
-7.08024e-07
-5.98583e-06
-7.59931e-07
-5.79797e-06
-8.16134e-07
-5.59534e-06
-8.76953e-07
-5.37644e-06
-9.42421e-07
-5.1398e-06
-1.01218e-06
-4.88409e-06
-1.08541e-06
-4.60837e-06
-1.16071e-06
-4.31219e-06
-1.23616e-06
-3.99585e-06
-1.30931e-06
-3.66051e-06
-1.37733e-06
-3.30826e-06
-1.43725e-06
-2.9421e-06
-1.48626e-06
-2.5658e-06
-1.52198e-06
-2.18361e-06
-1.54279e-06
-1.79999e-06
-1.54797e-06
-1.41924e-06
-1.53778e-06
-1.04526e-06
-1.51335e-06
-6.81283e-07
-1.47648e-06
-3.29831e-07
-1.42944e-06
7.15757e-09
-1.3745e-06
3.28374e-07
-1.31384e-06
6.33171e-07
-1.24966e-06
9.21349e-07
-1.1839e-06
1.19308e-06
-1.11809e-06
1.44879e-06
-1.05341e-06
1.68911e-06
-9.90709e-07
1.91474e-06
-9.3057e-07
2.12648e-06
-8.73338e-07
2.32511e-06
-8.19187e-07
2.51143e-06
-7.68163e-07
2.68619e-06
-7.20222e-07
2.85013e-06
-6.75261e-07
3.00393e-06
-6.33141e-07
3.14824e-06
-5.93703e-07
3.28366e-06
-5.56783e-07
3.41077e-06
-5.22213e-07
3.53009e-06
-4.89832e-07
3.64212e-06
-4.59485e-07
3.74732e-06
-4.31026e-07
3.84614e-06
-4.04316e-07
3.93897e-06
-3.79223e-07
4.0262e-06
-3.55624e-07
4.10819e-06
-3.33399e-07
4.18527e-06
-3.12433e-07
4.25775e-06
-2.92617e-07
4.32594e-06
-2.73844e-07
4.39009e-06
-2.56009e-07
4.45046e-06
-2.39015e-07
4.50727e-06
-2.22764e-07
4.56075e-06
-2.07166e-07
4.61107e-06
-1.92134e-07
4.65842e-06
-1.77589e-07
4.70295e-06
-1.63457e-07
4.7448e-06
-1.49673e-07
4.78409e-06
-1.36179e-07
4.82099e-06
-1.22943e-07
4.8556e-06
-1.09999e-07
4.888e-06
-9.73997e-08
4.91832e-06
-8.51448e-08
4.94658e-06
-7.32831e-08
4.97277e-06
-6.18867e-08
4.99689e-06
-5.10147e-08
5.01888e-06
-4.07207e-08
5.03874e-06
-3.10245e-08
5.05644e-06