/*--------------------------------*- C++ -*----------------------------------*\
  =========                 |
  \\      /  F ield         | OpenFOAM: The Open Source CFD Toolbox
   \\    /   O peration     | Website:  https://openfoam.org
    \\  /    A nd           | Version:  9
     \\/     M anipulation  |
\*---------------------------------------------------------------------------*/
FoamFile
{
    format      ascii;
    class       volVectorField;
    location    "0.02";
    object      U;
}
// * * * * * * * * * * * * * * * * * * * * * * * * * * * * * * * * * * * * * //

dimensions      [0 1 -1 0 0 0 0];

internalField   nonuniform List<vector> 
12225
(
(9.86113 -0.872775 0)
(9.67055 -0.69744 0)
(9.45263 -0.384755 0)
(9.21198 -0.185808 0)
(8.98242 -0.0820373 0)
(8.77901 -0.030472 0)
(8.60138 -0.00482549 0)
(8.44577 0.00824634 0)
(8.30837 0.0152117 0)
(8.18519 0.019181 0)
(8.0722 0.0217465 0)
(7.96567 0.023806 0)
(7.86196 0.0259298 0)
(7.75744 0.0286084 0)
(7.64672 0.0324442 0)
(7.52607 0.0385504 0)
(7.36881 0.0495139 0)
(7.20831 0.0707731 0)
(10.0546 0.263921 0)
(10.1193 0.361827 0)
(10.1155 0.274977 0)
(10.0772 0.188965 0)
(10.0311 0.133655 0)
(9.97891 0.100275 0)
(9.91785 0.0799504 0)
(9.84906 0.0673359 0)
(9.77542 0.0593211 0)
(9.69919 0.0541814 0)
(9.62149 0.0510965 0)
(9.54269 0.0497693 0)
(9.4626 0.0501882 0)
(9.38079 0.0527109 0)
(9.29556 0.0579175 0)
(9.20766 0.0683702 0)
(9.10791 0.0842422 0)
(9.02135 0.130343 0)
(9.99899 0.0459811 0)
(10.0231 0.0346928 0)
(10.0504 0.0165064 0)
(10.0642 0.0247908 0)
(10.0668 0.0409264 0)
(10.0617 0.05153 0)
(10.0488 0.0569072 0)
(10.0283 0.0597913 0)
(10.0018 0.0617395 0)
(9.97016 0.0635273 0)
(9.93401 0.0656755 0)
(9.89352 0.0686434 0)
(9.84856 0.0729025 0)
(9.79885 0.0791837 0)
(9.74346 0.0884315 0)
(9.6822 0.103221 0)
(9.61232 0.125222 0)
(9.54074 0.170052 0)
(9.99666 0.00680158 0)
(10.0072 0.0265884 0)
(10.0306 0.0417422 0)
(10.0456 0.0543456 0)
(10.0526 0.062615 0)
(10.0556 0.0663543 0)
(10.0544 0.0680259 0)
(10.0487 0.0694644 0)
(10.0387 0.0712904 0)
(10.0248 0.0737206 0)
(10.0072 0.0770018 0)
(9.98574 0.0814971 0)
(9.96025 0.0877015 0)
(9.93038 0.0964183 0)
(9.89566 0.108768 0)
(9.85597 0.127068 0)
(9.81126 0.153508 0)
(9.76502 0.196338 0)
(9.9991 0.00740442 0)
(10.0068 0.0357252 0)
(10.0234 0.0497049 0)
(10.0345 0.0561007 0)
(10.0404 0.0610412 0)
(10.0444 0.0647659 0)
(10.0461 0.0675991 0)
(10.0444 0.0703585 0)
(10.0393 0.0735164 0)
(10.0313 0.0773338 0)
(10.0203 0.0821154 0)
(10.0061 0.0882857 0)
(9.98859 0.0964108 0)
(9.96758 0.107329 0)
(9.94296 0.122197 0)
(9.91501 0.142914 0)
(9.88462 0.171396 0)
(9.85485 0.211725 0)
(10.0001 0.00993877 0)
(10.0065 0.0347887 0)
(10.0188 0.046432 0)
(10.0277 0.0521836 0)
(10.0328 0.057925 0)
(10.0365 0.0630596 0)
(10.0384 0.0672113 0)
(10.0377 0.0711167 0)
(10.0343 0.0753983 0)
(10.0284 0.0804121 0)
(10.02 0.086506 0)
(10.0089 0.094136 0)
(9.99514 0.103894 0)
(9.97859 0.116593 0)
(9.95942 0.133302 0)
(9.9382 0.155505 0)
(9.9161 0.184635 0)
(9.89587 0.222797 0)
(10.0002 0.00986075 0)
(10.0055 0.0307463 0)
(10.0153 0.0425525 0)
(10.0231 0.0496196 0)
(10.0277 0.0562463 0)
(10.0309 0.0621485 0)
(10.0325 0.0671176 0)
(10.032 0.0718908 0)
(10.0292 0.0771188 0)
(10.0243 0.0831829 0)
(10.0172 0.0904432 0)
(10.0079 0.09936 0)
(9.99646 0.110515 0)
(9.98284 0.124656 0)
(9.96742 0.142701 0)
(9.95089 0.165761 0)
(9.93448 0.194812 0)
(9.92046 0.230895 0)
(10.0002 0.00910354 0)
(10.0045 0.0275293 0)
(10.0125 0.0398456 0)
(10.0194 0.0478944 0)
(10.0237 0.0549398 0)
(10.0264 0.0613063 0)
(10.0278 0.0669777 0)
(10.0274 0.0725702 0)
(10.025 0.0786873 0)
(10.0208 0.0857231 0)
(10.0147 0.0940455 0)
(10.0068 0.104105 0)
(9.9971 0.116446 0)
(9.98587 0.131725 0)
(9.9735 0.150684 0)
(9.96075 0.174118 0)
(9.94874 0.202619 0)
(9.93927 0.236626 0)
(10.0003 0.0084297 0)
(10.0037 0.0251701 0)
(10.0102 0.0375517 0)
(10.0163 0.0461812 0)
(10.0203 0.0535763 0)
(10.0228 0.0604154 0)
(10.0241 0.0667865 0)
(10.0238 0.0731748 0)
(10.0218 0.0801324 0)
(10.0182 0.0880664 0)
(10.0131 0.0973465 0)
(10.0064 0.108398 0)
(9.99846 0.12171 0)
(9.98942 0.137831 0)
(9.97979 0.157332 0)
(9.97031 0.180743 0)
(9.96196 0.208368 0)
(9.95611 0.240319 0)
(10.0003 0.00785706 0)
(10.0031 0.0232231 0)
(10.0083 0.0353732 0)
(10.0136 0.0444166 0)
(10.0174 0.0522027 0)
(10.0198 0.0595183 0)
(10.0211 0.0665406 0)
(10.021 0.0736689 0)
(10.0195 0.0814038 0)
(10.0167 0.0901518 0)
(10.0125 0.100272 0)
(10.0072 0.112151 0)
(10.0009 0.126212 0)
(9.99403 0.14289 0)
(9.98697 0.162599 0)
(9.98044 0.185661 0)
(9.97527 0.21218 0)
(9.97249 0.242094 0)
(10.0002 0.00733385 0)
(10.0026 0.0215399 0)
(10.0069 0.0333491 0)
(10.0114 0.0426867 0)
(10.0149 0.050844 0)
(10.0173 0.05859 0)
(10.0187 0.0661849 0)
(10.019 0.073977 0)
(10.0181 0.0824098 0)
(10.0161 0.0918705 0)
(10.013 0.102696 0)
(10.0091 0.115225 0)
(10.0046 0.129804 0)
(9.99979 0.146766 0)
(9.99519 0.166386 0)
(9.99138 0.188831 0)
(9.98903 0.214071 0)
(9.98894 0.241962 0)
(10.0002 0.00687887 0)
(10.0022 0.0201807 0)
(10.0058 0.0316428 0)
(10.0098 0.0411402 0)
(10.0131 0.0495814 0)
(10.0156 0.0576686 0)
(10.0171 0.0657135 0)
(10.0178 0.074033 0)
(10.0175 0.0830169 0)
(10.0163 0.0930217 0)
(10.0144 0.104354 0)
(10.0118 0.117305 0)
(10.0089 0.132153 0)
(10.006 0.149138 0)
(10.0036 0.168433 0)
(10.0021 0.1901 0)
(10.0021 0.214034 0)
(10.0041 0.240061 0)
(10.0002 0.00646275 0)
(10.0019 0.0189773 0)
(10.005 0.0300605 0)
(10.0086 0.0396077 0)
(10.0118 0.0482654 0)
(10.0142 0.0566371 0)
(10.0161 0.065054 0)
(10.0172 0.0738104 0)
(10.0176 0.0832453 0)
(10.0172 0.0936766 0)
(10.0164 0.105375 0)
(10.0152 0.118583 0)
(10.0139 0.133512 0)
(10.0129 0.150326 0)
(10.0124 0.169116 0)
(10.0131 0.189868 0)
(10.0151 0.212431 0)
(10.0192 0.236624 0)
(10.0002 0.00603195 0)
(10.0016 0.0177432 0)
(10.0043 0.0283673 0)
(10.0075 0.0378545 0)
(10.0106 0.046657 0)
(10.0133 0.0552622 0)
(10.0155 0.0639943 0)
(10.0171 0.0731229 0)
(10.0183 0.0829326 0)
(10.0191 0.0936915 0)
(10.0196 0.105625 0)
(10.0199 0.118917 0)
(10.0205 0.133715 0)
(10.0214 0.150108 0)
(10.0231 0.168115 0)
(10.0259 0.187665 0)
(10.0301 0.208581 0)
(10.0361 0.230688 0)
(10.0002 0.00557658 0)
(10.0014 0.016447 0)
(10.0038 0.0265202 0)
(10.0068 0.0358084 0)
(10.0099 0.0446315 0)
(10.0128 0.0533637 0)
(10.0155 0.0622955 0)
(10.018 0.0716638 0)
(10.0201 0.0816969 0)
(10.0221 0.0926041 0)
(10.0241 0.104555 0)
(10.0262 0.117677 0)
(10.0286 0.132049 0)
(10.0317 0.147697 0)
(10.0355 0.164584 0)
(10.0405 0.182604 0)
(10.0468 0.20157 0)
(10.0546 0.221332 0)
(10.0001 0.00507788 0)
(10.0013 0.0150282 0)
(10.0035 0.0244198 0)
(10.0065 0.0333202 0)
(10.0098 0.0419694 0)
(10.0131 0.0506425 0)
(10.0165 0.0595759 0)
(10.0198 0.0689622 0)
(10.0232 0.0789716 0)
(10.0266 0.0897507 0)
(10.0302 0.10141 0)
(10.0341 0.114017 0)
(10.0385 0.127595 0)
(10.0436 0.14212 0)
(10.0496 0.157518 0)
(10.0566 0.173667 0)
(10.0647 0.190387 0)
(10.0742 0.207561 0)
(10.0001 0.00449824 0)
(10.0013 0.0133663 0)
(10.0035 0.0218696 0)
(10.0066 0.0301189 0)
(10.0103 0.0383079 0)
(10.0143 0.0466314 0)
(10.0185 0.055261 0)
(10.0229 0.0643349 0)
(10.0276 0.0739644 0)
(10.0325 0.0842347 0)
(10.0378 0.0951984 0)
(10.0436 0.106872 0)
(10.0499 0.119236 0)
(10.057 0.132232 0)
(10.0648 0.14577 0)
(10.0736 0.159726 0)
(10.0834 0.173944 0)
(10.0942 0.188339 0)
(10.0001 0.00376544 0)
(10.0014 0.0112452 0)
(10.0039 0.0185292 0)
(10.0074 0.0257567 0)
(10.0116 0.03309 0)
(10.0164 0.0406579 0)
(10.0217 0.048565 0)
(10.0273 0.0568896 0)
(10.0334 0.0656861 0)
(10.0399 0.074984 0)
(10.0469 0.0847868 0)
(10.0544 0.0950705 0)
(10.0625 0.105786 0)
(10.0712 0.116859 0)
(10.0807 0.128197 0)
(10.0909 0.13969 0)
(10.1019 0.151208 0)
(10.1137 0.162697 0)
(10.0002 0.00275781 0)
(10.0017 0.00829912 0)
(10.0046 0.0138157 0)
(10.0087 0.0194713 0)
(10.0138 0.025401 0)
(10.0197 0.0316695 0)
(10.0261 0.0383115 0)
(10.0331 0.0453457 0)
(10.0406 0.0527751 0)
(10.0486 0.0605841 0)
(10.0571 0.0687386 0)
(10.0662 0.0771888 0)
(10.0757 0.0858708 0)
(10.0859 0.0947092 0)
(10.0965 0.103619 0)
(10.1078 0.112511 0)
(10.1195 0.121287 0)
(10.1318 0.129911 0)
(10.0002 0.00164573 0)
(10.002 0.00501336 0)
(10.0054 0.00851391 0)
(10.0104 0.01236 0)
(10.0164 0.016666 0)
(10.0233 0.0214289 0)
(10.0307 0.0266178 0)
(10.0388 0.0322045 0)
(10.0474 0.0381538 0)
(10.0565 0.0444168 0)
(10.0661 0.0509357 0)
(10.0762 0.0576483 0)
(10.0866 0.0644882 0)
(10.0976 0.0713855 0)
(10.1089 0.0782676 0)
(10.1206 0.085063 0)
(10.1327 0.091697 0)
(10.1451 0.098147 0)
(10.0002 0.000606349 0)
(10.0023 0.00192706 0)
(10.0063 0.00354555 0)
(10.012 0.00577592 0)
(10.0189 0.0086918 0)
(10.0265 0.0121825 0)
(10.0348 0.0161561 0)
(10.0437 0.0205618 0)
(10.0531 0.0253393 0)
(10.063 0.0304107 0)
(10.0732 0.0356988 0)
(10.0839 0.0411342 0)
(10.0949 0.0466512 0)
(10.1062 0.0521846 0)
(10.1179 0.0576708 0)
(10.1299 0.0630501 0)
(10.1421 0.0682623 0)
(10.1545 0.0732903 0)
(10.0003 -0.000412927 0)
(10.0026 -0.00117597 0)
(10.0072 -0.00147217 0)
(10.0138 -0.000753599 0)
(10.0215 0.000954422 0)
(10.0299 0.00335016 0)
(10.039 0.00627299 0)
(10.0485 0.00966318 0)
(10.0585 0.0134404 0)
(10.0689 0.0175034 0)
(10.0797 0.0217636 0)
(10.0908 0.0261491 0)
(10.1021 0.0305949 0)
(10.1137 0.0350399 0)
(10.1256 0.0394277 0)
(10.1377 0.0437081 0)
(10.1499 0.0478325 0)
(10.1622 0.0517874 0)
(10.0003 -0.00137374 0)
(10.0028 -0.00426702 0)
(10.0082 -0.00648038 0)
(10.0158 -0.00715306 0)
(10.0244 -0.00653464 0)
(10.0335 -0.00509984 0)
(10.0431 -0.00303138 0)
(10.0533 -0.000433587 0)
(10.0638 0.00254885 0)
(10.0746 0.00578889 0)
(10.0857 0.00920346 0)
(10.0971 0.0127292 0)
(10.1087 0.0163055 0)
(10.1205 0.0198757 0)
(10.1324 0.0233909 0)
(10.1445 0.0268089 0)
(10.1567 0.0300905 0)
(10.169 0.0332248 0)
(10.0002 -0.00225334 0)
(10.0029 -0.00759547 0)
(10.0092 -0.0114272 0)
(10.018 -0.0129961 0)
(10.0274 -0.0133615 0)
(10.0372 -0.0129568 0)
(10.0474 -0.0117084 0)
(10.058 -0.00975341 0)
(10.0689 -0.00737584 0)
(10.08 -0.00476584 0)
(10.0913 -0.00200792 0)
(10.1029 0.00084303 0)
(10.1146 0.00373194 0)
(10.1265 0.00660861 0)
(10.1385 0.00943088 0)
(10.1506 0.0121657 0)
(10.1627 0.0147837 0)
(10.1749 0.0172779 0)
(10.0001 -0.0026811 0)
(10.0028 -0.0120671 0)
(10.0104 -0.0174697 0)
(10.0202 -0.0187837 0)
(10.0302 -0.0193103 0)
(10.0405 -0.0196514 0)
(10.0514 -0.0192241 0)
(10.0626 -0.0179882 0)
(10.0739 -0.0162562 0)
(10.0853 -0.0142497 0)
(10.0968 -0.0120686 0)
(10.1084 -0.00978063 0)
(10.1202 -0.00744839 0)
(10.132 -0.00512292 0)
(10.1439 -0.00284297 0)
(10.1558 -0.000637476 0)
(10.1676 0.00146993 0)
(10.1795 0.00347359 0)
(9.99911 -0.000597804 0)
(10.0011 -0.0157075 0)
(10.0114 -0.0251465 0)
(10.0229 -0.0270987 0)
(10.0333 -0.0268998 0)
(10.0441 -0.0264863 0)
(10.0558 -0.0257468 0)
(10.0677 -0.0246482 0)
(10.0793 -0.023308 0)
(10.0908 -0.0217781 0)
(10.1023 -0.0200875 0)
(10.1137 -0.0182877 0)
(10.125 -0.0164367 0)
(10.1363 -0.0145816 0)
(10.1475 -0.0127571 0)
(10.1586 -0.0109913 0)
(10.1696 -0.00930407 0)
(10.1805 -0.00770094 0)
(9.99543 0.00443673 0)
(9.99447 -0.00896101 0)
(10.01 -0.0248862 0)
(10.0267 -0.0354907 0)
(10.0398 -0.0400604 0)
(10.0518 -0.0402831 0)
(10.0638 -0.0384272 0)
(10.0754 -0.0360894 0)
(10.0862 -0.0338183 0)
(10.0965 -0.031639 0)
(10.1063 -0.029514 0)
(10.1158 -0.0274483 0)
(10.125 -0.0254583 0)
(10.1339 -0.0235557 0)
(10.1426 -0.0217497 0)
(10.1511 -0.0200514 0)
(10.1595 -0.0184628 0)
(10.1677 -0.0169605 0)
(9.99143 -0.016496 0)
(9.99256 0.0021235 0)
(10.0124 0.0199618 0)
(10.0345 0.014476 0)
(10.0523 -0.00133621 0)
(10.066 -0.0141832 0)
(10.0762 -0.0216691 0)
(10.0834 -0.025652 0)
(10.0884 -0.0276051 0)
(10.0919 -0.0282616 0)
(10.0944 -0.0280805 0)
(10.0962 -0.0273958 0)
(10.0974 -0.0264289 0)
(10.0984 -0.0253182 0)
(10.0992 -0.0241561 0)
(10.0999 -0.0230113 0)
(10.1007 -0.0219479 0)
(10.1016 -0.0209262 0)
(10.0233 -0.206205 0)
(10.0683 -0.311812 0)
(10.0799 -0.254103 0)
(10.0736 -0.182002 0)
(10.0665 -0.132175 0)
(10.0593 -0.0994937 0)
(10.0478 -0.0774352 0)
(10.0314 -0.0623774 0)
(10.0118 -0.0518588 0)
(9.99072 -0.0441682 0)
(9.96929 -0.0382756 0)
(9.94813 -0.0335976 0)
(9.92768 -0.0297826 0)
(9.90823 -0.0266032 0)
(9.88995 -0.0239161 0)
(9.87291 -0.0216622 0)
(9.85729 -0.01982 0)
(9.8431 -0.0187042 0)
(9.94278 0.670641 0)
(9.88231 0.566061 0)
(9.77976 0.33761 0)
(9.64185 0.18319 0)
(9.50239 0.0952804 0)
(9.37758 0.047971 0)
(9.2693 0.0226764 0)
(9.17596 0.00889575 0)
(9.09596 0.00123126 0)
(9.02758 -0.00305195 0)
(8.96902 -0.0054121 0)
(8.91865 -0.00666865 0)
(8.87514 -0.00728994 0)
(8.83743 -0.00754361 0)
(8.8046 -0.00758989 0)
(8.77587 -0.00755459 0)
(8.7503 -0.00753367 0)
(8.72743 -0.00790848 0)
(0.0898425 -0.184037 -3.95343e-20)
(0.268322 -0.2998 3.46479e-20)
(0.487384 -0.326729 0)
(0.69904 -0.311657 0)
(0.885919 -0.279294 0)
(1.04434 -0.241144 -2.90693e-20)
(1.17495 -0.202303 0)
(1.27911 -0.164943 0)
(1.35816 -0.129687 0)
(1.41301 -0.0961158 0)
(1.4448 -0.062815 2.9161e-20)
(1.45391 -0.0281336 0)
(1.43456 0.00628153 0)
(1.38983 0.0374003 0)
(1.32463 0.0620466 0)
(1.2441 0.0781878 3.12103e-20)
(1.15284 0.0853875 0)
(1.05406 0.0845293 0)
(0.94815 0.0776313 0)
(0.831922 0.0682343 0)
(0.699208 0.0618259 0)
(0.54206 0.0655348 0)
(0.351377 0.0855061 0)
(0.118073 0.123411 4.24416e-20)
(-0.166225 0.177917 -4.13874e-20)
(-0.503851 0.243281 3.81036e-20)
(-0.891588 0.31165 3.52744e-20)
(-1.32242 0.375772 0)
(-1.78661 0.430024 0)
(-2.27307 0.470891 -2.99492e-20)
(-2.77044 0.496859 -2.91132e-20)
(-3.26793 0.508049 0)
(-3.756 0.505763 0)
(-4.22662 0.49203 -2.84098e-20)
(-4.67353 0.469196 0)
(-5.09208 0.439618 0)
(-5.4792 0.40544 2.90431e-20)
(-5.83311 0.368492 0)
(-6.15311 0.330242 2.96302e-20)
(-6.4393 0.291811 5.98028e-20)
(-6.69233 0.254005 0)
(-6.91326 0.217385 0)
(-7.10333 0.182329 0)
(-7.26391 0.149102 0)
(-7.39635 0.117901 0)
(-7.50205 0.0889126 6.12202e-20)
(-7.58246 0.0624261 6.10791e-20)
(-7.63899 0.038899 6.08254e-20)
(-7.67287 0.0187815 0)
(-7.68552 0.0022108 -5.99312e-20)
(-7.68001 -0.0110439 0)
(-7.66108 -0.0218976 5.83402e-20)
(-7.6292 -0.0314853 5.73307e-20)
(-7.5855 -0.0402867 0)
(-7.53072 -0.0485465 0)
(-7.46541 -0.0564176 0)
(-7.38995 -0.0640128 5.18476e-20)
(-7.30462 -0.0714331 0)
(-7.20958 -0.0787779 0)
(-7.10488 -0.08615 0)
(-6.99044 -0.0936561 0)
(-6.86602 -0.101406 0)
(-6.73126 -0.10951 0)
(-6.58562 -0.118073 0)
(-6.42844 -0.127189 0)
(-6.25892 -0.136933 -3.04959e-20)
(-6.07615 -0.147351 0)
(-5.87916 -0.158452 0)
(-5.66698 -0.170193 1.97423e-20)
(-5.43871 -0.182474 1.5608e-20)
(-5.19362 -0.195128 0)
(-4.93125 -0.207921 -6.40272e-21)
(-4.65153 -0.220553 1.30388e-21)
(-4.35485 -0.232673 0)
(-4.04217 -0.243899 9.91744e-21)
(-3.71501 -0.253845 0)
(-3.3755 -0.262153 0)
(-3.02628 -0.268524 -2.92052e-20)
(-2.6704 -0.272743 0)
(-2.31118 -0.27469 4.34761e-20)
(-1.95202 -0.274328 0)
(-1.59628 -0.271684 -5.86186e-20)
(-1.24712 -0.266791 -6.64445e-20)
(-0.907405 -0.259602 -7.44057e-20)
(-0.579594 -0.249909 -1.64961e-19)
(-0.265363 -0.237407 1.8078e-19)
(0.0344905 -0.222162 0)
(0.320149 -0.205802 0)
(0.591827 -0.19011 0)
(0.848532 -0.175383 1.71005e-19)
(1.09044 -0.161667 1.66199e-19)
(1.31804 -0.148968 -1.61556e-19)
(1.53192 -0.137257 0)
(1.73278 -0.12649 1.52816e-19)
(1.92133 -0.116607 1.48733e-19)
(2.0983 -0.107545 1.44843e-19)
(2.2644 -0.0992373 0)
(2.4203 -0.0916196 0)
(2.56667 -0.0846283 0)
(2.70409 -0.0782041 1.3115e-19)
(2.83313 -0.0722915 0)
(2.95432 -0.0668393 0)
(3.06814 -0.0618004 -1.22678e-19)
(3.17501 -0.0571314 0)
(3.27534 -0.0527921 0)
(3.36949 -0.0487455 -1.15546e-19)
(3.45779 -0.0449571 0)
(3.54052 -0.0413946 0)
(3.61794 -0.0380278 1.09584e-19)
(3.69026 -0.0348281 1.07829e-19)
(3.75767 -0.031769 0)
(3.82033 -0.0288259 -1.04639e-19)
(3.87837 -0.025976 0)
(3.93187 -0.0231993 1.01844e-19)
(3.9809 -0.0204802 0)
(4.02551 -0.0178045 9.9412e-20)
(4.06572 -0.0151541 9.83228e-20)
(4.10152 -0.0125199 0)
(4.1329 -0.00994378 0)
(4.15988 -0.0074781 0)
(4.1825 -0.00488336 0)
(4.20033 -0.00140536 0)
(4.21164 0.00322024 0)
(4.21502 0.00767221 0)
(4.21206 0.0112091 9.23075e-20)
(4.20432 0.0136361 -9.18398e-20)
(4.19309 0.0150302 0)
(4.17942 0.0155791 0)
(4.16412 0.0155057 0)
(4.14782 0.0149958 0)
(4.13098 0.0141919 -1.79905e-19)
(4.11399 0.0132034 0)
(4.09713 0.0121141 1.786e-19)
(4.08063 0.0109865 -1.77967e-19)
(4.06463 0.00986616 0)
(4.04926 0.00878537 0)
(4.0346 0.00776625 0)
(4.0207 0.00682286 1.75495e-19)
(4.00758 0.00596302 1.74885e-19)
(3.99525 0.00518979 0)
(3.98369 0.00450261 1.73665e-19)
(3.9729 0.00389825 1.73056e-19)
(3.96283 0.00337161 -1.72446e-19)
(3.95346 0.00291642 0)
(3.94474 0.00252578 0)
(3.93664 0.00219263 -1.70616e-19)
(3.92911 0.00191011 0)
(3.92212 0.00167176 0)
(3.91562 0.00147175 0)
(3.90957 0.00130486 0)
(3.90393 0.0011666 1.67571e-19)
(3.89865 0.00105314 1.66964e-19)
(3.89371 0.000961293 0)
(3.88906 0.000888492 1.65755e-19)
(3.88466 0.000832738 0)
(3.88047 0.000792585 0)
(3.87646 0.000767131 1.63957e-19)
(3.87257 0.00075603 0)
(3.86878 0.000759531 1.62777e-19)
(3.86503 0.000778491 0)
(3.86126 0.000814475 0)
(3.85742 0.000869901 1.6105e-19)
(3.85345 0.000948238 0)
(3.84924 0.0010543 1.59946e-19)
(3.84471 0.00119466 0)
(3.83973 0.00137822 0)
(3.83413 0.00161712 0)
(3.82771 0.00192796 -1.57954e-19)
(3.82019 0.00233378 0)
(3.81122 0.00286711 1.57158e-19)
(3.80029 0.00357471 0)
(3.78672 0.00452576 0)
(3.76955 0.00582521 0)
(3.74732 0.0076391 0)
(3.71799 0.0102415 0)
(3.67789 0.0140804 0)
(3.62278 0.020143 0)
(3.53831 0.0292455 -3.19506e-19)
(3.43069 0.0487532 0)
(3.16935 0.0662732 0)
(0.138034 -0.594476 1.02168e-19)
(0.298509 -0.703096 -8.21234e-20)
(0.450894 -0.652393 0)
(0.577924 -0.569774 4.74759e-20)
(0.678976 -0.482098 0)
(0.758503 -0.396819 2.24748e-20)
(0.819073 -0.316446 -4.59363e-20)
(0.861594 -0.241525 -4.64694e-20)
(0.886328 -0.171361 0)
(0.893186 -0.104398 -4.82677e-20)
(0.88134 -0.0386584 -2.45686e-20)
(0.850721 0.0270606 0)
(0.804476 0.0912905 0)
(0.736691 0.150844 0)
(0.642608 0.203 0)
(0.517805 0.247368 -2.73688e-20)
(0.357785 0.286844 0)
(0.157469 0.327383 5.81319e-20)
(-0.0888161 0.377647 0)
(-0.386815 0.447063 0)
(-0.739574 0.53946 -4.99916e-20)
(-1.14711 0.652588 0)
(-1.60418 0.778684 4.38354e-20)
(-2.09986 0.906717 -2.07409e-20)
(-2.61956 1.02558 1.95819e-20)
(-3.14856 1.12611 -1.86619e-20)
(-3.67319 1.20148 -1.79975e-20)
(-4.18131 1.24787 0)
(-4.66267 1.26444 0)
(-5.10933 1.25291 1.75164e-20)
(-5.51589 1.21685 -2.01211e-20)
(-5.87949 1.16091 0)
(-6.19948 1.09014 0)
(-6.47711 1.00946 1.95461e-20)
(-6.71494 0.923222 0)
(-6.91643 0.835031 0)
(-7.08548 0.747664 -2.1834e-20)
(-7.22603 0.663102 0)
(-7.34185 0.582628 2.49251e-20)
(-7.43635 0.506957 -4.77495e-20)
(-7.51254 0.436377 0)
(-7.573 0.370871 0)
(-7.6199 0.310227 -1.03325e-19)
(-7.65507 0.254128 -1.04307e-19)
(-7.68005 0.202216 -1.04971e-19)
(-7.69612 0.154142 5.35652e-20)
(-7.70436 0.109657 -5.18238e-20)
(-7.70574 0.0687166 -1.56788e-19)
(-7.70118 0.0315655 1.04444e-19)
(-7.69081 -0.00160758 5.09836e-20)
(-7.67306 -0.0311212 0)
(-7.64446 -0.0575885 -4.94766e-20)
(-7.60532 -0.0817982 4.97405e-20)
(-7.55554 -0.104233 0)
(-7.49532 -0.12522 0)
(-7.42493 -0.145016 0)
(-7.34466 -0.163848 -4.34862e-20)
(-7.25473 -0.181942 0)
(-7.15528 -0.199531 8.18176e-20)
(-7.04636 -0.216864 0)
(-6.92789 -0.234206 7.44169e-20)
(-6.79968 -0.251831 0)
(-6.66139 -0.270018 -6.59988e-20)
(-6.51251 -0.289036 0)
(-6.35242 -0.30913 5.64806e-20)
(-6.18033 -0.3305 -2.66738e-20)
(-5.99534 -0.353278 0)
(-5.79649 -0.377496 -3.98851e-20)
(-5.58279 -0.403065 -1.55582e-20)
(-5.3533 -0.429744 -1.21862e-20)
(-5.10726 -0.457126 0)
(-4.84413 -0.484625 -7.92416e-21)
(-4.56378 -0.511494 -9.85463e-22)
(-4.26654 -0.53685 0)
(-3.95331 -0.559734 -7.30949e-21)
(-3.62561 -0.579183 1.98961e-20)
(-3.28554 -0.594321 0)
(-2.93575 -0.60444 2.06532e-20)
(-2.57931 -0.609081 0)
(-2.21954 -0.608076 -8.61724e-20)
(-1.85983 -0.601553 0)
(-1.50343 -0.589905 1.1405e-19)
(-1.15331 -0.573722 4.37418e-20)
(-0.81201 -0.55369 -4.51048e-20)
(-0.481473 -0.530501 -9.95073e-20)
(-0.162927 -0.504721 1.07273e-19)
(0.142116 -0.476814 0)
(0.43236 -0.447814 0)
(0.707515 -0.419092 0)
(0.967715 -0.391262 -3.42311e-19)
(1.21331 -0.364661 -1.14688e-19)
(1.44478 -0.339475 1.13647e-19)
(1.66271 -0.315798 0)
(1.86777 -0.293654 1.08195e-19)
(2.06064 -0.27302 -1.09824e-19)
(2.24204 -0.253842 -1.08427e-19)
(2.41266 -0.236045 0)
(2.57316 -0.219543 0)
(2.7242 -0.204245 0)
(2.86637 -0.190058 -1.02791e-19)
(3.00024 -0.176895 0)
(3.12635 -0.164669 1.98807e-19)
(3.24517 -0.153301 2.95227e-19)
(3.35718 -0.142716 -1.94046e-19)
(3.46279 -0.132843 0)
(3.5624 -0.123615 -9.43295e-20)
(3.65638 -0.114973 0)
(3.74505 -0.106857 -1.85655e-19)
(3.82874 -0.099213 9.15297e-20)
(3.90771 -0.0919892 9.06938e-20)
(3.98223 -0.0851371 0)
(4.05253 -0.0786113 2.68647e-19)
(4.11882 -0.0723694 -1.77476e-19)
(4.18129 -0.0663731 -8.83071e-20)
(4.24009 -0.0605881 0)
(4.29537 -0.0549834 -8.70728e-20)
(4.34724 -0.0495298 -2.59222e-19)
(4.39582 -0.0442035 0)
(4.44118 -0.0389961 -1.70821e-19)
(4.48336 -0.0338863 -1.69995e-19)
(4.52234 -0.0287089 -1.69239e-19)
(4.55844 -0.0230817 0)
(4.5932 -0.0169713 0)
(4.62801 -0.0112471 0)
(4.66156 -0.00632115 8.31315e-20)
(4.69274 -0.00223357 8.29683e-20)
(4.72083 0.00111141 0)
(4.74545 0.00384756 1.64459e-19)
(4.7665 0.00603333 1.63804e-19)
(4.78403 0.00773886 0)
(4.79817 0.00903879 1.62649e-19)
(4.80914 0.00999083 3.24004e-19)
(4.81718 0.0106465 -1.61498e-19)
(4.82255 0.0110508 -1.6087e-19)
(4.82552 0.0112426 0)
(4.82638 0.0112566 0)
(4.8254 0.0111234 0)
(4.82286 0.0108707 -1.58931e-19)
(4.81902 0.0105233 1.58419e-19)
(4.81412 0.0101033 3.15928e-19)
(4.80838 0.00963007 -1.57507e-19)
(4.80202 0.00912045 1.57023e-19)
(4.79521 0.00858893 1.56574e-19)
(4.78811 0.00804773 0)
(4.78086 0.00750704 0)
(4.77358 0.0069752 -1.55167e-19)
(4.76636 0.00645895 0)
(4.75928 0.00596366 0)
(4.7524 0.00549346 3.07505e-19)
(4.74576 0.00505151 0)
(4.7394 0.00464011 1.52794e-19)
(4.73332 0.0042609 -1.52312e-19)
(4.72755 0.00391498 0)
(4.72207 0.0036031 1.51339e-19)
(4.71689 0.00332578 0)
(4.71199 0.00308348 0)
(4.70735 0.00287676 -1.49873e-19)
(4.70294 0.00270647 2.98766e-19)
(4.69875 0.00257393 -1.48896e-19)
(4.69474 0.00248116 0)
(4.69088 0.00243115 0)
(4.68714 0.00242825 1.47439e-19)
(4.68346 0.00247856 0)
(4.6798 0.00259058 1.46492e-19)
(4.67612 0.00277598 0)
(4.67234 0.00305076 0)
(4.66839 0.00343685 0)
(4.66417 0.00396445 1.44751e-19)
(4.65957 0.00467562 0)
(4.65443 0.00562974 -1.44003e-19)
(4.64855 0.00691228 0)
(4.64168 0.0086488 0)
(4.63345 0.0110309 2.86332e-19)
(4.62336 0.0143534 -2.86069e-19)
(4.61079 0.0191215 0)
(4.59439 0.0260899 0)
(4.57385 0.0370939 0)
(4.5425 0.0535264 8.64187e-19)
(4.51124 0.0870665 0)
(4.43056 0.12754 -5.81517e-19)
(0.0933342 -0.987253 -1.34955e-22)
(0.191879 -0.991717 1.01649e-19)
(0.267562 -0.860409 0)
(0.321734 -0.726844 -8.74725e-20)
(0.35825 -0.600793 0)
(0.379488 -0.482212 0)
(0.385663 -0.370081 1.90883e-22)
(0.375652 -0.262973 4.45502e-20)
(0.347663 -0.159076 4.57248e-20)
(0.299364 -0.0563494 4.77112e-20)
(0.228027 0.0474009 0)
(0.13091 0.154398 0)
(0.00571728 0.265848 -5.01773e-20)
(-0.150943 0.381075 -9.73627e-20)
(-0.343213 0.499084 9.34542e-20)
(-0.576279 0.620778 0)
(-0.855168 0.749523 8.43803e-20)
(-1.18315 0.88949 -3.99392e-20)
(-1.55979 1.04293 0)
(-1.97955 1.20785 7.15711e-20)
(-2.43193 1.3774 3.34866e-20)
(-2.90285 1.54147 -6.57806e-20)
(-3.37648 1.68901 -3.06127e-20)
(-3.83722 1.81021 0)
(-4.27141 1.89778 6.26928e-20)
(-4.66871 1.94721 6.30524e-20)
(-5.02282 1.95711 0)
(-5.33148 1.92925 6.53904e-20)
(-5.59591 1.86795 0)
(-5.81998 1.77923 6.92538e-20)
(-6.00928 1.66995 3.23366e-20)
(-6.17015 1.54699 0)
(-6.30882 1.41665 0)
(-6.43087 1.2842 0)
(-6.54082 1.15374 0)
(-6.64199 1.02821 0)
(-6.73659 0.909478 0)
(-6.82583 0.798531 8.67947e-20)
(-6.91017 0.69571 -1.31037e-19)
(-6.98947 0.600891 0)
(-7.06329 0.513669 0)
(-7.13095 0.433488 0)
(-7.19171 0.359737 -2.09123e-21)
(-7.24485 0.291809 9.17149e-20)
(-7.28968 0.229124 1.86316e-19)
(-7.3256 0.171136 -1.86814e-19)
(-7.35202 0.117308 -9.424e-20)
(-7.36831 0.0670528 9.24151e-20)
(-7.37386 0.0197697 1.56101e-21)
(-7.36851 -0.0250576 9.2443e-20)
(-7.35222 -0.0678103 0)
(-7.32514 -0.10846 8.97174e-20)
(-7.28764 -0.146852 1.46635e-21)
(-7.24002 -0.183052 0)
(-7.18252 -0.21724 0)
(-7.11542 -0.24965 -8.18011e-20)
(-7.03897 -0.280555 0)
(-6.95337 -0.310265 0)
(-6.85874 -0.339124 7.51287e-20)
(-6.75513 -0.367513 1.41113e-19)
(-6.64247 -0.395845 -6.56878e-20)
(-6.52058 -0.424554 0)
(-6.3891 -0.454087 5.81784e-20)
(-6.24755 -0.484879 0)
(-6.09525 -0.517332 5.33432e-20)
(-5.9314 -0.551777 4.49875e-20)
(-5.75503 -0.588438 -8.4243e-20)
(-5.56506 -0.627381 -3.92176e-20)
(-5.36037 -0.66847 0)
(-5.13985 -0.711322 5.18306e-20)
(-4.90252 -0.755272 0)
(-4.64764 -0.799356 3.82525e-20)
(-4.37489 -0.842331 1.40971e-20)
(-4.08443 -0.882726 4.4022e-22)
(-3.77706 -0.91893 1.36555e-20)
(-3.45427 -0.949328 -4.47936e-20)
(-3.11826 -0.972451 0)
(-2.77184 -0.98713 0)
(-2.4183 -0.992623 7.24369e-20)
(-2.06122 -0.988693 1.3312e-19)
(-1.70422 -0.975623 0)
(-1.35074 -0.954158 -6.0227e-20)
(-1.00386 -0.925411 0)
(-0.66615 -0.890745 2.17653e-19)
(-0.339564 -0.851656 4.13424e-21)
(-0.0254488 -0.809555 -3.97408e-21)
(0.274733 -0.765763 -1.6992e-19)
(0.560255 -0.721414 0)
(0.830841 -0.677433 1.73545e-19)
(1.08666 -0.634538 2.96939e-21)
(1.32805 -0.593253 0)
(1.55554 -0.553921 0)
(1.76971 -0.516741 0)
(1.97124 -0.481801 -1.75966e-19)
(2.16083 -0.449104 0)
(2.33918 -0.4186 0)
(2.50697 -0.390197 0)
(2.66486 -0.363784 0)
(2.81348 -0.339234 0)
(2.95341 -0.31642 -1.67216e-19)
(3.08521 -0.295215 0)
(3.20941 -0.275496 -1.65898e-19)
(3.32648 -0.257146 -1.64593e-19)
(3.43688 -0.240054 1.63331e-19)
(3.54104 -0.224118 0)
(3.63935 -0.209239 1.60971e-19)
(3.73218 -0.195327 0)
(3.81987 -0.182295 1.5887e-19)
(3.90275 -0.17006 -1.57926e-19)
(3.98111 -0.158546 -4.69911e-19)
(4.05524 -0.147678 0)
(4.12537 -0.137387 -4.65554e-19)
(4.19176 -0.127607 -1.5391e-19)
(4.25461 -0.118276 0)
(4.31411 -0.109338 -3.0682e-19)
(4.37044 -0.10074 -3.06031e-19)
(4.42377 -0.0924361 4.58411e-19)
(4.47421 -0.0843835 0)
(4.52192 -0.0765421 1.52505e-19)
(4.56697 -0.0688639 1.5232e-19)
(4.60947 -0.061328 4.56031e-19)
(4.64958 -0.0540397 0)
(4.68756 -0.0471172 0)
(4.72373 -0.0404155 0)
(4.75817 -0.0339876 1.51605e-19)
(4.79072 -0.0279172 0)
(4.82124 -0.0222722 0)
(4.84964 -0.0170913 -1.51868e-19)
(4.87578 -0.0124314 -1.51792e-19)
(4.89958 -0.00829759 0)
(4.92101 -0.00467259 0)
(4.94007 -0.00152922 -3.02749e-19)
(4.95681 0.00116226 0)
(4.97132 0.00343362 3.01948e-19)
(4.9837 0.00531785 3.01387e-19)
(4.99406 0.00684756 0)
(5.00256 0.00805475 0)
(5.00932 0.00897089 -2.99897e-19)
(5.01451 0.00962689 -6.27601e-23)
(5.01828 0.010053 -5.32401e-23)
(5.0208 0.0102787 0)
(5.02221 0.0103323 -5.94953e-19)
(5.02268 0.0102409 0)
(5.02234 0.01003 0)
(5.02133 0.00972331 0)
(5.01977 0.00934259 2.94591e-19)
(5.01778 0.00890748 0)
(5.01546 0.00843551 -5.85996e-19)
(5.01289 0.00794206 -2.92191e-19)
(5.01015 0.00744048 0)
(5.0073 0.00694215 -2.90509e-19)
(5.0044 0.00645671 0)
(5.00148 0.00599218 0)
(4.99858 0.00555521 -8.63689e-19)
(4.99571 0.00515132 5.74016e-19)
(4.9929 0.00478516 0)
(4.99014 0.00446078 5.70434e-19)
(4.98745 0.00418194 -2.8432e-19)
(4.9848 0.00395246 0)
(4.98219 0.00377659 0)
(4.97961 0.00365948 0)
(4.97702 0.00360766 -8.4219e-19)
(4.9744 0.00362975 0)
(4.97171 0.00373724 -2.78985e-19)
(4.9689 0.00394559 0)
(4.96591 0.00427574 0)
(4.96267 0.00475616 0)
(4.95909 0.00542586 0)
(4.95503 0.00633876 0)
(4.95036 0.00757044 0)
(4.94485 0.00922873 -5.47354e-19)
(4.93826 0.0114701 0)
(4.9302 0.0145307 -2.72877e-19)
(4.9202 0.0187657 8.17653e-19)
(4.90763 0.0247766 0)
(4.89145 0.0334388 0)
(4.87108 0.0467602 -5.45985e-19)
(4.84346 0.0667067 -5.49058e-19)
(4.81374 0.103142 5.48783e-19)
(4.77086 0.156173 5.5362e-19)
(0.0330097 -1.18126 -1.77807e-19)
(0.0528005 -1.07931 -1.45433e-19)
(0.0508636 -0.908651 -8.73215e-20)
(0.0356148 -0.746971 -4.02106e-20)
(0.00912991 -0.59457 0)
(-0.0293392 -0.448185 8.04142e-20)
(-0.0817677 -0.304806 -3.93901e-20)
(-0.151225 -0.161649 0)
(-0.241388 -0.016042 -4.26808e-20)
(-0.355555 0.134651 0)
(-0.497218 0.292494 8.06696e-20)
(-0.66948 0.458955 0)
(-0.874742 0.634896 3.9115e-20)
(-1.11492 0.820301 7.51134e-20)
(-1.39141 1.01465 -7.1736e-20)
(-1.70434 1.21697 0)
(-2.05139 1.42527 -6.49237e-20)
(-2.42664 1.63541 0)
(-2.82026 1.84046 0)
(-3.21927 2.03108 -5.6943e-20)
(-3.60936 2.19696 0)
(-3.97707 2.32875 -3.81194e-21)
(-4.31167 2.41968 0)
(-4.60627 2.46652 0)
(-4.85819 2.46954 5.63225e-21)
(-5.06862 2.43202 -5.57059e-20)
(-5.24195 2.35946 -6.33147e-20)
(-5.3847 2.25875 -5.89378e-20)
(-5.50437 2.13731 0)
(-5.60833 2.00228 -1.31825e-19)
(-5.70302 1.85993 0)
(-5.79346 1.71538 -7.25554e-20)
(-5.88305 1.57241 0)
(-5.9737 1.43363 0)
(-6.066 1.3006 7.77523e-20)
(-6.1596 1.17408 0)
(-6.25349 1.05428 -8.08799e-20)
(-6.34627 0.941047 3.38229e-21)
(-6.43638 0.834032 1.64156e-19)
(-6.52226 0.732786 -1.69762e-19)
(-6.60246 0.636845 0)
(-6.67566 0.54578 0)
(-6.74078 0.459212 -9.02391e-20)
(-6.79692 0.376832 0)
(-6.84338 0.298398 -8.66209e-20)
(-6.87967 0.223734 8.70158e-20)
(-6.90546 0.152722 8.72151e-20)
(-6.92056 0.0852746 0)
(-6.92495 0.0212413 -8.68926e-20)
(-6.9188 -0.03959 -8.60276e-20)
(-6.90237 -0.097285 1.73584e-19)
(-6.87598 -0.151966 -8.37397e-20)
(-6.83994 -0.203716 -8.23178e-20)
(-6.79457 -0.25267 0)
(-6.74018 -0.299031 0)
(-6.67706 -0.343067 7.69175e-20)
(-6.6055 -0.385107 0)
(-6.5257 -0.425547 0)
(-6.43784 -0.464843 -1.39471e-19)
(-6.34197 -0.503512 -1.33838e-19)
(-6.23805 -0.542124 0)
(-6.12589 -0.581294 0)
(-6.00515 -0.621662 0)
(-5.8753 -0.663867 0)
(-5.73562 -0.708512 -9.85484e-20)
(-5.58521 -0.756117 9.40371e-20)
(-5.42293 -0.807058 8.07301e-20)
(-5.24752 -0.861499 1.46487e-19)
(-5.05756 -0.919317 0)
(-4.85162 -0.980025 4.99121e-21)
(-4.62833 -1.04272 0)
(-4.38657 -1.10603 -2.60162e-20)
(-4.1256 -1.16815 5.21043e-21)
(-3.84528 -1.2269 -4.18556e-22)
(-3.54624 -1.27985 -1.29485e-20)
(-3.22994 -1.32455 4.72507e-21)
(-2.89873 -1.35876 0)
(-2.55575 -1.38068 -4.99652e-20)
(-2.20476 -1.38919 -6.77569e-20)
(-1.84984 -1.38395 -1.58922e-19)
(-1.49511 -1.36544 0)
(-1.14442 -1.33483 1.04109e-19)
(-0.801121 -1.29386 0)
(-0.467951 -1.24461 -2.59987e-19)
(-0.146906 -1.18924 1.41214e-19)