/*--------------------------------*- C++ -*----------------------------------*\
  =========                 |
  \\      /  F ield         | OpenFOAM: The Open Source CFD Toolbox
   \\    /   O peration     | Website:  https://openfoam.org
    \\  /    A nd           | Version:  9
     \\/     M anipulation  |
\*---------------------------------------------------------------------------*/
FoamFile
{
    format      ascii;
    class       volVectorField;
    location    "350";
    object      U;
}
// * * * * * * * * * * * * * * * * * * * * * * * * * * * * * * * * * * * * * //

dimensions      [0 1 -1 0 0 0 0];

internalField   nonuniform List<vector> 
10720
(
(-0.649999 11.8147 1.77272e-18)
(0.0113368 12.2377 -1.72768e-18)
(0.720432 12.5548 0)
(1.40751 12.5343 -5.23984e-17)
(2.02671 12.1814 5.26178e-17)
(2.53289 11.4088 2.21787e-17)
(2.84364 10.1347 4.40871e-17)
(2.89101 8.37201 0)
(2.62566 6.21116 0)
(2.05068 3.91034 0)
(1.28324 1.87096 1.35281e-17)
(0.502992 0.464703 0)
(-0.349265 -0.17684 4.49856e-16)
(-0.820423 -0.395334 0)
(-1.04257 -0.52938 0)
(-1.07537 -0.551438 0)
(-0.934681 -0.492517 -3.61391e-16)
(-0.680866 -0.396267 -4.36735e-16)
(-0.404734 -0.284837 3.95071e-16)
(-0.170335 -0.163404 0)
(0.00276197 -0.048289 6.8076e-16)
(0.132794 0.029834 -1.43609e-15)
(0.309796 0.0460729 5.22689e-16)
(0.623548 0.0350672 -1.06895e-17)
(1.09579 0.0167862 0)
(1.70642 -0.00749342 1.49614e-16)
(2.40724 -0.0437935 2.24229e-18)
(3.12535 -0.101106 -1.0203e-16)
(3.78148 -0.180312 -4.82736e-16)
(4.29506 -0.273753 -2.20757e-15)
(4.60636 -0.363465 1.23585e-15)
(4.61769 -0.438066 2.69067e-15)
(4.26748 -0.477837 2.8317e-15)
(4.22976 -0.582725 1.24919e-14)
(4.45713 -0.68597 -7.4858e-15)
(5.642 -0.989905 -5.04498e-17)
(7.81489 -1.52018 8.22564e-17)
(10.9086 -2.15861 4.31636e-14)
(10.7761 -3.03348 -4.50763e-14)
(-1.24478 11.2518 -6.13301e-19)
(-1.80287 10.5264 -3.56002e-18)
(-2.29927 9.63215 1.41825e-17)
(-2.66546 8.46854 -4.8314e-17)
(-2.83683 7.18703 -1.22642e-16)
(-2.76942 5.81574 2.0356e-16)
(-2.44085 4.43246 8.88022e-16)
(-1.8648 3.13916 4.39672e-16)
(-1.10731 2.02368 0)
(-0.262755 1.12044 0)
(0.565921 0.424997 2.97733e-15)
(1.3842 -0.159623 1.00925e-15)
(2.22358 -0.633924 -1.41163e-15)
(3.02535 -0.968804 1.07226e-15)
(3.74266 -1.17663 1.6915e-15)
(4.37838 -1.29783 1.05626e-15)
(4.96007 -1.36933 1.34517e-15)
(5.50902 -1.40899 8.90658e-16)
(6.03327 -1.4239 0)
(6.53571 -1.41612 0)
(7.02311 -1.38896 -1.26572e-15)
(7.50384 -1.34124 -6.22233e-17)
(7.98276 -1.26794 9.28865e-16)
(8.45124 -1.15664 -6.96942e-16)
(8.88556 -1.00336 8.20689e-18)
(9.27744 -0.820836 0)
(9.63531 -0.618834 1.46197e-16)
(9.96558 -0.403499 0)
(10.2724 -0.179056 0)
(10.5578 0.050974 -3.96443e-19)
(10.8275 0.283031 0)
(11.0893 0.51459 3.48831e-16)
(11.3544 0.744886 9.75789e-16)
(11.6337 0.973817 6.48977e-15)
(11.9543 1.20614 -3.22014e-15)
(12.3412 1.44882 1.3546e-17)
(12.8438 1.72079 0)
(13.7038 2.08335 -1.11451e-14)
(14.6326 2.51532 -1.39412e-14)
(1.96044 10.4751 -5.1804e-18)
(2.62601 10.8714 4.91428e-18)
(3.37847 11.1479 0)
(4.14496 11.3799 0)
(4.83944 11.5942 -8.55319e-18)
(5.40033 11.8135 -1.76653e-17)
(5.77951 11.9603 0)
(5.93988 11.8696 0)
(5.83586 11.265 -7.19362e-19)
(5.38962 9.87665 0)
(4.55905 7.70163 4.01328e-17)
(3.40153 5.1186 0)
(2.03837 2.74686 3.59067e-17)
(0.832447 1.11058 -6.03533e-17)
(0.0459252 0.279451 1.63518e-16)
(-0.385304 -0.119966 -3.25966e-16)
(-0.54836 -0.294701 2.70825e-16)
(-0.49959 -0.350917 1.96033e-16)
(-0.376813 -0.327458 1.64626e-16)
(-0.268364 -0.231424 1.10598e-17)
(-0.184831 -0.114645 -2.13489e-16)
(-0.0749319 -0.0429815 2.3752e-16)
(0.118343 -0.038007 -1.19954e-17)
(0.442406 -0.0661718 0)
(0.904627 -0.100621 0)
(1.48138 -0.134213 0)
(2.13 -0.170554 1.2038e-17)
(2.78362 -0.215362 -4.35475e-18)
(3.36633 -0.270091 2.90069e-16)
(3.79362 -0.3291 3.97491e-19)
(3.98466 -0.372745 -1.48897e-18)
(3.95811 -0.399255 -1.72915e-17)
(3.54177 -0.396541 1.52315e-15)
(3.33787 -0.488028 -3.32441e-15)
(3.50183 -0.608129 -3.4991e-17)
(4.94243 -1.03268 -7.68908e-15)
(7.16343 -1.61526 0)
(10.4965 -2.31553 -1.23236e-14)
(10.8953 -2.50962 -2.41872e-14)
(1.34376 10.0182 6.96624e-18)
(0.765216 9.4662 -1.99355e-17)
(0.179891 8.77503 -2.00776e-16)
(-0.33789 7.92862 2.12273e-16)
(-0.727146 6.9379 0)
(-0.941948 5.8373 -3.92871e-16)
(-0.947571 4.68026 -2.54536e-16)
(-0.729626 3.54942 -1.82772e-15)
(-0.312906 2.51853 7.78005e-16)
(0.251193 1.62581 -1.09422e-15)
(0.902432 0.885286 1.92222e-15)
(1.60143 0.27099 -5.60585e-16)
(2.33338 -0.203365 0)
(3.05476 -0.527426 -3.72361e-16)
(3.7266 -0.733702 1.28612e-17)
(4.34436 -0.869458 -8.2953e-16)
(4.92315 -0.965629 0)
(5.47684 -1.03046 0)
(6.01021 -1.06619 -8.76418e-17)
(6.52583 -1.07417 8.20187e-17)
(7.02863 -1.05853 -1.00917e-15)
(7.52618 -1.01678 -1.12904e-16)
(8.02242 -0.941907 5.00576e-17)
(8.51089 -0.819531 6.06027e-16)
(8.97226 -0.651935 -4.80906e-16)
(9.39653 -0.461944 -3.52324e-16)
(9.78899 -0.260234 0)
(10.1549 -0.0509049 0)
(10.4975 0.163877 0)
(10.8193 0.381774 3.43381e-18)
(11.1249 0.599808 0)
(11.422 0.816543 0)
(11.7216 1.03244 -1.6259e-15)
(12.034 1.24878 -2.15578e-15)
(12.3864 1.47207 2.66502e-15)
(12.7997 1.71087 -3.18148e-15)
(13.3388 1.99756 7.46044e-15)
(14.1676 2.35705 8.89199e-15)
(15.3156 3.09562 1.03886e-14)
(1.72889 9.66767 -1.51512e-18)
(2.16474 10.0107 -2.30321e-17)
(2.66747 10.2959 1.82887e-17)
(3.20415 10.5132 1.58352e-17)
(3.72795 10.6415 1.36583e-17)
(4.27634 10.7256 -3.03867e-17)
(4.83126 10.856 1.62138e-17)
(5.3556 11.109 1.79793e-17)
(5.82009 11.4392 -4.39631e-18)
(6.13197 11.5195 4.80839e-18)
(6.10897 10.8483 -2.02261e-17)
(5.55823 9.1261 -9.0844e-18)
(4.42966 6.58507 -3.24046e-18)
(2.96304 3.94937 0)
(1.58589 1.93763 -6.05634e-17)
(0.604518 0.758905 1.67079e-16)
(0.0669114 0.162574 0)
(-0.15231 -0.152725 -2.72371e-16)
(-0.22756 -0.27662 -1.05078e-16)
(-0.27245 -0.249304 1.3016e-17)
(-0.286186 -0.160219 -1.33541e-17)
(-0.222083 -0.10817 -7.79957e-18)
(-0.0402575 -0.121359 -1.09592e-16)
(0.27057 -0.168023 5.30858e-17)
(0.705037 -0.214436 0)
(1.23235 -0.250213 5.36043e-17)
(1.81375 -0.275533 -7.88082e-18)
(2.38601 -0.295788 0)
(2.87711 -0.312831 1.93969e-16)
(3.20482 -0.32324 4.63454e-16)
(3.28377 -0.311523 -1.03443e-15)
(3.10307 -0.276669 -1.0023e-15)
(2.58436 -0.239387 -1.78404e-17)
(2.4578 -0.368521 -2.17191e-15)
(2.67514 -0.539854 -2.55929e-15)
(4.31651 -1.07416 5.04159e-15)
(6.47264 -1.68822 0)
(9.95594 -2.31752 -8.30496e-15)
(10.6342 -2.6035 3.13157e-14)
(1.34399 9.27145 -8.58916e-18)
(0.981212 8.79553 -2.25841e-17)
(0.638542 8.18922 8.27775e-17)
(0.322777 7.46693 0)
(0.0884433 6.64272 1.35766e-16)
(-0.0374707 5.73081 0)
(-0.0303561 4.76435 7.83741e-16)
(0.12383 3.79962 4.71614e-16)
(0.420631 2.88751 5.87255e-16)
(0.840096 2.06001 0)
(1.34724 1.34233 -1.66271e-15)
(1.91898 0.736497 -3.72467e-16)
(2.53865 0.250539 1.64905e-15)
(3.1677 -0.112924 0)
(3.77408 -0.376884 -7.81988e-16)
(4.3488 -0.572954 -2.34313e-16)
(4.89791 -0.720934 1.00157e-15)
(5.42933 -0.827162 5.26922e-16)
(5.94633 -0.895411 1.50073e-16)
(6.45067 -0.930473 -7.68112e-17)
(6.9458 -0.937652 8.71543e-16)
(7.43718 -0.916237 0)
(7.92772 -0.860624 0)
(8.41218 -0.761362 6.26565e-18)
(8.87498 -0.621235 0)
(9.30673 -0.456735 6.73543e-16)
(9.71096 -0.275338 -8.84261e-18)
(10.0925 -0.0801136 -4.03218e-17)
(10.4545 0.126293 0)
(10.7995 0.341012 -2.86965e-18)
(11.132 0.560312 -5.77238e-17)
(11.4593 0.782382 0)
(11.7919 1.00734 7.59764e-16)
(12.1393 1.23604 0)
(12.5282 1.47504 0)
(12.9752 1.73255 2.13585e-17)
(13.5546 2.04184 -7.70199e-17)
(14.3619 2.44196 -8.51084e-15)
(15.5861 3.22595 -2.04781e-14)
(2.5823 8.95375 -8.43817e-18)
(2.96433 9.27029 -1.42988e-17)
(3.39366 9.54787 2.45472e-17)
(3.84866 9.77678 2.68554e-17)
(4.30672 9.93893 0)
(4.74441 10.0389 0)
(5.1255 10.0984 7.88392e-17)
(5.45251 10.1762 -5.01601e-17)
(5.75696 10.3989 0)
(6.08475 10.8404 3.70384e-17)
(6.4047 11.2515 8.90854e-18)
(6.50137 11.0106 1.63046e-17)
(6.05603 9.58502 7.72838e-18)
(4.93599 7.10888 3.7733e-18)
(3.39326 4.38065 0)
(1.92339 2.23357 4.13247e-17)
(0.89372 0.931158 2.31732e-17)
(0.336754 0.237377 1.77956e-16)
(0.0353068 -0.104479 8.9123e-18)
(-0.18102 -0.193518 -8.70291e-18)
(-0.315978 -0.164675 8.16503e-17)
(-0.323408 -0.154544 -1.43853e-17)
(-0.179262 -0.200065 8.18337e-17)
(0.104201 -0.269394 4.00587e-17)
(0.501538 -0.328633 -2.7137e-18)
(0.974809 -0.3655 -3.71458e-17)
(1.48821 -0.377966 4.49211e-19)
(1.98252 -0.371186 -3.86606e-19)
(2.38955 -0.347927 -1.43954e-16)
(2.62515 -0.306774 -5.87714e-18)
(2.59666 -0.235816 4.09221e-16)
(2.28772 -0.142407 -7.97941e-16)
(1.7181 -0.0927742 -7.58798e-16)
(1.70467 -0.275668 -1.10558e-17)
(2.00392 -0.514267 1.86609e-15)
(3.80411 -1.1477 0)
(5.87483 -1.78637 4.29648e-15)
(9.48483 -2.36424 5.96554e-15)
(10.3182 -2.69529 -1.1128e-14)
(2.23435 8.60444 -1.20802e-17)
(1.89624 8.19921 3.93882e-17)
(1.56557 7.69394 1.38877e-16)
(1.25695 7.08882 0)
(1.01584 6.39332 -1.23839e-16)
(0.863761 5.6172 0)
(0.821858 4.78531 -6.83477e-16)
(0.902556 3.94465 -2.03776e-17)
(1.10441 3.13506 4.87032e-16)
(1.41473 2.38189 6.00191e-16)
(1.8088 1.70674 1.949e-17)
(2.27172 1.11856 1.14299e-15)
(2.79024 0.627829 -7.82349e-16)
(3.33399 0.239114 2.40851e-16)
(3.87714 -0.0597157 8.49728e-16)
(4.40812 -0.28921 9.5282e-16)
(4.92612 -0.464683 -8.67743e-16)
(5.43383 -0.594328 -2.27491e-18)
(5.93275 -0.683817 0)
(6.42357 -0.738448 9.46838e-16)
(6.90818 -0.762439 4.87376e-17)
(7.39014 -0.755589 -7.46574e-16)
(7.87146 -0.713733 0)
(8.34762 -0.62998 5.19267e-18)
(8.80548 -0.505759 0)
(9.23584 -0.354077 -2.96187e-16)
(9.64056 -0.183077 0)
(10.0238 0.00310947 3.61332e-17)
(10.3888 0.20125 -7.89573e-19)
(10.738 0.408479 3.47351e-19)
(11.076 0.621109 4.87547e-17)
(11.41 0.837586 2.37191e-18)
(11.7505 1.05829 0)
(12.1071 1.28443 -8.58509e-16)
(12.5065 1.52301 -1.51056e-17)
(12.9628 1.78251 2.68388e-15)
(13.5558 2.0995 -1.27719e-14)
(14.3452 2.51549 -2.5345e-17)
(15.5749 3.30569 0)
(2.8854 8.43308 -1.27872e-17)
(3.17369 8.72952 -1.33916e-17)
(3.50679 9.00419 4.95185e-17)
(3.86414 9.25006 -1.72816e-16)
(4.22575 9.44472 4.04061e-17)
(4.58976 9.59246 7.05689e-17)
(4.94934 9.69828 -4.38601e-17)
(5.28954 9.76661 0)
(5.60216 9.83411 -9.85921e-17)
(5.89961 10.0236 -1.13293e-17)
(6.23175 10.4786 0)
(6.59478 11.0196 -1.49645e-17)
(6.75114 10.9381 3.90129e-18)
(6.30576 9.56649 -2.51247e-17)
(5.10164 7.04875 0)
(3.46939 4.29331 -3.50192e-17)
(1.98516 2.1628 3.29817e-17)
(0.991219 0.877213 -1.30279e-17)
(0.402705 0.214306 0)
(0.00120465 -0.0476023 4.82051e-17)
(-0.273572 -0.114613 -6.06884e-17)
(-0.37846 -0.170453 -4.02651e-18)
(-0.295647 -0.264402 -6.25182e-17)
(-0.0542091 -0.363478 -5.61419e-17)
(0.29962 -0.437184 0)
(0.716145 -0.474809 0)
(1.16121 -0.472972 -9.74063e-18)
(1.57841 -0.437476 -1.76169e-18)
(1.90064 -0.372714 1.20724e-16)
(2.04027 -0.277882 -4.93514e-18)
(1.89609 -0.145195 4.69145e-18)
(1.47909 0.000731868 6.58185e-16)
(0.920472 0.0397406 0)
(1.04253 -0.20885 2.73957e-15)
(1.44307 -0.524269 -1.03736e-17)
(3.36183 -1.24661 0)
(5.35068 -1.91134 2.14305e-17)
(9.06477 -2.44433 0)
(9.99015 -2.76538 8.80835e-15)
(2.62645 8.11215 1.8585e-17)
(2.37721 7.74738 -8.5767e-17)
(2.13066 7.29585 9.0903e-17)
(1.89203 6.76259 1.15484e-16)
(1.70062 6.15779 -4.53777e-16)
(1.57212 5.48406 -5.33034e-16)
(1.52496 4.75849 6.00906e-16)
(1.57212 4.01968 -7.27568e-16)
(1.71595 3.29916 -4.33635e-16)
(1.94948 2.61761 -4.81372e-16)
(2.25873 1.99074 9.76268e-16)
(2.63648 1.43095 -9.39077e-16)
(3.07086 0.950853 -4.25898e-16)
(3.53951 0.554818 4.05459e-16)
(4.0223 0.2371 -9.16998e-16)
(4.50765 -0.0157869 1.63444e-16)
(4.99088 -0.215052 0)
(5.47126 -0.368044 -6.73918e-16)
(5.94863 -0.479789 2.40623e-16)
(6.42269 -0.55479 -9.56422e-16)
(6.89404 -0.596408 0)
(7.36461 -0.60502 6.2816e-16)
(7.83543 -0.577782 4.99612e-16)
(8.30236 -0.510021 -4.05343e-16)
(8.75411 -0.402618 0)
(9.18174 -0.265959 -2.76799e-16)
(9.58564 -0.108187 0)
(9.96918 0.0664969 0)
(10.3352 0.254946 0)
(10.6861 0.454344 8.36375e-18)
(11.0264 0.661018 0)
(11.363 0.87335 0)
(11.7063 1.09169 5.68478e-16)
(12.0656 1.31734 7.80755e-16)
(12.4678 1.55747 0)
(12.9249 1.82125 2.36655e-15)
(13.5215 2.14667 4.13571e-17)
(14.2881 2.58007 0)
(15.5138 3.38405 7.4436e-15)
(3.32241 7.98646 1.99771e-17)
(3.56642 8.26418 -1.55541e-17)
(3.84835 8.52827 0)
(4.15146 8.77209 -4.54712e-19)
(4.46028 8.97632 1.31936e-16)
(4.77696 9.14595 -6.73779e-17)
(5.08059 9.28839 8.60856e-18)
(5.35954 9.40963 1.61083e-16)
(5.61692 9.50848 -1.68678e-17)
(5.85715 9.59793 -9.59554e-17)
(6.10092 9.79378 2.58382e-17)
(6.41468 10.2843 -3.8351e-17)
(6.79529 10.883 -1.79811e-17)
(6.93583 10.7689 -2.92679e-17)
(6.36937 9.24256 0)
(4.99791 6.59763 -2.02126e-18)
(3.29009 3.86809 -1.51201e-17)
(1.85151 1.86585 -4.16467e-17)
(0.891616 0.721185 7.89355e-18)
(0.266507 0.202986 -2.42543e-17)
(-0.157267 0.00161915 -4.17513e-18)
(-0.37928 -0.145364 0)
(-0.38069 -0.306763 4.61826e-17)
(-0.196934 -0.446255 2.96453e-18)
(0.106578 -0.536912 -1.93908e-18)
(0.464772 -0.57449 -2.62267e-17)
(0.839917 -0.556943 7.43404e-18)
(1.17645 -0.491961 2.10015e-17)
(1.40693 -0.384443 -1.05685e-16)
(1.44263 -0.232399 -8.9397e-18)
(1.18104 -0.0370793 3.11154e-16)
(0.688486 0.148194 5.79923e-16)
(0.203748 0.151454 0)
(0.459672 -0.169175 1.26826e-17)
(0.971997 -0.566049 -1.30626e-15)
(2.97157 -1.36519 0)
(4.89381 -2.05964 -5.68573e-15)
(8.68182 -2.54681 0)
(9.66413 -2.82829 -7.19694e-15)
(3.10184 7.69234 -1.77928e-17)
(2.88897 7.36442 4.06623e-17)
(2.67683 6.96192 0)
(2.47048 6.48833 0)
(2.30324 5.95353 2.06677e-16)
(2.18623 5.35806 9.46056e-16)
(2.1347 4.71466 0)
(2.15971 4.05685 -6.33132e-16)
(2.26378 3.41056 -7.49628e-16)
(2.44257 2.79187 8.39475e-16)
(2.68889 2.21324 -2.22073e-17)
(2.99987 1.68757 3.81234e-16)
(3.36511 1.22661 7.40457e-18)
(3.76875 0.833892 1.03163e-15)
(4.19563 0.507536 9.49006e-16)
(4.6356 0.23965 -8.9484e-16)
(5.08253 0.0228509 1.30839e-16)
(5.53362 -0.14859 -2.42921e-16)
(5.98738 -0.278693 1.12405e-16)
(6.4426 -0.371028 6.73259e-16)
(6.89878 -0.428378 8.76514e-17)
(7.35649 -0.4515 -6.79751e-17)
(7.81581 -0.438351 -4.19702e-16)
(8.2728 -0.385657 0)
(8.71753 -0.294085 1.85622e-17)
(9.14142 -0.171871 4.92872e-16)
(9.54361 -0.0266587 -2.54096e-18)
(9.92662 0.137246 2.45737e-18)
(10.2929 0.31663 0)
(10.6448 0.508516 -7.64455e-18)
(10.9864 0.70928 0)
(11.3245 0.917243 0)
(11.6693 1.13278 -5.07796e-16)
(12.0298 1.35741 -6.97886e-16)
(12.4329 1.59841 0)
(12.8888 1.86602 -2.13573e-15)
(13.4853 2.19864 1.00968e-14)
(14.2286 2.65015 -3.92275e-17)
(15.4415 3.467 -6.52352e-15)
(3.64786 7.6316 3.16371e-18)
(3.84577 7.89534 -1.53285e-17)
(4.07825 8.15272 4.98358e-17)
(4.32925 8.39774 -5.06722e-17)
(4.58667 8.61059 -8.25746e-17)
(4.85417 8.79707 0)
(5.12172 8.95743 1.46707e-16)
(5.3803 9.09787 6.91101e-18)
(5.62554 9.22777 3.43205e-17)
(5.85462 9.34181 6.60689e-17)
(6.06679 9.44433 0)
(6.28834 9.67032 8.6055e-17)
(6.61019 10.2255 4.03728e-17)
(7.00175 10.8205 7.05001e-17)
(7.04181 10.4949 0)
(6.24098 8.65524 1.93679e-17)
(4.66005 5.86028 8.36983e-18)
(2.9148 3.24167 9.98466e-18)
(1.54163 1.48469 -1.2516e-17)
(0.626158 0.586316 1.05088e-17)
(0.0319555 0.193019 4.33351e-18)
(-0.31712 -0.0684674 -4.41027e-17)
(-0.423731 -0.318095 0)
(-0.31419 -0.512118 -5.0546e-17)
(-0.0694515 -0.624867 2.73682e-18)
(0.228006 -0.662008 2.56201e-17)
(0.52969 -0.62842 0)
(0.779846 -0.533037 -1.41202e-18)
(0.911665 -0.380153 4.81624e-18)
(0.836992 -0.167619 2.44311e-16)
(0.465573 0.0874094 -2.71178e-16)
(-0.0607362 0.292254 -5.23889e-16)
(-0.420545 0.236963 5.27817e-16)
(-0.0525196 -0.155617 3.34738e-18)
(0.573717 -0.637185 1.13769e-15)
(2.62232 -1.50116 2.12326e-15)
(4.49671 -2.23016 2.47999e-15)
(8.32302 -2.66753 -5.0255e-17)
(9.3484 -2.88888 2.09914e-17)
(3.46993 7.35635 8.59877e-18)
(3.29825 7.05449 8.05162e-17)
(3.1254 6.68664 8.92718e-17)
(2.95398 6.25718 -1.72889e-16)
(2.81341 5.77614 -5.97051e-16)
(2.71212 5.24185 2.0287e-16)
(2.66316 4.66384 4.86076e-16)
(2.6765 4.07186 1.44333e-15)
(2.7539 3.48851 6.87167e-16)
(2.89414 2.92407 -7.01023e-16)
(3.09489 2.3902 -2.03447e-17)
(3.354 1.90038 -3.40368e-16)
(3.66317 1.46299 0)
(4.01152 1.08074 -1.3565e-17)
(4.38804 0.754027 -5.72152e-16)
(4.78465 0.478624 2.57412e-16)
(5.1952 0.250147 -2.4794e-16)
(5.61592 0.0647714 0)
(6.04451 -0.0803986 3.93672e-16)
(6.47913 -0.18797 -7.04067e-16)
(6.9184 -0.259875 0)
(7.36181 -0.296804 5.30525e-16)
(7.80863 -0.297359 0)
(8.25495 -0.259205 -2.16953e-17)
(8.69188 -0.182908 2.09498e-17)
(9.11111 -0.0749693 -2.3182e-16)
(9.51084 0.0576743 -4.06292e-18)
(9.89275 0.210706 -2.33542e-18)
(10.2589 0.380791 3.5894e-19)
(10.6113 0.564957 -1.08993e-17)
(10.9541 0.759632 2.60797e-17)
(11.2933 0.963178 -1.35891e-16)
(11.6393 1.1759 -5.70737e-18)
(12.0005 1.39961 9.93281e-18)
(12.4037 1.64154 0)
(12.8577 1.91329 -3.42758e-17)
(13.452 2.25309 -4.49678e-15)
(14.1721 2.7233 1.20502e-17)
(15.3624 3.55203 -5.77584e-15)
(3.96494 7.33194 3.90466e-18)
(4.13165 7.58277 2.90909e-17)
(4.32944 7.83171 0)
(4.54386 8.07271 -6.05282e-18)
(4.76467 8.28654 -9.24893e-17)
(4.99692 8.4805 0)
(5.23203 8.65273 8.29742e-17)
(5.45957 8.80761 -2.99937e-16)
(5.67695 8.95471 3.07746e-16)
(5.88375 9.09924 -9.79429e-17)
(6.08084 9.22723 -7.11613e-17)
(6.264 9.34657 -1.58175e-16)
(6.47422 9.63329 -8.51883e-17)
(6.82555 10.2746 -4.8814e-17)
(7.19513 10.7689 -7.78165e-18)
(7.02294 10.0534 -8.3114e-18)
(5.89392 7.81005 -6.42648e-18)
(4.11206 4.93126 -1.20266e-17)
(2.37819 2.55785 7.26585e-18)
(1.11182 1.15278 -9.75748e-18)
(0.301804 0.476157 0)
(-0.185901 0.0689474 7.33315e-20)
(-0.413738 -0.28832 4.11683e-17)
(-0.395762 -0.554539 4.44584e-17)
(-0.219915 -0.697599 -2.54165e-18)
(0.0127445 -0.735399 -2.41549e-17)
(0.236932 -0.685338 2.66632e-19)
(0.395719 -0.557894 -2.12339e-17)
(0.423056 -0.35645 2.56254e-18)
(0.233101 -0.081965 -4.67938e-16)
(-0.227762 0.22365 1.12894e-18)
(-0.73548 0.421974 -7.02627e-18)
(-0.950953 0.294358 -4.88852e-16)
(-0.496964 -0.167618 4.69249e-18)
(0.23308 -0.734824 -1.01619e-15)
(2.30621 -1.65319 -3.77017e-15)
(4.14987 -2.42154 2.20754e-15)
(7.97792 -2.8036 2.80246e-15)
(9.04743 -2.94597 -5.77995e-15)
(3.81548 7.07349 -3.51742e-17)
(3.67164 6.79377 -1.13752e-16)
(3.52623 6.45493 -7.73912e-17)
(3.38084 6.06136 -1.70746e-16)
(3.26118 5.62324 3.57861e-16)
(3.17357 5.13785 -7.83337e-18)
(3.12902 4.61255 -1.34049e-15)
(3.13609 4.07424 -5.43488e-16)
(3.19516 3.54391 -2.86531e-19)
(3.3082 3.02675 0)
(3.47597 2.53364 -5.95018e-16)
(3.69472 2.07866 5.66301e-16)
(3.95868 1.66663 -5.48091e-16)
(4.26056 1.29932 -2.76591e-16)
(4.59259 0.978233 2.43322e-16)
(4.94884 0.701288 2.36764e-16)
(5.32397 0.466374 8.71919e-16)
(5.71411 0.271328 -2.05987e-16)
(6.11666 0.114405 -3.64086e-16)
(6.52939 -0.00600939 0)
(6.95033 -0.0909861 -5.6737e-16)
(7.37818 -0.140894 -4.35204e-16)
(7.81152 -0.154565 -6.58398e-18)
(8.24646 -0.130386 -4.73437e-17)
(8.67478 -0.0687972 -1.6426e-17)
(9.08847 0.0252485 2.44951e-16)
(9.48499 0.145457 -4.62156e-18)
(9.86521 0.287611 3.44297e-17)
(10.2307 0.448315 4.73407e-18)
(10.5834 0.624653 9.51671e-18)
(10.927 0.813162 -3.03208e-18)
(11.2672 1.0122 2.64611e-16)
(11.6141 1.22205 4.01763e-16)
(11.9757 1.44482 5.78453e-16)
(12.3787 1.68771 2.29415e-17)
(12.8303 1.96378 -1.21559e-17)
(13.4205 2.31055 4.14539e-15)
(14.1178 2.79947 4.68407e-15)
(15.2773 3.63848 5.26102e-15)
(4.24622 7.08157 -1.46968e-17)
(4.3858 7.32164 -1.31762e-17)
(4.5537 7.56323 -9.58343e-17)
(4.73626 7.80067 3.76412e-16)
(4.92503 8.01459 -1.79473e-16)
(5.12552 8.21338 1.65331e-16)
(5.33064 8.39407 -3.02909e-16)
(5.53418 8.55684 0)
(5.73243 8.71107 -1.03181e-16)
(5.92231 8.86423 7.41784e-19)
(6.10606 9.01887 7.74889e-17)
(6.28172 9.15385 1.61964e-16)
(6.44239 9.29732 3.41282e-17)
(6.66468 9.68757 0)
(7.05956 10.402 0)
(7.32941 10.637 0)
(6.81296 9.36952 0)
(5.31118 6.74106 9.25741e-18)
(3.38908 3.93848 -5.37647e-18)
(1.7566 1.95335 1.16128e-18)
(0.6722 0.884805 -8.74083e-18)
(0.01842 0.276214 2.26235e-17)
(-0.340705 -0.208031 -3.02574e-17)
(-0.431765 -0.565848 -2.27791e-18)
(-0.336083 -0.750659 -1.47856e-18)
(-0.173273 -0.792481 2.37136e-17)
(-0.0304893 -0.724728 6.65768e-18)
(0.0328333 -0.562924 0)
(-0.0487555 -0.309933 0)
(-0.353267 0.0240205 2.74537e-18)
(-0.864313 0.361934 0)
(-1.31282 0.529806 4.39167e-16)
(-1.39314 0.324179 -4.72245e-16)
(-0.876768 -0.204031 -8.49534e-16)
(-0.0632469 -0.855212 1.79935e-15)
(2.01661 -1.82064 1.71501e-15)
(3.84218 -2.63207 -1.98267e-15)
(7.63822 -2.9529 -5.09563e-15)
(8.76198 -2.9986 5.38396e-15)
(4.1217 6.83673 0)
(4.00205 6.57478 3.48478e-17)
(3.88064 6.25909 1.45034e-16)
(3.75797 5.89443 -6.10046e-16)
(3.657 5.49108 4.89409e-16)
(3.5824 5.04557 -3.61922e-16)
(3.54382 4.5635 -2.19752e-18)
(3.54816 4.06965 4.61141e-16)
(3.59561 3.58315 5.21388e-16)
(3.68995 3.10736 0)
(3.83298 2.65193 2.53712e-16)
(4.02021 2.22972 -7.60752e-16)
(4.24777 1.84323 1.22188e-15)
(4.51085 1.49345 2.28482e-16)
(4.80412 1.1821 -4.57676e-16)
(5.12357 0.908298 -4.30993e-16)
(5.46502 0.67136 -4.01253e-16)
(5.82513 0.470438 0)
(6.20134 0.304883 0)
(6.59131 0.174069 0)
(6.9928 0.0777315 5.2983e-16)
(7.40398 0.0159806 0)
(7.82295 -0.0100738 -3.46541e-16)
(8.24575 0.000791178 -4.4443e-17)
(8.66468 0.0483646 -2.72894e-16)
(9.07196 0.128826 -2.15276e-16)
(9.46449 0.236717 0)
(9.84238 0.367933 -2.81984e-17)
(10.2068 0.519176 -4.8465e-18)
(10.5594 0.687524 7.04995e-19)
(10.9035 0.869715 -3.73176e-17)
(11.2445 1.06411 -5.38242e-18)
(11.592 1.271 -3.82731e-16)
(11.9539 1.49278 5.20515e-16)
(12.3562 1.73658 0)
(12.8049 2.01707 2.91333e-17)
(13.3895 2.37064 -6.67174e-17)
(14.0642 2.87775 -4.39321e-15)
(15.1859 3.72562 3.21549e-17)
(4.50767 6.8686 1.47109e-17)
(4.62586 7.09896 0)
(4.76992 7.33335 1.8791e-16)
(4.92708 7.56613 -1.84588e-16)
(5.09024 7.77801 8.34623e-17)
(5.26513 7.97805 -1.56145e-16)
(5.4455 8.1633 1.47538e-16)
(5.62673 8.33099 1.41105e-16)
(5.80461 8.49103 0)
(5.9762 8.6481 8.87963e-17)
(6.14258 8.80964 7.79894e-17)
(6.30772 8.97412 -7.27539e-17)
(6.46179 9.11201 -1.61683e-16)
(6.60745 9.30725 -3.63665e-17)
(6.87503 9.84673 9.63993e-17)
(7.29451 10.5458 4.70158e-17)
(7.32967 10.3062 -2.80831e-17)
(6.35323 8.4038 -1.04227e-17)
(4.50853 5.53929 4.7233e-18)
(2.58148 3.02191 7.19929e-20)
(1.16916 1.45999 7.20278e-18)
(0.305894 0.571149 2.10233e-18)
(-0.195968 -0.0675209 -5.06318e-18)
(-0.413266 -0.537512 -3.42499e-17)
(-0.410037 -0.779177 0)
(-0.323003 -0.830241 -2.12832e-17)
(-0.263395 -0.743688 -1.25451e-17)
(-0.297732 -0.544915 -1.59838e-17)
(-0.488055 -0.239471 -8.35491e-17)
(-0.892409 0.145273 4.02834e-16)
(-1.41585 0.493617 1.89033e-16)
(-1.78723 0.612751 6.3257e-18)
(-1.75803 0.329318 -3.00445e-18)
(-1.20133 -0.26228 0)
(-0.324498 -0.995438 -8.16757e-16)
(1.74768 -2.00297 0)
(3.56239 -2.85954 0)
(7.29739 -3.11219 2.36352e-15)
(8.4892 -3.04505 -3.43051e-17)
(4.40289 6.63549 -4.56582e-17)
(4.30252 6.38853 1.30303e-16)
(4.20055 6.09222 1.37096e-18)
(4.09684 5.75154 1.39505e-16)
(4.01191 5.37682 -4.57727e-16)
(3.94917 4.96427 3.31561e-16)
(3.91697 4.51818 1.36613e-17)
(3.92045 4.06241 -4.12882e-16)
(3.96072 3.61282 -4.32323e-16)
(4.04269 3.17247 -4.39124e-16)
(4.1672 2.75111 -8.74184e-16)
(4.32984 2.3592 0)
(4.52816 1.99752 -4.40328e-16)
(4.75899 1.66643 -1.16742e-17)
(5.01877 1.36755 0)
(5.30517 1.10037 -3.81175e-16)
(5.61525 0.865087 -1.81077e-16)
(5.9464 0.661719 -1.71666e-16)
(6.29647 0.490489 6.07636e-16)
(6.66328 0.35166 5.48632e-16)
(7.04453 0.245783 -5.87736e-17)
(7.43815 0.173427 4.32911e-16)
(7.84191 0.135857 9.34923e-17)
(8.25185 0.134194 -4.1788e-17)
(8.66062 0.168404 2.42343e-16)
(9.06062 0.235673 1.43233e-17)
(9.44832 0.331405 0)
(9.82321 0.451719 0)
(10.186 0.593427 -7.34757e-19)
(10.538 0.75368 8.83342e-19)
(10.8822 0.929419 2.9741e-17)
(11.2237 1.11902 -5.15584e-18)
(11.5717 1.32282 -3.56414e-16)
(11.9336 1.54349 -4.91993e-16)
(12.3349 1.78818 -2.25513e-17)
(12.7803 2.07308 -6.22375e-18)
(13.3578 2.43317 -7.12882e-15)
(14.0099 2.95791 4.02257e-15)
(15.0881 3.81236 -2.96335e-17)
(4.74911 6.68645 6.74239e-18)
(4.84924 6.90835 0)
(4.97315 7.13614 -9.00471e-17)
(5.10876 7.36431 0)
(5.25006 7.57365 1.57514e-16)
(5.40281 7.77364 -1.61499e-16)
(5.56131 7.96157 -1.50477e-16)
(5.7227 8.13205 -1.37407e-16)
(5.8829 8.29502 0)
(6.03857 8.45487 1.07536e-16)
(6.18963 8.61608 -7.0301e-17)
(6.33939 8.78849 1.27976e-16)
(6.48953 8.95773 5.28208e-17)
(6.62067 9.10239 4.73266e-17)
(6.77369 9.40457 -6.31431e-17)
(7.11952 10.1025 -4.60908e-17)
(7.47775 10.5904 3.15905e-17)
(7.10731 9.66687 2.84627e-17)
(5.62227 7.19021 0)
(3.5766 4.34776 -5.81101e-19)
(1.82544 2.24542 -2.07371e-18)
(0.694574 0.981933 -1.10089e-19)
(0.0268149 0.143959 -1.25771e-18)
(-0.33186 -0.460582 7.97119e-17)
(-0.435171 -0.777371 -4.79312e-18)
(-0.430367 -0.845203 2.74062e-18)
(-0.454225 -0.739422 1.18094e-17)
(-0.584799 -0.501627 1.77293e-17)
(-0.87776 -0.14612 7.33968e-17)
(-1.35825 0.275638 -1.83358e-16)
(-1.86884 0.613496 -1.69438e-16)
(-2.16519 0.67187 -7.76088e-16)
(-2.0588 0.313889 8.28795e-16)
(-1.48036 -0.339832 -1.07077e-17)
(-0.557989 -1.15356 7.72497e-16)
(1.49394 -2.19972 -3.9766e-17)
(3.30005 -3.10148 2.17835e-17)
(6.94903 -3.27877 -4.13155e-17)
(8.22286 -3.08395 5.22471e-15)
(4.66096 6.46344 2.74434e-17)
(4.57687 6.22912 -6.28766e-17)
(4.49146 5.94909 1.20046e-16)
(4.40405 5.62856 0)
(4.33318 5.27789 2.79119e-16)
(4.28127 4.89299 0)
(4.25561 4.4771 0)
(4.25965 4.05387 0)
(4.29585 3.6363 7.90689e-16)
(4.3697 3.2268 -3.88038e-16)
(4.48031 2.83579 4.13003e-16)
(4.62373 2.47156 0)
(4.79851 2.13353 0)
(5.0026 1.82144 -3.83939e-16)
(5.2337 1.53661 0)
(5.49076 1.27856 3.5367e-16)
(5.77203 1.04772 7.46211e-18)
(6.07575 0.844787 0)
(6.40032 0.670631 -4.31591e-16)
(6.74394 0.52614 -6.46287e-16)
(7.1045 0.412507 -4.53191e-16)
(7.47984 0.330887 -4.02247e-16)
(7.8677 0.282819 6.91363e-16)
(8.26413 0.269466 0)
(8.66196 0.291046 2.30428e-16)
(9.05382 0.34567 2.10972e-16)
(9.43586 0.429487 7.5996e-17)
(9.80702 0.538985 0)
(10.1676 0.671099 -4.183e-18)
(10.5185 0.823133 -1.36523e-17)
(10.8625 0.992239 -2.32929e-17)
(11.2041 1.17689 -4.93975e-18)
(11.5522 1.37744 3.19515e-16)
(11.9138 1.59693 -4.26511e-16)
(12.3136 1.84237 5.27386e-18)
(12.7552 2.1316 -1.95387e-17)
(13.3242 2.49802 6.65047e-15)
(13.9537 3.03899 -3.73359e-15)
(14.9839 3.89792 -7.95787e-15)
(4.97456 6.52921 5.79895e-18)
(5.05961 6.74352 -2.41407e-17)
(5.16658 6.96515 0)
(5.28411 7.1886 -1.65935e-16)
(5.40706 7.39483 0)
(5.54105 7.5936 0)
(5.68084 7.78249 3.77345e-18)
(5.8244 7.95494 -1.36052e-16)
(5.9685 8.11915 -2.43046e-16)
(6.10907 8.28071 -3.99293e-16)
(6.24616 8.44227 -1.71135e-16)
(6.38095 8.61177 -1.4294e-16)
(6.51842 8.79557 0)
(6.65261 8.96308 -1.40883e-16)
(6.7636 9.14291 4.03159e-17)
(6.96936 9.62233 0)
(7.38831 10.3875 -4.46711e-17)
(7.51694 10.3809 -2.57044e-17)
(6.59213 8.67085 0)
(4.6822 5.8506 -1.14463e-17)
(2.66432 3.27054 -1.22238e-18)
(1.21166 1.54595 0)
(0.334053 0.440562 -4.571e-18)
(-0.179253 -0.324363 2.33825e-18)
(-0.405872 -0.738188 2.10883e-18)
(-0.490149 -0.833359 3.81912e-17)
(-0.597154 -0.70971 -2.77281e-19)
(-0.819785 -0.432049 -2.10939e-18)
(-1.20569 -0.0321774 -3.35508e-18)
(-1.7361 0.409893 4.51553e-18)
(-2.22249 0.719676 1.71859e-16)
(-2.45916 0.710616 7.08131e-16)
(-2.30766 0.281712 1.59289e-17)
(-1.71961 -0.434233 -6.75954e-16)
(-0.769427 -1.32793 -6.66311e-16)
(1.25053 -2.40993 -1.43641e-15)
(3.04638 -3.35507 -1.68598e-15)
(6.58643 -3.45013 6.63769e-17)
(7.95428 -3.11329 -5.10384e-15)
(4.90032 6.31502 -5.40465e-17)
(4.82987 6.09163 -1.72184e-16)
(4.7585 5.82555 3.24654e-16)
(4.68517 5.52223 0)
(4.6266 5.19207 4.98434e-16)
(4.58455 4.83083 0)
(4.56543 4.4406 -3.01755e-16)
(4.57144 4.0447 1.3127e-15)
(4.60588 3.6551 -1.00749e-15)
(4.67408 3.27341 0)
(4.77408 2.90952 7.00677e-16)
(4.90242 2.57033 6.8433e-16)
(5.05823 2.25445 0)
(5.24016 1.96112 -6.69399e-16)
(5.44677 1.6912 1.62994e-16)
(5.67804 1.44387 -1.60502e-16)
(5.93317 1.21967 1.56728e-16)
(6.21126 1.01956 2.80613e-16)
(6.51134 0.84482 -7.08871e-18)
(6.83211 0.696832 3.46226e-16)
(7.17179 0.57733 1.07589e-16)
(7.52842 0.487943 -9.78386e-17)
(7.89982 0.430481 -3.25242e-16)
(8.2821 0.406354 2.75822e-16)
(8.6683 0.416127 -2.04569e-16)
(9.05119 0.458646 -2.12788e-16)
(9.42674 0.530861 -7.20697e-17)
(9.79342 0.629657 -6.73856e-19)
(10.151 0.75218 4.62929e-18)
(10.5003 0.895922 1.29868e-17)
(10.8436 1.05827 2.39446e-18)
(11.185 1.23783 -4.72671e-18)
(11.5328 1.43497 -2.98006e-16)
(11.8938 1.65311 4.33422e-16)
(12.2916 1.89919 -1.97939e-17)
(12.7289 2.19256 1.34874e-15)
(13.288 2.5649 -3.15002e-15)
(13.8949 3.12083 0)
(14.8736 3.98216 7.61932e-15)
(5.18588 6.39259 1.18424e-17)
(5.25811 6.60008 0)
(5.35058 6.81599 0)
(5.4526 7.03485 3.0754e-16)
(5.55978 7.23776 -4.54985e-18)
(5.67752 7.43477 0)
(5.80103 7.62344 0)
(5.92853 7.79738 5.35831e-16)
(6.05827 7.96191 -6.72896e-18)
(6.18531 8.1237 -6.91859e-18)
(6.30958 8.28563 4.20945e-16)
(6.43193 8.45232 6.36726e-17)
(6.55447 8.63376 -1.22108e-16)
(6.68315 8.82551 -6.69826e-18)
(6.79622 8.99218 0)
(6.91091 9.2734 0)
(7.22373 9.96069 1.42158e-16)
(7.6202 10.5525 1.3913e-17)
(7.30109 9.77845 -1.39973e-17)
(5.78905 7.38042 9.51152e-18)
(3.6768 4.52474 2.42047e-20)
(1.89061 2.30414 1.36133e-17)
(0.742008 0.847457 -2.86708e-17)
(0.0526942 -0.115483 -4.0659e-17)
(-0.316404 -0.653478 6.26302e-18)
(-0.498383 -0.790626 -3.74772e-17)
(-0.687974 -0.65298 -5.37012e-18)
(-0.996688 -0.336501 1.99743e-18)
(-1.46356 0.0996694 -1.82836e-18)
(-2.02171 0.544752 1.05126e-17)
(-2.48392 0.813218 9.18398e-19)
(-2.68209 0.733527 -3.47153e-16)
(-2.51132 0.236355 -6.42416e-18)
(-1.92221 -0.543411 -3.14939e-18)
(-0.962503 -1.51678 0)
(1.01341 -2.63246 1.3271e-15)
(2.79417 -3.61693 1.55928e-15)
(6.20319 -3.62457 0)
(7.67374 -3.1317 0)
(5.12352 6.18623 0)
(5.06468 5.97236 1.60103e-16)
(5.00543 5.71837 -5.004e-16)
(4.94433 5.42992 -2.14387e-16)
(4.89661 5.11748 -4.63994e-16)
(4.86355 4.77676 0)
(4.85072 4.40898 0)
(4.85955 4.03652 -5.98509e-16)
(4.89375 3.67131 6.07625e-16)
(4.95821 3.31442 0)
(5.05022 2.97476 -3.05719e-16)
(5.1667 2.65826 -3.2007e-16)
(5.30717 2.36306 3.0691e-16)
(5.4707 2.08782 3.13372e-16)
(5.65649 1.83294 -5.88099e-16)
(5.86521 1.59735 0)
(6.09685 1.38138 -1.34246e-16)
(6.35123 1.18605 5.52476e-18)
(6.62807 1.01278 5.93877e-16)
(6.92666 0.863272 -1.13776e-16)
(7.24561 0.739676 1.0818e-16)