/*--------------------------------*- C++ -*----------------------------------*\
  =========                 |
  \\      /  F ield         | OpenFOAM: The Open Source CFD Toolbox
   \\    /   O peration     | Website:  https://openfoam.org
    \\  /    A nd           | Version:  9
     \\/     M anipulation  |
\*---------------------------------------------------------------------------*/
FoamFile
{
    format      ascii;
    class       volVectorField;
    location    "0.05";
    object      U;
}
// * * * * * * * * * * * * * * * * * * * * * * * * * * * * * * * * * * * * * //

dimensions      [0 1 -1 0 0 0 0];

internalField   nonuniform List<vector> 
900
(
(0.000321858 -0.000332276 0)
(0.000626876 -0.000204672 0)
(0.000133684 0.000148918 0)
(-0.00130942 0.000517921 0)
(-0.00361119 0.00081574 0)
(-0.00656671 0.00102312 0)
(-0.00994294 0.00114556 0)
(-0.0135284 0.0011935 0)
(-0.0171257 0.00117592 0)
(-0.020566 0.00110393 0)
(-0.023704 0.000986251 0)
(-0.026417 0.000830179 0)
(-0.0285994 0.000641482 0)
(-0.0301641 0.000426529 0)
(-0.0310448 0.000192037 0)
(-0.0311946 -5.57061e-05 0)
(-0.0305913 -0.000308604 0)
(-0.0292396 -0.000556795 0)
(-0.0271762 -0.000788544 0)
(-0.0244748 -0.000989745 0)
(-0.0212469 -0.00114589 0)
(-0.0176403 -0.00124416 0)
(-0.0138374 -0.00127333 0)
(-0.0100489 -0.0012233 0)
(-0.00650636 -0.00108605 0)
(-0.00345105 -0.000858191 0)
(-0.00111795 -0.00054511 0)
(0.00029609 -0.000168383 0)
(0.000712269 0.000204565 0)
(0.000339765 0.000334854 0)
(0.000106565 -0.00060174 0)
(-0.000552708 0.000418025 0)
(-0.00318048 0.00208306 0)
(-0.00781235 0.00376237 0)
(-0.0142116 0.00515549 0)
(-0.0220046 0.00615401 0)
(-0.0307209 0.00674053 0)
(-0.0398776 0.00694519 0)
(-0.0490237 0.00680326 0)
(-0.0577495 0.00635931 0)
(-0.0656901 0.00565471 0)
(-0.072528 0.00472694 0)
(-0.0779986 0.00361297 0)
(-0.0818835 0.00235086 0)
(-0.0840134 0.000980915 0)
(-0.0842805 -0.000453901 0)
(-0.0826409 -0.00190421 0)
(-0.0791202 -0.00331183 0)
(-0.0738248 -0.00461105 0)
(-0.0669464 -0.00573108 0)
(-0.0587615 -0.00660062 0)
(-0.0496326 -0.00715304 0)
(-0.040002 -0.00733017 0)
(-0.0303733 -0.0070864 0)
(-0.0212865 -0.0063956 0)
(-0.0132863 -0.00526218 0)
(-0.00687393 -0.00373827 0)
(-0.0024324 -0.00195397 0)
(-0.000132387 -0.000206681 0)
(0.000242121 0.000725606 0)
(-0.000295952 4.18983e-05 0)
(-0.00242171 0.00314333 0)
(-0.00765111 0.00714072 0)
(-0.0156166 0.0110543 0)
(-0.0259015 0.0143221 0)
(-0.0379916 0.0166787 0)
(-0.0512579 0.0180606 0)
(-0.0650555 0.0184953 0)
(-0.0787538 0.0180583 0)
(-0.0917652 0.0168397 0)
(-0.10357 0.0149365 0)
(-0.113711 0.0124453 0)
(-0.121796 0.00946431 0)
(-0.127507 0.00609678 0)
(-0.130601 0.00245124 0)
(-0.130929 -0.00135281 0)
(-0.128433 -0.00518005 0)
(-0.123158 -0.00887824 0)
(-0.115262 -0.0122801 0)
(-0.105026 -0.0152091 0)
(-0.0928524 -0.017489 0)
(-0.0792595 -0.018955 0)
(-0.0648742 -0.0194655 0)
(-0.0504062 -0.0189167 0)
(-0.0366115 -0.0172611 0)
(-0.0242454 -0.0145337 0)
(-0.0139915 -0.0108879 0)
(-0.00637046 -0.00664869 0)
(-0.00171221 -0.0024388 0)
(-7.3669e-05 0.000414627 0)
(-0.00065001 0.00170455 0)
(-0.00423349 0.00810069 0)
(-0.0121019 0.0152564 0)
(-0.0233856 0.0219905 0)
(-0.037402 0.0275403 0)
(-0.0534932 0.0315235 0)
(-0.0708905 0.0338147 0)
(-0.0888052 0.0344406 0)
(-0.106477 0.0335134 0)
(-0.1232 0.031179 0)
(-0.138328 0.0276002 0)
(-0.151294 0.0229501 0)
(-0.161616 0.0174079 0)
(-0.168899 0.0111616 0)
(-0.172848 0.00441373 0)
(-0.173274 -0.00261274 0)
(-0.170106 -0.00966831 0)
(-0.163399 -0.0164758 0)
(-0.15335 -0.0227358 0)
(-0.140302 -0.0281359 0)
(-0.124747 -0.0323648 0)
(-0.10732 -0.0351311 0)
(-0.0887861 -0.036187 0)
(-0.0700127 -0.0353561 0)
(-0.0519247 -0.0325668 0)
(-0.03545 -0.0278928 0)
(-0.0214366 -0.0216052 0)
(-0.0105616 -0.0142366 0)
(-0.0033911 -0.00671478 0)
(-0.000397564 -0.000790575 0)
(-0.000951918 0.00428811 0)
(-0.00590404 0.0152118 0)
(-0.0163295 0.0263136 0)
(-0.0308586 0.0363626 0)
(-0.0484939 0.0444935 0)
(-0.0683989 0.0502438 0)
(-0.089671 0.0534563 0)
(-0.111401 0.0541709 0)
(-0.132713 0.0525372 0)
(-0.152799 0.0487657 0)
(-0.170926 0.0430974 0)
(-0.186443 0.0357906 0)
(-0.198799 0.0271164 0)
(-0.207538 0.0173635 0)
(-0.212318 0.0068445 0)
(-0.212919 -0.00409582 0)
(-0.209252 -0.0150745 0)
(-0.20137 -0.0256702 0)
(-0.18949 -0.0354296 0)
(-0.173995 -0.0438808 0)
(-0.15544 -0.0505535 0)
(-0.134547 -0.0550077 0)
(-0.11219 -0.0568693 0)
(-0.0893679 -0.0558734 0)
(-0.0671572 -0.0519122 0)
(-0.0466539 -0.0450904 0)
(-0.0288847 -0.0357854 0)
(-0.0147176 -0.0247154 0)
(-0.00500605 -0.0130573 0)
(-0.000688151 -0.00287351 0)
(-0.00121653 0.00770182 0)
(-0.00744967 0.0243578 0)
(-0.0203542 0.0402238 0)
(-0.0380406 0.0540975 0)
(-0.0592003 0.0650907 0)
(-0.0828155 0.0727184 0)
(-0.107826 0.0768287 0)
(-0.133198 0.0774954 0)
(-0.157962 0.0749254 0)
(-0.181226 0.0694028 0)
(-0.202182 0.0612548 0)
(-0.220116 0.0508343 0)
(-0.23442 0.0385143 0)
(-0.244593 0.0246931 0)
(-0.250252 0.00980386 0)
(-0.25114 -0.00567552 0)
(-0.247143 -0.0212156 0)
(-0.238304 -0.0362359 0)
(-0.224838 -0.0501125 0)
(-0.207149 -0.0621937 0)
(-0.185831 -0.0718269 0)
(-0.161668 -0.0783989 0)
(-0.135628 -0.0813852 0)
(-0.108831 -0.0804082 0)
(-0.0825052 -0.0753011 0)
(-0.0579282 -0.0661758 0)
(-0.0363325 -0.0534922 0)
(-0.0188142 -0.0381204 0)
(-0.00654876 -0.0214404 0)
(-0.000947145 -0.00577063 0)
(-0.00146207 0.0118892 0)
(-0.00891969 0.0354565 0)
(-0.024221 0.056911 0)
(-0.045009 0.0751341 0)
(-0.0696457 0.0892693 0)
(-0.0969098 0.0988724 0)
(-0.125588 0.103842 0)
(-0.154525 0.104312 0)
(-0.182656 0.100569 0)
(-0.209012 0.0929874 0)
(-0.232728 0.0819925 0)
(-0.25304 0.0680376 0)
(-0.269297 0.0516027 0)
(-0.280955 0.0332023 0)
(-0.28759 0.0133961 0)
(-0.28891 -0.00720012 0)
(-0.284767 -0.0279047 0)
(-0.275176 -0.0479681 0)
(-0.260335 -0.0665806 0)
(-0.240645 -0.0828911 0)
(-0.216715 -0.0960419 0)
(-0.189378 -0.105219 0)
(-0.159681 -0.109715 0)
(-0.128863 -0.109005 0)
(-0.0983151 -0.102827 0)
(-0.0695167 -0.0912653 0)
(-0.0439412 -0.0748297 0)
(-0.0229493 -0.0545086 0)
(-0.00806947 -0.0318579 0)
(-0.00118851 -0.00944024 0)
(-0.00169906 0.0168147 0)
(-0.0103513 0.0484591 0)
(-0.0280171 0.076327 0)
(-0.0518728 0.0994265 0)
(-0.0799637 0.116993 0)
(-0.11086 0.128671 0)
(-0.143184 0.13445 0)
(-0.175657 0.134568 0)
(-0.207122 0.129418 0)
(-0.236546 0.119483 0)
(-0.263015 0.105294 0)
(-0.285726 0.0874142 0)
(-0.303991 0.0664365 0)
(-0.31723 0.0429919 0)
(-0.324981 0.0177648 0)
(-0.326911 -0.00849188 0)
(-0.322828 -0.034942 0)
(-0.312704 -0.0606609 0)
(-0.296698 -0.0846423 0)
(-0.275184 -0.105818 0)
(-0.248768 -0.123101 0)
(-0.218309 -0.135442 0)
(-0.184922 -0.14191 0)
(-0.149967 -0.141786 0)
(-0.115007 -0.134664 0)
(-0.0817521 -0.120555 0)
(-0.0519537 -0.0999783 0)
(-0.0272779 -0.0740099 0)
(-0.00964272 -0.0443716 0)
(-0.00143141 -0.013883 0)
(-0.00193753 0.0224711 0)
(-0.0117809 0.0633391 0)
(-0.0318085 0.0984561 0)
(-0.0587366 0.12697 0)
(-0.0902897 0.148258 0)
(-0.124822 0.162103 0)
(-0.160791 0.168642 0)
(-0.19679 0.168252 0)
(-0.231579 0.161465 0)
(-0.264067 0.14889 0)
(-0.293302 0.131182 0)
(-0.318453 0.10902 0)
(-0.338804 0.0831113 0)
(-0.353744 0.0541986 0)
(-0.362777 0.0230852 0)
(-0.365524 -0.00934411 0)
(-0.361739 -0.0421024 0)
(-0.351331 -0.0740899 0)
(-0.3344 -0.104097 0)
(-0.311268 -0.130822 0)
(-0.282509 -0.152921 0)
(-0.248987 -0.169071 0)
(-0.211869 -0.178067 0)
(-0.172629 -0.178935 0)
(-0.133016 -0.171063 0)
(-0.0949984 -0.15433 0)
(-0.0606446 -0.129213 0)
(-0.0319762 -0.0968492 0)
(-0.0113505 -0.059124 0)
(-0.00169631 -0.0191446 0)
(-0.00218013 0.0288626 0)
(-0.0132339 0.0801133 0)
(-0.035654 0.123316 0)
(-0.0656878 0.157784 0)
(-0.100729 0.183079 0)
(-0.13891 0.19918 0)
(-0.178518 0.206418 0)
(-0.218025 0.205358 0)
(-0.256112 0.196701 0)
(-0.291644 0.181212 0)
(-0.323642 0.159685 0)
(-0.351258 0.132919 0)
(-0.373763 0.101732 0)
(-0.390525 0.0669738 0)
(-0.401015 0.0295547 0)
(-0.404806 -0.00952045 0)
(-0.401587 -0.0491246 0)
(-0.391191 -0.0879889 0)
(-0.373632 -0.124698 0)
(-0.349151 -0.157707 0)
(-0.318257 -0.185383 0)
(-0.281786 -0.206087 0)
(-0.240935 -0.218278 0)
(-0.197277 -0.220657 0)
(-0.152752 -0.212324 0)
(-0.109614 -0.192946 0)
(-0.0702909 -0.162899 0)
(-0.037222 -0.123348 0)
(-0.0132723 -0.0763386 0)
(-0.00200051 -0.0253136 0)
(-0.00243045 0.0360081 0)
(-0.0147305 0.0988204 0)
(-0.0395997 0.150952 0)
(-0.0727909 0.191904 0)
(-0.11135 0.221477 0)
(-0.15318 0.2399 0)
(-0.196395 0.247756 0)
(-0.239351 0.245848 0)
(-0.280662 0.235087 0)
(-0.319161 0.216421 0)
(-0.35386 0.190798 0)
(-0.383915 0.159144 0)
(-0.408598 0.122384 0)
(-0.42727 0.0814605 0)
(-0.439378 0.0373773 0)
(-0.444446 -0.00876049 0)
(-0.442094 -0.0557045 0)
(-0.432061 -0.102032 0)
(-0.41425 -0.146127 0)
(-0.388784 -0.186192 0)
(-0.356071 -0.220284 0)
(-0.316874 -0.246397 0)
(-0.272378 -0.262586 0)
(-0.224234 -0.267137 0)
(-0.174563 -0.258762 0)
(-0.125924 -0.236815 0)
(-0.0811567 -0.201487 0)
(-0.0431853 -0.153922 0)
(-0.0154817 -0.096324 0)
(-0.00235667 -0.032519 0)
(-0.00269293 0.0439361 0)
(-0.016288 0.119518 0)
(-0.0436797 0.181424 0)
(-0.0800889 0.229375 0)
(-0.122185 0.263461 0)
(-0.167631 0.284232 0)
(-0.214366 0.292588 0)
(-0.260639 0.289624 0)
(-0.305009 0.27651 0)
(-0.3463 0.254409 0)
(-0.383539 0.224439 0)
(-0.415909 0.187659 0)
(-0.442709 0.145093 0)
(-0.463313 0.0977633 0)
(-0.477154 0.0467422 0)
(-0.48372 -0.00679123 0)
(-0.482556 -0.0614957 0)
(-0.473294 -0.115819 0)
(-0.4557 -0.167963 0)
(-0.429744 -0.215877 0)
(-0.395677 -0.257288 0)
(-0.354137 -0.28978 0)
(-0.306242 -0.310927 0)
(-0.253668 -0.318492 0)
(-0.198699 -0.310672 0)
(-0.144204 -0.286379 0)
(-0.0934826 -0.245501 0)
(-0.050028 -0.189086 0)
(-0.0180506 -0.11948 0)
(-0.00277785 -0.0409287 0)
(-0.00297125 0.0526823 0)
(-0.0179215 0.14228 0)
(-0.0479232 0.214805 0)
(-0.0876094 0.270234 0)
(-0.133237 0.309012 0)
(-0.182208 0.332089 0)
(-0.23229 0.34076 0)
(-0.281631 0.336485 0)
(-0.328761 0.320742 0)
(-0.372522 0.294947 0)
(-0.411991 0.260406 0)
(-0.446411 0.218316 0)
(-0.475135 0.169791 0)
(-0.49758 0.115913 0)
(-0.513191 0.0577945 0)
(-0.52143 -0.0033474 0)
(-0.521774 -0.0661178 0)
(-0.513742 -0.128873 0)
(-0.49694 -0.189663 0)
(-0.47114 -0.246202 0)
(-0.436383 -0.295881 0)
(-0.393106 -0.33583 0)
(-0.342282 -0.363064 0)
(-0.285541 -0.374703 0)
(-0.225273 -0.368272 0)
(-0.164652 -0.342064 0)
(-0.107478 -0.295508 0)
(-0.0579075 -0.229433 0)
(-0.0210547 -0.146286 0)
(-0.00328245 -0.0507496 0)
(-0.0032698 0.0622912 0)
(-0.0196498 0.167194 0)
(-0.0523632 0.251175 0)
(-0.0953784 0.314498 0)
(-0.144486 0.358054 0)
(-0.196809 0.383292 0)
(-0.249937 0.392001 0)
(-0.301938 0.386083 0)
(-0.351346 0.367392 0)
(-0.397058 0.337632 0)
(-0.438243 0.298322 0)
(-0.474245 0.250799 0)
(-0.504517 0.19626 0)
(-0.528551 0.13582 0)
(-0.545839 0.0705965 0)
(-0.555843 0.00179913 0)
(-0.557989 -0.0691744 0)
(-0.551678 -0.140642 0)
(-0.536343 -0.210552 0)
(-0.511518 -0.27642 0)
(-0.47697 -0.335311 0)
(-0.432849 -0.383879 0)
(-0.379875 -0.418504 0)
(-0.319526 -0.435527 0)
(-0.254213 -0.431614 0)
(-0.187367 -0.404218 0)
(-0.12331 -0.352073 0)
(-0.0669736 -0.275611 0)
(-0.0245726 -0.177288 0)
(-0.00389083 -0.0622284 0)
(-0.00359559 0.0728194 0)
(-0.0215031 0.194367 0)
(-0.0570508 0.290611 0)
(-0.103436 0.36215 0)
(-0.155913 0.410434 0)
(-0.211293 0.437541 0)
(-0.266995 0.445873 0)
(-0.321038 0.437876 0)
(-0.371998 0.415847 0)
(-0.418884 0.38183 0)
(-0.461007 0.337579 0)
(-0.497868 0.284576 0)
(-0.529067 0.224084 0)
(-0.554222 0.157226 0)
(-0.572916 0.0850821 0)
(-0.584646 0.00880054 0)
(-0.588812 -0.0702813 0)
(-0.584717 -0.150514 0)
(-0.571608 -0.229813 0)
(-0.548755 -0.305562 0)
(-0.515584 -0.374539 0)
(-0.471857 -0.432924 0)
(-0.417911 -0.476399 0)
(-0.354925 -0.500393 0)
(-0.285189 -0.500494 0)
(-0.212298 -0.473021 0)
(-0.141086 -0.415704 0)
(-0.0773634 -0.328301 0)
(-0.0286861 -0.213096 0)
(-0.00462155 -0.0756563 0)
(-0.00396121 0.0843432 0)
(-0.0235322 0.223939 0)
(-0.0620729 0.3332 0)
(-0.111858 0.413133 0)
(-0.167506 0.465897 0)
(-0.225491 0.494371 0)
(-0.283072 0.501722 0)
(-0.338262 0.491061 0)
(-0.389744 0.465215 0)
(-0.436702 0.426616 0)
(-0.478659 0.37728 0)
(-0.515335 0.318834 0)
(-0.546541 0.252591 0)
(-0.572078 0.179649 0)
(-0.591668 0.101004 0)
(-0.604897 0.0176832 0)
(-0.611179 -0.0691105 0)
(-0.609747 -0.157847 0)
(-0.599677 -0.246507 0)
(-0.579954 -0.332434 0)
(-0.549608 -0.4122 0)
(-0.507909 -0.481551 0)
(-0.454659 -0.535446 0)
(-0.390543 -0.568278 0)
(-0.317526 -0.574314 0)
(-0.239199 -0.548386 0)
(-0.160837 -0.486784 0)
(-0.0892036 -0.388183 0)
(-0.0334901 -0.2544 0)
(-0.00550007 -0.0913712 0)
(-0.00438852 0.0969739 0)
(-0.0258213 0.2561 0)
(-0.0675755 0.379047 0)
(-0.120778 0.467335 0)
(-0.179291 0.52405 0)
(-0.239214 0.553099 0)
(-0.297685 0.558613 0)
(-0.352778 0.544513 0)
(-0.403369 0.514252 0)
(-0.448905 0.470707 0)
(-0.489202 0.416174 0)
(-0.524277 0.352421 0)
(-0.554218 0.280792 0)
(-0.579071 0.202322 0)
(-0.59876 0.117874 0)
(-0.613016 0.0282893 0)
(-0.621325 -0.0654463 0)
(-0.622898 -0.162023 0)
(-0.616673 -0.259605 0)
(-0.60136 -0.355624 0)
(-0.575554 -0.446576 0)
(-0.537942 -0.527869 0)
(-0.487623 -0.593772 0)
(-0.424553 -0.637557 0)
(-0.350089 -0.651925 0)
(-0.267549 -0.629793 0)
(-0.182478 -0.565452 0)
(-0.102613 -0.455876 0)
(-0.0391033 -0.301948 0)
(-0.00656805 -0.109767 0)
(-0.00491318 0.110879 0)
(-0.0285088 0.29113 0)
(-0.0737959 0.428293 0)
(-0.130425 0.524575 0)
(-0.191335 0.584309 0)
(-0.252241 0.61275 0)
(-0.310225 0.615243 0)
(-0.363534 0.596695 0)
(-0.411354 0.56129 0)
(-0.45351 0.512397 0)
(-0.490209 0.452601 0)
(-0.521849 0.383801 0)
(-0.548864 0.30734 0)
(-0.57161 0.224151 0)
(-0.590275 0.134913 0)
(-0.604796 0.0402177 0)
(-0.614798 -0.0592514 0)
(-0.619539 -0.162512 0)
(-0.617883 -0.268049 0)
(-0.608303 -0.373548 0)
(-0.588965 -0.475608 0)
(-0.557908 -0.569471 0)
(-0.513372 -0.648834 0)
(-0.454315 -0.705839 0)
(-0.381125 -0.731414 0)
(-0.296441 -0.716095 0)
(-0.205757 -0.651442 0)
(-0.117694 -0.531857 0)
(-0.0456708 -0.356521 0)
(-0.00787916 -0.131318 0)
(-0.00559614 0.126323 0)
(-0.0318227 0.329457 0)
(-0.0811103 0.481137 0)
(-0.141148 0.584572 0)
(-0.20375 0.645832 0)
(-0.264272 0.67196 0)
(-0.319875 0.669843 0)
(-0.369148 0.645571 0)
(-0.411758 0.604159 0)
(-0.448049 0.549497 0)
(-0.478732 0.484452 0)
(-0.504668 0.411019 0)
(-0.526703 0.330502 0)
(-0.54556 0.243686 0)
(-0.561739 0.151017 0)
(-0.575447 0.0527761 0)
(-0.586519 -0.0507312 0)
(-0.594341 -0.158957 0)
(-0.597794 -0.270848 0)
(-0.595205 -0.384535 0)
(-0.584368 -0.496954 0)
(-0.562666 -0.60344 0)
(-0.527368 -0.697348 0)
(-0.47617 -0.769818 0)
(-0.408053 -0.809894 0)
(-0.324427 -0.805267 0)
(-0.230176 -0.743882 0)
(-0.13451 -0.616361 0)
(-0.0533874 -0.418941 0)
(-0.00950751 -0.156603 0)
(-0.00654581 0.143732 0)
(-0.0361375 0.371734 0)
(-0.0900937 0.537849 0)
(-0.153436 0.646874 0)
(-0.216633 0.70738 0)
(-0.274801 0.728823 0)
(-0.325425 0.720029 0)
(-0.367703 0.688485 0)
(-0.402006 0.640104 0)
(-0.429372 0.579293 0)
(-0.451134 0.509151 0)
(-0.468689 0.43171 0)
(-0.483345 0.348176 0)
(-0.496217 0.259136 0)
(-0.508156 0.164757 0)
(-0.519679 0.0649596 0)
(-0.53089 -0.040387 0)
(-0.5414 -0.151256 0)
(-0.550219 -0.267191 0)
(-0.555664 -0.386963 0)
(-0.555291 -0.508118 0)
(-0.545917 -0.62643 0)
(-0.523813 -0.73529 0)
(-0.485203 -0.825144 0)
(-0.427205 -0.883241 0)
(-0.349281 -0.894077 0)
(-0.254863 -0.840986 0)
(-0.153085 -0.709183 0)
(-0.0625391 -0.490057 0)
(-0.0115807 -0.186332 0)
(-0.00795635 0.163806 0)
(-0.0420614 0.418938 0)
(-0.101583 0.598744 0)
(-0.167878 0.710705 0)
(-0.229895 0.767104 0)
(-0.282831 0.780663 0)
(-0.324921 0.762618 0)
(-0.356358 0.722031 0)
(-0.378518 0.665723 0)
(-0.39332 0.598537 0)
(-0.402827 0.523695 0)
(-0.409018 0.443167 0)
(-0.413667 0.357975 0)
(-0.418277 0.268451 0)
(-0.42404 0.17444 0)
(-0.431792 0.0754791 0)
(-0.441951 -0.0290319 0)
(-0.454426 -0.139638 0)
(-0.468492 -0.256578 0)
(-0.482635 -0.379436 0)
(-0.494388 -0.506651 0)
(-0.500211 -0.634849 0)
(-0.495511 -0.757981 0)
(-0.474973 -0.866365 0)
(-0.433457 -0.945861 0)
(-0.367648 -0.977685 0)
(-0.278329 -0.939614 0)
(-0.173343 -0.809385 0)
(-0.0735604 -0.570679 0)
(-0.0143153 -0.22146 0)
(-0.0101777 0.18771 0)
(-0.0505683 0.472503 0)
(-0.116709 0.664065 0)
(-0.18498 0.77466 0)
(-0.242861 0.822168 0)
(-0.286306 0.823698 0)
(-0.315011 0.79338 0)
(-0.330704 0.741926 0)
(-0.33611 0.676943 0)
(-0.334215 0.603508 0)
(-0.327868 0.524777 0)
(-0.319614 0.442494 0)
(-0.311634 0.357392 0)
(-0.30575 0.269478 0)
(-0.303431 0.178251 0)
(-0.305792 0.0828602 0)
(-0.313559 -0.017753 0)
(-0.326993 -0.124702 0)
(-0.345757 -0.238951 0)
(-0.368711 -0.361009 0)
(-0.393659 -0.490452 0)
(-0.417061 -0.625184 0)
(-0.433804 -0.760371 0)
(-0.437228 -0.887045 0)
(-0.419752 -0.990526 0)
(-0.374493 -1.04919 0)
(-0.298037 -1.03466 0)
(-0.19495 -0.914828 0)
(-0.0871254 -0.661477 0)
(-0.0180874 -0.263338 0)
(-0.0138438 0.217409 0)
(-0.063181 0.534407 0)
(-0.136808 0.73363 0)
(-0.204646 0.836098 0)
(-0.253372 0.868131 0)
(-0.281017 0.852567 0)
(-0.289809 0.806769 0)
(-0.283691 0.742935 0)
(-0.26708 0.669097 0)
(-0.24412 0.590201 0)
(-0.218398 0.509033 0)
(-0.192896 0.426896 0)
(-0.170051 0.344095 0)
(-0.151849 0.260248 0)
(-0.139898 0.174495 0)
(-0.135486 0.0856329 0)
(-0.139589 -0.00779208 0)
(-0.152822 -0.107387 0)
(-0.175317 -0.214784 0)
(-0.206511 -0.331424 0)
(-0.244821 -0.458148 0)
(-0.287195 -0.594497 0)
(-0.328602 -0.737544 0)
(-0.361612 -0.880117 0)
(-0.376464 -1.00839 0)
(-0.362224 -1.09919 0)
(-0.309592 -1.1182 0)
(-0.216901 -1.02132 0)
(-0.104218 -0.762732 0)
(-0.0235724 -0.313993 0)
(-0.0200897 0.25622 0)
(-0.0821576 0.607079 0)
(-0.162907 0.805954 0)
(-0.224852 0.890008 0)
(-0.255942 0.89799 0)
(-0.25859 0.859735 0)
(-0.239003 0.79571 0)
(-0.204024 0.718956 0)
(-0.159922 0.637223 0)
(-0.111882 0.554743 0)
(-0.0639707 0.473516 0)
(-0.019315 0.394146 0)
(0.0196752 0.31637 0)
(0.0511059 0.239369 0)
(0.0734394 0.161949 0)
(0.0853858 0.0826257 0)
(0.0858466 -0.000329413 0)
(0.0739181 -0.0888668 0)
(0.0489746 -0.185124 0)
(0.0108574 -0.291326 0)
(-0.0397853 -0.409534 0)
(-0.100958 -0.541088 0)
(-0.168551 -0.68553 0)
(-0.235411 -0.838663 0)
(-0.290567 -0.989418 0)
(-0.319326 -1.11547 0)
(-0.305196 -1.17841 0)
(-0.236502 -1.12115 0)
(-0.12601 -0.8736 0)
(-0.0319075 -0.376563 0)
(-0.0308143 0.309627 0)
(-0.110345 0.692636 0)
(-0.193984 0.87633 0)
(-0.238517 0.927111 0)
(-0.2381 0.900947 0)
(-0.203015 0.835034 0)
(-0.144956 0.751761 0)
(-0.0739428 0.663588 0)
(0.00222282 0.576827 0)
(0.0778692 0.494211 0)
(0.149023 0.416484 0)
(0.212921 0.343306 0)
(0.267605 0.273756 0)
(0.311609 0.206584 0)
(0.343741 0.140328 0)
(0.362928 0.0733501 0)
(0.368122 0.00381488 0)
(0.35826 -0.070354 0)
(0.332288 -0.151532 0)
(0.289289 -0.242427 0)
(0.228755 -0.346027 0)
(0.151108 -0.465317 0)
(0.0585818 -0.602514 0)
(-0.0434333 -0.757332 0)
(-0.144658 -0.9236 0)
(-0.22832 -1.0834 0)
(-0.270825 -1.19844 0)
(-0.246848 -1.20085 0)
(-0.152956 -0.990309 0)
(-0.0447166 -0.455682 0)
(-0.048511 0.386508 0)
(-0.149278 0.790404 0)
(-0.221741 0.932889 0)
(-0.226505 0.930988 0)
(-0.173614 0.861259 0)
(-0.0851763 0.765935 0)
(0.0211954 0.666244 0)
(0.13324 0.571629 0)
(0.242918 0.485425 0)
(0.34527 0.408046 0)
(0.437378 0.33861 0)
(0.517553 0.27573 0)
(0.584801 0.217855 0)
(0.638452 0.163407 0)
(0.677932 0.110802 0)
(0.702598 0.0584156 0)
(0.711639 0.00451468 0)
(0.704002 -0.0528462 0)
(0.678362 -0.115946 0)
(0.633146 -0.187548 0)
(0.566677 -0.271037 0)
(0.477516 -0.370475 0)
(0.365219 -0.490343 0)
(0.231769 -0.634492 0)
(0.0839915 -0.803322 0)
(-0.0629027 -0.987484 0)
(-0.181313 -1.15593 0)
(-0.231199 -1.23779 0)
(-0.181161 -1.10257 0)
(-0.0631142 -0.557979 0)
(-0.0736494 0.501866 0)
(-0.191211 0.890028 0)
(-0.216541 0.948052 0)
(-0.143036 0.873326 0)
(-0.0111886 0.757474 0)
(0.144437 0.639186 0)
(0.303436 0.532839 0)
(0.454606 0.441749 0)
(0.59233 0.364891 0)
(0.714236 0.299936 0)
(0.819658 0.244418 0)
(0.908721 0.196104 0)
(0.981825 0.153072 0)
(1.03936 0.113658 0)
(1.08152 0.0763777 0)
(1.10823 0.0398309 0)
(1.11905 0.00259738 0)
(1.11309 -0.0368822 0)
(1.08898 -0.0804618 0)
(1.04474 -0.130485 0)
(0.9778 -0.190054 0)
(0.885009 -0.263352 0)
(0.763003 -0.35595 0)
(0.609163 -0.474776 0)
(0.423917 -0.626865 0)
(0.215458 -0.814592 0)
(0.0075058 -1.02317 0)
(-0.151692 -1.19532 0)
(-0.192546 -1.18633 0)
(-0.0830277 -0.693306 0)
(-0.0909598 0.672236 0)
(-0.19266 0.951258 0)
(-0.0939184 0.865163 0)
(0.110927 0.711845 0)
(0.341067 0.567019 0)
(0.562256 0.447478 0)
(0.761638 0.35384 0)
(0.935253 0.281448 0)
(1.08344 0.225021 0)
(1.20827 0.180221 0)
(1.31216 0.143793 0)
(1.39733 0.11334 0)
(1.46562 0.0870802 0)
(1.51838 0.0636443 0)
(1.55651 0.0419208 0)
(1.58043 0.0209383 0)
(1.59006 -0.000234256 0)
(1.5848 -0.0225924 0)
(1.56343 -0.0473271 0)
(1.52397 -0.075988 0)
(1.46353 -0.11075 0)
(1.378 -0.15483 0)
(1.26184 -0.213104 0)
(1.10808 -0.292975 0)
(0.909297 -0.405166 0)
(0.661145 -0.562772 0)
(0.370205 -0.773946 0)
(0.071197 -1.01906 0)
(-0.13115 -1.18393 0)
(-0.0779581 -0.860115 0)
(0.0103879 0.815656 0)
(0.027286 0.853288 0)
(0.360588 0.616537 0)
(0.723966 0.430765 0)
(1.02497 0.304351 0)
(1.26669 0.218742 0)
(1.46069 0.160785 0)
(1.61605 0.120934 0)
(1.74056 0.0926469 0)
(1.84053 0.071771 0)
(1.92069 0.0557257 0)
(1.98446 0.042877 0)
(2.03429 0.0321528 0)
(2.07189 0.0228123 0)
(2.09836 0.014305 0)
(2.1143 0.00618419 0)
(2.11985 -0.00195442 0)
(2.11469 -0.0105325 0)
(2.09796 -0.0200496 0)
(2.06815 -0.0311761 0)
(2.02283 -0.0449013 0)
(1.9583 -0.0628051 0)
(1.86893 -0.0875693 0)
(1.74613 -0.123965 0)
(1.5773 -0.18066 0)
(1.34521 -0.272998 0)
(1.02687 -0.425311 0)
(0.603713 -0.665668 0)
(0.172943 -0.966704 0)
(0.076812 -0.929906 0)
(0.887032 0.431598 0)
(1.15995 0.378705 0)
(1.62603 0.23021 0)
(1.97493 0.136228 0)
(2.18927 0.0828856 0)
(2.32939 0.0521033 0)
(2.42799 0.0341159 0)
(2.49993 0.0233556 0)
(2.55376 0.0166175 0)
(2.59483 0.0121398 0)
(2.6265 0.00896902 0)
(2.65087 0.00657892 0)
(2.66929 0.00466738 0)
(2.68266 0.00304913 0)
(2.69154 0.00159892 0)
(2.69623 0.000223935 0)
(2.69681 -0.00115236 0)
(2.69317 -0.00260895 0)
(2.68498 -0.00423972 0)
(2.67158 -0.0061725 0)
(2.65194 -0.00860804 0)
(2.62438 -0.0118967 0)
(2.58609 -0.0166974 0)
(2.5323 -0.0243503 0)
(2.45443 -0.0377196 0)
(2.33657 -0.0629988 0)
(2.14338 -0.113248 0)
(1.79711 -0.213257 0)
(1.28179 -0.383357 0)
(0.943168 -0.452366 0)
)
;

boundaryField
{
    movingWall
    {
        type            fixedValue;
        value           uniform (3 0 0);
    }
    fixedWalls
    {
        type            noSlip;
    }
    frontAndBack
    {
        type            empty;
    }
}


// ************************************************************************* //
