/*--------------------------------*- C++ -*----------------------------------*\
  =========                 |
  \\      /  F ield         | OpenFOAM: The Open Source CFD Toolbox
   \\    /   O peration     | Website:  https://openfoam.org
    \\  /    A nd           | Version:  9
     \\/     M anipulation  |
\*---------------------------------------------------------------------------*/
FoamFile
{
    format      ascii;
    class       volScalarField;
    location    "70";
    object      p;
}
// * * * * * * * * * * * * * * * * * * * * * * * * * * * * * * * * * * * * * //

dimensions      [0 2 -2 0 0 0 0];

internalField   nonuniform List<scalar> 
112055
(
0.0190809
0.00398704
-0.00771346
-0.0110411
-0.00250824
0.00747204
0.0184584
-0.010833
-0.00453891
0.0185849
0.00402559
0.0175585
-0.00428136
0.0175512
0.0287258
-0.000784433
-0.0581516
0.0228428
0.00402331
-0.00422922
-0.000848766
-0.000487439
0.00404431
-0.0014046
0.000424216
-0.00466748
0.041199
0.00555496
0.00742824
-0.000846413
0.00866561
-0.0169523
-0.0014282
-0.0525498
-0.00456972
-0.000983086
-0.00431262
0.0638571
-0.0119853
-0.000104682
-0.00166438
-0.0110781
-0.000753098
-0.00761165
0.0233955
-0.00260528
-0.0521817
0.00116878
-0.00192275
-0.0108503
-0.0105554
-0.0173307
-0.000725049
-0.011781
-0.00517496
0.0185907
0.000175765
0.000464513
-0.0113677
-0.00264351
0.0151437
0.00108012
-2.33858e-05
-2.29884e-05
0.0115703
-0.00500509
0.0663352
9.98917e-05
0.00214047
-0.00327821
0.000524181
-0.0593356
-0.00127895
0.037822
-0.0427674
-0.0367076
0.00369456
0.0189295
-0.0147935
-0.0114872
0.000103632
-0.0401796
-0.0104222
-0.00479204
-0.000765437
0.00125008
-0.00528514
-0.00513814
-0.025687
-0.00505585
-0.00032149
-0.00100515
-0.00564763
-0.00256921
-0.0420482
0.00365337
-0.0172541
0.0283785
0.00866224
0.000179121
-0.00424921
-0.00079934
-0.00135846
0.00496826
-0.0401863
-0.0569484
0.0115561
7.61491e-05
-0.00052182
0.00122901
-0.059118
-0.031604
-0.00502472
0.00645792
0.00214898
0.0216209
0.0116381
-0.0010413
-0.0250869
-0.00466973
0.00596174
0.00556782
0.0185308
0.000130242
-0.00165095
0.00487777
-0.0589153
-0.000633038
-0.00595308
-0.0396328
0.000137829
0.0409077
8.8127e-05
0.0531316
-0.0122839
-0.000103967
-0.00150882
0.00122268
-0.00729642
-0.00870914
0.00113049
-0.00742152
-0.016679
0.0123904
7.95077e-05
-0.00379331
0.0208002
-8.87783e-06
-0.00105284
5.89421e-06
-0.0576617
-0.000508423
0.0161419
-0.000718096
-0.00724303
0.00659353
0.00949013
0.00653706
-0.0106797
-0.00421409
-0.00500229
7.76849e-05
-0.00457863
-0.00436093
-0.00210232
-0.00141899
0.00958686
-0.0172967
-0.00255317
0.0115998
0.00826419
0.00657007
-0.0045676
0.0122063
-0.0185268
-0.00469909
-0.0019831
-0.00562792
-0.00573741
-0.000899859
-0.0182693
-0.0015425
-0.00113378
0.00869536
-0.0136799
0.0165128
0.000100532
-0.00212815
-0.0170718
-0.00206988
0.00143255
-0.0014054
-0.00499434
0.0059874
-0.00656548
-1.3544e-05
-0.015115
-0.0317115
-0.00273281
0.00945057
0.063102
0.0130437
0.015245
0.000118758
-9.02744e-05
0.0213603
0.0664151
0.0102884
-0.0576461
-0.00139307
0.000106043
-0.00145321
0.0204067
-0.00139358
-0.0169707
0.0104214
0.00837244
-0.00665457
-0.0035795
-0.0113382
-7.31323e-05
-0.0221339
-0.00499285
-0.00444989
-0.0348837
-0.00258459
-0.000790919
0.00936448
0.0034496
-0.0015151
-0.000955721
-0.00362401
-0.0135175
0.00457301
-0.0233721
0.000893226
-1.37789e-05
-0.000975642
-0.0652551
0.0987033
0.000113053
-0.011393
-0.00405636
0.000122955
-0.00272687
-0.0233176
-0.014076
-0.0120005
1.97552e-05
-0.0111693
-0.00230747
-0.00154565
-0.0505651
-0.00477106
-0.0148475
2.24504e-05
0.00139021
-0.00597991
-0.0320907
-0.00135833
-0.0352523
0.0216687
-0.00148663
0.0168863
0.053437
-0.00197096
-0.000110918
-0.00556907
0.0137889
0.000106454
-0.00232253
-0.00948312
-0.00267149
-0.0163514
-0.00383352
-0.00562688
-0.0428562
-0.0615394
-0.060721
-0.0502446
-0.000514827
0.00422499
0.0130367
0.00779581
0.00535876
-0.00592396
0.00516986
-0.00132456
-0.000655563
0.0140805
-0.00642049
-8.22604e-05
0.00519658
-0.00307399
0.00461099
0.0053359
0.0105537
-0.00467677
-0.00216962
-0.000314763
0.00447922
0.00870326
0.00920563
0.00496905
-0.00998667
9.99402e-05
-0.00113248
-0.0041185
-0.00381044
-5.71174e-05
-0.00428731
0.00229904
-0.00177028
-0.000472375
-0.0152214
-0.0226733
-0.0150695
0.000892791
-0.00306786
-0.00214475
-0.00273729
0.0541979
0.0302891
-0.00463802
-0.0137475
-0.00764323
-0.00798028
-0.000676465
0.00427526
-0.00147854
0.00342616
0.000239047
0.0114658
-0.00934663
-0.011104
-0.000673864
-0.00148322
-0.00293806
0.00240864
-0.0284899
0.0630847
-0.0584066
0.000286139
2.02714e-05
0.000182335
-0.0121872
-1.57476e-05
-0.0124405
0.0115161
8.20054e-05
0.0264872
0.0150171
0.0168874
-0.0446109
-0.00604384
-0.00604321
0.0376221
-0.000832276
-0.00137881
0.0174108
-0.0421386
-0.00136658
-0.0110238
0.107851
2.08099e-05
-0.0651713
-0.028514
-0.00776514
0.00437696
-0.0062479
0.0231822
0.0236206
0.0106108
0.0167103
0.139797
-3.84042e-05
-3.95503e-05
-0.0060128
-0.00603101
-0.00526122
-0.00181168
0.00751748
0.0174273
0.000258308
-0.00424649
-4.19217e-05
-4.17974e-05
-0.00637649
0.012834
0.0228167
0.00379467
-0.000194029
-0.00120015
-0.0266195
0.0374549
-0.00658978
0.00130046
-0.0097418
-0.00484548
-0.00115607
0.0209662
0.00448786
-0.0159604
0.0166908
-0.000653397
-0.0314018
-0.00856339
-0.00333826
-0.00622284
0.00284399
-0.00935398
-1.18956e-05
-0.00404134
-1.09439e-05
-0.00069481
-0.0116747
0.00631902
-0.0149716
-0.00366389
0.00647301
0.0307511
-0.00504017
0.000592966
0.00666336
0.00515992
-0.0122566
0.0103458
0.000179045
-0.0149836
-0.00877747
-0.00404624
0.0104612
-0.00582928
-0.011908
-0.0110642
0.0261616
-0.00024636
-0.012617
0.0980331
0.0258387
-0.012063
-0.00292754
0.00635336
-0.016835
0.00355077
-1.63856e-05
0.0371576
0.0254622
0.000444985
-0.0094621
-0.00904933
0.00589521
-0.00504023
0.0077407
-0.00756422
-0.0593582
5.5376e-05
0.000115714
0.00941224
-5.04701e-05
-0.00602131
-0.00360024
-8.48535e-05
-0.000184337
-0.0110381
4.8542e-05
-0.000287687
0.016694
0.00517972
-0.00283342
0.00755056
-0.00143733
-0.00577252
-0.0138537
0.00762319
-0.0104482
-0.0033761
-7.67464e-05
-0.00420159
-0.000381635
-0.0447769
-0.0689918
0.000298166
-0.0151582
-0.00208575
-0.0313069
0.0132644
0.000179339
-0.00399386
-0.0033311
-3.69278e-05
-0.0414429
-0.0100256
4.8733e-05
0.0101087
-0.00511049
0.00718188
-0.0013042
-0.00302706
5.96099e-05
-0.000195774
6.50686e-05
-0.00508255
0.0104724
3.70415e-05
0.00521179
-0.0027964
-0.0478607
-8.81431e-05
-0.000290322
-0.0104176
0.0237351
-0.0112671
0.00278896
0.0665002
-3.58967e-05
-4.31664e-05
-3.39675e-05
-0.0171456
-0.0151468
0.00794608
-0.00191062
-0.00130132
-0.00490163
0.00329875
-0.00233098
2.51543e-06
0.0671154
-0.00422729
-0.000115265
0.0059504
-0.00604042
-0.0572538
0.053018
-0.000339167
0.0139491
-0.0117297
-0.0780241
-0.00564127
-0.0003752
-0.000244019
-0.000376147
-0.0757721
0.0265875
-0.0149652
-0.0116132
-0.0152382
0.00353431
0.0064034
-0.0020232
0.0266609
0.00554897
0.00938851
-0.0244592
0.00718997
1.82046e-05
-0.0195707
-0.00275884
5.18028e-05
-0.010889
-0.0410097
-0.00156074
0.000167652
-0.000145747
0.105734
-0.00490207
-0.00593112
-0.0616385
-0.00209111
-0.060486
-0.0137782
0.00782413
-0.000852012
-0.0479691
9.07177e-05
0.00414099
0.00595662
-0.0141313
0.00967298
-0.0293441
-0.00369835
-1.38581e-05
0.0129558
0.00473795
0.0088142
4.91269e-06
0.00828792
0.00329228
0.00623031
0.000105262
0.00589556
-0.000108546
-0.000114119
-0.000119446
-0.00512037
0.00662655
0.00315993
-0.00314375
0.00545822
-0.00655613
-0.000314197
-0.0143721
3.80562e-05
0.00536072
-0.00469652
0.0032738
-0.00514325
0.00830242
0.0117834
-0.00015678
-0.00499448
0.0113523
-0.00126068
-0.00759402
0.0514449
0.00557747
4.22179e-05
-0.00106466
-0.0143473
0.00357639
-0.0275311
0.00914629
0.00499101
-0.00122643
0.00525734
-0.047068
-0.0037429
-0.0124403
-0.00618518
-0.00762468
0.000369856
-0.0596389
-0.00218626
-0.0570454
-0.000435796
-0.000348627
-0.00089988
-0.000187883
5.99794e-05
0.00475906
-0.000857766
4.76359e-05
-0.00484765
-0.00589222
0.00243173
0.0244094
0.0756404
0.00821404
-0.0411912
-0.00763047
-0.0687158
-0.00655394
2.63353e-05
0.0198396
2.48686e-05
0.000207035
0.0103461
0.0149506
-0.00611027
-0.0149051
0.0099937
0.00831211
0.000187179
0.0184964
-1.22373e-05
-0.00433689
-0.0280254
-0.0474286
-0.00016271
0.00550391
-0.0144687
-0.0240019
-0.0120254
0.0179547
-0.00460276
-3.45505e-05
0.00526058
0.0195912
0.0790844
-0.000873547
-0.000156333
-0.00668776
-0.00249387
-0.0424171
-0.00488327
0.0130728
-0.00775444
-0.000327981
-0.0481808
-0.0111343
0.000287555
0.00743454
0.00414251
0.0076146
0.024287
0.0186469
0.0233017
0.0131971
-6.89588e-07
-0.00630083
-0.00502907
-0.000707236
0.00828057
-0.000741215
-0.0043428
0.00442645
-0.00485599
-0.00201483
0.129976
0.000275556
0.00913692
-0.00281092
-0.00249781
-0.00756074
-0.000187087
-5.4106e-05
0.0130873
-0.00062812
0.00433161
-0.00220018
-0.00394644
-0.0047257
-0.00158538
-0.0160593
-8.5742e-05
0.0100352
0.0128332
0.0160816
-0.00024171
-0.000504523
-0.00405748
0.0153054
-0.0578088
-0.00507488
0.00643072
-0.000877871
0.0499334
-0.00830271
-0.00352144
0.000786483
-0.0129878
-0.0013372
-0.012842
0.00742719
-0.0640718
0.000506619
-0.0139486
0.0112204
0.00363663
0.0051802
-0.000141025
-0.0018333
-7.94499e-05
-0.0147445
-0.00357252
0.0110627
0.00637467
-0.000167835
0.0168682
-0.000395271
-8.08373e-05
-0.00207723
-0.0145799
-0.029919
0.039555
0.0654521
0.00629979
-0.00450061
-0.000170952
9.73355e-05
-0.00181536
-0.00820378
-0.00179296
-0.00054037
-0.000554557
0.00537207
-0.0585028
-0.00366999
-5.33934e-05
0.014827
-0.0120497
0.0178953
7.41191e-05
-0.00317494
-0.0724146
0.000129676
-0.000117806
-0.000806243
-0.00446193
-0.0117905
-0.00368006
-0.00579407
-0.00153591
-0.0342843
-0.00607021
-0.00241559
-0.0406073
-0.00489494
0.00457595
-0.000117036
-0.00479085
0.0149902
-0.00439143
-0.0117722
-0.0977718
-0.000166618
-0.0132407
-0.00958618
0.000171318
-0.00047872
-0.0255537
-0.00401785
-0.0126461
0.013292
-0.00565126
-0.0176829
-0.00212251
0.00833003
-0.000460182
-0.00603002
-0.00307983
0.0065317
-0.00014677
0.00840699
-0.00307389
-0.00967872
0.0159677
-0.00868005
-0.0158142
-2.44973e-05
-0.000455254
0.0160625
0.0182488
-0.00321284
0.128938
0.00497734
0.000252736
0.00532656
0.0110603
-0.00861861
-0.00322998
0.138604
0.0144769
-0.00472921
-0.00156759
-0.000660792
-0.0358087
-0.00379395
0.00849482
-0.0004336
-0.0058014
0.00025781
0.0394267
-0.000438873
-0.0175869
0.000245394
0.0185037
-0.000409492
0.00777103
-3.3522e-05
0.0791853
-0.00126426
-0.00370152
-0.0338394
-0.0133089
0.000267449
0.00531624
0.0086451
-0.0417498
-0.00452834
-5.30007e-05
0.00706697
0.0147896
-0.0683548
-0.028415
0.00530161
0.00771709
0.000233089
-0.0143571
0.00445641
-0.0022039
-0.000813724
-3.8753e-05
-0.00311049
-1.432e-05
-0.00377321
-0.000256812
0.0136494
-0.000151694
0.00331494
-0.000573651
0.00513301
-0.00477733
-0.0121453
-0.0393294
0.000110552
-0.00783603
0.0862297
-0.00187576
-0.0587623
-0.0103421
0.00358581
-0.0120733
-0.00013892
-0.0152689
-0.0385813
2.43045e-05
0.00409357
-0.0102977
0.00387269
0.0180615
-0.00682436
0.00187411
0.00325274
-0.0585323
0.0131969
-0.00220219
-0.00591065
0.000214476
-0.00191984
-0.0012472
-4.34909e-05
-0.00166237
-0.00733431
-0.000493587
0.00454842
3.25249e-05
0.00863605
0.000106585
-0.00200777
-4.20661e-05
0.000532468
-0.00504885
-5.41164e-05
-0.00824775
3.64674e-05
-0.00718168
-0.00191092
0.00863358
-0.000360798
0.0140028
0.0101119
-0.000295113
0.00224599
-0.0323047
-0.000691912
-0.00114693
0.00025682
-0.0140858
0.0197002
-0.0524557
0.00614819
-0.000540228
0.00158219
-0.00636594
0.0217629
-0.00350026
-0.00508666
-0.000419291
-0.0312707
-0.000658078
-0.00364029
-0.00375924
-0.00362863
-0.00716306
-0.00948145
-0.0359682
-0.00068931
-0.0777465
-0.000414982
0.00742093
-0.0085964
0.00515839
-0.0145075
-0.00946779
-0.00636207
-0.0382899
0.0356478
-0.00345867
0.0181352
0.00293932
-0.000140788
-0.00145094
-0.0260846
0.0088987
0.00415477
-0.000660998
-0.0151486
0.00236196
-0.00103028
0.000319628
0.0175231
-0.00143286
-0.010326
0.00918363
0.00565267
-0.00272377
0.011322
-0.00423425
0.0088484
-0.00502179
-0.00677973
-0.0117485
-0.00628482
-0.00733586
0.0410367
-0.0101604
-0.00624802
0.00218441
-0.00415034
-0.058392
0.000563557
-1.93212e-05
-0.00242164
-0.0295685
0.00534334
0.00694138
0.0085216
-0.00274431
0.00568245
0.00115083
-0.0437378
0.000806334
-0.00154281
-0.00547648
-0.00590878
-0.00117289
0.00426616
-0.000270949
0.000137334
0.0228075
-0.00628318
-0.00841344
-0.00545226
-0.000296821
0.0649973
0.00654846
-0.00180838
-0.00465523
0.00252763
0.00583762
0.0157851
-0.000307884
-0.0434676
0.00760032
-0.00504278
-2.7782e-06
0.00526489
0.000293533
-0.0453004
7.19512e-06
-0.0221071
-0.00013338
-0.000732072
0.0056535
-0.0190475
-0.000124807
-9.23801e-05
0.000227742
-0.00251128
0.00469818
0.0230505
-0.00368709
0.0770635
-0.0300129
-0.00639525
-0.0122114
-0.0357968
-0.000404683
0.0159244
0.00878774
0.0105061
-0.0179516
-2.8907e-05
-0.070137
-0.00333677
-0.0075913
-0.0544648
-0.00301235
0.00920575
-0.00401809
-1.28185e-05
-2.02424e-05
0.00411019
-0.0100273
-0.00597839
-0.00460145
-0.000151343
-0.00548271
-0.00279221
-0.0160801
-0.00939448
-0.00258652
0.000153359
6.81753e-05
-0.000396009
-9.5377e-05
0.0501962
-2.33924e-05
0.00891418
-0.0306962
-0.00535535
0.00515233
-2.68386e-05
-0.00175049
0.00150293
-0.0127757
-0.0038727
-0.000407919
-0.000393016
-0.0187283
-0.0113582
-6.21842e-05
-0.000760687
3.08126e-05
-0.00106554
0.0208221
0.00383751
-0.00064862
-0.00193353
0.00510993
-0.00439635
0.073001
-0.00571793
-0.00387049
0.111868
0.0041488
-0.0538702
0.0103666
-0.000805561
0.00602474
-0.00564358
-0.00904153
0.0138739
0.0282923
-0.0191499
-0.000523492
0.0803381
1.85926e-05
-0.0418168
-0.0353495
-0.00877209
-0.00470567
-0.0165432
-0.00151862
-0.000259274
-0.00315769
-0.00103466
0.000184076
0.0158288
1.24658e-05
0.00920603
-0.000121171
-0.0063106
-0.021053
-0.00696548
0.00053746
-0.00015749
0.0151617
-0.010259
-0.00584474
0.0160523
0.00689757
-0.00155973
-0.0003895
-0.000153596
-0.0174696
-0.0127969
0.00798061
0.00606215
0.0246865
-0.000281537
0.00308638
-0.00554578
-0.00448186
-0.0188508
3.77007e-05
0.0307086
0.00442051
-0.00532747
0.0356095
-0.000942123
-0.0750992
0.0183578
-0.000146326
0.00483845
0.000119707
0.110079
-0.00215211
-0.0600993
-0.000356369
-0.000302585
-0.000560546
-0.000331369
-0.00679399
0.000133708
-0.0136651
-0.0388589
-0.017807
-0.0101357
-0.000303064
-0.0311353
-0.0476927
-0.0627635
-0.00103171
0.0907586
-0.0645189
-0.00490764
0.0052333
0.000488648
8.16869e-05
2.30384e-05
-0.00385493
-0.00107709
-0.00211424
-0.000564714
0.00923433
-0.0370449
-0.00608798
-0.00313186
-0.044548
-0.0378496
0.00795482
-0.00114464
-0.00309448
-0.00561085
0.00562624
-0.00534243
0.00525778
0.0119456
-0.0142159
0.0575259
-0.00102902
0.0305864
-0.0280775
-0.00241289
0.00656717
-0.000809379
-0.00026347
0.013669
-0.0155712
-0.00409835
0.0157396
-0.00402752
-0.000142764
-0.00792869
-0.00708457
-0.0616789
-0.0123529
0.00938921
-0.00164871
-0.0113666
0.000834446
0.0742642
-0.0435311
0.00866438
-0.00251519
0.00106622
0.0429083
-0.00296704
-0.00706716
-0.000144998
0.00354999
-0.00506179
-0.00461906
0.00650829
-0.0188204
-0.00200465
-0.00499441
-7.91344e-05
-0.000334907
0.00753423
-0.00449504
-0.00163218
0.00677522
0.00301892
-0.0155741
-0.00920142
0.00556088
0.0651312
0.0161579
-0.00163305
-0.00627035
0.00308246
0.0093929
-0.0053465
-0.000784802
0.0125975
-0.00323157
0.0565862
-0.0549955
-2.85493e-05
-0.00742652
0.00723526
-0.0100031
-0.0320925
-0.00997533
-0.00330418
-0.0092254
-0.054257
0.00864082
-0.00498489
0.0907702
-0.00130151
-0.00412714
0.00757742
0.00483849
0.00557766
-0.0013818
-0.00342069
0.0100415
-0.00281741
-0.0432444
-0.0550891
-0.0200244
-0.00411681
-0.00991234
-0.00542739
-0.00299549
-0.00437232
-0.00635191
-0.00498706
-0.00432935
0.00941091
0.015862
-0.0109419
-0.0139551
-0.00446149
0.000336648
-4.93486e-05
-0.000662698
-0.000250865
0.000114304
-0.0101692
-0.0354434
0.00694385
-0.0513175
-0.00230848
0.000127727
0.0112439
-0.000154537
-0.0246708
-0.00164504
0.0090258
-0.000865416
0.000420731
-0.00737309
3.03264e-05
0.0575086
-0.000572365
-0.0123246
-0.000329103
0.000359702
-0.00723189
-0.00906357
0.00665685
0.00299257
0.0473274
0.000114697
0.00980004
-0.0051733
-0.0142137
-0.00720521
-0.00584888
-9.56482e-05
0.000128549
-0.0166754
1.01931e-06
-0.00396883
0.00931473
-0.019652
-0.0620713
0.00013235
0.000126659
0.00214205
0.00732787
0.00230396
0.0247219
-0.00408594
-2.16118e-05
-0.00828909
0.00492906
0.00291772
0.00738008
-0.022388
-0.0215546
-0.00501242
-0.0589364
-0.00413869
0.0110928
0.000184942
-2.6903e-05
-3.785e-05
0.00723284
0.0243618
0.000134025
-0.0354394
0.0600892
0.000114819
-0.0199898
0.000146166
0.00882554
-0.0473535
-0.028694
-0.00925597
-0.010105
-0.0143843
0.00661963
0.004868
-0.0596711
-0.00736837
0.025698
0.0113839
-9.69852e-05
0.0136026
-0.0159346
-0.00459413
0.00475274
-0.0229583
0.00159056
-0.00486927
-0.000901261
-0.00290269
-0.030628
-0.00181515
-0.0590193
-0.0548709
-0.000472579
0.000101751
-0.0245255
0.0116676
-0.00274913
-0.00449411
-0.034489
0.0139759
8.80431e-05
0.00281069
0.0846966
0.00427128
-0.0198358
-0.0159678
0.00905955
-0.00253623
-0.0614679
-0.00129065
0.00201893
-0.0787132
0.109879
0.00180264
0.00725609
-0.0227766
-0.00456703
0.00961525
-0.00115649
-0.00548889
-0.00493066
0.000126527
0.0164139
0.0984641
0.00738514
-0.00371368
-0.00272003
-0.00322009
-0.00423849
-0.00376269
0.0466851
2.2542e-06
0.0496289
-0.000754949
-0.00650199
-0.0384354
-0.00626431
-0.0106319
-0.000397963
-0.00412793
-0.000524931
0.009112
-0.000509483
-9.74223e-05
0.00207644
-0.00142222
0.0456523
0.00366024
0.0165348
-0.0458954
-9.50993e-05
0.00695079
-0.068326
0.00177112
0.00826869
-0.000164611
0.0225087
0.0356495
-0.0477163
-0.00987221
-0.0048056
-0.00484421
-0.0127407
-0.0020687
-0.00852662
0.0103544
-0.00819469
-0.0103911
0.0366649
-0.00748368
-0.00487908
0.0146849
-0.098
0.00380795
-0.00287336
0.00783547
-0.000753347
0.00694173
-0.00179817
-0.00067742
0.00694772
-0.00256937
-0.00636506
0.0111461
1.00918e-05
-0.00380614
-0.00431288
-0.000268877
0.00458603
0.0060585
-9.08231e-05
-0.015012
-0.00641902
-0.018546
-0.00167786
0.000896432
4.08014e-05
-0.000759357
0.124579
-0.000245543
0.00525607
-0.00931026
-0.0599544
0.00586367
-0.000548591
-0.000256052
0.00874407
-0.000106783
0.0178089
-0.0581173
0.000642202
0.00973016
0.0487722
-1.71613e-05
0.0106006
-0.00215201
0.0053484
-0.00164061
-0.0144487
-0.00862931
-0.0001092
-0.0177578
0.00751695
0.00607057
0.012747
-0.000536849
-0.00379974
-0.00320142
0.000227182
0.0084506
-0.00187994
-0.000418447
-0.0127178
-0.000660502
-2.20737e-05
-0.000577117
-0.0514725
-0.000490566
0.00542701
0.00764305
-0.0122906
0.00869051
0.00445603
0.0053877
-0.00909423
-7.7629e-05
-1.56944e-05
0.00654746
-0.0035233
-0.00778578
-0.00154916
-0.0610758
0.00217875
0.00867375
0.0179967
-0.0115571
-0.0077042
-0.00854211
-0.00261141
0.00241487
0.00735027
0.00836639
-0.000529971
0.0332237
0.00677377
-4.85653e-05
-0.00225594
0.0232051
-0.00358981
0.00794142
-0.000524629
-0.000107319
-0.0198808
-0.0437411
-0.00587773
0.00540805
0.0280973
0.0657179
0.0106375
0.00351331
-0.0262663
-0.00476437
-4.23378e-05
-0.00565253
0.00018135
-0.000154443
-0.000188656
0.00822345
-0.000392842
0.00125853
0.000516768
-0.00278588
-2.4066e-05
-0.0617258
-0.0569004
-0.000596437
-0.000146196
-0.0264066
-0.00195469
0.018189
-0.00643092
0.013714
0.00586494
-0.00267404
-0.0118116
-0.00481957
-0.00059902
-0.00191711
-0.00486749
4.60925e-05
-0.00282695
0.00740216
0.0135138
-0.0600743
-0.00859679
-7.2003e-05
-0.00363295
-0.000580024
-0.00041506
-7.48437e-05
-0.00213725
-0.0431678
-0.0254291
4.83616e-05
7.79305e-05
-0.0282457
-0.000134725
0.00415756
-0.00720828
-0.00403449
-0.00324314
0.0106173
0.00710242
-0.0106911
0.00667529
-0.00274625
-0.00330601
-0.00118101
-0.000869069
0.0209195
-0.0596192
-0.0614797
0.0359731
0.00226265
0.00552004
-0.00135142
0.0226868
-0.00984445
0.00857287
-0.0484623
0.00634471
-0.0744213
-0.00451847
-0.0259937
0.000312035
-0.00103263
-0.0112143
0.046892
-0.058398
-5.25624e-05
-0.00649866
-0.00411439
-0.023257
-0.00353088
0.00802325
-0.0017816
0.00472352
0.0078518
-0.00298962
-0.00302143
-0.038854
-0.0236444
0.00640119
-0.00443838
-0.0011121
-0.0675855
0.00476493
-0.00256188
-7.51897e-06
2.27633e-05
-0.00614749
0.0081061
4.7915e-05
0.0174593
0.00765985
-6.10237e-05
-0.000562647
-0.0149548
-0.0641163
0.00448674
0.00906978
-4.97215e-05
0.000144187
0.00601948
-0.0020622
-0.0085805
0.0421556
-0.00173766
-0.000125393
0.0100046
-0.000379377
-0.0278469
-0.060201
0.00734109
-0.043668
-0.000819687
-0.0239121
-0.00730497
-0.00493432
-0.00201299
0.010295
-1.99982e-05
-0.0113299
-0.00965375
-0.00473173
-0.0602055
0.00865148
0.0051503
-0.0239995
0.00415876
-0.00244677
-0.0124402
0.00582348
-0.00507367
-0.000725746
0.0114939
0.00305689
-0.000835452
-0.00281518
0.00921237
-0.0051209
-0.0101785
-0.00591823
-0.00363305
-0.0162294
0.00477025
3.6327e-05
0.000397651
-0.00424724
0.00536114
-9.39278e-05
0.0108353
-0.00243693
0.0107812
-0.004262
0.000104476
0.00521941
0.010045
-0.00442393
-0.0121316
-0.00346738
-0.00504066
0.0104321
-0.0403691
-0.000148383
-0.0459479
-0.00419504
-0.00774031
-0.00475867
-0.0122094
-0.00645715
0.00151193
0.000356473
0.00531302
-0.0203737
-0.000404671
-0.000394131
-0.0224045
0.000505343
-0.00544012
-0.00788661
0.00548301
-0.00972432
-0.0213241
0.00923123
-0.00491656
0.00857897
-0.00527845
0.0265815
-0.00595711
0.00109273
-4.303e-05
-0.00143638
0.000184313
-0.0033806
0.000106161
-0.00126652
0.00645728
0.00513451
0.00750264
0.0111509
-0.00427892
0.0151223
0.00378008
-0.0572989
0.000291266
-1.1267e-05
-0.0527573
0.00571851
-0.0490587
0.00369401
-0.0102231
0.000104128
0.00689462
-0.0145537
-0.00348605
-0.0148715
-0.0019522
-0.000891
0.000111778
0.00370595
-0.00598594
2.69177e-05
-0.00541332
0.00586684
-0.00509673
0.00847974
-1.87652e-05
0.00762708
-0.0539717
0.0562073
0.00808542
-0.026628
-0.00218391
0.00402261
0.000658569
-0.00137842
-0.000453884
-0.00143251
-0.0140066
0.0287781
-0.00211908
3.21397e-05
-0.00809847
-0.00312283
0.00118195
-0.000273619
-0.00156247
-8.88815e-05
0.00800016
-9.91549e-05
0.000182377
-0.00268999
-0.00507467
0.0110032
0.0110119
-4.93865e-05
0.039526
-0.00860471
-0.000573604
0.00606993
-4.80094e-05
5.12007e-06
0.00889969
-0.000619756
-4.36642e-05
-0.00949292
-0.00696813
0.000436141
0.00315819
0.00847683
-0.0049003
0.0277918
0.0064735
-0.000731313
0.000618884
-0.0619949
-0.00943213
0.00330464
-0.00055655
3.15092e-05
-0.0188882
-0.00116713
-0.00519717
0.0192004
-0.000704746
-0.0156919
-0.00070559
0.00896232
-0.00984325
-0.0158701
0.00166365
-0.00396678
0.00864337
-0.00614889
0.00189606
0.0002497
0.00759739
0.00177956
-0.000569155
-1.90401e-05
-0.0319503
-0.0497394
-0.0483445
-0.000214235
0.00656562
0.0392515
-0.0132281
-0.000783232
0.0102922
1.42926e-05
0.000147185
-0.0227789
-0.0114003
-0.00238535
-0.0297801
-0.00150637
0.000291359
-0.000448483
0.0107742
-0.049243
-0.00514416
-0.00516265
-0.000773028
0.000862527
-0.00164631
-0.00418598
-0.00067585
-0.0210267
-5.51776e-05
-0.0391767
0.00050673
0.00937245
0.0115174
0.00336243
0.00272119
-0.00499727
-0.00114047
0.00359389
-0.00250138
0.0198225
0.00947508
-0.00419958
-0.000265541
-0.00028093
0.0878114
0.0184145
-0.00368444
0.0274502
0.00533146
-0.000279881
0.0078737
-5.40577e-05
0.00292264
-0.0137136
-0.00156378
0.00422985
-0.00287877
0.0243216
-0.00315537
-0.000159019
0.0161014
-0.00265206
-0.0100035
0.00434895
0.0171673
-0.000889862
0.0172507
-0.00402448
-0.0195752
-0.00146536
0.0367945
-0.0497838
0.00589307
-0.000793221
-0.0053004
-0.00399573
0.00188685
0.00527662
0.00601752
-0.030372
0.00495392
-0.0259442
-0.00435776
-0.0382316
0.001638
-0.00492354
-0.0161997
-0.00362322
0.0225527
-0.0041923
0.0587021
-0.0105328
-3.71859e-05
-4.02588e-05
-0.000404214
0.00676097
0.00451983
0.00393988
-0.00416791
-0.00738516
-0.0492864
-0.0163538
-0.0166314
-5.08543e-05
-0.000726418
-0.000563849
0.00351847
-0.00540643
0.00871773
-0.00845086
0.00453054
0.00617327
1.94585e-05
0.0324571
0.00704296
0.0308164
-0.00120625
-0.00158804
-0.0126973
0.00803613
-0.0564537
0.00121559
-0.000827905
-6.05748e-05
-0.00665026
0.00786855
-4.58932e-05
0.0112988
-0.00123439
-0.0036209
-0.000150493
3.48743e-05
-0.012065
0.0207759
-0.0156647
-0.00895636
-0.0311229
-0.00420377
-0.0025654
0.0229738
0.0179638
-0.00359213
-4.89742e-05
0.00742399
0.00253831
-0.00253387
-0.00382598
-0.0157329
-0.0586828
-0.00270609
0.00836609
-0.00370985
-0.00745001
-8.40257e-05
0.0314673
0.0135936
-0.00488148
-0.00543432
0.00223723
-0.00473421
-0.0556128
-0.000375236
-0.0624401
0.0041162
0.0127745
-0.00237069
0.00024382
-0.0601435
0.0777025
-0.000306672
-0.00362985
-0.00491068
-0.00031734
-0.000372529
-0.000294466
0.0076133
0.0220802
-0.0067522
0.00715696
-0.047549
0.00560937
-0.0108101
-0.0335392
0.000688073
0.0318558
-0.000533046
-0.0669735
0.00573075
1.76167e-05
-0.000145327
-0.0318279
-0.000899523
-0.0178064
0.00977182
-0.0220405
0.0069298
0.0133132
-0.00388942
0.007993
-0.00334876
0.00852773
-0.043632
0.011588
0.0058234
-0.000306632
0.0160464
0.0044132
-0.00146297
0.00656512
0.00369027
0.00419177
-0.0710003
0.000177942
-0.0481707
-0.00444727
0.0297107
-1.10466e-05
-0.00208243
0.0141159
-0.0466601
0.000503345
-0.000416034
-0.000685697
0.034352
0.00531786
0.0167612
-0.000260255
-0.0034443
-0.0710461
0.00513331
0.0029678
-6.44701e-05
0.0066387
-0.00234062
-0.00517145
-0.00145884
-0.00795324
-0.00101247
-0.00023204
0.000136067
0.00833619
-0.00985061
0.00289033
-0.0262204
-0.000827095
-0.0327517
-0.000352139
-0.00980256
-0.00889442
-0.00322547
0.00223307
-0.00965777
0.0110041
-0.0124111
0.0236766
-0.00449118
-0.00815652
0.00550279
-0.000601308
-0.00846507
0.000831828
0.0215489
0.00669211
0.0796976
-0.00325397
0.00209836
0.00658369
0.016035
0.0202192
-0.00112879
-0.000431912
3.19285e-05
-0.00199076
-0.00366542
-0.00572517
0.0696538
0.0952428
-0.00723913
-0.011677
0.00860127
0.014433
-0.0083887
0.000227716
-0.0815593
0.00883851
-0.000135432
0.00594305
-0.00396122
-0.000621428
-0.0117809
-0.0137551
-0.000922518
0.0215732
-0.000400956
-0.0632365
-0.00265016
0.005936
-0.0200456
-0.000468589
-0.0222495
0.00116086
-0.0131595
-0.00341001
-0.000306823
-0.000148419
-0.0546257
-0.024142
0.00786068
-0.000742221
0.0180428
0.00460812
-0.044459
-0.0349102
0.0126724
-0.00875698
0.00818747
0.00618097
-0.00398326
0.00736258
-0.0146895
0.00903102
-0.00580806
1.80088e-05
0.0010426
-0.00153449
-0.00451832
-0.0670605
0.000247067
-0.00234877
-0.00673524
-0.00145764
0.00192328
-0.0522312
-0.0604181
0.00480126
0.0286478
-0.0656877
-0.00381649
-0.0716874
0.00140108
-0.00897421
0.00862808
0.0102343
0.00629303
-0.0184882
0.000255982
-0.0618127
-0.0549104
0.0012862
-0.00689255
0.00862898
-0.0366668
-0.00425234
-0.00258226
-0.0676334
-0.060941
-0.0520158
0.00335866
-0.00258418
0.0068685
-1.83935e-06
2.39473e-05
-0.00499663
0.000225893
0.00861044
-0.012678
-0.00188954
-0.00325731
0.00448141
0.00734059
0.00972171
-0.0589624
-0.00514042
-0.000816567
1.10265e-05
0.00490007
-0.00981127
0.0171798
-0.00899754
0.00658193
-0.00445112
-0.000128135
0.00485884
-0.000590924
0.00794332
0.00610405
-0.00566396
-0.0398475
-0.0141545
0.0292646
-0.00463077
0.00605948
-0.00509534
-0.00961653
-0.0597783
-0.00408731
-0.0100801
-0.0300515
-0.0300429
-0.00415577
-0.0652317
-0.028341
0.0023962
0.00386141
-0.00208069
-0.00203989
0.00589033
0.0159985
9.83012e-05
-0.00681435
-0.00290823
-4.71715e-05
0.000418499
-0.00911163
-5.01228e-05
0.00880758
-0.00256757
-0.0200859
-0.00509694
0.029571
0.000745798
0.00448205
0.000782378
-4.91681e-05
-0.0153331
-4.50936e-05
-0.000488388
-0.000759206
-0.00475814
-0.0622327
0.000650878
0.0220988
-0.0139203
-0.0355309
-0.00508911
-0.00504457
-0.00445637
-0.0454761
-0.0200741
6.81995e-05
-0.000195573
-0.0662819
0.00922113
-3.53791e-05
0.00689079
0.0411919
-0.00114269
0.00533867
-0.000128635
0.0474245
0.00112809
0.00483638
0.00610186
-0.000500657
-0.000509786
-3.1498e-05
-0.011165
-0.0315128
-0.0486583
-0.0126119
0.00912689
-1.46271e-07
0.00607027
-0.000262402
-0.00183284
-0.000368302
-0.000731186
-0.00386366
-8.64793e-05
-0.00627736
-0.0670612
-0.00168324
-0.0504383
0.0106158
-0.00070549
-0.00173372
-0.0094409
-0.000936827
-0.000945921
0.000121112
-0.0109325
0.00696096
-0.000307364
-0.000153246
-0.00178769
0.00341
-0.00376432
-0.0570933
0.000577502
-0.000219189
-0.00316048
0.00481707
0.0151116
-0.00422569
-0.00224754
-0.0532119
-0.000367105
0.00925434
0.00544706
0.00483141
0.000412695
0.00785771
0.0048832
0.0317083
0.00854533
5.3461e-05
0.000278472
8.79161e-05
-0.00551116
0.00229872
-0.0252441
0.000666348
0.00534726
-4.24318e-06
-0.0151837
0.0063745
-0.000182164
-0.0107681
-3.52889e-05
-0.0071582
-0.0295184
-0.00298223
0.0448725
-0.000117624
-0.00832263
2.09815e-05
0.00554478
-0.0603574
-0.000933792
0.0325564
-0.00469708
-0.00971733
-0.00051383
-0.000239076
-0.00479255
0.00762625
-4.10203e-05
2.06683e-05
0.00820593
0.0292586
0.00370664
0.00648956
0.000546372
-0.0263472
0.00778559
-0.00929624
-1.72467e-05
-0.0262027
-0.0144694
-0.0023625
0.00290823
0.00353776
0.00864471
0.00512629
0.00344949
-0.00058385
-0.000528738
0.0418556
0.00699269
-0.000314237
0.0060462
-0.0158964
0.00414595
0.00470365
-0.0082641
-0.0024449
-3.70552e-05
5.10028e-05
0.00748141
7.7931e-05
-0.0103364
0.0113841
-0.00613925
-0.00104688
7.47679e-05
0.0104454
-0.00975408
-0.0186669
-6.86274e-05
-0.0306507
-0.000908146
-0.00946775
-0.00319105
-0.000201181
8.1878e-05
-0.000409135
-0.0161545
0.00017596
-0.000134342
0.00532443
-0.0174946
-0.0530462
-0.000413624
-0.000188893
0.00383764
0.000186148
-0.016004
0.00570706
0.00129301
-0.00573452
-0.00161384
-0.004046
0.0158556
-0.000602727
0.00384673
-0.000396778
-0.00620961
0.015485
-0.028876
0.007692
-0.025956
0.000166337
-0.00689764
-0.00119558
-0.0348003
4.88739e-05
0.00520362
0.000344799
0.00589388
-0.000572761
-0.000817673
-0.00349555
-0.0526191
0.0151504
-0.0469685
0.00393084
0.00392014
-0.00550711
-0.000394299
-0.0168597
-1.24708e-05
1.31906e-05
-0.00274035
-0.00359462
0.000186042
0.00528197
-0.000375381
0.00606177
-0.0103344
-0.0133911
1.53391e-05
-0.0111109
0.00255075
-0.0158738