/*--------------------------------*- C++ -*----------------------------------*\
  =========                 |
  \\      /  F ield         | OpenFOAM: The Open Source CFD Toolbox
   \\    /   O peration     | Website:  https://openfoam.org
    \\  /    A nd           | Version:  9
     \\/     M anipulation  |
\*---------------------------------------------------------------------------*/
FoamFile
{
    format      ascii;
    class       surfaceScalarField;
    location    "70";
    object      phi;
}
// * * * * * * * * * * * * * * * * * * * * * * * * * * * * * * * * * * * * * //

dimensions      [0 3 -1 0 0 0 0];

internalField   nonuniform List<scalar> 
167688
(
-0.0422062
0.0254448
0.0167614
0.00801319
-0.0735529
0.0655397
0.035788
0.048816
-0.084604
0.0393389
-0.085884
0.046545
0.100134
-0.0895341
-0.0105994
-0.0730264
0.0130874
0.059939
0.0419329
-0.0246647
-0.0172682
-0.0388485
0.0781874
-0.125153
0.0424006
0.0827527
-0.0261261
-0.00371236
0.0298384
-0.0517022
0.0597154
-0.0616623
0.0349282
0.0267341
0.117192
-0.0896076
-0.0275842
-0.046426
-0.0152363
-0.0372958
0.0169633
0.0203325
0.04177
0.0319165
-0.0736865
0.0187968
-0.00276343
-0.0160334
0.0211296
-0.0259371
0.00480752
0.0300555
0.038937
-0.0689924
0.108518
-0.0663851
-0.0421333
-0.0817814
-0.0226441
0.104425
0.0457161
0.0525193
-0.0982353
0.0625968
-0.0325413
-0.0890661
0.0646909
0.0243752
0.0934054
-0.0148682
-0.0785372
-0.0776279
0.0294434
0.0481845
0.0124143
0.0103635
-0.0227778
0.0718172
-0.0802086
0.00839137
-0.0911622
0.0181358
0.000598176
-0.0823796
0.0117402
0.0691953
-0.0809355
0.0612349
-0.0580859
-0.00314895
0.135026
-0.120949
-0.0140769
-0.00682886
0.00662406
0.000204798
-0.0711988
-0.0539545
-0.117106
0.0776963
0.0394097
0.0527335
0.0557849
0.00442723
-0.0140864
0.00965922
0.0271158
0.0382312
-0.0653471
-0.0555045
-0.037468
0.0929725
0.0341084
-0.0916092
0.0575007
-0.0638421
0.014174
0.0496681
-0.0746202
-0.0108172
0.0854374
0.0654503
-0.0296623
0.0410714
-0.0199419
0.0405211
-0.0672491
0.026728
-0.00358482
-0.00324404
-0.111526
0.00447249
0.107053
-0.100093
0.0373173
0.0627756
-0.00204549
-0.0617967
0.070615
-0.0290895
-0.0415255
-0.0263943
0.0234373
0.00295705
0.0889692
-0.0876012
-0.00136793
-0.0551438
0.0822596
0.00641651
-0.070332
0.0639155
0.0227726
0.0191603
-0.0705669
0.0495934
0.0209735
0.0728979
-0.0325875
-0.0403104
-0.0343399
0.00421026
0.0301296
0.0726996
-0.0321785
0.00852243
0.0326137
-0.0411362
-0.0466183
-0.0649076
0.117911
-0.0357074
-0.0822039
0.000366032
0.117545
-0.00717802
-0.0295576
0.0367356
0.126129
-0.073179
-0.0529504
0.0142857
-0.00985847
0.109801
-0.0869083
-0.0228922
-0.0611873
0.00535269
0.0558346
-0.0858472
-0.0154863
0.101334
0.0488907
0.0240072
-0.00401751
0.00239974
0.00161778
-0.06211
-0.0269561
-0.0268728
0.0212344
0.00563832
-0.0122116
0.0411758
-0.0289642
-0.00938939
0.0123653
-0.00297594
0.0903629
-0.00564937
-0.0847135
-0.0194336
0.0463638
-0.0237995
-0.0225643
-0.0590403
0.00389651
0.0159463
0.0655552
-0.0815015
-0.00216843
-0.00722096
0.0481159
0.0224991
-0.0641579
-0.01347
0.111023
-0.0692528
0.0158028
-0.0700637
0.0542609
0.071925
-0.0507502
-0.0211749
0.0671757
-0.0607592
-0.00448821
0.00357966
0.000908549
-0.0665721
0.0847271
-0.0181549
0.134552
-0.0579611
-0.0765912
-0.0494773
-0.0676287
0.0353277
0.0365973
0.030051
0.0700826
0.0342536
-0.0464653
0.118501
-0.0281384
0.0749484
-0.0497057
-0.0252427
-0.0281628
-0.00913305
0.0787696
-0.0670294
-0.0601657
-0.0104013
0.0591391
0.0580527
0.111393
-0.107172
-0.00422083
-0.0919406
0.0658796
0.026061
0.0633114
-0.102675
0.0393637
-0.00705708
0.0364092
-0.0293521
-0.015345
0.0030805
0.0122645
-0.0484329
0.0412549
-0.0567239
0.0924372
-0.0357133
0.0774059
-0.115766
0.0383606
-0.0640368
0.0798396
-0.000517543
-0.00349997
-0.0450662
0.0462799
-0.00121373
0.0452962
0.0319134
-0.0772096
-0.0723538
0.0470116
0.0253423
-0.0754601
0.0142728
-0.0576193
0.0202061
0.0374132
0.0424306
-0.00490247
-0.0375282
0.00582815
-0.0714982
0.0656701
-0.00349673
-0.000991481
-0.127522
0.0897517
0.0377704
0.0510202
-0.0822695
0.0312494
-0.00811873
0.079936
-0.0398987
0.0137726
0.0603667
-0.0838404
0.0234737
-0.0545915
0.0886999
-0.0199395
0.0832509
-0.00189545
-0.0175609
0.0194563
0.00243593
0.0641447
-0.0665807
-0.0859165
0.0224167
0.0634998
0.0327104
-0.0397675
-0.0277105
0.0880772
0.0303181
-0.0179038
0.0216685
0.0728581
-0.0945265
0.0208683
-0.00435766
-0.0165106
-0.0167682
0.0549995
-0.101966
0.0464614
0.127066
-0.0902533
-0.0368129
0.103103
-0.0745232
-0.0285793
-0.0446293
-0.0277545
0.0723839
0.0496349
-0.011065
-0.0385699
0.0400013
0.0631012
-0.0527722
0.0522647
0.00050759
-0.0682067
-0.00270343
0.0709102
-0.00832721
0.0132314
-0.00490421
0.020384
-0.0771079
-0.0696002
0.0387905
0.0308098
0.0239889
0.00545458
-0.0294435
-0.115906
0.0378285
0.0780772
0.0745136
-0.0686854
-0.083608
0.0872091
-0.00360108
-0.0161163
0.000771304
-0.0355258
0.0812418
-0.0365578
0.0513834
-0.0148255
0.00525718
0.083712
-0.087693
0.0430636
0.0706331
-0.0349791
-0.035654
-0.0864061
0.0749582
0.011448
-0.0253888
-0.046965
-0.0366017
0.00226181
0.0375737
-0.00241338
-0.0351603
0.0981043
-0.0528082
-0.115993
0.0778803
0.0381131
0.00694237
0.0460669
-0.0530093
-0.0733963
0.0364753
0.036921
-0.0860201
0.0934674
-0.00744739
0.0845781
-0.00555016
-0.079028
0.0521983
0.00505637
-0.0572547
0.0223869
0.038848
-0.0884202
0.00807523
0.0803449
-0.0563746
0.0603964
-0.00402174
0.017749
0.0426994
-0.0604484
0.0651909
0.00544214
0.0893033
-0.0823609
-0.0186648
0.0103376
-0.0157958
-0.0481009
0.0638966
-0.0454156
-0.0821065
-0.0918848
-0.00820811
0.121977
-0.0302409
-0.0917366
0.0652089
-0.0505493
-0.0146595
0.000677617
-0.0766356
0.075958
-0.0522456
0.0364498
0.0820214
0.0209621
-0.102983
-0.114781
0.0124203
0.102361
0.0722007
-0.102156
0.0299556
-0.0721651
0.0440016
0.0281635
-0.0454899
0.0329465
0.0125435
-0.0635614
-0.052432
-0.00387519
-0.0821449
-0.0737296
0.00552283
-0.0695326
0.019503
0.0500296
0.0106231
0.0494632
-0.0600863
0.0849073
0.0501183
-0.107348
0.040776
-0.0200006
0.0710207
0.101243
-0.0480041
-0.0532392
-0.138566
0.0954926
0.0430736
0.0588907
-0.0675517
0.008661
-0.00431811
-0.0407481
0.102423
-0.0440788
-0.0583444
-0.0293437
-0.0570625
0.00138209
-0.0133159
0.0119338
-0.0179566
0.0422732
-0.0243166
-0.0284117
0.0369342
0.0279261
-0.0801644
0.0522383
-0.0904589
-0.0206182
0.111077
-0.034716
-0.0229034
-0.0194198
0.00431434
0.0151054
0.0198866
-0.0443855
0.024499
0.0288111
-0.0100142
0.0742177
0.0161235
-0.0903412
-0.0985415
0.0748188
0.0237228
0.11325
0.00250924
-0.11576
-0.015289
0.0392779
-0.0177229
0.0804546
-0.00550617
-0.0203139
0.0402004
0.0553982
-0.0376492
-0.0564795
-0.00558522
0.0620647
-0.134034
0.0434818
0.0905523
0.0842089
-0.0307824
-0.0534264
-0.104819
0.0221924
0.0826261
0.0186051
-0.043474
0.0248689
0.0953861
0.0307433
-0.00795674
0.0455304
0.0630489
-0.0129733
-0.0500755
-0.112087
0.0236665
0.0169011
0.0944915
-0.0182794
0.0470817
-0.0288023
-0.0418738
0.0701804
-0.0283066
0.0739704
-0.104478
0.0305075
-0.112231
0.0392804
0.0729509
-0.0722985
-0.0617356
-0.0425221
-0.0296431
-0.11488
0.0489696
0.0659105
0.0296225
-0.000421805
-0.0292007
-0.082027
0.030189
0.0518379
-0.0855908
-0.0529754
-0.034535
-7.11935e-05
0.000401915
-0.000330722
-0.00181507
-0.00452865
0.00634373
-0.0604689
-0.022307
0.0827759
-0.0378445
0.0489224
-0.0110779
0.112722
-0.0804421
-0.0322799
-0.118313
0.0578442
-0.016566
-0.0665237
0.0830897
0.0395366
-0.00991408
0.0671364
0.00901775
-0.0761541
0.0298348
-0.0638397
0.0340049
0.120045
-0.0586322
-0.0614125
0.0215726
0.0626363
0.0246958
0.0353808
-0.0600766
0.101459
-0.0194379
0.0119379
-0.0110336
-0.000904305
0.0924634
-0.0370486
-0.0554149
0.00272044
0.0561702
0.00152558
-0.0851336
0.0584844
-0.0478613
-0.0913232
0.00540672
0.00982284
-0.00376795
-0.00605489
-0.0186507
0.0845304
0.0562575
0.00679138
0.0297273
-0.0287595
-0.000967813
0.0224816
0.0620965
-0.0160455
-0.0294444
-0.00297046
-0.0132328
0.0162032
-0.0770536
0.00752108
-6.2449e-07
-0.0904583
0.0451153
0.0768622
-0.00977855
-0.0325098
0.0422883
0.0432185
0.066582
0.0635304
-0.0388347
-0.0261441
-0.0196934
0.0458375
0.0690577
0.0333655
-0.0331053
0.00671096
0.0332267
0.0421428
-0.0753695
0.014507
0.0113691
-0.025876
0.0282726
0.0197862
-0.0480588
-0.000257484
0.00022816
2.93235e-05
-0.00023864
-1.88437e-05
0.00275982
0.0091781
-0.00236899
0.0797749
-0.0812815
0.0661929
0.0150886
-0.0225507
-0.0151652
0.0377159
0.0550327
-0.0625228
0.00749014
0.101404
-0.0836727
-0.0177316
0.0322811
0.0329278
0.100963
-0.0263979
-0.0745653
0.123141
-0.0309069
-0.0922337
0.0841981
-0.0817621
-0.0349426
0.025164
-0.0975541
0.051498
0.0460561
0.0119796
0.0584767
-0.0704563
-0.0459166
-0.0301444
0.076061
0.110453
-0.0561054
-0.0543472
-0.0681197
-0.0467604
0.0574212
0.0439831
-0.0533094
0.068722
-0.0154126
0.0849844
-0.0840238
-0.000960605
0.100917
-0.0595249
-0.0413916
0.103121
0.0314314
0.106497
-0.0413857
-0.0651109
0.0814673
-0.00926661
0.0243545
-0.0426339
-0.110012
0.102393
0.00761836
-0.0799401
0.0629902
0.0169499
-0.0528524
0.0745208
0.00299508
-0.117776
0.0531341
-0.0746862
0.0215521
0.0859364
-0.0527097
0.00171174
-0.0730335
0.0713218
-0.0206628
-0.0961042
0.0505667
0.0455376
-0.12518
0.0378128
0.0873676
-0.116161
0.0227725
0.0933887
0.00153772
0.0430497
-0.0445874
0.0471814
-0.0285762
-0.0234083
-0.0362109
0.0596192
-0.077053
-0.00497397
-0.104261
0.0728755
0.0313854
0.0962817
0.00463487
-0.0834638
0.0668979
0.0216891
-0.000820827
0.0103411
-0.0310017
0.0206606
0.105522
-0.0205376
0.068312
-0.00117559
0.0535874
-0.0865974
0.0330101
-0.016346
-0.0364263
-0.0826473
0.00802712
-0.0587636
-0.0225179
0.078986
0.0480802
-0.0666928
0.0248189
-0.0607149
-0.0132687
0.0739836
0.0544131
-0.0119825
0.0668216
-0.000405841
-0.0664157
0.100272
-0.0426894
-0.0575825
-0.0198581
-0.0511769
0.0710349
-0.0211729
0.0951433
0.0523943
0.0468177
-0.099212
-0.0127314
-0.0833729
-0.032253
0.00806632
0.0241867
-0.0097994
0.0111815
-0.0219828
0.0200873
0.112081
-0.0186759
-0.108515
0.0856959
0.0228189
-0.1041
0.0397772
0.064323
-0.0302106
0.0600454
-0.122301
0.00639532
0.0648764
-0.0545184
-0.010358
-0.00785332
-0.0485213
-0.0612099
0.0771562
0.0061796
0.0181417
-0.0243213
0.0106474
0.0260652
-0.0367127
-0.000242953
-0.0239973
0.0242403
0.0125901
0.00409066
-0.0166807
-0.0645204
-0.00232423
0.0668447
-0.0735373
0.00901688
-0.0185759
-0.00775206
0.0263279
-0.0830756
0.0837533
0.123325
-0.123572
0.00024687
0.0165306
0.0228806
-0.0394112
-0.0333857
0.0109096
0.0224761
0.0529772
0.0703479
0.0829648
0.0173071
-0.00765979
0.00658199
0.0010778
0.0302547
0.08979
0.000374042
-0.000445235
-0.01697
-0.015283
-0.0122712
-0.0366737
0.048945
0.0798255
0.0266711
0.0491889
-0.0816802
0.0324913
-0.0277827
-0.00810791
0.0358906
0.0064087
-0.0341914
-0.0305746
-0.0132102
0.0437848
0.0180678
0.00605219
-0.02412
-0.000471125
0.000346919
0.000124206
0.124066
-0.0421074
-0.0819585
0.0683796
0.0556862
0.0781632
-0.0805466
0.00238333
-0.0321254
-0.00849082
0.0406162
0.107393
-0.0522124
-0.0551801
-0.0571967
-0.0679837
0.0876315
-0.0969365
0.009305
0.0370451
-0.0205145
-0.0125933
0.0675491
-0.0549558
0.00515305
0.0479811
0.102517
-0.0072857
-0.0952315
0.0224512
0.080066
0.00206963
-0.0585491
-0.0390693
0.0165187
-0.0294214
0.0309845
-0.00156308
-0.0352013
-1.34638e-05
0.0352148
0.00582669
-0.0753578
0.0695311
-0.0252589
0.0880036
-0.0627448
0.0292746
0.024086
-0.0533606
-0.0275128
0.000640009
-0.0843537
-0.0132004
-0.099256
0.0656199
0.0336361
-0.0452889
-0.0219504
0.0672393
-0.0163697
0.0133595
0.00301013
-0.0809482
0.0556894
0.00462349
0.0251038
-0.00736468
-0.0278366
-0.00415241
0.00452043
-0.000368017
0.0519795
-0.0213752
-0.0306044
0.0214146
-0.0758738
0.0544592
-0.0241997
0.0232531
0.000946582
0.0705717
-0.0357676
-0.0348041
0.00431827
-0.0901655
0.106414
-0.0236332
-0.0827806
0.111329
-0.0933573
-0.0179715
0.0694167
-0.00259515
0.0671381
-0.0898033
0.0226652
-0.040916
-0.0449614
0.0858774
0.0927203
-0.0255822
-0.0720913
0.0522332
0.0476086
-0.0681197
0.0205111
0.0310501
0.0432594
-0.0743095
0.0532096
-0.0516718
-0.0998881
0.0907315
0.00915669
0.0559967
-0.0668437
0.010847
-0.0156941
0.0260352
0.0794564
-0.110567
0.0311111
0.0630482
0.00210258
-0.0651508
0.0832268
-0.0805268
-0.00269999
0.089627
0.0113362
0.0645523
0.0117329
-0.0762852
0.00970133
-0.0428524
0.033151
0.0991544
-0.0215724
-0.0775819
0.0328295
-0.0562378
0.0270828
0.0434889
0.0538594
-0.0947754
-0.0582131
0.0276385
-0.0714202
0.00808723
0.063333
0.015009
0.00358628
-0.0185953
0.00798472
-0.0327439
0.0247592
0.024093
-0.0179134
0.066094
0.0227418
-0.0888358
-0.0042362
0.0691126
-0.00824837
0.00643329
-0.0238705
-0.00231715
0.0261876
0.0619323
0.00262001
-0.0229991
0.0753934
0.0738887
-0.0428386
0.00264179
0.0133668
-0.0160086
-0.0939405
0.00983943
0.0841011
-0.126802
0.113869
0.0129331
-0.02489
0.00631419
0.00831435
-0.0321848
-0.0873953
0.0266805
0.0202962
-0.0655851
0.0448078
0.00482714
-0.0379959
0.0890559
-0.0510601
0.0153586
0.0640978
-0.0137634
0.0687961
-0.0113096
0.064897
0.00339689
-0.00146654
-0.00193035
0.065856
-0.0835554
0.0176995
-0.0516394
0.0795655
0.0300515
0.0191655
-0.0492169
-0.0724327
0.0741445
0.0335513
0.0728626
-0.0587623
-0.010838
0.0666693
-0.0546898
0.0489155
-0.0594138
0.0104983
-0.00569542
-0.0321491
0.0578996
0.0290096
-0.0869092
0.0693944
0.0101147
-0.0795091
0.0502273
0.0017522
0.0431104
-0.089027
0.0988648
-0.0386981
-0.0601667
0.0144707
0.0731608
0.0533522
0.0598981
-0.0837179
0.0122977
-0.0702737
0.00444915
0.0658246
-0.0117389
0.0443436
-0.0326048
-0.026649
-0.0373195
0.0639686
0.13227
-0.0797134
-0.0525566
-0.037731
-0.0670876
-0.0881734
0.092058
-0.00388464
-0.0305092
-0.085652
0.0219378
-0.00934775
0.000541303
-0.000438934
-0.000102369
-0.0701031
0.0575098
0.0508182
-0.00445443
-0.0164129
-0.0500437
0.0664566
0.00646358
0.00335926
-0.020561
-0.0252599
0.0458208
-0.0934
-0.0107001
0.0541136
0.0586084
0.049282
0.082988
0.0912147
-0.0341333
-0.0570814
0.0498764
-0.0575802
0.00770379
-0.030992
-0.048948
-0.0341183
0.0920179
0.0439309
-0.0342296
-0.0883209
-0.00429491
0.0926158
-0.121408
0.0945133
0.0268946
-0.0886539
0.0142215
0.0744324
0.113048
-0.00259568
0.116875
-0.0612935
-0.0555811
-0.0343461
-0.0348671
0.0692131
0.0968588
0.0200159
0.00601214
-0.0943331
-0.00309001
-0.0502194
0.12687
-0.0675191
-0.0593505
-0.0892576
-0.0127854
0.102043
0.141285
-0.048258
-0.0930268
0.0254169
0.0125531
-0.0379699
0.112348
-0.108578
-0.00377016
0.104028
-0.0346335
0.0214669
-0.00917137
0.0226003
-0.0134289
0.0138842
0.0405813
-0.0544654
0.0440674
0.0672614
-0.000767326
0.0102508
-0.00948342
-0.0731235
0.0821735
-0.00905
0.0444312
-0.117555
0.10443
-0.0132149
0.0164407
-0.0137989
-0.0154114
-0.037559
0.0529704
0.0904813
-0.0266957
-0.0637856
-0.0193093
-0.0420486
0.0613579
0.0636488
0.0594918
-0.0905144
0.0855864
0.00492804
-0.0264111
-0.0220039
0.048415
-0.000229435
0.0261038
-0.0258744
-0.0931537
-0.0190813
0.112235
-0.018954
-0.000465786
-0.0971057
0.00893235
0.110259
-0.0806475
-0.029612
-0.0944315
0.0564356
0.0195428
0.0586204
-0.00192544
0.0161009
-0.0141754
-0.0191897
0.0162192
-0.122397
0.0581545
0.0642426
0.0607815
-0.0275054
-0.0332761
-0.0277667
0.0776619
-0.0498953
0.00655593
-0.0120331
0.00547718
-0.0986636
0.0866489
0.0120147
0.122924
-0.0128849
-0.110039
0.111188
-0.0450943
0.08494
0.0379844
-0.00513443
0.0116904
0.0381619
-0.0271863
-0.0109755
-0.0706071
0.017997
0.0526102
-0.0585491
-0.0662365
-0.00437065
0.0380477
-0.0519099
0.0138622
0.0635154
-0.00751876
-0.0169648
-0.0623671
0.0793318
0.0290575
0.00910434
-0.0837807
0.00329657
0.0804842
0.0384975
0.0346214
-0.073119
0.0212501
-0.0479781
0.0267279
-0.0586939
-0.062714
-0.0360039
-0.0725109
0.0255152
0.0128274
-0.0383426
0.057821
0.0948655
0.0362284
-0.0282436
0.00253949
-0.000933201
-0.00160629
-0.0968067
0.106021
-0.00921409
0.0707477
-0.0939441
0.0231964
-0.0626289
0.0282828
-0.0071934
-0.000466383
0.0208277
-0.111342
-0.0805017
0.076989
0.00351267
1.68852e-05
0.000211275
-0.0826705
0.0662576
-7.2804e-05
-0.000165836
0.0649541
-0.0177823
-0.0471717
0.0309107
-0.0426496
-0.0699701
-0.000969971
0.0709401
-0.00411923
-0.0263133
0.0304325
0.11161
-0.0298985
-0.081711
-0.0583307
0.0996907
-0.04136
0.0729926
-0.00960294
-0.0633896
-0.0642638
-0.00600993
0.0968359
-0.0446376
-0.0296391
0.00543946
-0.013551
-0.0863372
-0.0463866
-0.0804159
-0.0657508
0.0290379
0.0367129
-0.0197627
0.0826468
-0.0628841
-0.013731
0.0618519
-0.048121
-0.0124496
-0.0807042
-0.0428584
0.0484444
-0.00558594
0.000667506
0.0373802
-0.0825535
-0.00704757
0.0896011
0.000267947
0.0558567
-0.0561246
0.0850205
-0.0120279
0.0255686
-0.0591478
0.0335792
-0.0160356
0.126295
0.0687525
-0.0431839
0.0900323
0.0173603
0.0119144
0.0713124
0.0755147
-0.0915397
0.016025
0.0186995
-0.0724938
0.0537943
-0.0482891
0.0883264
-0.0400373
0.0604865
0.0407567
-0.0347548
-0.0458678
0.0806226
-0.014984
-0.0406522
0.0556361
-0.00141257
0.050328
-0.00239582
-0.0480128
0.0504086
0.0917857
0.000677749
-0.0501901
0.023779
0.064106
0.016686
-0.080792
0.0924726
-0.0223231
-0.0701495
0.0385069
-0.0340383
-0.00446867
-0.140762
0.0474342
0.0933279
0.00736153
-0.0590939
0.0517324
-0.0526355
-0.00535278
0.0579882
0.0114466
-0.0767712
0.0653246
-0.0897291
0.0376639
0.0520652
0.0136817
0.0069263
-0.0206079
-0.112635
0.0288541
0.0927512
0.0904325
-0.0397857
-0.0506468
0.0446201
-0.059604
0.0245607
-0.0467869
-0.00830545
0.0550924
-0.09285
0.0712686
0.0215814
-0.0408611
-0.0691506
-0.0638027
0.0752493
-0.01628
-0.0729776
-0.0132229
0.0386397
0.106789
-0.0582768
-0.0485125
-0.0821307
0.0474222
0.0347084
-0.0220927
0.0712816
-0.0554675
0.0431962
-0.00656555
-0.0098041
9.73936e-07
0.000139162
-0.000140136
0.0927506
-0.0640781
-0.0286725
-0.00299645
-0.000746382
0.00374283
0.0759437
-0.0180407
-0.057903
-0.0976633
-0.0247339
0.116107
-0.0623251
-0.0537817
0.104512
-0.0285687
0.0998621
-0.0966265
-0.00323565
0.0583917
-0.0781544
-0.115773
0.0664279
0.0493452
0.033565
0.0662971
-0.0985694
0.0823628
0.0162067
-0.0282098
-0.0522919
-0.028037
0.0299717
-0.00193469
-0.0263917
0.0331919
-0.00680026
-0.0154615
0.0145276
0.000933905
-0.001381
-0.0406225
0.0420035
0.0016238
0.000915687
-0.0438941
-0.045835
-1.73047e-05
0.000558608
-0.0545961
0.0919075
-0.0373113
0.0384898
-0.0777411
0.0392513
-0.0447603
0.0402096
0.00455068
-0.0398334
0.0783232
-0.0192454
0.0899931
-0.0732878
0.0324511
0.0408367
-0.0426834
0.0573283
-0.014645
-0.070491
0.0383656
0.0687187
-0.0155417
-0.053177
0.03952
0.017905
-0.057425
-0.0413784
0.0399974
0.11591
-0.0167557
0.0430249
-0.0137202
-0.0293047
0.0716877
0.00520914
-0.0768968
-0.0612567
-0.0292648
0.0905215
-0.0598675
0.0130806
0.0298826
-0.0340018
-0.0683463
-0.0724159
0.0230615
-0.0713506
-0.0725206
0.0566696
0.015851
-0.0219381
0.0431882
0.0961422
-0.0591753
-0.0369669
-5.78432e-05
0.0209704
-0.0209126
0.0971014
-0.0467013
-0.0504001
0.111319
-0.040116
-0.071203
0.0394586
0.0284913
-0.0679499
-0.0219999
-0.0227604
0.00993981
0.000713044
-0.0106529
0.0934627
0.0191319
0.0703593
-0.0894912
0.00504044
-0.0596366
-0.0220653
0.0779138
-0.0558485
-0.0136026
0.0418752
0.104026
-0.0232868
-0.0807389
-0.058267
0.0403104
-0.0695908
-0.00212348
0.0717143
0.0594575
-0.0942123
-0.0390338
0.0375836
0.00145016
-0.0406591
0.0545433
-0.0254591
-0.0552044
0.0806636
-0.0905658
0.0722943
0.0182714
0.0450192
0.0295886
-0.0746078
0.0464131
0.00712225
-0.0535354
-0.0343235
0.00793185
0.0340851
0.00893975
0.0108031
-0.0199744
-0.0586011
0.0311802
0.0274209
0.0802103
-0.00638655
-0.0738237
0.0384712
-0.0239642
-0.0654874
0.0728489
-0.0793639
0.124769
-0.0454055
0.00165365
-0.0445121
0.00929454
-0.0886585
-0.0993551
0.0380984
0.0448461
-0.00399787
-0.0408482
-0.0985694
-0.0867246
0.0697598
-0.000493969
-0.00118517
0.00167914
0.050938
-0.0763971
0.0492599
-0.0192084
-0.0097488
-0.0481794
0.0579282
0.0540418
-0.0761071
-0.0660825
0.0587023
0.00738016
-0.0616483
0.067475
-0.030369
0.0571251
-0.0267562
-0.0452935
-0.0133076
0.0865611
-0.0651465
-0.0542123
-0.0211483
0.0753606
0.046336
0.0601915
-0.106528
-0.0877231
0.0519658
0.0357573
0.0294085
0.0458148
-0.0752232
-0.0382588
-0.0585479
0.0541697
0.00283611
-0.0570058
0.031711
0.080637
0.0815844
-0.0420644
-0.0342742
-0.0314766
0.00560625
0.0133313
-0.0189376
0.00669333
-0.0878089
0.0811156
-0.0410746
0.000403852
0.0406707
0.0881433
-0.0909538
0.0028105
0.00398445
0.0289497
-0.0329342
0.014245
-0.0161704
0.0357275
-0.0887844
0.0530568
0.0518652
0.0255711
-0.0774363
-0.0277058
-0.0880672
-0.00337366
0.0170553
0.0671375
-0.0844908
0.0173534
-0.090525
-0.000258288
0.0907833
0.0368851
0.0390302
-0.0759152
-0.0515301
0.049772
0.0017581
-0.0145402
-0.0741137
0.00750888
-0.0087816
0.00127273
0.0563356
-0.00992246
0.024112
-0.0181908
-0.00592124
0.0828214
-0.0197732
0.0205115
-0.0659666
0.0454551
-0.068175
0.0155396
0.0984297
-0.0348777
-0.063552
-0.0253283
0.0647869
-0.0554678
0.103124
-0.0476558
0.103524
0.00778786
-0.111312
-0.065123
-0.00934032
0.0744634
0.00934582
-0.0818665
0.100985
-0.0700637
-0.0309211
-0.0387174
0.0564739
-0.0177566
0.0985761
-0.0467109
-0.0591879
0.0783198
0.0362105
-0.0364535
0.013905
-0.0823655
0.0684605
-0.0909195
0.0257964
0.0189234
-0.0191528
0.0726771
-0.00395843
0.0653442
-0.0350313
-0.0303129
-0.0273356
0.0157933
0.0115423
0.00918346
-0.00995078
-0.0282762
-0.0542773
0.0949394
-0.0698419
-0.0250975
0.0108011
-0.0722819
0.0614809
-0.113473
0.0316453
0.0818274
0.0189046
0.0846192
0.0813819
-0.0142444
0.0193657
0.0527833
-0.072149
-0.129822
0.060187
0.0696352
-0.0961637
-0.0336585
-0.0421967
0.0700264
-0.0278297
0.00601096
-0.00623938
0.000228418
-0.0754281
-0.0180634
0.0934915
-0.00557302
-0.065634
0.071207
0.037582
-0.0269345
0.00534945
-0.0392137
0.0338642
0.0391222
-0.0391801
-0.119291
0.00581802
0.0914346
-0.0727351
0.011866
-0.0204886
0.00862263
0.0851201
-0.00478783
-0.0803323
0.0401427
-0.0882894
0.0481467
-0.0349642
0.0820916
-0.0471274
-0.125766
0.0532988
0.0724674
0.0373061
-0.0319566
0.0422227
-0.117651
0.0350272
-0.0665064
0.0314792
-0.102084
0.0645488
0.0375349
0.0556883
-0.0415017
-0.0141866
0.10475
-0.0522418
-0.0525078
0.000176029
-0.070928
0.0707519
-0.0268985
-0.00648716
0.090897
0.0131287
0.0306683
-0.062881
0.0322127
0.0846616
-0.044519
-0.0304953
-0.0563666
0.0868619
-0.0381489
0.00549053
0.0326584
-0.0711372
-0.054629
0.0755788
0.0205634
0.00548317
0.00114095
-0.00662412
-0.0762033
0.0870043
-0.0643293
0.0220613
0.042268
-0.0743053
0.0481612
0.00619931
0.0573267
-0.063526
-0.0412144
-0.0440674
0.0852818
-0.0368291
0.0392311
-0.002402
0.00637935
0.081764
-0.0525878
-0.0295429
-0.0598189
0.039258
-0.0424355
-0.0562281
-0.0647997
0.00401219
0.0607875
0.0145719
0.0781786
0.0356881
0.0567844
0.0288259
-0.083245
0.0544191
0.0617618
0.0429878
-0.0139143
-0.0462649
0.0601792
-0.080127
0.0312855
0.0488415
-0.0966088
0.0178804
0.0787284
-0.0940078
0.0190334
0.0749744
-0.0415916
-0.0521061
0.0936977
-0.00640132
0.00224891
-0.00691948
-0.0296383
-0.0783441
0.054341
0.0240031
-0.00229903
0.0564687
0.114039
-0.102867
-0.0111721
-0.0465554
0.0753813
0.0343598
-0.0162921
-0.00499052
0.0317625
-0.0267719
-0.0311478
0.0980995
-0.0669517
0.00186369
-0.00235766
0.0611386
-0.0696296
0.008491
-0.10346
0.0706145
0.0328455
-0.0732473
-0.0234788
0.0967261
0.0101109
-0.0488283
-0.0687615
-0.00958263
0.0450754
-0.0762232
-0.000112714
-0.000358411
-0.00703318
0.0403395
-0.0333063
0.0971912
-0.0677827
-0.0599106
-0.0421731
0.0692789
-0.0933327
0.0240538
0.00159944
-0.00263198
0.00103255
-0.0499259
-0.0377973
-0.0183572
-0.0264788
0.044836
0.0468317
-0.0941632
0.0473315
-0.0313792
0.0664064
-0.0720614
0.0782607
-0.023588
-0.00374763
-0.0410488
0.0878805
-0.0773324
0.0125327
0.0833257
-0.0746724
-0.00865332
-0.0466881
0.031287
0.0154011
-0.0816797
0.0955847
-0.00789599
0.0637039
-0.0558079
0.0946323
0.0166867
0.0152718
-0.005332
-0.0440968
0.0794751
-0.0353784
0.0993112
-0.0344521
-0.0648591
0.0459591
0.00972915
0.011513
0.0534411
-0.0409986
-0.0624613
0.0200927
-0.09334
-0.0505963
0.0322391
0.0362738
0.107187
-0.0100857
-0.00938318
0.0575577
-0.0481745
0.0704759
-0.0440041
-0.0264718
0.000869447
-0.0435528
0.00495077
0.00976045
-0.0147112
0.00444766
-0.00375154
-0.000696119
-0.0666212
0.0642254
0.0517395
-0.0596355
-0.0477944
-0.0507471
0.00863268
0.0195262
-0.0281589
0.0567869
-0.0261186
-0.0877682
0.0721902
0.015578
-0.103735
0.0687707
-0.0216577
-0.0548374
0.076495
-0.059198
-0.0450629
-0.0903953
0.00310582
0.0872894
0.0909408
0.00837049
-0.0517083
0.0584016
-0.0361629
0.00519515
0.0309678
-0.11509
0.0677643
0.0473255
0.113521
-0.0380807
-0.0754403
-0.0576086
0.016534
0.0760523
-0.0760523
0.0634681
-0.0939634
0.0321795
-0.0171705
-0.0457327
0.0345464
0.0111863
-0.0787043
0.0789723
0.00517144
-0.0747622
-0.00763959
0.0133088
-0.00566921
-0.0891016
0.0697923
0.00268871
0.000708178
0.0783633
-0.012439
-0.0659243
0.0884403
0.00998938
0.0687645
-0.0147386
-0.054026
-0.0939326
0.0384648
-0.0845151
0.035056
0.0494591
-0.0170138
-0.028719
0.071013
-0.11217
0.0411568
-0.00864566
-0.0564148
0.0650604
0.0869776
-0.0777536
-0.00922398
0.0994422
-0.0943601
-0.00508203
-0.0262096
-0.00238566
0.0285952
0.0631814
-0.073808
0.0106266
0.0152601
-0.0573094
0.0420492
0.0483385
0.0651825
-0.000241745
0.0062527
-0.0253655
0.0027951
0.0225704
0.0849692
-0.0386332
-0.0884517
0.0892882
-0.000836495
0.0640272
-0.10831
0.0442828
0.076117
0.0335597
-0.109677
0.00760717
0.0761991
-0.0838063
-0.10525
0.0835925
0.0921384
-0.0337237
-0.0584147
0.0931963
-0.0241746
-0.0690217
-0.0636547
-0.0269987
0.0906534
0.0326155
0.0591941
-0.0918096
-0.00516606
-0.0708405
0.0760065
0.0863252
0.00205547
-0.0883807
0.130786
-0.0513668
-0.0794191
-0.0599303
0.100773
-0.0408423
-0.130474
0.0730765
0.0573977
-0.102924
0.0265655
0.076359
0.081029
-0.0788307
-0.00219833
-0.067233
0.06166
0.0231217
-0.0774849
0.0543632
-0.0056154
0.0766284
0.000150546
-0.0251038
0.0249532
-0.0351423
0.111259
0.0389978
0.0355925
-0.0745903
-0.0855324
-0.0163912
0.101924
0.0418827
0.0188988
0.0833373
-0.0646847
-0.0186526
0.131681
-0.0280384
-0.103642
-0.0675624
0.0341679
0.0333946
0.0470505
-0.0466194
-0.000431151
0.103506
-0.0325249
-0.0709814
-0.0293088
0.100993
-0.0716839
-0.0337722
-0.0500544
0.0838266
0.0776987
-0.0336971
0.0171608
0.00990889
-0.0270697
0.00605625
0.00387959
-0.00993585
0.0466921
0.000319495
-0.0873073
0.0174279
0.0698794
0.0680832
-0.0944634
0.0263802
0.0452288
-0.000648962
-0.0445799
-0.0260816
0.043131
-0.0170494
0.0930767
0.00790814
0.0805062
-0.0447787
0.0986845
-0.0497775
-0.048907
-0.0158043
-0.0235366
0.0393409
0.114166
-0.058778
-0.0553879
0.0143221
0.0675005
-0.0818226
0.0353062
0.0295089
-0.0648151
-0.124835
0.0519152
0.0729199
0.0612885
0.0299852
-0.0912737
-0.0941794
0.0379958
0.0561836
-0.00364725
0.00364725
-0.011305
0.114811
0.000597519
-0.000486423
-0.000111097
0.0280415
0.0572235
-0.085265
0.0599465
-0.0323509
-0.0275956
-0.0904764
0.0365039
0.0539725
-0.0530961
-0.0464982
0.0995943
-0.0518689
0.0547369
-0.00286799
-0.00635748
-0.0618501
0.0682076
0.0142548
0.0664473
-0.0807021
-0.0510598
0.0589205
-0.00786068
0.00460845
0.0227234
-0.0273319
-0.0514727
0.0901268
-0.0386541
0.00919643
-0.0338611
-0.111815
0.0488499
0.0629655
-0.00563242
0.0788822
-0.0732498
0.101925
0.00115792
-0.103083
0.000105569
-0.00286598
0.00276041
0.0182465
0.0459793
-0.0642257
0.048924
-0.0575697
-0.0221851
0.091464
0.02924
-0.0528927
0.0236527
-0.0508414
-0.0167211
-0.0289087
-0.0533107
0.0822194
0.0882265
-0.071794
-0.0164325
0.0265076
-0.0439974
0.0174898
0.0607512
0.0411736
0.0384025
0.0494447
-0.0878472
-0.103914
0.0288821
0.0750324
-0.0498907
-0.0528966
0.102787
-0.0203767
0.0632325
-0.0428558
-0.000476495
0.0528268
-0.0523503
0.0966583
-0.0507573
-0.045901
0.0235082
-0.0734949
0.0499867
0.112683
-0.0533622
-0.0593213
0.0800352
-0.0168538
0.083641
-0.0328284
-0.0508126
-0.110255
0.0439687
0.0662865
0.0525096
-0.102219
0.0497091
-0.0188747
0.00281501
0.0160597
0.0831274
-0.00476413
-0.0106965
-0.0249516
0.0356481
0.0768417
-0.0995902
0.0227485
0.0592121
0.0245815
-0.0837935
-0.0101278
0.0277964
-0.0176686
0.0106845
-0.052194
0.0415095
-0.133849
0.0783439
0.0555052
0.0724534
-0.0945801
0.0221266
0.066333
-0.0243497
-0.0419833
0.0481899
-0.0193993
-0.0287906
-0.0565964
0.00366599
0.0529304
-0.0909436
0.0772948
0.0136488
-0.106872
0.0403487
-0.0831492
0.0512442
0.031905
-0.0503356
0.0551359
-0.00480026
0.0188721
0.00779671
-0.0266688
0.000243453
0.0459959
-0.0462393
0.129277
-0.0748644
-0.0544125
0.0680353
-0.0530829
-0.0149524
-0.0149741
-0.00544665
0.0204207
-0.00734616
0.098915
-0.0915688
-0.0690483
0.0310902
0.0379581
-0.0266626
-0.0433309
0.0699935
-0.075466
-0.017908
0.093374
-0.0343672
0.00494578
0.0773315
-0.10019
0.0228581
0.093154
-0.0644145
-0.0287394
-0.082066
0.088449
-0.00638296
-0.126209
0.0643887
0.0618205
0.0128303
-0.0129514
0.000121058
0.0303301
-0.0246358
-0.00569431
0.0596456
-0.0734877
0.0138421
0.0975371
-0.0790219
-0.0185152
-0.0087552
-0.0553186
0.0640738
0.0686151
0.0313849
0.0309563
0.00369865
-0.034655
0.0216632
0.0626821
-0.0843453
0.0373626
-0.0311525
-0.00621009
0.0394326
0.00244263
-0.0418753
0.0859641
0.0267194
0.107785
-0.113708
0.00592342
-0.0710957
-0.000615114
0.0717108
0.104958
-0.00964616
-0.0953118
-0.0468797
0.0137065
0.0331732
0.0148125
0.0929722
0.0566826
0.00473643
-0.061419
0.10233
0.00548553
-0.107816
0.0799004
0.0141855
-0.0940859
0.047909
0.0244541
-0.0723631
0.0400868
0.0282406
-0.0683275
0.00546468
0.0968657
0.0873053
-0.00185041
-0.0854549
0.0966546
0.00830339
-0.0738332
0.0291059
0.0447273
0.042105
-0.0455942
0.00348926
-0.0374779
0.0341114
0.00336652
0.0646131
-0.0355533
-0.0290598
-0.00858023
-0.0015137
0.0100939
0.0429365
0.0224077
-0.0600736
0.0401361
0.0199374
-0.036011
0.069817
-0.033806
0.0264972
0.0143323
-0.0408294
-0.104919
0.106235
-0.00131601
-0.0521467
0.0191628
0.0329839
-0.0156237
-0.0626883
0.078312
0.0381254
-0.0634171
0.0252917
0.0391222
-0.0342428
-0.00487938
0.0985907
-0.107148
0.0085576
0.0216005
-0.0225916
0.000991023
-0.0164609
-0.063849
0.0803099
0.0403501
-0.083766
0.0434159
0.0398399
-0.0178292
-0.0220108
0.0319828
-0.0458971
0.0568432
-0.0885939
0.0317507
0.118107
-0.0181962
-0.0999111
-0.109162