/*--------------------------------*- C++ -*----------------------------------*\
  =========                 |
  \\      /  F ield         | OpenFOAM: The Open Source CFD Toolbox
   \\    /   O peration     | Website:  https://openfoam.org
    \\  /    A nd           | Version:  9
     \\/     M anipulation  |
\*---------------------------------------------------------------------------*/
FoamFile
{
    format      ascii;
    class       volVectorField;
    location    "70";
    object      U;
}
// * * * * * * * * * * * * * * * * * * * * * * * * * * * * * * * * * * * * * //

dimensions      [0 1 -1 0 0 0 0];

internalField   nonuniform List<vector> 
112055
(
(0.47822 0.0167059 0)
(0.503624 -0.00489801 0)
(0.527233 -0.000879417 -2.72412e-20)
(0.535651 -0.00730507 8.22048e-21)
(0.512758 -0.0110967 -3.14533e-21)
(0.499729 0.00474995 0)
(0.479454 0.0160539 -6.42208e-20)
(0.535142 -0.00719822 0)
(0.518006 -0.000201356 -1.91028e-20)
(0.47977 -0.00284148 3.48981e-21)
(0.503605 -0.0049944 1.1957e-20)
(0.481075 0.0202485 -4.30103e-20)
(0.517403 -0.000780326 9.27402e-21)
(0.481105 0.0198642 4.10691e-20)
(0.458282 -0.00648504 -2.62248e-20)
(0.510229 -0.00490129 9.32106e-22)
(0.39723 -0.0283791 6.72089e-20)
(0.468227 -0.0488519 -2.35885e-21)
(0.50423 -0.00711612 0)
(0.51963 0.00655532 -1.24958e-20)
(0.511128 0.00658986 5.82791e-21)
(0.510654 0.00832257 0)
(0.504238 -0.00721989 -6.90485e-21)
(0.514945 -0.0111893 2.50113e-21)
(0.488308 -0.00150348 0)
(0.522317 -0.0122484 1.49966e-20)
(0.429059 0.0255864 -2.00074e-20)
(0.500562 0.00196851 0)
(0.499782 0.00469066 0)
(0.511207 0.00665288 -5.992e-21)
(0.499991 -1.92527e-05 -3.88068e-20)
(0.547211 0.0246667 0)
(0.511294 0.00429266 0)
(0.0748891 -0.00402849 -3.2028e-20)
(0.518076 -0.000188465 1.77257e-20)
(0.508853 0.00305728 -1.94539e-21)
(0.519764 0.00647102 0)
(0.353417 0.118988 1.62654e-20)
(0.537486 -0.0167588 0)
(0.502175 -0.00726541 1.80966e-22)
(0.510704 0.00237351 6.52602e-21)
(0.535688 -0.0165746 1.34994e-20)
(0.512381 -0.00539448 -5.88661e-22)
(0.526979 -0.00088897 4.57143e-20)
(0.467136 -0.0490877 0)
(0.516824 -0.00858083 0)
(0.0807466 -0.00480664 0)
(0.462314 -0.0112035 0)
(0.517511 -0.0138333 -1.34572e-20)
(0.535226 -0.0167913 2.78218e-21)
(0.534476 -0.00667224 2.3317e-20)
(0.537493 0.110438 0)
(0.511465 0.00778659 -3.00748e-21)
(0.537051 -0.0161668 3.64244e-20)
(0.520479 0.00153851 2.84211e-20)
(0.479171 0.016537 3.15132e-20)
(0.374839 0.0080002 1.54283e-22)
(0.340604 -0.0269127 0)
(0.533115 0.0710193 0)
(0.51686 -0.00844199 4.15968e-21)
(0.486627 -0.00928031 2.22467e-20)
(0.466158 -0.0116852 1.84439e-21)
(0.506933 0.00781621 -1.62786e-22)
(0.507054 0.00773619 1.71714e-22)
(0.494112 -0.00130066 0)
(0.519313 -0.000315014 -2.02957e-20)
(0.347659 0.119861 0)
(0.507776 0.00813775 0)
(0.508972 0.0151509 4.56738e-22)
(0.518453 -0.00739725 -1.49479e-20)
(0.337373 -0.0266543 -9.15844e-22)
(-0.0710985 -0.00654634 1.01847e-23)
(0.514741 -0.0111919 0)
(0.437905 0.00662815 7.36458e-20)
(0.583352 -0.00136887 -1.23318e-19)
(0.252786 -0.20172 -7.58106e-21)
(0.50293 0.000749354 -1.94148e-21)
(0.478504 0.0164091 -3.32852e-20)
(0.541703 0.050082 -2.40883e-20)
(0.536506 -0.0161954 -4.7897e-20)
(0.507603 0.0050621 4.53064e-22)
(0.216856 -0.187019 -7.73965e-21)
(0.534281 -0.00674173 0)
(0.522286 -0.0126354 1.54253e-20)
(0.510258 -0.0049733 2.75649e-21)
(0.507883 -0.00111997 2.99623e-21)
(0.524838 -0.0372424 -1.76014e-20)
(0.520379 0.00146006 2.98122e-20)
(-0.0114771 0.0373743 1.02599e-19)
(0.520213 0.00160082 0)
(0.507735 0.00494901 -1.23432e-21)
(0.508922 0.00305726 2.01394e-21)
(0.525422 -0.0371748 0)
(0.513792 -0.0104713 5.94949e-21)
(0.585891 -0.00251036 0)
(0.503022 0.000840931 3.09638e-21)
(0.546711 0.0118971 -1.13797e-19)
(0.458948 -0.00646411 4.46703e-20)
(0.499989 -2.48359e-05 1.78543e-20)
(0.375594 0.00810797 0)
(0.517333 -0.000793618 8.51858e-21)
(0.507257 0.00188256 5.74713e-24)
(0.511873 -0.00491822 3.09493e-21)
(0.502568 -0.0059426 -2.45661e-20)
(0.580346 0.0130109 0)
(0.31002 -0.0209894 -2.62889e-20)
(0.494142 -0.0014128 0)
(0.509178 -0.00658623 0)
(0.504499 0.000909259 -7.84998e-22)
(0.507913 -0.000902699 0)
(-0.0717585 -0.00698369 6.20308e-20)
(0.5552 -0.00492633 -2.27844e-20)
(0.519628 0.000629187 0)
(0.502022 0.0241633 1.21245e-20)
(0.508927 0.0150143 0)
(0.47326 0.00935369 6.30735e-20)
(0.492513 0.0217865 0)
(0.510373 -0.00427855 0)
(-0.0084788 0.039688 -1.24821e-19)
(0.518488 -0.00100963 -1.09785e-20)
(0.500616 -0.00285598 7.29079e-21)
(0.500567 0.00201281 0)
(0.479905 -0.00257049 0)
(0.507309 -0.00660152 -4.87051e-22)
(0.510685 0.00243394 -1.2437e-20)
(0.502686 -0.00596857 7.9886e-21)
(0.474692 0.037498 -5.9025e-20)
(0.512687 -0.006186 1.21725e-21)
(0.523728 0.00492371 -1.74721e-20)
(0.58163 0.0136385 0)
(0.507223 -0.0065597 6.99739e-23)
(0.429633 0.0269333 -7.2088e-20)
(0.507496 -0.00682587 -4.85997e-22)
(0.401019 0.0188383 8.41525e-20)
(0.538093 -0.0167297 1.41112e-20)
(0.502428 -0.00736206 0)
(0.512675 -0.0055007 2.66504e-21)
(0.508893 0.00715404 0)
(0.526919 0.00331628 1.14619e-20)
(0.285726 -0.00181161 -1.29396e-20)
(0.509038 0.00717076 0)
(0.316923 0.0158044 0)
(0.545089 0.014602 -1.4212e-20)
(0.443229 -0.219541 0)
(0.509121 -0.00655288 -1.69325e-22)
(0.52115 0.023244 4.93161e-21)
(0.473402 -0.0378863 8.0664e-21)
(0.507618 0.00793342 0)
(0.510326 -0.00420645 4.34241e-21)
(0.507059 0.00958839 0)
(0.323113 -0.0229679 0)
(0.510649 0.00817848 0)
(0.484756 0.00271703 0)
(0.511321 0.00763747 9.83631e-23)
(0.526752 0.00318404 0)
(0.501506 -0.01366 2.48744e-20)
(0.498336 3.09829e-05 -1.38962e-20)
(0.501883 0.0238142 0)
(0.531851 0.0706821 -1.04231e-20)
(0.52218 0.0421194 1.28742e-20)
(0.519558 0.000613065 2.76252e-23)
(0.469974 -0.000737971 3.6809e-22)
(0.520554 0.00631855 -3.505e-21)
(0.519817 0.00616051 1.15562e-20)
(0.511508 0.000751159 -7.43806e-21)
(0.51377 0.00640717 -3.99761e-21)
(0.497439 0.00373551 -4.49632e-21)
(0.547795 0.0242343 7.4798e-22)
(0.514875 0.00467174 1.1509e-20)
(0.493925 0.00299578 0)
(0.498802 -0.00947917 -5.20759e-20)
(0.501559 -0.0137842 1.40099e-20)
(0.520469 0.00619638 1.24691e-20)
(0.443408 -0.21316 2.61442e-21)
(0.55205 -0.00125218 -1.71058e-20)
(0.518552 -0.00100969 1.62388e-20)
(0.517789 -0.0138001 5.7028e-21)
(0.521837 -0.00293856 2.45605e-20)
(0.524775 0.0190238 2.94178e-20)
(0.512104 -0.0123253 -3.5278e-21)
(0.551437 -0.00101003 8.50405e-20)
(0.513634 -0.006973 -4.49636e-21)
(0.513985 0.00821147 8.14556e-21)
(0.49993 -3.82728e-05 -5.74043e-20)
(0.540969 -0.0195969 -5.34593e-20)
(0.48085 -0.0524709 2.69627e-20)
(0.469812 -0.000689532 -4.32471e-22)
(0.511585 0.000772088 8.74168e-21)
(0.545609 0.0149795 7.70198e-21)
(0.516689 0.0140923 8.88298e-21)
(0.509363 -0.00997022 0)
(0.511236 0.004294 -9.6718e-21)
(0.520071 0.00165158 -1.15882e-20)
(0.500617 -0.00294351 1.32218e-20)
(0.524392 0.000279136 -1.41281e-20)
(0.508235 0.00781719 5.57283e-24)
(0.543584 0.00677181 0)
(0.559182 -0.00420942 -3.0792e-20)
(0.520399 -0.0117188 -3.49194e-21)
(0.498407 4.43611e-05 4.26287e-20)
(0.375276 -0.00285212 -2.71372e-20)
(0.491077 0.00290096 3.44784e-20)
(0.486408 -0.00894708 4.58785e-20)
(0.509924 0.00551652 0)
(0.509348 -0.00938521 -3.79542e-23)
(0.473759 0.00914447 -5.32901e-20)
(0.35804 -0.0753481 0)
(0.495134 0.0189886 2.61776e-20)
(0.417223 -0.0293605 -6.99928e-20)
(0.512028 -0.00500939 0)
(0.51148 -0.00860883 -1.55406e-22)
(0.509356 0.000574434 0)
(0.474154 -0.0381953 -3.26645e-20)
(0.511965 -0.00494088 -4.80967e-23)
(0.546278 0.0117552 6.32679e-20)
(0.494879 0.0191172 1.55618e-21)
(0.498632 -0.00952373 3.2339e-20)
(0.527266 -0.0252574 0)
(0.515682 0.000620636 7.15794e-21)
(0.536319 -0.00635806 0)
(0.506644 -0.00827574 7.69233e-23)
(0.556354 0.0330857 0)
(0.519277 -0.000324363 1.85756e-20)
(0.522643 0.0417671 -1.54522e-20)
(0.581153 -0.0166927 1.53076e-19)
(0.514909 0.00464403 -7.99915e-21)
(0.507198 0.00188243 -6.79541e-22)
(0.496762 0.0215903 -2.07836e-20)
(0.506415 -0.0124943 -5.02614e-21)
(0.511336 -0.00390935 -9.04106e-23)
(0.508688 0.00296818 -2.21057e-21)
(0.515768 0.000634826 -6.3866e-21)
(0.540692 -0.0200326 -3.66274e-20)
(0.501322 0.00102892 -1.00448e-20)
(0.551578 -0.103567 0)
(0.350434 -0.00401203 2.65917e-21)
(0.50818 0.00786504 -4.85186e-23)
(0.508746 0.00297203 0)
(-0.0105235 -0.0159855 8.83888e-21)
(0.254556 0.0511508 5.15695e-20)
(0.508049 -0.00498582 -4.4002e-22)
(0.536245 0.0300746 -3.57086e-20)
(0.519473 -0.0060697 -1.57384e-20)
(0.50771 -0.0049766 -1.66619e-23)
(0.513618 -0.00209851 1.3356e-20)
(0.551843 -0.10214 2.01543e-20)
(0.54192 0.00937987 -3.51513e-20)
(0.537179 -0.00666623 4.55619e-20)
(0.50885 0.00692333 -9.69072e-23)
(0.535946 -0.00657566 1.45602e-20)
(0.517634 0.0169637 0)
(0.513587 -0.00689101 7.15587e-21)
(0.157395 0.00798537 0)
(0.521769 0.00812495 2.28569e-20)
(0.543161 0.00681318 3.46519e-21)
(0.506961 0.00981127 -1.52551e-24)
(0.509394 -0.00985928 3.64797e-21)
(0.523764 0.00484753 3.2364e-20)
(0.0734883 0.00124216 7.90161e-20)
(0.511818 -0.00485958 -6.94582e-21)
(0.581614 -0.0157562 -1.66915e-19)
(0.467799 0.0685754 -4.64174e-21)
(0.513881 0.0063711 9.19984e-21)
(0.480377 -0.051725 -5.07594e-20)
(0.399232 0.0287832 0)
(0.516522 0.0141823 -7.72053e-21)
(0.509654 -0.00930151 -1.27435e-23)
(0.521721 -0.00295615 -1.26497e-20)
(0.488235 -0.0307093 -1.63324e-20)
(0.507782 0.00812239 2.2044e-22)
(0.517624 0.0166424 8.20249e-21)
(0.523445 0.0106869 0)
(0.52018 -0.011752 3.4547e-21)
(0.535858 0.109643 -2.05872e-21)
(0.51953 -0.00692702 -2.99154e-23)
(0.225515 0.00643675 2.13638e-20)
(0.568379 0.00846502 5.05499e-20)
(-0.00380763 -0.00905265 0)
(-0.0034976 -0.00872217 -9.2148e-21)
(0.145537 0.00979689 4.29717e-20)
(0.504443 0.00101208 -2.33224e-22)
(0.504708 0.0108628 -7.33134e-21)
(0.489076 -0.0413063 3.95886e-20)
(0.499415 0.00568124 0)
(0.500341 0.00108983 0)
(0.525027 0.0189917 -3.31268e-20)
(0.500206 -0.000344137 1.03019e-20)
(0.509232 -0.00173964 -7.99617e-21)
(0.51261 -0.0061592 1.50126e-22)
(0.487573 -0.030676 -3.88284e-20)
(0.530079 0.0181667 9.96777e-21)
(0.504054 0.00848786 0)
(0.500842 -0.00180189 0)
(0.514424 0.00128931 0)
(0.501253 0.000990948 0)
(0.500376 0.00110879 0)
(0.495829 0.00352102 0)
(0.51903 0.00224946 0)
(0.512137 0.00212556 0)
(0.507693 0.00501368 -1.58336e-21)
(0.504226 0.0104453 -1.84373e-20)
(0.499918 -1.70297e-05 2.5612e-20)
(0.497058 0.0214797 0)
(0.500474 -0.000109422 0)
(0.532971 -0.00701037 -3.18199e-20)
(0.507469 -0.00678737 6.39938e-22)
(0.514086 0.00826658 -8.2406e-21)
(0.520726 0.013385 -2.44491e-20)
(0.519568 -0.00702161 1.13998e-22)
(0.506836 0.00861649 -1.2e-22)
(0.51966 0.00624914 -1.88847e-21)
(0.507456 0.00909569 2.55334e-22)
(0.514049 -0.00691699 -3.90825e-21)
(0.493741 -0.00787779 0)
(0.543712 0.00144961 0)
(0.557337 0.033139 -2.53775e-23)
(0.544912 -0.0198616 0)
(0.35491 -0.00551473 1.54158e-21)
(0.514502 -0.00192627 -4.22591e-23)
(0.51205 0.00208465 -4.67252e-21)
(0.513608 -0.00198025 -1.47049e-20)
(0.398523 0.0179034 9.11091e-22)
(0.453954 -0.0264935 -2.3211e-22)
(0.518908 0.00223003 -4.84295e-21)
(0.54142 0.00932831 4.61747e-20)
(0.528113 -0.0117063 -2.3281e-20)
(0.325115 0.0154871 1.17898e-20)
(0.512253 -0.00546439 4.12139e-22)
(0.504581 0.0107323 0)
(0.512597 -0.00547976 0)
(0.506402 -0.01237 5.55224e-21)
(0.455053 0.00431094 1.55183e-21)
(0.492793 0.0219453 1.36958e-20)
(0.531558 -0.00432435 2.22656e-22)
(0.535997 0.00422051 4.91961e-20)
(0.51099 0.0073584 3.25802e-21)
(0.5113 -0.00394286 -3.74013e-21)
(0.528142 -0.0134199 -1.20768e-20)
(0.507266 0.00902201 2.43095e-22)
(0.271088 -0.00568242 1.34227e-19)
(0.374923 -0.00527205 -8.86072e-21)
(0.497163 0.0408258 3.01138e-20)
(0.491402 -0.00152037 4.04591e-22)
(0.5099 0.00650324 7.45309e-24)
(0.465341 -0.00026125 7.35968e-22)
(0.537565 -0.00654055 -4.54412e-20)
(0.507607 0.00788754 0)
(0.538251 -0.0121426 0)
(0.494082 0.00298948 1.11482e-20)
(0.508155 0.0051217 0)
(0.462147 -0.0277509 -5.24844e-20)
(0.486349 -0.0186647 -9.75609e-21)
(0.483234 0.000176995 4.9196e-22)
(0.281087 -0.0152918 -7.35506e-20)
(0.523158 -0.00346685 4.21308e-20)
(0.523133 -0.00339651 -3.96983e-20)
(0.438096 -0.015728 0)
(0.511779 -0.0127126 0)
(0.51138 0.00456543 0)
(0.482134 -0.00427871 -1.48318e-22)
(0.575723 0.135494 -8.59294e-22)
(0.511328 0.00454769 6.41879e-21)
(0.535883 0.0044637 -2.40016e-20)
(0.220951 -0.0682587 0)
(0.508798 0.00700824 -1.81419e-23)
(-0.0117949 -0.0182316 1.77494e-20)
(0.27431 -0.00625989 -3.6101e-20)
(0.528618 0.015246 -1.80267e-20)
(0.504384 0.010502 5.49257e-21)
(0.525452 -0.00894953 4.69305e-21)
(0.468093 -0.0414177 -7.91078e-20)
(0.467291 -0.0409087 7.06865e-20)
(0.494727 -0.0185217 0)
(0.480049 -0.0593208 0)
(0.008744 -0.010926 -2.11951e-20)
(0.494378 -0.00482468 -7.97219e-23)
(0.494325 -0.00483596 7.33193e-23)
(0.524529 -0.0111562 0)
(0.524671 0.0126549 4.73734e-21)
(0.525258 0.0161565 -7.35391e-21)
(0.514148 -0.00692394 -3.35353e-21)
(0.499918 -0.00163711 4.2631e-21)
(0.482085 -0.00460327 2.02982e-22)
(0.494813 -0.00681129 -1.6311e-21)
(0.521025 0.0134372 2.56352e-20)
(0.495092 0.00570347 -7.97625e-23)
(0.495153 0.00570547 0)
(0.526712 -0.0251639 -3.28296e-21)
(0.489556 -0.040613 -1.62356e-20)
(0.470536 -0.0162977 0)
(0.502727 0.0807843 1.5977e-21)
(0.510957 -0.00355245 1.28891e-22)
(0.506504 0.0160383 0)
(0.564854 0.00356635 -7.95446e-20)
(0.438717 0.0058636 -5.49421e-20)
(0.530501 0.0180368 -1.43027e-20)
(0.508763 -0.00660543 1.03321e-21)
(0.533138 -0.0206422 -2.973e-20)
(0.351948 -0.294584 -5.99187e-22)
(0.502831 0.0159769 0)
(0.468913 0.0692208 -6.08127e-22)
(0.501505 0.0795445 0)
(0.140266 -0.120685 0)
(0.482789 0.0200456 0)
(0.51146 0.00840996 -1.40076e-21)
(0.553732 0.151012 -3.36082e-20)
(0.53067 0.0230748 -1.47632e-20)
(0.518543 -0.00733369 1.12556e-20)
(0.525053 -0.0135497 1.57498e-20)
(0.505751 0.00615129 0)
(0.531561 -0.00446242 0)
(0.506591 -0.00699005 0)
(0.520789 -0.00776901 9.10109e-21)
(0.506854 -0.00694563 -1.08002e-23)
(0.511031 0.00729033 1.91208e-21)
(0.536784 0.00702114 0)
(0.500107 0.0013168 1.50192e-20)
(0.543302 0.00126251 -1.4624e-20)
(0.515865 0.000227186 -2.78478e-20)
(0.50101 -0.00716549 0)
(0.452972 -0.0259058 1.4426e-20)
(0.519861 0.0014153 0)
(0.51119 0.0121576 -3.01551e-21)
(0.500252 -0.00304181 3.316e-20)
(0.500235 -0.00037376 -4.4576e-20)
(0.538705 0.00689932 1.17715e-20)
(0.495125 -0.0233032 1.9246e-20)
(0.50048 0.00311477 -3.73228e-22)
(0.544836 -0.0192828 0)
(0.531013 0.0229827 -5.3091e-21)
(0.520914 -0.00790496 -8.50161e-21)
(0.49499 -0.0184245 0)
(0.522238 0.00179684 4.8545e-20)
(0.523914 -0.133629 0)
(0.534699 0.0504432 1.5779e-20)
(0.462736 -0.0282976 0)
(0.505855 0.00726549 0)
(0.538566 -0.0119868 -3.3711e-21)
(0.258944 0.0559187 -5.17404e-20)
(0.462636 -0.0415315 -2.53526e-20)
(0.538391 0.0069422 0)
(0.527968 -0.0136023 1.01818e-20)
(0.500092 0.00135037 4.80735e-23)
(0.167511 -0.0330617 -1.75248e-20)
(0.503216 0.00088928 0)
(0.487745 -0.00254886 -4.87274e-23)
(0.43921 -0.0165401 -1.70099e-20)
(0.463602 -0.0408827 -1.09763e-20)
(0.452216 0.00446473 -1.35879e-21)
(0.532592 -0.0205352 4.83852e-20)
(0.301611 0.00198678 7.01169e-21)
(0.500575 -0.00252638 -2.27758e-20)
(0.51988 0.00148339 6.50125e-21)
(0.499472 0.00578343 -1.05038e-20)
(0.527936 -0.0113929 2.32023e-20)
(0.0533659 -0.0136503 -9.29266e-20)
(0.508933 0.00704179 3.76905e-22)
(0.509949 0.00557114 -4.87733e-22)
(0.496685 -0.0297308 0)
(0.506877 0.00860757 0)
(0.52478 -0.0132581 1.30392e-20)
(0.520827 0.02325 0)
(0.504228 0.00851241 0)
(0.263661 0.0124487 1.14729e-21)
(0.535616 0.0300544 2.92825e-20)
(0.508825 0.00719837 -1.63633e-22)
(0.505928 -0.00638654 0)
(0.48271 0.0204774 -3.65811e-22)
(0.500848 -0.00175536 0)
(0.521661 -0.0122514 1.8441e-20)
(0.499895 -0.00167311 1.72183e-20)
(0.509285 0.000544664 2.64221e-21)
(0.522127 0.0018595 -3.40523e-20)
(0.541052 0.013876 -2.10945e-20)
(0.499885 0.0223934 8.96835e-21)
(0.534255 -0.00738344 1.87264e-20)
(0.516131 -0.0036723 0)
(0.506632 -0.00826854 0)
(0.517468 0.001399 0)
(0.49299 -0.00747674 1.52543e-23)
(0.30055 -0.0171309 1.44722e-19)
(0.00924406 -0.0122968 1.88244e-20)
(0.492694 -0.00677302 1.2717e-21)
(0.542428 0.049057 0)
(0.511669 -0.00185756 1.36132e-20)
(0.0793172 0.00186991 0)
(0.490581 0.00376656 -8.28803e-21)
(0.465024 -0.000283967 -6.92397e-22)
(0.519323 -0.00608008 0)
(0.516037 -0.0036875 0)
(0.495513 -0.0054181 0)
(0.580451 0.00462712 -1.64923e-20)
(0.532985 -0.00706043 3.31675e-20)
(0.508827 0.00719241 2.69595e-22)
(0.495549 -0.0233472 5.90832e-21)
(0.520039 -0.000145917 2.36455e-20)
(0.499991 0.00174376 -3.01028e-20)
(0.515367 0.00824374 -5.34065e-21)
(0.514321 0.00132595 0)
(0.508277 0.00765538 -3.43992e-23)
(0.5124 -0.0100729 0)
(0.508209 0.00772948 -6.64896e-24)
(0.519988 -0.00019275 -1.81785e-20)
(0.49599 0.0035491 4.6806e-21)
(0.508504 0.00748229 -6.88779e-23)
(0.50109 -0.00242333 0)
(0.513734 -0.00191655 -9.49697e-21)
(0.593858 0.0528825 0)
(0.500524 -0.0067411 0)
(0.505888 -0.00641936 0)
(0.534174 -0.00707726 -2.54885e-20)
(0.458603 -0.100603 -2.27123e-20)
(0.538554 0.0126898 -2.1415e-20)
(0.505859 0.00619249 0)
(0.27667 0.237261 0)
(0.50701 0.00853292 0)
(0.507001 0.00853477 -1.75613e-24)
(0.495593 -0.00545449 0)
(0.188662 -0.0370024 0)
(0.545106 -0.0170069 -1.49071e-20)
(0.499522 -0.00316335 -2.36187e-20)
(0.518213 -0.0162051 5.49743e-21)
(0.509171 -0.00173226 -5.4171e-21)
(0.519352 0.0002769 1.44735e-21)
(0.507875 0.0254794 3.39725e-21)
(0.506261 0.124946 8.15491e-22)
(0.509075 -0.00742063 0)
(0.359704 -0.0709179 0)
(0.517534 0.00140598 5.63708e-22)
(0.506899 -0.00772493 -9.9137e-22)
(0.500537 -0.00252598 0)
(0.524555 -0.0108532 0)
(0.411846 -0.0361775 -2.96713e-20)
(0.400444 0.031074 0)
(0.502929 0.00382729 -7.21092e-22)
(0.488057 0.0228689 -4.86541e-21)
(0.537178 -0.00683494 -3.69182e-20)
(0.410508 0.202864 -2.18984e-20)
(0.521755 0.00154738 -1.54704e-20)
(0.509439 0.00587163 0)
(0.50593 0.00734205 0)
(0.50942 0.00583707 0)
(0.435873 0.212401 -4.70798e-20)
(0.461556 -0.0357757 0)
(0.542832 0.0131791 5.1547e-20)
(0.536891 -0.00653812 0)
(0.543231 0.013139 -5.85852e-20)
(0.507535 0.0333254 1.44302e-20)
(0.501098 -0.00720692 0)
(0.514057 -0.00598804 -1.30336e-20)
(0.461158 -0.0368356 0)
(0.500169 -0.000748797 2.77358e-20)
(0.498437 -0.00098307 0)
(0.559573 0.046826 -2.5305e-22)
(0.499988 0.00168789 1.35136e-20)
(0.509838 0.00653497 0)
(0.552595 0.0161463 5.7074e-20)
(0.513655 -0.00192663 1.10524e-20)
(0.508962 0.00703975 -1.54865e-22)
(0.53442 0.049702 0)
(0.0286712 -0.0155388 4.83488e-21)
(0.509738 -0.000972699 -3.41829e-21)
(0.497149 0.00818293 3.91558e-22)
(0.512254 -0.00986107 -2.04032e-22)
(0.229586 -0.0668609 -3.30923e-20)
(0.51936 0.0002943 4.60377e-21)
(0.524141 -0.00982681 8.52838e-21)
(-0.00543145 -0.0112125 9.6206e-21)
(0.511653 -0.00178955 0)
(-0.00393158 -0.0103457 2.35721e-21)
(0.521979 -0.0454235 -5.61825e-20)
(0.499514 0.0224653 9.15074e-21)
(0.507569 0.00198684 -7.94976e-23)
(0.502148 0.00982919 8.36221e-20)
(0.508812 -0.0046581 0)
(0.502267 0.001635 0)
(0.501214 -0.00519277 -4.10498e-21)
(0.541457 0.0139261 0)
(0.49731 0.00365679 0)
(0.550045 0.150598 3.27167e-20)
(0.51594 0.000234659 2.1941e-20)
(0.487834 -0.00252706 9.95284e-24)
(0.491316 -0.00224864 -1.70798e-20)
(0.501029 0.000990765 2.8349e-24)
(0.499513 -0.000642642 4.11165e-20)
(0.509102 -0.00741765 0)
(0.498614 -0.0383612 1.05215e-20)
(0.507984 0.0332083 -9.18401e-21)
(0.501348 -0.00753832 8.38724e-21)
(0.50903 -0.00601136 -2.90077e-22)
(0.501296 -0.00521672 0)
(0.51212 0.0103592 -4.13014e-22)
(0.506854 -0.00777413 6.75988e-22)
(0.512195 0.0104572 1.12621e-21)
(0.524866 0.0162358 3.57849e-21)
(0.500301 -0.00307648 -3.78513e-20)
(0.504832 0.00475799 -2.50079e-22)
(0.516404 0.00250572 7.63978e-21)
(0.500953 0.0028461 -2.48714e-20)
(0.524372 0.000337245 1.4503e-20)
(0.508804 0.00512801 6.4169e-22)
(0.541955 0.0133446 -3.47649e-20)
(0.266238 0.0106401 -2.55561e-22)
(0.502241 -0.00664459 -1.0223e-20)
(0.521572 0.00804038 -1.881e-20)
(0.507892 0.0251752 -5.3984e-22)
(0.520646 -0.00328009 3.36801e-21)
(0.499644 -0.00150469 5.03232e-20)
(0.491285 0.0401476 -3.91341e-20)
(0.506751 0.00790914 -9.23513e-22)
(0.520206 -0.00152648 -1.33086e-20)
(0.493763 0.00884169 1.49082e-20)
(0.518684 0.0072007 5.36622e-21)
(0.526954 -0.0014134 2.32672e-20)
(0.389877 0.107709 5.27089e-20)
(0.500128 -0.000718396 -1.11645e-20)
(0.508591 0.00739825 -6.38068e-23)
(0.507947 -0.000979404 -4.50947e-21)
(0.542034 0.0130069 -6.19497e-22)
(0.503171 0.000860836 -2.93101e-21)
(0.567537 0.0138854 0)
(0.498941 0.000634423 0)
(0.500434 -0.00011453 0)
(0.518903 0.00710813 0)
(0.501033 -0.00241224 0)
(0.593779 0.0525042 -3.94712e-20)
(0.518273 -0.00463015 0)
(0.538991 -0.0112015 2.96864e-22)
(0.525376 -0.00904864 0)
(0.528304 0.0151177 1.5639e-20)
(0.349826 -0.296497 1.36907e-21)
(-0.00480197 0.0055817 0)
(0.517916 -0.0119521 -1.49329e-22)
(-0.0792056 -0.0108374 -6.08096e-20)
(0.500828 0.0193537 7.65087e-22)
(0.503047 0.00374986 1.3761e-21)
(0.511255 0.00642154 0)
(0.497754 0.018603 0)
(0.508859 0.00524599 -1.94289e-23)
(0.501009 0.00102888 -3.01844e-20)
(0.507903 -0.0024351 0)
(0.509004 0.00530551 -8.07364e-23)
(0.519017 4.2802e-05 5.83972e-21)
(0.524089 -0.00993289 0)
(0.504959 0.0845799 0)
(0.467368 0.00592665 -5.96178e-20)
(0.33983 -0.0389015 0)
(0.498888 -0.0118102 4.75009e-23)
(0.0143417 -0.0156031 0)
(0.527033 -0.00131683 2.42973e-20)
(0.0106621 -0.0134506 -1.18879e-22)
(0.525925 -0.0126266 0)
(0.511834 -0.0044588 6.32262e-23)
(0.477164 0.000130354 0)
(0.511901 -0.00451355 0)
(0.495328 0.00821864 0)
(0.495559 -0.00939876 1.77938e-20)
(0.487018 0.00721449 -6.59604e-20)
(0.52481 0.0129183 0)
(0.543111 0.0107848 1.4618e-20)
(0.497273 -0.00098232 -4.12918e-21)
(0.498732 -0.011815 -1.78142e-20)
(0.499439 0.00304048 0)
(0.478153 0.0352451 -2.94003e-20)
(0.503856 0.006786 -6.53061e-23)
(0.517654 0.000684659 -1.73049e-20)
(0.568257 0.0143356 0)
(0.519397 0.00797781 4.5502e-20)
(0.506762 0.00783483 -3.03774e-23)
(0.500895 0.00285086 2.48665e-20)
(0.543603 -0.00810924 -5.79463e-20)
(0.558784 0.045835 -7.33349e-20)
(0.539339 0.013122 9.38117e-21)
(0.480951 -0.00281634 -2.74138e-20)
(0.522092 -0.00784705 -3.55976e-20)
(0.508101 0.00705115 2.13962e-22)
(0.502565 0.007994 0)
(0.477628 0.000236842 2.59911e-20)
(0.325045 0.0472645 7.80822e-20)
(0.511168 0.00640502 9.75299e-22)
(0.506861 0.00752172 0)
(0.52622 -0.0125401 3.38508e-22)
(0.512819 0.0014711 0)
(0.571333 0.00858796 -3.96221e-20)
(0.519558 0.000879743 0)
(0.491039 0.00262239 0)
(0.527353 0.00118455 0)
(0.508808 0.00510743 5.85604e-22)
(0.579328 -0.0267846 1.26295e-20)
(0.538162 0.0127339 0)
(0.466777 -0.00264717 -5.61194e-22)
(0.49987 -0.00275135 1.2354e-20)
(0.502301 -0.0013622 0)
(0.49986 0.0189588 -2.8232e-20)
(0.467673 0.00532937 5.36406e-20)
(0.477965 0.0357126 0)
(0.459769 -0.0990952 2.35057e-20)
(0.489775 0.0174867 3.50889e-20)
(0.508757 0.00686356 1.82559e-23)
(0.245799 0.0113023 -4.05492e-20)
(0.520323 -0.00157645 -5.24239e-21)
(0.512701 -0.00606697 0)
(0.498629 -0.0377024 0)
(0.512673 -0.00606184 0)
(0.517677 0.000647032 1.5579e-20)
(0.505624 0.0397353 2.96007e-21)
(0.51904 1.82201e-05 0)
(0.514128 -0.00609795 0)
(0.0807172 0.0299583 -9.28049e-21)
(0.470301 -0.0032025 1.23537e-21)
(0.497238 -0.0298039 -2.24478e-20)
(0.518741 -0.0165099 0)
(0.512853 0.00152101 0)
(0.528384 0.0186083 1.64443e-20)
(0.510978 -0.00383103 -1.33216e-22)
(0.297881 -0.0219829 1.4399e-22)
(0.489985 0.017201 0)
(0.511395 0.00854462 -1.25614e-21)
(0.50164 0.000378933 1.01225e-20)
(0.512492 0.0026033 0)
(0.520506 -0.0132521 1.28504e-20)
(0.519118 -0.000135835 -1.08863e-20)
(0.509817 -0.00101581 -3.21985e-21)
(0.545355 -0.00352822 6.83277e-20)
(0.500449 -0.00669576 -8.69614e-23)
(0.497197 -0.000909778 2.69412e-20)
(0.491525 -0.00223315 -4.18668e-20)
(0.460448 0.150096 4.12641e-21)
(0.511304 0.00567846 1.20688e-22)
(0.389112 -0.0300108 -1.12313e-21)
(0.520116 0.00827789 0)
(0.485745 -0.0198272 -4.48829e-20)
(0.437431 -0.0393361 -2.94151e-20)
(0.519729 -0.00141056 1.08585e-20)
(0.50051 -0.00377368 -3.97925e-21)
(0.50796 -0.00242787 0)
(0.393407 0.109909 -4.04463e-20)
(0.52879 -0.0010689 0)
(0.519064 -0.00735402 0)
(0.442599 -0.0191618 3.20305e-21)
(0.539788 -0.0299984 0)
(0.515457 0.00818427 4.54655e-21)
(0.0709037 0.0214663 -5.41712e-20)
(0.500179 0.0190974 2.54829e-20)
(0.496706 -0.0703005 7.26356e-20)
(0.511347 0.012047 3.57668e-21)
(0.541743 0.00636294 6.24228e-20)
(0.494004 0.00873766 -2.67e-21)
(0.50316 -0.000636928 9.40419e-21)
(0.502693 0.00803361 1.52285e-20)
(0.504332 -0.00778306 2.81305e-22)
(0.510885 -0.00176308 0)
(0.505305 0.00870225 0)
(0.544127 -0.00792447 5.62242e-20)
(0.521896 -0.00984626 1.84801e-20)
(0.494964 -0.00314106 -2.2989e-20)
(0.500553 -0.00380419 1.33583e-20)
(0.506855 0.00752019 3.17236e-22)
(0.483296 -7.52009e-05 -3.64611e-22)
(0.511036 -0.00707411 7.08568e-22)
(0.505459 0.00873062 -1.09012e-22)
(0.50657 0.122597 -2.83017e-21)
(0.542635 0.0106568 -2.57275e-20)
(0.571611 -0.0338118 -8.72628e-20)
(0.432101 0.0372912 4.00462e-20)
(0.285746 0.232922 0)
(0.501252 -0.00747012 -9.71508e-21)
(0.519674 -0.00468184 0)
(0.497066 -0.00318162 -5.11327e-22)
(0.5032 0.00181745 1.58121e-22)
(0.510817 -0.00174404 0)
(0.528558 -0.00117242 1.16521e-20)
(0.514977 0.0103908 0)
(0.506492 -0.00350089 -2.05176e-21)
(0.50656 -0.00341087 -1.14214e-21)
(0.503079 -0.0109438 9.03812e-21)
(0.145585 -0.0143912 7.13033e-20)
(0.515834 -0.000895909 -2.74702e-20)
(0.491563 -0.00317738 -2.42993e-22)
(0.486709 -0.0188503 5.34397e-20)
(0.537503 -0.0466308 -3.46877e-21)
(0.481116 -0.00300815 -6.14247e-22)
(0.50339 0.00186574 3.26429e-23)
(0.516483 0.00260919 -6.41188e-21)
(0.555212 0.187635 2.03388e-20)
(0.510101 0.00419739 -4.8957e-22)
(0.502426 -0.00727168 0)
(0.507846 -0.0026809 0)
(0.519158 0.00277578 -1.02418e-20)
(0.537124 -0.0460104 3.62065e-21)
(0.515863 -0.000837112 1.7441e-20)
(0.522424 -0.00333095 0)
(0.51328 0.00602039 7.17959e-21)
(0.569333 0.00140692 0)
(0.52291 -0.00240721 1.60268e-20)
(0.523203 -0.017542 0)
(0.573528 0.136716 2.19164e-20)
(0.51957 0.000852493 1.57897e-20)
(0.504502 0.0130577 0)
(0.502556 -0.00733917 -4.80963e-22)
(0.519237 -0.00017034 -2.11749e-20)
(0.48614 0.0203077 0)
(0.519054 0.00279902 -1.84681e-20)
(0.539172 0.0129908 -9.60967e-21)
(0.212107 -0.0634212 -3.30101e-21)
(0.496861 -0.00297108 -4.05173e-22)
(0.529843 0.0188057 0)
(0.528191 0.0107852 0)
(0.506328 -0.00451752 3.8584e-22)
(0.508215 0.00432974 -3.14302e-21)
(0.562386 0.0356369 0)
(0.519982 0.00818065 0)
(0.539335 -0.0111418 0)
(0.490546 0.00340138 -2.94068e-20)
(0.521782 0.00149286 1.40185e-20)
(0.548196 0.00435521 0)
(0.517686 -0.0120016 -5.74589e-21)
(0.499606 -0.00154522 -3.37748e-20)
(0.505602 0.00402553 2.21688e-21)
(0.522844 -0.00244665 0)
(0.519857 -0.0206239 -5.16606e-21)
(0.500635 -0.00496394 0)
(0.509592 -0.0084684 0)
(0.499261 0.00246299 -1.23209e-20)
(0.51453 0.00169427 9.70895e-21)
(0.176786 -0.15931 3.43013e-21)
(0.48508 0.002888 2.08136e-20)
(0.530998 -0.0207459 1.70237e-20)
(0.544952 -0.00331979 -7.2942e-20)
(0.507383 0.00840608 -2.17414e-23)
(0.505608 0.00411624 0)
(0.481269 -0.059168 0)
(0.479596 0.0208941 0)
(0.514893 -0.00197309 0)
(0.0904338 0.0398707 1.97754e-20)
(0.502876 -0.00714967 -4.18253e-21)
(0.485543 0.0073555 -5.53692e-22)
(0.500026 0.000218357 2.10448e-20)
(0.494992 -0.00305351 0)
(0.530883 -0.0209986 -3.16696e-20)
(0.514902 -0.0019014 0)
(0.0145558 -0.00752052 6.54828e-20)
(0.487827 -0.0107258 -5.08731e-20)
(0.519119 -0.000100549 9.2034e-21)
(0.513395 0.00603647 -7.65914e-21)
(0.508401 0.00385828 0)
(0.029808 -0.00915115 -3.08156e-20)
(0.520238 -0.0132755 1.40711e-20)
(0.498472 -0.0179679 0)
(0.506939 0.00447652 -2.2299e-21)
(0.522496 -0.00343985 0)
(0.50494 -0.004426 0)
(0.432707 0.0359976 -4.00591e-20)
(0.506873 0.00449562 1.1338e-23)
(0.548087 0.00395172 0)
(0.462869 -0.00107189 1.55915e-22)
(0.478916 0.0249787 0)
(0.510927 -0.00694799 6.11483e-22)
(0.499563 0.0036073 -1.50997e-20)
(0.50806 0.0071229 -8.77348e-23)
(0.324673 0.0509629 -8.27282e-20)
(0.514616 0.008026 -6.36222e-21)
(0.518107 0.00496791 0)
(0.569742 0.00121851 -2.443e-20)
(0.521876 -0.0451352 6.49631e-20)
(0.484912 0.00743265 0)
(0.500018 0.000190594 0)
(0.498207 -0.0179517 1.87392e-20)
(0.577858 0.00654214 5.59843e-20)
(0.522015 -0.00794587 0)
(0.364674 0.0130626 -5.7188e-22)
(0.500509 0.0117129 -2.14729e-22)
(0.487329 0.00731189 7.3302e-20)
(0.459896 0.0579323 2.92531e-20)
(-0.0232117 0.0352133 -7.3023e-20)
(0.502284 -0.00655676 0)
(0.499617 0.00363117 -5.40415e-21)
(0.511249 -0.00858161 1.02176e-21)
(0.536013 -0.097263 -1.24215e-20)
(0.504673 0.0130389 0)
(0.512003 -0.00178207 -6.38972e-21)
(0.507842 -0.00262271 0)
(0.506999 0.00867313 8.71334e-23)
(0.514597 -0.00192333 -1.188e-20)
(0.503701 -0.00672777 0)
(0.518228 0.00492097 -2.59904e-21)
(0.511289 0.00548881 6.89592e-22)
(0.487385 -0.048271 0)
(0.506621 -0.00746109 -7.9621e-23)
(0.503647 0.00036855 1.70679e-20)
(0.375835 -0.032692 -1.42846e-21)
(0.500021 9.55079e-07 4.50249e-20)
(0.519206 -0.000139306 2.73693e-20)
(0.524424 -0.131406 0)
(0.58301 -0.0826121 0)
(0.508902 -0.00593329 -9.92881e-23)
(0.527534 0.00123699 0)
(0.307608 -0.00322968 0)
(0.518377 -0.0165455 3.9919e-21)
(0.0599403 -0.0126148 6.50986e-20)
(0.533722 -0.0160153 1.55364e-20)
(0.503258 -0.000590085 0)
(0.537383 -0.0052756 -2.69374e-20)
(0.504477 -0.00783635 -2.86981e-22)
(0.54389 0.000300256 0)
(0.581833 -0.0837101 0)
(0.507056 -0.00651748 1.79676e-22)
(0.504039 0.00720771 0)
(0.536666 0.0109085 4.06713e-21)
(0.502881 0.00218245 -1.01197e-21)
(0.478766 0.0372018 1.3542e-20)
(0.526318 -0.00800778 0)
(0.508868 0.0120593 -5.84833e-21)
(0.503763 0.000363888 -3.58934e-21)
(0.135107 -0.0140433 -7.46124e-20)
(0.473398 0.12611 5.06716e-21)
(0.512446 0.00252982 0)
(0.522194 -0.000453786 0)
(0.49111 0.00371142 0)
(0.511315 -0.00213246 -5.09137e-23)
(0.512568 0.0011154 5.37181e-22)
(0.506943 0.00870933 -1.61033e-22)
(0.514398 -0.00642271 -4.0802e-21)
(0.528229 0.00729957 -4.90092e-20)
(0.51411 0.00223303 1.50767e-21)
(0.501322 0.000869887 0)
(0.5113 -0.00538993 2.24335e-22)
(0.498948 0.0028267 4.05776e-20)
(0.508144 0.00774722 -3.87849e-22)
(0.516146 -0.0100281 -6.79399e-21)
(0.507622 -0.00731958 3.51851e-23)
(0.509234 -0.000176063 2.46164e-21)
(0.521974 0.00675642 -9.42435e-21)