/*--------------------------------*- C++ -*----------------------------------*\
  =========                 |
  \\      /  F ield         | OpenFOAM: The Open Source CFD Toolbox
   \\    /   O peration     | Website:  https://openfoam.org
    \\  /    A nd           | Version:  9
     \\/     M anipulation  |
\*---------------------------------------------------------------------------*/
FoamFile
{
    format      ascii;
    class       surfaceScalarField;
    location    "0.1";
    object      alphaPhi0.water;
}
// * * * * * * * * * * * * * * * * * * * * * * * * * * * * * * * * * * * * * //

dimensions      [0 3 -1 0 0 0 0];

internalField   nonuniform List<scalar> 
15214
(
4.3052e-07
-4.3052e-07
2.1769e-06
-1.74638e-06
4.6165e-06
-2.4396e-06
7.29004e-06
-2.67353e-06
1.00044e-05
-2.71437e-06
1.26828e-05
-2.67836e-06
1.52953e-05
-2.6125e-06
1.78359e-05
-2.54062e-06
2.03122e-05
-2.4763e-06
2.27394e-05
-2.42721e-06
2.5137e-05
-2.3976e-06
2.75269e-05
-2.38985e-06
2.99324e-05
-2.40548e-06
3.23782e-05
-2.44589e-06
3.48911e-05
-2.51287e-06
3.75001e-05
-2.60899e-06
4.0238e-05
-2.73795e-06
4.31423e-05
-2.90423e-06
4.62549e-05
-3.11257e-06
4.96213e-05
-3.36646e-06
5.32842e-05
-3.66292e-06
5.72715e-05
-3.98728e-06
6.15788e-05
-4.30728e-06
6.61406e-05
-4.5618e-06
7.07874e-05
-4.6468e-06
7.51892e-05
-4.40192e-06
7.88156e-05
-3.62673e-06
8.09061e-05
-2.09308e-06
8.08436e-05
6.02234e-08
7.87301e-05
2.00879e-06
7.50743e-05
2.78131e-06
7.1764e-05
2.32315e-06
6.88022e-05
8.12844e-07
5.81541e-05
-8.15644e-07
1.76685e-05
-1.42373e-06
1.80437e-06
-3.65635e-07
6.19391e-07
1.37696e-07
1.75713e-07
1.2067e-07
4.03272e-08
4.86191e-08
7.34606e-09
1.32627e-08
1.04998e-09
2.7277e-09
1.13162e-10
4.54038e-10
8.6221e-12
5.95517e-11
7.79459e-13
5.46015e-12
2.56139e-13
2.92818e-13
1.94497e-14
1.53204e-06
-1.96256e-06
3.6715e-06
-3.88584e-06
5.95003e-06
-4.71813e-06
8.28726e-06
-5.01076e-06
1.06285e-05
-5.05557e-06
1.29415e-05
-4.99137e-06
1.52136e-05
-4.88466e-06
1.74449e-05
-4.77188e-06
1.96429e-05
-4.6743e-06
2.182e-05
-4.60434e-06
2.39916e-05
-4.56918e-06
2.61749e-05
-4.57319e-06
2.8389e-05
-4.61955e-06
3.06545e-05
-4.71144e-06
3.29946e-05
-4.8529e-06
3.54349e-05
-5.04934e-06
3.80048e-05
-5.30777e-06
4.07366e-05
-5.63611e-06
4.36655e-05
-6.04141e-06
4.68249e-05
-6.52592e-06
5.02412e-05
-7.07915e-06
5.39214e-05
-7.66754e-06
5.78351e-05
-8.22094e-06
6.1887e-05
-8.61372e-06
6.5885e-05
-8.64485e-06
6.95124e-05
-8.02969e-06
7.2358e-05
-6.47478e-06
7.41764e-05
-3.93084e-06
7.49844e-05
-8.8451e-07
7.4829e-05
1.7121e-06
7.3095e-05
2.8342e-06
5.91807e-05
2.06599e-06
2.37329e-05
4.17458e-07
6.05056e-06
0
3.50835e-06
-2.28418e-07
1.84248e-06
-1.6579e-07
3.33807e-07
1.0812e-08
4.53815e-08
3.12428e-08
1.57561e-08
2.04286e-08
4.43763e-09
9.34891e-09
9.65134e-10
2.8824e-09
1.53759e-10
7.10845e-10
1.66433e-11
1.29722e-10
1.36353e-12
1.56726e-11
2.05589e-13
1.09891e-12
6.75445e-14
2.2337e-06
-4.19625e-06
4.55844e-06
-6.21059e-06
6.72822e-06
-6.88791e-06
8.82758e-06
-7.11011e-06
1.08856e-05
-7.11358e-06
1.2909e-05
-7.01475e-06
1.49028e-05
-6.87852e-06
1.68744e-05
-6.7435e-06
1.88335e-05
-6.63334e-06
2.07915e-05
-6.56237e-06
2.27616e-05
-6.53931e-06
2.47583e-05
-6.56988e-06
2.67975e-05
-6.6587e-06
2.88967e-05
-6.81065e-06
3.10756e-05
-7.03178e-06
3.33561e-05
-7.32988e-06
3.57626e-05
-7.71428e-06
3.8321e-05
-8.19455e-06
4.1057e-05
-8.77737e-06
4.39917e-05
-9.46057e-06
4.71353e-05
-1.02228e-05
5.04768e-05
-1.10091e-05
5.39684e-05
-1.17125e-05
5.75052e-05
-1.21505e-05
6.09055e-05
-1.20452e-05
6.38992e-05
-1.10249e-05
6.61659e-05
-8.75757e-06
6.74683e-05
-5.35092e-06
6.77542e-05
-1.66729e-06
6.56401e-05
1.04109e-06
4.91922e-05
1.43072e-06
1.60878e-05
3.02243e-07
1.86754e-06
0
6.20462e-07
0
3.34236e-07
-2.6144e-09
2.65792e-07
-5.13503e-09
2.44177e-07
0
1.15811e-07
0
1.03263e-08
1.26871e-08
0
4.03309e-09
0
8.7548e-10
0
2.3646e-10
0
5.76295e-11
0
8.99626e-12
1.00047e-13
7.8748e-13
6.10999e-14
2.56018e-06
-6.75644e-06
5.00968e-06
-8.66009e-06
7.13332e-06
-9.01155e-06
9.08399e-06
-9.06078e-06
1.09437e-05
-8.97332e-06
1.27508e-05
-8.82183e-06
1.45273e-05
-8.65502e-06
1.62891e-05
-8.50533e-06
1.80497e-05
-8.39391e-06
1.98215e-05
-8.33421e-06
2.16171e-05
-8.33486e-06
2.34492e-05
-8.40198e-06
2.53315e-05
-8.54099e-06
2.72788e-05
-8.75793e-06
2.93073e-05
-9.06032e-06
3.14349e-05
-9.45748e-06
3.36805e-05
-9.95985e-06
3.6063e-05
-1.0577e-05
3.85989e-05
-1.13133e-05
4.12987e-05
-1.21603e-05
4.41603e-05
-1.30844e-05
4.71614e-05
-1.40102e-05
5.02477e-05
-1.47987e-05
5.33209e-05
-1.52237e-05
5.62271e-05
-1.49514e-05
5.87517e-05
-1.35521e-05
6.0641e-05
-1.06899e-05
6.16564e-05
-6.62078e-06
5.86884e-05
-2.54907e-06
3.74194e-05
1.50396e-07
8.70197e-06
7.51353e-08
1.26275e-06
0
4.22626e-07
0
1.07756e-07
0
2.75207e-08
0
1.84548e-08
0
1.63854e-08
0
1.43954e-08
0
1.1975e-08
0
1.99954e-09
2.14902e-10
0
2.56662e-10
0
4.49292e-11
0
1.23278e-11
0
3.32006e-12
3.13303e-14
4.55552e-13
4.18305e-14
2.6777e-06
-9.43414e-06
5.17327e-06
-1.11557e-05
7.26724e-06
-1.11055e-05
9.12424e-06
-1.09178e-05
1.08487e-05
-1.06977e-05
1.24984e-05
-1.04716e-05
1.41089e-05
-1.02655e-05
1.5704e-05
-1.01004e-05
1.73015e-05
-9.99144e-06
1.8916e-05
-9.94869e-06
2.05602e-05
-9.97906e-06
2.22462e-05
-1.00879e-05
2.39858e-05
-1.02807e-05
2.57917e-05
-1.05637e-05
2.76766e-05
-1.09453e-05
2.96543e-05
-1.14352e-05
3.17383e-05
-1.20438e-05
3.39407e-05
-1.27795e-05
3.62701e-05
-1.36427e-05
3.87278e-05
-1.4618e-05
4.13031e-05
-1.56598e-05
4.39678e-05
-1.66749e-05
4.6669e-05
-1.74999e-05
4.93233e-05
-1.7878e-05
5.18105e-05
-1.74386e-05
5.39692e-05
-1.57108e-05
5.56401e-05
-1.23609e-05
5.35926e-05
-7.58384e-06
3.10854e-05
-2.66823e-06
4.52531e-06
-1.39045e-07
5.4702e-07
4.41865e-09
2.59904e-07
2.10162e-09
1.01936e-07
0
2.78348e-08
0
5.20158e-09
0
1.54019e-09
0
1.59678e-09
0
1.64042e-09
0
1.52355e-09
0
7.1475e-10
0
5.41379e-11
0
0
6.1776e-12
0
2.10889e-12
0
7.92697e-13
8.70773e-15
1.92859e-13
2.74415e-14
2.68595e-06
-1.21201e-05
5.1635e-06
-1.36332e-05
7.22215e-06
-1.31642e-05
9.01335e-06
-1.2709e-05
1.06437e-05
-1.23281e-05
1.218e-05
-1.20078e-05
1.36655e-05
-1.1751e-05
1.51303e-05
-1.15652e-05
1.6596e-05
-1.14572e-05
1.80794e-05
-1.14321e-05
1.95939e-05
-1.14936e-05
2.11513e-05
-1.16453e-05
2.27624e-05
-1.18917e-05
2.44374e-05
-1.22388e-05
2.61865e-05
-1.26944e-05
2.80193e-05
-1.3268e-05
2.99443e-05
-1.39688e-05
3.19675e-05
-1.48027e-05
3.40906e-05
-1.57658e-05
3.63077e-05
-1.6835e-05
3.86022e-05
-1.79543e-05
4.09436e-05
-1.90162e-05
4.32843e-05
-1.98406e-05
4.5558e-05
-2.01518e-05
4.7676e-05
-1.95566e-05
4.95192e-05
-1.75539e-05
5.05101e-05
-1.33526e-05
3.3048e-05
-7.86864e-06
4.05694e-06
-1.2905e-06
4.05599e-07
-5.61376e-08
1.20068e-07
1.64804e-09
3.95304e-08
1.94437e-09
1.64977e-08
1.0006e-09
5.72981e-09
2.11206e-10
1.27823e-09
0
2.66528e-10
0
2.18435e-10
0
2.53966e-10
0
2.37315e-10
0
1.33069e-10
0
2.70329e-11
0
3.64503e-13
1.85654e-13
0
6.82911e-13
0
2.79684e-13
3.88244e-15
8.71391e-14
1.90064e-14
2.63372e-06
-1.47538e-05
5.05168e-06
-1.60512e-05
7.06508e-06
-1.51776e-05
8.80392e-06
-1.44478e-05
1.03665e-05
-1.38907e-05
1.18203e-05
-1.34616e-05
1.32125e-05
-1.31432e-05
1.45766e-05
-1.29293e-05
1.59372e-05
-1.28178e-05
1.73126e-05
-1.28075e-05
1.87174e-05
-1.28983e-05
2.0163e-05
-1.30909e-05
2.16593e-05
-1.33881e-05
2.32149e-05
-1.37944e-05
2.48374e-05
-1.43168e-05
2.65328e-05
-1.49633e-05
2.83052e-05
-1.57412e-05
3.01554e-05
-1.6653e-05
3.20794e-05
-1.76898e-05
3.40658e-05
-1.88214e-05
3.60943e-05
-1.99828e-05
3.81342e-05
-2.10562e-05
4.01447e-05
-2.1851e-05
4.20756e-05
-2.20826e-05
4.38647e-05
-2.13457e-05
4.54359e-05
-1.91251e-05
4.00435e-05
-1.4458e-05
9.92389e-06
-5.62536e-06
4.42959e-07
-4.43349e-07
1.06959e-07
-3.09921e-08
2.82214e-08
1.88968e-09
8.18584e-09
1.10005e-09
2.57558e-09
4.16841e-10
8.92632e-10
1.69541e-10
2.83035e-10
4.72064e-11
6.87368e-11
0
3.80638e-11
0
4.52659e-11
0
4.11006e-11
0
2.58144e-11
0
7.87756e-12
0
6.61417e-13
0
0
2.95401e-13
0
1.59962e-13
2.89525e-15
5.1462e-14
1.63733e-14
2.54809e-06
-1.73019e-05
4.88263e-06
-1.83857e-05
6.84248e-06
-1.71374e-05
8.53524e-06
-1.61406e-05
1.00463e-05
-1.54018e-05
1.14395e-05
-1.48548e-05
1.2762e-05
-1.44657e-05
1.40489e-05
-1.42162e-05
1.53263e-05
-1.40952e-05
1.66138e-05
-1.40951e-05
1.79264e-05
-1.42109e-05
1.92757e-05
-1.44402e-05
2.06708e-05
-1.47831e-05
2.21188e-05
-1.52424e-05
2.36249e-05
-1.5823e-05
2.51925e-05
-1.65309e-05
2.68218e-05
-1.73706e-05
2.85095e-05
-1.83407e-05
3.0247e-05
-1.94272e-05
3.20192e-05
-2.05937e-05
3.38039e-05
-2.17675e-05
3.5572e-05
-2.28243e-05
3.72896e-05
-2.35687e-05
3.8921e-05
-2.3714e-05
4.04266e-05
-2.28513e-05
4.17336e-05
-2.04322e-05
2.50692e-05
-1.43712e-05
9.07697e-07
-2.92234e-06
1.76742e-07
-2.17171e-07
3.65713e-08
-1.36306e-08
8.27651e-09
2.69673e-09
1.91432e-09
1.35651e-09
4.73525e-10
3.61074e-10
1.46453e-10
6.90197e-11
4.9305e-11
1.65207e-11
1.92757e-11
4.84743e-12
8.43924e-12
0
8.56877e-12
0
7.92908e-12
0
5.37758e-12
0
2.11888e-12
0
4.0471e-13
0
2.97305e-14
9.58154e-14
4.12875e-15
1.08615e-13
5.2775e-15
3.99229e-14
1.47025e-14
2.44595e-06
-1.97478e-05
4.68553e-06
-2.06253e-05
6.58634e-06
-1.90382e-05
8.23574e-06
-1.779e-05
9.7054e-06
-1.68715e-05
1.10527e-05
-1.62021e-05
1.23229e-05
-1.57358e-05
1.35506e-05
-1.5444e-05
1.47626e-05
-1.53072e-05
1.59789e-05
-1.53114e-05
1.72148e-05
-1.54468e-05
1.84818e-05
-1.57072e-05
1.97882e-05
-1.60896e-05
2.11402e-05
-1.65943e-05
2.25411e-05
-1.72239e-05
2.39917e-05
-1.79815e-05
2.54896e-05
-1.88684e-05
2.70281e-05
-1.98792e-05
2.85957e-05
-2.09948e-05
3.0175e-05
-2.2173e-05
3.17433e-05
-2.33359e-05
3.32745e-05
-2.43555e-05
3.47426e-05
-2.50367e-05
3.61259e-05
-2.50974e-05
3.74076e-05
-2.4133e-05
3.80987e-05
-2.11234e-05
1.20336e-05
-1.26347e-05
3.97549e-07
-1.30003e-06
7.28711e-08
-1.33623e-07
1.23387e-08
-3.85626e-09
2.04752e-09
2.66369e-09
3.74889e-10
1.1331e-09
1.04911e-10
3.18033e-10
2.73161e-11
6.77343e-11
8.41245e-12
9.57844e-12
4.18401e-12
1.63733e-12
2.32198e-12
3.43432e-13
1.77553e-12
0
1.6128e-12
0
1.15848e-12
0
5.61972e-13
0
1.77815e-13
0
5.01676e-14
5.65521e-14
1.53215e-14
7.70726e-14
7.63556e-15
3.44003e-14
1.42701e-14
2.33819e-06
-2.2086e-05
4.47909e-06
-2.27662e-05
6.31795e-06
-2.08771e-05
7.92511e-06
-1.93971e-05
9.35928e-06
-1.83056e-05
1.06707e-05
-1.75135e-05
1.19009e-05
-1.6966e-05
1.30832e-05
-1.66263e-05
1.42437e-05
-1.64677e-05
1.54026e-05
-1.64702e-05
1.65748e-05
-1.66191e-05
1.77718e-05
-1.69041e-05
1.90013e-05
-1.73191e-05
2.02684e-05
-1.78614e-05
2.1575e-05
-1.85306e-05
2.29203e-05
-1.93268e-05
2.42997e-05
-2.02477e-05
2.57042e-05
-2.12838e-05
2.71206e-05
-2.24112e-05
2.85308e-05
-2.35831e-05
2.99129e-05
-2.47181e-05
3.12448e-05
-2.56873e-05
3.25084e-05
-2.63003e-05
3.36965e-05
-2.62855e-05
3.48182e-05
-2.52547e-05
3.07473e-05
-2.13937e-05
3.59837e-06
-9.80206e-06
1.99606e-07
-7.91583e-07
3.2462e-08
-9.0164e-08
4.47623e-09
5.80756e-10
2.83576e-10
2.42566e-09
0
9.02467e-10
0
2.55043e-10
1.9413e-12
6.05214e-11
2.03717e-12
1.16107e-11
6.49699e-13
1.42274e-12
5.64797e-13
2.42e-13
4.22585e-13
5.80449e-14
3.52753e-13
8.27401e-15
2.60149e-13
9.03355e-15
1.49027e-13
1.32435e-14
7.11341e-14
1.75529e-14
3.84488e-14
4.28884e-14
1.93864e-14
4.77712e-14
8.53196e-15
2.77451e-14
1.50368e-14
3.60033e-33
-8.75626e-32
4.03709e-32
-1.3814e-31
3.97222e-32
-1.38733e-31
4.36534e-33
-1.66474e-32
3.21422e-34
-1.35662e-33
3.71925e-35
-7.50795e-35
2.55266e-36
-8.8767e-36
1.10367e-37
-4.0863e-37
6.02868e-39
-7.65633e-39
4.67652e-40
-2.22859e-40
3.6447e-41
-7.3432e-42
3.30343e-42
6.50928e-45
3.00401e-43
1.79605e-44
2.32778e-44
2.57942e-45
1.72549e-45
2.67072e-46
1.24397e-46
2.41172e-47
8.59884e-48
1.9963e-48
5.67501e-49
1.54269e-49
3.56886e-50
1.12214e-50
2.13275e-51
7.70348e-52
1.20734e-52
4.98947e-53
6.45242e-54
3.04378e-54
3.2437e-55
1.74511e-55
1.52785e-56
9.38258e-57
6.71367e-58
4.72023e-58
2.7385e-59
2.21691e-59
1.03079e-60
9.69472e-61
3.55426e-62
3.93447e-62
1.11225e-63
1.47526e-63
3.12051e-65
5.07865e-65
7.72118e-67
1.5906e-66
1.6473e-68
4.47187e-68
2.93546e-70
1.10649e-69
4.17202e-72
2.33997e-71
4.41103e-74
4.04758e-73
3.10365e-76
5.35272e-75
1.195e-78
4.84679e-77
1.69594e-81
2.43098e-79
2.00169e-82
4.13446e-82
3.36755e-84
1.29541e-31
-5.75267e-31
5.50814e-30
-1.56894e-29
3.72033e-30
-1.1235e-29
3.77064e-31
-2.06529e-30
2.58582e-32
-1.5454e-31
2.26114e-33
-9.46585e-33
1.51567e-34
-6.04601e-34
8.23756e-36
-2.75482e-35
3.9665e-37
-9.44027e-37
2.05354e-38
-2.60554e-38
1.788e-39
-6.11487e-40
1.52261e-40
1.79235e-42
1.24231e-41
3.00779e-42
9.04454e-43
4.09272e-43
6.36663e-44
4.04078e-44
4.34955e-45
3.46722e-45
2.84823e-46
2.71663e-46
1.78154e-47
1.98139e-47
1.0626e-48
1.35759e-48
6.03038e-50
8.77245e-50
3.2481e-51
5.35157e-51
1.65583e-52
3.08072e-52
7.96432e-54
1.67153e-53
3.60149e-55
8.53427e-55
1.52485e-56
4.09252e-56
6.01541e-58
1.83913e-57
2.19811e-59
7.7238e-59
7.38649e-61
3.02065e-60
2.26197e-62
1.09487e-61
6.23935e-64
3.65429e-63
1.52685e-65
1.11306e-64
3.24843e-67
3.05508e-66
5.846e-69
7.42259e-68
8.56662e-71
1.55624e-69
9.68065e-73
2.71469e-71
7.78298e-75
3.73438e-73
3.92685e-77
3.73283e-75
9.97722e-80
2.36499e-77
2.61744e-82
7.21452e-80
6.83105e-83
2.11901e-29
-1.0747e-28
3.92775e-28
-1.36339e-27
1.68441e-28
-7.30464e-28
1.38595e-29
-1.09633e-28
8.40993e-31
-7.60637e-30
7.05491e-32
-3.94388e-31
4.5321e-33
-2.41924e-32
2.37857e-34
-1.05362e-33
1.01925e-35
-3.54734e-35
6.44985e-37
-8.64822e-37
4.70882e-38
-2.22973e-38
3.52224e-39
2.43582e-40
2.58257e-40
1.15142e-40
1.70487e-41
1.34163e-41
1.09261e-42
1.18225e-42
6.80461e-44
9.15401e-44
4.07094e-45
6.50099e-45
2.33166e-46
4.30858e-46
1.27598e-47
2.68715e-47
6.65652e-49
1.58298e-48
3.30226e-50
8.81911e-50
1.55377e-51
4.64601e-51
6.91318e-53
2.31226e-52
2.89865e-54
1.08561e-53
1.14077e-55
4.79948e-55
4.19398e-57
1.99343e-56
1.4322e-58
7.75634e-58
4.5115e-60
2.81692e-59
1.29978e-61
9.5038e-61
3.38841e-63
2.96011e-62
7.88477e-65
8.44036e-64
1.60912e-66
2.17828e-65
2.8137e-68
5.0095e-67
4.08488e-70
1.00468e-68
4.71232e-72
1.7047e-70
4.0532e-74
2.3427e-72
2.35763e-76
2.44225e-74
7.89497e-79
1.73824e-76
2.05386e-81
7.11e-79
4.76021e-81
1.18582e-27
-7.73184e-27
1.5948e-26
-6.85515e-26
4.84742e-27
-2.91501e-26
3.46655e-28
-3.61853e-27
2.07118e-29
-2.32693e-28
1.49959e-30
-1.14603e-29
9.31319e-32
-6.0207e-31
4.60829e-33
-2.5557e-32
2.36198e-34
-8.06914e-34
1.40522e-35
-2.24837e-35
9.10575e-37
-4.77973e-37
6.09504e-38
1.26151e-38
3.92541e-39
2.95724e-39
2.3462e-40
2.91119e-40
1.36863e-41
2.27479e-41
7.75511e-43
1.58282e-42
4.23096e-44
1.0163e-43
2.21543e-45
6.11315e-45
1.11072e-46
3.46969e-46
5.31858e-48
1.86425e-47
2.42619e-49
9.49233e-49
1.05152e-50
4.57954e-50
4.31694e-52
2.09144e-51
1.6731e-53
9.02843e-53
6.0975e-55
3.67705e-54
2.07999e-56
1.40956e-55
6.60515e-58
5.07102e-57
1.9399e-59
1.70589e-58
5.22774e-61
5.34133e-60
1.28019e-62
1.54749e-61
2.81454e-64
4.11667e-63
5.47054e-66
9.95405e-65
9.21424e-68
2.15813e-66
1.30936e-69
4.11835e-68
1.51223e-71
6.7408e-70
1.34357e-73
9.11798e-72
8.4407e-76
9.63304e-74
3.27173e-78
7.35384e-76
1.90996e-80
3.56297e-78
7.01981e-80
3.48899e-26
-3.05033e-25
4.34815e-25
-2.3374e-24
1.01793e-25
-8.19523e-25
6.57281e-27
-8.5482e-26
3.99132e-28
-5.09389e-27
2.41193e-29
-2.48762e-28
1.39262e-30
-1.06469e-29
7.77319e-32
-4.1409e-31
4.31891e-33
-1.44327e-32
2.42084e-34
-4.20525e-34
1.42832e-35
-6.44523e-36
8.67905e-37
3.97424e-37
4.9526e-38
5.88753e-38
2.69878e-39
4.94516e-39
1.43907e-40
3.44286e-40
7.44492e-42
2.16108e-41
3.71484e-43
1.25907e-42
1.78271e-44
6.89752e-44
8.20614e-46
3.57513e-45
3.61386e-47
1.75808e-46
1.51854e-48
8.20909e-48
6.07142e-50
3.63856e-49
2.30278e-51
1.52933e-50
8.25736e-53
6.08623e-52
2.78857e-54
2.28885e-53
8.82954e-56
8.1144e-55
2.60768e-57
2.70388e-56
7.13962e-59
8.4382e-58
1.79902e-60
2.45542e-59
4.13537e-62
6.62548e-61
8.57841e-64
1.64617e-62
1.58411e-65
3.73197e-64
2.55829e-67
7.62717e-66
3.52784e-69
1.38234e-67
4.01492e-71
2.17105e-69
3.57919e-73
2.85733e-71
2.33562e-75
3.00676e-73
9.92418e-78
2.42247e-75
9.57453e-80
1.27821e-77
4.6701e-79
6.2168e-25
-8.26078e-24
8.79987e-24
-5.85342e-23
1.67858e-24
-1.74685e-23
1.00016e-25
-1.54522e-24
6.16593e-27
-8.45146e-26
3.8015e-28
-4.05436e-27
2.16986e-29
-1.73473e-28
1.19385e-30
-6.65881e-30
6.46947e-32
-2.24124e-31
3.47272e-33
-5.82949e-33
1.88841e-34
-4.08762e-35
1.05171e-35
8.93458e-36
5.43998e-37
9.59028e-37
2.73549e-38
7.01259e-38
1.34415e-39
4.39823e-39
6.39789e-41
2.51284e-40
2.93952e-42
1.33895e-41
1.3004e-43
6.7283e-43
5.5247e-45
3.20568e-44
2.24817e-46
1.45156e-45
8.73941e-48
6.25079e-47
3.23633e-49
2.55889e-48
1.13822e-50
9.94769e-50
3.78922e-52
3.66657e-51
1.18956e-53
1.27877e-52
3.50643e-55
4.20968e-54
9.65708e-57
1.30425e-55
2.47078e-58
3.78973e-57
5.83309e-60
1.02837e-58
1.26044e-61
2.59258e-60
2.46828e-63
6.03302e-62
4.32578e-65
1.28506e-63
6.67378e-67
2.47788e-65
8.85935e-69
4.25941e-67
9.79034e-71
6.3966e-69
8.70601e-73
8.15294e-71
5.92455e-75
8.72057e-73
2.57189e-77
7.14891e-75
3.34734e-79
3.92353e-77
2.03899e-78
8.69801e-24
-2.06192e-22
1.48936e-22
-1.19588e-21
2.3037e-23
-3.11833e-22
1.2517e-24
-2.22839e-23
7.73819e-26
-1.10237e-24
4.83412e-27
-5.10369e-26
2.79087e-28
-2.14848e-27
1.52475e-29
-8.01979e-29
8.02586e-31
-2.51845e-30
4.13015e-32
-5.42775e-32
2.1292e-33
4.38604e-34
1.08093e-34
1.51341e-34
5.22623e-36
1.28829e-35
2.45845e-37
8.39393e-37
1.12392e-38
4.80621e-38
4.97167e-40
2.52756e-39
2.12276e-41
1.24439e-40
8.72871e-43
5.78962e-42
3.44843e-44
2.55752e-43
1.30572e-45
1.07492e-44
4.72631e-47
4.30102e-46
1.63101e-48
1.6377e-47
5.35013e-50
5.9278e-49
1.66275e-51
2.03641e-50
4.87818e-53
6.62627e-52
1.34543e-54
2.03727e-53
3.47213e-56
5.90132e-55
8.33886e-58
1.60506e-56
1.85197e-59
4.08237e-58
3.77463e-61
9.66206e-60
6.99426e-63
2.11494e-61
1.16413e-64
4.24763e-63
1.71208e-66
7.74402e-65
2.18507e-68
1.26633e-66
2.38817e-70
1.83845e-68
2.15037e-72
2.3407e-70
1.45094e-74
2.48037e-72
6.25296e-77
2.03032e-74
9.63341e-79
1.12013e-76
7.15211e-78
3.51015e-22
-7.09576e-21
2.46991e-21
-2.23548e-20
2.63278e-22
-4.51694e-21
1.28241e-23
-2.52562e-22
7.97538e-25
-1.17555e-23
4.95929e-26
-5.28091e-25
2.84471e-27
-2.16221e-26
1.52981e-28
-7.7355e-28
7.84926e-30
-2.20906e-29
3.93347e-31
-3.17509e-31
1.94844e-32
1.52432e-32
9.27777e-34
1.93713e-33
4.25751e-35
1.39489e-34
1.89547e-36
8.26758e-36
8.16841e-38
4.38796e-37
3.39999e-39
2.15325e-38
1.36458e-40
9.91911e-40
5.27105e-42
4.32339e-41
1.95563e-43
1.79032e-42
6.95368e-45
7.05714e-44
2.36404e-46
2.64945e-45
7.66459e-48
9.47012e-47
2.36312e-49
3.21944e-48
6.90687e-51
1.03935e-49
1.90701e-52
3.18015e-51
4.95429e-54
9.20023e-53
1.20564e-55
2.50953e-54
2.73408e-57
6.43266e-56
5.74271e-59
1.54343e-57
1.10901e-60
3.44996e-59
1.95083e-62
7.1411e-61
3.08721e-64
1.3602e-62
4.37045e-66
2.35896e-64
5.53621e-68
3.7625e-66
5.98819e-70
5.38425e-68
5.28279e-72
6.71422e-70
3.49412e-74
6.99692e-72
1.4622e-76
5.65532e-74
2.50051e-78
3.03615e-76
2.23031e-77
2.82844e-20
-2.49035e-19
2.99373e-20
-2.69854e-19
2.03492e-21
-3.24898e-20
1.03022e-22
-1.75441e-21
6.55979e-24
-8.43007e-23
4.04473e-25
-3.82574e-24
2.30725e-26
-1.55065e-25
1.2361e-27
-5.28675e-27
6.29397e-29
-1.27197e-28
3.09328e-30
1.16621e-31
1.4843e-31
2.21175e-31
6.81343e-33
1.93759e-32
3.01558e-34
1.2393e-33
1.28877e-35
6.83068e-35
5.31221e-37
3.41845e-36
2.10986e-38
1.58967e-37
8.06517e-40
6.95172e-39
2.96302e-41
2.87767e-40
1.04445e-42
1.13166e-41
3.52578e-44
4.23534e-43
1.13739e-45
1.50937e-44
3.49802e-47
5.12047e-46
1.02291e-48
1.65206e-47
2.83574e-50
5.06194e-49
7.42771e-52
1.47018e-50
1.83131e-53
4.0382e-52
4.23166e-55
1.04614e-53
9.11851e-57
2.54793e-55
1.82143e-58
5.81209e-57
3.34745e-60
1.23595e-58
5.64038e-62
2.43493e-60
8.73803e-64
4.47091e-62
1.22076e-65
7.61035e-64
1.5042e-67
1.18164e-65
1.58644e-69
1.64574e-67
1.36355e-71
2.00287e-69
8.7568e-74
2.04055e-71
3.50498e-76
1.61349e-73
6.13876e-78
8.34053e-76
6.4889e-77
8.43002e-19
-4.06707e-18
1.43565e-19
-8.78049e-19
8.8876e-21
-8.26836e-20
5.40332e-22
-5.26843e-21
3.51126e-23
-2.80397e-22
2.17549e-24
-1.31732e-23
1.25352e-25
-5.31222e-25
6.77415e-27
-1.66602e-26
3.47366e-28
-2.4328e-28
1.71325e-29
1.41409e-29
8.08597e-31
1.7528e-30
3.65655e-32
1.26814e-31
1.58861e-33
7.50729e-33
6.63586e-35
3.94528e-34
2.66521e-36
1.90227e-35
1.0289e-37
8.55619e-37
3.81508e-39
3.62359e-38
1.35726e-40
1.4528e-39
4.62662e-42
5.53138e-41
1.50869e-43
2.00316e-42
4.6974e-45
6.90387e-44
1.39347e-46
2.26396e-45
3.92888e-48
7.05816e-47
1.04997e-49
2.08932e-48
2.65139e-51
5.86235e-50
6.30426e-53
1.55592e-51
1.40575e-54
3.8966e-53
2.92587e-56
9.18133e-55
5.65229e-58
2.02845e-56
1.00625e-59
4.18432e-58
1.63908e-61
8.01467e-60
2.44193e-63
1.41951e-61
3.31195e-65
2.33526e-63
3.96094e-67
3.51165e-65
4.05368e-69
4.73879e-67
3.37663e-71
5.58373e-69
2.09403e-73
5.51323e-71
8.17494e-76
4.23375e-73
1.49532e-77
2.23669e-75
1.83688e-76
2.26916e-06
-2.43552e-05
4.34891e-06
-2.48459e-05
6.15624e-06
-2.26844e-05
7.74908e-06
-2.099e-05
9.17583e-06
-1.97324e-05
1.04802e-05
-1.88179e-05
1.17002e-05
-1.8186e-05
1.28672e-05
-1.77934e-05
1.40068e-05
-1.76072e-05
1.51385e-05
-1.7602e-05
1.62776e-05
-1.77581e-05
1.74349e-05
-1.80615e-05
1.86181e-05
-1.85023e-05
1.98314e-05
-1.90747e-05
2.10757e-05
-1.97749e-05
2.23488e-05
-2.05999e-05
2.36446e-05
-2.15435e-05
2.49529e-05
-2.25921e-05
2.62593e-05
-2.37176e-05
2.75458e-05
-2.48696e-05
2.87925e-05
-2.59647e-05
2.9981e-05
-2.68759e-05
3.11011e-05
-2.74203e-05
3.21583e-05
-2.73426e-05
3.31883e-05
-2.62847e-05
2.3295e-05
-2.23567e-05
7.24051e-07
-7.09711e-06
1.22983e-07
-5.70209e-07
1.63295e-08
-5.89619e-08
1.47681e-09
1.75373e-09
0
1.96116e-09
0
6.59608e-10
0
1.74434e-10
0
4.06862e-11
0
8.58162e-12
2.09861e-13
1.45992e-12
1.42372e-13
2.0116e-13
1.2108e-13
8.63424e-14
9.29298e-14
3.11004e-14
6.7336e-14
1.87475e-14
4.45575e-14
1.9797e-14
3.09212e-14
2.29195e-14
2.43628e-14
2.48456e-14
1.65351e-14
2.36467e-14
7.81814e-15
1.80085e-14
1.05944e-14
4.41759e-15
2.18088e-06
-2.65361e-05
4.18116e-06
-2.68462e-05
5.93915e-06
-2.44424e-05
7.50223e-06
-2.2553e-05
8.90953e-06
-2.11397e-05
1.01982e-05
-2.01065e-05
1.14019e-05
-1.93896e-05
1.25495e-05
-1.8941e-05
1.36647e-05
-1.87225e-05
1.47666e-05
-1.87038e-05
1.58697e-05
-1.88611e-05
1.69844e-05
-1.91762e-05
1.81178e-05
-1.96358e-05
1.92736e-05
-2.02304e-05
2.04519e-05
-2.09533e-05
2.16496e-05
-2.17976e-05
2.28598e-05
-2.27537e-05
2.40718e-05
-2.3804e-05
2.52712e-05
-2.49171e-05
2.64413e-05
-2.60396e-05
2.75647e-05
-2.70881e-05
2.86278e-05
-2.79391e-05
2.96273e-05
-2.84198e-05
3.05788e-05
-2.82941e-05
3.15382e-05
-2.72441e-05
1.7481e-05
-2.17819e-05
4.82139e-07
-4.83487e-06
7.42575e-08
-4.11519e-07
7.85341e-09
-3.69614e-08
1.76561e-10
1.98883e-09
0
1.40768e-09
0
4.33577e-10
0
1.06216e-10
0
2.34125e-11
0
4.87762e-12
2.40856e-14
9.92742e-13
4.98568e-14
1.83211e-13
4.97187e-14
6.64244e-14
3.41288e-14
3.82748e-14
2.33913e-14
2.35429e-14
1.74658e-14
1.64007e-14
1.40877e-14
1.38553e-14
1.16198e-14
1.12845e-14
9.41969e-15
9.40264e-15
6.76344e-15
7.58072e-15
5.72053e-15
4.56834e-15
2.09498e-06
-2.86311e-05
4.0178e-06
-2.8769e-05
5.72546e-06
-2.61501e-05
7.25704e-06
-2.40846e-05
8.64404e-06
-2.25267e-05
9.91769e-06
-2.13802e-05
1.11074e-05
-2.05793e-05
1.22391e-05
-2.00727e-05
1.33348e-05
-1.98182e-05
1.44121e-05
-1.97812e-05
1.54848e-05
-1.99338e-05
1.65628e-05
-2.02543e-05
1.76527e-05
-2.07257e-05
1.87576e-05
-2.13353e-05
1.98771e-05
-2.20728e-05
2.10076e-05
-2.29281e-05
2.2142e-05
-2.38881e-05
2.32696e-05
-2.49316e-05
2.43769e-05
-2.60244e-05
2.54489e-05
-2.71116e-05
2.64713e-05
-2.81105e-05
2.7435e-05
-2.89028e-05
2.83419e-05
-2.93267e-05
2.92143e-05
-2.91665e-05
3.0118e-05
-2.81478e-05
1.23066e-05
-2.08076e-05
3.16711e-07
-3.19315e-06
4.31674e-08
-2.91149e-07
3.25862e-09
-2.20229e-08
0
1.80428e-09
0
9.84688e-10
0
2.73605e-10
0
6.30589e-11
0
1.32758e-11
0
2.683e-12
0
5.55718e-13
1.44976e-14
1.27121e-13
2.58578e-14
4.43469e-14
1.91443e-14
2.69685e-14
1.15581e-14
1.56761e-14
7.85746e-15
9.28783e-15
5.9384e-15
6.02342e-15
4.69213e-15
4.20562e-15
3.82714e-15
3.09981e-15
3.10661e-15
2.34677e-15
1.80198e-15
2.51746e-15
2.01234e-06
-3.06434e-05
3.86023e-06
-3.06169e-05
5.51708e-06
-2.78069e-05
7.01541e-06
-2.5583e-05
8.38055e-06
-2.38918e-05
9.63861e-06
-2.26382e-05
1.0815e-05
-2.17557e-05
1.19327e-05
-2.11904e-05
1.30116e-05
-2.0897e-05
1.40679e-05
-2.08375e-05
1.51144e-05
-2.09804e-05
1.61605e-05
-2.13003e-05
1.7212e-05
-2.17772e-05
1.82717e-05
-2.23949e-05
1.93389e-05
-2.314e-05
2.04099e-05
-2.39991e-05
2.14775e-05
-2.49557e-05
2.25317e-05
-2.59859e-05
2.35603e-05
-2.7053e-05
2.45503e-05
-2.81016e-05
2.54906e-05
-2.90508e-05
2.63759e-05
-2.9788e-05
2.72118e-05
-3.01626e-05
2.8023e-05
-2.99778e-05
2.88533e-05
-2.89781e-05
8.0914e-06
-1.92336e-05
2.05991e-07
-2.04419e-06
2.44488e-08
-2.02492e-07
1.09573e-09
-1.25266e-08
0
1.51042e-09
0
6.77244e-10
0
1.72828e-10
0
3.74296e-11
0
7.52194e-12
0
1.47543e-12
0
3.06137e-13
1.22534e-14
7.56909e-14
1.53439e-14
2.86783e-14
1.02276e-14
1.51825e-14
5.71137e-15
8.05125e-15
3.38367e-15
4.17085e-15
2.20748e-15
2.24405e-15
1.59015e-15
1.33933e-15
1.23368e-15
8.78405e-16
9.96817e-16
5.97571e-16
4.00089e-16
8.01728e-16
1.93331e-06
-3.25767e-05
3.70897e-06
-3.23926e-05
5.31485e-06
-2.94128e-05
6.77827e-06
-2.70464e-05
8.11963e-06
-2.52332e-05
9.36068e-06
-2.38793e-05
1.05232e-05
-2.29182e-05
1.16273e-05
-2.22946e-05
1.26908e-05
-2.19605e-05
1.37283e-05
-2.18751e-05
1.47517e-05
-2.20037e-05
1.57693e-05
-2.2318e-05
1.67866e-05
-2.27945e-05
1.7806e-05
-2.34143e-05
1.88266e-05
-2.41606e-05
1.98447e-05
-2.50172e-05
2.08537e-05
-2.59647e-05
2.18443e-05
-2.69765e-05
2.28059e-05
-2.80146e-05
2.37275e-05
-2.90232e-05
2.46008e-05
-2.99241e-05
2.54236e-05
-3.06108e-05
2.62041e-05
-3.09431e-05
2.69671e-05
-3.07408e-05
2.75614e-05
-2.95723e-05
4.54876e-06
-1.72158e-05
1.30748e-07
-1.31301e-06
1.36509e-08
-1.42515e-07
1.79376e-10
-6.84584e-09
0
1.23134e-09
0
4.65205e-10
0
1.09922e-10
0
2.24016e-11
0
4.29422e-12
0
8.18847e-13
2.64427e-15
1.69806e-13
1.18496e-14
4.42988e-14
9.06742e-15
1.77887e-14
5.26479e-15
8.52968e-15
2.64365e-15
3.95556e-15
1.30421e-15
1.69401e-15
7.27571e-16
7.58784e-16
4.71688e-16
3.89146e-16
3.39174e-16
2.26048e-16
2.54195e-16
1.37303e-16
7.90836e-17
1.80829e-16
1.85791e-06
-3.44346e-05
3.5639e-06
-3.40986e-05
5.11885e-06
-3.09678e-05
6.54586e-06
-2.84734e-05
7.86138e-06
-2.65487e-05
9.08351e-06
-2.51014e-05
1.02308e-05
-2.40655e-05
1.13208e-05
-2.33846e-05
1.23692e-05
-2.30089e-05
1.33891e-05
-2.2895e-05
1.4391e-05
-2.30057e-05
1.53828e-05
-2.33097e-05
1.63692e-05
-2.37809e-05
1.73523e-05
-2.43973e-05
1.83312e-05
-2.51395e-05
1.93024e-05
-2.59884e-05
2.02598e-05
-2.69221e-05
2.11952e-05
-2.7912e-05
2.20994e-05
-2.89188e-05
2.29635e-05
-2.98873e-05
2.37814e-05
-3.07421e-05
2.45533e-05
-3.13826e-05
2.52885e-05
-3.16784e-05
2.60111e-05
-3.14634e-05
2.51295e-05
-2.96284e-05
1.99514e-06
-1.46965e-05
8.51658e-08
-9.96709e-07
8.06075e-09
-1.03724e-07
0
-3.5267e-09
0
1.00439e-09
0
3.24434e-10
0
7.08513e-11
0
1.35877e-11
0
2.48407e-12
0
4.61876e-13
4.50855e-15
9.59268e-14
9.06703e-15
2.62796e-14
5.64743e-15
1.13365e-14
2.71841e-15
4.92457e-15
1.12258e-15
1.86757e-15
4.64207e-16
6.614e-16
2.23728e-16
2.51104e-16
1.28362e-16
1.10077e-16
8.3227e-17
5.55285e-17
5.61375e-17
2.98818e-17
1.53005e-17
3.49655e-17
1.78585e-06
-3.62205e-05
3.42454e-06
-3.57372e-05
4.92871e-06
-3.24719e-05
6.31799e-06
-2.98627e-05
7.60565e-06
-2.78363e-05
8.80676e-06
-2.63025e-05
9.93707e-06
-2.51958e-05
1.10118e-05
-2.44592e-05
1.20445e-05
-2.40416e-05
1.3047e-05
-2.38975e-05
1.40286e-05
-2.39873e-05
1.49962e-05
-2.42773e-05
1.59541e-05
-2.47388e-05
1.69042e-05
-2.53473e-05
1.78455e-05
-2.60808e-05
1.87747e-05
-2.69177e-05
1.96866e-05
-2.78339e-05
2.05738e-05
-2.87992e-05
2.14285e-05
-2.97735e-05
2.22436e-05
-3.07024e-05
2.30148e-05
-3.15133e-05
2.37434e-05
-3.21112e-05
2.4439e-05
-3.2374e-05
2.51231e-05
-3.21475e-05
1.97991e-05
-3.04431e-05
6.26316e-07
-1.2269e-05
6.17048e-08
-7.99115e-07
5.18279e-09
-7.53076e-08
0
-1.57064e-09
0
7.97895e-10
0
2.25958e-10
0
4.58469e-11
0
8.32051e-12
0
1.45725e-12
0
2.65142e-13
6.69342e-15
5.48381e-14
6.33285e-15
1.68013e-14
3.46414e-15
7.20233e-15
1.37162e-15
2.75841e-15
4.61019e-16
8.73796e-16
1.62708e-16
2.6383e-16
6.74045e-17
8.5555e-17
3.33881e-17
3.16606e-17
1.90099e-17
1.35736e-17
1.13871e-17
6.37736e-18
2.94191e-18
6.3076e-18
1.71672e-06
-3.79372e-05
3.29015e-06
-3.73107e-05
4.74379e-06
-3.39256e-05
6.09424e-06
-3.12131e-05
7.35217e-06
-2.90943e-05
8.53012e-06
-2.74805e-05
9.64146e-06
-2.63072e-05
1.06992e-05
-2.5517e-05
1.17154e-05
-2.50577e-05
1.27001e-05
-2.48822e-05
1.36616e-05
-2.49489e-05
1.46062e-05
-2.52218e-05
1.55375e-05
-2.56701e-05
1.6457e-05
-2.62669e-05
1.7364e-05
-2.69878e-05
1.82555e-05
-2.78092e-05
1.91267e-05
-2.87051e-05
1.99714e-05
-2.96439e-05
2.0783e-05
-3.0585e-05
2.15556e-05
-3.14751e-05
2.22865e-05
-3.22441e-05
2.29773e-05
-3.28021e-05
2.36372e-05
-3.30339e-05
2.42843e-05
-3.27945e-05
1.71356e-05
-3.02607e-05
3.6622e-07
-1.0092e-05
4.53129e-08
-6.42075e-07
3.31559e-09
-5.39513e-08
0
-4.65427e-10
0
6.05125e-10
0
1.53778e-10
0
2.93671e-11
0
5.09637e-12
0
8.63775e-13
1.25773e-15
1.54474e-13
6.86198e-15
3.21554e-14
4.3979e-15
1.13681e-14
2.008e-15
4.51513e-15
6.65088e-16
1.49117e-15
1.90901e-16
4.11708e-16
5.84067e-17
1.09321e-16
2.06215e-17
3.06169e-17
8.63207e-18
9.54723e-18
4.21201e-18
3.42537e-18
2.21153e-18
1.37917e-18
5.68516e-19
1.09799e-18
1.64998e-06
-3.95872e-05
3.15995e-06
-3.88207e-05
4.56334e-06
-3.5329e-05
5.87406e-06
-3.25239e-05
7.10059e-06
-3.03208e-05
8.25337e-06
-2.86333e-05
9.34372e-06
-2.73975e-05
1.03828e-05
-2.65561e-05
1.1381e-05
-2.60559e-05
1.23472e-05
-2.58484e-05
1.32887e-05
-2.58903e-05
1.42106e-05
-2.61438e-05
1.51165e-05
-2.6576e-05
1.60075e-05
-2.71579e-05
1.68829e-05
-2.78632e-05
1.774e-05
-2.86663e-05
1.85746e-05
-2.95397e-05
1.93814e-05
-3.04507e-05
2.01548e-05
-3.13584e-05
2.08901e-05
-3.22104e-05
2.15853e-05
-3.29393e-05
2.22425e-05
-3.34593e-05
2.28698e-05
-3.36612e-05
2.34822e-05
-3.34069e-05
1.47859e-05
-2.97967e-05
2.92671e-07
-8.14437e-06
3.31613e-08
-5.08051e-07
1.93952e-09
-3.77369e-08
0
9.43797e-11
0
4.47611e-10
0
1.03293e-10
0
1.86844e-11
0
3.13947e-12
0
5.21524e-13
2.51053e-15
9.20791e-14
5.30537e-15
1.96304e-14
3.00033e-15