/*--------------------------------*- C++ -*----------------------------------*\
  =========                 |
  \\      /  F ield         | OpenFOAM: The Open Source CFD Toolbox
   \\    /   O peration     | Website:  https://openfoam.org
    \\  /    A nd           | Version:  9
     \\/     M anipulation  |
\*---------------------------------------------------------------------------*/
FoamFile
{
    format      ascii;
    class       volScalarField;
    location    "0.1";
    object      epsilon;
}
// * * * * * * * * * * * * * * * * * * * * * * * * * * * * * * * * * * * * * //

dimensions      [0 2 -3 0 0 0 0];

internalField   nonuniform List<scalar> 
7700
(
0.16712
0.327197
0.478288
0.594233
0.680813
0.745804
0.79543
0.83452
0.866786
0.895059
0.921518
0.947892
0.975627
1.00604
1.04046
1.08031
1.12723
1.18305
1.24967
1.3287
1.4206
1.52345
1.63152
1.73388
1.81466
1.85617
1.8448
1.77615
1.66559
1.5583
1.4628
1.38962
1.34569
1.33728
1.32617
1.2555
1.14927
1.04487
0.945578
0.850021
0.754647
0.661888
0.571052
0.472502
0.372678
0.0786454
0.251957
0.268158
0.297789
0.319301
0.33423
0.344797
0.352657
0.358966
0.364517
0.369857
0.375377
0.381384
0.388145
0.395937
0.405076
0.415948
0.429026
0.444871
0.464074
0.487122
0.514127
0.544423
0.576109
0.605807
0.629118
0.64221
0.644176
0.638558
0.631497
0.632267
0.629113
0.61942
0.607211
0.599567
0.598899
0.60092
0.613955
0.641007
0.673876
0.683127
0.641484
0.574286
0.510784
0.451203
0.370131
0.343226
0.325815
0.284956
0.279989
0.276399
0.272968
0.270057
0.26794
0.266745
0.266511
0.267224
0.26886
0.271406
0.274885
0.279368
0.284988
0.29195
0.300522
0.311019
0.323736
0.338827
0.356102
0.374775
0.393243
0.409119
0.419833
0.424006
0.423151
0.421739
0.42438
0.433903
0.446436
0.460061
0.47773
0.503946
0.534663
0.558079
0.576164
0.602913
0.631605
0.632867
0.589289
0.527459
0.477288
0.439951
0.402315
0.506641
0.377203
0.299995
0.2759
0.259213
0.246529
0.237013
0.230119
0.225413
0.222538
0.221207
0.221198
0.222355
0.224592
0.227888
0.232293
0.237918
0.244924
0.253482
0.263706
0.275539
0.288594
0.301995
0.314294
0.323658
0.328493
0.328616
0.326402
0.326078
0.331131
0.343625
0.363509
0.390778
0.425418
0.472466
0.534703
0.589072
0.596384
0.569432
0.549082
0.528556
0.492097
0.452396
0.425914
0.413992
0.416687
0.649476
0.413992
0.309599
0.273321
0.248629
0.23035
0.216852
0.207081
0.200254
0.195776
0.193194
0.192173
0.192475
0.193944
0.196505
0.200146
0.204911
0.210873
0.218097
0.226566
0.23609
0.246189
0.256009
0.264333
0.269837
0.27165
0.270281
0.268292
0.269197
0.275779
0.290397
0.31497
0.346712
0.386983
0.441638
0.503211
0.538513
0.521756
0.476447
0.443231
0.421728
0.399069
0.380263
0.374767
0.385359
0.423751
0.775674
0.441438
0.315138
0.270636
0.240796
0.218926
0.202842
0.191171
0.182914
0.177325
0.17385
0.172082
0.171727
0.172586
0.174537
0.177523
0.181529
0.186562
0.192601
0.199544
0.207133
0.214879
0.222032
0.227658
0.230892
0.231393
0.230039
0.2292
0.231478
0.238925
0.254088
0.277144
0.307161
0.348859
0.398019
0.437195
0.445642
0.418864
0.381525
0.355892
0.340368
0.328513
0.323743
0.332802
0.36104
0.430698
0.894985
0.462752
0.318113
0.267823
0.234573
0.210334
0.192512
0.179529
0.170251
0.16384
0.159678
0.157308
0.1564
0.156721
0.158116
0.160488
0.163777
0.167934
0.172883
0.178475
0.184431
0.190312
0.19552
0.199405
0.201488
0.201802
0.201399
0.202251
0.205981
0.213556
0.226399
0.246041
0.275006
0.310879
0.343733
0.362339
0.35855
0.335919
0.310399
0.292972
0.282949
0.278271
0.28222
0.301091
0.343533
0.442845
1.02048
0.47991
0.319593
0.265083
0.229512
0.203677
0.184661
0.170747
0.160717
0.153676
0.148963
0.146091
0.144703
0.14454
0.145421
0.147218
0.149836
0.153189
0.157166
0.161601
0.166233
0.170704
0.174586
0.177486
0.179235
0.180122
0.18127
0.184185
0.189578
0.197238
0.207894
0.225993
0.25113
0.276276
0.294106
0.299946
0.292206
0.275451
0.258718
0.247472
0.241918
0.242244
0.252041
0.278359
0.334087
0.467608
1.17326
0.494164
0.320258
0.262573
0.225375
0.198441
0.17859
0.164003
0.153408
0.145875
0.140714
0.137418
0.135611
0.135015
0.135429
0.136702
0.138714
0.141356
0.144504
0.147993
0.151609
0.155087
0.158162
0.160666
0.162668
0.164636
0.167688
0.172926
0.180453
0.188641
0.198113
0.21431
0.233005
0.24754
0.254547
0.253255
0.244587
0.232171
0.220984
0.213942
0.211761
0.215732
0.229943
0.262965
0.333886
0.516659
1.39208
0.506334
0.32051
0.260363
0.221992
0.194285
0.173842
0.158762
0.147739
0.139816
0.134289
0.130636
0.128466
0.127491
0.127491
0.128301
0.129786
0.131825
0.134295
0.137052
0.139935
0.14278
0.145469
0.148019
0.150677
0.154035
0.159153
0.166827
0.176904
0.185734
0.194511
0.207546
0.218682
0.224259
0.224035
0.21894
0.210394
0.200845
0.193059
0.188783
0.189011
0.19564
0.213353
0.252826
0.342898
0.605424
1.7345
0.0737735
0.0846599
0.459029
0.550875
0.609072
0.642884
0.660116
0.666668
0.666773
0.663308
0.658097
0.652686
0.649084
0.645692
0.64237
0.639154
0.636054
0.633051
0.630122
0.627249
0.624429
0.621664
0.618958
0.616309
0.6137
0.6111
0.608445
0.605635
0.602505
0.598792
0.594079
0.587709
0.578656
0.565342
0.545358
0.515046
0.468816
0.398352
0.365817
0.124732
0.246678
0.255836
0.288946
0.306388
0.315811
0.320442
0.322354
0.322826
0.322599
0.322076
0.321478
0.321036
0.321117
0.321217
0.321216
0.32111
0.320918
0.320658
0.320342
0.319979
0.319577
0.31914
0.318675
0.318189
0.31769
0.317183
0.316674
0.316161
0.315638
0.315086
0.314463
0.313686
0.312593
0.310884
0.308007
0.302975
0.29403
0.277931
0.245899
0.248007
0.322441
0.275804
0.270741
0.265693
0.260051
0.254828
0.250618
0.247571
0.245576
0.244411
0.243845
0.243709
0.243958
0.244323
0.244668
0.244941
0.245132
0.245243
0.245284
0.245266
0.245199
0.245091
0.244951
0.244789
0.244616
0.244447
0.244298
0.244195
0.244171
0.24427
0.244555
0.245105
0.246011
0.247364
0.249219
0.251541
0.254128
0.256717
0.261239
0.328193
0.375407
0.29227
0.269303
0.251564
0.236859
0.225379
0.216981
0.211212
0.20751
0.205324
0.204188
0.203741
0.203777
0.204035
0.204359
0.204666
0.20492
0.20511
0.205237
0.20531
0.205335
0.205323
0.205283
0.205226
0.205167
0.205125
0.205125
0.205207
0.205427
0.205868
0.206649
0.207932
0.209941
0.212967
0.217388
0.223701
0.232645
0.245793
0.270015
0.389356
0.416103
0.309666
0.275686
0.248043
0.22571
0.208857
0.196816
0.188614
0.183293
0.180034
0.178192
0.177281
0.176992
0.177036
0.177229
0.177465
0.177688
0.177872
0.17801
0.178102
0.178156
0.178179
0.17818
0.178173
0.178173
0.178204
0.178299
0.178509
0.178908
0.179604
0.180753
0.182571
0.185361
0.189536
0.195674
0.204612
0.217709
0.237795
0.275131
0.434606
0.452601
0.335124
0.291806
0.253149
0.222291
0.199692
0.183938
0.173338
0.16644
0.162122
0.159555
0.158147
0.157501
0.157294
0.157317
0.157442
0.157596
0.157739
0.157856
0.157942
0.158
0.158034
0.158055
0.158077
0.158116
0.158201
0.158372
0.158688
0.159238
0.160148
0.1616
0.163848
0.167243
0.172281
0.179669
0.190476
0.206487
0.231432
0.278108
0.467776
0.495268
0.379395
0.321861
0.267358
0.225206
0.195663
0.175795
0.162716
0.154263
0.148924
0.145657
0.143768
0.14277
0.142308
0.142151
0.14215
0.14222
0.142308
0.142391
0.142458
0.142508
0.142544
0.142576
0.142616
0.142686
0.142816
0.143053
0.143464
0.144148
0.145246
0.146959
0.149564
0.153449
0.159164
0.167507
0.179706
0.197849
0.226313
0.27979
0.491974
0.572184
0.455344
0.369284
0.29071
0.233236
0.195234
0.170818
0.155211
0.145262
0.138975
0.135068
0.132738
0.131413
0.13071
0.130377
0.130252
0.130233
0.130262
0.130305
0.130348
0.130385
0.130417
0.130454
0.130509
0.130605
0.130776
0.131073
0.13157
0.132375
0.133641
0.13558
0.13849
0.142782
0.149044
0.158138
0.171407
0.191156
0.222227
0.280703
0.509554
0.763256
0.574613
0.433805
0.320356
0.243947
0.196647
0.167677
0.149709
0.13843
0.131321
0.126873
0.124156
0.122544
0.121627
0.121134
0.120891
0.120788
0.120757
0.12076
0.120777
0.120798
0.120825
0.120864
0.120932
0.121051
0.121258
0.12161
0.122187
0.123102
0.124518
0.126657
0.129829
0.134464
0.141176
0.150877
0.164988
0.185972
0.219005
0.28117
0.52228
1.16096
0.727644
0.502474
0.346902
0.252653
0.197608
0.16506
0.145296
0.133015
0.125282
0.120422
0.117399
0.115552
0.114453
0.113822
0.113475
0.113295
0.113209
0.113173
0.113163
0.113169
0.113189
0.11323
0.113308
0.113448
0.11369
0.114093
0.114742
0.115758
0.117308
0.119624
0.123023
0.127951
0.135041
0.145238
0.160025
0.181975
0.216499
0.281395
0.531469
0.516991
0.320568
0.258448
0.219199
0.190935
0.170062
0.154618
0.143265
0.135033
0.129206
0.125252
0.122772
0.121466
0.121106
0.121517
0.122556
0.124101
0.126037
0.128254
0.13065
0.133154
0.135781
0.138694
0.142274
0.147195
0.154426
0.164499
0.177029
0.186529
0.19507
0.203505
0.20696
0.205423
0.200451
0.193334
0.185207
0.177537
0.171883
0.169424
0.171294
0.179729
0.199856
0.2439
0.346756
0.625375
1.31389
0.526618
0.320553
0.25679
0.216863
0.188193
0.167011
0.151298
0.139694
0.13122
0.12515
0.120946
0.118204
0.116617
0.115952
0.116027
0.1167
0.117853
0.11939
0.121236
0.123348
0.125747
0.128555
0.132056
0.136731
0.143308
0.152665
0.165105
0.179789
0.190669
0.198668
0.201325
0.197602
0.190547
0.182373
0.174123
0.166404
0.159957
0.155656
0.154366
0.157255
0.166649
0.187657
0.232187
0.33172
0.572612
1.11834
0.535419
0.32052
0.255357
0.214893
0.185924
0.164522
0.148617
0.136828
0.128168
0.121907
0.117502
0.114545
0.112726
0.111809
0.111612
0.111995
0.112851
0.114107
0.115724
0.117719
0.12019
0.123353
0.127591
0.133465
0.141748
0.153262
0.168208
0.185332
0.198331
0.204749
0.200927
0.190731
0.179252
0.168735
0.159719
0.152266
0.146592
0.143142
0.142567
0.145971
0.155552
0.175909
0.217154
0.303362
0.495483
0.898682
0.543584
0.320497
0.254103
0.213201
0.184011
0.162457
0.146418
0.134498
0.125701
0.119293
0.114731
0.111602
0.109597
0.108478
0.108066
0.108228
0.108871
0.109944
0.111448
0.113452
0.116125
0.119765
0.124837
0.131973
0.142003
0.155754
0.173481
0.193626
0.208999
0.212634
0.202162
0.18618
0.171001
0.158589
0.148919
0.141568
0.136352
0.133417
0.133232
0.136762
0.145926
0.164541
0.200396
0.270009
0.408788
0.655675
0.55125
0.320492
0.25299
0.211719
0.182363
0.160706
0.14458
0.132572
0.123678
0.117164
0.112482
0.109222
0.107071
0.105797
0.105222
0.105222
0.10572
0.106691
0.10817
0.110279
0.113246
0.117444
0.123412
0.131856
0.143678
0.159774
0.180595
0.204274
0.221778
0.221507
0.204599
0.183511
0.165174
0.151131
0.14083
0.133437
0.128457
0.125803
0.12577
0.12914
0.137476
0.153732
0.183446
0.23687
0.33113
0.474092
0.558514
0.320509
0.251985
0.210393
0.180911
0.159187
0.14301
0.130948
0.121993
0.115405
0.110638
0.10728
0.105022
0.103631
0.102937
0.102826
0.103237
0.104168
0.105691
0.107972
0.111299
0.116109
0.123014
0.132798
0.146462
0.165014
0.189187
0.216685
0.235619
0.23057
0.207675
0.182182
0.161161
0.145691
0.13477
0.127232
0.122334
0.119794
0.119743
0.122755
0.130022
0.143681
0.167382
0.206886
0.26914
0.351772
0.565449
0.320543
0.251062
0.209184
0.179602
0.157839
0.141637
0.12955
0.12056
0.113928
0.109104
0.105679
0.103344
0.10187
0.101096
0.100915
0.101284
0.102224
0.103841
0.106344
0.110073
0.11553
0.123398
0.134551
0.150102
0.171211
0.198907
0.230287
0.249513
0.23913
0.210864
0.181681
0.158427
0.141728
0.130217
0.122472
0.117552
0.115011
0.114822
0.117357
0.123452
0.134554
0.152884
0.181335
0.222002
0.270598
0.572104
0.32059
0.250202
0.208063
0.178402
0.156618
0.140412
0.128319
0.119317
0.112663
0.107807
0.104339
0.101954
0.100427
0.099602
0.0993852
0.0997478
0.100735
0.102483
0.105242
0.109403
0.115529
0.124378
0.13692
0.154398
0.178144
0.209473
0.244734
0.262788
0.246737
0.213793
0.181609
0.15655
0.138819
0.126773
0.118795
0.113788
0.11117
0.110768
0.112767
0.117697
0.126462
0.140297
0.16045
0.187032
0.216392
0.578517
0.320644
0.24939
0.207009
0.177282
0.155492
0.139295
0.127213
0.118216
0.111558
0.106688
0.103199
0.100786
0.0992287
0.0983786
0.0981524
0.0985368
0.0995992
0.101505
0.104544
0.109156
0.115966
0.125808
0.139755
0.159187
0.185628
0.220703
0.259626
0.274952
0.253186
0.216257
0.18169
0.155212
0.136645
0.124135
0.115924
0.110798
0.108057
0.107403
0.108856
0.112703
0.119446
0.129693
0.143839
0.16134
0.179584
0.58471
0.3207
0.248615
0.206008
0.176227
0.154439
0.138262
0.126202
0.117222
0.110574
0.105706
0.102211
0.099787
0.0982189
0.0973638
0.0971492
0.097577
0.0987358
0.10082
0.104156
0.109232
0.116735
0.127577
0.142941
0.164343
0.193506
0.232365
0.274337
0.285647
0.258398
0.218155
0.181749
0.154191
0.134968
0.122074
0.113653
0.108397
0.105512
0.104595
0.105531
0.108417
0.113481
0.120957
0.130839
0.142471
0.154095
0.590701
0.320754
0.247868
0.205052
0.175224
0.153445
0.137295
0.125264
0.11631
0.109682
0.104827
0.101339
0.0989187
0.0973542
0.0965098
0.0963232
0.096811
0.0980822
0.100359
0.104003
0.109553
0.117756
0.129606
0.146393
0.169771
0.201647
0.244224
0.288309
0.294626
0.26237
0.219463
0.181685
0.153335
0.133619
0.120424
0.111824
0.106445
0.103415
0.102246
0.102716
0.104782
0.108494
0.113876
0.12076
0.128561
0.136116
0.596498
0.320801
0.247146
0.204132
0.174265
0.152499
0.136381
0.124385
0.115464
0.108863
0.10403
0.100558
0.0981509
0.0966015
0.0957801
0.0956342
0.0961948
0.0975906
0.100071
0.104033
0.110064
0.118972
0.131834
0.150052
0.175407
0.209971
0.256131
0.30118
0.301796
0.265188
0.220225
0.18146
0.152548
0.132477
0.11906
0.110323
0.104838
0.101677
0.100281
0.100347
0.101736
0.104384
0.108207
0.112987
0.118254
0.123239
0.602106
0.320838
0.246442
0.203244
0.173344
0.151596
0.135513
0.123556
0.114671
0.108102
0.103296
0.0998475
0.0974622
0.0959364
0.0951474
0.0950521
0.0956954
0.0972254
0.0999174
0.104206
0.110722
0.120341
0.134222
0.153879
0.181218
0.218451
0.268027
0.312777
0.307348
0.267085
0.220556
0.181081
0.151777
0.131462
0.117894
0.109063
0.1035
0.100228
0.0986386
0.0983687
0.0992126
0.101039
0.103712
0.107013
0.110582
0.1139
0.607528
0.320863
0.245753
0.202385
0.172458
0.150731
0.134685
0.122768
0.113923
0.107389
0.102615
0.0991947
0.0968368
0.0953413
0.0945918
0.0945548
0.0952887
0.0969606
0.0998719
0.104492
0.1115
0.121834
0.13674
0.157848
0.187189
0.227105
0.279921
0.323144
0.311716
0.268384
0.220598
0.180573
0.15099
0.13052
0.116865
0.107982
0.102369
0.0990154
0.0972699
0.0967296
0.0971451
0.098346
0.100176
0.102436
0.10485
0.107063
0.612765
0.320873
0.245077
0.20155
0.171603
0.1499
0.133893
0.122019
0.113214
0.106718
0.101978
0.0985901
0.0962637
0.0948035
0.0940992
0.0941267
0.0949576
0.096778
0.0999149
0.104873
0.112378
0.123433
0.139372
0.161945
0.193318
0.235973
0.291787
0.332363
0.315365
0.269357
0.220449
0.179951
0.150164
0.12961
0.115926
0.107034
0.101403
0.0979957
0.0961328
0.0953825
0.0954686
0.0961999
0.097415
0.0989392
0.10056
0.102027
0.61782
0.320867
0.244411
0.200738
0.170776
0.149102
0.133135
0.121305
0.112542
0.106085
0.101381
0.0980272
0.0957355
0.0943143
0.0936596
0.0937565
0.09469
0.0966648
0.100033
0.105334
0.113342
0.125124
0.142105
0.166158
0.199595
0.245077
0.303426
0.340304
0.318482
0.270063
0.220105
0.179195
0.149277
0.128707
0.115048
0.106186
0.100568
0.0971355
0.0951909
0.0942839
0.0941223
0.0945054
0.0952745
0.096277
0.097347
0.0983035
0.622695
0.320842
0.243752
0.199947
0.169977
0.148333
0.132409
0.120623
0.111903
0.105486
0.10082
0.0975014
0.0952466
0.0938674
0.093266
0.0934367
0.0944779
0.0966127
0.100219
0.10587
0.114387
0.126902
0.144933
0.170476
0.206006
0.2544
0.314559
0.346776
0.320908
0.27036
0.219485
0.178265
0.148304
0.127788
0.114207
0.105413
0.0998376
0.096407
0.0944128
0.093394
0.0930506
0.0931788
0.0936257
0.0942578
0.0949425
0.0955445
0.627389
0.320795
0.243099
0.199173
0.169202
0.147592
0.131712
0.119972
0.111295
0.104919
0.100291
0.0970097
0.0947936
0.0934588
0.0929138
0.0931624
0.0943162
0.0966168
0.100467
0.106475
0.115508
0.128765
0.147853
0.174896
0.212531
0.263862
0.325145
0.352008
0.322482
0.270097
0.218509
0.177126
0.147229
0.126841
0.113389
0.1047
0.0991922
0.0957874
0.093771
0.0926776
0.0922041
0.0921481
0.0923636
0.0927323
0.0931457
0.0934993
0.631903
0.320725
0.242449
0.198417
0.168451
0.146878
0.131044
0.11935
0.110717
0.104382
0.0997925
0.0965497
0.0943739
0.0930858
0.0926002
0.0929306
0.0942019
0.0966745
0.100776
0.107149
0.116708
0.130714
0.150868
0.179418
0.219163
0.27339
0.335543
0.356652
0.323325
0.269277
0.217166
0.175774
0.146047
0.125861
0.112585
0.104032
0.0986163
0.0952579
0.093242
0.0921034
0.0915401
0.0913528
0.0914028
0.0915841
0.0918055
0.0919833
0.636236
0.320631
0.241801
0.197675
0.16772
0.146189
0.130403
0.118756
0.110168
0.103874
0.0993238
0.0961201
0.093986
0.0927466
0.0923235
0.0927397
0.0941342
0.0967858
0.101148
0.107896
0.117991
0.132758
0.153987
0.184051
0.225915
0.283064
0.346039
0.361073
0.323718
0.268027
0.215506
0.174225
0.144764
0.124846
0.111791
0.103402
0.0980983
0.0948031
0.0928059
0.0916451
0.0910222
0.0907428
0.0906751
0.0907227
0.0908073
0.0908596
0.640387
0.32051
0.241154
0.196946
0.16701
0.145524
0.129788
0.118189
0.109646
0.103394
0.0988837
0.09572
0.093629
0.0924406
0.0920832
0.0925898
0.0941135
0.0969523
0.101585
0.108721
0.119366
0.134907
0.157222
0.188806
0.232798
0.292909
0.356621
0.365437
0.323872
0.266462
0.213582
0.172503
0.143391
0.123799
0.111004
0.102805
0.0976293
0.0944107
0.0924463
0.0912805
0.0906204
0.0902774
0.0901261
0.090078
0.0900643
0.090026
0.644354
0.320361
0.240505
0.196229
0.166318
0.144881
0.129197
0.117649
0.109151
0.102941
0.0984716
0.095349
0.0933028
0.0921678
0.0918797
0.0924821
0.0941422
0.0971778
0.102094
0.109633
0.120846
0.137179
0.160593
0.1937
0.23981
0.302881
0.367141
0.369651
0.323766
0.264591
0.211408
0.170624
0.141938
0.122728
0.110226
0.102237
0.0972032
0.0940715
0.09215
0.0909917
0.0903107
0.0899244
0.0897135
0.0895963
0.0895112
0.0894065
0.648139
0.320182
0.239852
0.195521
0.165644
0.14426
0.128631
0.117133
0.108682
0.102516
0.0980876
0.0950073
0.0930079
0.0919294
0.091715
0.092419
0.0942239
0.0974678
0.102682
0.110645
0.122449
0.139599
0.16413
0.198759
0.246956
0.312928
0.377414
0.373442
0.32322
0.262341
0.208976
0.168597
0.140418
0.121639
0.10946
0.101698
0.0968163
0.0937787
0.0919073
0.090765
0.0900742
0.0896586
0.0894049
0.0892369
0.0890986
0.0889443
0.651741
0.319968
0.239193
0.194822
0.164986
0.14366
0.128089
0.116643
0.10824
0.102118
0.0977324
0.0946961
0.092746
0.0917275
0.0915919
0.0924048
0.0943645
0.0978302
0.103362
0.111771
0.124197
0.142196
0.167873
0.204029
0.254266
0.323015
0.38722
0.376503
0.322015
0.25963
0.206276
0.16644
0.138849
0.120546
0.108713
0.101191
0.0964673
0.0935282
0.091711
0.0905902
0.0898967
0.0894611
0.0891757
0.0889692
0.0887903
0.0885977
0.655159
0.319715
0.238526
0.19413
0.164344
0.143081
0.12757
0.11618
0.107825
0.101749
0.0974076
0.0944177
0.0925201
0.0915661
0.0915155
0.0924457
0.0945717
0.0982752
0.104145
0.113031
0.126116
0.145012
0.171879
0.209581
0.261807
0.333145
0.396293
0.378521
0.319976
0.256418
0.203334
0.16419
0.13726
0.119467
0.107995
0.100719
0.096157
0.0933183
0.091557
0.0904602
0.089768
0.0893179
0.0890078
0.0887708
0.0885595
0.0883361
0.658389
0.319419
0.23785
0.193447
0.16372
0.142525
0.127078
0.115744
0.10744
0.101411
0.0971161
0.0941756
0.0923348
0.091451
0.0914929
0.0925505
0.0948564
0.0988158
0.105049
0.114446
0.128238
0.148091
0.176219
0.21552
0.269708
0.3434
0.404332
0.379225
0.317036
0.252763
0.200232
0.16191
0.135691
0.118423
0.107318
0.100289
0.0958886
0.0931493
0.0914434
0.0903709
0.0896813
0.0892195
0.0888885
0.0886256
0.0883868
0.0881373
0.661425
0.319074
0.237164
0.192772
0.163115
0.141993
0.126613
0.115337
0.107087
0.101107
0.0968625
0.0939758
0.0921971
0.0913907
0.0915344
0.0927315
0.0952327
0.0994685
0.106093
0.116039
0.130595
0.151485
0.180977
0.221987
0.278183
0.353998
0.411115
0.378545
0.313347
0.248864
0.197119
0.159688
0.134188
0.117441
0.106696
0.0999104
0.0956672
0.0930241
0.0913708
0.0903205
0.0896327
0.0891593
0.0888087
0.0885221
0.0882585
0.0879856
0.664261
0.31868
0.236471
0.192111
0.162531
0.141488
0.126178
0.114964
0.10677
0.100844
0.0966539
0.0938266
0.0921175
0.0913976
0.0916545
0.0930052
0.0957194
0.100254
0.107299
0.117837
0.133217
0.155239
0.186238
0.229149
0.287546
0.365332
0.416698
0.376825
0.309367
0.245065
0.194189
0.157621
0.132799
0.116544
0.106144
0.0995922
0.0954999
0.0929474
0.0913416
0.0903094
0.0896202
0.0891334
0.0887625
0.0884523
0.0881647
0.0878696
0.666901
0.318241
0.235778
0.191466
0.161973
0.141014
0.125778
0.11463
0.106497
0.10063
0.0965004
0.0937404
0.0921105
0.0914889
0.0918731
0.0933942
0.0963413
0.101199
0.108694
0.119864
0.136131
0.159387
0.192066
0.237168
0.298181
0.377884
0.421454
0.374892
0.305777
0.24175
0.19162
0.155782
0.131556
0.115752
0.105677
0.0993468
0.0953963
0.092926
0.0913601
0.0903394
0.0896437
0.0891396
0.0887458
0.0884108
0.0880987
0.0877813
0.669391
0.317783
0.2351
0.190846
0.161444
0.140574
0.125418
0.114342
0.106276
0.100475
0.0964162
0.0937343
0.0921963
0.0916881
0.0922173
0.0939287
0.0971311
0.102336
0.110311
0.122149
0.139356
0.163938
0.198478
0.246129
0.310444
0.391869
0.425542
0.373564
0.303104
0.239126
0.189463
0.154182
0.130466
0.115077
0.105309
0.0991882
0.0953681
0.0929687
0.0914323
0.0904138
0.089704
0.0891769
0.0887562
0.0883935
0.0880553
0.0877149
0.671874
0.317358
0.234467
0.190262
0.16095
0.140173
0.125104
0.11411
0.106121
0.100398
0.0964212
0.0938318
0.0924026
0.0920272
0.0927234
0.0946495
0.0981326
0.10371
0.112189
0.12472
0.142898
0.168866
0.205404
0.255945
0.324408
0.406467
0.428175
0.372786
0.3012
0.236998
0.187578
0.152748
0.12951
0.114524
0.105055
0.0991331
0.0954293
0.0930859
0.0915647
0.0905363
0.0898024
0.0892447
0.0887915
0.0883975
0.088031
0.087666
0.674706
0.317076
0.233925
0.189727
0.160494
0.139816
0.124847
0.113947
0.10605
0.10042
0.0965422
0.0940643
0.0927659
0.0925487
0.0934401
0.0956107
0.0994037
0.10538
0.114381
0.127614
0.146763
0.174114
0.212677
0.266256
0.339404
0.419912
0.428986
0.37165
0.299186
0.234771
0.185642
0.151349
0.128652
0.114103
0.104939
0.0992037
0.0955972
0.0932894
0.0917649
0.0907108
0.0899404
0.0893427
0.0888504
0.0884207
0.0880219
0.0876308
0.678756
0.317346
0.23363
0.189286
0.160092
0.139514
0.12466
0.113874
0.106088
0.100571
0.0968145
0.094473
0.0933343
0.0933081
0.0944311
0.0968839
0.101023
0.107426
0.116963
0.130886
0.15096
0.17961
0.22007
0.276514
0.354029
0.432257
0.429702
0.3694
0.295972
0.231717
0.183329
0.149866
0.127871
0.113826
0.104982
0.0994224
0.0958901
0.0935919
0.0920401
0.0909408
0.0901188
0.0894699
0.0889309
0.0884593
0.0880259
0.0876064
0.685816
0.319261
0.233948
0.189061
0.159795
0.139303
0.124577
0.113926
0.106273
0.100892
0.0972831
0.0951098
0.0941681
0.0943763
0.0957787
0.0985634
0.103094
0.109959
0.120042
0.134626
0.155537
0.185306
0.227376
0.286287
0.367661
0.444048
0.429954
0.364983
0.290667
0.227344
0.180359
0.148172
0.127122
0.113688
0.105192
0.0997964
0.0963123
0.093995
0.0923901
0.0912245
0.0903352
0.089624
0.08903
0.0885115
0.0880395
0.0875899
0.695775
0.324099
0.235249
0.189243
0.159712
0.139258
0.124659
0.114154
0.106653
0.101432
0.0980027
0.0960371
0.0953413
0.0958413
0.0975874
0.100771
0.105758
0.113134
0.123782
0.138987
0.160593
0.19119
0.234381
0.295058
0.379501
0.453057
0.427058
0.356791
0.282461
0.22119
0.176527
0.146193
0.126388
0.113691
0.105574
0.10033
0.096864
0.0944959
0.0928103
0.0915568
0.090584
0.0897989
0.089142
0.088573
0.0880597
0.0875783
0.707852
0.335313
0.238171
0.189992
0.160001
0.139526
0.125015
0.114641
0.107293
0.102251
0.0990339
0.0973256
0.0969399
0.097809
0.0999865
0.103663
0.109196
0.117159
0.128411
0.144204
0.166338
0.197377
0.240957
0.302202
0.388005
0.454228
0.416234
0.342466
0.270307
0.2129
0.171752
0.143933
0.125688
0.113847
0.106131
0.101017
0.097536
0.0950837
0.0932897
0.0919272
0.0908561
0.0899872
0.0892613
0.0886368
0.0880812
0.0875678
0.727132
0.360574
0.243927
0.1919
0.161038
0.140363
0.12584
0.115523
0.108286
0.103421
0.10045
0.0990598
0.099069
0.100412
0.103141
0.10744
0.113652
0.122323
0.134265
0.150656
0.173187
0.204261
0.247311
0.307401
0.391962
0.443031
0.393185
0.320183
0.25381
0.202589
0.166218
0.14152
0.125085
0.114176
0.106857
0.101841
0.0983069
0.0957373
0.0938093
0.0923199
0.0911384
0.0901782
0.0893793
0.0886974
0.0880983
0.0875532
0.782536
0.413877
0.252995
0.195649
0.163488
0.142238
0.127402
0.116953
0.109742
0.105025
0.102326
0.101328
0.101842
0.103797
0.107238
0.112336
0.119415
0.128981
0.141782
0.158887
0.181814
0.212668
0.254294
0.310958
0.390083
0.419315
0.358602
0.291335
0.234348
0.191212
0.160465
0.139213
0.124677
0.114692
0.107728
0.102765
0.0991384
0.0964225
0.094341
0.0927122
0.0914134
0.0903587
0.0894857
0.0887473
0.0881059
0.0875313
0.836632
0.417601
0.261515
0.201182
0.167577
0.145344
0.129771
0.118913
0.111605
0.107011
0.104631
0.104132
0.105304
0.108062
0.112436
0.118573
0.126784
0.137534
0.151492
0.169603
0.193198
0.224061
0.263942
0.31456
0.377732
0.375979
0.316521
0.260451
0.214869
0.180347
0.155235
0.137306
0.12454
0.115372
0.108687
0.103723
0.0999724
0.0970915
0.0948473
0.0930761
0.0916604
0.0905135
0.0895697
0.0887782
0.0880983
0.0874975
0.859214
0.405696
0.265948
0.205181
0.170303
0.147284
0.131182
0.120108
0.112892
0.108647
0.106821
0.107053
0.109123
0.112935
0.118498
0.125955
0.135591
0.147825
0.163241
0.182619
0.206995
0.237744
0.27573
0.316862
0.343788
0.319331
0.27474
0.232853
0.198252
0.171359
0.151084
0.135958
0.124654
0.11613
0.109632
0.104624
0.100732
0.0976849
0.0952839
0.0933792
0.0918562
0.0906261
0.0896196
0.088782
0.0880697
0.087448
0.858356
0.391711
0.261359
0.203269
0.169778
0.147256
0.131477
0.120751
0.113881
0.110062
0.108779
0.109675
0.112528
0.117229
0.123773
0.13228
0.142958
0.156141
0.172231
0.191651
0.214728
0.241431
0.270485
0.294385
0.294703
0.27315
0.242095
0.211722
0.185685
0.16465
0.148068
0.135074
0.124865
0.116806
0.110421
0.105353
0.10133
0.0981375
0.0956038
0.0935882
0.0919775
0.0906804
0.0896243
0.0887513
0.0880151
0.0873793
0.852909
0.366947
0.250493
0.196471
0.165327
0.144888
0.130784
0.121146
0.114921
0.111489
0.110448
0.111524
0.114541
0.119414
0.126132
0.134765
0.145448
0.158359
0.173638
0.19126
0.210827
0.231104
0.249224
0.259676
0.25617
0.240133
0.218356
0.196272
0.176472
0.159689
0.145778
0.134323
0.124909
0.117191
0.110893
0.105788
0.101677
0.0983872
0.0957637
0.0936734
0.092004
0.0906629
0.089575
0.0886802
0.0879307
0.0872888
0.860243
0.350997
0.240541
0.189927
0.160725
0.141957
0.129236
0.120585
0.115007
0.111945
0.111063
0.112145
0.115054
0.119725
0.126141
0.134327
0.144325
0.156149
0.169698
0.18463
0.200165
0.214832
0.226201
0.231129
0.227321
0.215988
0.200752
0.184589
0.169281
0.155563
0.143588
0.133275
0.124483
0.117071
0.1109
0.105826
0.101704
0.0983855
0.0957309
0.093613
0.0919216
0.0905643
0.0894656
0.0885649
0.087814
0.0871753
0.874135
0.34387
0.23542
0.186098
0.157643
0.139607
0.127635
0.119632
0.114525
0.111733
0.110925
0.111907
0.114562
0.11883
0.124684
0.132106
0.141057
0.151431
0.162977
0.175209
0.187294
0.197957
0.205534
0.208335
0.205472
0.197722
0.186992
0.174955
0.162854
0.151394
0.14091
0.131544
0.12334
0.116289
0.11034
0.105404
0.101369
0.0981065
0.0954892
0.093397
0.0917241
0.0903811
0.0892944
0.0884048
0.0876651
0.0870389
0.878046
0.34121
0.233637
0.18468
0.156215
0.138207
0.126398
0.118625
0.11372
0.111035
0.110201
0.111008
0.113333
0.117108
0.122286
0.128814
0.136602
0.145476
0.155126
0.165048
0.174509
0.182539
0.188047
0.190087
0.188253
0.182966
0.175236
0.166041
0.15627
0.146569
0.13736
0.128904
0.121355
0.114782
0.109185
0.104511
0.10067
0.0975525
0.0950421
0.0930291
0.0914151
0.0901165
0.089064
0.0882019
0.0874857
0.086881
0.869777
0.339241
0.233173
0.18461
0.155999
0.137725
0.125722
0.117847
0.112884
0.110121
0.10914
0.109693
0.111633
0.11487
0.119334
0.124945
0.131582
0.139047
0.147029
0.155072
0.162577
0.168831
0.1731
0.174804
0.173698
0.169989
0.164239
0.157041
0.149055
0.140842
0.132834
0.12534
0.11856
0.112599
0.107488
0.103194
0.0996473
0.0967537
0.0944126
0.0925263
0.0910072
0.0897797
0.0887815
0.0879617
0.0872799
0.0867047
0.855411
0.336817
0.232815
0.184912
0.156319
0.137797
0.125499
0.117363
0.112176
0.109195
0.10796
0.108186
0.109695
0.112367
0.116108
0.120818
0.126361
0.132538
0.139062
0.145549
0.15152
0.156448
0.159819
0.161241
0.16054
0.157819
0.153412
0.147703
0.141181
0.134315
0.127498
0.121033
0.115124
0.109889
0.105369
0.101548
0.0983713
0.0957632
0.0936392
0.0919166
0.0905203
0.0893852
0.0884571
0.0876915
0.087053
0.0865138
0.838445
0.33395
0.232165
0.185062
0.156666
0.138028
0.12548
0.117061
0.11159
0.108318
0.106764
0.106613
0.107657
0.109749
0.112774
0.116614
0.121127
0.126125
0.131358
0.136506
0.141197
0.145035
0.147649
0.148764
0.148252
0.146167
0.142731
0.138209
0.132955
0.127341
0.121699
0.116294
0.111311
0.106862
0.102992
0.0996957
0.0969338
0.0946476
0.0927699
0.0912342
0.089979
0.0889505
0.0881034
0.0874005
0.0868116
0.0863131
0.821164
0.330925
0.231226
0.184904
0.156796
0.138157
0.125447
0.11679
0.111042
0.107466
0.105572
0.105024
0.105593
0.107111
0.109442
0.112457
0.116016
0.119944
0.124029
0.128012
0.131606
0.134513
0.136469
0.137275
0.136842
0.135203
0.132508
0.128983
0.124843
0.120378
0.115849
0.111473
0.107406
0.103743
0.100529
0.0977667
0.0954299
0.093476
0.0918548
0.0905152
0.0894091
0.088494
0.0877338
0.0870981
0.0865624
0.0861074
0.804528
0.327936
0.230109
0.184466
0.156653
0.138078
0.125282
0.116446
0.110461
0.106603
0.104379
0.103446
0.103558
0.10453
0.106214
0.108475
0.111173
0.114156
0.117242
0.120228
0.122894
0.125023
0.126424
0.12696
0.126569
0.125279
0.123194
0.120485
0.117302
0.113848
0.11032
0.106883
0.10366
0.100729
0.0981318
0.0958751
0.0939443
0.092311
0.0909396
0.0897926
0.0888346
0.0880333
0.0873607
0.0867936
0.0863123
0.0859015
0.788764
0.325073
0.228917
0.183836
0.156281
0.137789
0.124955
0.115992
0.109814
0.105712
0.103193
0.101908
0.101603
0.102083
0.103191
0.104789
0.106746
0.108924
0.111174
0.113337
0.115249
0.116752
0.117713
0.118037
0.117686
0.116679
0.115091
0.113039
0.110654
0.108052
0.105374
0.102744
0.100253
0.0979643
0.0959121
0.0941071
0.0925429
0.091202
0.090061
0.089094
0.0882758
0.0875831
0.0869953
0.0864948
0.0860669
0.0856996
0.773854
0.322358
0.227717
0.183098
0.155751
0.137339
0.12449
0.115436
0.109108
0.104802
0.10203
0.100442
0.099776
0.0998332
0.100453
0.101497
0.102842
0.104366
0.105946
0.10746
0.108785
0.109809
0.110439
0.110613
0.110306
0.109531
0.108343
0.106819
0.105059