/*--------------------------------*- C++ -*----------------------------------*\
  =========                 |
  \\      /  F ield         | OpenFOAM: The Open Source CFD Toolbox
   \\    /   O peration     | Website:  https://openfoam.org
    \\  /    A nd           | Version:  9
     \\/     M anipulation  |
\*---------------------------------------------------------------------------*/
FoamFile
{
    format      ascii;
    class       volScalarField;
    location    "0.1";
    object      nut;
}
// * * * * * * * * * * * * * * * * * * * * * * * * * * * * * * * * * * * * * //

dimensions      [0 2 -1 0 0 0 0];

internalField   nonuniform List<scalar> 
7700
(
5.99766e-05
6.46414e-05
7.41492e-05
8.02129e-05
8.43327e-05
8.72774e-05
8.947e-05
9.11721e-05
9.25587e-05
9.37518e-05
9.484e-05
9.58899e-05
9.69547e-05
9.8079e-05
9.93031e-05
0.000100666
0.000102203
0.00010395
0.000105933
0.000108161
0.000110614
0.000113223
0.000115864
0.000118349
0.000120442
0.000121883
0.000122434
0.00012188
0.000119869
0.000117029
0.000114042
0.000111177
0.000108854
0.000107346
0.000108554
0.000110037
0.000107544
0.000104355
0.00010057
9.64115e-05
9.16664e-05
8.6452e-05
8.11334e-05
7.53464e-05
6.81594e-05
0.000265791
8.51425e-05
0.000323782
0.000483874
0.000593934
0.000671872
0.000728181
0.00076957
0.000800591
0.000824454
0.000843498
0.000859471
0.000873724
0.000887341
0.00090122
0.000916129
0.000932716
0.000951474
0.000972642
0.00099605
0.00102091
0.00104565
0.00106779
0.0010841
0.00109084
0.00108442
0.00106229
0.00102437
0.000973624
0.000911032
0.0008297
0.000766127
0.00073313
0.000729384
0.000737905
0.000734232
0.000701556
0.000605917
0.000488619
0.00041549
0.000380362
0.000364649
0.000358375
0.000352581
0.000334905
0.000287074
9.8171e-05
9.33662e-05
0.000455695
0.000763162
0.00100889
0.00120381
0.0013575
0.00147834
0.00157357
0.00164935
0.00171083
0.00176226
0.00180719
0.00184856
0.00188879
0.00192991
0.00197349
0.00202054
0.00207135
0.00212513
0.00217973
0.0022314
0.00227489
0.00230371
0.00231085
0.00228981
0.0022364
0.00215135
0.00204149
0.00191645
0.00178078
0.00166587
0.00158805
0.00154021
0.00150399
0.00145195
0.00134796
0.00117603
0.000965244
0.00079693
0.000707258
0.000672359
0.000661324
0.000647335
0.000601112
0.000476777
0.00011233
9.84208e-05
0.00053393
0.000949342
0.00130991
0.00161589
0.00187077
0.00208013
0.00225068
0.00238947
0.0025033
0.00259838
0.00268023
0.00275358
0.00282245
0.00289007
0.00295887
0.00303034
0.00310472
0.00318076
0.00325542
0.00332378
0.00337917
0.00341365
0.00341871
0.0033865
0.00331195
0.00319583
0.00304615
0.00287612
0.00269819
0.00253973
0.00241099
0.00229892
0.00218919
0.00207268
0.00190797
0.00165673
0.00136079
0.00112884
0.0010091
0.000970812
0.00096228
0.000937071
0.000851273
0.000633277
0.000122324
0.000101817
0.000587832
0.00108489
0.00153935
0.00194299
0.00229273
0.00258957
0.00283769
0.00304335
0.00321372
0.00335614
0.00347757
0.00358425
0.00368157
0.00377392
0.00386456
0.00395547
0.00404706
0.00413802
0.00422506
0.00430297
0.00436481
0.00440234
0.00440676
0.0043698
0.00428574
0.00415435
0.00398177
0.00378039
0.00356769
0.00336278
0.00317013
0.00297864
0.00278647
0.00258713
0.00234379
0.0020268
0.00169363
0.00144903
0.00132899
0.00129256
0.00127752
0.00122709
0.00108615
0.00076249
0.00012993
0.000104266
0.000628019
0.00118903
0.00172006
0.00220725
0.00264209
0.00302081
0.00334417
0.0036165
0.00384433
0.00403527
0.00419714
0.00433732
0.00446234
0.00457763
0.00468731
0.00479395
0.00489844
0.00499974
0.0050949
0.00517901
0.00524552
0.00528664
0.00529387
0.00525893
0.00517548
0.00504143
0.00485876
0.00463503
0.00438782
0.00413206
0.00386745
0.00359545
0.00331773
0.00302971
0.00271419
0.00236697
0.00204626
0.00182196
0.00170753
0.00166061
0.00161915
0.00152301
0.00130917
0.00087177
0.000136439
0.00010613
0.000659307
0.00127144
0.00186491
0.00242239
0.0029314
0.003384
0.00377739
0.00411336
0.0043971
0.00463582
0.00483763
0.00501066
0.00516233
0.00529903
0.0054257
0.0055457
0.00566053
0.00576982
0.00587121
0.00596054
0.00603198
0.0060785
0.00609219
0.00606489
0.00598977
0.0058626
0.00568049
0.00544347
0.00516499
0.00485973
0.00453045
0.00417822
0.00381294
0.00345015
0.00309373
0.00275241
0.00246399
0.00226302
0.00214635
0.00207334
0.0019862
0.00182536
0.00152329
0.000969273
0.000142795
0.00010761
0.000684304
0.00133772
0.00198197
0.00259778
0.00317002
0.00368739
0.00414381
0.00453842
0.00487463
0.00515878
0.00539886
0.00560333
0.00578032
0.005937
0.00607918
0.00621101
0.00633482
0.00645103
0.00655811
0.00665277
0.00673006
0.00678374
0.00680654
0.00679048
0.00672864
0.00661514
0.00644301
0.00620458
0.00590432
0.00556279
0.00517625
0.00474994
0.00431294
0.003899
0.00352523
0.00320089
0.00294159
0.00275543
0.00262705
0.00251661
0.00237056
0.00213141
0.00173077
0.00106389
0.00014997
0.000108829
0.000704612
0.00139152
0.00207689
0.00274053
0.00336565
0.00393843
0.00445
0.00489696
0.00528085
0.00560686
0.0058825
0.00611632
0.0063169
0.0064921
0.0066485
0.00679111
0.00692312
0.00704581
0.00715855
0.0072589
0.00734277
0.00740462
0.00743768
0.00743435
0.00738818
0.00729288
0.00713933
0.0069103
0.00660122
0.00623578
0.00580278
0.00531996
0.00483425
0.00439103
0.00401244
0.00370308
0.00346171
0.00327882
0.0031301
0.00297501
0.00276242
0.00243674
0.00193249
0.00116536
0.000159341
0.00010986
0.000721324
0.00143547
0.002154
0.00285644
0.00352504
0.00414419
0.00470278
0.00519519
0.00562113
0.00598453
0.00629225
0.00655271
0.00677478
0.00696683
0.00713619
0.00728865
0.00742826
0.00755715
0.00767554
0.00778177
0.00787243
0.00794252
0.00798576
0.00799516
0.00796545
0.00789131
0.0077639
0.00755188
0.00724677
0.00686854
0.00640239
0.00588303
0.00537078
0.0049155
0.00453872
0.00423936
0.00400508
0.00381544
0.00363977
0.00343592
0.00315328
0.00273758
0.00213151
0.00129011
0.000172165
0.000246754
0.000295893
7.31301e-05
7.80285e-05
8.09839e-05
8.26702e-05
8.35494e-05
8.3917e-05
8.39691e-05
8.38368e-05
8.36052e-05
8.33327e-05
8.3151e-05
8.29819e-05
8.28145e-05
8.2651e-05
8.24929e-05
8.23395e-05
8.21899e-05
8.20433e-05
8.18994e-05
8.17583e-05
8.162e-05
8.14843e-05
8.13502e-05
8.12155e-05
8.10766e-05
8.09274e-05
8.07585e-05
8.05551e-05
8.0294e-05
7.99398e-05
7.9438e-05
7.87049e-05
7.76101e-05
7.59432e-05
7.33432e-05
6.91537e-05
6.64299e-05
0.000121358
9.10355e-05
0.000333088
0.000474262
0.000567935
0.000627981
0.000665587
0.000688184
0.000700807
0.000706945
0.000709031
0.0007087
0.000706772
0.000703073
0.00069939
0.000696258
0.000693746
0.000691786
0.00069028
0.000689142
0.000688308
0.00068774
0.000687407
0.000687278
0.000687307
0.000687429
0.000687549
0.000687532
0.000687185
0.000686228
0.00068425
0.000680655
0.000674583
0.000664812
0.000649622
0.000626583
0.000592133
0.000540657
0.000462295
0.000336561
9.10391e-05
9.98832e-05
0.000475953
0.000771852
0.000991089
0.00115038
0.00126244
0.00133788
0.00138575
0.00141374
0.00142809
0.00143357
0.00143351
0.00142918
0.00142347
0.00141783
0.00141285
0.00140868
0.0014053
0.00140262
0.00140052
0.00139893
0.00139776
0.00139693
0.0013963
0.00139573
0.00139496
0.00139362
0.0013912
0.0013869
0.00137957
0.00136753
0.00134843
0.001319
0.00127486
0.00121017
0.00111708
0.000984619
0.000795799
0.000518586
0.000100626
0.000105583
0.000570732
0.000978931
0.00131015
0.00157301
0.00177363
0.00191923
0.00201885
0.00208248
0.00211968
0.00213867
0.00214585
0.00214469
0.00213961
0.00213322
0.00212691
0.00212126
0.00211647
0.00211255
0.0021094
0.00210691
0.00210495
0.00210336
0.00210192
0.00210033
0.00209813
0.00209464
0.00208887
0.00207934
0.00206391
0.00203955
0.00200209
0.00194598
0.00186407
0.00174733
0.00158463
0.00136194
0.00106008
0.000647324
0.0001071
0.000109747
0.000638245
0.00112466
0.00154851
0.00191074
0.00220613
0.00243325
0.00259722
0.00270805
0.00277769
0.0028176
0.00283737
0.00284318
0.00284141
0.00283615
0.00282977
0.00282349
0.00281787
0.0028131
0.00280916
0.00280595
0.00280329
0.00280093
0.00279855
0.00279565
0.00279149
0.00278498
0.00277452
0.00275777
0.00273142
0.00269087
0.00263002
0.00254103
0.00241418
0.00223802
0.00199945
0.00168372
0.00127329
0.000742668
0.000111542
0.000113308
0.000680694
0.00121481
0.00171418
0.00217092
0.00256482
0.00288176
0.00311984
0.00328722
0.00339735
0.00346468
0.00350186
0.00351821
0.00352237
0.00352011
0.00351496
0.00350895
0.00350312
0.00349791
0.00349346
0.00348969
0.00348639
0.00348323
0.00347973
0.00347516
0.00346844
0.00345795
0.00344136
0.00341534
0.00337523
0.00331481
0.00322601
0.00309887
0.00292165
0.00268127
0.00236412
0.00195677
0.00144575
0.000814382
0.000114666
0.000117098
0.000685615
0.00124539
0.00181057
0.00235957
0.00285507
0.0032677
0.00358663
0.00381714
0.00397365
0.00407345
0.00413176
0.00416164
0.00417404
0.00417649
0.00417383
0.00416898
0.00416354
0.00415831
0.00415361
0.00414942
0.00414553
0.0041415
0.00413667
0.00413004
0.00412009
0.00410462
0.00408047
0.00404317
0.00398671
0.00390318
0.00378271
0.00361352
0.00338242
0.00307569
0.00268045
0.00218607
0.0015846
0.000868675
0.000116899
0.000123271
0.000642331
0.00122029
0.00184963
0.00249044
0.00308866
0.00359905
0.00400134
0.00429774
0.00450348
0.00463845
0.00472022
0.00476574
0.00478813
0.00479668
0.00479757
0.00479465
0.00479016
0.0047853
0.00478059
0.00477612
0.00477165
0.00476665
0.00476027
0.00475115
0.00473733
0.00471593
0.00468288
0.00463257
0.00455757
0.00444842
0.00429363
0.00408005
0.00379364
0.0034209
0.00295072
0.00237622
0.00169545
0.0009098
0.000118511
0.000137302
0.000575457
0.00117088
0.00186344
0.00259245
0.00328816
0.00389121
0.00437296
0.00473288
0.0049868
0.00515645
0.00526247
0.00532454
0.00535786
0.0053734
0.00537858
0.00537818
0.00537509
0.00537091
0.0053664
0.00536175
0.00535671
0.00535064
0.00534246
0.00533048
0.00531221
0.00528404
0.00524099
0.00517629
0.00508118
0.00494477
0.00475425
0.00449551
0.00415431
0.00371806
0.00317811
0.0025318
0.00178307
0.000940833
0.000119681
0.000160654
0.000559426
0.00117028
0.00191239
0.00271303
0.00348752
0.00416656
0.00471513
0.00512992
0.00542676
0.00562748
0.00575623
0.00583433
0.0058786
0.00590138
0.0059112
0.00591368
0.00591228
0.005909
0.00590483
0.00590006
0.00589444
0.0058872
0.00587702
0.00586185
0.00583863
0.00580307
0.00574922
0.00566923
0.00555309
0.00538872
0.00516228
0.00485913
0.00446533
0.00396973
0.00336654
0.00265739
0.00185156
0.000964084
0.000120534
0.000110756
0.000735312
0.00147183
0.0022172
0.00295104
0.00365514
0.00431265
0.00491073
0.00544189
0.00590418
0.00630028
0.00663632
0.00692047
0.00716171
0.00736887
0.00754988
0.00771128
0.00785791
0.00799271
0.00811662
0.00822863
0.00832585
0.00840371
0.00845646
0.00847822
0.00846545
0.00841448
0.00831759
0.00812857
0.00784139
0.00745805
0.0069719
0.00643507
0.00591489
0.00546004
0.00508869
0.00479498
0.00455989
0.00435646
0.00414965
0.00389545
0.00354305
0.00304144
0.00235508
0.00149067
0.00034142
0.000111559
0.000747248
0.00150233
0.00226943
0.00302851
0.0037612
0.00444987
0.00508037
0.00564375
0.0061366
0.0065605
0.00692081
0.00722538
0.00748324
0.00770354
0.00789475
0.00806409
0.0082171
0.00835742
0.00848661
0.00860416
0.00870754
0.00879261
0.00885432
0.0088884
0.00889339
0.00886722
0.00880173
0.0086446
0.00838407
0.00799948
0.00750516
0.00696717
0.00645314
0.00600717
0.00564324
0.00535217
0.00511143
0.00489047
0.00465156
0.00434944
0.00393401
0.00336035
0.0026134
0.00173273
0.000710504
0.000112287
0.000757554
0.0015281
0.00231274
0.00309186
0.00384714
0.00456049
0.00521688
0.00580618
0.00632386
0.00677051
0.00715082
0.00747232
0.00774401
0.00797531
0.00817516
0.00835132
0.00850999
0.00865539
0.00878957
0.00891238
0.00902159
0.0091135
0.00918405
0.00923093
0.00925502
0.009256
0.00922493
0.00910765
0.008873
0.00848914
0.00799621
0.00746913
0.00697108
0.00653953
0.00618442
0.00589464
0.00564628
0.00540739
0.00513922
0.00479671
0.00433249
0.00370965
0.00292826
0.00205824
0.00119659
0.000112958
0.000766607
0.00155022
0.00234909
0.00314404
0.00391693
0.00464945
0.00532596
0.00593553
0.00647273
0.00693735
0.00733354
0.00766852
0.00795129
0.00819146
0.00839836
0.00858027
0.00874391
0.00889399
0.00903296
0.00916092
0.00927588
0.00937469
0.00945449
0.0095152
0.00956024
0.00959154
0.00959965
0.00952582
0.00931164
0.00892794
0.00844222
0.0079336
0.0074576
0.00704402
0.00669902
0.00641063
0.0061551
0.00590074
0.00560955
0.00523861
0.00474554
0.00410256
0.00332183
0.00248655
0.00174534
0.000113581
0.000774701
0.00156953
0.00238005
0.00318751
0.00397399
0.00472111
0.00541287
0.00603778
0.00658976
0.00706804
0.00747632
0.00782158
0.00811282
0.00835986
0.00857235
0.00875902
0.00892705
0.00908154
0.00922525
0.00935843
0.00947937
0.0095855
0.00967537
0.00975127
0.00981926
0.00988422
0.00993558
0.00990419
0.00970216
0.0093169
0.00884117
0.00835487
0.00790419
0.00751077
0.00717722
0.00689147
0.00663097
0.00636576
0.00606021
0.00567541
0.00517553
0.00454193
0.00379556
0.00302177
0.00237979
0.000114168
0.000782066
0.00158671
0.00240691
0.0032243
0.00402119
0.00477921
0.0054822
0.00611831
0.00668105
0.00716922
0.00758624
0.00793894
0.00823635
0.00848846
0.00870527
0.00889588
0.00906784
0.00922662
0.00937513
0.00951381
0.00964114
0.00975524
0.00985616
0.00994863
0.0100414
0.0101425
0.0102388
0.0102448
0.010046
0.00965725
0.00919241
0.0087297
0.0083055
0.00793334
0.00761254
0.00733134
0.00706921
0.00679899
0.00648876
0.00610488
0.00561873
0.00501961
0.00433335
0.00364029
0.00308148
0.000114723
0.000788879
0.00160228
0.00243069
0.00325605
0.00406089
0.00482691
0.00553791
0.00618185
0.00675199
0.0072469
0.00766983
0.00802755
0.00832915
0.00858485
0.00880491
0.0089988
0.0091744
0.00933742
0.00949092
0.00963541
0.0097696
0.00989237
0.0100053
0.0101155
0.0102343
0.0103727
0.010513
0.0105477
0.0103441
0.00995071
0.00949692
0.00905742
0.0086593
0.00830856
0.00800153
0.00772701
0.00746701
0.00719788
0.00689226
0.00652235
0.00606642
0.0055198
0.00490936
0.00430523
0.00382005
0.000115252
0.000795281
0.00161665
0.00245217
0.00328403
0.00409495
0.00486676
0.00558325
0.00623235
0.00680721
0.00730632
0.00773284
0.0080936
0.0083978
0.00865586
0.00887835
0.00907503
0.00925408
0.00942137
0.00958005
0.00973064
0.00987211
0.0100041
0.0101298
0.0102586
0.0104043
0.0105801
0.0107624
0.0108142
0.0105986
0.0102002
0.00975722
0.00933956
0.008966
0.00863603
0.00834333
0.00807744
0.00782311
0.00756062
0.00726744
0.00692151
0.00650705
0.00602344
0.0054957
0.00498142
0.00456572
0.000115758
0.000801378
0.00163011
0.00247195
0.00330924
0.00412486
0.00490078
0.00562086
0.00627307
0.00685058
0.00735187
0.00778018
0.00814241
0.00844795
0.00870745
0.00893174
0.00913088
0.00931325
0.00948485
0.00964884
0.00980574
0.00995475
0.0100963
0.0102352
0.0103832
0.0105561
0.0107693
0.0109904
0.0110461
0.0108132
0.0104096
0.00997697
0.00957918
0.00922797
0.00891742
0.00863904
0.00838323
0.00813751
0.00788608
0.00761108
0.00729562
0.00692867
0.00651189
0.00606684
0.0056385
0.00528911
0.000116242
0.00080725
0.0016429
0.00249046
0.0033324
0.00415173
0.00493053
0.00565279
0.00630659
0.00688517
0.00738714
0.00781586
0.00817839
0.00848433
0.00874457
0.00897022
0.00917157
0.00935718
0.00953312
0.00970248
0.00986576
0.0100224
0.0101737
0.010326
0.0104932
0.0106932
0.0109429
0.0111968
0.0112451
0.0109916
0.0105833
0.0101603
0.00978021
0.00944873
0.00915576
0.0088912
0.00864631
0.00841125
0.00817388
0.00792056
0.00763871
0.0073208
0.00696943
0.00660207
0.00625249
0.00596503
0.000116708
0.000812952
0.00165519
0.00250804
0.00335407
0.00417639
0.0049572
0.00568064
0.0063349
0.00691343
0.00741497
0.00784309
0.00820507
0.00851073
0.00877124
0.00899794
0.00920134
0.00939014
0.00957038
0.00974508
0.00991466
0.0100788
0.0102397
0.0104053
0.0105915
0.0108177
0.011102
0.0113807
0.0114124
0.0111375
0.0107255
0.0103116
0.0099469
0.00963242
0.00935494
0.00910321
0.00886943
0.00864616
0.00842446
0.00819424
0.00794631
0.00767556
0.0073846
0.0070868
0.00680668
0.00657512
0.000117156
0.000818523
0.00166708
0.00252491
0.00337465
0.00419946
0.00498168
0.00570557
0.00635954
0.0069372
0.00743754
0.00786435
0.00822518
0.00853012
0.00879057
0.00901814
0.00922349
0.00941541
0.00959988
0.00977979
0.00995549
0.0101269
0.0102972
0.0104757
0.0106801
0.0109314
0.0112476
0.0115416
0.0115494
0.0112547
0.0108406
0.0104351
0.0100835
0.00978339
0.00951918
0.00927899
0.00905596
0.00884473
0.00863905
0.00843167
0.00821592
0.00798818
0.00775053
0.00751266
0.00729166
0.00710867
0.000117586
0.000823986
0.00167864
0.00254124
0.0033944
0.00422138
0.00500459
0.00572847
0.00638161
0.00695786
0.00745648
0.00788153
0.00824083
0.00854475
0.00880496
0.00903327
0.00924052
0.00943549
0.00962408
0.009809
0.00999052
0.0101689
0.0103481
0.010539
0.0107609
0.0110357
0.0113807
0.0116806
0.0116594
0.0113476
0.0109327
0.0105348
0.0101942
0.00990588
0.00965276
0.00942264
0.00920956
0.00900993
0.00881967
0.00863366
0.008447
0.0082569
0.00806459
0.00787662
0.00770447
0.00756214
0.000117999
0.000829355
0.00168995
0.00255713
0.00341353
0.00424245
0.00502639
0.00574995
0.00640193
0.00697643
0.007473
0.007896
0.00825354
0.00855629
0.00881617
0.00904519
0.00925428
0.00945223
0.00964479
0.00983447
0.0100215
0.0102064
0.010394
0.0105969
0.0108354
0.0111323
0.011503
0.0117998
0.0117475
0.0114212
0.0110059
0.0106143
0.0102828
0.0100039
0.00975984
0.00953824
0.00933402
0.00914507
0.00896895
0.0088021
0.00864074
0.00848244
0.00832753
0.00817997
0.00804701
0.00793757
0.000118397
0.000834642
0.00170102
0.00257267
0.00343218
0.00426289
0.0050474
0.00577046
0.00642107
0.00699362
0.00748796
0.00790876
0.00826444
0.00856596
0.00882549
0.00905521
0.00926613
0.00946699
0.00966335
0.00985749
0.0100496
0.0102406
0.0104362
0.0106505
0.0109049
0.011223
0.0116164
0.0119026
0.0118195
0.0114801
0.0110638
0.010677
0.0103525
0.0100812
0.0098443
0.00962971
0.00943314
0.00925364
0.00909
0.00893971
0.00879968
0.00866749
0.0085426
0.00842692
0.00832462
0.00824097
0.000118778
0.000839857
0.00171189
0.00258791
0.00345045
0.00428287
0.00506785
0.00579029
0.00643944
0.00700995
0.00750197
0.00792052
0.00827432
0.00857462
0.00883383
0.00906429
0.00927705
0.00948073
0.00968071
0.00987903
0.0100758
0.0102725
0.0104757
0.0107008
0.0109705
0.0113091
0.0117208
0.01199
0.0118788
0.0115269
0.0111088
0.0107254
0.0104064
0.010141
0.00990971
0.00970075
0.00951057
0.00933917
0.0091862
0.00904982
0.00892727
0.00881599
0.00871463
0.00862353
0.00854461
0.00848063
0.000119144
0.000845011
0.00172259
0.00260289
0.00346839
0.00430247
0.00508788
0.00580967
0.00645732
0.00702576
0.00751546
0.00793177
0.00828374
0.00858289
0.00884185
0.00907311
0.00928771
0.00949416
0.00969757
0.00989976
0.0101009
0.0103028
0.0105132
0.0107487
0.011033
0.0113914
0.0118147
0.0120608
0.0119258
0.0115624
0.0111421
0.0107614
0.010447
0.0101862
0.00995927
0.0097547
0.00956974
0.00940509
0.00926101
0.00913603
0.00902748
0.00893257
0.00884926
0.00877671
0.00871523
0.00866585
0.000119495
0.000850112
0.00173313
0.00261765
0.00348607
0.00432178
0.0051076
0.00582874
0.00647489
0.00704129
0.00752873
0.00794287
0.00829309
0.0085912
0.00885002
0.00908216
0.00929863
0.00950778
0.00971443
0.0099202
0.0101253
0.0103321
0.0105493
0.0107947
0.0110929
0.0114695
0.0118973
0.012116
0.0119597
0.0115864
0.0111646
0.0107868
0.0104765
0.0102195
0.00999583
0.00979462
0.00961379
0.00945466
0.00931783
0.00920199
0.00910444
0.0090221
0.00895236
0.00889352
0.00884476
0.00880593
0.00011983
0.000855167
0.00174353
0.00263221
0.00350352
0.00434085
0.00512709
0.00584761
0.00649231
0.00705673
0.00754198
0.00795406
0.00830267
0.00859987
0.00885869
0.0090918
0.00931019
0.00952197
0.0097317
0.00994075
0.0101495
0.0103608
0.0105845
0.0108395
0.0111508
0.0115437
0.0119718
0.0121602
0.0119821
0.0116
0.0111776
0.0108031
0.0104968
0.010243
0.0100219
0.00982316
0.00964555
0.00949084
0.00935983
0.00925121
0.00916215
0.00908929
0.00902958
0.00898067
0.00894099
0.00890958
0.000120151
0.000860179
0.00175379
0.00264658
0.00352077
0.00435973
0.00514642
0.00586635
0.00650968
0.00707221
0.0075554
0.00796555
0.00831269
0.00860914
0.00886811
0.00910233
0.00932269
0.00953706
0.00974967
0.00996173
0.0101737
0.0103893
0.0106194
0.0108836
0.0112075
0.0116156
0.0120423
0.0121981
0.0119964
0.0116055
0.0111831
0.0108123
0.0105099
0.0102589
0.0100396
0.00984265
0.00966751
0.0095163
0.00938991
0.00928692
0.00920434
0.00913853
0.00908609
0.00904424
0.00901088
0.00898455
0.000120457
0.000865149
0.00176394
0.00266079
0.00353784
0.00437844
0.00516562
0.00588504
0.00652709
0.00708785
0.0075691
0.00797749
0.00832335
0.00861924
0.00887854
0.009114
0.00933639
0.00955329
0.00976863
0.0099834
0.0101984
0.010418
0.0106542
0.0109277
0.0112639
0.0116868
0.012111
0.0122333
0.0120063
0.0116055
0.011183
0.010816
0.0105173
0.0102687
0.0100507
0.00985508
0.00968182
0.00953337
0.00941062
0.00931201
0.0092343
0.00917367
0.00912643
0.00908948
0.00906042
0.00903744
0.000120749
0.000870083
0.00177397
0.00267486
0.00355476
0.00439703
0.00518475
0.00590374
0.00654461
0.00710374
0.00758323
0.00799005
0.00833483
0.00863037
0.00889019
0.00912705
0.00935154
0.00957094
0.00978881
0.010006
0.0102236
0.010447
0.0106893
0.0109719
0.0113204
0.0117579
0.0121786
0.0122669
0.0120135
0.0116018
0.0111789
0.0108156
0.0105206
0.010274
0.010057
0.00986213
0.00969028
0.00954404
0.00942418
0.00932894
0.00925491
0.00919803
0.00915443
0.00912082
0.00909459
0.00907375
0.000121026
0.00087499
0.00178391
0.0026888
0.00357156
0.00441553
0.00520386
0.00592253
0.00656235
0.00712002
0.00759793
0.0080034
0.00834733
0.00864275
0.00890331
0.00914173
0.0093684
0.00959024
0.00981045
0.0100298
0.0102497
0.0104765
0.0107247
0.0110165
0.0113772
0.0118289
0.0122447
0.0122984
0.012018
0.011595
0.0111718
0.0108124
0.0105208
0.0102759
0.0100595
0.00986519
0.00969444
0.00954997
0.00943243
0.00933983
0.00926855
0.00921436
0.00917328
0.00914188
0.00911744
0.00909787
0.000121289
0.000879886
0.00179378
0.00270265
0.00358827
0.00443399
0.00522302
0.00594148
0.00658042
0.00713681
0.00761338
0.00801773
0.00836107
0.00865664
0.00891816
0.00915831
0.00938724
0.00961147
0.0098338
0.0100549
0.0102767
0.0105067
0.0107607
0.0110616
0.0114343
0.0118996
0.0123086
0.0123264
0.012019
0.0115854
0.0111625
0.0108072
0.0105189
0.0102754
0.0100594
0.00986543
0.00969556
0.00955258
0.00943693
0.0093464
0.00927718
0.00922492
0.00918554
0.00915554
0.00913215
0.00911326
0.000121537
0.000884789
0.0018036
0.00271642
0.00360493
0.00445246
0.0052423
0.00596071
0.00659896
0.00715431
0.00762978
0.00803331
0.00837634
0.00867232
0.00893506
0.00917712
0.00940836
0.00963489
0.0098591
0.0100816
0.0103049
0.0105377
0.0107972
0.011107
0.0114915
0.0119696
0.0123689
0.0123492
0.0120155
0.0115728
0.0111515
0.0108007
0.0105156
0.0102733
0.0100575
0.00986382
0.00969471
0.00955301
0.00943894
0.00935006
0.00928239
0.00923148
0.00919319
0.00916402
0.00914118
0.00912255
0.000121772
0.000889716
0.0018134
0.00273015
0.00362158
0.00447102
0.00526181
0.00598035
0.00661815
0.00717273
0.00764741
0.00805042
0.00839347
0.00869017
0.00895437
0.0091985
0.0094321
0.00966079
0.0098866
0.0101101
0.0103344
0.0105696
0.0108343
0.0111529
0.0115489
0.0120387
0.012424
0.0123649
0.0120068
0.0115575
0.0111393
0.0107934
0.0105114
0.0102702
0.0100546
0.00986118
0.00969279
0.00955223
0.0094395
0.00935195
0.00928542
0.00923543
0.00919781
0.00916905
0.00914639
0.00912775
0.000121992
0.000894681
0.00182318
0.00274386
0.00363827
0.00448973
0.00528167
0.0060006
0.00663824
0.00719236
0.0076666
0.00806945
0.00841287
0.00871061
0.00897651
0.00922285
0.00945879
0.00968948
0.00991653
0.0101405
0.0103654
0.0106025
0.0108721
0.0111993
0.0116066
0.0121068
0.0124723
0.0123724
0.0119931
0.0115404
0.0111264
0.0107857
0.0105068
0.0102667
0.0100514
0.00985823
0.00969056
0.00955105
0.00943947
0.00935296
0.00928728
0.00923786
0.00920056
0.0091719
0.00914916
0.0091303
0.000122199
0.000899683
0.00183293
0.00275754
0.00365503
0.00450873
0.00530207
0.0060217
0.00665954
0.00721359
0.00768779
0.00809088
0.00843503
0.00873412
0.00900196
0.0092506
0.0094888
0.00972123
0.00994913
0.0101732
0.0103981
0.0106367
0.0109108
0.0112463
0.011665
0.0121745
0.012513
0.0123723
0.011976
0.0115223
0.0111134
0.0107778
0.0105019
0.0102632
0.0100482
0.00985559
0.00968868
0.00955014
0.00943954
0.00935385
0.00928872
0.00923958
0.00920232
0.00917351
0.00915048
0.00913124
0.000122396
0.000904705
0.00184261
0.0027712
0.00367195
0.00452815
0.00532325
0.00604399
0.00668245
0.0072369
0.00771149
0.00811525
0.00846053
0.00876127
0.00903123
0.0092822
0.00952253
0.00975637
0.00998467
0.0102082
0.0104326
0.0106722
0.0109504
0.0112944
0.0117253
0.0122431
0.0125472
0.0123672
0.0119574
0.011504
0.0111001
0.0107695
0.010497
0.0102599
0.0100458
0.0098538
0.00968774
0.00955011
0.00944032
0.00935519
0.00929034
0.00924121
0.00920373
0.00917454
0.00915105
0.0091313
0.000122593
0.000909708
0.00185214
0.0027848
0.00368911
0.00454824
0.00534558
0.00606793
0.00670753
0.00726287
0.00773835
0.00814323
0.00849002
0.00879269
0.0090649
0.00931814
0.00956034
0.00979521
0.0100234
0.010246
0.0104694
0.0107094
0.0109912
0.0113435
0.0117885
0.0123127
0.0125742
0.0123593
0.0119379
0.0114844
0.0110852
0.0107601
0.0104918
0.0102571
0.0100443
0.00985338
0.00968826
0.00955147
0.00944229
0.00935747
0.00929261
0.00924321
0.00920526
0.00917549
0.00915135
0.00913098
0.000122812
0.000914602
0.00186137
0.00279833
0.0037067
0.00456935
0.00536956
0.00609413
0.00673547
0.00729225
0.00776914
0.00817559
0.00852423
0.00882905
0.00910354
0.00935889
0.00960262
0.00983805
0.0100657
0.0102869
0.0105088
0.0107485
0.0110331
0.0113932
0.0118539
0.0123764
0.0125858
0.0123439
0.0119131
0.01146
0.0110665
0.0107485
0.010486
0.0102549
0.0100443
0.00985479
0.00969072
0.00955468
0.00944588
0.00936106
0.00929588
0.0092459
0.00920722
0.00917665
0.00915172
0.0091306
0.000123103
0.000919318
0.00187006
0.00281177
0.00372498
0.00459201
0.00539588
0.00612341
0.00676712
0.00732593
0.00780474
0.00821318
0.00856397
0.00887105
0.00914774
0.00940493
0.00964975
0.00988529
0.010112
0.0103314
0.0105515
0.0107901
0.0110757
0.0114413
0.011916
0.0124203
0.012571
0.0123103
0.0118738
0.0114247
0.011041
0.0107335
0.0104792
0.0102534
0.0100459
0.00985838
0.00969553
0.00956011
0.00945142
0.00936626
0.00930039
0.00924951
0.00920982
0.00917823
0.00915232
0.00913035
0.000123579
0.000923312
0.00187777
0.00282516
0.00374443
0.00461699
0.00542551
0.00615678
0.00680353
0.00736495
0.00784614
0.00825692
0.00861005
0.00891941
0.00919809
0.0094567
0.00970214
0.00993736
0.0101629
0.0103806
0.0105987
0.0108352
0.0111193
0.0114853
0.0119654
0.0124383
0.0125298
0.0122491
0.0118116
0.0113735
0.0110059
0.0107139
0.010471
0.0102524
0.0100493
0.00986429
0.00970289
0.00956802
0.00945914
0.00937325
0.00930629
0.00925414
0.00921316
0.00918031
0.00915327
0.00913031
0.000124341
0.0009243
0.00188271
0.00283817
0.00376557
0.00464527
0.00545958
0.00619544
0.00684589
0.00741041
0.00789439
0.00830776
0.00866332
0.00897482
0.00925515
0.00951471
0.00976027
0.00999487
0.0102193
0.0104357
0.0106517
0.0108853
0.011165
0.0115254
0.0120002
0.0124343
0.0124622
0.0121561
0.0117225
0.0113041
0.0109612
0.0106905
0.0104621
0.0102524
0.0100546
0.00987266
0.0097128
0.00957831
0.00946892
0.00938192
0.00931353
0.0092598
0.00921725
0.00918293
0.00915459
0.00913055
0.000125209
0.000922517
0.00188438
0.00284968
0.00378845
0.00467764
0.00549918
0.00624056
0.00689534
0.00746343
0.00795049
0.0083666
0.00872456
0.00903797
0.00931954
0.00957952
0.00982476
0.0100586
0.0102823
0.0104981
0.0107132
0.0109438
0.0112164
0.0115647
0.0120243
0.0124079
0.0123647
0.0120309
0.0116075
0.0112195
0.0109101
0.0106656
0.0104542
0.0102544
0.0100622
0.00988352
0.00972513
0.00959076
0.00948052
0.00939205
0.00932187
0.00926627
0.0092219
0.00918597
0.00915622
0.00913101
0.000126344
0.000915466
0.00188205
0.00286191
0.00381409
0.00471428
0.00554483
0.0062929
0.00695276
0.00752491
0.00801534
0.0084343
0.00879457
0.00910966
0.00939211
0.00965216
0.00989687
0.0101302
0.010354
0.0105706
0.0107862
0.0110145
0.0112779
0.0116077
0.012041
0.0123514
0.0122308
0.0118743
0.0114734
0.011128
0.0108595
0.010644
0.0104497
0.0102593
0.0100725
0.00989674
0.0097395
0.00960492
0.00949349
0.00940322
0.00933095
0.00927324
0.00922689
0.00918919
0.00915797
0.00913155
0.000128868
0.000898522
0.00187476
0.0028758
0.00384523
0.00475792
0.00559736
0.00635255
0.00701857
0.0075955
0.00808972
0.00851171
0.00887432
0.00919103
0.00947428
0.00973439
0.0099788
0.0102122
0.0104371
0.0106562
0.0108742
0.0111012
0.011354
0.0116584
0.0120517
0.0122586
0.0120568
0.0116943
0.0113346
0.011043
0.0108185
0.0106304
0.0104507
0.0102679
0.0100853
0.00991171
0.00975515
0.00962001
0.00950709
0.00941478
0.00934024
0.00928028
0.00923186
0.00919235
0.00915962
0.009132
0.000134156
0.000870875
0.00186277
0.00289123
0.00388146
0.00480878
0.00565853
0.00642132
0.00709314
0.00767542
0.00817421
0.00859964
0.00896492
0.00928359
0.0095681
0.00982888
0.0100738
0.0103083
0.0105357
0.0107587
0.0109807
0.0112078
0.0114491
0.01172
0.0120517
0.0121323
0.0118563
0.0115155
0.011215
0.0109811
0.0107959
0.0106286
0.0104583
0.0102798
0.0100996
0.00992726
0.00977088
0.00963488
0.00952031
0.00942588
0.00934905
0.00928684
0.00923637
0.0091951
0.00916092
0.00913218
0.000135571
0.00088287
0.00184663
0.00289635
0.00391325
0.00486126
0.00572508
0.00649756
0.00717655
0.00776429
0.00826811
0.00869793
0.00906683
0.00938869
0.00967592
0.00993902
0.0101863
0.0104238
0.0106554
0.0108837
0.011111
0.0113401
0.0115705
0.0117981
0.0120244
0.0119551
0.0116646
0.0113768
0.0111406
0.0109548
0.0107957
0.0106386
0.010471
0.0102933
0.0101135
0.00994157
0.009785
0.00964807
0.00953193
0.00943553
0.00935657
0.0092923
0.00923996
0.00919709
0.00916161
0.00913186
0.00013433
0.000883714
0.00179302
0.00285278
0.00390573
0.00488813
0.00577683
0.00656608
0.00725706
0.0078538
0.00836456
0.00880066
0.00917539
0.00950267
0.00979495
0.0100628
0.0103149
0.0105572
0.0107938
0.0110268
0.0112567
0.0114829
0.0116995
0.0118777
0.0119423
0.0117832
0.0115388
0.0113111
0.0111226
0.0109633
0.010813
0.0106553
0.0104847
0.0103048
0.0101243
0.00995222
0.00979545
0.00965786
0.00954055
0.0094426
0.00936194
0.00929599
0.00924212
0.00919793
0.0091614
0.00913086
0.000133558
0.000892032
0.0017912
0.00283978
0.00390699
0.00491606
0.00583225
0.00664009
0.00734373
0.00794863
0.00846448