/*--------------------------------*- C++ -*----------------------------------*\
  =========                 |
  \\      /  F ield         | OpenFOAM: The Open Source CFD Toolbox
   \\    /   O peration     | Website:  https://openfoam.org
    \\  /    A nd           | Version:  9
     \\/     M anipulation  |
\*---------------------------------------------------------------------------*/
FoamFile
{
    format      ascii;
    class       volScalarField;
    location    "0.1";
    object      p;
}
// * * * * * * * * * * * * * * * * * * * * * * * * * * * * * * * * * * * * * //

dimensions      [1 -1 -2 0 0 0 0];

internalField   nonuniform List<scalar> 
7700
(
1535.74
1538.53
1539.48
1538.04
1533.35
1525.1
1513.33
1498.16
1479.7
1458.06
1433.29
1405.43
1374.44
1340.24
1302.7
1261.6
1216.63
1167.39
1113.37
1053.9
988.225
915.525
835.067
746.485
650.279
548.522
445.46
348.04
265.682
196.448
139.34
92.9768
59.7657
40.4681
26.8439
9.5136
4.72431
3.10317
2.60801
2.45528
2.39598
2.36349
2.34255
2.32961
2.32152
2.3219
1487.22
1489.37
1488.99
1486.07
1480.34
1471.46
1459.32
1443.94
1425.36
1403.63
1378.75
1350.74
1319.55
1285.07
1247.15
1205.56
1159.96
1109.93
1054.92
994.249
927.158
852.857
770.705
680.519
583.098
480.941
378.771
283.014
198.864
133.714
83.1647
43.2491
16.1966
5.622
3.18801
2.52722
1.93799
2.17892
2.30751
2.33518
2.32988
2.31106
2.29327
2.28146
2.27435
2.27475
1439.07
1441.2
1439.81
1435.39
1428.36
1418.51
1405.69
1389.82
1370.89
1348.86
1323.7
1295.38
1263.81
1228.89
1190.41
1148.12
1101.67
1050.6
994.357
932.258
863.577
787.619
703.908
612.521
514.625
413.139
312.958
219.996
139.415
75.7895
31.1295
8.59846
2.91682
2.25796
2.16242
2.03464
2.00828
2.07624
2.15072
2.2075
2.22843
2.22403
2.21505
2.20887
2.2069
2.21164
1391.05
1393.57
1391.93
1386.69
1378.7
1367.98
1354.42
1337.97
1318.54
1296.08
1270.52
1241.8
1209.8
1174.39
1135.35
1092.4
1045.18
993.233
935.997
872.832
803.063
726.088
641.566
549.737
451.937
351.118
251.48
157.537
76.4377
21.599
2.12296
1.22707
1.93944
2.12394
2.01865
1.91629
1.8801
1.91179
2.00233
2.08315
2.11246
2.11791
2.11731
2.11735
2.12218
2.13421
1343.31
1346.14
1344.59
1339.07
1330.57
1319.28
1305.17
1288.21
1268.32
1245.45
1219.5
1190.39
1158
1122.15
1082.64
1039.18
991.404
938.861
881.016
817.268
747
669.687
585.068
493.445
396.159
295.756
194.617
97.4412
25.0487
-0.276795
0.508257
1.73291
1.98288
1.97198
1.9392
1.87836
1.84014
1.85437
1.91027
1.96778
1.99775
2.00774
2.01159
2.01541
2.02524
2.04282
1296
1298.98
1297.61
1292.11
1283.43
1271.85
1257.4
1240.09
1219.87
1196.67
1170.4
1140.97
1108.25
1072.07
1032.22
988.404
940.278
887.408
829.289
765.366
695.085
617.991
533.883
443.097
346.932
247.047
143.401
48.9532
3.7565
0.538567
1.69053
1.89158
1.87775
1.87249
1.86492
1.83311
1.8066
1.81035
1.83901
1.87122
1.89059
1.89862
1.90219
1.90614
1.91756
1.93742
1249.3
1252.3
1251.13
1245.81
1237.17
1225.51
1210.93
1193.44
1173.01
1149.59
1123.11
1093.46
1060.52
1024.12
984.059
940.059
891.786
838.836
780.741
717.001
647.134
570.758
487.745
398.505
304.304
205.344
101.025
21.9839
2.26895
1.89011
1.8777
1.83602
1.80865
1.80301
1.7963
1.77541
1.75669
1.7537
1.76491
1.77935
1.78794
1.79037
1.78987
1.79001
1.79897
1.8164
1203.34
1206.28
1205.31
1200.25
1191.79
1180.23
1165.68
1148.16
1127.67
1104.16
1077.58
1047.82
1014.78
978.299
938.173
894.155
845.934
793.136
735.342
672.116
603.05
527.849
446.489
359.532
268.236
170.689
69.6489
12.0313
2.86883
2.01407
1.83987
1.7817
1.75677
1.74495
1.73138
1.71173
1.69384
1.68505
1.68486
1.68715
1.68648
1.68183
1.6744
1.66651
1.66786
1.6737
1158.23
1161.09
1160.3
1155.54
1147.35
1136.02
1121.62
1104.21
1083.79
1060.32
1033.76
1004.03
971.01
934.572
894.532
850.664
802.685
750.26
693.021
630.602
562.677
489.047
409.812
325.752
238.041
142.219
47.4768
8.04105
2.68903
1.90432
1.77758
1.73309
1.70578
1.68552
1.66582
1.64392
1.62394
1.60981
1.60111
1.59409
1.58509
1.57246
1.55568
1.53476
1.52133
1.49167
1114.06
1116.82
1116.21
1111.76
1103.9
1092.87
1078.74
1061.55
1041.3
1018
991.579
961.985
929.121
892.864
853.058
809.502
761.944
710.093
653.637
592.278
525.774
454.022
377.254
296.447
212.336
118.105
32.0538
5.54183
2.29716
1.80337
1.72134
1.68048
1.64762
1.62138
1.59679
1.57202
1.54922
1.53037
1.51494
1.50034
1.48371
1.46267
1.43468
1.39604
1.35771
1.23848
0.909867
0.912936
0.914243
0.913752
0.910803
0.905494
0.898287
0.889684
0.880114
0.869924
0.859386
0.848721
0.838017
0.82742
0.817019
0.806882
0.797052
0.787558
0.778419
0.769652
0.761271
0.753293
0.745735
0.738614
0.731948
0.725751
0.720037
0.714817
0.710101
0.7059
0.702223
0.699082
0.696487
0.694447
0.692963
0.692028
0.691612
0.691549
0.691835
0.692542
0.861479
0.864174
0.865062
0.864145
0.861161
0.856127
0.849346
0.841205
0.83207
0.822256
0.812019
0.801551
0.791054
0.780615
0.770339
0.760297
0.750541
0.741104
0.732011
0.723278
0.714924
0.706966
0.699422
0.692312
0.685653
0.679461
0.67375
0.668533
0.663822
0.659627
0.655959
0.652827
0.650239
0.648197
0.646695
0.645712
0.645198
0.645056
0.645212
0.645668
0.812981
0.816143
0.816928
0.815603
0.812411
0.807438
0.800897
0.793078
0.784277
0.774769
0.764792
0.754543
0.744198
0.733883
0.723701
0.713731
0.704031
0.694638
0.685578
0.67687
0.668533
0.660585
0.653047
0.645939
0.63928
0.633087
0.627375
0.622158
0.617448
0.613254
0.609586
0.606449
0.603848
0.601778
0.600223
0.599149
0.598497
0.598191
0.598239
0.598744
0.763825
0.768492
0.769982
0.768719
0.765359
0.760237
0.753634
0.745836
0.73711
0.727696
0.717811
0.707644
0.697358
0.687086
0.676935
0.666989
0.657306
0.647925
0.638873
0.63017
0.621834
0.613883
0.606339
0.599223
0.592554
0.586352
0.580632
0.575407
0.570688
0.566483
0.562801
0.559643
0.557009
0.554891
0.553267
0.552103
0.551348
0.550975
0.551104
0.551734
0.713725
0.720943
0.723864
0.723156
0.719763
0.714379
0.707487
0.699454
0.690562
0.681038
0.671081
0.660861
0.650529
0.640215
0.630027
0.62005
0.610342
0.600944
0.591879
0.583165
0.574817
0.566854
0.559296
0.552164
0.545479
0.53926
0.533523
0.528281
0.523544
0.519319
0.515611
0.512422
0.509747
0.507577
0.505892
0.504664
0.503861
0.503502
0.503771
0.504541
0.662294
0.673636
0.678773
0.678927
0.675523
0.669732
0.662329
0.653831
0.644563
0.63475
0.624571
0.614177
0.603701
0.593266
0.582977
0.572919
0.563151
0.553708
0.544613
0.535877
0.527511
0.51953
0.511952
0.504799
0.498092
0.49185
0.48609
0.480824
0.476062
0.47181
0.468072
0.464848
0.462133
0.459919
0.458189
0.456926
0.456117
0.455814
0.456219
0.457106
0.609711
0.627618
0.635712
0.636482
0.632809
0.626333
0.618133
0.608916
0.599059
0.588782
0.578241
0.567557
0.556844
0.546213
0.535766
0.525583
0.515721
0.506213
0.497073
0.488305
0.479915
0.471912
0.464312
0.457135
0.450402
0.444133
0.438345
0.433051
0.428259
0.423977
0.420207
0.416949
0.4142
0.411951
0.410195
0.408921
0.408135
0.407904
0.408427
0.409396
0.555751
0.584803
0.596642
0.596562
0.591876
0.584268
0.574889
0.564658
0.55399
0.543076
0.532034
0.520951
0.509915
0.499021
0.488363
0.478016
0.468034
0.458442
0.449245
0.440439
0.43202
0.423993
0.416369
0.409167
0.402407
0.396109
0.39029
0.384964
0.380141
0.375828
0.372027
0.368739
0.365962
0.363692
0.361926
0.360663
0.359915
0.359761
0.360375
0.361395
0.488213
0.54632
0.564636
0.560352
0.553
0.543566
0.532541
0.520969
0.509261
0.497544
0.485876
0.474296
0.462861
0.451647
0.440735
0.430194
0.420069
0.410378
0.401116
0.392267
0.383818
0.375766
0.368119
0.360891
0.354104
0.347776
0.341926
0.336568
0.331713
0.32737
0.323541
0.320229
0.317434
0.315155
0.313393
0.312154
0.311456
0.311373
0.312054
0.313099
0.40029
0.512749
0.541011
0.528825
0.516355
0.504088
0.490914
0.477687
0.464734
0.452072
0.439671
0.427516
0.415624
0.404046
0.392847
0.382089
0.371807
0.362008
0.352675
0.34378
0.335301
0.327226
0.319557
0.312307
0.305494
0.299137
0.293257
0.287868
0.282984
0.278613
0.27476
0.271431
0.268626
0.266349
0.264604
0.263398
0.262752
0.262733
0.26346
0.264512
1070.52
1073.17
1072.72
1068.58
1061.08
1050.4
1036.61
1019.72
999.765
976.72
950.557
921.221
888.632
852.689
813.258
770.169
723.204
672.113
616.642
556.561
491.705
422.06
347.988
270.584
189.496
96.5671
22.1662
4.13507
2.03309
1.72364
1.66154
1.61801
1.58133
1.55109
1.52292
1.49552
1.46997
1.44712
1.42631
1.40554
1.3822
1.35313
1.31352
1.25382
1.16198
0.849971
1027.47
1030.03
1029.72
1025.88
1018.74
1008.45
995.043
978.538
958.944
936.256
910.45
881.482
849.288
813.786
774.871
732.397
686.182
636.021
581.714
523.092
460.054
392.67
321.413
247.404
168.654
76.9954
15.5608
3.23944
1.8341
1.63744
1.58903
1.5447
1.5067
1.47429
1.44382
1.41437
1.3865
1.36046
1.33553
1.31003
1.28156
1.24676
1.20011
1.13044
1.02397
0.845764
985.168
987.629
987.446
983.887
977.106
967.219
954.236
938.162
919.001
896.751
871.394
842.895
811.206
776.266
737.993
696.268
650.944
601.858
548.858
491.824
430.713
365.659
297.228
226.452
149.42
59.7993
10.7578
2.59713
1.65885
1.54243
1.50504
1.46231
1.42487
1.39176
1.36006
1.32927
1.29972
1.27139
1.24355
1.21478
1.18308
1.14563
1.09834
1.03504
0.951108
0.86627
943.636
946.003
945.931
942.634
936.207
926.73
914.195
898.591
879.92
858.177
833.348
805.409
774.326
740.057
702.54
661.685
617.375
569.484
517.901
462.548
403.424
340.713
275.048
207.252
131.458
45.2557
7.26436
2.12078
1.503
1.44309
1.4127
1.37269
1.33697
1.30414
1.27208
1.24067
1.21014
1.18037
1.15069
1.11994
1.08654
1.04841
1.00291
0.947029
0.877837
0.805597
902.905
905.181
905.206
902.152
896.065
886.999
874.925
859.822
841.683
820.503
796.273
768.974
738.586
705.084
668.426
628.545
585.352
538.755
488.675
435.065
377.951
317.556
254.549
189.401
114.436
33.3578
4.79492
1.73247
1.36502
1.34187
1.31463
1.27776
1.24421
1.21222
1.18045
1.14904
1.11819
1.08774
1.0571
1.02535
0.991329
0.953477
0.909925
0.85868
0.79723
0.728514
862.995
865.182
865.29
862.46
856.7
848.04
836.435
821.853
804.28
783.711
760.137
733.547
703.933
671.282
635.571
596.752
554.763
509.539
461.025
409.197
354.098
295.971
235.481
172.593
98.2962
24.1765
3.24502
1.44541
1.2477
1.24034
1.2134
1.17925
1.14769
1.1168
1.08577
1.05485
1.02421
0.993685
0.962788
0.930833
0.896966
0.86004
0.818673
0.771534
0.717133
0.656503
823.92
826.017
826.197
823.575
818.128
809.868
798.734
784.687
767.706
747.783
724.913
699.091
670.317
638.59
603.9
566.218
525.504
481.715
434.815
384.792
331.704
275.803
217.693
156.685
83.2419
17.5851
2.39317
1.26475
1.14647
1.13887
1.11051
1.07824
1.04827
1.01855
0.988545
0.95846
0.92843
0.898314
0.867725
0.836173
0.803057
0.767521
0.728554
0.685384
0.637152
0.583968
785.688
787.697
787.938
785.508
780.361
772.491
761.829
748.325
731.955
712.707
690.579
665.572
637.693
606.95
573.342
536.858
497.476
455.168
409.915
361.717
310.637
256.938
201.143
141.845
69.86
13.1641
1.93613
1.13458
1.04725
1.03566
1.00604
0.975101
0.946435
0.917957
0.889137
0.860122
0.831013
0.801691
0.771859
0.741181
0.709243
0.675368
0.638784
0.59917
0.556121
0.508772
748.305
750.226
750.519
748.266
743.406
735.917
725.724
712.768
697.021
678.47
657.114
632.959
606.018
576.306
543.83
508.591
470.582
429.791
386.209
339.846
290.775
239.264
185.751
128.157
58.3072
9.99751
1.62149
1.00833
0.943317
0.929688
0.89966
0.869843
0.842455
0.815281
0.787769
0.76001
0.732079
0.70387
0.675151
0.645698
0.615227
0.583164
0.548867
0.512457
0.473589
0.431465
711.773
713.604
713.94
711.853
707.266
700.15
690.42
678.015
662.899
645.06
624.498
601.223
575.253
546.607
515.3
481.342
444.739
405.488
363.593
319.071
272.006
222.677
171.42
115.536
48.2598
7.59127
1.37689
0.882385
0.835699
0.821089
0.791049
0.762489
0.736463
0.710686
0.684604
0.658274
0.631744
0.604906
0.577572
0.549592
0.520776
0.490629
0.458631
0.424892
0.389372
0.351898
676.089
677.83
678.202
676.268
671.943
665.189
655.918
644.063
629.584
612.468
592.715
570.341
545.366
517.813
487.702
455.052
419.876
382.183
341.984
299.305
254.243
207.088
158.067
103.907
39.5747
5.7324
1.17044
0.759272
0.725638
0.70971
0.680104
0.653059
0.628554
0.604311
0.579804
0.555069
0.530126
0.50486
0.479104
0.452754
0.425695
0.3976
0.367735
0.336246
0.30407
0.269894
641.252
642.901
643.302
641.51
637.437
631.037
622.219
610.912
597.074
580.688
561.757
540.299
516.336
489.895
460.999
429.675
395.944
359.822
321.326
280.49
237.426
192.435
145.632
93.2055
32.1297
4.27651
0.982821
0.637509
0.612437
0.595174
0.566698
0.541576
0.518839
0.496319
0.473553
0.450563
0.42735
0.403795
0.379744
0.355111
0.329834
0.303728
0.276265
0.24703
0.217045
0.186408
607.255
608.814
609.236
607.579
603.748
597.694
589.324
578.564
565.369
549.719
531.618
511.086
488.148
462.831
435.166
405.183
372.909
338.367
301.58
262.588
221.518
178.681
134.072
83.3894
25.8442
3.12682
0.792567
0.512712
0.494708
0.476964
0.45072
0.428121
0.407491
0.386918
0.366052
0.344925
0.323536
0.301774
0.2795
0.25664
0.233148
0.208939
0.183704
0.157066
0.129368
0.101464
574.093
575.562
576.001
574.471
570.876
565.162
557.236
547.02
534.467
519.557
502.292
482.694
460.788
436.606
410.181
381.548
350.74
317.786
282.711
245.564
206.48
165.785
123.342
74.416
20.6366
2.20343
0.576034
0.379484
0.371297
0.354921
0.332333
0.312945
0.294776
0.276355
0.257509
0.238316
0.218795
0.198862
0.178398
0.157339
0.135655
0.1133
0.0901296
0.0659029
0.0407812
0.0150567
541.759
543.139
543.592
542.183
538.817
533.439
525.951
516.277
504.365
490.194
473.768
455.107
434.239
411.197
386.017
358.74
329.402
298.036
264.673
229.364
192.255
153.679
113.357
66.1768
16.3621
1.44811
0.330995
0.23666
0.242803
0.230065
0.212284
0.196568
0.181073
0.164911
0.148132
0.130885
0.113236
0.0951349
0.0764855
0.05724
0.0373841
0.016895
-0.0042975
-0.0263105
-0.0491025
-0.0725839
510.243
511.535
511.999
510.706
507.565
502.516
495.462
486.323
475.049
461.616
446.028
428.305
408.476
386.577
362.645
336.723
308.852
279.067
247.403
213.914
178.757
142.262
103.985
58.5006
12.852
0.858057
0.0984929
0.0925231
0.112909
0.10483
0.0919233
0.0797304
0.0668239
0.0528704
0.0381124
0.0227742
0.00697147
-0.00931393
-0.0261576
-0.0435925
-0.061614
-0.0802286
-0.0994731
-0.119412
-0.140038
-0.16137
479.532
480.738
481.209
480.029
477.107
472.381
465.754
457.145
446.503
433.803
419.051
402.264
383.474
362.716
340.031
315.461
289.046
260.826
230.839
199.142
165.901
131.433
95.1096
51.3063
9.97919
0.451633
-0.0723207
-0.0388847
-0.0129745
-0.0179572
-0.0273651
-0.0368651
-0.047579
-0.0595299
-0.0723881
-0.0858887
-0.0998866
-0.114382
-0.129438
-0.145075
-0.161269
-0.178019
-0.195352
-0.213316
-0.231919
-0.2512
449.61
450.73
451.205
450.132
447.424
443.015
436.809
428.724
418.708
406.737
392.816
376.964
359.21
339.591
318.149
294.923
269.952
243.277
214.938
184.999
153.631
121.128
86.6525
44.5961
7.7076
0.203244
-0.177519
-0.151706
-0.13197
-0.137076
-0.14497
-0.152873
-0.16192
-0.172143
-0.183252
-0.194994
-0.20723
-0.219966
-0.233261
-0.24712
-0.261507
-0.276416
-0.29188
-0.30795
-0.324629
-0.341948
420.457
421.491
421.967
420.997
418.497
414.401
408.61
401.043
391.647
380.401
367.307
352.385
335.664
317.18
296.976
275.087
251.549
226.4
199.685
171.474
141.945
111.361
78.6653
38.5071
6.0471
0.0395355
-0.261817
-0.25612
-0.246544
-0.253582
-0.261304
-0.268394
-0.276189
-0.284921
-0.294408
-0.304457
-0.31497
-0.325975
-0.337534
-0.349642
-0.362253
-0.375356
-0.388998
-0.403235
-0.418063
-0.433487
392.05
392.998
393.473
392.602
390.307
386.517
381.136
374.083
365.304
354.778
342.508
328.511
312.817
295.462
276.488
255.927
233.812
210.177
185.069
158.566
130.854
102.16
71.2304
33.1317
4.76429
-0.107809
-0.360128
-0.3635
-0.360617
-0.369326
-0.37724
-0.383785
-0.390535
-0.39791
-0.405851
-0.414246
-0.423057
-0.432351
-0.442193
-0.452573
-0.463439
-0.47478
-0.486647
-0.499102
-0.512132
-0.525718
364.365
365.229
365.699
364.925
362.829
359.343
354.369
347.825
339.658
329.847
318.396
305.319
290.643
274.407
256.651
237.408
216.704
194.574
171.064
146.257
120.343
93.5108
64.3314
28.3667
3.68436
-0.252757
-0.471049
-0.475536
-0.475925
-0.485613
-0.49351
-0.499468
-0.505195
-0.51124
-0.517651
-0.524398
-0.531509
-0.539088
-0.547214
-0.555875
-0.56502
-0.57464
-0.584782
-0.595501
-0.606783
-0.61859
337.376
338.157
338.621
337.939
336.04
332.852
328.28
322.24
314.681
305.581
294.941
282.776
269.11
253.98
237.428
219.486
200.181
179.545
157.622
134.498
110.359
85.3532
57.8933
24.0807
2.75415
-0.394895
-0.586806
-0.590733
-0.59307
-0.603142
-0.610673
-0.615853
-0.620454
-0.625108
-0.629945
-0.635012
-0.640398
-0.646239
-0.652625
-0.659557
-0.666991
-0.674919
-0.683379
-0.692409
-0.70199
-0.712079
311.054
311.751
312.207
311.614
309.907
307.014
302.837
297.297
290.339
281.943
272.108
260.846
248.179
234.144
218.781
202.124
184.201
165.043
144.692
123.229
100.837
77.6191
51.8508
20.2167
1.94733
-0.534708
-0.704828
-0.708638
-0.712429
-0.722387
-0.72917
-0.733301
-0.736584
-0.739708
-0.742876
-0.746199
-0.74981
-0.753868
-0.758478
-0.763655
-0.769373
-0.775624
-0.782432
-0.789814
-0.797741
-0.806168
285.365
285.977
286.422
285.915
284.397
281.793
278.007
272.96
266.599
258.9
249.863
239.495
227.818
214.867
200.68
185.293
168.735
151.036
132.233
112.405
91.7285
70.2661
46.1705
16.7431
1.24623
-0.672866
-0.824722
-0.829374
-0.834355
-0.843722
-0.849337
-0.852085
-0.853789
-0.855186
-0.856544
-0.858023
-0.859789
-0.86201
-0.864801
-0.868194
-0.872182
-0.876759
-0.881934
-0.887701
-0.894014
-0.900825
260.272
260.797
261.228
260.805
259.474
257.156
253.757
249.198
243.427
236.419
228.171
218.69
207.994
196.117
183.095
168.965
153.755
137.494
120.217
101.998
83.0124
63.281
40.8448
13.6426
0.638784
-0.810525
-0.946956
-0.953438
-0.959307
-0.967497
-0.971441
-0.972406
-0.972214
-0.971639
-0.971004
-0.970511
-0.97034
-0.97066
-0.971586
-0.973167
-0.97541
-0.97831
-0.981861
-0.986037
-0.990772
-0.996003
235.731
236.167
236.586
236.247
235.102
233.069
230.053
225.977
220.788
214.463
206.997
198.394
188.672
177.861
165.995
153.108
139.229
124.387
108.614
91.9862
74.6758
56.6574
35.868
10.898
0.112359
-0.951339
-1.07305
-1.08185
-1.08794
-1.0941
-1.09572
-1.09442
-1.09196
-1.08912
-1.08628
-1.08366
-1.08144
-1.07978
-1.0788
-1.07854
-1.07902
-1.08024
-1.08217
-1.08477
-1.08796
-1.09164
211.696
212.043
212.45
212.198
211.241
209.493
206.858
203.258
198.644
192.992
186.298
178.567
169.811
160.058
149.339
137.683
125.121
111.68
97.3972
82.3498
66.7041
50.3836
31.2371
8.5012
-0.346813
-1.10514
-1.20627
-1.2161
-1.22098
-1.22387
-1.2223
-1.21815
-1.21301
-1.20762
-1.20235
-1.19743
-1.19305
-1.18933
-1.18637
-1.18424
-1.18295
-1.18248
-1.18279
-1.18383
-1.1855
-1.18768
188.129
188.382
188.776
188.613
187.848
186.387
184.131
181.004
176.956
171.967
166.035
159.163
151.365
142.661
133.078
122.644
111.387
99.3392
86.5387
73.065
59.0745
44.4436
26.9609
6.46206
-0.753941
-1.29047
-1.35215
-1.35772
-1.35885
-1.3568
-1.35102
-1.34339
-1.33517
-1.32695
-1.31905
-1.3117
-1.30505
-1.2992
-1.29423
-1.29021
-1.28713
-1.28496
-1.28367
-1.28316
-1.28334
-1.28406
164.991
165.147
165.526
165.456
164.888
163.717
161.838
159.178
155.691
151.356
146.171
140.144
133.287
125.618
117.16
107.938
97.9817
87.323
76.0015
64.0949
51.7497
38.8124
23.0434
4.78491
-1.12444
-1.52297
-1.51595
-1.50699
-1.50083
-1.49218
-1.4813
-1.46969
-1.45808
-1.44683
-1.43618
-1.4263
-1.4173
-1.40927
-1.40227
-1.39634
-1.39146
-1.38761
-1.38471
-1.38268
-1.3814
-1.38073
142.154
142.245
142.658
142.707
142.344
141.463
139.96
137.759
134.822
131.129
126.679
121.478
115.541
108.889
101.543
93.5257
84.8659
75.5932
65.7446
55.3931
44.6831
33.4477
19.4462
3.42508
-1.45577
-1.77988
-1.69356
-1.66048
-1.64412
-1.62829
-1.6121
-1.59635
-1.58125
-1.56691
-1.55346
-1.54102
-1.52965
-1.51942
-1.51036
-1.50251
-1.49585
-1.49032
-1.48584
-1.48231
-1.47963
-1.47763
119.463
119.457
119.989
120.252
120.151
119.587
118.466
116.722
114.323
111.259
107.53
103.139
98.1038
92.4486
86.1982
79.3757
72.0047
64.1098
55.7234
46.9189
37.8448
28.3024
16.086
2.2698
-1.71224
-1.98272
-1.8618
-1.80909
-1.78405
-1.76267
-1.74212
-1.72264
-1.70422
-1.68686
-1.67065
-1.65565
-1.64191
-1.62948
-1.61838
-1.60863
-1.60019
-1.593
-1.58695
-1.58194
-1.57792
-1.57476
97.0579
96.8617
97.4335
97.955
98.1755
97.974
97.272
96.0055
94.1461
91.7006
88.6802
85.0918
80.9491
76.2779
71.1063
65.4585
59.3551
52.8196
45.889
38.6424
31.1946
23.3618
12.9128
1.23069
-1.87163
-2.08409
-1.99427
-1.94369
-1.91723
-1.89378
-1.87054
-1.84808
-1.82664
-1.80642
-1.78751
-1.77
-1.75392
-1.7393
-1.72619
-1.71456
-1.7044
-1.69559
-1.688
-1.68155
-1.67632
-1.67192
74.4074
74.4346
75.0397
75.7839
76.3208
76.4979
76.2282
75.4533
74.1481
72.3261
70.0116
67.2195
63.9634
60.2671
56.1601
51.6641
46.7984
41.5997
36.1246
30.4155
24.5984
18.5329
9.95701
0.356432
-1.97687
-2.13833
-2.09934
-2.06761
-2.04585
-2.0227
-1.99784
-1.97281
-1.94854
-1.92548
-1.9039
-1.88389
-1.86551
-1.84877
-1.83369
-1.82026
-1.80842
-1.79807
-1.78904
-1.78131
-1.77477
-1.76888
50.3543
51.2241
52.1446
53.4656
54.4081
54.9695
55.1019
54.7831
54.0212
52.8298
51.2208
49.2064
46.8091
44.0629
40.9981
37.632
33.9871
30.1116
26.04
21.8368
17.6902
13.4747
7.1064
-0.353201
-2.084
-2.21587
-2.20968
-2.19366
-2.1758
-2.15227
-2.1253
-2.09739
-2.07004
-2.044
-2.01967
-1.99717
-1.97655
-1.95778
-1.94082
-1.92566
-1.9122
-1.90037
-1.89006
-1.88097
-1.87284
-1.86573
27.0959
29.523
29.6685
31.0509
32.2029
33.0482
33.5426
33.656
33.4024
32.8095
31.8904
30.6497
29.1074
27.3034
25.2754
23.0456
20.6417
18.0998
15.463
12.7958
10.3024
8.09614
4.18467
-1.04538
-2.20137
-2.32873
-2.33909
-2.32983
-2.31125
-2.2847
-2.25395
-2.22219
-2.19119
-2.16187
-2.13465
-2.10965
-2.08685
-2.06615
-2.04745
-2.03064
-2.01562
-2.00228
-1.99054
-1.9802
-1.97076
-1.96211
11.1261
15.7608
13.1319
12.7904
12.7848
12.9751
13.2175
13.4013
13.4688
13.3919
13.1475
12.7238
12.1322
11.4026
10.5706
9.66094
8.69185
7.69313
6.68311
5.71957
5.05076
4.7906
2.63087
-1.87062
-2.33239
-2.46407
-2.48795
-2.479
-2.45406
-2.42079
-2.38404
-2.34713
-2.31178
-2.27884
-2.24862
-2.22113
-2.19622
-2.17368
-2.15333
-2.13498
-2.11848
-2.10368
-2.09048
-2.07876
-2.06818
-2.05844
1.13856
6.94105
6.11919
5.82326
4.37304
2.78292
1.63306
0.991319
0.751095
0.778391
0.976973
1.26856
1.60974
1.98209
2.38563
2.81644
3.28121
3.78729
4.32109
4.86864
5.68102
7.12563
5.19788
-2.68167
-2.58149
-2.63728
-2.66002
-2.64222
-2.60426
-2.55982
-2.51475
-2.47148
-2.43122
-2.39445
-2.36121
-2.33129
-2.30437
-2.28012
-2.25823
-2.23845
-2.22057
-2.20444
-2.18992
-2.1769
-2.1652
-2.15461
-3.94655
-3.33401
-3.39723
-2.002
-0.595815
0.790355
1.68333
1.92674
1.99419
2.10785
2.31054
2.59245
2.92361
3.24662
3.52816
3.75302
3.92165
4.04403
4.1158
4.12424
4.19421
4.76764
4.58865
-2.99981
-3.12793
-2.87884
-2.8546
-2.81575
-2.75798
-2.6989
-2.64388
-2.59368
-2.54839
-2.5079
-2.47183
-2.43969
-2.41096
-2.38516
-2.36188
-2.34082
-2.32171
-2.30439
-2.28872
-2.2746
-2.26189
-2.25042
-3.85837
-3.73855
-3.82772
-3.899
-4.03636
-4.09734
-4.09624
-4.07977
-4.07356
-4.05008
-4.02459
-4.00071
-3.98148
-3.97753
-3.98045
-3.96916
-3.9588
-3.94975
-3.94286
-3.94516
-3.95722
-3.9573
-3.90505
-3.53075
-3.49002
-3.15288
-3.0609
-2.9852
-2.90539
-2.83225
-2.76793
-2.71146
-2.66182
-2.6182
-2.57979
-2.54582
-2.5156
-2.48852
-2.46407
-2.44189
-2.42173
-2.4034
-2.38676
-2.3717
-2.35811
-2.34585
-3.86361
-3.83344
-3.86336
-3.88604
-3.91417
-3.93231
-3.93994
-3.94271
-3.94589
-3.95477
-3.95869
-3.94873
-3.92805
-3.90732
-3.89743
-3.89496
-3.89196
-3.88942
-3.88897
-3.89173
-3.8974
-3.9052
-3.9127
-3.83342
-3.62378
-3.38461
-3.24195
-3.13125
-3.0356
-2.95344
-2.88313
-2.82256
-2.77007
-2.72439
-2.68443
-2.64923
-2.61796
-2.58992
-2.56457
-2.54152
-2.52051
-2.50135
-2.48393
-2.46811
-2.4538
-2.44086
-3.88882
-3.8771
-3.88947
-3.90694
-3.92913
-3.94881
-3.96246
-3.97028
-3.97274
-3.96883
-3.96319
-3.95575
-3.94669
-3.9381
-3.93116
-3.92393
-3.91605
-3.90845
-3.90161
-3.89529
-3.88758
-3.87821
-3.86712
-3.8253
-3.65738
-3.48388
-3.3493
-3.23742
-3.14115
-3.05828
-2.987
-2.92548
-2.87221
-2.82587
-2.78534
-2.7496
-2.71779
-2.68917
-2.66323
-2.63957
-2.61795
-2.59819
-2.58017
-2.56377
-2.54888
-2.53539
-3.91985
-3.91584
-3.92103
-3.93053
-3.94477
-3.95959
-3.9714
-3.97886
-3.98179
-3.9803
-3.97595
-3.96938
-3.96088
-3.9513
-3.94126
-3.9307
-3.91965
-3.90829
-3.89653
-3.88319
-3.86602
-3.84209
-3.80798
-3.75133
-3.64235
-3.52212
-3.41328
-3.31473
-3.22648
-3.14849
-3.08011
-3.02037
-2.9682
-2.92256
-2.88241
-2.84683
-2.81497
-2.78618
-2.75996
-2.73598
-2.714
-2.69386
-2.67544
-2.65863
-2.64333
-2.62941
-3.94884
-3.95082
-3.95426
-3.95893
-3.96609
-3.97387
-3.98025
-3.98406
-3.98491
-3.98293
-3.97853
-3.97186
-3.96315
-3.953
-3.94197
-3.93024
-3.91769
-3.90396
-3.88855
-3.87054
-3.84782
-3.81799
-3.77757
-3.72059
-3.64085
-3.55086
-3.4619
-3.3773
-3.29905
-3.22812
-3.1647
-3.10845
-3.05875
-3.01482
-2.97584
-2.94098
-2.90953
-2.88094
-2.85477
-2.83074
-2.80864
-2.78834
-2.76971
-2.75267
-2.7371
-2.72289
-3.97483
-3.98008
-3.98474
-3.98855
-3.99262
-3.99657
-3.99947
-4.00065
-3.99984
-3.99686
-3.99166
-3.98426
-3.97491
-3.96409
-3.95217
-3.93922
-3.92498
-3.90891
-3.89032
-3.86846
-3.84208
-3.80936
-3.76815
-3.71573
-3.65087
-3.57866
-3.5048
-3.43255
-3.36411
-3.30079
-3.24316
-3.19127
-3.14483
-3.10328
-3.06599
-3.0323
-3.00165
-2.97358
-2.94774
-2.92391
-2.90192
-2.88165
-2.863
-2.84587
-2.83019
-2.81582
-3.99928
-4.00566
-4.01165
-4.01609
-4.01954
-4.02216
-4.02366
-4.02377
-4.02219
-4.01854
-4.01256
-4.00432
-3.99415
-3.98246
-3.96949
-3.95519
-3.93919
-3.92097
-3.8999
-3.87539
-3.8467
-3.81283
-3.77256
-3.72475
-3.6694
-3.60902
-3.5467
-3.48483
-3.42526
-3.36925
-3.31752
-3.27028
-3.22744
-3.18861
-3.15334
-3.12114
-3.09156
-3.06427
-3.039
-3.01558
-2.99388
-2.97382
-2.95531
-2.93827
-2.9226
-2.90818
-4.02399
-4.03042
-4.03696
-4.04192
-4.04541
-4.0477
-4.04876
-4.04841
-4.04628
-4.04194
-4.03523
-4.02632
-4.01557
-4.00326
-3.98949
-3.97409
-3.95668
-3.93684
-3.91417
-3.88829
-3.85879
-3.8252
-3.78691
-3.7435
-3.69524
-3.64353
-3.59018
-3.53683
-3.48493
-3.43556
-3.3894
-3.34671
-3.30749
-3.27151
-3.23842
-3.20788
-3.17957
-3.15324
-3.12871
-3.10587
-3.08462
-3.06492
-3.04669
-3.02987
-3.01436
-2.99999
-4.05008
-4.05621
-4.06275
-4.06785
-4.0714
-4.07363
-4.07448
-4.0737
-4.07091
-4.06584
-4.05854
-4.04926
-4.03827
-4.0257
-4.01145
-3.99529
-3.97693
-3.95613
-3.93273
-3.90657
-3.87749
-3.84523
-3.80954
-3.77026
-3.72769
-3.68268
-3.63641
-3.59003
-3.54463
-3.50109
-3.45996
-3.42152
-3.38577
-3.35258
-3.32171
-3.29291
-3.26597
-3.24072
-3.21705
-3.1949
-3.17424
-3.15502
-3.13722
-3.12074
-3.10549
-3.09127
-4.07828
-4.084
-4.09027
-4.09529
-4.09881
-4.10092
-4.10146
-4.10011
-4.09663
-4.09101
-4.08343
-4.0741
-4.06312
-4.05046
-4.03594
-4.01934
-4.00052
-3.97943
-3.95609
-3.93051
-3.90263
-3.8723
-3.83938
-3.80385
-3.76597
-3.72633
-3.68575
-3.64511
-3.60519
-3.56668
-3.53002
-3.49542
-3.4629
-3.43236
-3.40364
-3.37658
-3.35104
-3.32693
-3.30419
-3.28283
-3.26285
-3.24424
-3.22696
-3.21094
-3.19603
-3.18204
-4.10897
-4.11431
-4.12019
-4.12499
-4.12832
-4.13011
-4.13014
-4.12821
-4.12427
-4.11845
-4.11091
-4.10174
-4.09087
-4.07816
-4.06349
-4.04676
-4.02796
-4.00719
-3.98457
-3.96015
-3.93389
-3.9057
-3.87548
-3.84327
-3.80931
-3.77407
-3.73819
-3.70231
-3.66703
-3.63286
-3.60011
-3.56893
-3.53934
-3.51126
-3.48458
-3.45919
-3.43502
-3.41206
-3.39031
-3.36981
-3.3506
-3.33268
-3.31603
-3.30054
-3.28605
-3.27236
-4.14228
-4.14723
-4.15271
-4.15718
-4.16014
-4.16146
-4.16099
-4.1587
-4.15466
-4.14897
-4.14167
-4.13269
-4.12188
-4.10914
-4.09445
-4.07788
-4.05954
-4.03958
-4.01811
-3.99517
-3.9707
-3.94463
-3.91691
-3.88762
-3.857
-3.82546
-3.79351
-3.76165
-3.73034
-3.6999
-3.67056
-3.64241
-3.61544
-3.58958
-3.56477
-3.54095
-3.51812
-3.4963
-3.47557
-3.456
-3.43763
-3.42048
-3.40451
-3.38962
-3.37561
-3.36225
-4.17812
-4.1827
-4.18777
-4.1918
-4.19432
-4.19523
-4.1945
-4.19218
-4.18833
-4.1829
-4.1758
-4.16689
-4.15609
-4.14338
-4.1289
-4.11282
-4.0953
-4.07648
-4.05639
-4.03504
-4.01236
-3.98828
-3.96282
-3.93611
-3.9084
-3.88005
-3.85147
-3.82307
-3.79516
-3.76796
-3.74158
-3.71608
-3.69141
-3.66753
-3.64441
-3.62206
-3.6005
-3.57984
-3.56016
-3.54156
-3.52408
-3.50775
-3.49252
-3.47826
-3.46475
-3.45176
-4.21637
-4.22061
-4.22525
-4.22885
-4.23099
-4.23168
-4.23097
-4.22885
-4.22525
-4.21998
-4.21291
-4.20399
-4.19323
-4.18077
-4.1668
-4.15153
-4.13511
-4.11759
-4.09897
-4.07918
-4.05817
-4.03592
-4.01251
-3.98811
-3.96297
-3.93743
-3.91182
-3.88643
-3.86148
-3.83707
-3.81326
-3.79004
-3.76737
-3.74525
-3.72366
-3.70267
-3.68236
-3.66284
-3.64424
-3.62664
-3.6101
-3.59462
-3.58015
-3.56653
-3.55355
-3.54095
-4.25699
-4.26095
-4.26518
-4.26842
-4.27035
-4.27101
-4.27043
-4.2685
-4.26498
-4.2597
-4.25257
-4.24367
-4.23316
-4.22124
-4.2081
-4.19391
-4.17873
-4.16255
-4.14532
-4.12697
-4.10749
-4.08692
-4.06539
-4.0431
-4.02032
-3.99731
-3.97434
-3.9516
-3.92921
-3.9072
-3.88558
-3.86432
-3.8434
-3.82282
-3.80264
-3.78294
-3.76384
-3.74548
-3.72797
-3.7114
-3.69582
-3.6812
-3.66748
-3.65451
-3.64206
-3.62987
-4.30005
-4.30374
-4.30766
-4.31067
-4.31252
-4.31322
-4.31268
-4.3107
-4.30707
-4.30167
-4.29456
-4.28591
-4.27594
-4.26486
-4.25278
-4.23977
-4.22583
-4.21089
-4.19491
-4.17786
-4.15978
-4.14077
-4.121
-4.10071
-4.08011
-4.05943
-4.03882
-4.01841
-3.99822
-3.97827
-3.95852
-3.93894
-3.91954
-3.90036
-3.88148
-3.86302
-3.84512
-3.82791
-3.81151
-3.79598
-3.78134
-3.76757
-3.75459
-3.74225
-3.73033
-3.71856
-4.34553
-4.34898
-4.35268
-4.35556
-4.35735
-4.35798
-4.35728
-4.35507
-4.35124
-4.34583
-4.33897
-4.33088
-4.32173
-4.31166
-4.30069
-4.28881
-4.27597
-4.26212
-4.24724
-4.23136
-4.2146
-4.1971
-4.17905
-4.16067
-4.14212
-4.12355
-4.10506
-4.08667
-4.06838
-4.05017
-4.03201
-4.01389
-3.99584
-3.97794
-3.9603
-3.94306
-3.92635
-3.91029
-3.89498
-3.88047
-3.86676
-3.85381
-3.84155
-3.82983
-3.81842
-3.80706
-4.3933
-4.39654
-4.40005
-4.40277
-4.4044
-4.40481
-4.40384
-4.4014
-4.39754
-4.39237
-4.38607
-4.37878
-4.37058
-4.36152
-4.35155
-4.34063
-4.3287
-4.31577
-4.30189
-4.28714
-4.27169
-4.2557
-4.23934
-4.22278
-4.20614
-4.18949
-4.17284
-4.1562
-4.13953
-4.1228
-4.10601
-4.08918
-4.07238
-4.05569
-4.03926
-4.0232
-4.00766
-3.99273
-3.97848
-3.96496
-3.95214
-3.93998
-3.92841
-3.91728
-3.90637
-3.89543
-4.44317
-4.44622
-4.44948
-4.45195
-4.45331
-4.45345
-4.45229