/*--------------------------------*- C++ -*----------------------------------*\
  =========                 |
  \\      /  F ield         | OpenFOAM: The Open Source CFD Toolbox
   \\    /   O peration     | Website:  https://openfoam.org
    \\  /    A nd           | Version:  9
     \\/     M anipulation  |
\*---------------------------------------------------------------------------*/
FoamFile
{
    format      ascii;
    class       volScalarField;
    location    "0.1";
    object      p_rgh;
}
// * * * * * * * * * * * * * * * * * * * * * * * * * * * * * * * * * * * * * //

dimensions      [1 -1 -2 0 0 0 0];

internalField   nonuniform List<scalar> 
7700
(
1559.29
1562.07
1563.02
1561.58
1556.89
1548.65
1536.88
1521.7
1503.24
1481.6
1456.83
1428.97
1397.98
1363.78
1326.24
1285.14
1240.17
1190.94
1136.91
1077.44
1011.77
939.069
858.61
770.029
673.822
572.066
469.003
371.583
289.225
219.991
162.809
116.139
82.6392
62.4896
42.7686
12.8032
5.21149
3.27043
2.67042
2.48771
2.42117
2.38727
2.36612
2.35316
2.34507
2.34545
1557.85
1560
1559.62
1556.7
1550.97
1542.09
1529.95
1514.57
1495.99
1474.26
1449.39
1421.37
1390.18
1355.7
1317.78
1276.19
1230.59
1180.56
1125.55
1064.88
997.788
923.487
841.336
751.149
653.728
551.571
449.401
353.64
269.451
204.117
153.173
109.933
62.9296
20.5929
7.8113
6.14576
3.86502
2.6933
2.46007
2.42714
2.40508
2.38246
2.36399
2.3521
2.34498
2.34538
1556.79
1558.92
1557.52
1553.11
1546.07
1536.23
1523.4
1507.54
1488.61
1466.57
1441.42
1413.1
1381.53
1346.6
1308.13
1265.84
1219.39
1168.32
1112.07
1049.98
981.295
905.336
821.626
730.239
632.342
530.856
430.668
337.654
256.784
192.073
138.315
76.386
20.4465
4.15884
2.67129
2.53135
2.63141
2.66302
2.46832
2.35589
2.35116
2.34284
2.33294
2.3266
2.32462
2.32936
1555.85
1558.38
1556.73
1551.49
1543.5
1532.78
1519.23
1502.77
1483.34
1460.88
1435.33
1406.61
1374.61
1339.19
1300.15
1257.2
1209.99
1158.04
1100.8
1037.64
967.867
890.893
806.371
714.541
616.742
515.921
416.258
322.11
239.436
162.922
74.0198
15.0945
4.53596
3.1593
2.39058
2.14115
2.08002
2.11158
2.22461
2.28081
2.28236
2.28333
2.28225
2.28218
2.28699
2.29902
1555.2
1558.03
1556.48
1550.96
1542.46
1531.17
1517.06
1500.1
1480.22
1457.34
1431.4
1402.28
1369.89
1334.04
1294.53
1251.07
1203.3
1150.75
1092.91
1029.16
958.891
881.578
796.96
705.336
608.05
507.647
406.508
308.726
203.146
76.0316
10.2526
3.75693
2.98748
2.4803
2.24033
2.1117
2.05904
2.07144
2.12665
2.1841
2.21201
2.21992
2.22352
2.22731
2.23713
2.25471
1554.98
1557.96
1556.59
1551.09
1542.41
1530.83
1516.38
1499.07
1478.85
1455.64
1429.38
1399.95
1367.23
1331.05
1291.2
1247.38
1199.26
1146.39
1088.27
1024.34
954.063
876.969
792.861
702.075
605.91
506.025
402.38
284.022
111.354
10.7373
3.75646
2.78062
2.35408
2.2139
2.15235
2.10011
2.06796
2.07066
2.09897
2.13102
2.15004
2.15773
2.16118
2.16512
2.17654
2.1964
1555.37
1558.37
1557.2
1551.87
1543.23
1531.58
1516.99
1499.5
1479.07
1455.66
1429.17
1399.52
1366.58
1330.19
1290.12
1246.12
1197.85
1144.9
1086.81
1023.07
953.199
876.823
793.81
704.571
610.369
511.409
406.296
213.831
28.8561
4.67848
2.89188
2.35699
2.18501
2.13296
2.11101
2.08443
2.06365
2.06015
2.07124
2.08561
2.09412
2.09648
2.09594
2.09608
2.10503
2.12246
1556.49
1559.44
1558.46
1553.4
1544.94
1533.39
1518.83
1501.31
1480.82
1457.31
1430.73
1400.98
1367.94
1331.45
1291.33
1247.31
1199.09
1146.29
1088.49
1025.27
956.202
881.001
799.641
712.684
621.388
523.842
390.702
120.737
7.892
3.6112
2.52701
2.2264
2.13611
2.10616
2.08727
2.06592
2.04736
2.03833
2.03809
2.04035
2.03966
2.03499
2.02756
2.01967
2.02102
2.02685
1558.47
1561.33
1560.54
1555.78
1547.59
1536.26
1521.86
1504.45
1484.03
1460.56
1434
1404.27
1371.25
1334.81
1294.77
1250.9
1202.92
1150.5
1093.26
1030.84
962.916
889.287
810.051
725.992
638.28
542.458
345.373
52.7664
5.81018
2.98689
2.35319
2.17879
2.11799
2.08903
2.06705
2.04451
2.02431
2.01009
2.00137
1.99434
1.98533
1.9727
1.95592
1.935
1.92157
1.89191
1561.39
1564.15
1563.54
1559.09
1551.23
1540.19
1526.06
1508.87
1488.63
1465.32
1438.91
1409.31
1376.45
1340.19
1300.38
1256.83
1209.27
1157.42
1100.96
1039.6
973.1
901.348
824.58
743.773
659.662
565.432
273.646
19.6567
4.44537
2.65862
2.26867
2.15308
2.10141
2.07034
2.04454
2.01947
1.9966
1.97772
1.96227
1.94767
1.93104
1.90999
1.88201
1.84337
1.80504
1.68581
0.933411
0.936479
0.937786
0.937296
0.934347
0.929038
0.921831
0.913227
0.903657
0.893468
0.88293
0.872264
0.861561
0.850964
0.840563
0.830426
0.820596
0.811101
0.801963
0.793195
0.784815
0.776836
0.769278
0.762158
0.755492
0.749295
0.743581
0.73836
0.733644
0.729443
0.725767
0.722626
0.720031
0.71799
0.716506
0.715571
0.715156
0.715092
0.715379
0.716086
0.93211
0.934805
0.935692
0.934775
0.931792
0.926758
0.919976
0.911835
0.9027
0.892886
0.88265
0.872182
0.861684
0.851245
0.840969
0.830928
0.821171
0.811735
0.802641
0.793909
0.785555
0.777597
0.770053
0.762942
0.756283
0.750091
0.74438
0.739164
0.734453
0.730258
0.72659
0.723457
0.720869
0.718827
0.717326
0.716342
0.715829
0.715687
0.715842
0.716299
0.930699
0.93386
0.934645
0.93332
0.930128
0.925156
0.918614
0.910795
0.901995
0.892487
0.88251
0.87226
0.861916
0.8516
0.841418
0.831449
0.821749
0.812356
0.803295
0.794587
0.78625
0.778302
0.770764
0.763656
0.756997
0.750804
0.745093
0.739876
0.735165
0.730972
0.727303
0.724167
0.721566
0.719495
0.71794
0.716866
0.716214
0.715908
0.715957
0.716462
0.92863
0.933296
0.934786
0.933523
0.930163
0.925041
0.918439
0.910641
0.901914
0.8925
0.882616
0.872449
0.862162
0.85189
0.841739
0.831793
0.82211
0.81273
0.803678
0.794975
0.786638
0.778688
0.771144
0.764027
0.757359
0.751157
0.745437
0.740211
0.735492
0.731288
0.727605
0.724447
0.721814
0.719695
0.718071
0.716907
0.716152
0.715779
0.715908
0.716539
0.925616
0.932834
0.935756
0.935047
0.931654
0.926271
0.919378
0.911346
0.902453
0.89293
0.882973
0.872753
0.86242
0.852106
0.841918
0.831941
0.822234
0.812835
0.80377
0.795056
0.786709
0.778746
0.771187
0.764055
0.75737
0.751152
0.745414
0.740172
0.735435
0.73121
0.727503
0.724313
0.721639
0.719469
0.717784
0.716555
0.715752
0.715394
0.715662
0.716433
0.921273
0.932615
0.937752
0.937905
0.934501
0.92871
0.921308
0.91281
0.903541
0.893728
0.88355
0.873155
0.862679
0.852244
0.841956
0.831898
0.822129
0.812687
0.803591
0.794855
0.786489
0.778508
0.77093
0.763777
0.757071
0.750829
0.745068
0.739802
0.73504
0.730789
0.727051
0.723826
0.721112
0.718897
0.717167
0.715904
0.715095
0.714792
0.715198
0.716084
0.915776
0.933683
0.941777
0.942547
0.938874
0.932398
0.924198
0.914982
0.905125
0.894848
0.884306
0.873622
0.862909
0.852279
0.841831
0.831648
0.821786
0.812278
0.803138
0.79437
0.78598
0.777977
0.770377
0.7632
0.756467
0.750199
0.744411
0.739116
0.734325
0.730043
0.726272
0.723014
0.720265
0.718017
0.71626
0.714987
0.7142
0.71397
0.714492
0.715461
0.908904
0.937955
0.949795
0.949715
0.945028
0.93742
0.928041
0.917811
0.907142
0.896228
0.885186
0.874103
0.863067
0.852173
0.841515
0.831169
0.821187
0.811594
0.802397
0.793591
0.785173
0.777146
0.769522
0.762319
0.755559
0.749261
0.743443
0.738117
0.733294
0.72898
0.725179
0.721891
0.719115
0.716845
0.715078
0.713815
0.713068
0.712913
0.713527
0.714547
0.888452
0.94656
0.964876
0.960592
0.95324
0.943806
0.932781
0.921208
0.9095
0.897783
0.886115
0.874535
0.8631
0.851886
0.840974
0.830433
0.820309
0.810618
0.801355
0.792506
0.784057
0.776006
0.768358
0.761131
0.754343
0.748016
0.742165
0.736807
0.731953
0.727609
0.72378
0.720468
0.717673
0.715394
0.713633
0.712394
0.711695
0.711612
0.712293
0.713338
0.847616
0.960075
0.988338
0.976152
0.963681
0.951414
0.938241
0.925013
0.912061
0.899399
0.886998
0.874843
0.862951
0.851372
0.840174
0.829415
0.819134
0.809335
0.800001
0.791106
0.782627
0.774553
0.766884
0.759634
0.75282
0.746464
0.740583
0.735194
0.73031
0.725939
0.722087
0.718757
0.715953
0.713675
0.71193
0.710725
0.710078
0.710059
0.710786
0.711838
1565.35
1568.01
1567.56
1563.42
1555.92
1545.24
1531.44
1514.56
1494.6
1471.56
1445.39
1416.06
1383.47
1347.52
1308.09
1265
1218.04
1166.95
1111.48
1051.4
986.54
916.895
842.823
765.42
684.331
575.898
201.359
9.7281
3.6432
2.47589
2.21742
2.12798
2.08002
2.04687
2.01798
1.99041
1.96482
1.94196
1.92115
1.90038
1.87704
1.84796
1.80835
1.74866
1.65682
1.34481
1570.46
1573.02
1572.71
1568.87
1561.73
1551.44
1538.03
1521.53
1501.93
1479.24
1453.44
1424.47
1392.28
1356.77
1317.86
1275.39
1229.17
1179.01
1124.7
1066.08
1003.04
935.658
864.401
790.393
711.643
566.41
141.286
7.36999
3.11259
2.34335
2.16974
2.09715
2.05199
2.01782
1.98693
1.95739
1.92949
1.90345
1.87852
1.85302
1.82455
1.78975
1.7431
1.67343
1.56695
1.38875
1576.76
1579.22
1579.04
1575.48
1568.7
1558.81
1545.83
1529.75
1510.59
1488.34
1462.98
1434.48
1402.8
1367.86
1329.58
1287.86
1242.53
1193.45
1140.45
1083.41
1022.3
957.248
888.817
818.041
741.009
545.48
92.6948
5.69733
2.7399
2.23905
2.12093
2.05981
2.01781
1.98365
1.95171
1.92087
1.89131
1.86298
1.83514
1.80637
1.77467
1.73722
1.68993
1.62663
1.5427
1.45786
1584.28
1586.64
1586.57
1583.28
1576.85
1567.37
1554.84
1539.23
1520.56
1498.82
1473.99
1446.05
1414.97
1380.7
1343.18
1302.33
1258.02
1210.12
1158.54
1103.19
1044.07
981.354
915.689
847.894
772.099
514.949
56.8091
4.54885
2.47611
2.15261
2.06933
2.01701
1.97841
1.94495
1.91275
1.88132
1.85078
1.82101
1.79133
1.76058
1.72718
1.68905
1.64355
1.58767
1.51848
1.44624
1593.05
1595.33
1595.35
1592.3
1586.21
1577.15
1565.07
1549.97
1531.83
1510.65
1486.42
1459.12
1428.74
1395.23
1358.57
1318.69
1275.5
1228.9
1178.82
1125.21
1068.1
1007.7
944.697
879.549
804.584
469.965
31.0595
3.72366
2.28529
2.07783
2.01535
1.97022
1.93484
1.90246
1.87062
1.83919
1.80834
1.77789
1.74725
1.7155
1.68148
1.64363
1.60007
1.54883
1.48738
1.41866
1603.11
1605.3
1605.41
1602.58
1596.82
1588.16
1576.55
1561.97
1544.4
1523.83
1500.25
1473.66
1444.05
1411.4
1375.69
1336.87
1294.88
1249.65
1201.14
1149.31
1094.21
1036.09
975.597
912.709
838.412
414.089
15.9819
3.15866
2.15132
2.01207
1.96054
1.92082
1.8881
1.85697
1.8259
1.79497
1.76433
1.7338
1.7029
1.67095
1.63708
1.60016
1.55879
1.51165
1.45725
1.39662
1614.47
1616.56
1616.74
1614.12
1608.67
1600.41
1589.28
1575.23
1558.25
1538.33
1515.46
1489.64
1460.86
1429.14
1394.45
1356.76
1316.05
1272.26
1225.36
1175.34
1122.25
1066.35
1008.24
947.232
872.815
351.067
8.84851
2.79222
2.05521
1.95187
1.90579
1.86972
1.83899
1.80913
1.7791
1.74901
1.71898
1.68886
1.65827
1.62672
1.5936
1.55807
1.5191
1.47593
1.4277
1.37451
1627.13
1629.14
1629.38
1626.95
1621.81
1613.94
1603.27
1589.77
1573.4
1554.15
1532.02
1507.02
1479.14
1448.4
1414.79
1378.3
1338.92
1296.61
1251.36
1203.16
1152.08
1098.38
1042.59
983.291
886.214
297.369
6.73729
2.53131
1.9737
1.89313
1.8507
1.81715
1.78799
1.75942
1.73059
1.70157
1.67246
1.64314
1.61331
1.58263
1.55069
1.51681
1.48023
1.44062
1.39757
1.35022
1641.12
1643.04
1643.34
1641.08
1636.22
1628.73
1618.54
1605.59
1589.84
1571.29
1549.93
1525.78
1498.84
1469.12
1436.65
1401.41
1363.4
1322.61
1279.03
1232.66
1183.59
1132.08
1078.57
1020.97
896.445
247.633
5.63894
2.31772
1.89764
1.8339
1.79466
1.76305
1.73534
1.70811
1.68059
1.65283
1.6249
1.59669
1.56797
1.53852
1.50804
1.47598
1.44168
1.40527
1.36641
1.32428
1656.44
1658.27
1658.61
1656.52
1651.93
1644.82
1635.09
1622.68
1607.57
1589.73
1569.16
1545.89
1519.92
1491.27
1459.97
1426.01
1389.4
1350.15
1308.26
1263.74
1216.67
1167.34
1116.09
1060.2
899.474
200.676
4.75721
2.1368
1.82497
1.7739
1.7372
1.70742
1.68117
1.65536
1.62927
1.60294
1.57641
1.54957
1.52224
1.49426
1.46544
1.43529
1.4033
1.36956
1.33404
1.29656
1673.09
1674.83
1675.2
1673.26
1668.94
1662.19
1652.91
1641.06
1626.58
1609.46
1589.71
1567.34
1542.36
1514.81
1484.7
1452.05
1416.87
1379.18
1338.98
1296.3
1251.24
1204.08
1155.06
1100.9
894.713
157.904
4.04649
1.98588
1.75495
1.71256
1.67812
1.65023
1.62558
1.60131
1.5768
1.55207
1.52712
1.50186
1.4761
1.44975
1.42269
1.3946
1.36473
1.33324
1.30107
1.26689
1691.06
1692.71
1693.11
1691.32
1687.25
1680.85
1672.03
1660.72
1646.89
1630.5
1611.57
1590.11
1566.15
1539.71
1510.81
1479.49
1445.76
1409.63
1371.14
1330.3
1287.24
1242.25
1195.44
1143.02
880.84
119.577
3.46621
1.8568
1.68564
1.64921
1.61722
1.59151
1.56867
1.54613
1.52337
1.50038
1.47716
1.45361
1.42956
1.40492
1.37965
1.35354
1.32608
1.29684
1.26686
1.23622
1710.37
1711.93
1712.35
1710.7
1706.87
1700.81
1692.44
1681.68
1668.49
1652.84
1634.74
1614.2
1591.27
1565.95
1538.28
1508.3
1476.03
1441.49
1404.7
1365.71
1324.64
1281.8
1237.19
1186.51
857.09
86.4541
2.97914
1.73992
1.61575
1.58314
1.55435
1.53132
1.51062
1.49004
1.46917
1.44804
1.42666
1.40489
1.38262
1.35976
1.33627
1.31206
1.28682
1.26018
1.23249
1.20458
1731.01
1732.48
1732.92
1731.39
1727.8
1722.08
1714.16
1703.94
1691.39
1676.48
1659.21
1639.61
1617.71
1593.53
1567.1
1538.47
1507.66
1474.71
1439.63
1402.48
1363.4
1322.71
1280.26
1231.34
823.444
58.7415
2.54814
1.62705
1.54205
1.51406
1.48962
1.46992
1.4517
1.43328
1.41443
1.39524
1.37572
1.35578
1.33532
1.31426
1.29258
1.27022
1.24705
1.22282
1.1977
1.17198
1752.98
1754.36
1754.81
1753.4
1750.04
1744.66
1737.17
1727.5
1715.59
1701.41
1684.99
1666.33
1645.46
1622.42
1597.24
1569.96
1540.62
1509.26
1475.89
1440.58
1403.48
1364.9
1324.58
1277.4
779.801
36.2604
2.15886
1.51586
1.46458
1.44289
1.42376
1.40783
1.3923
1.37613
1.35935
1.34211
1.32446
1.30636
1.28771
1.26846
1.2486
1.22812
1.20692
1.18491
1.16212
1.13864
1776.27
1777.56
1778.02
1776.73
1773.59
1768.54
1761.49
1752.35
1741.07
1727.64
1712.05
1694.33
1674.5
1652.6
1628.67
1602.75
1574.88
1545.09
1513.43
1479.94
1444.78
1408.29
1370.01
1324.53
723.639
20.0217
1.84124
1.40989
1.38684
1.37202
1.35813
1.34578
1.33285
1.3189
1.30414
1.2888
1.273
1.25671
1.23987
1.22243
1.20441
1.1858
1.16655
1.14661
1.12599
1.10466
1800.87
1802.08
1802.55
1801.37
1798.45
1793.72
1787.09
1778.48
1767.84
1755.14
1740.39
1723.6
1704.81
1684.06
1661.37
1636.8
1610.39
1582.17
1552.18
1520.48
1487.24
1452.77
1416.45
1372.65
658.063
10.3128
1.6244
1.32145
1.31425
1.30425
1.29411
1.28449
1.27376
1.26181
1.24895
1.23545
1.22145
1.20696
1.1919
1.17626
1.16007
1.14332
1.12599
1.10802
1.08942
1.07014
1826.78
1827.9
1828.37
1827.3
1824.59
1820.18
1813.98
1805.89
1795.87
1783.9
1769.98
1754.13
1736.38
1716.76
1695.32
1672.09
1647.12
1620.44
1592.11
1562.17
1530.8
1498.3
1463.82
1421.76
584.529
5.65819
1.49592
1.25514
1.24955
1.24074
1.23229
1.22431
1.21525
1.20502
1.19392
1.18217
1.16994
1.1572
1.14391
1.13005
1.11566
1.10075
1.08529
1.06922
1.05254
1.03522
1853.97
1855
1855.48
1854.51
1852.01
1847.91
1842.12
1834.56
1825.16
1813.91
1800.82
1785.9
1769.18
1750.69
1730.49
1708.6
1685.06
1659.91
1633.2
1604.99
1575.46
1544.87
1512.18
1454.23
519.451
4.26393
1.40235
1.19966
1.19016
1.18042
1.17228
1.16513
1.15732
1.14859
1.1391
1.12906
1.11854
1.10754
1.09598
1.08387
1.07126
1.05816
1.04452
1.03028
1.01545
1.00003
1882.43
1883.38
1883.85
1882.98
1880.69
1876.9
1871.52
1864.46
1855.69
1845.16
1832.89
1818.89
1803.2
1785.84
1766.87
1746.31
1724.19
1700.56
1675.45
1648.95
1621.24
1592.54
1561.61
1472.64
459.392
3.62772
1.30656
1.14327
1.13209
1.12141
1.11319
1.1066
1.09985
1.09247
1.08453
1.07614
1.06732
1.05803
1.04819
1.03781
1.02694
1.0156
1.00373
0.99128
0.97825
0.964664
1912.14
1913.01
1913.48
1912.7
1910.61
1907.12
1902.15
1895.6
1887.44
1877.63
1866.17
1853.1
1838.42
1822.19
1804.43
1785.19
1764.48
1742.35
1718.84
1694.04
1668.12
1641.29
1612.11
1488.53
400.477
3.07115
1.20879
1.08424
1.07353
1.06242
1.0543
1.04831
1.04258
1.03654
1.03013
1.02338
1.01627
1.00869
1.00056
0.991903
0.982758
0.973139
0.962996
0.952277
0.940996
0.929189
1943.08
1943.87
1944.33
1943.65
1941.75
1938.56
1933.99
1927.95
1920.39
1911.29
1900.65
1888.48
1874.82
1859.69
1843.14
1825.19
1805.89
1785.25
1763.33
1740.21
1716.07
1691.06
1663.6
1497.57
343.383
2.58917
1.1155
1.02356
1.0139
1.00275
0.995057
0.989858
0.985255
0.980601
0.975764
0.970696
0.96531
0.95947
0.953083
0.946151
0.938717
0.930789
0.922329
0.913299
0.903718
0.893629
1975.23
1975.93
1976.38
1975.79
1974.08
1971.19
1967.01
1961.47
1954.52
1946.12
1936.28
1925.02
1912.36
1898.32
1882.96
1866.3
1848.38
1829.22
1808.87
1787.41
1765.01
1741.8
1716.03
1498.93
288.698
2.17518
1.02805
0.961496
0.952696
0.941914
0.935021
0.930877
0.927593
0.924469
0.9213
0.917978
0.914367
0.910309
0.905699
0.900521
0.894804
0.888553
0.881744
0.874362
0.866436
0.858008
2008.55
2009.16
2009.61
2009.1
2007.58
2004.98
2001.19
1996.15
1989.79
1982.09
1973.05
1962.68
1951.01
1938.05
1923.87
1908.48
1891.92
1874.22
1855.42
1835.59
1814.92
1793.45
1769.36
1491.85
237.031
1.82236
0.945687
0.897852
0.88952
0.879549
0.873859
0.871103
0.869398
0.868001
0.866643
0.865164
0.863398
0.861177
0.858386
0.854993
0.851005
0.846428
0.841253
0.835486
0.829173
0.822362
2043.02
2043.54
2043.97
2043.55
2042.22
2039.9
2036.5
2031.94
2026.17
2019.16
2010.92
2001.44
1990.74
1978.86
1965.84
1951.71
1936.5
1920.24
1902.96
1884.74
1865.76
1846.03
1823.59
1475.38
189.03
1.52324
0.866879
0.831987
0.823921
0.815303
0.81131
0.81034
0.810531
0.811107
0.811742
0.812235
0.812405
0.812086
0.81116
0.809578
0.807335
0.804435
0.800885
0.796709
0.791973
0.786743
2078.59
2079.02
2079.44
2079.1
2077.96
2075.93
2072.91
2068.83
2063.64
2057.32
2049.85
2041.25
2031.53
2020.72
2008.85
1995.96
1982.09
1967.24
1951.47
1934.84
1917.53
1899.51
1878.72
1448.34
145.272
1.26798
0.789172
0.762852
0.755245
0.748792
0.747142
0.748441
0.7509
0.753732
0.756574
0.759196
0.761415
0.763074
0.764061
0.76432
0.763837
0.76262
0.760689
0.758088
0.7549
0.751215
2115.22
2115.57
2115.98
2115.72
2114.77
2113.02
2110.38
2106.79
2102.17
2096.52
2089.82
2082.09
2073.34
2063.58
2052.87
2041.21
2028.65
2015.21
2000.92
1985.88
1970.23
1953.91
1934.76
1409.86
106.312
1.04108
0.708478
0.688811
0.682751
0.679681
0.681233
0.685381
0.690518
0.695909
0.70118
0.706095
0.710481
0.714201
0.717153
0.719282
0.720575
0.721047
0.720734
0.719695
0.718026
0.715844
2152.89
2153.14
2153.53
2153.37
2152.61
2151.15
2148.89
2145.76
2141.72
2136.73
2130.79
2123.92
2116.12
2107.42
2097.84
2087.4
2076.15
2064.1
2051.3
2037.82
2023.83
2009.2
1991.72
1358.96
72.7879
0.819693
0.6185
0.608027
0.606031
0.607975
0.613744
0.621367
0.629587
0.637812
0.645706
0.653055
0.659712
0.665564
0.670525
0.674549
0.677631
0.679796
0.681095
0.6816
0.681422
0.680696
2191.54
2191.7
2192.09
2192.02
2191.45
2190.28
2188.4
2185.74
2182.25
2177.92
2172.73
2166.71
2159.85
2152.18
2143.72
2134.5
2124.54
2113.88
2102.56
2090.66
2078.31
2065.37
2049.6
1294.33
45.3744
0.584499
0.513467
0.520238
0.525808
0.534385
0.54526
0.556872
0.568482
0.579736
0.590384
0.600261
0.609257
0.617288
0.624289
0.630225
0.635101
0.638955
0.641854
0.643882
0.645156
0.645835
2231.06
2231.17
2231.59
2231.64
2231.28
2230.4
2228.9
2226.7
2223.76
2220.07
2215.62
2210.41
2204.48
2197.82
2190.48
2182.46
2173.8
2164.53
2154.68
2144.33
2133.62
2122.38
2108.38
1215.23
24.5621
0.352533
0.396805
0.428907
0.444861
0.460645
0.476833
0.492583
0.507683
0.522027
0.535476
0.547919
0.559286
0.56952
0.578572
0.586423
0.593087
0.598618
0.603101
0.606626
0.609302
0.611309
2271.25
2271.29
2271.85
2272.13
2272.03
2271.47
2270.35
2268.61
2266.21
2263.15
2259.42
2255.03
2249.99
2244.34
2238.09
2231.27
2223.89
2216
2207.61
2198.81
2189.73
2180.19
2167.98
1121.27
10.3
0.193749
0.290945
0.34312
0.367875
0.389219
0.409772
0.42925
0.447674
0.465031
0.481242
0.49624
0.509978
0.522413
0.533512
0.543264
0.551699
0.558887
0.564938
0.569947
0.573966
0.577135
2312.1
2312.07
2312.75
2313.33
2313.58
2313.39
2312.69
2311.43
2309.57
2307.12
2304.1
2300.52
2296.37
2291.7
2286.53
2280.88
2274.78
2268.24
2261.31
2254.06
2246.61
2238.78
2228.34
1009.85
2.79661
0.146689
0.221826
0.271966
0.298221
0.321648
0.344886
0.367354
0.388785
0.409014
0.427918
0.44543
0.461512
0.476125
0.489243
0.500866
0.511033
0.519837
0.527425
0.533876
0.539113
0.543513
2352.5
2353.13
2354.14
2355.1
2355.74
2355.97
2355.73
2354.97
2353.67
2351.86
2349.54
2346.75
2343.5
2339.8
2335.69
2331.19
2326.32
2321.12
2315.64
2309.93
2304.11
2298.06
2289.5
876.092
0.783685
0.150843
0.180613
0.212108
0.233725
0.256859
0.28172
0.306745
0.33102
0.354076
0.375661
0.395664
0.414047
0.430785
0.445866
0.4593
0.471142
0.481492
0.490519
0.498248
0.504788
0.510681
2388.87
2392.02
2394.47
2396.66
2398.06
2398.86
2399.11
2398.86
2398.13
2396.96
2395.36
2393.35
2390.95
2388.2
2385.12
2381.75
2378.09
2374.19
2370.1
2365.88
2361.73
2357.57
2351.28
723.656
0.555033
0.133718
0.134847
0.150724
0.168493
0.192014
0.218987
0.24689
0.274244
0.300278
0.324616
0.34711
0.367733
0.386507
0.403458
0.418625
0.43208
0.443916
0.454222
0.46331
0.471448
0.478548
2413.22
2424.46
2430.61
2435.61
2438.78
2440.69
2441.76
2442.18
2442.1
2441.61
2440.73
2439.5
2437.95
2436.11
2434.04
2431.75
2429.27
2426.65
2423.92
2421.17
2418.6
2416.67
2413.15
568.85
0.372328
0.0834189
0.0708229
0.0798345
0.0983596
0.12491
0.155662
0.187423
0.218419
0.24774
0.274962
0.299957
0.322757
0.343458
0.362161
0.378967
0.393985
0.407326
0.419066
0.429404
0.438852
0.447496
2021.02
2290.66
2433
2464.22
2473.3
2478.44
2481.39
2483.08
2483.98
2484.36
2484.35
2483.98
2483.33
2482.43
2481.36
2480.15
2478.81
2477.41
2475.96
2474.57
2473.52
2474.16
2474.25
434.544
0.221497
0.0123307
-0.012116
-0.0034273
0.0214798
0.0547482
0.0915041
0.128415
0.16376
0.196701
0.22692
0.25441
0.279323
0.301857
0.322209
0.340556
0.357058
0.371858
0.385055
0.396783
0.407357
0.417097
420.419
825.602
1322.75
1794.48
2122.61
2313.7
2416.05
2466.92
2490.39
2501.77
2506.92
2507.87
2505.83
2501.22
2494.55
2485.99
2473.79
2459.86
2443.16
2425.65
2409.36
2410.18
2445.3
310.066
-0.0175592
-0.0951733
-0.117809
-0.100136
-0.0621795
-0.0177403
0.0273365
0.0706011
0.110866
0.147637
0.180873
0.210791
0.237712
0.261968
0.283858
0.303637
0.32151
0.337645
0.352165
0.365182
0.376881
0.387473
-1.3373
-0.724759
42.0694
211.755
444.023
699.625
931.955
1120.86
1256.78
1333.81
1369.35
1373.71
1354.93
1317.81
1266.77
1201.66
1133.5
1064.35
999.058
939.409
886.923
872.865
1072.33
150.438
-0.51819
-0.269596
-0.245345
-0.206505
-0.148738
-0.0896512
-0.0346389
0.0155704
0.0608559
0.101347
0.137414
0.169554
0.198287
0.224087
0.247361
0.26843
0.287536
0.304855
0.320521
0.334646
0.347359
0.358827
-1.18133
-1.06152
-1.15069
-1.22197
-1.35933
-1.4203
-1.41921
-1.40274
-1.39654
6.24369
11.3439
11.8048
8.80162
3.0702
-1.30354
-1.29216
-1.28178
-1.27272
-1.26583
-1.26813
-1.28019
-1.28027
-1.22802
23.0732
-0.812985
-0.475851
-0.383864
-0.308165
-0.228354
-0.155218
-0.0909026
-0.0344273
0.0152099
0.0588359
0.0972457
0.131209
0.161429
0.188515
0.212961
0.235136
0.255301
0.273635
0.290274
0.305332
0.318919
0.331183
-1.11817
-1.088
-1.11792
-1.14059
-1.16872
-1.18686
-1.1945
-1.19727
-1.20044
-1.20932
-1.21324
-1.20328
-1.18261
-1.16187
-1.15198
-1.14952
-1.14655
-1.14399
-1.14353
-1.14629
-1.15195
-1.15976
-1.16725
-1.08797
-0.878332
-0.639165
-0.496503
-0.385805
-0.290156
-0.207992
-0.137681
-0.0771134
-0.0246247
0.0210561
0.0610159
0.0962139
0.127485
0.155526
0.180876
0.203926
0.224938
0.244092
0.26152
0.277338
0.291649
0.304591
-1.07433
-1.0626
-1.07497
-1.09245
-1.11463
-1.13432
-1.14797
-1.15579
-1.15825
-1.15434
-1.14869
-1.14126
-1.1322
-1.1236
-1.11667
-1.10943
-1.10155
-1.09396
-1.08711
-1.08079
-1.07308
-1.06371
-1.05262
-1.0108
-0.842879
-0.669386
-0.534803
-0.422926
-0.326657
-0.243786
-0.172505
-0.110988
-0.0577093
-0.0113744
0.0291549
0.0648912
0.0967094
0.125323
0.15127
0.174928
0.196549
0.216305
0.234327
0.25073
0.265612
0.279106
-1.03567
-1.03165
-1.03685
-1.04634
-1.06059
-1.07541
-1.08721
-1.09467
-1.09761
-1.09611
-1.09177
-1.08519
-1.0767
-1.06711
-1.05707
-1.04651
-1.03546
-1.02411
-1.01234
-0.999003
-0.981832
-0.957902
-0.923797
-0.867144
-0.758165
-0.637933
-0.529093
-0.430547
-0.342288
-0.264298
-0.195923
-0.136182
-0.0840155
-0.0383706
0.00177306
0.0373619
0.0692202
0.0980115
0.124228
0.148212
0.170191
0.190328
0.208748
0.22556
0.240857
0.254774
-0.994316
-0.996291
-0.999734
-1.0044
-1.01156
-1.01934
-1.02572
-1.02953
-1.03039
-1.02841
-1.02401
-1.01733
-1.00863
-0.998475
-0.987442
-0.975713
-0.963167
-0.949431
-0.934026
-0.916012
-0.893298
-0.863466
-0.823043
-0.766063
-0.686324
-0.596333
-0.507376
-0.422778
-0.344521
-0.273598
-0.210179
-0.153927
-0.104225
-0.0602983
-0.0213112
0.0135477
0.0449904
0.0735861
0.0997542
0.123786
0.145882
0.166185
0.18481
0.201859
0.217422
0.231631
-0.949313
-0.954565
-0.959227
-0.963035
-0.967104
-0.971057
-0.973953
-0.975135
-0.974322
-0.971345
-0.966144
-0.958739
-0.949396
-0.938572
-0.926649
-0.913703
-0.899467
-0.883391
-0.864804
-0.84294
-0.816563
-0.783839
-0.742638
-0.690211
-0.625358
-0.553139
-0.479285
-0.407029
-0.338591
-0.275271
-0.217642
-0.165757
-0.119309
-0.0777622
-0.0404705
-0.0067853
0.0238662
0.0519408
0.0777755
0.101606
0.123597
0.143869
0.16252
0.179642
0.195323
0.209699
-0.902117
-0.908494
-0.914488
-0.91892
-0.922373
-0.924991
-0.926495
-0.926604
-0.925022
-0.921368
-0.915395
-0.907158
-0.896988
-0.88529
-0.87232
-0.85802
-0.842025
-0.8238
-0.802738
-0.778223
-0.74953
-0.71566
-0.675389
-0.627585
-0.572235
-0.511856
-0.449531
-0.38766
-0.328091
-0.272088
-0.220351
-0.173118
-0.130269
-0.0914466
-0.0561776
-0.0239723
0.00560391
0.0328981
0.0581661
0.0815868
0.103284
0.123348
0.141859
0.1589
0.174562
0.188989
-0.854508
-0.860934
-0.867481
-0.872439
-0.875931
-0.878213
-0.879275
-0.878929
-0.876797
-0.872461
-0.865751
-0.856841
-0.846083
-0.833778
-0.820007
-0.804604
-0.787199
-0.76736
-0.744687
-0.718803
-0.689312
-0.655713
-0.617425
-0.574017
-0.525762
-0.474052
-0.420694
-0.367349
-0.315451
-0.266082
-0.219913
-0.17723
-0.138012
-0.102026
-0.0689383
-0.0383968
-0.0100865
0.0162422
0.0407694
0.0636161
0.0848619
0.104567
0.12279
0.139609
0.155124
0.169496
-0.807613
-0.813737
-0.820282
-0.825379
-0.828933
-0.831156
-0.832009
-0.831231
-0.828437
-0.823372
-0.816072
-0.806792
-0.795801
-0.783227
-0.768983
-0.752824
-0.734463
-0.713662
-0.690257
-0.664101
-0.635015
-0.602762
-0.567066
-0.52779
-0.485218
-0.440215
-0.393937
-0.347559
-0.302163
-0.258618
-0.217492
-0.179049
-0.143305
-0.110112
-0.0792397
-0.0504413
-0.0235
0.00174972
0.0254172
0.0475664
0.0682332
0.0874474
0.105252
0.121725
0.136983
0.151204
-0.762142
-0.76787
-0.774136
-0.779154
-0.782679
-0.784788
-0.785324
-0.783974
-0.780498
-0.774876
-0.767291
-0.757961
-0.746989
-0.734324
-0.719802
-0.703208
-0.684386
-0.663291
-0.639954
-0.614377
-0.586492
-0.556163
-0.523248
-0.48772
-0.449834
-0.410193
-0.369619
-0.328971
-0.289058
-0.250549
-0.213888
-0.179285
-0.146764
-0.116225
-0.0875094
-0.060449
-0.0349067
-0.0107916
0.0119405
0.0332997
0.0532825
0.0718945
0.0891694
0.105191
0.120101
0.13409
-0.718486
-0.723829
-0.729705
-0.734509
-0.73784
-0.739626
-0.73966
-0.737725
-0.733785
-0.727964
-0.720429
-0.711258
-0.700389
-0.687681
-0.673004
-0.656273
-0.637479
-0.616709
-0.594085
-0.569666
-0.54341
-0.515216
-0.484998
-0.45279
-0.41883
-0.383591
-0.347704
-0.311824
-0.27655
-0.242376
-0.209626
-0.178449
-0.148857
-0.120775
-0.094092
-0.068703
-0.044539
-0.0215756
0.000172655
0.0206696
0.0398813
0.0577984
0.0744527
0.0899409
0.104429
0.118124
-0.676754
-0.68171
-0.687188
-0.691654
-0.694616
-0.695937
-0.695471
-0.693177
-0.689135
-0.683448
-0.676148
-0.667164
-0.656357
-0.643615
-0.628924
-0.612355
-0.594022
-0.57406
-0.552589
-0.529646
-0.50518
-0.479107
-0.451385
-0.422095
-0.391478
-0.35994
-0.327987
-0.296132
-0.264816
-0.23438
-0.205041
-0.17689
-0.149916
-0.124059
-0.0992456
-0.0754268
-0.052594
-0.0307815
-0.0100524
0.00952288
0.027892
0.0450411
0.0610072
0.0759013
0.0899143
0.103272
-0.636862
-0.641439
-0.646508
-0.650545
-0.653064
-0.653971
-0.653239
-0.650925
-0.647071
-0.641643
-0.634539
-0.625633
-0.614828
-0.602125
-0.587642
-0.571558
-0.554044
-0.535218
-0.515136
-0.493785
-0.4711
-0.447024
-0.421567
-0.394854
-0.36714
-0.338787
-0.310212
-0.281812
-0.253902
-0.2267
-0.200327
-0.174819
-0.15015
-0.126274
-0.103156
-0.0807983
-0.0592458
-0.0385809
-0.0189015
-0.000297217
0.0171741
0.0335034
0.0487372
0.0630005
0.0765043
0.0894932
-0.598672
-0.602916
-0.607554
-0.611153
-0.613298
-0.613987
-0.613269
-0.611156
-0.607551
-0.602285
-0.595218
-0.58629
-0.575532
-0.56307
-0.549101
-0.533832
-0.51741
-0.499893
-0.481269
-0.461481
-0.440472
-0.418228
-0.394818
-0.370413
-0.345278
-0.319737
-0.294125
-0.268735
-0.243779
-0.219373
-0.195561
-0.172339
-0.149677
-0.12755
-0.105965
-0.084971
-0.0646586
-0.0451426
-0.0265397
-0.00894401
0.00759253
0.0230719
0.0375518
0.0511684
0.0641469
0.0767424
-0.562147
-0.5661
-0.570337
-0.573577
-0.575505
-0.576169
-0.575589
-0.57365
-0.570137
-0.564853
-0.557725
-0.548824
-0.538314
-0.526393
-0.513259
-0.499064
-0.483882
-0.467704
-0.450473
-0.432129
-0.412648
-0.392077
-0.370544
-0.348255
-0.32547
-0.302467
-0.279497
-0.256755
-0.23436
-0.212358
-0.190739
-0.169478
-0.148556
-0.127978
-0.107794
-0.0880917
-0.0689938
-0.0506315
-0.0331246
-0.0165594
-0.000974395
0.0136461
0.0273697
0.0403399
0.0527903
0.0649759
-0.527341
-0.531025
-0.534949
-0.537964
-0.539811
-0.540508
-0.539968
-0.53799
-0.534358
-0.528961
-0.521849
-0.513198
-0.503234
-0.492149
-0.480072
-0.467063
-0.453116
-0.438181
-0.422201
-0.405151
-0.387066
-0.368056
-0.348293
-0.327997
-0.3074
-0.286716
-0.266113
-0.245697
-0.225514
-0.205562
-0.18581
-0.166231
-0.146828
-0.127645
-0.108765
-0.0903071
-0.0724085
-0.0552021
-0.038798
-0.0232666
-0.00862981
0.00514154
0.0181216
0.0304566
0.042384
0.0541523
-0.494235
-0.497681
-0.501384
-0.504265
-0.506054
-0.506682
-0.505981
-0.503769
-0.499943
-0.49453
-0.487674
-0.47958
-0.470436
-0.460361
-0.449394
-0.437515
-0.424673
-0.410819
-0.395937
-0.380064
-0.363301
-0.345801
-0.327756
-0.309369
-0.290822
-0.272256
-0.253761
-0.235371
-0.217083
-0.198871
-0.180709
-0.162589
-0.144542
-0.126643
-0.109005
-0.0917609
-0.0750483
-0.0589904
-0.0436796
-0.0291669
-0.0154568
-0.00250996
0.00975043
0.0214686
0.032882
0.0442335
-0.46268
-0.465926
-0.469432
-0.472156
-0.473788
-0.474195
-0.473221
-0.470784
-0.466921
-0.461758
-0.455456
-0.448161
-0.439967
-0.430902
-0.420934
-0.41001
-0.398086
-0.385158
-0.371272
-0.356529
-0.341073
-0.32508
-0.308725
-0.292168
-0.275526
-0.25887
-0.242226
-0.225582
-0.20891
-0.192183
-0.175395
-0.158568
-0.141762
-0.125078
-0.10864