/*--------------------------------*- C++ -*----------------------------------*\
  =========                 |
  \\      /  F ield         | OpenFOAM: The Open Source CFD Toolbox
   \\    /   O peration     | Website:  https://openfoam.org
    \\  /    A nd           | Version:  9
     \\/     M anipulation  |
\*---------------------------------------------------------------------------*/
FoamFile
{
    format      ascii;
    class       surfaceScalarField;
    location    "0.1";
    object      phi;
}
// * * * * * * * * * * * * * * * * * * * * * * * * * * * * * * * * * * * * * //

dimensions      [0 3 -1 0 0 0 0];

internalField   nonuniform List<scalar> 
15214
(
4.05479e-07
-4.05479e-07
2.16515e-06
-1.75966e-06
4.6371e-06
-2.47195e-06
7.34747e-06
-2.71036e-06
1.00993e-05
-2.75185e-06
1.28154e-05
-2.71612e-06
1.5466e-05
-2.65061e-06
1.8045e-05
-2.57894e-06
2.05595e-05
-2.51447e-06
2.30242e-05
-2.46476e-06
2.54582e-05
-2.43403e-06
2.78829e-05
-2.4247e-06
3.03213e-05
-2.43838e-06
3.27978e-05
-2.47648e-06
3.53386e-05
-2.54078e-06
3.79724e-05
-2.63377e-06
4.07313e-05
-2.75891e-06
4.36516e-05
-2.92035e-06
4.6774e-05
-3.12238e-06
5.0142e-05
-3.368e-06
5.37964e-05
-3.65444e-06
5.77643e-05
-3.9679e-06
6.20425e-05
-4.27814e-06
6.65719e-05
-4.52945e-06
7.12019e-05
-4.62994e-06
7.56423e-05
-4.44041e-06
7.94311e-05
-3.78886e-06
8.18856e-05
-2.45441e-06
8.23389e-05
-4.53378e-07
8.06176e-05
1.72132e-06
7.77904e-05
2.82725e-06
7.50035e-05
2.78684e-06
7.32786e-05
1.72496e-06
7.35421e-05
-2.6356e-07
7.65801e-05
-3.038e-06
8.03817e-05
-3.80156e-06
7.94599e-05
9.21748e-07
7.14034e-05
8.05655e-06
5.95991e-05
1.18043e-05
4.74146e-05
1.21845e-05
3.64883e-05
1.09262e-05
2.69229e-05
9.56541e-06
1.82365e-05
8.68639e-06
1.01966e-05
8.03964e-06
3.51711e-06
6.67971e-06
3.51713e-06
1.54085e-06
-1.94632e-06
3.7107e-06
-3.92951e-06
6.02405e-06
-4.78531e-06
8.39724e-06
-5.08354e-06
1.0775e-05
-5.12956e-06
1.31248e-05
-5.06598e-06
1.5434e-05
-4.95981e-06
1.77023e-05
-4.84722e-06
1.99371e-05
-4.74925e-06
2.21505e-05
-4.67819e-06
2.43577e-05
-4.6412e-06
2.65757e-05
-4.64271e-06
2.88233e-05
-4.68598e-06
3.1121e-05
-4.77423e-06
3.34916e-05
-4.91138e-06
3.59605e-05
-5.10263e-06
3.85561e-05
-5.35456e-06
4.13102e-05
-5.67447e-06
4.42565e-05
-6.06865e-06
4.74273e-05
-6.53876e-06
5.08475e-05
-7.07466e-06
5.45244e-05
-7.6448e-06
5.84305e-05
-8.18428e-06
6.24802e-05
-8.57915e-06
6.65008e-05
-8.65049e-06
7.02069e-05
-8.1465e-06
7.32098e-05
-6.79173e-06
7.52277e-05
-4.47232e-06
7.63027e-05
-1.52846e-06
7.67208e-05
1.3033e-06
7.6559e-05
2.98907e-06
7.6167e-05
3.17881e-06
7.55235e-05
2.36846e-06
7.38383e-05
1.42164e-06
7.23349e-05
-1.53459e-06
7.32056e-05
-4.67227e-06
7.56322e-05
-1.50485e-06
7.59052e-05
7.78352e-06
6.89254e-05
1.87841e-05
5.7277e-05
2.38328e-05
4.53396e-05
2.28636e-05
3.44329e-05
2.04721e-05
2.44287e-05
1.86906e-05
1.50597e-05
1.74086e-05
6.60466e-06
1.51348e-05
1.01218e-05
2.26184e-06
-4.20816e-06
4.62798e-06
-6.29565e-06
6.83711e-06
-6.99444e-06
8.97485e-06
-7.22128e-06
1.10712e-05
-7.22591e-06
1.31329e-05
-7.12771e-06
1.5165e-05
-6.99184e-06
1.71744e-05
-6.85667e-06
1.91708e-05
-6.74565e-06
2.11656e-05
-6.67302e-06
2.3172e-05
-6.64752e-06
2.52042e-05
-6.67496e-06
2.72782e-05
-6.76e-06
2.94115e-05
-6.90749e-06
3.16234e-05
-7.12334e-06
3.39358e-05
-7.41494e-06
3.63722e-05
-7.79104e-06
3.89581e-05
-8.26037e-06
4.17182e-05
-8.82875e-06
4.4673e-05
-9.49347e-06
4.78322e-05
-1.02339e-05
5.11862e-05
-1.09987e-05
5.46908e-05
-1.16889e-05
5.82504e-05
-1.21388e-05
6.16985e-05
-1.20986e-05
6.47854e-05
-1.12334e-05
6.72077e-05
-9.21401e-06
6.87633e-05
-6.02797e-06
6.95734e-05
-2.33852e-06
7.01029e-05
7.73798e-07
7.07041e-05
2.38785e-06
7.14614e-05
2.42151e-06
7.20144e-05
1.81545e-06
7.10874e-05
2.3487e-06
6.82302e-05
1.3226e-06
6.47382e-05
-1.18034e-06
6.13628e-05
1.87064e-06
5.75956e-05
1.15507e-05
5.2846e-05
2.35337e-05
4.63621e-05
3.03167e-05
3.88517e-05
3.0374e-05
3.11192e-05
2.82045e-05
2.33096e-05
2.65003e-05
1.54917e-05
2.52266e-05
7.70911e-06
2.29173e-05
1.78308e-05
2.59791e-06
-6.80607e-06
5.09724e-06
-8.79499e-06
7.26575e-06
-9.16295e-06
9.25851e-06
-9.21404e-06
1.11593e-05
-9.12671e-06
1.30068e-05
-8.97522e-06
1.48231e-05
-8.80814e-06
1.6624e-05
-8.65758e-06
1.84229e-05
-8.54456e-06
2.02324e-05
-8.48252e-06
2.2065e-05
-8.48013e-06
2.39337e-05
-8.5436e-06
2.58521e-05
-8.67839e-06
2.78351e-05
-8.89047e-06
2.98988e-05
-9.1871e-06
3.2061e-05
-9.57711e-06
3.43402e-05
-1.00702e-05
3.6755e-05
-1.06752e-05
3.93216e-05
-1.13953e-05
4.205e-05
-1.22219e-05
4.49388e-05
-1.31228e-05
4.79672e-05
-1.40271e-05
5.10847e-05
-1.48064e-05
5.41998e-05
-1.52538e-05
5.71683e-05
-1.50671e-05
5.97875e-05
-1.38527e-05
6.18307e-05
-1.12572e-05
6.3201e-05
-7.39821e-06
6.4126e-05
-3.26359e-06
6.49322e-05
-3.23637e-08
6.59634e-05
1.35668e-06
6.68475e-05
1.53732e-06
6.64287e-05
2.23427e-06
6.48992e-05
3.87825e-06
6.11673e-05
5.05452e-06
5.50669e-05
4.9201e-06
4.82916e-05
8.64587e-06
4.23207e-05
1.75217e-05
3.8391e-05
2.74635e-05
3.54072e-05
3.33004e-05
3.16551e-05
3.41261e-05
2.68244e-05
3.30353e-05
2.1144e-05
3.21806e-05
1.48282e-05
3.15424e-05
7.83987e-06
2.99056e-05
2.56706e-05
2.72082e-06
-9.52689e-06
5.27157e-06
-1.13457e-05
7.41485e-06
-1.13062e-05
9.31745e-06
-1.11166e-05
1.10856e-05
-1.08949e-05
1.27779e-05
-1.06675e-05
1.44298e-05
-1.046e-05
1.60651e-05
-1.0293e-05
1.77019e-05
-1.01814e-05
1.93549e-05
-1.01354e-05
2.10368e-05
-1.01621e-05
2.27601e-05
-1.02669e-05
2.45369e-05
-1.04551e-05
2.63796e-05
-1.07332e-05
2.83015e-05
-1.1109e-05
3.03161e-05
-1.15917e-05
3.2437e-05
-1.21911e-05
3.46761e-05
-1.29143e-05
3.70421e-05
-1.37613e-05
3.95365e-05
-1.47164e-05
4.21497e-05
-1.5736e-05
4.4855e-05
-1.67324e-05
4.76027e-05
-1.75541e-05
5.03133e-05
-1.79645e-05
5.2872e-05
-1.76258e-05
5.51212e-05
-1.61019e-05
5.68961e-05
-1.30321e-05
5.81865e-05
-8.68858e-06
5.92207e-05
-4.29775e-06
6.01541e-05
-9.65753e-07
6.10176e-05
4.93149e-07
6.08739e-05
1.68106e-06
5.9217e-05
3.89118e-06
5.5949e-05
7.14625e-06
5.1005e-05
9.99849e-06
4.40567e-05
1.18684e-05
3.69054e-05
1.57972e-05
3.17989e-05
2.26281e-05
2.94607e-05
2.98016e-05
2.84081e-05
3.43531e-05
2.66969e-05
3.58373e-05
2.36612e-05
3.60709e-05
1.94448e-05
3.6397e-05
1.4194e-05
3.67933e-05
7.7827e-06
3.63168e-05
3.34533e-05
2.73266e-06
-1.22596e-05
5.26819e-06
-1.38813e-05
7.37896e-06
-1.3417e-05
9.21841e-06
-1.29561e-05
1.08948e-05
-1.25712e-05
1.24752e-05
-1.22479e-05
1.40033e-05
-1.19882e-05
1.55094e-05
-1.1799e-05
1.70151e-05
-1.16871e-05
1.85375e-05
-1.16578e-05
2.00903e-05
-1.17149e-05
2.16855e-05
-1.18621e-05
2.33343e-05
-1.21039e-05
2.50472e-05
-1.24461e-05
2.68345e-05
-1.28963e-05
2.8706e-05
-1.34633e-05
3.06704e-05
-1.41555e-05
3.27341e-05
-1.4978e-05
3.48989e-05
-1.59261e-05
3.71598e-05
-1.69772e-05
3.95012e-05
-1.80774e-05
4.18943e-05
-1.91255e-05
4.42935e-05
-1.99533e-05
4.66346e-05
-2.03055e-05
4.88304e-05
-1.98216e-05
5.07608e-05
-1.80323e-05
5.23214e-05
-1.45927e-05
5.35396e-05
-9.90676e-06
5.4433e-05
-5.19119e-06
5.48375e-05
-1.37021e-06
5.49982e-05
3.32429e-07
5.37594e-05
2.91984e-06
5.08279e-05
6.8227e-06
4.66711e-05
1.13031e-05
4.17325e-05
1.4937e-05
3.5931e-05
1.76698e-05
3.04576e-05
2.12707e-05
2.68397e-05
2.62461e-05
2.53705e-05
3.12708e-05
2.48777e-05
3.4846e-05
2.39002e-05
3.68147e-05
2.1803e-05
3.8168e-05
1.85235e-05
3.96766e-05
1.39979e-05
4.13189e-05
7.9365e-06
4.23781e-05
4.13899e-05
2.68293e-06
-1.49425e-05
5.15995e-06
-1.63583e-05
7.22689e-06
-1.54839e-05
9.01562e-06
-1.47448e-05
1.06256e-05
-1.41812e-05
1.21248e-05
-1.37471e-05
1.35605e-05
-1.34239e-05
1.49665e-05
-1.3205e-05
1.63676e-05
-1.30882e-05
1.77824e-05
-1.30726e-05
1.92256e-05
-1.31581e-05
2.07093e-05
-1.33459e-05
2.22437e-05
-1.36383e-05
2.38378e-05
-1.40402e-05
2.54993e-05
-1.45578e-05
2.72347e-05
-1.51987e-05
2.90485e-05
-1.59693e-05
3.0942e-05
-1.68715e-05
3.29116e-05
-1.78958e-05
3.49472e-05
-1.90127e-05
3.70295e-05
-2.01597e-05
3.91293e-05
-2.12253e-05
4.12068e-05
-2.20308e-05
4.32123e-05
-2.23111e-05
4.50832e-05
-2.16925e-05
4.67333e-05
-1.96823e-05
4.81109e-05
-1.59703e-05
4.9227e-05
-1.10229e-05
4.96216e-05
-5.58579e-06
5.00873e-05
-1.83595e-06
4.94183e-05
1.00145e-06
4.70753e-05
5.26289e-06
4.34205e-05
1.04775e-05
3.93426e-05
1.5381e-05
3.51506e-05
1.9129e-05
3.0846e-05
2.19745e-05
2.70943e-05
2.50225e-05
2.46866e-05
2.86538e-05
2.36727e-05
3.22847e-05
2.32724e-05
3.52462e-05
2.25533e-05
3.75339e-05
2.1006e-05
3.97154e-05
1.84048e-05
4.22777e-05
1.44501e-05
4.52735e-05
8.59143e-06
4.82367e-05
4.99814e-05
2.59898e-06
-1.75415e-05
4.99252e-06
-1.87518e-05
7.00628e-06
-1.74977e-05
8.74967e-06
-1.64882e-05
1.0309e-05
-1.57406e-05
1.17482e-05
-1.51863e-05
1.31147e-05
-1.47904e-05
1.44438e-05
-1.4534e-05
1.57618e-05
-1.44062e-05
1.70888e-05
-1.43995e-05
1.844e-05
-1.45093e-05
1.98274e-05
-1.47333e-05
2.12606e-05
-1.50716e-05
2.27472e-05
-1.55267e-05
2.42929e-05
-1.61034e-05
2.59012e-05
-1.6807e-05
2.75732e-05
-1.76413e-05
2.9306e-05
-1.86043e-05
3.10918e-05
-1.96817e-05
3.29168e-05
-2.08377e-05
3.47597e-05
-2.20026e-05
3.65924e-05
-2.3058e-05
3.83813e-05
-2.38197e-05
4.00897e-05
-2.40195e-05
4.16757e-05
-2.32785e-05
4.30985e-05
-2.11051e-05
4.43526e-05
-1.72244e-05
4.53961e-05
-1.20664e-05
4.61389e-05
-6.32859e-06
4.64362e-05
-2.13323e-06
4.48954e-05
2.54225e-06
4.17945e-05
8.36383e-06
3.80571e-05
1.4215e-05
3.43991e-05
1.9039e-05
3.10024e-05
2.25257e-05
2.78677e-05
2.51092e-05
2.53118e-05
2.75784e-05
2.36879e-05
3.02778e-05
2.29432e-05
3.30295e-05
2.25974e-05
3.5592e-05
2.20835e-05
3.80479e-05
2.10118e-05
4.0787e-05
1.90718e-05
4.42178e-05
1.57613e-05
4.8584e-05
1.01463e-05
5.38517e-05
6.01276e-05
2.49785e-06
-2.00393e-05
4.79561e-06
-2.10496e-05
6.74993e-06
-1.9452e-05
8.44999e-06
-1.81883e-05
9.96804e-06
-1.72586e-05
1.13616e-05
-1.65799e-05
1.26759e-05
-1.61046e-05
1.39458e-05
-1.5804e-05
1.51984e-05
-1.56587e-05
1.6454e-05
-1.56551e-05
1.77283e-05
-1.57836e-05
1.90332e-05
-1.60382e-05
2.03777e-05
-1.64161e-05
2.17682e-05
-1.69172e-05
2.32087e-05
-1.75439e-05
2.47004e-05
-1.82987e-05
2.62415e-05
-1.91824e-05
2.7826e-05
-2.01888e-05
2.94433e-05
-2.1299e-05
3.1077e-05
-2.24714e-05
3.27054e-05
-2.3631e-05
3.43028e-05
-2.46554e-05
3.58423e-05
-2.53592e-05
3.72991e-05
-2.54763e-05
3.86505e-05
-2.46299e-05
3.99103e-05
-2.23649e-05
4.11433e-05
-1.84574e-05
4.23157e-05
-1.32389e-05
4.34211e-05
-7.43399e-06
4.32312e-05
-1.94336e-06
4.1094e-05
4.67951e-06
3.77726e-05
1.16852e-05
3.42747e-05
1.77128e-05
3.11208e-05
2.2193e-05
2.83959e-05
2.52505e-05
2.60737e-05
2.74315e-05
2.42791e-05
2.9373e-05
2.31463e-05
3.14106e-05
2.26074e-05
3.35684e-05
2.23838e-05
3.58157e-05
2.21445e-05
3.82873e-05
2.16186e-05
4.13129e-05
2.05127e-05
4.53236e-05
1.82672e-05
5.08296e-05
1.36792e-05
5.84397e-05
7.38068e-05
2.39047e-06
-2.24298e-05
4.5882e-06
-2.32473e-05
6.47966e-06
-2.13435e-05
8.13696e-06
-1.98456e-05
9.61919e-06
-1.87409e-05
1.09766e-05
-1.79372e-05
1.22506e-05
-1.73787e-05
1.34749e-05
-1.70283e-05
1.46758e-05
-1.68596e-05
1.58736e-05
-1.68529e-05
1.7084e-05
-1.6994e-05
1.83186e-05
-1.72728e-05
1.95858e-05
-1.76833e-05
2.08912e-05
-1.82226e-05
2.22372e-05
-1.88899e-05
2.36234e-05
-1.96849e-05
2.50459e-05
-2.06048e-05
2.64966e-05
-2.16395e-05
2.79628e-05
-2.27652e-05
2.94274e-05
-2.39359e-05
3.08693e-05
-2.50729e-05
3.22662e-05
-2.60523e-05
3.35984e-05
-2.66915e-05
3.4854e-05
-2.67319e-05
3.60296e-05
-2.58055e-05
3.71881e-05
-2.35234e-05
3.84842e-05
-1.97535e-05
4.00986e-05
-1.48533e-05
4.11302e-05
-8.4656e-06
4.03471e-05
-1.16023e-06
3.78106e-05
7.21588e-06
3.45846e-05
1.49113e-05
3.14811e-05
2.08164e-05
2.88267e-05
2.48474e-05
2.66417e-05
2.74355e-05
2.48821e-05
2.91911e-05
2.35797e-05
3.06753e-05
2.2778e-05
3.22123e-05
2.24292e-05
3.39172e-05
2.23899e-05
3.5855e-05
2.24964e-05
3.81807e-05
2.26193e-05
4.119e-05
2.26074e-05
4.53355e-05
2.20545e-05
5.13826e-05
1.90064e-05
6.14879e-05
9.28131e-05
3.58678e-07
-3.58678e-07
1.7023e-06
-1.34362e-06
3.53496e-06
-1.83266e-06
5.37415e-06
-1.83919e-06
7.00188e-06
-1.62774e-06
8.34062e-06
-1.33876e-06
9.37769e-06
-1.03709e-06
1.01337e-05
-7.56022e-07
1.06446e-05
-5.10868e-07
1.09504e-05
-3.0584e-07
1.10885e-05
-1.38176e-07
1.10917e-05
-3.223e-09
1.09886e-05
1.03107e-07
1.08093e-05
1.79185e-07
1.05738e-05
2.35563e-07
1.02951e-05
2.78703e-07
9.98226e-06
3.12798e-07
9.64159e-06
3.40661e-07
9.27752e-06
3.64058e-07
8.89362e-06
3.83899e-07
8.49307e-06
4.00534e-07
8.07897e-06
4.14075e-07
7.6543e-06
4.24652e-07
7.22171e-06
4.32565e-07
6.78336e-06
4.3833e-07
6.3407e-06
4.42648e-07
5.89432e-06
4.46349e-07
5.44396e-06
4.50346e-07
4.98837e-06
4.55576e-07
4.52544e-06
4.62933e-07
4.05227e-06
4.73175e-07
3.56551e-06
4.86763e-07
3.06193e-06
5.03589e-07
2.53941e-06
5.22515e-07
1.9988e-06
5.40601e-07
1.44699e-06
5.51799e-07
9.02737e-07
5.44244e-07
4.14436e-07
4.88305e-07
8.26397e-08
3.31816e-07
8.26704e-08
1.00556e-06
-1.36424e-06
2.58096e-06
-2.91901e-06
4.25553e-06
-3.50724e-06
5.84223e-06
-3.42591e-06
7.22437e-06
-3.00991e-06
8.35207e-06
-2.46649e-06
9.22177e-06
-1.90682e-06
9.85388e-06
-1.38817e-06
1.02789e-05
-9.35958e-07
1.05301e-05
-5.57042e-07
1.064e-05
-2.48114e-07
1.06383e-05
-1.54175e-09
1.05491e-05
1.92182e-07
1.03871e-05
3.41149e-07
1.01675e-05
4.55159e-07
9.90317e-06
5.43047e-07
9.60416e-06
6.11794e-07
9.27822e-06
6.6659e-07
8.93121e-06
7.11048e-07
8.56762e-06
7.47465e-07
8.19093e-06
7.77197e-07
7.80388e-06
8.01085e-07
7.40868e-06
8.19818e-07
7.00703e-06
8.34186e-07
6.60014e-06
8.45185e-07
6.18873e-06
8.54025e-07
5.77297e-06
8.62083e-07
5.35246e-06
8.70843e-07
4.92623e-06
8.81804e-07
4.49279e-06
8.96382e-07
4.05024e-06
9.15739e-07
3.5965e-06
9.40514e-07
3.12971e-06
9.7037e-07
2.64896e-06
1.00325e-06
2.15536e-06
1.03418e-06
1.65393e-06
1.05322e-06
1.1563e-06
1.04189e-06
6.81902e-07
9.62733e-07
2.70384e-07
7.43381e-07
3.53072e-07
1.40333e-06
-2.76757e-06
3.10449e-06
-4.62018e-06
4.73016e-06
-5.13293e-06
6.16733e-06
-4.86309e-06
7.35998e-06
-4.20258e-06
8.29954e-06
-3.40607e-06
9.00445e-06
-2.61175e-06
9.50364e-06
-1.8874e-06
9.82815e-06
-1.26049e-06
1.00074e-05
-7.36312e-07
1.0068e-05
-3.08751e-07
1.00329e-05
3.35027e-08
9.92148e-06
3.03604e-07
9.74853e-06
5.14068e-07
9.52676e-06
6.76913e-07
9.26684e-06
8.02953e-07
8.9775e-06
9.01117e-07
8.66572e-06
9.78359e-07
8.33697e-06
1.03979e-06
7.99544e-06
1.08897e-06
7.64432e-06
1.1283e-06
7.28592e-06
1.15946e-06
6.92188e-06
1.18383e-06
6.55333e-06
1.20272e-06
6.18092e-06
1.21757e-06
5.80497e-06
1.22997e-06
5.42539e-06
1.24164e-06
5.04181e-06
1.25442e-06
4.65352e-06
1.2701e-06
4.25955e-06
1.29036e-06
3.85877e-06
1.31653e-06
3.45001e-06
1.34928e-06
3.03231e-06
1.38807e-06
2.60526e-06
1.4303e-06
2.16952e-06
1.46991e-06
1.72748e-06
1.49526e-06
1.28407e-06
1.4853e-06
8.45592e-07
1.40123e-06
4.0866e-07
1.18034e-06
7.61741e-07
1.47504e-06
-4.24262e-06
3.36159e-06
-6.50674e-06
5.08171e-06
-6.85306e-06
6.47581e-06
-6.25721e-06
7.5411e-06
-5.2679e-06
8.32452e-06
-4.18951e-06
8.87821e-06
-3.16546e-06
9.24714e-06
-2.25634e-06
9.46742e-06
-1.48079e-06
9.5678e-06
-8.36702e-07
9.57139e-06
-3.12346e-07
9.49693e-06
1.07929e-07
9.35988e-06
4.40621e-07
9.17274e-06
7.01188e-07
8.94585e-06
9.03791e-07
8.68787e-06
1.06091e-06
8.40602e-06
1.18296e-06
8.10616e-06
1.27821e-06
7.79299e-06
1.35295e-06
7.47015e-06
1.41179e-06
7.14035e-06
1.45807e-06
6.80553e-06
1.49427e-06
6.46699e-06
1.52237e-06
6.12553e-06
1.54417e-06
5.7816e-06
1.56149e-06
5.43534e-06
1.57622e-06
5.08666e-06
1.59032e-06
4.73528e-06
1.6058e-06
4.38075e-06
1.62464e-06
4.02248e-06
1.64863e-06
3.65979e-06
1.67924e-06
3.29192e-06
1.71716e-06
2.91814e-06
1.76184e-06
2.53782e-06
1.81061e-06
2.15041e-06
1.8573e-06
1.75533e-06
1.89033e-06
1.35127e-06
1.88936e-06
9.32926e-07
1.81958e-06
4.83751e-07
1.62953e-06
1.2455e-06
1.27814e-06
-5.52077e-06
3.44875e-06
-8.67736e-06
5.39926e-06
-8.80358e-06
6.8283e-06
-7.68625e-06
7.80216e-06
-6.24178e-06
8.44528e-06
-4.83263e-06
8.85392e-06
-3.57412e-06
9.09343e-06
-2.49586e-06
9.20717e-06
-1.59454e-06
9.22451e-06
-8.54043e-07
9.16617e-06
-2.54025e-07
9.0476e-06
2.26483e-07
8.88089e-06
6.07301e-07
8.67577e-06
9.06287e-07
8.44018e-06
1.13936e-06
8.1808e-06
1.32028e-06
7.90323e-06
1.46052e-06
7.61212e-06
1.5693e-06
7.31123e-06
1.65381e-06
7.00351e-06
1.71948e-06
6.69117e-06
1.7704e-06
6.37576e-06
1.80968e-06
6.0583e-06
1.83983e-06
5.7394e-06
1.86307e-06
5.41937e-06
1.88152e-06
5.09832e-06
1.89728e-06
4.77619e-06
1.91246e-06
4.4528e-06
1.9292e-06
4.12787e-06
1.94957e-06
3.80102e-06
1.97549e-06
3.47175e-06
2.00852e-06
3.13936e-06
2.04954e-06
2.80296e-06
2.09824e-06
2.46125e-06
2.15231e-06
2.11223e-06
2.20631e-06
1.7526e-06
2.24995e-06
1.37643e-06
2.26552e-06
9.71879e-07
2.22413e-06
5.1747e-07
2.08394e-06
1.76297e-06
8.6548e-07
-6.38627e-06
3.50814e-06
-1.132e-05
5.82053e-06
-1.1116e-05
7.31091e-06
-9.17665e-06
8.18554e-06
-7.11642e-06
8.6784e-06
-5.32549e-06
8.93545e-06
-3.83118e-06
9.04136e-06
-2.60177e-06
9.04527e-06
-1.59846e-06
8.97635e-06
-7.85135e-07
8.85277e-06
-1.30447e-07
8.6867e-06
3.92535e-07
8.48703e-06
8.06932e-07
8.26064e-06
1.13265e-06
8.01309e-06
1.3869e-06
7.74905e-06
1.58431e-06
7.47253e-06
1.73702e-06
7.18691e-06
1.85489e-06
6.895e-06
1.9457e-06
6.59901e-06
2.01547e-06
6.30059e-06
2.06882e-06
6.00092e-06
2.10934e-06
5.70076e-06
2.13998e-06
5.40057e-06
2.16327e-06
5.10056e-06
2.18154e-06
4.80081e-06
2.19704e-06
4.50128e-06
2.21199e-06
4.20186e-06
2.22862e-06
3.90234e-06
2.24909e-06
3.6024e-06
2.27544e-06
3.30151e-06
2.30942e-06
2.99885e-06
2.3522e-06
2.69311e-06
2.40397e-06
2.38221e-06
2.4632e-06
2.06283e-06
2.52569e-06
1.7296e-06
2.58318e-06
1.37367e-06
2.62145e-06
9.80189e-07
2.6176e-06
5.26869e-07
2.53727e-06
2.28984e-06
5.12559e-07
-6.89883e-06
3.88091e-06
-1.46884e-05
6.56881e-06
-1.38039e-05
8.03607e-06
-1.06439e-05
8.73971e-06
-7.82005e-06
9.04071e-06
-5.62648e-06
9.12504e-06
-3.91552e-06
9.08706e-06
-2.5638e-06
8.97587e-06
-1.48728e-06
8.81748e-06
-6.26744e-07
8.6261e-06
6.09264e-08
8.41009e-06
6.08516e-07
8.17497e-06
1.04204e-06
7.92468e-06
1.38294e-06
7.66239e-06
1.64919e-06
7.3908e-06
1.85586e-06
7.11237e-06
2.01542e-06
6.82923e-06
2.13801e-06
6.54321e-06
2.23171e-06
6.25578e-06
2.30289e-06
5.96807e-06
2.35652e-06
5.68087e-06
2.39655e-06
5.39468e-06
2.42618e-06
5.1098e-06
2.44817e-06
4.82634e-06
2.46501e-06
4.54435e-06
2.47904e-06
4.26376e-06
2.49257e-06
3.98448e-06
2.5079e-06
3.70629e-06
2.52728e-06
3.42881e-06
2.55293e-06
3.15137e-06
2.58686e-06
2.87287e-06
2.6307e-06
2.59156e-06
2.68529e-06
2.30461e-06
2.75015e-06
2.00765e-06
2.82264e-06
1.69392e-06
2.89689e-06
1.35306e-06
2.9623e-06
9.69388e-07
3.00128e-06
5.22064e-07
2.9846e-06
2.81191e-06
1.12604e-06
-8.02488e-06
5.26932e-06
-1.88317e-05
7.96175e-06
-1.64963e-05
9.12107e-06
-1.18032e-05
9.5037e-06
-8.20267e-06
9.54108e-06
-5.66386e-06
9.41972e-06
-3.79417e-06
9.22315e-06
-2.36724e-06
8.99036e-06
-1.25449e-06
8.73936e-06
-3.75749e-07
8.47827e-06
3.22012e-07
8.21071e-06
8.76068e-07
7.93837e-06
1.31437e-06
7.66218e-06
1.65911e-06
7.38291e-06
1.92845e-06
7.10135e-06
2.1374e-06
6.81843e-06
2.29833e-06
6.53508e-06
2.42136e-06
6.25218e-06
2.51461e-06
5.97049e-06
2.58457e-06
5.69061e-06
2.63641e-06
5.41295e-06
2.67423e-06
5.13775e-06
2.7014e-06
4.86512e-06
2.72081e-06
4.5951e-06
2.73504e-06
4.32763e-06
2.7465e-06
4.06262e-06
2.75757e-06
3.79992e-06
2.7706e-06
3.53922e-06
2.78798e-06
3.28001e-06
2.81214e-06
3.02142e-06
2.84544e-06
2.76205e-06
2.89007e-06
2.49967e-06
2.94768e-06
2.23087e-06
3.01896e-06
1.95053e-06
3.10298e-06
1.65111e-06
3.1963e-06
1.32172e-06
3.2917e-06
9.47156e-07
3.37585e-06
5.09133e-07
3.42264e-06
3.32105e-06
4.93773e-06
-1.29626e-05
8.78855e-06
-2.26825e-05
1.03176e-05
-1.80254e-05
1.06301e-05
-1.21157e-05
1.04821e-05
-8.05466e-06
1.01699e-05
-5.35164e-06
9.80675e-06
-3.43104e-06
9.43693e-06
-1.99743e-06
9.07694e-06
-8.94495e-07
8.73131e-06
-3.01221e-08
8.39967e-06
6.53654e-07
8.07984e-06
1.19589e-06
7.76932e-06
1.62488e-06
7.46591e-06
1.9625e-06
7.16799e-06
2.22636e-06
6.87452e-06
2.43085e-06
6.58495e-06
2.58789e-06
6.29907e-06
2.70722e-06
6.01688e-06
2.7968e-06
5.73844e-06
2.86302e-06
5.46384e-06
2.91102e-06
5.19312e-06
2.94497e-06
4.92625e-06
2.96828e-06
4.66317e-06
2.9839e-06
4.40377e-06
2.99444e-06
4.14792e-06
3.00236e-06
3.89542e-06
3.01007e-06
3.64602e-06
3.01999e-06
3.3993e-06
3.03469e-06
3.15458e-06
3.05685e-06
2.91074e-06
3.08928e-06
2.66607e-06
3.13475e-06
2.41795e-06
3.19581e-06
2.16252e-06
3.27439e-06
1.89422e-06
3.37128e-06
1.6052e-06
3.48533e-06
1.2847e-06
3.6122e-06
9.18768e-07
3.7418e-06
4.91991e-07
3.84943e-06
3.81306e-06
1.45149e-05
-2.74776e-05
1.51913e-05
-2.33588e-05
1.36031e-05
-1.64372e-05
1.24724e-05
-1.0985e-05
1.16139e-05
-7.19614e-06
1.0888e-05
-4.62573e-06
1.02595e-05
-2.80252e-06
9.70882e-06
-1.4468e-06
9.22019e-06
-4.05861e-07
8.78057e-06
4.09506e-07
8.37929e-06
1.05493e-06
8.00773e-06
1.56744e-06
7.65899e-06
1.97361e-06
7.32777e-06
2.29371e-06
7.01015e-06
2.54397e-06
6.70334e-06
2.73765e-06
6.40542e-06
2.8858e-06
6.11511e-06
2.99752e-06
5.83158e-06
3.08033e-06
5.55425e-06
3.14036e-06
5.28272e-06
3.18257e-06
5.01666e-06
3.21104e-06
4.75579e-06
3.22916e-06
4.49984e-06
3.23985e-06
4.24858e-06
3.24572e-06
4.00172e-06
3.24922e-06
3.75898e-06
3.25279e-06
3.51997e-06
3.25899e-06
3.28411e-06
3.27054e-06
3.05052e-06
3.29044e-06
2.81785e-06
3.32195e-06
2.58411e-06
3.3685e-06
2.34637e-06
3.43356e-06
2.10047e-06
3.52029e-06
1.84066e-06
3.63111e-06
1.55911e-06
3.7669e-06
1.24564e-06
3.9257e-06
8.87846e-07
4.09961e-06
4.73192e-07
4.26411e-06
4.28627e-06
2.32213e-06
-2.47519e-05
4.45801e-06
-2.53832e-05
6.3176e-06
-2.32031e-05
7.96056e-06
-2.14885e-05
9.43553e-06
-2.02158e-05
1.07861e-05
-1.92878e-05
1.20503e-05
-1.86429e-05
1.32596e-05
-1.82377e-05
1.44397e-05
-1.80397e-05
1.56107e-05
-1.80239e-05
1.67881e-05
-1.81714e-05
1.79834e-05
-1.84681e-05
1.92045e-05
-1.89045e-05
2.04563e-05
-1.94743e-05
2.17402e-05
-2.01738e-05
2.30544e-05
-2.09992e-05
2.43936e-05
-2.1944e-05
2.57481e-05
-2.29941e-05
2.71044e-05
-2.41215e-05
2.8445e-05
-2.52766e-05
2.97504e-05
-2.63783e-05
3.10019e-05
-2.73038e-05
3.21873e-05
-2.78768e-05
3.33065e-05
-2.78511e-05
3.43796e-05
-2.68785e-05
3.55014e-05
-2.46453e-05
3.68593e-05
-2.11113e-05
3.87661e-05
-1.67601e-05
3.95198e-05
-9.21934e-06
3.81623e-05
1.97253e-07
3.54661e-05
9.91218e-06
3.2481e-05
1.78964e-05
2.97865e-05
2.35109e-05
2.75589e-05
2.7075e-05
2.57825e-05
2.9212e-05
2.44059e-05
3.05677e-05
2.34263e-05
3.16549e-05
2.28587e-05
3.27799e-05
2.26853e-05
3.40906e-05
2.28559e-05
3.56844e-05
2.33363e-05
3.77003e-05
2.41665e-05
4.03598e-05
2.55044e-05
4.39977e-05
2.77153e-05
4.91717e-05
3.22368e-05
5.69663e-05
7.18502e-05
5.31998e-05
2.2336e-06
-2.69855e-05
4.28855e-06
-2.74381e-05
6.09776e-06
-2.50123e-05
7.71025e-06
-2.3101e-05
9.16525e-06
-2.16708e-05
1.04997e-05
-2.06223e-05
1.17473e-05
-1.98904e-05
1.29369e-05
-1.94273e-05
1.40926e-05
-1.91954e-05
1.52336e-05
-1.91649e-05
1.63748e-05
-1.93126e-05
1.75272e-05
-1.96206e-05
1.86984e-05
-2.00756e-05
1.98924e-05
-2.06683e-05
2.11099e-05
-2.13913e-05
2.23483e-05
-2.22376e-05
2.36013e-05
-2.3197e-05
2.48588e-05
-2.42515e-05
2.61069e-05
-2.53696e-05
2.73292e-05
-2.64989e-05
2.85086e-05
-2.75577e-05
2.96309e-05
-2.8426e-05
3.06902e-05
-2.89362e-05
3.16974e-05
-2.88583e-05
3.26929e-05
-2.7874e-05
3.37864e-05
-2.57388e-05
3.51226e-05
-2.24475e-05
3.68034e-05
-1.84409e-05
3.71292e-05
-9.54514e-06
3.54981e-05
1.82848e-06
3.29532e-05
1.24571e-05
3.03746e-05
2.04749e-05
2.8134e-05
2.57515e-05
2.63205e-05
2.88885e-05
2.49004e-05
3.06321e-05
2.38287e-05
3.16395e-05
2.30964e-05
3.23872e-05
2.27161e-05
3.31602e-05
2.26971e-05
3.41096e-05
2.30503e-05
3.53313e-05
2.38253e-05
3.69252e-05
2.51724e-05
3.90128e-05
2.74519e-05
4.17182e-05
3.15314e-05
4.50922e-05
3.93801e-05
4.91176e-05
5.53274e-05
5.59029e-05
2.14711e-06
-2.91326e-05
4.12295e-06
-2.9414e-05
5.88063e-06
-2.677e-05
7.46071e-06
-2.46811e-05
8.89471e-06
-2.31048e-05
1.02136e-05
-2.19412e-05
1.14468e-05
-2.11236e-05
1.26202e-05
-2.06007e-05
1.3756e-05
-2.03311e-05
1.48721e-05
-2.02811e-05
1.59828e-05
-2.04233e-05
1.70983e-05
-2.07361e-05
1.82256e-05
-2.12029e-05
1.93683e-05
-2.1811e-05
2.05265e-05
-2.25496e-05
2.16972e-05
-2.34083e-05
2.28735e-05
-2.43733e-05
2.40454e-05
-2.54233e-05
2.51997e-05
-2.65239e-05
2.63215e-05
-2.76208e-05
2.73965e-05
-2.86327e-05
2.84146e-05
-2.94441e-05
2.93757e-05
-2.98972e-05
3.02976e-05
-2.97802e-05
3.12359e-05
-2.88122e-05
3.23003e-05
-2.68033e-05
3.35879e-05
-2.37351e-05
3.48571e-05
-1.97101e-05
3.4646e-05
-9.334e-06
3.29097e-05
3.56476e-06
3.06566e-05
1.47102e-05
2.8511e-05
2.26204e-05
2.66979e-05
2.75647e-05
2.5248e-05
3.03385e-05
2.41238e-05
3.17563e-05
2.32915e-05
3.24717e-05
2.27477e-05
3.29311e-05
2.25101e-05
3.33978e-05
2.26058e-05
3.40139e-05
2.30759e-05
3.48612e-05
2.40022e-05
3.59989e-05
2.55489e-05
3.7466e-05
2.80252e-05
3.92419e-05
3.19632e-05
4.11542e-05
3.82436e-05
4.28373e-05
4.36262e-05
4.99449e-05
2.06361e-06
-3.11962e-05
3.96278e-06
-3.13132e-05
5.66832e-06
-2.84755e-05
7.21413e-06
-2.62269e-05
8.62542e-06
-2.45161e-05
9.92808e-06
-2.32439e-05
1.11473e-05
-2.23428e-05
1.23063e-05
-2.17597e-05
1.34249e-05
-2.14498e-05
1.45198e-05
-2.1376e-05
1.5604e-05
-2.15075e-05
1.66872e-05
-2.18193e-05
1.77758e-05
-2.22915e-05
1.88729e-05
-2.2908e-05
1.99783e-05
-2.3655e-05
2.10886e-05
-2.45186e-05
2.21971e-05
-2.54818e-05
2.32942e-05
-2.65204e-05
2.43678e-05
-2.75975e-05
2.54051e-05
-2.8658e-05
2.63944e-05
-2.9622e-05
2.73293e-05
-3.0379e-05
2.82135e-05
-3.07815e-05
2.90688e-05
-3.06355e-05
2.9956e-05
-2.96995e-05
3.09775e-05
-2.78247e-05
3.22079e-05
-2.49655e-05
3.29861e-05
-2.04884e-05
3.22876e-05
-8.6355e-06
3.05559e-05
5.2964e-06
2.86169e-05
1.66493e-05
2.68698e-05
2.43676e-05
2.54272e-05
2.90072e-05
2.42834e-05
3.14823e-05
2.34018e-05
3.26378e-05
2.27596e-05
3.3114e-05
2.23601e-05
3.33306e-05
2.22265e-05
3.35315e-05
2.23941e-05
3.38464e-05
2.29141e-05
3.43412e-05
2.38689e-05
3.50442e-05
2.53934e-05
3.59415e-05
2.76958e-05
3.69396e-05
3.10681e-05
3.7782e-05
3.60023e-05
3.7903e-05
3.6054e-05
4.35745e-05
1.98355e-06
-3.31798e-05
3.80866e-06
-3.31383e-05
5.46183e-06
-3.01287e-05
6.97159e-06
-2.77367e-05
8.35816e-06
-2.59027e-05
9.64304e-06
-2.45288e-05
1.08478e-05
-2.35476e-05
1.19927e-05
-2.29045e-05
1.30955e-05
-2.25526e-05
1.41713e-05
-2.24517e-05
1.52319e-05
-2.25681e-05
1.62864e-05
-2.28738e-05
1.73404e-05
-2.33455e-05
1.83966e-05
-2.39643e-05
1.94548e-05
-2.47131e-05
2.05114e-05
-2.55752e-05
2.15602e-05
-2.65306e-05
2.25922e-05
-2.75524e-05
2.35967e-05
-2.86021e-05
2.45629e-05
-2.96242e-05
2.54819e-05
-3.0541e-05
2.63501e-05
-3.12473e-05
2.71738e-05
-3.16052e-05
2.79753e-05
-3.14369e-05
2.88165e-05
-3.05407e-05
2.97877e-05
-2.87959e-05
3.09803e-05
-2.61582e-05
3.12191e-05
-2.07272e-05
3.01676e-05
-7.58396e-06
2.84986e-05
6.96546e-06
2.68444e-05
1.83036e-05
2.54309e-05
2.5781e-05
2.42916e-05
3.01466e-05
2.33966e-05
3.23773e-05
2.27106e-05
3.33239e-05
2.22181e-05
3.36065e-05
2.19278e-05
3.36209e-05
2.18653e-05
3.35939e-05
2.20681e-05
3.36436e-05
2.25867e-05
3.38226e-05
2.34928e-05
3.41381e-05
2.48884e-05
3.45459e-05
2.691e-05
3.49179e-05
2.97192e-05
3.4973e-05
3.34699e-05
3.41521e-05
3.15265e-05
3.79975e-05
1.90697e-06
-3.50868e-05
3.66056e-06
-3.48919e-05
5.26132e-06
-3.17294e-05
6.73346e-06
-2.92088e-05
8.09319e-06
-2.72624e-05
9.35831e-06
-2.57939e-05
1.05472e-05
-2.47365e-05
1.16774e-05
-2.40347e-05
1.27646e-05
-2.36398e-05
1.38223e-05
-2.35094e-05
1.48613e-05
-2.36071e-05
1.58894e-05
-2.39019e-05
1.69121e-05
-2.43682e-05
1.79315e-05
-2.49837e-05
1.89473e-05
-2.57289e-05
1.99561e-05
-2.6584e-05
2.09522e-05
-2.75266e-05
2.19274e-05
-2.85277e-05
2.28727e-05
-2.95474e-05
2.3779e-05
-3.05304e-05
2.46397e-05
-3.14017e-05
2.54537e-05
-3.20612e-05
2.62285e-05
-3.238e-05
2.6985e-05
-3.21935e-05
2.77816e-05
-3.13374e-05
2.86887e-05
-2.9703e-05
2.98329e-05
-2.73023e-05
2.96386e-05
-2.05329e-05
2.83402e-05
-6.28554e-06
2.67427e-05
8.563e-06
2.53193e-05
1.9727e-05
2.4168e-05
2.69322e-05
2.32672e-05
3.10475e-05
2.25691e-05
3.30753e-05
2.20378e-05
3.38553e-05
2.16619e-05
3.39824e-05
2.14523e-05
3.38305e-05
2.14346e-05
3.36116e-05
2.16443e-05
3.34339e-05
2.21264e-05
3.33405e-05
2.29383e-05
3.33262e-05
2.41513e-05
3.33329e-05
2.58435e-05
3.32256e-05
2.80694e-05
3.27472e-05
3.07593e-05
3.14622e-05
2.88077e-05
3.34782e-05
1.83362e-06
-3.69204e-05
3.51802e-06
-3.65763e-05
5.06649e-06
-3.32779e-05
6.49964e-06
-3.06419e-05
7.83044e-06
-2.85932e-05
9.07364e-06
-2.70371e-05
1.02448e-05
-2.59077e-05
1.13591e-05
-2.5149e-05
1.24302e-05
-2.4711e-05
1.347e-05
-2.45493e-05
1.44882e-05
-2.46252e-05
1.54918e-05
-2.49056e-05
1.64855e-05
-2.53619e-05
1.74714e-05
-2.59696e-05
1.84488e-05
-2.67063e-05
1.94149e-05
-2.755e-05
2.03642e-05
-2.8476e-05
2.12898e-05
-2.94533e-05
2.21838e-05
-3.04414e-05
2.30389e-05
-3.13856e-05
2.38505e-05
-3.22133e-05
2.4619e-05
-3.28297e-05
2.53527e-05
-3.31137e-05
2.60708e-05
-3.29116e-05
2.68217e-05
-3.20882e-05
2.76605e-05
-3.05418e-05
2.8695e-05
-2.83368e-05
2.8249e-05
-2.0087e-05
2.67706e-05
-4.80709e-06
2.52418e-05
1.00918e-05
2.39975e-05
2.09713e-05
2.30479e-05
2.78819e-05
2.23317e-05
3.17638e-05
2.17871e-05
3.36199e-05
2.13765e-05
3.42658e-05
2.109e-05
3.4269e-05
2.09385e-05
3.39821e-05
2.09455e-05
3.36045e-05
2.11425e-05
3.3237e-05
2.15668e-05
3.29163e-05
2.2261e-05
3.2632e-05
2.32696e-05
3.23242e-05
2.46258e-05
3.18694e-05
2.63151e-05
3.10579e-05
2.8192e-05
2.95854e-05
2.71308e-05
2.98688e-05
1.76309e-06
-3.86835e-05
3.38036e-06
-3.81935e-05
4.87675e-06
-3.47743e-05
6.26976e-06
-3.2035e-05
7.5697e-06
-2.98932e-05
8.7888e-06
-2.82562e-05
9.94021e-06
-2.70591e-05
1.10369e-05
-2.62457e-05
1.20909e-05
-2.57649e-05
1.31124e-05
-2.55708e-05
1.41101e-05
-2.56229e-05
1.50902e-05
-2.58856e-05
1.60568e-05
-2.63284e-05
1.70115e-05
-2.69244e-05
1.7954e-05
-2.76488e-05
1.88814e-05
-2.84774e-05
1.97889e-05
-2.93835e-05
2.06706e-05
-3.0335e-05
2.15198e-05
-3.12906e-05
2.23306e-05
-3.21964e-05
2.30997e-05
-3.29824e-05
2.38285e-05
-3.35585e-05
2.45249e-05
-3.38101e-05
2.5206e-05
-3.35927e-05
2.5909e-05
-3.27911e-05
2.66667e-05
-3.12995e-05
2.75249e-05
-2.91949e-05
2.69114e-05
-1.94735e-05
2.53595e-05
-3.25522e-06
2.39204e-05
1.15309e-05
2.28262e-05
2.20655e-05
2.20361e-05
2.8672e-05
2.1464e-05
3.23359e-05
2.10388e-05
3.40451e-05
2.07218e-05