/*--------------------------------*- C++ -*----------------------------------*\
  =========                 |
  \\      /  F ield         | OpenFOAM: The Open Source CFD Toolbox
   \\    /   O peration     | Website:  https://openfoam.org
    \\  /    A nd           | Version:  9
     \\/     M anipulation  |
\*---------------------------------------------------------------------------*/
FoamFile
{
    format      ascii;
    class       volVectorField;
    location    "0.1";
    object      U;
}
// * * * * * * * * * * * * * * * * * * * * * * * * * * * * * * * * * * * * * //

dimensions      [0 1 -1 0 0 0 0];

internalField   nonuniform List<vector> 
7700
(
(-0.000331552 -0.000966774 0)
(0.0152788 -0.0121482 0)
(0.0481866 -0.0187185 0)
(0.0855172 -0.0209397 0)
(0.124488 -0.0212415 0)
(0.163557 -0.0208123 0)
(0.201901 -0.0201163 0)
(0.239233 -0.0193675 0)
(0.275563 -0.0186813 0)
(0.311059 -0.0181195 0)
(0.345968 -0.0177131 0)
(0.380583 -0.0174764 0)
(0.415223 -0.0174157 0)
(0.450226 -0.0175352 0)
(0.485954 -0.0178411 0)
(0.522797 -0.0183453 0)
(0.561183 -0.0190692 0)
(0.601602 -0.020042 0)
(0.644592 -0.0213007 0)
(0.690755 -0.0228878 0)
(0.740706 -0.0248135 0)
(0.794941 -0.0270199 0)
(0.853659 -0.0293614 0)
(0.916497 -0.0315444 0)
(0.982117 -0.033035 0)
(1.04769 -0.0329255 0)
(1.10797 -0.0299125 0)
(1.15623 -0.0215169 0)
(1.18126 -0.00557647 0)
(1.16893 0.011539 0)
(1.13153 0.0216494 0)
(1.08748 0.0188581 0)
(1.05251 -1.08626e-05 0)
(1.03562 -0.0369859 0)
(1.0496 -0.0823714 0)
(1.10937 -0.123449 0)
(1.16603 -0.0944947 0)
(1.10045 -0.0267881 0)
(0.953185 0.0224861 0)
(0.770424 0.0516651 0)
(0.596731 0.0574208 0)
(0.449641 0.0547603 0)
(0.321234 0.0519698 0)
(0.201505 0.0500118 0)
(0.0868995 0.0429285 0)
(0.0234377 0.022477 0)
(0.0119522 -0.00991901 0)
(0.0368047 -0.0300575 0)
(0.0691189 -0.0400319 0)
(0.102902 -0.0436674 0)
(0.136879 -0.0444167 0)
(0.170634 -0.0439316 0)
(0.203884 -0.042952 0)
(0.236531 -0.0418628 0)
(0.268629 -0.0408818 0)
(0.300326 -0.0401326 0)
(0.331818 -0.039685 0)
(0.363338 -0.0395795 0)
(0.395141 -0.039844 0)
(0.427508 -0.0405046 0)
(0.460745 -0.0415932 0)
(0.495194 -0.0431537 0)
(0.531238 -0.0452447 0)
(0.569307 -0.0479348 0)
(0.60987 -0.0512898 0)
(0.653409 -0.0553429 0)
(0.700352 -0.0600287 0)
(0.750958 -0.0651004 0)
(0.80513 -0.0700252 0)
(0.862128 -0.0738372 0)
(0.920218 -0.074974 0)
(0.976297 -0.0711457 0)
(1.02564 -0.059657 0)
(1.06216 -0.0383566 0)
(1.08337 -0.00886279 0)
(1.09506 0.0186976 0)
(1.09458 0.0340735 0)
(1.08819 0.0358393 0)
(1.08178 0.0312788 0)
(1.07295 0.0222744 0)
(1.04145 0.00579079 0)
(1.02576 0.0174767 0)
(1.06809 0.0609177 0)
(1.10726 0.129668 0)
(1.05563 0.190072 0)
(0.904252 0.205532 0)
(0.726543 0.189581 0)
(0.564116 0.166786 0)
(0.417993 0.150985 0)
(0.280042 0.1397 0)
(0.148061 0.117685 0)
(0.0479865 0.0671501 0)
(0.019881 -0.0322218 0)
(0.0497549 -0.0543451 0)
(0.0818283 -0.0632751 0)
(0.112971 -0.0665106 0)
(0.143171 -0.0670276 0)
(0.172804 -0.0662865 0)
(0.201987 -0.0650429 0)
(0.230793 -0.0637277 0)
(0.259338 -0.0625992 0)
(0.287774 -0.0618122 0)
(0.316278 -0.06146 0)
(0.345044 -0.0616025 0)
(0.374289 -0.0622856 0)
(0.40425 -0.0635551 0)
(0.435188 -0.0654665 0)
(0.467396 -0.0680903 0)
(0.501199 -0.0715124 0)
(0.53695 -0.0758233 0)
(0.575014 -0.0810927 0)
(0.615727 -0.0873182 0)
(0.659326 -0.0943364 0)
(0.705843 -0.101698 0)
(0.754936 -0.108506 0)
(0.805658 -0.113224 0)
(0.856214 -0.11349 0)
(0.903732 -0.106064 0)
(0.944126 -0.0875771 0)
(0.972844 -0.057507 0)
(0.988493 -0.0218356 0)
(0.996052 0.00958131 0)
(1.00325 0.0287147 0)
(1.01417 0.0350762 0)
(1.0265 0.0312784 0)
(1.03136 0.0203799 0)
(0.999598 -0.016268 0)
(0.946109 -0.0694525 0)
(0.902436 -0.0406191 0)
(0.852641 0.0916233 0)
(0.797482 0.230796 0)
(0.712486 0.3036 0)
(0.606151 0.295716 0)
(0.498259 0.267958 0)
(0.388571 0.247049 0)
(0.27634 0.231699 0)
(0.164542 0.205511 0)
(0.0639173 0.150124 0)
(0.0231952 -0.0591235 0)
(0.0562944 -0.0811492 0)
(0.088642 -0.087098 0)
(0.118242 -0.0887775 0)
(0.145906 -0.0884632 0)
(0.172555 -0.0871964 0)
(0.198635 -0.0856036 0)
(0.224396 -0.0840784 0)
(0.250037 -0.0828706 0)
(0.27574 -0.0821366 0)
(0.301684 -0.0819753 0)
(0.328048 -0.082455 0)
(0.355022 -0.0836328 0)
(0.382808 -0.0855691 0)
(0.411626 -0.0883373 0)
(0.441719 -0.092027 0)
(0.473346 -0.0967407 0)
(0.506778 -0.102575 0)
(0.542271 -0.109584 0)
(0.580027 -0.117708 0)
(0.620125 -0.126663 0)
(0.662433 -0.135785 0)
(0.706472 -0.143837 0)
(0.751257 -0.148782 0)
(0.79517 -0.147605 0)
(0.835823 -0.136326 0)
(0.869775 -0.11126 0)
(0.893439 -0.0732996 0)
(0.907663 -0.031351 0)
(0.919718 0.00352058 0)
(0.935139 0.025258 0)
(0.953497 0.0314533 0)
(0.959975 0.0215383 0)
(0.936481 0.0265067 0)
(0.90554 0.0339868 0)
(0.834423 0.0154212 0)
(0.738163 0.0426915 0)
(0.642968 0.148546 0)
(0.57483 0.275924 0)
(0.525464 0.347855 0)
(0.479924 0.354077 0)
(0.419779 0.33527 0)
(0.344504 0.320162 0)
(0.257741 0.30864 0)
(0.164535 0.286126 0)
(0.0701554 0.235117 0)
(0.0241714 -0.0881321 0)
(0.0587691 -0.108704 0)
(0.0912354 -0.110518 0)
(0.11989 -0.109849 0)
(0.145893 -0.108258 0)
(0.170441 -0.106269 0)
(0.194208 -0.10428 0)
(0.217595 -0.102582 0)
(0.240888 -0.101374 0)
(0.264313 -0.100789 0)
(0.288065 -0.100916 0)
(0.312321 -0.101819 0)
(0.337253 -0.103559 0)
(0.363036 -0.106207 0)
(0.389853 -0.109844 0)
(0.417895 -0.114572 0)
(0.447358 -0.120497 0)
(0.47843 -0.127708 0)
(0.511267 -0.136227 0)
(0.545953 -0.145921 0)
(0.582444 -0.156382 0)
(0.6205 -0.166746 0)
(0.65959 -0.175487 0)
(0.698805 -0.180186 0)
(0.736841 -0.177356 0)
(0.771837 -0.162497 0)
(0.800509 -0.131852 0)
(0.820213 -0.08756 0)
(0.835727 -0.0403265 0)
(0.853697 -0.00224944 0)
(0.872654 0.0193147 0)
(0.876271 0.0133322 0)
(0.857369 0.0211009 0)
(0.828526 0.05265 0)
(0.768483 0.0788015 0)
(0.680413 0.0944003 0)
(0.574083 0.140371 0)
(0.482557 0.225345 0)
(0.431964 0.314616 0)
(0.412421 0.368536 0)
(0.396231 0.380601 0)
(0.363192 0.375978 0)
(0.310913 0.372734 0)
(0.242456 0.370712 0)
(0.162023 0.358336 0)
(0.0723537 0.319234 0)
(0.0240881 -0.117711 0)
(0.0589133 -0.136284 0)
(0.0911045 -0.133521 0)
(0.119036 -0.130028 0)
(0.143902 -0.126797 0)
(0.166969 -0.123865 0)
(0.189032 -0.121373 0)
(0.210597 -0.11947 0)
(0.232022 -0.118275 0)
(0.253576 -0.117874 0)
(0.275474 -0.118329 0)
(0.297897 -0.119692 0)
(0.321007 -0.122018 0)
(0.344958 -0.125374 0)
(0.369899 -0.129846 0)
(0.395973 -0.135535 0)
(0.423318 -0.14254 0)
(0.452044 -0.15093 0)
(0.482217 -0.160681 0)
(0.513824 -0.171586 0)
(0.546729 -0.183116 0)
(0.580623 -0.194242 0)
(0.614976 -0.203223 0)
(0.649009 -0.207383 0)
(0.681784 -0.202926 0)
(0.711755 -0.18495 0)
(0.735254 -0.149706 0)
(0.752581 -0.100124 0)
(0.770421 -0.0484909 0)
(0.788804 -0.00773238 0)
(0.789006 -0.00174587 0)
(0.77673 0.0134937 0)
(0.751817 0.0516745 0)
(0.700186 0.0974744 0)
(0.63319 0.135163 0)
(0.55378 0.162775 0)
(0.469137 0.205372 0)
(0.401721 0.26809 0)
(0.367766 0.33196 0)
(0.358342 0.374615 0)
(0.351009 0.393308 0)
(0.329883 0.402345 0)
(0.291458 0.41236 0)
(0.235496 0.422983 0)
(0.163624 0.425339 0)
(0.0750225 0.404157 0)
(0.0234719 -0.147011 0)
(0.0577337 -0.163397 0)
(0.0892963 -0.156084 0)
(0.116558 -0.149585 0)
(0.140589 -0.144483 0)
(0.162593 -0.140422 0)
(0.183404 -0.1373 0)
(0.203584 -0.135118 0)
(0.22354 -0.133899 0)
(0.243575 -0.133668 0)
(0.263922 -0.134447 0)
(0.284769 -0.136264 0)
(0.306272 -0.139158 0)
(0.328566 -0.143187 0)
(0.35177 -0.148429 0)
(0.375989 -0.154975 0)
(0.401303 -0.162906 0)
(0.427758 -0.172261 0)
(0.455345 -0.182966 0)
(0.483969 -0.194738 0)
(0.513428 -0.206943 0)
(0.543375 -0.218426 0)
(0.57331 -0.227299 0)
(0.602603 -0.230736 0)
(0.630666 -0.224748 0)
(0.655888 -0.204123 0)
(0.674677 -0.165042 0)
(0.691376 -0.111701 0)
(0.709055 -0.0565638 0)
(0.717152 -0.0199716 0)
(0.714992 -0.00122435 0)
(0.694157 0.0389383 0)
(0.649245 0.0924758 0)
(0.592043 0.145515 0)
(0.531573 0.186036 0)
(0.469517 0.217049 0)
(0.409461 0.25279 0)
(0.364372 0.298086 0)
(0.341807 0.343515 0)
(0.334887 0.378344 0)
(0.329166 0.401759 0)
(0.313942 0.421488 0)
(0.284905 0.443796 0)
(0.238582 0.468694 0)
(0.173768 0.489639 0)
(0.081561 0.493226 0)
(0.022583 -0.175543 0)
(0.0558253 -0.189704 0)
(0.086514 -0.178113 0)
(0.1131 -0.168632 0)
(0.136463 -0.161552 0)
(0.15768 -0.156232 0)
(0.177565 -0.152369 0)
(0.196697 -0.149823 0)
(0.215507 -0.14852 0)
(0.234319 -0.148414 0)
(0.253382 -0.149482 0)
(0.272886 -0.151716 0)
(0.292983 -0.155135 0)
(0.313794 -0.159777 0)
(0.335414 -0.165704 0)
(0.357911 -0.172988 0)
(0.38132 -0.181685 0)
(0.405631 -0.191796 0)
(0.430773 -0.203192 0)
(0.456595 -0.215519 0)
(0.482847 -0.228059 0)
(0.509169 -0.239563 0)
(0.535106 -0.248059 0)
(0.560184 -0.250651 0)
(0.584121 -0.24325 0)
(0.604864 -0.220468 0)
(0.620512 -0.178851 0)
(0.636963 -0.123518 0)
(0.652268 -0.0638247 0)
(0.671545 -0.0268506 0)
(0.660754 0.0151326 0)
(0.623129 0.0723767 0)
(0.571077 0.134109 0)
(0.516339 0.187241 0)
(0.465604 0.226941 0)
(0.418252 0.256504 0)
(0.376373 0.285954 0)
(0.346245 0.31922 0)
(0.330618 0.352806 0)
(0.324789 0.382397 0)
(0.320189 0.408418 0)
(0.309856 0.435619 0)
(0.289411 0.468493 0)
(0.25298 0.508413 0)
(0.197862 0.552155 0)
(0.0956213 0.595866 0)
(0.0215781 -0.20305 0)
(0.0535607 -0.215017 0)
(0.0832304 -0.199524 0)
(0.109117 -0.187202 0)
(0.131902 -0.178134 0)
(0.152511 -0.171484 0)
(0.171699 -0.166795 0)
(0.190035 -0.163805 0)
(0.207954 -0.162347 0)
(0.225789 -0.162307 0)
(0.243794 -0.163609 0)
(0.262162 -0.166207 0)
(0.28104 -0.170088 0)
(0.300537 -0.175268 0)
(0.320728 -0.181785 0)
(0.341651 -0.189683 0)
(0.363304 -0.198987 0)
(0.385635 -0.209656 0)
(0.408526 -0.221507 0)
(0.431787 -0.234121 0)
(0.455142 -0.246713 0)
(0.47824 -0.257976 0)
(0.500683 -0.265903 0)
(0.522164 -0.267594 0)
(0.542647 -0.258941 0)
(0.559522 -0.234755 0)
(0.573548 -0.192173 0)
(0.589516 -0.136213 0)
(0.611587 -0.076343 0)
(0.635286 -0.0248527 0)
(0.610654 0.037403 0)
(0.565216 0.108368 0)
(0.513538 0.173157 0)
(0.465193 0.2239 0)
(0.423126 0.259414 0)
(0.386826 0.285191 0)
(0.356955 0.308731 0)
(0.336086 0.333742 0)
(0.324954 0.359761 0)
(0.320652 0.385659 0)
(0.318337 0.41265 0)
(0.313712 0.444448 0)
(0.30326 0.485446 0)
(0.280118 0.539577 0)
(0.246399 0.610336 0)
(0.130635 0.717179 0)
(0.0205556 -0.229419 0)
(0.0511753 -0.239264 0)
(0.0797549 -0.220271 0)
(0.104922 -0.20531 0)
(0.127174 -0.194307 0)
(0.147286 -0.186303 0)
(0.165936 -0.180731 0)
(0.183662 -0.17723 0)
(0.200887 -0.17555 0)
(0.21794 -0.17551 0)
(0.235077 -0.176981 0)
(0.252488 -0.179876 0)
(0.270316 -0.184148 0)
(0.288659 -0.189783 0)
(0.307573 -0.196788 0)
(0.327077 -0.205178 0)
(0.347139 -0.214941 0)
(0.367675 -0.22599 0)
(0.388539 -0.238092 0)
(0.409516 -0.250774 0)
(0.430327 -0.2632 0)
(0.450645 -0.274034 0)
(0.470145 -0.281282 0)
(0.488706 -0.282097 0)
(0.506433 -0.272435 0)
(0.520322 -0.247641 0)
(0.533656 -0.205786 0)
(0.549382 -0.150911 0)
(0.590466 -0.0867464 0)
(0.598713 -0.0182388 0)
(0.563896 0.0637424 0)
(0.516998 0.144006 0)
(0.470184 0.209013 0)
(0.428651 0.255062 0)
(0.394145 0.285515 0)
(0.365978 0.306682 0)
(0.343986 0.324942 0)
(0.329062 0.343907 0)
(0.321296 0.364523 0)
(0.319126 0.387164 0)
(0.32013 0.413453 0)
(0.322227 0.446769 0)
(0.323858 0.491972 0)
(0.319679 0.556153 0)
(0.325916 0.654403 0)
(0.16895 0.900562 0)
(0.00153242 -0.00230171 0)
(0.011862 -0.0093484 0)
(0.0373338 -0.0132072 0)
(0.0640276 -0.0132852 0)
(0.0888262 -0.0117182 0)
(0.110095 -0.0095919 0)
(0.127079 -0.00739907 0)
(0.139838 -0.00537729 0)
(0.148806 -0.00363059 0)
(0.154547 -0.0021826 0)
(0.157646 -0.00100488 0)
(0.158607 -4.57044e-05 0)
(0.157775 0.000678953 0)
(0.155698 0.00119984 0)
(0.152699 0.00157537 0)
(0.148999 0.00186 0)
(0.144754 0.00208665 0)
(0.140074 0.00227552 0)
(0.135031 0.00243858 0)
(0.129684 0.00258108 0)
(0.124079 0.00270378 0)
(0.11826 0.00280558 0)
(0.112271 0.00288583 0)
(0.106151 0.00294562 0)
(0.0999345 0.00298818 0)
(0.0936476 0.00301848 0)
(0.0873048 0.00304277 0)
(0.0809087 0.00306806 0)
(0.0744485 0.0031017 0)
(0.0679003 0.00315092 0)
(0.0612281 0.00322219 0)
(0.0543869 0.00332011 0)
(0.0473289 0.0034454 0)
(0.0400139 0.00359128 0)
(0.0324299 0.00373715 0)
(0.0246279 0.003838 0)
(0.0168321 0.00380191 0)
(0.00914627 0.00346561 0)
(0.00288874 0.00236664 0)
(0.000157618 0.000273593 0)
(0.00772571 -0.006586 0)
(0.0248398 -0.0213604 0)
(0.0488383 -0.027979 0)
(0.07263 -0.0280274 0)
(0.0939952 -0.0248683 0)
(0.111942 -0.0204835 0)
(0.126155 -0.0158822 0)
(0.136789 -0.0115867 0)
(0.144234 -0.00783419 0)
(0.148959 -0.00469235 0)
(0.151439 -0.00213078 0)
(0.152116 -7.46581e-05 0)
(0.151427 0.00151778 0)
(0.149585 0.00272074 0)
(0.146817 0.0036295 0)
(0.143327 0.00432747 0)
(0.139278 0.00487576 0)
(0.134797 0.00531787 0)
(0.129977 0.00568262 0)
(0.124894 0.00598675 0)
(0.119602 0.00623877 0)
(0.114146 0.00644312 0)
(0.108559 0.00660366 0)
(0.10287 0.00672591 0)
(0.0970986 0.00681786 0)
(0.0912594 0.00688984 0)
(0.0853584 0.00695398 0)
(0.079394 0.00702347 0)
(0.0733567 0.00711185 0)
(0.0672285 0.00723194 0)
(0.0609851 0.00739448 0)
(0.0545974 0.0076056 0)
(0.0480362 0.00786272 0)
(0.0412795 0.00814753 0)
(0.0343254 0.00841446 0)
(0.0272117 0.008571 0)
(0.0200493 0.00844061 0)
(0.0130091 0.00761085 0)
(0.00649492 0.0053133 0)
(0.00201328 0.00178236 0)
(0.0123627 -0.0207158 0)
(0.0320976 -0.0379536 0)
(0.0562127 -0.0438472 0)
(0.0785283 -0.0424156 0)
(0.0973893 -0.0371411 0)
(0.112551 -0.0303803 0)
(0.124191 -0.0234579 0)
(0.132676 -0.0170574 0)
(0.138451 -0.0114783 0)
(0.141952 -0.00679915 0)
(0.143582 -0.00298017 0)
(0.143694 7.22448e-05 0)
(0.142597 0.00247743 0)
(0.140523 0.00434349 0)
(0.137669 0.00578183 0)
(0.1342 0.00689316 0)
(0.130255 0.0077599 0)
(0.125945 0.00844526 0)
(0.121358 0.00899477 0)
(0.116563 0.00943898 0)
(0.111612 0.00979756 0)
(0.106544 0.0100837 0)
(0.101385 0.010308 0)
(0.0961555 0.0104815 0)
(0.0908677 0.0106167 0)
(0.0855283 0.010728 0)
(0.0801387 0.0108318 0)
(0.0746958 0.0109451 0)
(0.0691915 0.0110851 0)
(0.0636139 0.0112678 0)
(0.0579477 0.011506 0)
(0.0521762 0.0118062 0)
(0.0462834 0.012163 0)
(0.0402585 0.0125508 0)
(0.0341018 0.01291 0)
(0.0278326 0.0131247 0)
(0.0214921 0.0129837 0)
(0.015132 0.0120856 0)
(0.00895525 0.00978933 0)
(0.00358767 0.00558202 0)
(0.0129484 -0.0356223 0)
(0.0345433 -0.056269 0)
(0.0610175 -0.0607964 0)
(0.0835957 -0.0567437 0)
(0.101056 -0.0485789 0)
(0.114059 -0.0391158 0)
(0.12343 -0.0298447 0)
(0.129875 -0.0214687 0)
(0.133969 -0.0142528 0)
(0.13617 -0.00823003 0)
(0.136842 -0.00331728 0)
(0.13628 0.000620056 0)
(0.134726 0.00373394 0)
(0.132376 0.00616793 0)
(0.129391 0.00805686 0)
(0.125905 0.00952055 0)
(0.122032 0.0106588 0)
(0.117863 0.0115503 0)
(0.113475 0.012254 0)
(0.108926 0.0128123 0)
(0.104261 0.0132549 0)
(0.099514 0.0136033 0)
(0.0947065 0.013875 0)
(0.0898531 0.0140862 0)
(0.0849624 0.0142535 0)
(0.0800382 0.0143949 0)
(0.0750808 0.0145296 0)
(0.0700874 0.0146772 0)
(0.0650528 0.0148572 0)
(0.0599694 0.0150875 0)
(0.0548281 0.0153821 0)
(0.0496187 0.0157476 0)
(0.0443304 0.0161779 0)
(0.0389535 0.0166444 0)
(0.0334796 0.0170827 0)
(0.0279006 0.0173709 0)
(0.0221944 0.0172931 0)
(0.0163013 0.0164721 0)
(0.0103159 0.0143394 0)
(0.00444565 0.0102269 0)
(0.00985652 -0.0508157 0)
(0.0332713 -0.0769225 0)
(0.0646337 -0.0793928 0)
(0.0889371 -0.0711448 0)
(0.105686 -0.0590386 0)
(0.116845 -0.0464501 0)
(0.124088 -0.0347967 0)
(0.128536 -0.0246029 0)
(0.130937 -0.0159788 0)
(0.13179 -0.00884685 0)
(0.131438 -0.00304988 0)
(0.13013 0.00159689 0)
(0.128059 0.00527881 0)
(0.125378 0.00816693 0)
(0.12221 0.010416 0)
(0.118658 0.0121613 0)
(0.11481 0.0135155 0)
(0.110738 0.014569 0)
(0.106503 0.0153912 0)
(0.102151 0.0160342 0)
(0.0977205 0.0165363 0)
(0.0932372 0.0169264 0)
(0.0887192 0.0172279 0)
(0.0841776 0.0174614 0)
(0.0796186 0.0176473 0)
(0.0750448 0.0178062 0)
(0.0704564 0.017959 0)
(0.0658516 0.0181269 0)
(0.0612272 0.0183308 0)
(0.0565786 0.0185897 0)
(0.0518994 0.0189187 0)
(0.0471815 0.0193256 0)
(0.0424139 0.0198053 0)
(0.0375817 0.0203313 0)
(0.0326626 0.0208429 0)
(0.0276202 0.0212262 0)
(0.0223818 0.0212851 0)
(0.016816 0.0206945 0)
(0.0109576 0.0189845 0)
(0.00482042 0.0153786 0)
(0.00249307 -0.0627633 0)
(0.029978 -0.101363 0)
(0.0692736 -0.10107 0)
(0.0961511 -0.0861421 0)
(0.112137 -0.068601 0)
(0.121285 -0.0523385 0)
(0.126285 -0.038247 0)
(0.128668 -0.0263949 0)
(0.129328 -0.0165958 0)
(0.128788 -0.00859376 0)
(0.127366 -0.0021284 0)
(0.125265 0.00304444 0)
(0.12263 0.00714451 0)
(0.11957 0.010366 0)
(0.116173 0.0128793 0)
(0.112509 0.0148307 0)
(0.10864 0.0163419 0)
(0.104618 0.0175112 0)
(0.100489 0.0184157 0)
(0.0962873 0.0191146 0)
(0.0920411 0.0196528 0)
(0.0877705 0.020065 0)
(0.0834889 0.0203794 0)
(0.0792046 0.0206205 0)
(0.0749221 0.0208113 0)
(0.0706431 0.020974 0)
(0.0663678 0.021131 0)
(0.062095 0.0213046 0)
(0.0578226 0.0215164 0)
(0.0535471 0.0217866 0)
(0.0492625 0.0221319 0)
(0.04496 0.0225624 0)
(0.0406249 0.0230768 0)
(0.0362342 0.023655 0)
(0.0317514 0.0242467 0)
(0.0271163 0.0247562 0)
(0.0222213 0.02502 0)
(0.0168967 0.0247751 0)
(0.0111471 0.0236375 0)
(0.00492104 0.0207322 0)
(-0.0071308 -0.0643685 0)
(0.0301897 -0.131479 0)
(0.0788775 -0.127097 0)
(0.107466 -0.101714 0)
(0.121422 -0.0769483 0)
(0.127767 -0.0565451 0)
(0.130121 -0.0400652 0)
(0.130242 -0.0267766 0)
(0.129064 -0.0160639 0)
(0.127079 -0.00744071 0)
(0.124548 -0.000524526 0)
(0.121619 0.00499185 0)
(0.118385 0.0093612 0)
(0.114911 0.0127965 0)
(0.111245 0.0154791 0)
(0.107429 0.0175619 0)
(0.103497 0.0191716 0)
(0.0994838 0.0204113 0)
(0.0954171 0.0213627 0)
(0.0913207 0.0220897 0)
(0.0872135 0.0226417 0)
(0.0831092 0.0230577 0)
(0.0790168 0.0233693 0)
(0.0749418 0.0236039 0)
(0.0708867 0.0237863 0)
(0.0668526 0.02394 0)
(0.0628391 0.0240882 0)
(0.0588452 0.0242542 0)
(0.0548688 0.0244604 0)
(0.0509059 0.0247283 0)
(0.0469495 0.0250771 0)
(0.0429878 0.0255209 0)
(0.0390012 0.0260643 0)
(0.0349584 0.0266968 0)
(0.0308103 0.0273829 0)
(0.0264791 0.0280502 0)
(0.0218369 0.0285725 0)
(0.0166988 0.0287454 0)
(0.011059 0.0282479 0)
(0.00486785 0.0261018 0)
(-0.000488993 -0.0602917 0)
(0.0472549 -0.169636 0)
(0.0994288 -0.156586 0)
(0.125425 -0.116303 0)
(0.134446 -0.0829964 0)
(0.136542 -0.0584838 0)
(0.135604 -0.0399669 0)
(0.133172 -0.0256167 0)
(0.130026 -0.0143221 0)
(0.126537 -0.00535523 0)
(0.122867 0.00178436 0)
(0.119086 0.00746013 0)
(0.115231 0.0119512 0)
(0.111316 0.0154831 0)
(0.107351 0.0182422 0)
(0.103348 0.0203835 0)
(0.0993184 0.0220348 0)
(0.0952752 0.0233006 0)
(0.091232 0.0242643 0)
(0.087201 0.0249922 0)
(0.0831921 0.0255364 0)
(0.0792127 0.0259384 0)
(0.0752674 0.0262322 0)
(0.0713587 0.0264469 0)
(0.0674871 0.0266083 0)
(0.0636526 0.0267412 0)
(0.0598541 0.0268693 0)
(0.0560898 0.0270163 0)
(0.0523568 0.0272061 0)
(0.0486496 0.0274621 0)
(0.0449589 0.0278067 0)
(0.0412694 0.0282589 0)
(0.0375561 0.0288315 0)
(0.0337801 0.0295253 0)
(0.0298826 0.0303218 0)
(0.0257746 0.0311739 0)
(0.0213187 0.0319915 0)
(0.0163307 0.0326193 0)
(0.0108068 0.0327773 0)
(0.00472936 0.0313773 0)
(0.0750171 -0.106796 0)
(0.104133 -0.216692 0)
(0.137069 -0.181464 0)
(0.151642 -0.12536 0)
(0.15151 -0.0847465 0)
(0.147529 -0.0572757 0)
(0.142557 -0.0375657 0)
(0.137271 -0.0227498 0)
(0.13204 -0.0113012 0)
(0.127003 -0.00230782 0)
(0.122177 0.00481381 0)
(0.117537 0.0104619 0)
(0.113049 0.0149288 0)
(0.108676 0.0184428 0)
(0.104391 0.0211886 0)
(0.100176 0.023318 0)
(0.0960182 0.0249559 0)
(0.0919132 0.0262046 0)
(0.0878597 0.0271469 0)
(0.0838589 0.0278493 0)
(0.0799124 0.0283645 0)
(0.0760212 0.0287354 0)
(0.0721856 0.0289968 0)
(0.0684048 0.0291787 0)
(0.0646776 0.0293078 0)
(0.061002 0.0294092 0)
(0.0573759 0.0295071 0)
(0.0537962 0.0296261 0)
(0.0502583 0.0297914 0)
(0.0467549 0.030029 0)
(0.0432738 0.0303652 0)
(0.0397956 0.0308253 0)
(0.0362903 0.0314306 0)
(0.032713 0.0321945 0)
(0.0289982 0.0331164 0)
(0.0250512 0.0341735 0)
(0.0207328 0.035308 0)
(0.0158692 0.0364026 0)
(0.0104664 0.0371997 0)
(0.0045483 0.0364967 0)
(0.27019 -0.24286 0)
(0.221571 -0.25519 0)
(0.192787 -0.183213 0)
(0.184404 -0.121465 0)
(0.171551 -0.0797396 0)
(0.16008 -0.0520236 0)
(0.150542 -0.0325097 0)
(0.142223 -0.0180425 0)
(0.134862 -0.00695638 0)
(0.12828 0.00171327 0)
(0.122312 0.00856561 0)
(0.116825 0.0139991 0)
(0.111706 0.0182997 0)
(0.106872 0.021686 0)
(0.102255 0.0243329 0)
(0.0978091 0.0263831 0)
(0.0935008 0.0279549 0)
(0.0893079 0.0291453 0)
(0.0852158 0.0300339 0)
(0.0812153 0.0306852 0)
(0.0773 0.0311511 0)
(0.073465 0.031474 0)
(0.0697061 0.031689 0)
(0.0660196 0.0318262 0)
(0.0624016 0.0319124 0)
(0.0588487 0.0319727 0)
(0.0553568 0.032032 0)
(0.0519213 0.0321157 0)
(0.0485356 0.0322507 0)
(0.0451898 0.0324662 0)
(0.0418688 0.0327928 0)
(0.0385493 0.0332623 0)
(0.0351971 0.0339056 0)
(0.0317628 0.0347488 0)
(0.0281771 0.0358085 0)
(0.0243434 0.0370842 0)
(0.0201267 0.0385449 0)
(0.0153687 0.0401009 0)
(0.0100889 0.0415018 0)
(0.00435266 0.0414318 0)
(0.0195548 -0.254833 0)
(0.0487838 -0.262638 0)
(0.0762421 -0.240513 0)
(0.100668 -0.223121 0)
(0.122403 -0.210262 0)
(0.142077 -0.200907 0)
(0.16029 -0.194415 0)
(0.177533 -0.190346 0)
(0.194205 -0.18838 0)
(0.210626 -0.188274 0)
(0.227042 -0.189847 0)
(0.243641 -0.192971 0)
(0.260558 -0.197559 0)
(0.277881 -0.203564 0)
(0.295656 -0.210962 0)
(0.313881 -0.219731 0)
(0.332506 -0.229821 0)
(0.351427 -0.2411 0)
(0.370481 -0.253287 0)
(0.389448 -0.265865 0)
(0.408057 -0.277966 0)
(0.426022 -0.288253 0)
(0.443103 -0.294782 0)
(0.459376 -0.294816 0)
(0.474908 -0.284474 0)
(0.48665 -0.259917 0)
(0.499999 -0.220364 0)
(0.516019 -0.170979 0)
(0.569198 -0.095887 0)
(0.559412 -0.00608199 0)
(0.51934 0.0925099 0)
(0.475647 0.177961 0)
(0.435082 0.240373 0)
(0.400344 0.281308 0)
(0.372391 0.306673 0)
(0.350368 0.323311 0)
(0.333839 0.336997 0)
(0.323049 0.351159 0)
(0.318046 0.367323 0)
(0.318247 0.386469 0)
(0.322907 0.410247 0)
(0.331958 0.441527 0)
(0.346918 0.484803 0)
(0.370285 0.547835 0)
(0.441321 0.648464 0)
(0.504065 0.941374 0)
(0.0185841 -0.279399 0)
(0.0464391 -0.285237 0)
(0.07277 -0.260306 0)
(0.0964334 -0.240686 0)
(0.117641 -0.22607 0)
(0.136901 -0.215389 0)
(0.15473 -0.207957 0)
(0.171569 -0.203276 0)
(0.187785 -0.200966 0)
(0.203679 -0.200731 0)
(0.219486 -0.202339 0)
(0.235384 -0.205618 0)
(0.251503 -0.210446 0)
(0.267921 -0.216739 0)
(0.284673 -0.224436 0)
(0.301746 -0.233479 0)
(0.319077 -0.243777 0)
(0.336552 -0.255157 0)
(0.354005 -0.267296 0)
(0.371219 -0.27964 0)
(0.387949 -0.291308 0)
(0.403956 -0.300985 0)
(0.419087 -0.30681 0)
(0.433606 -0.306207 0)
(0.44735 -0.295567 0)
(0.457554 -0.271896 0)
(0.471191 -0.235162 0)
(0.488356 -0.191168 0)
(0.535933 -0.10285 0)
(0.516084 0.0102266 0)
(0.476398 0.121261 0)
(0.438827 0.208147 0)
(0.405003 0.266963 0)
(0.376765 0.302975 0)
(0.354436 0.323728 0)
(0.337225 0.336315 0)
(0.324701 0.346057 0)
(0.316972 0.356159 0)
(0.31422 0.368282 0)
(0.316515 0.383522 0)
(0.324148 0.403196 0)
(0.33834 0.429195 0)
(0.362401 0.464126 0)
(0.402495 0.511753 0)
(0.480055 0.580123 0)
(0.630623 0.710761 0)
(0.0176592 -0.30302 0)
(0.044184 -0.306972 0)
(0.0694035 -0.279547 0)
(0.0922903 -0.257913 0)
(0.112955 -0.241658 0)
(0.131803 -0.229704 0)
(0.149273 -0.221336 0)
(0.165753 -0.216018 0)
(0.181577 -0.213319 0)
(0.19702 -0.212896 0)
(0.212302 -0.214474 0)
(0.227592 -0.217839 0)
(0.243008 -0.222831 0)
(0.258622 -0.229328 0)
(0.274461 -0.237234 0)
(0.290504 -0.246453 0)
(0.306683 -0.256857 0)
(0.32288 -0.268231 0)
(0.338934 -0.280218 0)
(0.354646 -0.29224 0)
(0.3698 -0.303415 0)
(0.384207 -0.312469 0)
(0.397799 -0.317646 0)
(0.410983 -0.316559 0)
(0.423198 -0.305973 0)
(0.432336 -0.283569 0)
(0.445743 -0.249413 0)
(0.464674 -0.206862 0)
(0.500386 -0.103451 0)
(0.472692 0.0288732 0)
(0.437079 0.147349 0)
(0.40605 0.233599 0)
(0.378731 0.288704 0)
(0.356261 0.320419 0)
(0.338667 0.337295 0)
(0.325276 0.346436 0)
(0.315796 0.352815 0)
(0.310368 0.359391 0)
(0.309315 0.367762 0)
(0.313059 0.378903 0)
(0.322348 0.393664 0)
(0.338731 0.412866 0)
(0.36527 0.436972 0)
(0.406913 0.46513 0)
(0.470001 0.494562 0)
(0.601303 0.509644 0)
(0.0167848 -0.325724 0)
(0.042034 -0.327867 0)
(0.0661674 -0.29823 0)
(0.0882689 -0.274781 0)
(0.108372 -0.257013 0)
(0.126795 -0.24385 0)
(0.14391 -0.234568 0)
(0.160053 -0.228598 0)
(0.175521 -0.225477 0)
(0.190564 -0.224817 0)
(0.205384 -0.226306 0)
(0.220134 -0.229691 0)
(0.234926 -0.234773 0)
(0.249823 -0.241397 0)
(0.264846 -0.249429 0)
(0.279969 -0.25874 0)
(0.295125 -0.26916 0)
(0.310198 -0.280444 0)
(0.32504 -0.292204 0)
(0.339472 -0.303848 0)
(0.353314 -0.314506 0)
(0.366424 -0.322957 0)
(0.378805 -0.327553 0)
(0.390955 -0.326109 0)
(0.401775 -0.315814 0)
(0.410158 -0.294828 0)
(0.422616 -0.263042 0)
(0.444293 -0.218474 0)
(0.464824 -0.098246 0)
(0.43279 0.0478755 0)
(0.402333 0.169946 0)
(0.377262 0.254454 0)
(0.355565 0.306091 0)
(0.337959 0.334252 0)
(0.324252 0.347978 0)
(0.313905 0.354274 0)
(0.30677 0.357805 0)
(0.303054 0.361304 0)
(0.303164 0.366238 0)
(0.307665 0.373402 0)
(0.317406 0.383241 0)
(0.333788 0.395821 0)
(0.359094 0.410365 0)
(0.396671 0.424141 0)
(0.449291 0.430848 0)
(0.541953 0.414121 0)
(0.0159616 -0.347546 0)
(0.0399934 -0.347949 0)
(0.0630701 -0.316349 0)
(0.0843824 -0.291269 0)
(0.103904 -0.272112 0)
(0.121883 -0.257815 0)
(0.138632 -0.247648 0)
(0.154442 -0.241028 0)
(0.169572 -0.23746 0)
(0.184245 -0.236524 0)
(0.198642 -0.237872 0)
(0.212906 -0.241216 0)
(0.227135 -0.246323 0)
(0.241387 -0.253002 0)
(0.255677 -0.261087 0)
(0.269979 -0.270413 0)
(0.284227 -0.280778 0)
(0.298316 -0.291905 0)
(0.312109 -0.303387 0)
(0.325454 -0.314623 0)
(0.338203 -0.324765 0)
(0.350257 -0.332647 0)
(0.361684 -0.336734 0)
(0.373 -0.335024 0)
(0.382505 -0.32514 0)
(0.390472 -0.305606 0)
(0.401471 -0.276128 0)
(0.427232 -0.22422 0)
(0.430376 -0.0883368 0)
(0.397815 0.0663579 0)
(0.372426 0.189232 0)
(0.352183 0.271329 0)
(0.335044 0.319843 0)
(0.321369 0.345103 0)
(0.310778 0.356319 0)
(0.302836 0.360301 0)
(0.2975 0.361446 0)
(0.295023 0.362286 0)
(0.295837 0.364156 0)
(0.300528 0.367683 0)
(0.309891 0.373035 0)
(0.325063 0.379843 0)
(0.347661 0.386808 0)
(0.379805 0.390814 0)
(0.422949 0.385393 0)
(0.48415 0.359042 0)
(0.0151869 -0.368525 0)
(0.0380588 -0.367248 0)
(0.0601098 -0.333902 0)
(0.0806323 -0.307359 0)
(0.0995533 -0.286934 0)
(0.117066 -0.271577 0)
(0.133432 -0.260567 0)
(0.1489 -0.253305 0)
(0.163694 -0.249276 0)
(0.178011 -0.248033 0)
(0.192013 -0.249196 0)
(0.205826 -0.252446 0)
(0.21954 -0.257518 0)
(0.233205 -0.26419 0)
(0.246834 -0.272264 0)
(0.2604 -0.281541 0)
(0.273842 -0.291792 0)
(0.287064 -0.302713 0)
(0.299949 -0.313882 0)
(0.312366 -0.324698 0)
(0.324198 -0.334338 0)
(0.335384 -0.341696 0)
(0.346042 -0.345335 0)
(0.356641 -0.343416 0)
(0.364919 -0.333976 0)
(0.372732 -0.315777 0)
(0.38215 -0.288795 0)
(0.41136 -0.223613 0)
(0.399201 -0.0750975 0)
(0.368343 0.084004 0)
(0.346946 0.205731 0)
(0.330351 0.285003 0)
(0.31676 0.330698 0)
(0.306162 0.353574 0)
(0.298014 0.36279 0)
(0.291947 0.364909 0)
(0.287974 0.364077 0)
(0.286358 0.362659 0)
(0.287516 0.361867 0)
(0.29199 0.36221 0)
(0.300453 0.363675 0)
(0.31376 0.365675 0)
(0.332956 0.366728 0)
(0.359106 0.363839 0)
(0.392281 0.351559 0)
(0.431894 0.322311 0)
(0.0144563 -0.388696 0)
(0.0362219 -0.385788 0)
(0.0572779 -0.35089 0)
(0.0770134 -0.323035 0)
(0.0953185 -0.301454 0)
(0.112342 -0.285115 0)
(0.128303 -0.273304 0)
(0.143412 -0.265418 0)
(0.157863 -0.260922 0)
(0.171827 -0.259349 0)
(0.185447 -0.260292 0)
(0.198836 -0.263404 0)
(0.21207 -0.268391 0)
(0.225196 -0.275001 0)
(0.238221 -0.283007 0)
(0.251123 -0.292182 0)
(0.263845 -0.302272 0)
(0.276303 -0.312951 0)
(0.288395 -0.323785 0)
(0.300013 -0.33418 0)
(0.311065 -0.343339 0)
(0.321521 -0.350215 0)
(0.331538 -0.353458 0)
(0.341471 -0.351365 0)
(0.348676 -0.342305 0)
(0.356419 -0.325195 0)
(0.364896 -0.30063 0)
(0.393948 -0.218749 0)
(0.372518 -0.0598937 0)
(0.343617 0.100941 0)
(0.325039 0.220031 0)
(0.311158 0.296215 0)
(0.300297 0.339303 0)
(0.292068 0.36018 0)
(0.285809 0.367794 0)
(0.281186 0.368421 0)
(0.278229 0.365974 0)
(0.277183 0.362671 0)
(0.278425 0.359632 0)
(0.28242 0.357279 0)
(0.289701 0.355511 0)
(0.300856 0.353667 0)
(0.316464 0.350314 0)
(0.336838 0.342907 0)
(0.361155 0.327478 0)
(0.38682 0.299605 0)
(0.013764 -0.408093 0)
(0.0344722 -0.403594 0)
(0.0545626 -0.367314 0)
(0.0735167 -0.338284 0)
(0.0911938 -0.315651 0)
(0.107707 -0.298404 0)
(0.12324 -0.28584 0)
(0.137971 -0.27735 0)
(0.152066 -0.27239 0)
(0.165673 -0.270472 0)
(0.178917 -0.271167 0)
(0.191895 -0.274103 0)
(0.204676 -0.278962 0)
(0.217298 -0.285464 0)
(0.22977 -0.293356 0)
(0.242068 -0.302387 0)
(0.254142 -0.312277 0)
(0.265919 -0.322687 0)
(0.277312 -0.333173 0)
(0.288232 -0.343151 0)
(0.298609 -0.351852 0)
(0.308432 -0.358279 0)
(0.317887 -0.361163 0)
(0.327152 -0.358906 0)
(0.333426 -0.350149 0)
(0.341088 -0.333847 0)
(0.349009 -0.310856 0)
(0.373887 -0.21374 0)
(0.348949 -0.0435226 0)
(0.322033 0.116947 0)
(0.305713 0.2326 0)
(0.293981 0.30551 0)
(0.285261 0.346165 0)
(0.278852 0.365335 0)
(0.274048 0.371657 0)
(0.270528 0.371096 0)
(0.268318 0.36735 0)
(0.26763 0.362507 0)
(0.268787 0.357617 0)
(0.27217 0.353054 0)
(0.278177 0.34869 0)
(0.287174 0.343897 0)
(0.299415 0.337436 0)
(0.314777 0.327315 0)
(0.332111 0.310926 0)
(0.348789 0.285722 0)
(0.0131041 -0.426742 0)
(0.0327981 -0.420685 0)
(0.0519512 -0.383179 0)
(0.0701314 -0.353094 0)
(0.0871721 -0.329504 0)
(0.103157 -0.311422 0)
(0.118241 -0.29815 0)
(0.132574 -0.289084 0)
(0.146297 -0.283666 0)
(0.159538 -0.281394 0)
(0.172404 -0.281821 0)
(0.18498 -0.284553 0)
(0.197326 -0.289248 0)
(0.209474 -0.295604 0)
(0.22143 -0.303344 0)
(0.233173 -0.312194 0)
(0.244659 -0.321856 0)
(0.255825 -0.331977 0)
(0.266595 -0.342109 0)
(0.276897 -0.351676 0)
(0.286677 -0.359936 0)
(0.295939 -0.365941 0)
(0.304885 -0.368484 0)
(0.313491 -0.366052 0)
(0.318967 -0.357474 0)
(0.326443 -0.341554 0)
(0.333871 -0.319152 0)
(0.354246 -0.206448 0)
(0.327195 -0.0267417 0)
(0.302533 0.131941 0)
(0.288205 0.243636 0)
(0.278333 0.313259 0)
(0.271308 0.351653 0)
(0.266315 0.369359 0)
(0.262634 0.374636 0)
(0.259959 0.373139 0)
(0.258296 0.368364 0)
(0.257821 0.36229 0)
(0.258801 0.355911 0)
(0.261537 0.349585 0)