/*--------------------------------*- C++ -*----------------------------------*\
  =========                 |
  \\      /  F ield         | OpenFOAM: The Open Source CFD Toolbox
   \\    /   O peration     | Website:  https://openfoam.org
    \\  /    A nd           | Version:  9
     \\/     M anipulation  |
\*---------------------------------------------------------------------------*/
FoamFile
{
    format      ascii;
    class       volScalarField;
    location    "0.6";
    object      alpha.water;
}
// * * * * * * * * * * * * * * * * * * * * * * * * * * * * * * * * * * * * * //

dimensions      [0 0 0 0 0 0 0];

internalField   nonuniform List<scalar> 
2268
(
3.13591e-06
1.42032e-06
2.45888e-10
0
-8.44239e-14
-8.36053e-16
1.12801e-17
4.73463e-19
-2.71833e-21
-2.30652e-21
-8.22803e-22
3.49871e-24
6.12325e-24
4.52804e-24
3.4534e-24
2.65381e-24
2.05273e-24
1.66956e-24
1.39919e-24
1.32269e-24
1.27617e-24
1.20945e-24
8.62327e-25
3.13409e-06
2.55439e-07
5.85236e-10
8.61646e-29
-3.34012e-14
-2.07118e-16
4.50351e-18
-1.7788e-20
-1.56093e-20
-7.92794e-21
-2.02674e-21
1.56372e-23
1.8079e-24
7.37195e-25
3.36739e-25
1.64084e-25
8.81963e-26
5.92173e-26
4.41455e-26
1.01064e-25
4.00686e-25
9.07577e-25
8.14353e-25
4.95061e-07
8.6106e-12
9.86094e-12
-3.85561e-13
-1.43067e-14
-5.25892e-17
7.58977e-19
-5.60047e-20
-3.6199e-20
-1.43103e-20
-2.7751e-21
1.02916e-23
1.38327e-25
1.86024e-26
4.55754e-27
1.89973e-27
2.46507e-27
4.19099e-27
4.50594e-27
4.62265e-27
5.25831e-26
5.12245e-25
7.23522e-25
-1.07706e-29
4.22824e-14
-1.15463e-15
-2.49666e-13
-6.4423e-15
-1.14447e-17
-5.89659e-20
-1.08425e-19
-5.6051e-20
-1.7648e-20
-2.66641e-21
5.46651e-24
1.74078e-26
1.92822e-27
9.98692e-28
1.8013e-27
8.31149e-27
1.9963e-26
2.19213e-26
9.68623e-27
8.33881e-27
3.02185e-25
6.26933e-25
-4.5295e-13
0
-1.17786e-12
-1.36803e-13
-2.97532e-15
1.19329e-17
-2.37955e-19
-1.55415e-19
-6.57949e-20
-1.68081e-20
-2.02066e-21
4.27293e-24
5.16525e-27
1.00381e-27
1.16586e-27
6.28223e-27
2.33245e-26
4.54766e-26
5.1361e-26
2.2832e-26
8.14364e-27
2.04765e-25
5.54268e-25
-1.97281e-12
-7.38258e-12
-1.11537e-12
-7.64915e-14
-1.35502e-15
2.50651e-17
5.72681e-20
-1.77891e-19
-6.30684e-20
-1.3274e-20
-1.29772e-21
4.17981e-24
4.85359e-27
7.22662e-28
1.86503e-27
1.04332e-26
3.42671e-26
6.81871e-26
8.48071e-26
5.54268e-26
2.91442e-26
2.25692e-25
5.02192e-25
-3.26089e-12
-1.15292e-11
-8.40985e-13
-4.48163e-14
-5.90159e-16
2.48928e-17
-1.72053e-19
-1.67738e-19
-5.14816e-20
-9.06859e-21
-7.39622e-22
3.96092e-24
6.19305e-27
5.49969e-28
2.22852e-27
1.17507e-26
3.76656e-26
8.04028e-26
1.19816e-25
1.34763e-25
1.23823e-25
2.8483e-25
4.48373e-25
-7.59567e-12
-1.51628e-11
-6.29309e-13
-2.77946e-14
-2.43634e-16
1.58881e-17
-2.55334e-19
-1.35969e-19
-3.64212e-20
-5.50116e-21
-3.87074e-22
3.17265e-24
2.07988e-27
4.55129e-28
1.88024e-27
8.48392e-27
2.72648e-26
6.75796e-26
1.2735e-25
1.87958e-25
2.40794e-25
3.04101e-25
3.71046e-25
1.07175e-34
1.71733e-34
1.90182e-32
7.02172e-31
1.41567e-29
2.04881e-28
2.46984e-27
2.81051e-26
3.03519e-25
2.73734e-24
2.00838e-23
1.2088e-22
6.29301e-22
3.35665e-21
1.66372e-20
5.68272e-20
6.07728e-20
8.25004e-22
2.21736e-22
3.14251e-34
3.53189e-33
1.10655e-30
5.17758e-29
1.06739e-27
1.5481e-26
1.88155e-25
2.15627e-24
2.27401e-23
2.01215e-22
1.4811e-21
9.16046e-21
4.73034e-20
1.99092e-19
5.91856e-19
9.27629e-19
7.66839e-19
2.26832e-19
8.0113e-22
1.79401e-32
8.96714e-31
2.94697e-29
1.23941e-27
3.12922e-26
4.89354e-25
6.20203e-24
7.25218e-23
7.67224e-22
6.81683e-21
5.06515e-20
3.17542e-19
1.67068e-18
7.22265e-18
2.37802e-17
4.62737e-17
4.68819e-17
1.88949e-17
2.21074e-19
9.46253e-31
4.12012e-29
1.01593e-27
1.95176e-26
6.18875e-25
1.03538e-23
1.35553e-22
1.61038e-21
1.70895e-20
1.52184e-19
1.13678e-18
7.18898e-18
3.83247e-17
1.68982e-16
5.89445e-16
1.32848e-15
1.51113e-15
8.5602e-16
2.23157e-17
3.30698e-29
1.09164e-27
2.50786e-26
4.17412e-25
9.51716e-24
1.70415e-22
2.27301e-21
2.71768e-20
2.87386e-19
2.549e-18
1.90347e-17
1.21054e-16
6.54994e-16
2.96405e-15
1.08723e-14
2.72896e-14
3.43615e-14
2.52197e-14
1.20735e-15
9.8631e-28
2.25231e-26
4.82271e-25
7.18901e-24
1.26168e-22
2.34755e-21
3.14031e-20
3.73574e-19
3.90784e-18
3.45358e-17
2.59953e-16
1.6945e-15
9.67452e-15
4.79724e-14
1.8559e-13
5.07734e-13
7.01609e-13
5.13437e-13
4.66862e-14
1.70103e-26
3.95494e-25
7.66212e-24
1.04476e-22
1.51309e-21
2.81425e-20
3.71224e-19
4.35367e-18
4.49029e-17
3.861e-16
2.77546e-15
1.69268e-14
8.81483e-14
3.94929e-13
1.53118e-12
4.41495e-12
7.22075e-12
6.044e-12
9.95683e-13
3.77458e-25
6.17564e-24
1.05406e-22
1.31505e-21
1.6988e-20
3.05167e-19
3.96025e-18
4.43581e-17
3.83733e-16
2.57982e-15
1.45721e-14
6.85692e-14
2.61106e-13
8.79022e-13
3.34359e-12
1.06801e-11
2.46106e-11
3.08474e-11
5.65204e-12
-4.42889e-11
-3.22901e-11
-4.19914e-13
-1.3413e-14
-3.79707e-17
2.1045e-18
-2.08248e-19
-8.66137e-20
-2.07869e-20
-2.9945e-21
-1.90891e-22
1.83197e-24
8.67264e-28
3.33864e-28
1.34198e-27
4.83757e-27
1.20245e-26
2.3741e-26
3.96051e-26
5.7777e-26
7.50374e-26
9.27945e-26
1.73928e-25
-8.24528e-11
-4.99594e-11
-3.25856e-13
-7.00529e-15
5.08807e-17
-3.23523e-38
-7.94806e-20
-2.67791e-20
-5.19487e-21
-6.56038e-22
-3.90248e-23
6.33628e-25
4.54335e-28
5.22102e-29
5.22102e-29
5.39415e-29
3.26254e-28
1.42481e-27
7.59354e-27
4.78741e-26
2.78455e-25
2.09866e-24
2.07925e-23
-1.15763e-10
-6.44614e-11
-2.76072e-13
-3.27998e-15
2.78541e-16
1.23367e-20
-1.62797e-20
-5.46164e-21
-8.03535e-22
-4.81913e-23
1.66281e-25
1.94074e-26
1.84818e-27
1.62201e-28
8.52291e-29
7.69289e-28
5.56726e-27
3.82597e-26
2.41802e-25
1.40751e-24
7.46137e-24
5.33714e-23
4.77448e-22
-1.41013e-10
-7.44943e-11
-2.45336e-13
-1.14135e-15
4.0686e-16
7.92732e-19
7.62296e-22
-7.50368e-22
-9.4103e-23
2.55425e-24
4.5628e-25
4.02258e-26
3.07947e-27
5.17504e-28
1.85745e-27
1.46658e-26
9.9945e-26
6.38717e-25
3.83456e-24
2.16303e-23
1.13608e-22
8.18472e-22
7.40392e-21
-1.57247e-10
-8.02099e-11
-2.24011e-13
-1.67504e-16
4.0686e-16
9.45802e-19
5.6932e-21
5.7515e-23
1.07501e-23
5.29201e-24
5.29953e-25
4.51321e-26
4.71832e-27
3.20192e-27
2.79515e-26
1.96861e-25
1.28833e-24
7.98191e-24
4.68745e-23
2.61686e-22
1.38845e-21
1.01569e-20
9.1766e-20
-1.65058e-10
-8.24071e-11
-2.0769e-13
2.00275e-16
3.27538e-16
3.95384e-19
6.80597e-21
3.25525e-22
3.9329e-23
4.73054e-24
4.37449e-25
3.99392e-26
8.75468e-27
3.96217e-26
3.05167e-25
2.06144e-24
1.31785e-23
8.01996e-23
4.65653e-22
2.59204e-21
1.39396e-20
1.0281e-19
9.11389e-19
-1.65616e-10
-8.20398e-11
-1.94363e-13
5.47755e-16
1.32488e-16
2.20309e-19
1.01573e-20
8.91628e-22
9.14473e-23
6.21352e-24
3.66183e-25
4.28232e-26
3.12492e-26
3.70185e-25
2.64486e-24
1.75054e-23
1.10188e-22
6.62863e-22
3.82074e-21
2.12396e-20
1.15614e-19
8.52833e-19
7.32334e-18
-1.60366e-10
-7.99772e-11
-1.82544e-13
9.30973e-16
3.23669e-17
2.5762e-19
2.52779e-20
3.16266e-21
3.00065e-22
1.94211e-23
9.44961e-25
8.79924e-26
3.26928e-25
2.749e-24
1.89371e-23
1.23763e-22
7.70335e-22
4.59422e-21
2.6322e-20
1.46102e-19
8.0321e-19
5.88458e-18
4.8519e-17
-1.50814e-10
-7.69259e-11
-1.75332e-13
1.73089e-15
1.89e-17
5.84077e-19
1.465e-19
3.16304e-20
5.83187e-21
8.36642e-22
8.31013e-23
6.52466e-24
1.7246e-24
1.63179e-23
1.15397e-22
7.43205e-22
4.58569e-21
2.71427e-20
1.54573e-19
8.55954e-19
4.74286e-18
3.42991e-17
2.69524e-16
-1.37961e-10
-7.34311e-11
-1.8223e-13
3.35202e-15
2.4512e-17
4.63096e-18
2.2905e-18
7.29947e-19
1.98694e-19
3.87881e-20
5.58729e-21
5.96078e-22
7.91818e-23
6.67505e-23
5.96e-22
3.85966e-21
2.35748e-20
1.38496e-19
7.83281e-19
4.3221e-18
2.41011e-17
1.71168e-16
1.26476e-15
-1.22932e-10
-6.99041e-11
-2.16e-13
6.03863e-15
7.5864e-17
4.51506e-17
2.4834e-17
8.35018e-18
2.64327e-18
6.1352e-19
1.10712e-19
1.56338e-20
1.95034e-21
5.86053e-22
2.48299e-21
1.74897e-20
1.05755e-19
6.15589e-19
3.45322e-18
1.89695e-17
1.06302e-16
7.35433e-16
5.02521e-15
-1.06647e-10
-6.6653e-11
-2.8749e-13
9.44856e-15
3.82801e-16
3.29392e-16
1.67668e-16
6.10299e-17
2.23974e-17
6.54024e-18
1.61564e-18
3.41985e-19
6.19948e-20
1.45778e-20
1.06324e-20
6.68509e-20
4.16236e-19
2.39625e-18
1.33145e-17
7.27714e-17
4.0815e-16
2.72284e-15
1.71436e-14
-8.93279e-11
-6.39064e-11
-4.01388e-13
1.31845e-14
1.70087e-15
1.6972e-15
8.53217e-16
3.54469e-16
1.57595e-16
5.83343e-17
1.84204e-17
4.94859e-18
1.10186e-18
2.33276e-19
9.78231e-20
2.16266e-19
1.41828e-18
8.16577e-18
4.48823e-17
2.43771e-16
1.3609e-15
8.68431e-15
5.04298e-14
-7.17145e-11
-6.18214e-11
-5.54553e-13
1.83685e-14
6.22499e-15
6.63488e-15
3.60521e-15
1.75715e-15
9.12418e-16
3.82754e-16
1.32792e-16
3.89399e-17
9.557e-18
2.111e-18
7.34864e-19
7.18055e-19
4.17735e-18
2.43742e-17
1.32633e-16
7.14531e-16
3.94556e-15
2.39549e-14
1.2915e-13
-5.29264e-11
-6.04875e-11
-7.36685e-13
2.85738e-14
1.94577e-14
2.16957e-14
1.32726e-14
7.45167e-15
4.2201e-15
1.84599e-15
6.70595e-16
2.12823e-16
5.8604e-17
1.44462e-17
4.45031e-18
2.94354e-18
1.08393e-17
6.42276e-17
3.47038e-16
1.85158e-15
1.00711e-14
5.79798e-14
2.89578e-13
-3.42254e-11
-5.98973e-11
-9.31784e-13
5.04189e-14
5.56948e-14
6.23951e-14
4.39705e-14
2.71632e-14
1.59492e-14
7.09811e-15
2.75948e-15
9.80789e-16
3.06811e-16
8.36969e-17
2.48108e-17
1.45058e-17
2.79129e-17
1.52879e-16
8.17097e-16
4.32019e-15
2.3102e-14
1.25064e-13
5.69855e-13
-1.65285e-11
-5.98655e-11
-1.11715e-12
9.64226e-14
1.43578e-13
1.62095e-13
1.33581e-13
8.61172e-14
5.10057e-14
2.35222e-14
1.00318e-14
3.9704e-15
1.35197e-15
3.99076e-16
1.34991e-16
8.83775e-17
1.08785e-16
4.00854e-16
1.99648e-15
1.05862e-14
5.71303e-14
2.94174e-13
1.20348e-12
7.69559e-06
-5.99567e-11
-1.26434e-12
1.87856e-13
3.36173e-13
3.87696e-13
3.68749e-13
2.43058e-13
1.42657e-13
7.01411e-14
3.27047e-14
1.39096e-14
5.12359e-15
1.88945e-15
9.88208e-16
8.29012e-16
8.76907e-16
1.61242e-15
5.87842e-15
3.06706e-14
1.75385e-13
9.26172e-13
3.5605e-12
0.00181083
-5.9575e-11
-1.34068e-12
3.5419e-13
7.24072e-13
8.77441e-13
9.00678e-13
6.25627e-13
3.61666e-13
1.93096e-13
9.90345e-14
4.82329e-14
2.51324e-14
1.69691e-14
1.42494e-14
1.30228e-14
1.24784e-14
1.30786e-14
2.17953e-14
8.41195e-14
4.92479e-13
2.79623e-12
1.12125e-11
0.00449306
-5.82766e-11
-1.31416e-12
6.37542e-13
1.44763e-12
1.85281e-12
1.97473e-12
1.49091e-12
8.63017e-13
5.06087e-13
3.06215e-13
2.18184e-13
1.98915e-13
2.17434e-13
2.36214e-13
2.34513e-13
1.84826e-13
1.62418e-13
1.5718e-13
2.27303e-13
8.37342e-13
4.65958e-12
1.92318e-11
0.00465059
-5.5924e-11
-1.16002e-12
1.09179e-12
2.70202e-12
3.63407e-12
3.98548e-12
3.336e-12
1.98964e-12
1.33013e-12
1.06672e-12
1.02992e-12
1.40699e-12
1.98372e-12
2.37331e-12
2.49911e-12
2.12281e-12
1.64331e-12
1.36003e-12
1.25124e-12
1.5341e-12
4.29886e-12
1.66952e-11
0.00470706
-5.25753e-11
-8.70049e-13
1.77757e-12
4.7399e-12
6.76017e-12
7.67946e-12
7.19732e-12
4.65861e-12
3.66131e-12
3.50943e-12
4.31411e-12
7.20238e-12
1.11777e-11
1.41378e-11
1.53078e-11
1.46841e-11
1.13346e-11
9.1817e-12
7.24462e-12
6.18604e-12
6.34282e-12
1.15341e-11
0.00478031
-4.83422e-11
-4.63661e-13
2.72114e-12
7.87386e-12
1.21482e-11
1.47602e-11
1.50596e-11
1.10574e-11
9.81651e-12
1.04156e-11
1.43668e-11
2.58089e-11
4.25381e-11
5.58163e-11
6.23368e-11
6.3168e-11
5.0575e-11
4.12403e-11
3.31555e-11
2.59181e-11
2.0437e-11
1.84455e-11
0.00485244
-4.33492e-11
-4.69429e-14
3.90177e-12
1.25461e-11
2.13463e-11
2.82099e-11
3.03306e-11
2.53882e-11
2.36995e-11
2.70957e-11
3.78378e-11
6.08781e-11
1.04715e-10
1.48946e-10
1.75828e-10
1.8406e-10
1.5941e-10
1.29185e-10
1.0642e-10
8.35503e-11
6.59896e-11
5.15056e-11
0.00489726
-3.77226e-11
3.30243e-14
5.67957e-12
1.93038e-11
3.65733e-11
5.2237e-11
5.92827e-11
5.84778e-11
6.89107e-11
9.09947e-11
9.14024e-11
1.38188e-10
2.2238e-10
3.32183e-10
4.14478e-10
4.75807e-10
5.21894e-10
3.78123e-10
2.65449e-10
2.08825e-10
1.60893e-10
1.26807e-10
0.00492595
-2.98339e-11
6.6561e-14
7.91157e-12
2.85575e-11
6.00432e-11
9.2157e-11
1.16132e-10
1.47169e-10
2.77407e-10
4.20992e-10
4.03703e-10
3.61669e-10
4.07892e-10
5.05614e-10
6.20448e-10
6.94818e-10
6.9482e-10
6.9482e-10
6.52467e-10
5.41184e-10
3.98336e-10
2.82406e-10
0.00493817
8.19437e-08
1.31706e-13
9.32123e-12
3.96525e-11
9.23893e-11
1.56058e-10
2.21908e-10
4.00408e-10
6.4252e-10
6.62942e-10
6.59069e-10
6.56545e-10
6.09e-10
5.60371e-10
5.71031e-10
5.64771e-10
5.64783e-10
6.16287e-10
7.11614e-10
7.11875e-10
6.39533e-10
5.08038e-10
0.00493167
2.34092e-05
-8.99544e-12
7.25544e-12
5.13671e-11
1.35727e-10
2.46691e-10
4.08211e-10
6.73132e-10
7.29227e-10
6.56159e-10
6.32649e-10
6.27254e-10
6.18298e-10
5.71604e-10
5.64771e-10
5.64771e-10
5.64771e-10
5.60685e-10
5.5241e-10
5.42946e-10
5.43144e-10
4.51239e-10
0.00398141
3.9893e-05
1.49847e-09
4.62329e-11
5.68706e-11
1.77956e-10
3.56558e-10
6.18409e-10
7.29154e-10
7.31804e-10
7.99879e-10
1.02529e-09
6.2197e-10
5.66413e-10
5.64857e-10
5.65045e-10
4.64681e-08
1.00835e-07
3.65088e-08
7.5479e-10
5.516e-10
7.51662e-10
3.33231e-09
0.000613741
1.19109e-05
2.79231e-09
4.29047e-11
6.90439e-11
2.24327e-10
4.96289e-10
6.34443e-10
5.25244e-10
6.43098e-10
5.52338e-09
1.32215e-08
1.24895e-08
3.51871e-09
5.66413e-10
2.01781e-08
1.36185e-07
1.38514e-07
1.41561e-07
1.44409e-07
6.65076e-08
1.70759e-09
3.1949e-09
0.000169023
5.78505e-05
3.58775e-08
1.00246e-10
1.20667e-10
2.64078e-10
5.11315e-10
6.21844e-10
3.63048e-10
1.91297e-10
4.09192e-09
1.47709e-08
1.47709e-08
1.47709e-08
7.63414e-09
9.80052e-09
1.03902e-08
6.3051e-08
1.44607e-07
1.44607e-07
1.44607e-07
8.30347e-08
4.52508e-09
0.00031316
0.000271415
9.04991e-07
5.40676e-10
2.07785e-10
2.66862e-10
3.67556e-10
3.43099e-10
1.96573e-10
1.75284e-10
5.43144e-10
2.44256e-09
5.94937e-09
5.65887e-09
4.72164e-09
4.93804e-09
4.92646e-09
4.94886e-09
8.08588e-09
2.84504e-08
3.46758e-08
3.40559e-08
7.48055e-08
0.000339278
0.000339278
1.07769e-06
1.4633e-09
4.25016e-10
5.24586e-10
2.61804e-10
1.76263e-10
1.74413e-10
1.76003e-10
1.75053e-10
1.83477e-10
2.3025e-10
3.28525e-10
4.31636e-10
8.95241e-06
1.04702e-05
3.22046e-06
2.97295e-09
2.31513e-08
3.45247e-08
3.31909e-08
3.37265e-08
0.000292406
0.000322725
2.63911e-07
2.48378e-09
3.76738e-10
3.46207e-10
3.07249e-10
9.78514e-09
4.96178e-08
8.08241e-08
6.8699e-08
8.49163e-09
3.28511e-10
4.33534e-10
1.10816e-09
4.93995e-06
2.1253e-05
2.18726e-05
1.99389e-05
4.6462e-06
3.72424e-08
3.37179e-08
3.43579e-08
0.000164828
0.000180415
2.21427e-09
4.54259e-10
4.10901e-10
3.76738e-10
5.84784e-10
6.8724e-08
5.22186e-07
1.22269e-06
1.45907e-06
1.18551e-06
9.86615e-07
1.85767e-06
3.06662e-06
1.16753e-05
2.18726e-05
2.20285e-05
2.20285e-05
2.20285e-05
9.54994e-06
2.2646e-07
6.86623e-08
1.53777e-05
3.24543e-06
8.66467e-09
2.24217e-09
3.8906e-09
2.89113e-07
1.11673e-06
8.16574e-06
2.40341e-05
3.93348e-05
5.30257e-05
6.27023e-05
7.45046e-05
7.50001e-05
7.50263e-05
6.83845e-05
1.12004e-05
2.65014e-06
8.70147e-06
1.17943e-05
5.921e-06
1.67879e-07
1.58257e-08
6.74639e-06
4.81699e-07
1.25614e-07
8.61391e-09
2.508e-06
1.63101e-05
4.09965e-05
0.00017216
0.000514532
0.000981818
0.00107426
0.000567562
3.02865e-05
1.01878e-05
5.25694e-06
2.33124e-06
1.3452e-06
1.0183e-06
7.26862e-07
4.44139e-07
1.77889e-07
1.65973e-08
-2.80137e-12
8.91479e-06
5.58752e-06
4.14359e-06
3.69584e-06
8.45543e-05
0.000302485
0.000769643
0.00306916
0.00528437
0.00477695
0.00276789
0.000710491
0.000542107
0.00142104
1.03369e-05
4.51466e-06
2.18783e-06
1.24572e-06
6.76486e-07
4.17592e-07
3.2146e-07
1.18308e-07
0.000858166
0.00772157
0.0058427
0.00179916
0.000154861
0.000396475
0.0290781
0.156925
0.266019
0.255948
0.241561
0.253978
0.294915
0.338815
0.379919
0.471009
0.64053
0.735713
0.721926
0.684595
0.646109
0.640304
0.658186
0.695869
0.012706
0.00624333
0.0178937
0.0757011
0.149828
0.306626
0.665908
0.919514
0.931005
0.935792
0.939007
0.940357
0.95628
0.957926
0.957924
0.957924
0.957702
0.957136
0.956104
0.954202
0.951499
0.948573
0.945871
0.203493
0.456535
0.463556
0.46433
0.459688
0.43806
0.423251
0.443492
0.489786
0.511039
0.486809
0.393721
0.319369
0.329738
0.372033
0.470707
0.612823
0.725066
0.784088
0.814537
0.840241
0.867883
0.890653
0.086294
0.0784678
0.0757341
0.0274156
-4.74419e-08
-5.72587e-10
-7.32864e-12
-8.62955e-14
-8.14038e-16
-6.16836e-18
-5.11092e-20
-5.51101e-22
0
-2.12024e-33
-2.1884e-26
0.00010978
0.00273127
0.0106449
0.0245539
0.0367532
0.0433795
0.0545031
0.0603676
7.76615e-25
6.16981e-24
2.03195e-23
2.51089e-23
7.86384e-23
3.11273e-22
3.51548e-22
7.83011e-23
1.72757e-21
6.5923e-21
7.36468e-21
2.13693e-21
2.72766e-20
1.02686e-19
1.15161e-19
4.5072e-20
3.39669e-19
1.22557e-18
1.36234e-18
6.86069e-19
3.34979e-18
1.1435e-17
1.25431e-17
7.83767e-18
2.64886e-17
8.52241e-17
9.60165e-17
6.95133e-17
1.718e-16
5.22821e-16
6.18861e-16
4.91086e-16
9.29579e-16
2.6521e-15
3.28338e-15
2.80862e-15
4.1707e-15
1.07881e-14
1.4387e-14
1.31542e-14
1.5663e-14
3.76122e-14
5.27468e-14
5.09155e-14
5.06711e-14
1.14402e-13
1.65312e-13
1.70815e-13
1.41923e-13
3.05302e-13
4.5088e-13
5.14215e-13
3.48798e-13
7.18077e-13
1.04247e-12
1.27015e-12
7.4735e-13
1.47353e-12
2.09817e-12
2.77679e-12
1.38197e-12
2.56846e-12
3.91716e-12
6.54521e-12
2.72515e-12
5.16371e-12
9.36145e-12
1.72002e-11
7.41591e-12
1.25817e-11
2.04132e-11
3.44051e-11
2.27598e-11
3.16223e-11
3.57192e-11
4.01976e-11
4.01937e-11
5.67794e-11
6.63842e-11
7.16826e-11
3.63186e-11
5.30313e-11
6.40798e-11
7.92949e-11
2.24553e-11
3.69424e-11
5.48241e-11
8.22674e-11
2.13046e-11
2.67963e-11
3.48257e-11
5.07348e-11
4.34429e-11
4.22925e-11
4.37548e-11
4.94465e-11
1.08215e-10
9.79061e-11
8.959e-11
8.4919e-11
2.18397e-10
1.94023e-10
1.76281e-10
1.6359e-10
4.1497e-10
3.63159e-10
3.17967e-10
2.7996e-10
4.16692e-10
4.25893e-10
4.62945e-10
4.02585e-10
6.31665e-09
6.48627e-09
6.4984e-09
6.49087e-09
4.94509e-09
5.01804e-09
5.86124e-09
6.43173e-09
3.61239e-09
3.30384e-09
8.27546e-10
4.99845e-10
2.61403e-07
2.61707e-07
2.0899e-07
8.79858e-10
3.64301e-08
6.37125e-08
6.03288e-08
2.15044e-06
3.68274e-08
5.24063e-08
1.56127e-07
2.53035e-06
3.2605e-08
5.83839e-08
1.65154e-07
2.76916e-07
-3.53586e-10
2.43827e-10
1.72307e-09
0
-8.25719e-08
-2.55861e-07
-5.30209e-07
-9.67237e-07
0.0063226
0.011423
0.0138324
0.0151708
0.728383
0.738852
0.738221
0.736098
0.94432
0.947432
0.951499
0.956011
0.907496
0.914944
0.919492
0.924507
0.0680909
0.0724065
0.0755199
0.0769032
5.86975e-24
1.18903e-22
2.49894e-21
3.80327e-20
4.74487e-19
5.2025e-18
5.26016e-17
5.08321e-16
4.43197e-15
3.31785e-14
2.15247e-13
1.24046e-12
5.87674e-12
1.77682e-11
3.65876e-11
9.63944e-11
2.27369e-10
3.29629e-10
8.46923e-11
1.25942e-21
1.17626e-20
1.13931e-19
1.1535e-18
1.13814e-17
1.06788e-16
9.63288e-16
8.43245e-15
6.76946e-14
4.78361e-13
3.01859e-12
1.52473e-11
4.88706e-11
1.20061e-10
3.2111e-10
8.46692e-10
1.90078e-09
2.9867e-09
1.05362e-09
4.32892e-20
3.13037e-19
2.56015e-18
2.21157e-17
1.92018e-16
1.62955e-15
1.34881e-14
1.08595e-13
8.13701e-13
5.51441e-12
2.89992e-11
9.4606e-11
2.40743e-10
8.08718e-10
3.05288e-09
9.53419e-09
2.39179e-08
3.97243e-08
1.90804e-08
8.38932e-19
5.50227e-18
4.09606e-17
3.19023e-16
2.51262e-15
1.9547e-14
1.49091e-13
1.1121e-12
7.85386e-12
4.28722e-11
1.37667e-10
3.30795e-10
1.36109e-09
6.11696e-09
2.51229e-08
8.73751e-08
2.39525e-07
4.12901e-07
2.65549e-07
1.11745e-17
6.98841e-17
4.88591e-16
3.52943e-15
2.57182e-14
1.85601e-13
1.32058e-12
9.25196e-12
4.98429e-11
1.62372e-10
4.59423e-10
2.07236e-09
1.02183e-08
4.76563e-08
1.96677e-07
6.88809e-07
1.94016e-06
3.42324e-06
2.91742e-06
1.10829e-16
6.7153e-16
4.48125e-15
3.05046e-14
2.08457e-13
1.42079e-12
9.52409e-12
4.81732e-11
1.60217e-10
5.39413e-10
2.5394e-09
1.328e-08
6.74547e-08
3.1217e-07
1.28021e-06
4.48117e-06
1.27468e-05
2.34331e-05
2.56333e-05
8.56268e-16
5.05719e-15
3.2433e-14
2.10225e-13
1.37492e-12
8.96886e-12
4.23054e-11
1.33719e-10
4.91682e-10
2.35804e-09
1.35475e-08
7.38262e-08
3.74269e-07
1.73702e-06
6.95022e-06
2.42085e-05
6.78999e-05
0.00013512
0.000179881
5.2969e-15
3.05686e-14
1.89198e-13
1.18759e-12
7.49615e-12
3.55596e-11
1.1397e-10
3.90278e-10
1.79008e-09
1.03876e-08
5.77206e-08
3.09659e-07
1.55411e-06
7.33793e-06
3.30936e-05
0.00010954
0.000305945
0.00066722
0.000997941
2.68187e-14
1.51145e-13
9.12733e-13
5.58309e-12
2.81057e-11
9.3415e-11
2.69322e-10
1.15377e-09
6.48486e-09
3.63062e-08
1.95779e-07
1.0022e-06
4.84432e-06
2.17404e-05
0.000157876
0.000768585
0.00327139
0.00935247
0.00439698
1.13359e-13
6.2555e-13
3.70891e-12
2.02758e-11
6.89432e-11
1.66339e-10
6.62892e-10
3.20471e-09
1.79688e-08
9.64258e-08
4.95715e-07
2.3981e-06
1.11614e-05
6.40093e-05
0.00054385
0.00470956
0.0151506
0.0216587
0.0138625
4.10171e-13
2.21893e-12
1.21627e-11
5.12487e-11
1.38911e-10
3.20769e-10
1.28235e-09
6.98038e-09
3.72212e-08
1.90234e-07
9.21402e-07
4.22613e-06
2.08354e-05
0.00020054
0.00158618
0.00737513
0.015813
0.0209481
0.170475
1.29414e-12
6.64054e-12
3.10633e-11
1.02554e-10
2.35866e-10
5.37312e-10
2.11744e-09
1.13553e-08
5.79276e-08
2.80025e-07
1.27706e-06
6.2814e-06
3.80845e-05
0.000468541
0.00223058
0.00207351
0.000277614
0.00949766
0.630009
3.53368e-12
1.64929e-11
6.387e-11
1.71268e-10
3.4208e-10
7.37614e-10
2.8409e-09
1.46191e-08
7.15055e-08
3.29468e-07
1.65594e-06
9.74039e-06
9.53572e-05
0.000459451
0.000246859
1.5199e-07
1.56642e-07
0.00698082
0.753361
8.3847e-12
3.39832e-11
1.08381e-10
2.44664e-10
4.36756e-10
8.7787e-10
3.24242e-09
1.61321e-08
7.66395e-08
3.45142e-07
1.98363e-06
2.94134e-05
8.29358e-05
4.1148e-06
1.41282e-07
1.44772e-07
1.5199e-07
0.00438374
0.753361
1.76395e-11
6.11832e-11
1.62623e-10
3.05868e-10
4.76963e-10
9.53295e-10
3.48936e-09
1.73809e-08
7.19187e-08
4.76163e-07
1.07346e-05
2.06564e-05
1.7009e-07
1.43455e-07
1.38891e-07
1.68101e-07
1.58136e-07
0.00146785
0.753361
3.04895e-11
8.41445e-11
1.71685e-10
2.72063e-10
4.19891e-10
1.17483e-09
5.93473e-09
2.70299e-08
1.42397e-07
7.57176e-06
1.70949e-05
1.48782e-06
1.54955e-07
1.37948e-07
1.3948e-07
1.92096e-07
1.61939e-07
0.00014866
0.742925
3.88679e-11
6.66907e-11
9.1823e-11
1.49126e-10
3.48628e-10
9.03959e-10
5.05787e-09
2.58681e-08
1.40099e-07
7.24272e-07
2.86303e-05
2.909e-07
1.70001e-07
1.31094e-07
1.30493e-07
1.93065e-07
1.81187e-07
1.75679e-07
0.724149
5.38315e-11
6.94889e-11
1.33995e-10
3.20179e-10
9.02096e-10
4.43681e-09
2.40093e-08
1.21465e-07
0.000182201
0.0004815
5.36227e-05
6.89719e-07
2.85131e-07
1.86882e-07
1.23231e-07
1.8867e-07
1.46119e-07
1.38349e-07
0.759808
9.9492e-11
2.13297e-10
1.18743e-09
9.18765e-09
7.15055e-08
5.4358e-07
3.31541e-06
0.000275809
0.00144187
0.00127677
0.00011769
1.98084e-06
1.69572e-06
1.14523e-06
1.16581e-07
7.02962e-08
8.31244e-08
1.04375e-07
0.858661
1.39373e-10
3.17813e-10
2.01782e-09
1.51484e-08
1.30241e-07
1.21328e-06
3.76126e-05
0.00099881
0.00144458
0.00144438
0.0011859
6.87766e-05
6.43304e-06
1.06937e-06
8.72665e-08
5.7072e-08
5.86603e-08
0.000188155
0.911055
1.93683e-10
3.31809e-10
3.48841e-09
2.93493e-08
2.19525e-07
1.43374e-06
0.000273851
0.00144439
0.00144439
0.00144439
0.00144438
0.000330375
5.66155e-06
1.85762e-07
4.35371e-08
5.49033e-08
5.65142e-08
0.00550199
0.93327
1.8585e-10
3.11471e-10
4.0732e-09
4.53748e-08
5.13453e-07
5.56469e-06
0.000158209
0.00129337
0.00144448
0.00144438
0.00140179
0.000217358
5.25011e-07
4.20091e-08
2.49953e-08
4.08167e-08
5.43008e-08
0.0275979
0.951921
1.17446e-10
2.10633e-10
1.98603e-09
2.55455e-08
3.39728e-07
3.64355e-06
2.96867e-05
0.00015508
0.0007024
0.00114798
0.000135684
-1.8284e-09
1.73283e-09
3.09927e-09
1.39024e-08
2.49778e-08
4.3169e-08
0.118749
0.970753
7.23695e-11
1.20534e-10
3.62522e-10
4.09138e-09
5.82681e-08
4.76004e-07
1.0077e-07
5.41064e-07
1.20194e-07
1.28684e-08
1.90823e-09
5.31361e-10
9.16178e-10
2.51687e-09
3.96728e-09
1.38636e-08
6.94022e-08
0.471392
0.98344
8.73292e-11
1.06747e-10
1.3883e-10
1.60014e-10
4.57268e-10
3.12103e-09
1.37056e-08
1.93116e-08
9.1302e-08
5.17407e-10
4.00299e-10
5.19001e-10
7.08408e-10
7.93184e-10
1.71954e-09
1.70174e-08
1.76631e-07
0.783078
0.988932
1.50638e-10
1.4167e-10
1.54665e-10
1.67658e-10
1.80293e-10
2.90562e-10
4.90931e-10
3.87576e-10
2.82194e-10
3.37955e-10
4.37112e-10
4.60942e-10
4.9167e-10
8.21193e-10
6.44917e-09
2.61824e-08
1.87011e-07
0.844151
0.991395
2.40354e-10
2.14554e-10
2.11589e-10
2.20291e-10
2.31911e-10
2.4764e-10
3.20829e-10
3.6281e-10
3.5875e-10
3.67628e-10
3.86769e-10
4.63415e-10
6.65735e-10
2.47263e-09
1.5915e-08
1.63557e-07
-6.59825e-06
0.81592
0.99317
3.04375e-10
3.1209e-10
2.83436e-10
2.79629e-10
2.90586e-10
3.14914e-10
3.29001e-10
3.46701e-10
3.55635e-10
3.66142e-10
4.35695e-10
8.04024e-10
1.6363e-09
9.2439e-09
8.33696e-08
3.37507e-07
0.00014415
0.792755
0.99429
4.3596e-09
9.50161e-10
4.32706e-10
3.63122e-10
3.44016e-10
3.47026e-10
3.59313e-10
3.72955e-10
3.73191e-10
4.22039e-10
8.06133e-10
1.71913e-09
3.86272e-09
3.95844e-08
3.79503e-07
1.80656e-06
0.00267223
0.821122
0.994661
4.08861e-09
8.85004e-10
3.42029e-10
3.33888e-10
3.32481e-10
3.32141e-10
3.32094e-10
3.3218e-10
3.91959e-10
8.25398e-10
2.99824e-09
6.15034e-09
1.71203e-08
1.04131e-07
1.40761e-06
8.77621e-06
0.016843
0.908771
0.994714
3.96489e-10
3.59493e-10
3.45843e-10
3.36262e-10
3.32361e-10
3.32102e-10
3.32075e-10
3.32075e-10
9.82701e-10
5.38098e-09
1.90507e-08
2.59281e-08
9.52297e-08
4.73007e-07
4.8924e-06
3.01598e-05
0.101313
0.959522
0.994734
5.40239e-10
3.96491e-10
2.29008e-07
4.96445e-07
4.63447e-07
6.43415e-08
3.32102e-10
1.27532e-07
2.70774e-08
1.00998e-07
1.66716e-07
1.21035e-07
4.9612e-07
2.40775e-06
1.89452e-05
0.000105067
0.351852
0.981292
0.994707
3.04534e-06
2.30534e-06
7.21808e-07
4.35545e-07
3.64042e-07
6.39738e-07
1.47706e-05
1.92307e-05
1.08672e-05
1.24119e-05
1.00827e-05
1.03956e-06
2.46766e-06
1.20315e-05
7.74286e-05
0.000388903
0.589921
0.992611
0.994971
3.13072e-06
3.13484e-06
3.13994e-06
1.61202e-06
4.54522e-07
3.85666e-07
1.48526e-05
2.13216e-05
2.1321e-05
2.13217e-05
1.97002e-05
4.91925e-06
1.07977e-05
5.75044e-05
0.000334206
0.00154745
0.713924
0.99551
0.995736
1.48468e-06
3.13994e-06
3.14093e-06
3.14093e-06
3.14093e-06
2.39246e-06
2.43895e-06
2.51168e-06
3.90913e-06
8.91843e-06
1.11423e-05
1.29612e-05
7.20151e-05
0.000327876
0.00148999
0.0200742
0.844619
0.995757
0.995948
1.04736e-08
3.17923e-07
1.18125e-06
1.96121e-06
1.8683e-06
1.32263e-06
6.23603e-07
2.68889e-07
-3.34048e-09
3.5694e-08
5.78837e-06
4.21819e-05
0.000400751
0.0016712
0.00681005
0.543509
0.978172
0.995935
0.995969
-3.44131e-06
-6.99163e-06
-1.07044e-05
-1.37604e-05
-1.56374e-05
-1.61976e-05
-1.56369e-05
-1.42965e-05
-1.25669e-05
-7.33146e-06
0.000100634
0.000597434
0.00232107
0.0390262
0.353262
0.950392
0.995414
0.995969
0.995912
0.0177296
0.0223882
0.027984
0.0340842
0.0407337
0.0482725
0.0577837
0.0704347
0.0879368
0.113348
0.150843
0.21173
0.356521
0.705271
0.994906
0.995661
0.995937
0.995917
0.995903
0.735482
0.739662
0.747005
0.75586
0.765322
0.775305
0.786962
0.801583
0.820192
0.843336
0.881171
0.966533
0.992488
0.994627
0.995293
0.995768
0.995922
0.995936
0.995903
0.96009
0.964235
0.96837
0.972084
0.975528
0.978728
0.981951
0.984962
0.986955
0.987737
0.987927
0.98836
0.989016
0.991118
0.993035
0.995315
0.995802
0.995886
0.995903
0.931135
0.944383
0.949678
0.949754
0.947702
0.948042
0.94627
0.944284
0.94676
0.952014
0.95889
0.957817
0.939376
0.930812
0.925973
0.923855
0.939778
0.995839
0.99589
0.0804702
0.0927913
0.097382
0.0937837
0.0906997
0.097221
0.101947
0.0974838
0.103767
0.111162
0.132849
0.145939
0.142609
0.143436
0.164649
0.236095
0.392377
0.5925
0.684006
)
;

boundaryField
{
    leftWall
    {
        type            zeroGradient;
    }
    rightWall
    {
        type            zeroGradient;
    }
    lowerWall
    {
        type            zeroGradient;
    }
    atmosphere
    {
        type            inletOutlet;
        inletValue      uniform 0;
        value           nonuniform List<scalar> 
46
(
0
0
0
0
0
0
0
0
0
0
0
0
0
0
0
0.00010978
0.00273127
0
0.0245539
0.0367532
0
0.0545031
0
0.0680909
0.0724065
0
0
0
0.0927913
0.097382
0
0
0.097221
0.101947
0
0.103767
0
0.132849
0.145939
0.142609
0.143436
0.164649
0.236095
0.392377
0.5925
0
)
;
    }
    defaultFaces
    {
        type            empty;
    }
}


// ************************************************************************* //
