/*--------------------------------*- C++ -*----------------------------------*\
  =========                 |
  \\      /  F ield         | OpenFOAM: The Open Source CFD Toolbox
   \\    /   O peration     | Website:  https://openfoam.org
    \\  /    A nd           | Version:  9
     \\/     M anipulation  |
\*---------------------------------------------------------------------------*/
FoamFile
{
    format      ascii;
    class       surfaceScalarField;
    location    "0.6";
    object      alphaPhi0.water;
}
// * * * * * * * * * * * * * * * * * * * * * * * * * * * * * * * * * * * * * //

dimensions      [0 3 -1 0 0 0 0];

internalField   nonuniform List<scalar> 
4432
(
-4.87058e-06
4.87058e-06
-7.29661e-06
2.42603e-06
-6.62093e-06
-6.75671e-07
-4.7506e-06
-1.87034e-06
-2.6746e-06
-2.076e-06
-7.4485e-07
-1.92975e-06
9.49959e-07
-1.69481e-06
2.39079e-06
-1.44083e-06
3.60512e-06
-1.21434e-06
4.63025e-06
-1.02513e-06
5.49872e-06
-8.68472e-07
6.21894e-06
-7.2022e-07
6.76265e-06
-5.43705e-07
7.06913e-06
-3.06482e-07
7.02059e-06
4.85365e-08
6.43303e-06
5.87565e-07
5.0885e-06
1.34453e-06
2.73525e-06
2.35325e-06
-7.04751e-07
3.44e-06
-5.22316e-06
4.72357e-06
-9.46418e-06
4.20564e-06
-9.54008e-06
4.38302e-08
-9.8296e-06
-3.85779e-06
8.72837e-06
-4.26545e-06
2.83369e-06
-3.18623e-06
-1.75489e-06
-1.55656e-06
-3.50001e-06
1.61106e-07
-3.79367e-06
1.7582e-06
-3.52684e-06
3.14705e-06
-3.08366e-06
4.31885e-06
-2.61262e-06
5.28723e-06
-2.18272e-06
6.07908e-06
-1.81697e-06
6.71939e-06
-1.50878e-06
7.21395e-06
-1.21478e-06
7.53984e-06
-8.69598e-07
7.65699e-06
-4.23625e-07
7.52057e-06
1.84953e-07
7.06633e-06
1.04181e-06
6.15378e-06
2.25709e-06
4.59098e-06
3.91605e-06
2.17712e-06
5.85385e-06
-7.6514e-07
7.69633e-06
-3.51976e-06
7.24137e-06
-4.83568e-06
1.27116e-06
-1.46925e-05
-2.11017e-06
1.08385e-05
-1.7003e-06
2.42382e-06
-5.8442e-07
-2.87077e-06
8.06336e-07
-4.89076e-06
2.2142e-06
-5.20154e-06
3.49788e-06
-4.81052e-06
4.60541e-06
-4.19119e-06
5.52867e-06
-3.53589e-06
6.27656e-06
-2.93061e-06
6.86844e-06
-2.40886e-06
7.3242e-06
-1.96453e-06
7.64813e-06
-1.53872e-06
7.81996e-06
-1.04143e-06
7.81032e-06
-4.1398e-07
7.59953e-06
3.95734e-07
7.16615e-06
1.4752e-06
6.46678e-06
2.95645e-06
5.43502e-06
4.94782e-06
4.02312e-06
7.26575e-06
2.40798e-06
9.31146e-06
6.14248e-07
9.05603e-06
-3.69698e-07
2.20427e-06
-1.50895e-05
-3.65449e-07
1.1204e-05
5.82168e-07
1.47621e-06
1.71134e-06
-3.99994e-06
2.88876e-06
-6.06819e-06
3.98741e-06
-6.30019e-06
4.95967e-06
-5.78279e-06
5.78934e-06
-5.02086e-06
6.47139e-06
-4.21794e-06
7.00817e-06
-3.46739e-06
7.41185e-06
-2.81254e-06
7.69904e-06
-2.25172e-06
7.87405e-06
-1.71372e-06
7.91772e-06
-1.0851e-06
7.81013e-06
-3.06387e-07
7.54939e-06
6.56467e-07
7.14741e-06
1.87718e-06
6.6158e-06
3.48806e-06
5.95709e-06
5.60654e-06
5.20087e-06
8.02196e-06
4.47243e-06
1.00399e-05
3.63645e-06
9.89201e-06
2.22605e-06
3.64511e-06
-1.28685e-05
1.47975e-06
9.72424e-06
2.71122e-06
2.4474e-07
3.84689e-06
-5.13561e-06
4.77688e-06
-6.99818e-06
5.55119e-06
-7.0745e-06
6.21193e-06
-6.44353e-06
6.77069e-06
-5.57963e-06
7.22035e-06
-4.6676e-06
7.55406e-06
-3.80109e-06
7.77684e-06
-3.03532e-06
7.90411e-06
-2.37899e-06
7.94226e-06
-1.75187e-06
7.87225e-06
-1.01509e-06
7.68157e-06
-1.15709e-07
7.3839e-06
9.54137e-07
7.01813e-06
2.24295e-06
6.63115e-06
3.87504e-06
6.25725e-06
5.98044e-06
5.95482e-06
8.32439e-06
5.79447e-06
1.02003e-05
5.509e-06
1.01775e-05
4.14635e-06
5.00776e-06
-8.72767e-06
2.9689e-06
6.75534e-06
4.72793e-06
-1.51429e-06
5.80479e-06
-6.21247e-06
6.43985e-06
-7.63324e-06
6.87584e-06
-7.51049e-06
7.23536e-06
-6.80305e-06
7.54088e-06
-5.88514e-06
7.7746e-06
-4.90132e-06
7.91773e-06
-3.94422e-06
7.96845e-06
-3.08605e-06
7.94355e-06
-2.35408e-06
7.85438e-06
-1.6627e-06
7.68089e-06
-8.41598e-07
7.41663e-06
1.48551e-07
7.0887e-06
1.28206e-06
6.75869e-06
2.57297e-06
6.49786e-06
4.13586e-06
6.34898e-06
6.12932e-06
6.37457e-06
8.29879e-06
6.61349e-06
9.96134e-06
6.74625e-06
1.00447e-05
5.48657e-06
6.26744e-06
-3.24617e-06
4.13093e-06
2.6244e-06
6.52478e-06
-3.90814e-06
7.4971e-06
-7.18499e-06
7.79212e-06
-7.92823e-06
7.8984e-06
-7.61679e-06
7.98896e-06
-6.89358e-06
8.07437e-06
-5.97047e-06
8.11864e-06
-4.94549e-06
8.08988e-06
-3.91536e-06
7.98059e-06
-2.97669e-06
7.81249e-06
-2.18593e-06
7.60604e-06
-1.45622e-06
7.33817e-06
-5.73718e-07
7.00786e-06
4.78863e-07
6.65368e-06
1.63622e-06
6.35711e-06
2.86954e-06
6.207e-06
4.28598e-06
6.23909e-06
6.09724e-06
6.50931e-06
8.02856e-06
7.04887e-06
9.42178e-06
7.55451e-06
9.53908e-06
6.54704e-06
7.2749e-06
3.29772e-06
5.22599e-06
-2.45518e-06
7.98804e-06
-6.31238e-06
8.71225e-06
-7.51854e-06
8.68893e-06
-7.66828e-06
8.53135e-06
-7.45092e-06
8.41997e-06
-6.7789e-06
8.34175e-06
-5.88742e-06
8.23949e-06
-4.83837e-06
8.06932e-06
-3.74108e-06
7.81931e-06
-2.72356e-06
7.52055e-06
-1.88511e-06
7.21134e-06
-1.14597e-06
6.85851e-06
-2.20578e-07
6.46945e-06
8.67962e-07
6.09288e-06
2.01279e-06
5.82805e-06
3.13437e-06
5.77629e-06
4.33774e-06
5.95438e-06
5.91914e-06
6.40792e-06
7.57503e-06
7.18193e-06
8.64777e-06
8.03882e-06
8.6822e-06
7.73335e-06
7.58037e-06
1.1028e-05
3.16095e-14
0
2.75877e-14
-7.3301e-15
4.12092e-15
1.37875e-14
-1.76147e-09
1.76146e-09
-5.22948e-08
5.21678e-08
-3.67718e-07
4.91017e-07
-1.63976e-06
1.40548e-06
-1.08868e-05
9.41508e-07
-8.99973e-05
5.76873e-08
-0.000145981
-1.21929e-06
-0.00016747
-2.25999e-06
-0.000179086
-3.85535e-06
-0.000185242
-9.28004e-06
-0.000176236
-1.64234e-05
-0.000157499
-2.48363e-05
-0.000117401
-4.33201e-05
-6.12668e-05
-5.31702e-05
-1.64984e-05
-4.58039e-05
-1.85756e-05
1.55651e-13
0
1.11435e-12
-9.54716e-13
-2.5967e-10
2.60789e-10
-2.70569e-08
2.75698e-08
-5.06783e-07
4.95783e-07
-6.41916e-06
1.8094e-06
-1.01497e-05
2.18539e-06
-8.31632e-06
3.72652e-07
-7.09845e-06
-1.89667e-07
-7.59925e-06
-1.63248e-07
-1.13139e-05
-4.63607e-07
-2.51324e-05
-1.23828e-06
-7.6434e-05
-4.14056e-06
-0.000132493
-1.3341e-05
-0.000132376
-4.22179e-05
-0.000100171
-7.78368e-05
-6.25935e-05
-9.07467e-05
-2.78581e-05
-8.05392e-05
-4.66853e-05
1.49059e-12
0
2.13144e-11
-1.50888e-11
-5.71975e-10
1.03677e-09
-3.70659e-08
6.20126e-08
-2.37675e-06
1.48783e-06
-3.26688e-06
2.10566e-06
-1.60542e-06
7.77441e-08
-2.64425e-07
3.29549e-08
-4.42605e-08
-4.99416e-09
-1.89595e-07
-9.44373e-09
-5.85333e-07
-4.40966e-08
-1.55325e-06
-1.81654e-07
-3.76304e-06
-7.36304e-07
-4.13237e-05
-4.20713e-06
-9.40019e-05
-4.6537e-05
-7.85846e-05
-0.000106168
-5.22962e-05
-0.000117046
-2.70751e-05
-0.000105759
-7.37597e-05
3.89676e-11
0
1.03159e-10
0
-8.8503e-10
3.0326e-09
-4.53535e-08
7.64344e-08
-1.30288e-06
5.68167e-07
-5.70325e-07
3.04622e-07
-6.07528e-08
1.56407e-08
-4.69349e-09
1.31271e-09
-3.89078e-09
-6.90031e-10
-5.20424e-09
-1.72799e-09
-1.49455e-08
-8.62993e-09
-4.35534e-08
-4.08857e-08
-3.36678e-07
-2.34282e-07
-5.69806e-06
-7.51387e-07
-6.50879e-05
-4.60181e-05
-5.61203e-05
-0.00012759
-3.90439e-05
-0.000134121
-2.15188e-05
-0.000123284
-9.52782e-05
2.26361e-09
0
2.91004e-09
0
-5.71916e-11
5.43084e-09
-1.35478e-07
1.00851e-07
-2.27023e-07
1.10738e-08
-6.28035e-08
0
-8.57961e-09
1.11436e-09
-1.65915e-09
1.07964e-10
-6.55489e-10
-3.64669e-10
-9.06134e-10
-6.50066e-10
-2.49134e-09
-2.54892e-09
-1.57531e-08
-1.34618e-08
-9.76281e-08
-8.8456e-08
-4.32576e-07
-2.31872e-07
-4.81265e-05
-2.7174e-05
-3.63118e-05
-0.000139409
-2.63915e-05
-0.000144041
-1.52778e-05
-0.000134412
-0.00011055
5.54286e-08
0
7.38687e-08
-5.18527e-07
4.99725e-10
4.691e-08
-5.70451e-09
2.17098e-08
-2.67518e-08
3.05868e-08
-1.22656e-08
0
-2.19991e-09
3.58488e-09
-6.06379e-10
1.92284e-10
-2.5083e-10
-2.43231e-10
-2.54247e-10
-4.3496e-10
-5.7221e-10
-1.66501e-09
-6.18927e-09
-4.11296e-09
-3.78879e-08
-3.97418e-08
0
-1.91619e-07
-2.23035e-05
-1.73793e-05
-2.07143e-05
-0.00014623
-1.57604e-05
-0.000148997
-9.59226e-06
-0.000140416
-0.00011924
1.1285e-06
-1.50421e-05
2.12104e-08
-2.84355e-06
9.86034e-09
9.94109e-08
2.44298e-09
1.75895e-08
3.75696e-09
6.64969e-09
-2.68302e-10
0
-4.86248e-10
5.46837e-09
-2.06807e-10
3.97539e-10
-1.1115e-10
-9.17723e-11
-9.78194e-11
-3.88061e-10
-8.93147e-13
-8.86986e-10
-3.10622e-09
-6.08169e-10
-3.20861e-08
-7.97478e-09
-1.40779e-07
-6.76365e-08
-8.75309e-06
-3.99812e-05
-8.67256e-06
-0.000150764
-7.35328e-06
-0.000150327
-4.62944e-06
-0.000142906
-0.000108773
3.71273e-06
-4.47631e-05
0
-1.95885e-06
0
6.32518e-08
1.43692e-09
1.18989e-08
4.70471e-09
1.24876e-09
2.21889e-09
0
1.43867e-10
3.06703e-09
0
5.22249e-10
-2.925e-12
-2.3564e-11
-4.28539e-11
-2.65776e-10
-1.66955e-11
-2.68448e-10
-3.63658e-10
-1.56672e-10
-7.40595e-09
-8.52088e-10
-2.70185e-07
0
1.82825e-06
-6.91577e-05
3.53289e-07
-0.000151286
-9.31924e-07
-0.000149048
-7.79166e-07
-0.000142969
-0.000109748
8.02685e-06
8.30497e-15
1.07937e-05
3.24246e-15
1.16053e-05
1.17424e-15
1.20788e-05
3.44785e-16
1.26883e-05
-1.44836e-06
1.3397e-05
-1.64598e-06
1.41859e-05
-1.76193e-06
1.48145e-05
-1.73253e-06
1.51148e-05
-1.51372e-06
1.49764e-05
-1.10975e-06
1.44433e-05
-6.41603e-07
1.36898e-05
-1.77996e-07
1.27391e-05
6.56637e-07
1.17432e-05
1.72617e-06
1.08874e-05
2.86866e-06
1.04266e-05
3.59352e-06
1.06275e-05
4.13741e-06
1.13957e-05
5.15099e-06
1.27896e-05
6.18107e-06
1.50378e-05
6.39956e-06
1.78866e-05
5.8334e-06
2.10954e-05
4.37163e-06
3.35127e-06
2.87671e-05
-7.88895e-15
3.59524e-14
-5.43974e-15
1.78003e-14
-2.74538e-15
1.22002e-14
-8.81931e-16
8.26745e-15
1.28465e-07
1.53168e-14
5.41362e-07
5.66085e-14
1.06293e-06
1.06458e-13
1.80252e-06
1.24595e-13
2.81932e-06
9.03923e-14
4.16598e-06
3.17452e-14
5.83159e-06
4.68433e-10
7.47787e-06
5.42744e-08
8.44574e-06
4.32903e-07
8.68768e-06
1.28466e-06
8.26073e-06
2.51751e-06
8.22654e-06
3.62739e-06
8.97259e-06
3.39136e-06
1.00989e-05
4.0247e-06
1.1654e-05
4.62595e-06
1.41425e-05
3.91105e-06
1.714e-05
2.83589e-06
2.02498e-05
1.2619e-06
-9.07597e-07
2.45087e-05
-3.54026e-15
3.42958e-14
-1.06911e-14
2.52561e-14
-1.81215e-14
2.46645e-14
-2.37963e-14
1.91273e-14
-4.9252e-14
3.49294e-14
-1.52081e-13
1.0076e-13
-3.16293e-13
1.7493e-13
-4.59348e-13
2.02727e-13
-5.00737e-13
1.50624e-13
-4.11712e-13
2.61885e-14
4.001e-10
4.27186e-11
1.10851e-08
2.25814e-11
2.80494e-07
3.50763e-10
1.01858e-06
0
2.42915e-06
1.91e-09
5.05679e-06
1.33816e-07
8.15431e-06
8.22392e-07
9.92758e-06
2.25142e-06
1.15822e-05
2.97129e-06
1.44343e-05
1.059e-06
1.74332e-05
-1.62948e-07
2.05689e-05
-1.87384e-06
-4.172e-06
2.38333e-05
7.30285e-15
1.87211e-14
7.97942e-16
2.15987e-14
-1.18745e-14
2.81703e-14
-2.72846e-14
2.67594e-14
-8.13355e-14
4.64278e-14
-3.12652e-13
1.17104e-13
-7.41648e-13
1.84767e-13
-1.23655e-12
1.95144e-13
-1.59467e-12
1.1498e-13
-1.6409e-12
-8.1797e-14
-8.36812e-13
-2.14484e-13
1.40773e-11
7.66723e-12
4.04904e-10
6.98704e-12
1.09092e-09
0
4.00156e-09
0
7.5866e-08
2.63781e-11
7.98636e-07
1.86299e-11
3.51103e-06
1.29241e-09
9.37794e-06
-9.81281e-09
1.62784e-05
-6.82239e-07
1.90699e-05
-1.40537e-06
2.16726e-05
-3.64929e-06
-6.96378e-06
2.45089e-05
2.10742e-15
8.43225e-15
1.24908e-15
1.08123e-14
-5.17671e-15
1.76567e-14
-1.59515e-14
1.96085e-14
-5.39189e-14
2.7687e-14
-2.2256e-13
5.55055e-14
-5.55062e-13
8.24058e-14
-9.8211e-13
8.74184e-14
-1.37646e-12
5.75369e-14
-1.63755e-12
-2.74226e-14
-1.69045e-12
-3.07511e-13
-1.07436e-12
-3.52053e-13
5.10745e-12
8.05225e-13
1.16898e-11
4.38819e-15
2.05111e-11
0
1.00891e-10
0
1.39439e-10
0
1.43259e-09
-5.13258e-13
1.07481e-07
-1.30907e-14
1.57369e-06
-2.41108e-16
6.27411e-06
-1.38851e-17
1.56236e-05
-7.0057e-17
-2.39302e-06
2.51491e-05
4.8072e-16
3.26838e-15
9.65477e-17
4.11922e-15
-1.99215e-15
7.47235e-15
-6.4519e-15
9.30538e-15
-1.80441e-14
1.00954e-14
-6.19882e-14
9.99012e-15
-1.5117e-13
9.05273e-15
-2.76371e-13
7.3212e-15
-4.13885e-13
4.79723e-15
-5.38716e-13
1.52097e-15
-6.51578e-13
-5.67099e-14
-7.27187e-13
-1.45891e-13
8.0008e-14
7.16692e-15
9.33972e-14
3.5099e-14
1.82194e-13
1.68317e-14
5.64434e-13
1.97852e-15
5.18667e-13
0
1.28171e-14
-1.57056e-16
2.68507e-16
-4.19812e-16
4.51362e-17
-2.9377e-17
4.49362e-17
-2.01401e-17
4.99535e-17
-3.80385e-17
-3.74477e-16
8.41926e-07
9.03108e-17
1.07205e-15
-2.62671e-17
1.27321e-15
-6.0329e-16
2.3648e-15
-1.96422e-15
3.23688e-15
-4.13574e-15
3.80661e-15
-7.02021e-15
4.03266e-15
-1.04408e-14
3.91166e-15
-1.42055e-14
3.45078e-15
-1.81689e-14
2.6589e-15
-2.22437e-14
1.56585e-15
-2.89111e-14
2.68915e-16
-4.81126e-14
-4.19115e-15
-4.28447e-14
-6.42777e-15
-1.43322e-14
-2.51629e-15
2.2837e-15
2.15796e-16
3.25368e-15
1.00853e-15
2.72543e-15
3.64395e-16
1.16701e-14
2.26954e-16
9.0754e-16
1.16482e-16
1.01664e-16
6.72108e-17
5.82764e-17
-2.35429e-17
6.53307e-17
-7.09696e-17
-3.94888e-16
5.87862e-17
9.99954e-18
3.00325e-16
-1.26977e-17
3.23976e-16
-1.35072e-16
5.97104e-16
-4.5522e-16
8.91633e-16
-1.02778e-15
1.12183e-15
-1.86565e-15
1.25071e-15
-2.95443e-15
1.27095e-15
-4.26846e-15
1.18514e-15
-5.78149e-15
9.9981e-16
-7.46299e-15
7.29986e-16
-9.25182e-15
4.10488e-16
-1.11624e-14
1.02954e-16
-1.2957e-14
-5.42859e-16
-1.34536e-14
-1.10877e-15
-1.21331e-14
-1.16394e-15
-8.80071e-15
-7.58232e-16
-5.9117e-15
-3.15123e-16
-4.86474e-15
-2.95272e-17
-2.53812e-15
-2.85928e-16
-6.20428e-16
-7.36852e-16
6.17542e-16
-1.11441e-15
1.73188e-15
-1.10038e-15
-6.92436e-16
2.11649e-15
2.49422e-18
7.40862e-17
-8.0979e-19
7.20584e-17
-1.94194e-17
1.28933e-16
-7.80384e-17
2.11417e-16
-1.95872e-16
2.82525e-16
-3.82055e-16
3.24974e-16
-6.38246e-16
3.3623e-16
-9.61069e-16
3.18033e-16
-1.34131e-15
2.73531e-16
-1.75822e-15
2.07852e-16
-2.17071e-15
1.32791e-16
-2.51494e-15
6.77744e-17
-2.68493e-15
1.99089e-17
-2.60279e-15
1.05962e-18
-2.0532e-15
-1.88187e-17
-1.10317e-15
-1.63374e-17
-1.18863e-16
-7.96607e-20
4.38223e-15
-1.16896e-16
7.78356e-15
-3.82852e-16
8.02536e-15
-6.95505e-16
7.87727e-15
-7.7899e-16
6.55886e-15
-8.52525e-16
-5.39544e-16
4.87797e-15
9.57021e-19
1.7874e-17
1.47104e-18
1.60207e-17
-8.52362e-19
2.77345e-17
-8.94961e-18
4.89152e-17
-2.86568e-17
6.8558e-17
-6.23295e-17
7.89652e-17
-1.09963e-16
7.98136e-17
-1.69306e-16
7.21443e-17
-2.34614e-16
5.7386e-17
-2.93251e-16
3.61561e-17
-3.25374e-16
1.39941e-17
-3.18773e-16
4.99031e-19
-2.16837e-16
-1.00966e-17
-4.61843e-17
-2.77047e-17
4.95858e-16
-3.21517e-17
1.57387e-15
-4.43646e-17
3.19072e-15
-5.25062e-17
5.03287e-15
-7.3277e-17
6.19261e-15
-1.06348e-16
6.52255e-15
-1.39117e-16
6.5287e-15
-1.62864e-16
5.98678e-15
-1.7614e-16
-2.03146e-16
4.97621e-15
3.36346e-19
4.71142e-18
7.59888e-19
4.11111e-18
9.93908e-19
6.95598e-18
-1.23669e-19
1.26575e-17
-2.8607e-18
1.74403e-17
-8.20777e-18
1.92578e-17
-1.57827e-17
1.81192e-17
-2.43473e-17
1.44668e-17
-3.14438e-17
9.15322e-18
-3.15646e-17
1.4253e-18
-1.94726e-17
-4.27944e-18
-1.11947e-18
-9.32131e-18
6.46231e-17
-1.03097e-17
2.22274e-16
-7.70843e-18
3.20705e-16
-6.49394e-18
3.68276e-16
-5.97756e-18
4.27303e-16
-5.98412e-18
5.21171e-16
-6.29279e-18
6.17107e-16
-6.8621e-18
6.79308e-16
-7.71901e-18
7.38247e-16
-8.90077e-18
9.07555e-16
-9.76225e-18
-9.02201e-18
1.61896e-15
1.1824e-19
1.30302e-18
2.9711e-19
1.15977e-18
5.69768e-19
1.94539e-18
6.04299e-19
3.41673e-18
1.69428e-19
4.44372e-18
-6.46737e-19
4.5064e-18
-1.77842e-18
3.78014e-18
-2.80821e-18
2.45539e-18
-3.06329e-18
9.85908e-19
-7.69838e-19
-1.15053e-18
3.59317e-18
-9.30293e-19
1.19196e-17
-1.60569e-18
1.16505e-17
-1.49254e-18
1.14836e-17
-8.5106e-19
1.31869e-17
-7.01061e-19
1.60966e-17
-5.92826e-19
1.89209e-17
-5.33452e-19
2.13296e-17
-5.23727e-19
2.39237e-17
-5.74632e-19
2.80036e-17
-7.00477e-19
3.50344e-17
-9.25547e-19
4.45009e-17
-1.28398e-18
-1.81001e-18
5.44463e-17
4.1076e-20
3.33356e-19
1.08686e-19
3.04105e-19
2.25217e-19
5.04659e-19
2.91117e-19
8.34219e-19
2.38804e-19
1.00453e-18
9.61382e-20
9.13813e-19
-7.44128e-20
6.51016e-19
-2.08933e-19
3.2562e-19
-1.77679e-19
7.50784e-20
3.62887e-19
-1.76358e-19
2.5562e-19
-8.72349e-20
1.22574e-18
-7.27696e-20
6.79898e-19
-7.49754e-20
6.74996e-19
-7.58544e-20
7.62747e-19
-6.69676e-20
8.3816e-19
-5.65145e-20
9.2613e-19
-5.47146e-20
1.10501e-18
-6.06022e-20
1.45141e-18
-7.64983e-20
2.09584e-18
-1.05623e-19
3.33552e-18
-1.4982e-19
5.95276e-18
-2.01473e-19
-2.57745e-19
1.20629e-17
1.23062e-20
7.30152e-20
3.34044e-20
6.72857e-20
6.88905e-20
1.09497e-19
9.05804e-20
1.69815e-19
8.04425e-20
1.8798e-19
4.83453e-20
1.50588e-19
1.49823e-20
8.77996e-20
-2.1295e-22
3.31759e-20
-4.85402e-21
6.28528e-21
2.73489e-20
-1.48458e-21
1.19372e-20
-4.20893e-21
1.69023e-20
-6.01183e-21
2.79859e-20
-6.78276e-21
3.73259e-20
-6.33813e-21
4.36358e-20
-4.99076e-21
4.80656e-20
-4.70279e-21
6.10756e-20
-4.99983e-21
8.76593e-20
-6.13127e-21
1.3898e-19
-8.29574e-21
2.37189e-19
-1.20449e-20
4.27106e-19
-2.03586e-20
8.11465e-19
-4.12794e-20
-9.82685e-20
1.76021e-18
2.94641e-21
1.31215e-20
8.05137e-21
1.20275e-20
1.61335e-20
1.90451e-20
2.04965e-20
2.76369e-20
1.73349e-20
2.79791e-20
9.8329e-21
1.94522e-20
3.24433e-21
9.1253e-21
4.39869e-22
2.80093e-21
-2.07082e-23
2.345e-22
7.80849e-23
-2.59648e-22
3.50529e-22
-4.42726e-22
8.38459e-22
-4.95531e-22
1.34861e-21
-4.93353e-22
1.79502e-21
-3.83477e-22
1.93302e-21
-2.76947e-22
2.48563e-21
-2.87696e-22
3.60836e-21
-3.49216e-22
5.86364e-21
-4.83554e-22
1.04244e-20
-8.79198e-22
2.19914e-20
-2.67377e-21
6.63224e-20
-1.27563e-20
2.38699e-19
-4.33545e-20
-1.05615e-19
8.7601e-19
5.47004e-22
1.80874e-21
1.4866e-21
1.62557e-21
2.86061e-21
2.48673e-21
3.43296e-21
3.36488e-21
2.63262e-21
3.10575e-21
1.28271e-21
1.85382e-21
3.84023e-22
7.02056e-22
2.89132e-23
1.427e-22
-1.42378e-23
-2.13108e-23
-1.16663e-23
-2.01275e-23
4.08762e-25
-2.81769e-23
2.02317e-23
-3.04581e-23
4.28134e-23
-2.75656e-23
4.96868e-23
-1.77084e-23
5.9248e-23
-1.39217e-23
9.27468e-23
-1.57535e-23
1.61721e-22
-2.31179e-23
3.30021e-22
-6.42219e-23
1.06697e-21
-3.68707e-22
6.18601e-21
-2.53898e-21
4.10924e-20
-1.54306e-20
2.07923e-19
-6.38639e-20
-2.47373e-19
1.31396e-18
7.43884e-23
1.69408e-22
1.99309e-22
1.4743e-22
3.6545e-22
2.16348e-22
4.09618e-22
2.71968e-22
2.77651e-22
2.28697e-22
1.13457e-22
1.16106e-22
2.37573e-23
3.78205e-23
-3.47971e-24
6.7771e-24
-1.61312e-24
-3.83871e-25
-1.703e-24
-1.18864e-24
-1.47167e-24
-1.55416e-24
-6.35375e-25
-1.60606e-24
2.80163e-25
-1.27829e-24
7.69766e-25
-7.46748e-25
1.32993e-24
-6.14557e-25
2.75192e-24
-9.37729e-25
7.41546e-24
-4.25628e-24
4.34845e-23
-3.82477e-23
4.26529e-22
-3.5124e-22
4.23202e-21
-2.84047e-21
3.93029e-20
-2.27905e-20
3.18891e-19
-1.47395e-19
-6.35802e-19
2.76133e-18
6.62527e-24
8.05404e-24
1.73735e-23
6.71702e-24
3.01776e-23
9.40519e-24
3.14318e-23
1.10027e-23
1.8517e-23
8.43928e-24
6.67735e-24
3.50929e-24
1.27384e-24
8.00834e-25
-7.40589e-26
-2.0888e-27
-9.60648e-26
-3.68377e-26
-1.37124e-25
-5.66565e-26
-1.34759e-25
-6.8721e-26
-9.83817e-26
-6.77767e-26
-3.873e-26
-4.74503e-26
-1.29881e-26
-2.78577e-26
6.70381e-27
-3.22728e-26
6.98565e-26
-2.07367e-25
9.58827e-25
-2.61181e-24
1.58366e-23
-3.09587e-23
2.25698e-22
-3.18286e-22
2.73512e-21
-2.8544e-21
3.44056e-20
-3.05547e-20
4.35619e-19
-2.88919e-19
-1.24037e-18
4.2549e-18
2.91214e-25
3.30229e-29
7.43734e-25
1.42963e-28
1.22431e-24
3.75744e-28
1.18319e-24
4.22774e-28
5.80843e-25
-3.91876e-30
1.49531e-25
-9.58184e-28
-4.2456e-28
-3.87147e-27
-2.65942e-27
-3.01538e-27
-5.51753e-27
-1.404e-27
-7.64561e-27
-2.24171e-27
-7.42193e-27
-2.42101e-27
-5.70946e-27
-2.03921e-27
-2.51393e-27
-1.28592e-27
-1.98272e-27
-9.51357e-28
-2.61486e-27
-6.36408e-27
-1.56461e-26
-1.07138e-25
-6.11651e-27
-1.6224e-24
2.91636e-24
-2.06246e-23
6.75486e-23
-2.25128e-22
1.06887e-21
-2.19089e-21
2.14268e-20
-3.43622e-20
4.02751e-19
-4.49792e-19
-1.95789e-18
4.24468e-18
5.91267e-30
4.1198e-30
2.89418e-29
1.80629e-29
4.66115e-29
5.03769e-29
-5.52442e-31
6.15657e-29
-3.98702e-29
1.33765e-29
-7.48305e-28
-1.06048e-29
-6.4478e-28
-4.55131e-29
-1.69058e-28
-3.856e-29
-2.57885e-28
-7.64727e-29
-3.09993e-28
-8.53159e-29
-2.88465e-28
-6.87422e-29
-1.82559e-28
-3.99187e-29
-1.22689e-28
-2.44471e-29
-1.46065e-28
-1.21456e-28
-1.65498e-27
-2.59808e-27
-2.61067e-26
-4.91616e-26
-3.13213e-25
-7.7482e-25
-2.71878e-24
-1.05839e-23
-1.1333e-23
-1.20027e-22
2.75892e-23
-1.32902e-21
5.38098e-21
-3.10089e-20
1.89318e-19
-5.94378e-19
-2.68484e-18
2.40165e-18
7.09165e-31
2.58573e-31
3.76062e-30
1.14647e-30
6.68182e-30
3.37483e-30
1.88099e-30
4.35648e-30
-9.16079e-31
9.78751e-31
-8.98037e-30
-3.27889e-32
-4.40384e-30
-5.54876e-31
-8.69406e-30
-2.22528e-30
-1.14026e-29
-3.37096e-30
-1.0909e-29
-3.28039e-30
-6.98701e-30
-1.97407e-30
-3.60569e-30
-9.01112e-31
-4.08854e-30
-1.45507e-30
-4.31794e-29
-3.97916e-29
-9.49681e-28
-9.37767e-28
-1.66706e-26
-1.81407e-26
-2.51172e-25
-3.10662e-25
-2.7938e-24
-4.38661e-24
-2.09702e-23
-5.03403e-23
-3.07867e-22
-6.66662e-22
-1.23326e-20
-2.50974e-20
-2.51606e-19
-6.36033e-19
-3.09858e-18
-4.08237e-19
4.27641e-32
8.16503e-37
2.44162e-31
3.87715e-38
4.64563e-31
-8.37867e-39
1.36699e-31
-4.84938e-36
-3.17045e-33
-5.82901e-34
-1.5645e-32
-5.83553e-33
-1.80745e-31
-1.10307e-32
-4.34038e-31
-5.1553e-32
-4.61805e-31
-8.50442e-32
-3.74068e-31
-8.49873e-32
-1.38758e-31
-5.12125e-32
-1.41823e-31
-2.71608e-32
-5.87334e-31
-4.15054e-31
-1.70629e-29
-1.19705e-29
-3.85068e-28
-2.81575e-28
-7.74522e-27
-5.95103e-27
-1.29906e-25
-1.06615e-25
-1.45209e-24
-1.50262e-24
-1.23078e-23
-1.75956e-23
-3.15364e-22
-3.09832e-22
-2.5978e-20
-1.89774e-20
-7.89939e-19
-5.76046e-19
-2.97738e-18
-3.20593e-18
1.38078e-39
8.57808e-48
-5.89716e-40
6.14308e-46
-8.96839e-39
6.39059e-45
-1.51441e-35
-2.18597e-44
-3.37164e-34
-9.77835e-42
-6.96123e-34
-5.70388e-39
-3.82434e-33
-6.38243e-37
-1.08501e-32
-6.20322e-36
-1.19494e-32
-1.7279e-35
-9.71001e-33
-2.9438e-35
-4.63823e-33
-9.01978e-35
-7.43506e-33
-2.97083e-33
-1.89197e-31
-1.05902e-31
-5.28856e-30
-3.02564e-30
-1.32307e-28
-7.7457e-29
-2.95461e-27
-1.71927e-27
-5.06017e-26
-3.12424e-26
-5.35105e-25
-4.39612e-25
-5.31608e-24
-5.63468e-24
-2.47305e-22
-1.56681e-22
-3.05827e-20
-1.40772e-20
-9.31798e-19
-4.90529e-19
-2.75611e-18
-4.37383e-18
2.10239e-47
1.36456e-49
4.40158e-46
7.73263e-48
-2.31806e-45
2.5082e-47
-2.37992e-44
-3.78582e-46
-7.75286e-42
-1.67797e-43
-7.1737e-39
-1.01255e-40
-2.91072e-37
-1.18835e-38
-1.49061e-36
-1.19763e-37
-2.73282e-36
-3.69272e-37
-4.77511e-36
-8.7458e-37
-3.11321e-35
-1.76587e-35
-1.34763e-33
-7.30049e-34
-4.77623e-32
-2.35458e-32
-1.45638e-30
-7.03074e-31
-3.99819e-29
-1.87845e-29
-9.30958e-28
-4.28632e-28
-1.54521e-26
-7.84742e-27
-1.61271e-25
-1.17498e-25
-2.17165e-24
-2.02318e-24
-1.84914e-22
-9.6592e-23
-2.97345e-20
-1.00597e-20
-9.08365e-19
-3.78122e-19
-2.42809e-18
-4.93816e-18
2.55748e-49
-3.14505e-52
1.70128e-48
-9.98707e-54
-3.79699e-47
-1.54051e-51
-4.15443e-46
-1.10889e-48
-1.38623e-43
-4.8525e-46
-1.29698e-40
-2.44798e-43
-5.24224e-39
-7.51907e-41
-2.64935e-38
-1.28735e-39
-5.63639e-38
-6.25608e-39
-2.17811e-37
-6.86475e-38
-8.0196e-36
-3.40248e-36
-3.18277e-34
-1.29806e-34
-1.10457e-32
-4.53805e-33
-3.5698e-31
-1.41485e-31
-1.02867e-29
-3.91239e-30
-2.37068e-28
-9.15397e-29
-3.78874e-27
-1.78915e-27
-4.76712e-26
-3.43303e-26
-1.10504e-24
-1.01577e-24
-1.41048e-22
-6.64792e-23
-2.32336e-20
-6.67029e-21
-7.27889e-19
-2.63773e-19
-2.07412e-18
-5.1972e-18
-3.20419e-55
-4.38505e-53
-4.4199e-55
-9.61762e-56
-1.53845e-51
-2.50865e-54
-1.1086e-48
-8.97176e-52
-4.51136e-46
-4.22072e-49
-4.71245e-43
-1.64948e-46
-3.65883e-41
-9.38393e-44
-2.1758e-40
-6.51208e-42
-1.12478e-39
-1.77231e-40
-2.85891e-38
-1.11656e-38
-1.40091e-36
-5.37335e-37
-5.83478e-35
-2.14174e-35
-2.18942e-33
-7.5637e-34
-7.426e-32
-2.40342e-32
-2.16502e-30
-6.96023e-31
-4.85979e-29
-1.79581e-29
-8.78729e-28
-4.50275e-28
-1.81628e-26
-1.42132e-26
-7.58203e-25
-6.58131e-25
-1.02198e-22
-4.61407e-23
-1.55202e-20
-4.2066e-21
-5.4633e-19
-1.75822e-19
-1.68684e-18
-5.42534e-18
-7.07135e-58
-3.07895e-56
-1.70426e-57
4.93668e-56
-1.72586e-54
-5.77385e-55
-7.40431e-52
-1.50967e-52
-1.49867e-49
-7.8893e-50
-1.60346e-46
-4.32309e-47
-3.81737e-44
-3.97042e-45
-1.26455e-42
-3.31694e-43
-6.76737e-41
-2.69985e-41
-4.4881e-39
-1.52331e-39
-2.2679e-37
-6.93637e-38
-9.69762e-36
-2.90236e-36
-3.64791e-34
-1.03934e-34
-1.25087e-32
-3.46854e-33
-3.70166e-31
-1.14634e-31
-9.47266e-30
-3.9753e-30
-2.68692e-28
-1.60283e-28
-1.01838e-26
-7.77373e-27
-5.81237e-25
-4.35971e-25
-7.07386e-23
-3.04513e-23
-1.00088e-20
-2.57726e-21
-4.12285e-19
-1.10813e-19
-1.17244e-18
-4.94721e-18
1.50411e-57
2.02419e-57
-1.45697e-56
2.61617e-55
-1.75539e-54
1.33086e-54
-1.25558e-52
-8.03188e-54
-8.04912e-50
-4.17398e-51
-1.13709e-47
-2.55361e-48
-1.01662e-45
-5.11079e-46
-1.20435e-43
-4.33777e-44
-9.93845e-42
-2.74677e-42
-5.7291e-40
-1.49137e-40
-2.96803e-38
-7.45816e-39
-1.28809e-36
-3.09946e-37
-4.82857e-35
-1.13657e-35
-1.70523e-33
-4.35395e-34
-6.05899e-32
-2.04956e-32
-2.44797e-30
-1.14727e-30
-1.21034e-28
-6.8177e-29
-6.53003e-27
-4.10406e-27
-4.16339e-25
-2.53971e-25
-4.75525e-23
-1.80994e-23
-6.5446e-21
-1.49293e-21
-2.85716e-19
-6.23633e-20
-6.30854e-19
-3.3886e-18
7.8141e-57
2.29036e-57
8.85245e-56
2.96493e-55
-8.4383e-55
6.21501e-54
-9.00261e-54
1.26893e-55
-2.29724e-51
-2.85823e-52
-9.4862e-49
-1.98688e-49
-1.54295e-46
-3.13785e-47
-1.34772e-44
-2.69741e-45
-9.13864e-43
-1.93418e-43
-5.82918e-41
-1.16466e-41
-3.08931e-39
-5.26761e-40
-1.27927e-37
-1.89859e-38
-4.76349e-36
-6.84718e-37
-2.10109e-34
-4.26097e-35
-1.22952e-32
-3.8961e-33
-8.35945e-31
-3.33009e-31
-5.69598e-29
-2.51961e-29
-3.61704e-27
-1.75933e-27
-2.53444e-25
-1.20445e-25
-3.00534e-23
-9.1354e-24
-4.14135e-21
-7.59424e-22
-1.66171e-19
-2.90066e-20
-2.56087e-19
-1.64146e-18
8.69895e-57
1.26843e-57
4.11863e-55
1.90562e-55
1.29549e-56
5.75806e-54
-4.11483e-53
4.6272e-53
-2.41858e-52
-1.05266e-53
-5.99912e-50
-7.26678e-51
-8.43142e-48
-1.70788e-48
-8.18995e-46
-1.4378e-46
-6.93586e-44
-7.74232e-45
-4.42663e-42
-1.8622e-43
-1.97416e-40
-1.00447e-41
-6.46287e-39
-1.04226e-39
-2.889e-37
-1.01152e-37
-2.54246e-35
-9.35737e-36
-2.72686e-33
-8.74057e-34
-2.60194e-31
-8.41766e-32
-2.15271e-29
-7.4222e-30
-1.57653e-27
-5.88054e-28
-1.25512e-25
-4.48698e-26
-1.66238e-23
-3.70326e-24
-2.25478e-21
-3.13527e-22
-7.59288e-20
-1.08556e-20
-8.47361e-20
-5.88373e-19
5.47686e-57
4.26473e-58
3.78346e-55
6.78847e-56
4.677e-54
2.196e-54
-1.45682e-54
2.06495e-53
-1.1918e-53
-6.54117e-56
-2.81393e-51
-4.3118e-53
-5.11594e-49
-1.57467e-50
-6.04312e-47
-7.84919e-49
-1.65677e-45
-1.138e-46
-4.93759e-44
-1.584e-44
-4.23352e-42
-1.93961e-42
-5.04852e-40
-2.21059e-40
-5.57406e-38
-2.29408e-38
-5.71321e-36
-2.20422e-36
-6.21747e-34
-2.01404e-34
-6.68947e-32
-1.81063e-32
-6.36296e-30
-1.65189e-30
-5.35064e-28
-1.49236e-28
-4.89494e-26
-1.28097e-26
-7.33859e-24
-1.1547e-24
-9.64037e-22
-1.01077e-22
-2.78018e-20
-3.22152e-21
-2.2607e-20
-1.84065e-19
1.90347e-57
9.71898e-59
1.42316e-55
1.59861e-56
2.05244e-54
5.34528e-55
-8.74084e-57
5.29903e-54
-7.22586e-56
-1.89394e-57
-3.61036e-53
-1.35388e-54
-2.39089e-51
-3.45998e-52
-2.10119e-49
-7.00695e-50
-3.67405e-47
-1.24968e-47
-5.98907e-45
-1.95261e-45
-8.62667e-43
-2.68629e-43
-1.10573e-40
-3.28685e-41
-1.28088e-38
-3.62507e-39
-1.36641e-36
-3.66878e-37
-1.36165e-34
-3.48939e-35
-1.36723e-32
-3.20895e-33
-1.41537e-30
-2.93294e-31
-1.38093e-28
-2.7062e-29
-1.44504e-26
-2.54155e-27
-2.4719e-24
-2.52449e-25
-3.18464e-22
-2.3211e-23
-8.08148e-21
-6.98833e-22
-4.67875e-21
-4.62824e-20
4.41076e-58
1.22286e-59
3.41692e-56
1.98725e-57
5.15498e-55
6.78272e-56
-2.39599e-58
7.0311e-55
-2.04964e-57
-7.93845e-59
-2.89365e-55
-6.19118e-56
-8.2695e-53
-1.71498e-53
-1.96141e-50
-3.92472e-51
-3.99288e-48
-7.7158e-49
-7.06779e-46
-1.31832e-46
-1.0991e-43
-1.97725e-44
-1.51739e-41
-2.62952e-42
-1.88412e-39
-3.13889e-40
-2.1437e-37
-3.41933e-38
-2.29324e-35
-3.47624e-36
-2.36044e-33
-3.38887e-34
-2.38362e-31
-3.24732e-32
-2.4855e-29
-3.1053e-30
-2.91975e-27
-3.01459e-28
-5.69479e-25
-3.16504e-26
-7.1132e-23
-3.05939e-24
-1.64028e-21
-1.01864e-22
-9.01776e-22
-9.26748e-21
5.63298e-59
1.75468e-61
4.33623e-57
2.5581e-59
6.70269e-56
8.86778e-58
-9.73993e-60
9.9005e-57
-8.40999e-59
-1.81447e-60
-1.24689e-56
-1.53207e-57
-3.88349e-54
-4.63948e-55
-1.00892e-51
-1.17437e-52
-2.25045e-49
-2.55881e-50
-4.36437e-47
-4.84839e-48
-7.43117e-45
-8.05347e-46
-1.12135e-42
-1.18252e-43
-1.51728e-40
-1.55101e-41
-1.87265e-38
-1.84393e-39
-2.161e-36
-2.02789e-37
-2.39501e-34
-2.1165e-35
-2.56223e-32
-2.14982e-33
-2.7628e-30
-2.16022e-31
-3.41364e-28
-2.17911e-29
-6.70452e-26
-2.31913e-27
-8.03235e-24
-2.41612e-25
-2.22552e-22
-1.13913e-23
-1.88012e-22
-2.38069e-21
8.16765e-61
2.75107e-63
5.86858e-59
2.38937e-61
9.3472e-58
6.0267e-60
-2.08327e-61
5.62196e-59
-2.21372e-60
1.90865e-61
-2.81786e-58
-2.11231e-59
-9.5783e-56
-7.45065e-57
-2.7472e-53
-2.11625e-54
-6.80284e-51
-5.21059e-52
-1.46877e-48
-1.11864e-49
-2.78496e-46
-2.10423e-47
-4.67112e-44
-3.48879e-45
-6.99798e-42
-5.14128e-43
-9.50445e-40
-6.81779e-41
-1.19656e-37
-8.28166e-39
-1.43414e-35
-9.43336e-37
-1.65328e-33
-1.03361e-34
-1.87669e-31
-1.10953e-32
-2.35322e-29
-1.17787e-30
-4.08953e-27
-1.27877e-28
-5.34428e-25
-1.43763e-26
-2.68768e-23
-1.08303e-24
-3.42431e-23
-7.68773e-22
9.68795e-63
6.31382e-64
4.35931e-61
3.71862e-62
5.36798e-60
8.32323e-61
2.17405e-62
8.10968e-60
-1.99964e-60
9.73055e-60
-3.59694e-60
-5.76112e-62
-1.37686e-57
-5.5668e-59
-4.42461e-55
-1.81794e-56
-1.24075e-52
-5.19501e-54
-3.04853e-50
-1.30123e-51
-6.5844e-48
-2.85826e-49
-1.25581e-45
-5.52509e-47
-2.13073e-43
-9.4641e-45
-3.25587e-41
-1.45274e-42
-4.56712e-39
-2.03171e-40
-6.03689e-37
-2.64666e-38
-7.67329e-35
-3.29169e-36
-9.32287e-33
-3.98423e-34
-1.19158e-30
-4.72495e-32
-1.81855e-28
-5.53534e-30
-2.95889e-26
-6.70309e-28
-3.22521e-24
-7.20934e-26
-3.55832e-24
-1.7465e-22
2.10619e-63
1.13402e-65
6.98329e-62
4.58053e-64
8.04161e-61
1.10981e-62
1.06937e-60
1.78365e-61
-7.02364e-63
1.45649e-60
-6.46092e-62
-2.56796e-65
-8.94166e-60
-2.73397e-62
-3.2914e-57
-1.24876e-59
-1.07333e-54
-4.97013e-57
-3.0893e-52
-1.74626e-54
-7.83195e-50
-5.40898e-52
-1.75192e-47
-1.4845e-49
-3.47847e-45
-3.64357e-47
-6.20036e-43
-8.09384e-45
-1.01037e-40
-1.64863e-42
-1.54313e-38
-3.11608e-40
-2.26352e-36
-5.51074e-38
-3.19151e-34
-9.14368e-36
-4.45982e-32
-1.41808e-33
-6.82531e-30
-2.04341e-31
-1.34094e-27
-2.84362e-29
-2.59213e-25
-4.28998e-27
-3.13111e-25
-1.9944e-23
3.80506e-65
1.27284e-71
1.12837e-63
1.60016e-70
1.87426e-62
1.53622e-69
1.53816e-61
8.16183e-69