/*--------------------------------*- C++ -*----------------------------------*\
  =========                 |
  \\      /  F ield         | OpenFOAM: The Open Source CFD Toolbox
   \\    /   O peration     | Website:  https://openfoam.org
    \\  /    A nd           | Version:  9
     \\/     M anipulation  |
\*---------------------------------------------------------------------------*/
FoamFile
{
    format      ascii;
    class       volScalarField;
    location    "0.6";
    object      epsilon;
}
// * * * * * * * * * * * * * * * * * * * * * * * * * * * * * * * * * * * * * //

dimensions      [0 2 -3 0 0 0 0];

internalField   nonuniform List<scalar> 
2268
(
0.116569
0.244571
0.36026
0.472133
0.568058
0.642815
0.699441
0.749626
0.792921
0.829505
0.863632
0.906586
0.958155
1.0102
1.05355
1.07599
1.06142
0.994117
0.863854
0.683863
0.493431
0.300299
0.0349107
0.16208
0.193535
0.252186
0.296936
0.327598
0.349096
0.365923
0.38349
0.40135
0.419225
0.437773
0.458553
0.482892
0.508097
0.529973
0.542787
0.539462
0.51332
0.462145
0.396986
0.326335
0.249885
0.141113
0.250274
0.2163
0.247535
0.273088
0.289668
0.300963
0.310618
0.321642
0.334373
0.348741
0.364943
0.383298
0.40403
0.426029
0.445937
0.45858
0.457587
0.436829
0.394411
0.338832
0.282695
0.227523
0.179561
0.345903
0.245676
0.256707
0.271585
0.281547
0.288268
0.294481
0.302301
0.312368
0.324746
0.3395
0.356598
0.375772
0.395869
0.414186
0.426195
0.425242
0.405145
0.36349
0.30771
0.253155
0.206099
0.189513
0.437703
0.276529
0.270849
0.277656
0.283024
0.286625
0.29032
0.295729
0.303598
0.314062
0.327118
0.342562
0.359868
0.377778
0.393776
0.403742
0.401821
0.381812
0.340285
0.283525
0.228276
0.185359
0.179406
0.526494
0.307918
0.287728
0.28754
0.288931
0.289797
0.291187
0.294347
0.300003
0.308322
0.319232
0.33241
0.347174
0.3622
0.375122
0.382252
0.378526
0.358616
0.319551
0.265127
0.210893
0.170926
0.162743
0.61149
0.339717
0.306523
0.299839
0.297372
0.295504
0.294542
0.295392
0.298683
0.304578
0.312926
0.323307
0.334939
0.346493
0.355833
0.359867
0.354645
0.336295
0.302833
0.256369
0.20801
0.171626
0.152318
0.693492
0.372293
0.326905
0.313915
0.307505
0.302746
0.299274
0.297669
0.298428
0.301668
0.307151
0.314381
0.322523
0.330311
0.335938
0.337102
0.331357
0.317065
0.294481
0.265607
0.235123
0.211627
0.181551
0.0336886
0.16667
0.238973
0.281123
0.308196
0.325104
0.333532
0.335305
0.332868
0.325687
0.312435
0.293302
0.268134
0.236826
0.199992
0.162028
0.152457
0.0325695
0.0166855
0.0896375
0.151906
0.178295
0.172253
0.160997
0.150878
0.142584
0.135809
0.130553
0.125906
0.120444
0.113894
0.105946
0.0962609
0.0845664
0.0707786
0.0543491
0.0312424
0.0205397
0.177962
0.162235
0.163181
0.144623
0.127228
0.114857
0.106495
0.100831
0.096988
0.0939744
0.0909772
0.087595
0.0834161
0.0779675
0.0707689
0.0614081
0.0494181
0.0348491
0.0255157
0.273189
0.177496
0.158908
0.135545
0.116455
0.103625
0.0954251
0.0902856
0.0871082
0.0849563
0.0831258
0.0811491
0.0785547
0.0748036
0.0693474
0.0617395
0.0517403
0.0398403
0.0317216
0.376543
0.197813
0.16034
0.13351
0.11349
0.100402
0.0922238
0.0873017
0.0844645
0.0828093
0.0816523
0.0804815
0.0787887
0.0760023
0.0715553
0.0650146
0.0562052
0.0455689
0.0381515
0.49468
0.224176
0.165614
0.13491
0.114058
0.100756
0.0925413
0.0877054
0.0850567
0.0837164
0.0830083
0.0823918
0.0813378
0.0792582
0.0755731
0.069834
0.061805
0.0517194
0.0444158
0.635742
0.255264
0.173061
0.137897
0.116327
0.102908
0.0946829
0.0898983
0.0873821
0.086283
0.0859367
0.0857912
0.0853069
0.0838843
0.0809108
0.0758597
0.0683122
0.0582031
0.0505024
0.830548
0.284373
0.180055
0.141024
0.119179
0.105868
0.0977379
0.093036
0.0906605
0.0898103
0.0898339
0.0901884
0.0903357
0.0896629
0.0874939
0.0831389
0.0758557
0.0651904
0.0565118
0.829052
0.425407
0.361035
0.338171
0.325306
0.315677
0.307963
0.302257
0.298824
0.297718
0.29862
0.300963
0.30393
0.306483
0.307451
0.305849
0.301606
0.296778
0.296679
0.309158
0.340682
0.401355
0.537231
0.986069
0.491112
0.406782
0.372512
0.351221
0.334654
0.320691
0.308946
0.299425
0.292071
0.286656
0.282627
0.27936
0.276328
0.27328
0.270645
0.269965
0.274133
0.286986
0.312065
0.351402
0.405755
0.471626
1.14948
0.559436
0.454988
0.408953
0.378497
0.354153
0.333242
0.31503
0.299321
0.285962
0.274713
0.265266
0.257245
0.25035
0.244601
0.240504
0.238987
0.241142
0.247923
0.259899
0.277143
0.297819
0.318072
1.32107
0.630732
0.505065
0.44655
0.406232
0.37351
0.345276
0.320533
0.298923
0.280216
0.264165
0.250492
0.238936
0.229337
0.221701
0.216168
0.212997
0.212426
0.214427
0.218674
0.224445
0.230314
0.23382
1.50158
0.704919
0.556549
0.484738
0.434014
0.392597
0.356977
0.32592
0.298906
0.275613
0.255742
0.238991
0.225073
0.213748
0.204832
0.19817
0.193607
0.190915
0.189745
0.189607
0.189834
0.189511
0.187393
1.69131
0.781893
0.609171
0.523266
0.461764
0.411577
0.368739
0.331743
0.299876
0.272674
0.249726
0.23063
0.214982
0.202393
0.192487
0.184891
0.179223
0.175082
0.172036
0.169632
0.167386
0.164776
0.161259
1.89076
0.861726
0.662873
0.562116
0.489615
0.430761
0.38101
0.338508
0.302297
0.271719
0.246202
0.225193
0.20814
0.194498
0.183736
0.175339
0.168814
0.163699
0.159565
0.156027
0.152744
0.149429
0.145869
2.10099
0.944728
0.717773
0.601435
0.517824
0.450521
0.394226
0.346646
0.306517
0.272951
0.245187
0.222504
0.204198
0.189587
0.178022
0.168897
0.161666
0.155845
0.151029
0.146889
0.143177
0.139733
0.136495
2.3237
1.03145
0.774117
0.641458
0.546703
0.471234
0.408783
0.356511
0.312803
0.276519
0.246701
0.222463
0.20296
0.187394
0.175026
0.165191
0.15731
0.150898
0.145569
0.141038
0.137118
0.133724
0.130873
2.56118
1.12264
0.832222
0.68246
0.576576
0.493256
0.425025
0.368396
0.32137
0.282552
0.250791
0.225047
0.20435
0.187805
0.174603
0.164032
0.155494
0.148505
0.142699
0.137825
0.133744
0.130429
0.127962
2.81602
1.21921
0.892416
0.724716
0.607753
0.516912
0.443248
0.382545
0.332404
0.291179
0.257541
0.23031
0.208406
0.190847
0.176763
0.165406
0.156162
0.14855
0.142225
0.136972
0.132699
0.129442
0.127357
3.09013
1.32212
0.954997
0.76849
0.640534
0.542492
0.463701
0.399155
0.346057
0.302527
0.267072
0.238379
0.215266
0.196671
0.181665
0.169466
0.159447
0.151133
0.144204
0.138487
0.133952
0.130713
0.129024
3.38318
1.4323
1.0202
0.814041
0.675208
0.570253
0.486581
0.418372
0.362453
0.316725
0.279536
0.249448
0.225171
0.20556
0.189627
0.176552
0.165692
0.156585
0.148941
0.142643
0.137742
0.134457
0.133184
3.68961
1.55041
1.08817
0.86165
0.712077
0.600417
0.51202
0.440278
0.381666
0.33388
0.295107
0.263771
0.238465
0.217948
0.201157
0.187229
0.1755
0.165518
0.157034
0.150007
0.144594
0.141161
0.140298
3.99309
1.67647
1.159
0.91168
0.751451
0.633142
0.540059
0.464865
0.403709
0.354074
0.31397
0.281664
0.255606
0.234436
0.216996
0.202354
0.189814
0.178926
0.169491
0.161557
0.155426
0.151662
0.151124
4.26103
1.80893
1.23282
0.964603
0.793604
0.668472
0.570612
0.492018
0.428513
0.377345
0.336316
0.3035
0.277177
0.25583
0.238171
0.223162
0.210042
0.198343
0.187905
0.178883
0.171755
0.167343
0.166868
4.45014
1.9424
1.3098
1.02083
0.838592
0.706225
0.603412
0.521494
0.455934
0.403699
0.362344
0.32972
0.303896
0.283161
0.266045
0.251352
0.238196
0.226041
0.214729
0.204508
0.196054
0.190499
0.189523
4.53345
2.06618
1.38989
1.08017
0.885956
0.745881
0.637999
0.55295
0.485783
0.433138
0.392292
0.360842
0.336621
0.317687
0.302335
0.289137
0.276999
0.265222
0.253564
0.242298
0.232265
0.224924
0.222472
4.57402
2.17012
1.4717
1.14111
0.934523
0.786596
0.673792
0.586036
0.517923
0.465747
0.42649
0.397495
0.37635
0.360858
0.349036
0.339155
0.329808
0.320001
0.309258
0.297728
0.28628
0.276613
0.271398
4.63319
2.2599
1.55069
1.20094
0.98275
0.827492
0.710343
0.620603
0.55245
0.501842
0.465489
0.440495
0.424223
0.414226
0.408228
0.404149
0.400178
0.394894
0.3874
0.377486
0.365793
0.353994
0.345002
4.699
2.34112
1.62259
1.25752
1.02959
0.868181
0.747691
0.656999
0.589949
0.542212
0.510258
0.490993
0.481587
0.479376
0.481807
0.486445
0.491045
0.493672
0.492859
0.487808
0.478601
0.466471
0.454096
4.75841
2.41274
1.68692
1.31053
1.07519
0.909229
0.786746
0.696416
0.631842
0.588452
0.56251
0.550753
0.550193
0.557985
0.571344
0.587526
0.603886
0.617994
0.627787
0.631764
0.629216
0.620531
0.607577
4.80959
2.47567
1.74556
1.36143
1.1211
0.952463
0.829655
0.741308
0.680838
0.643444
0.625185
0.62263
0.632641
0.652211
0.678364
0.708124
0.738551
0.766839
0.790449
0.80726
0.815766
0.81534
0.80665
4.8548
2.53181
1.8017
1.41305
1.17035
1.0013
0.880275
0.795957
0.741565
0.712031
0.703163
0.711318
0.733158
0.765494
0.805184
0.849102
0.894166
0.9374
0.976025
1.00755
1.02991
1.04159
1.04206
4.8975
2.58448
1.85958
1.4697
1.22784
1.06133
0.944938
0.867362
0.821549
0.802061
0.804351
0.824464
0.858742
0.903744
0.956179
1.01288
1.07081
1.12709
1.17901
1.22408
1.26003
1.28483
1.29706
4.94193
2.63879
1.92461
1.53773
1.30122
1.14153
1.03386
0.966786
0.932863
0.926072
0.94132
0.974274
1.02066
1.07675
1.13917
1.20488
1.27115
1.33552
1.39573
1.44967
1.49527
1.53046
1.55333
4.99076
2.70602
2.00261
1.62713
1.40291
1.25661
1.16376
1.1126
1.09509
1.10415
1.1338
1.17894
1.23506
1.29827
1.36533
1.43356
1.50084
1.56546
1.62596
1.68101
1.72909
1.76843
1.79697
5.08818
2.80744
2.11097
1.75583
1.55406
1.43174
1.36342
1.33594
1.33972
1.36668
1.41005
1.46424
1.52467
1.58767
1.6505
1.71126
1.76882
1.82263
1.87246
1.91803
1.95876
1.99341
2.02003
5.26883
2.95876
2.27031
1.95479
1.79377
1.71253
1.68251
1.68787
1.71707
1.76102
1.81273
1.86708
1.92037
1.96999
2.0143
2.0527
2.08555
2.11387
2.13896
2.16193
2.18335
2.20276
2.21838
5.52869
3.14871
2.51345
2.27737
2.19162
2.17998
2.20816
2.25577
2.30919
2.35978
2.40286
2.43645
2.45994
2.47325
2.47671
2.47142
2.45948
2.44375
2.42724
2.41254
2.40138
2.39421
2.38944
5.89127
3.39256
2.91333
2.82546
2.87627
2.98096
3.09265
3.18401
3.24232
3.26565
3.25851
3.22787
3.18016
3.11978
3.04947
2.97179
2.89019
2.809
2.73259
2.6647
2.60793
2.56349
2.52994
6.51828
3.80567
3.607
3.78185
4.07463
4.36561
4.57958
4.68422
4.68227
4.59609
4.45386
4.28088
4.09525
3.9069
3.71973
3.53577
3.35807
3.19082
3.03842
2.90461
2.79207
2.70236
2.6342
7.66519
4.59127
4.81902
5.44043
6.13711
6.68976
6.97331
6.97576
6.75908
6.40643
5.99051
5.56307
5.15427
4.77604
4.42844
4.10828
3.81471
3.54898
3.31294
3.10844
2.93679
2.79918
2.69459
9.72862
5.99217
6.83679
8.16626
9.44053
10.2403
10.4038
10.0289
9.32936
8.49735
7.65832
6.87918
6.18718
5.58402
5.05773
4.59445
4.18548
3.82634
3.51429
3.24731
3.02388
2.84363
2.70621
13.0945
8.17491
9.86951
12.1569
13.9558
14.6404
14.2008
13.0216
11.5875
10.1811
8.92018
7.83198
6.90745
6.12446
5.45819
4.8863
4.39344
3.96933
3.60642
3.29882
3.04209
2.83338
2.67282
16.3155
10.9431
13.8778
16.9072
18.285
17.6688
15.9207
13.9501
12.1325
10.5537
9.2054
8.0575
7.08082
6.24413
5.52724
4.91472
4.39203
3.9473
3.57058
3.25344
2.98905
2.77193
2.60138
17.562
13.9731
18.5801
20.397
19.0949
16.8168
14.7469
12.9039
11.2395
9.78551
8.55614
7.52295
6.64112
5.86626
5.19316
4.62089
4.13755
3.72978
3.38645
3.09787
2.85597
2.65499
2.49482
17.496
15.89
20.2273
19.0361
16.7355
14.6143
12.6725
10.9192
9.38974
8.10702
7.06419
6.23194
5.54433
4.94648
4.43446
3.99815
3.62781
3.31564
3.05276
2.83059
2.64149
2.47975
2.34718
16.2592
17.2337
18.1198
16.2325
13.7681
11.3695
9.54684
8.12694
6.96957
6.02188
5.25765
4.64929
4.16309
3.77195
3.45488
3.19186
2.96812
2.77724
2.61468
2.476
2.35792
2.25865
2.17913
13.2946
15.5
14.2076
11.7305
9.16115
7.25279
6.0058
5.14682
4.49393
3.97055
3.54405
3.19839
2.92392
2.71331
2.56081
2.4469
2.35966
2.2981
2.25437
2.21607
2.18187
2.1557
2.13766
7.37347
8.61766
7.086
5.4068
4.1476
3.36426
2.93921
2.69624
2.52376
2.37843
2.24908
2.13448
2.0398
1.97026
1.93028
1.92494
1.96427
2.09258
2.24574
2.33311
2.38978
2.47007
2.52397
2.2746
1.85212
1.72082
1.69641
1.49977
1.29444
1.2384
1.3173
1.44277
1.56661
1.67422
1.74112
1.76638
1.78355
1.81076
1.80172
1.9641
2.6584
3.62724
3.68039
3.65131
4.18487
4.17451
0.879855
1.04475
1.23178
1.41786
0.534843
0.556109
0.55972
0.520809
0.329237
0.327526
0.316063
0.292134
0.231176
0.226006
0.217353
0.205681
0.182558
0.178368
0.173112
0.167073
0.156963
0.153958
0.150689
0.147263
0.142475
0.140357
0.138266
0.136242
0.133908
0.132449
0.131156
0.130046
0.128983
0.128067
0.127419
0.127049
0.126726
0.126326
0.126301
0.126669
0.126803
0.126963
0.127633
0.128854
0.12924
0.130059
0.131578
0.13387
0.134306
0.135932
0.138525
0.142213
0.14248
0.145095
0.149051
0.154568
0.154474
0.158256
0.163896
0.171751
0.171335
0.176371
0.183944
0.194612
0.194688
0.200803
0.210268
0.223905
0.2273
0.233817
0.244502
0.260459
0.274134
0.27971
0.290015
0.30638
0.343596
0.346426
0.353978
0.367681
0.447377
0.446011
0.448562
0.456417
0.596648
0.591115
0.587911
0.588261
0.795121
0.787426
0.780052
0.773941
1.03444
1.0277
1.01945
1.01025
1.29646
1.29329
1.28738
1.27896
1.56018
1.5615
1.55955
1.55431
1.80873
1.81358
1.81516
1.8134
2.03209
2.03778
2.04071
2.04083
2.22509
2.22791
2.22878
2.22785
2.38518
2.38108
2.37604
2.37051
2.51009
2.49547
2.48096
2.46742
2.59616
2.56868
2.54222
2.51828
2.63836
2.59768
2.5588
2.524
2.63421
2.58211
2.5329
2.4893
2.58996
2.53013
2.4744
2.42541
2.51404
2.45196
2.39629
2.34689
2.41291
2.35392
2.30084
2.2531
2.27697
2.22523
2.17898
2.13765
2.13866
2.10815
2.0808
2.05652
2.13557
2.13654
2.13948
2.14537
2.62118
2.69181
2.75698
2.8288
5.2087
5.13592
5.48767
5.69442
0.567679
0.281441
0.183908
0.144322
0.123381
0.11078
0.103064
0.0986068
0.0964544
0.095926
0.0964382
0.0974811
0.0985151
0.0988827
0.0977645
0.0941272
0.0866156
0.0741658
0.0628257
0.373344
0.231812
0.171656
0.142632
0.126297
0.116265
0.110142
0.106802
0.105607
0.106135
0.108
0.110816
0.114104
0.117147
0.118802
0.117187
0.109292
0.0921601
0.0721364
0.250438
0.19009
0.156999
0.138656
0.127639
0.120854
0.11702
0.115551
0.116174
0.118795
0.123303
0.129585
0.137407
0.146155
0.154313
0.15847
0.151962
0.126176
0.0822003
0.189236
0.163086
0.145602
0.134929
0.128525
0.125081
0.124054
0.125296
0.12891
0.135263
0.144726
0.157835
0.175128
0.196665
0.220725
0.241127
0.243358
0.204137
0.0982663
0.15901
0.146635
0.137695
0.132315
0.129795
0.129738
0.132106
0.137166
0.145507
0.158294
0.176905
0.203377
0.240232
0.289461
0.34948
0.40897
0.438488
0.385547
0.142033
0.142867
0.136784
0.132785
0.13128
0.132277
0.135915
0.142618
0.153207
0.169108
0.192843
0.228105
0.27998
0.355007
0.458788
0.589668
0.726975
0.817385
0.768643
0.290802
0.133812
0.131203
0.130536
0.132321
0.136972
0.145109
0.157774
0.176708
0.204845
0.24713
0.311814
0.409161
0.551802
0.750024
1.00109
1.26895
1.46165
1.46905
0.742061
0.128928
0.128769
0.130937
0.136126
0.145186
0.159396
0.180801
0.21277
0.260876
0.334096
0.447636
0.619456
0.869483
1.21454
1.65033
2.10551
2.39174
2.49601
1.72303
0.127043
0.12914
0.134342
0.1437
0.158714
0.181721
0.216489
0.269171
0.349659
0.473073
0.661086
0.9468
1.36195
1.93407
2.623
3.22253
3.40548
3.63979
3.17298
0.127827
0.132481
0.141482
0.156498
0.180087
0.216343
0.27188
0.35724
0.488486
0.688688
0.991099
1.45453
2.13642
3.01894
3.86399
4.34801
4.26826
4.72374
4.79087
0.131413
0.139336
0.153499
0.176595
0.212906
0.26934
0.356873
0.492256
0.699817
1.01525
1.49808
2.25424
3.30617
4.41347
5.12789
5.35992
5.02364
5.56939
6.37551
0.138241
0.150584
0.172018
0.206884
0.262154
0.348922
0.48417
0.692754
1.01116
1.4986
2.25775
3.41465
4.78215
5.85805
6.3085
6.25657
5.67105
6.08429
7.6626
0.148997
0.16744
0.199226
0.251225
0.334312
0.465126
0.667976
0.978131
1.45108
2.18114
3.3021
4.79715
6.24713
7.12885
7.31821
6.89086
6.16116
6.47348
8.63266
0.164569
0.191426
0.237854
0.314355
0.436861
0.628247
0.920415
1.36073
2.02695
3.03548
4.47035
6.0909
7.39041
7.98772
7.86399
7.14967
6.47451
6.8076
9.47085
0.185953
0.224186
0.290816
0.401137
0.576674
0.845586
1.2453
1.83302
2.69915
3.94104
5.51783
7.02808
7.99754
8.20559
7.81209
7.1065
6.71431
7.10226
10.1844
0.214015
0.266887
0.359989
0.514245
0.755957
1.11509
1.62911
2.35659
3.37939
4.73746
6.24998
7.46974
8.02672
7.88834
7.40703
6.94407
6.96282
7.35271
10.8203
0.249071
0.318988
0.443516
0.649093
0.96384
1.41281
2.02416
2.84528
3.93297
5.26043
6.54142
7.40502
7.61105
7.29546
6.91254
6.80305
7.24527
7.54737
11.3922
0.290678
0.376926
0.532511
0.787645
1.16688
1.68107
2.33753
3.15977
4.17093
5.29818
6.30171
6.902
6.93072
6.64504
6.49068
6.76242
7.54622
7.68473
11.8618
0.338807
0.435182
0.612342
0.901691
1.31943
1.85525
2.48448
3.19112
3.9813
4.81261
5.56973
6.09073
6.17423
6.10365
6.22474
6.82163
7.82915
7.75423
12.1772
0.397275
0.491928
0.672363
0.970038
1.39319
1.91101
2.46238
2.99507
3.53683
4.07169
4.63862
5.21427
5.55018
5.7847
6.11913
6.92463
8.02156
7.74163
12.3145
0.477328
0.556014
0.717552
0.994451
1.39358
1.87045
2.33343
2.71589
3.06337
3.3895
3.90275
4.62304
5.25795
5.74125
6.15718
7.02008
8.03385
7.61179
12.2653
0.596279
0.647571
0.770997
1.00022
1.34942
1.77898
2.17535
2.46195
2.67468
2.94962
3.58967
4.49677
5.365
5.96348
6.31617
7.07313
7.81768
7.3741
12.0326
0.768763
0.788414
0.86374
1.02721
1.30445
1.68888
2.06368
2.30723
2.47689
2.86539
3.69915
4.76709
5.73145
6.29161
6.50423
7.03927
7.44364
7.11184
11.677
0.995972
0.988216
1.01704
1.11162
1.3072
1.62166
1.97072
2.26218
2.55812
3.09515
4.02206
5.12866
6.01797
6.45726
6.57961
6.92532
7.05178
6.87973
11.3168
1.26209
1.23745
1.23093
1.26805
1.3797
1.5909
1.88138
2.21019
2.63167
3.29487
4.2287
5.22168
5.9661
6.32389
6.4596
6.7641
6.73312
6.71024
11.0581
1.54047
1.51112
1.48481
1.48082
1.52325
1.6369
1.83582
2.13132
2.57336
3.23547
4.09597
4.97265
5.63063
5.97906
6.19804
6.58645
6.50074
6.61938
10.9532
1.80489
1.77908
1.74631
1.7197
1.71737
1.76158
1.87812
2.10326
2.48752
3.07395
3.83043
4.60726
5.21185
5.57978
5.90801
6.43262
6.35697
6.60802
11.007
2.03633
2.01675
1.98598
1.95161
1.92657
1.92998
1.98955
2.14621
2.4489
2.93663
3.58599
4.27635
4.84397
5.23506
5.6638
6.32873
6.29449
6.6604
11.1857
2.22343
2.20859
2.1834
2.15066
2.11871
2.1028
2.12809
2.23157
2.46161
2.85826
3.41271
4.03282
4.5786
4.99479
5.50563
6.23891
6.28048
6.75224
11.4691
2.36091
2.34703
2.3275
2.3011
2.27201
2.25126
2.25912
2.32806
2.503
2.82562
3.30167
3.86648
4.40319
4.85353
5.4478
6.13566
6.23073
6.85115
11.8582
2.44741
2.4302
2.41465
2.39609
2.37517
2.35881
2.36227
2.41224
2.54862
2.81308
3.22321
3.73925
4.27047
4.76931
5.46467
6.01624
6.10749
6.9289
12.3782
2.48411
2.4604
2.44683
2.43581
2.42525
2.41856
2.42641
2.46879
2.57917
2.7966
3.14697
3.61357
4.13866
4.70373
5.47364
5.88092
5.99119
6.99669
13.0903
2.47492
2.44372
2.43062
2.42597
2.42598
2.43108
2.4475
2.48937
2.58162
2.75838
3.05186
3.47091
3.99906
4.64485
5.44306
5.74864
5.90975
7.10172
14.0203
2.42815
2.39037
2.37647
2.37664
2.38612
2.40304
2.42922
2.47277
2.55009
2.68939
2.93133
3.31939
3.88206
4.63546
5.4169
5.61363
5.85522
7.24487
15.0929
2.35604
2.31313
2.29686
2.30006
2.31695
2.34372
2.3783
2.42252
2.48641
2.5952
2.80567
3.20542
3.85126
4.7472
5.39415
5.41125
5.82761
7.45781
16.2476
2.27265
2.22159
2.19985
2.2009
2.21899
2.2487
2.28579
2.33002
2.39163
2.50054
2.72724
3.1896
3.93017
4.73422
5.02436
5.13797
5.85447
7.76981
17.3538
2.1799
2.12656
2.09965
2.09306
2.10176
2.12144
2.14926
2.18604
2.24297
2.35141
2.57059
2.99713
3.6202
4.07887
4.39872
4.92258
5.99029
8.15053
18.1564
2.07472
2.02871
2.00365
1.99603
2.00209
2.01845
2.04278
2.07508
2.12129
2.19972
2.34587
2.60701
2.99792
3.45876
4.0409
4.92367
6.2647
8.47936
18.3515
2.02066
1.99863
1.99164
1.99805
2.01569
2.04247
2.07517
2.11316
2.16057
2.22927
2.345
2.54213
2.85742
3.35304
4.13778
5.2799
6.67725
8.60834
17.6446
2.16297
2.19306
2.22677
2.26862
2.3182
2.37775
2.43413
2.48872
2.55216
2.63565
2.75507
2.94484
3.24614
3.80367
4.7983
6.11699
7.23135
8.41452
15.5319
2.96584
3.15358
3.27842
3.40506
3.53646
3.73651
3.84206
3.90444
4.02239
4.16295
4.31809
4.43357
4.53276
5.05865
6.32612
7.64413
7.73327
7.58976
11.1273
5.91602
7.32897
7.48893
7.59545
7.80182
9.62523
9.5326
8.83494
9.86403
9.20658
8.50601
7.50017
6.30073
5.93557
6.80636
7.37183
5.18538
4.16325
4.98159
)
;

boundaryField
{
    leftWall
    {
        type            epsilonWallFunction;
        value           nonuniform List<scalar> 
50
(
0.116569
0.16208
0.250274
0.345903
0.437703
0.526494
0.61149
0.693492
0.829052
0.986069
1.14948
1.32107
1.50158
1.69131
1.89076
2.10099
2.3237
2.56118
2.81602
3.09013
3.38318
3.68961
3.99309
4.26103
4.45014
4.53345
4.57402
4.63319
4.699
4.75841
4.80959
4.8548
4.8975
4.94193
4.99076
5.08818
5.26883
5.52869
5.89127
6.51828
7.66519
9.72862
13.0945
16.3155
17.562
17.496
16.2592
13.2946
7.37347
2.2746
)
;
    }
    rightWall
    {
        type            epsilonWallFunction;
        value           nonuniform List<scalar> 
50
(
0.0166855
0.0205397
0.0255157
0.0317216
0.0381515
0.0444158
0.0505024
0.0565118
0.0628257
0.0721364
0.0822003
0.0982663
0.142033
0.290802
0.742061
1.72303
3.17298
4.79087
6.37551
7.6626
8.63266
9.47085
10.1844
10.8203
11.3922
11.8618
12.1772
12.3145
12.2653
12.0326
11.677
11.3168
11.0581
10.9532
11.007
11.1857
11.4691
11.8582
12.3782
13.0903
14.0203
15.0929
16.2476
17.3538
18.1564
18.3515
17.6446
15.5319
11.1273
4.98159
)
;
    }
    lowerWall
    {
        type            epsilonWallFunction;
        value           nonuniform List<scalar> 
62
(
0.116569
0.244571
0.36026
0.472133
0.568058
0.642815
0.699441
0.749626
0.792921
0.829505
0.863632
0.906586
0.958155
1.0102
1.05355
1.07599
1.06142
0.994117
0.863854
0.683863
0.493431
0.300299
0.0349107
0.0349107
0.141113
0.179561
0.189513
0.179406
0.162743
0.152318
0.181551
0.879855
1.04475
1.23178
1.41786
0.0336886
0.0896375
0.177962
0.273189
0.376543
0.49468
0.635742
0.830548
0.0336886
0.16667
0.238973
0.281123
0.308196
0.325104
0.333532
0.335305
0.332868
0.325687
0.312435
0.293302
0.268134
0.236826
0.199992
0.162028
0.152457
0.0325695
0.0166855
)
;
    }
    atmosphere
    {
        type            inletOutlet;
        inletValue      uniform 0.1;
        value           nonuniform List<scalar> 
46
(
0.1
0.1
0.1
0.1
0.1
0.1
0.1
0.1
0.1
0.1
0.1
0.1
0.1
0.1
0.1
1.80172
1.9641
2.6584
0.1
0.1
3.65131
0.1
4.17451
0.1
0.1
5.48767
5.69442
5.91602
0.1
0.1
7.59545
7.80182
0.1
0.1
8.83494
0.1
9.20658
8.50601
7.50017
6.30073
5.93557
6.80636
7.37183
0.1
0.1
4.98159
)
;
    }
    defaultFaces
    {
        type            empty;
    }
}


// ************************************************************************* //
