/*--------------------------------*- C++ -*----------------------------------*\
  =========                 |
  \\      /  F ield         | OpenFOAM: The Open Source CFD Toolbox
   \\    /   O peration     | Website:  https://openfoam.org
    \\  /    A nd           | Version:  9
     \\/     M anipulation  |
\*---------------------------------------------------------------------------*/
FoamFile
{
    format      ascii;
    class       volScalarField;
    location    "0.6";
    object      k;
}
// * * * * * * * * * * * * * * * * * * * * * * * * * * * * * * * * * * * * * //

dimensions      [0 2 -2 0 0 0 0];

internalField   nonuniform List<scalar> 
2268
(
0.0110842
0.0148044
0.0191923
0.0229851
0.0260282
0.0282822
0.0299296
0.0313506
0.0325437
0.0335324
0.0344662
0.0356307
0.036968
0.0382791
0.0393478
0.0398849
0.0395066
0.0378049
0.034415
0.0294549
0.0236934
0.0170159
0.0107389
0.0185347
0.0348343
0.045118
0.0526987
0.0582858
0.0624596
0.0655984
0.0680113
0.070121
0.0720606
0.0739235
0.0757634
0.0775649
0.0790662
0.0798671
0.0793968
0.0769461
0.0718924
0.063988
0.0530365
0.0401195
0.0288684
0.0169815
0.0247196
0.0483914
0.0610097
0.0699657
0.0763704
0.0809507
0.0842713
0.0867774
0.0889485
0.0909584
0.0928952
0.0947636
0.0964801
0.0977859
0.0981669
0.0968993
0.0931343
0.0861939
0.0759604
0.0630742
0.0483481
0.0345781
0.0199061
0.0306742
0.0592562
0.0734029
0.0831253
0.0899068
0.0945844
0.097835
0.100188
0.102152
0.103939
0.105635
0.107213
0.108533
0.109291
0.108949
0.106689
0.101603
0.0929967
0.0808657
0.0663913
0.0507875
0.0362624
0.0206466
0.035889
0.0687437
0.0840892
0.0943027
0.101272
0.105922
0.108991
0.111063
0.112652
0.114021
0.11525
0.116286
0.116946
0.116878
0.115512
0.112053
0.105599
0.0954599
0.0816968
0.0659336
0.0498787
0.0354602
0.0199223
0.0405789
0.0773167
0.0937386
0.104301
0.111342
0.115875
0.118683
0.120386
0.121472
0.122273
0.122857
0.123153
0.122942
0.121835
0.119243
0.114392
0.10645
0.0948884
0.0800302
0.0635112
0.0475727
0.0337623
0.0186611
0.0448637
0.0852359
0.102693
0.113524
0.120548
0.124889
0.127362
0.128612
0.129112
0.129235
0.129047
0.128462
0.127237
0.124967
0.121064
0.114804
0.105476
0.0927642
0.0772652
0.0607219
0.0455276
0.0326485
0.0178523
0.0487872
0.0927005
0.111165
0.122211
0.129145
0.133224
0.135298
0.136024
0.13588
0.135249
0.134208
0.132663
0.130364
0.126909
0.121744
0.114238
0.103861
0.0905708
0.0752635
0.0597802
0.0462123
0.0349012
0.0200413
0.0102279
0.011597
0.0147384
0.0164099
0.0174468
0.0180858
0.0184067
0.0184821
0.0183965
0.0181476
0.0176686
0.0169555
0.0159856
0.0147284
0.0131689
0.0114514
0.0108417
0.00989352
0.00462613
0.0135815
0.0292569
0.0334581
0.0339874
0.0338209
0.033655
0.0334961
0.0332856
0.0329755
0.0325001
0.0318347
0.0308979
0.0295801
0.0277437
0.0252314
0.0218994
0.0176295
0.0126726
0.00505764
0.02146
0.0412133
0.0455962
0.0454751
0.0444722
0.0435421
0.0427529
0.0420558
0.0413866
0.0406593
0.0397794
0.0386156
0.0370058
0.0347518
0.0316366
0.0274589
0.0220363
0.0151955
0.00586052
0.0285427
0.051374
0.0553645
0.0547163
0.0529178
0.0512134
0.0497871
0.0486169
0.0476122
0.0466443
0.045563
0.0441954
0.042339
0.0397538
0.0361873
0.0314114
0.025227
0.0173752
0.00678451
0.035336
0.0610727
0.0640613
0.0627832
0.0602367
0.057842
0.0558484
0.054248
0.052923
0.0517093
0.050417
0.048839
0.0467428
0.0438612
0.0399234
0.0346933
0.0279565
0.0193674
0.00767927
0.0423655
0.0710178
0.0722318
0.0701028
0.0668557
0.0638642
0.0613762
0.0593836
0.0577497
0.056285
0.0547723
0.0529784
0.0506499
0.047503
0.0432564
0.037665
0.0304802
0.0212483
0.00850571
0.0500435
0.0813501
0.0800111
0.0767895
0.0729145
0.069428
0.0665206
0.0641748
0.0622499
0.0605408
0.0588106
0.056809
0.0542691
0.0508968
0.0463996
0.040511
0.0329229
0.0230599
0.00927501
0.0597195
0.0914998
0.0871353
0.08276
0.0783995
0.074542
0.0712992
0.0686447
0.0664554
0.0645262
0.0625987
0.060415
0.0577006
0.0541535
0.0494646
0.0433284
0.0353535
0.0248426
0.0100067
0.0549313
0.103931
0.123892
0.135197
0.141889
0.145455
0.146809
0.146629
0.145404
0.143448
0.140972
0.13788
0.133944
0.128812
0.122047
0.113232
0.10219
0.0893503
0.0760508
0.0642217
0.0552096
0.0497876
0.0486149
0.0616576
0.116754
0.138843
0.150615
0.156992
0.159817
0.160137
0.158689
0.156002
0.152418
0.148119
0.143206
0.137589
0.131114
0.123664
0.115278
0.106319
0.0975797
0.0901457
0.0849883
0.0824027
0.0817091
0.0830797
0.0682756
0.128959
0.152963
0.165042
0.170908
0.172777
0.171881
0.169052
0.164889
0.159804
0.154064
0.147823
0.141177
0.134197
0.127004
0.119835
0.113092
0.107268
0.102731
0.0995551
0.0976145
0.0970383
0.0979783
0.074883
0.140731
0.166389
0.178587
0.183769
0.184532
0.182318
0.178084
0.172515
0.166105
0.159209
0.152079
0.144913
0.137883
0.131176
0.125011
0.119609
0.115133
0.111651
0.109136
0.107549
0.106901
0.107159
0.0815171
0.152127
0.179169
0.191303
0.19567
0.195244
0.191688
0.186093
0.179234
0.171682
0.163858
0.156078
0.148584
0.14157
0.135196
0.129586
0.124819
0.12091
0.11782
0.115476
0.113808
0.112748
0.112183
0.088192
0.163175
0.191341
0.203248
0.206715
0.205078
0.200215
0.193346
0.185328
0.176792
0.168201
0.159899
0.152133
0.145077
0.138837
0.133461
0.128937
0.125207
0.122182
0.119762
0.117853
0.116364
0.115184
0.0949248
0.173912
0.202961
0.214502
0.217023
0.214201
0.208108
0.200075
0.191027
0.181633
0.17238
0.163614
0.155567
0.148381
0.142114
0.136759
0.132251
0.128493
0.12537
0.122772
0.120596
0.118751
0.117154
0.101747
0.184401
0.2141
0.225163
0.226727
0.222781
0.215559
0.206481
0.19652
0.186369
0.176519
0.167308
0.158949
0.15155
0.145134
0.139656
0.135024
0.131119
0.127816
0.124998
0.122566
0.120439
0.118557
0.108705
0.19473
0.224848
0.235337
0.235958
0.230974
0.222741
0.21274
0.201971
0.191139
0.180734
0.171081
0.162372
0.154691
0.148035
0.142338
0.137489
0.133361
0.129827
0.12677
0.124098
0.121743
0.119663
0.115861
0.205007
0.235297
0.245128
0.244844
0.238925
0.229807
0.219001
0.20752
0.196073
0.185143
0.175044
0.165953
0.157935
0.150971
0.144982
0.139851
0.135448
0.131645
0.128335
0.125433
0.122886
0.120667
0.123279
0.215355
0.245534
0.254634
0.2535
0.246763
0.236889
0.225393
0.213291
0.201286
0.18986
0.179316
0.169821
0.161428
0.154108
0.147775
0.142311
0.137587
0.133484
0.129902
0.126772
0.124051
0.121726
0.131007
0.225906
0.255635
0.263937
0.262026
0.254598
0.2441
0.232027
0.219389
0.206888
0.195001
0.184027
0.174123
0.165336
0.157629
0.150915
0.145077
0.139994
0.135556
0.131678
0.128304
0.125409
0.12299
0.139048
0.236795
0.265654
0.27311
0.270515
0.262529
0.251533
0.23899
0.225903
0.212975
0.20068
0.189313
0.179022
0.169847
0.161747
0.154632
0.148392
0.142913
0.138102
0.13389
0.130242
0.127148
0.124618
0.147304
0.248143
0.275627
0.282218
0.27905
0.270636
0.259257
0.246347
0.232904
0.219634
0.207011
0.195321
0.184703
0.175185
0.166719
0.159212
0.152558
0.146655
0.141427
0.136829
0.13285
0.129502
0.126809
0.155475
0.260014
0.285574
0.291332
0.287712
0.278981
0.267317
0.254134
0.240436
0.226936
0.214102
0.20221
0.19138
0.18162
0.172868
0.165022
0.157975
0.151637
0.14595
0.1409
0.136504
0.132806
0.129852
0.162937
0.272317
0.295517
0.300539
0.296569
0.287596
0.275719
0.262353
0.24852
0.234937
0.222064
0.210155
0.199301
0.18948
0.180601
0.172542
0.165183
0.158439
0.152271
0.146694
0.141767
0.137575
0.134197
0.168754
0.284537
0.305494
0.309915
0.305649
0.296462
0.284423
0.270971
0.257151
0.243683
0.231009
0.219351
0.208757
0.199162
0.190426
0.182387
0.174899
0.167862
0.161245
0.15509
0.149504
0.144622
0.140584
0.172046
0.295577
0.315523
0.319448
0.314877
0.305481
0.293339
0.279927
0.266316
0.25322
0.24106
0.230012
0.220075
0.211119
0.20294
0.195312
0.188031
0.180959
0.174045
0.167345
0.161002
0.155217
0.150208
0.173109
0.304339
0.325446
0.32891
0.324042
0.314481
0.302344
0.289156
0.27601
0.263615
0.252362
0.242381
0.233607
0.225838
0.218787
0.21214
0.205607
0.198969
0.192121
0.185089
0.178028
0.171194
0.164892
0.174275
0.311375
0.334687
0.337885
0.332861
0.323283
0.311347
0.298642
0.286287
0.274988
0.265104
0.256719
0.249703
0.243775
0.238555
0.233624
0.228579
0.223088
0.216943
0.210086
0.202626
0.194829
0.187068
0.175814
0.317376
0.342722
0.346049
0.34115
0.33182
0.320373
0.308485
0.297309
0.287551
0.279541
0.273316
0.268683
0.265283
0.262644
0.260235
0.25753
0.254068
0.249502
0.243642
0.236486
0.228226
0.219232
0.177287
0.322302
0.349523
0.353376
0.348961
0.340227
0.329639
0.318968
0.309408
0.301661
0.296027
0.292496
0.290817
0.290556
0.291155
0.291984
0.292405
0.29183
0.289774
0.285896
0.280036
0.27224
0.262778
0.178531
0.326228
0.355353
0.360126
0.356608
0.348896
0.339609
0.330613
0.323133
0.317857
0.315049
0.314647
0.316341
0.319631
0.323888
0.328403
0.332456
0.335362
0.336526
0.335476
0.331897
0.325658
0.316856
0.179565
0.329302
0.360634
0.366783
0.364673
0.358508
0.351047
0.344235
0.339306
0.336914
0.337273
0.340265
0.345517
0.352474
0.360452
0.368699
0.37645
0.382974
0.387617
0.389825
0.389165
0.385351
0.378289
0.180448
0.331791
0.365932
0.374067
0.37404
0.370085
0.365076
0.361002
0.359077
0.359897
0.363609
0.370034
0.378734
0.389108
0.400448
0.412
0.423007
0.432751
0.440578
0.445913
0.448268
0.447247
0.442597
0.18124
0.334101
0.371982
0.383004
0.385989
0.38509
0.38327
0.382525
0.38401
0.388241
0.395285
0.404917
0.416608
0.429742
0.443634
0.457578
0.470889
0.482924
0.493095
0.50087
0.505765
0.507341
0.505241
0.181969
0.336987
0.37956
0.395101
0.402367
0.405595
0.407815
0.411002
0.416219
0.423873
0.433935
0.446096
0.459859
0.47464
0.48983
0.504834
0.519093
0.532095
0.54337
0.552477
0.558987
0.562465
0.562505
0.18343
0.340938
0.39048
0.412718
0.425886
0.434555
0.441752
0.449369
0.458365
0.469048
0.481329
0.4949
0.509344
0.5242
0.53901
0.553351
0.566846
0.579165
0.589999
0.599041
0.605951
0.610332
0.611737
0.186796
0.347601
0.407308
0.439288
0.460509
0.476159
0.489248
0.501552
0.513925
0.526631
0.539641
0.552798
0.565897
0.578709
0.591003
0.602584
0.613303
0.623044
0.631694
0.639102
0.645045
0.649185
0.651037
0.19235
0.360001
0.434714
0.480158
0.512114
0.536482
0.556201
0.57287
0.587299
0.599919
0.61104
0.620936
0.629826
0.637842
0.645039
0.651463
0.657198
0.662356
0.667023
0.671213
0.674826
0.677598
0.679006
0.200184
0.38282
0.479688
0.542822
0.588908
0.623951
0.650467
0.669855
0.683238
0.691774
0.696678
0.699091
0.699932
0.699796
0.699008
0.697788
0.696389
0.695102
0.69418
0.693773
0.693885
0.694341
0.694592
0.212832
0.423202
0.550097
0.636659
0.701317
0.748798
0.780563
0.798247
0.80441
0.802122
0.794387
0.783722
0.77194
0.760075
0.748559
0.737594
0.727438
0.718431
0.71089
0.705025
0.7009
0.698433
0.697091
0.234764
0.489698
0.654657
0.771669
0.859321
0.918638
0.949735
0.956388
0.945078
0.922611
0.894619
0.865158
0.836742
0.810524
0.78668
0.765071
0.74574
0.728896
0.714749
0.70345
0.695046
0.689527
0.686459
0.271238
0.588241
0.798798
0.951963
1.06241
1.12516
1.14125
1.12142
1.07993
1.02879
0.975847
0.925564
0.880107
0.840037
0.804895
0.773977
0.746923
0.723675
0.70425
0.688638
0.67678
0.668652
0.664028
0.326163
0.714809
0.974302
1.16155
1.27906
1.32002
1.29588
1.23273
1.15549
1.07826
1.00694
0.943281
0.887506
0.83905
0.797071
0.760649
0.729189
0.702388
0.680075
0.662106
0.648337
0.638627
0.632931
0.380328
0.844947
1.153
1.34704
1.41997
1.38737
1.30383
1.20937
1.12047
1.04117
0.971329
0.909577
0.854889
0.806258
0.763442
0.726238
0.694224
0.667097
0.644624
0.626578
0.612721
0.602722
0.596474
0.408714
0.932734
1.28844
1.40517
1.3509
1.25175
1.16241
1.08264
1.00859
0.941504
0.882686
0.831138
0.784863
0.741981
0.703401
0.669949
0.641488
0.617634
0.598083
0.582496
0.570511
0.561754
0.556185
0.411084
0.911565
1.22251
1.21066
1.12866
1.04827
0.974688
0.90714
0.84571
0.791594
0.745463
0.70701
0.673294
0.641869
0.613939
0.589805
0.569402
0.552669
0.539295
0.528869
0.520927
0.514962
0.511038
0.390373
0.833066
0.978018
0.955898
0.882882
0.801806
0.740856
0.693285
0.652563
0.616771
0.585761
0.559411
0.537128
0.518653
0.503795
0.491865
0.482153
0.474459
0.468598
0.464356
0.461606
0.460236
0.460183
0.338809
0.670403
0.717725
0.673969
0.598087
0.537339
0.500818
0.478136
0.460759
0.445274
0.430789
0.417561
0.406431
0.398414
0.39443
0.393293
0.394095
0.396677
0.400159
0.40348
0.406723
0.410324
0.414121
0.222289
0.410229
0.405917
0.365633
0.32834
0.306298
0.299653
0.300697
0.302942
0.303694
0.302516
0.299899
0.297259
0.296079
0.297794
0.304587
0.315913
0.333913
0.351921
0.36334
0.371706
0.381116
0.387642
0.103376
0.1532
0.168012
0.183962
0.183994
0.179428
0.181711
0.191407
0.202854
0.212952
0.221181
0.226238
0.227873
0.227957
0.228332
0.239495
0.264401
0.320382
0.384388
0.386687
0.388451
0.41629
0.417935
0.057733
0.0648388
0.0724254
0.0795558
0.0862034
0.0888933
0.0928808
0.0977874
0.100296
0.102063
0.10402
0.105765
0.107984
0.108492
0.108882
0.109073
0.111925
0.111743
0.111489
0.11114
0.114306
0.113763
0.113201
0.112611
0.115924
0.115185
0.114464
0.113752
0.117125
0.11628
0.115478
0.114709
0.118119
0.117222
0.116389
0.115605
0.119067
0.118154
0.117321
0.116551
0.120106
0.119198
0.118386
0.117648
0.121363
0.120471
0.11969
0.118995
0.122974
0.122094
0.121344
0.120699
0.125111
0.124224
0.123493
0.122895
0.128021
0.127085
0.126343
0.125779
0.1321
0.131036
0.13022
0.12965
0.138003
0.13668
0.13567
0.134993
0.146832
0.145044
0.143631
0.142643
0.160344
0.157817
0.155696
0.154055
0.181034
0.177496
0.174324
0.171609
0.211694
0.207034
0.202597
0.198482
0.254215
0.248642
0.243047
0.237534
0.308177
0.302235
0.295972
0.289485
0.370481
0.364841
0.358609
0.351858
0.436355
0.431548
0.425964
0.419653
0.500841
0.497096
0.49248
0.487012
0.559804
0.557113
0.553531
0.549061
0.610305
0.608484
0.605819
0.602317
0.650333
0.649086
0.647089
0.644373
0.678509
0.677518
0.675899
0.673724
0.693915
0.692921
0.691423
0.68956
0.696052
0.694923
0.693393
0.691706
0.685061
0.683818
0.682269
0.68078
0.662336
0.661095
0.659699
0.658599
0.631068
0.629948
0.628868
0.628281
0.594492
0.593623
0.593172
0.593222
0.554481
0.553846
0.553669
0.553987
0.509571
0.50899
0.508924
0.509409
0.460775
0.461504
0.462472
0.463751
0.41702
0.419495
0.421931
0.424508
0.396039
0.401719
0.406136
0.410925
0.471063
0.462198
0.482911
0.49219
0.0857674
0.102161
0.0961626
0.090746
0.0859846
0.0817773
0.0781578
0.0750957
0.0724858
0.070151
0.0678533
0.0653356
0.0623143
0.0584728
0.0534711
0.0469336
0.0383479
0.0269066
0.0107486
0.10257
0.105026
0.10132
0.0970908
0.0929808
0.0891107
0.085588
0.0824425
0.0796223
0.0770219
0.0744641
0.0717105
0.0684718
0.0644062
0.0591159
0.0521108
0.0426916
0.0299114
0.0118274
0.107054
0.106649
0.104254
0.101281
0.0980688
0.094822
0.0916941
0.0887605
0.086018
0.0834142
0.0808062
0.0779729
0.074629
0.0704261
0.0649381
0.0575882
0.0474804
0.0334373
0.0130401
0.109037
0.108164
0.106444
0.104289
0.101858
0.0992987
0.0967304
0.0942219
0.0917761
0.0893588
0.0868419
0.0840299
0.0806826
0.0765261
0.0712093
0.0641281
0.0540668
0.0391058
0.0152424
0.110583
0.109508
0.108138
0.106541
0.104764
0.102875
0.100932
0.0989574
0.0969251
0.0947931
0.092457
0.0898048
0.0867816
0.0834103
0.0796353
0.0747957
0.0667522
0.0515339
0.0212713
0.11181
0.11065
0.109497
0.10832
0.107102
0.105837
0.104513
0.103093
0.101513
0.0997179
0.0977309
0.0957127
0.0941467
0.0937888
0.0950616
0.0966584
0.0939622
0.0792873
0.0373557
0.112824
0.111651
0.110679
0.109857
0.109127
0.108427
0.107679
0.106791
0.10569
0.104415
0.103364
0.10343
0.106243
0.113686
0.12627
0.140442
0.146163
0.131585
0.0695074
0.113727
0.112599
0.111816
0.111325
0.111042
0.110859
0.110656
0.110333
0.109921
0.109818
0.111324
0.116835
0.129656
0.152603
0.185017
0.217907
0.229967
0.209114
0.114471
0.114619
0.113586
0.11302
0.112867
0.113025
0.113368
0.113785
0.114293
0.115307
0.118133
0.12563
0.142766
0.174479
0.223309
0.283036
0.331374
0.334202
0.301798
0.161446
0.115598
0.114704
0.114395
0.11462
0.115281
0.116284
0.117655
0.119808
0.12408
0.133485
0.153328
0.191648
0.254207
0.336698
0.415086
0.457293
0.436948
0.399877
0.203569
0.116755
0.116043
0.116051
0.116753
0.118102
0.120154
0.123329
0.128949
0.140054
0.162202
0.203799
0.275986
0.377858
0.484791
0.557144
0.579602
0.532526
0.481699
0.239788
0.118183
0.117706
0.118132
0.119514
0.121956
0.125888
0.132563
0.144889
0.168334
0.211387
0.285316
0.399982
0.533383
0.641678
0.694923
0.692952
0.617794
0.536993
0.264487
0.119988
0.119819
0.120843
0.12328
0.127576
0.134875
0.147796
0.171379
0.213706
0.285771
0.399068
0.547247
0.690295
0.785147
0.817271
0.78292
0.685775
0.579826
0.284344
0.122303
0.122559
0.124473
0.128599
0.135983
0.148865
0.171545
0.211074
0.277274
0.381098
0.526788
0.687965
0.820957
0.894427
0.900772
0.838993
0.733875
0.614889
0.300919
0.12532
0.126157
0.129398
0.136144
0.148321
0.169419
0.205101
0.263368
0.353802
0.483336
0.643986
0.79806
0.907189
0.951581
0.934709
0.865865
0.770993
0.644431
0.314979
0.12931
0.13089
0.135987
0.146479
0.165284
0.196801
0.247
0.323189
0.432431
0.575181
0.732232
0.865109
0.944364
0.962423
0.935193
0.877473
0.804789
0.669564
0.327509
0.134676
0.137042
0.144395
0.159512
0.186067
0.228459
0.29152
0.380383
0.498541
0.640463
0.780092
0.886742
0.94038
0.944056
0.921143
0.885742
0.839175
0.691011
0.338373
0.142076
0.144897
0.154308
0.173871
0.207395
0.258112
0.328472
0.420577
0.534424
0.661064
0.779186
0.866278
0.90718
0.91244
0.90599
0.89832
0.875036
0.709675
0.346712
0.152703
0.155012
0.165184
0.187273
0.224618
0.278546
0.348254
0.431867
0.527911
0.630706
0.729328
0.811971
0.859134
0.882106
0.898345
0.917329
0.909878
0.72481
0.351811
0.168715
0.168924
0.177437
0.198536
0.23506
0.286549
0.348755
0.416349
0.48974
0.56661
0.651095
0.743505
0.815457
0.865828
0.901634
0.939094
0.937248
0.733765
0.353439
0.193323
0.189775
0.193888
0.209942
0.240789
0.285029
0.335949
0.386899
0.439692
0.496593
0.58177
0.695417
0.79818
0.87281
0.917308
0.959457
0.949041
0.73172
0.351358
0.229791
0.221532
0.219456
0.227405
0.248496
0.282096
0.320604
0.357683
0.394659
0.448285
0.553028
0.691324
0.820067
0.907064
0.945131
0.975423
0.94061
0.718149
0.345785
0.279498
0.266661
0.258194
0.257323
0.267114
0.289037
0.317341
0.344145
0.374557
0.444351
0.575766
0.73427
0.873503
0.955618
0.977057
0.98304
0.917321
0.699833
0.338381
0.340571
0.32428
0.310406
0.301823
0.301631
0.312512
0.332319
0.358523
0.40209
0.492856
0.63677
0.79813
0.926759
0.992438
0.999158
0.982565
0.890614
0.682042
0.331539
0.408261
0.390307
0.372772
0.358328
0.350413
0.352381
0.366543
0.396662
0.457192
0.560449
0.700717
0.84443
0.951702
1.00189
1.00238
0.976745
0.86899
0.669259
0.327055
0.476536
0.458892
0.439953
0.422267
0.409095
0.404514
0.413783
0.44497
0.508341
0.607641
0.733509
0.857402
0.947648
0.98881
0.990415
0.968337
0.85416
0.662175
0.325618
0.540124
0.52432
0.506026
0.487385
0.471438
0.462486
0.466792
0.493384
0.54879
0.635982
0.745114
0.852003
0.929753
0.966152
0.973242
0.961111
0.846165
0.659678
0.327121
0.595069
0.581821
0.565545
0.547814
0.531229
0.519806
0.519562
0.538364
0.582793
0.655737
0.748996
0.841915
0.910641
0.944434
0.958015
0.957645
0.844592
0.660677
0.330859
0.638659
0.628138
0.614646
0.599133
0.583605
0.571469
0.567963
0.579642
0.613528
0.673038
0.75232
0.834095
0.896766
0.929498
0.948917
0.954527
0.846693
0.66401
0.336548
0.669239
0.661333
0.650984
0.638525
0.625322
0.61403
0.608859
0.615568
0.640877
0.688927
0.756331
0.829201
0.8881
0.921612
0.94755
0.948581
0.844891
0.668681
0.344269
0.686004
0.680523
0.673453
0.664546
0.654566
0.645428
0.640393
0.644285
0.663239
0.701875
0.759006
0.824058
0.880234
0.916879
0.951707
0.939589
0.835684
0.674207
0.35452
0.688914
0.685738
0.681983
0.676876
0.670681
0.664659
0.661253
0.664144
0.678671
0.709526
0.757315
0.814791
0.868841
0.911598
0.9537
0.928717
0.827013
0.68113
0.36834
0.678835
0.677952
0.677444
0.676149
0.673972
0.671599
0.67067
0.673918
0.685433
0.709637
0.748732
0.799304
0.853075
0.904685
0.950697
0.917899
0.821955
0.689844
0.385859
0.657769
0.659104
0.661529
0.663782
0.665515
0.666922
0.668842
0.673049
0.682356
0.700697
0.732182
0.778493
0.836503
0.900759
0.94647
0.905534
0.818893
0.702603
0.405511
0.628557
0.631705
0.636356
0.641576
0.64672
0.651545
0.656164
0.661341
0.669018
0.682899
0.70995
0.758053
0.826611
0.907362
0.939752
0.883427
0.816191
0.720854
0.426114
0.594182
0.597745
0.603353
0.610083
0.617195
0.624076
0.630393
0.636524
0.644484
0.658762
0.688397
0.745172
0.825298
0.895348
0.892691
0.848737
0.814359
0.74451
0.445323
0.55542
0.5591
0.564565
0.570941
0.577548
0.583874
0.589723
0.595531
0.603385
0.618142
0.64718
0.700227
0.76822
0.803192
0.807913
0.810008
0.813858
0.767972
0.458984
0.511252
0.514967
0.519913
0.525635
0.531602
0.53738
0.542764
0.547959
0.554109
0.564232
0.582562
0.614
0.656413
0.696992
0.735542
0.778907
0.813884
0.781459
0.462462
0.46669
0.471001
0.476065
0.481675
0.487538
0.49334
0.498743
0.503748
0.508971
0.516233
0.528868
0.550219
0.583033
0.629897
0.693289
0.765086
0.812027
0.775139
0.450996
0.429496
0.43519
0.440665
0.446317
0.452228
0.458336
0.463715
0.468513
0.473541
0.480273
0.491585
0.510847
0.542993
0.599643
0.686299
0.775151
0.806659
0.740941
0.41505
0.419833
0.430455
0.436909
0.442955
0.449692
0.45935
0.464163
0.467331
0.473397
0.483261
0.497639
0.516839
0.545513
0.613815
0.730452
0.818968
0.779312
0.652945
0.335595
0.497273
0.55001
0.54865
0.554259
0.559022
0.621194
0.610922
0.586759
0.619873
0.603719
0.591723
0.573366
0.5562
0.598285
0.710242
0.750446
0.530704
0.361474
0.203671
)
;

boundaryField
{
    leftWall
    {
        type            kqRWallFunction;
        value           nonuniform List<scalar> 
50
(
0.0110842
0.0185347
0.0247196
0.0306742
0.035889
0.0405789
0.0448637
0.0487872
0.0549313
0.0616576
0.0682756
0.074883
0.0815171
0.088192
0.0949248
0.101747
0.108705
0.115861
0.123279
0.131007
0.139048
0.147304
0.155475
0.162937
0.168754
0.172046
0.173109
0.174275
0.175814
0.177287
0.178531
0.179565
0.180448
0.18124
0.181969
0.18343
0.186796
0.19235
0.200184
0.212832
0.234764
0.271238
0.326163
0.380328
0.408714
0.411084
0.390373
0.338809
0.222289
0.103376
)
;
    }
    rightWall
    {
        type            kqRWallFunction;
        value           nonuniform List<scalar> 
50
(
0.00462613
0.00505764
0.00586052
0.00678451
0.00767927
0.00850571
0.00927501
0.0100067
0.0107486
0.0118274
0.0130401
0.0152424
0.0212713
0.0373557
0.0695074
0.114471
0.161446
0.203569
0.239788
0.264487
0.284344
0.300919
0.314979
0.327509
0.338373
0.346712
0.351811
0.353439
0.351358
0.345785
0.338381
0.331539
0.327055
0.325618
0.327121
0.330859
0.336548
0.344269
0.35452
0.36834
0.385859
0.405511
0.426114
0.445323
0.458984
0.462462
0.450996
0.41505
0.335595
0.203671
)
;
    }
    lowerWall
    {
        type            kqRWallFunction;
        value           nonuniform List<scalar> 
62
(
0.0110842
0.0148044
0.0191923
0.0229851
0.0260282
0.0282822
0.0299296
0.0313506
0.0325437
0.0335324
0.0344662
0.0356307
0.036968
0.0382791
0.0393478
0.0398849
0.0395066
0.0378049
0.034415
0.0294549
0.0236934
0.0170159
0.0107389
0.0107389
0.0169815
0.0199061
0.0206466
0.0199223
0.0186611
0.0178523
0.0200413
0.057733
0.0648388
0.0724254
0.0795558
0.0102279
0.0135815
0.02146
0.0285427
0.035336
0.0423655
0.0500435
0.0597195
0.0102279
0.011597
0.0147384
0.0164099
0.0174468
0.0180858
0.0184067
0.0184821
0.0183965
0.0181476
0.0176686
0.0169555
0.0159856
0.0147284
0.0131689
0.0114514
0.0108417
0.00989352
0.00462613
)
;
    }
    atmosphere
    {
        type            inletOutlet;
        inletValue      uniform 0.1;
        value           nonuniform List<scalar> 
46
(
0.1
0.1
0.1
0.1
0.1
0.1
0.1
0.1
0.1
0.1
0.1
0.1
0.1
0.1
0.1
0.239495
0.264401
0.320382
0.1
0.1
0.388451
0.1
0.417935
0.1
0.1
0.482911
0.49219
0.497273
0.1
0.1
0.554259
0.559022
0.1
0.1
0.586759
0.1
0.603719
0.591723
0.573366
0.5562
0.598285
0.710242
0.750446
0.1
0.1
0.203671
)
;
    }
    defaultFaces
    {
        type            empty;
    }
}


// ************************************************************************* //
