/*--------------------------------*- C++ -*----------------------------------*\
  =========                 |
  \\      /  F ield         | OpenFOAM: The Open Source CFD Toolbox
   \\    /   O peration     | Website:  https://openfoam.org
    \\  /    A nd           | Version:  9
     \\/     M anipulation  |
\*---------------------------------------------------------------------------*/
FoamFile
{
    format      ascii;
    class       volScalarField;
    location    "0.6";
    object      nut;
}
// * * * * * * * * * * * * * * * * * * * * * * * * * * * * * * * * * * * * * //

dimensions      [0 2 -1 0 0 0 0];

internalField   nonuniform List<scalar> 
2268
(
6.00996e-05
5.72593e-05
6.93125e-05
7.82155e-05
8.4472e-05
8.92613e-05
9.34419e-05
9.72276e-05
0.000100575
0.000103545
0.000106152
0.000108358
0.000110087
0.000111234
0.000111648
0.000111345
0.000109833
0.000106788
0.00010195
9.50241e-05
8.73784e-05
7.79903e-05
7.04095e-05
0.000117303
0.000329892
0.000496953
0.000606936
0.000695577
0.000769999
0.00083135
0.00088384
0.000928995
0.000967857
0.00100101
0.0010284
0.00104941
0.00106326
0.0010683
0.00105106
0.00101275
0.000952368
0.000873168
0.000776772
0.00068048
0.000548726
0.00020093
0.000125553
0.000543359
0.000827895
0.00105135
0.00124671
0.00142
0.00157216
0.00170451
0.00181854
0.00191601
0.00199815
0.00206484
0.00211479
0.00214589
0.00215389
0.00212177
0.00204537
0.00192052
0.00174904
0.00153805
0.00130154
0.000963269
0.000228926
0.000127381
0.000658427
0.00102799
0.00135231
0.00165537
0.00193403
0.00218348
0.00240211
0.00259092
0.00275212
0.00288744
0.00299677
0.00307819
0.00312856
0.00314167
0.00310064
0.00299726
0.00282434
0.00258061
0.00226936
0.00188296
0.00130169
0.000255534
0.000129239
0.000683723
0.00112312
0.0015449
0.00195647
0.00234139
0.00268806
0.0029925
0.00325562
0.00348027
0.00366868
0.00382084
0.00393439
0.00400556
0.00402692
0.00398281
0.00386274
0.00365712
0.00336036
0.00296525
0.00243284
0.00159703
0.000278501
0.000131135
0.000655401
0.00114743
0.00166363
0.00218305
0.00267188
0.00311194
0.00349808
0.00383186
0.00411699
0.00435631
0.00454991
0.00469519
0.00478836
0.00482061
0.00477856
0.00465045
0.00442458
0.00409018
0.00362616
0.00295861
0.00187351
0.000299661
0.000133458
0.000606847
0.00113548
0.00174236
0.00236558
0.00295165
0.00347754
0.00393842
0.00433701
0.00467798
0.00496472
0.00519742
0.00537328
0.00548868
0.00553418
0.00549847
0.00536926
0.00513306
0.00477393
0.00425706
0.00347621
0.00216041
0.000323855
0.000142058
0.000559311
0.00112255
0.00181527
0.00253209
0.00320313
0.00380356
0.00432981
0.00478575
0.00517676
0.00550659
0.00577541
0.00598017
0.00611738
0.00617793
0.00615189
0.00602706
0.00578863
0.00541651
0.00486642
0.00401267
0.0025235
0.000365417
0.000102576
0.000133535
0.000142256
0.000215582
0.000295193
0.000348472
0.00038537
0.000412158
0.000430979
0.000438282
0.000434973
0.000423937
0.000407891
0.000390057
0.000376383
0.000357772
0.000321878
0.000270844
0.000275919
0.00032838
0.000816786
0.000743277
0.00095183
0.00122083
0.00140856
0.00176129
0.00228176
0.00277558
0.00298216
0.00302989
0.00296452
0.00281356
0.00262849
0.00252739
0.00239894
0.002096
0.00155298
0.0005626
0.000366576
0.00123924
0.0011952
0.00148096
0.0018494
0.0023459
0.00308872
0.0038786
0.00448962
0.00478844
0.00485996
0.00475769
0.00453078
0.00420406
0.00399261
0.00376361
0.00329869
0.00230346
0.000593135
0.000393936
0.00152772
0.00163827
0.00187125
0.00233882
0.00304564
0.00396413
0.00481171
0.00541817
0.00572962
0.00580165
0.00567334
0.0054119
0.00508262
0.00480336
0.00456466
0.00406682
0.0027774
0.000606368
0.000412406
0.0016887
0.00201857
0.00213625
0.00263423
0.00343313
0.00438459
0.00521939
0.00580003
0.00611802
0.00620563
0.00609635
0.00586349
0.00559256
0.00530146
0.00511591
0.0046363
0.00314131
0.000613986
0.000431078
0.00177801
0.00219762
0.00227077
0.00272415
0.00351793
0.00442141
0.00522968
0.00583661
0.00622308
0.00640353
0.00639549
0.00622876
0.0059606
0.00567309
0.00556009
0.00509066
0.00344328
0.000620166
0.00045825
0.00192029
0.00236063
0.00234741
0.00268524
0.00339288
0.00424476
0.00502686
0.0056841
0.00616728
0.00646947
0.00658861
0.00650518
0.00623968
0.00598616
0.00594541
0.00545409
0.00369334
0.000626531
0.000498942
0.00218201
0.00261327
0.00247271
0.00267983
0.00326816
0.00400958
0.00474838
0.00544391
0.00602685
0.0064425
0.00667788
0.00668166
0.0064253
0.00628585
0.00628019
0.00573682
0.00389246
0.000634051
0.00016871
0.000533779
0.00115816
0.00196233
0.0027944
0.00357064
0.00426647
0.00487988
0.00541501
0.00587694
0.00626915
0.00659157
0.00684103
0.00701186
0.00709772
0.00709064
0.00697926
0.00674772
0.00637243
0.00580562
0.00494127
0.00359441
0.00169586
0.000206035
0.00068577
0.00146869
0.00237768
0.00327634
0.0041095
0.00486415
0.00554085
0.00614051
0.00666506
0.00711613
0.0074919
0.00778547
0.007993
0.00811108
0.00813423
0.00805312
0.00785299
0.00751475
0.00700624
0.00627054
0.00524511
0.0039605
0.000234616
0.00115228
0.00208915
0.00299623
0.00386318
0.00468348
0.00544922
0.00615089
0.00678346
0.00734472
0.00783388
0.00824562
0.0085717
0.00881012
0.00895927
0.00901632
0.00897508
0.00882342
0.00855118
0.00814435
0.00758198
0.00686371
0.00605067
0.000249269
0.00153696
0.00269968
0.00363784
0.00448364
0.00527781
0.00602641
0.00672315
0.00736185
0.0079382
0.00844734
0.00887998
0.00923154
0.0094981
0.00967798
0.00976999
0.00977154
0.00967525
0.0094799
0.00918305
0.00877569
0.00827237
0.00771354
0.000248271
0.00174579
0.00308817
0.00413407
0.00502761
0.00583486
0.00657938
0.00726731
0.00789838
0.00846947
0.00897672
0.00941384
0.00977965
0.0100701
0.0102818
0.0104117
0.0104575
0.0104186
0.0102971
0.0100893
0.00980065
0.00944525
0.0090402
0.000245883
0.00186096
0.00334866
0.00450595
0.0054703
0.00631484
0.00707403
0.00776343
0.00838924
0.00895226
0.00945073
0.00988383
0.0102511
0.0105516
0.0107833
0.0109435
0.011031
0.0110447
0.0109864
0.0108553
0.0106605
0.0104105
0.0101115
0.000243453
0.00193114
0.00352753
0.00478431
0.00582127
0.00671187
0.00749629
0.00819622
0.00882311
0.00938226
0.00987471
0.010303
0.0106685
0.0109723
0.0112144
0.0113944
0.0115125
0.0115692
0.0115617
0.0114931
0.0113718
0.0112033
0.0109908
0.000241281
0.00197283
0.00365118
0.00499207
0.00609511
0.00703152
0.00784436
0.00855939
0.0091921
0.00975158
0.0102428
0.0106685
0.0110328
0.0113387
0.0115878
0.0117813
0.0119204
0.0120061
0.0120382
0.0120198
0.0119569
0.0118529
0.0117112
0.000239606
0.00199454
0.00373632
0.00514535
0.00630485
0.00728254
0.00812269
0.0088538
0.00949439
0.0100566
0.0105482
0.0109747
0.0113399
0.0116479
0.0119024
0.0121058
0.01226
0.0123667
0.0124269
0.0124441
0.0124228
0.0123678
0.0122844
0.000238054
0.00200459
0.00379005
0.00525359
0.00645994
0.00747313
0.00833772
0.00908395
0.00973263
0.0102983
0.010791
0.0112181
0.0115849
0.0118961
0.0121554
0.0123661
0.012531
0.0126522
0.0127324
0.0127753
0.0127854
0.0127682
0.0127303
0.000236294
0.00200618
0.00382113
0.00532227
0.00656693
0.00761
0.00849584
0.00925565
0.00991185
0.0104808
0.0109744
0.0114015
0.0117688
0.0120814
0.0123438
0.0125596
0.0127317
0.0128633
0.0129576
0.0130188
0.013052
0.0130633
0.0130595
0.000234114
0.00200006
0.0038328
0.00536022
0.00663075
0.00769857
0.0086029
0.00937488
0.0100379
0.0106098
0.0111038
0.0115301
0.0118963
0.0122086
0.0124716
0.0126894
0.0128653
0.013003
0.0131061
0.0131793
0.0132283
0.0132597
0.0132802
0.000231432
0.00198668
0.00382598
0.00537018
0.00665986
0.00774482
0.00866419
0.00944738
0.0101169
0.0106915
0.0111855
0.0116101
0.0119739
0.0122836
0.0125445
0.012761
0.0129369
0.0130761
0.0131828
0.013262
0.01332
0.0133639
0.0134005
0.000228274
0.00196661
0.00380217
0.00535451
0.00665734
0.00775584
0.00868658
0.00947845
0.0101546
0.0107318
0.0112256
0.0116479
0.0120079
0.012313
0.012569
0.0127809
0.0129527
0.0130888
0.0131938
0.0132734
0.0133341
0.0133837
0.0134296
0.000224734
0.00194065
0.00376332
0.00531603
0.00662654
0.00773526
0.00867574
0.00947526
0.0101561
0.0107363
0.0112301
0.0116496
0.0120046
0.0123033
0.0125518
0.0127556
0.0129195
0.013048
0.0131465
0.013221
0.0132789
0.0133287
0.0133785
0.000220949
0.0019098
0.00371173
0.00525796
0.00657116
0.00768699
0.00863564
0.00944226
0.010128
0.0107103
0.0112038
0.0116204
0.0119697
0.0122602
0.0124988
0.0126915
0.0128437
0.0129606
0.0130481
0.0131132
0.0131638
0.0132094
0.0132594
0.000217075
0.00187523
0.00364997
0.00518383
0.00649521
0.00761515
0.00857031
0.00938341
0.010074
0.0106586
0.0111515
0.0115645
0.0119073
0.0121884
0.012415
0.0125939
0.0127311
0.012833
0.0129061
0.0129583
0.0129986
0.0130373
0.0130853
0.000213272
0.0018382
0.00358072
0.00509731
0.00640286
0.007524
0.00848386
0.00930254
0.0099977
0.0105847
0.0110769
0.0114857
0.011821
0.0120913
0.0123043
0.012467
0.0125869
0.0126711
0.0127274
0.0127647
0.0127931
0.0128239
0.0128692
0.000209696
0.00179998
0.00350668
0.00500214
0.00629837
0.0074179
0.00838044
0.00920345
0.00990253
0.0104916
0.0109828
0.011387
0.0117137
0.0119718
0.0121694
0.0123146
0.0124155
0.0124804
0.0125189
0.0125409
0.0125574
0.0125809
0.0126242
0.000206484
0.00176181
0.00343046
0.00490195
0.00618596
0.00730124
0.00826429
0.00909
0.00979192
0.0103823
0.010872
0.0112709
0.0115883
0.0118329
0.0120137
0.0121397
0.0122206
0.0122662
0.0122874
0.0122952
0.0123015
0.0123197
0.0123629
0.00020375
0.00172483
0.00335452
0.00480023
0.00606975
0.00717839
0.00813969
0.00896619
0.00966945
0.01026
0.0107474
0.0111404
0.0114477
0.0116781
0.011841
0.0119471
0.0120074
0.0120339
0.0120389
0.012035
0.0120347
0.012051
0.0120969
0.000201578
0.0016901
0.00328118
0.0047003
0.00595372
0.00705363
0.00801095
0.00883609
0.00953886
0.0101282
0.0106123
0.0109987
0.0112953
0.011511
0.0116558
0.0117418
0.011782
0.0117904
0.0117813
0.0117684
0.011765
0.0117834
0.0118358
0.000200017
0.00165853
0.00321253
0.00460522
0.0058416
0.00693107
0.00788225
0.00870378
0.00940403
0.00999057
0.0104702
0.0108493
0.011135
0.0113359
0.0114629
0.0115294
0.0115505
0.0115425
0.0115217
0.011503
0.0114999
0.0115243
0.0115865
0.000199087
0.00163092
0.00315042
0.00451773
0.0057368
0.00681452
0.00775756
0.00857321
0.00926874
0.00985066
0.0103246
0.0106958
0.0109706
0.0111572
0.0112671
0.0113152
0.0113187
0.0112963
0.0112661
0.0112443
0.0112448
0.0112783
0.0113532
0.000198774
0.00160785
0.00309639
0.00444019
0.00564227
0.00670733
0.00764046
0.00844798
0.00913652
0.00971196
0.010179
0.0105419
0.010806
0.010979
0.011073
0.0111041
0.0110916
0.0110564
0.0110186
0.0109958
0.0110018
0.0110467
0.0111366
0.000199048
0.00158974
0.00305159
0.00437444
0.00556043
0.00661233
0.007534
0.00833121
0.00901048
0.00957748
0.0100364
0.0103906
0.0106444
0.010805
0.0108844
0.0108999
0.0108727
0.0108258
0.0107814
0.0107584
0.0107708
0.0108278
0.0109341
0.00019986
0.00157678
0.00301676
0.00432178
0.00549307
0.00653171
0.00744062
0.00822548
0.00889317
0.00944971
0.00989921
0.0102444
0.0104885
0.0106379
0.0107043
0.0107055
0.0106644
0.0106062
0.010555
0.0105309
0.0105489
0.0106176
0.0107403
0.000201154
0.00156893
0.0029922
0.00428295
0.00544139
0.00646705
0.00736218
0.00813278
0.00878659
0.00933057
0.00976926
0.010105
0.0103401
0.0104797
0.0105346
0.0105228
0.0104682
0.010398
0.0103383
0.0103111
0.010332
0.0104101
0.0105477
0.000202868
0.00156602
0.00297787
0.00425824
0.00540606
0.00641939
0.00730001
0.00805458
0.00869225
0.00922146
0.00964778
0.00997364
0.0102004
0.0103315
0.0103766
0.0103529
0.010285
0.0102013
0.0101303
0.010096
0.0101155
0.0101986
0.010348
0.000204937
0.00156776
0.00297353
0.00424765
0.00538745
0.00638943
0.00725508
0.00799203
0.0086113
0.00912344
0.00953562
0.00985085
0.0100697
0.010194
0.0102311
0.0101968
0.0101153
0.0100163
0.00993015
0.00988327
0.00989514
0.00997716
0.0101327
0.000207304
0.00157388
0.00297893
0.0042512
0.00538588
0.0063778
0.00722824
0.00794612
0.00854475
0.00903735
0.00943338
0.00973697
0.00994827
0.0100672
0.0100985
0.0100553
0.00996055
0.00984413
0.00973833
0.00967237
0.00966864
0.0097411
0.00989499
0.000209933
0.00158426
0.00299414
0.00426928
0.00540204
0.00638539
0.0072205
0.00791787
0.00849358
0.00896405
0.0093416
0.00963214
0.00983589
0.00995103
0.00997897
0.00992937
0.00982236
0.00968716
0.00955735
0.00946506
0.00943635
0.00948869
0.00963026
0.00021283
0.00159913
0.00301989
0.00430315
0.00543752
0.00641381
0.00723333
0.0079086
0.00845894
0.00890446
0.00926087
0.00953649
0.00973222
0.0098448
0.00987223
0.00981962
0.00970296
0.00954912
0.00939196
0.0092663
0.00920237
0.00922217
0.00933804
0.000216059
0.00161926
0.00305812
0.00435565
0.00549541
0.0064659
0.00726903
0.00792008
0.0084422
0.00885964
0.0091919
0.00945019
0.00963679
0.00974762
0.00977743
0.00972622
0.0096044
0.00943455
0.00924906
0.0090845
0.00897533
0.00894902
0.00902335
0.000219756
0.00164638
0.00311275
0.0044321
0.00558124
0.00654637
0.00733108
0.00795465
0.00844493
0.00883069
0.00913539
0.00937343
0.00954901
0.00965806
0.0096928
0.00964809
0.00952766
0.00934774
0.00913679
0.00893117
0.00876879
0.00868302
0.00869835
0.000224158
0.00168369
0.00319088
0.00454186
0.00570416
0.00666248
0.00742435
0.00801515
0.00846867
0.00881849
0.00909188
0.00930627
0.00946815
0.00957429
0.00961547
0.00958221
0.00947128
0.00929085
0.00906256
0.00881947
0.00860069
0.00844482
0.00838397
0.000229651
0.00173681
0.00330493
0.0047006
0.00587856
0.00682469
0.00755506
0.0081046
0.00851453
0.00882329
0.0090613
0.00924842
0.00939323
0.00949401
0.00954147
0.00952333
0.00943025
0.00926171
0.00903003
0.00876102
0.00849105
0.00826128
0.00811091
0.000236892
0.00181555
0.00347674
0.00493428
0.00612608
0.00704693
0.00773015
0.00822527
0.00858236
0.00884408
0.00904261
0.0091989
0.00932293
0.00941472
0.00946613
0.00946417
0.0093955
0.00925196
0.00903546
0.00876107
0.00845715
0.00816215
0.00791905
0.000247155
0.0019382
0.00374686
0.00528634
0.00647781
0.00734547
0.00795525
0.00837704
0.00866973
0.008878
0.00903334
0.00915578
0.00925547
0.00933382
0.00938473
0.00939653
0.00935487
0.00924677
0.00906517
0.00881304
0.00850602
0.00817279
0.00785287
0.000263379
0.00214529
0.00419936
0.0058311
0.00697482
0.00773461
0.0082306
0.00855491
0.00877072
0.00891987
0.00902946
0.00911617
0.00918867
0.00924899
0.00929334
0.00931295
0.00929546
0.00922718
0.00909613
0.00889547
0.00862688
0.00830332
0.00795078
0.000294827
0.00256065
0.00503886
0.0066959
0.00765961
0.00821486
0.00854401
0.00874613
0.00887529
0.00896244
0.00902594
0.00907664
0.00912027
0.00915857
0.0091897
0.00920854
0.00920702
0.00917488
0.00910094
0.00897474
0.0087886
0.00853972
0.00823206
0.000370755
0.00387385
0.00688359
0.00806812
0.00853384
0.00874893
0.00886295
0.0089292
0.00897042
0.00899793
0.00901805
0.00903439
0.00904889
0.00906223
0.00907395
0.00908246
0.00908503
0.00907784
0.00905608
0.00901423
0.00894624
0.00884518
0.0086996
0.000410644
0.000380829
0.000370032
0.000387687
0.00307567
0.00285841
0.00277918
0.00277355
0.00551122
0.00522302
0.00498768
0.00477467
0.00729977
0.00702696
0.00675462
0.00647128
0.00870913
0.00847517
0.00822702
0.00795929
0.00985246
0.00966626
0.00946558
0.0092481
0.0107977
0.0106573
0.010506
0.0103433
0.011579
0.0114808
0.0113746
0.011261
0.0122035
0.0121413
0.0120737
0.0120006
0.0126884
0.0126535
0.0126143
0.0125705
0.0130466
0.0130321
0.0130137
0.0129906
0.0132879
0.013288
0.0132842
0.0132751
0.0134222
0.0134323
0.0134388
0.0134394
0.0134603
0.0134777
0.0134918
0.0135003
0.0134149
0.0134379
0.0134589
0.0134756
0.0132996
0.0133276
0.0133558
0.0133818
0.0131285
0.0131614
0.0131971
0.0132335
0.0129152
0.0129532
0.0129964
0.0130435
0.0126733
0.0127161
0.0127667
0.0128235
0.0124156
0.0124632
0.0125202
0.0125854
0.0121541
0.0122064
0.012269
0.0123408
0.0118989
0.0119559
0.0120236
0.0121007
0.0116571
0.0117195
0.0117924
0.0118743
0.0114331
0.0115017
0.0115804
0.0116672
0.0112274
0.0113034
0.0113888
0.0114816
0.0110373
0.0111216
0.011215
0.011315
0.0108567
0.0109502
0.0110527
0.0111616
0.0106774
0.0107805
0.0108931
0.0110121
0.0104897
0.0106021
0.0107252
0.0108552
0.0102837
0.0104043
0.010537
0.010678
0.0100503
0.0101765
0.0103169
0.0104676
0.00978271
0.00991029
0.0100548
0.0102123
0.00947764
0.00960066
0.00974364
0.00990294
0.00913741
0.00924792
0.00938171
0.00953562
0.00877178
0.00885996
0.00897473
0.00911351
0.00840013
0.00845465
0.00853857
0.00865015
0.00805392
0.00806293
0.00810296
0.00817344
0.00777829
0.00773185
0.00771576
0.00773106
0.00763096
0.00752574
0.00744653
0.00739638
0.00767355
0.00751948
0.00738211
0.00726672
0.00795508
0.00777774
0.00759753
0.00742324
0.00852879
0.00837507
0.00814261
0.00779695
0.00140645
0.00264861
0.00315441
0.00292763
0.00293435
0.00329052
0.00383334
0.00446797
0.00514472
0.00577444
0.00629768
0.00665915
0.00678203
0.00666577
0.00665665
0.00662265
0.00599627
0.00406602
0.000644438
0.00295553
0.00317435
0.00366145
0.0036944
0.00361429
0.00367271
0.00396237
0.00441354
0.00496278
0.00554948
0.0061135
0.00653173
0.00676806
0.00695461
0.00711965
0.00702695
0.00628581
0.00425193
0.000660401
0.00444702
0.00396302
0.00388448
0.0042232
0.00446052
0.00431583
0.00438149
0.00465023
0.0050825
0.00562742
0.00623321
0.00668209
0.00705949
0.00740961
0.0075593
0.00734777
0.00650426
0.00439876
0.00067186
0.00598684
0.00519279
0.00448416
0.00427198
0.00458992
0.00479527
0.00492468
0.00512098
0.00546308
0.00594319
0.00660922
0.0071603
0.00761231
0.00792444
0.00792042
0.00756331
0.00663247
0.00448823
0.000678175
0.00748842
0.00668414
0.00576688
0.00503974
0.00482377
0.00492058
0.00513512
0.00540059
0.00580977
0.00641605
0.00715274
0.00781872
0.0082639
0.00837895
0.00818777
0.00767681
0.00665129
0.00449214
0.000677189
0.00886388
0.00820041
0.00739121
0.00657792
0.00601154
0.00570698
0.00568526
0.00586514
0.00631458
0.00703165
0.00783917
0.00850046
0.00879643
0.00875462
0.00838364
0.00767853
0.00652219
0.00437251
0.000665162
0.0100615
0.00958354
0.0089972
0.00834028
0.00773848
0.0072704
0.00703303
0.00705366
0.00737547
0.00794933
0.00858459
0.00908377
0.00929322
0.00911228
0.00848678
0.00752265
0.00619712
0.00408361
0.000632756
0.0110686
0.0107601
0.0103886
0.00992562
0.00943949
0.00897551
0.00861987
0.00844038
0.00848419
0.00874995
0.00919687
0.00965839
0.00979355
0.009343
0.00839942
0.00715774
0.00565078
0.00360565
0.000579331
0.0118758
0.011684
0.0114501
0.0111285
0.0107362
0.0102598
0.0097893
0.00939961
0.00920342
0.00934109
0.00979882
0.0102084
0.0100695
0.00929132
0.00807285
0.00659714
0.00495525
0.0030274
0.000529438
0.0124951
0.012373
0.0121837
0.0118796
0.0114768
0.010954
0.0103871
0.00990078
0.00968897
0.00991139
0.0103805
0.0105254
0.0100328
0.00900904
0.00758017
0.0059662
0.00437335
0.00266585
0.000500979
0.0129483
0.0128559
0.012665
0.0123189
0.0118169
0.011194
0.0105938
0.0101673
0.0100735
0.0103517
0.0106422
0.0105426
0.00988372
0.00869562
0.00710871
0.00539842
0.00390349
0.00247239
0.000528272
0.0132545
0.0131708
0.0129542
0.0125412
0.0119447
0.0112744
0.0107135
0.010394
0.0103533
0.0104858
0.0105954
0.0104636
0.00981412
0.00852971
0.00684527
0.00505791
0.00346275
0.00218056
0.000479582
0.013434
0.0133534
0.0131137
0.0126506
0.0119982
0.0113148
0.0108297
0.0105844
0.0105041
0.010521
0.010557
0.0103604
0.00976821
0.00852011
0.00686787
0.00511198
0.00346206
0.00203995
0.000478776
0.013509
0.0134379
0.0131941
0.0127113
0.0120444
0.0114119
0.0109721
0.0107211
0.0105752
0.0104962
0.010427
0.0101792
0.009603
0.00863191
0.00713416
0.00546844
0.00379377
0.00210529
0.000526439
0.0135007
0.0134525
0.0132307
0.0127645
0.0121455
0.0115527
0.0111114
0.0108151
0.0106043
0.0104575
0.0103374
0.0101202
0.00967211
0.00885544
0.00751012
0.00593652
0.0043022
0.00242567
0.000573455
0.013427
0.0134156
0.0132393
0.0128394
0.0122829
0.0117119
0.0112386
0.0108816
0.0106183
0.0104481
0.0103547
0.010237
0.00990582
0.00911105
0.00781934
0.00636525
0.00481167
0.00289017
0.000607718
0.0133016
0.0133375
0.0132293
0.0129184
0.0124322
0.0118769
0.0113619
0.010942
0.0106391
0.0104787
0.01045
0.0104199
0.0101284
0.00930699
0.00802212
0.00665037
0.00516385
0.00327226
0.000628405
0.0131345
0.013221
0.0131923
0.0129786
0.0125715
0.0120409
0.0114927
0.0110167
0.0106803
0.0105328
0.0105464
0.010535
0.0102112
0.00934409
0.00807693
0.0067373
0.00530509
0.0034117
0.000634907
0.0129355
0.0130691
0.0131164
0.0129994
0.01268
0.0121927
0.0116318
0.0111108
0.0107326
0.010557
0.010528
0.0104457
0.0100639
0.00918931
0.00800313
0.00668512
0.00521099
0.0033185
0.000628005
0.0127141
0.012886
0.0129966
0.0129666
0.012738
0.0123122
0.0117619
0.0112047
0.0107585
0.0104817
0.0103166
0.010118
0.00970161
0.00889564
0.00777082
0.00648595
0.00497583
0.00309046
0.00061349
0.012482
0.0126803
0.0128362
0.0128759
0.0127308
0.0123751
0.0118516
0.0112613
0.010718
0.0102862
0.00995674
0.00967141
0.00932163
0.00862908
0.00754098
0.00631816
0.00477786
0.00284328
0.000607212
0.012251
0.0124644
0.012647
0.0127341
0.0126548
0.012364
0.0118723
0.0112518
0.0106044
0.0100187
0.00955556
0.00923569
0.0090083
0.0084732
0.00753136
0.00639131
0.00482258
0.00277521
0.000619985
0.0120316
0.0122518
0.0124457
0.0125579
0.0125214
0.0122795
0.0118163
0.0111738
0.0104441
0.00974748
0.00920693
0.0089041
0.00880352
0.00847342
0.00774266
0.00673175
0.00518852
0.0029998
0.000647573
0.0118314
0.0120548
0.0122499
0.01237
0.0123541
0.0121421
0.0117002
0.0110471
0.0102693
0.00951527
0.00895604
0.00871173
0.00872869
0.00863798
0.00811987
0.00723844
0.00575425
0.0034454
0.000680257
0.0116539
0.0118809
0.0120739
0.0121921
0.0121815
0.0119826
0.0115536
0.0109012
0.01011
0.00935036
0.00882995
0.00868356
0.00883097
0.0089146
0.00858038
0.00777099
0.00632087
0.00396183
0.000712586
0.0114982
0.0117326
0.0119257
0.0120406
0.0120287
0.0118353
0.0114179
0.0107791
0.0100048
0.0092805
0.00883647
0.0088078
0.00908477
0.00929028
0.00904184
0.00825612
0.00677931
0.00430009
0.000741434
0.0113588
0.0116067
0.0118064
0.0119232
0.011913
0.0117268
0.0113263
0.0107154
0.0099824
0.00932017
0.00896637
0.00904742
0.00942981
0.00970661
0.00946553
0.00864498
0.00711585
0.00453228
0.000765029
0.0112265
0.0114948
0.0117102
0.0118386
0.0118397
0.0116701
0.0112978
0.0107305
0.0100578
0.00947075
0.00919928
0.00935405
0.009789
0.0100911
0.00982233
0.00892055
0.00734696
0.00470313
0.000784973
0.0110892
0.0113845
0.0116253
0.0117775
0.0118033
0.0116642
0.0113351
0.0108279
0.0102301
0.00972074
0.0095075
0.0096802
0.0100961
0.0103793
0.0100772
0.00910024
0.00749666
0.0048224
0.000799193
0.0109326
0.0112603
0.0115355
0.0117234
0.0117883
0.0116955
0.011426
0.0109945
0.0104825
0.0100481
0.00986619
0.0100047
0.0103414
0.0105746
0.0102306
0.00919226
0.00756084
0.004883
0.000805515
0.0107418
0.0111045
0.0114208
0.0116548
0.0117718
0.0117399
0.0115448
0.0112021
0.0107835
0.0104214
0.0102538
0.0103302
0.0105551
0.0107006
0.0103028
0.00920488
0.00754108
0.00488272
0.000804022
0.0105025
0.0108989
0.0112595
0.0115468
0.0117256
0.0117661
0.0116566
0.011411
0.0110892
0.0107964
0.010636
0.0106426
0.0107442
0.0107595
0.0103328
0.00917393
0.00745273
0.00482823
0.000795327
0.0102023
0.0106267
0.01103
0.0113728
0.0116188
0.0117386
0.0117207
0.0115752
0.0113481
0.0111188
0.0109599
0.010895
0.0108704
0.010746
0.0102574
0.00910728
0.00733663
0.0047422
0.000782073
0.00983333
0.0102741
0.0107127
0.0111077
0.0114204
0.0116208
0.0116951
0.0116475
0.0115088
0.0113341
0.0111728
0.0110405
0.010896
0.0106309
0.0100645
0.00899029
0.0072525
0.00467489
0.000771242
0.00939474
0.00983371
0.0102934
0.0107301
0.0111022
0.0113778
0.0115392
0.0115834
0.0115253
0.0113995
0.0112414
0.0110593
0.0108194
0.0104408
0.00980991
0.00878493
0.00720457
0.00471605
0.000771475
0.00889576
0.00930763
0.00976647
0.0102268
0.0106435
0.0109814
0.0112179
0.0113429
0.0113582
0.0112817
0.0111378
0.0109297
0.0106313
0.0101837
0.00951408
0.00852519
0.00713204
0.00489293
0.000790191
0.00836047
0.00871269
0.00914075
0.00959823
0.0100366
0.0104165
0.0107094
0.0108982
0.0109765
0.0109485
0.010826
0.0106107
0.0102861
0.00981192
0.00914066
0.00820206
0.00691311
0.00482455
0.000801198
0.00783446
0.00808805
0.0084471
0.00886645
0.00929535
0.00968945
0.0100139
0.0102444
0.010367
0.0103771
0.0102756
0.0100614
0.00972609
0.00924815
0.00860276
0.00773719
0.0065529
0.00451568
0.000763114
0.00739404
0.00750753
0.00775225
0.00808914
0.008468
0.00884053
0.00916552
0.00940999
0.00955179
0.00957825
0.00948266
0.0092602
0.00890824
0.00842739
0.00782134
0.00704611
0.00599803
0.00418084
0.000797236
0.00714973
0.00709041
0.00717585
0.0073807
0.00766083
0.00796769
0.00825484
0.00847981
0.00861043
0.00862401
0.00850413
0.00823865
0.00782655
0.00730333
0.00671979
0.00602829
0.00513291
0.00369903
0.00083361
0.00719842
0.00696155
0.00686907
0.0069108
0.00705351
0.00725415
0.00746521
0.00763664
0.0077254
0.00769589
0.00751546
0.00715065
0.0065814
0.00585761
0.00524949
0.00461475
0.00386073
0.00285306
0.000806623
0.00743578
0.0070614
0.00684276
0.00676306
0.00679425
0.00689925
0.00703425
0.00714836
0.00719297
0.00712343
0.00689278
0.00644448
0.00572615
0.00463761
0.00422817
0.00368897
0.00293849
0.00187137
0.000705216
)
;

boundaryField
{
    leftWall
    {
        type            nutkWallFunction;
        Cmu             0.09;
        kappa           0.41;
        E               9.8;
        value           nonuniform List<scalar> 
50
(
1.11794e-05
1.38272e-05
1.47365e-05
1.49409e-05
1.51625e-05
1.53813e-05
1.56386e-05
1.65719e-05
1.94193e-05
2.0849e-05
2.49319e-05
2.70607e-05
2.68913e-05
2.65113e-05
2.6144e-05
2.58179e-05
2.55692e-05
2.53434e-05
2.50912e-05
2.47812e-05
2.44008e-05
2.39526e-05
2.34497e-05
2.29112e-05
2.23593e-05
2.1817e-05
2.13067e-05
2.08483e-05
2.04587e-05
2.01502e-05
1.99306e-05
1.98027e-05
1.97649e-05
1.98124e-05
1.99382e-05
2.0134e-05
2.03905e-05
2.0698e-05
2.1048e-05
2.14347e-05
2.18588e-05
2.23285e-05
2.28625e-05
2.34933e-05
2.42741e-05
2.52954e-05
2.67324e-05
2.89922e-05
3.34038e-05
4.50403e-05
)
;
    }
    rightWall
    {
        type            nutkWallFunction;
        Cmu             0.09;
        kappa           0.41;
        E               9.8;
        value           nonuniform List<scalar> 
50
(
5.05636e-05
5.99096e-05
6.25823e-05
6.36873e-05
6.43011e-05
6.47926e-05
6.53117e-05
6.59309e-05
6.67857e-05
6.79968e-05
6.88892e-05
6.94205e-05
6.93709e-05
6.83505e-05
6.54697e-05
6.06594e-05
5.59337e-05
5.32026e-05
5.67218e-05
5.23094e-05
5.22673e-05
5.68253e-05
6.11796e-05
6.34371e-05
6.566e-05
6.66998e-05
6.63789e-05
6.4939e-05
6.39197e-05
6.5725e-05
6.78602e-05
7.09183e-05
7.40358e-05
7.67305e-05
7.8139e-05
7.99714e-05
8.16248e-05
8.24838e-05
8.25586e-05
8.19008e-05
8.09253e-05
7.98787e-05
7.99493e-05
8.13402e-05
8.29023e-05
7.98381e-05
8.79967e-05
0.000103159
0.000101511
9.00696e-05
)
;
    }
    lowerWall
    {
        type            nutkWallFunction;
        Cmu             0.09;
        kappa           0.41;
        E               9.8;
        value           nonuniform List<scalar> 
62
(
5.37508e-06
6.96483e-06
8.40328e-06
9.44327e-06
1.0166e-05
1.07151e-05
1.11968e-05
1.16259e-05
1.20037e-05
1.23376e-05
1.26292e-05
1.28748e-05
1.30667e-05
1.31936e-05
1.32373e-05
1.32033e-05
1.30358e-05
1.26975e-05
1.21593e-05
1.13748e-05
1.05003e-05
9.42043e-06
8.54348e-06
8.54348e-06
2.28748e-05
2.58011e-05
2.85549e-05
3.08964e-05
3.30373e-05
3.54632e-05
3.94593e-05
4.38837e-05
4.08388e-05
3.95876e-05
4.11315e-05
5.60525e-06
3.82921e-05
4.34025e-05
4.69671e-05
4.94273e-05
5.23894e-05
4.86004e-05
5.18521e-05
5.60525e-06
1.02702e-05
1.14898e-05
1.94509e-05
3.025e-05
3.92393e-05
4.47635e-05
4.4599e-05
4.55847e-05
4.686e-05
4.7138e-05
4.65233e-05
4.52387e-05
4.35478e-05
4.19578e-05
4.00041e-05
3.64317e-05
3.11022e-05
2.31392e-05
)
;
    }
    atmosphere
    {
        type            calculated;
        value           nonuniform List<scalar> 
46
(
0.000370755
0.009
0.009
0.009
0.009
0.009
0.009
0.009
0.009
0.009
0.009
0.009
0.009
0.009
0.009
0.009
0.009
0.009
0.009
0.009
0.009
0.009
0.009
0.009
0.009
0.009
0.00779695
0.00743578
0.0070614
0.00684276
0.00676306
0.00679425
0.00689925
0.00703425
0.00714836
0.00719297
0.00712343
0.00689278
0.00644448
0.00572615
0.009
0.009
0.009
0.009
0.009
0.000705216
)
;
    }
    defaultFaces
    {
        type            empty;
    }
}


// ************************************************************************* //
