/*--------------------------------*- C++ -*----------------------------------*\
  =========                 |
  \\      /  F ield         | OpenFOAM: The Open Source CFD Toolbox
   \\    /   O peration     | Website:  https://openfoam.org
    \\  /    A nd           | Version:  9
     \\/     M anipulation  |
\*---------------------------------------------------------------------------*/
FoamFile
{
    format      ascii;
    class       volScalarField;
    location    "0.6";
    object      nut;
}
// * * * * * * * * * * * * * * * * * * * * * * * * * * * * * * * * * * * * * //

dimensions      [0 2 -1 0 0 0 0];

internalField   nonuniform List<scalar> 
2268
(
9.48575e-05
8.0653e-05
9.20198e-05
0.00010071
0.000107334
0.000111991
0.000115264
0.000118002
0.000120211
0.000121998
0.000123795
0.000126033
0.000128368
0.000130545
0.00013226
0.000133062
0.000132341
0.00012939
0.000123395
0.000114179
0.000102393
8.67756e-05
0.000297304
0.000190758
0.000564284
0.000726475
0.000841744
0.000933311
0.00100577
0.00105837
0.00108555
0.00110259
0.00111479
0.00112346
0.00112661
0.0011213
0.00110733
0.00108324
0.00104525
0.000987768
0.000906193
0.000797373
0.000637702
0.000443905
0.000300156
0.000183919
0.000219741
0.000974364
0.00135333
0.00161328
0.00181214
0.00195961
0.00205767
0.00210709
0.00212955
0.00213513
0.00212816
0.00210857
0.0020735
0.00202002
0.00194491
0.00184276
0.00170604
0.00153068
0.00131664
0.00105673
0.000744189
0.000472952
0.000198612
0.000244813
0.00128631
0.001889
0.00228983
0.00258391
0.00279309
0.00292532
0.00298838
0.00300655
0.00299403
0.00295814
0.00290106
0.00282126
0.00271558
0.00257927
0.00240367
0.00218485
0.00192118
0.00161912
0.00128921
0.000917001
0.000574223
0.000202442
0.000264841
0.00153804
0.00234961
0.00288259
0.00326138
0.00352288
0.00368254
0.00375392
0.00376204
0.0037256
0.0036544
0.0035527
0.00342035
0.00325439
0.00304961
0.00279888
0.00249761
0.002148
0.00176527
0.00137996
0.00098087
0.000610533
0.000199107
0.000281481
0.00174725
0.00274851
0.00340505
0.00386158
0.00416992
0.00435355
0.00443132
0.00442658
0.00436411
0.00425539
0.0041064
0.00391827
0.00368839
0.00341141
0.00308096
0.00269425
0.00225964
0.00180389
0.00136927
0.000965821
0.000600206
0.000192582
0.00029624
0.00192473
0.00309642
0.00386841
0.00439806
0.00475035
0.00495652
0.00503975
0.00502303
0.00493516
0.00478957
0.00459382
0.00435015
0.00405636
0.00370701
0.0032962
0.00282331
0.00230294
0.00177422
0.00129439
0.000896825
0.000558964
0.000188313
0.000308896
0.00207741
0.00340216
0.00428202
0.00488141
0.0052763
0.00550496
0.00559419
0.00556817
0.00545732
0.00527772
0.0050383
0.00474243
0.00438838
0.00397083
0.00348421
0.00292991
0.00232847
0.00173123
0.00121092
0.000817454
0.000518029
0.00019911
0.000279466
7.26235e-05
8.18077e-05
8.62103e-05
8.88888e-05
9.05515e-05
9.14231e-05
9.16867e-05
9.15042e-05
9.10082e-05
8.99268e-05
8.82168e-05
8.57724e-05
8.24376e-05
7.80414e-05
7.284e-05
6.93883e-05
0.000270479
0.000115436
0.000185204
0.000507135
0.000565074
0.000603548
0.000639433
0.000675644
0.000708206
0.000734221
0.000749615
0.000755032
0.000757282
0.000754396
0.000743293
0.000719649
0.000677528
0.000609823
0.000514669
0.000462629
0.000112084
0.000232903
0.000942265
0.00114665
0.00128693
0.00139906
0.00148561
0.00154471
0.0015787
0.00158944
0.00158326
0.0015654
0.00153211
0.00147752
0.00139406
0.00127286
0.00110506
0.000884368
0.000596319
0.000121146
0.000268393
0.00133826
0.00173604
0.00198789
0.00216416
0.00227796
0.00233783
0.00235613
0.00234217
0.00230486
0.00224766
0.00216627
0.00205377
0.00190142
0.00169951
0.00143831
0.00110699
0.000681992
0.000130594
0.000298444
0.001697
0.00230352
0.00265714
0.00287745
0.00299907
0.00304383
0.00303381
0.0029844
0.00290603
0.00280174
0.00266735
0.00249579
0.00227813
0.00200473
0.00166618
0.0012515
0.000740829
0.000139114
0.000326544
0.00202482
0.00283532
0.00327847
0.00352691
0.00364324
0.00366359
0.00361867
0.00352885
0.00340579
0.00325269
0.00306588
0.00283861
0.00256236
0.00222831
0.00182832
0.00135287
0.000785665
0.000146597
0.000354533
0.00233329
0.00332924
0.00384851
0.0041133
0.00421563
0.00420614
0.00412307
0.00399114
0.00382308
0.00362223
0.00338559
0.00310715
0.00277935
0.00239477
0.00194705
0.00142804
0.000822262
0.000153306
0.000386465
0.00264968
0.00379513
0.00437109
0.00464162
0.00472366
0.00468111
0.00455832
0.00438415
0.00417242
0.00392584
0.00364235
0.00331699
0.00294363
0.00251682
0.00203228
0.00148292
0.000852025
0.000159471
0.000327567
0.00228524
0.00382629
0.0048645
0.0055699
0.00603198
0.00629868
0.00640186
0.00636762
0.00622055
0.00598951
0.00568499
0.00531268
0.00487245
0.00436034
0.00377286
0.00311616
0.00242104
0.00175454
0.00120068
0.000805235
0.00055585
0.000395932
0.000346983
0.00249807
0.00426508
0.0054807
0.00631568
0.006869
0.00719682
0.00733594
0.00731505
0.00715861
0.00688815
0.00653054
0.00609881
0.0055991
0.00503639
0.0044191
0.00376844
0.00312608
0.00254843
0.00208313
0.00173909
0.00148088
0.00131715
0.000364983
0.00267543
0.00462826
0.0059946
0.00694554
0.00758622
0.00797884
0.00816456
0.00817498
0.00803729
0.00777619
0.0074139
0.00697305
0.00647417
0.00593494
0.00537388
0.00481654
0.00429448
0.00383116
0.00343213
0.00309434
0.00284561
0.00271629
0.000382016
0.00282602
0.00493336
0.00642796
0.00748191
0.00820506
0.00866435
0.00890472
0.00896059
0.00886167
0.00863577
0.00830976
0.00790993
0.00746087
0.00698528
0.00650646
0.00604503
0.00561615
0.00523223
0.00490213
0.00463817
0.00446565
0.00441993
0.000398283
0.00295473
0.00519115
0.00679482
0.0079394
0.00873877
0.00926388
0.00956293
0.00967272
0.00962479
0.00944876
0.00917367
0.00882802
0.00843888
0.00803106
0.00762642
0.00724242
0.00689175
0.00658428
0.00632958
0.00614066
0.00603711
0.00604424
0.000413884
0.0030648
0.00540905
0.00710514
0.00832848
0.00919664
0.00978403
0.0101417
0.0103082
0.0103163
0.0101961
0.00997739
0.00968919
0.00935927
0.00901265
0.00867032
0.00834844
0.00805866
0.00780974
0.00760974
0.007468
0.0073958
0.00740461
0.000428909
0.00315887
0.00559289
0.00736681
0.00865766
0.00958628
0.0102302
0.0106428
0.0108642
0.0109273
0.0108624
0.0106986
0.0104646
0.0101879
0.00989295
0.00960005
0.00932457
0.00907721
0.00886532
0.00869442
0.0085692
0.00849344
0.00846818
0.000443465
0.00323939
0.00574765
0.00758661
0.00893441
0.00991476
0.0106079
0.0110692
0.0113397
0.0114526
0.0114374
0.0113224
0.0111354
0.010903
0.010649
0.010393
0.0101496
0.00992847
0.00973538
0.00957328
0.00944293
0.0093428
0.00926784
0.000457684
0.00330873
0.0058778
0.00777057
0.00916561
0.010189
0.0109232
0.0114253
0.0117368
0.011891
0.0119166
0.011841
0.0116911
0.0114926
0.0112687
0.0110381
0.0108149
0.0106077
0.0104208
0.010255
0.0101082
0.00997519
0.00984729
0.000471712
0.0033693
0.00598737
0.00792413
0.00935765
0.0104158
0.0111829
0.0117171
0.0120603
0.0122455
0.0123011
0.0122536
0.0121293
0.0119534
0.0117485
0.011533
0.0113204
0.0111184
0.0109302
0.0107548
0.0105875
0.0104201
0.0102409
0.000485715
0.00342352
0.00607994
0.00805205
0.00951635
0.0106019
0.0113943
0.0119521
0.0123175
0.0125231
0.0125968
0.0125652
0.0124542
0.0122889
0.0120921
0.0118821
0.0116719
0.0114689
0.0112752
0.0110878
0.0108998
0.0106995
0.010471
0.000499865
0.00347397
0.00615857
0.0081584
0.00964695
0.0107538
0.0115649
0.0121389
0.0125177
0.0127335
0.0128141
0.0127861
0.0126759
0.0125094
0.0123096
0.0120955
0.0118802
0.0116708
0.0114683
0.0112683
0.0110605
0.0108289
0.0105514
0.000514334
0.00352334
0.00622573
0.00824654
0.0097541
0.0108775
0.0117024
0.0122868
0.0126718
0.012889
0.0129663
0.0129308
0.0128099
0.0126304
0.0124169
0.0121891
0.0119608
0.0117392
0.0115247
0.0113107
0.0110835
0.0108213
0.0104942
0.000529287
0.00357437
0.00628333
0.00831919
0.00984191
0.0109789
0.0118146
0.0124054
0.0127912
0.0130032
0.0130692
0.0130171
0.0128756
0.0126732
0.0124359
0.012185
0.0119354
0.0116948
0.0114634
0.0112328
0.0109854
0.0106926
0.0103155
0.000544822
0.00362946
0.0063328
0.00837872
0.00991417
0.0110634
0.0119084
0.0125037
0.0128876
0.0130904
0.0131401
0.0130653
0.0128963
0.0126633
0.0123942
0.012112
0.0118329
0.0115659
0.0113112
0.0110595
0.0107897
0.0104665
0.0100416
0.000560751
0.00368952
0.00637542
0.00842742
0.00997448
0.0111359
0.0119905
0.0125902
0.0129718
0.0131645
0.0131963
0.0130968
0.0128975
0.0126305
0.0123252
0.0120063
0.0116914
0.0113907
0.0111055
0.0108267
0.0105314
0.0101792
0.00971305
0.000575936
0.00375129
0.00641273
0.00846789
0.0100262
0.0112005
0.0120659
0.0126719
0.0130532
0.0132384
0.013255
0.0131333
0.0129063
0.0126072
0.012267
0.0119111
0.011558
0.0112192
0.0108974
0.0105853
0.0102606
0.00988146
0.00938538
0.000587631
0.00380553
0.0064465
0.00850257
0.0100719
0.0112601
0.0121384
0.012754
0.01314
0.0133233
0.0133316
0.0131956
0.0129492
0.0126269
0.0122599
0.011874
0.0114875
0.011112
0.0107518
0.010402
0.0100443
0.00964024
0.00912749
0.000589638
0.00384125
0.00647713
0.00853236
0.0101124
0.0113156
0.0122101
0.0128405
0.0132381
0.0134287
0.0134394
0.0133017
0.0130503
0.0127203
0.0123428
0.0119423
0.011536
0.0111343
0.0107417
0.0103558
0.00996387
0.00953554
0.00901642
0.000589972
0.00386119
0.0065012
0.00855574
0.0101467
0.011367
0.0122819
0.0129339
0.0133522
0.0135613
0.0135883
0.0134653
0.013228
0.0129117
0.0125464
0.0121545
0.0117506
0.0113427
0.0109339
0.0105229
0.0101018
0.00965058
0.00912889
0.000592032
0.00387228
0.00651502
0.00857043
0.0101735
0.011414
0.0123547
0.013036
0.0134848
0.0137247
0.013783
0.0136929
0.0134911
0.0132125
0.0128856
0.0125296
0.0121556
0.0117681
0.0113675
0.0109521
0.0105167
0.0100495
0.00952586
0.000594479
0.00387489
0.00651778
0.0085757
0.0101932
0.0114579
0.0124304
0.0131482
0.0136363
0.0139178
0.0140209
0.0139806
0.0138346
0.0136169
0.0133534
0.0130597
0.0127426
0.0124028
0.0120379
0.011644
0.0112168
0.0107494
0.0102287
0.000596433
0.00386894
0.00651068
0.00857346
0.0102089
0.0115023
0.0125113
0.0132704
0.0138026
0.0141317
0.0142886
0.0143106
0.0142362
0.0140979
0.0139177
0.0137072
0.0134688
0.0131998
0.0128945
0.0125473
0.012153
0.0117065
0.0112016
0.000597744
0.00385479
0.00649669
0.00856846
0.0102266
0.0115525
0.0125996
0.0133987
0.0139725
0.0143477
0.0145596
0.0146492
0.014655
0.0146068
0.0145225
0.0144088
0.0142639
0.0140818
0.0138544
0.0135742
0.0132346
0.0128309
0.0123594
0.000598373
0.00383352
0.00648082
0.00856864
0.010255
0.0116144
0.0126942
0.0135227
0.0141249
0.0145342
0.0147934
0.014947
0.0150331
0.0150778
0.0150937
0.0150827
0.0150392
0.0149542
0.0148173
0.0146195
0.0143528
0.0140118
0.0135925
0.000598209
0.00380709
0.00647058
0.0085856
0.0103048
0.0116917
0.0127877
0.0136217
0.0142269
0.0146487
0.0149391
0.0151459
0.0153044
0.0154363
0.015549
0.0156397
0.0156994
0.0157163
0.0156785
0.0155749
0.0153965
0.0151363
0.0147903
0.000597135
0.00377692
0.00647453
0.00863445
0.0103862
0.0117822
0.0128618
0.0136644
0.0142375
0.0146449
0.014947
0.0151918
0.0154101
0.0156172
0.015816
0.0160001
0.0161584
0.0162772
0.0163426
0.0163418
0.016264
0.0161008
0.0158473
0.000595145
0.00372636
0.00650066
0.00873109
0.0105042
0.0118705
0.0128816
0.0136038
0.0141141
0.0144881
0.0147874
0.0150545
0.0153141
0.0155767
0.0158424
0.0161038
0.016349
0.0165633
0.0167314
0.0168383
0.0168708
0.0168181
0.016673
0.000596026
0.00367532
0.00657661
0.00888465
0.0106402
0.0119153
0.012804
0.0134133
0.0138437
0.014174
0.0144583
0.0147303
0.0150083
0.0153003
0.0156063
0.0159203
0.016232
0.0165273
0.0167901
0.0170036
0.0171514
0.0172192
0.0171956
0.00060229
0.0037044
0.00676674
0.00911127
0.0107699
0.0118823
0.0126089
0.0130936
0.0134432
0.0137264
0.0139847
0.0142423
0.0145131
0.0148047
0.0151196
0.0154552
0.0158049
0.0161573
0.0164973
0.016807
0.0170673
0.0172593
0.0173657
0.000612197
0.00388781
0.00710836
0.00938575
0.0108519
0.011754
0.012313
0.0126832
0.0129578
0.0131887
0.0134056
0.0136268
0.0138645
0.0141274
0.0144205
0.0147459
0.0151015
0.0154806
0.0158713
0.0162566
0.0166158
0.0169261
0.0171629
0.000625439
0.00423552
0.00755048
0.0096461
0.0108638
0.0115592
0.0119738
0.0122428
0.0124377
0.012599
0.0127518
0.0129132
0.0130957
0.0133083
0.0135576
0.0138482
0.0141822
0.0145583
0.0149693
0.0154015
0.0158354
0.0162461
0.0166025
0.000647115
0.00470074
0.00800408
0.00985078
0.010829
0.0113533
0.0116415
0.011801
0.011893
0.0119582
0.0120242
0.0121093
0.0122253
0.0123796
0.0125773
0.0128229
0.0131207
0.0134732
0.0138783
0.0143273
0.0148046
0.0152867
0.0157391
0.000680601
0.0051972
0.0083997
0.00998755
0.0107605
0.0111265
0.0112671
0.0112856
0.0112508
0.0112101
0.0111911
0.0112077
0.0112673
0.0113734
0.0115283
0.0117345
0.0119963
0.0123182
0.0127016
0.0131432
0.0136324
0.0141504
0.014664
0.000731179
0.00562523
0.00865633
0.0099883
0.0105505
0.0107115
0.0106428
0.0105031
0.0103701
0.0102776
0.0102301
0.0102248
0.0102628
0.0103455
0.0104758
0.0106569
0.0108923
0.0111861
0.011542
0.0119602
0.0124357
0.0129548
0.0134892
0.000797919
0.00587167
0.00862142
0.00965893
0.00992449
0.0098044
0.00961003
0.00943601
0.00931313
0.00924445
0.00922428
0.00924105
0.00928919
0.00936954
0.00949045
0.00965832
0.0098759
0.0101466
0.0104741
0.0108605
0.0113041
0.0117949
0.012309
0.000856065
0.00560357
0.00804126
0.0087123
0.00860139
0.00838564
0.00824629
0.00817507
0.00814558
0.00815274
0.00819554
0.00826421
0.00834812
0.00844632
0.00857466
0.00874179
0.00895109
0.00920498
0.00950649
0.00985747
0.0102569
0.0106972
0.0111594
0.000869289
0.00470647
0.00664985
0.00692965
0.00685057
0.00676718
0.006747
0.00678265
0.00685538
0.00695643
0.00707998
0.00721889
0.00735873
0.00749618
0.00764983
0.00783069
0.00804332
0.00829097
0.00857435
0.0088933
0.00924586
0.00962467
0.0100139
0.000843534
0.0036243
0.00475098
0.00506619
0.00509533
0.00508907
0.00517429
0.00532279
0.00549897
0.00568538
0.00587342
0.00605784
0.00623708
0.00641843
0.00661177
0.00682165
0.00704905
0.00729502
0.00755831
0.0078378
0.0081331
0.00844024
0.00874623
0.000777103
0.00260966
0.00326315
0.00348503
0.00351416
0.00358289
0.00375864
0.00399766
0.00425171
0.00449414
0.00471273
0.00490628
0.00508453
0.00526517
0.0054677
0.0056893
0.00592374
0.00616237
0.00639269
0.00661156
0.00682357
0.00702922
0.00722037
0.000603123
0.00175754
0.00209274
0.00222533
0.00233933
0.00250981
0.00274946
0.00301816
0.00327276
0.00348998
0.00366215
0.00379228
0.00389875
0.00400437
0.0041348
0.0043376
0.00457273
0.00479542
0.00496332
0.00509251
0.00520335
0.00529234
0.00535821
0.000422838
0.00114049
0.00147634
0.00179543
0.00203154
0.00223842
0.00239962
0.00250307
0.00256692
0.00260523
0.00262981
0.00264573
0.00264573
0.00262218
0.00259129
0.00286516
0.00320335
0.00347503
0.00366612
0.00365652
0.00371935
0.00372694
0.00376578
0.000340941
0.000362159
0.000383257
0.000401748
0.00125045
0.00127885
0.00138715
0.00165246
0.00274979
0.00286244
0.00308106
0.00344622
0.00453961
0.00468722
0.00490893
0.00520572
0.00617579
0.00630039
0.00646218
0.00665394
0.0074917
0.00756555
0.00765358
0.00775023
0.00848888
0.00850751
0.00852835
0.00854769
0.00922006
0.00918761
0.00915066
0.0091063
0.00973532
0.00965661
0.00956823
0.00946727
0.0100685
0.00994594
0.00980815
0.00965166
0.0102386
0.0100718
0.00988279
0.00966752
0.0102569
0.010043
0.00979877
0.00951961
0.0101338
0.0098698
0.0095665
0.00921955
0.00988738
0.00957193
0.00920859
0.00879418
0.00954889
0.00918477
0.00876548
0.00829013
0.0091664
0.00876185
0.00829683
0.0077735
0.00880398
0.00837305
0.00787835
0.00732493
0.00853658
0.0080978
0.00759379
0.00703081
0.00844085
0.00801391
0.00752276
0.00697161
0.00858448
0.00818486
0.0077265
0.00720858
0.00901545
0.00864929
0.00823541
0.00776827
0.00974825
0.00941281
0.00904299
0.00863225
0.0107501
0.0104405
0.010107
0.00974509
0.0119418
0.0116568
0.0113532
0.0110293
0.0132179
0.01296
0.0126848
0.0123927
0.01447
0.0142423
0.0139965
0.0137336
0.0155934
0.0154026
0.0151919
0.0149621
0.0164966
0.0163525
0.0161863
0.0159987
0.0171067
0.0170196
0.0169084
0.0167738
0.0173713
0.0173504
0.0173042
0.0172332
0.0172649
0.0173164
0.0173425
0.0173438
0.0167955
0.0169202
0.0170211
0.0170994
0.0160091
0.0162009
0.0163725
0.016526
0.0149882
0.0152334
0.0154638
0.0156822
0.0138389
0.0141159
0.0143844
0.0146475
0.0126521
0.0129345
0.013215
0.0134954
0.0114677
0.0117281
0.011991
0.0122592
0.0102635
0.0104782
0.0106978
0.0109255
0.00893466
0.00909269
0.00925086
0.00941194
0.00732894
0.00741285
0.00748888
0.00755981
0.00538546
0.00539562
0.00538458
0.00537238
0.00383417
0.00374352
0.00382462
0.00382875
0.00116623
0.00333754
0.00452538
0.00513527
0.00539305
0.00543307
0.00533432
0.00514713
0.0049026
0.00461715
0.0042967
0.00394114
0.00354744
0.00311193
0.00263208
0.00210618
0.00152802
0.000878531
0.000165505
0.00253615
0.00428254
0.0053824
0.00594814
0.00616078
0.00614687
0.00598571
0.00572749
0.0054028
0.0050305
0.00462076
0.00417643
0.00369799
0.00318689
0.00264744
0.00208554
0.00150085
0.000873721
0.00017453
0.00411858
0.00538519
0.00623059
0.00665823
0.00678143
0.00669578
0.00646645
0.00613631
0.00573209
0.00527137
0.00476605
0.00422254
0.00364794
0.0030542
0.00245946
0.00188348
0.00133517
0.000797493
0.00018618
0.00565444
0.00645646
0.0070036
0.00725462
0.00726523
0.00709478
0.00678826
0.00637688
0.00588052
0.00531298
0.00468979
0.0040263
0.00334538
0.00268
0.00206759
0.00153494
0.00108108
0.000674225
0.000212786
0.00692143
0.00736035
0.00764333
0.00772082
0.00761041
0.00734169
0.00694025
0.00642527
0.00581073
0.00510896
0.00434892
0.00356895
0.00282141
0.00216317
0.00163317
0.00123113
0.000914568
0.000619942
0.000286709
0.00787539
0.00805583
0.00812638
0.00804386
0.00780462
0.00741736
0.00689304
0.00624349
0.00548431
0.00464071
0.00376853
0.00294479
0.00224706
0.00172557
0.00137926
0.00115665
0.000972125
0.00073608
0.000431874
0.00856156
0.00855121
0.0084458
0.00820856
0.00782482
0.00729155
0.00661404
0.0058084
0.00490782
0.00397046
0.00308381
0.00235311
0.00184104
0.00155088
0.00143342
0.00139891
0.00131545
0.00106076
0.000585956
0.00902871
0.00886134
0.00859383
0.00819384
0.00764344
0.00693923
0.00609531
0.00514927
0.00416837
0.00324876
0.00249168
0.00198325
0.00174007
0.00172568
0.0018668
0.00202968
0.00199003
0.00157675
0.000684448
0.00930694
0.00899146
0.00855738
0.00797853
0.00724401
0.00636532
0.00538237
0.00436768
0.00342221
0.00265494
0.00214868
0.00193747
0.00201172
0.00232051
0.0027487
0.00306678
0.00295177
0.00225216
0.000739318
0.00940845
0.00893806
0.00832437
0.00755539
0.00664163
0.00562522
0.00458232
0.00361621
0.00283656
0.00232853
0.00213487
0.00227263
0.00272228
0.00337963
0.00401313
0.00432855
0.00402578
0.00304655
0.000778489
0.00933589
0.008698
0.00789647
0.00694706
0.00589614
0.00482409
0.00383585
0.00304008
0.00252261
0.00233228
0.00249523
0.00304099
0.00388663
0.0047926
0.00544801
0.00564085
0.00508049
0.00374961
0.000811673
0.00909324
0.00828055
0.00730137
0.00621372
0.00510615
0.00408776
0.00326655
0.00272729
0.00252213
0.00268359
0.00324502
0.00421674
0.00535425
0.00632593
0.00688953
0.00690736
0.00605713
0.0042655
0.000821626
0.00869637
0.00771679
0.00659685
0.0054446
0.00438155
0.00351992
0.0029431
0.00270246
0.00283259
0.00336974
0.00434056
0.00561857
0.00686486
0.00778261
0.00821428
0.00800578
0.00686979
0.00467413
0.000842919
0.00818036
0.00706202
0.00586252
0.00473475
0.00380952
0.00317466
0.0028775
0.00294672
0.00341364
0.00430615
0.00558693
0.00699347
0.00820758
0.00901383
0.00928601
0.00886081
0.00748651
0.00499853
0.000860501
0.00760118
0.0063893
0.00518176
0.0041586
0.00343336
0.00305499
0.00304019
0.00340568
0.00417383
0.00533494
0.00676437
0.008156
0.0092615
0.00993171
0.0100653
0.00949483
0.00796788
0.00526258
0.000876743
0.00703173
0.00577739
0.00462327
0.00375511
0.00325241
0.003126
0.00337044
0.00398908
0.00498009
0.00628501
0.00772078
0.00901735
0.00999961
0.0105679
0.0106268
0.00997922
0.00837185
0.00548757
0.000892178
0.00655393
0.00529879
0.00423093
0.00352794
0.00323278
0.00332489
0.00377865
0.00457678
0.00568753
0.00701793
0.00837263
0.00955677
0.0104569
0.0109948
0.0110474
0.010379
0.00874768
0.00569399
0.000904536
0.00624986
0.00501309
0.0040243
0.00345437
0.00331749
0.00356675
0.00415417
0.00503824
0.00616283
0.0074234
0.00867094
0.00978549
0.0106869
0.011276
0.0113815
0.01074
0.00913199
0.00589838
0.000912072
0.00619423
0.00496935
0.00401037
0.00350053
0.0034415
0.00376387
0.00439339
0.00526017
0.00629998
0.00743903
0.00859517
0.00974214
0.0107593
0.0114735
0.0116683
0.0111021
0.00951688
0.00609751
0.000914773
0.00644853
0.00522066
0.00421431
0.00365707
0.00356938
0.00386703
0.00444559
0.00520895
0.00610323
0.00709638
0.00822511
0.00954152
0.010783
0.0116634
0.0119568
0.0114621
0.00985582
0.00625927
0.000912963
0.00704682
0.00582957
0.00471512
0.00398894
0.00374441
0.00390906
0.00435307
0.0049605
0.0056799
0.00654798
0.00780502
0.00941469
0.0109051
0.011942
0.0122996
0.0118019
0.0100899
0.00633061
0.000905864
0.00797003
0.00682071
0.00562191
0.00465313
0.00411846
0.00402594
0.00425259
0.00467691
0.005241
0.00613177
0.00766801
0.00956545
0.0112816
0.012417
0.0127284
0.0121065
0.0101855
0.00629452
0.000894325
0.00914549
0.0081172
0.00694626
0.00580152
0.00492274
0.00445197
0.0043919
0.00461993
0.00509766
0.00620171
0.00806554
0.0101789
0.0119814
0.0130632
0.0132095
0.0123554
0.0101742
0.00619796
0.000882512
0.0104812
0.00957702
0.00852636
0.00737547
0.00626398
0.00542023
0.00504346
0.00511386
0.00568812
0.00706318
0.00907319
0.0111786
0.0128448
0.0137278
0.0136556
0.0125466
0.0101233
0.00608546
0.000874153
0.0118858
0.0110797
0.0101601
0.00911314
0.0080097
0.00702462
0.0064271
0.006407
0.00714838
0.00857979
0.0104501
0.0122902
0.0136633
0.0142857
0.0139991
0.0126939
0.0100938
0.00600749
0.000870575
0.0132672
0.012542
0.0117323
0.0108371
0.0098882
0.00899679
0.00839378
0.00836093
0.00903761
0.0102707
0.0118221
0.0133053
0.0143542
0.0147175
0.0142437
0.0128128
0.0101009
0.0059617
0.000871199
0.0145472
0.0139072
0.0131967
0.0124318
0.0116474
0.0109279
0.0104416
0.0104165
0.0108966
0.0118423
0.0130449
0.0141802
0.0149275
0.0150562
0.0144292
0.0129241
0.0101369
0.00592701
0.000874961
0.0156505
0.0151067
0.0144944
0.0138394
0.0131833
0.0126001
0.0122113
0.012154
0.0124825
0.0131781
0.0140797
0.0149178
0.0154076
0.0153343
0.0145841
0.0130417
0.0101994
0.00589821
0.000880773
0.0165103
0.0160782
0.0155725
0.0150216
0.014468
0.0139775
0.0136425
0.0135504
0.0137623
0.0142633
0.0149262
0.0155262
0.0158077
0.0155676
0.0147195
0.0131435
0.0102731
0.00587684
0.000888801
0.0170736
0.0167712
0.0163868
0.0159464
0.0154896
0.0150729
0.0147685
0.0146488
0.0147683
0.0151173
0.0155931
0.0160047
0.0161212
0.01575
0.0148329
0.0131987
0.0103111
0.00587377
0.000899539
0.0173057
0.0171509
0.0169046
0.0165878
0.0162351
0.0158945
0.0156245
0.0154874
0.0155338
0.0157609
0.0160859
0.0163446
0.0163291
0.015864
0.0149171
0.0132067
0.0102911
0.00590425
0.000913829
0.017195
0.017201
0.0171075
0.0169285
0.0166924
0.0164393
0.0162186
0.0160799
0.0160724
0.0162012
0.0164022
0.0165348
0.0164159
0.0159004
0.0149551
0.0131997
0.0102743
0.00596774
0.000932805
0.0167575
0.0169273
0.0169931
0.0169606
0.0168515
0.016698
0.0165401
0.0164197
0.0163787
0.0164309
0.0165322
0.0165662
0.0163779
0.0158586
0.0149446
0.0131907
0.0102889
0.00603088
0.00095575
0.0160367
0.0163563
0.0165732
0.0166852
0.0167057
0.0166583
0.0165738
0.0164874
0.0164327
0.0164305
0.0164595
0.0164321
0.0162224
0.0157531
0.0148835
0.0131464
0.0103075
0.00613242
0.000980558
0.0150921
0.0155264
0.0158675
0.0161064
0.0162464
0.0163014
0.016293
0.016249
0.0162011
0.0161728
0.0161682
0.0161345
0.0159677
0.0156087
0.0147349
0.0129803
0.0102881
0.00627084
0.00100578
0.0139813
0.0144747
0.0148933
0.0152202
0.0154501
0.0155879
0.0156469
0.0156499
0.0156305
0.0156194
0.0156386
0.0156682
0.0155974
0.0152397
0.0142746
0.0126182
0.010195
0.00642056
0.00102848
0.0127365
0.0132295
0.0136623
0.0140166
0.0142835
0.0144627
0.0145629
0.0146014
0.0146086
0.0146248
0.0146643
0.0147237
0.0146717
0.0142345
0.013355
0.0119958
0.00995157
0.00651249
0.00104426
0.0113384
0.0117647
0.0121418
0.0124579
0.0127038
0.0128762
0.0129791
0.0130228
0.0130267
0.0130254
0.0130204
0.0130147
0.0129353
0.0126409
0.0120498
0.0110898
0.00951629
0.00648175
0.00104887
0.00970079
0.00998974
0.0102415
0.0104507
0.0106129
0.0107246
0.0107881
0.0108078
0.010791
0.010759
0.0107348
0.010718
0.0107067
0.0106498
0.0104545
0.00997785
0.00888762
0.00628178
0.00103747
0.00767555
0.00777231
0.00784846
0.00790257
0.00793976
0.00795143
0.00795063
0.00793799
0.00790769
0.00787644
0.00789417
0.00797559
0.00817456
0.00850795
0.0088345
0.00884051
0.00809849
0.00587193
0.000998202
0.0053487
0.00528803
0.00524034
0.00518606
0.00514641
0.00508234
0.00504684
0.00503423
0.00501428
0.005049
0.00516153
0.0054225
0.00590868
0.00670322
0.00759081
0.00789674
0.00706808
0.00505554
0.000910928
0.00376186
0.00371485
0.00361754
0.00364011
0.003605
0.00360816
0.00352373
0.00350719
0.00350585
0.00356299
0.0037047
0.0039449
0.0044189
0.00542745
0.00667023
0.00687554
0.0048884
0.00282464
0.000749433
)
;

boundaryField
{
    leftWall
    {
        type            nutkWallFunction;
        Cmu             0.09;
        kappa           0.41;
        E               9.8;
        value           nonuniform List<scalar> 
50
(
1.2563e-05
1.89918e-05
2.32456e-05
2.68144e-05
2.96315e-05
3.1973e-05
3.39816e-05
3.57278e-05
3.83097e-05
4.09555e-05
4.34041e-05
4.57187e-05
4.79295e-05
5.00539e-05
5.21069e-05
5.41051e-05
5.60672e-05
5.80126e-05
5.99591e-05
6.19184e-05
6.38892e-05
6.58474e-05
6.77256e-05
6.93932e-05
7.06634e-05
7.13873e-05
7.02938e-05
6.81169e-05
6.82901e-05
6.85171e-05
6.86914e-05
6.88286e-05
6.89561e-05
6.90775e-05
6.9198e-05
6.94579e-05
7.07139e-05
7.54469e-05
7.7252e-05
7.9583e-05
8.34864e-05
8.96587e-05
9.8326e-05
0.000106292
0.000110124
0.000110431
9.61547e-05
8.81515e-05
6.87234e-05
4.88559e-05
)
;
    }
    rightWall
    {
        type            nutkWallFunction;
        Cmu             0.09;
        kappa           0.41;
        E               9.8;
        value           nonuniform List<scalar> 
50
(
6.08082e-06
6.84586e-06
8.17543e-06
9.58215e-06
1.08433e-05
1.19354e-05
1.28988e-05
1.37736e-05
1.46242e-05
1.58033e-05
1.70578e-05
1.91781e-05
2.42295e-05
3.47041e-05
4.99329e-05
6.46016e-05
7.25419e-05
7.66507e-05
7.83719e-05
8.15286e-05
8.42311e-05
8.64301e-05
8.82445e-05
8.98265e-05
9.1174e-05
9.2182e-05
9.27789e-05
9.29662e-05
9.27138e-05
9.20395e-05
9.11352e-05
9.02908e-05
8.97326e-05
8.95527e-05
8.97402e-05
9.02052e-05
9.09075e-05
9.18505e-05
9.30848e-05
9.47185e-05
9.67422e-05
9.89535e-05
0.00010121
0.000103261
0.000104691
0.000105051
0.000103858
0.000100006
9.07902e-05
7.23809e-05
)
;
    }
    lowerWall
    {
        type            nutkWallFunction;
        Cmu             0.09;
        kappa           0.41;
        E               9.8;
        value           nonuniform List<scalar> 
62
(
1.94201e-07
1.99246e-06
3.8083e-06
5.20451e-06
6.2315e-06
6.94849e-06
7.452e-06
7.87374e-06
8.21943e-06
8.50044e-06
8.76155e-06
9.08152e-06
9.44167e-06
9.78763e-06
1.00646e-05
1.02022e-05
1.01054e-05
9.66329e-06
8.74733e-06
7.30858e-06
5.45021e-06
2.93425e-06
0
0
1.77681e-05
1.99768e-05
2.05062e-05
1.99885e-05
1.90607e-05
1.84469e-05
2.00742e-05
3.9671e-05
4.24007e-05
4.51348e-05
4.75608e-05
0
1.75962e-05
2.43507e-05
2.92905e-05
3.34095e-05
3.72232e-05
4.09996e-05
4.5319e-05
0
4.29764e-07
1.94763e-06
2.67956e-06
3.11219e-06
3.37148e-06
3.4997e-06
3.52966e-06
3.49565e-06
3.39627e-06
3.20282e-06
2.90912e-06
2.49799e-06
1.94312e-06
1.21542e-06
3.53952e-07
3.02702e-08
0
0
)
;
    }
    atmosphere
    {
        type            calculated;
        value           nonuniform List<scalar> 
46
(
0.009
0.009
0.009
0.009
0.009
0.009
0.009
0.009
0.009
0.009
0.009
0.009
0.009
0.009
0.009
0.00286516
0.00320335
0.00347503
0.009
0.009
0.00371935
0.009
0.00376578
0.009
0.009
0.00382462
0.00382875
0.00376186
0.009
0.009
0.00364011
0.003605
0.009
0.009
0.00350719
0.009
0.00356299
0.0037047
0.0039449
0.0044189
0.00542745
0.00667023
0.00687554
0.009
0.009
0.000749433
)
;
    }
    defaultFaces
    {
        type            empty;
    }
}


// ************************************************************************* //
