/*--------------------------------*- C++ -*----------------------------------*\
  =========                 |
  \\      /  F ield         | OpenFOAM: The Open Source CFD Toolbox
   \\    /   O peration     | Website:  https://openfoam.org
    \\  /    A nd           | Version:  9
     \\/     M anipulation  |
\*---------------------------------------------------------------------------*/
FoamFile
{
    format      ascii;
    class       volScalarField;
    location    "0.6";
    object      p;
}
// * * * * * * * * * * * * * * * * * * * * * * * * * * * * * * * * * * * * * //

dimensions      [1 -1 -2 0 0 0 0];

internalField   nonuniform List<scalar> 
2268
(
-105.401
-105.41
-105.42
-105.436
-105.456
-105.478
-105.502
-105.527
-105.552
-105.578
-105.606
-105.635
-105.666
-105.7
-105.737
-105.776
-105.818
-105.861
-105.899
-105.923
-105.925
-105.909
-105.894
-105.342
-105.35
-105.357
-105.374
-105.394
-105.418
-105.443
-105.469
-105.495
-105.522
-105.551
-105.581
-105.613
-105.648
-105.685
-105.725
-105.767
-105.809
-105.847
-105.872
-105.872
-105.851
-105.832
-105.282
-105.29
-105.296
-105.312
-105.333
-105.357
-105.383
-105.41
-105.437
-105.465
-105.494
-105.526
-105.559
-105.594
-105.632
-105.672
-105.714
-105.756
-105.793
-105.817
-105.82
-105.799
-105.777
-105.219
-105.229
-105.235
-105.25
-105.271
-105.296
-105.322
-105.35
-105.378
-105.406
-105.437
-105.469
-105.502
-105.539
-105.577
-105.617
-105.658
-105.699
-105.736
-105.761
-105.767
-105.749
-105.726
-105.155
-105.166
-105.174
-105.189
-105.21
-105.235
-105.262
-105.289
-105.318
-105.347
-105.377
-105.41
-105.444
-105.48
-105.518
-105.558
-105.599
-105.64
-105.677
-105.703
-105.711
-105.697
-105.674
-105.09
-105.103
-105.113
-105.128
-105.149
-105.174
-105.201
-105.228
-105.257
-105.286
-105.317
-105.35
-105.384
-105.42
-105.458
-105.497
-105.537
-105.577
-105.615
-105.642
-105.652
-105.64
-105.619
-105.024
-105.039
-105.051
-105.067
-105.088
-105.113
-105.139
-105.167
-105.195
-105.225
-105.256
-105.288
-105.323
-105.359
-105.396
-105.434
-105.473
-105.512
-105.55
-105.578
-105.589
-105.579
-105.561
-104.958
-104.975
-104.989
-105.006
-105.027
-105.051
-105.078
-105.105
-105.134
-105.163
-105.194
-105.227
-105.261
-105.296
-105.332
-105.369
-105.407
-105.445
-105.482
-105.512
-105.524
-105.514
-105.502
-105.414
-105.423
-105.425
-105.429
-105.427
-105.415
-105.392
-105.358
-105.312
-105.257
-105.193
-105.124
-105.053
-104.983
-104.921
-104.87
-104.835
-104.816
-104.811
-105.355
-105.36
-105.362
-105.367
-105.367
-105.357
-105.335
-105.301
-105.256
-105.201
-105.138
-105.07
-104.999
-104.93
-104.867
-104.816
-104.779
-104.757
-104.751
-105.294
-105.302
-105.303
-105.309
-105.31
-105.3
-105.279
-105.246
-105.201
-105.148
-105.085
-105.017
-104.946
-104.877
-104.813
-104.76
-104.72
-104.696
-104.689
-105.236
-105.248
-105.252
-105.257
-105.257
-105.246
-105.225
-105.192
-105.148
-105.095
-105.033
-104.965
-104.894
-104.823
-104.757
-104.702
-104.659
-104.633
-104.626
-105.183
-105.199
-105.206
-105.208
-105.207
-105.195
-105.174
-105.141
-105.098
-105.044
-104.982
-104.913
-104.841
-104.769
-104.701
-104.642
-104.596
-104.569
-104.562
-105.141
-105.157
-105.166
-105.165
-105.161
-105.148
-105.125
-105.093
-105.049
-104.995
-104.933
-104.863
-104.789
-104.715
-104.644
-104.581
-104.532
-104.502
-104.496
-105.121
-105.124
-105.133
-105.126
-105.119
-105.104
-105.079
-105.046
-105.002
-104.948
-104.885
-104.814
-104.738
-104.661
-104.586
-104.52
-104.467
-104.435
-104.428
-105.135
-105.108
-105.106
-105.092
-105.08
-105.062
-105.036
-105.002
-104.957
-104.903
-104.839
-104.767
-104.689
-104.608
-104.53
-104.458
-104.401
-104.366
-104.359
-104.855
-104.873
-104.891
-104.91
-104.931
-104.956
-104.982
-105.009
-105.038
-105.067
-105.098
-105.13
-105.163
-105.196
-105.231
-105.266
-105.301
-105.337
-105.374
-105.406
-105.422
-105.414
-105.404
-104.713
-104.735
-104.757
-104.778
-104.8
-104.825
-104.852
-104.879
-104.908
-104.937
-104.967
-104.998
-105.03
-105.062
-105.094
-105.127
-105.159
-105.19
-105.221
-105.248
-105.264
-105.266
-105.255
-104.572
-104.597
-104.622
-104.645
-104.669
-104.695
-104.722
-104.75
-104.778
-104.807
-104.837
-104.868
-104.898
-104.929
-104.96
-104.991
-105.021
-105.05
-105.077
-105.099
-105.113
-105.116
-105.11
-104.432
-104.46
-104.487
-104.513
-104.539
-104.566
-104.593
-104.621
-104.65
-104.679
-104.709
-104.739
-104.77
-104.8
-104.83
-104.86
-104.889
-104.916
-104.94
-104.96
-104.973
-104.977
-104.974
-104.293
-104.324
-104.355
-104.383
-104.41
-104.437
-104.465
-104.494
-104.524
-104.554
-104.584
-104.615
-104.645
-104.675
-104.705
-104.734
-104.762
-104.788
-104.811
-104.83
-104.843
-104.85
-104.85
-104.157
-104.19
-104.224
-104.254
-104.282
-104.311
-104.339
-104.369
-104.4
-104.431
-104.462
-104.493
-104.524
-104.554
-104.583
-104.612
-104.64
-104.665
-104.688
-104.707
-104.721
-104.731
-104.735
-104.023
-104.06
-104.096
-104.128
-104.158
-104.187
-104.217
-104.247
-104.279
-104.312
-104.344
-104.375
-104.406
-104.436
-104.466
-104.494
-104.521
-104.547
-104.57
-104.589
-104.605
-104.617
-104.625
-103.893
-103.933
-103.972
-104.005
-104.036
-104.066
-104.097
-104.129
-104.162
-104.196
-104.229
-104.261
-104.291
-104.321
-104.351
-104.379
-104.406
-104.432
-104.455
-104.476
-104.493
-104.507
-104.518
-103.767
-103.81
-103.851
-103.887
-103.919
-103.95
-103.982
-104.015
-104.049
-104.083
-104.117
-104.149
-104.179
-104.209
-104.239
-104.267
-104.294
-104.32
-104.344
-104.365
-104.384
-104.4
-104.414
-103.645
-103.691
-103.735
-103.773
-103.806
-103.839
-103.872
-103.906
-103.94
-103.974
-104.007
-104.039
-104.07
-104.1
-104.13
-104.158
-104.185
-104.211
-104.234
-104.257
-104.277
-104.295
-104.313
-103.528
-103.578
-103.625
-103.664
-103.699
-103.733
-103.767
-103.801
-103.835
-103.869
-103.902
-103.933
-103.964
-103.994
-104.023
-104.051
-104.078
-104.103
-104.127
-104.15
-104.171
-104.192
-104.213
-103.417
-103.47
-103.521
-103.561
-103.597
-103.632
-103.666
-103.7
-103.734
-103.767
-103.799
-103.83
-103.86
-103.89
-103.918
-103.946
-103.972
-103.996
-104.02
-104.044
-104.066
-104.089
-104.113
-103.313
-103.371
-103.423
-103.464
-103.501
-103.535
-103.569
-103.603
-103.635
-103.667
-103.699
-103.729
-103.759
-103.788
-103.815
-103.842
-103.867
-103.891
-103.914
-103.938
-103.961
-103.985
-104.011
-103.219
-103.28
-103.334
-103.374
-103.41
-103.444
-103.476
-103.508
-103.54
-103.57
-103.6
-103.63
-103.659
-103.686
-103.713
-103.738
-103.763
-103.786
-103.809
-103.832
-103.855
-103.88
-103.907
-103.137
-103.199
-103.252
-103.29
-103.323
-103.355
-103.386
-103.416
-103.445
-103.475
-103.503
-103.532
-103.559
-103.586
-103.612
-103.636
-103.66
-103.682
-103.703
-103.725
-103.748
-103.773
-103.8
-103.075
-103.127
-103.177
-103.209
-103.238
-103.267
-103.295
-103.324
-103.351
-103.379
-103.406
-103.434
-103.461
-103.487
-103.511
-103.535
-103.557
-103.577
-103.598
-103.618
-103.64
-103.664
-103.691
-103.038
-103.06
-103.103
-103.128
-103.153
-103.178
-103.204
-103.23
-103.256
-103.283
-103.309
-103.336
-103.362
-103.388
-103.411
-103.433
-103.454
-103.473
-103.491
-103.511
-103.531
-103.554
-103.58
-103.039
-102.982
-103.023
-103.042
-103.063
-103.085
-103.109
-103.134
-103.16
-103.186
-103.212
-103.238
-103.264
-103.288
-103.311
-103.332
-103.351
-103.368
-103.385
-103.402
-103.421
-103.442
-103.466
-102.982
-102.886
-102.927
-102.946
-102.965
-102.987
-103.01
-103.035
-103.06
-103.086
-103.113
-103.139
-103.164
-103.188
-103.21
-103.229
-103.247
-103.263
-103.278
-103.294
-103.31
-103.328
-103.349
-102.821
-102.78
-102.817
-102.839
-102.859
-102.881
-102.905
-102.931
-102.957
-102.985
-103.012
-103.038
-103.064
-103.087
-103.108
-103.127
-103.143
-103.157
-103.171
-103.184
-103.198
-103.213
-103.231
-102.685
-102.671
-102.701
-102.724
-102.746
-102.769
-102.795
-102.822
-102.851
-102.88
-102.908
-102.935
-102.961
-102.984
-103.005
-103.022
-103.037
-103.051
-103.062
-103.073
-103.085
-103.097
-103.112
-102.555
-102.555
-102.579
-102.602
-102.625
-102.651
-102.678
-102.708
-102.739
-102.77
-102.8
-102.829
-102.855
-102.879
-102.899
-102.916
-102.931
-102.943
-102.953
-102.963
-102.972
-102.982
-102.993
-102.415
-102.431
-102.448
-102.471
-102.496
-102.523
-102.554
-102.587
-102.621
-102.654
-102.687
-102.717
-102.745
-102.769
-102.79
-102.807
-102.821
-102.833
-102.843
-102.851
-102.858
-102.866
-102.874
-102.27
-102.296
-102.308
-102.33
-102.356
-102.387
-102.421
-102.457
-102.495
-102.532
-102.567
-102.6
-102.629
-102.655
-102.677
-102.695
-102.709
-102.721
-102.73
-102.737
-102.743
-102.749
-102.754
-102.111
-102.15
-102.153
-102.175
-102.204
-102.238
-102.277
-102.318
-102.36
-102.4
-102.439
-102.475
-102.507
-102.535
-102.558
-102.577
-102.592
-102.604
-102.614
-102.621
-102.627
-102.631
-102.635
-101.926
-101.995
-101.981
-102.005
-102.038
-102.077
-102.121
-102.167
-102.214
-102.26
-102.303
-102.343
-102.378
-102.408
-102.433
-102.454
-102.471
-102.484
-102.494
-102.502
-102.507
-102.512
-102.514
-101.681
-101.836
-101.783
-101.816
-101.854
-101.901
-101.952
-102.005
-102.058
-102.109
-102.157
-102.201
-102.24
-102.273
-102.302
-102.325
-102.344
-102.359
-102.37
-102.379
-102.386
-102.39
-102.393
-101.356
-101.619
-101.548
-101.601
-101.651
-101.707
-101.768
-101.829
-101.89
-101.948
-102.003
-102.052
-102.095
-102.132
-102.164
-102.19
-102.212
-102.229
-102.242
-102.253
-102.261
-102.267
-102.271
-100.961
-101.288
-101.283
-101.357
-101.427
-101.497
-101.569
-101.641
-101.711
-101.778
-101.84
-101.896
-101.945
-101.987
-102.022
-102.052
-102.076
-102.095
-102.111
-102.124
-102.134
-102.141
-102.146
-100.657
-100.944
-101.003
-101.101
-101.189
-101.273
-101.357
-101.441
-101.523
-101.601
-101.673
-101.737
-101.792
-101.839
-101.879
-101.911
-101.938
-101.96
-101.979
-101.994
-102.006
-102.014
-102.02
-100.506
-100.657
-100.743
-100.846
-100.943
-101.039
-101.136
-101.233
-101.33
-101.421
-101.505
-101.579
-101.641
-101.694
-101.738
-101.774
-101.803
-101.827
-101.848
-101.864
-101.877
-101.886
-101.893
-100.306
-100.381
-100.485
-100.586
-100.69
-100.796
-100.907
-101.021
-101.135
-101.244
-101.342
-101.427
-101.499
-101.557
-101.605
-101.644
-101.675
-101.7
-101.721
-101.738
-101.751
-101.76
-101.767
-100.015
-100.072
-100.2
-100.313
-100.428
-100.549
-100.677
-100.812
-100.948
-101.076
-101.192
-101.29
-101.37
-101.434
-101.486
-101.526
-101.558
-101.583
-101.602
-101.617
-101.629
-101.637
-101.646
-99.6576
-99.729
-99.8917
-100.03
-100.165
-100.302
-100.452
-100.615
-100.778
-100.931
-101.066
-101.177
-101.264
-101.331
-101.384
-101.425
-101.455
-101.477
-101.494
-101.506
-101.513
-101.518
-101.524
-99.255
-99.3798
-99.5594
-99.7379
-99.9009
-100.063
-100.248
-100.451
-100.645
-100.822
-100.975
-101.098
-101.186
-101.252
-101.306
-101.344
-101.368
-101.384
-101.396
-101.402
-101.403
-101.401
-101.394
-98.7675
-98.993
-99.1902
-99.4196
-99.6306
-99.8511
-100.097
-100.342
-100.558
-100.75
-100.919
-101.046
-101.127
-101.184
-101.235
-101.268
-101.284
-101.291
-101.292
-101.289
-101.282
-101.27
-101.246
-98.1366
-98.3746
-98.6871
-99.0348
-99.321
-99.6328
-99.9998
-100.267
-100.465
-100.667
-100.835
-100.932
-100.994
-101.054
-101.103
-101.126
-101.134
-101.133
-101.118
-101.103
-101.09
-101.074
-101.049
-97.4811
-97.5117
-98.2061
-98.7285
-98.9988
-99.2968
-99.935
-100.217
-100.18
-100.367
-100.687
-101.073
-101.252
-101.32
-101.413
-101.421
-101.384
-101.364
-101.335
-101.346
-101.399
-101.458
-101.437
-94.9495
-94.177
-96.5136
-98.3017
-99.0969
-98.3668
-91.653
-85.2324
-85.4439
-86.9134
-88.0546
-88.4416
-88.3999
-87.0832
-83.9576
-77.7995
-73.7365
-74.0154
-75.2273
-77.4259
-79.4017
-80.2147
-81.8241
-76.0082
-80.1783
-91.0222
-94.058
-90.7017
-82.1229
-64.6573
-53.2955
-53.3821
-57.1034
-62.1866
-66.15
-68.1385
-69.9052
-63.7769
-62.05
-58.2571
-52.0687
-27.1095
-17.5063
-30.359
-22.5492
-30.6939
-33.9574
-34.0872
-50.9055
-46.0715
-32.7738
-25.5681
-23.6563
-25.5639
-29.0463
-30.2717
-28.4573
-23.2561
-18.882
-19.3275
-21.3819
-23.4272
-18.9637
-10.1981
52.9929
87.4485
58.0571
90.9664
71.3979
-27.6393
-6.59684
-2.96298
2.47974
4.66268
4.79022
4.63625
4.16603
3.8338
3.88422
4.14111
4.30297
4.37002
4.44869
4.85156
7.70658
18.8505
30.3302
111.605
154.694
81.9571
197.739
95.6894
-105.442
-105.483
-105.556
-105.575
-105.243
-105.232
-105.224
-105.204
-105.097
-105.086
-105.066
-105.041
-104.966
-104.959
-104.95
-104.937
-104.846
-104.841
-104.836
-104.829
-104.734
-104.733
-104.731
-104.728
-104.628
-104.63
-104.63
-104.631
-104.525
-104.529
-104.533
-104.536
-104.424
-104.431
-104.438
-104.445
-104.326
-104.336
-104.346
-104.355
-104.23
-104.242
-104.254
-104.266
-104.133
-104.147
-104.161
-104.175
-104.033
-104.049
-104.066
-104.082
-103.931
-103.948
-103.967
-103.986
-103.826
-103.845
-103.865
-103.885
-103.717
-103.737
-103.758
-103.78
-103.605
-103.625
-103.646
-103.668
-103.49
-103.508
-103.529
-103.55
-103.371
-103.388
-103.408
-103.427
-103.25
-103.266
-103.283
-103.3
-103.128
-103.141
-103.155
-103.17
-103.005
-103.015
-103.026
-103.037
-102.882
-102.889
-102.896
-102.904
-102.759
-102.763
-102.767
-102.772
-102.636
-102.638
-102.639
-102.641
-102.514
-102.513
-102.512
-102.511
-102.391
-102.387
-102.383
-102.38
-102.267
-102.262
-102.254
-102.247
-102.142
-102.134
-102.123
-102.113
-102.015
-102.005
-101.991
-101.978
-101.888
-101.876
-101.86
-101.844
-101.762
-101.75
-101.731
-101.714
-101.643
-101.631
-101.611
-101.59
-101.524
-101.513
-101.491
-101.467
-101.378
-101.348
-101.308
-101.284
-101.197
-101.131
-101.056
-101.027
-101.016
-100.983
-100.962
-100.989
-101.318
-101.051
-101.045
-101.142
-82.5345
-81.9059
-80.5192
-79.0952
-25.5066
-18.5495
-20.3438
-23.6647
79.2474
100.362
98.2416
58.7721
207.064
210.562
118.539
82.5612
-105.27
-105.118
-105.07
-105.042
-105.022
-104.999
-104.971
-104.935
-104.889
-104.834
-104.768
-104.694
-104.612
-104.527
-104.441
-104.361
-104.296
-104.256
-104.248
-105.133
-105.063
-105.009
-104.974
-104.947
-104.92
-104.889
-104.851
-104.804
-104.747
-104.68
-104.602
-104.515
-104.421
-104.323
-104.229
-104.149
-104.098
-104.087
-105.004
-104.969
-104.933
-104.902
-104.875
-104.847
-104.815
-104.776
-104.729
-104.671
-104.603
-104.522
-104.428
-104.324
-104.212
-104.1
-104
-103.932
-103.914
-104.911
-104.883
-104.856
-104.831
-104.806
-104.779
-104.748
-104.71
-104.664
-104.608
-104.539
-104.456
-104.357
-104.243
-104.116
-103.981
-103.852
-103.757
-103.723
-104.817
-104.799
-104.78
-104.76
-104.74
-104.717
-104.689
-104.654
-104.611
-104.557
-104.49
-104.407
-104.307
-104.186
-104.044
-103.884
-103.721
-103.58
-103.503
-104.723
-104.714
-104.703
-104.691
-104.677
-104.66
-104.637
-104.608
-104.57
-104.521
-104.459
-104.382
-104.286
-104.166
-104.017
-103.835
-103.629
-103.405
-103.23
-104.631
-104.631
-104.628
-104.624
-104.618
-104.607
-104.592
-104.57
-104.54
-104.5
-104.449
-104.384
-104.304
-104.201
-104.063
-103.868
-103.622
-103.303
-102.892
-104.542
-104.549
-104.555
-104.559
-104.561
-104.559
-104.553
-104.541
-104.522
-104.495
-104.461
-104.419
-104.37
-104.312
-104.217
-104.045
-103.85
-103.734
-102.33
-104.455
-104.469
-104.483
-104.495
-104.506
-104.514
-104.519
-104.519
-104.515
-104.506
-104.494
-104.484
-104.483
-104.49
-104.485
-104.457
-104.336
-105.407
-100.58
-104.37
-104.39
-104.411
-104.432
-104.453
-104.472
-104.49
-104.505
-104.517
-104.529
-104.543
-104.566
-104.605
-104.659
-104.722
-104.824
-104.725
-111.734
-95.5285
-104.284
-104.311
-104.339
-104.369
-104.401
-104.433
-104.465
-104.497
-104.529
-104.562
-104.599
-104.643
-104.694
-104.759
-104.906
-105.121
-104.228
-113.349
-82.0722
-104.197
-104.23
-104.266
-104.306
-104.349
-104.395
-104.444
-104.495
-104.548
-104.602
-104.654
-104.704
-104.753
-104.816
-104.923
-105.117
-104.686
-107.363
-61.4603
-104.108
-104.147
-104.191
-104.241
-104.296
-104.357
-104.425
-104.499
-104.577
-104.651
-104.714
-104.762
-104.797
-104.814
-104.797
-104.819
-104.945
-105.645
-56.0317
-104.015
-104.06
-104.112
-104.171
-104.239
-104.318
-104.408
-104.508
-104.615
-104.715
-104.793
-104.839
-104.845
-104.799
-104.757
-104.774
-104.996
-105.584
-69.7603
-103.918
-103.967
-104.026
-104.095
-104.177
-104.274
-104.389
-104.522
-104.665
-104.8
-104.903
-104.948
-104.926
-104.867
-104.824
-104.825
-105.019
-105.1
-80.3961
-103.814
-103.867
-103.931
-104.009
-104.104
-104.222
-104.366
-104.537
-104.724
-104.907
-105.044
-105.091
-105.055
-104.981
-104.91
-104.869
-105.052
-104.851
-86.7671
-103.703
-103.758
-103.826
-103.91
-104.017
-104.156
-104.332
-104.542
-104.783
-105.043
-105.224
-105.265
-105.202
-105.095
-104.988
-104.901
-105.079
-104.832
-90.9087
-103.585
-103.639
-103.707
-103.795
-103.912
-104.069
-104.275
-104.531
-104.86
-105.23
-105.445
-105.459
-105.344
-105.186
-105.043
-104.926
-105.045
-104.759
-92.6834
-103.459
-103.51
-103.575
-103.662
-103.784
-103.953
-104.189
-104.527
-104.994
-105.476
-105.713
-105.659
-105.454
-105.228
-105.051
-104.921
-105.017
-104.685
-93.0852
-103.328
-103.373
-103.43
-103.511
-103.629
-103.802
-104.063
-104.505
-105.164
-105.707
-105.923
-105.754
-105.456
-105.171
-104.986
-104.875
-105.067
-104.845
-94.44
-103.192
-103.229
-103.277
-103.344
-103.448
-103.602
-103.849
-104.335
-105.088
-105.642
-105.787
-105.536
-105.221
-104.946
-104.791
-104.703
-105.125
-105.338
-95.4978
-103.055
-103.083
-103.119
-103.169
-103.248
-103.368
-103.548
-103.926
-104.59
-105.08
-105.115
-104.914
-104.716
-104.531
-104.425
-104.34
-104.968
-106.144
-98.2122
-102.917
-102.937
-102.962
-102.995
-103.047
-103.129
-103.247
-103.462
-103.813
-104.103
-104.162
-104.143
-104.091
-104.001
-103.926
-103.84
-104.319
-107.213
-102.201
-102.781
-102.794
-102.81
-102.83
-102.86
-102.908
-102.979
-103.089
-103.238
-103.358
-103.451
-103.52
-103.521
-103.466
-103.395
-103.299
-103.065
-105.192
-104.453
-102.645
-102.653
-102.662
-102.673
-102.688
-102.711
-102.745
-102.797
-102.869
-102.941
-103.009
-103.046
-103.034
-102.981
-102.906
-102.81
-102.38
-104.283
-106.344
-102.511
-102.513
-102.516
-102.521
-102.526
-102.534
-102.545
-102.565
-102.597
-102.627
-102.649
-102.647
-102.614
-102.552
-102.467
-102.372
-102.08
-107.871
-108.907
-102.376
-102.374
-102.372
-102.37
-102.367
-102.363
-102.359
-102.355
-102.353
-102.345
-102.326
-102.292
-102.238
-102.166
-102.07
-101.966
-101.7
-111.703
-111.595
-102.24
-102.233
-102.226
-102.217
-102.205
-102.189
-102.169
-102.144
-102.113
-102.072
-102.02
-101.956
-101.883
-101.808
-101.705
-101.639
-101.448
-115.203
-112.504
-102.102
-102.092
-102.079
-102.062
-102.04
-102.011
-101.973
-101.927
-101.869
-101.798
-101.714
-101.62
-101.526
-101.446
-101.318
-101.455
-101.894
-119.223
-108.09
-101.964
-101.951
-101.932
-101.906
-101.872
-101.828
-101.773
-101.704
-101.62
-101.519
-101.401
-101.271
-101.144
-101.027
-100.811
-101.383
-104.04
-125.984
-91.2601
-101.827
-101.81
-101.786
-101.751
-101.705
-101.645
-101.57
-101.479
-101.367
-101.235
-101.08
-100.908
-100.732
-100.547
-100.241
-101.053
-109.574
-131.73
-53.8212
-101.694
-101.672
-101.643
-101.599
-101.54
-101.464
-101.369
-101.253
-101.113
-100.947
-100.752
-100.53
-100.293
-100.045
-99.6844
-100.004
-114.932
-111.379
12.2748
-101.565
-101.537
-101.503
-101.451
-101.38
-101.288
-101.172
-101.03
-100.859
-100.655
-100.412
-100.13
-99.8308
-99.5523
-99.2176
-99.321
-115.296
-51.7896
113.445
-101.431
-101.399
-101.361
-101.303
-101.223
-101.115
-100.978
-100.812
-100.609
-100.363
-100.066
-99.7241
-99.3828
-99.1151
-98.8551
-98.995
-103.497
51.8991
278.193
-101.253
-101.229
-101.192
-101.135
-101.051
-100.93
-100.779
-100.601
-100.382
-100.116
-99.7949
-99.4214
-99.0085
-98.4723
-97.4032
-93.555
-29.9797
232.536
530.749
-101.026
-101.012
-100.968
-100.927
-100.847
-100.712
-100.557
-100.39
-100.187
-99.9296
-99.5722
-98.9793
-97.8864
-95.1132
-86.7211
-24.4254
193.423
513.631
868.114
-101.069
-101.107
-101.094
-101.112
-101.047
-100.835
-100.563
-100.251
-99.8009
-99.1854
-98.1712
-95.9846
-90.4074
-67.0846
41.6296
258.614
529.868
853.773
1233.65
-101.279
-101.244
-101.13
-101.173
-100.892
-99.9199
-98.4315
-96.2251
-92.2445
-85.2145
-71.5978
-44.448
17.6181
171.043
409.992
657.493
896.476
1180.24
1536.72
-77.6033
-73.584
-72.1169
-76.3565
-75.1086
-63.5819
-51.5111
-40.9156
-17.2828
25.4487
98.7259
218.595
383.858
589.562
810.488
1029.58
1236.3
1431.06
1697.27
-13.8385
44.7606
60.3957
8.43284
4.54931
72.474
111.206
99.959
142.092
208.156
349.353
535.421
702.035
880.592
1097.34
1347.44
1557.37
1600.55
1687.2
66.8483
233.559
274.237
117.066
91.4013
255.992
323.049
228.891
277.514
308.225
501.071
733.746
867.952
993.07
1212.44
1550.75
1899.83
1768.15
1545.1
90.6208
389.668
413.931
109.334
104.066
424.325
459.656
193.166
435.683
255.224
682.157
818.917
876.398
961.857
1154.62
1522.85
2139.45
2423.1
808.174
)
;

boundaryField
{
    leftWall
    {
        type            calculated;
        value           nonuniform List<scalar> 
50
(
-105.401
-105.342
-105.282
-105.219
-105.155
-105.09
-105.024
-104.958
-104.855
-104.713
-104.572
-104.432
-104.293
-104.157
-104.023
-103.893
-103.767
-103.645
-103.528
-103.417
-103.313
-103.219
-103.137
-103.075
-103.038
-103.039
-102.982
-102.821
-102.685
-102.555
-102.415
-102.27
-102.111
-101.926
-101.681
-101.356
-100.961
-100.657
-100.506
-100.306
-100.015
-99.6576
-99.255
-98.7675
-98.1366
-97.4811
-94.9495
-76.0082
-33.9574
-27.6393
)
;
    }
    rightWall
    {
        type            calculated;
        value           nonuniform List<scalar> 
50
(
-104.811
-104.751
-104.689
-104.626
-104.562
-104.496
-104.428
-104.359
-104.248
-104.087
-103.914
-103.723
-103.503
-103.23
-102.892
-102.33
-100.58
-95.5285
-82.0722
-61.4603
-56.0317
-69.7603
-80.3961
-86.7671
-90.9087
-92.6834
-93.0852
-94.44
-95.4978
-98.2122
-102.201
-104.453
-106.344
-108.907
-111.595
-112.504
-108.09
-91.2601
-53.8212
12.2748
113.445
278.193
530.749
868.114
1233.65
1536.72
1697.27
1687.2
1545.1
808.174
)
;
    }
    lowerWall
    {
        type            calculated;
        value           nonuniform List<scalar> 
62
(
-105.43
-105.439
-105.449
-105.465
-105.485
-105.508
-105.532
-105.556
-105.582
-105.608
-105.635
-105.665
-105.696
-105.73
-105.766
-105.806
-105.848
-105.89
-105.929
-105.953
-105.955
-105.938
-105.923
-105.894
-105.832
-105.777
-105.726
-105.674
-105.619
-105.561
-105.502
-105.504
-105.545
-105.618
-105.637
-105.414
-105.355
-105.294
-105.236
-105.183
-105.141
-105.121
-105.135
-105.444
-105.452
-105.455
-105.458
-105.456
-105.445
-105.422
-105.387
-105.342
-105.286
-105.222
-105.153
-105.082
-105.013
-104.951
-104.9
-104.864
-104.845
-104.841
)
;
    }
    atmosphere
    {
        type            calculated;
        value           nonuniform List<scalar> 
46
(
5.52971
5.61838
5.70684
5.7132
5.69626
5.6901
5.70765
5.71998
5.7252
5.72709
5.72758
5.72698
5.72629
5.72722
5.72879
6.35735
21.3609
5.72904
146.258
216.003
5.72904
317.303
5.72904
395.013
418.702
5.72904
5.72904
5.72904
536.243
561.888
5.72904
5.72904
561.605
588.312
5.72904
599.395
5.72904
766.067
840.981
821.924
826.659
948.066
1356.97
2251.18
3396.79
5.72904
)
;
    }
    defaultFaces
    {
        type            empty;
    }
}


// ************************************************************************* //
