/*--------------------------------*- C++ -*----------------------------------*\
  =========                 |
  \\      /  F ield         | OpenFOAM: The Open Source CFD Toolbox
   \\    /   O peration     | Website:  https://openfoam.org
    \\  /    A nd           | Version:  9
     \\/     M anipulation  |
\*---------------------------------------------------------------------------*/
FoamFile
{
    format      ascii;
    class       surfaceScalarField;
    location    "0.6";
    object      phi;
}
// * * * * * * * * * * * * * * * * * * * * * * * * * * * * * * * * * * * * * //

dimensions      [0 3 -1 0 0 0 0];

internalField   nonuniform List<scalar> 
4432
(
-4.8724e-06
4.8724e-06
-7.31012e-06
2.43773e-06
-6.65209e-06
-6.5803e-07
-4.80418e-06
-1.84792e-06
-2.75348e-06
-2.0507e-06
-8.50072e-07
-1.90341e-06
8.16935e-07
-1.66701e-06
2.23009e-06
-1.41315e-06
3.41723e-06
-1.18715e-06
4.41636e-06
-9.9912e-07
5.2609e-06
-8.44545e-07
5.96017e-06
-6.99268e-07
6.48642e-06
-5.26254e-07
6.78002e-06
-2.93594e-07
6.72388e-06
5.61324e-08
6.13994e-06
5.83945e-07
4.81207e-06
1.32787e-06
2.49072e-06
2.32136e-06
-9.10337e-07
3.40105e-06
-5.58963e-06
4.6793e-06
-9.89518e-06
4.30555e-06
-9.86587e-06
-2.93105e-08
-9.86587e-06
-3.86474e-06
8.73714e-06
-4.28962e-06
2.86261e-06
-3.23002e-06
-1.71764e-06
-1.62377e-06
-3.45416e-06
6.81583e-08
-3.74263e-06
1.63729e-06
-3.47254e-06
2.99799e-06
-3.02771e-06
4.14163e-06
-2.55679e-06
5.08262e-06
-2.12814e-06
5.84845e-06
-1.76494e-06
6.46485e-06
-1.46095e-06
6.93852e-06
-1.17293e-06
7.24707e-06
-8.34815e-07
7.35128e-06
-3.97793e-07
7.20796e-06
1.99451e-07
6.75234e-06
1.03956e-06
5.84814e-06
2.23207e-06
4.30735e-06
3.86215e-06
1.94141e-06
5.76698e-06
-9.52486e-07
7.5732e-06
-3.73728e-06
7.09034e-06
-4.89405e-06
1.12746e-06
-1.47599e-05
-2.12383e-06
1.0861e-05
-1.73181e-06
2.47058e-06
-6.37298e-07
-2.81214e-06
7.29172e-07
-4.82063e-06
2.10991e-06
-5.12337e-06
3.36516e-06
-4.72779e-06
4.44407e-06
-4.10662e-06
5.33903e-06
-3.45176e-06
6.05952e-06
-2.84862e-06
6.62546e-06
-2.33088e-06
7.05749e-06
-1.89298e-06
7.36079e-06
-1.47623e-06
7.51564e-06
-9.89664e-07
7.49383e-06
-3.75984e-07
7.2768e-06
4.16487e-07
6.84369e-06
1.47267e-06
6.1534e-06
2.92235e-06
5.14255e-06
4.87301e-06
3.76853e-06
7.14099e-06
2.20983e-06
9.1319e-06
4.56217e-07
8.84396e-06
-4.57854e-07
2.04153e-06
-1.52178e-05
-3.83099e-07
1.12441e-05
5.47428e-07
1.54006e-06
1.65052e-06
-3.91523e-06
2.80114e-06
-5.97125e-06
3.87158e-06
-6.19381e-06
4.8148e-06
-5.67101e-06
5.61547e-06
-4.90729e-06
6.26908e-06
-4.10537e-06
6.77844e-06
-3.35798e-06
7.15626e-06
-2.7087e-06
7.41987e-06
-2.1566e-06
7.57452e-06
-1.63087e-06
7.60153e-06
-1.01668e-06
7.48239e-06
-2.56842e-07
7.21597e-06
6.82905e-07
6.81504e-06
1.8736e-06
6.29293e-06
3.44446e-06
5.65433e-06
5.51161e-06
4.93137e-06
7.86396e-06
4.25086e-06
9.81241e-06
3.48345e-06
9.61138e-06
2.1804e-06
3.34457e-06
-1.30374e-05
1.45629e-06
9.78778e-06
2.66735e-06
3.29e-07
3.77674e-06
-5.02462e-06
4.67799e-06
-6.8725e-06
5.42302e-06
-6.93884e-06
6.05425e-06
-6.30224e-06
6.5838e-06
-5.43685e-06
7.00501e-06
-4.52657e-06
7.31142e-06
-3.66439e-06
7.50855e-06
-2.90583e-06
7.61257e-06
-2.26062e-06
7.63075e-06
-1.64904e-06
7.54443e-06
-9.30364e-07
7.34279e-06
-5.51943e-08
7.03994e-06
9.85754e-07
6.67547e-06
2.23807e-06
6.29774e-06
3.82219e-06
5.94259e-06
5.86677e-06
5.66981e-06
8.13673e-06
5.55203e-06
9.93018e-06
5.32753e-06
9.83588e-06
4.03703e-06
4.63507e-06
-9.00034e-06
2.9479e-06
6.83988e-06
4.67705e-06
-1.40015e-06
5.72417e-06
-6.07175e-06
6.32859e-06
-7.47691e-06
6.73473e-06
-7.34498e-06
7.06464e-06
-6.63215e-06
7.34103e-06
-5.71324e-06
7.54656e-06
-4.7321e-06
7.66279e-06
-3.78062e-06
7.68839e-06
-2.93143e-06
7.64099e-06
-2.21322e-06
7.53251e-06
-1.54056e-06
7.34325e-06
-7.41103e-07
7.06871e-06
2.19351e-07
6.73609e-06
1.31837e-06
6.40736e-06
2.5668e-06
6.15498e-06
4.07457e-06
6.02275e-06
5.99899e-06
6.07388e-06
8.08561e-06
6.3489e-06
9.65516e-06
6.53436e-06
9.65043e-06
5.3514e-06
5.81803e-06
-3.64894e-06
4.10743e-06
2.73245e-06
6.46711e-06
-3.75983e-06
7.40518e-06
-7.00982e-06
7.66864e-06
-7.74038e-06
7.7454e-06
-7.42174e-06
7.80673e-06
-6.69348e-06
7.86354e-06
-5.77005e-06
7.88031e-06
-4.74887e-06
7.82548e-06
-3.72579e-06
7.69215e-06
-2.79809e-06
7.50308e-06
-2.02415e-06
7.27862e-06
-1.3161e-06
6.99569e-06
-4.58178e-07
6.65602e-06
5.5903e-07
6.29769e-06
1.6767e-06
6.0022e-06
2.86229e-06
5.85929e-06
4.21748e-06
5.90523e-06
5.95306e-06
6.19581e-06
7.79502e-06
6.76318e-06
9.08779e-06
7.30914e-06
9.10446e-06
6.38444e-06
6.74273e-06
2.7355e-06
5.20575e-06
-2.4733e-06
7.97345e-06
-6.52752e-06
8.66884e-06
-7.70521e-06
8.58696e-06
-7.6585e-06
8.39194e-06
-7.22672e-06
8.24869e-06
-6.55023e-06
8.13843e-06
-5.65979e-06
8.00552e-06
-4.61596e-06
7.80694e-06
-3.52722e-06
7.5318e-06
-2.52295e-06
7.21299e-06
-1.70534e-06
6.88769e-06
-9.90793e-07
6.52003e-06
-9.05204e-08
6.12286e-06
9.56195e-07
5.74273e-06
2.05684e-06
5.4786e-06
3.12642e-06
5.43244e-06
4.26363e-06
5.62102e-06
5.76448e-06
6.08891e-06
7.32714e-06
6.88082e-06
8.29588e-06
7.76162e-06
8.22367e-06
7.49154e-06
7.0128e-06
1.0227e-05
9.79342e-06
-9.79342e-06
1.67798e-05
-6.98653e-06
1.22625e-06
1.55538e-05
-3.89396e-05
4.01659e-05
-9.29469e-05
5.40073e-05
-0.00016018
6.72328e-05
-0.00021327
5.30908e-05
-0.000234707
2.14366e-05
-0.000232968
-1.73878e-06
-0.000227579
-5.38933e-06
-0.000220124
-7.4551e-06
-0.000210913
-9.21038e-06
-0.000198079
-1.28349e-05
-0.000182057
-1.60215e-05
-0.000156756
-2.53007e-05
-0.000112966
-4.37902e-05
-6.14952e-05
-5.14708e-05
-1.77367e-05
-4.37585e-05
-1.77367e-05
5.23926e-06
-1.50323e-05
7.81326e-06
-9.56072e-06
-2.2413e-05
4.57801e-05
-0.000102069
0.000119823
-0.000181689
0.000133627
-0.000228201
0.000113745
-0.000244549
6.94385e-05
-0.000242776
1.96636e-05
-0.000230108
-1.44073e-05
-0.000213539
-2.19578e-05
-0.000196327
-2.46672e-05
-0.00018078
-2.47573e-05
-0.000166969
-2.66461e-05
-0.000154066
-2.89241e-05
-0.000131531
-4.78357e-05
-9.69444e-05
-7.8377e-05
-6.04982e-05
-8.7917e-05
-2.69677e-05
-7.7289e-05
-4.47044e-05
2.28284e-06
-1.73149e-05
3.59533e-06
-1.08733e-05
-3.45039e-05
8.38792e-05
-0.000120594
0.000205913
-0.0001851
0.000198134
-0.000217725
0.000146369
-0.000232331
8.4045e-05
-0.000233618
2.095e-05
-0.000221954
-2.60715e-05
-0.000201422
-4.24899e-05
-0.00017864
-4.7449e-05
-0.000158005
-4.53921e-05
-0.000137499
-4.71517e-05
-0.000126744
-3.96791e-05
-0.000104537
-7.00426e-05
-7.68975e-05
-0.000106017
-5.12105e-05
-0.000113604
-2.63207e-05
-0.000102179
-7.10251e-05
3.75611e-06
-2.10711e-05
9.15711e-06
-1.62741e-05
-2.59391e-05
0.000118975
-9.75108e-05
0.000277484
-0.000152701
0.000253324
-0.000181817
0.000175486
-0.000195066
9.72937e-05
-0.000191795
1.76789e-05
-0.000175194
-4.26727e-05
-0.000149007
-6.8677e-05
-0.000119148
-7.73071e-05
-9.19078e-05
-7.26327e-05
-7.78291e-05
-6.12304e-05
-9.4663e-05
-2.28453e-05
-7.59821e-05
-8.87235e-05
-5.58789e-05
-0.00012612
-3.88419e-05
-0.000130641
-2.11927e-05
-0.000119828
-9.22178e-05
1.05495e-05
-3.16206e-05
2.34505e-05
-2.91749e-05
-8.19507e-07
0.000143245
-5.49306e-05
0.000331595
-0.000100782
0.000299175
-0.000123392
0.000198096
-0.000131687
0.000105589
-0.00013217
1.81612e-05
-0.000125604
-4.92384e-05
-0.000110655
-8.36261e-05
-9.0725e-05
-9.72369e-05
-6.95289e-05
-9.3829e-05
-5.7808e-05
-7.29514e-05
-6.39445e-05
-1.67089e-05
-5.04296e-05
-0.000102238
-3.70883e-05
-0.000139461
-2.6777e-05
-0.000140952
-1.53031e-05
-0.000131302
-0.000107521
1.25206e-05
-4.41412e-05
3.00094e-05
-4.66637e-05
2.66003e-05
0.000146655
-5.7625e-06
0.000363958
-3.71547e-05
0.000330567
-5.84656e-05
0.000219407
-7.01463e-05
0.000117269
-7.68784e-05
2.48934e-05
-7.9697e-05
-4.64198e-05
-7.6179e-05
-8.71443e-05
-6.88417e-05
-0.000104574
-5.98906e-05
-0.00010278
-5.39616e-05
-7.88805e-05
-4.55885e-05
-2.5082e-05
-3.1296e-05
-0.000116531
-2.19653e-05
-0.000148792
-1.64565e-05
-0.000146461
-9.87447e-06
-0.000137884
-0.000117395
9.96906e-06
-5.41103e-05
1.60956e-05
-5.27903e-05
3.55267e-05
0.000127223
3.17419e-05
0.000367743
1.47825e-05
0.000347527
-3.13307e-06
0.000237322
-1.68891e-05
0.000131025
-2.91361e-05
3.71405e-05
-3.91723e-05
-3.63835e-05
-4.41939e-05
-8.21229e-05
-4.61747e-05
-0.000102593
-4.69023e-05
-0.000102053
-4.21784e-05
-8.36046e-05
-2.39587e-05
-4.33016e-05
-1.33482e-05
-0.000127141
-1.00255e-05
-0.000152115
-8.13865e-06
-0.000148348
-5.2939e-06
-0.000140729
-0.000122689
7.25599e-06
-6.13662e-05
4.88613e-06
-5.04204e-05
3.23806e-05
9.9729e-05
5.08592e-05
0.000349264
5.0721e-05
0.000347665
3.91684e-05
0.000248875
2.5065e-05
0.000145129
9.73936e-06
5.24661e-05
-4.50469e-06
-2.21395e-05
-1.5326e-05
-7.13016e-05
-2.27799e-05
-9.51392e-05
-2.84414e-05
-9.63911e-05
-2.71035e-05
-8.49425e-05
-2.81701e-06
-6.75881e-05
5.89393e-07
-0.000130548
-6.68758e-07
-0.000150857
-1.63596e-06
-0.000147381
-1.34809e-06
-0.000141017
-0.000124037
1.53096e-05
-1.77829e-05
2.03409e-05
-1.15589e-05
2.07448e-05
-8.10903e-06
1.97362e-05
-6.64995e-06
1.87554e-05
-6.24593e-06
1.80716e-05
-5.86641e-06
1.7497e-05
-5.08515e-06
1.68743e-05
-3.99334e-06
1.60927e-05
-2.74562e-06
1.51103e-05
-1.5405e-06
1.40365e-05
-6.3153e-07
1.30691e-05
-2.33526e-08
1.20571e-05
9.21392e-07
1.10462e-05
1.96717e-06
1.01838e-05
2.91925e-06
9.72359e-06
3.58659e-06
9.93014e-06
4.05707e-06
1.07097e-05
4.9849e-06
1.21155e-05
5.92133e-06
1.43718e-05
6.03962e-06
1.72264e-05
5.36906e-06
2.04332e-05
3.80598e-06
2.80799e-06
2.78523e-05
1.69619e-05
-3.47448e-05
1.95867e-05
-1.41836e-05
1.93978e-05
-7.9202e-06
1.76469e-05
-4.89904e-06
1.56961e-05
-4.29512e-06
1.52377e-05
-5.40802e-06
1.48122e-05
-4.65963e-06
1.43218e-05
-3.50299e-06
1.37004e-05
-2.12423e-06
1.28767e-05
-7.16754e-07
1.18944e-05
3.50727e-07
1.07694e-05
1.10164e-06
9.68212e-06
2.00871e-06
8.71706e-06
2.93223e-06
7.86961e-06
3.7667e-06
7.55826e-06
3.89794e-06
8.30145e-06
3.31388e-06
9.43168e-06
3.85468e-06
1.09853e-05
4.36769e-06
1.34603e-05
3.56461e-06
1.64309e-05
2.3985e-06
1.94987e-05
7.38174e-07
-1.46296e-06
2.37696e-05
3.45162e-06
-3.81965e-05
8.58783e-06
-1.93199e-05
1.19242e-05
-1.12566e-05
1.4129e-05
-7.10382e-06
1.54772e-05
-5.64334e-06
1.50404e-05
-4.97124e-06
1.42656e-05
-3.88486e-06
1.34725e-05
-2.7099e-06
1.27789e-05
-1.43054e-06
1.2052e-05
1.01204e-08
1.09161e-05
1.48659e-06
8.22397e-06
3.79379e-06
6.14682e-06
4.08586e-06
5.58033e-06
3.49871e-06
5.5789e-06
3.76813e-06
6.44293e-06
3.03391e-06
8.03371e-06
1.7231e-06
9.30837e-06
2.58001e-06
1.09447e-05
2.73132e-06
1.37687e-05
7.40605e-07
1.67418e-05
-5.74543e-07
1.98287e-05
-2.34875e-06
-4.72075e-06
2.30865e-05
-5.74679e-06
-3.24497e-05
-5.02555e-07
-2.45641e-05
5.40212e-06
-1.71612e-05
1.0616e-05
-1.23177e-05
1.43157e-05
-9.34307e-06
1.65195e-05
-7.17506e-06
1.78181e-05
-5.1834e-06
1.83816e-05
-3.27338e-06
1.81791e-05
-1.22793e-06
1.70024e-05
1.18682e-06
1.43738e-05
4.11517e-06
1.05104e-05
7.65709e-06
7.59577e-06
7.00045e-06
5.74201e-06
5.35244e-06
5.61407e-06
3.89605e-06
5.88381e-06
2.76416e-06
7.26028e-06
3.46636e-07
9.59096e-06
2.4934e-07
1.25981e-05
-2.75876e-07
1.58808e-05
-2.54207e-06
1.84555e-05
-3.14925e-06
2.0967e-05
-4.86023e-06
-7.44575e-06
2.3692e-05
-2.40955e-06
-3.00402e-05
-7.81265e-07
-2.61924e-05
3.16524e-06
-2.11077e-05
7.55368e-06
-1.67061e-05
1.1392e-05
-1.31813e-05
1.44237e-05
-1.02067e-05
1.6739e-05
-7.49868e-06
1.83609e-05
-4.89523e-06
1.9328e-05
-2.195e-06
1.97951e-05
7.1974e-07
1.98925e-05
4.01772e-06
2.04325e-05
7.11694e-06
1.94858e-05
7.94705e-06
1.74486e-05
7.38967e-06
1.45134e-05
6.83118e-06
1.16361e-05
5.64147e-06
9.48505e-06
2.49765e-06
1.08961e-05
-1.16173e-06
1.40641e-05
-3.44388e-06
1.70532e-05
-5.53115e-06
1.98549e-05
-5.95096e-06
2.27459e-05
-7.75121e-06
-9.89776e-06
2.51979e-05
-1.1863e-06
-2.88539e-05
-1.28599e-07
-2.72501e-05
2.40963e-06
-2.36459e-05
5.63142e-06
-1.99279e-05
8.89676e-06
-1.64466e-05
1.1905e-05
-1.32149e-05
1.45539e-05
-1.01475e-05
1.68035e-05
-7.14484e-06
1.87016e-05
-4.09302e-06
2.03479e-05
-9.26564e-07
2.20533e-05
2.31227e-06
2.39783e-05
5.19183e-06
2.51382e-05
6.78712e-06
2.53313e-05
7.1965e-06
2.51143e-05
7.04817e-06
2.46105e-05
6.14526e-06
2.33797e-05
3.72847e-06
2.2507e-05
-2.89033e-07
2.18059e-05
-2.74277e-06
2.04495e-05
-4.17479e-06
2.20366e-05
-7.53807e-06
2.37425e-05
-9.4572e-06
-9.82917e-06
2.36739e-05
-6.02192e-07
-2.82517e-05
1.76994e-07
-2.80292e-05
1.94291e-06
-2.54118e-05
4.3067e-06
-2.22916e-05
6.94149e-06
-1.90814e-05
9.62806e-06
-1.59015e-05
1.2244e-05
-1.27634e-05
1.47369e-05
-9.6377e-06
1.7129e-05
-6.48504e-06
1.95077e-05
-3.30529e-06
2.20224e-05
-2.02419e-07
2.46911e-05
2.5231e-06
2.70811e-05
4.39709e-06
2.89188e-05
5.35874e-06
3.0356e-05
5.61102e-06
3.14554e-05
5.04582e-06
3.19275e-05
3.25642e-06
3.10222e-05
6.16206e-07
2.99507e-05
-1.6713e-06
2.96152e-05
-3.83937e-06
2.85948e-05
-6.51773e-06
2.67005e-05
-7.56303e-06
-6.28321e-06
2.31545e-05
-2.21613e-07
-2.803e-05
2.86694e-07
-2.85375e-05
1.48338e-06
-2.66085e-05
3.2125e-06
-2.40207e-05
5.29849e-06
-2.11674e-05
7.59863e-06
-1.82016e-05
1.00181e-05
-1.51829e-05
1.25113e-05
-1.21308e-05
1.50839e-05
-9.05752e-06
1.7783e-05
-6.00442e-06
2.06633e-05
-3.0827e-06
2.36917e-05
-5.05312e-07
2.66334e-05
1.45541e-06
2.92855e-05
2.70663e-06
3.16214e-05
3.27514e-06
3.35859e-05
3.08139e-06
3.48532e-05
1.9891e-06
3.51815e-05
2.87852e-07
3.50084e-05
-1.49836e-06
3.44851e-05
-3.31619e-06
3.2992e-05
-5.02471e-06
3.08473e-05
-5.41844e-06
-4.15564e-06
2.87196e-05
-2.20858e-07
-2.78091e-05
7.84558e-08
-2.88367e-05
8.91657e-07
-2.74217e-05
2.16148e-06
-2.52906e-05
3.80368e-06
-2.28096e-05
5.73576e-06
-2.01337e-05
7.89543e-06
-1.73426e-05
1.02483e-05
-1.44837e-05
1.27895e-05
-1.15987e-05
1.55332e-05
-8.74818e-06
1.84855e-05
-6.03495e-06
2.15934e-05
-3.61322e-06
2.47054e-05
-1.65652e-06
2.76711e-05
-2.58949e-07
3.03997e-05
5.46481e-07
3.27727e-05
7.08445e-07
3.45607e-05
2.01004e-07
3.56435e-05
-7.94945e-07
3.61153e-05
-1.97028e-06
3.59573e-05
-3.1583e-06
3.50187e-05
-4.08628e-06
3.37216e-05
-4.12142e-06
-3.08933e-06
3.26552e-05
-3.85326e-07
-2.74238e-05
-3.08794e-07
-2.89132e-05
2.00423e-07
-2.79309e-05
1.11395e-06
-2.62041e-05
2.39238e-06
-2.40881e-05
3.98966e-06
-2.1731e-05
5.86789e-06
-1.92208e-05
8.00246e-06
-1.66183e-05
1.03824e-05
-1.39786e-05
1.30025e-05
-1.13682e-05
1.58446e-05
-8.87702e-06
1.88517e-05
-6.62029e-06
2.19137e-05
-4.71853e-06
2.49093e-05
-3.25445e-06
2.77296e-05
-2.27389e-06
3.02464e-05
-1.80841e-06
3.22953e-05
-1.84793e-06
3.37709e-05
-2.2706e-06
3.46712e-05
-2.87065e-06
3.49804e-05
-3.46758e-06
3.47175e-05
-3.82347e-06
3.41964e-05
-3.60036e-06
-2.68441e-06
3.37914e-05
-6.11196e-07
-2.68126e-05
-7.6535e-07
-2.87591e-05
-5.21579e-07
-2.81747e-05
9.55722e-08
-2.68213e-05
1.06078e-06
-2.50533e-05
2.35071e-06
-2.3021e-05
3.94211e-06
-2.08122e-05
5.81704e-06
-1.84932e-05
7.96191e-06
-1.61235e-05
1.03615e-05
-1.37678e-05
1.29875e-05
-1.1503e-05
1.57849e-05
-9.41763e-06
1.86665e-05
-7.60011e-06
2.153e-05
-6.11794e-06
2.42693e-05
-5.0132e-06
2.6766e-05
-4.30522e-06
2.88922e-05
-3.9742e-06
3.05537e-05
-3.93212e-06
3.17184e-05
-4.03541e-06
3.23805e-05
-4.12974e-06
3.25916e-05
-4.03472e-06
3.25489e-05
-3.55766e-06
-2.62541e-06
3.24898e-05
-8.33214e-07
-2.59793e-05
-1.20774e-06
-2.83845e-05
-1.20424e-06
-2.81782e-05
-8.51616e-07
-2.71739e-05
-1.65963e-07
-2.5739e-05
8.3683e-07
-2.40238e-05
2.14259e-06
-2.2118e-05
3.73786e-06
-2.00885e-05
5.60854e-06
-1.79941e-05
7.73538e-06
-1.58946e-05
1.0087e-05
-1.38545e-05
1.26127e-05
-1.19432e-05
1.52397e-05
-1.02272e-05
1.78809e-05
-8.75915e-06
2.04405e-05
-7.57294e-06
2.28151e-05
-6.67989e-06
2.48998e-05
-6.0589e-06
2.66114e-05
-5.64375e-06
2.79054e-05
-5.32947e-06
2.8769e-05
-4.99335e-06
2.92354e-05
-4.5012e-06
2.9409e-05
-3.73141e-06
-2.62783e-06
2.94114e-05
-1.01312e-06
-2.49662e-05
-1.58257e-06
-2.78151e-05
-1.79503e-06
-2.79657e-05
-1.68084e-06
-2.72882e-05
-1.25333e-06
-2.61665e-05
-5.22236e-07
-2.47549e-05
5.03057e-07
-2.31433e-05
1.81195e-06
-2.13974e-05
3.39089e-06
-1.95731e-05
5.21995e-06
-1.77236e-05
7.26842e-06
-1.5903e-05
9.49067e-06
-1.41655e-05
1.1825e-05
-1.25615e-05
1.41968e-05
-1.1131e-05
1.65228e-05
-9.89904e-06
1.87139e-05
-8.87102e-06
2.06816e-05
-8.02654e-06
2.2351e-05
-7.31313e-06
2.36711e-05
-6.64958e-06
2.4615e-05
-5.93737e-06
2.51852e-05
-5.0715e-06
2.54155e-05
-3.96178e-06
-2.5508e-06
2.53384e-05
-1.13488e-06
-2.38313e-05
-1.8629e-06
-2.7087e-05
-2.26332e-06
-2.75653e-05
-2.36342e-06
-2.71881e-05
-2.17308e-06
-2.63569e-05
-1.69793e-06
-2.52301e-05
-9.4368e-07
-2.38976e-05
8.1561e-08
-2.24226e-05
1.3655e-06
-2.0857e-05
2.88933e-06
-1.92474e-05
4.62482e-06
-1.76384e-05
6.53189e-06
-1.60726e-05
8.55792e-06
-1.45876e-05
1.06395e-05
-1.32127e-05
1.27053e-05
-1.19649e-05
1.4679e-05
-1.08447e-05
1.64846e-05
-9.83203e-06
1.80537e-05
-8.8822e-06
1.93316e-05
-7.92752e-06
2.02781e-05
-6.88396e-06
2.08674e-05
-5.66095e-06
2.1083e-05
-4.17742e-06
-2.36245e-06
2.08946e-05
-1.19656e-06
-2.26347e-05
-2.04159e-06
-2.62419e-05
-2.59797e-06
-2.70089e-05
-2.88557e-06
-2.69005e-05
-2.90948e-06
-2.6333e-05
-2.67128e-06
-2.54683e-05
-2.17343e-06
-2.43954e-05
-1.4214e-06
-2.31746e-05
-4.25413e-07
-2.18529e-05
7.97855e-07
-2.04706e-05
2.22353e-06
-1.90641e-05
3.8171e-06
-1.76662e-05
5.53409e-06
-1.63046e-05
7.32103e-06
-1.49997e-05
9.11754e-06
-1.37613e-05
1.08587e-05
-1.25858e-05
1.24788e-05
-1.14521e-05
1.39156e-05
-1.0319e-05
1.51132e-05
-9.12512e-06
1.60218e-05
-7.79267e-06
1.65956e-05
-6.23478e-06
1.67852e-05
-4.36697e-06
-2.09779e-06
1.65205e-05
-1.20469e-06
-2.143e-05
-2.12524e-06
-2.53213e-05
-2.80349e-06
-2.63306e-05
-3.24913e-06
-2.64548e-05
-3.46116e-06
-2.6121e-05
-3.43682e-06
-2.54926e-05
-3.17521e-06
-2.4657e-05
-2.67902e-06
-2.36708e-05
-1.95594e-06
-2.2576e-05
-1.01975e-06
-2.14068e-05
1.08533e-07
-2.01924e-05
1.39987e-06
-1.89575e-05
2.81713e-06
-1.77218e-05
4.31587e-06
-1.64984e-05
5.84572e-06
-1.52911e-05
7.35216e-06
-1.40922e-05
8.77887e-06
-1.28788e-05
1.007e-05
-1.16101e-05
1.1171e-05
-1.02262e-05
1.20278e-05
-8.64949e-06
1.25828e-05
-6.78978e-06
1.27682e-05
-4.55236e-06
-1.82237e-06
1.24928e-05
-1.17041e-06
-2.02596e-05
-2.12907e-06
-2.43626e-05
-2.89558e-06
-2.55641e-05
-3.46844e-06
-2.58819e-05
-3.83993e-06
-2.57495e-05
-4.00271e-06
-2.53298e-05
-3.95248e-06
-2.47072e-05
-3.68909e-06
-2.39341e-05
-3.21744e-06
-2.30476e-05
-2.54812e-06
-2.20761e-05
-1.69807e-06
-2.10424e-05
-6.90931e-07
-1.99645e-05
4.43001e-07
-1.88556e-05
1.66749e-06
-1.77228e-05
2.94136e-06
-1.65649e-05
4.21977e-06
-1.53706e-05
5.45549e-06
-1.41144e-05
6.5998e-06
-1.27544e-05
7.6023e-06
-1.12287e-05
8.40886e-06
-9.45606e-06
8.95781e-06
-7.3387e-06
9.17387e-06
-4.76838e-06
-1.60636e-06
8.95791e-06
-1.10664e-06
-1.91529e-05
-2.0727e-06
-2.33965e-05
-2.8967e-06
-2.474e-05
-3.5664e-06
-2.52122e-05
-4.06757e-06
-2.52483e-05
-4.38849e-06
-2.50088e-05
-4.52155e-06
-2.45741e-05
-4.46387e-06
-2.39918e-05
-4.21757e-06
-2.32939e-05
-3.79006e-06
-2.25036e-05
-3.19422e-06
-2.16382e-05
-2.44853e-06
-2.07101e-05
-1.57683e-06
-1.97272e-05
-6.07768e-07
-1.86918e-05
4.26082e-07
-1.75987e-05
1.48897e-06
-1.64334e-05
2.54265e-06
-1.51681e-05
3.54644e-06
-1.37582e-05
4.45609e-06
-1.21384e-05
5.22128e-06
-1.02212e-05
5.78175e-06
-7.8991e-06
6.06226e-06
-5.04884e-06
-1.50868e-06
5.96461e-06
-1.02608e-06
-1.81268e-05
-1.97679e-06
-2.24458e-05
-2.832e-06
-2.38848e-05
-3.57031e-06
-2.44739e-05
-4.17195e-06
-2.46465e-05
-4.62145e-06
-2.45593e-05
-4.90828e-06
-2.42872e-05
-5.02709e-06
-2.3873e-05
-4.97743e-06
-2.33435e-05
-4.76372e-06
-2.27173e-05
-4.39507e-06
-2.20067e-05
-3.88513e-06
-2.12199e-05
-3.25181e-06
-2.03605e-05
-2.5166e-06
-1.94269e-05
-1.70401e-06
-1.84112e-05
-8.41086e-07
-1.72963e-05
4.28898e-08
-1.60521e-05
9.15813e-07
-1.46311e-05
1.7411e-06
-1.29636e-05
2.47483e-06
-1.09548e-05
3.06191e-06
-8.48612e-06
3.43176e-06
-5.41865e-06
-1.56908e-06
3.49215e-06
-9.3978e-07
-1.7187e-05
-1.86035e-06
-2.15252e-05
-2.72586e-06
-2.30192e-05
-3.50803e-06
-2.36916e-05
-4.18305e-06
-2.39715e-05
-4.73259e-06
-2.40097e-05
-5.14395e-06
-2.38759e-05
-5.40973e-06
-2.36072e-05
-5.52731e-06
-2.32259e-05
-5.49844e-06
-2.27461e-05
-5.32882e-06
-2.21763e-05
-5.0278e-06
-2.15209e-05
-4.60784e-06
-2.07804e-05
-4.08391e-06
-1.99508e-05
-3.47302e-06
-1.90221e-05
-2.79384e-06
-1.79755e-05
-2.06681e-06
-1.67792e-05
-1.31508e-06
-1.53828e-05
-5.66594e-07
-1.3712e-05
1.42664e-07
-1.1664e-05
7.64909e-07
-9.10834e-06
1.23647e-06
-5.89025e-06
-1.80589e-06
1.47322e-06
-8.5619e-07
-1.63308e-05
-1.73886e-06
-2.06424e-05
-2.59936e-06
-2.21587e-05
-3.40493e-06
-2.2886e-05
-4.1294e-06
-2.3247e-05
-4.75283e-06
-2.33863e-05
-5.26122e-06
-2.33675e-05
-5.64575e-06
-2.32227e-05
-5.9021e-06
-2.29696e-05
-6.02981e-06
-2.26184e-05
-6.03167e-06
-2.21744e-05
-5.91323e-06
-2.16393e-05
-5.68213e-06
-2.10115e-05
-5.34749e-06
-2.02855e-05
-4.91944e-06
-1.94502e-05
-4.40885e-06
-1.84861e-05
-3.82762e-06
-1.73604e-05
-3.18989e-06
-1.60205e-05
-2.51454e-06
-1.43873e-05
-1.82866e-06
-1.23499e-05
-1.17172e-06
-9.7653e-06
-5.99288e-07
-6.46274e-06
-2.21683e-06
-1.88374e-07
-7.80653e-07
-1.55501e-05
-1.62327e-06
-1.97998e-05
-2.46865e-06
-2.13133e-05
-3.28168e-06
-2.2073e-05
-4.03553e-06
-2.24932e-05
-4.70997e-06
-2.27119e-05
-5.29067e-06
-2.27868e-05
-5.76813e-06
-2.27452e-05
-6.13697e-06
-2.26008e-05
-6.395e-06
-2.23603e-05
-6.54268e-06
-2.20266e-05
-6.58232e-06
-2.15996e-05
-6.51744e-06
-2.10764e-05
-6.35202e-06
-2.04509e-05
-6.09006e-06
-1.97121e-05
-5.73534e-06
-1.88408e-05
-5.29172e-06
-1.7804e-05
-4.76463e-06
-1.65476e-05
-4.16384e-06
-1.49881e-05
-3.5074e-06
-1.30063e-05
-2.82622e-06
-1.04465e-05
-2.16804e-06
-7.12093e-06
-2.78421e-06
-1.60066e-06
-7.15393e-07
-1.48347e-05
-1.51975e-06
-1.89954e-05
-2.34433e-06
-2.04887e-05
-3.15324e-06
-2.12641e-05
-3.92044e-06
-2.1726e-05
-4.6267e-06
-2.20056e-05
-5.25833e-06
-2.21552e-05
-5.80603e-06
-2.21975e-05
-6.26395e-06
-2.21428e-05
-6.62882e-06
-2.19953e-05
-6.89931e-06
-2.1756e-05
-7.0752e-06
-2.14237e-05
-7.15655e-06
-2.0995e-05
-7.14305e-06
-2.04644e-05
-7.03343e-06
-1.98217e-05
-6.82517e-06
-1.90491e-05
-6.51482e-06
-1.81143e-05
-6.09963e-06
-1.69627e-05
-5.58058e-06
-1.55071e-05
-4.96675e-06
-1.36201e-05
-4.28045e-06
-1.11328e-05
-3.56151e-06
-7.83981e-06
-3.47501e-06
-2.87066e-06
-6.59955e-07
-1.41747e-05
-1.43031e-06
-1.82252e-05
-2.23185e-06
-1.96873e-05
-3.0288e-06
-2.04672e-05
-3.79707e-06
-2.09578e-05
-4.5196e-06
-2.12831e-05
-5.18431e-06
-2.14905e-05
-5.78286e-06
-2.1599e-05
-6.30963e-06
-2.1616e-05
-6.76089e-06
-2.1544e-05
-7.13416e-06
-2.13827e-05
-7.42731e-06
-2.11305e-05
-7.6378e-06
-2.07845e-05
-7.76187e-06
-2.03403e-05
-7.79396e-06
-1.97896e-05
-7.72619e-06
-1.91169e-05
-7.54871e-06
-1.82919e-05
-7.2513e-06
-1.72602e-05
-6.82662e-06
-1.59318e-05
-6.27505e-06
-1.41717e-05
-5.61041e-06
-1.17973e-05
-4.8649e-06
-8.58524e-06
-4.24761e-06
-4.09225e-06
-6.12278e-07
-1.35625e-05
-1.35396e-06
-1.74836e-05
-2.13247e-06
-1.89088e-05
-2.91244e-06
-1.96873e-05
-3.6727e-06
-2.01975e-05
-4.39923e-06
-2.05566e-05
-5.08241e-06
-2.08073e-05
-5.71558e-06
-2.09658e-05
-6.29398e-06
-2.10376e-05
-6.81407e-06
-2.10239e-05
-7.27281e-06
-2.0924e-05
-7.6669e-06
-2.07364e-05
-7.99197e-06
-2.04594e-05
-8.24182e-06
-2.00904e-05
-8.40757e-06
-1.96239e-05
-8.4771e-06
-1.90474e-05
-8.43518e-06
-1.83338e-05
-8.26504e-06
-1.74303e-05
-7.9516e-06
-1.62452e-05
-7.48678e-06
-1.46364e-05
-6.87585e-06
-1.24082e-05
-6.14313e-06
-9.31792e-06
-5.05569e-06
-5.33504e-06
-5.70119e-07
-1.29924e-05
-1.28821e-06
-1.67656e-05
-2.04466e-06
-1.81524e-05
-2.80442e-06
-1.89276e-05
-3.5499e-06
-1.9452e-05
-4.2708e-06
-1.98357e-05
-4.96057e-06
-2.01175e-05
-5.61484e-06
-2.03115e-05
-6.23027e-06
-2.04221e-05
-6.80404e-06
-2.04501e-05
-7.33318e-06
-2.03948e-05
-7.81387e-06
-2.02557e-05
-8.24077e-06
-2.00325e-05
-8.60617e-06
-1.97249e-05
-8.89901e-06
-1.9331e-05
-9.10411e-06
-1.88423e-05
-9.20207e-06
-1.82358e-05
-9.17056e-06
-1.74618e-05
-8.98743e-06
-1.64283e-05
-8.63627e-06
-1.49875e-05
-8.11338e-06
-1.2931e-05
-7.43433e-06
-9.99692e-06
-5.85276e-06
-6.63723e-06
-5.32174e-07
-1.24603e-05
-1.23033e-06
-1.60675e-05
-1.96528e-06
-1.74175e-05
-2.70234e-06
-1.81905e-05
-3.42776e-06
-1.87265e-05
-4.13532e-06
-1.91281e-05
-4.82197e-06
-1.94309e-05
-5.48594e-06
-1.96476e-05
-6.12579e-06
-1.97822e-05
-6.73988e-06
-1.98359e-05
-7.32581e-06
-1.98088e-05
-7.87993e-06
-1.97015e-05
-8.3967e-06
-1.95156e-05
-8.86784e-06
-1.92538e-05
-9.28121e-06
-1.89176e-05
-9.6199e-06
-1.85036e-05
-9.86167e-06
-1.7994e-05
-9.97979e-06
-1.73437e-05
-9.94577e-06
-1.64623e-05
-9.73486e-06
-1.51984e-05
-9.33356e-06
-1.33323e-05
-8.7472e-06
-1.05832e-05
-6.59618e-06
-8.00372e-06
-4.98213e-07
-1.19621e-05
-1.17772e-06
-1.5388e-05
-1.89048e-06
-1.67047e-05
-2.60225e-06
-1.74787e-05
-3.30314e-06
-1.80256e-05
-3.99099e-06
-1.84402e-05
-4.6663e-06
-1.87556e-05
-5.33011e-06
-1.89837e-05
-5.98317e-06
-1.91292e-05
-6.62533e-06
-1.91938e-05
-7.25521e-06
-1.9179e-05
-7.86987e-06
-1.90868e-05
-8.46427e-06
-1.89212e-05
-9.03042e-06
-1.86876e-05
-9.55628e-06
-1.83917e-05
-1.00245e-05
-1.80353e-05
-1.04115e-05
-1.7607e-05
-1.06874e-05
-1.70677e-05
-1.08185e-05
-1.63313e-05
-1.07714e-05
-1.52454e-05
-1.05219e-05
-1.35818e-05
-1.00627e-05
-1.10423e-05
-7.24988e-06
-9.40895e-06
-4.68029e-07
-1.14941e-05
-1.12774e-06
-1.47283e-05
-1.81612e-06
-1.60163e-05
-2.49962e-06
-1.67951e-05
-3.17189e-06
-1.73534e-05
-3.83448e-06
-1.77776e-05
-4.49127e-06
-1.80988e-05
-5.14612e-06
-1.83289e-05
-5.80201e-06
-1.84733e-05
-6.46052e-06
-1.85354e-05
-7.12161e-06
-1.85179e-05
-7.78344e-06
-1.8425e-05
-8.44204e-06
-1.82626e-05
-9.0905e-06
-1.80391e-05
-9.71788e-06
-1.77643e-05
-1.03078e-05
-1.74454e-05
-1.08368e-05
-1.70779e-05
-1.12738e-05
-1.66307e-05
-1.15804e-05
-1.60247e-05
-1.17154e-05
-1.51104e-05
-1.16424e-05
-1.36549e-05
-1.13389e-05
-1.13458e-05
-7.78532e-06
-1.08035e-05
-4.40226e-07
-1.10539e-05
-1.07739e-06
-1.40911e-05
-1.7383e-06
-1.53554e-05
-2.39026e-06
-1.61431e-05
-3.02996e-06
-1.67137e-05
-3.66221e-06
-1.71453e-05
-4.29393e-06
-1.7467e-05
-4.93161e-06
-1.76912e-05
-5.58042e-06
-1.78246e-05
-6.24369e-06
-1.78722e-05
-6.92288e-06
-1.78388e-05
-7.61755e-06
-1.77304e-05
-8.32516e-06
-1.7555e-05
-9.04047e-06
-1.73238e-05
-9.75457e-06
-1.70502e-05
-1.04533e-05
-1.67467e-05
-1.1115e-05
-1.64162e-05
-1.17088e-05
-1.6037e-05
-1.2194e-05
-1.55397e-05
-1.25219e-05
-1.47826e-05
-1.26432e-05
-1.35336e-05
-1.25176e-05
-1.14714e-05
-8.18065e-06
-1.21223e-05
-4.12707e-07
-1.06412e-05
-1.02431e-06
-1.34795e-05
-1.65443e-06
-1.47253e-05
-2.27142e-06
-1.55261e-05
-2.87451e-06
-1.61105e-05
-3.47146e-06
-1.65484e-05
-4.07179e-06
-1.68667e-05
-4.68438e-06
-1.70786e-05
-5.31635e-06
-1.71928e-05
-5.9727e-06
-1.7216e-05
-6.6564e-06
-1.71552e-05
-7.36846e-06
-1.70183e-05
-8.10793e-06
-1.68155e-05
-8.87165e-06
-1.656e-05
-9.65335e-06
-1.62684e-05
-1.04421e-05
-1.5958e-05
-1.12196e-05
-1.56387e-05
-1.19576e-05
-1.52991e-05
-1.26148e-05
-1.48826e-05
-1.31372e-05
-1.42603e-05
-1.34626e-05
-1.32082e-05
-1.35306e-05
-1.14035e-05
-8.4186e-06
-1.32927e-05
-3.85251e-07
-1.02559e-05
-9.68964e-07
-1.28958e-05
-1.56502e-06
-1.41292e-05
-2.14302e-06
-1.49481e-05
-2.70488e-06
-1.55486e-05
-3.2611e-06
-1.59921e-05
-3.82357e-06
-1.63042e-05
-4.40316e-06
-1.64991e-05
-5.00859e-06
-1.65874e-05
-5.64629e-06
-1.65784e-05
-6.32052e-06
-1.6481e-05
-7.03358e-06
-1.63053e-05
-7.7861e-06
-1.6063e-05
-8.57705e-06
-1.5769e-05
-9.40313e-06
-1.54424e-05
-1.02573e-05
-1.51038e-05
-1.11261e-05
-1.477e-05
-1.19857e-05
-1.44396e-05
-1.27974e-05
-1.4071e-05
-1.35046e-05
-1.35531e-05
-1.40345e-05
-1.26784e-05
-1.43056e-05
-1.11323e-05
-8.48404e-06
-1.42402e-05
-3.62745e-07
-9.89314e-06
-9.17296e-07
-1.23413e-05
-1.47513e-06
-1.35713e-05
-2.00849e-06
-1.44147e-05
-2.52294e-06
-1.50341e-05
-3.03191e-06
-1.54831e-05
-3.54948e-06
-1.57866e-05
-4.088e-06
-1.59607e-05
-4.65732e-06
-1.60182e-05
-5.2648e-06
-1.5971e-05
-5.91554e-06
-1.58304e-05
-6.61282e-06
-1.56081e-05
-7.35855e-06
-1.53173e-05
-8.15362e-06
-1.4974e-05
-8.99763e-06
-1.45984e-05
-9.88775e-06
-1.42138e-05
-1.0816e-05
-1.38418e-05
-1.17651e-05
-1.34906e-05
-1.27019e-05
-1.31342e-05
-1.35715e-05
-1.26836e-05
-1.42942e-05
-1.19557e-05
-1.47703e-05
-1.06562e-05
-8.36298e-06
-1.48915e-05
-3.56706e-07
-9.53647e-06
-8.81489e-07
-1.18166e-05
-1.39446e-06
-1.30584e-05
-1.87451e-06
-1.39347e-05
-2.33279e-06
-1.45758e-05
-2.78626e-06
-1.50296e-05
-3.251e-06
-1.53219e-05
-3.74024e-06
-1.54715e-05
-4.26421e-06
-1.54943e-05
-4.83043e-06
-1.54048e-05
-5.44423e-06
-1.52167e-05
-6.10927e-06
-1.49431e-05
-6.8283e-06
-1.45983e-05
-7.60367e-06
-1.41986e-05
-8.43743e-06
-1.37647e-05
-9.33063e-06
-1.33207e-05
-1.02811e-05
-1.28914e-05
-1.12791e-05
-1.24927e-05
-1.22999e-05
-1.21135e-05
-1.3295e-05
-1.16885e-05
-1.41846e-05
-1.10662e-05
-1.48566e-05
-9.98425e-06
-8.04468e-06
-1.51749e-05
-3.84729e-07
-9.15183e-06
-8.78387e-07
-1.1323e-05
-1.33565e-06
-1.26011e-05
-1.74939e-06
-1.35209e-05
-2.13938e-06
-1.41858e-05
-2.5271e-06
-1.46418e-05
-2.93029e-06
-1.49188e-05
-3.36216e-06
-1.50397e-05
-3.83224e-06
-1.50243e-05
-4.34724e-06
-1.48899e-05
-4.91181e-06
-1.46522e-05
-5.52936e-06
-1.43256e-05
-6.20284e-06
-1.39248e-05
-6.93544e-06
-1.34661e-05
-7.73093e-06
-1.29692e-05
-8.59347e-06
-1.24582e-05
-9.52599e-06
-1.19589e-05
-1.05264e-05
-1.14924e-05
-1.15802e-05
-1.10598e-05
-1.26499e-05
-1.06189e-05
-1.36632e-05
-1.00529e-05
-1.45054e-05
-9.14195e-06
-7.52817e-06
-1.50219e-05
-4.68009e-07
-8.6839e-06
-9.26845e-07
-1.08642e-05
-1.31132e-06
-1.22167e-05
-1.64031e-06
-1.31919e-05
-1.94637e-06
-1.38798e-05
-2.25652e-06
-1.43318e-05
-2.5893e-06
-1.45861e-05
-2.95651e-06
-1.46725e-05
-3.3655e-06
-1.46153e-05
-3.82093e-06
-1.44345e-05
-4.32583e-06
-1.41473e-05
-4.88261e-06
-1.37689e-05
-5.49381e-06
-1.33136e-05
-6.16275e-06
-1.27972e-05
-6.89411e-06
-1.22379e-05
-7.69398e-06
-1.16583e-05
-8.56905e-06
-1.10839e-05
-9.52363e-06
-1.05379e-05
-1.05534e-05
-1.00301e-05
-1.16348e-05
-9.53761e-06
-1.27103e-05
-8.9774e-06
-1.3675e-05
-8.17713e-06
-6.8329e-06
-1.43703e-05
-6.26884e-07
-8.05704e-06
-1.04244e-06
-1.04487e-05
-1.32921e-06
-1.19299e-05
-1.5492e-06
-1.29719e-05
-1.75325e-06
-1.36758e-05
-1.97409e-06
-1.4111e-05
-2.22905e-06
-1.43311e-05
-2.52625e-06
-1.43752e-05
-2.86907e-06
-1.42724e-05
-3.25874e-06
-1.40448e-05