/*--------------------------------*- C++ -*----------------------------------*\
  =========                 |
  \\      /  F ield         | OpenFOAM: The Open Source CFD Toolbox
   \\    /   O peration     | Website:  https://openfoam.org
    \\  /    A nd           | Version:  9
     \\/     M anipulation  |
\*---------------------------------------------------------------------------*/
FoamFile
{
    format      ascii;
    class       volVectorField;
    location    "0.6";
    object      U;
}
// * * * * * * * * * * * * * * * * * * * * * * * * * * * * * * * * * * * * * //

dimensions      [0 1 -1 0 0 0 0];

internalField   nonuniform List<vector> 
2268
(
(-0.0411215 0.0171827 0)
(-0.0788262 0.00863999 0)
(-0.0834864 -0.00337838 0)
(-0.0652233 -0.00834833 0)
(-0.0427063 -0.00902357 0)
(-0.019969 -0.00829595 0)
(0.000420354 -0.00727105 0)
(0.0179451 -0.00619487 0)
(0.0327649 -0.00525977 0)
(0.0452062 -0.00449241 0)
(0.055707 -0.00386635 0)
(0.0645459 -0.00328228 0)
(0.0716317 -0.00259199 0)
(0.076452 -0.00164979 0)
(0.0783426 -0.000121167 0)
(0.0752758 0.00218175 0)
(0.0653575 0.00563792 0)
(0.0458753 0.0102513 0)
(0.0126479 0.0151249 0)
(-0.0315367 0.0210051 0)
(-0.0971064 0.0176857 0)
(-0.144425 -0.00621467 0)
(-0.0584304 -0.0435222 0)
(-0.0438854 0.0379198 0)
(-0.0514272 0.0158159 0)
(-0.0441907 -0.00559228 0)
(-0.0278951 -0.0146249 0)
(-0.00859485 -0.0163094 0)
(0.0102719 -0.0152645 0)
(0.0270626 -0.0133897 0)
(0.0413433 -0.0113552 0)
(0.0531896 -0.00951116 0)
(0.0628644 -0.00795967 0)
(0.0707122 -0.00667027 0)
(0.076961 -0.00545008 0)
(0.0815169 -0.00400292 0)
(0.0839813 -0.00208917 0)
(0.08387 0.000632987 0)
(0.0807669 0.00459788 0)
(0.0735688 0.01026 0)
(0.0605077 0.0179371 0)
(0.0387744 0.026693 0)
(0.00836292 0.0357683 0)
(-0.0280414 0.0336896 0)
(-0.0699188 0.00430185 0)
(-0.0255049 -0.0734149 0)
(-0.0303953 0.0535913 0)
(-0.0230994 0.0147761 0)
(-0.0145387 -0.0120855 0)
(0.00046109 -0.0224674 0)
(0.016534 -0.0242312 0)
(0.0317373 -0.022478 0)
(0.0451054 -0.0195883 0)
(0.0563612 -0.01652 0)
(0.0655404 -0.0137047 0)
(0.0728226 -0.0113 0)
(0.0784764 -0.00927218 0)
(0.0826977 -0.00734282 0)
(0.0853918 -0.00508496 0)
(0.0862244 -0.00220284 0)
(0.0848949 0.00160808 0)
(0.0812809 0.00682335 0)
(0.0750937 0.0141089 0)
(0.0657401 0.0239984 0)
(0.0522931 0.0355561 0)
(0.0351195 0.0459997 0)
(0.0188216 0.0439134 0)
(-0.0140614 0.00920604 0)
(0.00816329 -0.085401 0)
(-0.0128655 0.0621986 0)
(0.00199177 0.0110868 0)
(0.0121609 -0.0180678 0)
(0.0256874 -0.0292996 0)
(0.0384753 -0.0308364 0)
(0.049991 -0.0283707 0)
(0.0599595 -0.0246059 0)
(0.0682633 -0.0206432 0)
(0.0748813 -0.0169729 0)
(0.0798972 -0.0138024 0)
(0.0835163 -0.0111091 0)
(0.0859256 -0.00854124 0)
(0.0870321 -0.00554521 0)
(0.086544 -0.00180548 0)
(0.0843156 0.00291862 0)
(0.0804707 0.00906081 0)
(0.0752351 0.0173281 0)
(0.0686906 0.0283274 0)
(0.0608643 0.0409962 0)
(0.0525657 0.0517378 0)
(0.0464354 0.0503467 0)
(0.0254928 0.0147351 0)
(0.0334785 -0.0774901 0)
(0.00451656 0.059488 0)
(0.0252659 0.00576068 0)
(0.0374369 -0.0240378 0)
(0.0488647 -0.034915 0)
(0.0580547 -0.035794 0)
(0.0658102 -0.0326478 0)
(0.0724396 -0.0282077 0)
(0.0778954 -0.0235502 0)
(0.0820551 -0.0191811 0)
(0.0848925 -0.0153625 0)
(0.0865645 -0.0121097 0)
(0.0872798 -0.00901276 0)
(0.0869543 -0.00538712 0)
(0.085318 -0.000938681 0)
(0.0823551 0.00445974 0)
(0.0784134 0.0111336 0)
(0.0741011 0.0197592 0)
(0.069874 0.0309863 0)
(0.0661513 0.0436056 0)
(0.0638686 0.0538016 0)
(0.0638485 0.0530087 0)
(0.0522409 0.0217208 0)
(0.0505701 -0.0601581 0)
(0.0181324 0.0470898 0)
(0.0465295 -0.00176764 0)
(0.0611599 -0.0297147 0)
(0.0696739 -0.0389214 0)
(0.074875 -0.0388337 0)
(0.0789145 -0.035171 0)
(0.0824039 -0.03032 0)
(0.0852225 -0.02519 0)
(0.0870947 -0.0202828 0)
(0.0878747 -0.0159402 0)
(0.08769 -0.0122566 0)
(0.0868107 -0.00877617 0)
(0.0851718 -0.00465185 0)
(0.082507 0.000341145 0)
(0.0789077 0.00617216 0)
(0.0749224 0.0130032 0)
(0.0714735 0.0214545 0)
(0.0691977 0.0322676 0)
(0.0685731 0.0441206 0)
(0.0705324 0.0532764 0)
(0.0747358 0.0530688 0)
(0.0704577 0.0287502 0)
(0.0633295 -0.0353896 0)
(0.0270889 0.0275656 0)
(0.0655967 -0.0123406 0)
(0.082237 -0.0348972 0)
(0.0870086 -0.0410936 0)
(0.0880911 -0.0399677 0)
(0.08875 -0.0360851 0)
(0.0895128 -0.0311004 0)
(0.0900456 -0.0256831 0)
(0.0898919 -0.0203495 0)
(0.0887901 -0.0155654 0)
(0.0868659 -0.0115627 0)
(0.0845035 -0.00785508 0)
(0.0816664 -0.0033672 0)
(0.078076 0.0020049 0)
(0.0739129 0.00803808 0)
(0.0699043 0.0146861 0)
(0.0672508 0.0225197 0)
(0.0666342 0.0324758 0)
(0.0683855 0.0431393 0)
(0.0734301 0.0509416 0)
(0.0808973 0.0511107 0)
(0.0829454 0.0348605 0)
(0.0753078 -0.00303538 0)
(0.0352063 0.000231762 0)
(0.0829043 -0.0284242 0)
(0.0988286 -0.0406992 0)
(0.0992851 -0.0424294 0)
(0.0967779 -0.0401899 0)
(0.0948237 -0.0362353 0)
(0.0935352 -0.0312231 0)
(0.0922968 -0.0255603 0)
(0.0904895 -0.0197836 0)
(0.0877582 -0.0144955 0)
(0.0842617 -0.0101208 0)
(0.0805563 -0.00621684 0)
(0.0766445 -0.00148627 0)
(0.0722325 0.00409728 0)
(0.0675794 0.0100959 0)
(0.0635689 0.0162205 0)
(0.0616595 0.0230065 0)
(0.0624673 0.031794 0)
(0.0660379 0.0410288 0)
(0.0733433 0.0471958 0)
(0.0835631 0.0472058 0)
(0.0900106 0.0380522 0)
(0.0955916 0.0433212 0)
(0.0464535 -0.0427736 0)
(0.171582 -0.039604 0)
(0.180592 0.0284458 0)
(-0.132717 0.0968575 0)
(-0.712872 0.155244 0)
(-1.49109 0.24472 0)
(-2.18106 0.132914 0)
(-2.64955 -0.1428 0)
(-2.67441 -0.231903 0)
(-2.63335 -0.194729 0)
(-2.56017 -0.148427 0)
(-2.46307 -0.122775 0)
(-2.35117 -0.108307 0)
(-2.21644 -0.101544 0)
(-1.97175 -0.125014 0)
(-1.52654 -0.187977 0)
(-0.964134 -0.217245 0)
(-0.437746 -0.176602 0)
(-0.0690345 -0.0528318 0)
(0.0105991 -0.0683289 0)
(0.0978634 -0.0444377 0)
(0.0670726 0.141875 0)
(-0.558733 0.386832 0)
(-1.71422 0.462189 0)
(-2.4658 0.416065 0)
(-2.75817 0.297306 0)
(-2.84544 0.195361 0)
(-2.70898 0.133509 0)
(-2.53148 0.077313 0)
(-2.3435 0.0336161 0)
(-2.13142 0.00237333 0)
(-1.99081 -0.0478148 0)
(-1.89112 -0.101919 0)
(-1.65361 -0.185666 0)
(-1.28214 -0.313382 0)
(-0.882901 -0.361865 0)
(-0.501865 -0.313253 0)
(-0.180571 -0.151468 0)
(-0.0286176 -0.0875612 0)
(0.0808799 -0.0483339 0)
(0.0145971 0.316153 0)
(-0.784457 0.77188 0)
(-1.92039 0.795385 0)
(-2.36759 0.624931 0)
(-2.61532 0.357298 0)
(-2.71075 0.0752037 0)
(-2.6216 -0.115498 0)
(-2.42709 -0.134699 0)
(-2.17025 -0.139618 0)
(-1.88701 -0.129025 0)
(-1.68693 -0.110239 0)
(-1.57627 -0.140391 0)
(-1.31658 -0.27897 0)
(-0.992336 -0.452841 0)
(-0.724369 -0.497997 0)
(-0.448693 -0.445754 0)
(-0.184329 -0.290604 0)
(-0.0426696 -0.0868841 0)
(0.142703 -0.0436826 0)
(0.104547 0.507707 0)
(-0.656229 1.19611 0)
(-1.59267 1.0858 0)
(-1.96894 0.773934 0)
(-2.21218 0.406441 0)
(-2.2608 0.0787122 0)
(-2.09776 -0.222445 0)
(-1.86029 -0.347978 0)
(-1.53179 -0.382165 0)
(-1.12351 -0.359707 0)
(-0.866459 -0.334327 0)
(-1.15449 -0.152312 0)
(-0.959462 -0.381845 0)
(-0.696198 -0.568733 0)
(-0.543583 -0.600736 0)
(-0.350179 -0.548454 0)
(-0.143649 -0.408485 0)
(-0.018816 -0.0582166 0)
(0.284523 -0.0820766 0)
(0.30085 0.68159 0)
(-0.300299 1.49658 0)
(-1.01808 1.3264 0)
(-1.37883 0.889899 0)
(-1.46328 0.522735 0)
(-1.52388 0.0921665 0)
(-1.47467 -0.236083 0)
(-1.36124 -0.386651 0)
(-1.15143 -0.442092 0)
(-0.8737 -0.421166 0)
(-0.757462 -0.342193 0)
(-0.712329 -0.0763699 0)
(-0.648072 -0.4641 0)
(-0.440052 -0.651611 0)
(-0.373977 -0.665848 0)
(-0.247018 -0.616791 0)
(-0.0989759 -0.494072 0)
(0.000730601 -0.216727 0)
(0.286147 -0.224423 0)
(0.462688 0.746781 0)
(0.164923 1.7027 0)
(-0.356696 1.54575 0)
(-0.589694 1.03969 0)
(-0.738746 0.557654 0)
(-0.844433 0.105569 0)
(-0.894548 -0.237659 0)
(-0.899072 -0.422421 0)
(-0.825213 -0.499381 0)
(-0.71321 -0.486065 0)
(-0.800624 -0.376508 0)
(-0.521336 -0.115822 0)
(-0.402324 -0.535134 0)
(-0.242816 -0.704937 0)
(-0.230154 -0.702325 0)
(-0.156107 -0.65837 0)
(-0.060376 -0.553437 0)
(0.0908984 -0.286792 0)
(0.150762 -0.248877 0)
(0.304253 0.645631 0)
(0.474836 1.7907 0)
(0.214518 1.68604 0)
(0.0513039 1.13013 0)
(-0.111871 0.607848 0)
(-0.26119 0.148568 0)
(-0.388943 -0.205801 0)
(-0.482253 -0.417458 0)
(-0.512239 -0.510114 0)
(-0.513073 -0.503454 0)
(-0.735017 -0.395747 0)
(-0.269287 -0.153075 0)
(-0.162456 -0.604017 0)
(-0.0964433 -0.734766 0)
(-0.113225 -0.718959 0)
(-0.081185 -0.680116 0)
(-0.0289812 -0.589153 0)
(0.14799 -0.281711 0)
(0.0658588 -0.266433 0)
(0.112823 0.498789 0)
(0.565228 1.76239 0)
(0.5672 1.71643 0)
(0.511718 1.19439 0)
(0.373835 0.675012 0)
(0.20483 0.218138 0)
(0.0297543 -0.14453 0)
(-0.118729 -0.3766 0)
(-0.217246 -0.485129 0)
(-0.274019 -0.487589 0)
(-0.543289 -0.419745 0)
(-0.0375651 -0.282217 0)
(0.0192139 -0.627957 0)
(0.0127403 -0.739998 0)
(-0.0214045 -0.721084 0)
(-0.0211485 -0.687091 0)
(-0.00159668 -0.603803 0)
(0.0566918 -0.0456991 0)
(0.103917 -0.0588326 0)
(0.113938 -0.0519965 0)
(0.109068 -0.0456675 0)
(0.10288 -0.0413176 0)
(0.0985514 -0.0370531 0)
(0.0953869 -0.0319105 0)
(0.0923338 -0.0258126 0)
(0.0886495 -0.0192261 0)
(0.0839262 -0.0128454 0)
(0.0784016 -0.00736398 0)
(0.0728713 -0.00266984 0)
(0.0674486 0.00236759 0)
(0.0619349 0.00804586 0)
(0.056667 0.0136596 0)
(0.0527279 0.0184439 0)
(0.0519644 0.0228447 0)
(0.054727 0.0294653 0)
(0.0604273 0.0363189 0)
(0.0702571 0.0394957 0)
(0.084274 0.0381794 0)
(0.0997035 0.0333459 0)
(0.125207 0.0424473 0)
(0.0926745 -0.0882853 0)
(0.101922 -0.0476895 0)
(0.105715 -0.0421612 0)
(0.0996835 -0.0383276 0)
(0.0886002 -0.0347202 0)
(0.0834102 -0.032162 0)
(0.0808579 -0.0276873 0)
(0.0784001 -0.0217268 0)
(0.0754248 -0.0148698 0)
(0.0715451 -0.00810374 0)
(0.0668528 -0.00297528 0)
(0.0611229 0.000717031 0)
(0.054925 0.00548355 0)
(0.0491794 0.0116408 0)
(0.0441009 0.0174088 0)
(0.0408048 0.0204305 0)
(0.0418587 0.0202062 0)
(0.0469184 0.0235959 0)
(0.0539256 0.0274135 0)
(0.0647846 0.0256768 0)
(0.0796522 0.0207549 0)
(0.0955093 0.0117924 0)
(0.11603 -0.000871064 0)
(-0.00703688 -0.327384 0)
(0.0382115 -0.117631 0)
(0.0574836 -0.0375851 0)
(0.0716897 -0.00801734 0)
(0.0821961 -0.0109435 0)
(0.0828933 -0.0237145 0)
(0.0786701 -0.0225362 0)
(0.0743035 -0.0179623 0)
(0.0703187 -0.0117236 0)
(0.0666252 -0.00483864 0)
(0.062383 0.000831269 0)
(0.0509928 0.00433039 0)
(0.0379113 0.00988909 0)
(0.0311598 0.0151563 0)
(0.029131 0.0193545 0)
(0.0325075 0.0193086 0)
(0.0393711 0.0162814 0)
(0.0459168 0.0188927 0)
(0.0537225 0.019413 0)
(0.06591 0.0107297 0)
(0.0814968 0.00303261 0)
(0.0977775 -0.00591991 0)
(0.11591 -0.0179773 0)
(-0.0436194 -0.162763 0)
(-0.0186298 -0.114229 0)
(0.0143756 -0.0777842 0)
(0.0446558 -0.0535492 0)
(0.0686982 -0.0381961 0)
(0.0840658 -0.0274555 0)
(0.0930648 -0.0174628 0)
(0.0979345 -0.00862828 0)
(0.098877 0.000144748 0)
(0.0951414 0.00970266 0)
(0.0855487 0.0233318 0)
(0.0715665 0.0433645 0)
(0.046733 0.0304454 0)
(0.0318148 0.0193424 0)
(0.0275202 0.0208624 0)
(0.0300295 0.0184216 0)
(0.0353227 0.00986892 0)
(0.0440022 0.0129302 0)
(0.0606196 0.0112984 0)
(0.0778065 -0.000130321 0)
(0.0919213 -0.00804119 0)
(0.105821 -0.0187133 0)
(0.120935 -0.0335607 0)
(-0.0144953 -0.161418 0)
(-0.0129118 -0.136773 0)
(0.00597136 -0.105106 0)
(0.0292069 -0.0801389 0)
(0.0516832 -0.0615641 0)
(0.0701943 -0.0467513 0)
(0.0844946 -0.0336342 0)
(0.0949973 -0.0212693 0)
(0.101883 -0.00840236 0)
(0.1056 0.00636632 0)
(0.107069 0.0243248 0)
(0.109257 0.0444965 0)
(0.1074 0.0524246 0)
(0.0993837 0.0430399 0)
(0.0892775 0.0276078 0)
(0.073745 0.0154166 0)
(0.050521 0.000536602 0)
(0.0471423 0.0033733 0)
(0.0670936 0.00193475 0)
(0.0851595 -0.013236 0)
(0.0990283 -0.0186066 0)
(0.116266 -0.0287489 0)
(0.131131 -0.0403572 0)
(-0.00692441 -0.161922 0)
(-0.00617104 -0.145505 0)
(0.00514285 -0.122089 0)
(0.0213325 -0.100078 0)
(0.0391698 -0.0807931 0)
(0.0562272 -0.0636431 0)
(0.071497 -0.0477118 0)
(0.0846416 -0.0322418 0)
(0.0956573 -0.016369 0)
(0.104963 0.000530674 0)
(0.113819 0.0181933 0)
(0.123955 0.0343959 0)
(0.132618 0.041972 0)
(0.136246 0.0419832 0)
(0.136244 0.0395548 0)
(0.134065 0.0338434 0)
(0.128111 0.0133964 0)
(0.12509 -0.0213193 0)
(0.123251 -0.0393123 0)
(0.107333 -0.0335748 0)
(0.109557 -0.0285343 0)
(0.124859 -0.0351772 0)
(0.12966 -0.0497319 0)
(-0.00382661 -0.152775 0)
(-0.0027587 -0.149471 0)
(0.00491131 -0.133151 0)
(0.0163064 -0.114778 0)
(0.0300066 -0.0965836 0)
(0.0444901 -0.0790426 0)
(0.0588304 -0.0620141 0)
(0.0725618 -0.0451784 0)
(0.0855972 -0.0281525 0)
(0.0982525 -0.0107975 0)
(0.111306 0.00638727 0)
(0.125509 0.021431 0)
(0.139476 0.0309009 0)
(0.150867 0.0351127 0)
(0.159595 0.0360124 0)
(0.166581 0.0325692 0)
(0.170684 0.0214216 0)
(0.169605 0.00542656 0)
(0.164553 -0.0108343 0)
(0.159033 -0.0333642 0)
(0.156139 -0.0622033 0)
(0.150636 -0.0726717 0)
(0.135987 -0.0588436 0)
(-0.00158302 -0.152057 0)
(-0.000879928 -0.152946 0)
(0.00406129 -0.140917 0)
(0.0120715 -0.125609 0)
(0.0224854 -0.109204 0)
(0.034402 -0.0924897 0)
(0.047158 -0.0756979 0)
(0.0603686 -0.0588335 0)
(0.0739287 -0.0418559 0)
(0.0880073 -0.0249105 0)
(0.102968 -0.00859256 0)
(0.119011 0.00573659 0)
(0.135307 0.0162029 0)
(0.150445 0.0224165 0)
(0.163896 0.0248383 0)
(0.175664 0.0228996 0)
(0.184569 0.0154582 0)
(0.188792 0.00418639 0)
(0.189002 -0.00642479 0)
(0.187041 -0.0174976 0)
(0.181868 -0.0293542 0)
(0.172151 -0.0331829 0)
(0.160419 -0.0266389 0)
(-0.00135088 -0.150957 0)
(-0.00117465 -0.155134 0)
(0.00202409 -0.146216 0)
(0.00767558 -0.133547 0)
(0.0155837 -0.119153 0)
(0.0252665 -0.103873 0)
(0.0363097 -0.0881035 0)
(0.0484453 -0.0720475 0)
(0.061572 -0.0558731 0)
(0.0757388 -0.0398774 0)
(0.091053 -0.0246405 0)
(0.10745 -0.0111226 0)
(0.124336 -0.000463834 0)
(0.140795 0.00680169 0)
(0.156207 0.0105842 0)
(0.170112 0.0105473 0)
(0.181509 0.00637758 0)
(0.189241 -0.000756171 0)
(0.193328 -0.00849809 0)
(0.194198 -0.0162024 0)
(0.191191 -0.0227258 0)
(0.184757 -0.023584 0)
(0.178044 -0.0175269 0)
(-0.00191635 -0.14937 0)
(-0.00255982 -0.156139 0)
(-0.000800594 -0.149711 0)
(0.00303862 -0.139341 0)
(0.00896647 -0.126951 0)
(0.0167357 -0.113355 0)
(0.0261029 -0.0990122 0)
(0.0368942 -0.0842267 0)
(0.0490185 -0.0692748 0)
(0.0624493 -0.0545117 0)
(0.0771542 -0.0404574 0)
(0.0929595 -0.0278193 0)
(0.109396 -0.0173609 0)
(0.125798 -0.00956953 0)
(0.141554 -0.00468445 0)
(0.156065 -0.0029176 0)
(0.168499 -0.00427601 0)
(0.178032 -0.00798071 0)
(0.18441 -0.0126739 0)
(0.187649 -0.0173451 0)
(0.18762 -0.0205899 0)
(0.185077 -0.0199988 0)
(0.182218 -0.0148502 0)
(-0.00273555 -0.146663 0)
(-0.00437703 -0.155905 0)
(-0.00391717 -0.151697 0)
(-0.0016031 -0.143414 0)
(0.00266038 -0.132953 0)
(0.00874455 -0.121114 0)
(0.0165027 -0.108374 0)
(0.0258243 -0.0950793 0)
(0.036629 -0.0815494 0)
(0.048851 -0.0681437 0)
(0.0623904 -0.0553113 0)
(0.0770368 -0.0435909 0)
(0.0923997 -0.0335308 0)
(0.10795 -0.0255361 0)
(0.123129 -0.0198515 0)
(0.137342 -0.0166085 0)
(0.149897 -0.0157152 0)
(0.160148 -0.0166223 0)
(0.167761 -0.0184277 0)
(0.172644 -0.0202124 0)
(0.174864 -0.0208456 0)
(0.175017 -0.0189823 0)
(0.174496 -0.014148 0)
(-0.00352379 -0.14269 0)
(-0.00616659 -0.154437 0)
(-0.00690632 -0.152326 0)
(-0.00594235 -0.145991 0)
(-0.00315373 -0.137373 0)
(0.00139219 -0.127277 0)
(0.00760412 -0.116184 0)
(0.015406 -0.104456 0)
(0.0247276 -0.0924158 0)
(0.0354869 -0.0804013 0)
(0.0475578 -0.0687932 0)
(0.0607265 -0.0580105 0)
(0.0746581 -0.0484624 0)
(0.088914 -0.0404713 0)
(0.103 -0.0342426 0)
(0.116379 -0.0298559 0)
(0.128472 -0.0271973 0)
(0.138747 -0.0258619 0)
(0.146855 -0.0252013 0)
(0.152641 -0.0244775 0)
(0.156147 -0.0228627 0)
(0.1577 -0.0195611 0)
(0.158086 -0.0142475 0)
(-0.00411961 -0.137619 0)
(-0.00765137 -0.151837 0)
(-0.00947147 -0.151721 0)
(-0.00972337 -0.147216 0)
(-0.00827487 -0.140347 0)
(-0.00515875 -0.131934 0)
(-0.000434115 -0.122463 0)
(0.00584433 -0.112292 0)
(0.0136147 -0.101733 0)
(0.0227924 -0.0910919 0)
(0.0332472 -0.0806866 0)
(0.044778 -0.0708459 0)
(0.0570949 -0.0618797 0)
(0.0698271 -0.0540362 0)
(0.0825469 -0.0474725 0)
(0.0947864 -0.0422324 0)
(0.106056 -0.038204 0)
(0.115902 -0.0350755 0)
(0.123978 -0.0323585 0)
(0.130076 -0.0294702 0)
(0.134135 -0.025787 0)
(0.136226 -0.0207703 0)
(0.136695 -0.0141318 0)
(-0.004468 -0.131736 0)
(-0.00870364 -0.148276 0)
(-0.0114505 -0.150023 0)
(-0.0127796 -0.147218 0)
(-0.0125474 -0.141984 0)
(-0.01076 -0.135165 0)
(-0.00745366 -0.127247 0)
(-0.00266638 -0.118579 0)
(0.00354978 -0.109452 0)
(0.0111147 -0.100137 0)
(0.0199056 -0.0908974 0)
(0.0297413 -0.0819909 0)
(0.0403723 -0.0736519 0)
(0.0514839 -0.0660647 0)
(0.0627109 -0.0593408 0)
(0.0736518 -0.053496 0)
(0.0838898 -0.0484221 0)
(0.0930281 -0.0438634 0)
(0.100732 -0.0394286 0)
(0.106747 -0.0346374 0)
(0.110911 -0.0289785 0)
(0.11309 -0.0220093 0)
(0.113332 -0.0133952 0)
(-0.00457491 -0.12537 0)
(-0.00929731 -0.143973 0)
(-0.0127915 -0.147394 0)
(-0.0150426 -0.146132 0)
(-0.0158928 -0.142399 0)
(-0.0153208 -0.13706 0)
(-0.0133421 -0.130601 0)
(-0.00997883 -0.123354 0)
(-0.00527117 -0.115587 0)
(0.000710965 -0.107534 0)
(0.00785827 -0.0994136 0)
(0.0160125 -0.091425 0)
(0.0249613 -0.0837427 0)
(0.0344394 -0.0764981 0)
(0.0441384 -0.0697621 0)
(0.0537181 -0.0635257 0)
(0.0628229 -0.0576792 0)
(0.0711041 -0.0519956 0)
(0.0782424 -0.0461346 0)
(0.0839576 -0.0396684 0)
(0.0880092 -0.0321295 0)
(0.0901266 -0.0230821 0)
(0.0901698 -0.0120941 0)
(-0.00447833 -0.118832 0)
(-0.00947238 -0.139157 0)
(-0.0135243 -0.144017 0)
(-0.0165299 -0.144112 0)
(-0.0183132 -0.141725 0)
(-0.0188243 -0.137734 0)
(-0.0180572 -0.132618 0)
(-0.0160177 -0.126693 0)
(-0.0127323 -0.120199 0)
(-0.00825702 -0.113337 0)
(-0.00268417 -0.106281 0)
(0.00385267 -0.099187 0)
(0.0111754 -0.0921796 0)
(0.0190635 -0.0853469 0)
(0.0272601 -0.0787248 0)
(0.035481 -0.0722812 0)
(0.0434257 -0.0658988 0)
(0.0507907 -0.0593597 0)
(0.0572797 -0.052342 0)
(0.0626053 -0.0444322 0)
(0.0664843 -0.0351598 0)
(0.0685685 -0.0240472 0)
(0.0686194 -0.0105394 0)
(-0.00423058 -0.112381 0)
(-0.00930731 -0.134042 0)
(-0.0137343 -0.140076 0)
(-0.0173233 -0.141323 0)
(-0.0198801 -0.140111 0)
(-0.0213255 -0.137323 0)
(-0.0216315 -0.133423 0)
(-0.0207874 -0.128708 0)
(-0.0188051 -0.123389 0)
(-0.0157253 -0.117637 0)
(-0.0116212 -0.111589 0)
(-0.00660162 -0.105359 0)
(-0.000811792 -0.0990354 0)
(0.00556855 -0.0926696 0)
(0.0123299 -0.0862684 0)
(0.0192394 -0.0797787 0)
(0.0260484 -0.073071 0)
(0.0324987 -0.0659232 0)
(0.0383256 -0.0580107 0)
(0.0432533 -0.0489081 0)
(0.0469873 -0.0381129 0)
(0.0491499 -0.0250803 0)
(0.0494693 -0.00912514 0)
(-0.00388701 -0.106212 0)
(-0.00889782 -0.128816 0)
(-0.0135374 -0.135747 0)
(-0.0175465 -0.137932 0)
(-0.0207151 -0.137717 0)
(-0.0229367 -0.135978 0)
(-0.0241625 -0.13316 0)
(-0.0243656 -0.129535 0)
(-0.0235438 -0.125289 0)
(-0.0217221 -0.120559 0)
(-0.0189551 -0.115454 0)
(-0.0153267 -0.110054 0)
(-0.0109514 -0.104415 0)
(-0.00597091 -0.0985585 0)
(-0.000550847 -0.0924685 0)
(0.00512412 -0.0860735 0)
(0.0108548 -0.0792304 0)
(0.0164296 -0.0717052 0)
(0.0216229 -0.0631573 0)
(0.0261858 -0.0531334 0)
(0.0298374 -0.0410822 0)
(0.0322058 -0.0263801 0)
(0.0330296 -0.00821499 0)
(-0.00349883 -0.100446 0)
(-0.00834081 -0.123622 0)
(-0.0130597 -0.131187 0)
(-0.0173421 -0.134098 0)
(-0.0209676 -0.134704 0)
(-0.0238073 -0.13386 0)
(-0.0257938 -0.131988 0)
(-0.0268861 -0.129331 0)
(-0.027069 -0.126048 0)
(-0.0263531 -0.12225 0)
(-0.0247749 -0.118018 0)
(-0.022396 -0.113405 0)
(-0.0193015 -0.108441 0)
(-0.0155982 -0.103126 0)
(-0.0114106 -0.097423 0)
(-0.00687776 -0.0912464 0)
(-0.00215086 -0.0844393 0)
(0.00260629 -0.0767533 0)
(0.0072122 -0.0678254 0)
(0.0114558 -0.0571647 0)
(0.015087 -0.0441623 0)
(0.0177625 -0.0281117 0)
(0.0192572 -0.00808008 0)
(-0.0031087 -0.095143 0)
(-0.00772235 -0.118561 0)
(-0.0124202 -0.126522 0)
(-0.0168524 -0.129967 0)
(-0.0207945 -0.131226 0)
(-0.0241019 -0.131129 0)
(-0.0266934 -0.130066 0)
(-0.0285168 -0.128254 0)
(-0.0295459 -0.125825 0)
(-0.0297786 -0.122866 0)
(-0.0292354 -0.119432 0)
(-0.0279575 -0.115557 0)
(-0.026004 -0.111248 0)
(-0.0234495 -0.106492 0)
(-0.0203806 -0.101237 0)
(-0.0168935 -0.0953854 0)
(-0.0130928 -0.0887696 0)
(-0.00909389 -0.0811252 0)
(-0.00503051 -0.0720634 0)
(-0.00106918 -0.0610521 0)
(0.00258057 -0.0474204 0)
(0.00561571 -0.0303774 0)
(0.00786116 -0.00887598 0)
(-0.0027477 -0.090307 0)
(-0.00710979 -0.113692 0)
(-0.0117191 -0.12185 0)
(-0.0162032 -0.12566 0)
(-0.0203413 -0.127422 0)
(-0.0239809 -0.127932 0)
(-0.0270326 -0.12755 0)
(-0.0294369 -0.126464 0)
(-0.0311594 -0.12478 0)
(-0.0321879 -0.122563 0)
(-0.0325294 -0.119849 0)
(-0.0322071 -0.116654 0)
(-0.0312573 -0.112973 0)
(-0.0297259 -0.10878 0)
(-0.0276653 -0.104016 0)
(-0.025132 -0.0985766 0)
(-0.0221867 -0.0922863 0)
(-0.018897 -0.0848671 0)
(-0.0153478 -0.0759042 0)
(-0.0116575 -0.0648214 0)
(-0.00798905 -0.0508819 0)
(-0.00459868 -0.0332086 0)
(-0.001611 -0.0106421 0)
(-0.00243343 -0.0859053 0)
(-0.0065478 -0.109039 0)
(-0.0110299 -0.11724 0)
(-0.0154943 -0.121277 0)
(-0.0197304 -0.123411 0)
(-0.0235856 -0.124403 0)
(-0.0269686 -0.124582 0)
(-0.0298173 -0.124107 0)
(-0.0320927 -0.123061 0)
(-0.0337754 -0.121489 0)
(-0.0348615 -0.119413 0)
(-0.0353594 -0.116835 0)
(-0.0352859 -0.113744 0)
(-0.0346619 -0.110105 0)
(-0.0335097 -0.105858 0)
(-0.0318504 -0.100897 0)
(-0.0297037 -0.0950431 0)
(-0.027092 -0.0880084 0)
(-0.0240519 -0.0793533 0)
(-0.020653 -0.0684569 0)
(-0.0170102 -0.0545142 0)
(-0.0133285 -0.0365592 0)
(-0.00968678 -0.0133207 0)
(-0.0021692 -0.081885 0)
(-0.00605849 -0.104602 0)
(-0.0103981 -0.112731 0)
(-0.0147947 -0.11689 0)
(-0.0190532 -0.11929 0)
(-0.0230281 -0.120656 0)
(-0.0266325 -0.121286 0)
(-0.0298064 -0.121313 0)
(-0.0325103 -0.120801 0)
(-0.0347206 -0.119779 0)
(-0.0364257 -0.118256 0)
(-0.0376227 -0.116227 0)
(-0.0383121 -0.113675 0)
(-0.0384944 -0.110566 0)
(-0.0381662 -0.106844 0)
(-0.0373176 -0.102406 0)
(-0.0359318 -0.0970744 0)
(-0.0339892 -0.0905556 0)
(-0.0314805 -0.0823881 0)
(-0.0284274 -0.0719063 0)
(-0.0248971 -0.0582351 0)
(-0.0210435 -0.0403157 0)
(-0.0169033 -0.0167667 0)
(-0.00194546 -0.0781889 0)
(-0.00564496 -0.100362 0)
(-0.00984352 -0.108344 0)
(-0.0141435 -0.112551 0)
(-0.0183692 -0.115134 0)
(-0.022388 -0.116784 0)
(-0.026123 -0.117768 0)
(-0.0295213 -0.118198 0)
(-0.0325466 -0.11812 0)
(-0.0351744 -0.117552 0)
(-0.0373892 -0.116494 0)
(-0.0391795 -0.114938 0)
(-0.040534 -0.112866 0)
(-0.0414369 -0.110251 0)
(-0.0418644 -0.107041 0)
(-0.0417808 -0.103145 0)
(-0.0411375 -0.0983925 0)
(-0.039878 -0.0924887 0)
(-0.0379498 -0.0849541 0)
(-0.0353288 -0.0750799 0)
(-0.0320357 -0.0619188 0)
(-0.0281739 -0.0443152 0)
(-0.023741 -0.0207736 0)
(-0.00174564 -0.0747678 0)
(-0.00529805 -0.0962914 0)
(-0.00936622 -0.104084 0)
(-0.0135548 -0.108293 0)
(-0.0177088 -0.111001 0)
(-0.021713 -0.112861 0)
(-0.0255055 -0.114115 0)
(-0.0290446 -0.114855 0)
(-0.0323007 -0.115118 0)
(-0.0352521 -0.11491 0)
(-0.037882 -0.114228 0)
(-0.0401745 -0.113064 0)
(-0.0421101 -0.111403 0)
(-0.0436617 -0.109227 0)
(-0.0447901 -0.106498 0)
(-0.0454397 -0.103137 0)
(-0.0455365 -0.0989895 0)
(-0.0449915 -0.0937644 0)
(-0.043714 -0.0869695 0)
(-0.0416362 -0.0778559 0)
(-0.0387322 -0.0654035 0)
(-0.0350549 -0.0483554 0)
(-0.0305636 -0.0250986 0)
(-0.00155573 -0.0715859 0)
(-0.00500399 -0.0923598 0)
(-0.00895443 -0.099945 0)
(-0.0130242 -0.104136 0)
(-0.017079 -0.106932 0)
(-0.0210238 -0.108946 0)
(-0.0248154 -0.110397 0)
(-0.0284264 -0.111366 0)
(-0.0318371 -0.111879 0)
(-0.0350314 -0.11194 0)
(-0.0379946 -0.111544 0)
(-0.0407093 -0.110685 0)
(-0.0431522 -0.109358 0)
(-0.0452894 -0.107554 0)
(-0.0470723 -0.105252 0)
(-0.0484313 -0.102394 0)
(-0.0492734 -0.098844 0)
(-0.0494841 -0.0943234 0)
(-0.0489384 -0.0883342 0)
(-0.0475272 -0.0800923 0)
(-0.0451778 -0.0685064 0)
(-0.0418888 -0.0522156 0)
(-0.0375791 -0.0294861 0)
(-0.00137248 -0.0686187 0)
(-0.0047502 -0.0885428 0)
(-0.00859086 -0.0959222 0)
(-0.0125359 -0.100095 0)
(-0.0164702 -0.102957 0)
(-0.0203205 -0.105083 0)
(-0.0240638 -0.106672 0)
(-0.0276895 -0.107796 0)
(-0.0311897 -0.108477 0)
(-0.0345567 -0.108718 0)
(-0.0377801 -0.108518 0)
(-0.0408444 -0.107876 0)
(-0.0437259 -0.106796 0)
(-0.046389 -0.105283 0)
(-0.0487807 -0.103336 0)
(-0.0508244 -0.100923 0)
(-0.0524156 -0.0979306 0)
(-0.0534206 -0.094102 0)
(-0.0536862 -0.0889423 0)
(-0.053064 -0.081641 0)
(-0.0514322 -0.0710403 0)
(-0.0487297 -0.0556757 0)
(-0.0448272 -0.0336911 0)
(-0.00120406 -0.0658463 0)
(-0.00452647 -0.0848268 0)
(-0.00825629 -0.092015 0)
(-0.0120676 -0.0961827 0)
(-0.0158626 -0.099104 0)
(-0.0195892 -0.101311 0)
(-0.023245 -0.102988 0)
(-0.0268366 -0.104202 0)
(-0.0303695 -0.104975 0)
(-0.0338456 -0.105313 0)
(-0.0372612 -0.105221 0)
(-0.0406052 -0.104705 0)
(-0.043857 -0.103781 0)
(-0.046983 -0.102469 0)
(-0.0499315 -0.100789 0)
(-0.0526256 -0.098737 0)
(-0.0549567 -0.0962323 0)
(-0.0567805 -0.0930453 0)
(-0.0579215 -0.0886969 0)
(-0.0581949 -0.082363 0)
(-0.0574272 -0.0728301 0)
(-0.0554892 -0.0585344 0)
(-0.0521911 -0.0374987 0)
(-0.00106036 -0.0632486 0)
(-0.00432188 -0.0812122 0)
(-0.00793059 -0.0882316 0)
(-0.011595 -0.0924143 0)
(-0.0152323 -0.0953942 0)
(-0.0188096 -0.0976607 0)
(-0.0223438 -0.0993855 0)
(-0.0258583 -0.100633 0)
(-0.0293722 -0.10143 0)
(-0.0328979 -0.101789 0)
(-0.0364396 -0.101721 0)
(-0.0399925 -0.101243 0)
(-0.0435419 -0.100381 0)
(-0.0470596 -0.0991724 0)
(-0.0504999 -0.0976601 0)
(-0.053792 -0.0958675 0)
(-0.0568314 -0.0937512 0)
(-0.0594718 -0.0911199 0)
(-0.0615239 -0.0875237 0)
(-0.0627707 -0.0821427 0)
(-0.062985 -0.0737255 0)
(-0.0619598 -0.0606208 0)
(-0.0594282 -0.0407345 0)
(-0.000941555 -0.0608042 0)
(-0.00412198 -0.0777099 0)
(-0.00759436 -0.0845869 0)
(-0.0110957 -0.0888067 0)
(-0.0145565 -0.0918496 0)
(-0.0179609 -0.0941607 0)
(-0.0213427 -0.0959009 0)
(-0.0247407 -0.0971356 0)
(-0.0281868 -0.0978975 0)
(-0.0317042 -0.098208 0)
(-0.0353055 -0.0980878 0)
(-0.0389935 -0.0975633 0)
(-0.0427605 -0.096673 0)
(-0.0465867 -0.0954699 0)
(-0.0504362 -0.0940173 0)
(-0.0542501 -0.0923687 0)
(-0.0579356 -0.0905199 0)
(-0.061354 -0.0883264 0)
(-0.0643124 -0.0853837 0)
(-0.0665692 -0.0808995 0)
(-0.0678446 -0.0736101 0)
(-0.0678455 -0.0617985 0)
(-0.0662085 -0.0432652 0)
(-0.000839083 -0.0584999 0)
(-0.0039129 -0.0743354 0)
(-0.00723474 -0.0810986 0)
(-0.0105555 -0.0853777 0)
(-0.0138202 -0.0884908 0)
(-0.0170279 -0.0908375 0)
(-0.0202275 -0.0925684 0)
(-0.023471 -0.0937522 0)
(-0.0268023 -0.0944298 0)
(-0.0302538 -0.0946328 0)
(-0.0338469 -0.0943927 0)
(-0.0375918 -0.0937468 0)
(-0.0414887 -0.0927445 0)
(-0.0455274 -0.0914523 0)
(-0.0496843 -0.0899525 0)
(-0.0539166 -0.0883258 0)
(-0.0581503 -0.0866083 0)
(-0.0622644 -0.0847087 0)
(-0.0660743 -0.0822845 0)
(-0.069326 -0.0785979 0)
(-0.0716935 -0.0724083 0)
(-0.0727945 -0.0619663 0)
(-0.0721523 -0.0449892 0)
(-0.000751674 -0.056344 0)
(-0.00369492 -0.0711043 0)
(-0.00685578 -0.0777839 0)
(-0.00997572 -0.0821468 0)
(-0.0130211 -0.0853403 0)
(-0.0160055 -0.0877183 0)
(-0.0189914 -0.0894221 0)
(-0.0220424 -0.0905255 0)
(-0.0252119 -0.0910792 0)
(-0.0285405 -0.0911265 0)
(-0.0320565 -0.0907106 0)
(-0.035777 -0.0898796 0)
(-0.0397095 -0.0886929 0)
(-0.0438531 -0.0872277 0)
(-0.0481977 -0.0855808 0)
(-0.052719 -0.0838565 0)
(-0.0573667 -0.0821282 0)
(-0.0620467 -0.0803613 0)
(-0.0665967 -0.0782891 0)
(-0.0707667 -0.0752576 0)
(-0.0741992 -0.0700911 0)
(-0.0764299 -0.0610557 0)
(-0.0768597 -0.0458226 0)
(-0.000708832 -0.0543509 0)
(-0.00349801 -0.0680288 0)
(-0.00648834 -0.074662 0)
(-0.00937946 -0.0791385 0)
(-0.0121729 -0.0824263 0)
(-0.0149 -0.0848344 0)
(-0.0176363 -0.0864983 0)
(-0.020455 -0.0874985 0)
(-0.0234162 -0.0878978 0)
(-0.0265657 -0.0877524 0)
(-0.0299365 -0.0871179 0)
(-0.0335504 -0.0860524 0)
(-0.0374204 -0.0846237 0)
(-0.0415539 -0.0829168 0)
(-0.0459533 -0.081038 0)
(-0.0506127 -0.0791083 0)
(-0.0555083 -0.0772329 0)
(-0.0605794 -0.0754321 0)
(-0.0656993 -0.0735237 0)
(-0.0706421 -0.0709629 0)
(-0.075043 -0.066686 0)
(-0.0783772 -0.0590334 0)
(-0.0799295 -0.0456871 0)
(-0.000788292 -0.0524648 0)
(-0.00338552 -0.0651136 0)
(-0.0061915 -0.0717604 0)
(-0.0088103 -0.0763897 0)
(-0.0113034 -0.0797879 0)
(-0.0137275 -0.0822253 0)
(-0.0161715 -0.0838371 0)
(-0.0187156 -0.0847153 0)
(-0.0214227 -0.0849367 0)
(-0.0243397 -0.0845722 0)
(-0.0275004 -0.0836893 0)
(-0.0309279 -0.0823559 0)
(-0.0346385 -0.0806458 0)
(-0.0386453 -0.0786482 0)
(-0.0429606 -0.0764736 0)
(-0.0475947 -0.0742522 0)
(-0.0525493 -0.0721117 0)
(-0.0577999 -0.07012 0)
(-0.0632653 -0.0681797 0)
(-0.0687639 -0.0658729 0)
(-0.0739555 -0.0622899 0)
(-0.0782924 -0.0559133 0)
(-0.0809735 -0.0445106 0)
(-0.00111449 -0.0505092 0)
(-0.0034452 -0.0623579 0)
(-0.00604324 -0.069123 0)
(-0.00832343 -0.0739567 0)
(-0.0104465 -0.0774805 0)
(-0.0125073 -0.0799408 0)
(-0.0146093 -0.0814839 0)
(-0.0168352 -0.0822202 0)
(-0.0192451 -0.0822446 0)
(-0.0218811 -0.0816431 0)
(-0.0247729 -0.0804952 0)
(-0.027941 -0.0788765 0)
(-0.0314015 -0.0768651 0)
(-0.0351699 -0.0745503 0)
(-0.039265 -0.0720417 0)
(-0.0437092 -0.069471 0)
(-0.0485252 -0.0669777 0)
(-0.0537224 -0.0646647 0)
(-0.0592679 -0.0625098 0)
(-0.06504 -0.0602256 0)
(-0.0707565 -0.0570865 0)
(-0.0758981 -0.0517806 0)
(-0.079635 -0.0422497 0)
(-0.00183194 -0.0482646 0)
(-0.00378389 -0.0597757 0)
(-0.00612416 -0.0668213 0)
(-0.00796922 -0.0719224 0)
(-0.00962823 -0.0755786 0)
(-0.0112526 -0.078041 0)
(-0.0129591 -0.0794866 0)
(-0.0148256 -0.080055 0)
(-0.0169011 -0.0798638 0)
(-0.019216 -0.0790147 0)
(-0.0217895 -0.077597 0)
(-0.0246353 -0.0756918 0)
(-0.0277658 -0.0733782 0)
(-0.0311959 -0.0707428 0)
(-0.0349466 -0.0678897 0)
(-0.0390474 -0.0649453 0)
(-0.0435351 -0.0620503 0)
(-0.0484446 -0.0593273 0)
(-0.0537866 -0.0568115 0)
(-0.0595045 -0.0543331 0)
(-0.0653985 -0.0513581 0)
(-0.0710324 -0.0468257 0)
(-0.0756259 -0.0389375 0)
(-0.00307127 -0.0454405 0)
(-0.00452068 -0.0574091 0)
(-0.00649153 -0.0649687 0)
(-0.00776736 -0.0704038 0)
(-0.00884832 -0.0741764 0)
(-0.00995867 -0.0765927 0)
(-0.0112216 -0.0778914 0)
(-0.0126973 -0.0782555 0)
(-0.0144125 -0.0778287 0)
(-0.0163772 -0.0767267 0)
(-0.0185948 -0.0750454 0)
(-0.0210683 -0.0728671 0)
(-0.0238034 -0.0702685 0)
(-0.0268117 -0.0673307 0)
(-0.0301134 -0.064149 0)
(-0.0337395 -0.0608395 0)
(-0.0377324 -0.0575359 0)