/*--------------------------------*- C++ -*----------------------------------*\
  =========                 |
  \\      /  F ield         | OpenFOAM: The Open Source CFD Toolbox
   \\    /   O peration     | Website:  https://openfoam.org
    \\  /    A nd           | Version:  9
     \\/     M anipulation  |
\*---------------------------------------------------------------------------*/
FoamFile
{
    format      ascii;
    class       volScalarField;
    location    "400";
    object      epsilon;
}
// * * * * * * * * * * * * * * * * * * * * * * * * * * * * * * * * * * * * * //

dimensions      [0 2 -3 0 0 0 0];

internalField   nonuniform List<scalar> 
4000
(
3.51602e-07
3.38304e-07
3.30514e-07
3.27993e-07
3.28896e-07
3.32634e-07
3.36097e-07
3.40809e-07
3.44072e-07
3.44756e-07
3.44071e-07
3.42526e-07
3.37078e-07
3.30787e-07
3.28712e-07
3.33196e-07
3.44538e-07
3.62378e-07
3.82003e-07
3.9055e-07
3.95841e-07
3.86768e-07
3.82458e-07
3.88624e-07
3.92324e-07
3.89155e-07
3.92959e-07
4.14497e-07
4.43473e-07
4.6911e-07
4.88241e-07
4.92857e-07
4.71975e-07
4.32818e-07
3.91215e-07
3.74425e-07
3.75475e-07
3.91428e-07
4.12691e-07
4.14916e-07
4.56911e-07
4.36945e-07
4.12593e-07
3.86009e-07
3.59044e-07
3.67078e-07
4.03664e-07
4.56165e-07
5.13421e-07
5.59501e-07
5.96631e-07
6.13001e-07
5.8532e-07
5.09924e-07
4.13738e-07
3.61133e-07
3.64551e-07
3.97028e-07
4.3148e-07
4.45454e-07
5.54643e-07
5.43365e-07
5.24575e-07
4.98921e-07
4.71052e-07
4.60071e-07
5.05493e-07
6.07108e-07
7.07118e-07
7.65473e-07
8.15564e-07
8.4309e-07
8.04731e-07
6.82731e-07
5.13353e-07
3.84354e-07
3.95589e-07
4.35058e-07
4.67199e-07
4.8051e-07
1.04065e-06
9.87193e-07
9.20637e-07
8.60483e-07
8.42113e-07
8.96938e-07
1.01651e-06
1.16538e-06
1.26074e-06
1.2775e-06
1.31192e-06
1.33366e-06
1.27035e-06
1.09406e-06
8.39342e-07
6.0047e-07
4.705e-07
4.95943e-07
5.32576e-07
5.8069e-07
1.30735e-06
1.39409e-06
1.46919e-06
1.55871e-06
1.6968e-06
1.89987e-06
2.12894e-06
2.29152e-06
2.29367e-06
2.19068e-06
2.18117e-06
2.16516e-06
2.05709e-06
1.83619e-06
1.52454e-06
1.17675e-06
8.84311e-07
7.24646e-07
7.5862e-07
8.44005e-07
1.51789e-06
1.7511e-06
2.02776e-06
2.36236e-06
2.74533e-06
3.14038e-06
3.47319e-06
3.64375e-06
3.57358e-06
3.37509e-06
3.33513e-06
3.25957e-06
3.07583e-06
2.78467e-06
2.41344e-06
1.99855e-06
1.59714e-06
1.2902e-06
1.12269e-06
1.00129e-06
1.7328e-06
2.1672e-06
2.70096e-06
3.29054e-06
3.90828e-06
4.49243e-06
4.96527e-06
5.21088e-06
5.14276e-06
4.86804e-06
4.77679e-06
4.6197e-06
4.31878e-06
3.88786e-06
3.37707e-06
2.83568e-06
2.30566e-06
1.8354e-06
1.45546e-06
1.14749e-06
2.00304e-06
2.6742e-06
3.48618e-06
4.36217e-06
5.27533e-06
6.15111e-06
6.8564e-06
7.24069e-06
7.24443e-06
6.93746e-06
6.73636e-06
6.43512e-06
5.94871e-06
5.30746e-06
4.56537e-06
3.7885e-06
3.04382e-06
2.37507e-06
1.79151e-06
1.2953e-06
2.3528e-06
3.34097e-06
4.44788e-06
5.54459e-06
6.60325e-06
7.57086e-06
8.38158e-06
8.96429e-06
9.25011e-06
9.15768e-06
8.74543e-06
8.15739e-06
7.41532e-06
6.56817e-06
5.66292e-06
4.74192e-06
3.84427e-06
2.99826e-06
2.2033e-06
1.4829e-06
3.38304e-07
3.71063e-07
3.89259e-07
4.08452e-07
4.35442e-07
4.81433e-07
5.38641e-07
5.89712e-07
6.33636e-07
6.69601e-07
6.98002e-07
7.0099e-07
6.59077e-07
5.87141e-07
5.2132e-07
4.80692e-07
4.62885e-07
4.59625e-07
4.52625e-07
4.09807e-07
3.86768e-07
4.18583e-07
4.41865e-07
4.37385e-07
4.19233e-07
4.14167e-07
4.31279e-07
4.58288e-07
4.89466e-07
5.20811e-07
5.47373e-07
5.57157e-07
5.35021e-07
4.88246e-07
4.37598e-07
4.13389e-07
4.19217e-07
4.45203e-07
4.62522e-07
4.46255e-07
4.36945e-07
4.18146e-07
4.56225e-07
4.92935e-07
5.06887e-07
4.95833e-07
4.81982e-07
4.92135e-07
5.13638e-07
5.40097e-07
5.66876e-07
5.84307e-07
5.72335e-07
5.25524e-07
4.58274e-07
4.06043e-07
3.98349e-07
4.14379e-07
4.22308e-07
4.70414e-07
5.43365e-07
5.88769e-07
5.70636e-07
5.63977e-07
5.67972e-07
5.77516e-07
5.85624e-07
5.9651e-07
6.21075e-07
6.4718e-07
6.77918e-07
7.01697e-07
6.85942e-07
6.14429e-07
5.11361e-07
4.33585e-07
4.20646e-07
4.33464e-07
4.58545e-07
5.06479e-07
9.87194e-07
1.22647e-06
1.07599e-06
8.99033e-07
7.83668e-07
7.34292e-07
7.50348e-07
8.19075e-07
8.91049e-07
9.28133e-07
9.58078e-07
9.81059e-07
9.54263e-07
8.49064e-07
6.85422e-07
5.36111e-07
4.96838e-07
5.35636e-07
6.26815e-07
6.29614e-07
1.39409e-06
1.4463e-06
1.49507e-06
1.50051e-06
1.49049e-06
1.51636e-06
1.57201e-06
1.607e-06
1.57581e-06
1.50371e-06
1.48192e-06
1.48148e-06
1.4486e-06
1.34833e-06
1.17581e-06
9.62621e-07
7.89703e-07
7.76776e-07
9.33682e-07
8.87915e-07
1.7511e-06
1.6315e-06
1.80423e-06
2.07945e-06
2.38965e-06
2.64153e-06
2.78065e-06
2.76784e-06
2.59784e-06
2.38576e-06
2.31387e-06
2.2945e-06
2.24998e-06
2.13737e-06
1.95543e-06
1.71165e-06
1.44035e-06
1.22378e-06
1.09769e-06
1.05367e-06
2.1672e-06
2.10192e-06
2.4917e-06
3.01175e-06
3.59501e-06
4.10798e-06
4.4191e-06
4.42912e-06
4.1679e-06
3.83806e-06
3.76436e-06
3.75242e-06
3.64488e-06
3.39064e-06
3.01384e-06
2.55781e-06
2.07318e-06
1.6023e-06
1.27018e-06
1.22828e-06
2.6742e-06
3.10694e-06
3.96523e-06
4.93276e-06
5.97029e-06
6.95689e-06
7.66397e-06
7.85917e-06
7.5815e-06
7.10882e-06
6.98146e-06
6.89984e-06
6.55967e-06
5.93666e-06
5.09012e-06
4.133e-06
3.21486e-06
2.41764e-06
1.79533e-06
1.47744e-06
3.34097e-06
4.71189e-06
6.28687e-06
7.90735e-06
9.53106e-06
1.10725e-05
1.2409e-05
1.34152e-05
1.3988e-05
1.39932e-05
1.32223e-05
1.21914e-05
1.09321e-05
9.52598e-06
8.05469e-06
6.59031e-06
5.20549e-06
3.94957e-06
2.82186e-06
1.85439e-06
3.30514e-07
3.89259e-07
4.19092e-07
4.45003e-07
4.76894e-07
5.31693e-07
6.28677e-07
7.30426e-07
8.21952e-07
8.9859e-07
9.55748e-07
9.55898e-07
8.78296e-07
7.44124e-07
6.37017e-07
5.7234e-07
5.42567e-07
5.27263e-07
4.96155e-07
4.07559e-07
3.82458e-07
4.41865e-07
4.80055e-07
4.85996e-07
4.77364e-07
4.7993e-07
5.06036e-07
5.42201e-07
5.82851e-07
6.24636e-07
6.60517e-07
6.73113e-07
6.47273e-07
5.95146e-07
5.43272e-07
5.18688e-07
5.21903e-07
5.34277e-07
5.24094e-07
4.57007e-07
4.12593e-07
4.56225e-07
5.24964e-07
5.75394e-07
5.85696e-07
5.73526e-07
5.61163e-07
5.67755e-07
5.87913e-07
6.19716e-07
6.53473e-07
6.7327e-07
6.57627e-07
6.09159e-07
5.4292e-07
4.95817e-07
4.88504e-07
4.92619e-07
4.74936e-07
4.68874e-07
5.24575e-07
5.70636e-07
6.01954e-07
6.3582e-07
6.62999e-07
6.79971e-07
6.79638e-07
6.51232e-07
6.49262e-07
6.76072e-07
7.16044e-07
7.42461e-07
7.18545e-07
6.47196e-07
5.63392e-07
5.05561e-07
4.89873e-07
4.90518e-07
4.95022e-07
5.20523e-07
9.20637e-07
1.07599e-06
9.5695e-07
8.39793e-07
7.61056e-07
7.16062e-07
7.06013e-07
7.29487e-07
7.82339e-07
8.38523e-07
8.98094e-07
9.34106e-07
8.86455e-07
7.68662e-07
6.3486e-07
5.51694e-07
5.3531e-07
5.75221e-07
6.67582e-07
6.90319e-07
1.46919e-06
1.49507e-06
1.37747e-06
1.22573e-06
1.11685e-06
1.06528e-06
1.05794e-06
1.07551e-06
1.09783e-06
1.15398e-06
1.23645e-06
1.28175e-06
1.203e-06
1.04634e-06
8.7988e-07
7.53329e-07
6.98021e-07
7.62757e-07
9.68048e-07
9.62058e-07
2.02776e-06
1.80423e-06
1.72663e-06
1.71899e-06
1.70709e-06
1.73095e-06
1.78208e-06
1.81526e-06
1.80795e-06
1.80976e-06
1.89013e-06
1.9507e-06
1.86332e-06
1.66795e-06
1.43759e-06
1.20936e-06
1.07448e-06
1.06551e-06
1.16488e-06
1.18047e-06
2.70096e-06
2.4917e-06
2.66031e-06
2.95456e-06
3.28303e-06
3.57969e-06
3.77272e-06
3.77156e-06
3.55695e-06
3.34965e-06
3.40955e-06
3.58028e-06
3.58806e-06
3.33476e-06
2.88999e-06
2.37051e-06
1.89093e-06
1.57984e-06
1.41481e-06
1.44733e-06
3.48618e-06
3.96523e-06
5.12076e-06
6.55942e-06
8.09361e-06
9.57607e-06
1.05145e-05
1.04812e-05
9.84263e-06
9.18625e-06
8.88969e-06
9.03479e-06
8.88031e-06
8.19805e-06
7.02624e-06
5.55171e-06
4.13603e-06
2.98447e-06
2.18941e-06
1.84812e-06
4.44788e-06
6.28687e-06
8.34189e-06
1.04804e-05
1.26599e-05
1.47799e-05
1.66585e-05
1.81259e-05
1.90683e-05
1.92658e-05
1.80606e-05
1.65165e-05
1.46882e-05
1.26861e-05
1.0626e-05
8.60104e-06
6.72324e-06
5.06558e-06
3.61467e-06
2.38072e-06
3.27993e-07
4.08452e-07
4.45003e-07
4.74836e-07
5.09308e-07
5.63678e-07
6.75207e-07
8.28832e-07
9.79197e-07
1.10492e-06
1.18428e-06
1.16426e-06
1.03232e-06
8.34244e-07
7.09016e-07
6.45901e-07
6.18627e-07
5.93332e-07
5.34858e-07
4.00169e-07
3.88624e-07
4.37385e-07
4.85996e-07
5.07937e-07
5.18897e-07
5.39516e-07
5.80834e-07
6.34771e-07
6.94905e-07
7.5235e-07
7.94668e-07
8.01999e-07
7.6559e-07
7.04143e-07
6.48498e-07
6.22155e-07
6.1924e-07
6.12665e-07
5.71704e-07
4.74783e-07
3.86009e-07
4.92935e-07
5.75394e-07
6.17615e-07
6.23001e-07
6.19468e-07
6.27483e-07
6.55827e-07
7.00891e-07
7.55389e-07
7.9747e-07
8.04919e-07
7.67953e-07
7.02699e-07
6.2769e-07
5.82128e-07
5.75934e-07
5.73201e-07
5.36938e-07
4.63077e-07
4.98921e-07
5.63977e-07
6.3582e-07
6.91228e-07
7.21579e-07
7.32322e-07
7.28377e-07
7.13372e-07
7.41594e-07
8.06083e-07
8.64809e-07
8.72336e-07
8.10038e-07
7.13207e-07
6.23339e-07
5.70668e-07
5.59712e-07
5.53146e-07
5.36156e-07
5.31453e-07
8.60483e-07
8.99034e-07
8.39793e-07
7.8873e-07
7.54817e-07
7.34336e-07
7.36566e-07
7.67256e-07
8.34299e-07
9.40597e-07
1.04444e-06
1.06366e-06
9.52223e-07
7.89361e-07
6.54793e-07
5.86412e-07
5.76345e-07
6.12521e-07
6.96905e-07
7.54589e-07
1.55871e-06
1.50051e-06
1.22573e-06
1.04038e-06
9.3276e-07
8.79368e-07
8.70372e-07
9.09543e-07
1.00197e-06
1.18615e-06
1.37635e-06
1.4239e-06
1.23687e-06
9.75102e-07
7.8365e-07
6.84247e-07
6.70767e-07
7.6226e-07
9.86053e-07
1.05618e-06
2.36236e-06
2.07945e-06
1.71899e-06
1.44485e-06
1.35347e-06
1.36947e-06
1.4498e-06
1.56877e-06
1.72598e-06
1.90417e-06
2.08848e-06
2.16268e-06
1.91985e-06
1.52857e-06
1.21249e-06
1.00068e-06
9.21475e-07
1.00108e-06
1.28299e-06
1.35707e-06
3.29054e-06
3.01175e-06
2.95456e-06
2.91177e-06
3.05344e-06
3.52493e-06
4.00338e-06
4.26522e-06
4.2833e-06
4.23594e-06
4.26779e-06
4.2438e-06
4.16072e-06
3.72243e-06
2.95623e-06
2.22227e-06
1.72612e-06
1.62585e-06
1.68165e-06
1.74252e-06
4.36217e-06
4.93276e-06
6.55942e-06
8.69297e-06
1.07246e-05
1.26854e-05
1.37947e-05
1.36035e-05
1.27128e-05
1.18424e-05
1.1538e-05
1.1819e-05
1.18734e-05
1.12329e-05
9.75922e-06
7.57237e-06
5.50979e-06
3.82493e-06
2.71518e-06
2.28757e-06
5.54459e-06
7.90735e-06
1.04804e-05
1.31655e-05
1.59352e-05
1.8713e-05
2.12397e-05
2.33179e-05
2.47862e-05
2.53394e-05
2.35724e-05
2.13152e-05
1.87467e-05
1.60342e-05
1.3326e-05
1.06985e-05
8.30312e-06
6.23773e-06
4.45514e-06
2.93194e-06
3.28896e-07
4.35442e-07
4.76894e-07
5.09308e-07
5.51294e-07
6.13752e-07
7.37319e-07
9.46566e-07
1.16809e-06
1.34298e-06
1.42002e-06
1.35196e-06
1.14324e-06
8.96233e-07
7.84463e-07
7.41663e-07
7.14498e-07
6.69828e-07
5.76876e-07
3.93141e-07
3.92324e-07
4.19233e-07
4.77364e-07
5.18897e-07
5.58715e-07
6.11957e-07
6.86099e-07
7.77828e-07
8.72041e-07
9.43068e-07
9.71881e-07
9.52954e-07
8.9389e-07
8.18915e-07
7.60373e-07
7.28765e-07
7.05867e-07
6.65347e-07
5.86709e-07
4.88845e-07
3.59044e-07
5.06887e-07
5.85696e-07
6.23001e-07
6.413e-07
6.6716e-07
7.2002e-07
8.07883e-07
9.18032e-07
1.01103e-06
1.03234e-06
9.795e-07
8.91579e-07
7.96791e-07
7.11173e-07
6.64604e-07
6.57502e-07
6.53703e-07
6.0526e-07
4.57304e-07
4.71052e-07
5.67972e-07
6.62999e-07
7.21579e-07
7.47685e-07
7.58919e-07
7.77556e-07
8.41135e-07
9.79243e-07
1.13407e-06
1.17523e-06
1.07756e-06
9.28946e-07
7.87824e-07
6.80505e-07
6.29407e-07
6.24798e-07
6.15267e-07
5.77561e-07
5.38102e-07
8.42113e-07
7.83668e-07
7.61056e-07
7.54817e-07
7.54014e-07
7.58915e-07
7.95397e-07
8.89649e-07
1.0815e-06
1.33872e-06
1.452e-06
1.31399e-06
1.07306e-06
8.46897e-07
6.94512e-07
6.25926e-07
6.17112e-07
6.45583e-07
7.17432e-07
8.11785e-07
1.6968e-06
1.49049e-06
1.11685e-06
9.3276e-07
8.47766e-07
8.20614e-07
8.5107e-07
9.76171e-07
1.24897e-06
1.6711e-06
1.91959e-06
1.75491e-06
1.38309e-06
1.01489e-06
7.82721e-07
6.81054e-07
6.76803e-07
7.72994e-07
1.00459e-06
1.1564e-06
2.74533e-06
2.38965e-06
1.70709e-06
1.35347e-06
1.26418e-06
1.32808e-06
1.49825e-06
1.76558e-06
2.1641e-06
2.63738e-06
2.8766e-06
2.65064e-06
2.16806e-06
1.6233e-06
1.21655e-06
9.67709e-07
8.92675e-07
1.01289e-06
1.41179e-06
1.55243e-06
3.90828e-06
3.59501e-06
3.28303e-06
3.05344e-06
3.51351e-06
4.28078e-06
4.99052e-06
5.38486e-06
5.50862e-06
5.59427e-06
5.58831e-06
5.31221e-06
4.98617e-06
4.38259e-06
3.42349e-06
2.45815e-06
1.82543e-06
1.69882e-06
1.97947e-06
2.05646e-06
5.27533e-06
5.97029e-06
8.09361e-06
1.07246e-05
1.34793e-05
1.60327e-05
1.70664e-05
1.65526e-05
1.54565e-05
1.44918e-05
1.38889e-05
1.40016e-05
1.4426e-05
1.40142e-05
1.21844e-05
9.25358e-06
6.43514e-06
4.61177e-06
3.23286e-06
2.73356e-06
6.60325e-06
9.53106e-06
1.26599e-05
1.59352e-05
1.94417e-05
2.29432e-05
2.62246e-05
2.91455e-05
3.15234e-05
3.28082e-05
3.01975e-05
2.67767e-05
2.32103e-05
1.96402e-05
1.61468e-05
1.28388e-05
9.86759e-06
7.39441e-06
5.27922e-06
3.46043e-06
3.32634e-07
4.81433e-07
5.31693e-07
5.63678e-07
6.13752e-07
6.94647e-07
8.59573e-07
1.13239e-06
1.41207e-06
1.60404e-06
1.64547e-06
1.52243e-06
1.24813e-06
1.01472e-06
9.27885e-07
8.89426e-07
8.41983e-07
7.63825e-07
6.26771e-07
3.88113e-07
3.89155e-07
4.14167e-07
4.7993e-07
5.39516e-07
6.11957e-07
7.1519e-07
8.55562e-07
1.02922e-06
1.17937e-06
1.24381e-06
1.21683e-06
1.14303e-06
1.04884e-06
9.54542e-07
8.86938e-07
8.26606e-07
7.58949e-07
6.73776e-07
5.61851e-07
4.78378e-07
3.67078e-07
4.95833e-07
5.73526e-07
6.19468e-07
6.6716e-07
7.50288e-07
8.98287e-07
1.12608e-06
1.38585e-06
1.53107e-06
1.43737e-06
1.22885e-06
1.04271e-06
8.99565e-07
7.96693e-07
7.42398e-07
7.27662e-07
7.14676e-07
6.56172e-07
4.45918e-07
4.60071e-07
5.77516e-07
6.79971e-07
7.32322e-07
7.58919e-07
7.99664e-07
9.19526e-07
1.19888e-06
1.63612e-06
1.98116e-06
1.8202e-06
1.40972e-06
1.0845e-06
8.72114e-07
7.38193e-07
6.8251e-07
6.80385e-07
6.68429e-07
6.10694e-07
5.36623e-07
8.96938e-07
7.34292e-07
7.16062e-07
7.34336e-07
7.58915e-07
8.06773e-07
9.41465e-07
1.28224e-06
1.92672e-06
2.58451e-06
2.41211e-06
1.74211e-06
1.23767e-06
9.21646e-07
7.40802e-07
6.65736e-07
6.53504e-07
6.70924e-07
7.28004e-07
8.56104e-07
1.89987e-06
1.51636e-06
1.06528e-06
8.79368e-07
8.20614e-07
8.45137e-07
9.97352e-07
1.42194e-06
2.30519e-06
3.34804e-06
3.27524e-06
2.29468e-06
1.5739e-06
1.09919e-06
8.25441e-07
7.07941e-07
6.97384e-07
7.87322e-07
1.02103e-06
1.24848e-06
3.14038e-06
2.64153e-06
1.73095e-06
1.36947e-06
1.32808e-06
1.49528e-06
1.85519e-06
2.49405e-06
3.6018e-06
4.87892e-06
4.6935e-06
3.34941e-06
2.43845e-06
1.79418e-06
1.32266e-06
1.0252e-06
9.27369e-07
1.05335e-06
1.51649e-06
1.73414e-06
4.49243e-06
4.10798e-06
3.57969e-06
3.52493e-06
4.28078e-06
5.30223e-06
6.18736e-06
6.76287e-06
7.43413e-06
8.19016e-06
7.5575e-06
6.3032e-06
5.68976e-06
4.99667e-06
3.93936e-06
2.82757e-06
2.04541e-06
1.80492e-06
2.22246e-06
2.33864e-06
6.15111e-06
6.95689e-06
9.57607e-06
1.26854e-05
1.60327e-05
1.84476e-05
1.90138e-05
1.83161e-05
1.76764e-05
1.73061e-05
1.61577e-05
1.5494e-05
1.59096e-05
1.58184e-05
1.40309e-05
1.07908e-05
7.3863e-06
5.25947e-06
3.66204e-06
3.13396e-06
7.57086e-06
1.10725e-05
1.47799e-05
1.8713e-05
2.29432e-05
2.72459e-05
3.15354e-05
3.57775e-05
3.9754e-05
4.24245e-05
3.86119e-05
3.32188e-05
2.80791e-05
2.33443e-05
1.89505e-05
1.49294e-05
1.13801e-05
8.46649e-06
6.02511e-06
3.92654e-06
3.36097e-07
5.38641e-07
6.28677e-07
6.75207e-07
7.37319e-07
8.59573e-07
1.07047e-06
1.39164e-06
1.6398e-06
1.78993e-06
1.81065e-06
1.69369e-06
1.48852e-06
1.31056e-06
1.20085e-06
1.09312e-06
9.7851e-07
8.4377e-07
6.57868e-07
3.82139e-07
3.92959e-07
4.31279e-07
5.06036e-07
5.80834e-07
6.86099e-07
8.55562e-07
1.11508e-06
1.4195e-06
1.65774e-06
1.70405e-06
1.58173e-06
1.42223e-06
1.27681e-06
1.13369e-06
1.00674e-06
8.82991e-07
7.67097e-07
6.55312e-07
5.33644e-07
4.60096e-07
4.03664e-07
4.81982e-07
5.61163e-07
6.27483e-07
7.2002e-07
8.98287e-07
1.23296e-06
1.74799e-06
2.34056e-06
2.64968e-06
2.27586e-06
1.6929e-06
1.29541e-06
1.04992e-06
8.97962e-07
8.17905e-07
7.77512e-07
7.37314e-07
6.57971e-07
4.7002e-07
5.05493e-07
5.85624e-07
6.79638e-07
7.28377e-07
7.77556e-07
9.19526e-07
1.30853e-06
2.13279e-06
3.37631e-06
4.23777e-06
3.4392e-06
2.16729e-06
1.38901e-06
1.00669e-06
8.16091e-07
7.39716e-07
7.31805e-07
7.18836e-07
6.46158e-07
5.43346e-07
1.01651e-06
7.50348e-07
7.06013e-07
7.36566e-07
7.95397e-07
9.41465e-07
1.3868e-06
2.54919e-06
4.64847e-06
6.48919e-06
5.06293e-06
2.84542e-06
1.59074e-06
1.04877e-06
8.05575e-07
7.10157e-07
6.86311e-07
6.88833e-07
7.29504e-07
8.84681e-07
2.12894e-06
1.57201e-06
1.05794e-06
8.70372e-07
8.5107e-07
9.97352e-07
1.5249e-06
3.03256e-06
6.13481e-06
9.09201e-06
7.1862e-06
3.7165e-06
1.96186e-06
1.23418e-06
8.97888e-07
7.53038e-07
7.25588e-07
8.0212e-07
1.03323e-06
1.31953e-06
3.47319e-06
2.78065e-06
1.78208e-06
1.4498e-06
1.49825e-06
1.85519e-06
2.67658e-06
4.53696e-06
8.13828e-06
1.15588e-05
9.25535e-06
5.06333e-06
2.89846e-06
1.99334e-06
1.46293e-06
1.12268e-06
9.91368e-07
1.09949e-06
1.57647e-06
1.87024e-06
4.96527e-06
4.4191e-06
3.77272e-06
4.00338e-06
4.99052e-06
6.18736e-06
7.34328e-06
8.91526e-06
1.22536e-05
1.50553e-05
1.23738e-05
7.92516e-06
6.1131e-06
5.29842e-06
4.26872e-06
3.12863e-06
2.26322e-06
1.926e-06
2.35787e-06
2.54175e-06
6.8564e-06
7.66397e-06
1.05145e-05
1.37947e-05
1.70664e-05
1.90138e-05
1.9433e-05
1.96393e-05
2.11198e-05
2.25719e-05
2.01871e-05
1.69601e-05
1.63723e-05
1.63366e-05
1.4798e-05
1.15587e-05
7.94945e-06
5.54321e-06
3.91549e-06
3.43038e-06
8.38157e-06
1.2409e-05
1.66585e-05
2.12397e-05
2.62246e-05
3.15354e-05
3.72993e-05
4.36871e-05
5.04497e-05
5.55496e-05
5.00851e-05
4.12382e-05
3.35583e-05
2.71452e-05
2.16157e-05
1.67956e-05
1.26832e-05
9.35501e-06
6.62808e-06
4.29512e-06
3.40809e-07
5.89712e-07
7.30426e-07
8.28832e-07
9.46566e-07
1.13239e-06
1.39164e-06
1.64154e-06
1.78668e-06
1.82812e-06
1.94718e-06
1.97806e-06
1.90826e-06
1.7302e-06
1.49094e-06
1.268e-06
1.07832e-06
8.95744e-07
6.76285e-07
3.78266e-07
4.14497e-07
4.58288e-07
5.42201e-07
6.34771e-07
7.77828e-07
1.02922e-06
1.4195e-06
1.8763e-06
2.34523e-06
2.81066e-06
2.47192e-06
1.95226e-06
1.63604e-06
1.35303e-06
1.10733e-06
9.09469e-07
7.62049e-07
6.41839e-07
5.20337e-07
4.56311e-07
4.56165e-07
4.92135e-07
5.67755e-07
6.55827e-07
8.07883e-07
1.12608e-06
1.74799e-06
2.76861e-06
4.28865e-06
6.36108e-06
5.15367e-06
2.9159e-06
1.83584e-06
1.29939e-06
1.0211e-06
8.6928e-07
7.76147e-07
6.99474e-07
6.01076e-07
4.82364e-07
6.07108e-07
5.9651e-07
6.51232e-07
7.13372e-07
8.41135e-07
1.19888e-06
2.13279e-06
4.15881e-06
7.76946e-06
1.18778e-05
9.33508e-06
4.57851e-06
2.21979e-06
1.29669e-06
9.47394e-07
8.17833e-07
7.84221e-07
7.58192e-07
6.68795e-07
5.48769e-07
1.16538e-06
8.19075e-07
7.29487e-07
7.67256e-07
8.89649e-07
1.28224e-06
2.54919e-06
5.94279e-06
1.22554e-05
1.8801e-05
1.45961e-05
6.81249e-06
2.71708e-06
1.36436e-06
9.31463e-07
7.81714e-07
7.32634e-07
7.12451e-07
7.30595e-07
8.96574e-07
2.29152e-06
1.607e-06
1.07551e-06
9.09543e-07
9.76171e-07
1.42194e-06
3.03256e-06
7.7327e-06
1.68109e-05
2.54487e-05
1.9586e-05
8.87473e-06
3.27158e-06
1.55641e-06
1.02497e-06
8.24085e-07
7.65516e-07
8.20715e-07
1.04322e-06
1.35963e-06
3.64375e-06
2.76784e-06
1.81526e-06
1.56877e-06
1.76558e-06
2.49405e-06
4.53696e-06
1.00965e-05
2.08768e-05
3.03087e-05
2.35913e-05
1.0684e-05
4.23356e-06
2.32494e-06
1.6229e-06
1.23531e-06
1.06621e-06
1.13929e-06
1.58355e-06
1.93399e-06
5.21088e-06
4.42912e-06
3.77156e-06
4.26522e-06
5.38486e-06
6.76287e-06
8.91526e-06
1.43455e-05
2.37951e-05
3.10942e-05
2.50969e-05
1.28926e-05
6.83404e-06
5.28681e-06
4.29798e-06
3.24205e-06
2.38264e-06
1.98224e-06
2.35964e-06
2.62405e-06
7.24069e-06
7.85917e-06
1.04812e-05
1.36035e-05
1.65526e-05
1.83161e-05
1.96393e-05
2.27377e-05
2.88833e-05
3.37264e-05
2.94157e-05
2.03931e-05
1.65982e-05
1.57308e-05
1.42866e-05
1.13026e-05
7.84953e-06
5.38337e-06
3.91023e-06
3.55652e-06
8.96429e-06
1.34152e-05
1.81259e-05
2.33179e-05
2.91455e-05
3.57775e-05
4.36871e-05
5.34462e-05
6.47289e-05
7.34078e-05
6.63804e-05
5.16615e-05
3.98474e-05
3.09979e-05
2.40141e-05
1.82957e-05
1.36289e-05
9.94937e-06
7.0078e-06
4.51718e-06
3.44072e-07
6.33636e-07
8.21952e-07
9.79197e-07
1.16809e-06
1.41207e-06
1.6398e-06
1.78668e-06
1.76447e-06
2.07094e-06
2.34933e-06
2.28146e-06
2.38179e-06
2.13196e-06
1.7418e-06
1.4088e-06
1.15363e-06
9.32172e-07
6.87905e-07
3.73729e-07
4.43473e-07
4.89466e-07
5.82851e-07
6.94905e-07
8.72041e-07
1.17937e-06
1.65774e-06
2.34523e-06
3.892e-06
8.25163e-06
7.0987e-06
3.36753e-06
2.19263e-06
1.58908e-06
1.18266e-06
9.28219e-07
7.64029e-07
6.38543e-07
5.18333e-07
4.60053e-07
5.13421e-07
5.13638e-07
5.87913e-07
7.00891e-07
9.18032e-07
1.38585e-06
2.34056e-06
4.28865e-06
9.39339e-06
2.19371e-05
1.79128e-05
7.0613e-06
3.02403e-06
1.6845e-06
1.15112e-06
9.01936e-07
7.63273e-07
6.62961e-07
5.62128e-07
4.98678e-07
7.07118e-07
6.21075e-07
6.49262e-07
7.41594e-07
9.79243e-07
1.63612e-06
3.37631e-06
7.76946e-06
1.76316e-05
3.79745e-05
2.99489e-05
1.26396e-05
4.42408e-06
1.88243e-06
1.14712e-06
9.03484e-07
8.07837e-07
7.46482e-07
6.59939e-07
5.79772e-07
1.26074e-06
8.91048e-07
7.82339e-07
8.34299e-07
1.0815e-06
1.92672e-06
4.64847e-06
1.22554e-05
2.78771e-05
5.2572e-05
4.05385e-05
1.90576e-05
6.00029e-06
2.10979e-06
1.17108e-06
9.02489e-07
8.05676e-07
7.53236e-07
7.46331e-07
9.01418e-07
2.29367e-06
1.57581e-06
1.09783e-06
1.00197e-06
1.24897e-06
2.30519e-06
6.13481e-06
1.68109e-05
3.81849e-05
6.09576e-05
4.77842e-05
2.40121e-05
7.12907e-06
2.35743e-06
1.26887e-06
9.46224e-07
8.33418e-07
8.51927e-07
1.04781e-06
1.36387e-06
3.57358e-06
2.59784e-06
1.80795e-06
1.72598e-06
2.1641e-06
3.6018e-06
8.13828e-06
2.08768e-05
4.41276e-05
6.10705e-05
4.94456e-05
2.56821e-05
7.82535e-06
3.01801e-06
1.84089e-06
1.36715e-06
1.14911e-06
1.1704e-06
1.5437e-06
1.91407e-06
5.14276e-06
4.1679e-06
3.55695e-06
4.2833e-06
5.50862e-06
7.43413e-06
1.22536e-05
2.37951e-05
4.29248e-05
5.52996e-05
4.71097e-05
2.46048e-05
9.09388e-06
5.26773e-06
4.10392e-06
3.1699e-06
2.37836e-06
1.95329e-06
2.24188e-06
2.56385e-06
7.24443e-06
7.5815e-06
9.84263e-06
1.27128e-05
1.54565e-05
1.76764e-05
2.11198e-05
2.88833e-05
4.22327e-05
5.08429e-05
4.58319e-05
2.79034e-05
1.78956e-05
1.48337e-05
1.29792e-05
1.02793e-05
7.1959e-06
4.88749e-06
3.66295e-06
3.45995e-06
9.25011e-06
1.3988e-05
1.90683e-05
2.47862e-05
3.15234e-05
3.9754e-05
5.04497e-05
6.47289e-05
8.18732e-05
9.29862e-05
8.77006e-05
6.48428e-05
4.68575e-05
3.46622e-05
2.59125e-05
1.92465e-05
1.40778e-05
1.01542e-05
7.091e-06
4.52969e-06
3.44756e-07
6.69601e-07
8.9859e-07
1.10492e-06
1.34298e-06
1.60404e-06
1.78993e-06
1.82812e-06
2.07094e-06
2.23885e-06
2.86667e-06
3.0077e-06
2.76824e-06
2.38305e-06
1.90142e-06
1.5056e-06
1.20725e-06
9.57158e-07
6.94346e-07
3.68134e-07
4.6911e-07
5.20811e-07
6.24636e-07
7.5235e-07
9.43068e-07
1.24381e-06
1.70405e-06
2.81066e-06
8.25163e-06
9.63676e-06
9.70711e-06
7.953e-06
2.75118e-06
1.685e-06
1.20534e-06
9.40122e-07
7.72606e-07
6.44795e-07
5.25992e-07
4.71126e-07
5.59501e-07
5.40097e-07
6.19716e-07
7.55389e-07
1.01103e-06
1.53107e-06
2.64968e-06
6.36108e-06
2.19371e-05
1.65316e-05
1.67524e-05
1.95383e-05
5.01511e-06
2.01271e-06
1.22482e-06
9.23194e-07
7.59976e-07
6.44737e-07
5.47718e-07
5.33989e-07
7.65473e-07
6.4718e-07
6.76072e-07
8.06083e-07
1.13407e-06
1.98116e-06
4.23777e-06
1.18778e-05
3.79745e-05
2.25632e-05
2.47938e-05
3.12734e-05
8.02992e-06
2.54682e-06
1.34052e-06
9.85093e-07
8.25848e-07
7.2538e-07
6.47927e-07
6.3898e-07
1.2775e-06
9.28133e-07
8.38523e-07
9.40597e-07
1.33872e-06
2.58451e-06
6.48919e-06
1.8801e-05
5.2572e-05
2.71064e-05
3.38016e-05
4.03366e-05
1.06823e-05
3.05858e-06
1.4737e-06
1.0606e-06
8.98273e-07
8.10014e-07
7.83385e-07
9.11212e-07
2.19068e-06
1.50371e-06
1.15398e-06
1.18615e-06
1.6711e-06
3.34804e-06
9.09201e-06
2.54487e-05
6.09576e-05
3.08328e-05
4.25794e-05
4.49407e-05
1.2189e-05
3.43398e-06
1.6206e-06
1.13405e-06
9.42153e-07
8.99999e-07
1.04908e-06
1.3439e-06
3.37509e-06
2.38576e-06
1.80976e-06
1.90417e-06
2.63738e-06
4.87892e-06
1.15588e-05
3.03087e-05
6.10705e-05
3.36492e-05
4.88507e-05
4.36156e-05
1.2164e-05
3.89912e-06
2.12918e-06
1.54279e-06
1.25353e-06
1.19928e-06
1.47716e-06
1.84841e-06
4.86804e-06
3.83806e-06
3.34965e-06
4.23594e-06
5.59427e-06
8.19016e-06
1.50553e-05
3.10942e-05
5.52996e-05
3.63549e-05
5.19245e-05
3.80852e-05
1.17715e-05
5.41821e-06
3.92874e-06
3.05669e-06
2.31952e-06
1.87315e-06
2.0707e-06
2.43802e-06
6.93746e-06
7.10882e-06
9.18625e-06
1.18424e-05
1.44918e-05
1.73061e-05
2.25719e-05
3.37264e-05
5.08429e-05
4.2253e-05
5.4385e-05
3.59537e-05
1.97785e-05
1.42375e-05
1.16908e-05
9.13138e-06
6.39137e-06
4.32809e-06
3.32321e-06
3.25352e-06
9.15768e-06
1.39932e-05
1.92658e-05
2.53394e-05
3.28082e-05
4.24245e-05
5.55496e-05
7.34078e-05
9.29862e-05
9.03771e-05
0.000103447
7.71137e-05
5.29763e-05
3.73206e-05
2.68702e-05
1.94035e-05
1.38923e-05
9.8764e-06
6.827e-06
4.32788e-06
3.44071e-07
6.98002e-07
9.55748e-07
1.18428e-06
1.42002e-06
1.64547e-06
1.81065e-06
1.94718e-06
2.34933e-06
2.86667e-06
3.23578e-06
3.09111e-06
2.78584e-06
2.3516e-06
1.90799e-06
1.53009e-06
1.22633e-06
9.63542e-07
6.91012e-07
3.60222e-07
4.88241e-07
5.47373e-07
6.60517e-07
7.94668e-07
9.71881e-07
1.21683e-06
1.58173e-06
2.47192e-06
7.0987e-06
9.70711e-06
9.54851e-06
6.31905e-06
2.3579e-06
1.52754e-06
1.15636e-06
9.3301e-07
7.7745e-07
6.50618e-07
5.32727e-07
4.75547e-07
5.96631e-07
5.66876e-07
6.53473e-07
7.9747e-07
1.03234e-06
1.43737e-06
2.27586e-06
5.15367e-06
1.79128e-05
1.67524e-05
1.77485e-05
1.52101e-05
3.90301e-06
1.73551e-06
1.16665e-06
9.16907e-07
7.58507e-07
6.3854e-07
5.46147e-07
5.60366e-07
8.15564e-07
6.77918e-07
7.16044e-07
8.64809e-07
1.17523e-06
1.8202e-06
3.4392e-06
9.33508e-06
2.99489e-05
2.47938e-05
2.86329e-05
2.38756e-05
5.95592e-06
2.15237e-06
1.31465e-06
1.01214e-06
8.37724e-07
7.18909e-07
6.48308e-07
6.92773e-07
1.31192e-06
9.58078e-07
8.98094e-07
1.04444e-06
1.452e-06
2.41211e-06
5.06293e-06
1.45961e-05
4.05385e-05
3.38016e-05
4.06471e-05
3.05519e-05
7.8759e-06
2.63617e-06
1.54891e-06
1.1806e-06
9.81594e-07
8.61328e-07
8.21057e-07
9.33531e-07
2.18117e-06
1.48192e-06
1.23645e-06
1.37635e-06
1.91959e-06
3.27524e-06
7.1862e-06
1.9586e-05
4.77842e-05
4.25794e-05
5.08966e-05
3.37083e-05
8.97528e-06
3.08236e-06
1.81583e-06
1.34777e-06
1.08902e-06
9.72373e-07
1.05458e-06
1.32663e-06
3.33513e-06
2.31387e-06
1.89013e-06
2.08848e-06
2.8766e-06
4.6935e-06
9.25535e-06
2.35913e-05
4.94456e-05
4.88507e-05
5.61544e-05
3.24465e-05
9.08416e-06
3.61255e-06
2.30959e-06
1.7349e-06
1.37801e-06
1.22579e-06
1.41271e-06
1.80315e-06
4.77679e-06
3.76436e-06
3.40955e-06
4.26779e-06
5.58831e-06
7.5575e-06
1.23738e-05
2.50969e-05
4.71097e-05
5.19245e-05
5.65122e-05
2.86222e-05
9.28259e-06
5.0915e-06
3.92573e-06
3.07511e-06
2.32261e-06
1.81729e-06
1.95399e-06
2.37539e-06
6.73636e-06
6.98146e-06
8.88969e-06
1.1538e-05
1.38889e-05
1.61577e-05
2.01871e-05
2.94157e-05
4.58319e-05
5.4385e-05
5.41628e-05
3.01001e-05
1.74732e-05
1.34895e-05
1.12458e-05
8.71053e-06
6.09716e-06
4.14462e-06
3.21883e-06
3.18155e-06
8.74543e-06
1.32223e-05
1.80606e-05
2.35724e-05
3.01975e-05
3.86119e-05
5.00851e-05
6.63804e-05
8.77006e-05
0.000103447
9.69499e-05
6.76961e-05
4.6751e-05
3.3458e-05
2.44108e-05
1.78466e-05
1.29602e-05
9.35369e-06
6.56118e-06
4.23099e-06
3.42526e-07
7.0099e-07
9.55898e-07
1.16426e-06
1.35196e-06
1.52243e-06
1.69369e-06
1.97806e-06
2.28146e-06
3.0077e-06
3.09111e-06
2.82744e-06
2.51332e-06
2.1308e-06
1.7686e-06
1.44697e-06
1.17415e-06
9.26238e-07
6.64933e-07
3.48836e-07
4.92857e-07
5.57157e-07
6.73113e-07
8.01999e-07
9.52954e-07
1.14303e-06
1.42223e-06
1.95226e-06
3.36753e-06
7.953e-06
6.31905e-06
2.6375e-06
1.75139e-06
1.33624e-06
1.07642e-06
8.95896e-07
7.5787e-07
6.38325e-07
5.25903e-07
4.65893e-07
6.13001e-07
5.84307e-07
6.7327e-07
8.04919e-07
9.795e-07
1.22885e-06
1.6929e-06
2.9159e-06
7.0613e-06
1.95383e-05
1.52101e-05
5.04144e-06
2.13358e-06
1.35294e-06
1.04845e-06
8.67504e-07
7.30988e-07
6.19144e-07
5.35674e-07
5.59343e-07
8.4309e-07
7.01697e-07
7.42461e-07
8.72336e-07
1.07756e-06
1.40972e-06
2.16729e-06
4.57851e-06
1.26396e-05
3.12734e-05
2.38756e-05
8.13564e-06
2.80984e-06
1.54024e-06
1.15363e-06
9.5173e-07
8.04241e-07
6.94424e-07
6.38097e-07
7.07689e-07
1.33366e-06
9.81058e-07
9.34106e-07
1.06366e-06
1.31399e-06
1.74211e-06
2.84542e-06
6.81249e-06
1.90576e-05
4.03366e-05
3.05519e-05
1.08227e-05
3.53866e-06
1.84039e-06
1.37166e-06
1.13788e-06
9.70185e-07
8.57006e-07
8.2943e-07
9.51175e-07
2.16516e-06
1.48148e-06
1.28175e-06
1.4239e-06
1.75491e-06
2.29468e-06
3.7165e-06
8.87473e-06
2.40121e-05
4.49407e-05
3.37083e-05
1.23248e-05
4.15654e-06
2.22912e-06
1.68974e-06
1.39799e-06
1.17447e-06
1.03225e-06
1.05995e-06
1.31193e-06
3.25957e-06
2.2945e-06
1.9507e-06
2.16268e-06
2.65064e-06
3.34941e-06
5.06333e-06
1.0684e-05
2.56821e-05
4.36156e-05
3.24465e-05
1.23451e-05
4.72872e-06
2.85981e-06
2.24194e-06
1.82558e-06
1.47335e-06
1.25327e-06
1.36391e-06
1.76849e-06
4.61969e-06
3.75242e-06
3.58028e-06
4.2438e-06
5.31221e-06
6.3032e-06
7.92516e-06
1.28926e-05
2.46048e-05
3.80852e-05
2.86222e-05
1.20053e-05
6.11617e-06
4.72979e-06
3.95933e-06
3.15542e-06
2.38031e-06
1.80998e-06
1.88923e-06
2.33158e-06
6.43512e-06
6.89984e-06
9.03479e-06
1.1819e-05
1.40016e-05
1.5494e-05
1.69601e-05
2.03931e-05
2.79034e-05
3.59537e-05
3.01001e-05
1.88347e-05
1.47127e-05
1.32157e-05
1.12935e-05
8.71078e-06
6.14493e-06
4.23372e-06
3.19781e-06
3.11715e-06
8.15739e-06
1.21914e-05
1.65165e-05
2.13152e-05
2.67767e-05
3.32188e-05
4.12382e-05
5.16615e-05
6.48428e-05
7.71137e-05
6.76961e-05
5.03998e-05
3.75764e-05
2.83632e-05
2.14289e-05
1.60761e-05
1.19292e-05
8.74773e-06
6.21543e-06
4.07165e-06
3.37078e-07
6.59077e-07
8.78296e-07
1.03232e-06
1.14324e-06
1.24813e-06
1.48852e-06
1.90826e-06
2.38179e-06
2.76824e-06
2.78584e-06
2.51332e-06
2.1685e-06
1.82054e-06
1.5146e-06
1.26363e-06
1.04543e-06
8.37044e-07
6.12104e-07
3.36743e-07
4.71975e-07
5.35021e-07
6.47273e-07
7.6559e-07
8.9389e-07
1.04884e-06
1.27681e-06
1.63604e-06
2.19263e-06
2.75118e-06
2.3579e-06
1.75139e-06
1.41845e-06
1.17254e-06
9.79543e-07
8.28356e-07
7.03632e-07
5.93707e-07
4.91176e-07
4.31072e-07
5.8532e-07
5.72335e-07
6.57627e-07
7.67953e-07
8.91579e-07
1.04271e-06
1.29541e-06
1.83584e-06
3.02403e-06
5.01511e-06
3.90301e-06
2.13358e-06
1.42103e-06
1.10809e-06
9.21056e-07
7.82398e-07
6.68096e-07
5.7075e-07
4.97035e-07
5.11954e-07
8.04731e-07
6.85942e-07
7.18545e-07
8.10038e-07
9.28946e-07
1.0845e-06