/*--------------------------------*- C++ -*----------------------------------*\
  =========                 |
  \\      /  F ield         | OpenFOAM: The Open Source CFD Toolbox
   \\    /   O peration     | Website:  https://openfoam.org
    \\  /    A nd           | Version:  9
     \\/     M anipulation  |
\*---------------------------------------------------------------------------*/
FoamFile
{
    format      ascii;
    class       volScalarField;
    location    "400";
    object      k;
}
// * * * * * * * * * * * * * * * * * * * * * * * * * * * * * * * * * * * * * //

dimensions      [0 2 -2 0 0 0 0];

internalField   nonuniform List<scalar> 
4000
(
3.58861e-05
3.5075e-05
3.45798e-05
3.44064e-05
3.44537e-05
3.46894e-05
3.49038e-05
3.52227e-05
3.54532e-05
3.55203e-05
3.55133e-05
3.54256e-05
3.50332e-05
3.45798e-05
3.44576e-05
3.47692e-05
3.55491e-05
3.67649e-05
3.8075e-05
3.85834e-05
3.87167e-05
3.82882e-05
3.81314e-05
3.85932e-05
3.88241e-05
3.85733e-05
3.88076e-05
4.02418e-05
4.21177e-05
4.37486e-05
4.49582e-05
4.52293e-05
4.38916e-05
4.13809e-05
3.86447e-05
3.75205e-05
3.7589e-05
3.86431e-05
4.00302e-05
4.01083e-05
4.24625e-05
4.13268e-05
3.9884e-05
3.82346e-05
3.65044e-05
3.71168e-05
3.96104e-05
4.30721e-05
4.66956e-05
4.9495e-05
5.16808e-05
5.25698e-05
5.08343e-05
4.62045e-05
4.00769e-05
3.66266e-05
3.68035e-05
3.89102e-05
4.11272e-05
4.19812e-05
4.81761e-05
4.76582e-05
4.66933e-05
4.52918e-05
4.37195e-05
4.33108e-05
4.63459e-05
5.24837e-05
5.82021e-05
6.14236e-05
6.40989e-05
6.5433e-05
6.32108e-05
5.63997e-05
4.64461e-05
3.81554e-05
3.88157e-05
4.13046e-05
4.32842e-05
4.40879e-05
7.45306e-05
7.21681e-05
6.91374e-05
6.6339e-05
6.56158e-05
6.84781e-05
7.44198e-05
8.14558e-05
8.58084e-05
8.65505e-05
8.81249e-05
8.90172e-05
8.59772e-05
7.76252e-05
6.48896e-05
5.17632e-05
4.38052e-05
4.51365e-05
4.72374e-05
4.99978e-05
8.70761e-05
9.09929e-05
9.44445e-05
9.84864e-05
0.00010442
0.000112669
0.000121499
0.000127483
0.0001275
0.000123621
0.000123323
0.000122699
0.000118512
0.000109809
9.69325e-05
8.14726e-05
6.7268e-05
5.88448e-05
6.04768e-05
6.47332e-05
9.63339e-05
0.000106118
0.000117265
0.000130052
0.000143832
0.000157261
0.00016803
0.000173312
0.00017107
0.000164634
0.00016336
0.000160907
0.000154832
0.000144934
0.000131755
0.000116165
9.99608e-05
8.65355e-05
7.86443e-05
7.26888e-05
0.000105349
0.00012249
0.000142059
0.000162155
0.000181855
0.000199439
0.000213063
0.000219855
0.000217935
0.000210135
0.000207484
0.000202988
0.000194168
0.000181106
0.000164873
0.000146735
0.000127761
0.000109597
9.36877e-05
7.97279e-05
0.000116143
0.000141022
0.000168435
0.000195627
0.00022199
0.000245762
0.000263992
0.000273613
0.000273696
0.000265961
0.000260802
0.000253119
0.000240359
0.000222886
0.000201658
0.000178071
0.000153827
0.000130248
0.000107735
8.65392e-05
0.000129385
0.000163641
0.000198111
0.000229437
0.000257665
0.000282077
0.000301667
0.000315318
0.000321877
0.000319718
0.000310092
0.000296206
0.000278137
0.000256695
0.000232661
0.00020676
0.000179751
0.000152205
0.000123774
9.48082e-05
3.5075e-05
3.73635e-05
3.86022e-05
3.98768e-05
4.16317e-05
4.45481e-05
4.79617e-05
5.08934e-05
5.33703e-05
5.54018e-05
5.70254e-05
5.71743e-05
5.48098e-05
5.06918e-05
4.69002e-05
4.44274e-05
4.33169e-05
4.31212e-05
4.26799e-05
3.98589e-05
3.82882e-05
4.96613e-05
5.67748e-05
6.1764e-05
6.49176e-05
6.7667e-05
7.10188e-05
7.47095e-05
7.89905e-05
8.34395e-05
8.71505e-05
8.8346e-05
8.53318e-05
7.9326e-05
7.1091e-05
6.37554e-05
5.86443e-05
5.5509e-05
5.21892e-05
4.21426e-05
4.13268e-05
4.85739e-05
5.69055e-05
6.62732e-05
7.47357e-05
7.8907e-05
7.82044e-05
7.8433e-05
8.0416e-05
8.35751e-05
8.66796e-05
8.81504e-05
8.6006e-05
8.05687e-05
7.37214e-05
6.59051e-05
5.99836e-05
5.52992e-05
5.00189e-05
4.35171e-05
4.76582e-05
5.6996e-05
6.00925e-05
6.40843e-05
6.91425e-05
7.40041e-05
7.77326e-05
7.87051e-05
8.04111e-05
8.32813e-05
8.65798e-05
8.84239e-05
8.59568e-05
7.89673e-05
7.06038e-05
6.38668e-05
5.85192e-05
5.42706e-05
5.05739e-05
4.56121e-05
7.21681e-05
9.31441e-05
8.86919e-05
8.09411e-05
7.59164e-05
7.40392e-05
7.57321e-05
8.12211e-05
8.78456e-05
9.29035e-05
9.69601e-05
9.91755e-05
9.61217e-05
8.70409e-05
7.47375e-05
6.41198e-05
5.94779e-05
5.8627e-05
6.01105e-05
5.28007e-05
9.09929e-05
0.000108425
0.000115531
0.000116942
0.000116345
0.000117611
0.000121105
0.000124549
0.000125346
0.000124018
0.000124912
0.000125776
0.000122604
0.000114178
0.00010157
8.74485e-05
7.62184e-05
7.38887e-05
8.03116e-05
6.69187e-05
0.000106118
0.000118256
0.000132683
0.000150037
0.000168382
0.000184055
0.000194727
0.000197482
0.000190987
0.000180456
0.000176465
0.000174795
0.000170679
0.000161974
0.000149022
0.000132961
0.000115995
0.000102356
9.24818e-05
7.5167e-05
0.00012249
0.00013895
0.000163559
0.000194221
0.000228853
0.000260953
0.000282443
0.000286977
0.000277544
0.000261911
0.000254637
0.000250072
0.000241995
0.000227543
0.000205999
0.000179474
0.000151162
0.000123095
0.000100899
8.34062e-05
0.000141022
0.000174915
0.000215236
0.000260259
0.000308736
0.000354511
0.000388
0.000401176
0.000394948
0.000377849
0.000368821
0.000360736
0.000343723
0.00031602
0.000278959
0.000236056
0.000193177
0.000154214
0.000121723
9.45264e-05
0.000163641
0.000205853
0.000249455
0.000290535
0.000328843
0.000363123
0.000391491
0.000412137
0.000423625
0.000423714
0.000408187
0.000387002
0.000360171
0.000328851
0.000294258
0.000257526
0.000220062
0.000182978
0.000146069
0.000110168
3.45798e-05
3.86022e-05
4.05464e-05
4.22045e-05
4.42284e-05
4.76492e-05
5.32816e-05
5.88088e-05
6.35831e-05
6.75139e-05
7.04095e-05
7.03826e-05
6.64453e-05
5.94141e-05
5.36271e-05
4.99335e-05
4.82037e-05
4.73223e-05
4.54431e-05
3.97583e-05
3.81314e-05
5.67748e-05
6.59475e-05
7.21868e-05
7.69189e-05
8.22751e-05
8.83461e-05
9.4811e-05
0.000101773
0.000108617
0.000114092
0.000115541
0.000111263
0.000102974
9.10025e-05
8.10885e-05
7.41632e-05
6.89084e-05
6.22362e-05
4.29842e-05
3.9884e-05
5.69055e-05
7.02245e-05
8.31534e-05
9.26942e-05
9.84982e-05
0.000100547
0.000102705
0.000106561
0.000111802
0.000116606
0.000118359
0.000114876
0.000107429
9.73655e-05
8.59461e-05
7.66386e-05
6.81498e-05
5.84226e-05
4.34657e-05
4.66933e-05
6.00925e-05
6.94755e-05
7.93285e-05
8.89812e-05
9.72261e-05
0.00010335
0.000103419
0.00010489
0.000109479
0.00011473
0.00011666
0.000111894
0.000102412
9.2438e-05
8.26212e-05
7.31636e-05
6.4598e-05
5.64442e-05
4.6424e-05
6.91374e-05
8.86919e-05
8.78333e-05
8.5476e-05
8.47625e-05
8.54224e-05
8.77886e-05
9.38035e-05
0.00010237
0.00011162
0.000119954
0.000122973
0.000115623
0.000101794
8.76556e-05
7.77344e-05
7.09562e-05
6.70521e-05
6.58062e-05
5.62216e-05
9.44445e-05
0.000115531
0.000116646
0.00011058
0.000105484
0.000103577
0.000104751
0.000108645
0.000115413
0.000126436
0.000138017
0.000142086
0.000132029
0.000114857
9.79662e-05
8.60237e-05
7.92885e-05
7.95704e-05
8.68573e-05
7.06057e-05
0.000117265
0.000132683
0.000140038
0.00014575
0.000148295
0.000152757
0.000160184
0.000167808
0.000173216
0.000178351
0.000186575
0.000188839
0.000177802
0.000158866
0.000138016
0.00011833
0.000106198
0.000102754
0.000103142
8.11331e-05
0.000142059
0.000163559
0.000186504
0.0002146
0.00024449
0.000271695
0.000292677
0.0003028
0.00029894
0.00028977
0.000290003
0.000290787
0.00028221
0.000260668
0.000229504
0.000194128
0.000160219
0.000135334
0.00011593
9.31409e-05
0.000168435
0.000215236
0.000278928
0.000356519
0.000437124
0.000509667
0.000558309
0.000572605
0.000557868
0.000532773
0.00052078
0.000512289
0.000493048
0.000455198
0.000398504
0.000328038
0.000256814
0.000194609
0.000145987
0.000109838
0.000198111
0.000249455
0.000301072
0.000350318
0.000397035
0.000439829
0.000475981
0.000503242
0.000520337
0.000523903
0.000502178
0.000473562
0.000438349
0.000397895
0.000353818
0.000307447
0.000260922
0.000215983
0.000172336
0.000130258
3.44064e-05
3.98768e-05
4.22045e-05
4.40571e-05
4.61814e-05
4.94626e-05
5.59168e-05
6.40453e-05
7.15288e-05
7.75812e-05
8.12982e-05
8.03369e-05
7.40561e-05
6.41886e-05
5.76114e-05
5.41615e-05
5.2669e-05
5.12561e-05
4.78204e-05
3.92949e-05
3.85932e-05
6.1764e-05
7.21868e-05
7.96795e-05
8.62489e-05
9.40862e-05
0.000103136
0.000112489
0.000122412
0.000131562
0.000138059
0.000138817
0.000132709
0.000122015
0.0001076
9.69373e-05
8.97843e-05
8.33041e-05
7.32588e-05
4.42577e-05
3.82346e-05
6.62732e-05
8.31534e-05
9.62013e-05
0.00010534
0.000112412
0.000118074
0.000124227
0.000132204
0.000140886
0.000147149
0.000147433
0.000140742
0.00012983
0.000116108
0.000102632
9.21144e-05
8.19641e-05
6.87392e-05
4.32121e-05
4.52918e-05
6.40843e-05
7.93285e-05
9.31847e-05
0.000104886
0.000114189
0.000121478
0.00012485
0.00013155
0.000141487
0.00014931
0.000148777
0.00013865
0.000124429
0.000110744
9.76715e-05
8.61449e-05
7.46999e-05
6.2361e-05
4.70886e-05
6.6339e-05
8.09411e-05
8.5476e-05
8.93341e-05
9.37745e-05
9.84839e-05
0.000104581
0.000114956
0.0001284
0.000144757
0.000158118
0.000158268
0.000142459
0.000121331
0.000103056
9.0257e-05
8.06763e-05
7.38795e-05
6.97138e-05
5.97691e-05
9.84864e-05
0.000116942
0.00011058
0.000104384
0.000101425
0.000101582
0.000105161
0.00011391
0.000130604
0.000156331
0.000178878
0.000181169
0.000158277
0.000128369
0.000105075
9.13074e-05
8.42279e-05
8.39417e-05
9.03406e-05
7.51911e-05
0.000130052
0.000150037
0.00014575
0.000137309
0.000136772
0.000142951
0.000154707
0.000171091
0.000191911
0.000213988
0.000232796
0.000234006
0.000207421
0.000170401
0.000138891
0.000116287
0.000104808
0.000104889
0.00011412
8.91213e-05
0.000162155
0.000194221
0.0002146
0.000231905
0.000254282
0.000289793
0.00032511
0.000349387
0.000359862
0.000364394
0.000369641
0.000363287
0.000346671
0.00031149
0.000258529
0.000205476
0.000165831
0.000148813
0.000136175
0.000105503
0.000195627
0.000260259
0.000356519
0.000476063
0.000582711
0.000663135
0.000709822
0.000710916
0.000683773
0.000653825
0.000645544
0.00065382
0.000650655
0.000616562
0.00054656
0.000446405
0.000344168
0.000248231
0.000175772
0.000126681
0.000229437
0.000290535
0.000350318
0.000407536
0.000462471
0.000514302
0.000559192
0.000594759
0.000619244
0.000628451
0.000599457
0.000561095
0.000515571
0.00046492
0.000411252
0.000355392
0.000300187
0.000248043
0.000198097
0.000149721
3.44537e-05
4.16317e-05
4.42284e-05
4.61814e-05
4.8684e-05
5.23283e-05
5.92759e-05
7.00242e-05
8.0541e-05
8.84606e-05
9.18461e-05
8.88511e-05
7.93615e-05
6.73667e-05
6.16527e-05
5.94345e-05
5.80256e-05
5.55982e-05
5.03224e-05
3.88367e-05
3.88241e-05
6.49176e-05
7.69189e-05
8.62489e-05
9.57458e-05
0.000107195
0.00012046
0.000134098
0.000147318
0.000157668
0.000163063
0.000161441
0.000152677
0.000139704
0.000124744
0.0001141
0.000105883
9.65773e-05
8.17087e-05
4.51549e-05
3.65044e-05
7.47357e-05
9.26942e-05
0.00010534
0.000115579
0.000125751
0.000136831
0.000150202
0.000165072
0.000177593
0.000182477
0.000177247
0.000164786
0.000149336
0.000132833
0.000118412
0.000107667
9.72452e-05
8.07827e-05
4.29799e-05
4.37195e-05
6.91425e-05
8.89812e-05
0.000104886
0.000117413
0.000127859
0.000138272
0.000150725
0.000169175
0.000187854
0.000194755
0.000184462
0.000164812
0.000144175
0.000126122
0.000110935
9.85977e-05
8.52117e-05
6.86356e-05
4.75347e-05
6.56158e-05
7.59164e-05
8.47625e-05
9.37745e-05
0.000102667
0.000111647
0.000123961
0.000143377
0.000170451
0.000200596
0.000215054
0.000200652
0.000170922
0.000141086
0.000117741
0.000101615
8.96236e-05
7.99859e-05
7.26764e-05
6.28827e-05
0.00010442
0.000116345
0.000105484
0.000101425
0.000102339
0.000107171
0.000117617
0.000138812
0.000175418
0.000221997
0.000249098
0.00023227
0.000190646
0.000148255
0.000117669
9.98622e-05
9.0341e-05
8.80371e-05
9.28469e-05
7.99517e-05
0.000143832
0.000168382
0.000148295
0.000136772
0.000138981
0.000151476
0.000173149
0.000204689
0.000247513
0.000293586
0.000317926
0.000295497
0.000247176
0.000195205
0.000153412
0.00012453
0.000110131
0.000110425
0.000124597
9.75692e-05
0.000181855
0.000228853
0.00024449
0.000254282
0.000290973
0.000341555
0.00039041
0.000425344
0.000446444
0.000462417
0.000467736
0.000445576
0.000413367
0.00036669
0.000300933
0.000233128
0.000183335
0.000162783
0.000157948
0.000117885
0.00022199
0.000308736
0.000437124
0.000582711
0.000694072
0.000789938
0.000835736
0.000829939
0.000799998
0.000769751
0.000752358
0.000751908
0.000758555
0.000735641
0.000661133
0.000540142
0.000409561
0.000298186
0.000204798
0.000142668
0.000257665
0.000328843
0.000397035
0.000462471
0.000527549
0.000588654
0.000643089
0.000689656
0.000726465
0.000746174
0.000706921
0.000653027
0.000594168
0.000532006
0.000467185
0.000401111
0.000336591
0.00027769
0.000221766
0.000167219
3.46894e-05
4.45481e-05
4.76492e-05
4.94626e-05
5.23283e-05
5.68777e-05
6.56985e-05
7.90702e-05
9.16477e-05
9.97268e-05
0.00010149
9.6327e-05
8.42963e-05
7.31976e-05
6.8995e-05
6.71552e-05
6.47949e-05
6.07034e-05
5.31327e-05
3.8485e-05
3.85733e-05
6.7667e-05
8.22751e-05
9.40862e-05
0.000107195
0.000123957
0.000143159
0.000163553
0.000179918
0.000188627
0.000189991
0.000184818
0.000173338
0.000158086
0.000143703
0.000130761
0.000118081
0.000103537
8.35202e-05
4.44522e-05
3.71168e-05
7.8907e-05
9.84982e-05
0.000112412
0.000125751
0.000141741
0.000162472
0.000188216
0.000213824
0.000229034
0.000226244
0.000209889
0.000189063
0.00016794
0.000148962
0.000133702
0.000122602
0.000110886
9.15949e-05
4.24016e-05
4.33108e-05
7.40041e-05
9.72261e-05
0.000114189
0.000127859
0.000142271
0.000162537
0.000194553
0.000235381
0.000265783
0.000259467
0.000226739
0.000191802
0.000162851
0.000140082
0.000123147
0.0001103
9.53145e-05
7.45899e-05
4.75354e-05
6.84781e-05
7.40392e-05
8.54224e-05
9.84839e-05
0.000111647
0.000127274
0.000152351
0.000194105
0.00025405
0.000307872
0.00030396
0.000252661
0.000200515
0.000160157
0.000131392
0.000112081
9.78665e-05
8.53516e-05
7.48035e-05
6.52883e-05
0.000112669
0.000117611
0.000103577
0.000101582
0.000107171
0.000119908
0.000145926
0.000196571
0.000276914
0.000358059
0.000364206
0.000294089
0.000223924
0.000169463
0.000132152
0.000109706
9.69033e-05
9.18483e-05
9.4717e-05
8.42177e-05
0.000157261
0.000184055
0.000152757
0.000142951
0.000151476
0.000175182
0.000215599
0.000278079
0.000366579
0.00045451
0.000454645
0.000366949
0.000286106
0.000222666
0.000173373
0.000138205
0.00011925
0.000117248
0.000133061
0.0001051
0.000199439
0.000260953
0.000271695
0.000289793
0.000341555
0.000406984
0.000469481
0.000519985
0.000570394
0.000615264
0.000592342
0.00052053
0.000467413
0.000412315
0.000340618
0.000265043
0.00020625
0.000177719
0.000176644
0.000128454
0.000245762
0.000354511
0.000509667
0.000663135
0.000789938
0.000882928
0.00091826
0.000911396
0.000899876
0.00089056
0.000854588
0.000822324
0.000822114
0.000806566
0.000734949
0.000607614
0.000460784
0.00033942
0.000229137
0.00015626
0.000282077
0.000363123
0.000439828
0.000514302
0.000588654
0.00065965
0.000726755
0.00079019
0.00084746
0.000885182
0.000832665
0.00075381
0.000674372
0.000596667
0.000519539
0.00044332
0.000369972
0.000303782
0.000242107
0.000181883
3.49038e-05
4.79617e-05
5.32816e-05
5.59168e-05
5.92759e-05
6.56985e-05
7.64009e-05
9.11947e-05
0.00010174
0.000107579
0.000108381
0.000103574
9.4853e-05
8.68356e-05
8.18621e-05
7.69286e-05
7.14644e-05
6.47269e-05
5.47827e-05
3.80528e-05
3.88076e-05
7.10188e-05
8.83461e-05
0.000103136
0.00012046
0.000143159
0.000171872
0.000199494
0.000218233
0.00022308
0.000219845
0.000211465
0.000198057
0.000179064
0.000159349
0.000140721
0.0001233
0.000105347
8.2802e-05
4.32645e-05
3.96104e-05
7.82044e-05
0.000100547
0.000118074
0.000136831
0.000162472
0.000198919
0.000243363
0.00028578
0.000306296
0.000289886
0.000253398
0.000219465
0.000190056
0.000165563
0.000147767
0.000134148
0.000119133
9.65753e-05
4.39909e-05
4.63459e-05
7.77326e-05
0.00010335
0.000121478
0.000138272
0.000162537
0.00020571
0.000274606
0.000357529
0.00040766
0.000370877
0.000292403
0.000228423
0.000185109
0.000155414
0.000135528
0.000121376
0.000104892
8.04169e-05
4.81014e-05
7.44198e-05
7.57321e-05
8.77886e-05
0.000104581
0.000123961
0.000152351
0.000204667
0.000300363
0.000433045
0.000531267
0.000469718
0.000340726
0.000242181
0.000182808
0.000146094
0.00012255
0.000105545
8.99338e-05
7.61565e-05
6.68231e-05
0.000121499
0.000121105
0.000104751
0.000105161
0.000117617
0.000145926
0.000206966
0.000327877
0.000512963
0.00066098
0.000586565
0.000399829
0.000268934
0.000193565
0.000148101
0.000120395
0.000103691
9.53891e-05
9.61129e-05
8.74379e-05
0.00016803
0.000194727
0.000160184
0.000154707
0.000173149
0.000215599
0.000292989
0.000426797
0.000622507
0.00077948
0.000692993
0.000483483
0.000334649
0.000250543
0.000194263
0.000153822
0.00012999
0.0001241
0.000138416
0.00011054
0.000213063
0.000282443
0.000292677
0.00032511
0.00039041
0.000469481
0.00055255
0.000651493
0.000799557
0.000906741
0.000811267
0.00061829
0.000505968
0.000439281
0.000367303
0.000290559
0.000227131
0.000191689
0.00018888
0.000135756
0.000263992
0.000388
0.000558309
0.000709822
0.000835736
0.00091826
0.000953938
0.000980034
0.00103795
0.00108424
0.00101135
0.000891418
0.000849574
0.000829929
0.000764991
0.000639939
0.000489237
0.000361463
0.000244132
0.000165909
0.000301667
0.000391491
0.000475981
0.000559192
0.000643089
0.000726755
0.000812359
0.000902188
0.000992674
0.00105876
0.000990256
0.000870659
0.000759364
0.000659615
0.000566967
0.000479343
0.000397531
0.000324539
0.000257906
0.000193033
3.52227e-05
5.08934e-05
5.88088e-05
6.40453e-05
7.00242e-05
7.90702e-05
9.11947e-05
0.000102333
0.00010857
0.000109687
0.000113843
0.000114731
0.000111729
0.000104464
9.44736e-05
8.47816e-05
7.61065e-05
6.72553e-05
5.574e-05
3.77697e-05
4.02418e-05
7.47095e-05
9.4811e-05
0.000112489
0.000134098
0.000163553
0.000199494
0.000232938
0.000259979
0.000282115
0.000272888
0.000249917
0.0002291
0.000202036
0.000173447
0.000147736
0.000126315
0.000106377
8.24277e-05
4.296e-05
4.30721e-05
7.8433e-05
0.000102705
0.000124227
0.000150202
0.000188216
0.000243363
0.000313578
0.000394601
0.000478981
0.00044028
0.00033507
0.000266621
0.000218876
0.000183861
0.000158158
0.000137842
0.00011778
9.15685e-05
4.45857e-05
5.24837e-05
7.87051e-05
0.000103419
0.00012485
0.000150725
0.000194553
0.000274606
0.000404057
0.000575319
0.00072319
0.000643451
0.000436458
0.000296526
0.000219104
0.000175678
0.000149867
0.00013265
0.000114097
8.62302e-05
4.85818e-05
8.14558e-05
8.12211e-05
9.38035e-05
0.000114956
0.000143377
0.000194105
0.000300363
0.000501647
0.000774696
0.000994113
0.000868446
0.000554255
0.000328821
0.000220009
0.000166646
0.000135978
0.000114442
9.48395e-05
7.74319e-05
6.75126e-05
0.000127483
0.000124549
0.000108645
0.00011391
0.000138812
0.000196571
0.000327877
0.000591469
0.000959525
0.0012365
0.00106654
0.000658065
0.000365114
0.000231557
0.000168793
0.000133258
0.000111314
9.90634e-05
9.73849e-05
8.92221e-05
0.000173312
0.000197482
0.000167808
0.000171091
0.000204689
0.000278079
0.000426797
0.000712355
0.00111792
0.00140003
0.00120955
0.000746368
0.000427258
0.000286842
0.000216031
0.000169851
0.000141002
0.000130104
0.000140038
0.000113004
0.000219855
0.000286977
0.0003028
0.000349387
0.000425344
0.000519985
0.000651493
0.000890014
0.00121357
0.00142266
0.00125655
0.000835616
0.000557597
0.000450293
0.000376771
0.00030374
0.000240305
0.000200074
0.000192202
0.000138617
0.000273613
0.000401176
0.000572605
0.000710916
0.000829939
0.000911396
0.000980034
0.00110051
0.00129592
0.00142981
0.00131776
0.0010253
0.000869348
0.000814357
0.000748659
0.000631743
0.000487708
0.000362832
0.000246104
0.000169893
0.000315318
0.000412137
0.000503242
0.000594759
0.000689656
0.00079019
0.000902188
0.00103132
0.0011713
0.0012744
0.00119487
0.00101199
0.000851605
0.00072063
0.000608083
0.000507359
0.000416929
0.000338037
0.000267582
0.000199562
3.54532e-05
5.33703e-05
6.35831e-05
7.15288e-05
8.0541e-05
9.16477e-05
0.00010174
0.00010857
0.000108001
0.000118775
0.000128648
0.000125821
0.000129198
0.000119903
0.000104749
9.08795e-05
7.95409e-05
6.90117e-05
5.63412e-05
3.74546e-05
4.21177e-05
7.89905e-05
0.000101773
0.000122412
0.000147318
0.000179918
0.000218233
0.000259979
0.000329849
0.000475072
0.000459381
0.000328342
0.000267579
0.000223668
0.000184282
0.000153214
0.000129169
0.000107561
8.24736e-05
4.31379e-05
4.66956e-05
8.0416e-05
0.000106561
0.000132204
0.000165072
0.000213824
0.00028578
0.000394601
0.000591379
0.000935285
0.000868651
0.000528634
0.000342807
0.000253001
0.000200444
0.000165251
0.000138883
0.000114866
8.68036e-05
4.55828e-05
5.82021e-05
8.04111e-05
0.00010489
0.00013155
0.000169175
0.000235381
0.000357529
0.000575319
0.000909211
0.00139657
0.00125783
0.000765455
0.000425407
0.000269416
0.000200255
0.000163417
0.000138857
0.000115876
8.67987e-05
5.04824e-05
8.58084e-05
8.78456e-05
0.00010237
0.0001284
0.000170451
0.00025405
0.000433045
0.000774696
0.00125258
0.00179347
0.00158178
0.00100671
0.000507346
0.000282876
0.000196721
0.000154763
0.000126933
0.000102249
8.05261e-05
6.78239e-05
0.0001275
0.000125346
0.000115413
0.000130604
0.000175418
0.000276914
0.000512963
0.000959525
0.00156537
0.00203788
0.00181103
0.00118823
0.000566267
0.000298246
0.000199371
0.000151169
0.000121549
0.000103793
9.85358e-05
8.94043e-05
0.00017107
0.000190987
0.000173216
0.000191911
0.000247513
0.000366579
0.000622507
0.00111792
0.00174942
0.00209265
0.00189476
0.00126353
0.000608857
0.000343028
0.000242031
0.000187086
0.000152136
0.000134933
0.000138046
0.000112169
0.000217935
0.000277544
0.00029894
0.000359862
0.000446444
0.000570394
0.000799557
0.00121357
0.00173652
0.00199825
0.00186269
0.00124522
0.000668257
0.000460407
0.000373905
0.000305266
0.00024436
0.000201198
0.000186624
0.000136424
0.000273696
0.000394948
0.000557868
0.000683773
0.000799998
0.000899876
0.00103795
0.00129592
0.00166615
0.00186569
0.00178048
0.00127657
0.000922977
0.000787314
0.00070293
0.000593194
0.000461308
0.000344562
0.000235696
0.000166821
0.000321877
0.000423625
0.000520337
0.000619244
0.000726465
0.00084746
0.000992674
0.0011713
0.00136973
0.00149267
0.00143906
0.00117819
0.000949236
0.000776614
0.000639832
0.000524794
0.000425987
0.000342596
0.000269651
0.000199936
3.55203e-05
5.54018e-05
6.75139e-05
7.75812e-05
8.84606e-05
9.97268e-05
0.000107579
0.000109687
0.000118775
0.000124543
0.000146228
0.000150732
0.000142336
0.00012907
0.000111035
9.49898e-05
8.19734e-05
7.02235e-05
5.66783e-05
3.70837e-05
4.37486e-05
8.34395e-05
0.000108617
0.000131562
0.000157668
0.000188627
0.00022308
0.000282115
0.000475072
0.00040385
0.000433665
0.000510056
0.000295625
0.000231087
0.000188457
0.00015655
0.000131596
0.000108913
8.29127e-05
4.38306e-05
4.9495e-05
8.35751e-05
0.000111802
0.000140886
0.000177593
0.000229034
0.000306296
0.000478981
0.000935285
0.00065376
0.000711621
0.000942552
0.00043708
0.000274749
0.000208443
0.000168939
0.000139303
0.00011265
8.38042e-05
4.77322e-05
6.14236e-05
8.32813e-05
0.000109479
0.000141487
0.000187854
0.000265783
0.00040766
0.00072319
0.00139657
0.000876188
0.00100657
0.00132032
0.00058436
0.000313777
0.000219926
0.000174022
0.000142211
0.000114147
8.49029e-05
5.38897e-05
8.65505e-05
9.29035e-05
0.00011162
0.000144757
0.000200596
0.000307872
0.000531267
0.000994113
0.00179347
0.00106227
0.00132032
0.0016029
0.000705098
0.000346997
0.000228311
0.000175232
0.000140295
0.000110689
8.52395e-05
6.83538e-05
0.000123621
0.000124018
0.000126436
0.000156331
0.000221997
0.000358059
0.00066098
0.0012365
0.00203788
0.00122976
0.00161862
0.00176117
0.00077633
0.000371343
0.00023626
0.000174965
0.000135925
0.000110339
9.98367e-05
8.85309e-05
0.000164634
0.000180456
0.000178351
0.000213988
0.000293586
0.00045451
0.00077948
0.00140003
0.00209265
0.00137084
0.00184027
0.00176081
0.000788605
0.000402624
0.000271781
0.000207299
0.000164476
0.000139003
0.00013373
0.000109549
0.000210135
0.000261911
0.00028977
0.000364394
0.000462417
0.000615264
0.000906741
0.00142266
0.00199825
0.00150205
0.00196254
0.00163396
0.000777936
0.000475031
0.000371291
0.000303765
0.000243818
0.000197168
0.000175751
0.000131869
0.000265961
0.000377849
0.000532773
0.000653825
0.000769751
0.00089056
0.00108424
0.00142981
0.00186569
0.00166139
0.00199037
0.00151011
0.000985448
0.000766989
0.000656651
0.000549225
0.000427245
0.000318476
0.00021926
0.000160058
0.000319718
0.000423714
0.000523903
0.000628451
0.000746174
0.000885182
0.00105876
0.0012744
0.00149267
0.00146905
0.00160613
0.00132387
0.00103121
0.000816463
0.00065585
0.000527825
0.000422317
0.000336343
0.000262939
0.000193925
3.55133e-05
5.70254e-05
7.04095e-05
8.12982e-05
9.18461e-05
0.00010149
0.000108381
0.000113843
0.000128648
0.000146228
0.000158609
0.000153692
0.000143023
0.000127876
0.000111254
9.60219e-05
8.28504e-05
7.05494e-05
5.65058e-05
3.65659e-05
4.49582e-05
8.71505e-05
0.000114092
0.000138059
0.000163063
0.000189991
0.000219845
0.000272888
0.000459381
0.000433665
0.000453617
0.000465732
0.000277362
0.000220995
0.000184658
0.000156195
0.000132289
0.000109324
8.28149e-05
4.4121e-05
5.16808e-05
8.66796e-05
0.000116606
0.000147149
0.000182477
0.000226244
0.000289886
0.00044028
0.000868651
0.000711621
0.000785482
0.000840892
0.000389904
0.000257459
0.000203128
0.000167561
0.000138208
0.000110635
8.17544e-05
4.93274e-05
6.40989e-05
8.65798e-05
0.00011473
0.00014931
0.000194755
0.000259467
0.000370877
0.000643451
0.00125783
0.00100657
0.00116785
0.00115275
0.000504701
0.000292337
0.000218161
0.000175865
0.00014231
0.000112002
8.31851e-05
5.69253e-05
8.81249e-05
9.69601e-05
0.000119954
0.000158118
0.000215054
0.00030396
0.000469718
0.000868446
0.00158178
0.00132032
0.00155515
0.00138328
0.000604463
0.000328577
0.000237341
0.000187864
0.000149709
0.00011673
8.92569e-05
6.94986e-05
0.000123323
0.000124912
0.000138017
0.000178878
0.000249098
0.000364206
0.000586565
0.00106654
0.00181103
0.00161862
0.00187689
0.00150305
0.000664483
0.000360815
0.000256876
0.000197872
0.000152781
0.000119133
0.000101669
8.78158e-05
0.00016336
0.000176465
0.000186575
0.000232796
0.000317926
0.000454645
0.000692993
0.00120955
0.00189476
0.00184027
0.00205835
0.00148888
0.000679513
0.000395293
0.000290642
0.000226779
0.000177294
0.000142237
0.000129333
0.000107798
0.000207484
0.000254637
0.000290003
0.000369641
0.000467736
0.000592342
0.000811267
0.00125655
0.00186269
0.00196254
0.00209943
0.00138376
0.00068417
0.000461905
0.000375305
0.00030854
0.000245889
0.000193384
0.000166834
0.00012968
0.000260802
0.000368821
0.00052078
0.000645544
0.000752358
0.000854588
0.00101135
0.00131776
0.00178048
0.00199037
0.00199447
0.001347
0.000911328
0.000743738
0.000644013
0.000535504
0.000415376
0.000308331
0.000212223
0.000157727
0.000310092
0.000408187
0.000502178
0.000599457
0.000706921
0.000832665
0.000990256
0.00119487
0.00143906
0.00160613
0.00154706
0.00121871
0.000951348
0.000760534
0.000615986
0.000499598
0.000403361
0.000324384
0.000256017
0.000190972
3.54256e-05
5.71743e-05
7.03826e-05
8.03369e-05
8.88511e-05
9.6327e-05
0.000103574
0.000114731
0.000125821
0.000150732
0.000153692
0.000144255
0.00013353
0.000119672
0.000105708
9.24596e-05
8.04744e-05
6.8732e-05
5.50958e-05
3.58129e-05
4.52293e-05
8.8346e-05
0.000115541
0.000138817
0.000161441
0.000184818
0.000211465
0.000249917
0.000328342
0.000510056
0.000465732
0.00029602
0.000241047
0.00020494
0.000175465
0.000150899
0.000129056
0.000107011
8.10871e-05
4.35337e-05
5.25698e-05
8.81504e-05
0.000118359
0.000147433
0.000177247
0.000209889
0.000253398
0.00033507
0.000528634
0.000942552
0.000840892
0.000452051
0.000290204
0.000226224
0.000188927
0.000159642
0.000133061
0.000106753
7.91206e-05
4.928e-05
6.5433e-05
8.84239e-05
0.00011666
0.000148777
0.000184462
0.000226739
0.000292403
0.000436458
0.000765455
0.00132032
0.00115276
0.000609444
0.000340881
0.000244977
0.000199343
0.000166065
0.000136049
0.000107469
8.0858e-05
5.77604e-05
8.90172e-05
9.91755e-05
0.000122973
0.000158268
0.000200652
0.000252661
0.000340726
0.000554255
0.00100671
0.0016029
0.00138328
0.000737221
0.000391585
0.000270375
0.000217411
0.000179994
0.000146314
0.000115382
8.99189e-05
7.04006e-05
0.000122699
0.000125776
0.000142086
0.000181169
0.00023227
0.000294089
0.000399829
0.000658065
0.00118823
0.00176117
0.00150305
0.000812964
0.000435057
0.000301195
0.000242639
0.000199893
0.000160258
0.000125434
0.000103283
8.72211e-05
0.000160907
0.000174795
0.000188839
0.000234006
0.000295497
0.000366949
0.000483483
0.000746368
0.00126353
0.00176081
0.00148888
0.000827222
0.000473231
0.000344741
0.000282891
0.000233132
0.000185229
0.000144742
0.000126134
0.000106467
0.000202988
0.000250072
0.000290787
0.000363287
0.000445576
0.00052053
0.00061829
0.000835616
0.00124522
0.00163396
0.00138376
0.000812714
0.000531938
0.000435682
0.000375301
0.000313801
0.000249605
0.000191138
0.000160831
0.000128135
0.000253119
0.000360736
0.000512289
0.00065382
0.000751908
0.000822324
0.000891418
0.0010253
0.00127657
0.00151011
0.001347
0.000975518
0.000804297
0.000729847
0.000647335
0.000538199
0.00041829
0.000306672
0.000210252
0.000155625
0.000296206
0.000387002
0.000473562
0.000561095
0.000653027
0.00075381
0.000870659
0.00101199
0.00117819
0.00132387
0.00121871
0.00100079
0.000822328
0.000681374
0.000564952
0.000466169
0.000381813
0.000310312
0.000246973
0.000186141
3.50332e-05
5.48098e-05
6.64453e-05
7.40561e-05
7.93615e-05
8.42963e-05
9.4853e-05
0.000111729
0.000129198
0.000142336
0.000143023
0.00013353
0.000121006
0.000107672
9.52305e-05
8.44612e-05
7.44904e-05
6.42759e-05
5.21709e-05
3.49842e-05
4.38916e-05
8.53318e-05
0.000111263
0.000132709
0.000152677
0.000173338
0.000198057
0.0002291
0.000267579
0.000295625
0.000277362
0.000241047
0.000213419
0.000186839
0.000162513
0.000141051
0.000121105
0.000100776
7.67305e-05
4.13059e-05
5.08343e-05
8.6006e-05
0.000114876
0.000140742
0.000164786
0.000189063
0.000219465
0.000266621
0.000342807
0.00043708
0.000389904
0.000290204
0.000234293
0.000198911
0.000171256
0.000146982
0.000123875
0.000100294
7.48419e-05
4.64134e-05
6.32108e-05
8.59568e-05
0.000111894
0.00013865
0.000164812
0.000191802
0.000228423
0.000296526
0.000425407
0.00058436
0.000504701
0.000340881
0.000252628
0.000206583
0.000175306
0.000148805
0.000123706
9.91609e-05
7.57832e-05