/*--------------------------------*- C++ -*----------------------------------*\
  =========                 |
  \\      /  F ield         | OpenFOAM: The Open Source CFD Toolbox
   \\    /   O peration     | Website:  https://openfoam.org
    \\  /    A nd           | Version:  9
     \\/     M anipulation  |
\*---------------------------------------------------------------------------*/
FoamFile
{
    format      ascii;
    class       volScalarField;
    location    "400";
    object      nut;
}
// * * * * * * * * * * * * * * * * * * * * * * * * * * * * * * * * * * * * * //

dimensions      [0 2 -1 0 0 0 0];

internalField   nonuniform List<scalar> 
4000
(
0.000329642
0.000327288
0.000325609
0.00032483
0.000324831
0.000325589
0.00032623
0.000327625
0.000328779
0.00032937
0.000329896
0.000329748
0.000327695
0.000325341
0.000325085
0.000326537
0.000330114
0.000335696
0.000341552
0.000343057
0.000340814
0.000341131
0.000342156
0.000344933
0.000345781
0.000344107
0.000344929
0.000351621
0.000360002
0.000367195
0.000372586
0.000373561
0.000367355
0.000356071
0.000343564
0.000338388
0.000338675
0.000343348
0.000349457
0.00034894
0.000355158
0.000351787
0.000346991
0.000340845
0.00033403
0.000337773
0.000349817
0.000366027
0.000382226
0.000394061
0.000402898
0.000405745
0.000397341
0.000376796
0.000349386
0.000334326
0.000334397
0.000343202
0.00035281
0.000356081
0.000376611
0.000376207
0.000374062
0.000370041
0.000365194
0.000366953
0.000382429
0.000408343
0.000431149
0.000443591
0.000453404
0.000457048
0.000446863
0.000419321
0.000378202
0.000340896
0.000342778
0.000352934
0.000360911
0.000364064
0.000480405
0.000474822
0.000467283
0.000460297
0.000460139
0.000470526
0.000490353
0.000512413
0.000525624
0.000527743
0.00053276
0.000534745
0.000523702
0.000495684
0.000451496
0.000401601
0.000367058
0.000369714
0.000377079
0.000387436
0.000521974
0.000534524
0.000546408
0.000560055
0.000578334
0.000601349
0.000624059
0.000638298
0.000637867
0.000627838
0.000627543
0.000625796
0.000614486
0.000591023
0.000554681
0.000507668
0.000460527
0.000430063
0.000433906
0.000446839
0.00055025
0.000578774
0.000610332
0.00064436
0.000678198
0.00070876
0.000731622
0.000741908
0.000737036
0.000722763
0.000720146
0.000714875
0.000701461
0.000678902
0.000647347
0.00060769
0.000563065
0.000522365
0.000495811
0.000474914
0.000576443
0.000623079
0.000672449
0.000719177
0.000761565
0.000796859
0.000822838
0.000834844
0.000831189
0.000816366
0.000811099
0.000802728
0.000785665
0.00075927
0.00072444
0.000683369
0.000637151
0.000588997
0.000542761
0.000498556
0.000606088
0.000669298
0.000732416
0.000789581
0.000840738
0.00088373
0.000914804
0.000930544
0.000930629
0.000917649
0.000908736
0.000896055
0.000874062
0.000842408
0.000801673
0.000753289
0.000699662
0.000642846
0.000583096
0.000520354
0.000640357
0.000721368
0.000794161
0.000854476
0.000904889
0.000945872
0.000977177
0.000998212
0.00100803
0.0010046
0.000989558
0.000968011
0.00093892
0.000902889
0.000860296
0.000811376
0.000756431
0.000695396
0.000625789
0.000545537
0.000327288
0.000338603
0.000344531
0.000350382
0.00035823
0.000370993
0.000384355
0.000395299
0.000404578
0.000412548
0.000419298
0.000419693
0.000410226
0.000393891
0.00037974
0.000369553
0.000364825
0.000364099
0.000362202
0.00034891
0.000341131
0.00053027
0.000656545
0.000784964
0.000904714
0.000994994
0.00105252
0.00109611
0.00114728
0.00120311
0.00124882
0.00126078
0.00122488
0.00115994
0.00103943
0.000884947
0.000738338
0.000622889
0.000529995
0.000358181
0.000351787
0.000507832
0.000638811
0.000801915
0.000991718
0.00113015
0.00114202
0.00112501
0.00113311
0.00116392
0.00119286
0.00119688
0.00116319
0.00111169
0.00106734
0.000962739
0.000812912
0.000664175
0.000533188
0.000362311
0.000376207
0.000496577
0.000569539
0.000655367
0.00075754
0.000853473
0.000928605
0.000934611
0.00093698
0.000964522
0.000995172
0.00100284
0.000969428
0.000913409
0.000877345
0.000846679
0.000732695
0.000611531
0.000502011
0.000369693
0.000474822
0.000636641
0.000657961
0.00065585
0.000661883
0.000671889
0.000687924
0.000724864
0.000779437
0.000836944
0.000883136
0.000902312
0.0008714
0.000803062
0.000733435
0.000690195
0.000640825
0.000577522
0.000518804
0.000398517
0.000534524
0.000731546
0.000803487
0.000820242
0.000817342
0.000820982
0.000839678
0.000868775
0.000897347
0.000920546
0.000947599
0.00096104
0.000933912
0.000870179
0.000789652
0.000714977
0.000662062
0.000632562
0.000621727
0.000453907
0.000578774
0.000771445
0.000878171
0.000974302
0.00106783
0.0011542
0.00122729
0.00126811
0.00126368
0.00122845
0.00121122
0.00119842
0.00116526
0.00110472
0.00102212
0.000929565
0.000840724
0.000770494
0.000701253
0.000482606
0.000623079
0.000826692
0.000966263
0.00112724
0.00131116
0.0014919
0.00162469
0.00167347
0.00166338
0.00160856
0.00155023
0.0014999
0.00144601
0.00137432
0.00126722
0.00113338
0.000991955
0.000851097
0.000721366
0.000509732
0.000669298
0.000886261
0.00105149
0.00123585
0.00143688
0.00162588
0.00176788
0.00184305
0.00185169
0.00180751
0.00175359
0.0016974
0.00162098
0.00151402
0.00137592
0.00121341
0.0010447
0.000885313
0.00074275
0.000544299
0.000721368
0.000809396
0.000890826
0.000960749
0.00102112
0.00107178
0.00111161
0.00113953
0.00115465
0.00115471
0.00113411
0.00110565
0.00106797
0.00102172
0.000967498
0.00090569
0.00083728
0.000762942
0.000680494
0.000589049
0.000325609
0.000344531
0.000353052
0.000360244
0.000369167
0.00038432
0.000406415
0.000426138
0.000442669
0.000456527
0.000466833
0.000466403
0.000452408
0.00042695
0.000406312
0.000392079
0.000385434
0.000382249
0.000374593
0.000349066
0.000342156
0.000656545
0.000815357
0.000964994
0.00111547
0.00126941
0.00138815
0.00149211
0.00159938
0.00169986
0.00177365
0.00178495
0.0017213
0.00160352
0.00137193
0.00114092
0.000948484
0.000799872
0.000665151
0.000363862
0.000346991
0.000638811
0.000845454
0.00108153
0.00132031
0.00152246
0.0016214
0.00167212
0.0017383
0.0018153
0.00187264
0.00187265
0.00180603
0.00170513
0.00157151
0.00134083
0.00108211
0.000848518
0.000646799
0.000362644
0.000374062
0.000569539
0.000721676
0.000890773
0.0010748
0.00125117
0.00141444
0.00147811
0.00152507
0.00159556
0.00165445
0.00164973
0.0015682
0.00145852
0.001365
0.00121521
0.000983441
0.000765641
0.000579237
0.000372639
0.000467283
0.000657961
0.000725558
0.000782994
0.000849636
0.00091714
0.00098244
0.00108558
0.00120558
0.00133726
0.00144195
0.00145702
0.0013573
0.00121326
0.00108924
0.000985759
0.000846483
0.000703449
0.00058381
0.000412096
0.000546408
0.000803487
0.000888992
0.000897849
0.000896644
0.000906369
0.000933463
0.000987747
0.00109199
0.00124677
0.00138653
0.00141755
0.00130412
0.00113471
0.000981684
0.000884086
0.000810576
0.000747067
0.000701388
0.000466359
0.000610332
0.000878171
0.0010222
0.00111222
0.00115942
0.00121328
0.00129585
0.00139614
0.00149359
0.00158188
0.00165752
0.00164525
0.00152696
0.00136183
0.00119252
0.00104202
0.000944651
0.000891827
0.000821928
0.000501861
0.000672449
0.000966263
0.00117676
0.00140284
0.00163866
0.00185592
0.00204346
0.00218793
0.00226117
0.00225605
0.00221999
0.00212557
0.00199769
0.0018338
0.00164031
0.00143079
0.00122178
0.00104338
0.000854933
0.000539455
0.000732416
0.00105149
0.00136739
0.00174399
0.00212476
0.00244134
0.00266811
0.00281541
0.00284574
0.00278093
0.00274577
0.00261429
0.00246373
0.00227475
0.00203416
0.00174447
0.00143515
0.00114209
0.000876081
0.00058751
0.000794161
0.000890826
0.000977956
0.00105388
0.00112065
0.00117798
0.00122401
0.00125747
0.00127791
0.0012822
0.00125668
0.00122202
0.00117737
0.00112318
0.00106031
0.000989084
0.000911349
0.000828806
0.000739477
0.000641416
0.00032483
0.000350382
0.000360244
0.000367901
0.000376874
0.00039063
0.000416764
0.000445401
0.000470256
0.000490258
0.000502284
0.000498912
0.000478132
0.000444493
0.000421312
0.00040875
0.000403574
0.000398507
0.000384796
0.000347273
0.000344933
0.000784964
0.000964994
0.00112493
0.00129024
0.00147669
0.00164819
0.00179409
0.00194073
0.00207053
0.00215867
0.00216249
0.00207037
0.00190286
0.00160677
0.00135933
0.00117161
0.00101942
0.000844873
0.0003713
0.000340845
0.000801915
0.00108153
0.00134861
0.00160301
0.00183589
0.00199963
0.0021178
0.00224431
0.00236488
0.00244368
0.00243042
0.00232143
0.00215885
0.00193295
0.00162851
0.00132594
0.00105483
0.000792002
0.000362912
0.000370041
0.000655367
0.000890773
0.0011306
0.00137213
0.00160246
0.00182338
0.00196654
0.00210017
0.00223511
0.00232006
0.00228366
0.00213588
0.00195376
0.00177076
0.00150451
0.00119326
0.000907909
0.000652795
0.000375499
0.000460297
0.00065585
0.000782994
0.000910645
0.0010485
0.00118872
0.00133639
0.00155011
0.00177848
0.00200503
0.0021544
0.00211947
0.00191817
0.00167847
0.00145977
0.00125026
0.00101637
0.000801992
0.000627634
0.000426074
0.000560055
0.000820242
0.000897849
0.000942585
0.000992571
0.00105611
0.00114353
0.00128393
0.00153216
0.00185435
0.00209231
0.00207457
0.00182285
0.00152095
0.00126799
0.00109658
0.000951882
0.000831945
0.000744918
0.000481766
0.00064436
0.000974302
0.00111222
0.0011744
0.0012439
0.00134297
0.00148578
0.00167934
0.00192046
0.00216429
0.00233541
0.00227878
0.00201688
0.00170962
0.0014319
0.00121622
0.00107287
0.00098909
0.000913567
0.000526748
0.000719177
0.00112724
0.00140284
0.00166229
0.00190583
0.00214421
0.00237616
0.00257581
0.00272105
0.00282122
0.00288137
0.0027989
0.00259961
0.00234586
0.0020348
0.00170988
0.00143385
0.00122586
0.000992436
0.0005749
0.000789581
0.00123585
0.00174399
0.0023464
0.00284951
0.00311991
0.00328722
0.00334371
0.00330998
0.00324883
0.00325059
0.00325521
0.003209
0.00304582
0.00275488
0.00236848
0.00193485
0.00144987
0.0010241
0.000631384
0.000854476
0.000960749
0.00105388
0.00113537
0.00120797
0.00127214
0.001325
0.00136532
0.00139237
0.00140278
0.001372
0.0013293
0.00127613
0.00121325
0.00114224
0.00106252
0.000976751
0.000887705
0.000792752
0.000688107
0.000324831
0.00035823
0.000369167
0.000376874
0.00038693
0.000401535
0.000428887
0.000466216
0.000499806
0.000524412
0.00053465
0.000525538
0.00049582
0.000455734
0.000436088
0.00042866
0.000424112
0.000415336
0.000395077
0.000345286
0.000345781
0.000904714
0.00111547
0.00129024
0.0014767
0.00168995
0.00190344
0.00208068
0.00223984
0.00237238
0.0024623
0.0024615
0.00234696
0.00214498
0.00184187
0.00160778
0.00142945
0.00126167
0.00102413
0.000375389
0.00033403
0.000991718
0.00132031
0.00160301
0.00187473
0.00213323
0.00234026
0.00251329
0.00267136
0.00280758
0.00290292
0.00288667
0.00274108
0.002519
0.00223295
0.00189877
0.00158675
0.00130196
0.00097037
0.000363554
0.000365194
0.00075754
0.0010748
0.00137213
0.00165941
0.0019387
0.002213
0.0024308
0.00263042
0.00280056
0.00290467
0.00284193
0.00263167
0.00237463
0.00210374
0.00175974
0.00140035
0.00106213
0.00073408
0.000377921
0.000460139
0.000661883
0.000849636
0.0010485
0.00125813
0.00147823
0.00173872
0.00207961
0.00241776
0.00270518
0.00286662
0.00275763
0.0024503
0.00211533
0.00179645
0.0014847
0.00117145
0.000891901
0.000662595
0.000438393
0.000578334
0.000817342
0.000896644
0.000992571
0.00111186
0.00125968
0.00146292
0.00177651
0.00221737
0.0026542
0.00290921
0.00276678
0.00236508
0.00194913
0.00159205
0.00131784
0.0010853
0.000902398
0.000772301
0.000497495
0.000678198
0.00106783
0.00115942
0.0012439
0.00137513
0.00155491
0.00180092
0.00213571
0.00254777
0.00294131
0.0031624
0.00296482
0.0025362
0.00211266
0.00174114
0.00144226
0.00122284
0.00108345
0.000989661
0.000551896
0.000761565
0.00131116
0.00163866
0.00190583
0.00216874
0.00245268
0.00274877
0.00302377
0.00325637
0.00344007
0.00352341
0.00336366
0.00308423
0.00276128
0.00238074
0.00198987
0.00165717
0.00140383
0.00113429
0.000608194
0.000840738
0.00143688
0.00212476
0.00284951
0.00321651
0.00350286
0.00368331
0.00374515
0.00372657
0.00367977
0.00366796
0.00363408
0.00358979
0.00347542
0.00322861
0.00283758
0.00234596
0.0017352
0.00116763
0.00067014
0.000904889
0.00102112
0.00112065
0.00120797
0.00128835
0.00135928
0.00141931
0.00146871
0.00150674
0.00152736
0.00148941
0.00143333
0.00136892
0.00129697
0.00121656
0.00112784
0.00103332
0.000938556
0.000838422
0.000727248
0.000325589
0.000370993
0.00038432
0.00039063
0.000401535
0.000419142
0.000451929
0.000496904
0.00053534
0.000558021
0.000563378
0.000548532
0.000512388
0.000475216
0.000461725
0.000456344
0.000448766
0.000434185
0.000405375
0.000343452
0.000344107
0.000994994
0.00126941
0.00147669
0.00168995
0.00193358
0.00215591
0.00233912
0.00247027
0.00257452
0.00266981
0.00268951
0.00257821
0.00235632
0.00209548
0.00186166
0.00165343
0.00143192
0.00111739
0.000371756
0.000337773
0.00113015
0.00152246
0.00183589
0.00213323
0.00240995
0.00264475
0.00283131
0.0029692
0.00308353
0.00320498
0.00322642
0.00308527
0.00282175
0.0025067
0.00216711
0.00185913
0.00154841
0.00115071
0.000362871
0.000366953
0.000853473
0.00125117
0.00160246
0.0019387
0.00227808
0.00258572
0.00284147
0.00304768
0.00320905
0.00332879
0.0032822
0.00305295
0.00273683
0.00239241
0.00199978
0.00160929
0.00122322
0.000819933
0.000378972
0.000470526
0.000671889
0.00091714
0.00118872
0.00147823
0.00180706
0.00221884
0.00264452
0.00301482
0.00330069
0.00344731
0.00329795
0.00292371
0.00250479
0.00209738
0.00169827
0.00131906
0.00097722
0.000691757
0.000448112
0.000601349
0.000820982
0.000906369
0.00105611
0.00125968
0.00153114
0.00192159
0.00244569
0.00299382
0.00344636
0.00364496
0.00339217
0.00286725
0.00235136
0.00190416
0.00153004
0.00121185
0.000964345
0.000790785
0.000511289
0.00070876
0.0011542
0.00121328
0.00134297
0.00155491
0.00184714
0.002255
0.00279044
0.00335782
0.0038107
0.0039636
0.00361813
0.00302122
0.00248705
0.0020453
0.0016768
0.0013801
0.00117459
0.00105076
0.000573272
0.000796859
0.0014919
0.00185592
0.00214421
0.00245268
0.00281151
0.00320607
0.00359827
0.00393879
0.00415981
0.0041784
0.00386877
0.00345582
0.00306211
0.00265065
0.00223596
0.00187177
0.0015749
0.0012636
0.000634997
0.00088373
0.00162588
0.00244134
0.00311991
0.00350286
0.00380323
0.00399122
0.00408152
0.00412299
0.00412448
0.00406795
0.00392794
0.00382339
0.00370136
0.00346476
0.00307925
0.00258708
0.0019714
0.00129035
0.000701201
0.000945872
0.00107178
0.00117798
0.00127214
0.00135928
0.00143737
0.00150737
0.00157071
0.00162593
0.00166223
0.00161608
0.00153951
0.00145767
0.00137254
0.00128191
0.00118477
0.00108252
0.000980983
0.00087557
0.000758256
0.00032623
0.000384355
0.000406415
0.000416764
0.000428887
0.000451929
0.000490757
0.000537844
0.000568109
0.000581913
0.000583868
0.000570044
0.00054399
0.000517821
0.000502251
0.000487247
0.000469739
0.000446878
0.000410574
0.00034103
0.000344929
0.00105252
0.00138815
0.00164819
0.00190344
0.00215591
0.00238423
0.00252328
0.00258565
0.00262834
0.00275008
0.00282977
0.00276501
0.00254544
0.00226999
0.00201839
0.00178369
0.0015242
0.00115631
0.000366149
0.000349817
0.00114202
0.0016214
0.00199963
0.00234026
0.00264475
0.00288833
0.00304941
0.00314041
0.00318663
0.00332316
0.00341365
0.00334629
0.00309634
0.00274732
0.00240266
0.00208307
0.00173243
0.00127576
0.000370554
0.000382429
0.000928605
0.00141444
0.00182338
0.002213
0.00258572
0.00291053
0.00318209
0.00340739
0.00352941
0.00359951
0.0035505
0.00338078
0.00306337
0.0026637
0.00223478
0.0018118
0.00137752
0.000900738
0.000383249
0.000490353
0.000687924
0.00098244
0.00133639
0.00173872
0.00221884
0.00271847
0.00318518
0.00363077
0.00391452
0.00392206
0.00367204
0.00331836
0.00286782
0.00238451
0.00190333
0.00146081
0.00105676
0.000715532
0.000454265
0.000624059
0.000839678
0.000933463
0.00114353
0.00146292
0.00192159
0.00252814
0.00319048
0.00386022
0.00432474
0.00430899
0.0038713
0.00331791
0.00273222
0.00219854
0.00173238
0.00133361
0.00102094
0.000804654
0.000521462
0.000731622
0.00122729
0.00129585
0.00148578
0.00180092
0.002255
0.00288645
0.00361344
0.00428547
0.00473087
0.00466989
0.00415497
0.0034774
0.00283417
0.00232165
0.00189682
0.00153402
0.00126064
0.00109378
0.000588008
0.000822838
0.00162469
0.00204346
0.00237616
0.00274877
0.00320607
0.00374193
0.00428478
0.00469544
0.00491495
0.00478702
0.00434129
0.00376901
0.00327778
0.00284441
0.00242861
0.00205149
0.00171704
0.00136174
0.000652567
0.000914804
0.00176788
0.00266811
0.00328722
0.00368331
0.00399122
0.00421446
0.00440148
0.00459102
0.00468737
0.0045601
0.00421673
0.00396767
0.00379457
0.0035592
0.00318868
0.00270985
0.00212133
0.00136996
0.000722174
0.000977177
0.00111161
0.00122401
0.001325
0.00141931
0.00150737
0.00159235
0.00167681
0.00175791
0.00181618
0.0017621
0.00165439
0.00154647
0.00144255
0.00133841
0.00123123
0.00112139
0.00101329
0.000903189
0.000780783
0.000327625
0.000395299
0.000426138
0.000445401
0.000466216
0.000496904
0.000537844
0.000574142
0.00059376
0.000592314
0.000599033
0.000598912
0.000588756
0.000567648
0.000538771
0.000510184
0.000483434
0.000454476
0.000413473
0.000339416
0.000351621
0.00109611
0.00149211
0.00179409
0.00208068
0.00233912
0.00252328
0.00260269
0.00259378
0.00254852
0.0027113
0.00287936
0.00288735
0.00271515
0.00244512
0.00215986
0.00188437
0.00158677
0.00117518
0.000364007
0.000366027
0.00112501
0.00167212
0.0021178
0.00251329
0.00283131
0.00304941
0.00319648
0.00326766
0.00324599
0.00338519
0.00346531
0.00348495
0.00331818
0.00297958
0.00258979
0.00220325
0.00178491
0.00125547
0.000370902
0.000408343
0.000934611
0.00147811
0.00196654
0.0024308
0.00284147
0.00318209
0.00353312
0.00383415
0.00396288
0.00399168
0.00374458
0.00356497
0.003332
0.00293189
0.00247167
0.00201939
0.0015453
0.00100062
0.00038708
0.000512413
0.000724864
0.00108558
0.00155011
0.00207961
0.00264452
0.00318518
0.00381108
0.00440734
0.00473077
0.00465042
0.00405842
0.00358146
0.00319297
0.00268329
0.00212879
0.0016089
0.00113623
0.000738593
0.000457537
0.000638298
0.000868775
0.000987747
0.00128393
0.00177651
0.00244569
0.00319048
0.0040717
0.00492907
0.00540709
0.00522698
0.00439162
0.00366727
0.00310052
0.00250173
0.00193935
0.00145677
0.00107616
0.000818185
0.000526948
0.000741908
0.00126811
0.00139614
0.00167934
0.00213571
0.00279044
0.00361344
0.00452338
0.00538762
0.00582039
0.00558136
0.00469259
0.00388077
0.00318504
0.0025881
0.00210185
0.00167823
0.00133718
0.00111456
0.000594258
0.000834844
0.00167347
0.00218793
0.00257581
0.00302377
0.00359827
0.00428478
0.0049696
0.00557038
0.00585819
0.00566213
0.00487434
0.00409455
0.00345175
0.00297258
0.00256111
0.00218127
0.00181747
0.001409
0.000659023
0.000930544
0.00184304
0.00281541
0.00334371
0.00374515
0.00408152
0.00440148
0.00479383
0.00523298
0.00545539
0.00531298
0.00463943
0.00409797
0.00379421
0.00353086
0.00317794
0.00272721
0.0022009
0.00139404
0.00073041
0.000998212
0.00113953
0.00125747
0.00136532
0.00146871
0.00157071
0.00167681
0.00179108
0.00190758
0.00199118
0.00193571
0.00178415
0.00163802
0.00150777
0.00138581
0.00126626
0.00114791
0.00103366
0.000919546
0.000793473
0.000328779
0.000404578
0.000442669
0.000470256
0.000499806
0.00053534
0.000568109
0.00059376
0.000594952
0.000613091
0.000634021
0.000624504
0.00063074
0.000606912
0.000566954
0.000527623
0.000493577
0.000459824
0.000415304
0.000337828
0.000360002
0.00114728
0.00159938
0.00194073
0.00223984
0.00247027
0.00258565
0.00259378
0.00251593
0.00246162
0.00267553
0.00288127
0.00293887
0.00283338
0.00258434
0.0022761
0.0019654
0.00163065
0.00118104
0.000364043
0.000382226
0.00113311
0.0017383
0.00224431
0.00267136
0.0029692
0.00314041
0.00326766
0.00335083
0.00358882
0.00379115
0.00356178
0.00349748
0.00341993
0.00314128
0.00272492
0.00227438
0.00179118
0.00120638
0.000374993
0.000431149
0.00093698
0.00152507
0.00210017
0.00263042
0.00304768
0.00340739
0.00383415
0.00421968
0.00462247
0.00475448
0.00417205
0.00368153
0.00347033
0.0031463
0.0026602
0.00214811
0.00161887
0.00102746
0.000395608
0.000525624
0.000779437
0.00120558
0.00177848
0.00241776
0.00301482
0.00363077
0.00440734
0.00506529
0.00550653
0.00555476
0.00478609
0.0038608
0.00341348
0.0029741
0.00238857
0.00179983
0.00124918
0.00078196
0.000459285
0.000637867
0.000897347
0.00109199
0.00153216
0.00221737
0.00299382
0.00386022
0.00492907
0.00577541
0.00613156
0.00617748
0.00529197
0.0040481
0.00339588
0.00281936
0.00217357
0.00159545
0.00113808
0.000833965
0.000527455
0.000737036
0.00126368
0.00149359
0.00192046
0.00254777
0.00335782
0.00428547
0.00538762
0.00624195
0.00645362
0.00653465
0.00559481
0.00426352
0.00350899
0.0028639
0.00230414
0.00181278
0.00140004
0.00111103
0.0005916
0.000831189
0.00166338
0.00226117
0.00272105
0.00325637
0.00393879
0.00469544
0.00557038
0.00632258
0.00649858
0.00662849
0.00567171
0.00441958
0.00362161
0.00306596
0.00264578
0.00225957
0.0018652
0.0013982
0.000653327
0.000930629
0.00185169
0.00284574
0.00330998
0.00372657
0.00412299
0.00459102
0.00523298
0.00591592
0.00616155
0.00622516
0.00525624
0.00428428
0.00376088
0.00342624
0.00308087
0.00266158
0.00218621
0.00136495
0.000723892
0.00100803
0.00115465
0.00127791
0.00139237
0.00150674
0.00162593
0.00175791
0.00190758
0.00206238
0.00215652
0.00212518
0.0019267
0.00173066
0.00156602
0.00142189
0.00128786
0.00116012
0.00104031
0.00092287
0.000794247
0.00032937
0.000412548
0.000456527
0.000490258
0.000524412
0.000558021
0.000581913
0.000592314
0.000613091
0.00062353
0.000671309
0.000679862
0.000658667
0.000629156
0.000583562
0.000539371
0.000500947
0.000463685
0.00041639
0.000336204
0.000367195
0.00120311
0.00169986
0.00207053
0.00237238
0.00257452
0.00262834
0.00254852
0.00246162
0.00152318
0.00174366
0.00294406
0.00285894
0.00285228
0.0026519
0.00234619
0.00201728
0.00165571
0.00117627
0.000366995
0.000394061
0.00116392
0.0018153
0.00236488
0.00280758
0.00308353
0.00318663
0.00324599
0.00358882
0.00232683
0.00272058
0.00409228
0.00342835
0.00337546
0.00319261
0.00278232
0.00229807
0.00177143
0.00115403
0.000384001
0.000443591
0.000964522
0.00159556
0.00223511
0.00280056
0.00320905
0.00352941
0.00396288
0.00462247
0.00306222
0.00367776
0.0050168
0.0038273
0.00347925
0.00324729
0.00276678
0.002204
0.00161661
0.00100129
0.000409041
0.000527743
0.000836944
0.00133726
0.00200503
0.00270518
0.00330069
0.00391452
0.00473077
0.00550653
0.00374665
0.00464157
0.00573267
0.00418869
0.00354303
0.00318336
0.00260564
0.00197205
0.00136133
0.000834737
0.000461475
0.000627838
0.000920546
0.00124677
0.00185435
0.0026542
0.00344636
0.00432473
0.00540709
0.00613156
0.00441435
0.00553774
0.00621159
0.00445008
0.00361406
0.0030999
0.00242948
0.00176489
0.00121748
0.000855096
0.000524887
0.000722763
0.00122845
0.00158188
0.00216429
0.00294131
0.0038107
0.00473087
0.00582039
0.00645362
0.00502622
0.00623929
0.00639773
0.00460134
0.00374175
0.00312226
0.00250686
0.00194229
0.00145
0.00108962
0.000584339
0.000816366
0.00160856
0.00225605
0.00282122
0.00344007
0.00415981
0.00491495
0.00585819
0.00649858
0.00558533
0.00667587
0.00630913
0.004627
0.00374827
0.00315805
0.00271685
0.00230661
0.00186786
0.00134252
0.000641935
0.000917649
0.00180751
0.00278093
0.00324883
0.00367977
0.00412448
0.00468737
0.00545539
0.00616155
0.00587932
0.00655591
0.00570839
0.00441892
0.00371868
0.00331946
0.00297308
0.00257041
0.00210911
0.00130197
0.000708672
0.0010046
0.00115471
0.0012822
0.00140278
0.00152736
0.00166223
0.00181618
0.00199118
0.00215652
0.00214909
0.00224432
0.0020455
0.00180656
0.00160756
0.00144072
0.00129223
0.00115544
0.00103088
0.000911427
0.000782049
0.000329896
0.000419298
0.000466833
0.000502284
0.00053465
0.000563378
0.000583868
0.000599033
0.000634021
0.000671309
0.000699711
0.000687755
0.000660839
0.000625835
0.000583844
0.000542333
0.00050376
0.000464899
0.000415856
0.000334061
0.000372586
0.00124882
0.00177365
0.00215867
0.0024623
0.00266981
0.00275008
0.0027113
0.00267553
0.00174366
0.00193948
0.00308932
0.00293637
0.0028775
0.0026539
0.00235338
0.00202591
0.00165328
0.00115866
0.000368417
0.000402898
0.00119286
0.00187264
0.00244368
0.00290292
0.00320498
0.00332316
0.00338519
0.00379115
0.00272058
0.00312862
0.00418401
0.00350557
0.00343743
0.00318303
0.0027559
0.00226647
0.00172521
0.00110143
0.000390794
0.000453404
0.000995172
0.00165445
0.00232006
0.00290467
0.00332879
0.00359951
0.00399168
0.00475448
0.00367776
0.00428697
0.00500913
0.00384912
0.00357349
0.00325827
0.00275018
0.00217576
0.00157042
0.000960623
0.000420981
0.00053276
0.000883136
0.00144195
0.0021544
0.00286662
0.00344731
0.00392206
0.00465042
0.00555476
0.00464157
0.00535498
0.00563667
0.00417524
0.00368589
0.0032731
0.00269048
0.00205498
0.00142378
0.000873279
0.000465656
0.000627543
0.000947599
0.00138653
0.00209231
0.00290921
0.00364496
0.00430899
0.00522698
0.00617748
0.00553774
0.00622922
0.00603187
0.00442753
0.00380127
0.00327051
0.00261453
0.00192904
0.00131363
0.000882141
0.000523166
0.000720146
0.00121122
0.00165752
0.00233541
0.0031624
0.0039636
0.00466989
0.00558136
0.00653465
0.00623929
0.00679044
0.00614888
0.00457459
0.00389284
0.00329174
0.00266793
0.00205295
0.00148543
0.00106563
0.000580011
0.000811099
0.00155023
0.00221999
0.00288137
0.00352341
0.0041784
0.00478702
0.00566212
0.00662849
0.00667587
0.00701945
0.0060209
0.00453838
0.00377139
0.00322917
0.00278617
0.00234286
0.00185208
0.001282
0.000637168
0.000908736
0.00175359
0.00274577
0.00325059
0.00366796
0.00406795
0.0045601
0.00531298
0.00622516
0.00655591
0.00660993
0.00542515
0.0042778
0.00369052
0.00331927
0.00296294
0.00254681
0.00206439
0.0012593
0.000703747
0.000989558
0.00113411
0.00125668
0.001372
0.00148941
0.00161608
0.0017621
0.00193571
0.00212518
0.00224432
0.00222183
0.00197462
0.00174233
0.00155589
0.00139895
0.00125871
0.00112984
0.00101246
0.000899077
0.000775783
0.000329748
0.000419693
0.000466403
0.000498912
0.000525538
0.000548532
0.000570044
0.000598912
0.000624504
0.000679862
0.000687755
0.000662389
0.000638493
0.000604898
0.000568626
0.000531724
0.000496404
0.000459027
0.000410867
0.000330902
0.000373561
0.00126078
0.00178495
0.00216249
0.0024615
0.00268951
0.00282977
0.00287936
0.00288127
0.00294406
0.00308932
0.00299016
0.00298582
0.00282886
0.00257421
0.00228747
0.00197789
0.00161456
0.00112523
0.000366107
0.000405745
0.00119688
0.00187265
0.00243042
0.00288667
0.00322642
0.00341365
0.00346531
0.00356178
0.00409228
0.00418401
0.00364807
0.00355254
0.00340442
0.00306396
0.00264402
0.00217988
0.00165656
0.00105177
0.000390756
0.000457048
0.00100284
0.00164973
0.00228366
0.00284193
0.0032822
0.0035505
0.00374458
0.00417205
0.0050168
0.00500913
0.00410884
0.00372192
0.00350673
0.00310011
0.00260787
0.00207133
0.00149688
0.000922151
0.000424288
0.000534745
0.000902312
0.00145702
0.00211947
0.00275763
0.00329795
0.00367204
0.00405842
0.00478609
0.00573267
0.00563667
0.00451961
0.00389992
0.00357491
0.00310142
0.00256249
0.00198592
0.00139808
0.000877334
0.000468958
0.000625796
0.00096104
0.00141755
0.00207457
0.00276678
0.00339217
0.0038713
0.00439162
0.00529197
0.00621159
0.00603187
0.00482618
0.00409829
0.00366274
0.00313577
0.00257237
0.00196808
0.00137179
0.000905769
0.000521883
0.000714875
0.00119842
0.00164525
0.00227878
0.00296482
0.00361813
0.00415497
0.00469259
0.00559481
0.00639773
0.00614888
0.00498876
0.00426232
0.00374017
0.00321262
0.00267946
0.00209582
0.00150448
0.00104983
0.000576856
0.000802728
0.0014999
0.00212557
0.0027989
0.00336366
0.00386877
0.00434129
0.00487434
0.00567171
0.00630913
0.0060209
0.00495161
0.00416375
0.00361194
0.0032017
0.00280862
0.00235567
0.00181662
0.00123224
0.000633763
0.000896055
0.0016974
0.00261429
0.00325521
0.00363408
0.00392794
0.00421673
0.00463943
0.00525624
0.00570839
0.00542515
0.00454732
0.00395716
0.00362757
0.00333943
0.00299276
0.0025626
0.00199926
0.00124415
0.000699268
0.000968011
0.00110565
0.00122202
0.0013293
0.00143333
0.00153951
0.00165439
0.00178415
0.0019267
0.0020455
0.00197462
0.00178855
0.00161964
0.00147319
0.0013405
0.0012166
0.00109985
0.000990705
0.000883221
0.000765868
0.000327695
0.000410226
0.000452408
0.000478132
0.00049582
0.000512388
0.00054399
0.000588756
0.00063074
0.000658667
0.000660839
0.000638493
0.000607715
0.000573127
0.000538887
0.000508087
0.000477691
0.000444212
0.000400198
0.000327105
0.000367355
0.00122488
0.0017213
0.00207037
0.00234696
0.00257821
0.00276501
0.00288735
0.00293887
0.00285894
0.00293637
0.00298582
0.00288997
0.00267948
0.00242659
0.00216162
0.00187596
0.00153952
0.0010788
0.000356219
0.000397341
0.00116319
0.00180603
0.00232143
0.00274108
0.00308527
0.00334629
0.00348495
0.00349748
0.00342835
0.00350557
0.00355254
0.00347665
0.00321355
0.0028658
0.00248509
0.00206714
0.00158617
0.00101425
0.000378703
0.000446863
0.000969428
0.0015682
0.00213588
0.00263167
0.00305295
0.00338078
0.00356497
0.00368153
0.0038273
0.00384912
0.00372192
0.00357659
0.00325592
0.00285125
0.00241419
0.00193808
0.00141749
0.000883221
0.000412059
0.000523702
0.0008714
0.0013573
0.00191817
0.0024503
0.00292371
0.00331836
0.00358146
0.0038608
0.00418869
0.00417524
0.00389992
0.00364808
0.00325489
0.0028051
0.00233118
0.00182167
0.00129867
0.000836624
0.000460941
0.000614486
0.000933912
0.00130412
0.00182285
0.00236508
0.00286725
0.00331791
0.00366727
0.0040481
0.00445008
0.00442753
0.00409829
0.00375214
0.00329901
0.00282903
0.00234001
0.00181364
0.00129862
0.000889642
0.000516791
0.000701461
0.00116526
0.00152696
0.00201688
0.0025362
0.00302122
0.0034774
0.00388077
0.00426352
0.00460134
0.00457459
0.00426232
0.00385405
0.00339592
0.00296125
0.00250499
0.00198953
0.00145895
0.0010346
0.000571263
0.000785665
0.00144601
0.00199769
0.00259961
0.00308423
0.00345582
0.00376901
0.00409455
0.00441958
0.004627
0.00453838
0.00416375
0.00374527
0.00340784
0.00309731
0.00274465
0.00230806
0.0017583
0.00120132
0.000627198
0.000874061
0.00162098
0.00246373
0.003209
0.00358979
0.00382339
0.00396767
0.00409797
0.00428428
0.00441892
0.0042778
0.00395716
0.00374089
0.00356185
0.00332282
0.00299289
0.00256606
0.00193383
0.00123241
0.000690402
0.00093892
0.00106797
0.00117737
0.00127613
0.00136892
0.00145767
0.00154647
0.00163802
0.00173066
0.00180656
0.00174233
0.00161964
0.00149865
0.00138333
0.00127212
0.00116454
0.0010606
0.000960617
0.000860005
0.000749751
0.000325341
0.000393891
0.00042695
0.000444493
0.000455734
0.000475216
0.000517821
0.000567648