/*--------------------------------*- C++ -*----------------------------------*\
  =========                 |
  \\      /  F ield         | OpenFOAM: The Open Source CFD Toolbox
   \\    /   O peration     | Website:  https://openfoam.org
    \\  /    A nd           | Version:  9
     \\/     M anipulation  |
\*---------------------------------------------------------------------------*/
FoamFile
{
    format      ascii;
    class       volVectorField;
    location    "400";
    object      U;
}
// * * * * * * * * * * * * * * * * * * * * * * * * * * * * * * * * * * * * * //

dimensions      [0 1 -1 0 0 0 0];

internalField   nonuniform List<vector> 
4000
(
(-0.00874326 0.0157638 -0.00874326)
(-0.0147522 0.00835393 -0.00549101)
(-0.0178328 0.00337586 -0.00296158)
(-0.0180886 0.000617331 -0.00144321)
(-0.0169223 -0.000953378 -0.000632645)
(-0.0148435 -0.00190978 -0.000223673)
(-0.012443 -0.00248479 2.67029e-05)
(-0.00965331 -0.00298446 0.000187967)
(-0.00629635 -0.0034214 0.000233207)
(-0.00243011 -0.00376899 0.000182632)
(0.00208366 -0.00386919 5.7152e-05)
(0.00666472 -0.00318556 -0.000126376)
(0.0099597 -0.00178413 -0.000306962)
(0.0118868 -7.72667e-05 -0.000636635)
(0.0124189 0.00113292 -0.00126442)
(0.0122056 0.00200689 -0.00216947)
(0.0121566 0.0031592 -0.003402)
(0.0120769 0.00538817 -0.00513252)
(0.0105284 0.00941749 -0.00755636)
(0.0066987 0.0154628 -0.00981754)
(-0.00389131 0.0261898 -0.00389131)
(-0.00616655 0.0164577 -0.00268502)
(-0.00938668 0.00866128 -0.00196523)
(-0.0113527 0.00353777 -0.00160604)
(-0.0122667 0.000304912 -0.00115865)
(-0.0118129 -0.00191892 -0.000551392)
(-0.0102922 -0.00338838 1.05462e-06)
(-0.00866712 -0.00476087 0.000441851)
(-0.0066116 -0.00605192 0.000662711)
(-0.00402057 -0.00709812 0.000703803)
(-0.000969335 -0.0075649 0.000659989)
(0.00251836 -0.00654356 0.000599228)
(0.00553774 -0.00397477 0.000602125)
(0.00752568 -0.000389156 0.000514033)
(0.00858432 0.00327677 9.76072e-05)
(0.00838453 0.00536739 -0.000433014)
(0.00754002 0.00733461 -0.00104123)
(0.00657219 0.0108916 -0.00186592)
(0.00474941 0.0171844 -0.00307884)
(0.0033896 0.0254971 -0.00387035)
(0.00100944 0.0309092 0.00100944)
(0.00332149 0.0214369 0.00100781)
(0.00268156 0.0139195 0.000653145)
(0.000918153 0.00817975 0.000141829)
(-0.00155434 0.00263733 -0.000115716)
(-0.0039222 -0.00240873 -8.58177e-05)
(-0.00342278 -0.00543632 0.000699586)
(-0.00313771 -0.00748635 0.00147007)
(-0.00287342 -0.00935159 0.00173563)
(-0.00230763 -0.0109066 0.00171275)
(-0.00132675 -0.0117349 0.00164966)
(-9.8066e-05 -0.0109789 0.00168472)
(0.00113952 -0.00848004 0.00196743)
(0.00198569 -0.00462626 0.00229543)
(0.00258957 0.00043322 0.0020197)
(0.00356701 0.00441148 0.00118556)
(0.00240134 0.00807257 0.000697723)
(0.000726069 0.0138186 0.000262124)
(-0.000930034 0.0219526 -0.000100559)
(0.000213499 0.0308492 0.000201809)
(0.00727779 0.0232972 0.00727779)
(0.0143003 0.0184832 0.00664231)
(0.0175625 0.0140759 0.00555427)
(0.017745 0.00991847 0.00440481)
(0.0163049 0.00554961 0.00353356)
(0.0145915 0.0011071 0.00325258)
(0.0111848 -0.00392521 0.00375941)
(0.00774358 -0.00788761 0.00410455)
(0.00469217 -0.0107208 0.00381027)
(0.00218054 -0.0127398 0.00330141)
(0.00025164 -0.014005 0.00293337)
(-0.000995903 -0.0136624 0.00289332)
(-0.00200607 -0.0116738 0.0034256)
(-0.00337193 -0.0082696 0.00427996)
(-0.00498923 -0.00365713 0.00453301)
(-0.00526083 0.00189985 0.00315159)
(-0.00611232 0.00746254 0.00244247)
(-0.00776107 0.0140683 0.00233038)
(-0.00814838 0.0209303 0.00268913)
(-0.0042777 0.0270637 0.00360472)
(0.00705117 -0.0199739 0.00705117)
(0.0164112 -0.011216 0.00806627)
(0.0220519 -0.0053444 0.00838922)
(0.0244981 -0.00229614 0.0083801)
(0.0243416 -0.00228578 0.00843016)
(0.0223508 -0.00427518 0.00848317)
(0.0185767 -0.00716078 0.00793406)
(0.0140056 -0.0102327 0.00675001)
(0.00955453 -0.012796 0.00543586)
(0.00548705 -0.0146224 0.0044698)
(0.00180732 -0.0163115 0.00374429)
(-0.000716881 -0.0167539 0.00347046)
(-0.00282234 -0.0156007 0.00405294)
(-0.00545444 -0.0129993 0.00536992)
(-0.00898014 -0.00881834 0.00679433)
(-0.0124713 -0.00280693 0.0072432)
(-0.0142672 0.0046636 0.00588814)
(-0.0152588 0.00991011 0.0053789)
(-0.0141282 0.0117007 0.00579639)
(-0.00666066 0.00450775 0.00675908)
(0.00287626 -0.0327773 0.00287626)
(0.00830189 -0.0262011 0.00479292)
(0.00974083 -0.0212996 0.0061989)
(0.0103563 -0.0182253 0.0070813)
(0.00946909 -0.0172816 0.00723126)
(0.00799714 -0.0179225 0.00651593)
(0.00648766 -0.0193234 0.00514903)
(0.00545414 -0.020438 0.00374775)
(0.00442337 -0.0207198 0.00292983)
(0.00311574 -0.0205257 0.0026798)
(0.00132295 -0.0216832 0.00214898)
(0.000458896 -0.0224611 0.00185529)
(-0.000233003 -0.0221113 0.00228366)
(-0.00145281 -0.0205152 0.00344205)
(-0.00376904 -0.0175991 0.00515257)
(-0.00698258 -0.0131747 0.00705219)
(-0.00987 -0.00775707 0.00836842)
(-0.011158 -0.00287616 0.00814156)
(-0.00893131 -0.0066326 0.00743915)
(-0.000680081 -0.0205507 0.00620921)
(0.000658773 -0.0403188 0.000658773)
(0.00290569 -0.0339926 0.00254794)
(-9.15722e-06 -0.029428 0.00319343)
(-0.00157412 -0.0273394 0.00303456)
(-0.00325194 -0.0272673 0.00224935)
(-0.00383951 -0.0282927 0.000959938)
(-0.00337043 -0.0293975 -0.000489794)
(-0.00187301 -0.0297373 -0.00153249)
(-0.000549967 -0.0291161 -0.00178351)
(0.000649108 -0.0280796 -0.00145351)
(0.00123102 -0.0289423 -0.00179274)
(0.00274856 -0.0295649 -0.00191277)
(0.00417548 -0.0293547 -0.00148416)
(0.00505832 -0.0282163 -0.000568428)
(0.00498867 -0.026026 0.000750776)
(0.00390862 -0.0228712 0.00237905)
(0.00222168 -0.0193834 0.00409008)
(0.00167502 -0.0174603 0.00523938)
(0.00095498 -0.0199576 0.00507591)
(0.00294319 -0.0273334 0.0044086)
(-0.00159394 -0.0397249 -0.00159394)
(-0.00244331 -0.0351383 -0.000163253)
(-0.00820546 -0.0325829 -0.000733948)
(-0.0109926 -0.0322139 -0.00188521)
(-0.0125738 -0.0329085 -0.00336836)
(-0.0122577 -0.0340597 -0.00491485)
(-0.01017 -0.0349119 -0.00629955)
(-0.00681301 -0.0349529 -0.00716569)
(-0.00357613 -0.0342484 -0.00731623)
(-0.000153697 -0.033204 -0.00678948)
(0.00242194 -0.0337333 -0.00699307)
(0.00583046 -0.03394 -0.00689659)
(0.00901879 -0.0334701 -0.00633478)
(0.0115469 -0.0323191 -0.00541679)
(0.0130469 -0.0303847 -0.00418433)
(0.0132318 -0.027811 -0.0027194)
(0.0121795 -0.0251877 -0.00107092)
(0.0105143 -0.0233955 0.000410182)
(0.00686422 -0.024375 0.00165285)
(0.00535133 -0.0289711 0.00241128)
(-0.00510137 -0.0314319 -0.00510137)
(-0.00904848 -0.0287643 -0.00453917)
(-0.0162473 -0.027953 -0.00618489)
(-0.0196154 -0.0285906 -0.00815482)
(-0.0208045 -0.0296513 -0.0102644)
(-0.0196097 -0.0307296 -0.0123339)
(-0.016307 -0.0315777 -0.0140868)
(-0.0114186 -0.0319071 -0.0151908)
(-0.00620965 -0.0314972 -0.015415)
(-0.000205122 -0.0307195 -0.0146927)
(0.00471153 -0.0310186 -0.0147961)
(0.00989907 -0.0309207 -0.0144296)
(0.014572 -0.0301753 -0.0134922)
(0.0181538 -0.0288841 -0.0121617)
(0.020432 -0.0271849 -0.0105308)
(0.0212605 -0.0252452 -0.00867708)
(0.0204924 -0.0232565 -0.00668532)
(0.0181148 -0.0216479 -0.00464575)
(0.0127237 -0.021525 -0.00245326)
(0.00834676 -0.0237927 -0.000240989)
(-0.0103472 -0.0201491 -0.0103472)
(-0.0179606 -0.017249 -0.0122842)
(-0.0259884 -0.015963 -0.0157421)
(-0.0296159 -0.0156676 -0.019253)
(-0.030537 -0.0155663 -0.0227519)
(-0.0287584 -0.015389 -0.0260605)
(-0.024465 -0.0149525 -0.0289877)
(-0.0180046 -0.0140969 -0.0312299)
(-0.0103858 -0.0127893 -0.0322694)
(-0.000166869 -0.0114101 -0.0317657)
(0.00877233 -0.0126656 -0.0312821)
(0.0161104 -0.0137804 -0.0297624)
(0.0222113 -0.0144043 -0.0275176)
(0.0265691 -0.0146108 -0.0248912)
(0.0291492 -0.0144692 -0.0220252)
(0.0299566 -0.0140489 -0.0189715)
(0.0289106 -0.0134724 -0.015744)
(0.0258583 -0.0130016 -0.0123456)
(0.0192499 -0.0133687 -0.00856167)
(0.0120868 -0.0154252 -0.0042825)
(-0.00549101 0.00835393 -0.0147522)
(-0.010839 0.00591565 -0.010839)
(-0.0142732 0.00349964 -0.00694868)
(-0.0154662 0.00156322 -0.00397485)
(-0.0152715 -9.25998e-05 -0.00190588)
(-0.0139471 -0.00146317 -0.000589087)
(-0.0117612 -0.00247074 0.000251794)
(-0.00899243 -0.00326299 0.000810395)
(-0.00567397 -0.00391546 0.0011083)
(-0.00189722 -0.00442222 0.00116918)
(0.00251895 -0.00459464 0.000972044)
(0.00686989 -0.00384591 0.000545286)
(0.010024 -0.00224648 -8.25898e-05)
(0.0117915 -0.000240649 -0.00123061)
(0.0121096 0.00115967 -0.0030892)
(0.0115494 0.002104 -0.00543077)
(0.0110147 0.0030025 -0.0082244)
(0.0103123 0.00430765 -0.0115436)
(0.00831737 0.00620411 -0.0153552)
(0.00430458 0.00843481 -0.01849)
(-0.00268502 0.0164577 -0.00616655)
(-0.00539613 0.0121301 -0.00539613)
(-0.00797132 0.00771761 -0.00442977)
(-0.00973181 0.00402343 -0.00351111)
(-0.0106788 0.00104289 -0.00244694)
(-0.0106314 -0.00144361 -0.00126171)
(-0.009423 -0.00355496 -7.3118e-05)
(-0.00773876 -0.00526036 0.000911002)
(-0.00561402 -0.00676113 0.00152098)
(-0.00303905 -0.00796456 0.00180259)
(-8.89584e-05 -0.00848928 0.00186309)
(0.00319066 -0.00743147 0.00183078)
(0.00601223 -0.00468813 0.00178155)
(0.00800435 -0.000854527 0.00142405)
(0.00913931 0.00269683 0.000367811)
(0.00901064 0.00477495 -0.000948438)
(0.00832062 0.00649457 -0.00247971)
(0.00727835 0.00908706 -0.00430347)
(0.00532255 0.013049 -0.00633346)
(0.00249726 0.0175903 -0.00743012)
(0.00100781 0.0214369 0.00332149)
(0.00226121 0.0163842 0.00226121)
(0.00203315 0.0117812 0.00105805)
(0.000612061 0.00753256 0.000121165)
(-0.00146556 0.00307718 -0.000186663)
(-0.00333881 -0.00125671 -6.45826e-05)
(-0.00376861 -0.00494842 0.000885075)
(-0.00328612 -0.00745424 0.00210895)
(-0.00269481 -0.00959793 0.00278077)
(-0.00185433 -0.0113726 0.00302928)
(-0.000778563 -0.0123345 0.00315364)
(0.000478213 -0.0115887 0.00340776)
(0.00170304 -0.00875661 0.00394038)
(0.00278594 -0.0044472 0.00435014)
(0.00399716 0.000669651 0.00384226)
(0.00460627 0.00443182 0.00279038)
(0.00360317 0.00773024 0.00186065)
(0.0019242 0.0122179 0.000973495)
(0.000216281 0.0178736 0.000468183)
(-0.00023161 0.0233209 0.00120112)
(0.00664231 0.0184832 0.0143003)
(0.0125722 0.0154509 0.0125722)
(0.0156614 0.0124406 0.0101444)
(0.0158754 0.00927706 0.00785206)
(0.0144374 0.00567504 0.00617797)
(0.0123567 0.00171282 0.00532917)
(0.00899946 -0.00294429 0.00527281)
(0.00636479 -0.00676608 0.0057847)
(0.00407186 -0.00968612 0.00579181)
(0.00205375 -0.0120418 0.00542806)
(0.000379827 -0.0134983 0.00520462)
(-0.00097226 -0.0131143 0.00547322)
(-0.00220721 -0.010533 0.00646929)
(-0.00333794 -0.00652458 0.00757852)
(-0.00405638 -0.00173378 0.00770368)
(-0.00383782 0.00325466 0.00634699)
(-0.00512453 0.0080962 0.00564744)
(-0.00697106 0.0131377 0.0056762)
(-0.00751799 0.0177487 0.00655929)
(-0.00467803 0.0211726 0.00830671)
(0.00806627 -0.011216 0.0164112)
(0.017052 -0.00343433 0.017052)
(0.0230523 0.00165359 0.0163997)
(0.025749 0.00398957 0.0152021)
(0.0258901 0.00379774 0.0142184)
(0.0246044 0.00220481 0.0136629)
(0.0219217 -0.000112858 0.0130798)
(0.0174459 -0.00304719 0.0119582)
(0.0121674 -0.00633184 0.0104215)
(0.00699159 -0.00945836 0.00893906)
(0.00240225 -0.01175 0.00799644)
(-0.00152922 -0.0121272 0.00794302)
(-0.00504071 -0.0101568 0.00914434)
(-0.00836266 -0.00684839 0.0108839)
(-0.0113057 -0.00279446 0.0120489)
(-0.0131032 0.00186846 0.0117212)
(-0.0141496 0.00668791 0.0107954)
(-0.0152948 0.0101813 0.0108068)
(-0.0142605 0.0101081 0.0119163)
(-0.0074619 0.00171592 0.0136722)
(0.00479292 -0.0262011 0.00830189)
(0.0123566 -0.0185022 0.0123566)
(0.0162544 -0.0122659 0.0149503)
(0.0188143 -0.00712816 0.0163502)
(0.0195734 -0.00412791 0.016831)
(0.0188597 -0.00311229 0.0165606)
(0.0170947 -0.00333249 0.0155655)
(0.0144787 -0.00429722 0.0140173)
(0.0109969 -0.00577928 0.0123013)
(0.00683854 -0.00767094 0.010836)
(0.00237273 -0.00975261 0.00975164)
(-0.0017721 -0.0107616 0.00935326)
(-0.00537205 -0.00993006 0.0102703)
(-0.0086847 -0.00787996 0.0120777)
(-0.0118693 -0.00501502 0.0140387)
(-0.0143754 -0.00148406 0.0154506)
(-0.0155214 0.00227821 0.0155426)
(-0.0151221 0.00362765 0.0149895)
(-0.0118033 -0.00272431 0.0143889)
(-0.00268429 -0.0190857 0.0125827)
(0.00254794 -0.0339926 0.00290569)
(0.00876062 -0.0258142 0.00876062)
(0.00912478 -0.0190353 0.012034)
(0.0095393 -0.0138239 0.0135793)
(0.00919945 -0.0105569 0.0138297)
(0.00871203 -0.00880036 0.0130782)
(0.00804984 -0.00804112 0.0117686)
(0.00714305 -0.00792488 0.0104447)
(0.00562581 -0.00806448 0.00965033)
(0.00340548 -0.00860622 0.00917396)
(0.000725839 -0.0100048 0.00838628)
(-0.00148253 -0.0112136 0.00773544)
(-0.00315208 -0.0114823 0.00813772)
(-0.00461843 -0.0108243 0.00948016)
(-0.00603201 -0.0093694 0.0112861)
(-0.00719344 -0.00736668 0.0131123)
(-0.00768803 -0.00579362 0.0144013)
(-0.00652504 -0.00689374 0.0145407)
(-0.00466799 -0.0137581 0.012786)
(0.00023028 -0.0257851 0.00962502)
(-0.000163253 -0.0351383 -0.00244331)
(0.00453216 -0.0278687 0.00453216)
(0.00154804 -0.0221909 0.0073607)
(0.000452351 -0.0182111 0.00789692)
(-0.000392672 -0.0156416 0.00692623)
(-0.000325349 -0.013958 0.00514665)
(0.00021172 -0.0128855 0.00318244)
(0.000945437 -0.0122584 0.00175317)
(0.00140094 -0.0112227 0.00171247)
(0.00122318 -0.0106018 0.002322)
(0.000574743 -0.0119514 0.00168376)
(0.00070578 -0.0134984 0.000937623)
(0.00118558 -0.0142495 0.00119507)
(0.00150188 -0.0140989 0.00247704)
(0.00162265 -0.0135053 0.00431163)
(0.00155779 -0.0125815 0.00640288)
(0.00117979 -0.0119054 0.00840361)
(0.00138372 -0.0130081 0.00941795)
(-0.000250671 -0.0183032 0.00866721)
(0.00208842 -0.0275257 0.00623097)
(-0.00453917 -0.0287643 -0.00904848)
(-0.00355879 -0.0230284 -0.00355879)
(-0.00938787 -0.0197967 -0.00269834)
(-0.0117578 -0.0184071 -0.00399714)
(-0.012785 -0.017794 -0.00647111)
(-0.0119782 -0.0175373 -0.00936136)
(-0.00960602 -0.0173539 -0.0117086)
(-0.00625319 -0.0170091 -0.0127934)
(-0.00290906 -0.0161262 -0.0123352)
(0.000351952 -0.015536 -0.0110019)
(0.00291851 -0.0163344 -0.011753)
(0.00591748 -0.0168903 -0.0124023)
(0.00874213 -0.0169478 -0.0118357)
(0.0109331 -0.0165628 -0.0103498)
(0.0123554 -0.0158559 -0.00816219)
(0.0128526 -0.0149617 -0.00542489)
(0.0122681 -0.0142834 -0.00255247)
(0.0107503 -0.0143917 -0.00013)
(0.00633835 -0.0169315 0.00137571)
(0.00526694 -0.0226169 0.00111522)
(-0.0122842 -0.017249 -0.0179606)
(-0.0191142 -0.0116751 -0.0191142)
(-0.027302 -0.00840406 -0.0233162)
(-0.0308386 -0.00648626 -0.0282437)
(-0.0318046 -0.00502992 -0.0333661)
(-0.0302167 -0.00371519 -0.0382607)
(-0.0262468 -0.00232884 -0.0426115)
(-0.0199719 -0.000669512 -0.0459532)
(-0.0119378 0.00140777 -0.0475084)
(-0.000396715 0.00339807 -0.0468977)
(0.0101998 0.00133929 -0.0462002)
(0.0177936 -0.000752601 -0.0440176)
(0.0235952 -0.00239942 -0.0406548)
(0.0273312 -0.00369673 -0.0366675)
(0.0292218 -0.00470364 -0.0322837)
(0.0294482 -0.00548411 -0.0275896)
(0.0280259 -0.00620915 -0.022627)
(0.0248466 -0.00722428 -0.0174738)
(0.0180497 -0.00948073 -0.0121614)
(0.0113245 -0.0139636 -0.00734335)
(-0.00296158 0.00337586 -0.0178328)
(-0.00694868 0.00349964 -0.0142732)
(-0.0101253 0.00290184 -0.0101253)
(-0.0118133 0.00197093 -0.00646219)
(-0.0123097 0.000746994 -0.00339624)
(-0.0117225 -0.000644646 -0.00103298)
(-0.0100914 -0.0019171 0.00060776)
(-0.0076731 -0.00294753 0.00170008)
(-0.00464439 -0.00377739 0.00239713)
(-0.00119699 -0.00441686 0.00272668)
(0.00284345 -0.00463552 0.00254577)
(0.00673478 -0.00383441 0.00184624)
(0.00952159 -0.00205218 0.000572766)
(0.0108694 0.000125546 -0.00164941)
(0.0106296 0.00139866 -0.00475675)
(0.0095558 0.0019715 -0.00832331)
(0.00855623 0.00214207 -0.0121601)
(0.00750611 0.00229756 -0.0162101)
(0.00568822 0.00254744 -0.0202565)
(0.00251349 0.00262907 -0.0231486)
(-0.00196523 0.00866128 -0.00938668)
(-0.00442977 0.00771761 -0.00797132)
(-0.00648816 0.00602814 -0.00648816)
(-0.00799882 0.00398639 -0.00510282)
(-0.00887228 0.00172029 -0.00362668)
(-0.00897535 -0.000614678 -0.00204256)
(-0.00812111 -0.00290043 -0.00032444)
(-0.00661349 -0.00484338 0.00119935)
(-0.00462801 -0.00657193 0.00230305)
(-0.00226341 -0.00798197 0.00299022)
(0.000456021 -0.00860413 0.00327805)
(0.00349645 -0.00752575 0.00329244)
(0.00623394 -0.00458276 0.00303464)
(0.00823644 -0.000576659 0.00215825)
(0.00931986 0.00260464 0.00028674)
(0.00911076 0.00425803 -0.00185976)
(0.00832269 0.0051629 -0.00422106)
(0.00710949 0.00629283 -0.00679786)
(0.00518601 0.00802195 -0.00937768)
(0.00209936 0.00987247 -0.0111372)
(0.000653145 0.0139195 0.00268156)
(0.00105805 0.0117812 0.00203315)
(0.000927234 0.0095413 0.000927234)
(-0.000230609 0.00679196 -4.62963e-05)
(-0.00175074 0.00345418 -0.000431731)
(-0.00308707 -0.000211784 -0.000237652)
(-0.00371611 -0.00378574 0.000759245)
(-0.00316357 -0.00665588 0.00222942)
(-0.00239723 -0.00918816 0.00330326)
(-0.00145508 -0.0113121 0.00397268)
(-0.000367003 -0.0125186 0.00440171)
(0.000963186 -0.0118058 0.00487708)
(0.00236391 -0.00866412 0.00548154)
(0.00374529 -0.00391262 0.0057433)
(0.00529024 0.00114437 0.00486095)
(0.00557823 0.00449534 0.00344676)
(0.00460225 0.00689907 0.00206442)
(0.00287047 0.00959421 0.000897001)
(0.00114151 0.0127053 0.000331045)
(-0.000242431 0.0156442 0.000770861)
(0.00555427 0.0140759 0.0175625)
(0.0101444 0.0124406 0.0156614)
(0.0127019 0.0108836 0.0127019)
(0.012841 0.00886201 0.00980729)
(0.0115684 0.00606388 0.00760658)
(0.00973463 0.00256421 0.00632859)
(0.00681799 -0.00191367 0.00564886)
(0.00475823 -0.00604047 0.005961)
(0.00320082 -0.00936794 0.00616917)
(0.00178252 -0.0121284 0.00614804)
(0.000497413 -0.0139152 0.00621208)
(-0.00058893 -0.0136049 0.00678137)
(-0.00154195 -0.0105419 0.00807984)
(-0.0022236 -0.00578244 0.00936484)
(-0.00241023 -0.00039246 0.00948037)
(-0.00238222 0.00441047 0.00828272)
(-0.00386856 0.00818313 0.00769645)
(-0.00592265 0.0114155 0.0080722)
(-0.00668668 0.0138528 0.00952841)
(-0.00471683 0.0152196 0.0116403)
(0.00838922 -0.0053444 0.0220519)
(0.0163997 0.00165359 0.0230523)
(0.0217692 0.0055795 0.0217692)
(0.0239106 0.00698235 0.0195881)
(0.0237983 0.00648181 0.0175107)
(0.0224283 0.00471652 0.0159741)
(0.0202513 0.00212976 0.0147413)
(0.0162111 -0.00148964 0.0129796)
(0.0114574 -0.00546914 0.0111889)
(0.00680759 -0.00918983 0.00963725)
(0.00254949 -0.0118808 0.00871132)
(-0.00142512 -0.0122298 0.00892872)
(-0.00508205 -0.00944424 0.010712)
(-0.00825964 -0.00506546 0.0129824)
(-0.0107247 -0.000272933 0.0143534)
(-0.0119872 0.00435993 0.0142416)
(-0.0132927 0.00810977 0.0140247)
(-0.0147458 0.00996927 0.0149092)
(-0.0139336 0.00805278 0.0168591)
(-0.00783654 -0.00150863 0.0189925)
(0.0061989 -0.0212996 0.00974083)
(0.0149503 -0.0122659 0.0162544)
(0.0201925 -0.00491291 0.0201925)
(0.0233748 0.000583148 0.0216266)
(0.0242283 0.00329666 0.0213795)
(0.0234422 0.00391242 0.0203275)
(0.0215493 0.00327654 0.0187625)
(0.0186559 0.00168493 0.0167925)
(0.0145006 -0.00101176 0.0143708)
(0.00928191 -0.00448031 0.0121074)
(0.00363015 -0.00761837 0.0104686)
(-0.00210391 -0.00872255 0.0101057)
(-0.00718712 -0.00676673 0.0119116)
(-0.0114342 -0.00330939 0.0148666)
(-0.0147004 0.000508014 0.0176123)
(-0.0163884 0.00397386 0.0190264)
(-0.0170576 0.00656122 0.0194209)
(-0.0166714 0.00610105 0.0195744)
(-0.0134293 -0.00125039 0.0192268)
(-0.00406363 -0.0182819 0.0159851)
(0.00319343 -0.029428 -9.15695e-06)
(0.012034 -0.0190353 0.00912478)
(0.0146436 -0.0111959 0.0146437)
(0.0165263 -0.0048807 0.0174355)
(0.0174426 -0.000601101 0.0182502)
(0.0171893 0.00135502 0.0172959)
(0.0160318 0.00165348 0.0153876)
(0.0141003 0.000843997 0.013351)
(0.011145 -0.000689848 0.0117595)
(0.00700686 -0.00264918 0.0104824)
(0.00216159 -0.00469642 0.00906869)
(-0.00283545 -0.005777 0.0081502)
(-0.00686511 -0.00511793 0.00931972)
(-0.00999476 -0.0033518 0.0120531)
(-0.0123202 -0.000991769 0.015253)
(-0.013674 0.00133878 0.0180559)
(-0.0135455 0.00238449 0.0195037)
(-0.0115758 -0.000565092 0.0193682)
(-0.00792802 -0.0104912 0.016294)
(-0.00117274 -0.0249532 0.0102823)
(-0.000733948 -0.0325829 -0.00820546)
(0.0073607 -0.0221909 0.00154804)
(0.00685112 -0.0144482 0.00685112)
(0.00739479 -0.00805484 0.00869256)
(0.00758623 -0.00324061 0.00809608)
(0.0079263 -0.000208692 0.00617939)
(0.00811037 0.00151128 0.00388905)
(0.00788099 0.00242163 0.00216415)
(0.00683912 0.00276104 0.00165633)
(0.00454148 0.00230328 0.00172603)
(0.00144513 0.000392732 0.000633412)
(-0.00141887 -0.00168677 -0.00066551)
(-0.00355728 -0.0028306 -0.000300906)
(-0.00486526 -0.00305707 0.00174657)
(-0.00557859 -0.00271564 0.00504229)
(-0.00578083 -0.00227069 0.00877877)
(-0.00557853 -0.00282791 0.0118118)
(-0.00387038 -0.00675197 0.0123137)
(-0.00362572 -0.0150863 0.00956709)
(0.00138334 -0.0270266 0.00381935)
(-0.00618489 -0.027953 -0.0162473)
(-0.00269834 -0.0197967 -0.00938787)
(-0.00662681 -0.0146715 -0.00662681)
(-0.00712799 -0.0115358 -0.00693328)
(-0.00712552 -0.00945866 -0.00931783)
(-0.00610066 -0.00809883 -0.0126512)
(-0.00409287 -0.00726459 -0.0154995)
(-0.00159523 -0.00637315 -0.0167763)
(0.00046281 -0.00465484 -0.0166948)
(0.00179919 -0.00371119 -0.0160235)
(0.00254846 -0.00556031 -0.0159728)
(0.00378265 -0.0074344 -0.0167584)
(0.00488254 -0.0084431 -0.0160041)
(0.00576273 -0.00871832 -0.0139986)
(0.00651581 -0.0085074 -0.0110158)
(0.00693941 -0.00815425 -0.00722743)
(0.00678895 -0.0083201 -0.00341994)
(0.00662296 -0.00993615 -0.00113075)
(0.00416016 -0.0146874 -0.00126989)
(0.00558583 -0.0225164 -0.00385952)
(-0.0157421 -0.015963 -0.0259884)
(-0.0233162 -0.00840406 -0.027302)
(-0.0319822 -0.0040025 -0.0319822)
(-0.0353294 -0.00127649 -0.0378735)
(-0.0358816 0.00082878 -0.0441041)
(-0.0338844 0.00268858 -0.0501174)
(-0.0295964 0.00454873 -0.0555789)
(-0.0228021 0.00666743 -0.0598472)
(-0.0136122 0.00921753 -0.061856)
(-0.000359722 0.0117432 -0.0611791)
(0.0122765 0.00915317 -0.0603744)
(0.0207369 0.00635503 -0.0576662)
(0.0267492 0.00403456 -0.0533071)
(0.0302663 0.00208678 -0.0480825)
(0.0317964 0.000464635 -0.0423452)
(0.0317736 -0.000912517 -0.0362727)
(0.030338 -0.00227301 -0.0299621)
(0.0272659 -0.00398545 -0.0235917)
(0.0202373 -0.00715252 -0.017614)
(0.0132517 -0.013109 -0.0130834)
(-0.00144321 0.000617331 -0.0180886)
(-0.00397485 0.00156322 -0.0154662)
(-0.00646219 0.00197093 -0.0118133)
(-0.00823067 0.00183035 -0.00823067)
(-0.00910553 0.00118807 -0.00482797)
(-0.00896249 0.000122851 -0.00174302)
(-0.00786351 -0.00113884 0.000734209)
(-0.00590193 -0.00235415 0.00250593)
(-0.00332205 -0.00339299 0.00381054)
(-0.000462223 -0.00417082 0.0046984)
(0.00279392 -0.00440183 0.00464021)
(0.00598536 -0.00351426 0.00357469)
(0.00825475 -0.00156905 0.00153937)
(0.00900023 0.000567837 -0.00174739)
(0.0082181 0.00141203 -0.00584423)
(0.00690568 0.00135375 -0.0101106)
(0.00583211 0.000874761 -0.0142334)
(0.0048494 0.000395791 -0.0181436)
(0.00351169 3.10763e-06 -0.021615)
(0.00132587 -0.000541519 -0.0236953)
(-0.00160604 0.00353777 -0.0113527)
(-0.00351111 0.00402343 -0.00973181)
(-0.00510283 0.00398639 -0.00799882)
(-0.00631114 0.00328827 -0.00631114)
(-0.00701786 0.00194649 -0.00455339)
(-0.00709246 0.00010329 -0.00265821)
(-0.00641744 -0.00202899 -0.000563156)
(-0.00514065 -0.00413918 0.00150992)
(-0.00346535 -0.00612942 0.00328267)
(-0.00157563 -0.00775006 0.00459895)
(0.000623435 -0.00842833 0.00518548)
(0.00327576 -0.0072812 0.00512964)
(0.00589705 -0.00420169 0.00445738)
(0.00790882 -0.000307066 0.00290809)
(0.00885524 0.00230615 0.000261229)
(0.00852809 0.00330002 -0.00262775)
(0.0076477 0.0034113 -0.00563818)
(0.00640208 0.00347937 -0.0086733)
(0.00469675 0.00385312 -0.0114705)
(0.0019732 0.00429649 -0.0136073)
(0.000141829 0.00817975 0.000918154)
(0.000121165 0.00753256 0.000612061)
(-4.62967e-05 0.00679196 -0.000230608)
(-0.00088673 0.00539158 -0.00088673)
(-0.00187615 0.0031433 -0.00103672)
(-0.00272738 0.000249176 -0.000650248)
(-0.00307049 -0.00288887 0.000475827)
(-0.00251908 -0.00588947 0.002237)
(-0.00179261 -0.00873691 0.00386592)
(-0.00106301 -0.0111549 0.0051664)
(-0.000231463 -0.0125048 0.00600048)
(0.00100793 -0.011735 0.00660377)
(0.0025883 -0.00837273 0.00699548)
(0.00430719 -0.00347878 0.00680783)
(0.00598127 0.0011564 0.00542846)
(0.0061219 0.0039168 0.00359741)
(0.00514833 0.00544214 0.00182871)
(0.00344024 0.00678916 0.000466219)
(0.00177056 0.00832055 -0.000101728)
(-4.33536e-05 0.0101437 0.000183381)
(0.00440481 0.00991847 0.017745)
(0.00785206 0.00927706 0.0158754)
(0.00980729 0.00886201 0.012841)
(0.00985621 0.00772222 0.00985621)
(0.00884209 0.00556168 0.00755797)
(0.00740825 0.00249407 0.00615409)
(0.00527547 -0.00161937 0.00530806)
(0.00383191 -0.0056827 0.00563082)
(0.00276846 -0.00923401 0.00622593)
(0.00161987 -0.0122895 0.00682584)
(0.000437679 -0.0142824 0.007397)
(-0.000501907 -0.0139498 0.00824866)
(-0.0010869 -0.0106081 0.0094624)
(-0.0012313 -0.00546543 0.0104629)
(-0.000919736 0.000113527 0.0103134)
(-0.00114534 0.00455808 0.00920646)
(-0.00276907 0.0073766 0.00870468)
(-0.00497897 0.00931609 0.00938658)
(-0.00594018 0.0104484 0.0112845)
(-0.00458009 0.0108291 0.0136237)
(0.0083801 -0.00229614 0.0244981)
(0.0152021 0.00398957 0.025749)
(0.0195881 0.00698235 0.0239106)
(0.0210343 0.00795711 0.0210343)
(0.0206489 0.00719692 0.0182312)
(0.0192556 0.00518494 0.0160172)
(0.017319 0.00224984 0.0143569)
(0.0137982 -0.00187727 0.0123228)
(0.00998908 -0.00612255 0.0108001)
(0.00614412 -0.00996302 0.00981973)
(0.00233105 -0.0127463 0.00944665)
(-0.00143884 -0.0130036 0.0100509)
(-0.00477607 -0.00978796 0.0118767)
(-0.00744967 -0.00478548 0.0139706)
(-0.00944389 0.000603017 0.0152034)
(-0.01058 0.00529312 0.0152728)
(-0.0122288 0.00835578 0.0156618)
(-0.0139586 0.00916145 0.0172688)
(-0.0133973 0.00624697 0.0198061)
(-0.00795544 -0.00364654 0.0218706)
(0.0070813 -0.0182253 0.0103563)
(0.0163502 -0.00712816 0.0188143)
(0.0216266 0.000583148 0.0233748)
(0.0241556 0.00497118 0.0241556)
(0.0246038 0.00666156 0.0231089)
(0.023724 0.0064489 0.021395)
(0.0219465 0.00511994 0.0194416)
(0.0192757 0.0028375 0.0173181)
(0.0151727 -0.000680082 0.0148455)
(0.00987773 -0.00472751 0.0126462)
(0.00400091 -0.00815931 0.0112227)
(-0.00226631 -0.00919674 0.0111974)
(-0.00775348 -0.00654227 0.0132622)
(-0.0120433 -0.00212534 0.0163088)
(-0.0149955 0.00243743 0.0189356)
(-0.0163317 0.00611946 0.0202094)
(-0.0170963 0.00826834 0.0210135)
(-0.0170163 0.00701655 0.021838)
(-0.0140768 -0.000544748 0.0216912)
(-0.00478655 -0.0174107 0.0169992)
(0.00303456 -0.0273394 -0.00157412)
(0.0135793 -0.0138239 0.0095393)
(0.0174355 -0.0048807 0.0165263)
(0.0200537 0.00143396 0.0200537)
(0.0208261 0.00482779 0.0204562)
(0.0205087 0.00592014 0.0191598)
(0.0193857 0.00552392 0.0170945)
(0.0174425 0.0042323 0.0148973)
(0.0142777 0.00227387 0.0130353)
(0.00952315 -0.000439956 0.0117277)
(0.00348182 -0.0034686 0.0105356)
(-0.00337104 -0.00482327 0.00995657)
(-0.00883117 -0.00353452 0.011563)
(-0.0128781 -0.000853736 0.0146789)
(-0.0152565 0.0023946 0.0178547)
(-0.0160523 0.00516504 0.0203773)
(-0.0156453 0.0061397 0.0218282)
(-0.0138006 0.00276558 0.0217692)
(-0.00963417 -0.00809167 0.0179057)
(-0.00159703 -0.0242206 0.00967474)
(-0.00188521 -0.0322139 -0.0109926)
(0.00789692 -0.0182111 0.000452351)
(0.00869256 -0.00805484 0.00739479)
(0.0108839 5.21381e-05 0.0108839)
(0.0121214 0.00473062 0.0112418)
(0.0125168 0.00652657 0.00945015)
(0.0124936 0.00701499 0.00712295)
(0.0118626 0.00704491 0.00518145)
(0.0100942 0.00691016 0.00408009)
(0.00658651 0.00638704 0.0036024)
(0.00197756 0.00440019 0.00264882)
(-0.00278791 0.0022565 0.00213658)
(-0.00652065 0.00150375 0.00278528)
(-0.00885155 0.00202875 0.00510042)
(-0.01002 0.00323789 0.00891897)
(-0.0101978 0.00427787 0.0128915)
(-0.0093469 0.00366716 0.0155851)
(-0.00660103 -0.00175715 0.0150023)
(-0.00488016 -0.0125826 0.0103063)
(0.00176089 -0.0268373 0.00206912)
(-0.00815482 -0.0285906 -0.0196154)
(-0.00399714 -0.0184071 -0.0117578)
(-0.00693328 -0.0115358 -0.00712799)
(-0.00589532 -0.00688493 -0.00589532)
(-0.00431319 -0.00369981 -0.00695753)
(-0.00347782 -0.0020602 -0.0107897)
(-0.002284 -0.00116828 -0.0149094)
(-0.000721454 0.000199156 -0.0180291)
(0.00130005 0.00250714 -0.0192786)
(0.0027964 0.00382384 -0.0189462)
(0.00368551 0.00164909 -0.0193418)
(0.00424034 -0.00171641 -0.0189028)
(0.00360852 -0.00387254 -0.0164335)
(0.00291714 -0.00459183 -0.0132617)
(0.00297734 -0.00434264 -0.0094993)
(0.00327732 -0.00373007 -0.00460622)
(0.00365869 -0.00401591 -0.000139777)
(0.00534467 -0.00720676 0.000769891)
(0.00412873 -0.0136693 -0.00153028)
(0.00673735 -0.0230363 -0.00591214)
(-0.019253 -0.0156676 -0.0296159)
(-0.0282437 -0.00648626 -0.0308386)
(-0.0378735 -0.0012765 -0.0353294)
(-0.0412288 0.00197683 -0.0412288)
(-0.041303 0.00449303 -0.0475661)
(-0.0387967 0.00664387 -0.0540369)
(-0.0341147 0.00883414 -0.0603936)
(-0.0266714 0.0113826 -0.0657159)
(-0.0161788 0.0144821 -0.0688567)
(-0.000667809 0.0177799 -0.0688396)
(0.0148448 0.0144 -0.0672276)
(0.0245589 0.0108349 -0.0638835)
(0.0310472 0.00792908 -0.0586253)
(0.0344817 0.00553424 -0.0524176)
(0.0356322 0.00352044 -0.0457262)
(0.0353372 0.00179141 -0.0388663)
(0.033964 -6.81893e-06 -0.0320337)
(0.0309615 -0.00222057 -0.0254348)
(0.0233682 -0.00601941 -0.0195935)
(0.0155875 -0.0130551 -0.0154417)
(-0.000632645 -0.000953378 -0.0169223)
(-0.00190588 -9.25998e-05 -0.0152715)
(-0.00339624 0.000746994 -0.0123097)
(-0.00482797 0.00118807 -0.00910553)
(-0.00585818 0.00109861 -0.00585818)
(-0.00602121 0.000480732 -0.00257465)
(-0.00526303 -0.000547434 0.000540071)
(-0.00371146 -0.00189571 0.00322792)
(-0.00163989 -0.00315671 0.00552771)
(0.000266481 -0.00402079 0.00752057)
(0.00215608 -0.00415705 0.00757508)
(0.00431016 -0.00315034 0.00582606)
(0.00596971 -0.00114378 0.00274909)
(0.00613753 0.00060982 -0.00158168)
(0.00520438 0.000775316 -0.00637674)
(0.00413377 0.000223577 -0.0108543)
(0.00335971 -0.00046886 -0.0147906)
(0.00269536 -0.00101671 -0.0181992)
(0.00190245 -0.00141539 -0.0209112)
(0.000594733 -0.00186101 -0.0221839)
(-0.00115865 0.000304912 -0.0122667)
(-0.00244694 0.00104289 -0.0106788)
(-0.00362668 0.00172029 -0.00887228)
(-0.00455339 0.00194649 -0.00701785)
(-0.00510869 0.00146675 -0.00510869)
(-0.00511422 0.000242499 -0.00301055)
(-0.00446934 -0.00160939 -0.000570672)
(-0.00337252 -0.00384047 0.00213476)
(-0.00213577 -0.00600216 0.00481647)