/*--------------------------------*- C++ -*----------------------------------*\
  =========                 |
  \\      /  F ield         | OpenFOAM: The Open Source CFD Toolbox
   \\    /   O peration     | Website:  https://openfoam.org
    \\  /    A nd           | Version:  9
     \\/     M anipulation  |
\*---------------------------------------------------------------------------*/
FoamFile
{
    format      ascii;
    class       volScalarField;
    location    "0.24";
    object      nut;
}
// * * * * * * * * * * * * * * * * * * * * * * * * * * * * * * * * * * * * * //

dimensions      [0 2 -1 0 0 0 0];

internalField   nonuniform List<scalar> 
12225
(
4.04768e-05
3.83178e-05
3.62504e-05
3.44199e-05
3.29519e-05
3.18976e-05
3.12561e-05
3.09936e-05
3.10579e-05
3.13898e-05
3.19307e-05
3.26268e-05
3.34316e-05
3.43068e-05
3.5223e-05
3.61558e-05
3.711e-05
3.84916e-05
0.000281048
0.000209266
0.000176267
0.00015744
0.000146272
0.000139688
0.000135794
0.000133431
0.000131916
0.000130859
0.000130045
0.000129358
0.00012874
0.000128162
0.000127623
0.00012708
0.000126683
0.000125737
0.000556048
0.000419908
0.000349816
0.000304738
0.000272451
0.000247988
0.000228772
0.000213309
0.000200682
0.000190282
0.000181668
0.000174503
0.000168515
0.000163485
0.000159238
0.000155588
0.00015245
0.000149392
0.000740308
0.000625822
0.000544118
0.000485002
0.000439775
0.000403657
0.00037385
0.000348616
0.000326868
0.000307909
0.000291265
0.000276589
0.000263611
0.000252102
0.000241865
0.000232686
0.000224408
0.000216751
0.000817069
0.000759142
0.000700547
0.00064858
0.000603901
0.00056559
0.000532483
0.000503525
0.000477894
0.00045498
0.000434338
0.000415632
0.000398605
0.000383046
0.000368776
0.000355612
0.000343409
0.000332073
0.0008421
0.000819688
0.000789925
0.000757608
0.000725557
0.000695169
0.000666973
0.000641028
0.000617189
0.000595257
0.000575028
0.000556315
0.000538954
0.000522798
0.000507718
0.000493584
0.000480296
0.0004679
0.000849261
0.000841808
0.000829742
0.000814189
0.000796483
0.000777765
0.000758855
0.000740264
0.00072228
0.000705049
0.000688632
0.000673036
0.000658242
0.00064421
0.000630895
0.000618242
0.000606211
0.000594929
0.00085112
0.000848748
0.000844481
0.000838237
0.000830247
0.000820897
0.000810602
0.000799727
0.000788562
0.000777323
0.000766167
0.000755201
0.000744493
0.000734087
0.000724006
0.000714259
0.000704859
0.00069596
0.00085156
0.000850665
0.00084917
0.000846887
0.000843742
0.00083976
0.000835036
0.000829697
0.000823879
0.000817711
0.000811307
0.00080476
0.000798148
0.000791531
0.000784956
0.000778459
0.000772079
0.000765949
0.000851652
0.000851133
0.000850468
0.000849564
0.000848347
0.000846773
0.000844827
0.000842521
0.000839886
0.000836961
0.000833794
0.000830429
0.000826911
0.00082328
0.00081957
0.000815814
0.000812045
0.00080836
0.000851668
0.00085123
0.000850778
0.000850278
0.000849698
0.000849007
0.000848183
0.000847212
0.000846089
0.000844815
0.000843401
0.000841856
0.000840196
0.000838437
0.000836595
0.000834687
0.000832731
0.000830785
0.000851669
0.000851245
0.000850835
0.000850429
0.000850014
0.000849575
0.000849101
0.00084858
0.000848003
0.000847365
0.000846665
0.000845902
0.000845079
0.0008442
0.000843269
0.000842294
0.000841284
0.000840273
0.000851668
0.000851244
0.000850843
0.000850459
0.000850088
0.000849726
0.000849365
0.000849001
0.000848629
0.000848243
0.000847841
0.00084742
0.00084698
0.000846519
0.000846038
0.000845538
0.000845023
0.000844513
0.000851667
0.000851242
0.000850839
0.000850458
0.000850096
0.000849751
0.000849421
0.000849102
0.000848793
0.000848491
0.000848195
0.000847902
0.000847611
0.000847321
0.000847032
0.000846742
0.000846454
0.00084618
0.000851666
0.000851239
0.000850835
0.000850452
0.00085009
0.000849746
0.000849419
0.000849108
0.000848812
0.000848528
0.000848257
0.000847996
0.000847746
0.000847505
0.000847272
0.000847047
0.000846832
0.000846638
0.000851665
0.000851236
0.000850831
0.000850447
0.000850083
0.000849737
0.000849409
0.000849098
0.000848801
0.000848519
0.000848251
0.000847994
0.00084775
0.000847517
0.000847294
0.000847082
0.000846881
0.000846703
0.000851664
0.000851235
0.000850828
0.000850442
0.000850077
0.00084973
0.000849401
0.000849088
0.00084879
0.000848507
0.000848237
0.00084798
0.000847735
0.000847502
0.000847279
0.000847066
0.000846866
0.000846688
0.000851663
0.000851234
0.000850826
0.00085044
0.000850073
0.000849725
0.000849395
0.000849081
0.000848782
0.000848498
0.000848227
0.000847969
0.000847723
0.000847488
0.000847264
0.00084705
0.000846848
0.000846669
0.000851663
0.000851233
0.000850825
0.000850439
0.000850072
0.000849724
0.000849393
0.000849078
0.000848779
0.000848494
0.000848222
0.000847963
0.000847716
0.000847481
0.000847256
0.000847041
0.000846838
0.000846658
0.000851664
0.000851234
0.000850826
0.00085044
0.000850074
0.000849726
0.000849396
0.000849081
0.000848782
0.000848497
0.000848225
0.000847965
0.000847717
0.00084748
0.000847253
0.000847037
0.000846831
0.000846649
0.000851664
0.000851235
0.000850829
0.000850443
0.000850078
0.00084973
0.000849399
0.000849082
0.000848779
0.000848489
0.000848209
0.00084794
0.000847679
0.000847427
0.000847182
0.000846944
0.000846715
0.000846506
0.000851665
0.000851237
0.00085083
0.000850442
0.000850068
0.000849706
0.000849351
0.000848999
0.000848647
0.000848293
0.000847934
0.000847569
0.000847198
0.000846819
0.000846432
0.000846038
0.00084564
0.000845251
0.000851664
0.000851228
0.000850794
0.000850348
0.00084987
0.000849345
0.000848761
0.00084811
0.000847388
0.000846592
0.000845727
0.000844795
0.000843804
0.00084276
0.000841669
0.000840541
0.000839384
0.000838223
0.000851634
0.000851073
0.000850343
0.000849363
0.000848079
0.000846467
0.00084453
0.000842291
0.000839784
0.00083705
0.000834133
0.000831072
0.000827906
0.000824668
0.000821388
0.000818092
0.000814802
0.000811567
0.000851287
0.000849596
0.000846721
0.000842577
0.000837262
0.000830978
0.00082397
0.000816468
0.00080867
0.000800733
0.000792778
0.000784895
0.000777149
0.000769585
0.000762234
0.000755115
0.000748242
0.000741669
0.000848318
0.000839425
0.00082616
0.000810016
0.000792356
0.000774222
0.000756314
0.000739034
0.000722582
0.000707036
0.000692408
0.00067867
0.000665778
0.000653675
0.000642306
0.000631615
0.000621556
0.000612139
0.000828548
0.000788842
0.000746032
0.000705698
0.000669457
0.000637491
0.000609432
0.000584722
0.000562823
0.000543281
0.000525725
0.000509857
0.000495435
0.000482266
0.00047019
0.000459076
0.000448819
0.000439371
0.000730725
0.000627344
0.000554503
0.000501054
0.00046031
0.000428337
0.00040262
0.000381453
0.000363691
0.000348559
0.000335512
0.000324151
0.000314178
0.000305365
0.000297531
0.000290531
0.000284248
0.000278596
0.000439249
0.00033847
0.000287933
0.000256867
0.000236359
0.000222508
0.00021299
0.000206309
0.000201503
0.000197957
0.000195269
0.000193176
0.000191498
0.000190115
0.000188946
0.000187932
0.000187036
0.000186209
7.16431e-05
6.90587e-05
6.65522e-05
6.41646e-05
6.19883e-05
6.00784e-05
5.84565e-05
5.71213e-05
5.60572e-05
5.52403e-05
5.46437e-05
5.42396e-05
5.40011e-05
5.39033e-05
5.39238e-05
5.40424e-05
5.42416e-05
5.45053e-05
2.26592e-07
5.77074e-06
9.52947e-06
1.28602e-05
1.6325e-05
2.03982e-05
2.51029e-05
3.05769e-05
3.69687e-05
4.39925e-05
5.13754e-05
5.91125e-05
6.71457e-05
7.5406e-05
8.38254e-05
9.23403e-05
0.000100892
0.000109423
0.000117883
0.000126219
0.00013438
0.000142315
0.000149974
0.000157302
0.000164247
0.00017075
0.000176751
0.000182182
0.000186959
0.00019096
0.000193996
0.000195828
0.000196464
0.000196844
0.000197089
4.53034e-05
0.000199327
0.000196878
4.56969e-05
0.000199882
0.00020296
4.65473e-05
4.60454e-05
4.71052e-05
4.81763e-05
4.92276e-05
5.03034e-05
5.13889e-05
5.24797e-05
5.3573e-05
5.46669e-05
5.57602e-05
5.68522e-05
5.79423e-05
5.90301e-05
6.01152e-05
6.11972e-05
6.2276e-05
6.33512e-05
6.44225e-05
6.54896e-05
6.65523e-05
6.76101e-05
6.86627e-05
6.97098e-05
7.0751e-05
7.17859e-05
7.2814e-05
7.3835e-05
7.48483e-05
7.58536e-05
7.68504e-05
7.78383e-05
7.88167e-05
7.97853e-05
8.07435e-05
8.1691e-05
8.26272e-05
8.35518e-05
8.44642e-05
8.5364e-05
8.62509e-05
8.71245e-05
8.79842e-05
8.88297e-05
8.96607e-05
9.04767e-05
9.12774e-05
9.20624e-05
9.28313e-05
9.35837e-05
9.43193e-05
9.50376e-05
9.57384e-05
9.64213e-05
9.70861e-05
9.7733e-05
9.83623e-05
9.89753e-05
9.95749e-05
0.000100159
0.000100722
0.000101262
0.000101781
0.000102279
0.000102755
0.000103208
0.000103638
0.000104046
0.00010443
0.000104791
0.000105127
0.00010544
0.000105728
0.000105991
0.000106229
0.000106442
0.00010663
0.000106793
0.00010693
0.000107042
0.000107127
0.000107188
0.000107222
0.000107231
0.000107215
0.000107173
0.000107105
0.000107012
0.000106894
0.000106751
0.000106583
0.000106391
0.000106175
0.000105934
0.00010567
0.000105382
0.000105071
0.000104738
0.000104382
0.000104005
0.000103606
0.000103187
0.000102747
0.000102288
0.000101809
0.000101311
0.000100796
0.000100263
9.97132e-05
9.91472e-05
9.85658e-05
9.79694e-05
9.7359e-05
9.6735e-05
9.60983e-05
9.54497e-05
9.47898e-05
9.41194e-05
9.34394e-05
9.27496e-05
9.2053e-05
9.13477e-05
9.06381e-05
8.99294e-05
8.92821e-05
8.88637e-05
8.84762e-05
8.80883e-05
8.76982e-05
8.73061e-05
8.69118e-05
8.65149e-05
8.61139e-05
8.5706e-05
8.52842e-05
8.48332e-05
8.43127e-05
8.36233e-05
8.23227e-05
8.61321e-07
2.38645e-05
5.24382e-05
7.33736e-05
8.84353e-05
9.93506e-05
0.00010844
0.000117041
0.0001258
0.000134968
0.000144569
0.000154528
0.000164752
0.000175147
0.000185629
0.000196123
0.000206557
0.000216866
0.000226982
0.00023684
0.000246366
0.000255484
0.000264111
0.000272151
0.000279493
0.000286007
0.000291527
0.000295838
0.000298627
0.000299404
0.000297424
0.000291861
0.00028276
0.00027313
0.000268461
0.000255039
0.000264552
0.000254853
0.000247976
0.00025916
0.000264333
0.000254819
0.000255048
0.000261089
0.000268683
0.000274949
0.00028149
0.000288431
0.000295661
0.000303114
0.000310745
0.000318526
0.000326437
0.000334467
0.000342609
0.000350855
0.000359203
0.000367648
0.000376189
0.000384824
0.00039355
0.000402366
0.00041127
0.00042026
0.000429333
0.000438487
0.000447719
0.000457026
0.000466404
0.00047585
0.000485359
0.000494927
0.000504549
0.00051422
0.000523935
0.000533689
0.000543475
0.000553288
0.000563123
0.000572973
0.000582832
0.000592695
0.000602555
0.000612408
0.000622248
0.000632069
0.000641866
0.000651635
0.000661372
0.00067107
0.000680727
0.000690338
0.000699897
0.000709399
0.000718834
0.00072819
0.000737444
0.000746561
0.000755484
0.000764042
0.000772001
0.000779791
0.000787457
0.000795002
0.000802419
0.000809705
0.000816853
0.000823858
0.000830715
0.000837418
0.000843962
0.000850341
0.000856551
0.000862587
0.000868444
0.000874118
0.000879604
0.000884899
0.000889997
0.000894897
0.000899594
0.000904085
0.000908368
0.000912439
0.000916297
0.000919938
0.000923361
0.000926565
0.000929547
0.000932307
0.000934843
0.000937155
0.000939243
0.000941106
0.000942745
0.00094416
0.000945352
0.000946322
0.000947071
0.000947602
0.000947915
0.000948014
0.000947902
0.00094758
0.000947052
0.000946321
0.000945392
0.000944269
0.000942955
0.000941455
0.000939776
0.00093792
0.000935894
0.000933705
0.000931357
0.000928855
0.000926211
0.000923426
0.00092051
0.000917475
0.000914312
0.000911056
0.000907701
0.000904212
0.000900487
0.000895935
0.000889359
0.000882124
0.000874678
0.000867129
0.000859516
0.000851854
0.000844152
0.000836414
0.00082863
0.000820778
0.000812784
0.000804535
0.000795042
0.000776621
1.72152e-06
3.8851e-05
8.38701e-05
0.000117723
0.000142177
0.000160402
0.000174879
0.000187365
0.00019898
0.000210356
0.000221787
0.000233367
0.000245087
0.000256892
0.000268714
0.000280477
0.000292109
0.000303542
0.000314706
0.000325531
0.000335949
0.000345886
0.000355271
0.000364026
0.000372077
0.000379348
0.000385766
0.000391268
0.000395789
0.000399265
0.000401641
0.000402982
0.000403813
0.000405558
0.000409424
0.000413652
0.000419812
0.000426009
0.000433806
0.000444168
0.000455324
0.000465305
0.000476283
0.000489147
0.000503365
0.000517927
0.00053284
0.000548117
0.000563725
0.000579627
0.000595797
0.000612211
0.000628853
0.00064571
0.000662772
0.000680033
0.000697486
0.000715126
0.000732948
0.000750949
0.000769123
0.000787468
0.000805976
0.000824644
0.000843466
0.000862434
0.000881542
0.000900783
0.000920147
0.000939626
0.000959211
0.00097889
0.000998653
0.00101849
0.00103839
0.00105834
0.00107832
0.00109833
0.00111835
0.00113837
0.00115837
0.00117835
0.0011983
0.00121819
0.00123801
0.00125776
0.00127743
0.00129699
0.00131645
0.00133578
0.00135498
0.00137402
0.0013929
0.0014116
0.00143009
0.00144834
0.00146632
0.00148398
0.00150128
0.0015179
0.00153408
0.00154997
0.00156559
0.00158095
0.00159605
0.00161086
0.00162538
0.0016396
0.00165351
0.00166709
0.00168034
0.00169324
0.00170578
0.00171796
0.00172976
0.00174118
0.0017522
0.00176282
0.00177304
0.00178283
0.0017922
0.00180114
0.00180964
0.0018177
0.00182531
0.00183248
0.00183918
0.00184543
0.00185122
0.00185654
0.0018614
0.00186579
0.00186971
0.00187316
0.00187615
0.00187867
0.00188072
0.00188232
0.00188345
0.00188413
0.00188436
0.00188414
0.00188348
0.00188239
0.00188086
0.00187892
0.00187656
0.0018738
0.00187065
0.0018671
0.00186318
0.0018589
0.00185426
0.00184928
0.00184397
0.00183834
0.00183242
0.0018262
0.00181972
0.00181299
0.00180602
0.00179882
0.00179142
0.00178373
0.00177559
0.00176646
0.00175552
0.00174363
0.00173127
0.00171865
0.00170585
0.00169291
0.00167986
0.00166671
0.00165342
0.00163993
0.00162604
0.00161124
0.00159359
0.00156447
2.73847e-06
4.98341e-05
0.000106832
0.000150621
0.000183155
0.000207749
0.000227142
0.000243362
0.000257807
0.000271363
0.000284537
0.000297583
0.000310598
0.000323593
0.000336536
0.000349378
0.000362061
0.00037453
0.000386732
0.000398616
0.00041014
0.000421263
0.000431955
0.000442194
0.000451972
0.000461298
0.0004702
0.000478734
0.000486988
0.000495079
0.000503159
0.000511442
0.000520252
0.000530041
0.000541123
0.000553325
0.000566696
0.000581162
0.000596844
0.000613778
0.000631709
0.000650218
0.000669428
0.000689547
0.000710473
0.000731919
0.000753768
0.000775978
0.000798527
0.000821399
0.000844578
0.000868054
0.000891814
0.00091585
0.000940153
0.000964717
0.000989536
0.0010146
0.00103991
0.00106546
0.00109123
0.00111723
0.00114344
0.00116986
0.00119648
0.00122329
0.00125027
0.00127741
0.00130471
0.00133215
0.00135971
0.00138738
0.00141514
0.00144297
0.00147087
0.0014988
0.00152676
0.00155473
0.00158268
0.0016106
0.00163846
0.00166626
0.00169398
0.00172159
0.00174907
0.00177642
0.00180361
0.00183063
0.00185745
0.00188407
0.00191046
0.00193659
0.00196246
0.00198804
0.00201329
0.00203819
0.00206272
0.00208683
0.0021104
0.00213337
0.00215588
0.00217801
0.00219978
0.00222117
0.00224219
0.00226282
0.00228305
0.00230285
0.00232221
0.00234113
0.00235958
0.00237755
0.00239502
0.00241199
0.00242845
0.00244437
0.00245975
0.00247457
0.00248883
0.00250251
0.00251561
0.00252812
0.00254002
0.00255132
0.002562
0.00257205
0.00258149
0.00259028
0.00259845
0.00260597
0.00261285
0.00261908
0.00262467
0.00262961
0.00263391
0.00263756
0.00264057
0.00264294
0.00264467
0.00264577
0.00264624
0.0026461
0.00264534
0.00264397
0.00264201
0.00263946
0.00263633
0.00263263
0.00262838
0.00262359
0.00261827
0.00261244
0.0026061
0.00259929
0.002592
0.00258427
0.00257611
0.00256755
0.0025586
0.00254929
0.00253964
0.00252965
0.00251932
0.0025086
0.00249735
0.00248521
0.00247176
0.00245737
0.0024424
0.00242704
0.00241142
0.00239558
0.00237956
0.00236339
0.00234703
0.00233038
0.00231318
0.00229474
0.00227289
0.002241
3.74471e-06
5.8747e-05
0.000125085
0.000177317
0.000216781
0.0002469
0.000270622
0.000290189
0.000307205
0.00032275
0.000337501
0.00035185
0.000366001
0.000380039
0.000393985
0.000407823
0.000421528
0.000435067
0.000448414
0.000461548
0.000474457
0.000487139
0.000499606
0.000511886
0.00052402
0.000536072
0.000548125
0.000560285
0.000572679
0.000585454
0.000598773
0.000612807
0.000627734
0.000643721
0.000660866
0.000679157
0.000698569
0.00071907
0.000740637
0.000763227
0.00078674
0.000811029
0.000836025
0.000861714
0.00088802
0.000914832
0.00094207
0.000969693
0.000997681
0.00102602
0.0010547
0.0010837
0.00111303
0.00114268
0.00117263
0.00120288
0.00123343
0.00126426
0.00129536
0.00132674
0.00135838
0.00139028
0.00142241
0.00145477
0.00148735
0.00152014
0.00155311
0.00158626
0.00161956
0.00165301
0.00168658
0.00172025
0.001754
0.00178782
0.00182167
0.00185555
0.00188942
0.00192327
0.00195707
0.0019908
0.00202444
0.00205796
0.00209134
0.00212457
0.00215762
0.00219046
0.00222309
0.00225547
0.00228759
0.00231943
0.00235096
0.00238218
0.00241304
0.00244353
0.00247363
0.00250331
0.00253255
0.00256133
0.00258946
0.00261704
0.00264415
0.00267081
0.00269704
0.00272284
0.00274819
0.00277307
0.00279747
0.00282138
0.00284477
0.00286762
0.00288993
0.00291168
0.00293284
0.00295342
0.00297338
0.00299272
0.00301141
0.00302946
0.00304685
0.00306356
0.00307958
0.0030949
0.00310951
0.00312341
0.00313659
0.00314903
0.00316074
0.00317169
0.0031819
0.00319135
0.00320005
0.00320797
0.00321514
0.00322154
0.00322718
0.00323205
0.00323616
0.00323951
0.0032421
0.00324394
0.00324503
0.00324539
0.003245
0.0032439
0.00324207
0.00323955
0.00323632
0.00323241
0.00322784
0.00322261
0.00321674
0.00321024
0.00320314
0.00319545
0.00318718
0.00317838
0.00316904
0.00315921
0.00314889
0.00313811
0.0031269
0.00311526
0.0031032
0.00309067
0.00307758
0.00306374
0.00304891
0.00303327
0.00301701
0.00300031
0.00298328
0.00296598
0.00294846
0.00293076
0.00291285
0.00289465
0.00287589
0.00285589
0.00283274
0.002802
4.68006e-06
6.59706e-05
0.000140149
0.000199537
0.000245002
0.000279995
0.000307601
0.000330216
0.000349602
0.000366993
0.000383209
0.000398765
0.000413964
0.000428971
0.000443864
0.000458673
0.000473407
0.000488064
0.000502645
0.000517158
0.000531619
0.000546056
0.000560511
0.00057504
0.000589714
0.000604619
0.000619854
0.000635531
0.000651771
0.000668698
0.000686438
0.000705102
0.000724787
0.00074556
0.000767448
0.000790439
0.000814496
0.000839575
0.00086563
0.000892603
0.000920422
0.000949
0.000978262
0.00100815
0.0010386
0.00106954
0.00110093
0.00113272
0.0011649
0.00119746
0.00123037
0.00126364
0.00129725
0.0013312
0.00136548
0.00140008
0.00143499
0.0014702
0.00150571
0.0015415
0.00157757
0.0016139
0.00165047
0.00168728
0.00172431
0.00176154
0.00179896
0.00183655
0.00187429
0.00191216
0.00195014
0.0019882
0.00202633
0.0020645
0.00210269
0.00214087
0.00217902
0.00221711
0.00225512
0.00229302
0.00233079
0.00236841
0.00240584
0.00244307
0.00248007
0.00251681
0.00255329
0.00258947
0.00262534
0.00266087
0.00269604
0.00273083
0.00276523
0.00279921
0.00283275
0.00286584
0.00289843
0.00293051
0.00296195
0.00299285
0.00302326
0.0030532
0.00308267
0.00311166
0.00314016
0.00316816
0.00319563
0.00322257
0.00324894
0.00327473
0.00329993
0.00332452
0.00334847
0.00337178
0.00339443
0.0034164
0.00343768
0.00345825
0.00347809
0.0034972
0.00351556
0.00353315
0.00354998
0.00356602
0.00358127
0.00359572
0.00360937
0.00362219
0.0036342
0.00364538
0.00365572
0.00366522
0.00367389
0.00368171
0.0036887
0.00369484
0.00370014
0.00370459
0.00370821
0.003711
0.00371297
0.00371411
0.00371443
0.00371395
0.00371267
0.0037106
0.00370776
0.00370415
0.00369979
0.0036947
0.00368888
0.00368235
0.00367515
0.00366728
0.00365875
0.0036496
0.00363985
0.00362952
0.00361863
0.00360721
0.00359528
0.00358285
0.00356994
0.00355651
0.00354252
0.00352786
0.00351242
0.00349626
0.00347951
0.0034623
0.00344471
0.00342683
0.00340872
0.00339041
0.00337191
0.00335317
0.00333397
0.00331372
0.00329094
0.00326276
5.47842e-06
7.19908e-05
0.0001526
0.000218029
0.000268703
0.000308032
0.000339165
0.000364602
0.000386219
0.00040537
0.000422993
0.000439713
0.000455925
0.00047187
0.000487686
0.000503453
0.000519215
0.000535003
0.000550842
0.000566764
0.000582805
0.000599014
0.000615448
0.000632177
0.000649281
0.000666847
0.000684971
0.00070375
0.000723284
0.000743666
0.00076498
0.000787295
0.000810658
0.000835094
0.000860601
0.000887153
0.000914713
0.00094323
0.000972652
0.00100292
0.00103398
0.00106575
0.00109817
0.00113119
0.00116475
0.00119881
0.00123331
0.00126824
0.00130357
0.00133928
0.00137537
0.00141183
0.00144863
0.00148578
0.00152327
0.00156108
0.00159921
0.00163765
0.00167638
0.0017154
0.00175469
0.00179424
0.00183403
0.00187405
0.00191429
0.00195472
0.00199532
0.00203609
0.00207699
0.002118
0.00215911
0.00220029
0.00224151
0.00228276
0.00232401
0.00236522
0.00240638
0.00244746
0.00248843
0.00252927
0.00256994
0.00261043
0.0026507
0.00269074
0.00273052
0.00277001
0.00280919
0.00284804
0.00288654
0.00292467
0.00296241
0.00299974
0.00303665
0.00307311
0.00310911
0.00314462
0.00317965
0.00321407
0.00324791
0.00328124
0.00331408
0.00334643
0.0033783
0.00340968
0.00344055
0.0034709
0.0035007
0.00352994
0.0035586
0.00358667
0.00361411
0.00364092
0.00366707
0.00369255
0.00371734
0.00374142
0.00376478
0.0037874
0.00380926
0.00383036
0.00385066
0.00387017
0.00388887
0.00390675
0.00392379
0.00394
0.00395536
0.00396986
0.00398349
0.00399624
0.00400812
0.00401911
0.00402921
0.00403842
0.00404675
0.00405418
0.00406072
0.00406636
0.00407111
0.00407498
0.00407797
0.00408008
0.00408131
0.00408169
0.00408121
0.0040799
0.00407774
0.00407475
0.00407097
0.0040664
0.00406103
0.0040549
0.00404803
0.00404042
0.00403212
0.00402313
0.00401348
0.00400319
0.00399229
0.0039808
0.00396874
0.00395613
0.00394298
0.00392928
0.00391501
0.00390013
0.00388457
0.00386838
0.00385163
0.0038344
0.0038168
0.00379888
0.00378072
0.00376238
0.00374389
0.00372524
0.00370627
0.00368652
0.0036649
0.00363954
6.15599e-06
7.68411e-05
0.000162665
0.000233181
0.00028838
0.000331573
0.000365924
0.000393989
0.000417726
0.000438577
0.000457578
0.000475444
0.000492655
0.000509522
0.000526243
0.000542944
0.000559706
0.000576588
0.00059364
0.000610908
0.000628446
0.00064631
0.000664565
0.000683282
0.000702537
0.000722412
0.000742986
0.00076434
0.000786548
0.000809675
0.000833774
0.000858883
0.000885023
0.000912195
0.000940385
0.00096956
0.000999681
0.0010307
0.00106256
0.00109521
0.0011286
0.00116267
0.00119736
0.00123262
0.00126841
0.00130468
0.00134141
0.00137857
0.00141613
0.00145408
0.00149241
0.0015311
0.00157015
0.00160953
0.00164925
0.0016893
0.00172965
0.00177031
0.00181125
0.00185247
0.00189396
0.0019357
0.00197767
0.00201986
0.00206226
0.00210484
0.00214758
0.00219048
0.0022335
0.00227663
0.00231984
0.00236312
0.00240643
0.00244975
0.00249306
0.00253633
0.00257953
0.00262264
0.00266564
0.00270848
0.00275116
0.00279363
0.00283587
0.00287786
0.00291957
0.00296098
0.00300206
0.00304279
0.00308316
0.00312313
0.0031627
0.00320185
0.00324056
0.00327881
0.00331659
0.00335388
0.00339066
0.00342685
0.00346252
0.0034977
0.00353239
0.00356662
0.00360036
0.00363361
0.00366635
0.00369856
0.00373023
0.00376134
0.00379186
0.00382177
0.00385106
0.0038797
0.00390768
0.00393498
0.00396157
0.00398745
0.00401259
0.00403697
0.00406058
0.0040834
0.00410542
0.00412661
0.00414698
0.0041665
0.00418517
0.00420297
0.0042199
0.00423594
0.00425109
0.00426534
0.00427867
0.00429109
0.00430259
0.00431317
0.00432283
0.00433157
0.00433937
0.00434624
0.00435218
0.00435721
0.00436133
0.00436453
0.00436682
0.00436819
0.00436868
0.00436832
0.00436704
0.0043649
0.00436191
0.00435809
0.00435344
0.00434798
0.00434174
0.00433473
0.00432697
0.00431849
0.0043093
0.00429943
0.00428889
0.00427772
0.00426594
0.00425355
0.00424059
0.00422706
0.00421294
0.00419823
0.0041829
0.00416699
0.00415054
0.00413363
0.00411632
0.00409871
0.00408085
0.00406284
0.00404473
0.00402653
0.00400816
0.0039893
0.00396912
0.00394638
6.70858e-06
8.06145e-05
0.000170556
0.000245291
0.000304385
0.000351004
0.000388279
0.000418787
0.000444533
0.000467027
0.000487376
0.000506372
0.000524567
0.000542335
0.000559929
0.000577518
0.000595217
0.000613111
0.000631269
0.000649751
0.000668618
0.000687931
0.000707753
0.000728152
0.000749195
0.00077095
0.000793483
0.000816855
0.000841117
0.000866314
0.000892477
0.000919623
0.000947758
0.00097687
0.00100694
0.00103793
0.0010698
0.00110251
0.00113601
0.00117025
0.00120517
0.00124074
0.00127689
0.0013136
0.00135082
0.00138851
0.00142665
0.0014652
0.00150416
0.0015435
0.00158321
0.00162327
0.00166368
0.00170442
0.00174549
0.00178687
0.00182855
0.00187052
0.00191278
0.0019553
0.00199808
0.0020411
0.00208435
0.00212782
0.00217148
0.00221533
0.00225934
0.0023035
0.00234779
0.00239219
0.00243668
0.00248123
0.00252582
0.00257043
0.00261504
0.00265962
0.00270413
0.00274857
0.00279289
0.00283707
0.00288108
0.0029249
0.0029685
0.00301184
0.0030549
0.00309766
0.00314009
0.00318217
0.00322388
0.0032652
0.00330611
0.00334659
0.00338664
0.00342623
0.00346536
0.003504
0.00354212
0.00357973
0.00361687
0.00365354
0.00368977
0.00372553
0.00376084
0.00379566
0.00382998
0.00386379
0.00389706
0.00392977
0.0039619
0.00399343
0.00402434
0.0040546
0.0040842
0.00411312
0.00414133
0.00416882
0.00419556
0.00422155
0.00424675
0.00427116
0.00429475
0.00431751
0.00433942
0.00436048
0.00438066
0.00439997
0.0044184
0.00443592
0.00445253
0.00446822
0.00448297
0.00449679
0.00450967
0.00452161
0.00453261
0.00454267
0.00455177
0.00455991
0.00456709
0.00457334
0.00457867
0.00458304
0.00458646
0.00458895
0.00459052
0.00459118
0.00459093
0.00458979
0.00458776
0.00458488
0.00458114
0.00457656
0.00457116
0.00456497
0.00455799
0.00455025
0.00454177
0.00453257
0.00452267
0.0045121
0.00450088
0.00448902
0.00447655
0.00446347
0.00444981
0.00443555
0.0044207
0.00440529
0.00438935
0.00437296
0.00435618
0.00433908
0.00432176
0.00430429
0.00428677
0.00426924
0.00425167
0.00423384
0.00421512
0.00419464
7.13693e-06
8.34109e-05
0.000176473
0.000254626
0.000317021
0.00036664
0.000406544
0.000439299
0.00046693
0.00049099
0.00051264
0.000532733
0.000551879
0.000570507
0.000588918
0.000607318
0.000625855
0.000644636
0.000663745
0.000683253
0.000703223
0.000723716
0.000744794
0.000766515
0.000788935
0.000812111
0.000836093
0.000860924
0.00088664
0.000913269
0.000940827
0.000969319
0.000998739
0.00102907
0.00106029
0.00109236
0.00112525
0.00115891
0.00119331
0.00122838
0.0012641
0.00130041
0.00133728
0.00137467
0.00141254
0.00145087
0.00148962
0.00152878
0.00156832
0.00160823
0.0016485
0.00168911
0.00173005
0.00177131
0.00181289
0.00185477
0.00189694
0.0019394
0.00198213
0.00202513
0.00206839
0.00211189
0.00215563
0.00219959
0.00224375
0.00228811
0.00233266
0.00237736
0.00242222
0.0024672
0.0025123
0.00255748
0.00260274
0.00264804
0.00269337
0.0027387
0.00278399
0.00282923
0.00287439
0.00291944
0.00296434
0.00300907
0.0030536
0.0030979
0.00314193
0.00318568
0.00322911
0.0032722
0.00331493
0.00335727
0.00339922
0.00344075
0.00348185
0.0035225
0.0035627
0.00360244
0.00364172
0.00368057
0.00371899
0.00375699
0.00379457
0.00383172
0.00386843
0.00390468
0.00394045
0.00397572
0.00401046
0.00404465
0.00407827
0.0041113
0.00414372
0.00417549
0.00420661
0.00423705
0.00426678
0.00429579
0.00432406
0.00435158
0.0043783
0.00440422
0.00442932
0.00445358
0.00447699
0.00449953
0.0045212
0.00454197
0.00456186
0.00458084
0.0045989
0.00461601
0.00463217
0.00464738
0.00466164
0.00467495
0.00468732
0.00469873
0.00470915
0.00471859
0.00472706
0.00473458
0.00474113
0.00474673
0.00475137
0.00475505
0.00475779
0.00475961
0.0047605
0.00476048
0.00475955
0.00475774
0.00475506
0.00475151
0.00474713
0.00474191
0.00473589
0.00472908
0.0047215
0.00471318
0.00470412
0.00469436
0.00468391
0.0046728
0.00466104
0.00464866
0.00463566
0.00462206
0.00460788
0.00459314
0.00457789
0.00456217
0.00454607
0.00452964
0.004513
0.00449623
0.00447943
0.00446268
0.00444599
0.00442922
0.00441188
0.00439331
7.44644e-06
8.53347e-05
0.000180618
0.000261443
0.000326569
0.000378766
0.000420994
0.000455777
0.000485141
0.00051066
0.000533534
0.000554658
0.00057469
0.000594104
0.000613242
0.000632342
0.000651579
0.000671079
0.000690937
0.000711233
0.000732031
0.000753391
0.000775367
0.000798009
0.000821366
0.000845478
0.000870383
0.000896112
0.000922688
0.000950126
0.000978431
0.0010076
0.00103762
0.00106848
0.00110015
0.00113259
0.00116577
0.00119966
0.0012342
0.00126938
0.00130513
0.00134143
0.00137825
0.00141554
0.00145328
0.00149145
0.00153001
0.00156896
0.00160827
0.00164793
0.00168793
0.00172826
0.00176891
0.00180988
0.00185115
0.00189273
0.0019346
0.00197676
0.00201921
0.00206194
0.00210494
0.00214821
0.00219173
0.00223551
0.00227953
0.00232377
0.00236824
0.00241292
0.00245779
0.00250283
0.00254804
0.00259339
0.00263886
0.00268443
0.00273007
0.00277577
0.00282149
0.00286721
0.00291289
0.00295851
0.00300403
0.00304942
0.00309464
0.00313967
0.00318446
0.00322899
0.00327323
0.00331715
0.00336072
0.00340393
0.00344675
0.00348916
0.00353116
0.00357273
0.00361386
0.00365463
0.00369503
0.00373506
0.00377471
0.00381399
0.00385288
0.00389137
0.00392944
0.00396707
0.00400424
0.00404093
0.0040771
0.00411274
0.00414781
0.00418231
0.00421619
0.00424945
0.00428205
0.00431397
0.00434519
0.0043757
0.00440547
0.00443448
0.00446271
0.00449013
0.00451671
0.00454245
0.00456734
0.00459135
0.00461448
0.00463672
0.00465806
0.00467851
0.00469801
0.00471655
0.00473414
0.00475076
0.00476642
0.00478112
0.00479485
0.00480761
0.00481939
0.00483018
0.00483999
0.00484883
0.00485669
0.00486359
0.00486952
0.00487448
0.0048785
0.00488157
0.0048837
0.0048849
0.00488519
0.00488458
0.00488308
0.0048807
0.00487746
0.00487338
0.00486846
0.00486274
0.00485622
0.00484893
0.00484089
0.00483211
0.00482262
0.00481243
0.00480157
0.00479006
0.00477791
0.00476515
0.0047518
0.00473788
0.00472345
0.00470854
0.00469324
0.00467761
0.00466176
0.00464578
0.0046298
0.00461391
0.00459814
0.0045824
0.00456632
0.00454933
7.64667e-06
8.64952e-05
0.000183197
0.000265999
0.000333307
0.000387655
0.000431878
0.00046844
0.000499345
0.000526172
0.000550144
0.000572187
0.000592994
0.000613075
0.000632801
0.000652442
0.00067219
0.000692188
0.000712542
0.000733334
0.000754631
0.000776488
0.000798954
0.00082207
0.000845874
0.000870398
0.000895668
0.000921702
0.000948515
0.000976113
0.00100449
0.00103365
0.00106357
0.00109422
0.0011256
0.00115765
0.00119036
0.00122369
0.0012576
0.00129206
0.00132705
0.00136251
0.00139844
0.0014348
0.00147156
0.00150871
0.00154624
0.00158412
0.00162235
0.00166091
0.0016998
0.00173902
0.00177857