/*--------------------------------*- C++ -*----------------------------------*\
  =========                 |
  \\      /  F ield         | OpenFOAM: The Open Source CFD Toolbox
   \\    /   O peration     | Website:  https://openfoam.org
    \\  /    A nd           | Version:  9
     \\/     M anipulation  |
\*---------------------------------------------------------------------------*/
FoamFile
{
    format      ascii;
    class       volVectorField;
    location    "0.24";
    object      U;
}
// * * * * * * * * * * * * * * * * * * * * * * * * * * * * * * * * * * * * * //

dimensions      [0 1 -1 0 0 0 0];

internalField   nonuniform List<vector> 
12225
(
(9.86107 -0.874318 0)
(9.67248 -0.700192 0)
(9.45897 -0.387592 0)
(9.22466 -0.188478 0)
(9.00349 -0.0843941 0)
(8.81039 -0.0328765 0)
(8.64511 -0.00755159 0)
(8.50412 0.00502362 0)
(8.38394 0.0113351 0)
(8.28106 0.0144708 0)
(8.19209 0.0159655 0)
(8.11417 0.0166344 0)
(8.0449 0.0169202 0)
(7.98246 0.0171141 0)
(7.92395 0.0174085 0)
(7.87035 0.0185096 0)
(7.80107 0.0214729 0)
(7.77477 0.0298727 0)
(10.0547 0.263069 0)
(10.1201 0.36074 0)
(10.118 0.27382 0)
(10.0826 0.187086 0)
(10.0405 0.13116 0)
(9.99392 0.096925 0)
(9.94012 0.0755548 0)
(9.88039 0.0617468 0)
(9.81783 0.0523405 0)
(9.75491 0.0455225 0)
(9.69308 0.0403499 0)
(9.63315 0.0363617 0)
(9.57551 0.0333015 0)
(9.52053 0.0311499 0)
(9.46745 0.0297405 0)
(9.41871 0.0308333 0)
(9.36735 0.0319042 0)
(9.3421 0.0522164 0)
(9.99919 0.0460865 0)
(10.0244 0.0342086 0)
(10.0538 0.0149483 0)
(10.0708 0.0218084 0)
(10.0778 0.0366693 0)
(10.0783 0.0460047 0)
(10.0722 0.049944 0)
(10.0603 0.0511338 0)
(10.0439 0.0510388 0)
(10.0246 0.0503204 0)
(10.0031 0.0493497 0)
(9.98001 0.0483725 0)
(9.95587 0.0475387 0)
(9.93109 0.047081 0)
(9.90562 0.0470722 0)
(9.8805 0.0488413 0)
(9.85496 0.0515642 0)
(9.83506 0.0628789 0)
(9.9968 0.0064275 0)
(10.0085 0.025017 0)
(10.0342 0.0389355 0)
(10.0528 0.0502987 0)
(10.0644 0.0571024 0)
(10.0731 0.0591568 0)
(10.079 0.0588428 0)
(10.0816 0.0579205 0)
(10.0816 0.0569113 0)
(10.0795 0.0558905 0)
(10.0758 0.0549108 0)
(10.0707 0.0540586 0)
(10.0645 0.0534236 0)
(10.0573 0.0531986 0)
(10.0493 0.0535166 0)
(10.0411 0.055248 0)
(10.0332 0.0580584 0)
(10.0277 0.0644297 0)
(9.99922 0.00673683 0)
(10.0081 0.0335718 0)
(10.0271 0.0460397 0)
(10.0418 0.0508396 0)
(10.0524 0.0539061 0)
(10.0622 0.0554923 0)
(10.0708 0.0558363 0)
(10.0775 0.0556491 0)
(10.0823 0.0552768 0)
(10.0857 0.0548105 0)
(10.0881 0.0543243 0)
(10.0894 0.0539224 0)
(10.09 0.0537139 0)
(10.0898 0.0538717 0)
(10.0891 0.0545455 0)
(10.0884 0.0562217 0)
(10.0883 0.0587126 0)
(10.0899 0.062499 0)
(10.0002 0.00907322 0)
(10.0078 0.0321221 0)
(10.0225 0.0419066 0)
(10.035 0.0456585 0)
(10.0448 0.0491156 0)
(10.0542 0.0516492 0)
(10.063 0.052785 0)
(10.0705 0.0531334 0)
(10.0767 0.0531695 0)
(10.0819 0.0530573 0)
(10.0863 0.0528882 0)
(10.0901 0.0527696 0)
(10.0932 0.0528116 0)
(10.0958 0.0531561 0)
(10.0982 0.0539252 0)
(10.1006 0.0553575 0)
(10.1037 0.0572939 0)
(10.108 0.0595809 0)
(10.0003 0.00879946 0)
(10.0068 0.0275148 0)
(10.019 0.0370772 0)
(10.0303 0.0417324 0)
(10.0395 0.04565 0)
(10.0482 0.0484714 0)
(10.0566 0.0498779 0)
(10.0641 0.0504672 0)
(10.0706 0.0507249 0)
(10.0763 0.0508232 0)
(10.0815 0.0508485 0)
(10.0862 0.0509 0)
(10.0904 0.0510785 0)
(10.0942 0.0514927 0)
(10.098 0.0522239 0)
(10.1018 0.0533629 0)
(10.1062 0.0547485 0)
(10.1115 0.0560622 0)
(10.0004 0.00783632 0)
(10.0057 0.0236914 0)
(10.016 0.0333627 0)
(10.0264 0.0385775 0)
(10.0351 0.042469 0)
(10.0433 0.0452587 0)
(10.0512 0.0468085 0)
(10.0584 0.0475836 0)
(10.0649 0.0480087 0)
(10.0708 0.048257 0)
(10.0762 0.0484156 0)
(10.0812 0.0485755 0)
(10.0859 0.0488244 0)
(10.0904 0.0492406 0)
(10.0947 0.0498675 0)
(10.0993 0.0507124 0)
(10.1042 0.0516152 0)
(10.1097 0.0522683 0)
(10.0004 0.00695019 0)
(10.0049 0.020704 0)
(10.0136 0.030028 0)
(10.023 0.0353902 0)
(10.0312 0.0391707 0)
(10.0389 0.0419265 0)
(10.0464 0.0436118 0)
(10.0534 0.0445517 0)
(10.0598 0.0451107 0)
(10.0656 0.0454699 0)
(10.0711 0.0457208 0)
(10.0762 0.0459457 0)
(10.0811 0.0462177 0)
(10.0859 0.0465904 0)
(10.0905 0.0470784 0)
(10.0954 0.0476479 0)
(10.1004 0.0481529 0)
(10.1059 0.0483544 0)
(10.0004 0.00616333 0)
(10.0042 0.0181183 0)
(10.0116 0.0267902 0)
(10.0199 0.0321267 0)
(10.0277 0.035831 0)
(10.035 0.0385557 0)
(10.0421 0.0403337 0)
(10.0488 0.0413984 0)
(10.055 0.0420594 0)
(10.0608 0.0424994 0)
(10.0663 0.0428121 0)
(10.0714 0.0430702 0)
(10.0764 0.0433328 0)
(10.0812 0.043635 0)
(10.0861 0.0439738 0)
(10.0909 0.0443003 0)
(10.096 0.0444928 0)
(10.1012 0.0443863 0)
(10.0003 0.00542647 0)
(10.0036 0.0157955 0)
(10.0099 0.0237037 0)
(10.0173 0.0288969 0)
(10.0245 0.0325093 0)
(10.0314 0.0351671 0)
(10.0381 0.0369787 0)
(10.0446 0.0381243 0)
(10.0506 0.0388586 0)
(10.0563 0.0393546 0)
(10.0617 0.0397047 0)
(10.0669 0.0399725 0)
(10.0719 0.0402052 0)
(10.0767 0.0404252 0)
(10.0815 0.0406211 0)
(10.0864 0.0407448 0)
(10.0913 0.040702 0)
(10.0963 0.0403893 0)
(10.0003 0.00477397 0)
(10.0031 0.0138502 0)
(10.0086 0.0210293 0)
(10.0152 0.0259893 0)
(10.0219 0.0294742 0)
(10.0285 0.0320371 0)
(10.0348 0.0338346 0)
(10.041 0.0350168 0)
(10.0469 0.0357921 0)
(10.0525 0.0363176 0)
(10.0578 0.0366821 0)
(10.0629 0.036942 0)
(10.0679 0.0371353 0)
(10.0727 0.0372774 0)
(10.0775 0.0373554 0)
(10.0823 0.0373287 0)
(10.087 0.0371272 0)
(10.0918 0.036692 0)
(10.0003 0.00416747 0)
(10.0028 0.0120829 0)
(10.0075 0.0185148 0)
(10.0134 0.0231512 0)
(10.0197 0.026466 0)
(10.0258 0.0289103 0)
(10.0319 0.0306597 0)
(10.0378 0.0318466 0)
(10.0435 0.0326399 0)
(10.049 0.0331771 0)
(10.0542 0.0335414 0)
(10.0593 0.0337828 0)
(10.0642 0.0339329 0)
(10.069 0.0340029 0)
(10.0737 0.0339817 0)
(10.0783 0.0338383 0)
(10.0829 0.0335229 0)
(10.0875 0.0330091 0)
(10.0003 0.00353558 0)
(10.0024 0.0102446 0)
(10.0064 0.0158223 0)
(10.0117 0.020004 0)
(10.0174 0.0230609 0)
(10.0232 0.0253279 0)
(10.0289 0.0269776 0)
(10.0346 0.0281274 0)
(10.0401 0.0289085 0)
(10.0454 0.0294349 0)
(10.0505 0.0297804 0)
(10.0554 0.029989 0)
(10.0603 0.0300867 0)
(10.065 0.0300827 0)
(10.0696 0.0299698 0)
(10.0741 0.0297284 0)
(10.0784 0.0293275 0)
(10.0828 0.028765 0)
(10.0002 0.0028767 0)
(10.002 0.00833414 0)
(10.0055 0.0129619 0)
(10.0101 0.0165541 0)
(10.0153 0.0192437 0)
(10.0206 0.0212562 0)
(10.026 0.0227399 0)
(10.0314 0.0237954 0)
(10.0366 0.0245209 0)
(10.0417 0.0250041 0)
(10.0467 0.0253066 0)
(10.0515 0.0254659 0)
(10.0562 0.0255032 0)
(10.0608 0.0254275 0)
(10.0653 0.0252367 0)
(10.0696 0.0249219 0)
(10.0738 0.0244676 0)
(10.0778 0.0238877 0)
(10.0002 0.00219113 0)
(10.0017 0.00635238 0)
(10.0047 0.00993877 0)
(10.0088 0.0128029 0)
(10.0134 0.0149974 0)
(10.0183 0.0166573 0)
(10.0233 0.0178927 0)
(10.0284 0.0187818 0)
(10.0334 0.0193941 0)
(10.0383 0.0197918 0)
(10.0431 0.0200215 0)
(10.0478 0.0201129 0)
(10.0523 0.0200835 0)
(10.0567 0.0199422 0)
(10.061 0.0196914 0)
(10.0651 0.0193307 0)
(10.0691 0.0188547 0)
(10.0729 0.0182863 0)
(10.0002 0.0014758 0)
(10.0015 0.00428278 0)
(10.0041 0.00673072 0)
(10.0077 0.00872701 0)
(10.0119 0.010286 0)
(10.0164 0.0114771 0)
(10.0211 0.0123669 0)
(10.0258 0.013006 0)
(10.0306 0.0134377 0)
(10.0353 0.0137002 0)
(10.0399 0.0138237 0)
(10.0444 0.0138286 0)
(10.0487 0.0137277 0)
(10.053 0.0135292 0)
(10.0571 0.0132376 0)
(10.061 0.0128568 0)
(10.0648 0.0123873 0)
(10.0684 0.011854 0)
(10.0001 0.000713092 0)
(10.0013 0.00206959 0)
(10.0037 0.0032586 0)
(10.0069 0.00423863 0)
(10.0108 0.00501189 0)
(10.015 0.00560291 0)
(10.0194 0.00603658 0)
(10.0239 0.00633292 0)
(10.0285 0.00650965 0)
(10.033 0.00658261 0)
(10.0374 0.00656436 0)
(10.0417 0.00646385 0)
(10.0459 0.00628729 0)
(10.05 0.00603931 0)
(10.0539 0.00572375 0)
(10.0576 0.00534486 0)
(10.0612 0.00490463 0)
(10.0647 0.00442576 0)
(10.0001 -0.000143587 0)
(10.0013 -0.000418983 0)
(10.0035 -0.000666216 0)
(10.0066 -0.000872828 0)
(10.0104 -0.00103636 0)
(10.0145 -0.00117066 0)
(10.0188 -0.00129498 0)
(10.0232 -0.0014232 0)
(10.0276 -0.00156398 0)
(10.032 -0.00172454 0)
(10.0363 -0.00191137 0)
(10.0405 -0.00212944 0)
(10.0445 -0.00238196 0)
(10.0484 -0.00267062 0)
(10.0522 -0.00299587 0)
(10.0558 -0.0033565 0)
(10.0592 -0.00375236 0)
(10.0625 -0.00416652 0)
(10.0001 -0.000967116 0)
(10.0014 -0.00281793 0)
(10.0037 -0.00445574 0)
(10.0071 -0.00579861 0)
(10.0111 -0.00684031 0)
(10.0153 -0.00764237 0)
(10.0197 -0.00827176 0)
(10.0242 -0.00877373 0)
(10.0287 -0.00918281 0)
(10.0331 -0.00953102 0)
(10.0373 -0.00984484 0)
(10.0415 -0.0101429 0)
(10.0455 -0.0104376 0)
(10.0493 -0.0107375 0)
(10.053 -0.0110485 0)
(10.0565 -0.0113734 0)
(10.0599 -0.011715 0)
(10.0631 -0.0120621 0)
(10.0002 -0.00168054 0)
(10.0015 -0.00491978 0)
(10.0042 -0.00777612 0)
(10.0079 -0.0100464 0)
(10.0123 -0.011746 0)
(10.0168 -0.0130317 0)
(10.0215 -0.0140212 0)
(10.0261 -0.014774 0)
(10.0307 -0.0153442 0)
(10.0352 -0.0157907 0)
(10.0395 -0.0161606 0)
(10.0437 -0.016484 0)
(10.0477 -0.0167804 0)
(10.0516 -0.0170638 0)
(10.0552 -0.0173439 0)
(10.0587 -0.0176264 0)
(10.062 -0.0179155 0)
(10.0652 -0.0182039 0)
(10.0002 -0.00236198 0)
(10.0017 -0.00700698 0)
(10.0048 -0.0111096 0)
(10.0092 -0.0142121 0)
(10.0141 -0.0164082 0)
(10.019 -0.0180357 0)
(10.0239 -0.0192747 0)
(10.0288 -0.0201897 0)
(10.0336 -0.0208526 0)
(10.0382 -0.0213461 0)
(10.0427 -0.0217316 0)
(10.0469 -0.0220473 0)
(10.0509 -0.0223191 0)
(10.0548 -0.0225665 0)
(10.0584 -0.0228024 0)
(10.0619 -0.0230346 0)
(10.0652 -0.0232683 0)
(10.0683 -0.0234986 0)
(10.0002 -0.0029971 0)
(10.0018 -0.00911447 0)
(10.0056 -0.0144891 0)
(10.0108 -0.0183356 0)
(10.0163 -0.0209571 0)
(10.0217 -0.0228534 0)
(10.027 -0.0242194 0)
(10.0321 -0.0251606 0)
(10.0371 -0.0258149 0)
(10.0419 -0.0262935 0)
(10.0464 -0.0266567 0)
(10.0507 -0.0269395 0)
(10.0548 -0.0271704 0)
(10.0586 -0.0273722 0)
(10.0623 -0.0275597 0)
(10.0658 -0.0277412 0)
(10.0691 -0.0279219 0)
(10.0722 -0.0280989 0)
(10.0001 -0.00357272 0)
(10.0019 -0.011544 0)
(10.0064 -0.0179402 0)
(10.0127 -0.0220691 0)
(10.0189 -0.0250539 0)
(10.0247 -0.0273557 0)
(10.0304 -0.0288992 0)
(10.0359 -0.0298136 0)
(10.0411 -0.0303758 0)
(10.046 -0.030764 0)
(10.0506 -0.031044 0)
(10.0549 -0.0312479 0)
(10.059 -0.0314052 0)
(10.0629 -0.0315393 0)
(10.0666 -0.0316638 0)
(10.07 -0.0317857 0)
(10.0733 -0.0319084 0)
(10.0763 -0.0320279 0)
(9.99997 -0.00369212 0)
(10.0018 -0.0151866 0)
(10.0076 -0.022661 0)
(10.0148 -0.0259935 0)
(10.0214 -0.0285583 0)
(10.0277 -0.0310221 0)
(10.034 -0.0328021 0)
(10.0399 -0.033843 0)
(10.0454 -0.0344457 0)
(10.0505 -0.0348193 0)
(10.0552 -0.0350469 0)
(10.0596 -0.0351775 0)
(10.0637 -0.0352532 0)
(10.0675 -0.0353035 0)
(10.071 -0.0353449 0)
(10.0743 -0.0353857 0)
(10.0774 -0.0354294 0)
(10.0802 -0.0354736 0)
(9.99898 -0.00131089 0)
(9.99999 -0.0179791 0)
(10.0085 -0.0290776 0)
(10.0174 -0.0327044 0)
(10.0244 -0.0341295 0)
(10.0311 -0.0353568 0)
(10.0382 -0.0363047 0)
(10.0448 -0.0369481 0)
(10.0507 -0.0373997 0)
(10.0559 -0.0376997 0)
(10.0605 -0.0378626 0)
(10.0647 -0.0379245 0)
(10.0683 -0.0379266 0)
(10.0716 -0.0378984 0)
(10.0745 -0.037858 0)
(10.077 -0.0378167 0)
(10.0793 -0.037778 0)
(10.0813 -0.0377412 0)
(9.99528 0.00386774 0)
(9.99333 -0.0103149 0)
(10.007 -0.0271084 0)
(10.0212 -0.0389327 0)
(10.0311 -0.044872 0)
(10.0391 -0.0464795 0)
(10.0465 -0.045997 0)
(10.0529 -0.045041 0)
(10.058 -0.0441668 0)
(10.062 -0.0433953 0)
(10.0651 -0.0426832 0)
(10.0674 -0.0420276 0)
(10.0689 -0.0414348 0)
(10.0698 -0.0409046 0)
(10.0702 -0.0404345 0)
(10.0702 -0.0400236 0)
(10.0698 -0.0396622 0)
(10.0692 -0.0393235 0)
(9.99144 -0.0172942 0)
(9.99188 0.00036333 0)
(10.01 0.0176619 0)
(10.0295 0.011583 0)
(10.0441 -0.00511618 0)
(10.0541 -0.018834 0)
(10.0599 -0.027182 0)
(10.0622 -0.0320608 0)
(10.0616 -0.0349441 0)
(10.059 -0.0365514 0)
(10.0548 -0.0373303 0)
(10.0494 -0.0376057 0)
(10.0431 -0.0375907 0)
(10.036 -0.0374148 0)
(10.0284 -0.0371617 0)
(10.0205 -0.0368924 0)
(10.0123 -0.0366626 0)
(10.0042 -0.036441 0)
(10.0236 -0.206008 0)
(10.0684 -0.31234 0)
(10.0788 -0.255595 0)
(10.0704 -0.18418 0)
(10.0605 -0.134906 0)
(10.0498 -0.102732 0)
(10.0342 -0.0811724 0)
(10.0129 -0.0666271 0)
(9.98773 -0.0566365 0)
(9.96049 -0.049482 0)
(9.93225 -0.0441258 0)
(9.90374 -0.0399786 0)
(9.87542 -0.036682 0)
(9.84765 -0.0340032 0)
(9.82066 -0.0317943 0)
(9.79456 -0.0299918 0)
(9.76961 -0.0285654 0)
(9.74581 -0.0278315 0)
(9.94226 0.671595 0)
(9.87995 0.567454 0)
(9.77443 0.338465 0)
(9.63235 0.183317 0)
(9.4876 0.0949036 0)
(9.35647 0.0470803 0)
(9.24088 0.021295 0)
(9.13936 0.00707289 0)
(9.05039 -0.00098707 0)
(8.97238 -0.00562883 0)
(8.90359 -0.0083185 0)
(8.84248 -0.00988121 0)
(8.78782 -0.0107872 0)
(8.73861 -0.0113052 0)
(8.69403 -0.0115961 0)
(8.65337 -0.0117846 0)
(8.61579 -0.0119644 0)
(8.5809 -0.0124965 0)
(0.00407398 -0.00983137 -3.54134e-20)
(0.0139565 -0.0147999 3.49939e-20)
(0.0222768 -0.0124573 0)
(0.0272777 -0.00707691 0)
(0.0282014 -0.00103001 0)
(0.0251177 0.004287 -3.28606e-20)
(0.01891 0.0082744 0)
(0.0102763 0.0109752 0)
(-0.000184561 0.0127265 0)
(-0.0120129 0.0139027 0)
(-0.0249471 0.0147697 3.02297e-20)
(-0.0388322 0.0154823 0)
(-0.0535687 0.0161251 0)
(-0.0691022 0.0167392 0)
(-0.0854014 0.0173416 0)
(-0.102445 0.0179371 2.69929e-20)
(-0.120216 0.0185251 0)
(-0.138699 0.0191029 0)
(-0.157876 0.019667 0)
(-0.177732 0.0202139 0)
(-0.198246 0.0207395 0)
(-0.219397 0.0212378 0)
(-0.24116 0.0216993 0)
(-0.263503 0.0221099 2.30198e-20)
(-0.286389 0.022452 -2.2636e-20)
(-0.30977 0.0227079 2.2277e-20)
(-0.333596 0.0228666 2.19431e-20)
(-0.357807 0.0229456 0)
(-0.382348 0.0230576 0)
(-0.407305 0.0235816 -2.10936e-20)
(-0.433097 0.0252858 -2.08622e-20)
(-0.46012 0.0282337 0)
(-0.488042 0.0293258 0)
(-0.516148 0.0258014 -2.03145e-20)
(-0.544029 0.0237405 0)
(-0.571908 0.0279288 0)
(-0.600462 0.039729 2.03331e-20)
(-0.63148 0.0330037 0)
(-0.666128 0.0502248 2.0514e-20)
(-0.701668 0.0672732 4.10117e-20)
(-0.741807 0.0378637 0)
(-0.778191 0.0347142 0)
(-0.813385 0.0687909 0)
(-0.854665 0.0541036 0)
(-0.895506 0.0253694 0)
(-0.929476 0.0310787 4.05098e-20)
(-0.968337 0.0331006 4.0054e-20)
(-1.00824 0.0339007 3.96041e-20)
(-1.04885 0.0343611 0)
(-1.08993 0.0345414 -3.87334e-20)
(-1.13128 0.0345509 0)
(-1.17276 0.0344485 3.79086e-20)
(-1.2143 0.0342704 3.75135e-20)
(-1.25583 0.0340386 0)
(-1.2973 0.0337669 0)
(-1.33867 0.0334641 0)
(-1.37991 0.0331357 3.60369e-20)
(-1.42098 0.032785 0)
(-1.46186 0.0324139 0)
(-1.50252 0.0320235 0)
(-1.54293 0.0316142 0)
(-1.58306 0.031186 0)
(-1.62289 0.0307386 0)
(-1.66238 0.0302718 0)
(-1.70151 0.0297851 0)
(-1.74023 0.0292781 -3.31397e-20)
(-1.77852 0.0287504 0)
(-1.81634 0.0282019 0)
(-1.85367 0.0276324 3.22419e-20)
(-1.89045 0.0270417 3.19449e-20)
(-1.92665 0.02643 0)
(-1.96225 0.0257974 -3.13505e-20)
(-1.99719 0.0251442 3.1052e-20)
(-2.03145 0.0244709 0)
(-2.06497 0.0237779 -3.04495e-20)
(-2.09774 0.0230659 0)
(-2.1297 0.0223355 0)
(-2.16082 0.0215874 2.9524e-20)
(-2.19107 0.0208224 0)
(-2.22041 0.0200414 -2.88862e-20)
(-2.24879 0.0192451 0)
(-2.27619 0.0184342 2.82271e-20)
(-2.30257 0.0176096 2.78883e-20)
(-2.3279 0.0167717 2.75427e-20)
(-2.35214 0.015921 5.43799e-20)
(-2.37525 0.0150577 -5.36591e-20)
(-2.39722 0.0141817 0)
(-2.41799 0.0132924 0)
(-2.43755 0.0123886 0)
(-2.45585 0.0114685 -5.06069e-20)
(-2.47285 0.0105292 -4.9798e-20)
(-2.48853 0.00956681 4.89694e-20)
(-2.50285 0.0085768 0)
(-2.51574 0.00755369 -4.72511e-20)
(-2.52717 0.00649082 -4.63604e-20)
(-2.53706 0.00538179 -4.54483e-20)
(-2.54536 0.00422627 0)
(-2.55196 0.00304178 0)
(-2.55677 0.00187214 0)
(-2.55966 0.000773473 -4.15816e-20)
(-2.56076 -0.000202642 0)
(-2.56046 -0.00105309 0)
(-2.55868 -0.00187245 3.84105e-20)
(-2.55544 -0.00267753 0)
(-2.55074 -0.00347603 0)
(-2.54455 -0.00426929 3.50051e-20)
(-2.53689 -0.00505738 0)
(-2.52773 -0.00583971 0)
(-2.51706 -0.00661551 -3.13612e-20)
(-2.50489 -0.00738394 -3.00938e-20)
(-2.49121 -0.00814414 0)
(-2.476 -0.00889526 2.74807e-20)
(-2.45929 -0.00963647 0)
(-2.44106 -0.010367 -2.47649e-20)
(-2.42132 -0.0110859 0)
(-2.40007 -0.0117926 -2.19496e-20)
(-2.37733 -0.0124862 -2.05058e-20)
(-2.35309 -0.0131659 0)
(-2.32739 -0.0138312 0)
(-2.30021 -0.0144812 0)
(-2.27159 -0.0151152 0)
(-2.24154 -0.0157327 0)
(-2.21008 -0.016333 0)
(-2.17722 -0.0169156 0)
(-2.14299 -0.0174799 -8.17472e-21)
(-2.10742 -0.0180255 6.54806e-21)
(-2.07053 -0.0185518 0)
(-2.03235 -0.0190583 0)
(-1.99291 -0.0195447 0)
(-1.95223 -0.0200104 0)
(-1.91036 -0.0204552 -3.59833e-21)
(-1.86731 -0.0208787 0)
(-1.82314 -0.0212807 1.04318e-20)
(-1.77788 -0.021661 -1.38719e-20)
(-1.73156 -0.0220194 0)
(-1.68422 -0.0223557 0)
(-1.6359 -0.0226699 0)
(-1.58664 -0.0229618 2.77252e-20)
(-1.53649 -0.0232316 3.11981e-20)
(-1.48548 -0.0234792 0)
(-1.43367 -0.0237049 3.81356e-20)
(-1.38108 -0.0239088 4.15947e-20)
(-1.32777 -0.0240911 -4.50435e-20)
(-1.27378 -0.0242521 0)
(-1.21914 -0.0243922 0)
(-1.16391 -0.0245119 -5.53009e-20)
(-1.10813 -0.0246116 0)
(-1.05184 -0.0246917 0)
(-0.995082 -0.024753 0)
(-0.937893 -0.0247961 0)
(-0.880314 -0.0248217 7.1938e-20)
(-0.822385 -0.0248306 7.51737e-20)
(-0.764142 -0.0248237 0)
(-0.705621 -0.0248018 8.15342e-20)
(-0.646856 -0.0247658 0)
(-0.587877 -0.0247167 0)
(-0.528716 -0.0246554 9.07661e-20)
(-0.469401 -0.0245826 0)
(-0.409959 -0.024499 9.66919e-20)
(-0.350414 -0.0244049 0)
(-0.290795 -0.0243002 0)
(-0.231124 -0.0241825 1.05203e-19)
(-0.171433 -0.0240449 0)
(-0.11175 -0.0238832 1.10608e-19)
(-0.0520989 -0.0236913 0)
(0.00748728 -0.0234207 0)
(0.0668696 -0.0230476 0)
(0.126145 -0.0226647 -1.17432e-19)
(0.185312 -0.0223055 0)
(0.24438 -0.0219644 1.18958e-19)
(0.303357 -0.0216309 0)
(0.362229 -0.0212943 0)
(0.420949 -0.0209401 0)
(0.479414 -0.0205445 0)
(0.537443 -0.0200621 0)
(0.594534 -0.0194005 0)
(0.650268 -0.0183137 0)
(0.700567 -0.0161721 -2.4533e-19)
(0.749476 -0.0113589 0)
(0.751832 0.00626273 0)
(0.00378574 -0.0280457 1.05259e-19)
(0.0080612 -0.0270609 -1.01199e-19)
(0.0075633 -0.0161943 0)
(0.00462036 -0.00456471 6.13525e-20)
(-0.000363304 0.00634203 0)
(-0.00717953 0.015816 2.88865e-20)
(-0.0158138 0.0235565 -5.63437e-20)
(-0.0261723 0.02962 -5.50391e-20)
(-0.0381366 0.0342835 0)
(-0.0515517 0.0379092 -5.2532e-20)
(-0.0662517 0.0408288 -2.56659e-20)
(-0.0820881 0.0432868 0)
(-0.0989438 0.0454459 0)
(-0.116733 0.0474069 0)
(-0.135398 0.0492287 0)
(-0.154896 0.0509436 -2.28471e-20)
(-0.175204 0.0525685 0)
(-0.196305 0.0541119 4.37082e-20)
(-0.218191 0.0555776 0)
(-0.240858 0.0569671 0)
(-0.264309 0.0582797 -4.11363e-20)
(-0.288547 0.0595135 0)
(-0.313584 0.0606643 3.96589e-20)
(-0.339437 0.0617274 -1.95174e-20)
(-0.366134 0.0626992 1.92082e-20)
(-0.393715 0.063581 -1.89232e-20)
(-0.42224 0.0643841 -1.8663e-20)
(-0.45179 0.0651438 0)
(-0.48248 0.0659502 0)
(-0.514412 0.066984 1.80481e-20)
(-0.547479 0.0684946 -1.78494e-20)
(-0.581382 0.0705022 0)
(-0.616401 0.0722035 0)
(-0.653627 0.0724908 1.77762e-20)
(-0.692855 0.0722231 0)
(-0.732684 0.0727127 0)
(-0.772898 0.073816 -1.73976e-20)
(-0.815732 0.0754751 0)
(-0.855576 0.0774062 1.705e-20)
(-0.894591 0.0821008 -3.42676e-20)
(-0.93535 0.0823463 0)
(-0.978589 0.0805354 0)
(-1.01881 0.0830759 -6.62838e-20)
(-1.05827 0.0857432 -6.56931e-20)
(-1.09953 0.0859842 -6.5021e-20)
(-1.14209 0.0873534 3.20212e-20)
(-1.1826 0.0883095 -3.18075e-20)
(-1.22196 0.0885794 -9.41728e-20)
(-1.26074 0.0884316 6.20278e-20)
(-1.29908 0.0880008 3.07473e-20)
(-1.33708 0.087371 0)
(-1.37476 0.0866002 -3.00953e-20)
(-1.41215 0.0857269 2.96364e-20)
(-1.44923 0.0847763 0)
(-1.48602 0.0837651 0)
(-1.52249 0.0827041 0)
(-1.55863 0.0815998 -2.86178e-20)
(-1.59443 0.0804562 0)
(-1.62988 0.0792754 5.60011e-20)
(-1.66495 0.0780581 0)
(-1.69963 0.0768044 5.49566e-20)
(-1.7339 0.0755137 0)
(-1.76773 0.0741854 -5.39451e-20)
(-1.8011 0.0728185 0)
(-1.83399 0.0714123 5.29583e-20)
(-1.86637 0.0699661 -2.61645e-20)
(-1.89822 0.0684791 0)
(-1.92951 0.0669512 -5.15067e-20)
(-1.96021 0.0653821 -2.55817e-20)
(-1.99029 0.0637721 -2.53406e-20)
(-2.01974 0.0621214 0)
(-2.0485 0.0604307 -2.47282e-20)
(-2.07657 0.0587008 -2.46131e-20)
(-2.10391 0.0569328 0)
(-2.13049 0.0551279 2.41201e-20)
(-2.15628 0.0532876 -4.76252e-20)
(-2.18125 0.0514135 0)
(-2.20538 0.0495073 -2.33601e-20)
(-2.22863 0.0475708 0)
(-2.25098 0.0456058 6.84086e-20)
(-2.27241 0.0436144 0)
(-2.29287 0.0415984 -6.67893e-20)
(-2.31236 0.0395597 -2.20129e-20)
(-2.33083 0.0375 2.16517e-20)
(-2.34827 0.035421 4.27333e-20)
(-2.36464 0.0333241 -4.21511e-20)
(-2.37993 0.0312105 0)
(-2.39411 0.0290811 0)
(-2.40715 0.0269365 0)
(-2.41903 0.0247765 1.19227e-19)
(-2.42972 0.0226007 3.91038e-20)
(-2.43922 0.0204078 -3.84235e-20)
(-2.44748 0.0181957 0)
(-2.45451 0.0159624 -3.69925e-20)
(-2.46028 0.0137046 3.62851e-20)
(-2.4648 0.011418 3.55387e-20)
(-2.4681 0.0090994 0)
(-2.47021 0.00675812 0)
(-2.47123 0.00443519 0)
(-2.47127 0.00219419 3.23694e-20)
(-2.47025 5.70501e-05 0)
(-2.46785 -0.00198501 -6.14142e-20)
(-2.46407 -0.0039884 -8.94511e-20)
(-2.45887 -0.00596653 5.78876e-20)
(-2.45223 -0.00792622 0)
(-2.44414 -0.00986796 2.71841e-20)
(-2.43458 -0.0117906 0)
(-2.42354 -0.013692 5.03988e-20)
(-2.41102 -0.0155701 -2.43185e-20)
(-2.39701 -0.0174225 -2.33275e-20)
(-2.3815 -0.0192469 0)
(-2.36449 -0.0210411 -6.3385e-20)
(-2.34599 -0.0228031 4.02382e-20)
(-2.32599 -0.0245308 1.89131e-20)
(-2.3045 -0.0262221 0)
(-2.28152 -0.0278753 1.67162e-20)
(-2.25707 -0.0294886 4.71064e-20)
(-2.23114 -0.0310601 0)
(-2.20375 -0.0325881 2.69674e-20)
(-2.17492 -0.0340712 2.46538e-20)
(-2.14466 -0.0355076 2.23141e-20)
(-2.11298 -0.0368961 0)
(-2.07991 -0.0382354 0)
(-2.04547 -0.0395242 0)
(-2.00967 -0.0407616 -6.57364e-21)
(-1.97255 -0.0419466 -4.91811e-21)
(-1.93412 -0.0430783 0)
(-1.89442 -0.0441558 -5.32395e-21)
(-1.85347 -0.0451785 -2.82769e-21)
(-1.81131 -0.0461456 0)
(-1.76796 -0.0470566 2.68464e-21)
(-1.72346 -0.0479112 9.45562e-21)
(-1.67785 -0.0487092 -7.76288e-21)
(-1.63116 -0.0494505 -9.29507e-21)
(-1.58343 -0.0501351 0)
(-1.53469 -0.0507631 0)
(-1.48499 -0.0513348 0)
(-1.43436 -0.0518502 -2.05047e-20)
(-1.38285 -0.0523101 2.19779e-20)
(-1.33051 -0.0527152 5.00853e-20)
(-1.27736 -0.0530662 -2.8106e-20)
(-1.22345 -0.053364 2.95346e-20)
(-1.16884 -0.0536095 3.31241e-20)
(-1.11355 -0.0538039 0)
(-1.05763 -0.0539486 0)
(-1.00113 -0.0540451 -3.94442e-20)
(-0.944085 -0.0540949 0)
(-0.88654 -0.0540996 0)
(-0.828535 -0.054061 9.4472e-20)
(-0.77011 -0.0539813 0)
(-0.711305 -0.0538624 5.14056e-20)
(-0.652157 -0.0537063 -5.48067e-20)
(-0.592703 -0.0535155 0)
(-0.532978 -0.0532923 5.82781e-20)
(-0.473015 -0.0530389 0)
(-0.412846 -0.0527578 0)
(-0.352499 -0.0524514 -6.59238e-20)
(-0.292004 -0.0521216 1.35055e-19)
(-0.231385 -0.0517701 -7.01349e-20)
(-0.170668 -0.051398 0)
(-0.109875 -0.0510041 0)
(-0.0490302 -0.0505868 7.51696e-20)
(0.0118446 -0.0501424 0)
(0.0727248 -0.0496684 7.80859e-20)
(0.133593 -0.0491713 0)
(0.194433 -0.0486512 0)
(0.255228 -0.0480957 0)
(0.316006 -0.0475299 8.30619e-20)
(0.376757 -0.0469787 0)
(0.437473 -0.0464411 -8.4821e-20)
(0.498142 -0.0459042 0)
(0.55874 -0.0453485 0)
(0.61921 -0.0447433 1.73348e-19)
(0.679442 -0.0440368 -1.74679e-19)
(0.739249 -0.0431286 0)
(0.798196 -0.0418246 0)
(0.855833 -0.0396249 0)
(0.909624 -0.0355767 5.39363e-19)
(0.962135 -0.0264437 0)
(0.992745 -0.00430036 -3.66994e-19)
(0.000974818 -0.033511 -4.21734e-23)
(-0.00205236 -0.0215779 1.31195e-19)
(-0.00820894 -0.00542052 0)
(-0.0155558 0.00949873 -1.13141e-19)
(-0.0241459 0.0229521 0)
(-0.0338175 0.0348274 0)
(-0.0445532 0.0450548 1.15157e-23)
(-0.0564089 0.0536693 4.89114e-20)
(-0.0694332 0.0608325 4.76985e-20)
(-0.0836294 0.066792 4.65833e-20)
(-0.098958 0.0718175 0)
(-0.115357 0.0761521 0)
(-0.132761 0.0799904 -4.34511e-20)
(-0.151113 0.0834757 -8.49719e-20)
(-0.170367 0.0867079 8.31197e-20)
(-0.190489 0.0897536 0)
(-0.21146 0.0926567 7.96583e-20)
(-0.233268 0.0954462 -3.904e-20)
(-0.255912 0.0981419 0)
(-0.279396 0.100758 7.50826e-20)
(-0.30373 0.103307 3.68752e-20)
(-0.328931 0.1058 -7.24369e-20)
(-0.35502 0.108246 -3.56319e-20)
(-0.382025 0.110659 0)
(-0.409982 0.113059 6.90524e-20)
(-0.438929 0.115472 6.8074e-20)
(-0.468908 0.11794 0)
(-0.49996 0.120516 6.63301e-20)
(-0.532116 0.123278 0)
(-0.565364 0.126317 6.48535e-20)
(-0.599545 0.129695 3.21245e-20)
(-0.634351 0.133266 0)
(-0.669728 0.13658 0)
(-0.706035 0.139217 0)
(-0.743269 0.141348 0)
(-0.780961 0.14371 0)
(-0.818642 0.146339 0)
(-0.856451 0.148607 5.99574e-20)
(-0.893303 0.150743 -8.88093e-20)
(-0.928713 0.151639 0)
(-0.964329 0.150517 0)
(-1.00083 0.150046 0)
(-1.03617 0.150007 -3.18753e-23)
(-1.07054 0.148049 5.56461e-20)
(-1.10566 0.145456 1.09913e-19)
(-1.14119 0.143898 -1.08507e-19)
(-1.17605 0.142592 -5.35293e-20)
(-1.21038 0.141283 5.29331e-20)
(-1.24432 0.139906 -7.66767e-23)
(-1.27796 0.138438 5.15743e-20)
(-1.31132 0.136879 0)
(-1.34446 0.135239 5.03611e-20)
(-1.37737 0.13353 -8.46561e-23)
(-1.41007 0.13176 0)
(-1.44256 0.129935 0)
(-1.47482 0.128061 -4.81215e-20)
(-1.50685 0.126139 0)
(-1.53864 0.12417 0)
(-1.57017 0.122154 4.64824e-20)
(-1.60142 0.12009 9.21622e-20)
(-1.63237 0.117976 -4.569e-20)
(-1.66301 0.115811 0)
(-1.6933 0.113592 4.47415e-20)
(-1.72324 0.111318 0)
(-1.75278 0.108988 4.36269e-20)
(-1.78192 0.106599 4.33612e-20)
(-1.81062 0.104152 -8.56313e-20)
(-1.83885 0.101646 -4.22747e-20)
(-1.86659 0.0990797 0)
(-1.89381 0.0964547 8.29533e-20)
(-1.92047 0.0937712 0)
(-1.94656 0.0910301 1.21853e-19)
(-1.97204 0.0882328 8.02883e-20)
(-1.99688 0.085381 7.93962e-20)
(-2.02105 0.0824765 -7.84998e-20)
(-2.04452 0.0795216 1.16474e-19)
(-2.06727 0.0765188 0)
(-2.08925 0.0734705 0)
(-2.11045 0.0703796 -7.48468e-20)
(-2.13083 0.0672488 -1.10931e-19)
(-2.15037 0.0640811 0)
(-2.16903 0.0608795 3.60588e-20)
(-2.18678 0.0576467 0)
(-2.20361 0.0543855 -1.05107e-19)
(-2.21948 0.0510987 -9.22672e-23)
(-2.23437 0.0477886 8.37353e-23)
(-2.24825 0.0444575 6.697e-20)
(-2.2611 0.0411076 0)
(-2.27289 0.0377405 -6.48334e-20)
(-2.2836 0.0343579 -4.69406e-23)
(-2.29322 0.0309614 0)
(-2.30171 0.0275525 0)
(-2.30907 0.0241335 0)
(-2.31528 0.0207073 5.91327e-20)
(-2.32034 0.0172794 0)
(-2.32423 0.013858 0)
(-2.32696 0.0104557 0)
(-2.32853 0.00708985 0)
(-2.32893 0.00377964 0)
(-2.32813 0.00053552 5.14724e-20)
(-2.32606 -0.00267085 0)
(-2.32265 -0.00586737 4.86135e-20)
(-2.31789 -0.00904611 4.71766e-20)
(-2.31174 -0.0122035 -4.57145e-20)
(-2.3042 -0.0153361 0)
(-2.29525 -0.0184405 -4.27143e-20)
(-2.28488 -0.0215127 0)
(-2.27307 -0.0245489 -3.9614e-20)
(-2.25981 -0.0275452 3.8027e-20)
(-2.24511 -0.0304977 1.09601e-19)
(-2.22896 -0.0334028 0)
(-2.21135 -0.0362569 9.97686e-20)
(-2.19229 -0.0390566 3.18641e-20)
(-2.17178 -0.0417986 0)
(-2.14981 -0.0444798 5.64995e-20)
(-2.1264 -0.0470971 5.30331e-20)
(-2.10155 -0.0496478 -7.40365e-20)
(-2.07527 -0.052129 0)
(-2.04758 -0.0545381 -2.09269e-20)
(-2.01847 -0.0568726 -1.91096e-20)
(-1.98798 -0.05913 -5.24165e-20)
(-1.95611 -0.0613081 0)
(-1.92288 -0.063405 0)
(-1.88832 -0.0654189 0)
(-1.85244 -0.0673481 -1.04637e-20)
(-1.81527 -0.0691912 0)
(-1.77683 -0.0709468 0)
(-1.73715 -0.0726138 4.09003e-21)
(-1.69625 -0.074191 2.16998e-21)
(-1.65418 -0.0756776 0)
(-1.61095 -0.0770727 0)
(-1.5666 -0.078376 -7.23331e-21)
(-1.52116 -0.0795871 0)
(-1.47468 -0.0807062 1.49664e-20)
(-1.42718 -0.0817334 1.80438e-20)
(-1.3787 -0.0826691 0)
(-1.32928 -0.0835135 0)
(-1.27897 -0.0842674 -2.95683e-20)
(-1.22779 -0.0849317 -8.1547e-22)
(-1.1758 -0.0855076 -8.20738e-22)
(-1.12302 -0.0859968 0)
(-1.06951 -0.0864006 -9.0318e-20)
(-1.01531 -0.0867208 0)
(-0.960449 -0.0869593 0)
(-0.904979 -0.0871185 0)
(-0.848939 -0.0872009 6.03892e-20)
(-0.79237 -0.0872092 0)
(-0.735313 -0.0871459 -1.33543e-19)
(-0.677808 -0.0870143 -7.11597e-20)
(-0.619894 -0.0868176 0)
(-0.561609 -0.0865592 -7.8145e-20)
(-0.50299 -0.0862425 0)
(-0.444072 -0.0858715 0)
(-0.384889 -0.0854498 -2.63241e-19)
(-0.325473 -0.0849813 1.81533e-19)
(-0.265855 -0.0844699 0)
(-0.206064 -0.0839193 1.94395e-19)
(-0.146125 -0.0833328 -1.01128e-19)
(-0.0860647 -0.0827131 0)
(-0.0259045 -0.082063 0)
(0.0343338 -0.0813841 0)
(0.0946298 -0.0806759 -3.33835e-19)
(0.154966 -0.0799373 0)
(0.215326 -0.0791685 -1.15655e-19)
(0.275701 -0.0783756 0)
(0.336092 -0.0775714 0)
(0.39652 -0.0767666 0)
(0.456985 -0.0759672 0)
(0.517467 -0.0751797 0)
(0.57795 -0.0743991 0)
(0.638413 -0.0736091 -2.53274e-19)
(0.698823 -0.0727814 0)
(0.759123 -0.0718691 -1.30007e-19)
(0.819205 -0.0707921 3.92583e-19)
(0.878896 -0.0694018 0)
(0.937832 -0.0674159 0)
(0.995671 -0.0642197 -2.68462e-19)
(1.05072 -0.0586418 -2.71999e-19)
(1.10563 -0.0477516 2.73999e-19)
(1.14837 -0.0252795 2.78798e-19)
(-0.00271823 -0.0257335 -2.077e-19)
(-0.0107208 -0.00619837 -1.9212e-19)
(-0.020369 0.0128656 -1.15517e-19)
(-0.0307944 0.0295973 -5.31648e-20)
(-0.0420312 0.0445787 0)
(-0.0538939 0.0579642 9.58067e-20)
(-0.0664033 0.0698008 -4.62188e-20)
(-0.0796556 0.0801471 0)
(-0.0937429 0.0891212 -4.36911e-20)
(-0.108726 0.0968995 0)
(-0.124631 0.103689 8.32491e-20)
(-0.141458 0.109694 0)
(-0.159191 0.115098 3.97908e-20)
(-0.177804 0.12005 7.78651e-20)
(-0.197277 0.124666 -7.62241e-20)
(-0.217589 0.129029 0)
(-0.238727 0.133202 -7.31641e-20)
(-0.260685 0.137229 0)
(-0.283461 0.141144 0)
(-0.307057 0.144972 -6.91124e-20)
(-0.331478 0.148733 0)
(-0.356733 0.152444 4.94691e-24)
(-0.382828 0.156122 0)
(-0.409771 0.159781 0)
(-0.437566 0.163438 -4.82104e-24)
(-0.466208 0.16711 -6.2744e-20)
(-0.495682 0.170814 -6.18663e-20)
(-0.525951 0.17456 -6.1041e-20)
(-0.556953 0.178354 0)
(-0.588585 0.182179 -1.18963e-19)
(-0.620685 0.185981 0)
(-0.653045 0.18961 -5.80203e-20)
(-0.685532 0.192806 0)
(-0.718173 0.195368 0)
(-0.750992 0.197375 5.58713e-20)
(-0.783844 0.199067 0)
(-0.816502 0.200479 -5.43834e-20)
(-0.84882 0.201432 -7.03341e-24)
(-0.880651 0.201989 1.05789e-19)
(-0.911962 0.201824 -1.04294e-19)
(-0.943104 0.200695 0)
(-0.974235 0.199478 0)
(-1.00505 0.198215 -4.99748e-20)
(-1.03562 0.196241 0)
(-1.06628 0.193882 -4.86066e-20)
(-1.09698 0.191669 4.7942e-20)
(-1.12753 0.189538 4.72941e-20)
(-1.1579 0.187424 0)
(-1.1881 0.185295 -4.60535e-20)
(-1.21815 0.183129 -4.54597e-20)
(-1.24806 0.180916 8.97043e-20)
(-1.27783 0.17865 -4.43218e-20)
(-1.30748 0.176332 -4.3776e-20)
(-1.337 0.17396 0)
(-1.36638 0.171534 0)