/*--------------------------------*- C++ -*----------------------------------*\
  =========                 |
  \\      /  F ield         | OpenFOAM: The Open Source CFD Toolbox
   \\    /   O peration     | Website:  https://openfoam.org
    \\  /    A nd           | Version:  9
     \\/     M anipulation  |
\*---------------------------------------------------------------------------*/
FoamFile
{
    format      ascii;
    class       volScalarField;
    location    "150";
    object      k;
}
// * * * * * * * * * * * * * * * * * * * * * * * * * * * * * * * * * * * * * //

dimensions      [0 2 -2 0 0 0 0];

internalField   nonuniform List<scalar> 
4000
(
0.000185025
0.00021683
0.000244787
0.000268348
0.000291031
0.000313816
0.000336402
0.000356501
0.000371798
0.000381166
0.000384413
0.00038544
0.000370219
0.000349751
0.000330771
0.000313309
0.000295485
0.000274284
0.000246049
0.000216243
0.000200482
0.000254885
0.000295011
0.000326489
0.000353921
0.000378432
0.000396114
0.000405284
0.000403751
0.000392576
0.000384299
0.000416136
0.000427278
0.000420453
0.000402416
0.000380303
0.000354982
0.000323643
0.000281561
0.000225272
0.000215223
0.000289293
0.000340863
0.000378488
0.000404705
0.000421776
0.000425283
0.000410766
0.000380142
0.000348385
0.000335957
0.000372191
0.00041393
0.000431224
0.000426446
0.000412629
0.000388862
0.000353606
0.00030397
0.000232766
0.00022426
0.000310958
0.000370313
0.000411006
0.000434427
0.000441676
0.000428545
0.000391166
0.000343702
0.000312137
0.000312721
0.000321029
0.000361967
0.0004104
0.000427883
0.000420876
0.000398851
0.000364467
0.000312301
0.000236709
0.00022576
0.000316678
0.000379152
0.000419252
0.000439044
0.000436746
0.000408494
0.000358674
0.000313128
0.0003014
0.000322631
0.000303498
0.000312152
0.000362347
0.000406045
0.000416224
0.000399589
0.000360863
0.000307675
0.000235974
0.000221265
0.000310946
0.000374622
0.000411498
0.000423848
0.000410149
0.00037039
0.000321839
0.00029547
0.00031343
0.000354744
0.000321124
0.000288356
0.000314201
0.000368855
0.000397196
0.000389387
0.000351144
0.000295711
0.000229927
0.000214838
0.000295285
0.000355486
0.000389062
0.000394142
0.000370943
0.000327815
0.00029204
0.000296885
0.000345908
0.000405223
0.000366375
0.000289485
0.0002829
0.000328404
0.000368499
0.000368421
0.000333613
0.000280309
0.000219887
0.000204187
0.00027167
0.000324594
0.000352959
0.000354808
0.000330794
0.000293837
0.000281916
0.000325287
0.00040682
0.000477191
0.000435106
0.000313795
0.000265566
0.000294868
0.000336246
0.000337906
0.000307788
0.000259606
0.000206591
0.00018502
0.000238469
0.000281289
0.000303907
0.000305481
0.000289304
0.000275475
0.000306095
0.000398253
0.000509553
0.00058317
0.000530968
0.000367358
0.000257779
0.00026759
0.000295606
0.000295945
0.000271721
0.000230787
0.000185006
0.000154202
0.000194546
0.000224491
0.000241353
0.000245908
0.000242934
0.000258724
0.00035653
0.000523848
0.000658745
0.000716147
0.000645492
0.000444235
0.000257804
0.00023141
0.000243044
0.000241079
0.000224271
0.000193677
0.000152188
0.00021683
0.000267973
0.00030873
0.000346538
0.000387954
0.000434638
0.000490844
0.000536539
0.000566216
0.00058286
0.000592604
0.00058785
0.000543035
0.000483982
0.000441498
0.000410186
0.000382573
0.000352075
0.000311739
0.000261288
0.000254885
0.000409571
0.000501059
0.000582891
0.000665021
0.000738936
0.000785599
0.000803667
0.000793527
0.000769449
0.000764562
0.000842358
0.000857755
0.000812714
0.000738415
0.000669782
0.000606692
0.00053836
0.000445483
0.000286211
0.000289293
0.00050716
0.000625625
0.000721299
0.000805442
0.000865404
0.00088143
0.000848172
0.000774249
0.000688307
0.000649307
0.000748199
0.000850924
0.000892209
0.000859881
0.000790372
0.000718077
0.000634552
0.000517793
0.000304598
0.000310958
0.000563548
0.000697503
0.000798208
0.000877974
0.000924741
0.000915935
0.000846393
0.000732318
0.000613559
0.000559837
0.000618737
0.000737046
0.000835672
0.000870637
0.000835829
0.000766232
0.00067402
0.000546303
0.000314392
0.000316678
0.000581279
0.00072153
0.00082099
0.000890627
0.000922069
0.000893464
0.000806233
0.000685325
0.000578756
0.00053748
0.000542481
0.000627035
0.000735789
0.000814071
0.000818058
0.000763322
0.000672356
0.000542636
0.000315417
0.000310946
0.00055969
0.000698731
0.000791534
0.000847425
0.000859835
0.000816811
0.000731971
0.000635774
0.000573198
0.000560473
0.000529027
0.000551908
0.000642875
0.000730177
0.000761704
0.000722744
0.000638877
0.00051352
0.00030705
0.000295285
0.000514143
0.000641891
0.000722123
0.000762605
0.000757906
0.000712288
0.000645744
0.000596221
0.000591883
0.000614477
0.000569782
0.000514108
0.000568148
0.000646166
0.000684079
0.000656536
0.000583653
0.000469027
0.0002886
0.00027167
0.000454224
0.000562511
0.000625227
0.000651394
0.000637557
0.00060147
0.000582465
0.000608757
0.000666326
0.00072323
0.00067694
0.000527149
0.000500786
0.000557485
0.000590408
0.000572148
0.0005139
0.000415624
0.000263232
0.000238469
0.000379612
0.000460474
0.000499363
0.000505676
0.000490076
0.000507265
0.000614989
0.000757657
0.000870467
0.000924833
0.000858069
0.00063587
0.00044171
0.000438842
0.000467588
0.000464004
0.000426352
0.000350803
0.000228739
0.000194546
0.000258136
0.000295897
0.000309066
0.000302437
0.000314034
0.00044836
0.000720461
0.000947396
0.00104562
0.0010521
0.000967311
0.000751635
0.000422649
0.000276027
0.000287315
0.000297374
0.000283452
0.000245566
0.000182994
0.000244787
0.00030873
0.000352209
0.000391925
0.000445304
0.00050902
0.000584921
0.0006406
0.000672714
0.000687855
0.000697563
0.000706013
0.000671853
0.000606761
0.000530726
0.000485734
0.000451579
0.000414539
0.000364052
0.000298147
0.000295011
0.000501059
0.000606305
0.000695892
0.000799477
0.000901704
0.00096175
0.000984241
0.000969086
0.000934552
0.000920291
0.000977248
0.00102683
0.00101144
0.000947073
0.000855396
0.00077002
0.000678019
0.000552739
0.000338572
0.000340863
0.000625625
0.000765139
0.000872426
0.000974855
0.0010616
0.00110345
0.0010873
0.00101497
0.000915197
0.000852761
0.000898794
0.00101401
0.00107867
0.00106702
0.000995501
0.000906171
0.000800175
0.000649909
0.000363626
0.000370313
0.000697503
0.000856617
0.000971835
0.0010694
0.00114317
0.00116356
0.00111744
0.00101369
0.000888396
0.000800959
0.000788099
0.000902522
0.00102406
0.00106988
0.00103707
0.00095823
0.000848677
0.000689344
0.00037411
0.000379152
0.00072153
0.000888728
0.00100506
0.00109379
0.0011473
0.00114225
0.0010796
0.000977865
0.000876096
0.000807202
0.000736365
0.000791382
0.000926692
0.00101209
0.00101399
0.000950022
0.00084483
0.000685787
0.00037411
0.000374622
0.000698731
0.000864937
0.000975109
0.00104795
0.00107231
0.00104517
0.00097999
0.000907601
0.000859493
0.000839512
0.000748756
0.000719147
0.000828502
0.000926804
0.000949588
0.00089916
0.000801295
0.000648728
0.00036306
0.000355486
0.000641891
0.000796718
0.000895035
0.000948461
0.000948564
0.000907238
0.00086105
0.000841647
0.000856735
0.000886941
0.000810606
0.000695328
0.000740365
0.000831166
0.000858353
0.000816958
0.000728459
0.000588206
0.000340969
0.000324594
0.000562511
0.00069575
0.000776639
0.000808969
0.000798266
0.00078514
0.000821975
0.000890353
0.000958341
0.00100301
0.000940227
0.000749858
0.000669603
0.00071337
0.000738479
0.00070788
0.000634036
0.000513129
0.000307932
0.000281289
0.000460474
0.000558412
0.000607331
0.000615434
0.000635057
0.000777888
0.00101568
0.00122297
0.00133445
0.00134719
0.00124138
0.000974201
0.000672941
0.000556052
0.000566872
0.000559886
0.000513808
0.000422686
0.000264503
0.000224491
0.000295897
0.000332613
0.000336168
0.000341017
0.000488279
0.000847537
0.00116782
0.00134736
0.00138584
0.00134624
0.00124781
0.00106543
0.000744779
0.00039333
0.000312327
0.000322836
0.00031666
0.000278188
0.000208784
0.000268348
0.000346538
0.000391925
0.000412862
0.000451654
0.000517279
0.000591125
0.000662696
0.000709003
0.000736051
0.000754509
0.000768276
0.000745135
0.000676694
0.000593663
0.000541102
0.000505909
0.000463918
0.000404093
0.000325664
0.000326489
0.000582891
0.000695892
0.000760236
0.000838988
0.000949156
0.00104369
0.00109064
0.00109345
0.00107631
0.00107318
0.00110961
0.00115966
0.0011562
0.00109274
0.000996536
0.000898249
0.000786627
0.000633661
0.000378013
0.000378488
0.000721299
0.000872426
0.000968949
0.0010615
0.00116173
0.00124007
0.00126291
0.00122843
0.00115794
0.00109738
0.0010849
0.00115297
0.00121521
0.00120539
0.00113727
0.00104022
0.000918818
0.000743267
0.000406592
0.000411006
0.000798208
0.000971835
0.00108939
0.00119581
0.00129331
0.00135358
0.00135733
0.0013092
0.00122478
0.00112767
0.00102423
0.00104671
0.00114597
0.00119177
0.00116414
0.00108489
0.000967125
0.000786877
0.000414372
0.000419252
0.00082099
0.00100506
0.00113347
0.00124273
0.00132711
0.00136869
0.00136837
0.00133294
0.00127386
0.00119302
0.00101915
0.000946454
0.00103987
0.0011231
0.00112836
0.00106745
0.000957576
0.000779586
0.000410481
0.000411498
0.000791534
0.000975109
0.00109988
0.00118791
0.00123647
0.00125799
0.00127159
0.00127802
0.00127376
0.00124718
0.00106589
0.000888369
0.000935918
0.0010317
0.00105598
0.00100759
0.000904066
0.000735165
0.000394679
0.000389062
0.000722123
0.000895035
0.00100647
0.00106187
0.00106964
0.00107497
0.00111988
0.00118477
0.00124226
0.00127089
0.00113918
0.000889271
0.000851994
0.000926298
0.00095838
0.000915624
0.000817812
0.000661585
0.000368734
0.000352959
0.000625227
0.000776639
0.000864588
0.000896211
0.000909547
0.000982967
0.00113417
0.00126738
0.00134268
0.0013528
0.00126363
0.00101441
0.000835344
0.000805325
0.000823931
0.000788588
0.000705173
0.000569975
0.000332339
0.000303907
0.000499363
0.000607331
0.000658441
0.000698369
0.000871408
0.00120516
0.00157918
0.00179713
0.00183655
0.00179824
0.00168671
0.00141286
0.00100558
0.000717146
0.00062946
0.000609084
0.000558767
0.000459698
0.000285566
0.000241353
0.000309066
0.000336168
0.000346298
0.000503033
0.000926449
0.00130573
0.00154981
0.00168014
0.00169052
0.00161954
0.00150408
0.00133776
0.00108463
0.000703098
0.000383494
0.000332297
0.000325816
0.000293605
0.000226161
0.000291031
0.000387954
0.000445304
0.000451654
0.000442177
0.000483845
0.000556098
0.000627337
0.000693478
0.000742248
0.000774491
0.000789908
0.000769488
0.000696473
0.000626776
0.000589851
0.000557018
0.000508074
0.000437504
0.000347888
0.000353921
0.000665021
0.000799477
0.000838988
0.000843585
0.000903744
0.00101465
0.00111519
0.00115701
0.00117908
0.00120528
0.00124511
0.00128172
0.00127528
0.00120848
0.00111196
0.00100337
0.000873824
0.000698001
0.000407445
0.000404705
0.000805442
0.000974855
0.0010615
0.00112153
0.00119761
0.00128815
0.00136366
0.00139623
0.00138123
0.00134356
0.00130772
0.00131415
0.0013347
0.00131002
0.00123853
0.00113648
0.00100323
0.000809991
0.000433864
0.000434427
0.000877974
0.0010694
0.00119581
0.00131162
0.00142467
0.00151642
0.00157787
0.00160419
0.00157527
0.00147626
0.00131577
0.00123095
0.00125232
0.00127273
0.00124229
0.00116597
0.00104259
0.000847825
0.000436658
0.000439044
0.000890627
0.00109379
0.00124273
0.00139085
0.00154001
0.00166123
0.00173686
0.00176766
0.00174284
0.00163147
0.00136318
0.00114647
0.00113377
0.00118496
0.00118976
0.00113427
0.0010225
0.000829523
0.000425594
0.000423848
0.000847425
0.00104795
0.00118791
0.00131108
0.00144812
0.00161044
0.00175248
0.00182725
0.00182473
0.00173975
0.00145614
0.00110337
0.00102322
0.00107819
0.0011061
0.0010628
0.000958431
0.000774804
0.00040208
0.000394142
0.000762605
0.000948461
0.00106187
0.00112981
0.001215
0.00139253
0.00161193
0.00177531
0.00182084
0.00176307
0.00155629
0.0011348
0.00095928
0.000966942
0.000997513
0.000962412
0.000863006
0.000693363
0.00037092
0.000354808
0.000651394
0.000808969
0.000896211
0.000951001
0.00107208
0.00132922
0.00164975
0.00186058
0.00190251
0.00182968
0.00166815
0.00135829
0.0010429
0.000896554
0.000859642
0.000825886
0.000737361
0.000593409
0.000335483
0.000305481
0.000505676
0.000615434
0.000698369
0.000892468
0.00127916
0.00181839
0.00218337
0.00226618
0.00224588
0.00218088
0.00206234
0.00187392
0.00145354
0.000994286
0.000729944
0.000633795
0.000571745
0.000470953
0.000291386
0.000245908
0.000302437
0.000341017
0.000503033
0.000951555
0.00137356
0.00167311
0.00188063
0.00199685
0.00198852
0.00188869
0.00175314
0.00157968
0.00136062
0.00105616
0.000647923
0.000384155
0.000327242
0.000294705
0.000235207
0.000313816
0.000434638
0.00050902
0.000517279
0.000483845
0.000446238
0.000498501
0.000580499
0.000652497
0.000702804
0.000742393
0.000756043
0.000735529
0.000689616
0.000667207
0.000654767
0.000617923
0.000554132
0.000467925
0.000367158
0.000378432
0.000738936
0.000901704
0.000949156
0.000903744
0.000833031
0.000891874
0.00104062
0.00116826
0.00124264
0.00128662
0.00133978
0.00137284
0.00135944
0.00129286
0.00119065
0.00107214
0.000933461
0.000747644
0.000429037
0.000421776
0.000865404
0.0010616
0.00116173
0.00119761
0.00119231
0.00123337
0.0013541
0.00149577
0.00156322
0.00154401
0.00150331
0.00147252
0.00144023
0.00138346
0.0012982
0.00118889
0.00104951
0.000852841
0.000447181
0.000441676
0.000924741
0.00114317
0.00129331
0.00142467
0.0015216
0.00159211
0.0016907
0.00181882
0.00187755
0.00178519
0.00159392
0.00143822
0.00136403
0.00132804
0.00127867
0.00119751
0.00107041
0.000869198
0.000441756
0.000436746
0.000922069
0.0011473
0.00132711
0.00154001
0.00175963
0.00191554
0.00203105
0.00213748
0.00215895
0.00201965
0.00169579
0.00138254
0.00124266
0.00122082
0.00120599
0.00114855
0.0010337
0.000829286
0.000418598
0.000410149
0.000859835
0.00107231
0.00123647
0.00144812
0.00176511
0.00206774
0.00226551
0.00237728
0.00235494
0.00218399
0.00182049
0.00135489
0.00112878
0.00109836
0.00110601
0.00106638
0.000958516
0.000761639
0.000383669
0.000370943
0.000757906
0.000948564
0.00106964
0.001215
0.00152549
0.00197442
0.00231793
0.00248393
0.0024386
0.00224275
0.00194136
0.00141437
0.00109128
0.000998853
0.000989914
0.000959343
0.000860516
0.000680637
0.000346854
0.000330794
0.000637557
0.000798266
0.000909547
0.00107208
0.0014163
0.00195492
0.00237254
0.00252493
0.0024856
0.00231063
0.0020583
0.00171919
0.00130619
0.00103022
0.000895197
0.000824664
0.000735101
0.000583849
0.000316371
0.000289304
0.000490076
0.000635057
0.000871408
0.00127916
0.00189417
0.00238225
0.00262397
0.00272312
0.00268413
0.00256831
0.00238981
0.0021876
0.00191013
0.00138841
0.000944199
0.000691871
0.000570976
0.000461328
0.000282595
0.000242934
0.000314034
0.000488279
0.000926449
0.00137356
0.00171435
0.00198612
0.00218563
0.00230248
0.0022871
0.00215175
0.00198521
0.00179805
0.00158114
0.00132634
0.000987283
0.000583558
0.000365822
0.0002946
0.000236872
0.000336402
0.000490844
0.000584921
0.000591125
0.000556098
0.000498501
0.000449477
0.000519862
0.000610959
0.0006673
0.000692435
0.000696226
0.000690928
0.000697751
0.000718637
0.000713389
0.000673727
0.000602524
0.000498901
0.000384791
0.000396114
0.000785599
0.00096175
0.00104369
0.00101465
0.000891874
0.000786775
0.000923886
0.00114622
0.00126708
0.00131534
0.00136011
0.00139824
0.00139801
0.00133025
0.00122443
0.00110137
0.000961154
0.000785395
0.000444823
0.000425283
0.00088143
0.00110345
0.00124007
0.00128815
0.00123337
0.0011518
0.00127906
0.00158131
0.0017324
0.00169792
0.00163413
0.00158218
0.00151162
0.00141731
0.00130988
0.00118932
0.00104686
0.000866104
0.000450133
0.000428545
0.000915935
0.00116356
0.00135358
0.00151642
0.00159211
0.00158962
0.0017073
0.00202256
0.00218658
0.00205175
0.00182878
0.00162497
0.00146846
0.0013586
0.00127049
0.00117357
0.0010386
0.000840634
0.000429561
0.000408494
0.000893464
0.00114225
0.00136869
0.00166123
0.00191554
0.00205173
0.00219614
0.00246633
0.00258618
0.00236341
0.00199613
0.00162234
0.00136745
0.00124453
0.00118055
0.00110717
0.000982436
0.000769364
0.000388169
0.00037039
0.000816811
0.00104517
0.00125799
0.00161044
0.00206774
0.00240416
0.00262713
0.00283454
0.00287423
0.00258514
0.00213288
0.00161405
0.00126002
0.00111757
0.00106965
0.00101633
0.000902698
0.00069188
0.000339706
0.000327815
0.000712288
0.000907238
0.00107497
0.00139253
0.00197442
0.0025389
0.00287271
0.00301849
0.0030031
0.00268115
0.00225033
0.00169074
0.00123929
0.00104308
0.000967078
0.000911744
0.000811948
0.000623694
0.000301483
0.000293837
0.00060147
0.00078514
0.000982967
0.00132922
0.00195492
0.00260555
0.00294821
0.00304853
0.00301389
0.00274291
0.0023713
0.00196985
0.00155142
0.00119177
0.00096246
0.000818476
0.000702426
0.000547046
0.000277538
0.000275475
0.000507265
0.000777888
0.00120516
0.00181839
0.00238225
0.00277523
0.00304302
0.0031479
0.00310916
0.00291225
0.00264673
0.00238348
0.00216353
0.00178405
0.00124356
0.000836777
0.000596652
0.000447091
0.000264972
0.000258724
0.00044836
0.000847537
0.00130573
0.00167311
0.00198612
0.00225421
0.00245709
0.0025803
0.00257397
0.00239619
0.00218788
0.00197473
0.00175762
0.00151704
0.00123931
0.000876425
0.000515485
0.000322582
0.00023822
0.000356501
0.000536539
0.0006406
0.000662696
0.000627337
0.000580499
0.000519862
0.000483273
0.000577193
0.000647323
0.000671849
0.000686618
0.000709232
0.000739703
0.000759696
0.000748052
0.000709165
0.000638894
0.000533821
0.000401067
0.000405284
0.000803667
0.000984241
0.00109064
0.00111519
0.00104062
0.000923886
0.000902966
0.00118459
0.00137194
0.001366
0.00136985
0.00139917
0.00139077
0.00131347
0.00120415
0.00108667
0.000962299
0.000808405
0.000455868
0.000410766
0.000848172
0.0010873
0.00126291
0.00136366
0.0013541
0.00127906
0.00131711
0.00172266
0.00204481
0.00189735
0.00173913
0.00163906
0.00153447
0.00140201
0.00126575
0.00113343
0.00099751
0.000842457
0.000443525
0.000391166
0.000846393
0.00111744
0.00135733
0.00157787
0.0016907
0.0017073
0.00179636
0.00221734
0.00262368
0.00238606
0.00204749
0.00177259
0.0015461
0.00135963
0.00121578
0.00109069
0.000948787
0.000762861
0.000398499
0.000358674
0.000806233
0.0010796
0.00136837
0.00173686
0.00203105
0.00219614
0.0023321
0.00266001
0.0030629
0.00278808
0.00229758
0.0018464
0.00149376
0.00126203
0.0011232
0.00101303
0.000873815
0.000664243
0.000335174
0.000321839
0.000731971
0.00097999
0.00127159
0.00175248
0.00226551
0.00262713
0.00282633
0.00300747
0.00333407
0.00304837
0.00245948
0.00187408
0.00141215
0.00114903
0.00101998
0.000926287
0.000799354
0.000591791
0.000286682
0.00029204
0.000645744
0.00086105
0.00111988
0.00161193
0.00231793
0.00287271
0.00313331
0.00320133
0.00341644
0.00315231
0.00254453
0.00193585
0.0014086
0.00109745
0.000950705
0.000847892
0.000729228
0.000545257
0.000261302
0.000281916
0.000582465
0.000821975
0.00113417
0.00164975
0.00237254
0.00294821
0.00325431
0.00331157
0.00342718
0.00317002
0.00263357
0.00214446
0.00171759
0.00131696
0.00104018
0.000832964
0.000667535
0.000499314
0.000251472
0.000306095
0.000614989
0.00101568
0.00157918
0.00218337
0.00262397
0.00304302
0.0033442
0.00347543
0.00350822
0.00323905
0.00283566
0.00249949
0.00222477
0.00197634
0.00151026
0.00102633
0.000681558
0.000455633
0.000258015
0.00035653
0.000720461
0.00116782
0.00154981
0.00188063
0.00218563
0.00245709
0.0026698
0.00280431
0.00283324
0.00261825
0.00235566
0.00210631
0.00187302
0.00164101
0.001392
0.00110157
0.000739575
0.000424713
0.000254486
0.000371798
0.000566216
0.000672714
0.000709003
0.000693478
0.000652497
0.000610959
0.000577193
0.000589644
0.000671135
0.000716296
0.00074613
0.000759055
0.000780268
0.000779251
0.000758867
0.000723004
0.000662792
0.000564456
0.00041463
0.000403751
0.000793527
0.000969086
0.00109345
0.00115701
0.00116826
0.00114622
0.00118459
0.00123195
0.0014447
0.00151121
0.00148627
0.00142852
0.00134815
0.00125009
0.00114058
0.00103731
0.000941976
0.000822927
0.000462755
0.000380142
0.000774249
0.00101497
0.00122843
0.00139623
0.00149577
0.00158131
0.00172266
0.00168908
0.00197508
0.00215521
0.00194178
0.00170226
0.00152068
0.00134298
0.00117382
0.00103006
0.000911971
0.000794621
0.00042527
0.000343702
0.000732318
0.00101369
0.0013092
0.00160419
0.00181882
0.00202256
0.00221734
0.00207694
0.00240318
0.00273178
0.00233378
0.00190856
0.00159474
0.00133526
0.00112762
0.000963178
0.000818111
0.000662163
0.000350968
0.000313128
0.000685325
0.000977865
0.00133294
0.00176766
0.00213748
0.00246633
0.00266001
0.00241056
0.00274531
0.00317964
0.0026328
0.00204742
0.00160602
0.00128023
0.00105725
0.000892648
0.000734478
0.000552572
0.000286898
0.00029547
0.000635774
0.000907601
0.00127802
0.00182725
0.00237728
0.00283454
0.00300747
0.00268167
0.00298907
0.00344544
0.00279683
0.00210589
0.00156857
0.00120309
0.000985306
0.00083439
0.000682044
0.000495225
0.000257023
0.000296885
0.000596221
0.000841647
0.00118477
0.00177531
0.00248393
0.00301849
0.00320133
0.00289062
0.00313975
0.00352309
0.00283512
0.00213737
0.00157489
0.00117103
0.000953087
0.00080253
0.000652215
0.000473709
0.000250918
0.000325287
0.000608757
0.000890353
0.00126738
0.00186058
0.00252493
0.00304853
0.00331157
0.003149
0.00332349
0.00351085
0.00284701
0.00226103
0.00180055
0.00140468
0.00108928
0.000860636
0.000657873
0.000470249
0.000258646
0.000398253
0.000757657
0.00122297
0.00179713
0.00226618
0.00272312
0.0031479
0.00347543
0.00354964
0.00364055
0.00350901
0.00297319
0.00255756
0.00223167
0.00196206
0.00163435
0.00117295
0.000785288
0.000506338
0.000278523
0.000523848
0.000947396
0.00134736
0.00168014
0.00199685
0.00230248
0.0025803
0.00280431
0.00292761
0.00299076
0.0027953
0.00248083
0.00219033
0.00193223
0.0016968
0.00146122
0.00121294
0.000909143
0.000571972
0.000308456
0.000381166
0.00058286
0.000687855
0.000736051
0.000742248
0.000702804
0.0006673
0.000647323
0.000671135
0.00077346
0.000798789
0.000807296
0.000809469
0.000801972
0.000784416
0.000757452
0.000724281
0.000677043
0.000588893
0.000424294
0.000392576
0.000769449
0.000934552
0.00107631
0.00117908
0.00124264
0.00126708
0.00137194
0.0014447
0.00123019
0.00148051
0.00157256
0.00139461
0.0012916
0.00118329
0.00107272
0.000981078
0.00091479
0.000832909
0.000465225
0.000348385
0.000688307
0.000915197
0.00115794
0.00138123
0.00156322
0.0017324
0.00204481
0.00197508
0.00161176
0.00219905
0.0021144
0.00172089
0.00147403
0.00126623
0.00107246
0.000919165
0.000821044
0.000744614
0.000396365
0.000312137
0.000613559
0.000888396
0.00122478
0.00157527
0.00187755
0.00218658
0.00262368
0.00240318
0.00201899
0.00284
0.00251563
0.00197638
0.00160343
0.00129905
0.00104278
0.00084062
0.00069338
0.000577961
0.000312865
0.0003014
0.000578756
0.000876096
0.00127386
0.00174284
0.00215895
0.00258618
0.0030629
0.00274531
0.0024242
0.00329994
0.00278462
0.00214656
0.00167622
0.00130297
0.00101793
0.000801073
0.000621021
0.000470875
0.000268155
0.00031343
0.000573198
0.000859493
0.00127376
0.00182473
0.00235494
0.00287423
0.00333407
0.00298907
0.00276409
0.00354336
0.00290391
0.00220925
0.00167982
0.0012771
0.000994685
0.000790581
0.000607708
0.000433601
0.000261988
0.000345908
0.000591883
0.000856735
0.00124226
0.00182084
0.0024386
0.0030031
0.00341644
0.00313975
0.00300589
0.00359206
0.00289001
0.00220487
0.00167611
0.00126416
0.000991458
0.000803422
0.000625755
0.000443989
0.000274848
0.00040682
0.000666326
0.000958341
0.00134268
0.00190251
0.0024856
0.00301389
0.00342718
0.00332349
0.00324675
0.0035716
0.00285939
0.00226542
0.00181305
0.00143137
0.00111112
0.000889257
0.000681199
0.000487047
0.000298665
0.000509553
0.000870467
0.00133445
0.00183655
0.00224588
0.00268413
0.00310916
0.00350822
0.00364055
0.00359205
0.0035326
0.00295212
0.00252127
0.00218342
0.00188563
0.00161352
0.00123159
0.000860812
0.000576861
0.000335418
0.000658745
0.00104562
0.00138584
0.00169052
0.00198852
0.0022871
0.00257397
0.00283324
0.00299076
0.00299665
0.00281521
0.00247418
0.00216752
0.00190132
0.00166345
0.00144053
0.00121563
0.00096902
0.000680663
0.000394831
0.000384413
0.000592604
0.000697563
0.000754509
0.000774491
0.000742393
0.000692435
0.000671849
0.000716296
0.000798789
0.000818164
0.000829432
0.000826186
0.000812307
0.000790376
0.000760665
0.000728007
0.000687927
0.000604929
0.000429204
0.000384299
0.000764562
0.000920291
0.00107318
0.00120528
0.00128662
0.00131534
0.001366
0.00151121
0.00148051
0.00145776
0.00145493
0.00135563
0.0012647
0.00115955
0.00105118
0.000965155
0.000912357
0.000845192
0.000463398
0.000335957
0.000649307
0.000852761
0.00109738
0.00134356
0.00154401
0.00169792
0.00189735
0.00215521
0.00219905
0.00206865
0.00185208
0.0015811
0.0013894
0.00120424
0.00102296
0.000879296
0.0007973
0.000737066
0.000377478
0.000312721
0.000559837
0.000800959
0.00112767
0.00147626
0.00178519
0.00205175
0.00238606
0.00273178
0.00284
0.00258459
0.00218725
0.00180102
0.00150004
0.00123782
0.000995445
0.000797921
0.000664099
0.000566089
0.000303743
0.000322631
0.00053748
0.000807202
0.00119302
0.00163147
0.00201965
0.00236341
0.00278808
0.00317964
0.00329994
0.0029474
0.00242919
0.00197058
0.00160841
0.00128747
0.00100998
0.000782506
0.000604131
0.000470346
0.00028039
0.000354744
0.000560473
0.000839512
0.00124718
0.00173975
0.00218399
0.00258514
0.00304837
0.00344544
0.00354336
0.00312748
0.00253943
0.00204947
0.00166245
0.00132232
0.00103918
0.000810095
0.000609893
0.00044719
0.000292351
0.000405223
0.000614477
0.000886941
0.00127089
0.00176307
0.00224275
0.00268115
0.00315231
0.00352309
0.00359206
0.0031474
0.00253679
0.00205212
0.00166087
0.00132797
0.00106354
0.000853494
0.000648845
0.000473828
0.000319234
0.00047719
0.00072323
0.00100301
0.0013528
0.00182968
0.00231063
0.00274291
0.00317002
0.00351085
0.0035716
0.00313906
0.00255809
0.00212088
0.0017519
0.00141413
0.001132
0.000924774
0.000726504
0.000535665
0.000354225
0.00058317
0.000924833
0.00134719
0.00179824
0.00218088
0.00256831
0.00291225
0.00323905
0.00350901
0.0035326
0.00317063
0.00273737
0.00241412
0.00212026
0.00182527
0.00154838
0.00122398
0.000898415
0.000636571
0.000403378
0.000716147
0.0010521
0.00134624
0.00161954
0.00188869
0.00215175
0.00239619
0.00261825
0.0027953
0.00281521
0.00256201
0.00227814
0.00202629
0.00179713
0.00158167
0.00137606
0.00117218
0.000962752
0.000727021
0.000472287
0.00038544
0.00058785
0.000706013
0.000768276
0.000789908
0.000756043
0.000696226
0.000686618
0.00074613
0.000807296
0.000829432
0.000833589
0.000826908
0.000816832
0.00080065
0.000775888
0.000740803
0.000688737
0.000584945
0.00042197
0.000416136
0.000842358
0.000977248
0.00110961
0.00124511
0.00133978
0.00136011
0.00136985
0.00148627
0.00157256
0.00145493
0.00138354
0.00133976
0.00127293
0.0011879
0.00110093
0.00103428
0.000977725
0.000875345
0.000481899
0.000372191
0.000748199
0.000898794
0.0010849
0.00130772
0.00150331
0.00163413
0.00173913
0.00194178
0.0021144
0.00185208
0.00160737
0.0014497
0.00131617
0.00118136
0.00105449
0.00096338
0.000916714
0.000861189
0.000437452
0.000321029
0.000618737
0.000788099
0.00102423
0.00131577
0.00159392
0.00182878
0.00204749
0.00233378
0.00251563
0.00218725
0.00182296
0.00153658
0.0013232
0.00114076
0.000980707
0.000859963
0.000785482
0.000711936
0.00035797
0.000303498
0.000542481
0.000736365
0.00101915
0.00136318
0.00169579
0.00199613
0.00229758
0.0026328
0.00278462
0.00242919
0.00199383
0.00162636
0.00134851
0.00112826
0.000944514
0.000796976
0.000683418
0.000578928
0.000294156
0.000321124
0.000529027
0.000748756
0.00106589
0.00145614
0.00182049
0.00213288
0.00245948
0.00279683
0.00290391
0.00253943
0.00208047
0.0016845
0.00137756
0.00113307
0.000937717
0.000775987
0.000633482
0.000499627
0.000270721
0.000366375
0.000569782
0.000810606
0.00113918
0.00155629
0.00194136
0.00225033
0.00254453
0.00283512
0.00289001
0.00253679
0.00210293
0.00172831
0.0014251
0.00116158
0.000955027
0.00078736
0.000628152
0.000471009
0.00027916
0.000435106
0.00067694
0.000940227
0.00126363
0.00166815
0.0020583
0.0023713
0.00263357
0.00284701
0.00285939
0.00255809
0.00219415
0.00187657
0.00158426
0.00130239
0.00104698
0.000855025
0.000670292
0.000493473
0.000305204
0.000530968
0.000858069
0.00124138
0.00168671
0.00206234
0.00238981
0.00264673
0.00283566
0.00297319
0.00295212
0.00273737
0.0024767
0.00223733
0.00199023
0.00173444
0.00146818
0.001126
0.000818481
0.000573341
0.000343558
0.000645492
0.000967311
0.00124781
0.00150408
0.00175314
0.00198521
0.00218788
0.00235566
0.00248083
0.00247418
0.00227814
0.0020667
0.00186704
0.00167408
0.00148359
0.00129155
0.00109627
0.000889365
0.000652538
0.000398469
0.000370219
0.000543035
0.000671853
0.000745135
0.000769488
0.000735529
0.000690928
0.000709232
0.000759055
0.000809469
0.000826186
0.000826908
0.000818883
0.000807939
0.000792923
0.000765596
0.000721932
0.000657147
0.000544401
0.000405543
0.000427278
0.000857755
0.00102683
0.00115966
0.00128172
0.00137284
0.00139824
0.00139917
0.00142852
0.00139461
0.00135563
0.00133976
0.00132548
0.00129036
0.00123296
0.0011625
0.00108454
0.000988532
0.000843143
0.000471597
0.00041393
0.000850924
0.00101401
0.00115297
0.00131415
0.00147252
0.00158218
0.00163906
0.00170226
0.00172089
0.0015811
0.0014497
0.00135868
0.00128402
0.0012096
0.00113755
0.001074
0.00100538
0.000896057
0.000456326
0.000361967
0.000737046
0.000902522
0.00104671
0.00123095
0.00143822
0.00162497
0.00177259
0.00190856
0.00197638
0.00180102
0.00153658
0.00133878
0.00120933
0.00111596
0.00104248
0.000983997
0.000921984
0.000805189
0.000410868
0.000312152
0.000627035
0.000791382
0.000946454
0.00114647
0.00138254
0.00162234
0.0018464
0.00204742
0.00214656
0.00197058
0.00162636
0.00133067
0.0011466
0.00103243
0.000952286
0.000888195
0.000815339
0.000680893
0.000341165
0.000288356
0.000551908
0.000719147
0.000888369
0.00110337
0.00135489
0.00161405
0.00187408
0.00210589
0.00220925
0.00204947
0.0016845
0.00133254
0.00110423
0.0009692
0.000878628
0.000804351
0.000720458
0.000580312
0.000286289
0.000289485
0.000514108
0.000695328
0.000889271
0.0011348
0.00141437
0.00169074
0.00193585
0.00213737
0.00220487
0.00205212
0.00172831
0.00138928
0.0011211
0.000953476
0.000838562
0.000742743
0.000644728
0.000507143
0.000257586
0.000313795
0.000527149
0.000749858
0.00101441
0.00135829
0.00171919
0.00196985
0.00214446
0.00226103
0.00226542
0.00212088
0.00187657
0.00161243
0.00134927
0.00109446
0.000905099
0.000740935
0.000600194
0.000454134
0.000246392
0.000367358
0.00063587
0.000974201
0.00141286
0.00187392