/*--------------------------------*- C++ -*----------------------------------*\
  =========                 |
  \\      /  F ield         | OpenFOAM: The Open Source CFD Toolbox
   \\    /   O peration     | Website:  https://openfoam.org
    \\  /    A nd           | Version:  9
     \\/     M anipulation  |
\*---------------------------------------------------------------------------*/
FoamFile
{
    format      ascii;
    class       volScalarField;
    location    "150";
    object      nut;
}
// * * * * * * * * * * * * * * * * * * * * * * * * * * * * * * * * * * * * * //

dimensions      [0 2 -1 0 0 0 0];

internalField   nonuniform List<scalar> 
4000
(
0.00072422
0.000783914
0.000834003
0.000875145
0.000913511
0.000949791
0.000983085
0.00100988
0.00102799
0.00103584
0.00103597
0.00104357
0.00102503
0.000996343
0.000967898
0.000941445
0.000914576
0.000881893
0.000836158
0.000788128
0.000753643
0.000848349
0.000911842
0.00095941
0.00100198
0.00103887
0.00106212
0.00107028
0.00105869
0.00103398
0.0010197
0.00106258
0.00108366
0.00108256
0.00106259
0.00103473
0.00100135
0.000957046
0.000894919
0.000804063
0.000781411
0.000904677
0.000980691
0.00103232
0.00106774
0.00109301
0.00109545
0.00106891
0.00102025
0.000976696
0.000969613
0.00100255
0.00106407
0.00109704
0.00109208
0.00107614
0.00104777
0.00100057
0.000930554
0.000817409
0.000798089
0.00093939
0.001024
0.00107734
0.00110628
0.00111699
0.00109681
0.0010418
0.000977564
0.000949279
0.000972028
0.000950934
0.00099005
0.00106489
0.00109589
0.00109061
0.00106089
0.0010162
0.000943732
0.00082431
0.000800984
0.000949484
0.00103851
0.00109122
0.00111574
0.00111126
0.00107026
0.00100248
0.000950192
0.000964059
0.00101726
0.000965311
0.000935027
0.000992544
0.00106437
0.00108483
0.00106483
0.0010129
0.000936903
0.00082275
0.000793701
0.000942338
0.0010346
0.00108329
0.00109773
0.00107693
0.0010203
0.000957967
0.000943892
0.00100834
0.00108307
0.00103043
0.000928283
0.000932583
0.00101178
0.0010586
0.00105234
0.00100038
0.000918717
0.000811567
0.000782197
0.00091933
0.001009
0.00105408
0.00105865
0.00102287
0.000963122
0.000925254
0.000973745
0.00108011
0.00116998
0.0011277
0.000966344
0.000899311
0.000951875
0.00101801
0.00102428
0.000975939
0.000894714
0.00079279
0.000762348
0.000882056
0.000964541
0.00100392
0.00100272
0.000961171
0.000916952
0.000935093
0.00105543
0.00119875
0.00128388
0.00125059
0.00105417
0.000887148
0.000903082
0.000971026
0.000981308
0.000938067
0.000861305
0.000767882
0.000725139
0.000826324
0.000897749
0.000930589
0.000928146
0.000898537
0.000899086
0.00101954
0.00122577
0.00137085
0.00143156
0.00139754
0.001203
0.000901202
0.000859058
0.000910373
0.000918239
0.000882056
0.000812525
0.000726174
0.000662276
0.000747149
0.000802333
0.000828876
0.000831789
0.000829732
0.000905445
0.00119205
0.00146146
0.00156562
0.00158343
0.00154299
0.00138905
0.000966098
0.000802614
0.000825801
0.000829394
0.000803234
0.000745591
0.000661951
0.000783914
0.000871523
0.000936448
0.000995663
0.00105868
0.00112482
0.00119722
0.00124695
0.00127379
0.00128473
0.00129108
0.00129294
0.00124843
0.00117684
0.00112003
0.00107839
0.00104191
0.00100087
0.000943342
0.000865362
0.000848349
0.00197533
0.00246502
0.00293411
0.00344882
0.00391368
0.00409378
0.00406003
0.0038844
0.00367282
0.0035941
0.00394631
0.00421241
0.00419692
0.00378176
0.00332501
0.00292122
0.00252834
0.00202358
0.000904202
0.000904677
0.00277809
0.00359898
0.00423461
0.00478284
0.00509009
0.00500898
0.00462608
0.00409432
0.00358031
0.003322
0.00365038
0.00424284
0.00476677
0.00488866
0.00456284
0.00410223
0.00352896
0.00269894
0.000933664
0.00093939
0.00325712
0.0042835
0.00496292
0.00544336
0.00560357
0.00533174
0.00474249
0.00401894
0.00332927
0.00293677
0.00307598
0.00361307
0.00426483
0.00480335
0.00491592
0.00462957
0.00402338
0.00301727
0.000949236
0.000949484
0.00343766
0.00455028
0.00520646
0.00557608
0.00561302
0.00523382
0.00457984
0.0038203
0.00310782
0.00268814
0.00266472
0.00309743
0.00365144
0.004271
0.00463968
0.00458655
0.00410126
0.00305784
0.000950944
0.000942338
0.0032729
0.00437425
0.00496003
0.00522329
0.00515517
0.00474428
0.00413272
0.00343669
0.00284344
0.00251754
0.00238596
0.00272194
0.00319639
0.00371362
0.004146
0.00421712
0.00384209
0.00287376
0.000937978
0.00091933
0.00291264
0.00389998
0.00438269
0.00455175
0.00441057
0.00401968
0.00344735
0.00287367
0.00253378
0.00239614
0.00222034
0.00236216
0.0028396
0.00326215
0.00362297
0.00369718
0.00339864
0.00255735
0.000908914
0.000882056
0.00245976
0.00326128
0.00362427
0.00371681
0.00353055
0.00313668
0.00263253
0.0023382
0.00232305
0.00241062
0.00222804
0.00202379
0.00240896
0.00280108
0.00306296
0.00310565
0.00286644
0.00218578
0.000867528
0.000826324
0.00194775
0.00248852
0.00269424
0.00268122
0.00243977
0.00214594
0.00202072
0.00214549
0.00236512
0.0025032
0.00231032
0.00188209
0.00183609
0.00207865
0.0023389
0.00238884
0.00223934
0.00177082
0.000808193
0.000747149
0.00086154
0.000920093
0.000933842
0.000919113
0.000987793
0.00134836
0.00170591
0.00185177
0.00187444
0.00185194
0.00179894
0.00169763
0.00136823
0.000899315
0.000888357
0.000915704
0.000900237
0.000839594
0.000723324
0.000834003
0.000936448
0.000999094
0.00105609
0.00113006
0.00121017
0.00129585
0.00135368
0.00138291
0.00139414
0.00140227
0.00141739
0.00138796
0.00131855
0.00122868
0.00117471
0.00113373
0.0010878
0.00102044
0.000924473
0.000911842
0.00246502
0.00309711
0.00365042
0.00436532
0.00514339
0.00546392
0.00550456
0.00532663
0.00505299
0.00488846
0.00510822
0.00548577
0.00561908
0.00537891
0.00467198
0.00403377
0.00340394
0.00259513
0.00098252
0.000980691
0.00359898
0.00480288
0.0056759
0.00649759
0.00714288
0.00730164
0.00700033
0.0063838
0.00564953
0.00511616
0.00523502
0.00598085
0.00668089
0.00696462
0.00658278
0.00586911
0.00493939
0.00359881
0.00101754
0.001024
0.0042835
0.00588918
0.00692048
0.00768768
0.00811961
0.00800416
0.00741752
0.00654078
0.00555985
0.00474729
0.00456207
0.00532389
0.00630906
0.00704105
0.00716972
0.00668458
0.00569677
0.00406796
0.00103414
0.00103851
0.00455028
0.00635472
0.00742188
0.00806396
0.00824284
0.00787637
0.00713787
0.00621137
0.00525211
0.00442057
0.00395778
0.00453835
0.0055587
0.00647394
0.00693929
0.00672004
0.0058314
0.00410746
0.00103463
0.0010346
0.00437425
0.00620837
0.00720551
0.00766271
0.00755264
0.0069825
0.00617211
0.00537033
0.00468879
0.00411296
0.0035487
0.00382235
0.00479936
0.00572213
0.00630737
0.00626187
0.00550458
0.00385107
0.0010191
0.001009
0.00389998
0.00558242
0.00642936
0.00665479
0.00628116
0.00549514
0.00468173
0.00420717
0.00400291
0.00382334
0.00331368
0.0031465
0.00398522
0.00491182
0.00548502
0.00551123
0.00487922
0.00341276
0.000987193
0.000964541
0.00326128
0.00463315
0.00526416
0.00523115
0.00465076
0.00377225
0.00329546
0.00337898
0.00364396
0.00375245
0.00329392
0.00264365
0.00302602
0.00390231
0.00447319
0.00455858
0.00406753
0.00288292
0.000937647
0.000897749
0.00248852
0.00336585
0.00366757
0.00337905
0.00284538
0.00250408
0.00276739
0.00338491
0.00391321
0.00402887
0.00352739
0.0025869
0.00221955
0.00256804
0.00307055
0.00329515
0.00303149
0.00225776
0.000868518
0.000802333
0.000920093
0.000969748
0.000966576
0.00101113
0.00141421
0.00186441
0.00202756
0.00209676
0.00209233
0.0020522
0.0019899
0.00189952
0.00173821
0.00126225
0.00094009
0.000946402
0.00094749
0.00089172
0.000771934
0.000875145
0.000995663
0.00105609
0.00108047
0.00113326
0.00121622
0.00129858
0.00137582
0.0014213
0.00144548
0.00146181
0.00147532
0.00145672
0.00138961
0.00129645
0.00123992
0.00120198
0.00115272
0.00107607
0.000966495
0.00095941
0.00293411
0.00365042
0.00400715
0.00447471
0.005211
0.00586417
0.00611118
0.00608766
0.00592927
0.00581416
0.00593978
0.00627413
0.00644421
0.00625463
0.00563742
0.00495145
0.00416544
0.00307224
0.00103778
0.00103232
0.00423461
0.0056759
0.0064838
0.00716972
0.00785542
0.00830625
0.00828631
0.00790782
0.00730373
0.0067501
0.00665018
0.00722489
0.0079122
0.00820377
0.00789821
0.00712708
0.00599402
0.0042489
0.00107449
0.00107734
0.00496292
0.00692048
0.0080527
0.00884093
0.00934158
0.00944199
0.0091259
0.00851067
0.00767198
0.00675337
0.00616838
0.00664815
0.00764591
0.00841528
0.00856798
0.00800038
0.00679163
0.00473852
0.00108654
0.00109122
0.00520646
0.00742188
0.00869215
0.00942041
0.00965162
0.00945206
0.00900898
0.00839922
0.00761549
0.00664813
0.00561943
0.0057076
0.00675576
0.0078045
0.00829646
0.00798237
0.0068453
0.00469392
0.00108183
0.00108329
0.00496003
0.00720551
0.00841176
0.00885824
0.00868563
0.00823465
0.00785968
0.00755084
0.00712696
0.0064227
0.00523852
0.00476037
0.00563899
0.00682336
0.00751748
0.00741398
0.00639668
0.00434504
0.00106051
0.00105408
0.00438269
0.00642936
0.00739275
0.00739814
0.0067278
0.00601007
0.00590271
0.00616604
0.00632799
0.0060675
0.00500574
0.00393801
0.00435564
0.00557157
0.00642061
0.00649071
0.00563902
0.00381915
0.00102457
0.00100392
0.00362427
0.00526416
0.00581185
0.00540966
0.00442217
0.00389643
0.00441444
0.00531076
0.00589947
0.00588497
0.00501112
0.0035425
0.00316822
0.00403701
0.00497726
0.00524565
0.00466496
0.00320533
0.000972061
0.000930589
0.00269424
0.00366757
0.00369751
0.00321995
0.00276807
0.00314597
0.00437023
0.00555558
0.00597458
0.00591667
0.00532651
0.00387889
0.00265477
0.00260186
0.00310493
0.00352951
0.00337297
0.00246403
0.000900582
0.000828876
0.000933842
0.000966576
0.000999418
0.00148556
0.00194406
0.00212493
0.00223174
0.00228745
0.00227911
0.00222833
0.0021568
0.00206257
0.00193845
0.00172051
0.00117234
0.000972812
0.000954508
0.000912373
0.000801703
0.000913511
0.00105868
0.00113006
0.00113326
0.00111844
0.00117546
0.00126406
0.0013435
0.00140831
0.00145438
0.00148289
0.0014958
0.00147632
0.00140367
0.00132867
0.00129479
0.00126419
0.00120874
0.00112075
0.000999391
0.00100198
0.00344882
0.00436532
0.00447471
0.0043421
0.00457368
0.00519619
0.00590578
0.00620984
0.0063296
0.0063953
0.00656352
0.00682521
0.0069743
0.00682573
0.00639315
0.00574949
0.00485738
0.00349385
0.00107659
0.00106774
0.00478284
0.00649759
0.00716972
0.00740482
0.00765983
0.00806053
0.00844048
0.00855907
0.00834896
0.0080359
0.00793033
0.00825591
0.00873364
0.00895823
0.00873466
0.00800617
0.00676012
0.00470929
0.0011073
0.00110628
0.00544336
0.00768768
0.00884093
0.00943396
0.00973036
0.00986984
0.00988213
0.00970928
0.00925111
0.00851089
0.00783733
0.0078936
0.00855363
0.00918443
0.00931606
0.00875664
0.00741375
0.00508069
0.0011131
0.00111574
0.00557608
0.00806396
0.00942041
0.0101138
0.0103979
0.010479
0.0104136
0.0101669
0.0096591
0.00876034
0.00748582
0.00694528
0.00751169
0.00842989
0.00890581
0.0085696
0.00729058
0.0048901
0.0010983
0.00109773
0.00522329
0.00766271
0.00885824
0.00922668
0.00928402
0.00952572
0.00985176
0.00989958
0.00959067
0.00878847
0.00726168
0.00593308
0.00608383
0.00711904
0.00790797
0.00782364
0.00670418
0.00445487
0.00106661
0.00105865
0.00455175
0.00665479
0.00739814
0.00713279
0.00670921
0.00720679
0.00827646
0.009002
0.0091396
0.00860338
0.0071959
0.00516948
0.00458447
0.00540706
0.00646606
0.00671002
0.00585991
0.00391066
0.00102398
0.00100272
0.00371681
0.00523115
0.00540966
0.0046392
0.0041518
0.00511812
0.00699335
0.00826936
0.0086976
0.00837941
0.00724508
0.00520866
0.00364251
0.00366686
0.00462848
0.00521829
0.00477888
0.00328962
0.000973426
0.000928146
0.00268122
0.00337905
0.00321995
0.00285881
0.00321705
0.00495714
0.00679003
0.00755239
0.00772893
0.00750767
0.00685761
0.00569447
0.00378517
0.00270593
0.00281105
0.00324675
0.0032943
0.00250241
0.000907068
0.000831789
0.000919113
0.00101113
0.00148556
0.00196918
0.00217137
0.00231194
0.00241486
0.00246685
0.00245224
0.00238959
0.00230854
0.00220931
0.0020868
0.00193477
0.00165849
0.0011452
0.000971089
0.000909561
0.000815119
0.000949791
0.00112482
0.00121017
0.00121622
0.00117546
0.00112818
0.00119818
0.00129602
0.00137244
0.00142056
0.00145395
0.0014628
0.0014392
0.00139201
0.00137413
0.00136919
0.00133527
0.00126549
0.00116043
0.00102725
0.00103887
0.00391368
0.00514339
0.005211
0.00457368
0.00392039
0.00403567
0.00479449
0.00565232
0.00632196
0.00657492
0.00686215
0.00712676
0.00725427
0.00713197
0.00677823
0.0062219
0.00536289
0.00384394
0.0011034
0.00109301
0.00509009
0.00714288
0.00785542
0.00765983
0.00712001
0.00698245
0.0074581
0.00818853
0.00868738
0.00881606
0.00884959
0.00903009
0.00925793
0.00933093
0.00908381
0.00839191
0.00712523
0.00495511
0.00112101
0.00111699
0.00560357
0.00811961
0.00934158
0.00973036
0.0096183
0.00943607
0.00951083
0.00980699
0.00997743
0.00972497
0.00923624
0.00902243
0.00921244
0.00951494
0.00951114
0.00890417
0.00749612
0.00505801
0.00111563
0.00111126
0.00561302
0.00824284
0.00965162
0.0103979
0.0107639
0.0108494
0.0108559
0.0108946
0.0108035
0.0102361
0.00912379
0.00824615
0.0081399
0.00858899
0.00889855
0.00850659
0.00715836
0.00469326
0.00108332
0.00107693
0.00515517
0.00755264
0.00868563
0.00928402
0.0101041
0.0108708
0.0112774
0.0113953
0.0112204
0.0105249
0.009008
0.00732061
0.00660791
0.00699566
0.00763396
0.00759883
0.00647321
0.00421705
0.00103559
0.00102287
0.00441057
0.00628116
0.0067278
0.00670921
0.00773219
0.00956962
0.0108082
0.0112954
0.0112274
0.0105689
0.00911794
0.00673577
0.00518391
0.0050963
0.00586227
0.00630388
0.00561177
0.00374281
0.000985389
0.000961171
0.00353055
0.00465076
0.00442217
0.0041518
0.0054064
0.00815144
0.010057
0.010757
0.0108137
0.0103422
0.0091794
0.00720708
0.00481798
0.00369825
0.00392319
0.00459793
0.00448965
0.00318522
0.000941615
0.000898537
0.00243977
0.00284538
0.00276807
0.00321705
0.00515038
0.00740965
0.00868131
0.00921127
0.0092285
0.00888664
0.00815674
0.00706633
0.00551091
0.00354171
0.00270581
0.00277337
0.00291934
0.00238008
0.00089099
0.000829732
0.000987793
0.00141421
0.00194406
0.00217137
0.00233796
0.00247836
0.00257373
0.00262955
0.00261662
0.0025373
0.00244098
0.00233398
0.00220835
0.00206889
0.00189433
0.00152956
0.00110275
0.000924704
0.000818007
0.000983085
0.00119722
0.00129585
0.00129858
0.00126406
0.00119818
0.00113906
0.00123024
0.00133329
0.00138963
0.00141137
0.00141191
0.0014039
0.00140665
0.00143097
0.00142996
0.00139686
0.00132047
0.00120104
0.0010521
0.00106212
0.00409378
0.00546392
0.00586417
0.00519619
0.00403567
0.00324055
0.00364071
0.0046887
0.00557718
0.00612967
0.00657309
0.00697959
0.00728774
0.0071991
0.00689161
0.00636777
0.0055219
0.00409163
0.00112146
0.00109545
0.00500898
0.00730164
0.00830625
0.00806053
0.00698245
0.00591821
0.00597886
0.0071253
0.00821533
0.0088312
0.00916915
0.00941257
0.00949239
0.0093822
0.00902478
0.00827087
0.00696224
0.00489667
0.00112352
0.00109681
0.00533174
0.00800416
0.00944199
0.00986984
0.00943607
0.00860261
0.00827243
0.00895783
0.00986859
0.010239
0.0101095
0.00986048
0.00965595
0.00952353
0.00924342
0.00849439
0.00701162
0.00465379
0.00109271
0.00107026
0.00523382
0.00787637
0.00945206
0.010479
0.0108494
0.0106015
0.0102366
0.0104351
0.0110127
0.0110634
0.0103442
0.0093958
0.00874016
0.0085288
0.00844301
0.00791174
0.00652353
0.00415795
0.00103344
0.0010203
0.00474428
0.0069825
0.00823465
0.00952572
0.0108708
0.0115149
0.0115269
0.0114692
0.0117573
0.0115455
0.0103759
0.00865062
0.00733795
0.00687859
0.0070013
0.00688504
0.00584605
0.00372903
0.000965293
0.000963122
0.00401968
0.00549514
0.00601007
0.00720679
0.00956962
0.0113552
0.0119797
0.0119065
0.0120074
0.0117163
0.0105017
0.00826125
0.00613842
0.00512853
0.00516664
0.00546449
0.00502011
0.00339587
0.000918319
0.000916952
0.00313668
0.00377225
0.00389643
0.00511812
0.00815144
0.0107407
0.0117101
0.0117345
0.0117696
0.0115018
0.010476
0.00867284
0.00632829
0.00432701
0.0036264
0.00377949
0.0038688
0.00293942
0.000888924
0.000899086
0.00214594
0.00250408
0.00314597
0.00495714
0.00740965
0.00911666
0.0099959
0.0102307
0.0102214
0.00986356
0.00908201
0.00800567
0.00674341
0.00493524
0.00323402
0.00255887
0.00246958
0.00214544
0.000871582
0.000905445
0.00134836
0.00186441
0.00212493
0.00231194
0.00247836
0.00261177
0.00270988
0.00277175
0.00276903
0.0026689
0.00255087
0.00242985
0.00230705
0.00216662
0.00201271
0.0018121
0.00141851
0.00102764
0.000832644
0.00100988
0.00124695
0.00135368
0.00137582
0.0013435
0.00129602
0.00123024
0.00119087
0.00130215
0.00137498
0.00139746
0.00141031
0.00143081
0.00145618
0.00147411
0.00146363
0.00143074
0.00135785
0.00124319
0.00107395
0.00107028
0.00406003
0.00550456
0.00611118
0.00590578
0.00479449
0.00364071
0.00304349
0.00379226
0.0048231
0.00551487
0.00614375
0.00674995
0.00714388
0.00706588
0.00675806
0.00624294
0.00544867
0.00412622
0.00113171
0.00106891
0.00462608
0.00700033
0.00828631
0.00844048
0.0074581
0.00597886
0.00490988
0.00567958
0.00726392
0.00830882
0.00900511
0.00939374
0.00943967
0.00913657
0.00859313
0.00772819
0.00642091
0.00453115
0.00110973
0.0010418
0.00474249
0.00741752
0.0091259
0.00988213
0.00951083
0.00827243
0.00687423
0.00727017
0.00895572
0.0100822
0.0104265
0.0102618
0.00983064
0.00926534
0.00860514
0.00765137
0.00615531
0.00401509
0.0010377
0.00100248
0.00457984
0.00713787
0.00900898
0.0104136
0.0108559
0.0102366
0.00884857
0.0087025
0.0101943
0.0112282
0.0110643
0.010202
0.00920994
0.00836799
0.00773056
0.00695296
0.0055933
0.00349882
0.000949181
0.000957967
0.00413272
0.00617211
0.00785968
0.00985176
0.0112774
0.0115269
0.0105056
0.00992102
0.0110354
0.0119062
0.011309
0.00977197
0.00810534
0.00691569
0.00633503
0.00591117
0.00497781
0.00319459
0.00089357
0.000925254
0.00344735
0.00468173
0.00590271
0.00827646
0.0108082
0.0119797
0.0115167
0.0107883
0.0114994
0.0121815
0.0114138
0.00952207
0.0071879
0.00549556
0.0047658
0.00457256
0.00419143
0.00296515
0.000869326
0.000935093
0.00263253
0.00329546
0.00441444
0.00699335
0.010057
0.0117101
0.0118051
0.01129
0.0116895
0.0120343
0.0112478
0.00966129
0.00751356
0.00524226
0.00381662
0.00329221
0.00313895
0.00254908
0.000863816
0.00101954
0.00202072
0.00276739
0.00437023
0.00679003
0.00868131
0.0099959
0.0105335
0.0105496
0.010717
0.0105056
0.00966976
0.00858816
0.0073665
0.00602304
0.00413807
0.00278697
0.00222923
0.00188538
0.000884898
0.00119205
0.00170591
0.00202756
0.00223174
0.00241486
0.00257373
0.00270988
0.00281672
0.00288756
0.00290733
0.00278905
0.00264189
0.00250039
0.00236522
0.00223125
0.00208125
0.00191945
0.00166748
0.00127036
0.000902152
0.00102799
0.00127379
0.00138291
0.0014213
0.00140831
0.00137244
0.00133329
0.00130215
0.00131935
0.00140532
0.00144808
0.00147483
0.00148311
0.00149784
0.00149303
0.00147234
0.00143982
0.0013796
0.00127667
0.00109077
0.00105869
0.0038844
0.00532663
0.00608766
0.00620984
0.00565232
0.0046887
0.00379226
0.00299801
0.00358823
0.00483449
0.00623396
0.0069135
0.00694881
0.00677182
0.00641598
0.00591014
0.00521464
0.00405894
0.00113525
0.00102025
0.00409432
0.0063838
0.00790782
0.00855907
0.00818853
0.0071253
0.00567958
0.00441531
0.00526337
0.00737175
0.00890181
0.00934302
0.00917079
0.00862455
0.00785137
0.00688079
0.00567651
0.00406619
0.00107244
0.000977564
0.00401894
0.00654078
0.00851067
0.00970928
0.00980699
0.00895783
0.00727017
0.00577557
0.00679651
0.00933462
0.0104602
0.0103524
0.00970944
0.00876205
0.00770575
0.00654094
0.00514542
0.00338401
0.000962837
0.000950192
0.0038203
0.00621137
0.00839922
0.0101669
0.0108946
0.0104351
0.0087025
0.00707524
0.00815561
0.0107514
0.0113365
0.0106017
0.00939563
0.00809821
0.00691962
0.00583573
0.00456186
0.00291583
0.000888444
0.000943892
0.00343669
0.00537033
0.00755084
0.00989958
0.0113953
0.0114692
0.00992102
0.00826342
0.00927043
0.0116388
0.0117404
0.0104614
0.00867508
0.00702447
0.00580411
0.00494881
0.00402064
0.00267637
0.000868358
0.000973745
0.00287367
0.00420717
0.00616604
0.009002
0.0112954
0.0119065
0.0107883
0.00930712
0.0101282
0.0120632
0.0118428
0.0103094
0.00809962
0.00600225
0.00467323
0.00394973
0.0033656
0.00245113
0.000875553
0.00105543
0.0023382
0.00337898
0.00531076
0.00826936
0.010757
0.0117345
0.01129
0.0102983
0.0108711
0.0121312
0.011605
0.0102184
0.00826888
0.00602933
0.00422224
0.00320826
0.00265067
0.0021043
0.000902262
0.00122577
0.00214549
0.00338491
0.00555558
0.00755239
0.00921127
0.0102307
0.0105496
0.0103498
0.0106696
0.0108609
0.0099988
0.00889982
0.00768576
0.00640037
0.00493288
0.00325028
0.00226664
0.00174841
0.000961707
0.00146146
0.00185177
0.00209676
0.00228745
0.00246685
0.00262955
0.00277175
0.00288756
0.00295418
0.00299339
0.00288589
0.00271159
0.00254634
0.00239529
0.00225313
0.00210833
0.00195621
0.00176875
0.00147321
0.00106186
0.00103584
0.00128473
0.00139414
0.00144548
0.00145438
0.00142056
0.00138963
0.00137498
0.00140532
0.00150387
0.00152669
0.00153205
0.00152983
0.00151722
0.00149699
0.00146947
0.00143745
0.00139003
0.00130124
0.00110151
0.00103398
0.00367282
0.00505299
0.00592927
0.0063296
0.00632196
0.00557718
0.0048231
0.00358823
0.00289899
0.00432027
0.00663822
0.00681904
0.0067079
0.00641965
0.00600148
0.00551582
0.00494806
0.00397588
0.00112938
0.000976696
0.00358031
0.00564953
0.00730373
0.00834896
0.00868738
0.00821533
0.00726392
0.00526337
0.00446991
0.00709373
0.0091297
0.00919661
0.00869631
0.00792658
0.00697301
0.00597584
0.00497424
0.00369129
0.00102262
0.000949279
0.00332927
0.00555985
0.00767198
0.00925111
0.00997743
0.00986859
0.00895572
0.00679651
0.00616504
0.00926489
0.0105234
0.0101563
0.00926959
0.00805175
0.00671319
0.00542297
0.00423419
0.00294087
0.000916169
0.000964059
0.00310782
0.00525211
0.00761549
0.0096591
0.0108035
0.0110127
0.0101943
0.00815561
0.00778278
0.0107629
0.0113393
0.0105314
0.00920496
0.00766242
0.00613151
0.00480945
0.00363592
0.00247628
0.000884468
0.00100834
0.00284344
0.00468879
0.00712696
0.00959067
0.0112204
0.0117573
0.0110354
0.00927043
0.00914724
0.0116634
0.0117247
0.010552
0.00883072
0.00701942
0.0054248
0.00422442
0.00321746
0.00221021
0.000902948
0.00108011
0.00253378
0.00400291
0.00632799
0.0091396
0.0112274
0.0120074
0.0114994
0.0101282
0.0101872
0.0120823
0.011797
0.010459
0.00850695
0.00638896
0.00475084
0.00366014
0.00283503
0.00202478
0.0009408
0.00119875
0.00232305
0.00364396
0.00589947
0.0086976
0.0108137
0.0117696
0.0116895
0.0108711
0.011005
0.0121638
0.0115855
0.0103042
0.0085485
0.0064791
0.00458083
0.00332953
0.00250195
0.00186778
0.000997934
0.00137085
0.00236512
0.00391321
0.00597458
0.00772893
0.0092285
0.0102214
0.010717
0.0106696
0.0107857
0.0109181
0.00998789
0.00890323
0.00772653
0.00646618
0.00519482
0.00368129
0.00244431
0.0017648
0.001088
0.00156562
0.00187444
0.00209233
0.00227911
0.00245224
0.00261662
0.00276903
0.00290733
0.00299339
0.0030014
0.00289813
0.00270762
0.0025308
0.00237235
0.00222397
0.00208134
0.0019318
0.00177062
0.00154962
0.00122024
0.00103597
0.00129108
0.00140227
0.00146181
0.00148289
0.00145395
0.00141137
0.00139746
0.00144808
0.00152669
0.00154071
0.00154776
0.0015405
0.00152404
0.00150144
0.00147213
0.00144045
0.00139856
0.00131702
0.00110607
0.0010197
0.0035941
0.00488846
0.00581416
0.0063953
0.00657492
0.00612967
0.00551487
0.00483449
0.00432027
0.00520435
0.00677338
0.00678272
0.00657795
0.00622965
0.00579141
0.00534398
0.00486768
0.00397924
0.00111827
0.000969613
0.003322
0.00511616
0.0067501
0.0080359
0.00881606
0.0088312
0.00830882
0.00737175
0.00709373
0.00821349
0.00914051
0.00885067
0.00820188
0.00736046
0.00641634
0.00553307
0.00473841
0.00363364
0.000997686
0.000972028
0.00293677
0.00474729
0.00675337
0.00851089
0.00972497
0.010239
0.0100822
0.00933462
0.00926489
0.0100985
0.0102798
0.0095801
0.00852485
0.00728615
0.0059781
0.00482139
0.00390412
0.00288448
0.000920457
0.00101726
0.00268814
0.00442057
0.00664813
0.00876034
0.0102361
0.0110634
0.0112282
0.0107514
0.0107629
0.0112397
0.0108899
0.00983175
0.00850197
0.00700636
0.00550742
0.00424539
0.0032716
0.00240645
0.000925088
0.00108307
0.00251754
0.00411296
0.0064227
0.00878847
0.0105249
0.0115455
0.0119062
0.0116388
0.0116634
0.0118466
0.0111645
0.00987995
0.00832329
0.00667066
0.00511163
0.00386913
0.00290012
0.00210952
0.000968327
0.00116998
0.00239614
0.00382334
0.00606749
0.00860338
0.0105689
0.0117163
0.0121815
0.0120632
0.0120823
0.0120626
0.0112294
0.00987813
0.0081845
0.00634927
0.00477823
0.00359575
0.0026646
0.00194913
0.00102532
0.00128388
0.00241062
0.00375245
0.00588497
0.00837941
0.0103422
0.0115018
0.0120343
0.0121312
0.0121638
0.0119918
0.0111056
0.00984466
0.00826616
0.00644101
0.00470751
0.00346179
0.00256062
0.00188762
0.0010953
0.00143156
0.0025032
0.00402887
0.00591667
0.00750767
0.00888664
0.00986356
0.0105056
0.0108609
0.0109181
0.0104527
0.0095436
0.00857903
0.00751553
0.00633966
0.00515238
0.00384952
0.0026107
0.00186335
0.00118615
0.00158343
0.00185194
0.0020522
0.00222833
0.00238959
0.0025373
0.0026689
0.00278905
0.00288589
0.00289813
0.00275735
0.00259404
0.00244515
0.00230617
0.00216898
0.00203222
0.00188976
0.00174127
0.00155841
0.001303
0.00104357
0.00129294
0.00141739
0.00147532
0.0014958
0.0014628
0.00141191
0.00141031
0.00147483
0.00153205
0.00154776
0.0015464
0.00153615
0.00152473
0.00150922
0.00148644
0.0014553
0.00140472
0.00129889
0.00109889
0.00106258
0.00394631
0.00510822
0.00593978
0.00656352
0.00686215
0.00657309
0.00614375
0.00623396
0.00663822
0.00677338
0.00684967
0.006823
0.00666052
0.00638814
0.00605073
0.00570324
0.00523416
0.00422267
0.00116027
0.00100255
0.00365038
0.00523502
0.00665018
0.00793033
0.00884959
0.00916915
0.00900511
0.00890181
0.0091297
0.00914051
0.00896783
0.00859208
0.00808039
0.00745273
0.00677428
0.00612692
0.00542782
0.00424873
0.00108817
0.000950934
0.00307598
0.00456207
0.00616838
0.00783733
0.00923624
0.0101095
0.0104265
0.0104602
0.0105234
0.0102798
0.00970027
0.00891146
0.00802561
0.00709993
0.00620674
0.00542119
0.00463651
0.0034707
0.000977873
0.000965311
0.00266472
0.00395778
0.00561943
0.00748582
0.00912379
0.0103442
0.0110643
0.0113365
0.0113393
0.0108899
0.00995029
0.0087955
0.00762016
0.00648188
0.0054786
0.00465832
0.00389684
0.00289394
0.000907608
0.00103043
0.00238596
0.0035487
0.00523852
0.00726168
0.009008
0.0103759
0.011309
0.0117404
0.0117247
0.0111645
0.0100151
0.00859792
0.00718073
0.00588831
0.00482103
0.00400883
0.00330962
0.00249829
0.000904116
0.0011277
0.00222034
0.00331368
0.00500574
0.0071959
0.00911794
0.0105017
0.0114138
0.0118428
0.011797
0.0112294
0.0100763
0.0085887
0.00697883
0.00546986
0.00429398
0.00346673
0.00281482
0.00215224
0.000945383
0.00125059
0.00222804
0.00329392
0.00501112
0.00724508
0.0091794
0.010476
0.0112478
0.011605
0.0115855
0.0111056
0.0101199
0.00885265
0.0073552
0.00567965
0.00415539
0.00314664
0.00244985
0.00188999
0.00101428
0.00139754
0.00231032
0.00352739
0.00532651
0.00685761
0.00815674
0.00908201
0.00966976
0.0099988
0.00998789
0.0095436
0.00879306
0.00794158
0.00697661
0.00589717
0.00475416
0.00339109
0.00235708
0.00175801
0.00111317
0.00154299
0.00179894
0.0019899
0.0021568
0.00230854
0.00244098
0.00255087
0.00264189
0.00271159
0.00270762
0.00259404
0.00246828
0.00234737
0.00222782
0.00210439
0.00197591
0.00183777
0.00169218
0.00151325
0.00124094
0.00102503
0.00124843
0.00138796
0.00145672
0.00147632
0.0014392
0.0014039
0.00143081
0.00148311
0.00152983
0.0015405
0.00153615
0.00152516
0.00151388
0.00150151
0.00147964
0.00143863
0.00137431
0.0012526
0.00107728
0.00108366
0.00421241
0.00548577
0.00627413
0.00682521
0.00712676
0.00697959
0.00674995
0.0069135
0.00681904
0.00678272
0.006823
0.00686624
0.00683336
0.00669971
0.00646806
0.00610213
0.00546997
0.00427049
0.00115254
0.00106407
0.00424284
0.00598085
0.00722489
0.00825591
0.00903009
0.00941257
0.00939374
0.00934302
0.00919661
0.00885067
0.00859208
0.00842828
0.00824512
0.00797856
0.00760512
0.00707435
0.00621345
0.00470571
0.00112519
0.00099005
0.00361307
0.00532389
0.00664815
0.0078936
0.00902243
0.00986048
0.0102618
0.0103524
0.0101563
0.0095801
0.00891146
0.00838195
0.00795727
0.00756722
0.00714771
0.00657977
0.0056525
0.00404644
0.00105819
0.000935027
0.00309743
0.00453835
0.0057076
0.00694528
0.00824615
0.0093958
0.010202
0.0106017
0.0105314
0.00983175
0.0087955
0.00786543
0.00714205
0.00662003
0.00621326
0.00573433
0.00489047
0.00338849
0.000958775
0.000928283
0.00272194
0.00382235
0.00476037
0.00593308
0.00732061
0.00865062
0.00977197
0.0104614
0.010552
0.00987995
0.00859792
0.0072882
0.00624025
0.00553612
0.00511951
0.00478519
0.00419043
0.00296641
0.000893469
0.000966344
0.00236216
0.0031465
0.00393801
0.00516948
0.00673577
0.00826125
0.00952207
0.0103094
0.010459
0.00987813
0.0085887
0.00702892
0.00559739
0.00459642
0.00403657
0.00375329
0.00343668
0.00261877
0.000865721
0.00105417
0.00202379
0.00264365
0.0035425
0.00520866
0.00720708
0.00867284
0.00966129
0.0102184
0.0103042
0.00984466
0.00885265
0.00753973
0.00591886
0.00435682
0.00337655
0.00286185
0.00261676
0.00218019
0.000864171
0.001203
0.00188209
0.0025869
0.00387889
0.00569447
0.00706633
0.00800567
0.00858816
0.00889982
0.00890323
0.00857903
0.00794158
0.00714036
0.00621993
0.00514878
0.0036549
0.00251302
0.00201691
0.00168126
0.000895089
0.00138905
0.00169763
0.00189952
0.00206257
0.00220931
0.00233398
0.00242985
0.00250039
0.00254634
0.0025308
0.00244515
0.00234737
0.00224655
0.00214188
0.00202915
0.00190117
0.00176321
0.00159675
0.00132463
0.000949618
0.000996343
0.00117684
0.00131855
0.00138961
0.00140367
0.00139201
0.00140665
0.00145618
0.00149784
0.00151722
0.00152404
0.00152473
0.00151388
0.00149528
0.00147203
0.00144417
0.0014001
0.0013268
0.00120372
0.00105327
0.00108256
0.00419692
0.00561908
0.00644421
0.0069743
0.00725427
0.00728774
0.00714388
0.00694881
0.0067079
0.00657795
0.00666052
0.00683336
0.00694144
0.00690732
0.0066836
0.00623148
0.00548267
0.00406407
0.00113393
0.00109704
0.00476677
0.00668089
0.0079122
0.00873364
0.00925793
0.00949238
0.00943967
0.00917079
0.00869631
0.00820188
0.00808039
0.00824512
0.0084382
0.00849327
0.00830381
0.00776845
0.00674801
0.00493369
0.00113096
0.00106489
0.00426483
0.00630906
0.00764591
0.00855363
0.00921244
0.00965595
0.00983064
0.00970944
0.00926959
0.00852485
0.0080256
0.00795727
0.00810423
0.00823614
0.00814672
0.00764073
0.00652971
0.00459389
0.00110361
0.000992544
0.00365144
0.0055587
0.00675576
0.00751169
0.0081399
0.00874016
0.00920994
0.00939563
0.00920496
0.00850197