/*--------------------------------*- C++ -*----------------------------------*\
  =========                 |
  \\      /  F ield         | OpenFOAM: The Open Source CFD Toolbox
   \\    /   O peration     | Website:  https://openfoam.org
    \\  /    A nd           | Version:  9
     \\/     M anipulation  |
\*---------------------------------------------------------------------------*/
FoamFile
{
    format      ascii;
    class       volVectorField;
    location    "150";
    object      U;
}
// * * * * * * * * * * * * * * * * * * * * * * * * * * * * * * * * * * * * * //

dimensions      [0 1 -1 0 0 0 0];

internalField   nonuniform List<vector> 
4000
(
(-0.00118951 0.00550844 -0.00118951)
(-0.00525585 0.00701638 -0.000789788)
(-0.0138532 0.00644697 -0.0011059)
(-0.0214304 0.00518993 -0.00142068)
(-0.0280104 0.00386542 -0.00213922)
(-0.0330241 0.00266869 -0.00339578)
(-0.0361191 0.00151464 -0.00510163)
(-0.0366404 0.000319675 -0.00703846)
(-0.0335014 -0.00120986 -0.00880133)
(-0.0258996 -0.00335894 -0.00999667)
(-0.0143682 -0.00530396 -0.0106497)
(-0.000292373 -0.00189804 -0.0126157)
(0.006112 0.0016047 -0.0121276)
(0.00883015 0.00427602 -0.0108454)
(0.00887531 0.00625996 -0.0095067)
(0.00702538 0.0077401 -0.00849887)
(0.00418727 0.00878184 -0.00783293)
(0.00160934 0.00936801 -0.0073283)
(-0.00253266 0.00958359 -0.00711376)
(-0.000813932 0.00884012 -0.00886048)
(-0.00145263 0.00723804 -0.00145263)
(-0.00418516 0.0111451 -0.00135872)
(-0.0103057 0.0115499 -0.00148032)
(-0.0157637 0.0100731 -0.00115601)
(-0.0209273 0.00791798 -0.000623258)
(-0.0252696 0.00574872 -0.000224436)
(-0.0284093 0.00366365 -8.11351e-05)
(-0.0296837 0.00129653 6.78735e-05)
(-0.0279674 -0.002622 0.000759559)
(-0.0221019 -0.00878823 0.00162507)
(-0.011374 -0.0148011 0.00169416)
(-0.000449504 -0.00207638 -0.00268143)
(0.00403939 0.00482708 -0.00493043)
(0.00600374 0.00916421 -0.00526664)
(0.00593725 0.0121933 -0.00538768)
(0.00444975 0.0142703 -0.00538887)
(0.00206557 0.0154636 -0.00528739)
(-2.72409e-05 0.0156408 -0.00510573)
(-0.00323757 0.0146356 -0.00528295)
(-0.00110554 0.0123316 -0.00714712)
(-0.00135267 0.0124868 -0.00135267)
(-0.00342914 0.0172865 -0.00140433)
(-0.00803533 0.0177726 -0.00156378)
(-0.0119135 0.0153845 -0.00127481)
(-0.0155999 0.0113197 -0.000489835)
(-0.018791 0.00630011 0.000622429)
(-0.0214185 0.000461098 0.00218795)
(-0.0226691 -0.00701494 0.00425053)
(-0.0216579 -0.0172284 0.00624642)
(-0.0166566 -0.0302292 0.00720498)
(-0.0073969 -0.0417064 0.0063553)
(0.00370728 -0.0184733 0.00530383)
(0.00681051 -0.00140424 0.00198587)
(0.00715362 0.00862229 -0.000635958)
(0.00574063 0.0151022 -0.00203058)
(0.00359442 0.019266 -0.00285681)
(0.000949879 0.0217148 -0.0032619)
(-0.0010539 0.0224433 -0.00339474)
(-0.0035854 0.0212298 -0.00381796)
(-0.00136232 0.0183786 -0.00555784)
(-0.000951636 0.0166125 -0.000951636)
(-0.00250676 0.0221681 -0.00099262)
(-0.00623949 0.0226818 -0.00118658)
(-0.00913381 0.0196339 -0.00105529)
(-0.0117653 0.0142295 -0.000419586)
(-0.0139139 0.00711515 0.00071721)
(-0.0156759 -0.00169132 0.00256553)
(-0.0165749 -0.0134586 0.00494404)
(-0.0153881 -0.029494 0.00669487)
(-0.0108069 -0.0480951 0.00632962)
(-0.00467395 -0.0618049 0.00357095)
(0.00456184 -0.0392687 0.00673131)
(0.0104792 -0.0145853 0.00716128)
(0.0104763 0.00406577 0.00405374)
(0.00755321 0.0150948 0.00137082)
(0.00399632 0.0220004 -0.000332296)
(0.000589563 0.0259466 -0.00125671)
(-0.00171273 0.0272799 -0.0017962)
(-0.00389398 0.0258914 -0.00245953)
(-0.00163304 0.0225579 -0.0040989)
(-0.000317003 0.0190281 -0.000317003)
(-0.00122168 0.0253926 -0.000222954)
(-0.0043231 0.0260486 -0.000382997)
(-0.00663088 0.0225134 -0.000340717)
(-0.00868862 0.0159769 0.000111026)
(-0.0101882 0.00704256 0.00111258)
(-0.0111684 -0.00458368 0.00283327)
(-0.0110364 -0.0205493 0.00478069)
(-0.00870012 -0.0411065 0.00539523)
(-0.00473895 -0.0616235 0.00344255)
(-0.00201147 -0.0731959 -0.00079838)
(0.00415287 -0.0575947 0.00340819)
(0.0113404 -0.032102 0.00767929)
(0.0132419 -0.00556666 0.00767944)
(0.00989065 0.0118574 0.00476464)
(0.00501174 0.0221144 0.00228202)
(0.000579519 0.0278531 0.00068788)
(-0.00225826 0.0298907 -0.000221155)
(-0.00420249 0.0282255 -0.00108395)
(-0.00192779 0.0243342 -0.00260533)
(0.000446543 0.0193381 0.000446543)
(0.000496974 0.0266229 0.000700958)
(-0.00182716 0.0276067 0.00064606)
(-0.00367536 0.0236864 0.000679553)
(-0.00542967 0.016118 0.00105385)
(-0.00655707 0.00544944 0.00189138)
(-0.00669188 -0.00907346 0.00321616)
(-0.00498156 -0.0285948 0.00412066)
(-0.00162891 -0.0511233 0.00346943)
(0.000763162 -0.0698183 0.000346093)
(0.00115868 -0.0772259 -0.00475921)
(0.00452398 -0.0691357 -0.00130586)
(0.0105372 -0.0483642 0.00469796)
(0.0134826 -0.0192566 0.00818533)
(0.0110733 0.00549178 0.00709622)
(0.00553947 0.0200308 0.00456542)
(0.000283689 0.027732 0.00254291)
(-0.00287964 0.0302712 0.00130704)
(-0.00449499 0.0282899 0.000278571)
(-0.00224354 0.0236918 -0.00103778)
(0.00128528 0.0174286 0.00128528)
(0.00240751 0.0253037 0.00175271)
(0.00140011 0.0269653 0.00187441)
(0.000264675 0.0229716 0.00189527)
(-0.00109257 0.0144872 0.00208984)
(-0.00185888 0.00197923 0.00251572)
(-0.00103807 -0.0153996 0.00303703)
(0.00192781 -0.0371396 0.0029041)
(0.00501222 -0.0588474 0.00139153)
(0.00523468 -0.0728495 -0.00268556)
(0.00475011 -0.0759471 -0.00842803)
(0.00628561 -0.0733565 -0.00595141)
(0.01044 -0.0593366 0.000731788)
(0.0119106 -0.0315278 0.00586349)
(0.0100932 -0.00254523 0.0073864)
(0.00450483 0.0163943 0.00588328)
(-0.000950621 0.025991 0.00402621)
(-0.00372464 0.0284883 0.00274838)
(-0.00478457 0.0260558 0.00165945)
(-0.0025714 0.0205919 0.000526803)
(0.00217133 0.0131382 0.00217133)
(0.00426857 0.021282 0.00282946)
(0.00495603 0.0235643 0.00313168)
(0.00510961 0.0201009 0.00312367)
(0.00466872 0.0118996 0.00292866)
(0.00451196 -0.00104774 0.00255926)
(0.00577647 -0.0206512 0.00191085)
(0.00830396 -0.0429744 0.000976547)
(0.00982534 -0.0609134 -0.00135799)
(0.00871634 -0.0694315 -0.00676342)
(0.00858211 -0.0697503 -0.0133055)
(0.0100441 -0.0694585 -0.0113017)
(0.0124559 -0.0617939 -0.00335078)
(0.0106193 -0.0373642 0.00267228)
(0.00679408 -0.00782262 0.00585011)
(0.00116862 0.0133425 0.00611844)
(-0.00293177 0.0225142 0.00511374)
(-0.00472753 0.0245288 0.00409152)
(-0.00500961 0.0215918 0.00308006)
(-0.0029208 0.0151681 0.0021675)
(0.0026789 0.00513295 0.0026789)
(0.00544181 0.0133331 0.00364591)
(0.00829788 0.0160365 0.00422738)
(0.0104277 0.0133976 0.00422181)
(0.0114717 0.00617568 0.00350543)
(0.0116619 -0.00595071 0.00179433)
(0.0117225 -0.0220959 -0.000302248)
(0.0121958 -0.0395631 -0.00293661)
(0.0116009 -0.0519682 -0.00807806)
(0.0109051 -0.0563933 -0.0158734)
(0.0131562 -0.0553076 -0.0231783)
(0.0166462 -0.0553782 -0.0205719)
(0.0169696 -0.0515335 -0.0090398)
(0.0102119 -0.032574 -0.000225946)
(0.00170864 -0.00836897 0.00441778)
(-0.00301111 0.00808887 0.00622524)
(-0.00507001 0.015464 0.00616243)
(-0.00530205 0.0170372 0.00544517)
(-0.00444424 0.0137751 0.00447056)
(-0.0027597 0.00612375 0.00371542)
(-0.00029959 -0.0001182 -0.00029959)
(0.00298101 0.00735526 0.00261138)
(0.00932346 0.00997144 0.0041821)
(0.0144932 0.00919186 0.00453347)
(0.0176073 0.00591411 0.00346386)
(0.0183531 0.000361826 0.0010525)
(0.0158816 -0.0085648 -0.00367893)
(0.0112569 -0.0201815 -0.0135617)
(0.00813411 -0.026778 -0.0271482)
(0.0109463 -0.0271913 -0.0390666)
(0.0190921 -0.0262851 -0.0462828)
(0.0271082 -0.0285815 -0.0406624)
(0.0244953 -0.0279578 -0.0214939)
(0.00839574 -0.0127321 -0.00281999)
(-0.00326364 0.000335164 0.00416046)
(-0.00662211 0.00742943 0.00654216)
(-0.00610435 0.0109999 0.00719027)
(-0.00308857 0.0115424 0.00650435)
(0.00113407 0.00855241 0.0048852)
(0.00283588 -0.000805524 0.00256879)
(-0.000789788 0.00701638 -0.00525585)
(-0.00265242 0.00877131 -0.00265242)
(-0.0105877 0.00795345 -0.000786976)
(-0.0183339 0.00542851 0.000896765)
(-0.0256291 0.00211625 0.0018687)
(-0.0310513 -0.00135344 0.00215044)
(-0.0338266 -0.00496013 0.00198465)
(-0.0339664 -0.00890126 0.00157869)
(-0.0306978 -0.0132528 0.0011126)
(-0.0230262 -0.0178322 0.000515551)
(-0.0112423 -0.0211491 -0.000558054)
(0.00366186 -0.0147354 -0.00508436)
(0.0102642 -0.00740482 -0.00784788)
(0.0133288 -0.00194908 -0.00955538)
(0.0129585 0.00193375 -0.0104101)
(0.0104931 0.00468639 -0.0111892)
(0.00730066 0.00647802 -0.0120715)
(0.00464821 0.00762969 -0.0128012)
(0.000485176 0.00848387 -0.0137384)
(0.00165322 0.00834519 -0.0164012)
(-0.00135872 0.0111451 -0.00418516)
(-0.00261701 0.0145139 -0.00261701)
(-0.00739542 0.014425 -0.00158932)
(-0.0117571 0.0117514 -0.000267313)
(-0.0159279 0.0072805 0.00153276)
(-0.0192064 0.00159125 0.00367167)
(-0.0213777 -0.00503282 0.00583713)
(-0.0220283 -0.012231 0.0080796)
(-0.0205574 -0.019977 0.0102456)
(-0.0157891 -0.0279979 0.0116521)
(-0.00767156 -0.0334098 0.0113535)
(0.00169592 -0.0251284 0.0077287)
(0.00669303 -0.0125315 0.00366026)
(0.00842175 -0.00176442 -0.000257395)
(0.00811111 0.00569003 -0.00322746)
(0.00645235 0.0105176 -0.00534481)
(0.00406529 0.0134623 -0.00689743)
(0.00198732 0.0149179 -0.00814498)
(-0.000965219 0.0150766 -0.00987355)
(0.00070856 0.013356 -0.0133043)
(-0.00140433 0.0172865 -0.00342914)
(-0.00233621 0.0201934 -0.00233621)
(-0.00545693 0.0195447 -0.0017543)
(-0.00802645 0.0159021 -0.000941917)
(-0.0103244 0.00983962 0.000535851)
(-0.0119981 0.001947 0.00276817)
(-0.0130413 -0.00717277 0.00577273)
(-0.0133147 -0.0171931 0.00932161)
(-0.0122784 -0.0281978 0.0126707)
(-0.00896205 -0.0397453 0.0145569)
(-0.00432308 -0.0474598 0.0141714)
(0.00162328 -0.037433 0.0134811)
(0.00630817 -0.0217702 0.0112446)
(0.00755462 -0.00726854 0.00705001)
(0.00657042 0.00434462 0.00263741)
(0.00453879 0.012557 -0.000646368)
(0.00210958 0.017736 -0.00297021)
(0.000238354 0.0204502 -0.00476543)
(-0.00181364 0.021147 -0.00695597)
(5.57097e-05 0.0198613 -0.010614)
(-0.00099262 0.0221681 -0.00250676)
(-0.00147885 0.0242625 -0.00147885)
(-0.00362273 0.0229154 -0.00109537)
(-0.00513629 0.0185113 -0.000662719)
(-0.00621592 0.0114774 0.000317126)
(-0.00658735 0.00243197 0.00208856)
(-0.00630914 -0.00823019 0.00491834)
(-0.00544953 -0.0202319 0.0084415)
(-0.00373428 -0.0337318 0.0115702)
(-0.00118996 -0.0476594 0.0127232)
(-0.000891237 -0.0563436 0.011426)
(0.000588881 -0.0478946 0.0134515)
(0.00597754 -0.0299434 0.0148563)
(0.00767431 -0.0117288 0.0125365)
(0.00611528 0.00268647 0.00813586)
(0.00346357 0.0131597 0.00405991)
(0.000658378 0.0201804 0.000888889)
(-0.00127958 0.0240654 -0.00160421)
(-0.00270417 0.0252555 -0.00422016)
(-0.000610485 0.0244708 -0.00807027)
(-0.000222954 0.0253926 -0.00122168)
(-3.47091e-06 0.0266562 -3.4708e-06)
(-0.00137555 0.0246911 0.000356695)
(-0.00217605 0.0196075 0.000614075)
(-0.00247431 0.0117399 0.00122723)
(-0.00185366 0.00169698 0.00247866)
(-0.000196976 -0.0101805 0.00466805)
(0.00239067 -0.0237423 0.00737701)
(0.0054372 -0.0385397 0.00937861)
(0.0070032 -0.0520079 0.00928666)
(0.00313941 -0.0592871 0.00704937)
(-0.000971989 -0.05535 0.00972528)
(0.00353712 -0.0390665 0.014605)
(0.00667861 -0.0173662 0.0155544)
(0.00552887 0.000236241 0.0125106)
(0.00235396 0.0126773 0.00829855)
(-0.000785602 0.0210123 0.00452564)
(-0.00268294 0.0257189 0.00154507)
(-0.00366501 0.0272793 -0.0013915)
(-0.00132892 0.0268593 -0.00533161)
(0.000700957 0.0266229 0.000496974)
(0.00185895 0.0272861 0.00185895)
(0.00142419 0.0249199 0.00239444)
(0.00132429 0.0192745 0.00265365)
(0.00165764 0.010578 0.00307245)
(0.00313615 -0.000676724 0.0038761)
(0.00631012 -0.0142355 0.00518466)
(0.0107817 -0.0290258 0.00652213)
(0.0146538 -0.0429788 0.00700193)
(0.0145753 -0.053106 0.00573286)
(0.0076791 -0.0576131 0.00270504)
(-0.00162098 -0.0583224 0.00443374)
(-0.000480207 -0.048213 0.0113776)
(0.00346611 -0.024917 0.0154684)
(0.00363938 -0.00365997 0.0147591)
(0.000686929 0.0111163 0.0113082)
(-0.00245066 0.020526 0.00759779)
(-0.0040854 0.0255008 0.00451616)
(-0.00457719 0.0273213 0.00151135)
(-0.0020509 0.0270826 -0.00220971)
(0.00175271 0.0253037 0.00240751)
(0.00390694 0.0257939 0.00390694)
(0.00461003 0.0232522 0.00464391)
(0.00536125 0.0171813 0.00490085)
(0.00645808 0.00760327 0.00501098)
(0.00902524 -0.00535561 0.00518355)
(0.0136312 -0.0209039 0.00536212)
(0.0193261 -0.0360304 0.00523961)
(0.0227971 -0.0468248 0.00421948)
(0.0207258 -0.0518502 0.00182592)
(0.0118982 -0.0528257 -0.00199492)
(-0.000346429 -0.0563715 -0.0016172)
(-0.00372121 -0.0549863 0.0062576)
(-0.00117205 -0.0334525 0.0125478)
(9.09296e-05 -0.00896901 0.0142348)
(-0.00188189 0.00853138 0.0125062)
(-0.00426599 0.0184014 0.00982877)
(-0.00541307 0.023469 0.00713449)
(-0.00535461 0.0252486 0.0043668)
(-0.00274739 0.0249767 0.00123834)
(0.00282946 0.021282 0.00426857)
(0.00582578 0.0219131 0.00582578)
(0.0077855 0.0195373 0.00662489)
(0.00948421 0.0134083 0.00660363)
(0.0113413 0.0031923 0.00587168)
(0.0147496 -0.011586 0.00463886)
(0.0200479 -0.0288568 0.0031803)
(0.025615 -0.0424949 0.00102171)
(0.0277869 -0.0480959 -0.00182494)
(0.0243469 -0.0475578 -0.00532375)
(0.0155382 -0.0448057 -0.0093913)
(0.00366128 -0.0489436 -0.00993651)
(-0.00301662 -0.0553889 -0.00130317)
(-0.00422017 -0.0395064 0.00719456)
(-0.00346684 -0.0141032 0.0110536)
(-0.00446771 0.00463817 0.0120018)
(-0.0059071 0.0147731 0.0110761)
(-0.00646156 0.0196694 0.00928438)
(-0.00584164 0.02107 0.0070617)
(-0.00335034 0.0202554 0.00464027)
(0.00364591 0.0133331 0.00544181)
(0.00704224 0.0147216 0.00704224)
(0.0104193 0.0130558 0.00782912)
(0.0131697 0.00753326 0.00718743)
(0.0152354 -0.00245797 0.00457909)
(0.0177383 -0.016504 0.000338983)
(0.021388 -0.0321768 -0.0048443)
(0.0245598 -0.041367 -0.0126507)
(0.0255032 -0.0413632 -0.0192568)
(0.0239018 -0.0373553 -0.0235969)
(0.0189818 -0.0337587 -0.0269719)
(0.0126684 -0.0364697 -0.0267332)
(0.0056787 -0.0454397 -0.0163511)
(-0.00178005 -0.0378029 -0.00149619)
(-0.0039032 -0.0170988 0.00587181)
(-0.00590607 -0.000502068 0.0102407)
(-0.00704901 0.00905615 0.0116295)
(-0.0068008 0.0133295 0.0109612)
(-0.00546132 0.013908 0.00930334)
(-0.00349013 0.0118018 0.00756429)
(0.00261138 0.00735526 0.00298101)
(0.00578932 0.00917387 0.00578932)
(0.0112179 0.00881355 0.00721279)
(0.0154895 0.00613402 0.00616677)
(0.0179427 0.00104623 0.00191468)
(0.0178659 -0.00760146 -0.00640844)
(0.0133746 -0.0187198 -0.0226417)
(0.00860732 -0.0203169 -0.0467474)
(0.00895577 -0.0114541 -0.064614)
(0.0180086 -0.0041849 -0.0721015)
(0.0258394 -0.0032916 -0.073495)
(0.0314421 -0.00851936 -0.0669281)
(0.0270805 -0.020104 -0.0480711)
(0.00939827 -0.0213109 -0.0173446)
(-0.00295658 -0.00610001 0.0012549)
(-0.00674172 0.00259313 0.00858655)
(-0.00689921 0.00739178 0.0117539)
(-0.00469112 0.00937833 0.0118305)
(-0.00117763 0.00877594 0.00994955)
(-3.29427e-05 0.00486756 0.00733874)
(-0.0011059 0.00644697 -0.0138532)
(-0.000786976 0.00795345 -0.0105877)
(-0.00667555 0.00818299 -0.00667555)
(-0.0133163 0.00642566 -0.00219228)
(-0.0208819 0.00241295 0.00168236)
(-0.0265397 -0.00217676 0.00522432)
(-0.0296158 -0.00686354 0.00850507)
(-0.0305112 -0.0117021 0.0113347)
(-0.0282426 -0.0166452 0.0131709)
(-0.0217973 -0.0215292 0.0134761)
(-0.0114645 -0.025228 0.0115681)
(0.00218774 -0.0217779 0.00511751)
(0.0100731 -0.0140021 -0.000793748)
(0.0136361 -0.00678506 -0.00615888)
(0.013845 -0.00111809 -0.0113005)
(0.011747 0.00226582 -0.0154019)
(0.00916081 0.0040784 -0.0186693)
(0.00721859 0.00529538 -0.020874)
(0.00334588 0.00658295 -0.0224702)
(0.0037875 0.00746449 -0.0247841)
(-0.00148032 0.0115499 -0.0103057)
(-0.00158932 0.014425 -0.00739542)
(-0.0050039 0.0150201 -0.0050039)
(-0.0079852 0.0132047 -0.00258645)
(-0.0109658 0.00887068 0.000231085)
(-0.0133175 0.00260978 0.00390656)
(-0.0151422 -0.0049288 0.00814765)
(-0.0158116 -0.0128085 0.0123437)
(-0.0150726 -0.0207689 0.0159797)
(-0.0121594 -0.0284882 0.0180077)
(-0.00714642 -0.0338439 0.0173797)
(-0.000864481 -0.0304963 0.0137281)
(0.0045321 -0.0201821 0.00880218)
(0.00744806 -0.00907753 0.00316573)
(0.00794657 0.000330561 -0.00218136)
(0.00696067 0.00655814 -0.00667089)
(0.00525152 0.0102475 -0.0102306)
(0.00368474 0.0123807 -0.013205)
(0.00109603 0.0134859 -0.0162944)
(0.00225301 0.013071 -0.0204993)
(-0.00156378 0.0177726 -0.00803533)
(-0.0017543 0.0195447 -0.00545693)
(-0.00378773 0.0190318 -0.00378773)
(-0.00509238 0.0160613 -0.00234508)
(-0.0059181 0.010528 -0.000499862)
(-0.00604312 0.00280269 0.00236517)
(-0.00561777 -0.00634834 0.00629896)
(-0.00490142 -0.0161508 0.0109883)
(-0.00411652 -0.0262307 0.0154855)
(-0.00313308 -0.0361166 0.0183479)
(-0.00263755 -0.0429743 0.0184173)
(-0.00145503 -0.0401941 0.017379)
(0.00230194 -0.0284939 0.0148638)
(0.00462793 -0.0145731 0.0102757)
(0.0049419 -0.00247979 0.00488106)
(0.00409212 0.00673063 -6.64501e-05)
(0.00253519 0.0127966 -0.0041721)
(0.00127522 0.0165035 -0.00778218)
(-0.000320217 0.018579 -0.0116279)
(0.001227 0.019155 -0.0167429)
(-0.00118658 0.0226818 -0.00623949)
(-0.00109537 0.0229154 -0.00362273)
(-0.00228348 0.0210554 -0.00228348)
(-0.00261386 0.0169277 -0.00140312)
(-0.00213117 0.010463 -0.000336684)
(-0.000514542 0.00200276 0.00157317)
(0.00208478 -0.00799788 0.00480871)
(0.00470376 -0.0183511 0.00901219)
(0.006421 -0.0286982 0.0131522)
(0.00626816 -0.0386976 0.0157724)
(0.00241208 -0.0459945 0.0159222)
(-0.00218503 -0.0457301 0.0171931)
(-4.30428e-05 -0.0348965 0.018176)
(0.00244044 -0.0189469 0.0158598)
(0.00264852 -0.00460696 0.0111807)
(0.00158109 0.00648328 0.00596968)
(4.88903e-05 0.0142376 0.00122803)
(-0.000968438 0.0191617 -0.00302224)
(-0.00180799 0.0219464 -0.00746263)
(0.000232503 0.0234633 -0.013287)
(-0.000382997 0.0260486 -0.0043231)
(0.000356695 0.0246911 -0.00137555)
(-9.8895e-05 0.0215799 -9.88945e-05)
(0.000333129 0.0161909 0.000529096)
(0.00174752 0.00844275 0.00111256)
(0.00485992 -0.00126815 0.00232362)
(0.00929838 -0.0117236 0.00461617)
(0.0138289 -0.0215363 0.00766068)
(0.0165582 -0.0303738 0.010543)
(0.015379 -0.0381227 0.0121682)
(0.00805583 -0.0439154 0.0119486)
(-0.00291478 -0.0470639 0.0141067)
(-0.00403941 -0.0405492 0.0184153)
(-0.00104049 -0.0237873 0.0193681)
(-0.0001645 -0.00733061 0.0162454)
(-0.00110602 0.00544784 0.0112479)
(-0.00249274 0.0144017 0.00618949)
(-0.00316971 0.0202031 0.00152308)
(-0.00336558 0.0235475 -0.0033472)
(-0.000795392 0.0256998 -0.00963212)
(0.00064606 0.0276067 -0.00182716)
(0.00239444 0.0249199 0.00142419)
(0.00286363 0.02062 0.00286363)
(0.00403623 0.0139034 0.00348968)
(0.00630455 0.00463876 0.00384799)
(0.010713 -0.00665896 0.0045738)
(0.0167691 -0.0177226 0.00579936)
(0.0227924 -0.0263465 0.00727627)
(0.0258459 -0.032063 0.0084085)
(0.0232855 -0.0356536 0.00862791)
(0.0134018 -0.0382861 0.00762757)
(-0.00301741 -0.0442655 0.00940476)
(-0.0087884 -0.0450808 0.0158318)
(-0.00626221 -0.0302264 0.019934)
(-0.00406107 -0.0115627 0.0191282)
(-0.00408937 0.00309594 0.0152064)
(-0.0049447 0.0130752 0.0105177)
(-0.00519868 0.0195595 0.00588571)
(-0.00477537 0.0235453 0.000974767)
(-0.00179728 0.0260256 -0.00538147)
(0.00187441 0.0269653 0.00140011)
(0.00464391 0.0232522 0.00461003)
(0.00614927 0.0179694 0.00614927)
(0.00813389 0.00993049 0.00673425)
(0.0113728 -0.00128843 0.00688089)
(0.0169884 -0.0147785 0.00692158)
(0.0242744 -0.0265107 0.00683245)
(0.0307972 -0.0326832 0.00624851)
(0.0330255 -0.0334216 0.00528566)
(0.0287654 -0.031591 0.00390423)
(0.0173443 -0.0304351 0.00194777)
(-0.00154564 -0.0377615 0.00279312)
(-0.0116744 -0.0474024 0.0103825)
(-0.0113764 -0.0382135 0.0172389)
(-0.00832682 -0.0184007 0.0190885)
(-0.00696973 -0.00125526 0.0172738)
(-0.00694693 0.0101009 0.0138112)
(-0.00676433 0.0172827 0.00987965)
(-0.0058492 0.021691 0.00546437)
(-0.0027157 0.0245612 -0.000190931)
(0.00313168 0.0235643 0.00495603)
(0.00662489 0.0195373 0.0077855)
(0.00902579 0.0137737 0.00902579)
(0.011568 0.00463036 0.00896268)
(0.0153859 -0.00896129 0.00795051)
(0.0214948 -0.0249158 0.00626235)
(0.0287188 -0.0365259 0.00337062)
(0.0343111 -0.03825 -0.000961376)
(0.0350626 -0.0323937 -0.00447411)
(0.0298915 -0.0251693 -0.00700067)
(0.0194786 -0.0210377 -0.00914387)
(0.00366538 -0.0285121 -0.00890578)
(-0.00865 -0.0453813 -0.000530941)
(-0.0121261 -0.0449761 0.0101674)
(-0.0100643 -0.0264938 0.0154926)
(-0.00822379 -0.0070993 0.0167745)
(-0.00782775 0.00594532 0.0156685)
(-0.00753788 0.0136382 0.0132637)
(-0.00638898 0.0180424 0.00995631)
(-0.00349755 0.020822 0.00563233)
(0.00422738 0.0160365 0.00829788)
(0.00782912 0.0130558 0.0104193)
(0.0108381 0.00789979 0.0108381)
(0.0130563 -0.00125712 0.00884699)
(0.0155629 -0.0148855 0.00444338)
(0.0195902 -0.0309343 -0.00178979)
(0.0225486 -0.0397771 -0.0129704)
(0.0252153 -0.0360937 -0.0254603)
(0.0263361 -0.0264851 -0.0316786)
(0.024929 -0.0182445 -0.0338202)
(0.0211305 -0.0151461 -0.0345624)
(0.0154577 -0.0200797 -0.0327405)
(0.00701289 -0.0350342 -0.0241179)
(-0.00230174 -0.0433759 -0.00586507)
(-0.00577257 -0.0300633 0.00740918)
(-0.00603091 -0.011696 0.0133043)
(-0.00709435 0.00104834 0.0160385)
(-0.00727991 0.00834789 0.0159572)
(-0.00607011 0.011859 0.0140997)
(-0.00393822 0.0133078 0.0113624)
(0.0041821 0.00997144 0.00932347)
(0.00721279 0.00881355 0.0112179)
(0.0109791 0.00619161 0.0109791)
(0.0129321 0.00123412 0.00703789)
(0.012546 -0.00716044 -0.00186712)
(0.00591109 -0.0199918 -0.0209058)
(-0.00476284 -0.0197774 -0.0529454)
(-0.00691045 -0.00579351 -0.0826432)
(-0.000486164 0.00921561 -0.097378)
(0.0181025 0.0149348 -0.0994961)
(0.0308728 0.0123541 -0.096794)
(0.0407893 0.00626842 -0.0879488)
(0.0411086 -0.0058808 -0.0708929)
(0.0270014 -0.0213088 -0.0404631)
(0.00602399 -0.0180839 -0.00634866)
(-0.00221638 -0.00416385 0.00938268)
(-0.00514216 0.00287746 0.0159278)
(-0.00501828 0.00657955 0.01783)
(-0.00290783 0.00785636 0.0167906)
(-0.00196956 0.007083 0.0143774)
(-0.00142068 0.00518993 -0.0214304)
(0.000896765 0.00542851 -0.0183339)
(-0.00219228 0.00642566 -0.0133163)
(-0.0058394 0.00762065 -0.0058394)
(-0.0133172 0.00572733 0.00195357)
(-0.0203992 0.00104838 0.00871212)
(-0.0251925 -0.00363385 0.0150322)
(-0.0275405 -0.0083246 0.0205453)
(-0.0271559 -0.0129212 0.0245488)
(-0.0229715 -0.017327 0.025955)
(-0.014998 -0.0207543 0.0239442)
(-0.00456142 -0.0204263 0.0179513)
(0.00454438 -0.0147603 0.00916109)
(0.00943405 -0.0078748 3.29699e-05)
(0.0103556 -0.00200865 -0.0088651)
(0.00957231 0.000824108 -0.0168243)
(0.00869321 0.00187536 -0.0227389)
(0.00832569 0.00289757 -0.0263919)
(0.00523252 0.00462901 -0.0284165)
(0.00546811 0.0066855 -0.0302818)
(-0.00115601 0.0100731 -0.0157637)
(-0.000267314 0.0117514 -0.0117571)
(-0.00258645 0.0132047 -0.0079852)
(-0.0042412 0.0138463 -0.0042412)
(-0.00622708 0.012175 -0.00056478)
(-0.00791421 0.00755377 0.00394403)
(-0.00951096 0.00118155 0.00972315)
(-0.0109462 -0.00609796 0.0159155)
(-0.0118746 -0.013502 0.0212709)
(-0.0115312 -0.0206078 0.0242945)
(-0.00945677 -0.0260471 0.0238787)
(-0.00578082 -0.0265618 0.0201509)
(-0.000775149 -0.0203889 0.0141754)
(0.00321989 -0.0109629 0.00707002)
(0.00525977 -0.0023775 -9.08982e-05)
(0.0055795 0.00342911 -0.00644404)
(0.00489409 0.00670694 -0.011849)
(0.0041647 0.00898322 -0.0164356)
(0.00218496 0.0110063 -0.0205861)
(0.00329136 0.0124191 -0.0251303)
(-0.00127481 0.0153845 -0.0119135)
(-0.000941917 0.0159021 -0.00802645)
(-0.00234509 0.0160613 -0.00509237)
(-0.00279935 0.0152486 -0.00279935)
(-0.00247515 0.0125084 -0.000731285)
(-0.0012701 0.0073531 0.00218457)
(0.000332742 0.000445389 0.00653429)
(0.00121571 -0.00732193 0.0120699)
(0.000768513 -0.0156415 0.017735)
(-0.00094477 -0.024253 0.0218978)
(-0.00355565 -0.0313532 0.0229885)
(-0.00531986 -0.0335349 0.0217153)
(-0.00325547 -0.0278052 0.0184817)
(-0.000158512 -0.0169223 0.0132775)
(0.00167654 -0.00628696 0.00714625)
(0.00224067 0.00201751 0.00105389)
(0.00174029 0.00761408 -0.00450323)
(0.00124749 0.0114828 -0.00971042)
(0.000266798 0.0146328 -0.0148395)
(0.00189743 0.0175294 -0.0206161)
(-0.00105529 0.0196339 -0.00913381)
(-0.000662719 0.0185113 -0.00513629)
(-0.00140312 0.0169277 -0.00261386)
(-0.00103384 0.0142674 -0.00103384)
(0.000663918 0.0100311 0.000139421)
(0.00403516 0.00425668 0.00194814)
(0.00829861 -0.00223788 0.00504048)
(0.0114852 -0.00862922 0.00934406)
(0.0122666 -0.0153614 0.0142292)
(0.00967709 -0.0228877 0.01851)
(0.00322198 -0.0304919 0.0207969)
(-0.00463704 -0.0357753 0.0218453)
(-0.00590223 -0.032806 0.0215482)
(-0.00352291 -0.0218345 0.0187734)
(-0.00174462 -0.00953465 0.0137417)
(-0.00116381 0.000691631 0.00778082)
(-0.00143343 0.00806248 0.00185568)
(-0.00157316 0.0131652 -0.0039157)
(-0.00176693 0.0170205 -0.00982942)
(0.000566633 0.0210352 -0.0166617)
(-0.000340718 0.0225134 -0.00663088)
(0.000614074 0.0196075 -0.00217605)
(0.000529095 0.0161909 0.00033313)
(0.00163734 0.0113225 0.00163734)
(0.00442299 0.00495569 0.00232706)
(0.00965881 -0.00225216 0.00342035)
(0.0158678 -0.00797017 0.00530748)
(0.0208994 -0.0117543 0.00804685)
(0.0226236 -0.0150629 0.0114801)
(0.0194319 -0.0193919 0.0150333)
(0.0103863 -0.0253572 0.017757)
(-0.00356466 -0.0335325 0.0202633)
(-0.00960126 -0.0359383 0.0226865)
(-0.00815869 -0.0267287 0.0227847)
(-0.0059402 -0.0134974 0.0193735)
(-0.00490509 -0.00162927 0.013899)
(-0.00468715 0.00725783 0.00774359)
(-0.00434008 0.0135216 0.00158455)
(-0.00381765 0.0180142 -0.00493284)
(-0.000765745 0.0225936 -0.0126561)
(0.000679552 0.0236863 -0.00367536)
(0.00265365 0.0192745 0.00132429)
(0.00348968 0.0139034 0.00403623)
(0.00540964 0.00664412 0.00540964)
(0.00937147 -0.00252543 0.00613773)
(0.0159071 -0.0113329 0.00668816)
(0.0235093 -0.0160956 0.00722985)
(0.0295114 -0.0163067 0.00796109)
(0.0313408 -0.0148898 0.00944646)
(0.0273076 -0.01468 0.0116985)
(0.0166513 -0.0175052 0.0141195)
(-0.00180418 -0.02741 0.0170554)
(-0.013208 -0.0372253 0.0214131)
(-0.013616 -0.0325658 0.0244608)
(-0.0107581 -0.019337 0.0232759)
(-0.0086154 -0.00574985 0.0189062)
(-0.00757166 0.00484683 0.0131078)
(-0.00669064 0.0123485 0.00699278)
(-0.0055095 0.0176944 0.000314439)
(-0.00200555 0.0224088 -0.00793517)
(0.00189527 0.0229716 0.000264675)
(0.00490085 0.0171813 0.00536125)
(0.00673424 0.00993049 0.00813389)
(0.00959604 -3.03531e-05 0.00959604)
(0.0146502 -0.0125205 0.0102702)
(0.0220472 -0.0230531 0.00994188)
(0.0300426 -0.0260363 0.00839958)
(0.035717 -0.0213492 0.00640919)
(0.0366382 -0.0141316 0.0057114)
(0.0316648 -0.00886957 0.00650059)
(0.0207345 -0.00812063 0.00819395)
(0.0016997 -0.0182546 0.0106344)
(-0.0136085 -0.0361287 0.0161657)
(-0.0170814 -0.0393326 0.0223068)
(-0.0145099 -0.0282047 0.0242704)
(-0.0112227 -0.0125424 0.021973)
(-0.00935539 0.000474619 0.0174854)
(-0.00807019 0.00958343 0.0121624)
(-0.0065047 0.0158976 0.00606197)
(-0.00294596 0.020766 -0.00176217)
(0.00312367 0.0201009 0.00510961)
(0.00660363 0.0134083 0.00948421)
(0.00896268 0.00463036 0.011568)
(0.0121219 -0.0083462 0.0121219)
(0.0173002 -0.0241956 0.0112842)
(0.0241082 -0.0358387 0.00810073)
(0.0303616 -0.035271 0.00182722)
(0.0341449 -0.0236724 -0.00467838)
(0.0340908 -0.00900193 -0.00750221)
(0.0297538 0.00108522 -0.00768865)
(0.0219446 0.00324032 -0.00631219)
(0.00928232 -0.00673854 -0.00400423)
(-0.00572784 -0.0311065 0.0022952)
(-0.0130737 -0.0440399 0.0126494)
(-0.0133726 -0.0381411 0.0201128)
(-0.0104833 -0.0210085 0.0215766)
(-0.00883365 -0.00521058 0.0199331)
(-0.00795604 0.00570838 0.0165833)
(-0.00661071 0.0126786 0.0120702)
(-0.00360775 0.0177915 0.00589095)
(0.00422181 0.0133976 0.0104277)
(0.00718743 0.00753326 0.0131697)
(0.00884699 -0.00125712 0.0130563)
(0.0101201 -0.0145817 0.0101201)
(0.0127321 -0.0313329 0.00467847)
(0.0134529 -0.0413398 -0.00783529)
(0.0137796 -0.0353329 -0.0245268)
(0.0160563 -0.0209702 -0.0377561)
(0.018993 -0.00431421 -0.0432538)
(0.0214824 0.0054167 -0.0448851)
(0.0237382 0.00451073 -0.0416323)
(0.0230017 -0.00425598 -0.0352025)
(0.0170085 -0.0209841 -0.0275812)
(0.00664318 -0.0388845 -0.01182)
(-0.00155807 -0.0411281 0.00637569)
(-0.0039411 -0.0257064 0.0159237)
(-0.00494671 -0.00976201 0.0193841)
(-0.00613024 0.00109655 0.0197885)
(-0.00579031 0.00748663 0.0178845)
(-0.0040454 0.0113991 0.0141481)
(0.00453347 0.00919186 0.0144932)
(0.00616677 0.00613402 0.0154895)
(0.00703789 0.00123412 0.0129321)
(0.00501702 -0.00705103 0.00501702)
(-0.003956 -0.0210251 -0.0133183)
(-0.022078 -0.0198207 -0.0494544)
(-0.0304659 -0.00234007 -0.0840226)
(-0.0252465 0.0132648 -0.107179)
(-0.0112529 0.0252307 -0.116323)
(0.0190109 0.028162 -0.113985)
(0.0375925 0.0226424 -0.108328)
(0.0529756 0.0162898 -0.0985759)
(0.0586374 0.00699715 -0.0835463)
(0.0512419 -0.00805956 -0.0598548)
(0.0298282 -0.0232978 -0.0256855)
(0.00852318 -0.0157748 0.00452864)
(0.000578273 -0.00353234 0.0173952)
(-0.00276759 0.0026644 0.0220805)
(-0.00294295 0.00577496 0.0223954)
(-0.00288423 0.00702745 0.0203851)
(-0.00213922 0.00386542 -0.0280104)
(0.0018687 0.00211625 -0.0256291)
(0.00168236 0.00241295 -0.0208819)
(0.00195357 0.00572733 -0.0133172)
(-0.00284227 0.00981702 -0.00284227)
(-0.0124314 0.00748608 0.0082425)
(-0.0196226 0.00232368 0.017238)
(-0.0249017 -0.00263113 0.0257864)
(-0.0271254 -0.00702849 0.031996)
(-0.0259087 -0.0108986 0.034433)
(-0.0208862 -0.0136869 0.0323178)
(-0.0130996 -0.0140215 0.0257493)
(-0.00505314 -0.0108556 0.0159397)
(0.0012388 -0.00532679 0.00368427)
(0.00298054 -0.00143557 -0.00830937)
(0.00442734 -0.000779204 -0.0187881)
(0.00628192 -0.000845312 -0.0263474)
(0.00827031 0.000160645 -0.0307817)
(0.0066097 0.00256486 -0.0328287)
(0.00709625 0.00593356 -0.0340142)
(-0.000623259 0.00791798 -0.0209273)
(0.00153276 0.0072805 -0.0159279)
(0.000231084 0.00887068 -0.0109658)
(-0.000564781 0.012175 -0.00622708)
(-0.00166714 0.0156606 -0.00166714)
(-0.0033319 0.015411 0.00323211)
(-0.00520495 0.0114666 0.00943944)
(-0.0078957 0.00537968 0.0170777)
(-0.0115991 -0.00193572 0.0243887)
(-0.0142341 -0.00896613 0.028604)
(-0.0147238 -0.0145736 0.0284614)
(-0.0125547 -0.0170344 0.0245578)
(-0.00810297 -0.014866 0.0180914)
(-0.00315976 -0.00912099 0.0101055)
(0.000537272 -0.00315036 0.00164313)
(0.00230944 0.000491577 -0.00612318)
(0.0028706 0.00254553 -0.0130512)
(0.0033221 0.00475739 -0.0188857)
(0.00237878 0.00793116 -0.0237076)
(0.00405058 0.0116334 -0.0283208)
(-0.000489835 0.0113197 -0.0155999)