/*--------------------------------*- C++ -*----------------------------------*\
  =========                 |
  \\      /  F ield         | OpenFOAM: The Open Source CFD Toolbox
   \\    /   O peration     | Website:  https://openfoam.org
    \\  /    A nd           | Version:  9
     \\/     M anipulation  |
\*---------------------------------------------------------------------------*/
FoamFile
{
    format      ascii;
    class       volScalarField;
    location    "0.2";
    object      alpha.water;
}
// * * * * * * * * * * * * * * * * * * * * * * * * * * * * * * * * * * * * * //

dimensions      [0 0 0 0 0 0 0];

internalField   nonuniform List<scalar> 
1915
(
0.979935
0.828774
1
0.868938
1
0.911971
0.999993
0.988331
0.999987
0.999996
0.99997
0.999987
0.999976
0.999977
0.999983
0.999977
0.999885
0.999957
0.998968
0.999932
5.32642e-25
3.81093e-24
3.63956e-23
6.86824e-23
4.90679e-23
8.10906e-24
1.23983e-24
1.08815e-25
7.04781e-27
4.28726e-28
2.81227e-29
2.15697e-30
1.86599e-31
1.63085e-32
1.32888e-33
9.93159e-35
6.94153e-36
4.60328e-37
2.89686e-38
1.72023e-39
9.59279e-41
5.00438e-42
2.43327e-43
1.0983e-44
4.58203e-46
1.75619e-47
6.14134e-49
1.94457e-50
5.52357e-52
1.39111e-53
3.06018e-55
5.76519e-57
9.05949e-59
1.14514e-60
1.10557e-62
7.54649e-65
3.22093e-67
6.94808e-70
4.70952e-73
2.68684e-74
4.83998e-24
4.90193e-22
3.86308e-21
7.31893e-21
6.67806e-21
2.02847e-21
2.52778e-22
1.83875e-23
1.13992e-24
6.95473e-26
4.31464e-27
2.82024e-28
1.94465e-29
1.36129e-30
9.2889e-32
6.07887e-33
3.82649e-34
2.32063e-35
1.34756e-36
7.42693e-38
3.8595e-39
1.88237e-40
8.58081e-42
3.64024e-43
1.43046e-44
5.1782e-46
1.71575e-47
5.16438e-49
1.39923e-50
3.37376e-52
7.13555e-54
1.29925e-55
1.98797e-57
2.47278e-59
2.38856e-61
1.67694e-63
7.73462e-66
2.01346e-68
2.59117e-71
3.85225e-74
4.39645e-22
5.37283e-20
4.15786e-19
7.68008e-19
6.48515e-19
1.63452e-19
1.81359e-20
1.2653e-21
7.79992e-23
4.60082e-24
2.63583e-25
1.50777e-26
8.73183e-28
5.07508e-29
2.91073e-30
1.63228e-31
8.94167e-33
4.76892e-34
2.45449e-35
1.20739e-36
5.63528e-38
2.4822e-39
1.02696e-40
3.9725e-42
1.4298e-43
4.76261e-45
1.45902e-46
4.08104e-48
1.03327e-49
2.34303e-51
4.69586e-53
8.17999e-55
1.2121e-56
1.48451e-58
1.4446e-60
1.05458e-62
5.27181e-65
1.53098e-67
1.82887e-70
2.48496e-72
4.13324e-20
4.38822e-18
2.96162e-17
5.12673e-17
3.86908e-17
8.3883e-18
8.38975e-19
5.49912e-20
3.25763e-21
1.82865e-22
9.7451e-24
5.0271e-25
2.55268e-26
1.2821e-27
6.35602e-29
3.10702e-30
1.49719e-31
7.07351e-33
3.24412e-34
1.43041e-35
6.01813e-37
2.40185e-38
9.04567e-40
3.19878e-41
1.05681e-42
3.24436e-44
9.1984e-46
2.39165e-47
5.6559e-49
1.20446e-50
2.28165e-52
3.7864e-54
5.39794e-56
6.4415e-58
6.20675e-60
4.57357e-62
2.34355e-64
6.65951e-67
6.26127e-70
4.66875e-71
3.18035e-18
2.66718e-16
1.59378e-15
2.64958e-15
1.79404e-15
3.28408e-16
2.71427e-17
1.60273e-18
8.99956e-20
4.81555e-21
2.41731e-22
1.15225e-23
5.305e-25
2.3858e-26
1.05478e-27
4.60622e-29
1.98855e-30
8.43602e-32
3.48385e-33
1.38854e-34
5.30371e-36
1.9299e-37
6.65333e-39
2.1619e-40
6.58699e-42
1.87169e-43
4.92999e-45
1.19553e-46
2.64817e-48
5.30749e-50
9.51457e-52
1.5039e-53
2.05779e-55
2.3781e-57
2.24047e-59
1.62523e-61
8.07616e-64
2.15918e-66
1.20861e-69
3.7723e-70
1.61423e-16
1.2022e-14
6.82414e-14
1.13666e-13
6.06922e-14
8.27939e-15
5.3611e-16
2.95156e-17
1.62901e-18
8.52351e-20
4.1191e-21
1.86048e-22
8.00516e-24
3.33004e-25
1.35429e-26
5.42625e-28
2.14445e-29
8.30936e-31
3.13358e-32
1.14225e-33
4.00047e-35
1.33858e-36
4.25612e-38
1.27933e-39
3.61675e-41
9.56499e-43
2.35231e-44
5.34407e-46
1.11302e-47
2.10593e-49
3.58016e-51
5.39357e-53
7.07244e-55
7.87448e-57
7.17077e-59
4.99728e-61
2.33515e-63
5.35733e-66
2.94658e-69
1.99576e-69
6.42123e-15
3.78642e-13
1.80233e-12
2.74709e-12
9.43688e-13
1.00138e-13
5.97635e-15
3.39401e-16
1.9347e-17
1.01798e-18
4.84255e-20
2.12362e-21
8.78227e-23
3.48334e-24
1.34192e-25
5.06074e-27
1.87059e-28
6.74606e-30
2.36182e-31
7.98855e-33
2.59781e-34
8.08162e-36
2.39322e-37
6.71339e-39
1.77511e-40
4.40103e-42
1.01721e-43
2.17772e-45
4.28661e-47
7.68976e-49
1.24366e-50
1.78865e-52
2.24617e-54
2.39913e-56
2.08919e-58
1.36406e-60
5.90307e-63
1.09014e-65
1.01301e-68
8.32844e-69
2.20077e-13
6.41197e-12
1.98259e-11
2.45318e-11
5.50478e-12
5.95062e-13
4.21732e-14
2.69982e-15
1.60619e-16
8.52597e-18
4.02993e-19
1.74231e-20
7.06373e-22
2.73146e-23
1.01947e-24
3.69704e-26
1.30285e-27
4.45357e-29
1.47246e-30
4.6941e-32
1.43748e-33
4.21093e-35
1.17493e-36
3.10868e-38
7.76349e-40
1.82086e-41
3.98847e-43
8.10859e-45
1.519e-46
2.59941e-48
4.01988e-50
5.54007e-52
6.67505e-54
6.83174e-56
5.65038e-58
3.48787e-60
1.34364e-62
1.59872e-65
3.2582e-68
2.9778e-68
9.25909e-12
6.60678e-11
9.46467e-11
6.11229e-11
1.48677e-11
2.38227e-12
2.19432e-13
1.62558e-14
9.90653e-16
5.24895e-17
2.475e-18
1.0647e-19
4.27867e-21
1.6328e-22
5.97929e-24
2.11088e-25
7.19316e-27
2.36536e-28
7.49697e-30
2.28553e-31
6.6826e-33
1.8677e-34
4.97133e-36
1.25522e-37
2.9936e-39
6.71184e-41
1.40719e-42
2.74236e-44
4.93279e-46
8.1196e-48
1.20992e-49
1.60897e-51
1.87132e-53
1.8446e-55
1.45751e-57
8.53803e-60
2.96741e-62
1.17286e-65
9.6756e-68
9.3079e-68
1.00395e-11
2.03643e-11
9.3362e-11
4.76888e-11
2.14315e-11
6.90983e-12
9.44937e-13
7.38532e-14
4.54036e-15
2.39731e-16
1.14122e-17
4.96063e-19
2.00054e-20
7.60746e-22
2.75463e-23
9.54423e-25
3.17385e-26
1.01413e-27
3.11344e-29
9.17313e-31
2.58845e-32
6.97671e-34
1.79054e-35
4.36029e-37
1.00355e-38
2.17332e-40
4.4064e-42
8.31595e-44
1.4509e-45
2.32064e-47
3.36644e-49
4.36608e-51
4.95946e-53
4.77589e-55
3.67419e-57
2.05608e-59
6.36588e-62
1.81408e-65
2.6388e-67
2.57739e-67
0.990383
0.999775
0.93485
0.998677
0.608424
0.994705
0.0595332
0.959994
0.0107247
0.926214
0.00337934
0.838701
0.00127134
0.463856
0.000610583
0.00889501
0.000150398
0.000359514
5.26686e-05
0.000147704
6.17875e-05
2.56892e-05
9.36051e-06
3.02139e-06
8.8427e-07
2.37917e-07
6.01091e-08
1.44235e-08
3.34464e-09
7.69366e-10
1.88984e-10
4.5787e-11
2.07247e-11
6.96326e-12
1.25196e-12
1.96318e-13
3.11485e-14
4.74743e-15
6.91217e-16
9.59071e-17
1.25924e-17
1.58247e-18
1.89442e-19
0.11738
2.32347e-10
4.59237e-11
3.86424e-11
0.144219
3.77498e-10
1.68759e-09
1.05792e-09
0.16258
2.52836e-05
3.54298e-08
6.11403e-09
0.170971
0.000687976
1.8618e-07
1.69589e-06
0.366077
0.00927911
-6.2532e-06
4.72395e-06
0.742718
0.0302601
0.000116654
1.07575e-05
0.662148
0.265306
0.00133645
0.000129147
0.312134
0.322832
0.0934881
0.00201555
0.0426901
0.162542
0.156809
0.0586755
0.0077168
0.0208948
0.0459786
0.054237
0.00270805
0.00472408
0.00428675
0.00498118
0.000889791
0.00152683
0.0014369
0.00106649
0.000267985
0.000446516
0.000420528
0.000329004
7.37207e-05
0.000120087
0.000110821
8.36087e-05
1.86445e-05
2.97577e-05
2.67266e-05
1.8736e-05
4.37685e-06
6.83018e-06
5.96349e-06
3.80579e-06
9.62613e-07
1.46273e-06
1.2428e-06
7.31926e-07
2.03025e-07
2.94392e-07
2.4364e-07
1.39474e-07
4.04106e-08
5.60396e-08
4.51786e-08
2.51763e-08
7.65801e-09
1.01562e-08
7.99477e-09
4.35868e-09
1.36713e-09
1.74861e-09
1.34286e-09
7.31068e-10
2.69217e-10
3.16193e-10
2.50033e-10
1.45603e-10
5.68627e-11
6.45402e-11
5.4264e-11
4.18954e-11
1.51971e-11
1.75258e-11
1.54705e-11
9.84725e-12
3.22649e-12
3.62483e-12
2.95255e-12
1.51874e-12
5.01862e-13
5.37532e-13
4.06116e-13
2.07085e-13
7.30348e-14
7.47672e-14
5.50241e-14
2.7303e-14
1.02923e-14
1.01006e-14
7.1422e-15
3.43681e-15
1.38783e-15
1.31238e-15
8.82199e-16
4.12338e-16
1.79131e-16
1.62784e-16
1.03908e-16
4.7143e-17
2.2116e-17
1.92144e-17
1.16703e-17
5.13109e-18
2.58891e-18
2.15617e-18
1.2477e-18
5.30999e-19
2.87557e-19
2.3006e-19
1.26949e-19
5.21734e-20
1.13479e-11
2.08934e-11
1.59132e-10
7.60002e-11
1.72817e-11
1.0562e-11
3.53344e-12
2.71872e-13
1.61429e-14
8.3087e-16
3.98365e-17
1.77441e-18
7.31311e-20
2.81237e-21
1.01924e-22
3.50615e-24
1.14961e-25
3.6025e-27
1.08034e-28
3.1008e-30
8.511e-32
2.23005e-33
5.56392e-35
1.31774e-36
2.95188e-38
6.22875e-40
1.23223e-41
2.27294e-43
3.8836e-45
6.09708e-47
8.70485e-49
1.11465e-50
1.25509e-52
1.20489e-54
9.33126e-57
5.22611e-59
1.52796e-61
3.00587e-65
6.53697e-67
6.38532e-67
6.6419e-09
1.51908e-08
1.78453e-09
1.66866e-09
2.05522e-10
1.86855e-11
7.23362e-12
9.87097e-13
5.27363e-14
2.41747e-15
1.10411e-16
4.94904e-18
2.09266e-19
8.22976e-21
3.02564e-22
1.04745e-23
3.43001e-25
1.06572e-26
3.14754e-28
8.85072e-30
2.37215e-31
6.0595e-33
1.47351e-34
3.40386e-36
7.44787e-38
1.5378e-39
2.98289e-41
5.40742e-43
9.10452e-45
1.4129e-46
2.00133e-48
2.55426e-50
2.88467e-52
2.80524e-54
2.24339e-56
1.34661e-58
4.74408e-61
5.51694e-65
1.4123e-66
1.37562e-66
1.02821e-07
2.33084e-07
8.06929e-08
2.23075e-08
1.38714e-09
6.71723e-11
7.56622e-12
4.17091e-12
2.34814e-13
8.60203e-15
3.18991e-16
1.28826e-17
5.31574e-19
2.10216e-20
7.80376e-22
2.72286e-23
8.95067e-25
2.77249e-26
8.09702e-28
2.23951e-29
5.88937e-31
1.47485e-32
3.51657e-34
7.97193e-36
1.71413e-37
3.4853e-39
6.67364e-41
1.19747e-42
2.0016e-44
3.09448e-46
4.38523e-48
5.63023e-50
6.44495e-52
6.42683e-54
5.38627e-56
3.56172e-58
1.62179e-60
3.06735e-63
3.07759e-66
2.9805e-66
1.15825e-06
2.0089e-06
9.41611e-07
1.3303e-07
9.74853e-09
5.09276e-10
4.19375e-11
2.04482e-11
1.563e-12
6.893e-14
2.21029e-15
6.99618e-17
2.31791e-18
7.83054e-20
2.60644e-21
8.41104e-23
2.61019e-24
7.64743e-26
2.09777e-27
5.43364e-29
1.34302e-30
3.18402e-32
7.24879e-34
1.58242e-35
3.30259e-37
6.56573e-39
1.23743e-40
2.19894e-42
3.66186e-44
5.67377e-46
8.10853e-48
1.05729e-49
1.24016e-51
1.28359e-53
1.13973e-55
8.3134e-58
4.62299e-60
1.67631e-62
2.40745e-65
3.64136e-66
8.18462e-05
3.09957e-05
7.97551e-06
2.47836e-06
1.99889e-07
2.81725e-08
2.38368e-09
1.42487e-10
8.44842e-12
6.02721e-13
2.49026e-14
8.25064e-16
2.61065e-17
7.91032e-19
2.27903e-20
6.26594e-22
1.65026e-23
4.1407e-25
9.80354e-27
2.17968e-28
4.57213e-30
9.15809e-32
1.77216e-33
3.33421e-35
6.11137e-37
1.08993e-38
1.88328e-40
3.1328e-42
4.97695e-44
7.48421e-46
1.05566e-47
1.37271e-49
1.62692e-51
1.72836e-53
1.60745e-55
1.26414e-57
7.96961e-60
3.67921e-62
9.81552e-65
4.41855e-66
0.000118208
0.000333532
0.000149795
1.97134e-05
2.8929e-06
2.92308e-07
1.84395e-08
7.73929e-10
3.23407e-11
2.75276e-12
1.66975e-13
6.4165e-15
2.14762e-16
6.72354e-18
1.95209e-19
5.27164e-21
1.33284e-22
3.16605e-24
7.06701e-26
1.47831e-27
2.88686e-29
5.2564e-31
8.9587e-33
1.43757e-34
2.18074e-36
3.14144e-38
4.31663e-40
5.69081e-42
7.25088e-44
8.9852e-46
1.08295e-47
1.2629e-49
1.40985e-51
1.46535e-53
1.36899e-55
1.10201e-57
7.25703e-60
3.59662e-62
1.10617e-64
5.50663e-66
0.000126169
0.000619009
0.000358471
5.95414e-05
7.89577e-06
7.08883e-07
4.807e-08
2.56208e-09
1.15797e-10
6.68827e-12
6.41983e-13
3.10013e-14
1.08564e-15
3.52676e-17
1.06262e-18
2.94959e-20
7.58582e-22
1.81784e-23
4.07146e-25
8.52734e-27
1.66814e-28
3.04174e-30
5.15725e-32
8.11797e-34
1.18585e-35
1.60678e-37
2.0067e-39
2.28884e-41
2.35212e-43
2.13227e-45
1.65305e-47
1.20842e-49
8.34977e-52
5.3713e-54
3.36297e-56
1.9867e-58
1.07365e-60
4.88239e-63
2.0588e-65
7.084e-66
0.000353205
0.000786805
0.000404182
6.56734e-05
8.91747e-06
9.38974e-07
7.72932e-08
5.17231e-09
2.8364e-10
1.42331e-11
1.64092e-12
9.91965e-14
3.66973e-15
1.23182e-16
3.86459e-18
1.11466e-19
2.95907e-21
7.2613e-23
1.65707e-24
3.53314e-26
7.04241e-28
1.31153e-29
2.2793e-31
3.68496e-33
5.54569e-35
7.75557e-37
1.00349e-38
1.19308e-40
1.29004e-42
1.24842e-44
1.05253e-46
7.37827e-49
3.7993e-51
1.23642e-53
5.34977e-56
2.37868e-58
8.83078e-61
2.31587e-63
1.47833e-65
1.14377e-65
0.00822646
0.00100291
0.000253941
5.06927e-05
7.36844e-06
8.33559e-07
7.73491e-08
6.0646e-09
3.95163e-10
2.27266e-11
2.41053e-12
1.81241e-13
7.61658e-15
2.68537e-16
8.84016e-18
2.6663e-19
7.368e-21
1.873e-22
4.38723e-24
9.53193e-26
1.93237e-27
3.66666e-29
6.49847e-31
1.07342e-32
1.65465e-34
2.3773e-36
3.17514e-38
3.92714e-40
4.47319e-42
4.64676e-44
4.34991e-46
3.60875e-48
2.5793e-50
1.5167e-52
6.71608e-55
1.55214e-57
4.16639e-60
1.02539e-62
3.71044e-65
2.42852e-65
0.0196401
0.00132167
0.000219369
3.79485e-05
5.60476e-06
6.69472e-07
6.46346e-08
5.15614e-09
3.48624e-10
2.12064e-11
1.3498e-12
1.78685e-13
9.46519e-15
3.41025e-16
1.19349e-17
3.8305e-19
1.12483e-20
3.03279e-22
7.53877e-24
1.72668e-25
3.65115e-27
7.16802e-29
1.30652e-30
2.2165e-32
3.49978e-34
5.1302e-36
6.98226e-38
8.80264e-40
1.0239e-41
1.09451e-43
1.06749e-45
9.39008e-48
7.33757e-50
4.95734e-52
2.80681e-54
1.25708e-56
4.02634e-59
6.76418e-62
1.0824e-64
4.36653e-65
0.00598656
0.00208746
0.000109162
2.04124e-05
3.05371e-06
3.71099e-07
3.94371e-08
3.47938e-09
2.58982e-10
1.78365e-11
1.20661e-12
1.314e-13
7.01577e-15
2.74698e-16
1.02132e-17
3.46592e-19
1.07416e-20
3.05274e-22
7.9739e-24
1.91842e-25
4.25979e-27
8.73332e-29
1.65971e-30
2.92683e-32
4.79218e-34
7.29036e-36
1.02614e-37
1.33582e-39
1.60402e-41
1.76786e-43
1.77706e-45
1.61594e-47
1.31257e-49
9.39128e-52
5.78392e-54
2.96498e-56
1.19968e-58
3.50994e-61
5.65823e-64
6.84533e-65
0.000779779
0.000382118
3.2743e-05
6.26389e-06
9.75767e-07
1.25025e-07
1.336e-08
1.26312e-09
1.02408e-10
8.17038e-12
7.57319e-13
6.06704e-14
3.11519e-15
1.35044e-16
5.39112e-18
1.9535e-19
6.44575e-21
1.94404e-22
5.37825e-24
1.36737e-25
3.20364e-27
6.91402e-29
1.37654e-30
2.53149e-32
4.30136e-34
6.76889e-36
9.89223e-38
1.33469e-39
1.65703e-41
1.88538e-43
1.95489e-45
1.83291e-47
1.54051e-49
1.14853e-51
7.41025e-54
4.01874e-56
1.75637e-58
5.76468e-61
1.16004e-63
8.8985e-65
0.000222661
8.05782e-05
8.03537e-06
1.51359e-06
2.38218e-07
3.12484e-08
3.46876e-09
3.37632e-10
3.20742e-11
2.83471e-12
3.2592e-13
2.17826e-14
1.08272e-15
4.99547e-17
2.09107e-18
7.94361e-20
2.74904e-21
8.69602e-23
2.52226e-24
6.7602e-26
1.6702e-27
3.80508e-29
8.00431e-31
1.55623e-32
2.79809e-34
4.63658e-36
7.06237e-38
9.90587e-40
1.27678e-41
1.50671e-43
1.61957e-45
1.5744e-47
1.36928e-49
1.04736e-51
6.93736e-54
3.87468e-56
1.75019e-58
5.99105e-61
1.3235e-63
5.11983e-65
5.14675e-05
1.67984e-05
1.99818e-06
3.21004e-07
4.9341e-08
6.50913e-09
7.3539e-10
8.1261e-11
8.75165e-12
1.20708e-12
1.0058e-13
5.83962e-15
3.08633e-16
1.48103e-17
6.43174e-19
2.53638e-20
9.11834e-22
3.0029e-23
9.1002e-25
2.53812e-26
6.51725e-28
1.54251e-29
3.36835e-31
6.79038e-33
1.26401e-34
2.17172e-36
3.44035e-38
5.01746e-40
6.7194e-42
8.23246e-44
9.17978e-46
9.25046e-48
8.34196e-50
6.63969e-52
4.57997e-54
2.66545e-56
1.25801e-58
4.50974e-61
1.06417e-63
2.51879e-65
1.02997e-05
3.02198e-06
4.61416e-07
7.37239e-08
1.09283e-08
1.37176e-09
1.63998e-10
2.09221e-11
3.50797e-12
3.58431e-13
2.40793e-14
1.4485e-15
7.91422e-17
3.90342e-18
1.74495e-19
7.10113e-21
2.64456e-22
9.03642e-24
2.83436e-25
8.17196e-27
2.16875e-28
5.30371e-30
1.19617e-31
2.48917e-33
4.77969e-35
8.46561e-37
1.38165e-38
2.07417e-40
2.85653e-42
3.59524e-44
4.11363e-46
4.24824e-48
3.92152e-50
3.19308e-52
2.25123e-54
1.33839e-56
6.44826e-59
2.36017e-61
5.71491e-64
1.11148e-65
1.8846e-06
5.16701e-07
1.01039e-07
1.62849e-08
2.39103e-09
3.1527e-10
4.55735e-11
8.98777e-12
1.11816e-12
8.68642e-14
5.88759e-15
3.63823e-16
2.03202e-17
1.02851e-18
4.73228e-20
1.98461e-21
7.60569e-23
2.66936e-24
8.59529e-26
2.54338e-27
6.92561e-29
1.73733e-30
4.0182e-32
8.57233e-34
1.68694e-35
3.06078e-37
5.11481e-39
7.85792e-41
1.10685e-42
1.42396e-44
1.66429e-46
1.7545e-48
1.65207e-50
1.3711e-52
9.84556e-55
5.95736e-57
2.91913e-59
1.08596e-61
2.67728e-64
4.4683e-66
3.2561e-07
9.26843e-08
2.03549e-08
3.54184e-09
5.40973e-10
8.83932e-11
1.96224e-11
2.92849e-12
2.68209e-13
2.07726e-14
1.45883e-15
9.2242e-17
5.26724e-18
2.72607e-19
1.28281e-20
5.50362e-22
2.15773e-23
7.74674e-25
2.55163e-26
7.72287e-28
2.15069e-29
5.51662e-31
1.30433e-32
2.8438e-34
5.71739e-36
1.05941e-37
1.80726e-39
2.83312e-41
4.07013e-43
5.33788e-45
6.35674e-47
6.82452e-49
6.54097e-51
5.52291e-53
4.03305e-55
2.4807e-57
1.23529e-59
4.66914e-62
1.17288e-64
1.60883e-66
5.50969e-08
1.63321e-08
3.89152e-09
7.71963e-10
1.40892e-10
3.50367e-11
6.1148e-12
6.53204e-13
5.80672e-14
4.64201e-15
3.32529e-16
2.14307e-17
1.24796e-18
6.59047e-20
3.16623e-21
1.38752e-22
5.5591e-24
2.04036e-25
6.87214e-27
2.12718e-28
6.05859e-30
1.58932e-31
3.84252e-33
8.565e-35
1.76e-36
3.33217e-38
5.80597e-40
9.29273e-42
1.36249e-43
1.82287e-45
2.21359e-47
2.4223e-49
2.36546e-51
2.03422e-53
1.51244e-55
9.46929e-58
4.7988e-60
1.84576e-62
4.73147e-65
5.11053e-67
9.78105e-09
2.87844e-09
7.27688e-10
1.78125e-10
5.01751e-11
1.00681e-11
1.25197e-12
1.28071e-13
1.16749e-14
9.47944e-16
6.89205e-17
4.51071e-18
2.66919e-19
1.43335e-20
7.00665e-22
3.1261e-23
1.27588e-24
4.77285e-26
1.63917e-27
5.17561e-29
1.50413e-30
4.02697e-32
9.93799e-34
2.26128e-35
4.74336e-37
9.16688e-39
1.6302e-40
2.66265e-42
3.98316e-44
5.43605e-46
6.7323e-48
7.51168e-50
7.47789e-52
6.55446e-54
4.96627e-56
3.16845e-58
1.63617e-60
6.41285e-63
1.67899e-65
1.43666e-67
1.6691e-09
5.22426e-10
1.57857e-10
5.58832e-11
1.32556e-11
1.90548e-12
2.25492e-13
2.35247e-14
2.16982e-15
1.78159e-16
1.31067e-17
8.68522e-19
5.20693e-20
2.83457e-21
1.40552e-22
6.36456e-24
2.63785e-25
1.00257e-26
3.49993e-28
1.12377e-29
3.32234e-31
9.05143e-33
2.27368e-34
5.26704e-36
1.12497e-37
2.21394e-39
4.00958e-41
6.66954e-43
1.01609e-44
1.4122e-46
1.78103e-48
2.0236e-50
2.05133e-52
1.83089e-54
1.41267e-56
9.17858e-59
4.8276e-61
1.92753e-63
5.15019e-66
3.57737e-68
3.09838e-10
1.12227e-10
4.9228e-11
1.38096e-11
2.31167e-12
3.19027e-13
3.82934e-14
4.02639e-15
3.74176e-16
3.09778e-17
2.2995e-18
1.53855e-19
9.31912e-21
5.12869e-22
2.57239e-23
1.17894e-24
4.94804e-26
1.90536e-27
6.74236e-29
2.19538e-30
6.58463e-32
1.8206e-33
4.64274e-35
1.09213e-36
2.36926e-38
4.73675e-40
8.71614e-42
1.47328e-43
2.28103e-45
3.22215e-47
4.13055e-49
4.77075e-51
4.91664e-53
4.46188e-55
3.50097e-57
2.31366e-59
1.23804e-61
5.03034e-64
1.36977e-66
7.86362e-69
7.9192e-11
3.59415e-11
1.13392e-11
2.24634e-12
3.64386e-13
5.0652e-14
6.10001e-15
6.43722e-16
6.01027e-17
5.00367e-18
3.73787e-19
2.51859e-20
1.5373e-21
8.53084e-23
4.31696e-24
1.99727e-25
8.46674e-27
3.29476e-28
1.17879e-29
3.88254e-31
1.17843e-32
3.29859e-34
8.51891e-36
2.03011e-37
4.46292e-39
9.04399e-41
1.68724e-42
2.89203e-44
4.54145e-46
6.50786e-48
8.46463e-50
9.9215e-52
1.03786e-53
9.56243e-56
7.61958e-58
5.11521e-60
2.78141e-62
1.14881e-64
3.18386e-67
1.53467e-69
2.21934e-11
7.5821e-12
1.75128e-12
3.37096e-13
5.46634e-14
7.5845e-15
9.12854e-16
9.64204e-17
9.02138e-18
7.53342e-19
5.64947e-20
3.82415e-21
2.34649e-22
1.3098e-23
6.67119e-25
3.10829e-26
1.32771e-27
5.20884e-29
1.87978e-30
6.2481e-32
1.91469e-33
5.4134e-35
1.41269e-36
3.40303e-38
7.56481e-40
1.55064e-41
2.92704e-43
5.07783e-45
8.07262e-47
1.17144e-48
1.54338e-50
1.83294e-52
1.94334e-54
1.81536e-56
1.46712e-58
9.99343e-61
5.51592e-63
2.31364e-65
6.51896e-68
2.67469e-70
3.97876e-12
1.09751e-12
2.52451e-13
4.82336e-14
7.76411e-15
1.07171e-15
1.28593e-16
1.35621e-17
1.26854e-18
1.06007e-19
7.96213e-21
5.40208e-22
3.32465e-23
1.86257e-24
9.52696e-26
4.46035e-27
1.91553e-28
7.55971e-30
2.74584e-31
9.19054e-33
2.83743e-34
8.08591e-36
2.12778e-37
5.17069e-39
1.15999e-40
2.4005e-42
4.57629e-44
8.02068e-46
1.28869e-47
1.89063e-49
2.51925e-51
3.0271e-53
3.24849e-55
3.07282e-57
2.51587e-59
1.737e-61
9.72302e-64
4.13819e-66
1.18435e-68
4.1867e-71
5.55382e-13
1.52677e-13
3.47147e-14
6.55005e-15
1.04409e-15
1.43079e-16
1.70778e-17
1.79444e-18
1.6743e-19
1.39712e-20
1.04877e-21
7.11709e-23
4.38412e-24
2.45996e-25
1.26101e-26
5.92027e-28
2.55105e-29
1.01073e-30
3.68755e-32
1.24041e-33
3.85059e-35
1.10388e-36
2.92359e-38
7.15368e-40
1.61665e-41
3.37158e-43
6.48031e-45
1.14559e-46
1.8573e-48
2.75074e-50
3.70183e-52
4.49448e-54
4.87596e-56
4.66524e-58
3.86574e-60
2.70283e-62
1.53311e-64
6.6163e-67
1.92201e-69
5.918e-72
7.49422e-14
2.02857e-14
4.53782e-15
8.44043e-16
1.33016e-16
1.80628e-17
2.14045e-18
2.23627e-19
2.07725e-20
1.72743e-21
1.29345e-22
8.76227e-24
5.39208e-25
3.0245e-26
1.55086e-27
7.28767e-29
3.14496e-30
1.24861e-31
4.56738e-33
1.54122e-34
4.80207e-36
1.38244e-37
3.67857e-39
9.0478e-41
2.05632e-42
4.31493e-44
8.34856e-46
1.48637e-47
2.42819e-49
3.62553e-51
4.92143e-53
6.03047e-55
6.60676e-57
6.38759e-59
5.3521e-61
3.78664e-63
2.17509e-65
9.51294e-68
2.80343e-70
7.59348e-73
9.65874e-15
2.56535e-15
5.63719e-16
1.0323e-16
1.60594e-17
2.1574e-18
2.53365e-19
2.62726e-20
2.42517e-21
2.00623e-22
1.49573e-23
1.0097e-24
6.19627e-26
3.46836e-27
1.77591e-28
8.33847e-30
3.59769e-31
1.42889e-32
5.23184e-34
1.7681e-35
5.52027e-37
1.59332e-38
4.25292e-40
1.04986e-41
2.39599e-43
5.05128e-45
9.82434e-47
1.75922e-48
2.89213e-50
4.34814e-52
5.94687e-54
7.34676e-56
8.12048e-58
7.92684e-60
6.71118e-62
4.80176e-64
2.79171e-66
1.23688e-68
3.69632e-71
8.88815e-74
1.18588e-15
3.08659e-16
6.65461e-17
1.19827e-17
1.83762e-18
2.43847e-19
2.8336e-20
2.91157e-21
2.6664e-22
2.19069e-23
1.62356e-24
1.0904e-25
6.66234e-27
3.7156e-28
1.89682e-29
8.88519e-31
3.82691e-32
1.51819e-33
5.5557e-35
1.87757e-36
5.86546e-38
1.69488e-39
4.53167e-41
1.12119e-42
2.56596e-44
5.4279e-46
1.05987e-47
1.90654e-49
3.15061e-51
4.7645e-53
6.55903e-55
8.16218e-57
9.0948e-59
8.95728e-61
7.65823e-63
5.5385e-65
3.25797e-67
1.46188e-69
4.42912e-72
9.53501e-75
1.38627e-16
3.53209e-17
7.46257e-18
1.31979e-18
1.99265e-19
2.60832e-20
2.99479e-21
3.04475e-22
2.7623e-23
2.25063e-24
1.65567e-25
1.10468e-26
6.71051e-28
3.72349e-29
1.89249e-30
8.83172e-32
3.79201e-33
1.50058e-34
5.48073e-36
1.84979e-37
5.77439e-39
1.66829e-40
4.46247e-42
1.10518e-43
2.53338e-45
5.37085e-47
1.05171e-48
1.89851e-50
3.15052e-52
4.78786e-54
6.62884e-56
8.303e-58
9.32041e-60
9.25635e-62
7.98816e-64
5.83743e-66
3.47345e-68
1.57825e-70
4.8474e-73
9.41654e-76
1.54172e-17
3.84201e-18
7.94584e-19
1.37873e-19
2.04705e-20
2.63992e-21
2.9911e-22
3.00503e-23
2.69726e-24
2.17653e-25
1.58727e-26
1.05074e-27
6.33782e-29
3.49443e-30
1.76605e-31
8.20057e-33
3.50572e-34
1.38212e-35
5.03237e-37
1.6942e-38
5.27861e-40
1.52306e-41
4.07113e-43
1.00817e-44
2.31227e-46
4.90797e-48
9.6288e-50
1.74266e-51
2.90158e-53
4.42784e-55
6.16107e-57
7.76278e-59
8.77411e-61
8.78301e-63
7.6483e-65
5.64623e-67
3.3981e-69
1.56352e-71
4.86832e-74
8.59737e-77
1.62982e-18
3.96945e-19
8.02759e-20
1.36531e-20
1.99138e-21
2.52745e-22
2.82274e-23
2.79917e-24
2.4829e-25
1.98204e-26
1.43125e-27
9.38973e-29
5.61734e-30
3.07414e-31
1.54316e-32
7.1221e-34
3.02816e-35
1.18813e-36
4.308e-38
1.44519e-39
4.48955e-41
1.29239e-42
3.44875e-44
8.53161e-46
1.95603e-47
4.15316e-49
8.15655e-51
1.4789e-52
2.46889e-54
3.78078e-56
5.28409e-58
6.69401e-60
7.61532e-62
7.68136e-64
6.74825e-66
5.03229e-68
3.06329e-70
1.42742e-72
4.50646e-75
7.2935e-78
1.63604e-19
3.89181e-20
7.689e-21
1.28072e-21
1.83344e-22
2.28801e-23
2.5164e-24
2.46067e-25
2.15481e-26
1.69997e-27
1.21432e-28
7.88741e-30
4.67543e-31
2.53718e-32
1.26382e-33
5.79192e-35
2.44694e-36
9.54593e-38
3.44366e-39
1.15009e-40
3.55918e-42
1.02132e-43
2.7185e-45
6.71267e-47
1.53724e-48
3.26262e-50
6.40989e-52
1.16358e-53
1.94652e-55
2.98978e-57
4.19534e-59
5.34182e-61
6.11502e-63
6.21424e-65
5.5074e-67
4.14876e-69
2.55472e-71
1.20587e-73
3.86075e-76
6.00873e-79
1.55749e-20
3.61715e-21
6.97577e-22
1.13714e-22
1.59657e-23
1.9575e-24
2.1184e-25
2.04099e-26
1.76304e-27
1.37345e-28
9.69682e-30
6.23061e-31
3.65651e-32
1.96595e-33
9.70949e-35
4.41495e-36
1.85187e-37
7.17747e-39
2.57408e-40
8.55195e-42
2.63449e-43
7.53023e-45
1.9979e-46
4.92085e-48
1.12488e-49
2.38501e-51
4.68479e-53
8.51007e-55
1.42593e-56
2.19595e-58
3.09287e-60
3.95731e-62
4.5579e-64
4.66645e-66
4.1724e-68
3.17565e-70
1.9787e-72
9.46402e-75
3.07376e-77
4.84467e-80
)
;

boundaryField
{
    leftWall
    {
        type            zeroGradient;
    }
    rightWall
    {
        type            zeroGradient;
    }
    lowerWall
    {
        type            zeroGradient;
    }
    atmosphere
    {
        type            inletOutlet;
        inletValue      nonuniform List<scalar> 0();
        value           nonuniform List<scalar> 0();
    }
    defaultFaces
    {
        type            empty;
    }
    procBoundary1to0
    {
        type            processor;
        value           nonuniform List<scalar> 
44
(
1
1
1
0.999996
0.999924
0.999917
0.999974
0.999992
0.999992
0.994664
0.772897
0.215373
0.0233027
0.00796611
0.00269216
0.00115856
0.000421535
0.000147864
4.93318e-05
1.63633e-05
1.72364e-05
1.72364e-05
5.67152e-06
1.82126e-06
5.55667e-07
1.59738e-07
4.3501e-08
1.12319e-08
2.79617e-09
6.90396e-10
1.98494e-10
5.17399e-11
1.73373e-11
5.17083e-12
1.15849e-12
2.36715e-13
4.67633e-14
8.83644e-15
1.5745e-15
2.63061e-16
4.14954e-17
6.24762e-18
8.86924e-19
1.17491e-19
)
;
    }
    procBoundary1to3
    {
        type            processor;
        value           nonuniform List<scalar> 
45
(
1.95507e-20
2.95766e-20
2.30294e-20
1.22628e-20
4.85822e-21
1.40155e-21
3.17874e-22
5.98225e-23
9.54048e-24
1.31313e-24
1.58096e-25
1.68253e-26
1.59622e-27
1.35927e-28
1.04494e-29
7.28697e-31
4.62871e-32
2.68754e-33
1.4307e-34
7.00118e-36
3.15647e-37
1.31365e-38
5.05508e-40
1.80115e-41
5.94905e-43
1.82316e-44
5.18773e-46
1.37116e-47
3.36683e-49
7.67866e-51
1.62563e-52
3.19119e-54
5.7987e-56
9.72894e-58
1.50185e-59
2.12279e-61
2.72916e-63
3.1627e-65
3.26259e-67
2.94373e-69
2.26446e-71
1.4283e-73
6.92609e-76
2.28328e-78
3.6529e-81
)
;
    }
}


// ************************************************************************* //
