/*--------------------------------*- C++ -*----------------------------------*\
  =========                 |
  \\      /  F ield         | OpenFOAM: The Open Source CFD Toolbox
   \\    /   O peration     | Website:  https://openfoam.org
    \\  /    A nd           | Version:  9
     \\/     M anipulation  |
\*---------------------------------------------------------------------------*/
FoamFile
{
    format      ascii;
    class       volScalarField;
    location    "0.225";
    object      p;
}
// * * * * * * * * * * * * * * * * * * * * * * * * * * * * * * * * * * * * * //

dimensions      [0 2 -2 0 0 0 0];

internalField   nonuniform List<scalar> 
900
(
6.24065e-06
-0.00778629
-0.0210947
-0.036017
-0.0492919
-0.0588421
-0.0634543
-0.0625194
-0.0558543
-0.0435802
-0.0260472
-0.00379
0.0224943
0.0519576
0.0836087
0.116326
0.148881
0.179974
0.20829
0.232569
0.251691
0.264773
0.271265
0.271054
0.264561
0.252828
0.237616
0.22152
0.20815
0.201164
0.00778518
-0.000105408
-0.010691
-0.0217978
-0.031505
-0.0382996
-0.0412006
-0.0396649
-0.0334786
-0.0226824
-0.00752091
0.01159
0.0340833
0.0592524
0.0862625
0.114165
0.141919
0.168433
0.192607
0.213398
0.229894
0.241395
0.247492
0.24815
0.243766
0.235224
0.223928
0.211805
0.201157
0.194207
0.0213697
0.0102953
-0.000616669
-0.0105326
-0.018756
-0.0242616
-0.02633
-0.024564
-0.018801
-0.00906962
0.00443734
0.0213814
0.0412902
0.0635648
0.0874872
0.112233
0.136891
0.160499
0.182085
0.200726
0.215614
0.226129
0.23191
0.232916
0.229471
0.222285
0.212482
0.201507
0.190566
0.18076
0.037281
0.0214587
0.00844288
-0.00195326
-0.0100917
-0.0153404
-0.0172283
-0.0155341
-0.0101879
-0.00124598
0.0111153
0.0266053
0.0448198
0.0652405
0.0872359
0.110069
0.132911
0.154873
0.175047
0.192556
0.20662
0.216625
0.222186
0.223206
0.219902
0.212822
0.202874
0.191185
0.178069
0.16379
0.0524972
0.0315137
0.0157209
0.0041136
-0.00459712
-0.0101045
-0.0121586
-0.0107104
-0.00579048
0.00250404
0.0140001
0.0284414
0.0454787
0.0646602
0.0854239
0.107098
0.128912
0.150018
0.169532
0.186581
0.200367
0.210234
0.215735
0.216682
0.213173
0.205601
0.19471
0.181407
0.16527
0.145937
0.0648861
0.0387487
0.0199006
0.00667974
-0.00299975
-0.00909291
-0.0115366
-0.0104362
-0.0059174
0.00188047
0.0127822
0.0265581
0.0429045
0.0614245
0.0816114
0.102842
0.12438
0.145392
0.164988
0.18226
0.196354
0.206533
0.212248
0.213195
0.209339
0.20093
0.188595
0.173108
0.153458
0.128841
0.0728642
0.0417328
0.0197497
0.0047102
-0.00616142
-0.0130302
-0.0159868
-0.0152694
-0.0110873
-0.00361698
0.00696441
0.0204509
0.0365788
0.0549982
0.0752474
0.0967377
0.118749
0.140444
0.160893
0.179126
0.194193
0.205239
0.211578
0.212758
0.208598
0.19921
0.185138
0.167095
0.143597
0.113534
0.0751567
0.0392349
0.0141535
-0.00276562
-0.0149138
-0.02263
-0.0261322
-0.0257718
-0.0218272
-0.0145037
-0.00397593
0.00957568
0.025927
0.044772
0.0656891
0.0881163
0.111339
0.134496
0.156602
0.176594
0.193394
0.205988
0.213514
0.215339
0.21111
0.200796
0.184881
0.164062
0.136453
0.100719
0.0706524
0.0301354
0.0020478
-0.0167229
-0.0301374
-0.0386863
-0.0426968
-0.0426171
-0.0387822
-0.0314162
-0.0206833
-0.00673292
0.0102542
0.0300192
0.0521813
0.0762043
0.101375
0.126798
0.151416
0.174049
0.193458
0.208433
0.21789
0.22097
0.217109
0.206115
0.188408
0.164702
0.132727
0.0909625
0.0583137
0.0133695
-0.01761
-0.0381513
-0.0527589
-0.0620636
-0.0664919
-0.0665778
-0.0627023
-0.0550988
-0.0439119
-0.0292513
-0.0112454
0.0099022
0.0338598
0.0601227
0.0879815
0.116507
0.14456
0.170822
0.193864
0.212234
0.224575
0.229744
0.226914
0.215684
0.196396
0.16978
0.133167
0.0848537
0.0371241
-0.0121106
-0.0458605
-0.0680573
-0.0837379
-0.0936721
-0.0983832
-0.0984857
-0.0944005
-0.0863615
-0.0744845
-0.0588276
-0.039454
-0.0164979
0.00977293
0.0389003
0.0701909
0.102688
0.135169
0.166165
0.194027
0.217017
0.233442
0.241803
0.240929
0.230143
0.209663
0.180215
0.138669
0.0831268
0.00605831
-0.0473625
-0.0837613
-0.107471
-0.124062
-0.134451
-0.139263
-0.139197
-0.134711
-0.126033
-0.113242
-0.0963306
-0.0752798
-0.050134
-0.0210749
0.0115098
0.0469657
0.0843274
0.122297
0.159252
0.1933
0.22237
0.244363
0.257332
0.259658
0.250286
0.229229
0.197161
0.150387
0.0867783
-0.0359336
-0.0934762
-0.132406
-0.157454
-0.174741
-0.185348
-0.190019
-0.189548
-0.184434
-0.1749
-0.160977
-0.142578
-0.119582
-0.0919183
-0.0596512
-0.0230647
0.0172605
0.0603816
0.10495
0.1492
0.190979
0.227843
0.25721
0.276573
0.283733
0.27711
0.256389
0.2221
0.169835
0.0971837
-0.0899392
-0.151599
-0.192945
-0.219113
-0.236804
-0.2473
-0.251495
-0.250298
-0.244267
-0.233621
-0.218337
-0.198234
-0.173066
-0.142613
-0.106787
-0.0657229
-0.0198805
0.0298679
0.0821648
0.135126
0.186348
0.232978
0.271874
0.299846
0.313943
0.311865
0.29279
0.256954
0.199022
0.116229
-0.157105
-0.222971
-0.266624
-0.293615
-0.311295
-0.321203
-0.324435
-0.322058
-0.314712
-0.302623
-0.28571
-0.263682
-0.236141
-0.202687
-0.163028
-0.1171
-0.0651789
-0.00800318
0.0531247
0.116256
0.17876
0.237369
0.288314
0.327588
0.351284
0.356128
0.340533
0.304213
0.240599
0.146469
-0.238677
-0.308991
-0.354837
-0.382223
-0.399271
-0.407876
-0.40942
-0.405194
-0.395959
-0.381964
-0.36307
-0.338861
-0.308756
-0.272133
-0.228449
-0.177374
-0.118932
-0.0536409
0.0173365
0.0920692
0.167767
0.240765
0.306632
0.360414
0.39702
0.411884
0.402295
0.367101
0.298063
0.191331
-0.336083
-0.411317
-0.459218
-0.486339
-0.501801
-0.508017
-0.506786
-0.499717
-0.487751
-0.471183
-0.449816
-0.423086
-0.3902
-0.350267
-0.302436
-0.246047
-0.180782
-0.106846
-0.0251482
0.0625146
0.153299
0.243223
0.327194
0.399216
0.452775
0.481634
0.481486
0.449796
0.37601
0.25538
-0.451089
-0.532055
-0.581788
-0.607588
-0.619972
-0.622142
-0.616511
-0.60514
-0.589221
-0.569123
-0.54458
-0.514857
-0.478907
-0.435519
-0.383476
-0.32171
-0.249478
-0.16656
-0.0734801
0.0282508
0.135896
0.245296
0.350783
0.445282
0.520646
0.568534
0.58244
0.557707
0.480502
0.344693
-0.586076
-0.674062
-0.725185
-0.747919
-0.754887
-0.750503
-0.73808
-0.72031
-0.698714
-0.673747
-0.645055
-0.611686
-0.572283
-0.525259
-0.468965
-0.401854
-0.322665
-0.23064
-0.125773
-0.00910639
0.116943
0.248261
0.378791
0.500452
0.603328
0.676545
0.710658
0.697857
0.61957
0.467398
-0.744552
-0.841457
-0.893012
-0.909755
-0.907637
-0.892951
-0.870298
-0.843203
-0.813585
-0.781967
-0.747842
-0.709966
-0.666597
-0.6157
-0.555123
-0.482766
-0.396769
-0.295724
-0.178946
-0.0468066
0.098859
0.254294
0.413371
0.567242
0.704239
0.810596
0.873092
0.879389
0.803961
0.634508
-0.932089
-1.04046
-1.09034
-1.09614
-1.07921
-1.04872
-1.01102
-0.970675
-0.930001
-0.88949
-0.848356
-0.804934
-0.756985
-0.701932
-0.637043
-0.5596
-0.467064
-0.357283
-0.228751
-0.0809618
0.0851313
0.266525
0.457491
0.64888
0.827546
0.976671
1.07844
1.11422
1.04825
0.86129
-1.15806
-1.28077
-1.32439
-1.31083
-1.27026
-1.21603
-1.15677
-1.09816
-1.04273
-0.990728
-0.940836
-0.890765
-0.837617
-0.778154
-0.708979
-0.626689
-0.528007
-0.409961
-0.270103
-0.106849
0.0800429
0.288792
0.514707
0.749082
0.977967
1.18173
1.33736
1.41789
1.37255
1.16965
-1.43897
-1.57784
-1.60543
-1.55824
-1.48054
-1.3915
-1.30225
-1.2193
-1.14499
-1.0788
-1.0185
-0.960855
-0.902088
-0.83815
-0.764889
-0.678158
-0.573903
-0.448278
-0.297805
-0.119649
0.08794
0.324928
0.588456
0.871346
1.16008
1.43319
1.66243
1.81047
1.80512
1.5926
-1.80536
-1.95655
-1.94749
-1.84266
-1.70782
-1.56906
-1.43948
-1.32552
-1.22829
-1.14568
-1.07389
-1.00833
-0.944045
-0.876027
-0.799274
-0.708854
-0.599924
-0.467743
-0.30775
-0.115725
0.111882
0.37733
0.680534
1.01731
1.37657
1.73717
2.06702
2.31715
2.38647
2.1831
-2.31591
-2.45677
-2.36787
-2.16576
-1.94515
-1.73783
-1.55655
-1.40537
-1.28234
-1.18242
-1.09938
-1.02671
-0.958028
-0.887166
-0.80823
-0.715508
-0.603386
-0.466262
-0.298488
-0.0943755
0.151663
0.444717
0.788516
1.1837
1.62458
2.09443
2.56146
2.96683
3.1747
3.03102
-3.08357
-3.13975
-2.88389
-2.52165
-2.17676
-1.87943
-1.63612
-1.44411
-1.2953
-1.17987
-1.0881
-1.01104
-0.940576
-0.869365
-0.790632
-0.697957
-0.585053
-0.445543
-0.272773
-0.0595897
0.201779
0.519712
0.90281
1.35869
1.89105
2.49439
3.14627
3.78639
4.24803
4.28756
-4.32408
-4.09122
-3.50617
-2.89304
-2.37648
-1.96808
-1.65708
-1.42614
-1.25652
-1.13134
-1.0364
-0.959935
-0.892091
-0.824439
-0.749493
-0.660309
-0.550123
-0.411964
-0.238364
-0.0208578
0.250481
0.587584
1.00487
1.51925
2.14906
2.9102
3.80473
4.7899
5.70243
6.20495
-6.53098
-5.4164
-4.19598
-3.22049
-2.48983
-1.9614
-1.59053
-1.33387
-1.15661
-1.0331
-0.944394
-0.876187
-0.817304
-0.75864
-0.692372
-0.611364
-0.508679
-0.377151
-0.208819
0.00564101
0.277824
0.622845
1.06109
1.62055
2.33991
3.26997
4.46036
5.93103
7.66304
9.33064
-11.0277
-7.16602
-4.64462
-3.22566
-2.32071
-1.72962
-1.35329
-1.11495
-0.963041
-0.865399
-0.800922
-0.754758
-0.715856
-0.675475
-0.626218
-0.561368
-0.47438
-0.358449
-0.205918
-0.00763816
0.248129
0.577457
1.00371
1.56281
2.3131
3.34908
4.80334
6.889
10.2077
15.0254
-19.0538
-8.87643
-4.22252
-2.48936
-1.63031
-1.14299
-0.874795
-0.730304
-0.653968
-0.616326
-0.600152
-0.593896
-0.589016
-0.578659
-0.556875
-0.518127
-0.456941
-0.367546
-0.243529
-0.0772759
0.140872
0.424131
0.792165
1.2773
1.93916
2.89536
4.37712
6.96993
12.6571
23.9018
)
;

boundaryField
{
    movingWall
    {
        type            zeroGradient;
    }
    fixedWalls
    {
        type            zeroGradient;
    }
    frontAndBack
    {
        type            empty;
    }
}


// ************************************************************************* //
