/*--------------------------------*- C++ -*----------------------------------*\
  =========                 |
  \\      /  F ield         | OpenFOAM: The Open Source CFD Toolbox
   \\    /   O peration     | Website:  https://openfoam.org
    \\  /    A nd           | Version:  9
     \\/     M anipulation  |
\*---------------------------------------------------------------------------*/
FoamFile
{
    format      ascii;
    class       volScalarField;
    location    "160";
    object      p;
}
// * * * * * * * * * * * * * * * * * * * * * * * * * * * * * * * * * * * * * //

dimensions      [0 2 -2 0 0 0 0];

internalField   nonuniform List<scalar> 
112055
(
0.0195781
0.00579096
-0.00232789
-0.00330702
-0.00503461
0.00910063
0.0189986
-0.00320085
-0.000382393
0.0189798
0.00582149
0.0181532
-0.000241872
0.0181485
0.028534
0.00105956
-0.074635
0.0219751
0.00577533
-0.00046292
0.00097786
0.000429644
0.00578926
0.00115051
-0.0109978
-0.000634143
0.0408579
0.00747986
0.00906331
0.000993464
0.0100229
-0.012755
0.000883061
-0.0732387
-0.000398925
0.000797309
-0.000520327
0.063638
-0.00783488
0.000318534
0.000730148
-0.00705739
0.00193275
-0.00225962
0.0224925
0.000358531
-0.0740627
-0.00716582
0.00323409
-0.00690085
-0.00315938
-0.0186788
0.00109708
-0.00758105
-0.000879595
0.0191215
-0.00417539
-0.00636487
-0.0107248
0.000341647
0.0156801
-0.00639677
0.000389224
0.000384115
0.0125838
-0.000661585
0.0661587
-0.00248601
0.00442275
0.000710259
-0.00640091
-0.0720185
0.00125355
0.0374702
-0.033451
-0.0460444
0.00592912
0.0194372
-0.0126366
-0.00735064
-0.000122285
-0.0495501
-0.00303665
-0.000442262
0.00108643
0.0035778
-0.00447041
-0.000851549
-0.0305364
-0.000804333
0.00103191
0.0007978
-0.00478232
-0.00522555
-0.0329841
0.00589487
-0.00485793
0.0281979
0.0100169
-0.00405002
-0.000225081
0.00073695
0.00084369
0.00660991
-0.0313069
-0.0725945
0.0125681
-0.000154937
0.000640844
0.00356174
-0.0720378
-0.0365681
-0.000690254
0.00798384
0.00443606
0.0219357
0.0127008
0.000908731
-0.0282611
-0.000441048
0.00752159
0.00749058
0.0189343
0.00260732
0.000736378
0.00653216
-0.060201
0.00123167
-0.000786622
-0.0310817
0.0025392
0.040577
0.00211095
0.0526437
-0.00805653
0.000324067
0.00082429
0.0038375
-0.00179751
-0.0102095
0.00376294
-0.00413056
-0.00412277
0.00769554
-9.87232e-05
-0.000988995
0.0202819
6.32918e-05
0.000899749
-0.00385443
-0.0732311
0.00048944
0.0167923
0.00103451
-0.00178116
0.00781087
0.0107545
0.00806514
-0.0100183
-0.00232987
-0.00067687
-0.00209416
9.54711e-05
-0.000541615
0.000600222
0.00172508
0.0109122
-0.0130388
0.000653994
0.0126783
0.00942603
0.00778137
7.67813e-05
0.00753963
-0.0115392
-0.000457659
0.0031076
-0.000861329
-0.0024228
0.00203394
-0.0113322
0.00089191
0.00178164
0.0100495
-0.00965932
0.0156236
-0.00211029
0.00059464
-0.00389061
0.000920112
0.00351013
0.000884262
-0.000763075
0.00754341
-0.00168563
0.000705979
-0.00545933
-0.0359439
0.00184793
0.0107208
0.0625091
0.0139745
0.0157785
0.00174757
0.000911892
0.0216897
0.0652374
0.0115092
-0.0746129
0.000838107
0.00247969
0.000702268
0.0198844
0.000837402
-0.00488025
0.0116273
0.00952231
-0.004515
0.000108752
-0.00376471
0.000580945
-0.018133
-0.000652833
-0.00252136
-0.0297884
0.000639731
0.000734814
0.0106459
0.00510298
0.000776405
0.000792972
8.93911e-05
-0.00960248
0.00665931
-0.0279615
-0.011953
0.000718015
0.000793488
-0.0761664
0.0989653
-0.00399383
-0.00815086
0.00017038
-0.00421558
0.000421661
-0.0278206
-0.00492038
-0.00616035
0.00260657
-0.0035835
0.000591801
0.000881983
-0.0488196
0.000284953
-0.00537705
-0.00356855
0.00348375
-0.00082315
-0.0567685
0.000844288
-0.0297993
0.0215284
0.00167513
0.0160217
0.0529929
0.00099334
0.00116857
-0.000827284
0.013795
-0.00266593
0.000594805
-0.0163338
0.00193304
-0.0176106
0.000356553
-0.00629328
-0.0273565
-0.0731299
-0.0719958
-0.0471015
0.000639069
0.00628862
0.0126698
0.00937898
0.0073162
-0.00257638
0.00684727
0.000690792
0.00126267
0.0140722
0.00136537
0.000443645
0.00686443
0.00032116
0.00669106
0.00729704
0.0117572
-0.000372458
0.000621244
0.001027
0.00651265
0.0100583
0.0105058
0.00667399
-0.00479536
0.00210457
0.00182874
-0.000736501
0.000380475
0.000395264
-0.000489319
0.00469413
0.000925687
0.00110507
-0.00658013
-0.0186245
-0.00239075
-0.0120681
0.000302395
0.000625198
0.000414133
0.0537066
0.0297369
-0.000353846
-0.00487933
-0.00371461
-0.00426237
0.00198645
0.00633436
0.000825043
0.00509293
-0.00761483
0.0125403
-0.00285507
-0.0040304
0.000860542
0.000785544
0.0001238
0.00478504
-0.0425379
0.0624776
-0.0593472
-0.0104256
0.00100576
-0.00246145
-0.00627241
0.000147806
-0.00742257
0.0126043
-6.64786e-06
0.0260293
0.015334
0.0174503
-0.0337611
-0.00103768
-0.00104786
0.0370654
0.00193623
0.000913832
0.0178683
-0.0459765
0.000905048
-0.00395278
0.107658
0.00258994
-0.0760161
-0.0443641
-0.00389483
0.00642433
-0.000544669
0.0224912
0.0229349
0.0112619
0.0156136
0.140769
0.000118115
0.000108384
-0.00243076
-0.00225843
0.00210407
0.0009506
0.00891622
0.0178775
-0.00622446
-0.000848063
0.000173743
0.000164859
-0.00425073
0.0125032
0.0227299
0.00371933
0.00241021
0.00192797
-0.0122154
0.0371043
0.00116706
0.00351666
-0.00658797
-0.0119464
0.00155475
0.0208316
0.00444406
-0.0242075
0.0173495
0.00117976
-0.0346088
-0.00513974
0.000663218
0.000218257
0.00519175
-0.0028041
1.96526e-05
0.000299741
1.06799e-05
0.000883324
-0.00634342
0.0081214
-0.00650892
6.77163e-05
0.00789519
0.0301994
-0.000635354
0.00320363
0.00813754
0.00683861
-0.00442254
0.0108464
0.00216796
-0.00259841
-0.00531161
0.000308777
0.01113
-0.00133677
-0.0164156
-0.00919434
0.0256989
0.00063497
-0.00750755
0.0982945
0.0250844
-0.00432876
0.000205673
0.00815024
-0.00743892
0.00580987
2.1083e-05
0.0366035
0.0247257
-0.00766158
-0.00632708
-0.00906713
0.00746661
-0.000629788
0.0093319
-0.00361783
-0.0801936
0.00102388
0.00179969
0.00971839
0.000380017
0.000205822
-0.000816977
0.000444402
-0.00824986
-0.00783384
0.000956778
0.000614361
0.0173502
0.00685027
0.00174584
0.00894541
0.00070378
-0.00130083
-0.0055992
0.00907092
-0.00289564
0.000278532
0.000594376
-0.000166755
0.000859877
-0.0349804
-0.0794526
-0.00630951
-0.0129204
0.000582278
-0.0570989
0.0141831
-0.00257991
0.000200388
0.000296396
8.50929e-05
-0.0267471
-0.00487143
0.000963169
0.0106297
-0.000829467
0.00884633
0.00179165
0.000338652
0.00162046
0.00217372
0.00141605
-0.000816802
0.0116858
0.000912547
0.00687304
0.000390639
-0.0439653
0.000264198
0.000610221
-0.00293775
0.0215162
-0.00902705
0.00514435
0.0667632
0.000270176
0.000309976
7.72304e-05
-0.00631679
-0.0036242
0.00928094
0.00371868
0.000692818
-0.000639343
0.00513845
-0.00363875
6.85057e-05
0.0659784
-0.00017841
0.00079823
0.00751484
-0.00242017
-0.0700172
0.0525805
0.000582911
0.0148026
-0.00394898
-0.0838007
-0.000981467
0.000287694
0.000632047
0.000349816
-0.0814692
0.0259471
-0.00482824
-0.00392562
-0.00483638
0.00510166
0.00783282
0.0008504
0.025993
0.00717556
0.0106364
-0.0213882
0.00885275
0.00103336
-0.0145903
0.000402831
0.00104936
-0.00897364
-0.0382104
0.000647312
0.000288969
0.00222375
0.105497
-0.000642201
-0.00222072
-0.0732554
0.000578432
-0.0718773
0.00640714
0.00924891
0.000747751
-0.0389871
-0.00413597
0.00629831
0.00748456
-0.00538349
0.0109871
-0.0323833
5.28562e-05
3.034e-05
0.0138162
0.00679707
0.0101268
9.07922e-05
0.0082464
0.00488956
0.00767435
-0.00105667
0.0074302
0.00267214
0.000784409
0.00265651
0.00223436
0.00810395
0.00546718
0.000507139
0.00739739
-0.00166521
0.000945665
-0.00505385
-0.00914774
0.00693546
0.000306319
0.00512903
-0.000577029
0.0096329
0.0125401
0.000596735
-0.00087656
0.0125045
0.000216765
-0.00217575
0.0510283
0.00720042
0.000955894
0.00067117
-0.00499892
0.00583118
-0.0224119
0.0104721
0.00669295
0.000122576
0.00691273
-0.0430413
-0.000245531
-0.00318276
-0.000502184
-0.00375999
-0.00638531
-0.0690465
0.00239519
-0.0731494
0.00313942
0.00058843
0.00100597
0.00224124
0.000539873
0.00681462
0.000714713
0.000777202
-0.000595896
-0.00221953
0.00225323
0.0245426
0.0749279
0.00931502
-0.0392565
-0.00222381
-0.0790855
0.000122676
-0.00063603
0.0201865
-0.000578869
-8.13704e-05
0.0112938
0.0157414
-0.0023377
-0.00494681
0.0111783
0.00940223
0.00205715
0.018921
8.68349e-05
-0.000255596
-0.0228918
-0.0378898
0.000608921
0.00743574
-0.00582301
-0.0208812
-0.0068863
0.0183952
-1.31229e-05
0.00139782
0.00720488
0.0199557
0.0789219
0.000974414
0.000653148
8.74193e-05
0.000514048
-0.0265175
-0.000654412
0.0139979
-0.00259641
0.000960539
-0.0579446
-0.00940869
-0.00124328
0.00882787
0.00596338
0.0091215
0.0244216
0.0190544
0.0211179
0.014152
0.00252535
-0.00540012
-0.000900009
0.000888429
0.00827847
0.000878214
-0.000260921
0.00570805
-0.000603177
0.000870239
0.131066
-0.000936789
0.00946286
-0.00037175
0.000514674
-0.00395827
0.00241156
-0.0115508
0.0140538
0.00117923
0.00645868
0.000635097
-0.00102467
-0.000631512
0.000645825
-0.00815445
0.000257746
0.0112179
0.0137063
0.0148979
0.00267963
-0.0025067
0.000602687
0.0155668
-0.0703974
-0.000653441
0.00792287
0.000717357
0.0494951
-0.00270186
0.000568685
-0.00429039
-0.0107239
0.00172262
-0.0156295
0.00895265
-0.0744938
0.00313579
-0.00821724
0.0123868
0.00553852
0.00713699
0.00045602
0.000627681
0.000482622
-0.00604334
0.000648257
0.012088
0.00787296
0.000663696
0.0174277
0.00186895
0.000489711
-0.00331959
-0.00496051
-0.0291914
0.039256
0.0656504
0.00773786
-0.000157973
0.000350158
0.00164139
0.000629331
-0.00263198
0.000769366
0.000644148
0.000647087
0.00682604
-0.0753913
4.47489e-05
0.000143851
0.0151485
-0.0120294
0.0183387
0.00176716
0.000480586
-0.0789294
0.00260883
0.000354764
0.000723732
-0.000447026
-0.0116752
3.86628e-05
-0.000917864
0.00112929
-0.0336792
-0.00115512
0.0030826
-0.0443241
-0.000658666
0.00655616
0.000352619
-0.000662588
0.015778
-0.000400317
-0.0071736
-0.111861
0.000347802
-0.00750049
-0.015063
-0.00770072
0.00090956
-0.021368
0.000594031
-0.00342312
0.0142052
-0.00099787
-0.00684761
0.00244807
0.00965718
0.000691477
-0.00112403
-0.00094874
0.00799151
0.000725787
0.00988235
0.000331494
-0.0176196
0.016634
-0.00565373
-0.00793944
0.000648061
0.000694008
0.0149695
0.0187957
0.000254488
0.130026
0.0065913
-0.00626395
0.00728956
0.0120892
-0.00566763
0.000245421
0.139661
0.0150344
-0.000632014
0.00112131
0.000835724
-0.0470227
-0.000910476
0.00935841
0.000799651
-0.000912204
-0.00852754
0.0391297
0.000792884
-0.00699115
-0.00242539
0.0190119
0.00178255
0.00935083
0.0012621
0.0790479
0.00173547
1.27591e-05
-0.0335223
0.00677756
-0.00609667
0.00728091
0.00949379
-0.0261981
3.0287e-05
-0.00674105
0.00872654
0.0155953
-0.0772815
-0.0346242
0.00688594
0.00930525
0.00258442
-0.0179258
0.00645498
0.000551663
0.000719926
0.000563642
0.000288109
2.62738e-05
-3.45639e-05
0.00267167
0.0129789
0.000744183
0.00561541
-0.00272789
0.00712762
-0.000655366
-0.0165831
-0.045867
-0.0013937
-0.00266707
0.0859446
0.00380174
-0.080342
-0.000146117
0.00549588
-0.00595889
0.000463779
-0.00678427
-0.0449674
0.000385366
0.00622529
-0.00362487
0.00607399
0.0184873
-0.000873441
0.00427681
0.00556405
-0.0757508
0.0122148
0.000631373
-0.00122147
0.000580228
0.000623109
0.00195104
0.000561155
0.0011956
-0.00133329
-0.00663786
0.00663898
-0.000804098
0.0100812
-0.00173274
0.00174613
0.00113162
0.00301255
-5.35964e-05
0.00014245
-0.00329713
0.000292569
-0.00861186
0.00062225
0.00994019
0.000522
0.0148474
0.0113955
0.000625127
0.00405924
-0.0263672
0.00075302
0.000836806
0.00312333
-0.010011
0.0183691
-0.0702386
0.00770432
0.000583512
0.0037595
-0.00324022
0.0220898
0.000716457
-0.000656445
-0.000507373
-0.0304658
0.000798219
-0.000260502
-0.00179279
0.000121458
-0.00157295
-0.00798532
-0.0453123
0.000752701
-0.089224
0.000624851
0.00843108
-0.00274767
0.00682788
-0.00874503
-0.00539777
-0.000614616
-0.0356919
0.0343192
-0.000887796
0.018698
0.00527342
0.00075459
0.000698446
-0.0341542
0.0101271
0.00627564
0.000833698
-0.0127263
0.00416043
0.000727414
-0.00272475
0.0179867
0.000698661
-0.0032304
0.0104576
0.00756264
-0.000355637
0.0124797
-0.000168277
0.00994511
-0.000718148
-0.000824729
-0.00545447
-0.0015568
-0.00253533
0.0403815
9.6538e-05
-0.00226677
0.00467883
-7.03788e-05
-0.0626422
0.00300887
6.19546e-05
0.000473722
0.00514814
0.00498374
0.00850334
0.0100088
0.000419127
0.0075544
-0.0203581
-0.0470179
0.00243295
0.000425136
-0.00252399
-0.0163213
0.000717317
0.00558027
0.000538474
0.00115577
0.0227327
-0.00167774
-0.00248773
-0.000676816
0.000608791
0.0649725
0.00540673
0.00332319
-0.000425501
0.004446
0.00742866
0.0164779
0.000551372
-0.0426785
0.00795913
-0.00072798
-0.000158437
0.00721228
-0.00628023
-0.0524655
-0.000313078
-0.0161542
0.000776207
0.00113273
0.00709243
-0.0134984
0.000789477
-0.000717103
-0.0065164
0.000648693
0.00491893
0.023039
-0.00249905
0.0772424
-0.028981
-0.00504472
-0.00466076
-0.0403338
0.000601685
0.0164987
0.00999113
0.0117353
-0.0189644
0.000163688
-0.0808194
0.000216021
-0.00246752
-0.0745189
-0.000862605
0.0104708
0.000158916
7.18573e-06
0.000657745
0.0062632
-0.00314406
-0.000512238
-1.43019e-05
0.00127339
-0.000701689
0.001863
-0.0115887
-0.00356557
-0.000590302
-0.00512577
-0.00249278
0.000555081
-0.000847838
0.0497906
7.46539e-05
0.0102627
-0.0329633
0.00342689
0.00682364
0.000106456
0.00113038
0.0036981
-0.00768066
-3.51399e-05
0.000632846
0.000550293
-0.0143523
-0.00580865
0.00050745
0.000803884
0.000767289
0.00291195
0.0198407
0.00604445
0.000757862
0.000631937
0.0067872
-0.000259922
0.0707168
-0.000917972
-0.00046497
0.110822
0.0063051
-0.0831393
0.0116092
-0.00383566
0.00769525
-0.00108915
-0.0046127
0.0146666
0.0282661
-0.0259791
0.000663464
0.077947
0.000391377
-0.00858342
-0.0494494
-0.00332471
-0.000683386
-0.00822097
0.000515517
0.00292574
0.000287129
0.00067658
-0.00282197
0.0165653
0.0005927
0.0104685
0.00123818
-0.00188996
-0.0210592
-0.0020391
0.00335547
0.000472828
0.0158523
-0.0060245
-0.000607903
0.01653
0.0083644
0.00100621
0.000644244
0.000463944
0.00260891
-0.00111276
0.00951086
0.00785747
0.0247541
0.000618618
0.0054068
-0.000897599
-0.000534664
-0.00505386
0.000748573
0.0291457
0.00612689
-0.000292891
0.0352024
0.000796844
-0.0845786
0.0187723
0.000733358
0.00647293
-0.0043109
0.111113
0.000953826
-0.0725223
0.000589417
-0.000720862
0.000456419
0.00149375
-0.00188283
0.0015795
-0.00549789
-0.0453175
-0.0154209
-0.003488
0.000518346
-0.0322579
-0.0302936
-0.0687934
0.000729108
0.0893315
-0.073589
-0.000686974
0.0058676
-0.00724359
0.00165029
-0.00023791
-3.75413e-05
0.000879181
0.000779893
0.000768353
0.0104866
-0.031133
-0.00166281
0.0023412
-0.0526647
-0.0443158
0.0093262
0.00230245
0.000322045
-0.0010675
0.00754044
-0.000745763
0.00667185
0.0129484
-0.00944442
0.0555969
0.0031239
0.0304851
0.00733436
0.000719424
0.00802456
0.00116716
0.000485321
0.0144584
-0.00697379
-0.000572284
0.0135303
0.00107897
0.000547922
-0.0017219
-0.00173057
-0.0713595
-0.00785098
0.0106344
0.000815868
-0.00565373
0.00346013
0.0735272
-0.0512714
0.0100274
0.00074028
0.00341404
0.0411276
0.000465141
-0.000819742
0.000544488
0.00580381
-0.00236112
-0.000404367
0.00828044
-0.00898395
0.00127355
-0.000498463
0.000591585
0.000685666
0.00913721
7.59528e-05
0.0031105
0.00780439
0.00534062
-0.0112209
-0.00279852
0.0070112
0.0651148
0.0167946
0.000815645
-0.000352346
0.00392194
0.01061
6.43991e-05
-0.00477469
0.0131344
0.00103495
0.0560764
-0.0857884
0.000162959
-0.00267697
0.00889604
-0.00491537
-0.0421702
-0.00343827
0.000403415
-0.0116999
-0.0838711
0.0100231
-0.000314377
0.0916229
0.000948582
-0.000309466
0.00822415
0.00647681
0.00749969
0.0007072
-0.000682001
0.011275
0.000860617
-0.00953027
-0.0486607
-0.00351191
-5.88228e-05
-0.00354546
-3.37414e-06
0.000447329
-8.53441e-05
-0.00171761
-3.12125e-05
-0.00141335
0.0106288
0.0165967
-0.00377872
-0.00921249
-0.000319598
-0.00261787
-0.00874491
0.000745327
0.00065152
-0.00300439
-0.00359219
-0.0402225
0.00840237
-0.0363436
0.00353352
-0.00328762
0.011618
0.000393287
-0.0139275
0.00164361
0.00844772
0.000747166
-0.015028
-0.0038045
0.00117136
0.054901
0.00126964
-0.00684203
0.000608667
-0.00234726
-0.00245792
-0.00467871
0.00840658
0.00530222
0.0469425
-0.0122298
0.0108346
-0.000802635
-0.00999331
-0.0038106
-0.000626714
0.000258227
-0.00420434
-0.00427216
-6.36524e-05
0.000189735
0.0104252
-0.0142209
-0.0714844
-0.00397476
0.00150378
0.00411698
0.00875323
0.00434063
0.0232335
-0.000283733
5.65976e-05
-0.00456423
0.00681409
0.00514176
0.00879088
-0.025025
-0.0170043
-0.000680223
-0.0686965
-0.000237464
0.0114538
0.000118837
9.73179e-05
0.000239933
0.0086132
0.0244521
-0.00425264
-0.0472267
0.0595284
0.00285578
-0.0149292
-0.00432773
0.0101396
-0.0280661
-0.0296001
-0.00281482
-0.00482854
-0.00869133
0.0076704
0.00450404
-0.0694573
-0.00261645
0.0258204
0.0101815
0.000269199
0.0129674
-0.0115387
-0.000193605
0.00648392
-0.0161551
0.00412148
-0.000471194
0.000809785
-0.000861821
-0.0343307
0.000625702
-0.0721985
-0.0860783
0.00198227
0.00124849
-0.0195519
0.0127848
0.000346314
-0.000339976
-0.0367519
0.0147621
0.00130026
0.00516057
0.0825046
0.00639808
-0.0143345
-0.00693316
0.0101977
0.000464745
-0.0717916
-0.00337616
0.00401682
-0.0895093
0.108636
0.00422144
0.00891399
-0.0169776
-0.000284155
0.00996218
0.00121713
-0.000999144
-0.000615869
0.000607425
0.0155309
0.098615
0.00880359
-6.04899e-05
0.000672403
0.000261962
-0.000196531
2.33009e-05
0.0457546
-0.000110172
0.0492321
0.000704375
-5.12112e-05
-0.044838
-0.00149269
-0.00440957
0.000313083
-0.00125005
0.00069076
0.0104424
0.000685787
0.000380957
0.00113943
0.00151362
0.0451589
0.00555301
0.0143903
-0.0538697
0.000372693
0.00865041
-0.079365
0.00399603
0.00978727
0.0012465
0.0227293
0.031668
-0.0514961
-0.0046162
-0.000553948
-0.000663259
-0.00651751
0.00082154
-0.00215036
0.0115305
-0.00163434
-0.00345204
0.0363545
-0.00231354
-0.000620969
0.0137262
-0.112104
0.00591072
0.000364804
0.0091961
0.000636261
0.0083599
0.000901468
0.00082841
0.0085164
0.00045665
-0.000582216
0.0121851
0.00281438
-0.000594985
-0.000249105
-0.000772204
0.00632452
0.00762125
0.00112509
-0.00369233
-0.00134014
-0.0141323
0.00099121
-0.00238032
0.00147914
0.000635756
0.125208
-0.0013775
0.00723053
-0.00262719
-0.0532811
0.00564469
0.000813772
-0.000824325
0.00985116
0.00112437
0.014794
-0.0673615
-0.0110054
0.011039
0.0483752
4.48973e-05
0.0118369
0.00112135
0.00730788
0.000824344
-0.0155176
-0.0150154
0.000339211
-0.0120049
0.0091182
0.00751541
0.0137586
0.000835294
2.99339e-05
0.0014081
0.000810121
0.00990602
0.000660568
0.000620969
-0.0121638
0.000754468
0.000418132
0.000763981
-0.0528086
0.000905141
0.00737362
0.00924396
-0.00961484
0.00974917
0.00621477
0.00630164
-0.0107528
-0.00121284
3.40942e-05
0.00769527
0.000133406
-0.00342047
0.00084686
-0.0719445
0.00466938
0.0100758
0.0185693
-0.00541236
-0.00311401
-0.00318306
-0.000610216
0.00485343
0.0087632
0.00984724
0.00135605
0.0280783
0.00821961
0.00253888
0.000534427
0.0233335
0.000520589
0.00927468
0.000818571
0.00197338
-0.0148793
-0.0324679
-0.000493515
0.00735767
0.0279788
0.0645883
0.0117472
0.00577302
-0.00880141
-0.000731161
0.000136654
-0.0010926
-0.00598138
0.000399896
0.000474653
0.00971938
0.000641554
0.00354984
-0.0100795
0.000854716
0.000633027
-0.0695386
-0.0793583
0.00126412
0.000382902
-0.0306899
0.000912068
0.014787
-0.00177336
0.0145837
0.0074393
0.000683905
-0.00643029
0.00322577
0.000855451
0.000931363
8.14143e-05
0.00110585
-0.00427705
0.00902726
0.0131278
-0.0697401
-0.00324136
0.00112489
-0.00013218
0.000860836
0.00062822
0.000238748
0.000761754
-0.0420866
-0.026035
0.0011931
-0.0044634
-0.037353
1.32615e-05
0.00630877
-0.00124839
-0.00280924
-0.00128981
0.0118519
0.00853107
-0.00449166
0.00815848
0.000378702
-0.00074052
0.000828835
0.000768162
0.0211958
-0.0697624
-0.0720553
0.0356614
0.00437997
0.00745081
0.00146068
0.0229397
-0.0148389
0.00798249
-0.0540926
0.00814315
-0.080359
2.65781e-05
-0.011879
0.00282762
-0.00115904
-0.00593444
0.0465111
-0.0488283
0.000545236
-0.00247031
-0.000122069
-8.16148e-05
1.34605e-05
0.00954628
0.001024
0.00645911
0.00933895
0.000350426
0.0025116
-0.0265901
-0.0155696
0.00782595
0.000356398
0.000731185
-0.0783494
0.00649632
0.000566181
0.000123725
-0.000571137
-0.00025997
0.00960808
0.000306212
0.0180665
0.00894654
0.000519916
0.000621378
-0.0108777
-0.0703226
0.00658797
0.010467
0.000195719
0.00261977
0.0078639
0.00106019
-0.0070366
0.0417955
0.00103637
0.00159363
0.0112402
-0.00539269
-0.0268874
-0.072168
0.00876403
-0.0497542
0.000747298
-0.00792264
-0.00117699
-0.000294355
0.00126162
0.0112532
2.73901e-05
-0.00887283
-0.00688939
-0.000580379
-0.0726562
0.0100268
0.00714206
-0.0190565
0.00592367
0.00276037
-0.00476582
0.00741605
-0.000739822
0.000943395
0.0126258
0.00526013
0.000745378
-0.00116701
0.0105378
-0.000722931
-0.00540424
-0.0158335
0.000489138
-0.00723973
0.00646786
0.00134339
-0.0104631
-0.000221377
0.00731853
0.000527095
0.0120154
0.00155333
0.0119655
-0.000197152
-0.00367851
0.00689006
0.0109786
-0.000551211
-0.00593493
3.07425e-05
-0.000610233
0.0114525
-0.0389301
0.000540178
-0.0478124
-0.000175115
-0.00255345
-0.000834313
-0.0078223
-0.00329614
0.00413582
-0.00451532
0.00672756
-0.0202566
0.000607103
0.000546665
-0.0254004
-0.0107941
-0.000799498
-0.00165962
0.00741982
-0.00673757
-0.0116289
0.0103515
-0.000824835
0.0100238
-0.00102964
0.0266566
-0.00135485
0.00194078
-0.00154512
0.000818738
-0.003938
-0.000552196
0.00267148
0.00193723
0.00823806
0.00712884
0.0091108
0.0123266
-5.68919e-05
0.0153917
0.00596077
-0.0777909
-0.00251964
2.70247e-06
-0.0657907
0.00758687
-0.0494732
0.00557017
-0.00332939
0.00253304
0.00836218
-0.0171488
0.00014881
-0.00056743
0.00113885
0.000720657
-0.00165178
0.00559212
-0.00521447
-0.000702049
0.00345042
0.00727827
-0.00055596
0.00996011
4.3949e-05
0.00895346
-0.0824026
0.055883
0.00961042
-0.0202947
0.000935485
0.0058239
0.00341163
0.000704207
0.00134807
0.000819484
-0.0125429
0.0287399
0.000563449
-0.000849481
-0.00318378
-0.0006218
0.00267176
0.000408013
0.00117932
0.000329474
0.00936824
0.000268664
-0.00514349
0.000440151
-0.00111649
0.0119766
0.0118804
0.00108837
0.0372365
-0.00272567
0.00138759
0.00774208
0.000967036
-4.16708e-05
0.0102664
0.00066189
0.00111141
-0.00421094
-0.00368092
-0.0065439
0.00301137
0.00996976
3.79501e-05
0.0276123
0.00795884
0.000774964
0.0030805
-0.0657238
-0.00423099
0.00523575
0.000588091
0.000143533
-0.0119544
-0.00331427
-0.000766618
0.0194086
0.000733755
-0.0132579
0.000637133
0.0101107
-0.00486664
-0.0113496
0.00390972
0.000202161
0.0100234
-0.000211713
0.00393898
-0.00175787
0.00898743
0.0038409
0.000759211
7.78229e-05
-0.0313712
-0.0589537
-0.0568287
0.000487669
0.00805074
0.0389569
-0.00480451
0.000719643
0.0112753
0.000921917
-0.00422501
-0.0249263
-0.00593823
-0.000430235
-0.0497168
0.00127689
-0.000880909
0.000231787
0.0119633
-0.0579338
-0.000842375
-0.000847479
0.00347368
0.000901992
0.00117174
-0.000100468
0.000610591
-0.0112618
0.00054323
-0.0310319
-0.00757778
0.0106746
0.0126498
0.00557607
0.00370307
-0.000886665
0.0013046
0.00583499
0.000743153
0.0199191
0.0107097
0.000473044
0.000640576
-0.00105373
0.0876949
0.0188873
-0.00115337
0.0267187
0.00679682
0.000750979
0.00942168
0.000552933
0.00466395
-0.00799409
0.00320237
0.00636403
0.00044915
0.0245042
0.000415769
0.000734635
0.0152396
0.000540556
-0.00474656
0.00647316
0.0177836
0.000678157
0.0173544
-0.00658908
-0.00335118
0.00146387
0.0354645
-0.0592943
0.00776069
0.00084952
-0.000308866
-0.00134605
0.00326138
0.00693992
0.00786855
-0.0336907
0.00665995
-0.029094
-0.00113904
-0.042153
0.00388129
-0.000654061
0.00173447
0.000547474
0.0214305
-0.000146516
0.0579362
-0.00686072
0.000239972
0.00198296
0.000642019
0.00821016
0.00661553
0.0061269
-0.000253006
-0.000878859
-0.0539953
-0.00445013
-0.0227855
0.000350904
0.00111836
0.00248248
0.00577243
-0.000842254
0.0100916
-0.00205078
0.00335365
0.00798826
-0.000509608
0.0322975
0.00805482
0.0302109
-0.000256052
0.00138323
-0.0162681
0.00924731
-0.0844921
-0.0030339
0.000233007
-0.0112735
-0.00144548
0.00922711
0.00198639
0.0123979
0.00074994
0.000157972
0.000410519
0.000197945
-0.016195
0.0210752
-0.0143157
-0.00737063
-0.0302565
-0.000115157
0.000955061
0.0229774
0.0184238
0.000570943
0.000212644
0.00905927
0.00494755
0.0008054
-0.000300029
-0.0134563
-0.0779852
0.00043698
0.00983588
-5.63454e-05
-0.0021233
0.00143258
0.0299363
0.0139264
-0.000621264
-0.000956453
0.00454211
-7.65817e-05
-0.0863107
0.00100204
-0.0739212
0.00627958
0.0137839
0.000566989
-0.00422841
-0.0711066
0.0769891
0.000489511
-0.00300594
-0.00069145
0.000662818
0.00122938
0.000482295
0.00920308
0.0223839
-0.000158953
0.00858019
-0.0428802
0.00752546
-0.00368714
-0.0266928
-0.00387278
0.0317166
0.000635671
-0.0783846
0.00761494
0.000898578
0.000389253
-0.0259998
0.000717124
-0.0119566
0.00417822
-0.0290439
0.00794994
0.0141894
-0.00549877
0.00946808
0.000374607
0.00998079
-0.0514409
0.0125508
0.00710799
0.000615754
0.0164257
0.00612497
0.000750393
0.00776265
0.00554309
0.0063376
-0.0787517
-0.000489596
-0.0582595
-0.000129071
0.0291826
0.000144015
0.000791469
0.0148868
-0.0412484
-0.00604312
0.00221452
0.00109539
0.0339715
0.00617227
0.0174245
0.000514816
0.000178575
-0.0773351
0.00599122
0.0053278
0.00017572
0.00812646
0.000572968
-0.000748343
0.000755112
-0.00273528
0.00093401
0.000621433
-0.00256448
0.00981182
-0.0059098
0.00362
-0.0224482
0.00115788
-0.000388042
0.00154144
-0.00489411
-0.00343746
-0.000397132
0.00428684
-0.00475848
0.0121071
-0.00829717
0.022174
9.78823e-05
-0.00100117
0.00743671
0.00109454
-0.00230797
0.00322385
0.0218716
0.00843651
0.0799265
0.000360223
0.00460266
0.00808547
0.0165049
0.020617
0.00244576
0.000777134
0.00122926
0.00104066
-0.000489931
-0.00141772
0.0672525
0.095342
-0.00766651
-0.00567294
0.00993122
0.0152532
-0.00274021
0.000399228
-0.0924297
0.0102838
0.00141578
0.00780298
0.000327478
0.00108277
-0.00692716
-0.00700995
0.00184212
0.019508
0.000550732
-0.0735733
-0.000145243
0.00779931
-0.00249309
0.000570893
0.000870419
0.00350884
-0.00474419
0.000562589
0.000743549
0.00140797
-0.0480515
-0.0135548
0.00940707
0.00103588
0.0176073
0.00667652
-0.0427327
-0.0408218
0.0136923
-0.00357863
0.00967409
0.00770196
-6.1844e-06
0.0083656
-0.000871731
0.00950636
-0.00105147
-0.00045199
0.00221083
0.000650853
-0.000552613
-0.0778554
-0.00319987
0.000632646
-0.00149992
0.0014646
0.00430302
-0.069569
-0.0732902
0.00684962
0.0282523
-0.0764372
-0.00124274
-0.0793287
0.00359871
-0.0035219
0.0100759
0.0111409
0.00782813
-0.0134551
0.00297511
-0.0730223
-0.0838383
0.00395653
-0.00366816
0.010014
-0.0475756
-0.00352049
0.000465991
-0.0783402
-0.071998
-0.04309
0.00529641
0.00077938
0.00858154
0.000518623
-0.00054522
-0.000480155
-0.00256982
0.0100271
-0.0061292
0.00127062
0.000124442
0.00580743
0.00886844
0.0110254
-0.0646536
-0.000778299
0.000791514
-0.000141731
0.00652378
-0.00880256
0.0177797
-0.00374126
0.0080705
-0.00788639
0.00043727
0.00689844
0.000591723
0.00920402
0.00794105
-0.00124354
-0.00225899
-0.00616367
0.0282049
2.90199e-05
0.00751072
-0.000563713
-0.00434807
-0.0713378
8.04115e-05
-0.00421784
-0.0386934
-0.0545052
-0.000209077
-0.0758075
-0.0275467
0.00483974
0.00599415
0.000923042
0.00312948
0.00746042
0.0166462
-0.000983754
-0.00816802
0.00051955
0.000214414
-0.00857863
-0.00788816
0.000203673
0.0101793
0.000473692
-0.000133541
-0.000712389
0.0289679
0.00163266
0.00625538
-0.00992686
0.000200724
-0.0105754
0.000197715
0.00137589
0.00102967
-0.0075367
-0.0674144
0.00283045
0.0223997
-0.00909132
-0.0441578
-0.000740728
-0.000540069
0.000388856
-0.0532024
-0.0239833
0.00179279
0.000524742
-0.0771562
0.0105233
0.0021093
0.00860018
0.0390017
0.00411995
0.00698186
0.000288145
0.045861
0.00362785
0.00687898
0.00792767
0.000650047
0.000653261
0.00104808
-0.0127161
-0.0310049
-0.0305256
-0.011892
0.010407
-6.427e-06
0.00763183
0.000350197
0.000768965
0.000591565
0.000626738
-2.31541e-05
0.000323513
-0.00121847
-0.0756737
0.00127536
-0.0440388
0.0117308
0.00109425
0.000719392
-0.00271529
0.0033156
0.000800278
0.00268275
-0.0133809
0.00841831
0.000660517
0.000410541
0.000772437
0.00569186
-0.000366911
-0.0880806
-0.00803204
0.000113249
0.000243074
0.00675508
0.0158454
-0.00025864
0.00142214
-0.0692862
0.000585208
0.0103773
0.00739052
0.00687554
0.00309846
0.00920978
0.00659319
0.0315258
0.0100166
0.000395458
-0.00241581
0.00286203
0.004438
0.00441142
-0.0270096
-0.00757533
0.00698554
4.8972e-05
-0.00855302
0.00779101
0.00154512
-0.00325564
0.000170646
-0.00154356
-0.0240786
0.000319293
0.0443921
0.000980506
-0.00155867
-0.000812089
0.00709149
-0.0543796
0.00184281
0.0324057
0.00502466
-0.00789329
0.000844153
0.000255997
-0.000892026
0.00921831
0.000187534
-0.000720635
0.00955886
0.0272703
0.00582748
0.00826475
-0.00814142
-0.0308806
0.00916676
-0.00707367
0.000674643
-0.0225165
-0.00890964
0.00297838
0.00523311
0.00338618
0.0101064
0.00712198
0.00532742
0.00246763
0.000810897
0.0414945
0.0086601
0.000550793
0.00789255
-0.00789094
0.00615931
0.00644071
-0.00457462
0.000512359
0.000137581
0.000684037
0.00815271
0.00170096
-0.00386235
0.0121586
-0.00278745
0.000669769
-9.03755e-05
0.0116821
-0.00412043
-0.00480773
0.00018567
-0.025145
0.00126353
-0.00316125
0.00023078
0.0019079
0.00175444
0.000952471
-0.00802308
-0.00370056
0.00032187
0.00728765
-0.0102697
-0.0679889
0.000649
0.00104018
0.00602659
-0.00336501
-0.0145489
0.00731434
0.00396209
-0.000861893
0.00166889
-0.00338968
0.0165461
-0.00222625
0.00604278
0.000982925
-0.00182607
0.0155614
-0.025262
0.00802038
-0.0217923
-0.00463747
-0.00138951
0.000755134
-0.0285532
0.00171901
0.00687606
-0.0013023
0.00775672
0.00062267
0.00088794
0.000145843
-0.0576417
0.0154957
-0.028305
0.00612
0.00609567
-0.000436782
0.00218882
-0.00722392
0.000129465
0.000805847
-0.000290146
0.000152772
-0.00414033
0.00722828
0.00218899
0.00790545
0.00658962
-0.0151339
0.000829353
-0.00906389
0.00498632
-0.0178112
0.00626923
0.0113661
-0.00937111
0.0014381
3.93323e-05
0.0150335
0.000192366
-0.00470266
0.0419917
-0.0239768
-0.0362155
-0.0251063
0.000725426
0.0127681
0.00076218
0.000642511
-0.00631246
-0.00354205
0.00573504
0.00774216
0.006193
-0.0121522
0.00024243
0.000265325
0.000276168
0.000289401