/*--------------------------------*- C++ -*----------------------------------*\
  =========                 |
  \\      /  F ield         | OpenFOAM: The Open Source CFD Toolbox
   \\    /   O peration     | Website:  https://openfoam.org
    \\  /    A nd           | Version:  9
     \\/     M anipulation  |
\*---------------------------------------------------------------------------*/
FoamFile
{
    format      ascii;
    class       volVectorField;
    location    "160";
    object      U;
}
// * * * * * * * * * * * * * * * * * * * * * * * * * * * * * * * * * * * * * //

dimensions      [0 1 -1 0 0 0 0];

internalField   nonuniform List<vector> 
112055
(
(0.47996 0.015076 0)
(0.503224 -0.00414446 0)
(0.520794 -0.000576957 -8.1557e-21)
(0.521112 -0.00589795 2.51257e-21)
(0.546406 0.0454486 -6.36317e-21)
(0.499715 0.00404483 0)
(0.481121 0.0144702 -6.6118e-20)
(0.52109 -0.0054235 0)
(0.51566 -5.51444e-05 -1.57476e-21)
(0.481645 -0.00313638 3.56152e-21)
(0.503212 -0.00422746 1.72266e-20)
(0.482659 0.0183927 -4.45157e-20)
(0.515551 -0.000197573 5.39159e-22)
(0.482685 0.0180333 4.24692e-20)
(0.461422 -0.00727234 -2.60484e-20)
(0.515339 0.00168561 -1.24619e-21)
(0.46903 -0.0212565 8.61769e-20)
(0.473074 -0.0476032 -2.26634e-21)
(0.503829 -0.0060263 0)
(0.516454 0.0049605 -1.24021e-21)
(0.521614 -0.00560407 -6.92135e-21)
(0.531925 -0.0183014 0)
(0.503843 -0.00611363 -9.91468e-21)
(0.51296 -0.00892657 -2.01959e-21)
(0.497405 -0.0339885 0)
(0.54404 0.0102783 2.61023e-21)
(0.432584 0.0232668 -1.98463e-20)
(0.500462 0.00163342 0)
(0.499761 0.00399171 0)
(0.521344 -0.00586571 6.96591e-21)
(0.499992 -3.6118e-05 -4.52105e-20)
(0.545372 0.0177693 0)
(0.51622 -0.000945176 0)
(0.215822 0.1112 -4.4033e-20)
(0.515685 -4.9208e-05 1.53276e-21)
(0.516407 -0.000301783 1.55967e-21)
(0.516547 0.00488571 0)
(0.357109 0.115978 1.62023e-20)
(0.531079 -0.0101968 0)
(0.517902 0.000913458 -5.55556e-22)
(0.5152 -0.000233353 -2.87674e-21)
(0.529712 -0.010485 8.64274e-21)
(0.510437 -0.00431537 1.24309e-21)
(0.520644 -0.000543488 1.36296e-20)
(0.472052 -0.047899 0)
(0.514231 -0.00666045 0)
(0.223929 0.106643 0)
(0.426562 0.120357 0)
(0.494719 0.00856223 2.23066e-20)
(0.529424 -0.0107159 1.7574e-21)
(0.52135 -0.00495743 6.99453e-21)
(0.54173 0.103789 0)
(0.522404 -0.0121665 4.42443e-21)
(0.530628 -0.00989459 2.33696e-20)
(0.516629 0.00118489 4.85898e-21)
(0.480855 0.0149214 3.23846e-20)
(0.399388 -0.107999 -6.94812e-22)
(0.395453 0.128707 0)
(0.534733 0.0646651 0)
(0.514241 -0.00654525 -6.20037e-22)
(0.488205 -0.00883649 2.30234e-20)
(0.425358 0.12184 -1.20559e-20)
(0.517855 -0.00247815 2.7111e-21)
(0.517961 -0.00265429 -2.8656e-21)
(0.494773 -0.00135903 0)
(0.516049 -4.4261e-05 -2.705e-21)
(0.351313 0.116839 0)
(0.529874 -0.0133566 0)
(0.508154 0.0130141 9.73294e-22)
(0.515374 -0.00198305 3.08338e-21)
(0.396225 0.132323 1.54522e-20)
(-0.0635156 -0.0610966 7.08687e-22)
(0.512791 -0.00893037 0)
(0.441451 0.0049014 7.29594e-20)
(0.551498 0.0582091 -9.52906e-20)
(0.264217 -0.210432 -9.85452e-21)
(0.502457 0.00063725 -3.11774e-21)
(0.480228 0.0147995 -3.42075e-20)
(0.541642 0.0436332 -2.05028e-20)
(0.530252 -0.0100322 -3.07353e-20)
(0.485821 0.0563051 -1.31286e-21)
(0.226628 -0.195202 -1.0339e-20)
(0.521157 -0.00487995 0)
(0.54299 0.0127061 1.06764e-21)
(0.515178 0.00177359 -3.94415e-21)
(0.506652 -0.000916575 7.91716e-21)
(0.525453 -0.0300198 -1.48551e-20)
(0.516553 0.00113257 4.91066e-21)
(0.210415 -0.124175 1.19827e-19)
(0.516435 0.00122707 0)
(0.515157 -0.00140933 3.94412e-21)
(0.516395 -0.000318597 -1.61471e-21)
(0.525935 -0.0298967 0)
(0.552823 0.039226 1.51799e-20)
(0.552896 0.0552068 0)
(0.502535 0.000715508 5.02055e-21)
(0.536884 -0.00817634 -3.20052e-20)
(0.462061 -0.00723108 4.43777e-20)
(0.499992 -4.25257e-05 2.07966e-20)
(0.401072 -0.109817 0)
(0.515529 -0.000198244 4.36379e-22)
(0.515554 -0.000260644 -5.22646e-24)
(0.517398 -0.000880045 -1.88762e-21)
(0.502378 -0.00509694 -3.27916e-20)
(0.584458 0.0228069 0)
(0.376553 -0.0222932 -3.37285e-20)
(0.494803 -0.00145959 0)
(0.518713 0.0286119 0)
(0.515449 -0.000106361 9.71017e-22)
(0.506674 -0.000739127 0)
(-0.063077 -0.0604132 7.52097e-20)
(0.604705 -0.036027 -2.63346e-20)
(0.51615 0.000144359 0)
(0.502259 0.0215663 1.50994e-20)
(0.508101 0.0128976 0)
(0.475325 0.00812895 6.39662e-20)
(0.493372 0.019694 0)
(0.515944 0.00024666 0)
(0.203223 -0.124955 -1.50489e-19)
(0.515913 -0.000279534 -1.0324e-21)
(0.500595 -0.00254834 9.16064e-21)
(0.500466 0.001671 0)
(0.481762 -0.00287818 0)
(0.472273 0.00282687 -9.86657e-21)
(0.515235 -0.000250413 5.52306e-21)
(0.502478 -0.00511287 1.05698e-20)
(0.491825 0.016623 -6.00746e-20)
(0.511209 -0.0107375 -2.31065e-21)
(0.518179 0.00236199 -2.42893e-21)
(0.585741 0.0224037 0)
(0.468634 0.00373084 1.28315e-21)
(0.433129 0.0245886 -7.14982e-20)
(0.488082 -0.00267741 -1.1497e-20)
(0.405086 0.0163193 8.3353e-20)
(0.531476 -0.0100755 9.46183e-21)
(0.517941 0.000951062 0)
(0.518706 -0.000475154 -1.46229e-21)
(0.507674 0.00600437 0)
(0.520889 0.00238731 2.78816e-21)
(0.435261 0.156921 -1.55381e-20)
(0.507793 0.00601489 0)
(0.403877 0.138174 0)
(0.541755 -0.013862 -3.56681e-21)
(0.456167 -0.223406 0)
(0.516314 0.0301724 1.41836e-22)
(0.519691 0.0194527 1.3814e-21)
(0.477358 -0.0366436 7.87019e-21)
(0.530217 -0.0172692 0)
(0.51596 0.000260904 -3.7324e-21)
(0.505868 -0.053994 0)
(0.388321 -0.0233106 0)
(0.532048 -0.016907 0)
(0.486151 0.00216374 0)
(0.523343 -0.0113572 -3.43867e-22)
(0.520786 0.00226646 0)
(0.50185 -0.0119642 2.9537e-20)
(0.49853 -0.000229742 -1.57337e-20)
(0.502113 0.0212466 0)
(0.533453 0.0644191 -9.78059e-21)
(0.522189 0.0372405 7.21486e-21)
(0.516113 0.000141037 2.75477e-23)
(0.404289 -0.0344249 -7.58329e-21)
(0.516945 0.00107291 6.58076e-23)
(0.516557 0.00462764 1.48557e-21)
(0.514678 -5.85753e-06 1.92686e-21)
(0.511694 0.00516609 4.66655e-21)
(0.49768 0.00313905 -5.11956e-21)
(0.545936 0.0172645 7.75792e-22)
(0.516112 0.000809016 -2.90117e-21)
(0.49453 0.00253 0)
(0.49925 -0.008423 -5.94167e-20)
(0.501911 -0.0120758 1.66032e-20)
(0.516947 0.00109004 -1.60679e-22)
(0.456202 -0.216765 1.46009e-21)
(0.541499 -0.016314 -1.06715e-20)
(0.515937 -0.000279873 1.57954e-21)
(0.494691 0.00720893 -9.27453e-21)
(0.517916 -0.000952185 3.65327e-21)
(0.522518 0.0151642 1.24015e-20)
(0.511993 0.0408161 7.25343e-21)
(0.54089 -0.0154165 5.26528e-20)
(0.5214 0.00209242 2.57593e-21)
(0.509685 -0.00510476 -1.29854e-20)
(0.499938 -8.85724e-05 -6.63384e-20)
(0.534285 -0.0113727 -3.78583e-20)
(0.485703 -0.0501973 2.55676e-20)
(0.404183 -0.0296362 8.4182e-21)
(0.514681 -5.63223e-06 -2.46724e-21)
(0.540572 -0.0150337 1.70767e-21)
(0.514804 0.0115487 -4.18338e-21)
(0.508291 -0.00824039 0)
(0.516266 -0.000963607 6.2087e-21)
(0.516327 0.00126443 -1.75136e-21)
(0.500598 -0.00262645 1.66393e-20)
(0.519386 6.22164e-05 -3.68525e-21)
(0.515739 -0.00133949 -3.67197e-22)
(0.53518 -0.000834631 0)
(0.605199 -0.0324494 -3.50555e-20)
(0.505345 -0.00710536 2.44298e-21)
(0.498591 -0.000218223 4.83763e-20)
(0.379891 -0.0056215 -2.68949e-20)
(0.491945 0.00244294 3.70022e-20)
(0.487994 -0.00854442 4.74957e-20)
(0.486742 0.0223467 0)
(0.478961 0.0528652 2.95699e-22)
(0.475797 0.00793708 -5.40991e-20)
(0.364359 -0.0786436 0)
(0.495746 0.0170645 2.93078e-20)
(0.489077 -0.0203015 -8.93228e-20)
(0.517619 -0.000854524 0)
(0.509937 -0.00699455 3.49038e-21)
(0.514809 -6.08095e-05 0)
(0.478117 -0.0368996 -3.18077e-20)
(0.517497 -0.000826471 2.9373e-23)
(0.537282 -0.0077356 1.80256e-20)
(0.495514 0.0171883 1.73627e-21)
(0.499101 -0.00846789 3.67918e-20)
(0.525152 -0.0189653 0)
(0.515058 0.000108726 -2.15969e-22)
(0.522143 -0.00637465 0)
(0.518274 0.00358283 -6.87491e-22)
(0.555387 0.0262777 0)
(0.516038 -4.88635e-05 2.42589e-21)
(0.522602 0.036884 -8.71377e-21)
(0.562458 0.0193482 1.29867e-19)
(0.516116 0.000796822 2.041e-21)
(0.515553 -0.000263878 6.22989e-22)
(0.497311 0.0193964 -2.36334e-20)
(0.506016 -0.0105976 -7.47458e-21)
(0.516307 -0.000179371 4.56324e-23)
(0.516333 -0.000274186 1.81959e-21)
(0.515083 0.000111803 1.57615e-22)
(0.534202 -0.0117122 -2.60066e-20)
(0.501098 0.000861992 -1.45975e-20)
(0.564921 -0.0948311 0)
(0.403469 0.0427776 -3.64067e-20)
(0.515637 -0.000976391 2.46996e-21)
(0.516332 -0.00028836 0)
(-0.0115271 -0.0189332 1.03069e-20)
(0.258058 0.0470868 5.17334e-20)
(0.497671 0.0195963 1.52542e-20)
(0.534783 0.0244721 -2.54618e-20)
(0.516985 -0.0022728 5.92486e-22)
(0.493603 0.0236479 9.11993e-22)
(0.515126 -0.000126868 -2.05061e-21)
(0.565017 -0.0932229 2.39535e-20)
(0.539442 0.000604578 -1.2429e-20)
(0.528969 -0.00389931 2.30392e-20)
(0.470894 -0.0165087 -1.07566e-20)
(0.521829 -0.00606037 4.69219e-21)
(0.515914 0.0140148 0)
(0.521349 0.00183282 -4.10931e-21)
(0.283191 0.148867 0)
(0.516474 0.00118105 -1.29625e-21)
(0.535264 -0.000529903 1.26185e-21)
(0.501127 -0.0574917 1.19556e-22)
(0.5083 -0.00814455 9.51382e-21)
(0.518246 0.00236335 4.36302e-21)
(0.272891 0.00774155 1.40284e-19)
(0.517291 -0.000849524 4.31827e-21)
(0.561718 0.0206779 -1.42015e-19)
(0.47067 0.0650503 -4.60841e-21)
(0.511777 0.00513229 -1.04076e-20)
(0.485173 -0.0495264 -4.81479e-20)
(0.403199 0.0261273 0)
(0.514677 0.0116416 3.63588e-21)
(0.479701 0.0500987 1.2443e-22)
(0.517862 -0.000965841 -1.92775e-21)
(0.490965 -0.0287053 -1.63945e-20)
(0.530807 -0.0101889 -5.42548e-21)
(0.515874 0.0137225 -1.69706e-21)
(0.584904 0.0429074 0)
(0.505087 -0.00634516 -2.41535e-21)
(0.540005 0.103087 -2.21116e-21)
(0.51669 -0.00278843 9.1235e-24)
(0.354474 0.153229 2.05484e-20)
(0.527864 0.0678953 3.14889e-20)
(-0.00518539 -0.0139764 0)
(-0.00485592 -0.0141163 -1.10058e-20)
(0.269313 0.152928 4.07173e-20)
(0.515467 -0.000117237 2.91384e-22)
(0.50421 0.00943432 -1.09984e-20)
(0.492662 -0.0386718 3.85178e-20)
(0.499436 0.00490163 0)
(0.500281 0.000899343 0)
(0.522732 0.0151225 -1.43875e-20)
(0.500182 -0.00030384 1.36489e-20)
(0.515195 0.000190978 4.13179e-21)
(0.511654 -0.00990532 -2.9078e-22)
(0.490341 -0.0287198 -3.88212e-20)
(0.501092 0.0210707 -1.56707e-21)
(0.517689 -0.00034415 0)
(0.500761 -0.00158785 0)
(0.514949 0.000168933 0)
(0.50104 0.000829263 0)
(0.500311 0.000915222 0)
(0.496239 0.00298092 0)
(0.516177 0.000605115 0)
(0.514945 2.22384e-05 0)
(0.515224 -0.00167071 5.35301e-21)
(0.503767 0.00908635 -2.66546e-20)
(0.499928 -7.7868e-05 2.95988e-20)
(0.49758 0.0192869 0)
(0.500417 -9.6236e-05 0)
(0.526181 -0.00435727 -1.5522e-20)
(0.486073 -0.0025353 1.34296e-20)
(0.509266 -0.00486064 1.31099e-20)
(0.51821 0.010576 -4.54389e-21)
(0.516656 -0.00289691 7.84243e-23)
(0.524116 0.00131188 8.78963e-22)
(0.516441 0.00471008 -2.26413e-22)
(0.506532 0.00775197 2.07749e-22)
(0.519366 0.00224567 1.99616e-21)
(0.429252 -0.0583838 0)
(0.532414 -0.00076552 0)
(0.556366 0.0263519 8.76369e-23)
(0.504401 -0.0231691 0)
(0.405519 0.0564809 -2.40732e-20)
(0.515137 -0.000206597 -1.90865e-23)
(0.514935 1.43771e-05 1.38301e-21)
(0.515086 -0.00012512 1.90209e-21)
(0.402624 0.0153605 9.14082e-22)
(0.457993 -0.0267065 -2.46275e-22)
(0.516122 0.000593266 -3.3071e-22)
(0.539438 0.00147291 1.62737e-20)
(0.523279 -0.0081294 -1.12104e-20)
(0.408809 0.137924 5.95936e-21)
(0.510344 -0.00437357 -1.48053e-21)
(0.504093 0.00932196 0)
(0.518642 -0.000570457 0)
(0.505988 -0.0104882 8.23817e-21)
(0.448862 0.070203 -3.49857e-20)
(0.493637 0.019836 1.50105e-20)
(0.521799 -0.00285594 6.78606e-23)
(0.529456 0.00324668 1.78422e-20)
(0.525506 -0.00964564 -4.20641e-21)
(0.516332 -0.000204389 2.00585e-21)
(0.499211 -0.0566401 7.5301e-22)
(0.50637 0.00769695 2.06771e-22)
(0.467232 -0.137083 1.97379e-19)
(0.379593 -0.00803406 -8.77976e-21)
(0.512206 0.020469 3.07403e-20)
(0.501697 -0.0415023 -1.48036e-20)
(0.511782 -0.00477953 1.31373e-22)
(0.40027 0.0414021 -8.08967e-21)
(0.529209 -0.00381 -2.33445e-20)
(0.528738 -0.0174933 0)
(0.530531 -0.00701126 0)
(0.49467 0.00252305 1.22083e-20)
(0.487999 0.0533404 0)
(0.465953 -0.0275422 -5.15823e-20)
(0.488394 -0.0175623 -9.96201e-21)
(0.484787 -0.000226052 5.08319e-22)
(0.285895 0.0485377 -5.51397e-20)
(0.518683 -0.001132 7.2671e-21)
(0.518653 -0.00111222 -6.86089e-21)
(0.442183 -0.0168476 0)
(0.507528 0.044631 0)
(0.51638 -0.0011707 0)
(0.483882 -0.0043952 -1.46167e-22)
(0.58301 0.127656 -9.77378e-22)
(0.516415 -0.0011543 -4.16993e-21)
(0.529434 0.00353674 -8.67133e-21)
(0.225581 -0.0740447 0)
(0.471962 -0.0196982 -3.58107e-21)
(-0.012989 -0.0219692 2.06752e-20)
(0.469344 -0.131075 -5.13733e-20)
(0.52543 0.0112151 -9.10662e-21)
(0.503909 0.00913336 8.1022e-21)
(0.522635 -0.00144057 4.18697e-22)
(0.472478 -0.0404158 -7.67928e-20)
(0.471659 -0.0399692 6.85828e-20)
(0.496093 -0.0168651 0)
(0.485452 -0.0569621 0)
(0.00907768 -0.0138018 -2.13527e-20)
(0.51702 0.000188552 2.32298e-22)
(0.517027 0.000180691 -2.09722e-22)
(0.520511 -0.00807346 0)
(0.521505 0.00947972 1.75678e-21)
(0.502018 0.00518831 2.86876e-21)
(0.519187 0.00236204 1.73703e-21)
(0.49995 -0.00154148 5.05987e-21)
(0.483848 -0.00469842 1.8078e-22)
(0.475786 -0.0538639 3.6594e-20)
(0.518484 0.0105793 5.01644e-21)
(0.517311 -0.000620062 3.46854e-22)
(0.517352 -0.000628768 0)
(0.524657 -0.018954 -2.18209e-21)
(0.493052 -0.037966 -1.57574e-20)
(0.473449 -0.0161749 0)
(0.505386 0.0759362 1.56646e-21)
(0.50921 -0.00286298 -1.63186e-21)
(0.426802 0.0458855 0)
(0.529114 0.00953867 -3.67187e-20)
(0.442255 0.00417573 -5.44323e-20)
(0.501851 0.022077 2.89211e-21)
(0.507575 -0.00543849 2.851e-21)
(0.528835 -0.0140404 -1.99816e-20)
(0.365667 -0.304906 -2.53777e-21)
(0.424627 0.05021 0)
(0.471775 0.0656617 -6.02929e-22)
(0.504125 0.0747399 0)
(0.146776 -0.126133 0)
(0.484266 0.0181967 0)
(0.523206 -0.0174468 2.17113e-21)
(0.560474 0.144895 -3.70818e-20)
(0.528538 0.0182589 -8.86237e-21)
(0.515538 -0.00204808 -2.36656e-21)
(0.527951 0.00941209 -7.87329e-22)
(0.504959 0.00525292 0)
(0.521697 -0.00283476 0)
(0.520675 -0.00135918 0)
(0.517672 -0.00434394 -6.28281e-22)
(0.520748 -0.00156153 8.58591e-24)
(0.524953 -0.00907463 -2.34994e-21)
(0.530424 0.00191612 0)
(0.500085 0.00108157 1.92845e-20)
(0.532282 -0.000695213 -6.42036e-21)
(0.515075 4.8708e-05 4.55004e-22)
(0.501094 -0.00626417 0)
(0.457015 -0.0261849 1.41678e-20)
(0.516402 0.000426796 0)
(0.509908 0.0102211 -1.74687e-20)
(0.500284 -0.00275909 4.05233e-20)
(0.500207 -0.000330126 -5.90903e-20)
(0.533958 0.00425505 4.24457e-21)
(0.496792 -0.021242 2.01569e-20)
(0.420228 0.0143454 -4.38401e-21)
(0.506034 -0.0227385 0)
(0.52883 0.0181414 -3.19994e-21)
(0.517859 -0.00458768 5.87658e-22)
(0.496325 -0.0167583 0)
(0.517915 0.00132328 1.10569e-20)
(0.537186 -0.129782 0)
(0.534899 0.0444542 1.31993e-20)
(0.466554 -0.0280433 0)
(0.518051 -0.00126402 0)
(0.530647 -0.00690515 -1.96409e-21)
(0.262433 0.051924 -5.18911e-20)
(0.467182 -0.0408555 -2.45874e-20)
(0.533712 0.00451865 0)
(0.4981 -0.053325 -2.24089e-22)
(0.500073 0.00110888 4.04604e-23)
(0.253032 -0.153547 -7.87816e-21)
(0.5027 0.000757105 0)
(0.516683 7.63598e-05 9.03858e-23)
(0.443289 -0.0176118 -1.67555e-20)
(0.468089 -0.0401581 -1.06469e-20)
(0.445691 0.0653228 3.08401e-20)
(0.528372 -0.0140309 3.24999e-20)
(0.43418 0.154445 6.60549e-21)
(0.500548 -0.00225828 -2.89258e-20)
(0.516423 0.000447273 7.82394e-22)
(0.499486 0.00499454 -1.26811e-20)
(0.523107 -0.00790009 1.12264e-20)
(0.120323 -0.0409179 -1.26014e-19)
(0.510807 0.0127647 7.12034e-21)
(0.488315 0.0206527 -7.89144e-21)
(0.498762 -0.0270653 0)
(0.52464 0.00152675 0)
(0.529059 0.00909309 -3.57246e-22)
(0.519391 0.0194761 0)
(0.517705 -0.00033587 0)
(0.374264 -0.146724 4.59586e-20)
(0.534186 0.0244795 2.08824e-20)
(0.512009 0.0107838 -3.66972e-21)
(0.517341 5.47865e-05 0)
(0.484198 0.0186 -3.80681e-22)
(0.500765 -0.00154635 0)
(0.504275 -0.0128179 -1.13359e-20)
(0.499932 -0.00157754 2.0386e-20)
(0.514814 -5.81625e-05 -1.29595e-21)
(0.517839 0.00136567 -7.74524e-21)
(0.556848 -0.00623734 -8.75446e-21)
(0.500213 0.0200285 1.06696e-20)
(0.520743 -0.00478049 5.25036e-21)
(0.515683 -0.000580313 0)
(0.518123 0.0035053 0)
(0.515534 0.00032025 0)
(0.431638 -0.0615153 5.98764e-22)
(0.307769 0.0447442 1.13227e-19)
(0.0114447 -0.013258 2.16915e-20)
(0.471211 -0.0529239 -2.40431e-20)
(0.542289 0.0426328 0)
(0.515096 -7.96182e-06 -3.67964e-21)
(0.283601 -0.00530217 0)
(0.491483 0.00322839 -8.86322e-21)
(0.401254 0.0472431 9.27617e-21)
(0.516881 -0.00221854 0)
(0.515669 -0.000554828 0)
(0.517275 0.000160601 0)
(0.53498 0.0582063 -1.03817e-20)
(0.526237 -0.0044165 1.5983e-20)
(0.511742 0.00990202 6.32452e-21)
(0.497179 -0.0212551 6.20287e-21)
(0.516248 -0.000259913 3.81614e-21)
(0.49998 0.00141537 -3.71032e-20)
(0.508055 0.00189871 7.09972e-21)
(0.514935 0.000169459 0)
(0.474398 -0.0395133 5.46573e-22)
(0.5108 -0.00815959 0)
(0.474997 -0.0417979 9.03327e-22)
(0.516208 -0.000280113 -2.94291e-21)
(0.496382 0.00300304 5.22591e-21)
(0.514379 0.00936184 -1.62083e-21)
(0.500992 -0.00212746 0)
(0.515083 -0.000136349 1.30556e-21)
(0.58899 0.0391372 0)
(0.517717 0.000635417 0)
(0.517289 9.42399e-05 0)
(0.520968 -0.0046413 -7.14927e-21)
(0.466961 -0.0999263 -2.05813e-20)
(0.574804 0.0164783 -1.71434e-20)
(0.505055 0.00528731 0)
(0.279387 0.235569 0)
(0.526521 0.00170311 0)
(0.526484 0.00137888 -3.68168e-23)
(0.517306 0.000152131 0)
(0.258534 -0.146832 0)
(0.510831 -0.0216867 -3.60857e-21)
(0.499653 -0.00295677 -2.76013e-20)
(0.481 0.0065555 -1.06618e-20)
(0.515199 0.000196284 2.90456e-21)
(0.515813 0.000265428 1.87984e-22)
(0.507702 0.0224673 5.38871e-21)
(0.51073 0.119955 1.85508e-21)
(0.527079 0.00502615 0)
(0.365941 -0.0741043 0)
(0.515554 0.000318045 2.52036e-23)
(0.515734 0.000386195 6.75642e-21)
(0.500515 -0.00226058 0)
(0.520495 -0.00783083 0)
(0.467098 -0.0326745 -3.61196e-20)
(0.404372 0.0284047 0)
(0.516033 -0.000366564 1.23646e-21)
(0.489239 0.02077 -5.06414e-21)
(0.522145 -0.00711671 -1.21657e-20)
(0.421234 0.205895 -2.35269e-20)
(0.517487 0.000578997 -2.6974e-21)
(0.527701 0.0070763 0)
(0.518161 -0.00129753 0)
(0.527244 0.00729329 0)
(0.446757 0.215197 -5.07504e-20)
(0.46581 -0.0353111 0)
(0.547391 -0.00743763 1.6528e-20)
(0.522312 -0.00674365 0)
(0.545708 -0.0078182 -1.876e-20)
(0.507785 0.0298126 2.09351e-20)
(0.501173 -0.00629769 0)
(0.517672 0.00100595 5.4056e-21)
(0.465483 -0.0363757 0)
(0.500152 -0.000666115 3.58461e-20)
(0.498637 -0.00112622 0)
(0.558715 0.0395691 -3.94504e-22)
(0.499978 0.00136955 1.66424e-20)
(0.511665 -0.00439224 0)
(0.550498 0.00741927 4.25836e-20)
(0.515077 -0.000132271 -1.43591e-21)
(0.510489 0.01138 -2.83823e-21)
(0.534561 0.043752 0)
(0.0788662 0.11538 4.48008e-21)
(0.514901 6.15988e-05 1.43299e-21)
(0.425711 -0.0664558 8.35643e-22)
(0.510664 -0.00798932 -1.6027e-22)
(0.23431 -0.0724982 -3.30108e-20)
(0.515813 0.000279845 6.09869e-22)
(0.520023 -0.00709424 3.24013e-21)
(-0.00714629 -0.0170125 1.13883e-20)
(0.515055 -7.92778e-06 0)
(-0.00528338 -0.0177 2.80369e-21)
(0.421193 -0.0234219 2.92443e-20)
(0.499876 0.0201033 1.08006e-20)
(0.515616 -0.000250591 7.01774e-23)
(0.519539 0.0931171 6.50946e-20)
(0.506576 -0.00357365 0)
(0.501898 0.00138717 0)
(0.501192 -0.00454389 -5.16775e-21)
(0.554656 -0.00678755 0)
(0.497565 0.00306989 0)
(0.5566 0.144602 3.60765e-20)
(0.515091 4.42964e-05 -3.6634e-22)
(0.51667 7.6183e-05 -4.93685e-24)
(0.492266 -0.00223815 -1.81895e-20)
(0.500852 0.000826312 2.19481e-24)
(0.49958 -0.000746642 4.72379e-20)
(0.527031 0.00563479 0)
(0.501425 -0.0349238 1.04616e-20)
(0.508197 0.0296722 -1.34195e-20)
(0.5014 -0.00656754 1.03264e-20)
(0.508952 0.0364066 2.62509e-21)
(0.501265 -0.00456191 0)
(0.510588 0.00859597 9.692e-21)
(0.515806 0.000658536 -4.70208e-21)
(0.510666 0.00868075 -2.43257e-20)
(0.501711 0.00433367 -1.61211e-21)
(0.500329 -0.00278802 -4.63175e-20)
(0.504134 0.00406865 -4.29843e-22)
(0.513561 0.0019376 -1.19795e-21)
(0.500789 0.00238996 -3.36539e-20)
(0.519357 0.000100326 3.61003e-21)
(0.515806 0.00682267 -1.91054e-21)
(0.550901 -0.00598386 -1.20147e-20)
(0.373599 -0.143161 -3.27244e-20)
(0.502129 -0.00572427 -1.32292e-20)
(0.516502 0.00109277 1.2748e-21)
(0.507695 0.0221885 -4.84632e-22)
(0.51739 -0.00107814 3.66266e-22)
(0.499709 -0.00148182 5.83689e-20)
(0.492685 0.03694 -4.17179e-20)
(0.520739 -0.00219848 3.54079e-21)
(0.516345 -0.00118065 -2.3339e-21)
(0.49436 0.00786277 1.64132e-20)
(0.519651 0.0293805 -1.49449e-21)
(0.52054 -0.000740474 6.57527e-21)
(0.393682 0.104641 5.22684e-20)
(0.500116 -0.000638849 -1.44539e-20)
(0.513656 0.00891629 -1.83321e-21)
(0.515164 0.000180998 2.81873e-21)
(0.54956 -0.00475211 2.16193e-22)
(0.502661 0.000732277 -4.75213e-21)
(0.571402 0.00511596 0)
(0.499058 0.000326097 0)
(0.500382 -0.000100797 0)
(0.519357 0.0315559 0)
(0.500942 -0.0021201 0)
(0.58871 0.0391202 -3.28896e-20)
(0.515039 -0.0035005 0)
(0.517516 -0.0101306 1.1606e-23)
(0.5229 -0.00140979 0)
(0.525114 0.0111425 7.64131e-21)
(0.363258 -0.30672 1.47816e-21)
(-0.00416828 -0.0129182 0)
(0.503605 0.00382616 -2.4128e-22)
(-0.059513 -0.0356157 -7.73764e-20)
(0.409568 -0.08047 -4.41507e-21)
(0.516015 -0.000368781 -2.29989e-21)
(0.520319 -0.0050224 0)
(0.406047 -0.0881636 0)
(0.490506 0.0463881 -1.26899e-22)
(0.500836 0.000857937 -4.32675e-20)
(0.516009 0.000620888 0)
(0.488674 0.0435108 -1.64547e-21)
(0.515776 3.57492e-06 6.76007e-22)
(0.52002 -0.00717233 0)
(0.507761 0.0795866 0)
(0.469798 0.00478438 -5.99389e-20)
(0.345156 -0.0423771 0)
(0.499437 -0.0104892 6.08625e-23)
(0.0670783 0.120612 0)
(0.520612 -0.000718514 7.13481e-21)
(0.0130979 -0.0147828 -1.2409e-22)
(0.525682 0.00577209 0)
(0.520773 -0.023637 -1.49525e-21)
(0.479143 -0.000437242 0)
(0.520559 -0.0226756 0)
(0.425207 -0.0703489 0)
(0.496357 -0.00852654 1.94551e-20)
(0.488186 0.00634329 -6.95062e-20)
(0.521655 0.00969732 0)
(0.541204 -0.00265561 4.80583e-21)
(0.497603 -0.00111927 -4.62204e-21)
(0.499299 -0.0105044 -2.01312e-20)
(0.418018 0.0110713 0)
(0.480064 0.0325784 -3.00722e-20)
(0.51924 -0.00200109 3.36811e-22)
(0.515488 0.000158877 -9.97949e-22)
(0.57226 0.00597292 0)
(0.52624 0.0889561 3.3725e-20)
(0.520648 -0.00231512 5.40775e-23)
(0.50074 0.00239272 3.36488e-20)
(0.524293 -0.0147895 -2.34989e-20)
(0.557932 0.0386705 -6.3836e-20)
(0.565326 0.00864042 5.51159e-21)
(0.482738 -0.00307607 -2.80695e-20)
(0.519809 -0.004418 -1.63284e-22)
(0.507848 -0.0221138 -8.88168e-21)
(0.502242 0.00696076 0)
(0.479576 -0.000329194 2.6487e-20)
(0.329029 0.043819 7.79111e-20)
(0.520529 -0.00493109 -1.12636e-21)
(0.520886 -0.00369397 0)
(0.524989 0.00518462 -5.6744e-24)
(0.514819 9.10682e-05 0)
(0.527108 0.0652739 -2.51918e-20)
(0.515935 0.000715393 0)
(0.491914 0.00218804 0)
(0.521275 0.000395689 0)
(0.516067 0.00643269 -1.74525e-21)
(0.606878 0.0290196 1.47713e-20)
(0.577378 0.016983 0)
(0.403053 0.0563443 2.16475e-21)
(0.499942 -0.00255431 1.46551e-20)
(0.50201 -0.00116168 0)
(0.500085 0.0168951 -3.3956e-20)
(0.470097 0.00422402 5.39439e-20)
(0.479896 0.0330276 0)
(0.468025 -0.098316 2.12933e-20)
(0.490767 0.0157765 3.75891e-20)
(0.481783 -0.0187743 1.32841e-20)
(0.357426 0.14775 -3.71649e-20)
(0.516435 -0.00121362 -9.52516e-22)
(0.517294 -0.0117793 0)
(0.501365 -0.0342938 0)
(0.517838 -0.0109309 0)
(0.515484 0.000152703 9.62752e-22)
(0.506304 0.0359622 3.84418e-21)
(0.515778 5.24304e-08 0)
(0.517734 0.00111233 0)
(0.0821652 0.0248307 -9.36311e-21)
(0.403551 0.0546505 -4.14706e-21)
(0.499274 -0.0270827 -2.32967e-20)
(0.516661 -0.0129599 0)
(0.514831 9.43747e-05 0)
(0.525752 0.0143579 8.54759e-21)
(0.509234 -0.00308836 1.68688e-21)
(0.408531 0.0900997 2.41844e-20)
(0.490957 0.0155121 0)
(0.523674 -0.0188248 2.3073e-21)
(0.501363 0.000318597 1.50762e-20)
(0.515078 6.43928e-05 0)
(0.517655 -0.0101326 3.4668e-21)
(0.515525 -0.000121481 -1.45503e-21)
(0.514906 6.23754e-05 1.27926e-21)
(0.532653 -0.00179024 3.45006e-20)
(0.517733 0.000618083 2.44632e-22)
(0.497532 -0.00105375 3.01368e-20)
(0.492454 -0.00222323 -4.47153e-20)
(0.464992 0.146547 3.82099e-21)
(0.509616 0.00465773 -1.28676e-21)
(0.31457 0.140964 -6.82571e-21)
(0.51719 -0.000255753 0)
(0.487905 -0.0186816 -4.56565e-20)
(0.49188 -0.0346086 -3.56035e-20)
(0.51653 -0.000395534 1.37872e-21)
(0.500534 -0.00337602 -4.90054e-21)
(0.515987 0.00062074 0)
(0.397225 0.106836 -4.01133e-20)
(0.52162 -0.000996637 0)
(0.515908 -0.00265234 0)
(0.398613 0.12713 -1.76765e-20)
(0.536606 -0.0198322 0)
(0.508426 0.00240961 -6.19681e-21)
(0.210223 -0.198549 -6.65093e-20)
(0.50038 0.0170162 3.05742e-20)
(0.532702 -0.0664431 8.39907e-20)
(0.510034 0.0101181 2.06476e-20)
(0.534772 -0.000693073 3.67164e-20)
(0.494578 0.00776724 -2.94925e-21)
(0.50273 -0.00053707 1.42891e-20)
(0.502354 0.0069933 2.10045e-20)
(0.51761 0.00123456 -8.86605e-22)
(0.515074 2.66182e-05 0)
(0.517945 -6.94835e-05 0)
(0.524801 -0.0153056 2.28638e-20)
(0.516524 -0.0103474 -3.1762e-21)
(0.495594 -0.00300266 -2.50998e-20)
(0.500572 -0.00339834 1.65044e-20)
(0.52079 -0.00343206 -1.24617e-21)
(0.484853 -0.000456452 -3.76649e-22)
(0.506008 0.0130587 -3.65882e-21)
(0.518005 -1.52992e-05 6.84587e-22)
(0.510928 0.117526 -4.01906e-21)
(0.541415 -0.00188362 -8.79069e-21)
(0.568377 -0.00769461 -8.57151e-20)
(0.435488 0.0347426 3.97606e-20)
(0.288577 0.231132 0)
(0.501312 -0.00651463 -1.1952e-20)
(0.51715 -0.00161745 0)
(0.51626 0.000224812 1.05395e-21)
(0.428172 -0.051449 2.73189e-21)
(0.515066 2.69969e-05 0)
(0.521478 -0.00100358 3.72272e-21)
(0.538015 -0.0195774 0)
(0.516753 0.00045346 2.47643e-21)
(0.516745 0.00047174 1.32489e-21)
(0.503059 -0.00943643 1.15657e-20)
(0.206029 -0.0304533 9.19646e-20)
(0.515192 -0.000166495 3.1088e-22)
(0.516624 0.000132918 6.47654e-22)
(0.488743 -0.0177224 5.45711e-20)
(0.539546 -0.0358519 -3.45346e-21)
(0.482901 -0.00324623 -6.29244e-22)
(0.427547 -0.0491149 7.29395e-22)
(0.51363 0.00201982 1.00543e-21)
(0.56817 0.18599 2.21753e-20)
(0.462257 0.0122995 -1.0476e-20)
(0.517711 0.00093348 0)
(0.516275 0.000746314 0)
(0.515697 0.00208576 -9.98756e-22)
(0.538929 -0.0352805 3.59789e-21)
(0.515188 -0.000155982 -1.96565e-22)
(0.518293 -0.00109503 0)
(0.515031 -0.000916932 -5.3805e-21)
(0.601675 -0.00229913 0)
(0.518391 -0.000766367 3.0921e-21)
(0.475266 -0.0232955 0)
(0.580719 0.129047 2.39163e-20)
(0.515943 0.000695608 2.14382e-21)
(0.504099 0.0113936 0)
(0.51779 0.000960338 1.46812e-21)
(0.515627 -0.000162335 -2.93103e-21)
(0.48741 0.0184165 0)
(0.515627 0.00210197 -1.67184e-21)
(0.565713 0.0110069 -5.89688e-21)
(0.225651 -0.0668972 -3.78299e-21)
(0.516237 0.000206627 8.46921e-22)
(0.559783 -0.0369339 0)
(0.586181 0.0405692 0)
(0.529591 0.00389346 -2.04983e-20)
(0.516611 0.000933496 5.93598e-21)
(0.561334 0.0289375 0)
(0.51728 -0.000239369 0)
(0.517875 -0.0104719 0)
(0.491454 0.00289478 -3.14759e-20)
(0.51751 0.000555998 2.45545e-21)
(0.532701 -0.00172209 0)
(0.503543 0.00482553 6.46484e-21)
(0.499677 -0.00152337 -3.91742e-20)
(0.516206 -0.000666298 -3.29477e-21)
(0.518364 -0.000776544 0)
(0.518167 -0.0162428 -1.52752e-21)
(0.500688 -0.00439784 0)
(0.503202 0.0414708 0)
(0.499321 0.00196839 -1.44594e-20)
(0.515044 0.000227872 -1.00719e-21)
(0.184831 -0.166346 5.82818e-21)
(0.486447 0.00232536 2.16923e-20)
(0.527104 -0.0145453 1.11249e-20)
(0.532439 -0.0017171 -3.68167e-20)
(0.516876 0.000647247 6.35981e-22)
(0.516246 -0.000692383 0)
(0.48665 -0.0567321 0)
(0.481269 0.0190014 0)
(0.515197 -0.000240681 0)
(0.0919657 0.0348355 1.99401e-20)
(0.502692 -0.0061265 -5.52718e-21)
(0.439552 -0.0415736 1.27247e-20)
(0.500021 0.000181189 2.87597e-20)
(0.495614 -0.00292552 0)
(0.527119 -0.0147704 -2.07461e-20)
(0.515179 -0.000240159 0)
(0.014975 -0.0110118 6.59412e-20)
(0.489367 -0.0101166 -5.27968e-20)
(0.515526 -8.87878e-05 1.23019e-21)
(0.514981 -0.000772562 5.50229e-21)
(0.517219 0.000340814 0)
(0.149913 0.0976006 -3.94973e-20)
(0.517452 -0.0101581 3.27649e-21)
(0.499438 -0.0160905 0)
(0.516573 -0.0010809 4.00357e-21)
(0.518359 -0.00113168 0)
(0.524087 0.00791521 0)
(0.436086 0.0334795 -3.97661e-20)
(0.516592 -0.00108983 -2.85519e-23)
(0.532631 -0.00144148 0)
(0.403898 0.0833604 -1.43464e-21)
(0.48066 0.0228458 0)
(0.507634 0.0126776 -2.78452e-21)
(0.499577 0.0030008 -1.81347e-20)
(0.509357 -0.0224941 3.70755e-21)
(0.328601 0.0475262 -8.2552e-20)
(0.509453 -0.00129672 8.52611e-21)
(0.515075 0.00379247 0)
(0.602358 -0.00421024 -2.40505e-20)
(0.421161 -0.0192745 -3.39564e-20)
(0.437994 -0.0473769 0)
(0.500015 0.000158289 0)
(0.499201 -0.016092 2.05746e-20)
(0.531303 0.0599256 3.49608e-20)
(0.519733 -0.00465728 0)
(0.388497 -0.039578 -6.95402e-20)
(0.500493 0.0103516 -1.88721e-22)
(0.488472 0.00643547 7.72332e-20)
(0.483474 0.0487842 3.31768e-20)
(0.173109 -0.0630447 -8.98968e-20)
(0.502162 -0.00564532 0)
(0.499624 0.00302264 -6.5071e-21)
(0.509744 -0.00697814 1.1516e-20)
(0.547151 -0.0895697 -1.56222e-20)
(0.504248 0.0113703 0)
(0.515045 -2.55457e-05 1.61225e-21)
(0.51622 0.000712966 0)
(0.519271 0.00245573 -1.31718e-21)
(0.51515 -0.000212237 1.07482e-21)
(0.51903 -0.000618671 0)
(0.515156 0.00375561 -1.08576e-23)
(0.509595 0.00449624 -5.33856e-21)
(0.49168 -0.0455235 0)
(0.516575 -0.000447672 3.7867e-22)
(0.503064 0.000313089 2.88319e-20)
(0.309792 0.139116 -4.48009e-21)
(0.500017 8.05765e-07 6.24077e-20)
(0.515596 -0.000136145 3.76553e-21)
(0.537541 -0.1274 0)
(0.59982 -0.0670929 0)
(0.504709 0.0385294 1.53097e-21)
(0.521424 0.000409509 0)
(0.31213 -0.0070959 0)
(0.478348 0.00576488 -8.58216e-21)
(0.130398 -0.0375752 8.85891e-20)
(0.510801 -0.0008452 2.4111e-22)
(0.502813 -0.000497553 0)
(0.528962 -0.00311121 -1.32403e-20)
(0.517613 0.00126264 9.76268e-22)
(0.532184 -0.001024 0)
(0.598423 -0.0685803 0)
(0.516752 -0.022703 2.60079e-21)
(0.503512 0.00622585 0)
(0.53509 0.0156282 1.40121e-21)
(0.502423 0.00185905 -1.59146e-21)
(0.480676 0.0344425 1.388e-20)
(0.521308 -0.00134107 0)
(0.507896 0.0102743 -1.34981e-20)
(0.503163 0.000309543 -6.10969e-21)
(0.196465 -0.0316111 -9.62894e-20)
(0.477581 0.122125 4.67338e-21)
(0.515061 5.46919e-05 0)
(0.517824 5.49082e-05 0)
(0.420971 0.0558547 0)
(0.515195 6.2315e-06 -1.12533e-23)
(0.510482 0.000896004 -8.30993e-22)
(0.519222 0.00215224 2.08474e-21)
(0.51212 -0.00506174 2.88967e-21)
(0.520402 0.00598379 -8.81929e-21)
(0.556093 0.0360371 2.75494e-20)
(0.501098 0.000728572 0)
(0.53033 -0.0143873 -5.63049e-21)
(0.499037 0.00228572 4.73756e-20)
(0.531908 0.0220199 6.06006e-21)
(0.512544 0.00702859 5.80301e-21)
(0.511348 -0.00349718 -8.56046e-22)
(0.507746 -0.000144089 1.31e-20)