/*--------------------------------*- C++ -*----------------------------------*\
  =========                 |
  \\      /  F ield         | OpenFOAM: The Open Source CFD Toolbox
   \\    /   O peration     | Website:  https://openfoam.org
    \\  /    A nd           | Version:  9
     \\/     M anipulation  |
\*---------------------------------------------------------------------------*/
FoamFile
{
    format      ascii;
    class       volScalarField;
    location    "0.1";
    object      alpha.water;
}
// * * * * * * * * * * * * * * * * * * * * * * * * * * * * * * * * * * * * * //

dimensions      [0 0 0 0 0 0 0];

internalField   nonuniform List<scalar> 
1935
(
1
1
1
1
1
1
1
1
1
1
1
1
1
1
1
1
1
1
1
1
1
1
1
1
1
1
1
0.999977
0.99997
0.999963
0.996846
0.983795
0.971513
0.935291
0.676073
0.138861
0.0197125
0.00611072
0.00165239
0.000377648
6.97707e-05
9.87622e-06
9.73588e-07
5.53559e-08
1
1
1
1
1
1
1
1
1
1
1
1
1
1
1
1
1
1
1
1
1
1
1
1
1
0.999999
0.999988
0.999924
0.999379
0.996781
0.991182
0.944068
0.661316
0.211172
0.0645219
0.0502822
0.0263095
0.00628896
0.00116115
0.000302375
6.47262e-05
1.08427e-05
1.31642e-06
1.02429e-07
1
1
1
1
1
1
1
1
1
1
1
1
1
1
1
1
1
1
1
1
1
1
1
1
1
0.999995
0.999931
0.999493
0.997041
0.987808
0.910445
0.575425
0.148061
0.015163
0.00332615
0.00322276
0.00429774
0.00398868
0.00169971
0.000260806
4.2582e-05
9.30242e-06
1.53427e-06
1.60905e-07
1
1
1
1
1
1
1
1
1
1
1
1
1
1
1
1
1
1
1
1
1
1
1
1
1
0.999992
0.999841
0.998594
0.989028
0.857377
0.435691
0.0832282
0.01477
0.00528762
0.00125806
0.000364787
0.000213281
0.000212485
0.000349112
0.000199558
3.09914e-05
3.73819e-06
8.08685e-07
1.11649e-07
1
1
1
1
1
1
1
1
1
1
1
1
1
1
1
1
1
1
1
1
1
1
1
1
1
1
1
0.997136
0.840354
0.359489
0.0450325
0.00856075
0.00374486
0.00140038
0.000421562
0.000101318
3.31352e-05
2.44852e-05
2.11844e-05
2.09424e-05
1.11892e-05
1.33955e-06
1.94544e-07
3.98112e-08
1
1
1
1
1
1
1
1
1
1
1
1
1
1
1
1
1
1
1
1
1
1
1
1
1
1
0.999999
0.907584
0.414884
0.038419
0.0069842
0.00243531
0.000840101
0.000318616
0.000109978
3.10377e-05
9.18905e-06
5.14199e-06
3.80933e-06
3.18238e-06
1.81881e-06
5.01913e-07
5.48936e-08
1.0778e-08
1
1
1
1
1
1
1
1
1
1
1
1
1
1
1
1
1
1
1
1
1
1
1
1
1
1
0.997402
0.626444
0.0859535
0.00811849
0.0023159
0.00070286
0.000229898
7.81304e-05
2.82795e-05
9.65305e-06
2.94681e-06
1.28712e-06
8.74292e-07
6.3869e-07
3.83847e-07
1.41071e-07
2.72719e-08
4.10181e-09
1
1
1
1
1
1
1
1
1
1
1
1
1
1
1
1
1
1
1
1
1
1
1
1
1
1
0.909014
0.307123
0.013237
0.00352603
0.000946681
0.00025948
7.42196e-05
2.28334e-05
7.77569e-06
2.94354e-06
1.03261e-06
3.67598e-07
2.09577e-07
1.40498e-07
8.6166e-08
3.81404e-08
1.2873e-08
2.45822e-09
1
1
1
1
1
1
1
1
1
1
1
1
1
1
1
1
1
1
1
1
1
1
1
1
1
1
0.744039
0.110857
0.00680501
0.00170651
0.000438583
0.000113687
2.9928e-05
8.18564e-06
2.48385e-06
8.73082e-07
3.35954e-07
1.21699e-07
5.4509e-08
3.28566e-08
2.01443e-08
1.00091e-08
4.69489e-09
1.84064e-09
1
1
1
1
1
1
1
1
1
1
1
1
1
1
1
1
1
1
1
1
1
1
1
1
1
1
0.539619
0.0305844
0.00380613
0.000912832
0.000223785
5.65585e-05
1.44522e-05
3.66275e-06
9.41821e-07
2.88698e-07
1.07048e-07
3.9753e-08
1.5671e-08
8.20342e-09
4.68739e-09
2.45452e-09
1.7826e-09
1.25872e-09
1
1
1
1
1
1
1
1
1
1
1
1
1
1
1
1
1
1
1
1
1
1
1
1
1
0.968636
0.361488
0.0103131
0.00225608
0.000520738
0.000123488
3.06155e-05
7.79982e-06
1.90975e-06
4.55314e-07
1.08893e-07
3.38937e-08
1.25669e-08
4.74601e-09
2.19828e-09
1.2691e-09
8.83699e-10
8.45536e-10
7.30956e-10
1
1
1
1
1
1
1
1
1
1
1
1
1
1
1
1
1
1
1
1
1
1
1
1
1
0.901236
0.230774
0.00661367
0.00135589
0.000300333
6.95345e-05
1.74364e-05
4.22849e-06
9.87696e-07
2.26019e-07
5.05911e-08
1.22581e-08
4.63658e-09
2.00789e-09
9.7269e-10
6.09403e-10
4.91273e-10
4.22208e-10
3.43245e-10
1
1
1
1
1
1
1
1
1
1
1
1
1
1
1
1
1
1
1
1
1
1
1
1
1
0.820796
0.137641
0.0042447
0.000828187
0.000177716
4.11191e-05
9.99032e-06
2.29411e-06
5.08555e-07
1.11083e-07
2.46017e-08
5.47822e-09
1.94116e-09
1.11195e-09
6.04627e-10
3.60842e-10
2.53389e-10
1.81625e-10
1.33033e-10
1
1
1
1
1
1
1
1
1
1
1
1
1
1
1
1
1
1
1
1
1
1
1
1
1
0.732893
0.0764126
0.00279285
0.000519473
0.000107614
2.49855e-05
5.74723e-06
1.25679e-06
2.66084e-07
5.56172e-08
1.19697e-08
2.62582e-09
1.01571e-09
6.14104e-10
3.42179e-10
1.85506e-10
1.05802e-10
6.51196e-11
4.32241e-11
1
1
1
1
1
1
1
1
1
1
1
1
1
1
1
1
1
1
1
1
1
1
1
1
1
0.63226
0.0370935
0.00188705
0.000333763
6.6436e-05
1.53361e-05
3.34544e-06
6.97431e-07
1.41316e-07
2.8377e-08
5.85788e-09
1.36094e-09
5.99528e-10
3.39766e-10
1.73753e-10
8.02099e-11
3.81028e-11
2.04059e-11
1.23143e-11
1
1
1
1
1
1
1
1
1
1
1
1
1
1
1
1
1
1
1
1
1
1
1
1
1
0.526353
0.0162255
0.00131617
0.000221144
4.27567e-05
9.50605e-06
1.97402e-06
3.92326e-07
7.61304e-08
1.47471e-08
2.92917e-09
7.57144e-10
3.89332e-10
1.97615e-10
8.34961e-11
3.17984e-11
1.28247e-11
6.00098e-12
3.24427e-12
1
1
1
1
1
1
1
1
1
1
1
1
1
1
1
1
1
1
1
1
1
1
1
1
0.998767
0.421258
0.00717284
0.000933093
0.000149663
2.84325e-05
5.99938e-06
1.18275e-06
2.24743e-07
4.18052e-08
7.82644e-09
1.49693e-09
4.77446e-10
2.56802e-10
1.13241e-10
3.89268e-11
1.24456e-11
4.32372e-12
1.74763e-12
8.25296e-13
1
1
1
1
1
1
1
1
1
1
1
1
1
1
1
1
1
1
1
1
1
1
1
1
0.97015
0.337096
0.00471056
0.000660588
0.000101116
1.90553e-05
3.82738e-06
7.2132e-07
1.30894e-07
2.33597e-08
4.20426e-09
8.21887e-10
3.43454e-10
1.66776e-10
6.18475e-11
1.80313e-11
5.01272e-12
1.51183e-12
5.21925e-13
2.10469e-13
1
1
1
1
1
1
1
1
1
1
1
1
1
1
1
1
1
1
1
1
1
1
1
1
0.938695
0.265429
0.00350325
0.00046704
6.89569e-05
1.27737e-05
2.44673e-06
4.42513e-07
7.8199e-08
1.35095e-08
2.33741e-09
4.80974e-10
2.42941e-10
1.05134e-10
3.28582e-11
8.41037e-12
2.0924e-12
5.54848e-13
1.63784e-13
5.56491e-14
1
1
1
1
1
1
1
1
1
1
1
1
1
1
1
1
1
1
1
1
1
1
1
1
0.900975
0.203598
0.0025809
0.000328216
4.72639e-05
8.63362e-06
1.57837e-06
2.77961e-07
4.78242e-08
8.04023e-09
1.33546e-09
3.31292e-10
1.65087e-10
6.27919e-11
1.7061e-11
3.95196e-12
8.99984e-13
2.13707e-13
5.46884e-14
1.56653e-14
1
1
1
1
1
1
1
1
1
1
1
1
1
1
1
1
1
1
1
1
1
1
1
1
0.857573
0.151782
0.0018866
0.000230537
3.2447e-05
5.87473e-06
1.0238e-06
1.78451e-07
2.96408e-08
4.83295e-09
7.60088e-10
2.54195e-10
1.11464e-10
3.62533e-11
8.73557e-12
1.86686e-12
3.9535e-13
8.56623e-14
1.94146e-14
4.75775e-15
1.32031e-15
1
1
1
1
1
1
1
1
1
1
1
1
1
1
1
1
1
1
1
1
1
1
1
1
0.808248
0.108938
0.00136692
0.000161598
2.22992e-05
4.02846e-06
6.79845e-07
1.15146e-07
1.84966e-08
2.91482e-09
4.52513e-10
1.89343e-10
7.42838e-11
2.07348e-11
4.47691e-12
8.90276e-13
1.76552e-13
3.53822e-14
7.25592e-15
1.55863e-15
3.69731e-16
1
1
1
1
1
1
1
1
1
1
1
1
1
1
1
1
1
1
1
1
1
1
1
1
0.753295
0.0746125
0.000983156
0.000112603
1.62624e-05
2.77305e-06
4.60916e-07
7.47571e-08
1.16099e-08
1.77137e-09
2.89783e-10
1.32167e-10
4.73092e-11
1.1622e-11
2.29599e-12
4.28817e-13
7.99492e-14
1.49433e-14
2.81876e-15
5.44162e-16
1.11887e-16
1
1
1
1
1
1
1
1
1
1
1
1
1
1
1
1
1
1
1
1
1
1
1
1
0.693612
0.0479174
0.000705326
7.84296e-05
1.19694e-05
1.92035e-06
3.14136e-07
4.89099e-08
7.33394e-09
1.07442e-09
2.09453e-10
8.93234e-11
2.84476e-11
6.29037e-12
1.16381e-12
2.06677e-13
3.64543e-14
6.39999e-15
1.12385e-15
1.9898e-16
3.63373e-17
1
1
1
1
1
1
1
1
1
1
1
1
1
1
1
1
1
1
1
1
1
1
1
1
0.629936
0.0277693
0.000509619
5.61809e-05
8.72113e-06
1.32987e-06
2.14779e-07
3.21994e-08
4.65882e-09
6.49106e-10
1.62249e-10
6.02147e-11
1.65589e-11
3.31075e-12
5.79818e-13
9.86486e-14
1.6568e-14
2.75163e-15
4.54095e-16
7.48423e-17
1.2452e-17
1
1
1
1
1
1
1
1
1
1
1
1
1
1
1
1
1
1
1
1
1
1
1
1
0.560993
0.014151
0.000376925
4.05911e-05
6.25362e-06
9.23871e-07
1.46822e-07
2.12441e-08
2.96942e-09
3.94214e-10
1.23913e-10
4.03624e-11
9.49149e-12
1.71885e-12
2.85322e-13
4.64783e-14
7.45205e-15
1.17685e-15
1.83818e-16
2.84976e-17
4.40484e-18
1
1
1
1
1
1
1
1
1
1
1
1
1
1
1
1
1
1
1
1
1
1
1
1
0.489965
0.00646948
0.000284374
2.95421e-05
4.4547e-06
6.57305e-07
1.00244e-07
1.3984e-08
1.88449e-09
2.53436e-10
8.90593e-11
2.59699e-11
5.31844e-12
8.83632e-13
1.39081e-13
2.16148e-14
3.30615e-15
4.97552e-16
7.3877e-17
1.08463e-17
1.57712e-18
1
1
1
1
1
1
1
1
1
1
1
1
1
1
1
1
1
1
1
1
1
1
1
1
0.418264
0.00296396
0.000215348
2.15709e-05
3.16561e-06
4.73022e-07
6.85372e-08
9.16986e-09
1.18995e-09
1.69871e-10
5.9648e-11
1.56211e-11
2.86238e-12
4.44843e-13
6.67121e-14
9.88418e-15
1.44141e-15
2.06873e-16
2.92679e-17
4.08601e-18
5.63006e-19
1
1
1
1
1
1
1
1
1
1
1
1
1
1
1
1
1
1
1
1
1
1
1
0.987578
0.357502
0.00194883
0.000161062
1.55482e-05
2.23007e-06
3.3806e-07
4.66652e-08
5.96887e-09
7.40102e-10
1.21862e-10
3.829e-11
8.79528e-12
1.46741e-12
2.16587e-13
3.11327e-14
4.40748e-15
6.13542e-16
8.40683e-17
1.13515e-17
1.5109e-18
1.98132e-19
1
1
1
1
1
1
1
1
1
1
1
1
1
1
1
1
1
1
1
1
1
1
1
0.965831
0.304345
0.00150793
0.000118414
1.10057e-05
1.55956e-06
2.37842e-07
3.13141e-08
3.83068e-09
4.53365e-10
8.92171e-11
2.39757e-11
4.73894e-12
7.23045e-13
1.01732e-13
1.40322e-14
1.90145e-15
2.53113e-16
3.31599e-17
4.27981e-18
5.44179e-19
6.8105e-20
1
1
1
1
1
1
1
1
1
1
1
1
1
1
1
1
1
1
1
1
1
1
1
0.943335
0.255618
0.00114868
8.54085e-05
7.75674e-06
1.08695e-06
1.64734e-07
2.06105e-08
2.41388e-09
2.74873e-10
6.32057e-11
1.45521e-11
2.46935e-12
3.46115e-13
4.62938e-14
6.10252e-15
7.906e-16
1.00671e-16
1.26197e-17
1.55849e-18
1.89568e-19
2.26856e-20
1
1
1
1
1
1
1
1
1
1
1
1
1
1
1
1
1
1
1
1
1
1
1
0.917577
0.211347
0.000859267
6.02221e-05
5.34828e-06
7.88369e-07
1.12292e-07
1.32945e-08
1.48845e-09
1.68494e-10
4.1636e-11
8.35028e-12
1.2406e-12
1.61235e-13
2.0434e-14
2.5617e-15
3.16379e-16
3.8483e-17
4.61372e-18
5.45278e-19
6.34903e-20
7.27346e-21
1
1
1
1
1
1
1
1
1
1
1
1
1
1
1
1
1
1
1
1
1
1
1
0.888443
0.171479
0.000628997
4.13219e-05
3.58317e-06
5.70143e-07
7.52387e-08
8.39471e-09
8.96524e-10
1.05031e-10
2.50221e-11
4.4337e-12
5.94457e-13
7.25035e-14
8.70443e-15
1.0351e-15
1.21572e-16
1.40987e-17
1.61456e-18
1.82501e-19
2.03406e-20
2.23176e-21
1
1
1
1
1
1
1
1
1
1
1
1
1
1
1
1
1
1
1
1
1
1
1
0.855891
0.135967
0.00044848
2.7431e-05
2.34613e-06
3.99888e-07
4.89932e-08
5.14794e-09
5.24205e-10
6.67028e-11
1.39844e-11
2.1774e-12
2.69307e-13
3.11381e-14
3.54848e-15
4.00198e-16
4.46518e-17
4.93025e-18
5.38634e-19
5.81784e-20
6.20409e-21
6.5195e-22
1
1
1
1
1
1
1
1
1
1
1
1
1
1
1
1
1
1
1
1
1
1
1
0.819756
0.10478
0.000309392
1.74565e-05
1.50456e-06
2.70674e-07
3.07068e-08
3.03448e-09
2.95428e-10
4.293e-11
7.47487e-12
1.00754e-12
1.15668e-13
1.27055e-14
1.375e-15
1.47105e-16
1.55862e-17
1.63716e-18
1.70471e-19
1.75801e-20
1.79277e-21
1.80399e-22
1
1
1
1
1
1
1
1
1
1
1
1
1
1
1
1
1
1
1
1
1
1
1
0.779788
0.0778468
0.000204488
1.05185e-05
1.00092e-06
1.75687e-07
1.83767e-08
1.70946e-09
1.6124e-10
2.61602e-11
3.82525e-12
4.47602e-13
4.75477e-14
4.9309e-15
5.04963e-16
5.11698e-17
5.14311e-18
5.13425e-19
5.09083e-20
5.00903e-21
4.88247e-22
4.70367e-23
1
1
1
1
1
1
1
1
1
1
1
1
1
1
1
1
1
1
1
1
1
1
1
0.735927
0.0550875
0.000127624
5.90294e-06
7.2748e-07
1.08861e-07
1.04509e-08
9.22224e-10
8.6768e-11
1.43737e-11
1.83843e-12
1.9139e-13
1.87771e-14
1.82262e-15
1.75547e-16
1.6787e-17
1.5968e-18
1.5125e-19
1.42651e-20
1.33819e-21
1.24628e-22
1.14937e-23
0.999999
0.999999
1
1
1
1
1
1
1
1
1
1
1
1
1
1
1
1
1
1
1
1
1
0.688067
0.0364669
7.40823e-05
3.00196e-06
5.01971e-07
6.4376e-08
5.69701e-09
4.83901e-10
4.65333e-11
7.13614e-12
8.2168e-13
7.80057e-14
7.07807e-15
6.39292e-16
5.75679e-17
5.17112e-18
4.63993e-19
4.16113e-20
3.72798e-21
3.33185e-22
2.96406e-23
2.61713e-24
0.999996
0.999998
0.999999
1
1
1
1
1
1
1
1
1
1
1
1
1
1
1
1
1
1
1
1
0.635956
0.0219667
3.99637e-05
1.40934e-06
3.28359e-07
3.68233e-08
3.06802e-09
2.53166e-10
2.5217e-11
3.32183e-12
3.43078e-13
2.99776e-14
2.51785e-15
2.10809e-16
1.76654e-17
1.48441e-18
1.2525e-19
1.06131e-20
9.02208e-22
7.67916e-23
6.52641e-24
5.51978e-25
0.999986
0.999993
0.999997
0.999999
0.999999
1
1
1
1
1
1
1
1
1
1
1
1
1
1
1
1
1
1
0.579685
0.0114665
2.08352e-05
6.84014e-07
2.15801e-07
2.15854e-08
1.70827e-09
1.3507e-10
1.35601e-11
1.48675e-12
1.3471e-13
1.07693e-14
8.34101e-16
6.44663e-17
5.00829e-18
3.92522e-19
3.10825e-20
2.48599e-21
2.00481e-22
1.62577e-23
1.32117e-24
1.07156e-25
0.999952
0.999973
0.999987
0.999994
0.999997
0.999998
0.999999
0.999999
0.999999
0.999999
1
1
1
0.999999
0.999999
0.999999
0.999999
0.999999
0.999999
0.999999
0.999999
0.999999
1
0.519525
0.00458675
1.14339e-05
3.99482e-07
1.47803e-07
1.34943e-08
9.96063e-10
7.34088e-11
7.06609e-12
6.35578e-13
4.94768e-14
3.57204e-15
2.52952e-16
1.79553e-17
1.2897e-18
9.41665e-20
6.99782e-21
5.2871e-22
4.05055e-23
3.13516e-24
2.44101e-25
1.90258e-26
0.999827
0.999902
0.99995
0.999975
0.999986
0.999992
0.999995
0.999996
0.999997
0.999997
0.999998
0.999998
0.999998
0.999997
0.999997
0.999997
0.999997
0.999996
0.999996
0.999996
0.999995
0.999997
0.999999
0.454726
0.00110826
6.9355e-06
2.98833e-07
1.04194e-07
8.59594e-09
5.84344e-10
3.95445e-11
3.42068e-12
2.50103e-13
1.65813e-14
1.06597e-15
6.83491e-17
4.44066e-18
2.95008e-19
2.01151e-20
1.40751e-21
1.00832e-22
7.36544e-24
5.46048e-25
4.08709e-26
3.07089e-27
0.999355
0.999623
0.999799
0.999894
0.99994
0.999964
0.999976
0.999982
0.999986
0.999987
0.999988
0.999989
0.999988
0.999988
0.999987
0.999986
0.999984
0.999983
0.999981
0.999979
0.999981
0.999985
0.999992
0.383553
0.000211214
4.22084e-06
1.73678e-07
7.17619e-08
5.31927e-09
3.26665e-10
1.98672e-11
1.43882e-12
8.57343e-14
4.84877e-15
2.75114e-16
1.59022e-17
9.4775e-19
5.85418e-20
3.75135e-21
2.4879e-22
1.70072e-23
1.19232e-24
8.51934e-26
6.16257e-27
4.48335e-28
0.997536
0.998512
0.999164
0.999534
0.999731
0.999832
0.999884
0.999912
0.999928
0.999936
0.99994
0.999941
0.99994
0.999937
0.999933
0.999928
0.999921
0.999914
0.999906
0.999898
)
;

boundaryField
{
    leftWall
    {
        type            zeroGradient;
    }
    rightWall
    {
        type            zeroGradient;
    }
    lowerWall
    {
        type            zeroGradient;
    }
    atmosphere
    {
        type            inletOutlet;
        inletValue      nonuniform List<scalar> 0();
        value           nonuniform List<scalar> 0();
    }
    defaultFaces
    {
        type            empty;
    }
    procBoundary0to1
    {
        type            processor;
        value           nonuniform List<scalar> 
44
(
6.12037e-09
7.66104e-09
7.42051e-09
6.75205e-09
4.27378e-09
1.79813e-09
7.66233e-10
5.0923e-10
5.02835e-10
4.75747e-10
3.90414e-10
2.36136e-10
9.72359e-11
3.0287e-11
7.96534e-12
1.90645e-12
4.32092e-13
9.6033e-14
2.16582e-14
5.11229e-15
5.11229e-15
2.78655e-16
6.31191e-17
1.91294e-17
6.19878e-18
2.03749e-18
6.7832e-19
2.28301e-19
7.69949e-20
2.57272e-20
8.42764e-21
2.68199e-21
8.22871e-22
2.41835e-22
6.76927e-23
1.79505e-23
4.4857e-24
1.05068e-24
2.29405e-25
4.64277e-26
8.65959e-27
1.48023e-27
2.30672e-28
3.26408e-29
)
;
    }
    procBoundary0to2
    {
        type            processor;
        value           nonuniform List<scalar> 
46
(
0.999895
0.999922
0.999954
0.308148
0.000125858
2.26461e-06
1.02772e-07
4.28682e-08
2.90741e-09
1.51762e-10
8.37417e-12
4.91764e-13
2.43728e-14
1.19526e-15
6.04525e-17
3.1799e-18
1.7509e-19
1.011e-20
6.10796e-22
3.85531e-23
2.52509e-24
1.70913e-25
1.18343e-26
8.31105e-28
5.8829e-29
0.990245
0.993903
0.996402
0.997903
0.998739
0.999185
0.999422
0.999551
0.999623
0.999662
0.999682
0.999687
0.999682
0.999669
0.999649
0.999624
0.999593
0.999559
0.999523
0.999895
0.999486
)
;
    }
}


// ************************************************************************* //
