/*--------------------------------*- C++ -*----------------------------------*\
  =========                 |
  \\      /  F ield         | OpenFOAM: The Open Source CFD Toolbox
   \\    /   O peration     | Website:  https://openfoam.org
    \\  /    A nd           | Version:  9
     \\/     M anipulation  |
\*---------------------------------------------------------------------------*/
FoamFile
{
    format      ascii;
    class       surfaceScalarField;
    location    "0.1";
    object      alphaPhi0.water;
}
// * * * * * * * * * * * * * * * * * * * * * * * * * * * * * * * * * * * * * //

dimensions      [0 3 -1 0 0 0 0];

internalField   nonuniform List<scalar> 
3781
(
4.3052e-07
-4.3052e-07
2.1769e-06
-1.74638e-06
4.6165e-06
-2.4396e-06
7.29004e-06
-2.67353e-06
1.00044e-05
-2.71437e-06
1.26828e-05
-2.67836e-06
1.52953e-05
-2.6125e-06
1.78359e-05
-2.54062e-06
2.03122e-05
-2.4763e-06
2.27394e-05
-2.42721e-06
2.5137e-05
-2.3976e-06
2.75269e-05
-2.38985e-06
2.99324e-05
-2.40548e-06
3.23782e-05
-2.44589e-06
3.48911e-05
-2.51287e-06
3.75001e-05
-2.60899e-06
4.0238e-05
-2.73795e-06
4.31423e-05
-2.90423e-06
4.62549e-05
-3.11257e-06
4.96213e-05
-3.36646e-06
5.32842e-05
-3.66292e-06
5.72715e-05
-3.98728e-06
6.15788e-05
-4.30728e-06
6.61406e-05
-4.5618e-06
7.07874e-05
-4.6468e-06
7.51892e-05
-4.40192e-06
7.88156e-05
-3.62673e-06
8.09061e-05
-2.09308e-06
8.08436e-05
6.02234e-08
7.87301e-05
2.00879e-06
7.50743e-05
2.78131e-06
7.1764e-05
2.32315e-06
6.88022e-05
8.12844e-07
5.81541e-05
-8.15644e-07
1.76685e-05
-1.42373e-06
1.80437e-06
-3.65635e-07
6.19391e-07
1.37696e-07
1.75713e-07
1.2067e-07
4.03272e-08
4.86191e-08
7.34606e-09
1.32627e-08
1.04998e-09
2.7277e-09
1.13162e-10
4.54038e-10
8.6221e-12
5.95517e-11
5.46015e-12
1.53204e-06
-1.96256e-06
3.6715e-06
-3.88584e-06
5.95003e-06
-4.71813e-06
8.28726e-06
-5.01076e-06
1.06285e-05
-5.05557e-06
1.29415e-05
-4.99137e-06
1.52136e-05
-4.88466e-06
1.74449e-05
-4.77188e-06
1.96429e-05
-4.6743e-06
2.182e-05
-4.60434e-06
2.39916e-05
-4.56918e-06
2.61749e-05
-4.57319e-06
2.8389e-05
-4.61955e-06
3.06545e-05
-4.71144e-06
3.29946e-05
-4.8529e-06
3.54349e-05
-5.04934e-06
3.80048e-05
-5.30777e-06
4.07366e-05
-5.63611e-06
4.36655e-05
-6.04141e-06
4.68249e-05
-6.52592e-06
5.02412e-05
-7.07915e-06
5.39214e-05
-7.66754e-06
5.78351e-05
-8.22094e-06
6.1887e-05
-8.61372e-06
6.5885e-05
-8.64485e-06
6.95124e-05
-8.02969e-06
7.2358e-05
-6.47478e-06
7.41764e-05
-3.93084e-06
7.49844e-05
-8.8451e-07
7.4829e-05
1.7121e-06
7.3095e-05
2.8342e-06
5.91807e-05
2.06599e-06
2.37329e-05
4.17458e-07
6.05056e-06
0
3.50835e-06
-2.28418e-07
1.84248e-06
-1.6579e-07
3.33807e-07
1.0812e-08
4.53815e-08
3.12428e-08
1.57561e-08
2.04286e-08
4.43763e-09
9.34891e-09
9.65134e-10
2.8824e-09
1.53759e-10
7.10845e-10
1.66433e-11
1.29722e-10
1.56726e-11
2.2337e-06
-4.19625e-06
4.55844e-06
-6.21059e-06
6.72822e-06
-6.88791e-06
8.82758e-06
-7.11011e-06
1.08856e-05
-7.11358e-06
1.2909e-05
-7.01475e-06
1.49028e-05
-6.87852e-06
1.68744e-05
-6.7435e-06
1.88335e-05
-6.63334e-06
2.07915e-05
-6.56237e-06
2.27616e-05
-6.53931e-06
2.47583e-05
-6.56988e-06
2.67975e-05
-6.6587e-06
2.88967e-05
-6.81065e-06
3.10756e-05
-7.03178e-06
3.33561e-05
-7.32988e-06
3.57626e-05
-7.71428e-06
3.8321e-05
-8.19455e-06
4.1057e-05
-8.77737e-06
4.39917e-05
-9.46057e-06
4.71353e-05
-1.02228e-05
5.04768e-05
-1.10091e-05
5.39684e-05
-1.17125e-05
5.75052e-05
-1.21505e-05
6.09055e-05
-1.20452e-05
6.38992e-05
-1.10249e-05
6.61659e-05
-8.75757e-06
6.74683e-05
-5.35092e-06
6.77542e-05
-1.66729e-06
6.56401e-05
1.04109e-06
4.91922e-05
1.43072e-06
1.60878e-05
3.02243e-07
1.86754e-06
0
6.20462e-07
0
3.34236e-07
-2.6144e-09
2.65792e-07
-5.13503e-09
2.44177e-07
0
1.15811e-07
0
1.03263e-08
1.26871e-08
0
4.03309e-09
0
8.7548e-10
0
2.3646e-10
0
5.76295e-11
8.99626e-12
2.56018e-06
-6.75644e-06
5.00968e-06
-8.66009e-06
7.13332e-06
-9.01155e-06
9.08399e-06
-9.06078e-06
1.09437e-05
-8.97332e-06
1.27508e-05
-8.82183e-06
1.45273e-05
-8.65502e-06
1.62891e-05
-8.50533e-06
1.80497e-05
-8.39391e-06
1.98215e-05
-8.33421e-06
2.16171e-05
-8.33486e-06
2.34492e-05
-8.40198e-06
2.53315e-05
-8.54099e-06
2.72788e-05
-8.75793e-06
2.93073e-05
-9.06032e-06
3.14349e-05
-9.45748e-06
3.36805e-05
-9.95985e-06
3.6063e-05
-1.0577e-05
3.85989e-05
-1.13133e-05
4.12987e-05
-1.21603e-05
4.41603e-05
-1.30844e-05
4.71614e-05
-1.40102e-05
5.02477e-05
-1.47987e-05
5.33209e-05
-1.52237e-05
5.62271e-05
-1.49514e-05
5.87517e-05
-1.35521e-05
6.0641e-05
-1.06899e-05
6.16564e-05
-6.62078e-06
5.86884e-05
-2.54907e-06
3.74194e-05
1.50396e-07
8.70197e-06
7.51353e-08
1.26275e-06
0
4.22626e-07
0
1.07756e-07
0
2.75207e-08
0
1.84548e-08
0
1.63854e-08
0
1.43954e-08
0
1.1975e-08
0
1.99954e-09
2.14902e-10
0
2.56662e-10
0
4.49292e-11
0
1.23278e-11
3.32006e-12
2.6777e-06
-9.43414e-06
5.17327e-06
-1.11557e-05
7.26724e-06
-1.11055e-05
9.12424e-06
-1.09178e-05
1.08487e-05
-1.06977e-05
1.24984e-05
-1.04716e-05
1.41089e-05
-1.02655e-05
1.5704e-05
-1.01004e-05
1.73015e-05
-9.99144e-06
1.8916e-05
-9.94869e-06
2.05602e-05
-9.97906e-06
2.22462e-05
-1.00879e-05
2.39858e-05
-1.02807e-05
2.57917e-05
-1.05637e-05
2.76766e-05
-1.09453e-05
2.96543e-05
-1.14352e-05
3.17383e-05
-1.20438e-05
3.39407e-05
-1.27795e-05
3.62701e-05
-1.36427e-05
3.87278e-05
-1.4618e-05
4.13031e-05
-1.56598e-05
4.39678e-05
-1.66749e-05
4.6669e-05
-1.74999e-05
4.93233e-05
-1.7878e-05
5.18105e-05
-1.74386e-05
5.39692e-05
-1.57108e-05
5.56401e-05
-1.23609e-05
5.35926e-05
-7.58384e-06
3.10854e-05
-2.66823e-06
4.52531e-06
-1.39045e-07
5.4702e-07
4.41865e-09
2.59904e-07
2.10162e-09
1.01936e-07
0
2.78348e-08
0
5.20158e-09
0
1.54019e-09
0
1.59678e-09
0
1.64042e-09
0
1.52355e-09
0
7.1475e-10
0
5.41379e-11
0
0
6.1776e-12
0
2.10889e-12
7.92697e-13
2.68595e-06
-1.21201e-05
5.1635e-06
-1.36332e-05
7.22215e-06
-1.31642e-05
9.01335e-06
-1.2709e-05
1.06437e-05
-1.23281e-05
1.218e-05
-1.20078e-05
1.36655e-05
-1.1751e-05
1.51303e-05
-1.15652e-05
1.6596e-05
-1.14572e-05
1.80794e-05
-1.14321e-05
1.95939e-05
-1.14936e-05
2.11513e-05
-1.16453e-05
2.27624e-05
-1.18917e-05
2.44374e-05
-1.22388e-05
2.61865e-05
-1.26944e-05
2.80193e-05
-1.3268e-05
2.99443e-05
-1.39688e-05
3.19675e-05
-1.48027e-05
3.40906e-05
-1.57658e-05
3.63077e-05
-1.6835e-05
3.86022e-05
-1.79543e-05
4.09436e-05
-1.90162e-05
4.32843e-05
-1.98406e-05
4.5558e-05
-2.01518e-05
4.7676e-05
-1.95566e-05
4.95192e-05
-1.75539e-05
5.05101e-05
-1.33526e-05
3.3048e-05
-7.86864e-06
4.05694e-06
-1.2905e-06
4.05599e-07
-5.61376e-08
1.20068e-07
1.64804e-09
3.95304e-08
1.94437e-09
1.64977e-08
1.0006e-09
5.72981e-09
2.11206e-10
1.27823e-09
0
2.66528e-10
0
2.18435e-10
0
2.53966e-10
0
2.37315e-10
0
1.33069e-10
0
2.70329e-11
0
3.64503e-13
1.85654e-13
0
6.82911e-13
2.79684e-13
2.63372e-06
-1.47538e-05
5.05168e-06
-1.60512e-05
7.06508e-06
-1.51776e-05
8.80392e-06
-1.44478e-05
1.03665e-05
-1.38907e-05
1.18203e-05
-1.34616e-05
1.32125e-05
-1.31432e-05
1.45766e-05
-1.29293e-05
1.59372e-05
-1.28178e-05
1.73126e-05
-1.28075e-05
1.87174e-05
-1.28983e-05
2.0163e-05
-1.30909e-05
2.16593e-05
-1.33881e-05
2.32149e-05
-1.37944e-05
2.48374e-05
-1.43168e-05
2.65328e-05
-1.49633e-05
2.83052e-05
-1.57412e-05
3.01554e-05
-1.6653e-05
3.20794e-05
-1.76898e-05
3.40658e-05
-1.88214e-05
3.60943e-05
-1.99828e-05
3.81342e-05
-2.10562e-05
4.01447e-05
-2.1851e-05
4.20756e-05
-2.20826e-05
4.38647e-05
-2.13457e-05
4.54359e-05
-1.91251e-05
4.00435e-05
-1.4458e-05
9.92389e-06
-5.62536e-06
4.42959e-07
-4.43349e-07
1.06959e-07
-3.09921e-08
2.82214e-08
1.88968e-09
8.18584e-09
1.10005e-09
2.57558e-09
4.16841e-10
8.92632e-10
1.69541e-10
2.83035e-10
4.72064e-11
6.87368e-11
0
3.80638e-11
0
4.52659e-11
0
4.11006e-11
0
2.58144e-11
0
7.87756e-12
0
6.61417e-13
0
0
2.95401e-13
1.59962e-13
2.54809e-06
-1.73019e-05
4.88263e-06
-1.83857e-05
6.84248e-06
-1.71374e-05
8.53524e-06
-1.61406e-05
1.00463e-05
-1.54018e-05
1.14395e-05
-1.48548e-05
1.2762e-05
-1.44657e-05
1.40489e-05
-1.42162e-05
1.53263e-05
-1.40952e-05
1.66138e-05
-1.40951e-05
1.79264e-05
-1.42109e-05
1.92757e-05
-1.44402e-05
2.06708e-05
-1.47831e-05
2.21188e-05
-1.52424e-05
2.36249e-05
-1.5823e-05
2.51925e-05
-1.65309e-05
2.68218e-05
-1.73706e-05
2.85095e-05
-1.83407e-05
3.0247e-05
-1.94272e-05
3.20192e-05
-2.05937e-05
3.38039e-05
-2.17675e-05
3.5572e-05
-2.28243e-05
3.72896e-05
-2.35687e-05
3.8921e-05
-2.3714e-05
4.04266e-05
-2.28513e-05
4.17336e-05
-2.04322e-05
2.50692e-05
-1.43712e-05
9.07697e-07
-2.92234e-06
1.76742e-07
-2.17171e-07
3.65713e-08
-1.36306e-08
8.27651e-09
2.69673e-09
1.91432e-09
1.35651e-09
4.73525e-10
3.61074e-10
1.46453e-10
6.90197e-11
4.9305e-11
1.65207e-11
1.92757e-11
4.84743e-12
8.43924e-12
0
8.56877e-12
0
7.92908e-12
0
5.37758e-12
0
2.11888e-12
0
4.0471e-13
0
2.97305e-14
9.58154e-14
1.08615e-13
2.44595e-06
-1.97478e-05
4.68553e-06
-2.06253e-05
6.58634e-06
-1.90382e-05
8.23574e-06
-1.779e-05
9.7054e-06
-1.68715e-05
1.10527e-05
-1.62021e-05
1.23229e-05
-1.57358e-05
1.35506e-05
-1.5444e-05
1.47626e-05
-1.53072e-05
1.59789e-05
-1.53114e-05
1.72148e-05
-1.54468e-05
1.84818e-05
-1.57072e-05
1.97882e-05
-1.60896e-05
2.11402e-05
-1.65943e-05
2.25411e-05
-1.72239e-05
2.39917e-05
-1.79815e-05
2.54896e-05
-1.88684e-05
2.70281e-05
-1.98792e-05
2.85957e-05
-2.09948e-05
3.0175e-05
-2.2173e-05
3.17433e-05
-2.33359e-05
3.32745e-05
-2.43555e-05
3.47426e-05
-2.50367e-05
3.61259e-05
-2.50974e-05
3.74076e-05
-2.4133e-05
3.80987e-05
-2.11234e-05
1.20336e-05
-1.26347e-05
3.97549e-07
-1.30003e-06
7.28711e-08
-1.33623e-07
1.23387e-08
-3.85626e-09
2.04752e-09
2.66369e-09
3.74889e-10
1.1331e-09
1.04911e-10
3.18033e-10
2.73161e-11
6.77343e-11
8.41245e-12
9.57844e-12
4.18401e-12
1.63733e-12
2.32198e-12
3.43432e-13
1.77553e-12
0
1.6128e-12
0
1.15848e-12
0
5.61972e-13
0
1.77815e-13
0
5.01676e-14
5.65521e-14
7.70726e-14
2.33819e-06
-2.2086e-05
4.47909e-06
-2.27662e-05
6.31795e-06
-2.08771e-05
7.92511e-06
-1.93971e-05
9.35928e-06
-1.83056e-05
1.06707e-05
-1.75135e-05
1.19009e-05
-1.6966e-05
1.30832e-05
-1.66263e-05
1.42437e-05
-1.64677e-05
1.54026e-05
-1.64702e-05
1.65748e-05
-1.66191e-05
1.77718e-05
-1.69041e-05
1.90013e-05
-1.73191e-05
2.02684e-05
-1.78614e-05
2.1575e-05
-1.85306e-05
2.29203e-05
-1.93268e-05
2.42997e-05
-2.02477e-05
2.57042e-05
-2.12838e-05
2.71206e-05
-2.24112e-05
2.85308e-05
-2.35831e-05
2.99129e-05
-2.47181e-05
3.12448e-05
-2.56873e-05
3.25084e-05
-2.63003e-05
3.36965e-05
-2.62855e-05
3.48182e-05
-2.52547e-05
3.07473e-05
-2.13937e-05
3.59837e-06
-9.80206e-06
1.99606e-07
-7.91583e-07
3.2462e-08
-9.0164e-08
4.47623e-09
5.80756e-10
2.83576e-10
2.42566e-09
0
9.02467e-10
0
2.55043e-10
1.9413e-12
6.05214e-11
2.03717e-12
1.16107e-11
6.49699e-13
1.42274e-12
5.64797e-13
2.42e-13
4.22585e-13
5.80449e-14
3.52753e-13
8.27401e-15
2.60149e-13
9.03355e-15
1.49027e-13
1.32435e-14
7.11341e-14
1.75529e-14
3.84488e-14
4.28884e-14
4.77712e-14
2.26916e-06
-2.43552e-05
4.34891e-06
-2.48459e-05
6.15624e-06
-2.26844e-05
7.74908e-06
-2.099e-05
9.17583e-06
-1.97324e-05
1.04802e-05
-1.88179e-05
1.17002e-05
-1.8186e-05
1.28672e-05
-1.77934e-05
1.40068e-05
-1.76072e-05
1.51385e-05
-1.7602e-05
1.62776e-05
-1.77581e-05
1.74349e-05
-1.80615e-05
1.86181e-05
-1.85023e-05
1.98314e-05
-1.90747e-05
2.10757e-05
-1.97749e-05
2.23488e-05
-2.05999e-05
2.36446e-05
-2.15435e-05
2.49529e-05
-2.25921e-05
2.62593e-05
-2.37176e-05
2.75458e-05
-2.48696e-05
2.87925e-05
-2.59647e-05
2.9981e-05
-2.68759e-05
3.11011e-05
-2.74203e-05
3.21583e-05
-2.73426e-05
3.31883e-05
-2.62847e-05
2.3295e-05
-2.23567e-05
7.24051e-07
-7.09711e-06
1.22983e-07
-5.70209e-07
1.63295e-08
-5.89619e-08
1.47681e-09
1.75373e-09
0
1.96116e-09
0
6.59608e-10
0
1.74434e-10
0
4.06862e-11
0
8.58162e-12
2.09861e-13
1.45992e-12
1.42372e-13
2.0116e-13
1.2108e-13
8.63424e-14
9.29298e-14
3.11004e-14
6.7336e-14
1.87475e-14
4.45575e-14
1.9797e-14
3.09212e-14
2.29195e-14
2.43628e-14
2.48456e-14
2.36467e-14
2.18088e-06
-2.65361e-05
4.18116e-06
-2.68462e-05
5.93915e-06
-2.44424e-05
7.50223e-06
-2.2553e-05
8.90953e-06
-2.11397e-05
1.01982e-05
-2.01065e-05
1.14019e-05
-1.93896e-05
1.25495e-05
-1.8941e-05
1.36647e-05
-1.87225e-05
1.47666e-05
-1.87038e-05
1.58697e-05
-1.88611e-05
1.69844e-05
-1.91762e-05
1.81178e-05
-1.96358e-05
1.92736e-05
-2.02304e-05
2.04519e-05
-2.09533e-05
2.16496e-05
-2.17976e-05
2.28598e-05
-2.27537e-05
2.40718e-05
-2.3804e-05
2.52712e-05
-2.49171e-05
2.64413e-05
-2.60396e-05
2.75647e-05
-2.70881e-05
2.86278e-05
-2.79391e-05
2.96273e-05
-2.84198e-05
3.05788e-05
-2.82941e-05
3.15382e-05
-2.72441e-05
1.7481e-05
-2.17819e-05
4.82139e-07
-4.83487e-06
7.42575e-08
-4.11519e-07
7.85341e-09
-3.69614e-08
1.76561e-10
1.98883e-09
0
1.40768e-09
0
4.33577e-10
0
1.06216e-10
0
2.34125e-11
0
4.87762e-12
2.40856e-14
9.92742e-13
4.98568e-14
1.83211e-13
4.97187e-14
6.64244e-14
3.41288e-14
3.82748e-14
2.33913e-14
2.35429e-14
1.74658e-14
1.64007e-14
1.40877e-14
1.38553e-14
1.16198e-14
1.12845e-14
9.40264e-15
2.09498e-06
-2.86311e-05
4.0178e-06
-2.8769e-05
5.72546e-06
-2.61501e-05
7.25704e-06
-2.40846e-05
8.64404e-06
-2.25267e-05
9.91769e-06
-2.13802e-05
1.11074e-05
-2.05793e-05
1.22391e-05
-2.00727e-05
1.33348e-05
-1.98182e-05
1.44121e-05
-1.97812e-05
1.54848e-05
-1.99338e-05
1.65628e-05
-2.02543e-05
1.76527e-05
-2.07257e-05
1.87576e-05
-2.13353e-05
1.98771e-05
-2.20728e-05
2.10076e-05
-2.29281e-05
2.2142e-05
-2.38881e-05
2.32696e-05
-2.49316e-05
2.43769e-05
-2.60244e-05
2.54489e-05
-2.71116e-05
2.64713e-05
-2.81105e-05
2.7435e-05
-2.89028e-05
2.83419e-05
-2.93267e-05
2.92143e-05
-2.91665e-05
3.0118e-05
-2.81478e-05
1.23066e-05
-2.08076e-05
3.16711e-07
-3.19315e-06
4.31674e-08
-2.91149e-07
3.25862e-09
-2.20229e-08
0
1.80428e-09
0
9.84688e-10
0
2.73605e-10
0
6.30589e-11
0
1.32758e-11
0
2.683e-12
0
5.55718e-13
1.44976e-14
1.27121e-13
2.58578e-14
4.43469e-14
1.91443e-14
2.69685e-14
1.15581e-14
1.56761e-14
7.85746e-15
9.28783e-15
5.9384e-15
6.02342e-15
4.69213e-15
4.20562e-15
3.09981e-15
2.01234e-06
-3.06434e-05
3.86023e-06
-3.06169e-05
5.51708e-06
-2.78069e-05
7.01541e-06
-2.5583e-05
8.38055e-06
-2.38918e-05
9.63861e-06
-2.26382e-05
1.0815e-05
-2.17557e-05
1.19327e-05
-2.11904e-05
1.30116e-05
-2.0897e-05
1.40679e-05
-2.08375e-05
1.51144e-05
-2.09804e-05
1.61605e-05
-2.13003e-05
1.7212e-05
-2.17772e-05
1.82717e-05
-2.23949e-05
1.93389e-05
-2.314e-05
2.04099e-05
-2.39991e-05
2.14775e-05
-2.49557e-05
2.25317e-05
-2.59859e-05
2.35603e-05
-2.7053e-05
2.45503e-05
-2.81016e-05
2.54906e-05
-2.90508e-05
2.63759e-05
-2.9788e-05
2.72118e-05
-3.01626e-05
2.8023e-05
-2.99778e-05
2.88533e-05
-2.89781e-05
8.0914e-06
-1.92336e-05
2.05991e-07
-2.04419e-06
2.44488e-08
-2.02492e-07
1.09573e-09
-1.25266e-08
0
1.51042e-09
0
6.77244e-10
0
1.72828e-10
0
3.74296e-11
0
7.52194e-12
0
1.47543e-12
0
3.06137e-13
1.22534e-14
7.56909e-14
1.53439e-14
2.86783e-14
1.02276e-14
1.51825e-14
5.71137e-15
8.05125e-15
3.38367e-15
4.17085e-15
2.20748e-15
2.24405e-15
1.59015e-15
1.33933e-15
8.78405e-16
1.93331e-06
-3.25767e-05
3.70897e-06
-3.23926e-05
5.31485e-06
-2.94128e-05
6.77827e-06
-2.70464e-05
8.11963e-06
-2.52332e-05
9.36068e-06
-2.38793e-05
1.05232e-05
-2.29182e-05
1.16273e-05
-2.22946e-05
1.26908e-05
-2.19605e-05
1.37283e-05
-2.18751e-05
1.47517e-05
-2.20037e-05
1.57693e-05
-2.2318e-05
1.67866e-05
-2.27945e-05
1.7806e-05
-2.34143e-05
1.88266e-05
-2.41606e-05
1.98447e-05
-2.50172e-05
2.08537e-05
-2.59647e-05
2.18443e-05
-2.69765e-05
2.28059e-05
-2.80146e-05
2.37275e-05
-2.90232e-05
2.46008e-05
-2.99241e-05
2.54236e-05
-3.06108e-05
2.62041e-05
-3.09431e-05
2.69671e-05
-3.07408e-05
2.75614e-05
-2.95723e-05
4.54876e-06
-1.72158e-05
1.30748e-07
-1.31301e-06
1.36509e-08
-1.42515e-07
1.79376e-10
-6.84584e-09
0
1.23134e-09
0
4.65205e-10
0
1.09922e-10
0
2.24016e-11
0
4.29422e-12
0
8.18847e-13
2.64427e-15
1.69806e-13
1.18496e-14
4.42988e-14
9.06742e-15
1.77887e-14
5.26479e-15
8.52968e-15
2.64365e-15
3.95556e-15
1.30421e-15
1.69401e-15
7.27571e-16
7.58784e-16
4.71688e-16
3.89146e-16
2.26048e-16
1.85791e-06
-3.44346e-05
3.5639e-06
-3.40986e-05
5.11885e-06
-3.09678e-05
6.54586e-06
-2.84734e-05
7.86138e-06
-2.65487e-05
9.08351e-06
-2.51014e-05
1.02308e-05
-2.40655e-05
1.13208e-05
-2.33846e-05
1.23692e-05
-2.30089e-05
1.33891e-05
-2.2895e-05
1.4391e-05
-2.30057e-05
1.53828e-05
-2.33097e-05
1.63692e-05
-2.37809e-05
1.73523e-05
-2.43973e-05
1.83312e-05
-2.51395e-05
1.93024e-05
-2.59884e-05
2.02598e-05
-2.69221e-05
2.11952e-05
-2.7912e-05
2.20994e-05
-2.89188e-05
2.29635e-05
-2.98873e-05
2.37814e-05
-3.07421e-05
2.45533e-05
-3.13826e-05
2.52885e-05
-3.16784e-05
2.60111e-05
-3.14634e-05
2.51295e-05
-2.96284e-05
1.99514e-06
-1.46965e-05
8.51658e-08
-9.96709e-07
8.06075e-09
-1.03724e-07
0
-3.5267e-09
0
1.00439e-09
0
3.24434e-10
0
7.08513e-11
0
1.35877e-11
0
2.48407e-12
0
4.61876e-13
4.50855e-15
9.59268e-14
9.06703e-15
2.62796e-14
5.64743e-15
1.13365e-14
2.71841e-15
4.92457e-15
1.12258e-15
1.86757e-15
4.64207e-16
6.614e-16
2.23728e-16
2.51104e-16
1.28362e-16
1.10077e-16
5.55285e-17
1.78585e-06
-3.62205e-05
3.42454e-06
-3.57372e-05
4.92871e-06
-3.24719e-05
6.31799e-06
-2.98627e-05
7.60565e-06
-2.78363e-05
8.80676e-06
-2.63025e-05
9.93707e-06
-2.51958e-05
1.10118e-05
-2.44592e-05
1.20445e-05
-2.40416e-05
1.3047e-05
-2.38975e-05
1.40286e-05
-2.39873e-05
1.49962e-05
-2.42773e-05
1.59541e-05
-2.47388e-05
1.69042e-05
-2.53473e-05
1.78455e-05
-2.60808e-05
1.87747e-05
-2.69177e-05
1.96866e-05
-2.78339e-05
2.05738e-05
-2.87992e-05
2.14285e-05
-2.97735e-05
2.22436e-05
-3.07024e-05
2.30148e-05
-3.15133e-05
2.37434e-05
-3.21112e-05
2.4439e-05
-3.2374e-05
2.51231e-05
-3.21475e-05
1.97991e-05
-3.04431e-05
6.26316e-07
-1.2269e-05
6.17048e-08
-7.99115e-07
5.18279e-09
-7.53076e-08
0
-1.57064e-09
0
7.97895e-10
0
2.25958e-10
0
4.58469e-11
0
8.32051e-12
0
1.45725e-12
0
2.65142e-13
6.69342e-15
5.48381e-14
6.33285e-15
1.68013e-14
3.46414e-15
7.20233e-15
1.37162e-15
2.75841e-15
4.61019e-16
8.73796e-16
1.62708e-16
2.6383e-16
6.74045e-17
8.5555e-17
3.33881e-17
3.16606e-17
1.35736e-17
1.71672e-06
-3.79372e-05
3.29015e-06
-3.73107e-05
4.74379e-06
-3.39256e-05
6.09424e-06
-3.12131e-05
7.35217e-06
-2.90943e-05
8.53012e-06
-2.74805e-05
9.64146e-06
-2.63072e-05
1.06992e-05
-2.5517e-05
1.17154e-05
-2.50577e-05
1.27001e-05
-2.48822e-05
1.36616e-05
-2.49489e-05
1.46062e-05
-2.52218e-05
1.55375e-05
-2.56701e-05
1.6457e-05
-2.62669e-05
1.7364e-05
-2.69878e-05
1.82555e-05
-2.78092e-05
1.91267e-05
-2.87051e-05
1.99714e-05
-2.96439e-05
2.0783e-05
-3.0585e-05
2.15556e-05
-3.14751e-05
2.22865e-05
-3.22441e-05
2.29773e-05
-3.28021e-05
2.36372e-05
-3.30339e-05
2.42843e-05
-3.27945e-05
1.71356e-05
-3.02607e-05
3.6622e-07
-1.0092e-05
4.53129e-08
-6.42075e-07
3.31559e-09
-5.39513e-08
0
-4.65427e-10
0
6.05125e-10
0
1.53778e-10
0
2.93671e-11
0
5.09637e-12
0
8.63775e-13
1.25773e-15
1.54474e-13
6.86198e-15
3.21554e-14
4.3979e-15
1.13681e-14
2.008e-15
4.51513e-15
6.65088e-16
1.49117e-15
1.90901e-16
4.11708e-16
5.84067e-17
1.09321e-16
2.06215e-17
3.06169e-17
8.63207e-18
9.54723e-18
3.42537e-18
1.64998e-06
-3.95872e-05
3.15995e-06
-3.88207e-05
4.56334e-06
-3.5329e-05
5.87406e-06
-3.25239e-05
7.10059e-06
-3.03208e-05
8.25337e-06
-2.86333e-05
9.34372e-06
-2.73975e-05
1.03828e-05
-2.65561e-05
1.1381e-05
-2.60559e-05
1.23472e-05
-2.58484e-05
1.32887e-05
-2.58903e-05
1.42106e-05
-2.61438e-05
1.51165e-05
-2.6576e-05
1.60075e-05
-2.71579e-05
1.68829e-05
-2.78632e-05
1.774e-05
-2.86663e-05
1.85746e-05
-2.95397e-05
1.93814e-05
-3.04507e-05
2.01548e-05
-3.13584e-05
2.08901e-05
-3.22104e-05
2.15853e-05
-3.29393e-05
2.22425e-05
-3.34593e-05
2.28698e-05
-3.36612e-05
2.34822e-05
-3.34069e-05
1.47859e-05
-2.97967e-05
2.92671e-07
-8.14437e-06
3.31613e-08
-5.08051e-07
1.93952e-09
-3.77369e-08
0
9.43797e-11
0
4.47611e-10
0
1.03293e-10
0
1.86844e-11
0
3.13947e-12
0
5.21524e-13
2.51053e-15
9.20791e-14
5.30537e-15
1.96304e-14
3.00033e-15
7.5169e-15
1.13005e-15
2.75043e-15
3.16453e-16
7.92745e-16
8.06402e-17
1.96032e-16
2.17721e-17
4.68764e-17
6.57237e-18
1.1562e-17
2.29974e-18
3.07631e-18
9.20361e-19
1.58512e-06
-4.11723e-05
3.03315e-06
-4.02687e-05
4.38661e-06
-3.66824e-05
5.65689e-06
-3.37941e-05
6.85058e-06
-3.15145e-05
7.97635e-06
-2.9759e-05
9.0438e-06
-2.8465e-05
1.00625e-05
-2.75748e-05
1.10413e-05
-2.70347e-05
1.1988e-05
-2.6795e-05
1.29088e-05
-2.68111e-05
1.38085e-05
-2.70434e-05
1.46897e-05
-2.74573e-05
1.55536e-05
-2.80218e-05
1.63995e-05
-2.87091e-05
1.72249e-05
-2.94918e-05
1.80262e-05
-3.03409e-05
1.87987e-05
-3.12232e-05
1.95378e-05
-3.20975e-05
2.02397e-05
-3.29123e-05
2.09029e-05
-3.36024e-05
2.15295e-05
-3.40859e-05
2.21269e-05
-3.42585e-05
2.27079e-05
-3.39879e-05
1.251e-05
-2.9095e-05
2.29921e-07
-6.42854e-06
2.36588e-08
-3.95841e-07
9.71399e-10
-2.57217e-08
0
3.07355e-10
0
3.23977e-10
0
6.87861e-11
0
1.19347e-11
0
1.94511e-12
0
3.17841e-13
3.30422e-15
5.50421e-14
3.78545e-15
1.32191e-14
1.89217e-15
4.92024e-15
6.0714e-16
1.61276e-15
1.4933e-16
4.14725e-16
3.47163e-17
9.38904e-17
8.43177e-18
2.06151e-17
2.20998e-18
4.57903e-18
6.49263e-19
1.06326e-18
2.68493e-19
1.52169e-06
-4.2694e-05
2.90908e-06
-4.16561e-05
4.21293e-06
-3.79863e-05
5.44219e-06
-3.50234e-05
6.60184e-06
-3.26741e-05
7.69899e-06
-3.08562e-05
8.74176e-06
-2.95077e-05
9.73833e-06
-2.85714e-05
1.06963e-05
-2.79927e-05
1.16224e-05
-2.77212e-05
1.25221e-05
-2.77108e-05
1.33993e-05
-2.79206e-05
1.42564e-05
-2.83144e-05
1.50943e-05
-2.88597e-05
1.59122e-05
-2.9527e-05
1.67081e-05
-3.02876e-05
1.74786e-05
-3.11115e-05
1.82198e-05
-3.19644e-05
1.89277e-05
-3.28054e-05
1.95992e-05
-3.35838e-05
2.02332e-05
-3.42364e-05
2.08318e-05
-3.46846e-05
2.14016e-05
-3.48283e-05
2.19541e-05
-3.45404e-05
1.03411e-05
-2.81477e-05
1.77749e-07
-4.9452e-06
1.63356e-08
-3.02934e-07
3.95128e-10
-1.70183e-08
0
3.71266e-10
0
2.29773e-10
0
4.54151e-11
0
7.60607e-12
0
1.2057e-12
0
1.93987e-13
4.21273e-15
3.27366e-14
2.73035e-15
9.31679e-15
1.13316e-15
3.23853e-15
3.15351e-16
9.34744e-16
7.00915e-17
2.16102e-16
1.51405e-17
4.52557e-17
3.36669e-18
9.2299e-18
7.83236e-19
1.88031e-18
1.96727e-19
3.90844e-19
5.55237e-20
8.53297e-20
2.04858e-20
1.45937e-06
-4.41533e-05
2.78724e-06
-4.29839e-05
4.04176e-06
-3.92408e-05
5.22955e-06
-3.62112e-05
6.35411e-06
-3.37987e-05
7.42123e-06
-3.19233e-05
8.43776e-06
-3.05243e-05
9.41065e-06
-2.95443e-05
1.03464e-05
-2.89285e-05
1.12509e-05
-2.86256e-05
1.21286e-05
-2.85885e-05
1.29831e-05
-2.87751e-05
1.38163e-05
-2.91476e-05
1.4629e-05
-2.96723e-05
1.54202e-05
-3.03183e-05
1.61883e-05
-3.10557e-05
1.69301e-05
-3.18533e-05
1.76423e-05
-3.26766e-05
1.83215e-05
-3.34846e-05
1.8965e-05
-3.42273e-05
1.95721e-05
-3.48435e-05
2.01448e-05
-3.52573e-05
2.06891e-05
-3.53725e-05
2.12156e-05
-3.50669e-05
8.28497e-06
-2.69454e-05
1.34035e-07
-3.70676e-06
1.06444e-08
-2.27373e-07
2.81505e-11
-1.08954e-08
0
3.5484e-10
0
1.59393e-10
0
2.98508e-11
0
4.82226e-12
0
7.47021e-13
6.45942e-16
1.18758e-13
3.61683e-15
1.99385e-14
1.93735e-15
6.34669e-15
6.74109e-16
2.09276e-15
1.62106e-16
5.37484e-16
3.30273e-17
1.13048e-16
6.67884e-18
2.2031e-17
1.37498e-18
4.19581e-18
2.89743e-19
7.92927e-19
6.38796e-20
1.50575e-19
1.52851e-20
2.92407e-20
6.04453e-21
1.39796e-06
-4.55513e-05
2.66728e-06
-4.42533e-05
3.8727e-06
-4.04462e-05
5.01861e-06
-3.73571e-05
6.10719e-06
-3.48873e-05
7.14308e-06
-3.29592e-05
8.13198e-06
-3.15132e-05
9.07979e-06
-3.04921e-05
9.99211e-06
-2.98408e-05
1.08738e-05
-2.95073e-05
1.1729e-05
-2.94437e-05
1.25604e-05
-2.96065e-05
1.33698e-05
-2.9957e-05
1.41577e-05
-3.04602e-05
1.49232e-05
-3.10839e-05
1.56647e-05
-3.17971e-05
1.63795e-05
-3.25681e-05
1.70646e-05
-3.33617e-05
1.7717e-05
-3.4137e-05
1.83346e-05
-3.48449e-05
1.89168e-05
-3.54257e-05
1.94654e-05
-3.58059e-05
1.99858e-05
-3.5893e-05
2.04885e-05
-3.55696e-05
6.37123e-06
-2.54924e-05
9.8511e-08
-2.70828e-06
6.64699e-09
-1.66977e-07
0
-6.75816e-09
0
3.02913e-10
0
1.08485e-10
0
1.94744e-11
0
3.05607e-12
0
4.64245e-13
1.37254e-15
7.29762e-14
2.65179e-15
1.26929e-14
1.29348e-15
4.1868e-15
3.87709e-16
1.29036e-15
8.24826e-17
3.00789e-16
1.5654e-17
5.87524e-17
2.9774e-18
1.0769e-17
5.71275e-19
1.9271e-18
1.1067e-19
3.40559e-19
2.19388e-20
5.99302e-20
4.56647e-21
1.06034e-20
1.93332e-21
1.33736e-06
-4.68887e-05
2.54896e-06
-4.54649e-05
3.70545e-06
-4.16027e-05
4.80911e-06
-3.84608e-05
5.86094e-06
-3.59391e-05
6.86454e-06
-3.39628e-05
7.8246e-06
-3.24732e-05
8.74611e-06
-3.14136e-05
9.6338e-06
-3.07285e-05
1.04919e-05
-3.03654e-05
1.13237e-05
-3.02755e-05
1.21317e-05
-3.04145e-05
1.29173e-05
-3.07426e-05
1.36807e-05
-3.12236e-05
1.44212e-05
-3.18244e-05
1.51372e-05
-3.25131e-05
1.58262e-05
-3.32571e-05
1.64856e-05
-3.40211e-05
1.7113e-05
-3.47643e-05
1.77063e-05
-3.54383e-05
1.82653e-05
-3.59847e-05
1.87914e-05
-3.6332e-05
1.92896e-05
-3.63911e-05
1.97689e-05
-3.60488e-05
4.6439e-06
-2.38314e-05
7.05623e-08
-1.91092e-06
3.78093e-09
-1.19352e-07
0
-4.11907e-09
0
2.39175e-10
0
7.30949e-11
0
1.2664e-11
0
1.94373e-12
0
2.90398e-13
1.85198e-15
4.46705e-14
1.86072e-15
8.70879e-15
7.98617e-16
2.75358e-15
2.10737e-16
7.64382e-16
4.10094e-17
1.62847e-16
7.38565e-18
2.99769e-17
1.33124e-18
5.22304e-18
2.3969e-19
8.85318e-19
4.31691e-20
1.47462e-19
7.84297e-21
2.43053e-20
1.45904e-21
3.98705e-21
6.58673e-22
1.27751e-06
-4.81662e-05
2.43207e-06
-4.66194e-05
3.53973e-06
-4.27104e-05
4.6008e-06
-3.95218e-05
5.61521e-06
-3.69535e-05
6.58561e-06
-3.49332e-05
7.5158e-06
-3.34034e-05
8.40992e-06
-3.23077e-05
9.27197e-06
-3.15906e-05
1.01055e-05
-3.11989e-05
1.09133e-05
-3.10833e-05
1.16975e-05
-3.11987e-05
1.24592e-05
-3.15042e-05
1.31984e-05
-3.19628e-05
1.39143e-05
-3.25404e-05
1.46056e-05
-3.32043e-05
1.52699e-05
-3.39215e-05
1.5905e-05
-3.46562e-05
1.65085e-05
-3.53679e-05
1.70791e-05
-3.60089e-05
1.76163e-05
-3.65219e-05
1.81215e-05
-3.68373e-05
1.85991e-05
-3.68687e-05
1.90495e-05
-3.64993e-05
3.13955e-06
-2.1867e-05
4.79305e-08
-1.32365e-06
1.70035e-09
-8.40784e-08
0
-2.52642e-09
0
1.82866e-10
0
4.96348e-11
0
8.32721e-12
0
1.24884e-12
0
1.83348e-13
2.39223e-15
2.73198e-14
1.31925e-15
6.20436e-15
4.73385e-16
1.8226e-15
1.10023e-16
4.46461e-16
1.98803e-17
8.65676e-17
3.43394e-18
1.50387e-17
5.90541e-19
2.49802e-18
1.00523e-19
4.03137e-19
1.69925e-20
6.3704e-20
2.87004e-21
9.91575e-21
4.8817e-22
1.52639e-21
2.33519e-22
1.21829e-06
-4.93845e-05
2.31639e-06
-4.77175e-05
3.37528e-06
-4.37693e-05
4.39346e-06
-4.054e-05
5.36986e-06
-3.79299e-05
6.30627e-06
-3.58696e-05
7.20568e-06
-3.43028e-05
8.07148e-06
-3.31735e-05
8.907e-06
-3.24261e-05
9.7152e-06
-3.20071e-05
1.04985e-05
-3.18666e-05
1.12584e-05
-3.19587e-05
1.1996e-05
-3.22417e-05
1.27111e-05
-3.26779e-05
1.34029e-05
-3.32322e-05
1.407e-05
-3.38714e-05
1.47105e-05
-3.45619e-05
1.53221e-05
-3.52678e-05
1.5903e-05
-3.59488e-05
1.64519e-05
-3.65578e-05
1.69687e-05
-3.70386e-05
1.74546e-05
-3.73233e-05
1.79135e-05
-3.73276e-05
1.82879e-05
-3.68737e-05
1.84481e-06
-1.96735e-05
3.10264e-08
-9.23256e-07
6.41364e-10
-5.97699e-08
0
-1.58294e-09
0
1.41059e-10
0
3.47032e-11
0
5.59162e-12
0
8.12958e-13
0
1.16737e-13
2.07747e-15
1.68929e-14
9.35489e-16
4.34212e-15
2.78146e-16
1.19107e-15
5.61317e-17
2.57317e-16
9.48636e-18
4.56083e-17
1.57138e-18
7.46361e-18
2.58155e-19
1.17865e-18
4.17577e-20
1.81196e-19
6.67419e-21
2.72525e-20
1.05895e-21
4.02733e-21
1.67458e-22
5.86357e-22
8.42641e-23
1.15954e-06
-5.0544e-05
2.20163e-06
-4.87596e-05
3.21181e-06
-4.47794e-05
4.18683e-06
-4.1515e-05
5.12472e-06
-3.88678e-05
6.02646e-06
-3.67714e-05
6.89432e-06
-3.51707e-05
7.73098e-06
-3.40102e-05
8.53919e-06
-3.32343e-05
9.32138e-06
-3.27893e-05
1.00795e-05
-3.26247e-05
1.08149e-05
-3.26941e-05
1.15282e-05
-3.2955e-05
1.22192e-05
-3.33689e-05
1.28871e-05
-3.39002e-05
1.35306e-05
-3.45149e-05
1.41478e-05
-3.51791e-05
1.47368e-05
-3.58568e-05
1.52959e-05
-3.65078e-05
1.5824e-05
-3.7086e-05
1.63214e-05
-3.75359e-05
1.67892e-05
-3.77911e-05
1.72309e-05
-3.77693e-05
1.72125e-05
-3.68552e-05
8.45571e-07
-1.73519e-05
1.99925e-08
-7.20411e-07
2.33765e-10
-4.38977e-08
0
-1.00402e-09
0
1.11335e-10
0
2.50584e-11
0
3.82984e-12
0
5.34377e-13
5.0927e-16
7.45059e-14
1.54678e-15
1.07436e-14
6.29633e-16
2.91154e-15
1.58046e-16
7.40512e-16
2.81347e-17
1.43872e-16
4.47571e-18
2.36475e-17
7.08089e-19
3.65444e-18
1.10908e-19
5.47875e-19
1.70792e-20
8.0163e-20
2.59256e-21
1.14858e-20
3.89103e-22
1.6159e-21
5.78472e-23
2.23557e-22
3.04267e-23
1.10105e-06
-5.16451e-05
2.08753e-06
-4.97461e-05
3.04905e-06
-4.5741e-05
3.98069e-06
-4.24467e-05
4.87963e-06
-3.97667e-05
5.74613e-06
-3.76378e-05
6.58174e-06
-3.60063e-05
7.38857e-06
-3.4817e-05
8.16877e-06
-3.40145e-05
8.92431e-06
-3.35449e-05
9.65677e-06
-3.33572e-05
1.03672e-05
-3.34045e-05
1.1056e-05
-3.36438e-05
1.17229e-05
-3.40359e-05
1.23672e-05
-3.45444e-05
1.29873e-05
-3.51351e-05
1.35818e-05
-3.57735e-05
1.41487e-05
-3.64237e-05
1.46866e-05
-3.70458e-05
1.51947e-05
-3.75941e-05
1.56732e-05
-3.80144e-05
1.61233e-05
-3.82412e-05
1.65481e-05
-3.81941e-05
1.40025e-05
-3.67913e-05
2.84644e-07
-1.51199e-05
1.43671e-08
-5.96592e-07
1.12465e-10
-3.2714e-08
0
-6.197e-10
0
8.80355e-11
0
1.8154e-11
0
2.63044e-12
0
3.51027e-13
7.44637e-16
4.72935e-14
1.04973e-15
7.02174e-15
3.8836e-16
1.86201e-15
8.45772e-17
4.31559e-16
1.3687e-17
7.67357e-17
2.07074e-18
1.18782e-17
3.127e-19
1.74532e-18
4.6646e-20
2.49018e-19
6.84262e-21
3.47086e-20
9.88809e-22
4.74162e-21
1.40985e-22
6.36099e-22
1.98432e-23
8.38553e-23
1.08589e-23
1.04268e-06
-5.26877e-05
1.97386e-06
-5.06773e-05
2.88676e-06
-4.66539e-05
3.77482e-06
-4.33348e-05
4.63443e-06
-4.06264e-05
5.46516e-06
-3.84686e-05
6.26795e-06
-3.68091e-05
7.0443e-06
-3.55934e-05
7.79587e-06
-3.47661e-05
8.52421e-06
-3.42732e-05
9.23053e-06
-3.40635e-05
9.91562e-06
-3.40896e-05
1.05797e-05
-3.43079e-05
1.12225e-05
-3.46786e-05
1.18431e-05
-3.5165e-05
1.24402e-05
-3.57322e-05
1.30121e-05
-3.63455e-05
1.35574e-05
-3.69689e-05
1.40747e-05
-3.7563e-05
1.45632e-05
-3.80826e-05
1.50233e-05
-3.84744e-05
1.54559e-05
-3.86739e-05
1.58636e-05
-3.86017e-05
1.19012e-05
-3.69976e-05
1.55262e-07
-1.31169e-05
1.09522e-08
-4.93717e-07
4.99142e-11
-2.42727e-08
0
-3.62875e-10
0
6.75764e-11
0
1.28366e-11
0
1.77308e-12
0
2.27281e-13
9.82561e-16
2.94677e-14
6.92628e-16
4.77997e-15
2.19638e-16
1.1649e-15
4.22327e-17
2.39331e-16
6.38051e-18
3.90803e-17
9.27223e-19
5.73508e-18
1.33996e-19
8.0477e-19
1.90645e-20
1.09635e-19
2.66747e-21
1.45897e-20
3.67624e-22
1.90343e-21