/*--------------------------------*- C++ -*----------------------------------*\
  =========                 |
  \\      /  F ield         | OpenFOAM: The Open Source CFD Toolbox
   \\    /   O peration     | Website:  https://openfoam.org
    \\  /    A nd           | Version:  9
     \\/     M anipulation  |
\*---------------------------------------------------------------------------*/
FoamFile
{
    format      ascii;
    class       volScalarField;
    location    "0.1";
    object      k;
}
// * * * * * * * * * * * * * * * * * * * * * * * * * * * * * * * * * * * * * //

dimensions      [0 2 -2 0 0 0 0];

internalField   nonuniform List<scalar> 
1935
(
0.0105532
0.0153299
0.0198507
0.0230133
0.0252575
0.0268932
0.0281202
0.0290756
0.0298568
0.0305348
0.0311621
0.0317793
0.0324194
0.0331112
0.0338822
0.034761
0.035778
0.0369652
0.0383525
0.0399603
0.0417849
0.0437785
0.0458299
0.0477496
0.0492793
0.050137
0.0500961
0.049044
0.0470995
0.0450144
0.043053
0.0414318
0.0403435
0.0399378
0.0399946
0.0391791
0.0370581
0.0348069
0.0325059
0.0301757
0.027724
0.025215
0.0226891
0.0198889
0.0154389
0.0310599
0.0400128
0.0459037
0.0499511
0.0528177
0.0549135
0.0565081
0.0577858
0.0588759
0.0598726
0.0608481
0.0618616
0.0629662
0.0642134
0.0656557
0.0673471
0.0693382
0.071666
0.0743347
0.077287
0.0803692
0.0833038
0.0856893
0.0870648
0.0870639
0.0856265
0.0831141
0.0799524
0.0763466
0.0731802
0.0710332
0.0701498
0.0701129
0.0698992
0.0684413
0.0642915
0.0589923
0.0557762
0.0537314
0.0509811
0.0478202
0.0447329
0.0409756
0.0183848
0.0379843
0.0487257
0.0556634
0.0604246
0.063823
0.0663413
0.068292
0.0698864
0.0712721
0.0725566
0.0738229
0.0751399
0.0765701
0.0781738
0.080011
0.0821392
0.0846056
0.0874314
0.0905875
0.0939625
0.0973294
0.100328
0.102492
0.103351
0.102645
0.100573
0.097808
0.0950615
0.0926574
0.0909032
0.0900988
0.0904189
0.0917683
0.092874
0.0914251
0.0867682
0.0804127
0.0747845
0.0705219
0.0663504
0.0622559
0.0585914
0.0542074
0.02031
0.042187
0.0539468
0.0614226
0.0665301
0.0701899
0.072929
0.0750801
0.0768656
0.0784394
0.0799135
0.0813745
0.0828944
0.0845381
0.0863675
0.0884414
0.0908112
0.0935111
0.0965393
0.0998328
0.103238
0.106484
0.109183
0.11088
0.111178
0.109968
0.107658
0.105055
0.102869
0.101498
0.101281
0.102315
0.104243
0.107203
0.110969
0.11175
0.104778
0.0927887
0.0829877
0.0769824
0.072857
0.0695487
0.0665926
0.0625762
0.0216414
0.0449681
0.0573995
0.0652114
0.0705193
0.0743253
0.0771903
0.0794607
0.0813644
0.0830577
0.0846536
0.0862389
0.0878853
0.0896565
0.0916112
0.0938018
0.0962695
0.0990316
0.102064
0.105277
0.108492
0.111427
0.113709
0.114945
0.114846
0.113449
0.111284
0.109132
0.107629
0.107292
0.108483
0.11051
0.113171
0.116934
0.120271
0.118423
0.108397
0.094688
0.084476
0.0789142
0.0757055
0.073469
0.0714821
0.0681958
0.0226144
0.0468938
0.0597953
0.0678384
0.0732746
0.077167
0.0801035
0.0824416
0.0844127
0.0861741
0.0878381
0.08949
0.0911993
0.0930258
0.0950224
0.097233
0.0996866
0.102385
0.105286
0.108286
0.111198
0.113758
0.115641
0.116539
0.116279
0.115015
0.113309
0.111788
0.110927
0.1113
0.112802
0.114888
0.118054
0.12113
0.121316
0.115929
0.104957
0.0931368
0.0848804
0.0803594
0.0778554
0.0763173
0.0750453
0.0724693
0.0233599
0.048274
0.0615107
0.0697183
0.0752411
0.0791855
0.0821602
0.0845317
0.0865342
0.0883251
0.0900155
0.0916883
0.0934093
0.0952335
0.0972071
0.0993649
0.101725
0.104276
0.106967
0.109688
0.112268
0.114473
0.11605
0.116786
0.116615
0.115774
0.114781
0.114021
0.113651
0.113986
0.115263
0.117658
0.120135
0.120676
0.117857
0.111018
0.101357
0.0921847
0.0858293
0.0821453
0.0800658
0.0789194
0.0781451
0.0762526
0.0239544
0.0492949
0.0627701
0.0710935
0.0766744
0.0806487
0.0836402
0.086022
0.0880307
0.0898233
0.0915092
0.0931684
0.0948629
0.0966427
0.0985469
0.100603
0.102819
0.105178
0.107625
0.110059
0.112332
0.11426
0.115663
0.116427
0.116577
0.116414
0.116352
0.116498
0.116609
0.116784
0.118188
0.120181
0.120752
0.118718
0.113993
0.106983
0.0989775
0.0919567
0.0870436
0.0840325
0.0823025
0.0814779
0.0811923
0.0801545
0.0244448
0.050073
0.063716
0.0721172
0.0777341
0.0817225
0.0847162
0.087093
0.0890906
0.0908656
0.0925253
0.094147
0.095789
0.0974961
0.0993022
0.101228
0.103278
0.105431
0.107638
0.109813
0.111841
0.113595
0.114972
0.115944
0.116617
0.117327
0.118374
0.119644
0.12035
0.120545
0.121856
0.122569
0.120964
0.11693
0.111158
0.104424
0.0977381
0.0921943
0.0882848
0.0858185
0.0844462
0.0840106
0.0843786
0.0846713
0.0248609
0.0506833
0.0644415
0.0728904
0.0785256
0.0825159
0.0855013
0.0878624
0.0898375
0.0915823
0.093202
0.0947712
0.0963448
0.0979638
0.0996577
0.101444
0.103324
0.105281
0.107275
0.109244
0.111109
0.112803
0.114292
0.115627
0.116977
0.118684
0.120945
0.123534
0.12484
0.125148
0.125854
0.124726
0.121075
0.115626
0.109352
0.103006
0.0972656
0.0926893
0.0894608
0.0874297
0.0864229
0.0864587
0.0876947
0.0901166
0.0252234
0.051177
0.0650121
0.0734852
0.0791241
0.0831065
0.0860758
0.0884141
0.0903595
0.0920662
0.0936378
0.0951464
0.0966438
0.0981681
0.0997465
0.101395
0.103117
0.104902
0.106724
0.108548
0.110337
0.112076
0.1138
0.115621
0.117755
0.120521
0.124015
0.127909
0.129795
0.130368
0.129861
0.126619
0.121194
0.114777
0.1083
0.102332
0.0972561
0.0933196
0.0905592
0.0888701
0.0881995
0.0887006
0.0907871
0.0952564
0.0255493
0.0515895
0.0654712
0.0739485
0.0795782
0.0835438
0.0864905
0.0888006
0.0907114
0.0923758
0.0938953
0.0953397
0.0967588
0.0981889
0.0996561
0.101177
0.102761
0.104405
0.106104
0.107848
0.109643
0.111524
0.113584
0.115982
0.118967
0.122824
0.127542
0.1326
0.135329
0.136041
0.13377
0.128367
0.121453
0.114352
0.107806
0.102147
0.0975317
0.0940227
0.091586
0.0901531
0.0897422
0.0905688
0.0931087
0.0981447
0.0258459
0.0519414
0.0658459
0.074311
0.0799201
0.0838611
0.0867798
0.0890578
0.0909314
0.0925517
0.0940182
0.0953992
0.0967428
0.0980844
0.0994507
0.100862
0.102332
0.103872
0.105496
0.107223
0.109096
0.111198
0.113666
0.116703
0.120576
0.125541
0.131527
0.137827
0.14167
0.142077
0.137667
0.130176
0.121968
0.114323
0.107728
0.102289
0.0979858
0.094764
0.0925512
0.0912979
0.0910516
0.0920219
0.0946082
0.0993493
0.0261198
0.0522489
0.0661577
0.0745972
0.0801761
0.0840855
0.0869715
0.0892146
0.0910494
0.0926254
0.0940405
0.0953612
0.0966348
0.0978968
0.0991756
0.100495
0.101879
0.103352
0.104945
0.106709
0.10872
0.111102
0.114032
0.117745
0.122528
0.128627
0.135972
0.143711
0.148731
0.148323
0.141613
0.132152
0.122776
0.114634
0.10796
0.102652
0.0985509
0.0955216
0.0934621
0.0923262
0.0921622
0.0931448
0.0955765
0.0998288
0.0263759
0.0525236
0.0664226
0.0748258
0.0803661
0.0842381
0.0870873
0.0892931
0.0910886
0.0926213
0.0939875
0.0952526
0.0964635
0.0976563
0.0988623
0.100111
0.101435
0.102872
0.104475
0.10632
0.108516
0.111221
0.114648
0.119059
0.124769
0.13203
0.140832
0.15017
0.156224
0.154528
0.145534
0.134266
0.123828
0.115208
0.10841
0.103156
0.0991777
0.0962747
0.0943175
0.093251
0.0931087
0.0940238
0.0962173
0.0999476
0.0266175
0.052774
0.0666523
0.0750109
0.0805061
0.0843355
0.0871445
0.0893112
0.0910671
0.092558
0.0938788
0.0950938
0.0962498
0.0973845
0.0985324
0.0997291
0.101016
0.102447
0.104092
0.106053
0.108468
0.111526
0.115471
0.120595
0.12724
0.135686
0.146015
0.157007
0.16377
0.160426
0.149279
0.13641
0.125028
0.115952
0.108994
0.103739
0.099826
0.0970022
0.0951098
0.0940762
0.0939128
0.0947103
0.0966203
0.099806
0.0268473
0.0530062
0.0668558
0.0751637
0.0806084
0.0843912
0.0871571
0.0892832
0.0909997
0.0924506
0.0937295
0.0948999
0.0960091
0.0970964
0.0982
0.0993618
0.100633
0.102081
0.103795
0.105898
0.108556
0.111986
0.116462
0.122303
0.129887
0.139532
0.151409
0.164012
0.171003
0.165784
0.152689
0.13846
0.126269
0.116774
0.109642
0.104348
0.100462
0.0976837
0.0958284
0.0948013
0.0945868
0.0952343
0.0968325
0.0994562
0.027067
0.0532248
0.0670397
0.0752924
0.080683
0.0844159
0.0871365
0.0892211
0.0908984
0.0923111
0.0935516
0.094683
0.0957528
0.0968025
0.0978741
0.0990161
0.100289
0.101774
0.103577
0.105842
0.108759
0.112572
0.117582
0.12414
0.132661
0.143506
0.156923
0.171072
0.177696
0.170459
0.155661
0.140317
0.127458
0.117599
0.110293
0.104941
0.101057
0.098302
0.096464
0.0954245
0.0951399
0.0956205
0.0969002
0.0989829
0.0272779
0.0534329
0.0672089
0.0754037
0.0807375
0.0844184
0.0870921
0.0891345
0.090773
0.0921493
0.0933547
0.0944519
0.0954893
0.0965102
0.0975606
0.0986955
0.0999848
0.101521
0.103428
0.105868
0.109054
0.113256
0.118799
0.12607
0.135519
0.147555
0.162508
0.178057
0.183702
0.174411
0.158154
0.14192
0.12853
0.118366
0.110903
0.105487
0.10159
0.0988441
0.0970102
0.0959465
0.0955823
0.0958936
0.0968701
0.0984689
0.0274809
0.053633
0.0673672
0.0755025
0.0807782
0.0844056
0.0870316
0.0890314
0.0906318
0.0919733
0.0931465
0.094214
0.0952247
0.0962244
0.0972628
0.0984011
0.0997182
0.101318
0.10334
0.105965
0.109426
0.114016
0.120089
0.128063
0.138423
0.151628
0.168086
0.184743
0.188919
0.177645
0.160167
0.143241
0.129444
0.119037
0.111439
0.105962
0.102047
0.0993024
0.0974649
0.0963712
0.0959262
0.096077
0.0967816
0.0979687
0.0276766
0.0538266
0.067517
0.0755924
0.0808094
0.0843831
0.0869609
0.0889182
0.0904812
0.0917895
0.0929332
0.0939747
0.094964
0.0959488
0.0969828
0.0981332
0.0994871
0.10116
0.103305
0.106119
0.109858
0.114835
0.121432
0.130097
0.141348
0.155684
0.17357
0.190938
0.193287
0.180189
0.161722
0.144279
0.13018
0.119586
0.111881
0.106352
0.102421
0.0996743
0.0978303
0.0967056
0.0961845
0.0961914
0.0966628
0.0975136
0.0986054
0.0278654
0.0540147
0.0676601
0.0756759
0.0808347
0.0843548
0.0868847
0.0888001
0.0903264
0.0916031
0.0927196
0.0937385
0.0947106
0.0956859
0.0967219
0.0978912
0.0992893
0.101042
0.103315
0.106324
0.11034
0.115702
0.122815
0.132157
0.144275
0.159697
0.178912
0.196528
0.196795
0.182105
0.162869
0.14505
0.130734
0.120003
0.112218
0.10665
0.102708
0.0999616
0.0981117
0.0969589
0.0963705
0.0962543
0.0965322
0.0971159
0.0978815
0.0280474
0.0541978
0.0677977
0.0757549
0.0808565
0.0843238
0.0868067
0.0886808
0.0901717
0.0914182
0.0925097
0.0935088
0.0944675
0.0954377
0.0964808
0.0976747
0.0991225
0.10096
0.103366
0.10657
0.110864
0.116606
0.124228
0.134236
0.147199
0.163665
0.184099
0.201478
0.199541
0.183508
0.163682
0.145589
0.131117
0.120289
0.112448
0.106857
0.102912
0.100169
0.0983169
0.0971415
0.0964969
0.096279
0.0964016
0.0967759
0.0972953
0.0282229
0.0543762
0.0679304
0.0758305
0.0808765
0.0842924
0.0867294
0.0885634
0.09002
0.0912379
0.0923063
0.0932882
0.0942365
0.0952055
0.0962599
0.0974831
0.0989853
0.100912
0.103454
0.106855
0.111425
0.117544
0.125666
0.136329
0.150121
0.167604
0.189149
0.205833
0.201712
0.18455
0.164245
0.145932
0.131343
0.120449
0.112575
0.106976
0.103038
0.100305
0.0984552
0.0972639
0.096575
0.0962759
0.0962761
0.0964897
0.0968235
0.028392
0.0545501
0.0680588
0.0759035
0.0808958
0.0842621
0.0866546
0.08845
0.0898738
0.0910646
0.0921117
0.0930786
0.0940193
0.0949902
0.0960597
0.097316
0.0988765
0.100896
0.103576
0.107175
0.112019
0.11851
0.127127
0.138435
0.153047
0.171539
0.194065
0.209655
0.20351
0.18536
0.164621
0.14611
0.131427
0.120491
0.112606
0.107015
0.103094
0.100378
0.0985363
0.0973363
0.0966145
0.0962527
0.0961583
0.0962493
0.0964436
0.0285547
0.0547197
0.0681831
0.0759745
0.0809152
0.084234
0.0865838
0.0883421
0.0897346
0.0908999
0.0919275
0.0928814
0.093817
0.0947927
0.0958803
0.0971731
0.0987952
0.10091
0.10373
0.107528
0.112646
0.119505
0.12861
0.140555
0.15598
0.175487
0.198785
0.212922
0.205026
0.185981
0.164826
0.146133
0.131379
0.120426
0.112551
0.106983
0.103089
0.100397
0.0985699
0.0973683
0.0966239
0.096215
0.0960487
0.0960467
0.096136
0.0287113
0.0548852
0.0683036
0.0760438
0.0809353
0.0842086
0.0865178
0.0882408
0.0896035
0.090745
0.0917549
0.0926978
0.0936304
0.0946135
0.0957221
0.0970545
0.0987412
0.100954
0.103917
0.107914
0.113304
0.120529
0.130116
0.142688
0.158915
0.179442
0.203208
0.215572
0.206212
0.186369
0.164841
0.145998
0.131205
0.120263
0.112419
0.106889
0.103033
0.100372
0.0985651
0.0973682
0.0966099
0.0961669
0.0959467
0.0958745
0.0958845
0.0288617
0.0550466
0.0684204
0.0761115
0.0809562
0.0841864
0.0864571
0.0881466
0.0894815
0.0906008
0.0915946
0.0925284
0.0934602
0.094453
0.0955853
0.0969602
0.0987146
0.101029
0.104136
0.108333
0.113996
0.121582
0.131645
0.144835
0.16185
0.183375
0.20732
0.217688
0.20701
0.186472
0.16464
0.145702
0.130913
0.120012
0.112221
0.106744
0.102935
0.100313
0.0985304
0.0973435
0.0965785
0.0961116
0.0958513
0.0957262
0.095676
0.029006
0.055204
0.0685336
0.0761777
0.0809781
0.0841676
0.0864019
0.0880601
0.0893688
0.0904677
0.0914472
0.0923738
0.0933069
0.0943118
0.0954706
0.0968909
0.0987161
0.101134
0.104388
0.108789
0.114723
0.12267
0.133203
0.146999
0.164784
0.187259
0.211267
0.219519
0.207474
0.186298
0.164229
0.145255
0.130513
0.119685
0.111968
0.106558
0.102806
0.100226
0.0984733
0.0973007
0.0965346
0.0960516
0.0957618
0.0955968
0.0955005
0.0291442
0.0553574
0.0686432
0.0762425
0.0810011
0.0841523
0.0863526
0.0879814
0.089266
0.0903462
0.0913133
0.0922346
0.0931711
0.0941906
0.0953785
0.0968474
0.0987468
0.101273
0.104677
0.109282
0.11549
0.123795
0.134794
0.149188
0.167728
0.191136
0.215177
0.221219
0.207725
0.185909
0.16364
0.144675
0.130019
0.119293
0.111671
0.106341
0.102652
0.100121
0.0984005
0.0972454
0.0964825
0.0959893
0.0956778
0.0954822
0.0953504
0.0292763
0.0555066
0.0687492
0.0763059
0.0810251
0.0841406
0.0863092
0.0879109
0.0891733
0.0902368
0.0911934
0.0921114
0.0930536
0.0940902
0.0953103
0.0968311
0.0988085
0.101446
0.105005
0.109818
0.116301
0.124965
0.136426
0.151409
0.170692
0.195027
0.219064
0.222873
0.20786
0.185365
0.162907
0.143983
0.129447
0.118849
0.111339
0.1061
0.102482
0.100003
0.0983179
0.0971828
0.0964259
0.0959268
0.0955992
0.0953801
0.0952202
0.0294024
0.0556518
0.0688516
0.0763678
0.0810502
0.0841326
0.086272
0.0878488
0.0890911
0.09014
0.0910881
0.092005
0.0929554
0.094012
0.0952674
0.096844
0.0989037
0.101658
0.105376
0.110403
0.117165
0.126188
0.138107
0.153668
0.173677
0.19892
0.222891
0.224462
0.207888
0.184684
0.162046
0.143194
0.128809
0.118364
0.110982
0.105845
0.102303
0.0998789
0.0982309
0.0971172
0.0963684
0.095866
0.0955264
0.0952886
0.0951062
0.0295224
0.0557929
0.0689504
0.0764284
0.0810766
0.0841284
0.0862412
0.0877955
0.08902
0.0900564
0.0909984
0.0919167
0.0928779
0.0939576
0.0952521
0.0968888
0.0990357
0.101912
0.105796
0.111043
0.118089
0.127476
0.139851
0.155978
0.176687
0.202802
0.226601
0.225899
0.207752
0.183844
0.16106
0.14232
0.128119
0.117849
0.11061
0.105582
0.102121
0.0997544
0.0981444
0.0970527
0.096313
0.0958092
0.0954601
0.095207
0.0950059
0.0296365
0.0559301
0.0690459
0.0764877
0.0811044
0.0841286
0.0862174
0.0877518
0.088961
0.0899874
0.0909257
0.0918482
0.0928234
0.0939298
0.0952675
0.0969692
0.0992092
0.102214
0.106272
0.111746
0.119086
0.128842
0.141674
0.158355
0.179733
0.20666
0.230124
0.227081
0.207373
0.182815
0.15995
0.141372
0.12739
0.117315
0.110231
0.105319
0.101942
0.0996346
0.0980629
0.0969933
0.0962628
0.0957584
0.0954013
0.095135
0.0949179
0.0297445
0.0560635
0.0691381
0.0765462
0.0811343
0.0841337
0.0862015
0.0877188
0.0889154
0.0899346
0.0908722
0.0918021
0.0927949
0.0939321
0.095318
0.0970902
0.0994298
0.102571
0.106811
0.112523
0.120167
0.130303
0.143597
0.160825
0.182835
0.210492
0.233374
0.227899
0.206685
0.181582
0.158727
0.140371
0.126639
0.116777
0.109857
0.105065
0.101774
0.099525
0.097991
0.0969426
0.0962209
0.0957158
0.0953512
0.0950729
0.0948413
0.0298465
0.0561933
0.0692273
0.0766042
0.0811668
0.0841448
0.0861948
0.0876981
0.0888853
0.0899006
0.0908409
0.0917819
0.0927966
0.0939696
0.0954091
0.0972583
0.0997048
0.102991
0.107423
0.113385
0.121347
0.131878
0.145649
0.163424
0.186036
0.214323
0.236254
0.228256
0.205658
0.180164
0.157425
0.139346
0.125888
0.116249
0.109496
0.104826
0.101622
0.0994308
0.0979331
0.0969045
0.0961902
0.0956836
0.0953112
0.0950212
0.0947758
0.0299423
0.0563195
0.0693135
0.0766623
0.081203
0.0841633
0.0861991
0.0876922
0.0888736
0.0898888
0.090836
0.0917928
0.0928346
0.094049
0.0955487
0.0974821
0.100044
0.103484
0.108119
0.114343
0.122641
0.133588
0.147859
0.166202
0.189407
0.218219
0.23869
0.228121
0.204342
0.178636
0.156106
0.138337
0.125161
0.115746
0.109161
0.104613
0.101493
0.0993578
0.097894
0.0968828
0.0961737
0.0956639
0.0952826
0.0949805
0.0947213
0.0300319
0.0564418
0.069397
0.0767212
0.0812442
0.0841911
0.086217
0.0877041
0.0888843
0.0899041
0.0908634
0.0918416
0.0929166
0.0941794
0.0957468
0.0977726
0.100458
0.104062
0.10891
0.115411
0.124061
0.135451
0.150259
0.169217
0.193052
0.222304
0.240697
0.227601
0.202895
0.177129
0.154852
0.137388
0.124483
0.115283
0.108861
0.104432
0.101394
0.0993121
0.0978788
0.0968814
0.0961744
0.0956589
0.0952669
0.0949513
0.0946778
0.0301157
0.0565601
0.0694779
0.0767817
0.081292
0.0842307
0.0862521
0.0877386
0.0889231
0.0899534
0.0909311
0.0919376
0.0930534
0.0943727
0.0960166
0.0981441
0.100963
0.104739
0.109812
0.1166
0.125619
0.137478
0.152869
0.172519
0.197097
0.226727
0.242397
0.22697
0.201558
0.175787
0.153731
0.136532
0.12387
0.114872
0.108608
0.104294
0.101334
0.0993005
0.0978927
0.0969045
0.0961954
0.0956706
0.0952653
0.0949344
0.0946452
0.0301961
0.0566755
0.0695572
0.0768452
0.0813487
0.0842855
0.086309
0.0878016
0.0889974
0.0900456
0.0910496
0.092093
0.0932588
0.0946446
0.0963754
0.0986149
0.101577
0.105536
0.11084
0.117924
0.127322
0.139669
0.155689
0.176131
0.201651
0.23154
0.243832
0.226494
0.200511
0.174682
0.152761
0.13577
0.123325
0.114521
0.108411
0.104208
0.101322
0.0993304
0.0979416
0.0969562
0.0962395
0.095701
0.0952787
0.09493
0.0946235
0.0302791
0.0567897
0.0696364
0.0769138
0.0814175
0.0843603
0.0863941
0.0879015
0.0891174
0.0901928
0.0912329
0.0923237
0.093551
0.0950154
0.0968453
0.0992088
0.102325
0.106474
0.112015
0.119395
0.129172
0.142012
0.158684
0.180001
0.206707
0.236423
0.244698
0.226118
0.199672
0.173717
0.151871
0.135064
0.122838
0.114233
0.10828
0.104187
0.101367
0.0994097
0.0980311
0.0970404
0.0963092
0.0957513
0.0953079
0.0949382
0.0946124
0.0303788
0.0569107
0.069718
0.0769899
0.0815024
0.0844615
0.0865164
0.0880495
0.0892967
0.0904107
0.0914991
0.0926503
0.093953
0.0955106
0.0974546
0.0999562
0.103238
0.107585
0.113364
0.121034
0.131173
0.14448
0.16178
0.183978
0.211984
0.240726
0.244785
0.225465
0.198676
0.172633
0.150911
0.134351
0.122391
0.114015
0.108229
0.104243
0.101482
0.0995466
0.098167
0.0971608
0.0964066
0.0958225
0.0953529
0.0949588
0.0946106
0.0305286
0.0570584
0.0698174
0.0770832
0.0816124
0.0845995
0.0866887
0.0882609
0.0895529
0.0907194
0.0918707
0.0930983
0.0944936
0.0961627
0.0982392
0.100896
0.104357
0.10891
0.114924
0.122868
0.133332
0.147049
0.164891
0.187849
0.216952
0.244417
0.244587
0.224222
0.197088
0.171122
0.14973
0.133569
0.121971
0.113871
0.108269
0.104389
0.101675
0.0997491
0.0983543
0.0973202
0.0965328
0.0959147
0.0954134
0.0949903
0.0946176
0.0307814
0.0572609
0.0699569
0.0772145
0.0817666
0.0847939
0.0869315
0.0885575
0.0899092
0.091144
0.0923755
0.0936986
0.0952079
0.0970115
0.0992441
0.102079
0.105737
0.110505
0.11675
0.124941
)
;

boundaryField
{
    leftWall
    {
        type            kqRWallFunction;
        value           nonuniform List<scalar> 
44
(
0.0105532
0.0154389
0.0183848
0.02031
0.0216414
0.0226144
0.0233599
0.0239544
0.0244448
0.0248609
0.0252234
0.0255493
0.0258459
0.0261198
0.0263759
0.0266175
0.0268473
0.027067
0.0272779
0.0274809
0.0276766
0.0278654
0.0280474
0.0282229
0.028392
0.0285547
0.0287113
0.0288617
0.029006
0.0291442
0.0292763
0.0294024
0.0295224
0.0296365
0.0297445
0.0298465
0.0299423
0.0300319
0.0301157
0.0301961
0.0302791
0.0303788
0.0305286
0.0307814
)
;
    }
    rightWall
    {
        type            kqRWallFunction;
        value           nonuniform List<scalar> 0();
    }
    lowerWall
    {
        type            kqRWallFunction;
        value           nonuniform List<scalar> 
44
(
0.0105532
0.0153299
0.0198507
0.0230133
0.0252575
0.0268932
0.0281202
0.0290756
0.0298568
0.0305348
0.0311621
0.0317793
0.0324194
0.0331112
0.0338822
0.034761
0.035778
0.0369652
0.0383525
0.0399603
0.0417849
0.0437785
0.0458299
0.0477496
0.0492793
0.050137
0.0500961
0.049044
0.0470995
0.0450144
0.043053
0.0414318
0.0403435
0.0399378
0.0399946
0.0391791
0.0370581
0.0348069
0.0325059
0.0301757
0.027724
0.025215
0.0226891
0.0198889
)
;
    }
    atmosphere
    {
        type            inletOutlet;
        inletValue      nonuniform List<scalar> 0();
        value           nonuniform List<scalar> 0();
    }
    defaultFaces
    {
        type            empty;
    }
    procBoundary0to1
    {
        type            processor;
        value           nonuniform List<scalar> 
44
(
0.0168
0.03436
0.0461657
0.0541478
0.0599171
0.0645902
0.0690601
0.0743479
0.0817922
0.0931585
0.101775
0.104996
0.106449
0.106274
0.105441
0.104336
0.103052
0.101745
0.100538
0.0994876
0.0994876
0.0997208
0.0986611
0.0978278
0.0971723
0.0966554
0.0962448
0.0959151
0.0956468
0.095425
0.0952384
0.0950792
0.0949416
0.0948217
0.0947168
0.094625
0.0945454
0.0944772
0.0944198
0.0943727
0.0943353
0.0943071
0.0942867
0.0942735
)
;
    }
    procBoundary0to2
    {
        type            processor;
        value           nonuniform List<scalar> 
46
(
0.135677
0.149708
0.16795
0.191473
0.221409
0.247688
0.243999
0.22203
0.194575
0.168981
0.14821
0.132666
0.121562
0.113802
0.108406
0.104629
0.101951
0.100017
0.098592
0.097517
0.0966862
0.0960266
0.0954877
0.0950319
0.0946318
0.0311122
0.0576375
0.0701822
0.0774081
0.0819933
0.0850751
0.0872751
0.0889686
0.0903946
0.0917141
0.0930453
0.0944872
0.0961371
0.0981048
0.100525
0.103566
0.107447
0.112446
0.118919
0.135677
0.127328
)
;
    }
}


// ************************************************************************* //
