/*--------------------------------*- C++ -*----------------------------------*\
  =========                 |
  \\      /  F ield         | OpenFOAM: The Open Source CFD Toolbox
   \\    /   O peration     | Website:  https://openfoam.org
    \\  /    A nd           | Version:  9
     \\/     M anipulation  |
\*---------------------------------------------------------------------------*/
FoamFile
{
    format      ascii;
    class       surfaceScalarField;
    location    "0.1";
    object      phi;
}
// * * * * * * * * * * * * * * * * * * * * * * * * * * * * * * * * * * * * * //

dimensions      [0 3 -1 0 0 0 0];

internalField   nonuniform List<scalar> 
3781
(
4.05479e-07
-4.05479e-07
2.16515e-06
-1.75966e-06
4.6371e-06
-2.47195e-06
7.34747e-06
-2.71036e-06
1.00993e-05
-2.75185e-06
1.28154e-05
-2.71612e-06
1.5466e-05
-2.65061e-06
1.8045e-05
-2.57894e-06
2.05595e-05
-2.51447e-06
2.30242e-05
-2.46476e-06
2.54582e-05
-2.43403e-06
2.78829e-05
-2.4247e-06
3.03213e-05
-2.43838e-06
3.27978e-05
-2.47648e-06
3.53386e-05
-2.54078e-06
3.79724e-05
-2.63377e-06
4.07313e-05
-2.75891e-06
4.36516e-05
-2.92035e-06
4.6774e-05
-3.12238e-06
5.0142e-05
-3.368e-06
5.37964e-05
-3.65444e-06
5.77643e-05
-3.9679e-06
6.20425e-05
-4.27814e-06
6.65719e-05
-4.52945e-06
7.12019e-05
-4.62994e-06
7.56423e-05
-4.44041e-06
7.94311e-05
-3.78886e-06
8.18856e-05
-2.45441e-06
8.23389e-05
-4.53378e-07
8.06176e-05
1.72132e-06
7.77904e-05
2.82725e-06
7.50035e-05
2.78684e-06
7.32786e-05
1.72496e-06
7.35421e-05
-2.6356e-07
7.65801e-05
-3.038e-06
8.03817e-05
-3.80156e-06
7.94599e-05
9.21748e-07
7.14034e-05
8.05655e-06
5.95991e-05
1.18043e-05
4.74146e-05
1.21845e-05
3.64883e-05
1.09262e-05
2.69229e-05
9.56541e-06
1.82365e-05
8.68639e-06
8.03964e-06
1.54085e-06
-1.94632e-06
3.7107e-06
-3.92951e-06
6.02405e-06
-4.78531e-06
8.39724e-06
-5.08354e-06
1.0775e-05
-5.12956e-06
1.31248e-05
-5.06598e-06
1.5434e-05
-4.95981e-06
1.77023e-05
-4.84722e-06
1.99371e-05
-4.74925e-06
2.21505e-05
-4.67819e-06
2.43577e-05
-4.6412e-06
2.65757e-05
-4.64271e-06
2.88233e-05
-4.68598e-06
3.1121e-05
-4.77423e-06
3.34916e-05
-4.91138e-06
3.59605e-05
-5.10263e-06
3.85561e-05
-5.35456e-06
4.13102e-05
-5.67447e-06
4.42565e-05
-6.06865e-06
4.74273e-05
-6.53876e-06
5.08475e-05
-7.07466e-06
5.45244e-05
-7.6448e-06
5.84305e-05
-8.18428e-06
6.24802e-05
-8.57915e-06
6.65008e-05
-8.65049e-06
7.02069e-05
-8.1465e-06
7.32098e-05
-6.79173e-06
7.52277e-05
-4.47232e-06
7.63027e-05
-1.52846e-06
7.67208e-05
1.3033e-06
7.6559e-05
2.98907e-06
7.6167e-05
3.17881e-06
7.55235e-05
2.36846e-06
7.38383e-05
1.42164e-06
7.23349e-05
-1.53459e-06
7.32056e-05
-4.67227e-06
7.56322e-05
-1.50485e-06
7.59052e-05
7.78352e-06
6.89254e-05
1.87841e-05
5.7277e-05
2.38328e-05
4.53396e-05
2.28636e-05
3.44329e-05
2.04721e-05
2.44287e-05
1.86906e-05
1.74086e-05
2.26184e-06
-4.20816e-06
4.62798e-06
-6.29565e-06
6.83711e-06
-6.99444e-06
8.97485e-06
-7.22128e-06
1.10712e-05
-7.22591e-06
1.31329e-05
-7.12771e-06
1.5165e-05
-6.99184e-06
1.71744e-05
-6.85667e-06
1.91708e-05
-6.74565e-06
2.11656e-05
-6.67302e-06
2.3172e-05
-6.64752e-06
2.52042e-05
-6.67496e-06
2.72782e-05
-6.76e-06
2.94115e-05
-6.90749e-06
3.16234e-05
-7.12334e-06
3.39358e-05
-7.41494e-06
3.63722e-05
-7.79104e-06
3.89581e-05
-8.26037e-06
4.17182e-05
-8.82875e-06
4.4673e-05
-9.49347e-06
4.78322e-05
-1.02339e-05
5.11862e-05
-1.09987e-05
5.46908e-05
-1.16889e-05
5.82504e-05
-1.21388e-05
6.16985e-05
-1.20986e-05
6.47854e-05
-1.12334e-05
6.72077e-05
-9.21401e-06
6.87633e-05
-6.02797e-06
6.95734e-05
-2.33852e-06
7.01029e-05
7.73798e-07
7.07041e-05
2.38785e-06
7.14614e-05
2.42151e-06
7.20144e-05
1.81545e-06
7.10874e-05
2.3487e-06
6.82302e-05
1.3226e-06
6.47382e-05
-1.18034e-06
6.13628e-05
1.87064e-06
5.75956e-05
1.15507e-05
5.2846e-05
2.35337e-05
4.63621e-05
3.03167e-05
3.88517e-05
3.0374e-05
3.11192e-05
2.82045e-05
2.33096e-05
2.65003e-05
2.52266e-05
2.59791e-06
-6.80607e-06
5.09724e-06
-8.79499e-06
7.26575e-06
-9.16295e-06
9.25851e-06
-9.21404e-06
1.11593e-05
-9.12671e-06
1.30068e-05
-8.97522e-06
1.48231e-05
-8.80814e-06
1.6624e-05
-8.65758e-06
1.84229e-05
-8.54456e-06
2.02324e-05
-8.48252e-06
2.2065e-05
-8.48013e-06
2.39337e-05
-8.5436e-06
2.58521e-05
-8.67839e-06
2.78351e-05
-8.89047e-06
2.98988e-05
-9.1871e-06
3.2061e-05
-9.57711e-06
3.43402e-05
-1.00702e-05
3.6755e-05
-1.06752e-05
3.93216e-05
-1.13953e-05
4.205e-05
-1.22219e-05
4.49388e-05
-1.31228e-05
4.79672e-05
-1.40271e-05
5.10847e-05
-1.48064e-05
5.41998e-05
-1.52538e-05
5.71683e-05
-1.50671e-05
5.97875e-05
-1.38527e-05
6.18307e-05
-1.12572e-05
6.3201e-05
-7.39821e-06
6.4126e-05
-3.26359e-06
6.49322e-05
-3.23637e-08
6.59634e-05
1.35668e-06
6.68475e-05
1.53732e-06
6.64287e-05
2.23427e-06
6.48992e-05
3.87825e-06
6.11673e-05
5.05452e-06
5.50669e-05
4.9201e-06
4.82916e-05
8.64587e-06
4.23207e-05
1.75217e-05
3.8391e-05
2.74635e-05
3.54072e-05
3.33004e-05
3.16551e-05
3.41261e-05
2.68244e-05
3.30353e-05
2.1144e-05
3.21806e-05
3.15424e-05
2.72082e-06
-9.52689e-06
5.27157e-06
-1.13457e-05
7.41485e-06
-1.13062e-05
9.31745e-06
-1.11166e-05
1.10856e-05
-1.08949e-05
1.27779e-05
-1.06675e-05
1.44298e-05
-1.046e-05
1.60651e-05
-1.0293e-05
1.77019e-05
-1.01814e-05
1.93549e-05
-1.01354e-05
2.10368e-05
-1.01621e-05
2.27601e-05
-1.02669e-05
2.45369e-05
-1.04551e-05
2.63796e-05
-1.07332e-05
2.83015e-05
-1.1109e-05
3.03161e-05
-1.15917e-05
3.2437e-05
-1.21911e-05
3.46761e-05
-1.29143e-05
3.70421e-05
-1.37613e-05
3.95365e-05
-1.47164e-05
4.21497e-05
-1.5736e-05
4.4855e-05
-1.67324e-05
4.76027e-05
-1.75541e-05
5.03133e-05
-1.79645e-05
5.2872e-05
-1.76258e-05
5.51212e-05
-1.61019e-05
5.68961e-05
-1.30321e-05
5.81865e-05
-8.68858e-06
5.92207e-05
-4.29775e-06
6.01541e-05
-9.65753e-07
6.10176e-05
4.93149e-07
6.08739e-05
1.68106e-06
5.9217e-05
3.89118e-06
5.5949e-05
7.14625e-06
5.1005e-05
9.99849e-06
4.40567e-05
1.18684e-05
3.69054e-05
1.57972e-05
3.17989e-05
2.26281e-05
2.94607e-05
2.98016e-05
2.84081e-05
3.43531e-05
2.66969e-05
3.58373e-05
2.36612e-05
3.60709e-05
1.94448e-05
3.6397e-05
3.67933e-05
2.73266e-06
-1.22596e-05
5.26819e-06
-1.38813e-05
7.37896e-06
-1.3417e-05
9.21841e-06
-1.29561e-05
1.08948e-05
-1.25712e-05
1.24752e-05
-1.22479e-05
1.40033e-05
-1.19882e-05
1.55094e-05
-1.1799e-05
1.70151e-05
-1.16871e-05
1.85375e-05
-1.16578e-05
2.00903e-05
-1.17149e-05
2.16855e-05
-1.18621e-05
2.33343e-05
-1.21039e-05
2.50472e-05
-1.24461e-05
2.68345e-05
-1.28963e-05
2.8706e-05
-1.34633e-05
3.06704e-05
-1.41555e-05
3.27341e-05
-1.4978e-05
3.48989e-05
-1.59261e-05
3.71598e-05
-1.69772e-05
3.95012e-05
-1.80774e-05
4.18943e-05
-1.91255e-05
4.42935e-05
-1.99533e-05
4.66346e-05
-2.03055e-05
4.88304e-05
-1.98216e-05
5.07608e-05
-1.80323e-05
5.23214e-05
-1.45927e-05
5.35396e-05
-9.90676e-06
5.4433e-05
-5.19119e-06
5.48375e-05
-1.37021e-06
5.49982e-05
3.32429e-07
5.37594e-05
2.91984e-06
5.08279e-05
6.8227e-06
4.66711e-05
1.13031e-05
4.17325e-05
1.4937e-05
3.5931e-05
1.76698e-05
3.04576e-05
2.12707e-05
2.68397e-05
2.62461e-05
2.53705e-05
3.12708e-05
2.48777e-05
3.4846e-05
2.39002e-05
3.68147e-05
2.1803e-05
3.8168e-05
1.85235e-05
3.96766e-05
4.13189e-05
2.68293e-06
-1.49425e-05
5.15995e-06
-1.63583e-05
7.22689e-06
-1.54839e-05
9.01562e-06
-1.47448e-05
1.06256e-05
-1.41812e-05
1.21248e-05
-1.37471e-05
1.35605e-05
-1.34239e-05
1.49665e-05
-1.3205e-05
1.63676e-05
-1.30882e-05
1.77824e-05
-1.30726e-05
1.92256e-05
-1.31581e-05
2.07093e-05
-1.33459e-05
2.22437e-05
-1.36383e-05
2.38378e-05
-1.40402e-05
2.54993e-05
-1.45578e-05
2.72347e-05
-1.51987e-05
2.90485e-05
-1.59693e-05
3.0942e-05
-1.68715e-05
3.29116e-05
-1.78958e-05
3.49472e-05
-1.90127e-05
3.70295e-05
-2.01597e-05
3.91293e-05
-2.12253e-05
4.12068e-05
-2.20308e-05
4.32123e-05
-2.23111e-05
4.50832e-05
-2.16925e-05
4.67333e-05
-1.96823e-05
4.81109e-05
-1.59703e-05
4.9227e-05
-1.10229e-05
4.96216e-05
-5.58579e-06
5.00873e-05
-1.83595e-06
4.94183e-05
1.00145e-06
4.70753e-05
5.26289e-06
4.34205e-05
1.04775e-05
3.93426e-05
1.5381e-05
3.51506e-05
1.9129e-05
3.0846e-05
2.19745e-05
2.70943e-05
2.50225e-05
2.46866e-05
2.86538e-05
2.36727e-05
3.22847e-05
2.32724e-05
3.52462e-05
2.25533e-05
3.75339e-05
2.1006e-05
3.97154e-05
1.84048e-05
4.22777e-05
4.52735e-05
2.59898e-06
-1.75415e-05
4.99252e-06
-1.87518e-05
7.00628e-06
-1.74977e-05
8.74967e-06
-1.64882e-05
1.0309e-05
-1.57406e-05
1.17482e-05
-1.51863e-05
1.31147e-05
-1.47904e-05
1.44438e-05
-1.4534e-05
1.57618e-05
-1.44062e-05
1.70888e-05
-1.43995e-05
1.844e-05
-1.45093e-05
1.98274e-05
-1.47333e-05
2.12606e-05
-1.50716e-05
2.27472e-05
-1.55267e-05
2.42929e-05
-1.61034e-05
2.59012e-05
-1.6807e-05
2.75732e-05
-1.76413e-05
2.9306e-05
-1.86043e-05
3.10918e-05
-1.96817e-05
3.29168e-05
-2.08377e-05
3.47597e-05
-2.20026e-05
3.65924e-05
-2.3058e-05
3.83813e-05
-2.38197e-05
4.00897e-05
-2.40195e-05
4.16757e-05
-2.32785e-05
4.30985e-05
-2.11051e-05
4.43526e-05
-1.72244e-05
4.53961e-05
-1.20664e-05
4.61389e-05
-6.32859e-06
4.64362e-05
-2.13323e-06
4.48954e-05
2.54225e-06
4.17945e-05
8.36383e-06
3.80571e-05
1.4215e-05
3.43991e-05
1.9039e-05
3.10024e-05
2.25257e-05
2.78677e-05
2.51092e-05
2.53118e-05
2.75784e-05
2.36879e-05
3.02778e-05
2.29432e-05
3.30295e-05
2.25974e-05
3.5592e-05
2.20835e-05
3.80479e-05
2.10118e-05
4.0787e-05
1.90718e-05
4.42178e-05
4.8584e-05
2.49785e-06
-2.00393e-05
4.79561e-06
-2.10496e-05
6.74993e-06
-1.9452e-05
8.44999e-06
-1.81883e-05
9.96804e-06
-1.72586e-05
1.13616e-05
-1.65799e-05
1.26759e-05
-1.61046e-05
1.39458e-05
-1.5804e-05
1.51984e-05
-1.56587e-05
1.6454e-05
-1.56551e-05
1.77283e-05
-1.57836e-05
1.90332e-05
-1.60382e-05
2.03777e-05
-1.64161e-05
2.17682e-05
-1.69172e-05
2.32087e-05
-1.75439e-05
2.47004e-05
-1.82987e-05
2.62415e-05
-1.91824e-05
2.7826e-05
-2.01888e-05
2.94433e-05
-2.1299e-05
3.1077e-05
-2.24714e-05
3.27054e-05
-2.3631e-05
3.43028e-05
-2.46554e-05
3.58423e-05
-2.53592e-05
3.72991e-05
-2.54763e-05
3.86505e-05
-2.46299e-05
3.99103e-05
-2.23649e-05
4.11433e-05
-1.84574e-05
4.23157e-05
-1.32389e-05
4.34211e-05
-7.43399e-06
4.32312e-05
-1.94336e-06
4.1094e-05
4.67951e-06
3.77726e-05
1.16852e-05
3.42747e-05
1.77128e-05
3.11208e-05
2.2193e-05
2.83959e-05
2.52505e-05
2.60737e-05
2.74315e-05
2.42791e-05
2.9373e-05
2.31463e-05
3.14106e-05
2.26074e-05
3.35684e-05
2.23838e-05
3.58157e-05
2.21445e-05
3.82873e-05
2.16186e-05
4.13129e-05
2.05127e-05
4.53236e-05
5.08296e-05
2.39047e-06
-2.24298e-05
4.5882e-06
-2.32473e-05
6.47966e-06
-2.13435e-05
8.13696e-06
-1.98456e-05
9.61919e-06
-1.87409e-05
1.09766e-05
-1.79372e-05
1.22506e-05
-1.73787e-05
1.34749e-05
-1.70283e-05
1.46758e-05
-1.68596e-05
1.58736e-05
-1.68529e-05
1.7084e-05
-1.6994e-05
1.83186e-05
-1.72728e-05
1.95858e-05
-1.76833e-05
2.08912e-05
-1.82226e-05
2.22372e-05
-1.88899e-05
2.36234e-05
-1.96849e-05
2.50459e-05
-2.06048e-05
2.64966e-05
-2.16395e-05
2.79628e-05
-2.27652e-05
2.94274e-05
-2.39359e-05
3.08693e-05
-2.50729e-05
3.22662e-05
-2.60523e-05
3.35984e-05
-2.66915e-05
3.4854e-05
-2.67319e-05
3.60296e-05
-2.58055e-05
3.71881e-05
-2.35234e-05
3.84842e-05
-1.97535e-05
4.00986e-05
-1.48533e-05
4.11302e-05
-8.4656e-06
4.03471e-05
-1.16023e-06
3.78106e-05
7.21588e-06
3.45846e-05
1.49113e-05
3.14811e-05
2.08164e-05
2.88267e-05
2.48474e-05
2.66417e-05
2.74355e-05
2.48821e-05
2.91911e-05
2.35797e-05
3.06753e-05
2.2778e-05
3.22123e-05
2.24292e-05
3.39172e-05
2.23899e-05
3.5855e-05
2.24964e-05
3.81807e-05
2.26193e-05
4.119e-05
2.26074e-05
4.53355e-05
5.13826e-05
2.32213e-06
-2.47519e-05
4.45801e-06
-2.53832e-05
6.3176e-06
-2.32031e-05
7.96056e-06
-2.14885e-05
9.43553e-06
-2.02158e-05
1.07861e-05
-1.92878e-05
1.20503e-05
-1.86429e-05
1.32596e-05
-1.82377e-05
1.44397e-05
-1.80397e-05
1.56107e-05
-1.80239e-05
1.67881e-05
-1.81714e-05
1.79834e-05
-1.84681e-05
1.92045e-05
-1.89045e-05
2.04563e-05
-1.94743e-05
2.17402e-05
-2.01738e-05
2.30544e-05
-2.09992e-05
2.43936e-05
-2.1944e-05
2.57481e-05
-2.29941e-05
2.71044e-05
-2.41215e-05
2.8445e-05
-2.52766e-05
2.97504e-05
-2.63783e-05
3.10019e-05
-2.73038e-05
3.21873e-05
-2.78768e-05
3.33065e-05
-2.78511e-05
3.43796e-05
-2.68785e-05
3.55014e-05
-2.46453e-05
3.68593e-05
-2.11113e-05
3.87661e-05
-1.67601e-05
3.95198e-05
-9.21934e-06
3.81623e-05
1.97253e-07
3.54661e-05
9.91218e-06
3.2481e-05
1.78964e-05
2.97865e-05
2.35109e-05
2.75589e-05
2.7075e-05
2.57825e-05
2.9212e-05
2.44059e-05
3.05677e-05
2.34263e-05
3.16549e-05
2.28587e-05
3.27799e-05
2.26853e-05
3.40906e-05
2.28559e-05
3.56844e-05
2.33363e-05
3.77003e-05
2.41665e-05
4.03598e-05
2.55044e-05
4.39977e-05
4.91717e-05
2.2336e-06
-2.69855e-05
4.28855e-06
-2.74381e-05
6.09776e-06
-2.50123e-05
7.71025e-06
-2.3101e-05
9.16525e-06
-2.16708e-05
1.04997e-05
-2.06223e-05
1.17473e-05
-1.98904e-05
1.29369e-05
-1.94273e-05
1.40926e-05
-1.91954e-05
1.52336e-05
-1.91649e-05
1.63748e-05
-1.93126e-05
1.75272e-05
-1.96206e-05
1.86984e-05
-2.00756e-05
1.98924e-05
-2.06683e-05
2.11099e-05
-2.13913e-05
2.23483e-05
-2.22376e-05
2.36013e-05
-2.3197e-05
2.48588e-05
-2.42515e-05
2.61069e-05
-2.53696e-05
2.73292e-05
-2.64989e-05
2.85086e-05
-2.75577e-05
2.96309e-05
-2.8426e-05
3.06902e-05
-2.89362e-05
3.16974e-05
-2.88583e-05
3.26929e-05
-2.7874e-05
3.37864e-05
-2.57388e-05
3.51226e-05
-2.24475e-05
3.68034e-05
-1.84409e-05
3.71292e-05
-9.54514e-06
3.54981e-05
1.82848e-06
3.29532e-05
1.24571e-05
3.03746e-05
2.04749e-05
2.8134e-05
2.57515e-05
2.63205e-05
2.88885e-05
2.49004e-05
3.06321e-05
2.38287e-05
3.16395e-05
2.30964e-05
3.23872e-05
2.27161e-05
3.31602e-05
2.26971e-05
3.41096e-05
2.30503e-05
3.53313e-05
2.38253e-05
3.69252e-05
2.51724e-05
3.90128e-05
2.74519e-05
4.17182e-05
4.50922e-05
2.14711e-06
-2.91326e-05
4.12295e-06
-2.9414e-05
5.88063e-06
-2.677e-05
7.46071e-06
-2.46811e-05
8.89471e-06
-2.31048e-05
1.02136e-05
-2.19412e-05
1.14468e-05
-2.11236e-05
1.26202e-05
-2.06007e-05
1.3756e-05
-2.03311e-05
1.48721e-05
-2.02811e-05
1.59828e-05
-2.04233e-05
1.70983e-05
-2.07361e-05
1.82256e-05
-2.12029e-05
1.93683e-05
-2.1811e-05
2.05265e-05
-2.25496e-05
2.16972e-05
-2.34083e-05
2.28735e-05
-2.43733e-05
2.40454e-05
-2.54233e-05
2.51997e-05
-2.65239e-05
2.63215e-05
-2.76208e-05
2.73965e-05
-2.86327e-05
2.84146e-05
-2.94441e-05
2.93757e-05
-2.98972e-05
3.02976e-05
-2.97802e-05
3.12359e-05
-2.88122e-05
3.23003e-05
-2.68033e-05
3.35879e-05
-2.37351e-05
3.48571e-05
-1.97101e-05
3.4646e-05
-9.334e-06
3.29097e-05
3.56476e-06
3.06566e-05
1.47102e-05
2.8511e-05
2.26204e-05
2.66979e-05
2.75647e-05
2.5248e-05
3.03385e-05
2.41238e-05
3.17563e-05
2.32915e-05
3.24717e-05
2.27477e-05
3.29311e-05
2.25101e-05
3.33978e-05
2.26058e-05
3.40139e-05
2.30759e-05
3.48612e-05
2.40022e-05
3.59989e-05
2.55489e-05
3.7466e-05
2.80252e-05
3.92419e-05
4.11542e-05
2.06361e-06
-3.11962e-05
3.96278e-06
-3.13132e-05
5.66832e-06
-2.84755e-05
7.21413e-06
-2.62269e-05
8.62542e-06
-2.45161e-05
9.92808e-06
-2.32439e-05
1.11473e-05
-2.23428e-05
1.23063e-05
-2.17597e-05
1.34249e-05
-2.14498e-05
1.45198e-05
-2.1376e-05
1.5604e-05
-2.15075e-05
1.66872e-05
-2.18193e-05
1.77758e-05
-2.22915e-05
1.88729e-05
-2.2908e-05
1.99783e-05
-2.3655e-05
2.10886e-05
-2.45186e-05
2.21971e-05
-2.54818e-05
2.32942e-05
-2.65204e-05
2.43678e-05
-2.75975e-05
2.54051e-05
-2.8658e-05
2.63944e-05
-2.9622e-05
2.73293e-05
-3.0379e-05
2.82135e-05
-3.07815e-05
2.90688e-05
-3.06355e-05
2.9956e-05
-2.96995e-05
3.09775e-05
-2.78247e-05
3.22079e-05
-2.49655e-05
3.29861e-05
-2.04884e-05
3.22876e-05
-8.6355e-06
3.05559e-05
5.2964e-06
2.86169e-05
1.66493e-05
2.68698e-05
2.43676e-05
2.54272e-05
2.90072e-05
2.42834e-05
3.14823e-05
2.34018e-05
3.26378e-05
2.27596e-05
3.3114e-05
2.23601e-05
3.33306e-05
2.22265e-05
3.35315e-05
2.23941e-05
3.38464e-05
2.29141e-05
3.43412e-05
2.38689e-05
3.50442e-05
2.53934e-05
3.59415e-05
2.76958e-05
3.69396e-05
3.7782e-05
1.98355e-06
-3.31798e-05
3.80866e-06
-3.31383e-05
5.46183e-06
-3.01287e-05
6.97159e-06
-2.77367e-05
8.35816e-06
-2.59027e-05
9.64304e-06
-2.45288e-05
1.08478e-05
-2.35476e-05
1.19927e-05
-2.29045e-05
1.30955e-05
-2.25526e-05
1.41713e-05
-2.24517e-05
1.52319e-05
-2.25681e-05
1.62864e-05
-2.28738e-05
1.73404e-05
-2.33455e-05
1.83966e-05
-2.39643e-05
1.94548e-05
-2.47131e-05
2.05114e-05
-2.55752e-05
2.15602e-05
-2.65306e-05
2.25922e-05
-2.75524e-05
2.35967e-05
-2.86021e-05
2.45629e-05
-2.96242e-05
2.54819e-05
-3.0541e-05
2.63501e-05
-3.12473e-05
2.71738e-05
-3.16052e-05
2.79753e-05
-3.14369e-05
2.88165e-05
-3.05407e-05
2.97877e-05
-2.87959e-05
3.09803e-05
-2.61582e-05
3.12191e-05
-2.07272e-05
3.01676e-05
-7.58396e-06
2.84986e-05
6.96546e-06
2.68444e-05
1.83036e-05
2.54309e-05
2.5781e-05
2.42916e-05
3.01466e-05
2.33966e-05
3.23773e-05
2.27106e-05
3.33239e-05
2.22181e-05
3.36065e-05
2.19278e-05
3.36209e-05
2.18653e-05
3.35939e-05
2.20681e-05
3.36436e-05
2.25867e-05
3.38226e-05
2.34928e-05
3.41381e-05
2.48884e-05
3.45459e-05
2.691e-05
3.49179e-05
3.4973e-05
1.90697e-06
-3.50868e-05
3.66056e-06
-3.48919e-05
5.26132e-06
-3.17294e-05
6.73346e-06
-2.92088e-05
8.09319e-06
-2.72624e-05
9.35831e-06
-2.57939e-05
1.05472e-05
-2.47365e-05
1.16774e-05
-2.40347e-05
1.27646e-05
-2.36398e-05
1.38223e-05
-2.35094e-05
1.48613e-05
-2.36071e-05
1.58894e-05
-2.39019e-05
1.69121e-05
-2.43682e-05
1.79315e-05
-2.49837e-05
1.89473e-05
-2.57289e-05
1.99561e-05
-2.6584e-05
2.09522e-05
-2.75266e-05
2.19274e-05
-2.85277e-05
2.28727e-05
-2.95474e-05
2.3779e-05
-3.05304e-05
2.46397e-05
-3.14017e-05
2.54537e-05
-3.20612e-05
2.62285e-05
-3.238e-05
2.6985e-05
-3.21935e-05
2.77816e-05
-3.13374e-05
2.86887e-05
-2.9703e-05
2.98329e-05
-2.73023e-05
2.96386e-05
-2.05329e-05
2.83402e-05
-6.28554e-06
2.67427e-05
8.563e-06
2.53193e-05
1.9727e-05
2.4168e-05
2.69322e-05
2.32672e-05
3.10475e-05
2.25691e-05
3.30753e-05
2.20378e-05
3.38553e-05
2.16619e-05
3.39824e-05
2.14523e-05
3.38305e-05
2.14346e-05
3.36116e-05
2.16443e-05
3.34339e-05
2.21264e-05
3.33405e-05
2.29383e-05
3.33262e-05
2.41513e-05
3.33329e-05
2.58435e-05
3.32256e-05
3.27472e-05
1.83362e-06
-3.69204e-05
3.51802e-06
-3.65763e-05
5.06649e-06
-3.32779e-05
6.49964e-06
-3.06419e-05
7.83044e-06
-2.85932e-05
9.07364e-06
-2.70371e-05
1.02448e-05
-2.59077e-05
1.13591e-05
-2.5149e-05
1.24302e-05
-2.4711e-05
1.347e-05
-2.45493e-05
1.44882e-05
-2.46252e-05
1.54918e-05
-2.49056e-05
1.64855e-05
-2.53619e-05
1.74714e-05
-2.59696e-05
1.84488e-05
-2.67063e-05
1.94149e-05
-2.755e-05
2.03642e-05
-2.8476e-05
2.12898e-05
-2.94533e-05
2.21838e-05
-3.04414e-05
2.30389e-05
-3.13856e-05
2.38505e-05
-3.22133e-05
2.4619e-05
-3.28297e-05
2.53527e-05
-3.31137e-05
2.60708e-05
-3.29116e-05
2.68217e-05
-3.20882e-05
2.76605e-05
-3.05418e-05
2.8695e-05
-2.83368e-05
2.8249e-05
-2.0087e-05
2.67706e-05
-4.80709e-06
2.52418e-05
1.00918e-05
2.39975e-05
2.09713e-05
2.30479e-05
2.78819e-05
2.23317e-05
3.17638e-05
2.17871e-05
3.36199e-05
2.13765e-05
3.42658e-05
2.109e-05
3.4269e-05
2.09385e-05
3.39821e-05
2.09455e-05
3.36045e-05
2.11425e-05
3.3237e-05
2.15668e-05
3.29163e-05
2.2261e-05
3.2632e-05
2.32696e-05
3.23242e-05
2.46258e-05
3.18694e-05
3.10579e-05
1.76309e-06
-3.86835e-05
3.38036e-06
-3.81935e-05
4.87675e-06
-3.47743e-05
6.26976e-06
-3.2035e-05
7.5697e-06
-2.98932e-05
8.7888e-06
-2.82562e-05
9.94021e-06
-2.70591e-05
1.10369e-05
-2.62457e-05
1.20909e-05
-2.57649e-05
1.31124e-05
-2.55708e-05
1.41101e-05
-2.56229e-05
1.50902e-05
-2.58856e-05
1.60568e-05
-2.63284e-05
1.70115e-05
-2.69244e-05
1.7954e-05
-2.76488e-05
1.88814e-05
-2.84774e-05
1.97889e-05
-2.93835e-05
2.06706e-05
-3.0335e-05
2.15198e-05
-3.12906e-05
2.23306e-05
-3.21964e-05
2.30997e-05
-3.29824e-05
2.38285e-05
-3.35585e-05
2.45249e-05
-3.38101e-05
2.5206e-05
-3.35927e-05
2.5909e-05
-3.27911e-05
2.66667e-05
-3.12995e-05
2.75249e-05
-2.91949e-05
2.69114e-05
-1.94735e-05
2.53595e-05
-3.25522e-06
2.39204e-05
1.15309e-05
2.28262e-05
2.20655e-05
2.20361e-05
2.8672e-05
2.1464e-05
3.23359e-05
2.10388e-05
3.40451e-05
2.07218e-05
3.45828e-05
2.05032e-05
3.44876e-05
2.03925e-05
3.40928e-05
2.04102e-05
3.35868e-05
2.05827e-05
3.30645e-05
2.09392e-05
3.25598e-05
2.15096e-05
3.20616e-05
2.2318e-05
3.15159e-05
2.33683e-05
3.08191e-05
2.98127e-05
1.69489e-06
-4.03784e-05
3.2468e-06
-3.97454e-05
4.69138e-06
-3.62189e-05
6.04331e-06
-3.33869e-05
7.31069e-06
-3.11606e-05
8.50361e-06
-2.94491e-05
9.63319e-06
-2.81887e-05
1.07105e-05
-2.7323e-05
1.17459e-05
-2.68003e-05
1.27485e-05
-2.65734e-05
1.37255e-05
-2.65999e-05
1.46825e-05
-2.68427e-05
1.56231e-05
-2.7269e-05
1.65488e-05
-2.785e-05
1.74589e-05
-2.85589e-05
1.83509e-05
-2.93695e-05
1.92208e-05
-3.02534e-05
2.00633e-05
-3.11775e-05
2.08727e-05
-3.21e-05
2.16444e-05
-3.2968e-05
2.2376e-05
-3.37139e-05
2.30691e-05
-3.42517e-05
2.37311e-05
-3.4472e-05
2.43758e-05
-3.42374e-05
2.50312e-05
-3.34466e-05
2.57082e-05
-3.19765e-05
2.64139e-05
-2.99006e-05
2.56089e-05
-1.86685e-05
2.40555e-05
-1.70185e-06
2.27218e-05
1.28646e-05
2.17619e-05
2.30254e-05
2.11037e-05
2.93302e-05
2.06459e-05
3.27936e-05
2.03142e-05
3.43768e-05
2.00699e-05
3.48271e-05
1.99028e-05
3.46547e-05
1.98205e-05
3.41752e-05
1.98399e-05
3.35674e-05
1.99823e-05
3.29221e-05
2.02701e-05
3.22721e-05
2.07228e-05
3.16089e-05
2.13507e-05
3.0888e-05
2.21423e-05
3.00275e-05
2.89122e-05
1.62852e-06
-4.20069e-05
3.11658e-06
-4.12335e-05
4.50965e-06
-3.76119e-05
5.81976e-06
-3.4697e-05
7.0531e-06
-3.23939e-05
8.21796e-06
-3.0614e-05
9.32372e-06
-2.92945e-05
1.03799e-05
-2.83792e-05
1.13952e-05
-2.78157e-05
1.23776e-05
-2.75558e-05
1.33335e-05
-2.75558e-05
1.42676e-05
-2.77768e-05
1.5183e-05
-2.81844e-05
1.6081e-05
-2.87479e-05
1.69608e-05
-2.94387e-05
1.78203e-05
-3.0229e-05
1.86558e-05
-3.10889e-05
1.94627e-05
-3.19844e-05
2.02364e-05
-3.28737e-05
2.0973e-05
-3.37046e-05
2.16707e-05
-3.44117e-05
2.23314e-05
-3.49125e-05
2.29616e-05
-3.51022e-05
2.35725e-05
-3.48484e-05
2.41846e-05
-3.40587e-05
2.47985e-05
-3.25904e-05
2.5385e-05
-3.04871e-05
2.43668e-05
-1.76503e-05
2.28357e-05
-1.7076e-07
2.16113e-05
1.4089e-05
2.07745e-05
2.38623e-05
2.02276e-05
2.98771e-05
1.98626e-05
3.31587e-05
1.9605e-05
3.46343e-05
1.94177e-05
3.50145e-05
1.92899e-05
3.47825e-05
1.92273e-05
3.42378e-05
1.92436e-05
3.35512e-05
1.93555e-05
3.28102e-05
1.95795e-05
3.20481e-05
1.99276e-05
3.12607e-05
2.04028e-05
3.04129e-05
2.09835e-05
2.94468e-05
2.82734e-05
1.56355e-06
-4.35704e-05
2.98907e-06
-4.2659e-05
4.33094e-06
-3.89538e-05
5.59862e-06
-3.59647e-05
6.79664e-06
-3.35919e-05
7.93178e-06
-3.17491e-05
9.0119e-06
-3.03746e-05
1.00451e-05
-2.94123e-05
1.10389e-05
-2.88095e-05
1.20001e-05
-2.85169e-05
1.29341e-05
-2.84898e-05
1.38452e-05
-2.86879e-05
1.47358e-05
-2.90751e-05
1.5607e-05
-2.96191e-05
1.64581e-05
-3.02898e-05
1.72872e-05
-3.1058e-05
1.80909e-05
-3.18926e-05
1.88653e-05
-3.27588e-05
1.96064e-05
-3.36148e-05
2.03109e-05
-3.44092e-05
2.09778e-05
-3.50785e-05
2.16087e-05
-3.55433e-05
2.22093e-05
-3.57028e-05
2.27895e-05
-3.54286e-05
2.33639e-05
-3.46331e-05
2.39275e-05
-3.31539e-05
2.43928e-05
-3.09525e-05
2.31736e-05
-1.6431e-05
2.16781e-05
1.32472e-06
2.05635e-05
1.52037e-05
1.98406e-05
2.45852e-05
1.93904e-05
3.03273e-05
1.91021e-05
3.34469e-05
1.89046e-05
3.48319e-05
1.87625e-05
3.51566e-05
1.86654e-05
3.48796e-05
1.86171e-05
3.42861e-05
1.86283e-05
3.354e-05
1.87122e-05
3.27263e-05
1.88806e-05
3.18798e-05
1.91406e-05
3.10007e-05
1.94893e-05
3.00642e-05
1.99103e-05
2.90258e-05
2.03535e-05
2.78302e-05
2.64175e-05
1.49968e-06
-4.50701e-05
2.8638e-06
-4.40232e-05
4.15472e-06
-4.02447e-05
5.37947e-06
-3.71894e-05
6.5411e-06
-3.47535e-05
7.64504e-06
-3.28531e-05
8.69789e-06
-3.14274e-05
9.70647e-06
-3.04209e-05
1.06773e-05
-2.97803e-05
1.1616e-05
-2.94557e-05
1.25275e-05
-2.94013e-05
1.34152e-05
-2.95756e-05
1.42813e-05
-2.99411e-05
1.51264e-05
-3.04642e-05
1.59501e-05
-3.11135e-05
1.67503e-05
-3.18582e-05
1.75243e-05
-3.26666e-05
1.82685e-05
-3.3503e-05
1.89795e-05
-3.43258e-05
1.96546e-05
-3.50843e-05
2.02928e-05
-3.57168e-05
2.0896e-05
-3.61465e-05
2.14694e-05
-3.62762e-05
2.20219e-05
-3.59811e-05
2.25639e-05
-3.51751e-05
2.30861e-05
-3.36761e-05
2.33852e-05
-3.12516e-05
2.19893e-05
-1.50351e-05
2.05517e-05
2.76233e-06
1.95547e-05
1.62008e-05
1.89422e-05
2.51977e-05
1.85787e-05
3.06908e-05
1.8356e-05
3.36696e-05
1.8208e-05
3.49799e-05
1.81025e-05
3.52621e-05
1.80297e-05
3.49524e-05
1.79921e-05
3.43237e-05
1.79983e-05
3.35338e-05
1.80584e-05
3.26662e-05
1.8181e-05
3.17572e-05
1.83697e-05
3.08119e-05
1.86202e-05
2.98137e-05
1.89145e-05
2.87315e-05
1.92171e-05
2.75276e-05
2.61595e-05
1.43672e-06
-4.65068e-05
2.74042e-06
-4.53269e-05
3.9806e-06
-4.14849e-05
5.16198e-06
-3.83708e-05
6.28627e-06
-3.58778e-05
7.35775e-06
-3.39245e-05
8.38188e-06
-3.24516e-05
9.3644e-06
-3.14034e-05
1.03108e-05
-3.07267e-05
1.12261e-05
-3.0371e-05
1.21142e-05
-3.02894e-05
1.29781e-05
-3.04395e-05
1.38196e-05
-3.07826e-05
1.46392e-05
-3.12838e-05
1.54363e-05
-3.19105e-05
1.6209e-05
-3.2631e-05
1.69549e-05
-3.34125e-05
1.76707e-05
-3.42189e-05
1.83536e-05
-3.50087e-05
1.90013e-05
-3.57319e-05
1.9613e-05
-3.63284e-05
2.01903e-05
-3.67239e-05
2.07382e-05
-3.68241e-05
2.12655e-05
-3.65084e-05
2.17793e-05
-3.56889e-05
2.22674e-05
-3.41643e-05
2.22954e-05
-3.12795e-05
2.07666e-05
-1.35064e-05
1.943e-05
4.09894e-06
1.85692e-05
1.70617e-05
1.80684e-05
2.56985e-05
1.77851e-05
3.09741e-05
1.7619e-05
3.38357e-05
1.7512e-05
3.50869e-05
1.74362e-05
3.53378e-05
1.73829e-05
3.50057e-05
1.7354e-05
3.43526e-05
1.73561e-05
3.35317e-05
1.73971e-05
3.26252e-05
1.74833e-05
3.16711e-05
1.76164e-05
3.06788e-05
1.77913e-05
2.96388e-05
1.79931e-05
2.85297e-05
1.81946e-05
2.73261e-05
2.60028e-05
1.37457e-06
-4.78814e-05
2.61867e-06
-4.6571e-05
3.80826e-06
-4.26745e-05
4.94586e-06
-3.95084e-05
6.032e-06
-3.6964e-05
7.06991e-06
-3.49624e-05
8.06405e-06
-3.34457e-05
9.01923e-06
-3.23586e-05
9.9401e-06
-3.16476e-05
1.08308e-05
-3.12617e-05
1.16948e-05
-3.11534e-05
1.25345e-05
-3.12792e-05
1.33513e-05
-3.15995e-05
1.41456e-05
-3.20782e-05
1.49168e-05
-3.26816e-05
1.5663e-05
-3.33772e-05
1.63821e-05
-3.41315e-05
1.70711e-05
-3.4908e-05
1.77276e-05
-3.56651e-05
1.83495e-05
-3.63538e-05
1.89362e-05
-3.69152e-05
1.94893e-05
-3.72769e-05
2.00131e-05
-3.73479e-05
2.05168e-05
-3.70121e-05
2.10057e-05
-3.61778e-05
2.14695e-05
-3.46281e-05
2.10565e-05
-3.08665e-05
1.94883e-05
-1.19381e-05
1.83131e-05
5.27414e-06
1.76094e-05
1.77654e-05
1.72195e-05
2.60884e-05
1.70078e-05
3.11858e-05
1.68891e-05
3.39545e-05
1.68151e-05
3.51609e-05
1.67628e-05
3.53901e-05
1.6725e-05
3.50436e-05
1.6703e-05
3.43746e-05
1.67022e-05
3.35324e-05
1.67288e-05
3.25986e-05
1.67872e-05
3.16128e-05
1.6878e-05
3.05879e-05
1.69964e-05
2.95204e-05
1.71297e-05
2.83964e-05
1.7257e-05
2.71988e-05
2.59117e-05
1.31313e-06
-4.91945e-05
2.49832e-06
-4.77561e-05
3.63741e-06
-4.38136e-05
4.73087e-06
-4.06019e-05
5.77814e-06
-3.80112e-05
6.78152e-06
-3.59658e-05
7.74457e-06
-3.44087e-05
8.67126e-06
-3.32853e-05
9.56548e-06
-3.25418e-05
1.04307e-05
-3.21269e-05
1.12698e-05
-3.19925e-05
1.20848e-05
-3.20942e-05
1.28769e-05
-3.23915e-05
1.36461e-05
-3.28474e-05
1.43917e-05
-3.34273e-05
1.51123e-05
-3.40978e-05
1.58055e-05
-3.48247e-05
1.6469e-05
-3.55715e-05
1.71004e-05
-3.62965e-05
1.7698e-05
-3.69515e-05
1.82614e-05
-3.74785e-05
1.87917e-05
-3.78072e-05
1.9293e-05
-3.78492e-05
1.97746e-05
-3.74938e-05
2.02414e-05
-3.66446e-05
2.0698e-05
-3.50847e-05
1.96943e-05
-2.98628e-05
1.82181e-05
-1.04618e-05
1.72487e-05
6.24355e-06
1.67009e-05
1.83132e-05
1.64061e-05
2.63833e-05
1.62504e-05
3.13415e-05
1.61667e-05
3.40383e-05
1.61166e-05
3.5211e-05
1.60815e-05
3.54253e-05
1.60551e-05
3.507e-05
1.60386e-05
3.43912e-05
1.6036e-05
3.35349e-05
1.60522e-05
3.25825e-05
1.60901e-05
3.15748e-05
1.61499e-05
3.05281e-05
1.6227e-05
2.94433e-05
1.63111e-05
2.83123e-05
1.63862e-05
2.71237e-05
2.58676e-05
1.25228e-06
-5.04468e-05
2.37912e-06
-4.8883e-05
3.46775e-06
-4.49022e-05
4.51674e-06
-4.16509e-05
5.52452e-06
-3.9019e-05
6.49255e-06
-3.69339e-05
7.42356e-06
-3.53398e-05
8.32076e-06
-3.41825e-05
9.18737e-06
-3.34084e-05
1.00263e-05
-3.29659e-05
1.08398e-05
-3.2806e-05
1.16297e-05
-3.2884e-05
1.23967e-05
-3.31585e-05
1.31409e-05
-3.35916e-05
1.38615e-05
-3.41479e-05
1.45569e-05
-3.47932e-05
1.52251e-05
-3.5493e-05
1.5864e-05
-3.62104e-05
1.64715e-05
-3.6904e-05
1.70461e-05
-3.75261e-05
1.75875e-05
-3.80199e-05
1.80966e-05
-3.83164e-05
1.85773e-05
-3.83298e-05
1.90396e-05
-3.79561e-05
1.9485e-05
-3.709e-05
1.99457e-05
-3.55453e-05
1.84102e-05
-2.83273e-05
1.71006e-05
-9.15226e-06
1.63142e-05
7.03001e-06
1.58778e-05
1.87496e-05
1.56411e-05
2.662e-05
1.55166e-05
3.1466e-05
1.54521e-05
3.41028e-05
1.54157e-05
3.52473e-05
1.53911e-05
3.545e-05
1.53722e-05
3.50889e-05
1.53595e-05
3.4404e-05
1.53559e-05
3.35385e-05
1.53649e-05
3.25735e-05
1.53884e-05
3.15513e-05
1.54261e-05
3.04905e-05
1.54738e-05
2.93956e-05
1.55233e-05
2.82628e-05
1.55621e-05
2.7085e-05
2.58556e-05
1.19184e-06
-5.16386e-05
2.26077e-06
-4.99519e-05
3.29899e-06
-4.59404e-05
4.30322e-06
-4.26551e-05
5.27098e-06
-3.99868e-05
6.20293e-06
-3.78658e-05
7.10107e-06
-3.62379e-05
7.96793e-06
-3.50494e-05
8.80609e-06
-3.42466e-05
9.61791e-06
-3.37777e-05
1.04053e-05
-3.35934e-05
1.11696e-05
-3.36483e-05
1.19114e-05
-3.39003e-05
1.26305e-05
-3.43107e-05
1.33262e-05
-3.48435e-05
1.39969e-05
-3.54639e-05
1.46408e-05
-3.61369e-05
1.52559e-05
-3.68254e-05
1.58404e-05
-3.74885e-05
1.6393e-05
-3.80787e-05
1.69136e-05
-3.85404e-05
1.7403e-05
-3.88058e-05
1.78645e-05
-3.87913e-05
1.83093e-05
-3.84009e-05
1.8731e-05
-3.75118e-05
1.91864e-05
-3.60008e-05
1.74434e-05
-2.65842e-05
1.62585e-05
-7.96729e-06
1.55561e-05
7.73244e-06
1.51528e-05
1.9153e-05
1.49255e-05
2.68472e-05
1.48043e-05
3.15873e-05
1.47425e-05
3.41646e-05
1.47097e-05
3.52802e-05
1.46892e-05
3.54705e-05
1.46741e-05
3.5104e-05
1.46637e-05
3.44144e-05
1.46596e-05
3.35426e-05
1.4664e-05
3.25692e-05
1.46779e-05
3.15373e-05
1.47005e-05
3.04679e-05
1.47282e-05
2.93679e-05
1.47542e-05
2.82368e-05
1.47687e-05
2.70705e-05
2.58647e-05
1.13161e-06
-5.27703e-05
2.14301e-06
-5.09633e-05
3.13085e-06
-4.69283e-05
4.09007e-06
-4.36143e-05
5.01734e-06
-4.09141e-05
5.91259e-06
-3.87611e-05
6.77714e-06
-3.71024e-05
7.61289e-06
-3.58851e-05
8.42185e-06
-3.50556e-05
9.20592e-06
-3.45617e-05
9.96659e-06
-3.43541e-05
1.07049e-05
-3.43866e-05
1.14211e-05
-3.46166e-05
1.21152e-05
-3.50048e-05
1.2786e-05
-3.55144e-05
1.34324e-05
-3.61102e-05
1.40524e-05
-3.67569e-05
1.46443e-05
-3.74173e-05