/*--------------------------------*- C++ -*----------------------------------*\
  =========                 |
  \\      /  F ield         | OpenFOAM: The Open Source CFD Toolbox
   \\    /   O peration     | Website:  https://openfoam.org
    \\  /    A nd           | Version:  9
     \\/     M anipulation  |
\*---------------------------------------------------------------------------*/
FoamFile
{
    format      ascii;
    class       surfaceScalarField;
    location    "40";
    object      phi;
}
// * * * * * * * * * * * * * * * * * * * * * * * * * * * * * * * * * * * * * //

dimensions      [0 3 -1 0 0 0 0];

internalField   nonuniform List<scalar> 
21254
(
-0.18879
0.190514
-0.00172838
0.192506
-0.00199402
0.189934
0.0025709
0.184127
0.00580307
0.175319
0.00880664
0.161703
0.0136149
0.143732
0.0179709
0.121782
0.0219502
0.0956139
0.0261613
0.0665623
0.029039
0.0363724
0.030173
0.00828643
0.0280717
-0.0138576
0.0221406
-0.0283748
0.0145207
-0.0346194
0.00624209
-0.0371152
0.00248049
-0.0394659
0.00232792
-0.0432188
0.00372211
-0.0494074
0.0061641
-0.0574447
0.00801244
-0.065606
0.00814418
-0.0727767
0.00715398
-0.0786848
0.00592541
-0.0833799
0.0047277
-0.087093
0.0037551
-0.0899907
0.00292329
-0.0920846
0.00209122
-0.093655
0.00158089
-0.0951954
0.00158623
-0.0970688
0.00202264
-0.0996179
0.00245973
-0.102355
0.00277294
-0.104742
0.00244983
-0.105777
0.000951465
-0.103948
-0.00164907
-0.0985378
-0.00537748
-0.087537
-0.0108587
-0.0469011
-0.0403865
0.0308522
-0.0745681
-0.183688
-0.00510404
-0.178699
-0.00499233
-0.170105
-0.00859619
-0.159062
-0.0110453
-0.146244
-0.0128199
-0.131419
-0.0148274
-0.114888
-0.0165346
-0.0977477
-0.0171435
-0.081057
-0.0166945
-0.065115
-0.0159459
-0.0503872
-0.0147321
-0.0371168
-0.0132755
-0.0252627
-0.0118611
-0.0146822
-0.010591
-0.00521219
-0.00948701
0.00331503
-0.00855232
0.0109113
-0.00762026
0.0178263
-0.00693522
0.024286
-0.00647803
0.0303764
-0.00610937
0.0361632
-0.00580303
0.0416978
-0.00555176
0.0470229
-0.00533027
0.0520073
-0.00498415
0.0565816
-0.00457259
0.0608024
-0.00422418
0.0646617
-0.00387116
0.0681847
-0.00354589
0.0713803
-0.00324705
0.0743563
-0.00296334
0.077089
-0.00275135
0.0796473
-0.00257977
0.08207
-0.00245185
0.0844241
-0.00240217
0.0868345
-0.00244309
0.089452
-0.00263625
0.0926337
-0.00328928
0.0969647
-0.00526645
0.11
-0.0121066
-0.18076
0.187212
-0.00818434
0.193605
-0.00838763
0.199979
-0.00380617
0.205574
0.000206296
0.210323
0.0040554
0.213043
0.0108935
0.212826
0.0181895
0.208539
0.026235
0.198543
0.036152
0.181492
0.0460826
0.155965
0.0556937
0.121097
0.0629359
0.0783077
0.0649279
0.0322349
0.0605919
-0.00821443
0.0466853
-0.0332448
0.0274963
-0.0456543
0.0147168
-0.0546415
0.0126841
-0.0627275
0.0142283
-0.0703567
0.0156182
-0.0770273
0.0147959
-0.0825988
0.0127094
-0.0872864
0.0106291
-0.0911284
0.00860041
-0.094177
0.0068395
-0.096547
0.00532502
-0.0984738
0.00403646
-0.100337
0.0034517
-0.102376
0.00364144
-0.104553
0.00427036
-0.106854
0.00474276
-0.108807
0.0048016
-0.110094
0.00381434
-0.110341
0.00119491
-0.108184
-0.00369261
-0.10195
-0.0115746
-0.0882139
-0.0245022
-0.0519511
-0.0764009
0.0265868
-0.151437
-0.173698
-0.0121687
-0.166088
-0.0126055
-0.156802
-0.0178841
-0.146248
-0.0216028
-0.134172
-0.0248977
-0.120656
-0.0283461
-0.106223
-0.0309717
-0.0913613
-0.0320093
-0.0767022
-0.0313578
-0.0624813
-0.030171
-0.0490449
-0.0281727
-0.0366141
-0.0257112
-0.0252094
-0.0232718
-0.014801
-0.0210074
-0.00533679
-0.0189622
0.00330297
-0.0172067
0.0112547
-0.0155876
0.0185804
-0.0142769
0.0254169
-0.0133306
0.0318792
-0.0125886
0.0380559
-0.0119952
0.0440038
-0.0115142
0.0497523
-0.0110837
0.0552092
-0.0104396
0.0602867
-0.0096446
0.0650204
-0.00895967
0.0694088
-0.00827062
0.0734629
-0.00763238
0.0771951
-0.00703943
0.0806833
-0.00646066
0.0839083
-0.00601446
0.0869378
-0.00564378
0.0898005
-0.0053648
0.092564
-0.00522893
0.0953509
-0.00532786
0.0983622
-0.00570848
0.10185
-0.00691107
0.10708
-0.0113952
0.1176
-0.0217127
-0.174461
0.179653
-0.0133783
0.184047
-0.0127846
0.187945
-0.00770506
0.190751
-0.00260288
0.19286
0.00194353
0.195034
0.00872048
0.197397
0.0158246
0.200092
0.0235369
0.202294
0.0339441
0.202813
0.045557
0.19901
0.0594903
0.187391
0.0745508
0.163966
0.0883523
0.127046
0.0975123
0.0770298
0.0967016
0.0224984
0.0820241
-0.0196979
0.056902
-0.0425053
0.0354735
-0.0547336
0.0264377
-0.0637859
0.0246545
-0.0715546
0.0225489
-0.0782116
0.0193603
-0.0837889
0.0162119
-0.0882619
0.0130953
-0.0917158
0.0103215
-0.0944043
0.00802498
-0.0966524
0.006271
-0.0987919
0.00559536
-0.10108
0.00597273
-0.10352
0.00682421
-0.106159
0.00730212
-0.108572
0.00721067
-0.110424
0.00568538
-0.111108
0.00179428
-0.109194
-0.00547644
-0.102963
-0.017783
-0.0887558
-0.0386211
-0.0552942
-0.109797
0.0191814
-0.224975
-0.168667
-0.0179658
-0.161324
-0.0199505
-0.151792
-0.0274204
-0.141069
-0.0323271
-0.129067
-0.0369029
-0.115705
-0.0417122
-0.101519
-0.0451622
-0.0874527
-0.0460808
-0.0735843
-0.0452308
-0.0601077
-0.0436519
-0.0474227
-0.040862
-0.0355451
-0.0375934
-0.0244803
-0.0343422
-0.0142578
-0.0312368
-0.00482349
-0.0284055
0.00390103
-0.0259418
0.0120268
-0.0237246
0.0196142
-0.0218753
0.0267394
-0.0204675
0.0334912
-0.0193523
0.0399615
-0.0184778
0.0461988
-0.0177635
0.0522286
-0.0171211
0.0579852
-0.0162003
0.0633846
-0.0150465
0.0684321
-0.0140117
0.0731462
-0.0129909
0.0775354
-0.0120343
0.0816237
-0.0111506
0.0854736
-0.0102981
0.0890859
-0.00963452
0.0925131
-0.00907891
0.0958109
-0.0086753
0.0990353
-0.00848267
0.102312
-0.00860004
0.105833
-0.00921593
0.109774
-0.010918
0.115517
-0.0176845
0.125235
-0.0308457
-0.169935
0.176358
-0.0198062
0.182173
-0.0185998
0.187826
-0.0133609
0.192401
-0.00717923
0.195919
-0.00157637
0.198176
0.00646119
0.199418
0.0145813
0.199776
0.0231736
0.200121
0.0335925
0.201081
0.0445889
0.202582
0.0579836
0.203066
0.0740634
0.198993
0.0924237
0.185246
0.111257
0.155999
0.125945
0.108099
0.129918
0.0482185
0.116773
-0.00426225
0.0879411
-0.035671
0.0578291
-0.0517971
0.0407613
-0.063142
0.0338743
-0.0722146
0.0284213
-0.0793009
0.0233027
-0.0846401
0.0184561
-0.0885846
0.0142958
-0.0915828
0.0110547
-0.0940878
0.00879732
-0.0965227
0.00803922
-0.0991929
0.00864906
-0.102151
0.00981818
-0.105396
0.0105362
-0.108438
0.0103043
-0.110829
0.00813337
-0.111868
0.00285338
-0.110215
-0.00704801
-0.104068
-0.0238887
-0.0898332
-0.0527831
-0.0588154
-0.140643
0.00913385
-0.292074
-0.163362
-0.0245402
-0.155782
-0.0275337
-0.146116
-0.0370884
-0.135456
-0.0429906
-0.123589
-0.0487737
-0.110407
-0.0548985
-0.0966409
-0.0589338
-0.0830877
-0.05964
-0.0698444
-0.0584794
-0.0570473
-0.0564543
-0.0450045
-0.0529097
-0.0336997
-0.0489036
-0.0230437
-0.0450042
-0.0130716
-0.0412163
-0.0037608
-0.0377255
0.00498715
-0.0347004
0.0132107
-0.0319596
0.0209724
-0.0296491
0.0283186
-0.0278266
0.0353254
-0.0263725
0.0420549
-0.025221
0.0485613
-0.0242818
0.054868
-0.0234352
0.0609097
-0.0222434
0.0665978
-0.0207324
0.071933
-0.0193456
0.0769259
-0.0179883
0.0815914
-0.0167205
0.0859433
-0.0155433
0.0900556
-0.0144236
0.0939242
-0.0135378
0.0976108
-0.0127978
0.101164
-0.0122728
0.104661
-0.0120339
0.108226
-0.0122395
0.112065
-0.0130969
0.116334
-0.0152824
0.122367
-0.024312
0.131586
-0.0394023
-0.168333
0.174929
-0.0264067
0.180938
-0.0246125
0.187071
-0.0194945
0.191808
-0.01192
0.195734
-0.00550561
0.198616
0.00357888
0.200535
0.0126569
0.201418
0.0222852
0.201709
0.0332944
0.20161
0.0446804
0.201921
0.0576663
0.203159
0.0728211
0.20506
0.0905201
0.204798
0.111519
0.196776
0.133965
0.173266
0.153425
0.128535
0.161498
0.0673554
0.149114
0.00886638
0.116308
-0.0291293
0.0787441
-0.0497486
0.0544808
-0.0633958
0.0420619
-0.0731567
0.0330657
-0.0800121
0.0253234
-0.0847899
0.0190948
-0.0882672
0.014539
-0.0911276
0.0116433
-0.0939322
0.0108416
-0.0970732
0.0118327
-0.100661
0.0135064
-0.104617
0.014419
-0.108351
0.0140226
-0.111314
0.0111046
-0.112767
0.00421622
-0.111399
-0.00830699
-0.105428
-0.0298535
-0.0914483
-0.0666954
-0.0627383
-0.16934
-0.00293929
-0.351391
-0.161291
-0.0315841
-0.153313
-0.0355141
-0.142953
-0.0474519
-0.13187
-0.0540757
-0.119654
-0.0609944
-0.10625
-0.0683089
-0.0923794
-0.0728111
-0.0789153
-0.0731104
-0.0659831
-0.0714176
-0.05362
-0.0688229
-0.0420207
-0.0645143
-0.0311931
-0.0597368
-0.0209439
-0.0552595
-0.0112655
-0.0509019
-0.0021276
-0.0468718
0.00653458
-0.0433719
0.0147835
-0.0402177
0.0226543
-0.0375293
0.0301711
-0.035353
0.0373856
-0.0335973
0.0443578
-0.0322036
0.0511195
-0.0310542
0.0576926
-0.0300165
0.0640133
-0.0285712
0.0699908
-0.0267146
0.0756105
-0.0249706
0.0808807
-0.0232632
0.0858188
-0.0216658
0.0904392
-0.0201688
0.0947995
-0.0187765
0.098904
-0.0176399
0.102822
-0.0167154
0.106601
-0.0160522
0.110313
-0.0157636
0.114109
-0.0160127
0.118189
-0.0171483
0.122716
-0.0198563
0.128886
-0.0307449
0.137805
-0.0480289
-0.167139
0.17426
-0.0335329
0.181111
-0.0314654
0.187983
-0.0263737
0.193554
-0.0174934
0.198244
-0.0101975
0.202139
-0.000321909
0.204812
0.00997958
0.206567
0.0205239
0.207309
0.0325442
0.207317
0.0446646
0.206904
0.0580734
0.206564
0.0731572
0.207205
0.0898766
0.208978
0.109742
0.209905
0.133034
0.20488
0.158443
0.184858
0.181513
0.142315
0.191647
0.0803574
0.178256
0.0182425
0.140846
-0.0245959
0.0973061
-0.0487366
0.0661917
-0.0637193
0.0480493
-0.0734835
0.0350996
-0.0798499
0.0254861
-0.0841819
0.0189004
-0.0875624
0.0150498
-0.090814
0.0141047
-0.0944989
0.0155232
-0.0987852
0.0178141
-0.103554
0.0191765
-0.108096
0.0186046
-0.111753
0.0148101
-0.11373
0.00622588
-0.112744
-0.00922184
-0.107022
-0.0355263
-0.0935081
-0.0801408
-0.0671845
-0.19551
-0.015964
-0.402002
-0.159636
-0.0390902
-0.151308
-0.0438451
-0.140428
-0.0583331
-0.128833
-0.0656766
-0.116187
-0.0736455
-0.102428
-0.0820728
-0.088324
-0.0869233
-0.0748263
-0.0866154
-0.0620221
-0.084229
-0.0498909
-0.0809605
-0.0386294
-0.0757824
-0.0281632
-0.0702096
-0.0182647
-0.0651653
-0.00890351
-0.0602714
1.75642e-05
-0.0558024
0.0085606
-0.0519252
0.0167787
-0.0484463
0.0246909
-0.0454527
0.0323276
-0.0430016
0.0397136
-0.0409958
0.0468889
-0.0393915
0.0538858
-0.0380628
0.0607126
-0.0368523
0.0673148
-0.0351779
0.0735807
-0.032981
0.0794796
-0.0308671
0.0850337
-0.0288171
0.0902451
-0.0268865
0.0951339
-0.0250833
0.0997516
-0.0234047
0.104105
-0.0220187
0.108253
-0.0208924
0.112251
-0.0200873
0.116193
-0.0197514
0.120198
-0.0200729
0.124507
-0.0214869
0.129265
-0.0246826
0.135554
-0.0373922
0.14424
-0.0563016
-0.167341
0.175083
-0.0412791
0.182315
-0.0387049
0.189875
-0.0339367
0.196063
-0.0236856
0.201375
-0.0155166
0.205782
-0.00472931
0.209134
0.00662047
0.211455
0.0181963
0.21301
0.0309811
0.213777
0.0438905
0.213838
0.0580056
0.213506
0.0734849
0.213141
0.090238
0.213422
0.109459
0.214878
0.131575
0.216113
0.157204
0.212136
0.185485
0.1935
0.210276
0.151323
0.220427
0.0882043
0.203958
0.0237147
0.161788
-0.0219549
0.111857
-0.0480917
0.0741843
-0.0635153
0.0505317
-0.072942
0.0349258
-0.078897
0.0248643
-0.0831438
0.0192836
-0.0869711
0.0179289
-0.0912577
0.0198545
-0.0963131
0.0229648
-0.101991
0.0247812
-0.107482
0.0240804
-0.112001
0.0193276
-0.11466
0.00879383
-0.114161
-0.00961898
-0.108784
-0.0409016
-0.0958637
-0.0930152
-0.0720557
-0.219321
-0.0291013
-0.444662
-0.159272
-0.04716
-0.150396
-0.0527228
-0.138887
-0.0698472
-0.126696
-0.0778693
-0.113528
-0.0868184
-0.0992043
-0.0964058
-0.0846997
-0.101435
-0.0709508
-0.100372
-0.0580644
-0.0971226
-0.0459445
-0.0930876
-0.0348929
-0.0868407
-0.0246916
-0.080418
-0.0150865
-0.0747779
-0.00600757
-0.0693584
0.00267139
-0.0644901
0.0110675
-0.0603302
0.0191944
-0.0565819
0.027103
-0.0533699
0.0348067
-0.0507144
0.0423279
-0.0485262
0.0496817
-0.0467553
0.0568919
-0.0452824
0.0639621
-0.0439323
0.0708295
-0.0420529
0.077377
-0.0395369
0.0835679
-0.0370629
0.0894012
-0.0346578
0.0948938
-0.0323829
0.100053
-0.0302423
0.104934
-0.0282754
0.109537
-0.0266176
0.113928
-0.0252756
0.118168
-0.0243191
0.122326
-0.0239201
0.126569
-0.0242836
0.131099
-0.0259831
0.136088
-0.029711
0.142488
-0.0438992
0.150976
-0.0646739
-0.168199
0.176534
-0.0496205
0.184454
-0.0466287
0.192758
-0.0422486
0.199489
-0.0304227
0.205437
-0.0214644
0.210492
-0.00979256
0.214404
0.00270467
0.21744
0.0151537
0.219438
0.0289741
0.220786
0.0425345
0.221531
0.0572552
0.221669
0.0733424
0.221404
0.0904992
0.22107
0.10979
0.221239
0.1314
0.222458
0.155978
0.223688
0.184246
0.219698
0.214257
0.200427
0.239688
0.156733
0.247644
0.0920055
0.226506
0.0263308
0.177525
-0.0204936
0.121007
-0.0473007
0.0773473
-0.0625951
0.0502387
-0.0716685
0.0339646
-0.0775066
0.0251468
-0.0821863
0.0226238
-0.0871457
0.024822
-0.0930255
0.0288623
-0.0997145
0.031458
-0.106308
0.0307056
-0.111868
0.0249342
-0.115417
0.0123832
-0.115551
-0.00941189
-0.110601
-0.0457908
-0.0983177
-0.105227
-0.0770064
-0.240477
-0.0418031
-0.479327
-0.159606
-0.0557544
-0.150231
-0.0621014
-0.137943
-0.0821341
-0.125055
-0.0907644
-0.111241
-0.100639
-0.0963213
-0.111331
-0.0812703
-0.116496
-0.0671185
-0.114534
-0.054033
-0.110217
-0.0418713
-0.105258
-0.0308578
-0.0978622
-0.0208317
-0.0904524
-0.0114581
-0.0841601
-0.00262947
-0.0781964
0.00584236
-0.0729717
0.0140484
-0.068546
0.0220648
-0.0646083
0.0299266
-0.0612422
0.0376565
-0.0584555
0.045265
-0.0561466
0.0527632
-0.0542656
0.0601611
-0.0526923
0.0674618
-0.0512433
0.0745861
-0.0491844
0.0814115
-0.0463657
0.0878853
-0.0435357
0.0940057
-0.040776
0.0997829
-0.0381621
0.105221
-0.0356944
0.110366
-0.0334241
0.115235
-0.0314983
0.119875
-0.0299363
0.124357
-0.0288326
0.128758
-0.0283608
0.133227
-0.0287925
0.137984
-0.0307636
0.143211
-0.0349906
0.149704
-0.0506087
0.158023
-0.0727479
-0.169926
0.178825
-0.058524
0.187372
-0.0551826
0.196373
-0.0512574
0.203721
-0.0377738
0.210351
-0.028103
0.216024
-0.0154658
0.220542
-0.0018208
0.223979
0.0117088
0.226595
0.0263502
0.228407
0.0407152
0.229552
0.056104
0.230183
0.0727066
0.230433
0.0902445
0.230317
0.109902
0.2301
0.131612
0.230379
0.155694
0.231566
0.183053
0.232441
0.213376
0.227352
0.244771
0.205982
0.269008
0.15966
0.272823
0.0932018
0.243979
0.0271929
0.187014
-0.0194787
0.124022
-0.0461174
0.0768889
-0.0611163
0.04897
-0.0699813
0.0340057
-0.0761196
0.0287609
-0.0819481
0.0306951
-0.088709
0.0357222
-0.096512
0.0391861
-0.104365
0.0385419
-0.11118
0.0317448
-0.115813
0.0169103
-0.116755
-0.00836396
-0.112315
-0.0502494
-0.100661
-0.116844
-0.081641
-0.259509
-0.0536063
-0.507218
-0.160639
-0.065045
-0.150643
-0.0720967
-0.137584
-0.0952007
-0.124039
-0.104311
-0.109449
-0.115235
-0.0938008
-0.12699
-0.0780224
-0.132283
-0.0634131
-0.129152
-0.0499874
-0.123651
-0.0376154
-0.117638
-0.0265755
-0.10891
-0.0166146
-0.100421
-0.00738836
-0.093395
0.00124593
-0.0868396
0.00949517
-0.0812297
0.0175281
-0.0765873
0.0253871
-0.0724755
0.0331793
-0.0690427
0.0408972
-0.0661817
0.0485612
-0.0638195
0.0561721
-0.0618854
0.0637367
-0.0602665
0.0712386
-0.0587544
0.0786135
-0.0565693
0.0857152
-0.0534761
0.0924647
-0.0502941
0.0988714
-0.0471903
0.104928
-0.0442257
0.110654
-0.0414182
0.116077
-0.0388412
0.121211
-0.0366231
0.126116
-0.0348333
0.130847
-0.0335474
0.135494
-0.0330159
0.140215
-0.033475
0.145212
-0.0357226
0.150663
-0.0404793
0.157252
-0.0572204
0.165428
-0.0808947
-0.172144
0.181766
-0.0681534
0.190977
-0.064403
0.200783
-0.0610715
0.208727
-0.0457243
0.215868
-0.0352438
0.222188
-0.0217947
0.227258
-0.00689572
0.231245
0.00771455
0.234333
0.0232536
0.236581
0.038459
0.238151
0.0545275
0.239247
0.0716063
0.23984
0.0896471
0.240066
0.109671
0.240161
0.131512
0.240129
0.155719
0.240554
0.182619
0.241652
0.212268
0.241891
0.244521
0.235065
0.275825
0.210508
0.297371
0.160921
0.293559
0.0928397
0.255093
0.0272993
0.189566
-0.0185724
0.122773
-0.0447382
0.0751576
-0.0593504
0.0486402
-0.0682257
0.0376524
-0.0753603
0.0378409
-0.0831344
0.0435156
-0.0921456
0.0481821
-0.101414
0.047838
-0.109686
0.0400606
-0.115626
0.0228962
-0.117558
-0.00635397
-0.113726
-0.0540081
-0.10268
-0.127813
-0.0856726
-0.276349
-0.0639158
-0.52846
-0.162315
-0.0748747
-0.151667
-0.0827505
-0.137726
-0.10914
-0.123312
-0.118733
-0.107996
-0.130558
-0.0914553
-0.143536
-0.0749764
-0.148773
-0.0597494
-0.144389
-0.0458995
-0.137511
-0.0331997
-0.130347
-0.022024
-0.120095
-0.0120821
-0.110373
-0.00293496
-0.102552
0.00557005
-0.095354
0.0136341
-0.0893027
0.0214738
-0.084436
0.0292122
-0.080223
0.0368843
-0.0767244
0.0445627
-0.0738704
0.0522487
-0.0715164
0.0599419
-0.0695903
0.0676413
-0.0679776
0.075338
-0.0664627
0.0829472
-0.0641879
0.0903029
-0.0608387
0.0973323
-0.0573253
0.104016
-0.0538744
0.110364
-0.0505719
0.116374
-0.0474352
0.122077
-0.0445411
0.127494
-0.0420384
0.132663
-0.0400077
0.137661
-0.0385664
0.142568
-0.0379578
0.147539
-0.0384775
0.152773
-0.0409763
0.158473
-0.0462232
0.165159
-0.0640363
0.173156
-0.088757
-0.17502
0.185279
-0.0784221
0.19513
-0.0742616
0.205716
-0.0716654
0.214406
-0.0544192
0.22223
-0.0430764
0.229157
-0.0287213
0.234665
-0.0124114
0.239216
0.00315434
0.242779
0.019682
0.245475
0.035755
0.247404
0.0525921
0.248754
0.070251
0.249713
0.0886823
0.25036
0.10902
0.250675
0.131191
0.250879
0.155509
0.251077
0.182415
0.251716
0.211623
0.252709
0.243521
0.251951
0.276577
0.242607
0.30671
0.214214
0.32195
0.160911
0.308393
0.0915947
0.258884
0.0267968
0.187576
-0.0180743
0.120036
-0.0434156
0.0739795
-0.0574995
0.051741
-0.0669453
0.0473338
-0.0760067
0.0526816
-0.08634
0.0584289
-0.0971832
0.0586619
-0.107123
0.0499856
-0.114593
0.0302469
-0.117687
-0.00315802
-0.114584
-0.0571528
-0.104121
-0.138256
-0.0888325
-0.291661
-0.0725827
-0.544634
-0.164434
-0.0854657
-0.153145
-0.0940392
-0.138286
-0.124008
-0.123004
-0.134016
-0.106753
-0.146814
-0.0893663
-0.160935
-0.0720303
-0.166118
-0.0561197
-0.160309
-0.0417042
-0.151936
-0.0286741
-0.143386
-0.0172577
-0.13152
-0.00721445
-0.120424
0.001933
-0.111707
0.0103135
-0.103743
0.0182269
-0.0972241
0.0259304
-0.0921472
0.0335059
-0.0878062
0.0410812
-0.0843074
0.0486843
-0.0814814
0.0563593
-0.0791996
0.0641021
-0.0773417
0.0719115
-0.075796
0.0797836
-0.0743445
0.0876092
-0.0720235
0.0952181
-0.0684586
0.102513
-0.0646302
0.109481
-0.0608547
0.116113
-0.0572136
0.122417
-0.0537415
0.128407
-0.0505277
0.134101
-0.0477282
0.139557
-0.0454503
0.144825
-0.0438197
0.149999
-0.0431351
0.155232
-0.0436694
0.160722
-0.0464242
0.166658
-0.052196
0.173425
-0.0707848
0.181262
-0.0966117
-0.178291
0.189341
-0.0894836
0.199933
-0.0848636
0.211342
-0.0830837
0.220641
-0.0637249
0.229118
-0.0515523
0.236681
-0.0362942
0.242852
-0.0185884
0.247868
-0.00186916
0.251875
0.0156652
0.254957
0.0326641
0.257306
0.050236
0.259055
0.0684961
0.260236
0.0874961
0.261084
0.108166
0.261719
0.13055
0.26217
0.155052
0.262491
0.182086
0.262878
0.211228
0.263581
0.242809
0.264347
0.275802
0.262252
0.308796
0.249813
0.334383
0.216957
0.341245
0.160024
0.315818
0.0893728
0.258233
0.0251221
0.1843
-0.018233
0.117351
-0.0421182
0.0756395
-0.0559174
0.0611489
-0.066946
0.0637293
-0.0787885
0.0702545
-0.0913491
0.0712484
-0.103161
0.0618421
-0.112383
0.0395162
-0.116834
0.0013802
-0.114592
-0.0593103
-0.104737
-0.148028
-0.0909406
-0.305276
-0.0796232
-0.555463
-0.167028
-0.0967326
-0.154956
-0.106118
-0.139181
-0.139781
-0.122941
-0.150265
-0.105758
-0.164004
-0.0874184
-0.17928
-0.0691291
-0.184418
-0.0524809
-0.176969
-0.0374753
-0.166951
-0.0239517
-0.156919
-0.0122087
-0.143272
-0.00200302
-0.130638
0.00714692
-0.120865
0.0155103
-0.112114
0.0233241
-0.105045
0.0308773
-0.0997081
0.0383203
-0.0952572
0.0457616
-0.0917571
0.0532895
-0.0890184
0.0609264
-0.0868467
0.0686886
-0.0851148
0.076586
-0.0837054
0.0846083
-0.0823789
0.0926416
-0.0800686
0.100487
-0.0763136
0.108042
-0.0721923
0.115283
-0.0680994
0.122203
-0.064136
0.128791
-0.0603329
0.135075
-0.0568067
0.141063
-0.0537029
0.146801
-0.0511787
0.152357
-0.0493806
0.157801
-0.0486033
0.163309
-0.0492032
0.169051
-0.0521856
0.175224
-0.0584084
0.182104
-0.0777418
0.189779
-0.104225
-0.182122
0.193832
-0.101206
0.205204
-0.0962414
0.217483
-0.0953719
0.227556
-0.0738012
0.236729
-0.0607353
0.244921
-0.0444865
0.251652
-0.0253272
0.257233
-0.00746158
0.261639
0.0112493
0.265129
0.029165
0.267801
0.0475567
0.269833
0.0664581
0.271381
0.0859429
0.272496
0.107045
0.273305
0.129736
0.273906
0.154446
0.274425
0.181562
0.274911
0.210735
0.27547
0.242243
0.276202
0.275065
0.276443
0.308551
0.272434
0.338388
0.256119
0.357559
0.218546
0.353391
0.157716
0.319068
0.0851989
0.256821
0.0219562
0.180596
-0.0187656
0.116369
-0.0408741
0.0833106
-0.0553403
0.0782972
-0.069096
0.0839278
-0.0835446
0.0856725
-0.0974107
0.0756801
-0.108605
0.0505762
-0.114613
0.00748292
-0.1134
-0.060592
-0.104247
-0.157188
-0.0917692
-0.31778
-0.0848264
-0.562388
-0.169981
-0.108881
-0.157242
-0.118859
-0.140405
-0.156628
-0.1232
-0.167471
-0.104945
-0.182267
-0.0855145
-0.198724
-0.06631
-0.203633
-0.0487896
-0.194498
-0.0331085
-0.182641
-0.0190402
-0.170995
-0.00694226
-0.155376
0.00348066
-0.141067
0.0127817
-0.130173
0.0211313
-0.12047
0.0288995
-0.11282
0.036357
-0.107172
0.043663
-0.10257
0.0509659
-0.0990672
0.058388
-0.0964481
0.0659801
-0.0944465
0.0737466
-0.0928898
0.0817121
-0.0916798
0.0898511
-0.0905277
0.0980715
-0.0882995
0.106145
-0.0843989
0.113949
-0.0800091
0.121458
-0.0756227
0.128653
-0.0713466
0.135537
-0.0672248
0.142115
-0.0633891
0.148402
-0.059987
0.154438
-0.0572084
0.160283
-0.0552061
0.166015
-0.0543424
0.171799
-0.054942
0.177812
-0.0581529
0.184229
-0.0648615
0.191179
-0.0846556
0.198702
-0.111778
-0.186289
0.198817
-0.113745
0.211006
-0.108441
0.224214
-0.108587
0.235039
-0.0846338
0.244898
-0.0705924
0.253759
-0.053359
0.261098
-0.0326738
0.267159
-0.0135299
0.272062
0.00633521
0.27593
0.0252883
0.279005
0.0444738
0.281337
0.0641197
0.283145
0.0841285
0.28449
0.105695
0.285415
0.128804
0.286223
0.153632
0.286868
0.180909
0.287447
0.210149
0.288064
0.241618
0.288725
0.274397
0.289393
0.307876
0.28876
0.339015
0.282181
0.364133
0.261584
0.373988
0.218718
0.361937
0.152963
0.322584
0.0786687
0.254899
0.0178186
0.177228
-0.0192029
0.120347
-0.0401542
0.0992717
-0.0567305
0.100488
-0.0733219
0.102292
-0.0894295
0.0918326
-0.102816
0.0640121
-0.110599
0.0153546
-0.11063
-0.0604682
-0.102325
-0.165408
-0.0911038
-0.328809
-0.0878914
-0.565167
-0.173448
-0.121729
-0.159744
-0.13257
-0.141896
-0.174475
-0.123596
-0.185781
-0.104308
-0.201562
-0.0837826
-0.219254
-0.0634414
-0.223986
-0.0450413
-0.212909
-0.0285655
-0.199126
-0.0139075
-0.18566
-0.00134984
-0.16794
0.00935755
-0.15178
0.0188025
-0.139623
0.0272198
-0.128893
0.0349367
-0.120543
0.0423116
-0.114554
0.0495153
-0.109781
0.0567091
-0.106269
0.0640312
-0.103778
0.0715495
-0.101974
0.0793018
-0.100653
0.0872983
-0.0996879
0.0955533
-0.0987958
0.103944
-0.0967031
0.112223
-0.0926921
0.120265
-0.0880618
0.128033
-0.0834018
0.13551
-0.0788317
0.142683
-0.0744051
0.149557
-0.07026
0.156143
-0.0665579
0.162478
-0.0635218
0.168624
-0.0613402
0.17465
-0.060377
0.180721
-0.0610305
0.187001
-0.064453
0.193659
-0.0715559
0.200726
-0.0917678
0.208066
-0.119103
-0.19086
0.204297
-0.127194
0.217299
-0.121448
0.23148
-0.122777
0.243058
-0.0962154
0.253653
-0.0811984
0.263299
-0.0630051
0.271176
-0.0405579
0.277791
-0.0201577
0.283245
0.000871883
0.287531
0.0209935
0.290914
0.041083
0.29357
0.0614565
0.295546
0.0821472
0.297127
0.104109
0.298327
0.127598
0.299237
0.152717
0.3
0.180141
0.300659
0.209485
0.301222
0.241049
0.301855
0.27376
0.302546
0.30718
0.302822
0.338737
0.300724
0.36623
0.291048
0.383664
0.265531
0.387457
0.21623
0.371891
0.145178
0.325954
0.0703279
0.252087
0.0137074
0.17701
-0.0194469
0.132516
-0.0408768
0.12184
-0.0601301
0.121516
-0.0786966
0.110364
-0.0944943
0.0796524
-0.10429
0.0252318
-0.105834
-0.059022
-0.0986044
-0.172663
-0.0886931
-0.33876
-0.0885184
-0.565382
-0.17717
-0.135425
-0.162714
-0.147028
-0.143662
-0.193539
-0.124254
-0.205189
-0.103802
-0.222021
-0.082044
-0.241026
-0.0606035
-0.245434
-0.0411659
-0.232355
-0.0239205
-0.216377
-0.00855716
-0.201028
0.00447474
-0.180975
0.0155435
-0.162852
0.0252238
-0.149307
0.0337291
-0.137403
0.0414905
-0.12831
0.0488031
-0.121872
0.0559182
-0.116902
0.0630185
-0.113376
0.0702372
-0.111004
0.0776776
-0.109422
0.0853855
-0.108369
0.0934063
-0.107718
0.101745
-0.107145
0.110294
-0.105263
0.11877
-0.10118
0.127035
-0.0963415
0.135053
-0.0914364
0.142796
-0.0865939
0.150256
-0.0818796
0.157423
-0.0774384
0.164314
-0.0734543
0.170962
-0.070165
0.177408
-0.0677743
0.183741
-0.0667158
0.19011
-0.0673581
0.196662
-0.0709538
0.20356
-0.0784901
0.210713
-0.0988784
0.217885
-0.126311
-0.195892
0.210231
-0.141544
0.224087
-0.135315
0.239255
-0.137952
0.251629
-0.108597
0.263076
-0.0926423
0.27344
-0.0733812
0.281958
-0.0490833
0.289142
-0.0273476
0.295066
-0.00506272
0.299737
0.0163126
0.303469
0.0373435
0.306428
0.0584905
0.308765
0.0798046
0.310503
0.102365
0.311858
0.126238
0.31289
0.151679
0.313725
0.1793
0.314421
0.208782
0.315105
0.240359
0.315707
0.27315
0.316304
0.306577
0.316802
0.338233
0.316342
0.366687
0.312329
0.387675
0.29892
0.400868
0.267287
0.403527
0.210571
0.382675
0.134702
0.32796
0.0614755
0.250248
0.0105427
0.183465
-0.0201096
0.152483
-0.0432231
0.14466
-0.0645763
0.131764
-0.0830226
0.0981451
-0.0951405
0.0374353
-0.0985211
-0.055554
-0.092646
-0.178459
-0.0842534
-0.346959
-0.0865874
-0.562686
-0.18126
-0.150063
-0.165863
-0.162432
-0.145644
-0.213755
-0.125048
-0.225797
-0.103377
-0.243699
-0.0803373
-0.264069
-0.0576696
-0.268114
-0.0371868
-0.252847
-0.0190273
-0.234543
-0.00292591
-0.217133
0.0106792
-0.194583
0.0221371
-0.174313
0.0320429
-0.159217
0.0407365
-0.1461
0.0485139
-0.136092
0.0558511
-0.129215
0.0628811
-0.123938
0.0698962
-0.120397
0.0770156
-0.118131
0.0843765
-0.116792
0.0920478
-0.11605
0.100067
-0.115749
0.108479
-0.115571
0.117151
-0.11395
0.125814
-0.10986
0.134287
-0.104832
0.142544
-0.0997092
0.150549
-0.0946157
0.158291
-0.0896341
0.165756
-0.0849089
0.172953
-0.0806406
0.179903
-0.0770934
0.18667
-0.0745165
0.193308
-0.0733463
0.19998
-0.0740333
0.20681
-0.0778016
0.213944
-0.0856597
0.221202
-0.106163
0.228225
-0.133347
-0.201247
0.216481
-0.156788
0.231303
-0.15014
0.247556
-0.154212
0.260798
-0.121841
0.273077
-0.104933
0.284173
-0.0844763
0.293393
-0.0583104
0.301171
-0.0351375
0.307564
-0.0114651
0.312675
0.0111929
0.316845
0.0331668
0.320072
0.0552577
0.322635
0.0772354
0.32461
0.100385
0.3261
0.124744
0.327275
0.150499
0.328159
0.178411
0.328909
0.208028
0.329536
0.239726
0.330169
0.272514
0.330712
0.30603
0.3312
0.337743
0.33129
0.366596
0.329762
0.389204
0.323308
0.407325
0.305203
0.421636
0.266303
0.421579
0.201748
0.392521
0.122677
0.329349
0.0538418
0.25236
0.00846445
0.1978
-0.021426
0.174525
-0.0462692
0.156561
-0.0676866
0.11941
-0.082492
0.0523016
-0.088101
-0.0500506
-0.0839208
-0.182684
-0.0774065
-0.353506
-0.0821015
-0.558045
-0.185681
-0.165635
-0.169343
-0.178771
-0.14787
-0.23524
-0.125975
-0.247691
-0.103037
-0.266645
-0.0786712
-0.28845
-0.0546442
-0.292148
-0.0330712
-0.274425
-0.0139216
-0.253696
0.00296173
-0.234017
0.0171725
-0.208794
0.0290614
-0.186203
0.0393256
-0.169483
0.0481767
-0.154955
0.0560816
-0.144002
0.0634175
-0.136556
0.070438
-0.130965
0.0773679
-0.127334
0.0844084
-0.125179
0.0916835
-0.124075
0.0992898
-0.123665
0.107308
-0.123776
0.115776
-0.12405
0.124585
-0.122771
0.133396
-0.118685
0.142069
-0.11352
0.150549
-0.108209
0.158811
-0.102898
0.166823
-0.0976653
0.174581
-0.0926831
0.182081
-0.0881526
0.18935
-0.0843658
0.196429
-0.0815875
0.203378
-0.0803052
0.210361
-0.0809724
0.21747
-0.0848601
0.224844
-0.0930665
0.232202
-0.11348
0.239044
-0.140222
-0.207039
0.223273
-0.173031
0.239102
-0.165981
0.25636
-0.171476
0.270619
-0.136107
0.283656
-0.117968
0.295635
-0.0964671
0.305499
-0.0681818
0.313888
-0.0435314
0.320838
-0.0184245
0.326427
0.00559568
0.330856
0.0287312
0.334457
0.0516508
0.337221
0.0744654
0.339403
0.0981981
0.341123
0.123019
0.342362
0.149254
0.343363
0.177405
0.344128
0.207258
0.344784
0.239063
0.34534
0.271953
0.345833
0.305531
0.346328
0.337243
0.346549
0.36637
0.346026
0.389726
0.342961
0.41039
0.333275
0.431325
0.309556
0.445299
0.262432
0.439647
0.190453
0.401335
0.111271
0.331552
0.0486859
0.260384
0.00747861
0.215763
-0.0226414
0.186723
-0.0475626
0.144371
-0.0655288
0.0703396
-0.0738838
-0.0416282
-0.0718224
-0.184688
-0.0676856
-0.35746
-0.074939
-0.550501
-0.190491
-0.182189
-0.17312
-0.196149
-0.150276
-0.258081
-0.127088
-0.270892
-0.102744
-0.290997
-0.0769483
-0.314246
-0.051599
-0.317508
-0.0287454
-0.297285
-0.00859839
-0.273846
0.00916923
-0.251786
0.0240493
-0.223675
0.0364524
-0.198608
0.0470571
-0.180091
0.0561603
-0.164062
0.0641843
-0.15203
0.0715763
-0.143953
0.0785963
-0.13799
0.0854696
-0.134214
0.0924261
-0.132143
0.099633
-0.13129
0.107188
-0.13123
0.11518
-0.131781
0.12369
-0.132574
0.132599
-0.131696
0.141567
-0.127672
0.15042
-0.122393
0.159111
-0.116922
0.167609
-0.111419
0.175891
-0.10597
0.183931
-0.100737
0.191737
-0.0959612
0.199314
-0.0919269
0.206716
-0.0889668
0.213994
-0.08756
0.221275
-0.0882448
0.22868
-0.0922723
0.236277
-0.100697
0.243767
-0.120986
0.250468
-0.146953
-0.213188
0.230469
-0.190323
0.247267
-0.18278
0.265795
-0.190012
0.280873
-0.151189
0.294922
-0.132029
0.307705
-0.109248
0.31838
-0.0788634
0.327328
-0.0524901
0.334823
-0.0259265
0.340848
-0.000436996
0.345751
0.0238223
0.349595
0.0478003
0.352699
0.0713566
0.355077
0.0958149
0.356931
0.121161
0.358314
0.147866
0.359357
0.176358
0.360115
0.206495
0.360706
0.238468
0.361213
0.271443
0.361678
0.305064
0.36206
0.336858
0.362346
0.366083
0.362313
0.389759
0.360857
0.411849
0.355722
0.436463
0.342271
0.458754
0.311956
0.469965
0.255907
0.457405
0.178637
0.408854
0.102857
0.336133
0.0468182
0.27178
0.00818787
0.225313
-0.0213973
0.173817
-0.0431903
0.0921827
-0.0549837
-0.0299582
-0.0556229
-0.184096
-0.0545147
-0.358595
-0.0648166
-0.540255
-0.195607
-0.199776
-0.177153
-0.214605
-0.152893
-0.282354
-0.128343
-0.29544
-0.102537
-0.316809
-0.0752224
-0.341577
-0.048376
-0.344358
-0.0242719
-0.321392
-0.00301666
-0.295101
0.0156667
-0.270468
0.0312804
-0.239288
0.0442341
-0.211562
0.0552355