/*--------------------------------*- C++ -*----------------------------------*\
  =========                 |
  \\      /  F ield         | OpenFOAM: The Open Source CFD Toolbox
   \\    /   O peration     | Website:  https://openfoam.org
    \\  /    A nd           | Version:  9
     \\/     M anipulation  |
\*---------------------------------------------------------------------------*/
FoamFile
{
    format      ascii;
    class       volVectorField;
    location    "40";
    object      U;
}
// * * * * * * * * * * * * * * * * * * * * * * * * * * * * * * * * * * * * * //

dimensions      [0 1 -1 0 0 0 0];

internalField   nonuniform List<vector> 
10720
(
(-2.60098 21.6088 3.56675e-17)
(-1.29446 22.0224 -3.53423e-17)
(0.0954959 22.171 0)
(1.48444 21.7493 -3.83056e-16)
(2.79453 20.8695 4.44101e-16)
(3.95689 19.4443 2.64202e-16)
(4.83535 17.4068 3.15976e-16)
(5.30534 14.8182 0)
(5.23282 11.7405 0)
(4.50896 8.31808 0)
(3.0939 4.76612 3.04149e-17)
(1.03821 1.35564 0)
(-1.44209 -1.18125 3.54021e-15)
(-2.68671 -1.51905 0)
(-3.35743 -1.73951 0)
(-3.92882 -1.76603 0)
(-4.19193 -1.58785 -3.64784e-15)
(-4.59286 -1.45539 -5.12251e-15)
(-5.2078 -1.31937 4.26798e-15)
(-6.06622 -1.2041 0)
(-7.05186 -1.08843 3.18373e-15)
(-7.96766 -0.936116 -6.06973e-15)
(-8.72486 -0.743521 3.02363e-15)
(-9.31484 -0.533959 -8.73563e-17)
(-9.76006 -0.31955 0)
(-10.0924 -0.0955571 1.26766e-15)
(-10.3274 0.137744 1.92204e-17)
(-10.4862 0.374775 -5.7852e-16)
(-10.6213 0.615252 -2.1908e-15)
(-10.7959 0.858875 -8.28859e-15)
(-11.0542 1.10506 3.92787e-15)
(-11.3732 1.35008 7.73835e-15)
(-11.6961 1.58544 7.37523e-15)
(-11.9291 1.79679 2.87712e-14)
(-11.9209 1.95366 -1.36191e-14)
(-11.5393 2.00229 -1.03279e-16)
(-10.3993 1.80152 6.79042e-17)
(-7.94175 1.14612 2.80145e-14)
(-3.77752 0.569031 -2.9763e-14)
(-3.82779 20.989 1.6416e-17)
(-5.05687 20.0953 3.14069e-17)
(-6.24257 18.9285 -5.63654e-17)
(-7.28568 17.2743 7.36559e-17)
(-8.07525 15.3919 1.85989e-16)
(-8.51749 13.2834 -1.17361e-16)
(-8.54526 11.0529 -1.4902e-16)
(-8.14886 8.868 5.92431e-17)
(-7.40906 6.88933 0)
(-6.4357 5.18758 0)
(-5.3201 3.78473 4.1087e-16)
(-4.16151 2.67911 3.26496e-16)
(-3.02283 1.82855 -9.04047e-16)
(-1.93341 1.18675 1.36234e-15)
(-0.920336 0.715064 4.50995e-15)
(-0.00866968 0.366852 5.24681e-15)
(0.820523 0.0583821 6.60576e-15)
(1.62019 -0.198999 3.34424e-15)
(2.37437 -0.391852 0)
(3.07686 -0.529832 0)
(3.74109 -0.626454 -3.62635e-15)
(4.3792 -0.687235 -1.84192e-16)
(4.9976 -0.712022 2.71016e-15)
(5.5918 -0.693539 -2.16553e-15)
(6.14458 -0.629766 4.61979e-18)
(6.64861 -0.531342 0)
(7.10942 -0.407326 6.93154e-16)
(7.53187 -0.264018 0)
(7.9182 -0.105397 0)
(8.2689 0.0654108 4.48975e-16)
(8.58413 0.24522 0)
(8.8656 0.429864 -1.3321e-15)
(9.12112 0.615523 -2.21135e-15)
(9.36117 0.799039 -9.17291e-15)
(9.60311 0.980339 2.91317e-15)
(9.86187 1.16192 -9.54971e-18)
(10.178 1.35844 0)
(10.5359 1.5832 5.39964e-16)
(11.3438 1.86245 -1.77803e-15)
(3.01871 19.7788 1.37981e-17)
(4.38777 20.1899 -1.93932e-17)
(5.866 20.4833 0)
(7.37989 20.6587 0)
(8.77671 20.6767 -1.12491e-16)
(10.0027 20.5563 -2.10705e-16)
(10.9923 20.2318 0)
(11.6709 19.6346 0)
(11.9529 18.6607 2.69932e-16)
(11.7293 17.1815 0)
(10.8734 15.074 7.69791e-16)
(9.25873 12.2474 0)
(6.78984 8.75856 3.07604e-16)
(3.65514 5.05019 -4.20277e-16)
(0.132201 1.24749 1.35464e-15)
(-2.7228 -1.12797 -3.46102e-15)
(-4.22586 -1.56099 2.8703e-15)
(-5.34925 -1.62216 2.60886e-15)
(-6.26911 -1.57076 2.37524e-15)
(-7.12724 -1.46667 1.41085e-16)
(-7.93304 -1.33442 -2.27749e-15)
(-8.6238 -1.16144 2.27174e-15)
(-9.2024 -0.941839 -1.30098e-16)
(-9.66838 -0.71325 0)
(-10.0227 -0.496071 0)
(-10.2817 -0.274504 0)
(-10.4733 -0.0399609 1.11418e-16)
(-10.6425 0.205782 -2.59185e-17)
(-10.8297 0.465564 1.596e-15)
(-11.0503 0.734035 1.31843e-17)
(-11.2963 0.999688 -1.13039e-17)
(-11.5342 1.25101 -6.10623e-17)
(-11.7186 1.47596 5.26757e-15)
(-11.8144 1.66981 -1.0295e-14)
(-11.755 1.82825 -7.32773e-17)
(-11.3436 1.91664 -1.73951e-14)
(-10.1672 1.81437 0)
(-7.73953 1.15893 -7.67851e-15)
(-3.92458 0.178582 -1.25898e-14)
(1.70729 19.2432 -1.86588e-17)
(0.425362 18.5641 3.10365e-17)
(-0.957967 17.6716 2.13243e-16)
(-2.2899 16.5062 -2.58291e-16)
(-3.48086 15.0605 0)
(-4.44702 13.3682 6.06161e-17)
(-5.09917 11.4967 -1.54867e-17)
(-5.36829 9.57559 -1.54112e-16)
(-5.26165 7.73607 9.15424e-17)
(-4.84353 6.06349 -2.55963e-16)
(-4.19081 4.6177 4.82565e-16)
(-3.38887 3.42195 -2.18607e-16)
(-2.51207 2.46172 0)
(-1.61305 1.70897 -4.3181e-16)
(-0.729882 1.13365 -2.75293e-17)
(0.112038 0.695052 -2.24591e-15)
(0.910033 0.337194 0)
(1.67833 0.0568715 0)
(2.41 -0.148098 -2.28147e-16)
(3.10345 -0.296842 1.98022e-16)
(3.76752 -0.402595 -2.49498e-15)
(4.41092 -0.468097 -2.85681e-16)
(5.0378 -0.491356 1.26626e-16)
(5.64418 -0.46442 1.70933e-15)
(6.21561 -0.389814 -1.52807e-15)
(6.74388 -0.284914 -1.2566e-15)
(7.23227 -0.159426 0)
(7.68465 -0.0177261 0)
(8.10242 0.138517 0)
(8.48587 0.307201 2.54133e-18)
(8.83421 0.484913 0)
(9.14906 0.66563 0)
(9.43763 0.844194 3.67934e-15)
(9.70955 1.01701 3.02361e-15)
(9.98049 1.18569 -2.38392e-15)
(10.2636 1.3566 1.73567e-15)
(10.6039 1.55137 -2.06144e-15)
(10.957 1.78553 -4.88178e-16)
(11.848 2.16773 1.11443e-15)
(1.35787 18.0661 4.49503e-18)
(2.32865 18.4356 9.38897e-17)
(3.40904 18.6853 -7.50158e-17)
(4.53784 18.808 -7.24211e-17)
(5.67655 18.7791 -1.69431e-16)
(6.87578 18.6386 4.89769e-16)
(8.08669 18.4449 -3.14308e-16)
(9.24087 18.2434 -2.68583e-16)
(10.3063 18.0582 -1.30172e-17)
(11.2072 17.8393 -2.45636e-16)
(11.8323 17.4417 1.88449e-16)
(12.0109 16.6093 -3.96094e-16)
(11.4924 15.0201 -1.79766e-16)
(9.95163 12.4073 0)
(7.14757 8.72023 -4.7005e-16)
(3.23072 4.45159 1.27501e-15)
(-0.984097 0.840578 0)
(-3.76352 -0.578879 -4.49897e-15)
(-5.19059 -0.877445 -1.94127e-15)
(-6.12716 -0.929117 2.27956e-16)
(-6.95315 -0.910059 -2.10793e-16)
(-7.70438 -0.832963 -1.09616e-16)
(-8.34569 -0.688781 -1.61657e-15)
(-8.85561 -0.520038 8.47895e-16)
(-9.2368 -0.355022 0)
(-9.51489 -0.179543 7.6774e-16)
(-9.72912 0.0163313 -8.95353e-17)
(-9.92163 0.231723 0)
(-10.1254 0.46799 1.22017e-15)
(-10.3568 0.718583 2.32506e-15)
(-10.6166 0.971419 -4.38798e-15)
(-10.8791 1.21387 -4.15821e-15)
(-11.1055 1.42976 -7.36351e-17)
(-11.2531 1.60767 -7.9883e-15)
(-11.2265 1.73049 -7.53567e-15)
(-10.8575 1.76306 1.32633e-14)
(-9.77272 1.6069 0)
(-7.53403 0.895509 -5.58155e-15)
(-4.17508 -0.212221 1.60079e-14)
(0.479345 17.589 1.30446e-17)
(-0.376061 16.9724 2.11899e-17)
(-1.23692 16.1404 -1.15456e-16)
(-2.09488 15.1129 0)
(-2.85898 13.8992 -3.89489e-17)
(-3.4866 12.5068 0)
(-3.92599 10.978 1.07125e-17)
(-4.12909 9.39664 3.91324e-17)
(-4.07963 7.84601 1.03122e-16)
(-3.79625 6.38862 0)
(-3.32143 5.07599 -5.80189e-16)
(-2.70422 3.94048 -1.99397e-16)
(-1.99452 2.98642 1.22217e-15)
(-1.23558 2.20368 0)
(-0.463424 1.57562 -1.21493e-15)
(0.298479 1.07854 -4.74104e-16)
(1.0419 0.677909 2.27524e-15)
(1.76812 0.362217 1.17444e-15)
(2.46823 0.120933 3.37602e-16)
(3.13958 -0.0626296 -1.56764e-16)
(3.7874 -0.199366 1.96677e-15)
(4.41772 -0.292409 0)
(5.03342 -0.340884 0)
(5.63099 -0.340647 1.28199e-18)
(6.19845 -0.295161 0)
(6.72806 -0.217751 2.25954e-15)
(7.22178 -0.115768 -3.19975e-17)
(7.68289 0.00784869 -2.16998e-16)
(8.11275 0.151736 0)
(8.51167 0.313388 -3.31426e-16)
(8.87924 0.488118 5.79504e-16)
(9.21744 0.667865 0)
(9.53342 0.846112 -1.69829e-15)
(9.83628 1.01905 0)
(10.141 1.18944 0)
(10.4576 1.36523 1.33431e-17)
(10.8327 1.57071 -2.60258e-17)
(11.1931 1.82747 4.53944e-16)
(12.1082 2.27 -2.34612e-15)
(2.97235 16.7188 1.07466e-17)
(3.89478 17.0634 2.27638e-17)
(4.89201 17.3127 -5.02503e-17)
(5.93283 17.4536 -4.00497e-17)
(6.96085 17.467 0)
(7.92575 17.3558 0)
(8.78838 17.1386 -4.84624e-16)
(9.5408 16.8516 5.06803e-16)
(10.2018 16.5627 0)
(10.8088 16.3517 -4.10641e-16)
(11.4006 16.2688 -4.0814e-16)
(11.9803 16.2577 -3.48728e-16)
(12.4365 16.0888 3.3812e-16)
(12.4705 15.3711 3.09881e-16)
(11.6018 13.6533 0)
(9.33901 10.6572 5.21874e-16)
(5.40634 6.55167 2.19341e-16)
(0.639174 2.59731 2.58404e-15)
(-2.92443 0.433705 2.11466e-16)
(-4.60338 -0.154688 -1.90603e-16)
(-5.7216 -0.362683 1.65333e-15)
(-6.67502 -0.445233 -2.67103e-16)
(-7.44567 -0.417801 1.51848e-15)
(-8.02366 -0.32982 7.01552e-16)
(-8.43993 -0.221013 -4.22493e-17)
(-8.73686 -0.088258 -5.95723e-16)
(-8.96549 0.0730999 4.5098e-18)
(-9.17365 0.260469 -4.18023e-18)
(-9.39787 0.472956 -9.65803e-16)
(-9.65863 0.70376 -2.77833e-17)
(-9.95899 0.94164 1.76252e-15)
(-10.2677 1.17389 -3.33422e-15)
(-10.5375 1.37973 -3.06282e-15)
(-10.7191 1.5426 -3.8932e-17)
(-10.7204 1.64204 5.71516e-15)
(-10.3945 1.63955 0)
(-9.4007 1.43629 7.95213e-15)
(-7.36363 0.654119 4.30722e-15)
(-4.47398 -0.56248 -5.98775e-15)
(2.10431 16.3037 5.18065e-18)
(1.23889 15.7874 -3.89597e-17)
(0.346845 15.1097 -8.77018e-17)
(-0.539056 14.255 0)
(-1.33825 13.2271 3.70582e-17)
(-2.01594 12.0352 0)
(-2.52641 10.713 -6.20549e-17)
(-2.82885 9.33221 3.84239e-18)
(-2.90949 7.95992 1.12333e-16)
(-2.7802 6.64588 2.1045e-16)
(-2.47071 5.4346 2.7347e-18)
(-2.01629 4.3581 6.31498e-16)
(-1.45529 3.42648 -6.49114e-16)
(-0.824215 2.6384 2.51636e-16)
(-0.156496 1.9856 1.26326e-15)
(0.524246 1.45254 1.78629e-15)
(1.20566 1.0151 -1.72331e-15)
(1.88309 0.662695 -9.64193e-18)
(2.54646 0.385844 0)
(3.19133 0.170858 1.93943e-15)
(3.81936 0.00773459 1.05989e-16)
(4.43385 -0.10778 -1.63192e-15)
(5.03625 -0.176421 0)
(5.62294 -0.196312 8.14284e-20)
(6.1833 -0.170411 0)
(6.70945 -0.109562 -9.53552e-16)
(7.20185 -0.0209533 0)
(7.66303 0.0920988 1.89797e-16)
(8.09423 0.227392 -7.63785e-18)
(8.49586 0.381395 4.76021e-18)
(8.86788 0.54829 -4.88087e-16)
(9.2126 0.719265 -1.44904e-17)
(9.53693 0.888056 0)
(9.84958 1.05208 1.23199e-15)
(10.1651 1.21583 1.72745e-17)
(10.4928 1.38926 -1.45378e-15)
(10.8792 1.59744 3.5892e-15)
(11.243 1.87255 4.19979e-18)
(12.119 2.32684 0)
(3.07312 15.7003 1.2395e-17)
(3.81335 16.0356 1.99673e-17)
(4.62643 16.3082 -8.61982e-17)
(5.48257 16.5099 3.92377e-16)
(6.33313 16.6104 -1.02643e-16)
(7.1926 16.6057 -2.04848e-16)
(8.04248 16.4943 2.34215e-16)
(8.84117 16.2832 0)
(9.56676 15.9986 5.9313e-16)
(10.2065 15.6906 2.09626e-16)
(10.7788 15.4302 0)
(11.3356 15.2924 3.48281e-16)
(11.9248 15.2968 -1.5667e-16)
(12.5082 15.321 4.2666e-16)
(12.8488 15.024 0)
(12.4538 13.8955 -5.60969e-16)
(10.6025 11.4266 5.95932e-16)
(6.84797 7.66394 -3.84379e-18)
(1.92262 3.71512 0)
(-2.01272 1.25129 1.4691e-15)
(-4.06943 0.410151 -1.51104e-15)
(-5.43508 0.0518721 -8.09832e-17)
(-6.43841 -0.0956728 -1.25061e-15)
(-7.1477 -0.120801 -1.15518e-15)
(-7.63352 -0.0825987 0)
(-7.96592 0.00348548 0)
(-8.21564 0.132006 -1.2648e-16)
(-8.44264 0.295549 -1.40533e-17)
(-8.691 0.488531 8.24719e-16)
(-8.98652 0.701268 -2.30804e-17)
(-9.33263 0.922583 2.15621e-17)
(-9.6911 1.14135 2.63922e-15)
(-10.0053 1.33416 0)
(-10.2226 1.48013 1.00479e-14)
(-10.256 1.55607 -3.68852e-17)
(-9.97351 1.51996 0)
(-9.06727 1.27337 2.56939e-17)
(-7.23149 0.432753 0)
(-4.80143 -0.860917 4.93235e-15)
(2.38393 15.306 -1.3356e-17)
(1.70175 14.8292 4.74497e-17)
(0.990119 14.2107 -3.1944e-17)
(0.263239 13.4499 -3.6629e-18)
(-0.407868 12.554 5.08569e-17)
(-0.999045 11.521 -4.90885e-17)
(-1.47109 10.3735 7.06107e-17)
(-1.78353 9.16943 -1.66534e-16)
(-1.918 7.96163 -1.50009e-16)
(-1.87801 6.78731 -2.03283e-16)
(-1.68094 5.68366 4.75084e-16)
(-1.34945 4.68036 -6.00166e-16)
(-0.910354 3.78951 -3.75716e-16)
(-0.391896 3.01477 4.35919e-16)
(0.177951 2.35523 -1.3556e-15)
(0.778339 1.80189 2.76324e-16)
(1.39528 1.33838 0)
(2.02073 0.957422 -1.26962e-15)
(2.64366 0.651322 4.58595e-16)
(3.25806 0.408728 -1.87124e-15)
(3.86275 0.220778 0)
(4.45853 0.082864 1.33339e-15)
(5.04536 -0.00659097 1.11306e-15)
(5.61935 -0.0473188 -9.90954e-16)
(6.17075 -0.0418774 0)
(6.69153 0.000978733 -8.44207e-16)
(7.18076 0.074161 0)
(7.6402 0.173938 0)
(8.0709 0.297317 0)
(8.47325 0.440158 2.58326e-16)
(8.84737 0.596192 0)
(9.1955 0.756909 0)
(9.52392 0.916775 -1.33155e-15)
(9.84063 1.07438 -1.1056e-15)
(10.1595 1.23517 0)
(10.4893 1.41023 -1.31757e-15)
(10.8747 1.62398 3.31949e-17)
(11.2363 1.91594 0)
(12.0518 2.37822 6.93245e-16)
(3.6816 14.7926 -1.8236e-17)
(4.36197 15.1064 1.4068e-17)
(5.10453 15.3691 0)
(5.8876 15.571 -5.85593e-18)
(6.66795 15.6895 -2.39646e-16)
(7.44888 15.7257 2.02795e-16)
(8.19556 15.6876 1.35423e-17)
(8.88219 15.5814 -5.29493e-16)
(9.50486 15.4172 -3.73733e-17)
(10.062 15.2081 5.05984e-16)
(10.5587 14.9753 -1.65579e-16)
(11.0176 14.7577 3.07262e-16)
(11.483 14.6146 1.43258e-16)
(12.0112 14.5965 1.23408e-16)
(12.6057 14.6527 0)
(13.0876 14.5176 -1.29388e-16)
(12.9413 13.6634 -2.57776e-16)
(11.3583 11.5287 -1.07429e-15)
(7.75642 8.06614 3.97084e-16)
(2.84404 4.30827 -6.27823e-16)
(-1.31569 1.80924 -1.35351e-16)
(-3.70583 0.797843 0)
(-5.17588 0.344845 1.06876e-15)
(-6.14084 0.140635 6.90076e-17)
(-6.7692 0.0765175 -3.37279e-17)
(-7.17533 0.103588 -4.60063e-16)
(-7.46284 0.196603 1.00907e-16)
(-7.71428 0.338381 2.04358e-16)
(-7.98856 0.516 -7.23165e-16)
(-8.32019 0.713885 -4.03696e-17)
(-8.71402 0.918808 1.26329e-15)
(-9.12579 1.12119 2.21632e-15)
(-9.49038 1.29762 0)
(-9.75109 1.42465 2.79215e-17)
(-9.82411 1.47653 -4.03656e-15)
(-9.58756 1.40677 0)
(-8.76685 1.11845 -1.11522e-14)
(-7.13218 0.233933 0)
(-5.14619 -1.10088 -4.28358e-15)
(3.0437 14.4334 1.34148e-17)
(2.4132 14.0067 -1.60833e-17)
(1.75431 13.4575 0)
(1.08393 12.7819 0)
(0.463644 11.9888 -1.84271e-17)
(-0.0907564 11.0755 9.66965e-17)
(-0.547101 10.0595 0)
(-0.869993 8.9913 -1.93566e-16)
(-1.04248 7.91514 -2.67923e-16)
(-1.06587 6.85917 3.45561e-16)
(-0.951388 5.85392 -1.75387e-18)
(-0.714504 4.92533 2.6206e-16)
(-0.374144 4.08428 -1.82411e-17)
(0.0480921 3.33604 1.18245e-15)
(0.529799 2.68417 1.42133e-15)
(1.05365 2.12351 -1.51181e-15)
(1.60627 1.64417 2.33938e-16)
(2.17818 1.24245 -4.33812e-16)
(2.75802 0.912619 2.01121e-16)
(3.33871 0.645978 1.2675e-15)
(3.91691 0.435216 1.67185e-16)
(4.49134 0.275919 -1.44794e-16)
(5.06055 0.166195 -9.266e-16)
(5.62019 0.105472 0)
(6.16102 0.0913386 5.16295e-17)
(6.67486 0.116569 1.47571e-15)
(7.15963 0.174221 -1.02394e-17)
(7.61625 0.260014 9.85251e-18)
(8.04554 0.370402 0)
(8.4478 0.501031 -2.33861e-16)
(8.82316 0.645864 0)
(9.17354 0.797133 0)
(9.50454 0.949908 1.18546e-15)
(9.82344 1.10339 1.0253e-15)
(10.1434 1.2631 0)
(10.4729 1.44044 1.18484e-15)
(10.8541 1.65845 -2.98934e-15)
(11.2114 1.96216 7.19423e-18)
(11.968 2.42751 -6.04978e-16)
(4.03915 14.0508 -4.21914e-18)
(4.63505 14.3522 1.09234e-17)
(5.28758 14.6163 -5.8394e-17)
(5.97598 14.8345 5.92045e-17)
(6.66125 14.9843 1.52757e-16)
(7.35243 15.0691 0)
(8.03529 15.087 -3.01889e-16)
(8.68878 15.039 2.83585e-17)
(9.30415 14.9354 -1.78737e-16)
(9.87035 14.7904 -3.24941e-16)
(10.3829 14.6174 0)
(10.8468 14.4294 -5.80979e-16)
(11.2771 14.2472 -4.25254e-16)
(11.7112 14.1114 -9.36827e-16)
(12.2076 14.0696 0)
(12.7944 14.1032 -4.85263e-16)
(13.3242 13.9887 -4.70162e-16)
(13.2831 13.2263 4.77728e-16)
(11.8043 11.251 -5.08468e-16)
(8.27189 8.02234 5.89465e-16)
(3.37709 4.51285 9.66958e-17)
(-0.897208 2.10122 -1.11372e-15)
(-3.41176 1.02215 0)
(-4.87394 0.511514 -1.11357e-15)
(-5.77451 0.28183 6.29966e-17)
(-6.32794 0.221895 4.76602e-16)
(-6.68857 0.26939 0)
(-6.97664 0.388006 -1.2235e-17)
(-7.27833 0.553184 3.11551e-17)
(-7.64493 0.739908 1.15368e-15)
(-8.08675 0.9299 -1.06862e-15)
(-8.55543 1.11433 -1.97498e-15)
(-8.97773 1.27136 1.90244e-15)
(-9.29182 1.37709 -3.35618e-18)
(-9.41373 1.40388 3.58348e-15)
(-9.22723 1.30007 6.32924e-15)
(-8.48933 0.971385 5.02198e-15)
(-7.04959 0.0542813 -5.12711e-17)
(-5.49431 -1.2979 1.63101e-17)
(3.48012 13.7118 -4.68068e-18)
(2.9272 13.3173 -1.71713e-17)
(2.34378 12.8143 -4.66569e-19)
(1.74357 12.2012 2.19096e-17)
(1.18255 11.4883 -4.51005e-17)
(0.672141 10.67 4.28855e-17)
(0.240499 9.75983 1.33378e-16)
(-0.0794584 8.80271 4.82295e-16)
(-0.271893 7.83645 2.7737e-16)
(-0.336697 6.88255 -3.28865e-16)
(-0.281194 5.96632 -2.43323e-17)
(-0.115819 5.11007 -2.69597e-16)
(0.145648 4.32231 0)
(0.486917 3.60859 -1.37341e-17)
(0.890756 2.97442 -8.44336e-16)
(1.34396 2.41651 4.29808e-16)
(1.83465 1.93046 -4.05751e-16)
(2.35295 1.51545 0)
(2.88824 1.16763 7.01505e-16)
(3.4329 0.880932 -1.3029e-15)
(3.98204 0.649971 0)
(4.53275 0.470954 1.06724e-15)
(5.08238 0.341941 0)
(5.62603 0.261928 -5.26986e-17)
(6.15474 0.228666 5.03673e-17)
(6.66015 0.236109 -6.79305e-16)
(7.13921 0.277673 -1.09097e-17)
(7.59206 0.348679 -9.08326e-18)
(8.01915 0.445368 3.688e-18)
(8.42062 0.56352 -2.20672e-16)
(8.7965 0.697607 -3.7888e-16)
(9.14836 0.840544 6.35616e-16)
(9.4811 0.987699 1.86105e-17)
(9.80129 1.13826 5.23579e-18)
(10.1215 1.29727 0)
(10.4499 1.47604 1.44969e-17)
(10.8263 1.69614 1.3549e-15)
(11.1789 2.00714 6.83732e-18)
(11.8808 2.471 -4.1438e-16)
(4.42616 13.4036 -2.20691e-18)
(4.96984 13.6902 -1.69249e-17)
(5.5648 13.9476 0)
(6.19327 14.1663 -1.32932e-17)
(6.81846 14.3262 1.0943e-16)
(7.45379 14.4322 0)
(8.08024 14.4826 -1.13892e-16)
(8.68006 14.4801 7.39113e-16)
(9.24862 14.4313 -8.42138e-16)
(9.78075 14.3454 2.62144e-16)
(10.2755 14.2325 2.70619e-16)
(10.7368 14.1015 7.94834e-16)
(11.1686 13.9587 5.07535e-16)
(11.5816 13.8144 5.11391e-16)
(12.0042 13.6936 1.23572e-16)
(12.4876 13.6357 3.60985e-16)
(13.0652 13.6281 4.61273e-16)
(13.5963 13.4666 4.43486e-16)
(13.551 12.6765 -3.32206e-16)
(12.0408 10.7458 -1.08877e-15)
(8.46634 7.68038 0)
(3.5848 4.4258 3.19559e-19)
(-0.641464 2.17448 9.16844e-16)
(-3.12227 1.09792 1.07779e-15)
(-4.52994 0.585401 -6.02462e-17)
(-5.36023 0.380577 -4.5511e-16)
(-5.86314 0.357679 3.20793e-18)
(-6.2157 0.444996 -2.07922e-16)
(-6.55048 0.59789 1.98633e-17)
(-6.9504 0.776886 -2.1556e-15)
(-7.43928 0.954505 6.92206e-20)
(-7.96779 1.12075 -2.85203e-17)
(-8.45499 1.25624 -1.76464e-15)
(-8.83244 1.33819 -1.62315e-18)
(-9.01321 1.33798 -3.30401e-15)
(-8.88203 1.19904 -1.1674e-14)
(-8.22353 0.831018 4.63896e-15)
(-6.96189 -0.109012 2.8189e-15)
(-5.79937 -1.45861 -3.70955e-15)
(3.91551 13.0857 1.04574e-17)
(3.41186 12.7205 2.10628e-17)
(2.8787 12.2578 -4.55918e-19)
(2.32901 11.6965 -1.04915e-17)
(1.81287 11.0481 2.65545e-17)
(1.33815 10.306 1.33052e-17)
(0.929119 9.48125 -4.14613e-16)
(0.61598 8.61485 -2.2526e-16)
(0.41303 7.73989 -2.27832e-17)
(0.320858 6.87326 0)
(0.334131 6.03624 -3.93966e-16)
(0.445391 5.24755 4.74253e-16)
(0.644264 4.5133 -5.65967e-16)
(0.91835 3.83848 -3.40404e-16)
(1.25466 3.22838 3.71371e-16)
(1.64403 2.68114 3.64398e-16)
(2.07639 2.19637 1.42016e-15)
(2.54243 1.77477 -3.38672e-16)
(3.0328 1.41456 -6.36196e-16)
(3.53995 1.11204 0)
(4.05809 0.863742 -1.06901e-15)
(4.58311 0.666819 -8.62076e-16)
(5.11138 0.519704 -5.1956e-18)
(5.63752 0.421158 -1.02658e-16)
(6.15263 0.369253 -4.37923e-17)
(6.64818 0.359076 6.91969e-16)
(7.12035 0.384434 -1.75687e-17)
(7.56846 0.440516 1.46985e-16)
(7.99251 0.523515 3.22795e-17)
(8.39241 0.629426 1.99064e-16)
(8.76807 0.753238 -1.45541e-18)
(9.12071 0.888422 -1.24137e-15)
(9.45455 1.03041 -1.01235e-15)
(9.77555 1.17803 -8.68023e-16)
(10.0957 1.33563 -2.17385e-17)
(10.4227 1.51428 9.2845e-18)
(10.7942 1.73428 -1.3371e-15)
(11.1419 2.04873 -4.83781e-16)
(11.7933 2.50798 3.8229e-16)
(4.75971 12.8432 6.6298e-18)
(5.25473 13.1178 9.71525e-18)
(5.7968 13.3701 7.61448e-17)
(6.36943 13.5906 -3.3754e-16)
(6.93808 13.7602 1.81874e-16)
(7.51806 13.8853 -2.10272e-16)
(8.09308 13.9636 5.05021e-16)
(8.65149 13.9941 0)
(9.1901 13.9816 2.68839e-16)
(9.70173 13.9335 -5.37198e-18)
(10.1844 13.8588 -2.46401e-16)
(10.6424 13.7664 -7.5656e-16)
(11.0789 13.6621 -2.55869e-16)
(11.4989 13.5485 0)
(11.9116 13.4284 0)
(12.3386 13.3168 0)
(12.8251 13.2415 0)
(13.397 13.1794 -4.34372e-16)
(13.8949 12.9248 4.30396e-16)
(13.7641 12.0395 4.40407e-16)
(12.1076 10.0757 -4.07537e-16)
(8.42296 7.1364 4.12418e-16)
(3.60245 4.14143 -5.52465e-16)
(-0.45413 2.08707 -5.35338e-17)
(-2.83086 1.0799 -2.95166e-17)
(-4.16347 0.625059 4.69944e-16)
(-4.93324 0.479701 1.00742e-16)
(-5.40924 0.514231 0)
(-5.79471 0.649461 0)
(-6.22829 0.822816 2.66417e-18)
(-6.76249 0.991112 0)
(-7.35275 1.14009 1.70889e-15)
(-7.91105 1.25268 -1.69159e-15)
(-8.36103 1.3083 -3.18674e-15)
(-8.61025 1.27858 6.17507e-15)
(-8.53987 1.10229 5.53923e-15)
(-7.95758 0.695338 -4.36007e-15)
(-6.85129 -0.260374 -5.43954e-15)
(-6.02584 -1.59256 3.639e-15)
(4.29411 12.5423 0)
(3.83525 12.2008 -7.05469e-18)
(3.34726 11.7707 -7.60001e-18)
(2.84211 11.2516 -4.27884e-17)
(2.36567 10.6561 7.59587e-17)
(1.92313 9.97666 -8.49158e-17)
(1.53622 9.22249 -2.18583e-17)
(1.23274 8.43144 1.62536e-16)
(1.02595 7.63346 2.36401e-16)
(0.916266 6.84193 0)
(0.899547 6.07486 1.92162e-16)
(0.970033 5.34809 -6.70994e-16)
(1.11933 4.66563 1.34579e-15)
(1.33806 4.0314 3.12558e-16)
(1.61685 3.44927 -6.75057e-16)
(1.94952 2.91868 -6.61339e-16)
(2.32788 2.44145 -6.39467e-16)
(2.74406 2.01918 0)
(3.19015 1.65175 0)
(3.65913 1.33765 0)
(4.14491 1.07513 9.8745e-16)
(4.64266 0.86249 0)
(5.14803 0.698669 -7.14471e-16)
(5.65524 0.582614 -9.51272e-17)
(6.15537 0.51281 -6.71297e-16)
(6.63974 0.485353 -6.08409e-16)
(7.10382 0.494656 0)
(7.54618 0.53595 -1.22132e-16)
(7.96633 0.605422 -3.36034e-17)
(8.36389 0.69925 6.28098e-18)
(8.73861 0.812831 6.68735e-16)
(9.09139 0.940197 -2.53055e-18)
(9.42585 1.0767 9.68693e-16)
(9.74731 1.22083 -8.09714e-16)
(10.0672 1.3761 0)
(10.3928 1.55332 -1.30472e-17)
(10.7592 1.77174 -1.86542e-17)
(11.1019 2.08718 4.54115e-16)
(11.7062 2.5402 -7.9404e-19)
(5.07215 12.3482 -3.73531e-18)
(5.52874 12.611 0)
(6.02879 12.8566 -1.14249e-16)
(6.55715 13.0754 1.38513e-16)
(7.08127 13.2492 -8.70763e-17)
(7.61754 13.3853 2.00652e-16)
(8.1521 13.481 -2.29178e-16)
(8.67212 13.5355 -2.21676e-16)
(9.17801 13.5525 0)
(9.66347 13.5365 -2.38052e-16)
(10.1271 13.4941 -2.2338e-16)
(10.5731 13.4322 2.12457e-16)
(11.0048 13.3563 6.60163e-16)
(11.4268 13.27 2.24899e-16)
(11.8445 13.1729 -6.40029e-16)
(12.2644 13.0639 -4.20871e-16)
(12.7045 12.951 3.07252e-16)
(13.2026 12.8483 2.06978e-16)
(13.7644 12.7131 -9.95058e-17)
(14.1986 12.3389 1.05842e-16)
(13.9121 11.3126 2.71367e-16)
(12.0333 9.28376 5.60752e-17)
(8.22625 6.46645 -6.78523e-17)
(3.52888 3.74177 -5.75152e-16)
(-0.307261 1.91537 0)
(-2.55484 1.03385 -4.37529e-16)
(-3.80569 0.673212 -1.98539e-16)
(-4.51691 0.60936 -1.74463e-16)
(-4.99573 0.710379 -5.94455e-16)
(-5.47052 0.876489 2.0549e-15)
(-6.04859 1.03839 8.30122e-16)
(-6.70117 1.17178 2.26949e-17)
(-7.33538 1.26077 9.0597e-19)
(-7.86558 1.28761 0)
(-8.19174 1.22515 -2.97651e-15)
(-8.18734 1.00837 0)
(-7.67924 0.561721 0)
(-6.70517 -0.404584 2.6691e-15)
(-6.15352 -1.70794 -3.04982e-17)
(4.64244 12.0625 9.11497e-18)
(4.21965 11.7416 -1.01678e-17)
(3.76862 11.3395 -6.21092e-18)
(3.30074 10.856 1.19986e-18)
(2.85807 10.3048 -9.65664e-17)
(2.44386 9.67767 1.08381e-16)
(2.07746 8.98259 3.25788e-17)
(1.78496 8.25508 -1.58171e-16)
(1.57847 7.52254 -2.09917e-16)
(1.45803 6.79585 -2.65482e-16)
(1.42008 6.09039 -6.92308e-16)
(1.45988 5.41981 0)
(1.57008 4.78642 -5.10942e-16)
(1.74353 4.19245 -1.33681e-17)
(1.97384 3.64049 0)
(2.25676 3.13079 -5.732e-16)
(2.58592 2.66597 -2.76821e-16)
(2.95531 2.248 -2.71972e-16)
(3.35857 1.87811 1.02381e-15)
(3.78947 1.55647 9.62199e-16)
(4.24212 1.28293 -1.10945e-16)
(4.71144 1.05688 8.28573e-16)
(5.19263 0.878018 1.95863e-16)
(5.67966 0.745693 -8.84401e-17)
(6.16356 0.658874 5.91882e-16)
(6.63545 0.614682 3.6838e-17)
(7.09028 0.608249 0)
(7.52591 0.634968 0)
(7.94128 0.691048 -6.15687e-18)
(8.33573 0.772802 1.6792e-17)
(8.70883 0.875974 -6.46146e-16)
(9.06115 0.995121 -2.25284e-18)
(9.39578 1.1256 9.54516e-16)
(9.71742 1.26558 7.67065e-16)
(10.0368 1.41779 1.76639e-17)
(10.3609 1.5928 -4.24738e-18)
(10.7219 1.80889 2.44212e-15)
(11.0594 2.1237 -5.11378e-16)
(11.6195 2.56961 1.13386e-18)
(5.35929 11.9072 -1.48697e-18)
(5.78268 12.1593 0)
(6.24649 12.3985 4.95239e-17)
(6.7366 12.6147 0)
(7.22204 12.7906 -1.47103e-16)
(7.72011 12.9345 1.50196e-16)
(8.21856 13.0433 1.79515e-16)
(8.70431 13.1155 2.18742e-16)
(9.18204 13.1541 0)
(9.64505 13.1618 -1.93394e-16)
(10.0912 13.1439 2.31807e-16)
(10.5246 13.1057 -4.33767e-16)
(10.9479 13.0514 -2.14674e-16)
(11.3655 12.9846 -2.02543e-16)
(11.7828 12.9061 4.15919e-16)
(12.2047 12.8133 4.09776e-16)
(12.6365 12.7021 -4.04147e-16)
(13.0935 12.574 -3.90349e-16)
(13.602 12.4275 0)
(14.1426 12.2048 1.00953e-16)
(14.4789 11.6867 -1.98393e-16)
(13.9764 10.4986 4.72611e-17)
(11.8357 8.40855 -2.50925e-18)
(7.9331 5.74066 1.14978e-15)
(3.39191 3.30227 -7.91857e-17)
(-0.218355 1.72697 4.91353e-17)
(-2.32241 1.0028 1.98309e-16)
(-3.46559 0.759988 1.95918e-16)
(-4.12669 0.789621 5.3736e-16)
(-4.66668 0.938406 -9.96841e-16)
(-5.28979 1.09528 -7.81398e-16)
(-6.00428 1.21518 -3.17235e-15)
(-6.71744 1.28026 3.01696e-15)
(-7.33389 1.27585 -4.57057e-17)
(-7.7441 1.17683 2.93869e-15)
(-7.81016 0.915481 -1.15041e-16)
(-7.37604 0.427781 7.00648e-17)
(-6.51383 -0.54502 -3.72387e-17)
(-6.17826 -1.8105 3.4767e-15)
(4.96044 11.6352 -6.34823e-18)
(4.56866 11.3322 3.76615e-18)
(4.14941 10.9541 2.57187e-18)
(3.71364 10.5012 0)
(3.30046 9.98756 6.02658e-17)
(2.91147 9.40488 0)
(2.56422 8.76012 0)
(2.28331 8.08683 0)
(2.07977 7.41052 4.29168e-16)
(1.95328 6.7401 -2.78583e-16)
(1.90058 6.08898 3.28175e-16)
(1.91716 5.46917 0)
(1.99656 4.88149 0)
(2.13334 4.32622 -5.18988e-16)
(2.32304 3.8054 0)
(2.56268 3.31943 5.22777e-16)
(2.84771 2.87044 1.14886e-17)
(3.17388 2.46087 0)
(3.53629 2.09273 -7.1413e-16)
(3.92985 1.76738 -1.11676e-15)
(4.34919 1.48594 -8.22056e-16)
(4.7893 1.24895 -7.71018e-16)
(5.24534 1.0569 1.40611e-15)
(5.71114 0.909676 0)
(6.17763 0.806923 5.50958e-16)
(6.63584 0.746741 5.6969e-16)
(7.08028 0.725 2.42516e-16)
(7.50817 0.73739 0)
(7.91794 0.780198 -2.43986e-17)
(8.30852 0.84982 -1.73016e-16)
(8.67932 0.942355 6.06613e-16)
(9.03062 1.05283 -1.95723e-18)
(9.36498 1.17675 -8.69894e-16)
(9.68649 1.31204 7.04963e-16)
(10.0051 1.46074 3.75266e-18)
(10.3275 1.63315 1.61499e-17)
(10.683 1.84668 -2.38392e-15)
(11.0149 2.15965 4.79475e-16)
(11.5336 2.59767 -1.65253e-16)
(5.62641 11.5105 -2.45912e-18)
(6.02148 11.7526 5.94546e-18)
(6.45448 11.9851 0)
(6.91214 12.1975 9.09702e-17)
(7.36491 12.3735 0)
(7.83061 12.5219 0)
(8.29794 12.639 1.02971e-18)
(8.7544 12.7238 1.83207e-16)
(9.20601 12.7786 3.72956e-16)
(9.64709 12.8049 7.82218e-16)
(10.0753 12.8065 3.81518e-16)
(10.4945 12.7875 3.82639e-16)
(10.9072 12.7511 0)
(11.317 12.6998 5.80288e-16)
(11.7288 12.6346 -1.88104e-16)
(12.1475 12.5546 0)
(12.5775 12.4547 3.73764e-16)
(13.023 12.3279 3.80968e-16)
(13.4944 12.1684 0)
(14.0057 11.9643 3.69724e-16)
(14.5071 11.6364 -3.72096e-16)
(14.7017 10.9564 0)
(13.9315 9.60968 -5.20517e-17)
(11.5263 7.50281 1.87532e-17)
(7.55588 5.02289 3.18894e-17)
(3.16546 2.87728 6.07815e-16)
(-0.215252 1.56337 -2.89486e-19)
(-2.1265 1.01688 -2.17203e-17)
(-3.13664 0.908207 -1.81709e-17)
(-3.80008 1.01323 3.12222e-17)
(-4.47759 1.16145 8.46788e-16)
(-5.25329 1.26977 2.99253e-15)
(-6.04668 1.31091 4.49563e-17)
(-6.75354 1.27267 -2.83708e-15)
(-7.2535 1.13268 -2.7448e-15)
(-7.39406 0.822105 -5.07898e-15)
(-7.036 0.291359 -4.07134e-15)
(-6.27068 -0.684729 8.58039e-17)
(-6.10319 -1.9039 -3.43754e-15)
(5.25383 11.2509 6.77738e-18)
(4.88852 10.9638 -3.53849e-18)
(4.49662 10.6069 2.35222e-17)
(4.08875 10.1805 0)
(3.70129 9.69938 1.33803e-16)
(3.3349 9.15494 0)
(3.00549 8.55352 -1.32707e-16)
(2.73619 7.92708 6.31691e-16)
(2.53734 7.29955 -5.90308e-16)
(2.4081 6.67835 0)
(2.34523 6.07523 6.28667e-16)
(2.34428 5.50113 7.51091e-16)
(2.39954 4.95545 0)
(2.50682 4.43698 -8.95852e-16)
(2.66257 3.94734 2.33268e-16)
(2.86489 3.48643 -2.28882e-16)
(3.11082 3.0558 2.33469e-16)
(3.39754 2.65785 4.43509e-16)
(3.72161 2.29499 -1.78839e-18)
(4.07908 1.96941 5.99478e-16)
(4.46538 1.68318 2.00388e-16)
(4.87595 1.43782 -1.79748e-16)
(5.30614 1.23453 -6.56787e-16)
(5.7498 1.07395 5.97017e-16)
(6.19787 0.956481 -4.8629e-16)
(6.6413 0.88113 -5.70912e-16)
(7.07426 0.844587 -2.29777e-16)
(7.49346 0.842934 -3.11766e-18)
(7.89675 0.872599 2.6232e-17)
(8.28275 0.93011 1.64819e-16)
(8.65058 1.01183 6.27544e-19)
(9.00028 1.11327 -1.64638e-18)
(9.3339 1.23018 8.64146e-16)
(9.65495 1.36035 -7.19052e-16)
(9.97263 1.50527 1.64033e-17)
(10.293 1.6749 -8.99395e-16)
(10.6426 1.88571 1.15638e-15)
(10.9687 2.19586 0)
(11.4486 2.62563 1.65712e-16)
(5.87521 11.1508 -2.08893e-18)
(6.24571 11.3835 0)
(6.65198 11.6094 0)
(7.08151 11.8174 -1.75831e-16)
(7.50596 11.9922 -4.49507e-18)
(7.94342 12.1428 0)
(8.38338 12.2654 0)
(8.81458 12.359 -6.62958e-16)
(9.24207 12.4259 -2.39573e-17)
(9.66268 12.4661 -2.18088e-17)
(10.0737 12.4826 -9.12769e-16)
(10.4787 12.4788 -1.97089e-16)
(10.8797 12.4568 3.57431e-16)
(11.28 12.4184 -1.39063e-17)
(11.6837 12.3641 0)
(12.0953 12.2933 0)
(12.5193 12.2027 -1.07344e-15)
(12.9588 12.0847 -1.83897e-16)
(13.4155 11.9286 1.73269e-16)
(13.8946 11.7244 -3.61665e-16)
(14.3964 11.4472 7.18282e-16)
(14.827 10.9958 3.6001e-16)
(14.8269 10.1491 -3.72118e-16)
(13.7597 8.68562 -4.56205e-16)
(11.1034 6.62215 8.16336e-17)
(7.06158 4.34964 -5.26159e-16)
(2.81768 2.49768 -7.20994e-17)
(-0.277296 1.45405 1.99453e-17)
(-1.93086 1.10361 -1.9112e-17)
(-2.83935 1.11386 6.26326e-17)
(-3.60027 1.23856 -1.76605e-18)
(-4.43896 1.33513 -1.54273e-15)
(-5.31229 1.35234 -4.30503e-17)
(-6.11198 1.2776 3.64755e-17)
(-6.70617 1.09166 0)
(-6.92528 0.726816 4.893e-15)
(-6.64764 0.150708 3.92082e-15)
(-5.97041 -0.826277 0)
(-5.93252 -1.99108 0)
(5.52556 10.9026 0)
(5.18318 10.6298 6.65776e-18)
(4.81524 10.2916 -4.9494e-17)
(4.43184 9.88863 -4.49249e-17)
(4.06718 9.43599 -1.26302e-16)
(3.72101 8.92497 0)
(3.40811 8.36134 0)
(3.15035 7.77581 -2.99658e-16)
(2.95723 7.191 3.82514e-16)
(2.82754 6.61302 0)
(2.75785 6.05255 -3.03082e-16)
(2.74376 5.51965 -3.72027e-16)
(2.78025 5.0122 3.95003e-16)
(2.86372 4.52828 4.22306e-16)
(2.99122 4.06913 -8.15454e-16)
(3.16161 3.63377 0)
(3.37317 3.22308 -2.06408e-16)
(3.62427 2.83923 -1.76791e-19)
(3.91276 2.48465 9.64861e-16)
(4.23584 2.16189 -1.99105e-16)
(4.58987 1.87376 1.89506e-16)
(4.97097 1.6225 -1.61299e-16)
(5.37488 1.41005 2.28673e-16)
(5.79571 1.23778 -1.19037e-15)
(6.22449 1.10691 -4.51233e-16)
(6.65214 1.01739 4.40638e-16)
(7.0726 0.96667 -2.80053e-17)
(7.48212 0.951361 0)
(7.87812 0.968107 -2.20523e-17)
(8.25878 1.01359 1.47956e-16)
(8.62298 1.08443 -2.68268e-16)
(8.97049 1.17658 4.82963e-16)