/*--------------------------------*- C++ -*----------------------------------*\
  =========                 |
  \\      /  F ield         | OpenFOAM: The Open Source CFD Toolbox
   \\    /   O peration     | Website:  https://openfoam.org
    \\  /    A nd           | Version:  9
     \\/     M anipulation  |
\*---------------------------------------------------------------------------*/
FoamFile
{
    format      ascii;
    class       surfaceScalarField;
    location    "0.15";
    object      alphaPhi0.water;
}
// * * * * * * * * * * * * * * * * * * * * * * * * * * * * * * * * * * * * * //

dimensions      [0 3 -1 0 0 0 0];

internalField   nonuniform List<scalar> 
15214
(
-1.68497e-07
1.68497e-07
1.72529e-06
-1.89379e-06
4.66807e-06
-2.94278e-06
7.91097e-06
-3.2429e-06
1.11759e-05
-3.26491e-06
1.43784e-05
-3.20255e-06
1.74977e-05
-3.11923e-06
2.0535e-05
-3.03738e-06
2.35012e-05
-2.96613e-06
2.64105e-05
-2.90934e-06
2.92791e-05
-2.86862e-06
3.21239e-05
-2.8448e-06
3.49625e-05
-2.83855e-06
3.78131e-05
-2.85059e-06
4.06949e-05
-2.88182e-06
4.36282e-05
-2.93332e-06
4.66345e-05
-3.00628e-06
4.97363e-05
-3.1018e-06
5.29569e-05
-3.22063e-06
5.63195e-05
-3.36259e-06
5.98454e-05
-3.52589e-06
6.35516e-05
-3.70621e-06
6.74472e-05
-3.89556e-06
7.15282e-05
-4.08103e-06
7.57719e-05
-4.24372e-06
8.01299e-05
-4.35797e-06
8.45217e-05
-4.39179e-06
8.88305e-05
-4.30879e-06
9.29003e-05
-4.06981e-06
9.65379e-05
-3.63767e-06
9.954e-05
-3.00206e-06
0.000101659
-2.11895e-06
0.000102465
-8.06026e-07
0.000101431
1.03374e-06
9.88166e-05
2.61449e-06
9.52601e-05
3.55649e-06
9.15022e-05
3.75784e-06
8.81864e-05
3.31583e-06
8.5705e-05
2.48134e-06
8.30951e-05
1.56679e-06
8.20966e-05
6.91117e-07
8.19877e-05
-3.57265e-07
7.2542e-05
-9.01471e-07
1.79264e-05
1.09326e-06
3.87138e-06
1.99379e-06
1.74849e-06
1.56053e-06
-1.39203e-06
4.12061e-06
-4.45387e-06
6.95471e-06
-5.77689e-06
9.86886e-06
-6.15705e-06
1.27761e-05
-6.17211e-06
1.56388e-05
-6.06528e-06
1.84461e-05
-5.9265e-06
2.12002e-05
-5.79154e-06
2.39102e-05
-5.67607e-06
2.6588e-05
-5.58722e-06
2.92479e-05
-5.52844e-06
3.19047e-05
-5.50165e-06
3.45745e-05
-5.50834e-06
3.72739e-05
-5.55002e-06
4.00205e-05
-5.6284e-06
4.28326e-05
-5.7454e-06
4.57293e-05
-5.90292e-06
4.87299e-05
-6.1025e-06
5.18539e-05
-6.34456e-06
5.51187e-05
-6.62744e-06
5.85389e-05
-6.94606e-06
6.21228e-05
-7.29015e-06
6.58696e-05
-7.64236e-06
6.97648e-05
-7.97614e-06
7.3775e-05
-8.25397e-06
7.78434e-05
-8.42633e-06
8.18841e-05
-8.43252e-06
8.57793e-05
-8.20405e-06
8.93807e-05
-7.67115e-06
9.25195e-05
-6.77646e-06
9.50188e-05
-5.50136e-06
9.67706e-05
-3.87073e-06
9.78862e-05
-1.9217e-06
9.86213e-05
2.98422e-07
9.87158e-05
2.51741e-06
9.79301e-05
4.341e-06
9.63328e-05
5.35148e-06
9.4303e-05
5.33538e-06
9.23668e-05
4.35507e-06
9.08157e-05
2.79113e-06
7.89483e-05
1.09648e-06
3.85206e-05
1.27233e-07
1.1857e-05
-1.05006e-07
5.39846e-06
0
6.35295e-07
7.91225e-07
7.71069e-07
2.5756e-06
-3.96763e-06
5.5303e-06
-7.40856e-06
8.34343e-06
-8.59002e-06
1.10641e-05
-8.87773e-06
1.37234e-05
-8.83137e-06
1.63305e-05
-8.67237e-06
1.88922e-05
-8.48819e-06
2.14168e-05
-8.31621e-06
2.39147e-05
-8.17395e-06
2.63976e-05
-8.07014e-06
2.88786e-05
-8.00938e-06
3.13714e-05
-7.99446e-06
3.38906e-05
-8.02758e-06
3.64514e-05
-8.11084e-06
3.90695e-05
-8.24651e-06
4.17611e-05
-8.43695e-06
4.45424e-05
-8.68424e-06
4.74295e-05
-8.98956e-06
5.0437e-05
-9.35213e-06
5.35774e-05
-9.76781e-06
5.68585e-05
-1.02272e-05
6.02817e-05
-1.07133e-05
6.38382e-05
-1.11989e-05
6.75062e-05
-1.16441e-05
7.1246e-05
-1.19938e-05
7.49965e-05
-1.21768e-05
7.86711e-05
-1.21071e-05
8.21559e-05
-1.16888e-05
8.53118e-05
-1.0827e-05
8.79836e-05
-9.44823e-06
9.00153e-05
-7.53303e-06
9.12954e-05
-5.15089e-06
9.18451e-05
-2.47143e-06
9.18545e-05
2.88649e-07
9.15147e-05
2.84992e-06
9.09414e-05
4.84679e-06
9.03445e-05
5.90046e-06
8.98534e-05
5.75313e-06
8.91852e-05
4.34641e-06
7.9108e-05
2.03829e-06
3.6548e-05
2.79407e-07
3.39314e-06
1.17179e-08
1.20052e-06
0
1.38036e-06
0
1.09242e-06
0
3.86732e-07
3.04039e-06
-7.00802e-06
6.28633e-06
-1.06545e-05
9.16011e-06
-1.14638e-05
1.17982e-05
-1.15158e-05
1.43069e-05
-1.134e-05
1.6737e-05
-1.11025e-05
1.91159e-05
-1.0867e-05
2.14614e-05
-1.06617e-05
2.37882e-05
-1.05008e-05
2.61099e-05
-1.03918e-05
2.84397e-05
-1.03392e-05
3.07912e-05
-1.0346e-05
3.31781e-05
-1.04145e-05
3.56143e-05
-1.0547e-05
3.81138e-05
-1.07461e-05
4.06908e-05
-1.10139e-05
4.33589e-05
-1.13524e-05
4.61309e-05
-1.17616e-05
4.90177e-05
-1.22389e-05
5.20269e-05
-1.2777e-05
5.51614e-05
-1.33617e-05
5.84169e-05
-1.39689e-05
6.17797e-05
-1.45617e-05
6.52231e-05
-1.50874e-05
6.87042e-05
-1.5475e-05
7.21611e-05
-1.56337e-05
7.55095e-05
-1.54555e-05
7.86419e-05
-1.48212e-05
8.14298e-05
-1.3615e-05
8.37335e-05
-1.17519e-05
8.5424e-05
-9.22354e-06
8.64301e-05
-6.15701e-06
8.67971e-05
-2.83841e-06
8.66851e-05
3.64818e-07
8.6368e-05
3.07306e-06
8.62442e-05
4.92249e-06
8.62615e-05
5.51597e-06
8.26213e-05
4.3817e-06
5.70604e-05
1.98437e-06
1.73554e-05
1.41389e-07
2.99454e-06
0
6.38895e-07
0
2.11783e-07
0
2.46457e-07
1.19027e-08
2.25462e-07
4.54086e-08
2.42693e-07
3.23886e-06
-1.02469e-05
6.63653e-06
-1.40522e-05
9.56407e-06
-1.43913e-05
1.21719e-05
-1.41237e-05
1.45951e-05
-1.37632e-05
1.6909e-05
-1.34164e-05
1.91566e-05
-1.31146e-05
2.13655e-05
-1.28706e-05
2.35558e-05
-1.26911e-05
2.57441e-05
-1.25801e-05
2.79451e-05
-1.25403e-05
3.01729e-05
-1.25737e-05
3.24407e-05
-1.26822e-05
3.47616e-05
-1.28679e-05
3.71484e-05
-1.31328e-05
3.96133e-05
-1.34788e-05
4.21676e-05
-1.39067e-05
4.48212e-05
-1.44152e-05
4.75817e-05
-1.49993e-05
5.04529e-05
-1.56482e-05
5.34336e-05
-1.63424e-05
5.65157e-05
-1.7051e-05
5.96818e-05
-1.77278e-05
6.29028e-05
-1.83084e-05
6.61352e-05
-1.87074e-05
6.9319e-05
-1.88175e-05
7.2375e-05
-1.85115e-05
7.52047e-05
-1.76509e-05
7.7693e-05
-1.61033e-05
7.9718e-05
-1.37769e-05
8.11775e-05
-1.0683e-05
8.20401e-05
-7.01959e-06
8.23741e-05
-3.20083e-06
8.24133e-05
2.58054e-07
8.23604e-05
2.84546e-06
8.01971e-05
3.87347e-06
6.19217e-05
2.90803e-06
2.47268e-05
6.11391e-07
5.778e-06
0
2.01393e-06
0
6.81487e-07
0
1.34719e-07
0
5.18016e-08
1.39059e-09
4.99987e-08
3.02538e-09
4.70009e-08
1.75495e-08
1.11314e-07
3.31062e-06
-1.35575e-05
6.74823e-06
-1.74898e-05
9.69112e-06
-1.73342e-05
1.22805e-05
-1.67131e-05
1.46523e-05
-1.6135e-05
1.68897e-05
-1.56539e-05
1.90444e-05
-1.52693e-05
2.11507e-05
-1.49769e-05
2.32336e-05
-1.4774e-05
2.53128e-05
-1.46593e-05
2.74049e-05
-1.46324e-05
2.95246e-05
-1.46934e-05
3.16855e-05
-1.48431e-05
3.38999e-05
-1.50824e-05
3.61796e-05
-1.54126e-05
3.85353e-05
-1.58345e-05
4.09762e-05
-1.63476e-05
4.35098e-05
-1.69488e-05
4.61405e-05
-1.76301e-05
4.88694e-05
-1.8377e-05
5.16919e-05
-1.91649e-05
5.45971e-05
-1.99562e-05
5.75656e-05
-2.06963e-05
6.05676e-05
-2.13104e-05
6.3561e-05
-2.17008e-05
6.64896e-05
-2.17461e-05
6.92818e-05
-2.13037e-05
7.18501e-05
-2.02193e-05
7.40939e-05
-1.83471e-05
7.59086e-05
-1.55916e-05
7.7215e-05
-1.19896e-05
7.80139e-05
-7.82461e-06
7.84155e-05
-3.65593e-06
7.77945e-05
-1.27257e-07
6.64276e-05
1.67766e-06
3.1746e-05
9.25223e-07
6.94321e-06
0
2.15143e-06
0
9.5591e-07
0
3.53719e-07
0
1.03124e-07
0
2.72565e-08
0
1.25245e-08
1.95577e-09
1.30626e-08
3.94025e-10
3.14869e-09
5.57993e-09
5.09148e-08
3.31249e-06
-1.687e-05
6.71673e-06
-2.0894e-05
9.63768e-06
-2.02552e-05
1.22038e-05
-1.92792e-05
1.45387e-05
-1.84699e-05
1.67233e-05
-1.78384e-05
1.88112e-05
-1.73573e-05
2.08405e-05
-1.70062e-05
2.28394e-05
-1.67728e-05
2.48299e-05
-1.66498e-05
2.68304e-05
-1.66329e-05
2.88564e-05
-1.67195e-05
3.09217e-05
-1.69083e-05
3.30384e-05
-1.71991e-05
3.52173e-05
-1.75915e-05
3.74678e-05
-1.8085e-05
3.97973e-05
-1.86772e-05
4.22112e-05
-1.93626e-05
4.47114e-05
-2.01304e-05
4.72964e-05
-2.0962e-05
4.99594e-05
-2.1828e-05
5.26876e-05
-2.26844e-05
5.54605e-05
-2.34692e-05
5.8249e-05
-2.40989e-05
6.10135e-05
-2.44654e-05
6.37034e-05
-2.4436e-05
6.62556e-05
-2.38558e-05
6.85942e-05
-2.25579e-05
7.06322e-05
-2.03851e-05
7.22784e-05
-1.72377e-05
7.34695e-05
-1.31807e-05
7.42173e-05
-8.5735e-06
7.24069e-05
-4.081e-06
5.02158e-05
-5.79926e-07
1.30378e-05
1.0392e-07
1.82406e-06
1.80518e-09
7.60151e-07
0
3.4275e-07
0
1.25793e-07
0
4.13609e-08
0
1.32055e-08
0
4.9335e-09
2.14998e-10
2.97933e-09
8.71523e-10
2.12196e-09
6.59393e-10
-5.21521e-09
4.73695e-09
2.29533e-08
3.27203e-06
-2.0142e-05
6.5978e-06
-2.42198e-05
9.46889e-06
-2.31263e-05
1.20021e-05
-2.18124e-05
1.43045e-05
-2.07722e-05
1.64489e-05
-1.99829e-05
1.84871e-05
-1.93955e-05
2.04577e-05
-1.89768e-05
2.23903e-05
-1.87054e-05
2.43087e-05
-1.85682e-05
2.62323e-05
-1.85565e-05
2.81773e-05
-1.86645e-05
3.01576e-05
-1.88887e-05
3.21852e-05
-1.92266e-05
3.42701e-05
-1.96764e-05
3.64203e-05
-2.02353e-05
3.8642e-05
-2.08989e-05
4.09385e-05
-2.1659e-05
4.33099e-05
-2.25017e-05
4.57524e-05
-2.34046e-05
4.82577e-05
-2.43333e-05
5.08118e-05
-2.52384e-05
5.3394e-05
-2.60514e-05
5.59765e-05
-2.66814e-05
5.85235e-05
-2.70124e-05
6.099e-05
-2.69025e-05
6.33214e-05
-2.61872e-05
6.54526e-05
-2.46891e-05
6.73066e-05
-2.22391e-05
6.87977e-05
-1.87288e-05
6.98453e-05
-1.42286e-05
6.80872e-05
-8.54182e-06
4.15955e-05
-3.67705e-06
6.28625e-06
-3.68462e-07
5.41657e-07
1.6972e-09
2.1318e-07
2.52722e-09
9.04053e-08
1.46935e-09
3.42248e-08
6.03938e-10
1.21357e-08
1.96458e-10
4.39456e-09
5.63639e-11
1.77566e-09
7.65642e-11
8.60942e-10
1.72886e-10
5.95805e-10
3.2547e-10
-4.21552e-12
5.5002e-10
-2.74076e-09
4.01127e-09
1.07472e-08
3.20507e-06
-2.33471e-05
6.42614e-06
-2.74409e-05
9.22869e-06
-2.59288e-05
1.17196e-05
-2.43033e-05
1.39887e-05
-2.30413e-05
1.60989e-05
-2.20931e-05
1.80976e-05
-2.13943e-05
2.00219e-05
-2.09011e-05
2.19016e-05
-2.05851e-05
2.37609e-05
-2.04275e-05
2.56197e-05
-2.04153e-05
2.74947e-05
-2.05394e-05
2.93997e-05
-2.07937e-05
3.13464e-05
-2.11733e-05
3.33441e-05
-2.16741e-05
3.53999e-05
-2.22911e-05
3.75185e-05
-2.30174e-05
3.97016e-05
-2.38422e-05
4.19479e-05
-2.4748e-05
4.42519e-05
-2.57086e-05
4.66041e-05
-2.66854e-05
4.89897e-05
-2.7624e-05
5.13889e-05
-2.84505e-05
5.37755e-05
-2.90681e-05
5.61174e-05
-2.93543e-05
5.83753e-05
-2.91604e-05
6.05023e-05
-2.83141e-05
6.24414e-05
-2.66283e-05
6.41201e-05
-2.39178e-05
6.54491e-05
-2.0058e-05
6.56232e-05
-1.44084e-05
4.2983e-05
-8.58624e-06
5.12856e-06
-1.46631e-06
4.796e-07
-1.00375e-07
1.30726e-07
1.2357e-09
3.33221e-08
1.91228e-09
9.26533e-09
1.12617e-09
2.88921e-09
5.22799e-10
1.08748e-09
2.09213e-10
5.22159e-10
8.90166e-11
2.9323e-10
5.25264e-11
1.77518e-10
6.80785e-11
1.2867e-10
1.32323e-10
-7.74295e-12
3.91226e-10
-5.19497e-10
2.071e-09
5.95318e-09
3.12159e-06
-2.64687e-05
6.22389e-06
-3.05432e-05
8.94644e-06
-2.86514e-05
1.13872e-05
-2.67441e-05
1.36203e-05
-2.52743e-05
1.56983e-05
-2.41712e-05
1.76633e-05
-2.33592e-05
1.95495e-05
-2.27873e-05
2.13857e-05
-2.24214e-05
2.31958e-05
-2.22376e-05
2.49997e-05
-2.22191e-05
2.68139e-05
-2.23536e-05
2.86521e-05
-2.2632e-05
3.05256e-05
-2.30468e-05
3.2443e-05
-2.35915e-05
3.44106e-05
-2.42586e-05
3.64317e-05
-2.50386e-05
3.85069e-05
-2.59174e-05
4.06335e-05
-2.68746e-05
4.28049e-05
-2.78801e-05
4.50108e-05
-2.88913e-05
4.72365e-05
-2.98497e-05
4.94627e-05
-3.06768e-05
5.16657e-05
-3.12711e-05
5.38168e-05
-3.15053e-05
5.58817e-05
-3.12253e-05
5.78199e-05
-3.02523e-05
5.95799e-05
-2.83883e-05
6.1089e-05
-2.54269e-05
6.22287e-05
-2.1198e-05
5.09561e-05
-1.53533e-05
9.72849e-06
-4.67414e-06
5.70869e-07
-4.13609e-07
1.26003e-07
-2.79093e-08
2.99042e-08
1.73484e-09
7.10117e-09
1.06167e-09
1.72215e-09
4.6025e-10
4.38056e-10
1.81367e-10
1.42672e-10
7.89848e-11
8.14746e-11
3.27154e-11
6.02135e-11
1.97396e-11
4.80483e-11
2.37145e-11
5.09021e-11
5.65989e-11
8.86136e-11
2.25357e-10
4.98656e-10
1.3963e-09
4.80662e-09
-1.10707e-31
5.96702e-32
3.27552e-31
-5.39254e-30
1.12845e-28
-2.55606e-28
2.83023e-28
-1.73362e-27
4.09097e-29
-1.21148e-28
4.37381e-30
-1.56245e-29
3.56547e-31
-1.1883e-30
2.50533e-32
-6.83108e-32
1.70974e-33
-3.40383e-33
1.21744e-34
-1.59166e-34
9.12646e-36
-7.01926e-36
6.83197e-37
-2.58777e-37
4.99879e-38
-3.52852e-39
3.61547e-39
2.12246e-40
2.50354e-40
3.04888e-41
1.67583e-41
2.91973e-42
1.08271e-42
2.39809e-43
6.71128e-44
1.79523e-44
3.97232e-45
1.25068e-45
2.23588e-46
8.17653e-47
1.19185e-47
5.03013e-48
5.99066e-49
2.91134e-49
2.82615e-50
1.58255e-50
1.24509e-51
8.05852e-52
5.09403e-53
3.83208e-53
1.92315e-54
1.69552e-54
6.64972e-56
6.94941e-56
2.08691e-57
2.62432e-57
5.87805e-59
9.06834e-59
1.46478e-60
2.84198e-60
3.16941e-62
7.98298e-62
5.80601e-64
1.97781e-63
8.6938e-66
4.22653e-65
1.01137e-67
7.54292e-67
8.4429e-70
1.07716e-68
4.4321e-72
1.13647e-70
1.15479e-74
7.68031e-73
8.83624e-78
2.58899e-75
9.19673e-80
2.35446e-78
1.87756e-82
4.51252e-33
4.79539e-32
1.27672e-27
-2.91632e-27
1.83263e-26
-5.46473e-26
2.392e-26
-5.80792e-26
4.52693e-27
-1.73208e-26
3.8754e-28
-2.0503e-27
2.93983e-29
-1.49379e-28
2.07233e-30
-8.52953e-30
1.41535e-31
-4.24796e-31
9.79652e-33
-1.95155e-32
6.89101e-34
-8.21231e-34
4.79665e-35
-2.82614e-35
3.2706e-36
-3.89093e-37
2.20433e-37
4.63811e-38
1.43646e-38
6.69663e-39
9.08198e-40
6.22829e-40
5.55189e-41
4.90838e-41
3.26184e-42
3.50372e-42
1.8333e-43
2.32067e-43
9.81732e-45
1.44062e-44
4.98895e-46
8.41438e-46
2.39606e-47
4.62755e-47
1.08285e-48
2.39388e-48
4.58321e-50
1.16252e-49
1.80722e-51
5.28521e-51
6.59903e-53
2.24186e-52
2.21572e-54
8.83559e-54
6.78351e-56
3.21891e-55
1.87422e-57
1.07704e-56
4.61344e-59
3.28273e-58
9.95254e-61
9.01706e-60
1.84187e-62
2.20077e-61
2.84177e-64
4.6827e-63
3.51342e-66
8.46372e-65
3.29072e-68
1.25352e-66
2.14878e-70
1.43631e-68
8.54793e-73
1.16307e-70
1.61198e-75
5.72628e-73
8.01685e-79
1.24408e-75
4.13299e-79
7.91497e-30
8.93365e-30
2.05805e-25
-5.18138e-25
1.41947e-24
-5.10788e-24
1.24285e-24
-4.28716e-24
1.87402e-25
-1.05979e-24
1.53178e-26
-1.11637e-25
1.159e-27
-7.79947e-27
8.14382e-29
-4.40354e-28
5.45858e-30
-2.17085e-29
3.61515e-31
-9.69971e-31
2.37502e-32
-3.85945e-32
1.52712e-33
-1.20667e-33
9.59855e-35
-1.13416e-35
5.96098e-36
2.22121e-36
3.57412e-37
2.77656e-37
2.07943e-38
2.35084e-38
1.16905e-39
1.6988e-39
6.31768e-41
1.1133e-40
3.26833e-42
6.77099e-42
1.61252e-43
3.86017e-43
7.55933e-45
2.07147e-44
3.35424e-46
1.04751e-45
1.40306e-47
4.98874e-47
5.50813e-49
2.23389e-48
2.01942e-50
9.38231e-50
6.87514e-52
3.68443e-51
2.15924e-53
1.34755e-52
6.20699e-55
4.56808e-54
1.61774e-56
1.42663e-55
3.77861e-58
4.07348e-57
7.79577e-60
1.0531e-58
1.39476e-61
2.43409e-60
2.11313e-63
4.94748e-62
2.62738e-65
8.65083e-64
2.5714e-67
1.26282e-65
1.86857e-69
1.47398e-67
9.20567e-72
1.29066e-69
2.61211e-74
7.64451e-72
2.95848e-77
2.51006e-74
2.95867e-77
4.38357e-28
-1.11386e-28
1.29795e-23
-4.79744e-23
6.45817e-23
-2.918e-22
3.99757e-23
-1.94301e-22
5.09019e-24
-3.94195e-23
4.02735e-25
-3.70622e-24
3.03675e-26
-2.47537e-25
2.11944e-27
-1.37271e-26
1.39201e-28
-6.65957e-28
8.85128e-30
-2.88318e-29
5.48178e-31
-1.08106e-30
3.29007e-32
-3.012e-32
1.92503e-33
-7.34409e-35
1.11302e-34
6.82398e-35
6.20214e-36
7.27529e-36
3.35033e-37
5.59685e-37
1.74626e-38
3.71932e-38
8.74454e-40
2.24912e-39
4.1919e-41
1.2637e-40
1.9171e-42
6.65933e-42
8.33588e-44
3.30482e-43
3.43387e-45
1.54653e-44
1.33506e-46
6.82201e-46
4.87869e-48
2.83271e-47
1.66792e-49
1.10478e-48
5.30664e-51
4.03523e-50
1.56158e-52
1.3753e-51
4.2196e-54
4.35404e-53
1.03797e-55
1.27327e-54
2.30017e-57
3.41537e-56
4.53345e-59
8.32914e-58
7.82089e-61
1.82603e-59
1.15739e-62
3.54688e-61
1.43165e-64
5.98905e-63
1.43056e-66
8.57089e-65
1.10093e-68
1.00362e-66
6.05561e-71
9.13704e-69
2.11533e-73
5.96798e-71
3.39016e-76
2.42372e-73
5.36843e-76
-1.95148e-23
2.00949e-25
4.39062e-22
-2.80698e-21
2.00984e-21
-1.13891e-20
9.2735e-22
-6.12241e-21
1.01967e-22
-1.02709e-21
7.83341e-24
-8.6198e-23
5.85382e-25
-5.45345e-24
4.042e-26
-2.94118e-25
2.60089e-27
-1.3938e-26
1.59538e-28
-5.81789e-28
9.40061e-30
-2.04252e-29
5.3333e-31
-4.89275e-31
2.94653e-32
3.95581e-33
1.59845e-33
1.51142e-33
8.36698e-35
1.38901e-34
4.23475e-36
9.76511e-36
2.06437e-37
6.0074e-37
9.65928e-39
3.37663e-38
4.32458e-40
1.766e-39
1.84694e-41
8.6678e-41
7.50081e-43
4.0079e-42
2.88731e-44
1.74823e-43
1.04976e-45
7.1925e-45
3.59105e-47
2.78766e-46
1.15086e-48
1.01584e-47
3.4384e-50
3.47118e-49
9.52276e-52
1.10849e-50
2.42862e-53
3.29443e-52
5.65889e-55
9.06515e-54
1.1934e-56
2.29475e-55
2.25192e-58
5.30131e-57
3.74902e-60
1.10643e-58
5.41013e-62
2.05941e-60
6.6158e-64
3.36176e-62
6.65167e-66
4.70716e-64
5.26567e-68
5.48368e-66
3.06788e-70
5.08667e-68
1.4371e-72
3.52335e-70
2.26903e-75
1.60905e-72
5.04539e-75
-3.21762e-21
2.13834e-22
1.0581e-20
-1.15799e-19
4.80606e-20
-3.20809e-19
1.68234e-20
-1.45106e-19
1.5886e-21
-2.00812e-20
1.17256e-22
-1.47787e-21
8.60432e-24
-8.74115e-23
5.8499e-25
-4.5402e-24
3.68654e-26
-2.08457e-25
2.19173e-27
-8.33009e-27
1.23981e-28
-2.70332e-28
6.72539e-30
-5.12242e-30
3.55246e-31
1.48391e-31
1.82788e-32
2.51428e-32
9.0763e-34
2.029e-33
4.34474e-35
1.31532e-34
1.9992e-36
7.55389e-36
8.81841e-38
3.9799e-37
3.71876e-39
1.95393e-38
1.49518e-40
9.00667e-40
5.71549e-42
3.91192e-41
2.07102e-43
1.60312e-42
7.09073e-45
6.19818e-44
2.28577e-46
2.25864e-45
6.91011e-48
7.7438e-47
1.95021e-49
2.49193e-48
5.11161e-51
7.50331e-50
1.23673e-52
2.10594e-51
2.74237e-54
5.48355e-53
5.52578e-56
1.31694e-54
1.00136e-57
2.89604e-56
1.61135e-59
5.77828e-58
2.2659e-61
1.03392e-59
2.7272e-63
1.63423e-61
2.73088e-65
2.23648e-63
2.18423e-67
2.57763e-65
1.35039e-69
2.41049e-67
7.20897e-72
1.72373e-69
1.1037e-74
8.39155e-72
3.20112e-74
-1.19269e-19
1.10774e-20
3.11111e-19
-3.55566e-18
9.74052e-19
-6.76824e-18
2.43651e-19
-2.53585e-18
1.91238e-20
-2.80646e-19
1.34547e-21
-1.80672e-20
9.6634e-23
-1.00371e-21
6.45536e-24
-5.02431e-23
3.98661e-25
-2.22789e-24
2.30929e-26
-8.465e-26
1.26581e-27
-2.47909e-27
6.63965e-29
-2.84817e-29
3.39123e-30
2.77758e-30
1.67477e-31
3.175e-31
7.96346e-33
2.29679e-32
3.6397e-34
1.38745e-33
1.59568e-35
7.50747e-35
6.6956e-37
3.74091e-36
2.68291e-38
1.73922e-37
1.02415e-39
7.59437e-39
3.71509e-41
3.12465e-40
1.27721e-42
1.21294e-41
4.1492e-44
4.44246e-43
1.26961e-45
1.53385e-44
3.64582e-47
4.98473e-46
9.78431e-49
1.52146e-47
2.44229e-50
4.34932e-49
5.63866e-52
1.16041e-50
1.19622e-53
2.8771e-52
2.31363e-55
6.59384e-54
4.04106e-57
1.38764e-55
6.29932e-59
2.65907e-57
8.63327e-61
4.59039e-59
1.01982e-62
7.0401e-61
1.01009e-64
9.41462e-63
8.06822e-67
1.07029e-64
5.89564e-69
1.00119e-66
2.99592e-71
7.2614e-69
1.07141e-73
3.64288e-71
1.56181e-73
4.84747e-21
7.21376e-20
1.01353e-17
-7.80545e-17
1.49577e-17
-9.83322e-17
2.43134e-18
-2.60358e-17
1.65854e-19
-2.34117e-18
1.14583e-20
-1.41764e-19
8.11301e-22
-7.70811e-21
5.34075e-23
-3.78557e-22
3.24655e-24
-1.63123e-23
1.84642e-25
-5.85953e-25
9.91582e-27
-1.46838e-26
5.0944e-28
3.36603e-29
2.54045e-29
3.35857e-29
1.21656e-30
3.02121e-30
5.58928e-32
1.99839e-31
2.46126e-33
1.13722e-32
1.03728e-34
5.8515e-34
4.17666e-36
2.78191e-35
1.60378e-37
1.23532e-36
5.8609e-39
5.15294e-38
2.0339e-40
2.02507e-39
6.68655e-42
7.50703e-41
2.07697e-43
2.62533e-42
6.07759e-45
8.65533e-44
1.66975e-46
2.68643e-45
4.29072e-48
7.83459e-47
1.02672e-49
2.14143e-48
2.27606e-51
5.4684e-50
4.64596e-53
1.29948e-51
8.66867e-55
2.85958e-53
1.46531e-56
5.79151e-55
2.21895e-58
1.07117e-56
2.96698e-60
1.79121e-58
3.43534e-62
2.67256e-60
3.35467e-64
3.49511e-62
2.66169e-66
3.92001e-64
2.07883e-68
3.63946e-66
1.04774e-70
2.64374e-68
8.02136e-73
1.33881e-70
6.22714e-73
2.75876e-17
-3.8188e-17
2.341e-16
-1.09214e-15
1.24843e-16
-7.59641e-16
1.39982e-17
-1.285e-16
9.71848e-19
-1.06464e-17
6.96332e-20
-6.74449e-19
4.92639e-21
-3.7638e-20
3.22015e-22
-1.85103e-21
1.94425e-23
-7.79542e-23
1.09713e-24
-2.5965e-24
5.85001e-26
-4.65883e-26
2.98765e-27
1.86052e-27
1.46308e-28
2.76545e-28
6.85088e-30
2.12217e-29
3.06727e-31
1.3068e-30
1.31247e-32
7.08058e-32
5.36224e-34
3.49588e-33
2.08924e-35
1.59929e-34
7.75125e-37
6.8397e-36
2.7338e-38
2.74801e-37
9.14846e-40
1.03993e-38
2.89867e-41
3.7111e-40
8.67528e-43
1.24907e-41
2.44589e-44
3.96282e-43
6.47632e-46
1.18371e-44
1.60482e-47
3.32317e-46
3.70646e-49
8.74852e-48
7.94029e-51
2.15341e-49
1.56882e-52
4.938e-51
2.83897e-54
1.0501e-52
4.66522e-56
2.05905e-54
6.88622e-58
3.69545e-56
9.00091e-60
6.01273e-58
1.02176e-61
8.75694e-60
9.81153e-64
1.12212e-61
8.04155e-66
1.2385e-63
6.07124e-68
1.13652e-65
3.01442e-70
8.18788e-68
3.56297e-72
4.13051e-70
2.06832e-72
2.08188e-15
-6.44521e-16
2.25688e-15
-6.62481e-15
5.02992e-16
-2.53662e-15
4.96694e-17
-3.56802e-16
3.94931e-18
-3.10539e-17
3.01154e-19
-2.11656e-18
2.146e-20
-1.22253e-19
1.40371e-21
-6.01598e-21
8.49137e-23
-2.43295e-22
4.79824e-24
-6.9271e-24
2.56114e-25
-9.02989e-27
1.30561e-26
1.6164e-26
6.32482e-28
1.56812e-27
2.91759e-29
1.07824e-28
1.28268e-30
6.27712e-30
5.37438e-32
3.26996e-31
2.14516e-33
1.56206e-32
8.1501e-35
6.93076e-34
2.94414e-36
2.87694e-35
1.00985e-37
1.12193e-36
3.28365e-39
4.11995e-38
1.01032e-40
1.42623e-39
2.93522e-42
4.65534e-41
8.03232e-44
1.43212e-42
2.06463e-45
4.1479e-44
4.96852e-47
1.12934e-45
1.11516e-48
2.8845e-47
2.32385e-50
6.89293e-49
4.47168e-52
1.53589e-50
7.89271e-54
3.1775e-52
1.26718e-55
6.07028e-54
1.83077e-57
1.06332e-55
2.34635e-59
1.69207e-57
2.61523e-61
2.41565e-59
2.46597e-63
3.04097e-61
1.91142e-65
3.2997e-63
1.428e-67
2.98058e-65
6.97447e-70
2.11812e-67
1.13422e-71
1.05566e-69
5.78437e-72
3.08014e-06
-2.95488e-05
6.11092e-06
-3.35739e-05
8.79354e-06
-3.1334e-05
1.12204e-05
-2.91709e-05
1.34528e-05
-2.75068e-05
1.55348e-05
-2.62532e-05
1.7503e-05
-2.53274e-05
1.93891e-05
-2.46734e-05
2.12203e-05
-2.42526e-05
2.30199e-05
-2.40372e-05
2.48075e-05
-2.40067e-05
2.65996e-05
-2.41458e-05
2.84098e-05
-2.44422e-05
3.02489e-05
-2.48859e-05
3.2125e-05
-2.54676e-05
3.40435e-05
-2.61771e-05
3.60071e-05
-2.70021e-05
3.80151e-05
-2.79254e-05
4.00637e-05
-2.89232e-05
4.21456e-05
-2.9962e-05
4.42498e-05
-3.09955e-05
4.63617e-05
-3.19616e-05
4.84629e-05
-3.2778e-05
5.05315e-05
-3.33397e-05
5.25417e-05
-3.35155e-05
5.44634e-05
-3.3147e-05
5.62604e-05
-3.20492e-05
5.78837e-05
-3.00116e-05
5.92593e-05
-2.68025e-05
5.90783e-05
-2.10203e-05
2.50759e-05
-1.24852e-05
1.02224e-06
-1.56202e-06
2.07062e-07
-1.52951e-07
4.27023e-08
-7.9749e-10
9.32233e-09
2.31559e-09
1.93656e-09
9.33606e-10
4.05535e-10
2.56819e-10
9.87239e-11
6.57096e-11
2.79198e-11
2.35393e-11
1.63747e-11
1.09315e-11
1.58504e-11
6.69089e-12
1.64029e-11
7.91752e-12
3.01381e-11
2.19366e-11
1.24283e-10
1.07606e-10
7.21827e-10
7.13693e-10
2.5188e-09
2.31782e-09
3.0037e-06
-3.25525e-05
5.93028e-06
-3.65005e-05
8.54337e-06
-3.39471e-05
1.09289e-05
-3.15564e-05
1.31364e-05
-2.97143e-05
1.52018e-05
-2.83185e-05
1.71561e-05
-2.72817e-05
1.90275e-05
-2.65448e-05
2.0841e-05
-2.60661e-05
2.26186e-05
-2.58147e-05
2.4379e-05
-2.57672e-05
2.61382e-05
-2.59049e-05
2.79091e-05
-2.62131e-05
2.9702e-05
-2.66788e-05
3.15244e-05
-2.72899e-05
3.3381e-05
-2.80337e-05
3.52733e-05
-2.88945e-05
3.72002e-05
-2.98522e-05
3.91569e-05
-3.08799e-05
4.11356e-05
-3.19407e-05
4.31253e-05
-3.29853e-05
4.51119e-05
-3.39482e-05
4.70784e-05
-3.47445e-05
4.90051e-05
-3.52664e-05
5.08693e-05
-3.53797e-05
5.26449e-05
-3.49226e-05
5.42999e-05
-3.37043e-05
5.5787e-05
-3.14986e-05
5.70376e-05
-2.80525e-05
4.47691e-05
-2.21018e-05
3.98988e-06
-7.03147e-06
3.86117e-07
-6.06842e-07
7.01905e-08
-6.26102e-08
1.4308e-08
2.28996e-09
2.84413e-09
1.93885e-09
5.71685e-10
6.2986e-10
1.20464e-10
1.56351e-10
2.51191e-11
3.44897e-11
6.66441e-12
8.45507e-12
3.92605e-12
3.52559e-12
4.69607e-12
2.15149e-12
6.02823e-12
2.50204e-12
1.55416e-11
7.50283e-12
7.52223e-11
3.67296e-11
5.24494e-10
2.28348e-10
8.87203e-10
1.97312e-09
2.92193e-06
-3.54745e-05
5.7422e-06
-3.93208e-05
8.2818e-06
-3.64867e-05
1.06206e-05
-3.38952e-05
1.27984e-05
-3.18921e-05
1.48436e-05
-3.03637e-05
1.67822e-05
-2.92204e-05
1.86389e-05
-2.84014e-05
2.04361e-05
-2.78633e-05
2.21942e-05
-2.75728e-05
2.39306e-05
-2.75036e-05
2.56604e-05
-2.76347e-05
2.73958e-05
-2.79485e-05
2.91464e-05
-2.84294e-05
3.0919e-05
-2.90626e-05
3.27176e-05
-2.98322e-05
3.45431e-05
-3.072e-05
3.63935e-05
-3.17026e-05
3.82637e-05
-3.27501e-05
4.01458e-05
-3.38228e-05
4.20289e-05
-3.48684e-05
4.39e-05
-3.58192e-05
4.57435e-05
-3.6588e-05
4.7542e-05
-3.70649e-05
4.92761e-05
-3.71139e-05
5.09237e-05
-3.65702e-05
5.24568e-05
-3.52374e-05
5.38304e-05
-3.28723e-05
5.46327e-05
-2.88559e-05
2.47788e-05
-1.95676e-05
9.49998e-07
-2.65644e-06
1.72348e-07
-2.87129e-07
2.83806e-08
-2.07734e-08
5.08017e-09
2.76907e-09
8.79219e-10
1.3379e-09
1.57086e-10
3.69498e-10
3.18129e-11
8.38389e-11
7.63441e-12
1.73897e-11
2.17247e-12
3.7134e-12
1.09661e-12
1.27941e-12
1.41459e-12
7.03374e-13
2.11986e-12
7.70927e-13
5.92745e-12
2.14727e-12
2.8515e-11
1.02876e-11
1.87823e-10
5.90707e-11
2.33701e-10
7.71583e-10
2.83695e-06
-3.83114e-05
5.55057e-06
-4.20344e-05
8.01415e-06
-3.89503e-05
1.03018e-05
-3.61829e-05
1.24451e-05
-3.40353e-05
1.44661e-05
-3.23848e-05
1.63865e-05
-3.11407e-05
1.82271e-05
-3.02421e-05
2.0008e-05
-2.96443e-05
2.17475e-05
-2.93123e-05
2.34618e-05
-2.92178e-05
2.51646e-05
-2.93375e-05
2.68673e-05
-2.96513e-05
2.85788e-05
-3.01409e-05
3.03052e-05
-3.07889e-05
3.20496e-05
-3.15767e-05
3.38125e-05
-3.24829e-05
3.55915e-05
-3.34816e-05
3.73813e-05
-3.45399e-05
3.91739e-05
-3.56154e-05
4.09593e-05
-3.66538e-05
4.27254e-05
-3.75852e-05
4.44584e-05
-3.83211e-05
4.61436e-05
-3.87501e-05
4.77644e-05
-3.87347e-05
4.93027e-05
-3.81084e-05
5.07349e-05
-3.66696e-05
5.2026e-05
-3.41632e-05
4.94687e-05
-2.76987e-05
7.47188e-06
-1.35386e-05
4.24326e-07
-1.17642e-06
7.20025e-08
-1.47962e-07
1.07158e-08
-3.58277e-09
1.66467e-09
2.21203e-09
2.49078e-10
7.92915e-10
3.90708e-11
1.94479e-10
7.76315e-12
4.11172e-11
2.19994e-12
8.22711e-12
8.10142e-13
1.74127e-12
3.63993e-13
5.8053e-13
4.24649e-13
2.74685e-13
6.61723e-13
2.48819e-13
1.83188e-12
5.45587e-13
8.54691e-12
2.59731e-12
5.02889e-11
1.37059e-11
5.1678e-11
2.09684e-10
2.7502e-06
-4.10616e-05
5.35784e-06
-4.4642e-05
7.74376e-06
-4.13362e-05
9.97664e-06
-3.84158e-05
1.2081e-05
-3.61396e-05
1.40738e-05
-3.43777e-05
1.59726e-05
-3.30394e-05
1.7795e-05
-3.20645e-05
1.95585e-05
-3.14077e-05
2.12793e-05
-3.10331e-05
2.2972e-05
-3.09105e-05
2.46492e-05
-3.10148e-05
2.63213e-05
-3.13234e-05
2.79962e-05
-3.18158e-05
2.96792e-05
-3.24719e-05
3.13731e-05
-3.32705e-05
3.30778e-05
-3.41876e-05
3.47905e-05
-3.51943e-05
3.65059e-05
-3.62553e-05
3.82166e-05
-3.73262e-05
3.99133e-05
-3.83505e-05
4.15852e-05
-3.92571e-05
4.32205e-05
-3.99564e-05
4.48068e-05
-4.03363e-05
4.63305e-05
-4.02584e-05
4.77765e-05
-3.95544e-05
4.91235e-05
-3.80166e-05
5.03417e-05
-3.53812e-05
3.34838e-05
-2.88941e-05
1.27329e-06
-7.34157e-06
2.20665e-07
-6.38495e-07
3.15136e-08
-6.9317e-08
4.38564e-09
1.15262e-09
5.75384e-10
1.56908e-09
6.76503e-11
4.53929e-10
7.66448e-12
9.98846e-11
1.54524e-12
2.01834e-11
5.96427e-13
3.91837e-12
2.72503e-13
8.32405e-13
1.49299e-13
2.84114e-13
1.41374e-13
1.51657e-13
1.98725e-13
1.17072e-13
4.97589e-13
1.49854e-13
2.23075e-12
5.86929e-13
1.19663e-11
2.93386e-12
1.11203e-11
4.5985e-11
2.66255e-06
-4.37242e-05
5.1654e-06
-4.71449e-05
7.47265e-06
-4.36434e-05
9.64766e-06
-4.05908e-05
1.17091e-05
-3.8201e-05
1.36696e-05
-3.63382e-05
1.55432e-05
-3.4913e-05
1.73446e-05
-3.38659e-05
1.90887e-05
-3.31519e-05
2.07898e-05
-3.27341e-05
2.24608e-05
-3.25815e-05
2.41129e-05
-3.26669e-05
2.57555e-05
-3.2966e-05
2.73957e-05
-3.34559e-05
2.90379e-05
-3.41142e-05
3.06844e-05
-3.4917e-05
3.23347e-05
-3.58379e-05
3.3986e-05
-3.68456e-05
3.56332e-05
-3.79025e-05
3.72694e-05
-3.89623e-05
3.88862e-05
-3.99673e-05
4.04743e-05
-4.08452e-05
4.20239e-05
-4.1506e-05
4.35247e-05
-4.18371e-05
4.49658e-05
-4.16996e-05
4.63347e-05
-4.09234e-05
4.76112e-05
-3.92931e-05
4.85919e-05
-3.63619e-05
1.90943e-05
-2.55405e-05
6.78613e-07
-3.07908e-06
1.05994e-07
-3.47042e-07
1.26779e-08
-2.95415e-08
1.50512e-09
1.63697e-09
1.48286e-10
9.18042e-10
8.38001e-12
2.32181e-10
0
4.93915e-11
0
1.03038e-11
1.27347e-13
2.07088e-12
8.45257e-14
4.24015e-13
6.76196e-14
1.65333e-13
6.22278e-14
9.9484e-14
6.83526e-14
7.34956e-14
1.246e-13
5.94003e-14
5.17425e-13
1.25789e-13
2.57127e-12
5.81552e-13
2.21506e-12
9.26186e-12
2.57451e-06
-4.62987e-05
4.97397e-06
-4.95444e-05
7.20191e-06
-4.58714e-05
9.31646e-06
-4.27053e-05
1.13313e-05
-4.02159e-05
1.32556e-05
-3.82626e-05
1.51003e-05
-3.67577e-05
1.68775e-05
-3.56431e-05
1.85997e-05
-3.48741e-05
2.02794e-05
-3.44138e-05
2.19277e-05
-3.42298e-05
2.35546e-05
-3.42938e-05
2.51682e-05
-3.45796e-05
2.67748e-05
-3.50625e-05
2.83782e-05
-3.57176e-05
2.998e-05
-3.65189e-05
3.15796e-05
-3.74375e-05
3.31741e-05
-3.84401e-05
3.47587e-05
-3.94871e-05
3.63271e-05
-4.05308e-05
3.78722e-05
-4.15123e-05
3.9386e-05
-4.2359e-05
4.08603e-05
-4.29803e-05
4.22867e-05
-4.32635e-05
4.36568e-05
-4.30696e-05
4.49604e-05
-4.2227e-05
4.61803e-05
-4.0513e-05
4.55507e-05
-3.57325e-05
6.85251e-06
-1.89012e-05
3.49609e-07
-1.51749e-06
4.98258e-08
-1.91509e-07
5.23212e-09
-1.07753e-08
5.22061e-10
1.4284e-09
3.40289e-11
5.34805e-10
0
1.21172e-10
0
2.58182e-11
0
5.32914e-12
7.29618e-15
1.08708e-12
3.54196e-14
2.36206e-13
3.92106e-14
1.07497e-13
3.71781e-14
7.8299e-14
3.32115e-14
5.98235e-14
3.93967e-14
4.15333e-14
1.10213e-13
3.37179e-14
5.0296e-13
1.07661e-13
3.91021e-13
1.67304e-12
2.48634e-06
-4.8785e-05
4.78383e-06
-5.18418e-05
6.93202e-06
-4.80196e-05
8.9839e-06
-4.47572e-05
1.09489e-05
-4.21809e-05
1.28333e-05
-4.0147e-05
1.46454e-05
-3.85698e-05
1.63949e-05
-3.73926e-05
1.80925e-05
-3.65717e-05
1.97484e-05
-3.60697e-05
2.13725e-05
-3.58539e-05
2.29734e-05
-3.58946e-05
2.4558e-05
-3.61642e-05
2.61316e-05
-3.66361e-05
2.76975e-05
-3.72835e-05
2.92569e-05
-3.80782e-05
3.08088e-05
-3.89894e-05
3.23505e-05
-3.99817e-05
3.38776e-05
-4.10142e-05
3.53845e-05
-4.20377e-05
3.6865e-05
-4.29929e-05
3.83125e-05
-4.38065e-05
3.97201e-05
-4.43879e-05
4.10806e-05
-4.46241e-05
4.23868e-05
-4.43758e-05
4.36301e-05
-4.34703e-05
4.48041e-05
-4.16869e-05
3.37525e-05
-3.68923e-05
1.23203e-06
-1.18244e-05
1.96296e-07
-9.00469e-07
2.42178e-08
-1.00029e-07
2.1786e-09
-2.59652e-09
1.55492e-10
1.0393e-09
0
3.00485e-10
0
6.62639e-11
0
1.36156e-11
0
2.7271e-12
0
5.54282e-13
2.35864e-14
1.36549e-13
3.18852e-14
7.17547e-14
2.9434e-14
5.97036e-14
2.31418e-14
4.6349e-14
1.95393e-14
3.08218e-14
2.62428e-14