/*--------------------------------*- C++ -*----------------------------------*\
  =========                 |
  \\      /  F ield         | OpenFOAM: The Open Source CFD Toolbox
   \\    /   O peration     | Website:  https://openfoam.org
    \\  /    A nd           | Version:  9
     \\/     M anipulation  |
\*---------------------------------------------------------------------------*/
FoamFile
{
    format      ascii;
    class       volScalarField;
    location    "0.15";
    object      alpha.water;
}
// * * * * * * * * * * * * * * * * * * * * * * * * * * * * * * * * * * * * * //

dimensions      [0 0 0 0 0 0 0];

internalField   nonuniform List<scalar> 
7700
(
1
1
1
1
1
1
1
1
1
1
1
1
1
1
1
1
1
1
1
1
1
1
1
1
1
1
1
1
1
1
1
1
1
0.999999
0.999999
0.999999
0.999999
0.999999
0.999999
0.996502
0.987281
0.985928
0.971229
0.676473
0.0764813
0.0234832
1
1
1
1
1
1
1
1
1
1
1
1
1
1
1
1
1
1
1
1
1
1
1
1
1
1
1
1
1
1
1
1
1
1
0.99998
0.999972
0.999971
0.999934
0.999832
0.998922
0.976085
0.748659
0.306623
0.134338
0.061672
0.0157254
1
1
1
1
1
1
1
1
1
1
1
1
1
1
1
1
1
1
1
1
1
1
1
1
1
1
1
1
1
1
1
1
1
0.999999
0.999993
0.999717
0.999098
0.999087
0.997943
0.973934
0.756316
0.251123
0.0162344
0.0139845
0.0256165
0.0137222
1
1
1
1
1
1
1
1
1
1
1
1
1
1
1
1
1
1
1
1
1
1
1
1
1
1
1
1
1
1
1
1
1
0.999963
0.999189
0.998534
0.998252
0.987932
0.88077
0.501934
0.128994
0.0229126
0.00355451
0.00239171
0.00521796
0.00480652
1
1
1
1
1
1
1
1
1
1
1
1
1
1
1
1
1
1
1
1
1
1
1
1
1
1
1
1
1
1
1
1
0.999969
0.999286
0.998279
0.991393
0.916026
0.603485
0.201669
0.0486288
0.018037
0.00544058
0.000757275
0.00041208
0.00104933
0.00194726
1
1
1
1
1
1
1
1
1
1
1
1
1
1
1
1
1
1
1
1
1
1
1
1
1
1
1
1
1
1
1
0.99998
0.99977
0.997343
0.957042
0.711085
0.272507
0.0548887
0.0185713
0.00837727
0.00303397
0.000849972
0.000172133
0.000151937
0.00044213
0.000880718
1
1
1
1
1
1
1
1
1
1
1
1
1
1
1
1
1
1
1
1
1
1
1
1
1
1
1
1
1
1
1
0.999997
0.997663
0.894925
0.48799
0.095623
0.0139954
0.00639372
0.00288346
0.00105601
0.000352455
0.000106982
4.45534e-05
6.01636e-05
0.000160625
0.000388203
1
1
1
1
1
1
1
1
1
1
1
1
1
1
1
1
1
1
1
1
1
1
1
1
1
1
1
1
1
1
0.999999
0.999926
0.862329
0.383033
0.0417643
0.00443911
0.00171846
0.000715532
0.000275892
0.000100609
3.85902e-05
1.70621e-05
1.30498e-05
2.06213e-05
5.92889e-05
0.0001668
1
1
1
1
1
1
1
1
1
1
1
1
1
1
1
1
1
1
1
1
1
1
1
1
1
1
1
1
1
1
0.99999
0.907563
0.403126
0.031238
0.00460293
0.00129369
0.000333894
8.98312e-05
2.5959e-05
9.55669e-06
5.32956e-06
4.24028e-06
4.02923e-06
7.76078e-06
2.69441e-05
7.43057e-05
1
1
1
1
1
1
1
1
1
1
1
1
1
1
1
1
1
1
1
1
1
1
1
1
1
1
1
1
1
1
0.985478
0.555495
0.0553097
0.00530532
0.00131879
0.000324549
8.33106e-05
2.39028e-05
6.47899e-06
2.1468e-06
1.239e-06
1.12537e-06
1.2289e-06
2.72536e-06
7.2069e-06
3.01573e-05
7.32897e-26
3.22563e-25
8.60839e-24
2.27394e-23
5.77358e-24
7.4455e-25
5.67192e-26
2.66474e-27
1.08347e-28
8.52587e-30
1.03621e-30
1.13452e-31
1.04424e-32
8.55302e-34
6.27951e-35
4.36934e-36
2.94439e-37
1.91642e-38
1.19802e-39
7.16094e-41
4.07643e-42
2.20103e-43
1.12239e-44
5.38081e-46
2.41324e-47
1.007e-48
3.88543e-50
1.37617e-51
4.43525e-53
1.28661e-54
3.31299e-56
7.43562e-58
1.4192e-59
2.22577e-61
2.7285e-63
2.42113e-65
1.37115e-67
3.96801e-70
3.5198e-73
2.58756e-74
7.311e-26
1.1609e-22
8.90595e-22
1.08049e-21
5.75257e-22
8.33147e-23
5.73904e-24
3.02071e-25
1.58502e-26
1.11604e-27
9.8323e-29
8.63171e-30
6.92529e-31
5.11983e-32
3.47929e-33
2.26715e-34
1.43739e-35
8.82415e-37
5.21378e-38
2.95105e-39
1.59352e-40
8.17608e-42
3.96966e-43
1.81588e-44
7.78904e-46
3.11622e-47
1.15573e-48
3.94493e-50
1.22853e-51
3.45325e-53
8.64276e-55
1.89236e-56
3.5407e-58
5.48145e-60
6.70258e-62
6.03826e-64
3.5932e-66
1.19143e-68
1.85061e-71
3.15117e-74
1.89208e-23
1.66792e-20
8.37984e-20
8.30021e-20
3.11441e-20
3.68828e-21
2.52472e-22
1.44975e-23
8.21317e-25
5.35579e-26
3.9584e-27
2.96244e-28
2.10162e-29
1.4049e-30
8.71347e-32
5.21094e-33
3.03432e-34
1.71133e-35
9.29631e-37
4.84243e-38
2.40915e-39
1.14033e-40
5.11517e-42
2.16548e-43
8.61283e-45
3.20198e-46
1.10616e-47
3.52645e-49
1.02887e-50
2.71934e-52
6.42854e-54
1.33731e-55
2.39632e-57
3.59296e-59
4.32597e-61
3.93239e-63
2.43914e-65
8.51629e-68
1.0675e-70
2.47788e-72
1.59986e-21
1.38947e-18
4.66517e-18
3.71447e-18
1.0371e-18
1.05726e-19
7.21553e-21
4.37114e-22
2.56554e-23
1.58748e-24
1.04007e-25
6.8467e-27
4.35062e-28
2.64475e-29
1.50875e-30
8.34828e-32
4.49598e-33
2.34404e-34
1.1773e-35
5.67282e-37
2.61243e-38
1.14554e-39
4.76494e-41
1.87265e-42
6.92337e-44
2.39613e-45
7.71933e-47
2.29956e-48
6.28431e-50
1.56036e-51
3.47808e-53
6.85474e-55
1.17097e-56
1.68767e-58
1.97429e-60
1.76469e-62
1.07879e-64
3.41432e-67
4.28702e-70
5.30473e-71
2.65379e-19
7.36647e-17
1.74566e-16
1.13075e-16
2.45524e-17
2.20789e-18
1.49158e-19
9.29088e-21
5.53525e-22
3.29637e-23
1.98149e-24
1.17772e-25
6.80774e-27
3.79097e-28
2.01467e-29
1.041e-30
5.22666e-32
2.53794e-33
1.18684e-34
5.32494e-36
2.28393e-37
9.33167e-39
3.61888e-40
1.32699e-41
4.58169e-43
1.48252e-44
4.47141e-46
1.2491e-47
3.20754e-49
7.50202e-51
1.58005e-52
2.95365e-54
4.80811e-56
6.63884e-58
7.47665e-60
6.42761e-62
3.65057e-64
1.15848e-66
2.22486e-69
4.688e-70
7.17675e-17
2.62578e-15
4.69267e-15
2.5693e-15
4.44581e-16
3.52595e-17
2.31358e-18
1.44751e-19
8.6264e-21
4.98443e-22
2.81804e-23
1.55055e-24
8.30684e-26
4.30708e-27
2.15889e-28
1.05171e-29
4.96655e-31
2.26505e-32
9.94053e-34
4.18377e-35
1.68307e-36
6.45006e-38
2.34675e-39
8.07656e-41
2.61882e-42
7.9643e-44
2.25995e-45
5.94731e-47
1.44099e-48
3.18629e-50
6.35941e-52
1.12957e-53
1.75205e-55
2.30961e-57
2.47896e-59
1.99705e-61
1.07183e-63
3.41964e-66
1.01521e-68
2.66671e-69
2.41836e-15
6.79281e-14
9.6889e-14
4.48422e-14
6.12777e-15
4.23115e-16
2.67298e-17
1.66188e-18
9.83233e-20
5.5465e-21
3.00617e-22
1.56853e-23
7.96601e-25
3.92862e-26
1.88034e-27
8.72315e-29
3.91221e-30
1.69131e-31
7.02706e-33
2.79748e-34
1.06387e-35
3.85299e-37
1.32465e-38
4.30824e-40
1.32051e-41
3.79798e-43
1.01995e-44
2.54263e-46
5.84277e-48
1.22703e-49
2.32958e-51
3.94202e-53
5.82967e-55
7.31602e-57
7.40987e-59
5.47473e-61
2.96427e-63
1.09547e-65
3.893e-68
1.18434e-68
8.13425e-15
1.34763e-12
1.48492e-12
5.15887e-13
5.54088e-14
3.51625e-15
2.20598e-16
1.37589e-17
8.11836e-19
4.51975e-20
2.39212e-21
1.21371e-22
5.98183e-24
2.8593e-25
1.32197e-26
5.90117e-28
2.53911e-29
1.05074e-30
4.1718e-32
1.58509e-33
5.74807e-35
1.98388e-36
6.49746e-38
2.0128e-39
5.87661e-41
1.61043e-42
4.12271e-44
9.80411e-46
2.1511e-47
4.31789e-49
7.84398e-51
1.271e-52
1.79923e-54
2.15381e-56
2.05294e-58
1.51344e-60
7.75177e-63
3.40074e-65
1.28032e-67
4.45798e-68
3.05879e-12
1.8817e-11
1.3576e-11
3.1444e-12
2.8681e-13
1.89349e-14
1.24591e-15
7.95503e-17
4.74961e-18
2.65532e-19
1.40154e-20
7.08731e-22
3.45761e-23
1.6238e-24
7.33566e-26
3.1868e-27
1.33005e-28
5.32507e-30
2.04136e-31
7.4773e-33
2.61101e-34
8.67035e-36
2.7306e-37
8.13163e-39
2.28212e-40
6.01269e-42
1.48052e-43
3.38872e-45
7.16287e-47
1.38672e-48
2.43268e-50
3.81079e-52
5.21806e-54
6.03353e-56
5.54846e-58
4.04777e-60
2.12403e-62
9.34827e-65
3.66992e-67
1.44437e-67
1.0652e-10
1.44009e-10
6.21461e-11
1.00795e-11
9.12891e-13
6.85466e-14
4.8578e-15
3.21019e-16
1.96287e-17
1.11827e-18
5.99993e-20
3.07107e-21
1.49959e-22
6.99562e-24
3.12327e-25
1.33542e-26
5.46672e-28
2.14076e-29
8.00919e-31
2.85823e-32
9.71136e-34
3.13487e-35
9.59141e-37
2.774e-38
7.56069e-40
1.93512e-41
4.63165e-43
1.03149e-44
2.12431e-46
4.01441e-48
6.89064e-50
1.05945e-51
1.42978e-53
1.6393e-55
1.50478e-57
1.06312e-59
5.26831e-62
2.23862e-64
9.15832e-67
4.07921e-67
1
1
1
1
1
1
1
1
1
1
1
1
1
1
1
1
1
1
1
1
1
1
1
1
1
1
1
1
1
1.00001
0.794915
0.172535
0.00789426
0.00188818
0.000438973
0.000100729
2.40533e-05
6.31353e-06
1.96696e-06
6.10038e-07
3.18982e-07
3.04556e-07
3.53092e-07
6.73396e-07
1.96032e-06
9.45249e-06
1
1
1
1
1
1
1
1
1
1
1
1
1
1
1
1
1
1
1
1
1
1
1
1
1
1
1
1
1
0.987323
0.462218
0.0214062
0.00332422
0.000752566
0.00016391
3.52011e-05
7.73574e-06
1.94033e-06
5.99477e-07
1.90341e-07
8.85593e-08
8.23081e-08
8.78787e-08
2.15659e-07
6.92752e-07
3.47685e-06
1
1
1
1
1
1
1
1
1
1
1
1
1
1
1
1
1
1
1
1
1
1
1
1
1
1
1
1
1
0.832985
0.173026
0.00676438
0.001466
0.000318482
6.6133e-05
1.34813e-05
2.79086e-06
6.43168e-07
1.87725e-07
6.35169e-08
2.68441e-08
2.2165e-08
2.42374e-08
6.40055e-08
2.09819e-07
1.16777e-06
1
1
1
1
1
1
1
1
1
1
1
1
1
1
1
1
1
1
1
1
1
1
1
1
1
1
1
1
0.999996
0.57996
0.0377552
0.00325926
0.000672581
0.00013927
2.77768e-05
5.43456e-06
1.07241e-06
2.32232e-07
6.25373e-08
2.28902e-08
8.92346e-09
6.3424e-09
6.95305e-09
1.682e-08
6.30131e-08
3.4781e-07
1
1
1
1
1
1
1
1
1
1
1
1
1
1
1
1
1
1
1
1
1
1
1
1
1
1
1
1
0.954627
0.306145
0.00810941
0.00161973
0.000325841
6.35191e-05
1.21279e-05
2.29335e-06
4.38726e-07
8.96965e-08
2.32296e-08
9.21568e-09
3.89353e-09
2.39311e-09
2.21395e-09
4.52635e-09
1.71205e-08
9.31546e-08
1
1
1
1
1
1
1
1
1
1
1
1
1
1
1
1
1
1
1
1
1
1
1
1
1
1
1
1
0.805205
0.124503
0.00428871
0.00079788
0.000154336
2.88414e-05
5.36141e-06
1.01173e-06
2.02018e-07
4.02317e-08
9.38923e-09
3.90581e-09
2.12555e-09
1.37373e-09
1.07443e-09
1.30329e-09
4.54e-09
2.28841e-08
1
1
1
1
1
1
1
1
1
1
1
1
1
1
1
1
1
1
1
1
1
1
1
1
1
1
1
0.999999
0.596248
0.0344795
0.00228047
0.000404659
7.40359e-05
1.32679e-05
2.43408e-06
4.98513e-07
1.03457e-07
2.05853e-08
4.29197e-09
2.05623e-09
1.4776e-09
1.05044e-09
6.89587e-10
5.9475e-10
1.21593e-09
5.28747e-09
1
1
1
1
1
1
1
1
1
1
1
1
1
1
1
1
1
1
1
1
1
1
1
1
1
1
1
0.992639
0.361459
0.00710636
0.00122537
0.000209894
3.62037e-05
6.31122e-06
1.23451e-06
2.67233e-07
5.4839e-08
1.05534e-08
2.22917e-09
1.33312e-09
1.15241e-09
8.7392e-10
5.65094e-10
3.64707e-10
4.15077e-10
1.0706e-09
1
1
1
1
1
1
1
1
1
1
1
1
1
1
1
1
1
1
1
1
1
1
1
1
1
1
1
0.890429
0.187513
0.00403237
0.000638822
0.000105279
1.7396e-05
3.08134e-06
6.80619e-07
1.42e-07
2.88745e-08
5.51072e-09
1.28533e-09
9.88371e-10
8.59169e-10
6.45431e-10
4.1536e-10
2.62096e-10
1.75751e-10
2.66867e-10
1
1
1
1
1
1
1
1
1
1
1
1
1
1
1
1
1
1
1
1
1
1
1
1
1
1
1
0.747896
0.0765686
0.00220441
0.000328761
5.16962e-05
8.26401e-06
1.65865e-06
3.5603e-07
7.15467e-08
1.44779e-08
2.81416e-09
9.22751e-10
7.63571e-10
5.9083e-10
4.05852e-10
2.50239e-10
1.52076e-10
1.07099e-10
8.68602e-11
1
1
1
1
1
1
1
1
1
1
1
1
1
1
1
1
1
1
1
1
1
1
1
1
1
1
1
0.56025
0.0213244
0.00123076
0.00017434
2.59072e-05
4.11423e-06
9.05607e-07
1.82327e-07
3.51879e-08
6.95736e-09
1.41359e-09
7.87169e-10
5.79769e-10
3.80629e-10
2.27797e-10
1.27612e-10
7.10119e-11
4.87739e-11
3.70378e-11
1
1
1
1
1
1
1
1
1
1
1
1
1
1
1
1
1
1
1
1
1
1
1
1
1
1
0.998962
0.356874
0.00499584
0.000687797
9.35831e-05
1.32836e-05
2.37261e-06
5.00411e-07
9.56152e-08
1.77063e-08
3.30964e-09
8.90037e-10
6.39891e-10
4.16614e-10
2.32613e-10
1.18601e-10
5.83618e-11
2.91606e-11
1.64365e-11
1.21993e-11
1
1
1
1
1
1
1
1
1
1
1
1
1
1
1
1
1
1
1
1
1
1
1
1
1
1
0.916888
0.205256
0.00290464
0.000368507
4.79294e-05
6.634e-06
1.4021e-06
2.75546e-07
5.01485e-08
9.06281e-09
1.59492e-09
7.01653e-10
4.80132e-10
2.76592e-10
1.34152e-10
5.88245e-11
2.51702e-11
1.10509e-11
5.34682e-12
3.1618e-12
1
1
1
1
1
1
1
1
1
1
1
1
1
1
1
1
1
1
1
1
1
1
1
1
1
1
0.805125
0.0986645
0.00157951
0.00018732
2.34759e-05
3.36428e-06
7.68348e-07
1.44963e-07
2.5566e-08
4.57711e-09
8.81474e-10
5.52048e-10
3.38889e-10
1.71242e-10
7.28859e-11
2.79988e-11
1.05075e-11
4.05035e-12
1.69698e-12
8.36067e-13
1
1
1
1
1
1
1
1
1
1
1
1
1
1
1
1
1
1
1
1
1
1
1
1
1
1
0.653474
0.0348173
0.000861249
9.53313e-05
1.15099e-05
2.02137e-06
4.15292e-07
7.4966e-08
1.29145e-08
2.24928e-09
6.3338e-10
4.05526e-10
2.22777e-10
9.93531e-11
3.74198e-11
1.28038e-11
4.27586e-12
1.45832e-12
5.31874e-13
2.22624e-13
1
1
1
1
1
1
1
1
1
1
1
1
1
1
1
1
1
1
1
1
1
1
1
1
1
1
0.474265
0.00781719
0.000486243
5.07782e-05
5.83837e-06
1.2122e-06
2.31713e-07
3.97555e-08
6.68895e-09
1.11078e-09
5.02072e-10
2.87336e-10
1.38201e-10
5.43175e-11
1.82403e-11
5.63241e-12
1.69693e-12
5.17525e-13
1.65853e-13
5.95031e-14
1
1
1
1
1
1
1
1
1
1
1
1
1
1
1
1
1
1
1
1
1
1
1
1
1
0.988981
0.301373
0.00268711
0.000270935
2.71556e-05
3.08324e-06
7.15463e-07
1.29266e-07
2.12811e-08
3.50483e-09
6.37367e-10
3.71256e-10
1.94163e-10
8.19807e-11
2.83329e-11
8.52151e-12
2.39328e-12
6.56938e-13
1.81031e-13
5.15405e-14
1.6019e-14
1
1
1
1
1
1
1
1
1
1
1
1
1
1
1
1
1
1
1
1
1
1
1
1
1
0.90553
0.177506
0.00150126
0.000139756
1.34911e-05
1.90496e-06
4.1249e-07
7.0035e-08
1.11544e-08
1.78797e-09
4.6397e-10
2.55924e-10
1.21504e-10
4.57974e-11
1.41223e-11
3.84306e-12
9.87512e-13
2.48449e-13
6.23746e-14
1.59519e-14
4.34939e-15
1
1
1
1
1
1
1
1
1
1
1
1
1
1
1
1
1
1
1
1
1
1
1
1
1
0.801019
0.0875878
0.000767291
6.53422e-05
6.10233e-06
1.17786e-06
2.26514e-07
3.66812e-08
5.7369e-09
9.07387e-10
3.60887e-10
1.73705e-10
7.1613e-11
2.39402e-11
6.68232e-12
1.6704e-12
3.96091e-13
9.18322e-14
2.11393e-14
4.90402e-15
1.18853e-15
1
1
1
1
1
1
1
1
1
1
1
1
1
1
1
1
1
1
1
1
1
1
1
1
1
0.661533
0.0313615
0.000383438
2.96211e-05
2.68902e-06
6.70647e-07
1.20051e-07
1.89687e-08
2.95172e-09
5.19147e-10
2.60016e-10
1.14202e-10
4.05996e-11
1.18699e-11
3.00523e-12
6.96789e-13
1.53825e-13
3.30792e-14
7.0251e-15
1.49099e-15
3.25281e-16
1
1
1
1
1
1
1
1
1
1
1
1
1
1
1
1
1
1
1
1
1
1
1
1
1
0.496499
0.00642571
0.000203876
1.45521e-05
1.36491e-06
3.82618e-07
6.45521e-08
9.93268e-09
1.52214e-09
3.62369e-10
1.72993e-10
6.97949e-11
2.18879e-11
5.63785e-12
1.29502e-12
2.78888e-13
5.75756e-14
1.15512e-14
2.27735e-15
4.45632e-16
8.85263e-17
1
1
1
1
1
1
1
1
1
1
1
1
1
1
1
1
1
1
1
1
1
1
1
1
1
0.330358
0.001585
0.000110727
7.64709e-06
9.97009e-07
2.27491e-07
3.55665e-08
5.25555e-09
7.94133e-10
2.6431e-10
1.10488e-10
3.93873e-11
1.10139e-11
2.55296e-12
5.36414e-13
1.07255e-13
2.07121e-14
3.88947e-15
7.15583e-16
1.2999e-16
2.37503e-17
0.999999
1
1
1
1
1
1
1
1
1
1
1
1
1
1
1
1
1
1
1
1
1
1
1
0.940996
0.203683
0.000869695
5.51632e-05
3.64755e-06
6.9252e-07
1.31092e-07
1.90526e-08
2.72251e-09
4.42403e-10
1.79617e-10
6.72081e-11
2.06948e-11
5.14826e-12
1.09194e-12
2.1244e-13
3.9547e-14
7.14171e-15
1.25689e-15
2.16554e-16
3.67211e-17
6.22209e-18
0.999997
0.999999
0.999999
1
1
1
1
1
1
1
1
1
1
1
1
1
1
1
1
1
1
1
1
1
0.848352
0.109839
0.000411385
2.28729e-05
1.46077e-06
4.11845e-07
6.80773e-08
9.51267e-09
1.34993e-09
2.83253e-10
1.11851e-10
3.77355e-11
1.01105e-11
2.24241e-12
4.38667e-13
7.9734e-14
1.38863e-14
2.34863e-15
3.878e-16
6.27192e-17
9.96897e-18
1.57674e-18
0.999988
0.999994
0.999998
0.999999
1
1
1
1
1
1
1
1
1
1
1
1
1
1
1
1
1
1
1
1
0.726174
0.0457246
0.000167395
7.82997e-06
5.33127e-07
2.1694e-07
3.33948e-08
4.6308e-09
6.70222e-10
1.8706e-10
6.5356e-11
1.93836e-11
4.56482e-12
9.11096e-13
1.65039e-13
2.81363e-14
4.60328e-15
7.31248e-16
1.13494e-16
1.72673e-17
2.58103e-18
3.8299e-19
0.999949
0.999973
0.999989
0.999996
0.999998
0.999999
1
1
1
1
1
1
1
1
1
1
1
1
1
1
1
1
1
0.999999
0.573705
0.0120587
6.64879e-05
2.75532e-06
4.34201e-07
1.20804e-07
1.75985e-08
2.42328e-09
3.58787e-10
1.16738e-10
3.59706e-11
9.16549e-12
1.90241e-12
3.44838e-13
5.79856e-14
9.27652e-15
1.4287e-15
2.13755e-16
3.1263e-17
4.48529e-18
6.32365e-19
8.83975e-20
0.999779
0.999882
0.999951
0.999979
0.999991
0.999996
0.999998
0.999999
0.999999
0.999999
0.999999
0.999999
0.999999
0.999999
0.999999
0.999999
0.999999
0.999999
0.999999
0.999999
0.999999
0.999999
1
0.999997
0.408372
0.00101279
3.01986e-05
1.22081e-06
3.77936e-07
7.60203e-08
1.02935e-08
1.36971e-09
2.14144e-10
6.7373e-11
1.82414e-11
3.9841e-12
7.32221e-13
1.21286e-13
1.89496e-14
2.84163e-15
4.12131e-16
5.8188e-17
8.0398e-18
1.09061e-18
1.45461e-19
1.92262e-20
0.999042
0.999479
0.999776
0.999902
0.999956
0.999977
0.999987
0.999992
0.999995
0.999996
0.999997
0.999997
0.999997
0.999997
0.999997
0.999997
0.999996
0.999996
0.999995
0.999994
0.999994
0.999995
0.999998
0.999848
0.259153
0.000416231
1.42191e-05
6.09283e-07
2.81013e-07
4.71829e-08
6.03733e-09
7.81065e-10
1.3168e-10
3.57542e-11
8.32252e-12
1.57369e-12
2.58886e-13
3.93776e-14
5.71972e-15
8.03441e-16
1.09744e-16
1.46399e-17
1.91513e-18
2.46297e-19
3.11719e-20
3.90935e-21
0.995816
0.99768
0.998967
0.99953
0.999782
0.999886
0.999933
0.999957
0.99997
0.999977
0.999981
0.999983
0.999984
0.999984
0.999983
0.999981
0.999979
0.999976
0.999972
0.999969
0.999966
0.999976
0.999988
0.915165
0.14968
0.000182218
5.18056e-06
2.61053e-07
1.80227e-07
2.72514e-08
3.24659e-09
4.02393e-10
7.52481e-11
1.71396e-11
3.37469e-12
5.59509e-13
8.33386e-14
1.16807e-14
1.57889e-15
2.07823e-16
2.67464e-17
3.37723e-18
4.19399e-19
5.12805e-20
6.17782e-21
7.3771e-22
0.963789
0.989565
0.995204
0.997741
0.998923
0.99942
0.999649
0.999773
0.99984
0.999876
0.999896
0.999906
0.999909
0.999908
0.999904
0.999895
0.999883
0.999867
0.999849
0.99983
0.999813
0.999868
0.999914
0.802703
0.0682409
5.73061e-05
1.12909e-06
9.50164e-08
8.60915e-08
1.27764e-08
1.30007e-09
1.83061e-10
3.81016e-11
7.30354e-12
1.21687e-12
1.79065e-13
2.43805e-14
3.1622e-15
3.97572e-16
4.89108e-17
5.92168e-18
7.08933e-19
8.37482e-20
9.76806e-21
1.12457e-21
1.28346e-22
0.437855
0.709198
0.921871
0.989163
0.994665
0.997059
0.998171
0.998791
0.999131
0.999319
0.999422
0.999475
0.999494
0.999488
0.999462
0.999417
0.999352
0.99927
0.999177
0.99908
0.998982
0.999264
0.999535
0.629514
0.0193392
1.06315e-05
1.73168e-07
1.46542e-07
3.05362e-08
3.4704e-09
4.28216e-10
7.83662e-11
1.64379e-11
2.7198e-12
3.90788e-13
5.15933e-14
6.45697e-15
7.77868e-16
9.12802e-17
1.05282e-17
1.20054e-18
1.3568e-19
1.51948e-20
1.69325e-21
1.86786e-22
2.0451e-23
0.00115948
0.0973742
0.326772
0.6468
0.871515
0.968867
0.990474
0.993565
0.995302
0.996268
0.996804
0.997077
0.997173
0.99714
0.996999
0.996758
0.996414
0.995986
0.995503
0.995002
0.994491
0.995516
0.997483
0.424432
0.00162074
1.00382e-06
1.78468e-08
8.22183e-08
5.94618e-09
5.77736e-10
1.56982e-10
3.14518e-11
5.98293e-12
8.78514e-13
1.11771e-13
1.33734e-14
1.54389e-15
1.73289e-16
1.90635e-17
2.07038e-18
2.23071e-19
2.38768e-20
2.54131e-21
2.69384e-22
2.83274e-23
2.97578e-24
1.75491e-13
0
2.24989e-08
0.0601264
0.223719
0.452034
0.646476
0.779078
0.859279
0.905089
0.930148
0.942316
0.945983
0.943734
0.936436
0.924301
0.907095
0.885655
0.861922
0.837342
0.811496
0.826249
0.931548
0.226178
5.32141e-05
2.21064e-08
1.16826e-08
4.67109e-08
3.04236e-10
1.29863e-10
6.35651e-11
1.15931e-11
1.88104e-12
2.475e-13
2.84527e-14
3.11376e-15
3.32876e-16
3.49306e-17
3.61675e-18
3.71436e-19
3.79821e-20
3.8705e-21
3.92915e-22
3.9737e-23
3.99528e-24
4.00895e-25
1.28131e-17
-1.43189e-17
0
-2.8814e-10
-3.31034e-11
0.000326338
0.0464404
0.114759
0.186516
0.248552
0.296201
0.32502
0.334134
0.328004
0.309391
0.281646
0.249588
0.21591
0.18565
0.158968
0.134925
0.147408
0.286852
0.065372
2.35574e-05
2.41444e-09
1.10076e-08
2.65323e-08
6.19054e-12
5.43829e-11
2.60134e-11
3.92477e-12
5.26164e-13
6.14144e-14
6.43442e-15
6.48847e-16
6.45584e-17
6.36363e-18
6.23265e-19
6.08468e-20
5.93427e-21
5.78147e-22
5.62025e-23
5.45052e-24
5.25687e-25
5.0535e-26
2.38607e-17
-8.88073e-17
-1.00826e-16
-1.38608e-14
-5.0697e-13
-1.22045e-13
-1.21769e-12
-7.17838e-12
-5.68374e-12
-1.25719e-11
-8.83622e-10
-3.36079e-09
0
0
-5.85626e-09
-1.13321e-09
-2.07208e-10
-8.35033e-11
-2.32322e-11
-4.39656e-12
-4.97631e-29
3.08102e-13
1.87094e-12
0.000305803
5.84991e-05
1.09377e-09
1.01313e-08
1.33403e-08
3.66792e-12
3.22555e-11
9.73484e-12
1.20108e-12
1.31493e-13
1.3435e-14
1.2859e-15
1.20306e-16
1.12191e-17
1.0458e-18
9.75006e-20
9.10137e-21
8.51088e-22
7.96627e-23
7.45036e-24
6.9554e-25
6.4605e-26
5.97435e-27
4.65301e-17
-1.28446e-16
-2.28523e-16
-4.17812e-14
-2.06001e-12
-6.19111e-13
-6.49412e-12
-4.06965e-11
-3.25652e-11
-7.0436e-11
-5.22672e-09
-2.00541e-08
-1.61559e-08
-6.39313e-09
-1.90969e-09
-3.83749e-10
-1.15375e-09
-4.93132e-10
-1.34609e-10
-2.47667e-11
1.38803e-13
1.34314e-12
3.85643e-12
1.33866e-07
7.85251e-06
8.14778e-10
6.29737e-09
4.04505e-09
2.84094e-12
1.82402e-11
3.08307e-12
3.14206e-13
2.84307e-14
2.54995e-15
2.24468e-16
1.96785e-17
1.73751e-18
1.54542e-19
1.38206e-20
1.24174e-21
1.11991e-22
1.01233e-23
9.15013e-25
8.25785e-26
7.41803e-27
6.62128e-28
2.12543e-17
-6.62492e-17
-2.14911e-16
-4.41055e-14
-2.04885e-12
-7.48949e-13
-9.40235e-12
-6.32487e-11
-5.082e-11
-5.25487e-11
-3.77184e-10
-9.82188e-10
-8.94187e-10
-5.22201e-10
-2.44506e-10
-2.82553e-10
-1.66711e-09
-6.61777e-10
-1.77931e-10
-2.75077e-11
1.00216e-11
6.87806e-12
7.14592e-12
8.12811e-12
1.02214e-11
8.11343e-10
2.32454e-09
1.38579e-10
2.59029e-12
8.65031e-12
7.47061e-13
6.4479e-14
5.03214e-15
4.07684e-16
3.36385e-17
2.80906e-18
2.38156e-19
2.04414e-20
1.76953e-21
1.54174e-22
1.34958e-23
1.18454e-24
1.03974e-25
9.11133e-27
7.94689e-28
6.87099e-29
-3.94655e-21
-8.04778e-20
-6.00879e-17
-7.31073e-15
-5.70547e-14
-4.96131e-13
-9.60305e-12
-6.70537e-11
-5.32259e-11
-4.34786e-11
-2.50634e-10
-6.15018e-10
-5.57889e-10
-3.29365e-10
-1.82576e-10
-3.49935e-10
-1.25831e-09
-4.8182e-10
-1.41108e-10
-1.13351e-11
3.35771e-11
2.45229e-11
1.21568e-11
1.082e-11
3.89215e-11
2.97178e-10
3.66023e-10
7.1021e-13
2.55803e-12
3.06e-12
1.21883e-13
9.48349e-15
6.89009e-16
5.31679e-17
4.24806e-18
3.4593e-19
2.86634e-20
2.40608e-21
2.0372e-22
1.73563e-23
1.48484e-24
1.27293e-25
1.09065e-26
9.32311e-28
7.92813e-29
6.66432e-30
-3.83582e-21
-7.91059e-20
-6.35913e-18
-2.98227e-16
-1.15627e-14
-3.62531e-13
-7.46797e-12
-5.08677e-11
-3.84573e-11
-1.98534e-11
-3.20505e-11
-3.93927e-11
-3.65678e-11
-3.30069e-11
-6.52083e-11
-2.66698e-10
-7.19354e-10
-2.64137e-10
-6.98023e-11
1.21473e-11
4.75485e-11
4.07156e-11
1.58423e-11
1.05388e-11
3.28612e-11
4.98689e-11
2.12118e-11
6.2306e-13
1.21532e-12
4.9939e-13
1.17432e-14
9.30062e-16
6.98431e-17
5.50107e-18
4.44122e-19
3.63001e-20
3.00089e-21
2.50157e-22
2.09619e-23
1.76281e-24
1.48534e-25
1.25188e-26
1.05294e-27
8.82389e-29
7.3485e-30
6.02833e-31
-3.03477e-21
-1.64701e-19
-7.13786e-18
-2.59904e-16
-8.92068e-15
-2.58953e-13
-4.53748e-12
-2.54743e-11
-1.86129e-11
-1.05065e-11
-1.65537e-11
-1.99059e-11
-1.83603e-11
-1.67795e-11
-3.11389e-11
-9.96927e-11
-2.00051e-10
-6.89883e-11
-8.41095e-12
3.30748e-11
4.95286e-11
4.62682e-11
1.98271e-11
6.47587e-12
5.61799e-12
5.99667e-12
1.1832e-12
1.92347e-13
2.2043e-13
2.72324e-14
5.13811e-16
5.54957e-17
4.99898e-18
4.36578e-19
3.75221e-20
3.18873e-21
2.69642e-22
2.27348e-23
1.91199e-24
1.60476e-25
1.34377e-26
1.12181e-27
9.32139e-29
7.70062e-30
6.31105e-31
5.07316e-32
-2.60991e-21
-1.833e-19
-7.94584e-18
-2.70544e-16
-7.37405e-15
-1.42893e-13
-1.54364e-12
-6.31491e-12
-4.60588e-12
-2.8604e-12
-4.38906e-12
-5.15575e-12
-4.60211e-12
-3.33508e-12
-1.97171e-12
-9.02213e-13
-1.22218e-13
2.43267e-13
1.20489e-11
3.62886e-11
4.76106e-11
4.21346e-11
1.96538e-11
3.00403e-12
5.08671e-13
2.45421e-13
8.85525e-14
2.06377e-14
1.12454e-14
2.32379e-16
1.08105e-17
1.43493e-18
1.86232e-19
2.3446e-20
2.41918e-21
2.2667e-22
2.03197e-23
1.777e-24
1.5278e-25
1.2978e-26
1.09192e-27
9.10961e-29
7.53342e-30
6.17388e-31
5.00636e-32
3.96099e-33
-5.12744e-37
-4.61799e-36
0
-9.80596e-37
-4.24707e-36
-3.73356e-35
-1.73454e-33
-7.47491e-32
-2.89753e-30
-1.00891e-28
-3.14336e-27
-8.74356e-26
-2.17006e-24
-4.81527e-23
-9.96203e-22
-3.23866e-20
1.76379e-15
3.35558e-13
4.1155e-12
1.44204e-11
2.34451e-11
2.46851e-11
1.02898e-11
2.11905e-12
1.23269e-13
1.45994e-15
1.32134e-15
8.75318e-16
1.96685e-16
7.1164e-18
5.32365e-19
7.47852e-20
8.62831e-21
9.489e-22
9.7493e-23
1.15317e-23
1.21855e-24
1.16153e-25
1.04975e-26
9.20414e-28
7.89491e-29
6.6563e-30
5.52766e-31
4.52726e-32
3.65492e-33
2.86024e-34
-6.15448e-37
-8.40726e-36
0
-3.96451e-45
9.03706e-34
3.60919e-32
1.19527e-30
3.53648e-29
9.41576e-28
2.26013e-26
4.89507e-25
9.57149e-24
1.69e-22
2.69253e-21
3.80864e-20
1.25596e-19
-5.6204e-17
1.41372e-14
4.49754e-13
2.08878e-12
3.7896e-12
4.32085e-12
2.46253e-12
5.00363e-13
6.6287e-14
1.99923e-17
2.22704e-17
2.18287e-17
2.85976e-18
3.04622e-19
2.78712e-20
4.45939e-21
5.37993e-22
5.81629e-23
5.78898e-24
5.65254e-25
5.39538e-26
5.80269e-27
5.97385e-28
5.60808e-29
5.00967e-30
4.33414e-31
3.65617e-32
3.01983e-33
2.44501e-34
1.90317e-35
-5.32142e-37
-1.10657e-35
-9.29003e-35
-2.54121e-34
-6.16489e-36
4.55699e-34
2.04102e-32
6.84678e-31
2.03339e-29
5.44182e-28
1.31906e-26
2.90406e-25
5.82192e-24
1.05124e-22
1.27694e-21
4.5521e-19
1.22987e-17
3.16094e-17
3.67746e-17
2.55473e-17
2.31652e-17
2.20988e-17
2.19736e-17
2.20915e-17
4.49738e-17
2.3601e-17
1.57e-18
1.08559e-18
1.22792e-19
1.01013e-20
1.20447e-21
2.20267e-22
2.97344e-23
3.49586e-24
3.65379e-25
3.48195e-26
3.16753e-27
2.87773e-28
2.67362e-29
2.77781e-30
2.72286e-31
2.47898e-32
2.15861e-33
1.81941e-34
1.49077e-35
1.1618e-36
-2.01968e-37
-5.01662e-36
-5.42134e-35
-2.85773e-34
-2.83865e-34
-7.25864e-34
-2.2393e-32
-6.49473e-31
-1.69335e-29
-3.98851e-28
-8.51946e-27
-1.6536e-25
-2.92096e-24
-4.71421e-23
-6.45883e-22
1.82837e-21
5.95984e-19
1.05622e-17
4.04204e-17
5.60899e-17
5.60899e-17
4.74384e-17
2.28484e-17
9.71039e-18
2.23724e-18
3.63846e-19
9.68381e-20
5.52728e-20
6.29341e-21
2.84858e-22
4.46225e-23
9.4179e-24
1.41002e-24
1.7864e-25
1.97445e-26
1.99348e-27
1.87322e-28
1.66555e-29
1.44365e-30
1.27015e-31
1.21725e-32
1.20912e-33
1.12066e-34
9.80499e-36
8.22773e-37
6.47181e-38
0
-2.58618e-49
-9.00527e-45
-1.24956e-42
-8.8503e-41
1.15031e-37
2.05525e-36
9.16599e-35
2.06166e-33
4.13982e-32
7.49777e-31
1.23635e-29
1.86341e-28
2.57599e-27
3.27528e-26
9.25295e-24
1.87276e-21
2.57184e-20
1.1618e-19
2.81726e-19
3.63316e-19
2.53092e-19
2.46543e-19
9.75192e-20
2.57758e-20
8.19156e-21
3.9996e-21
1.60338e-21
1.74605e-22
6.6505e-24
1.39384e-24
3.43984e-25
5.77974e-26
7.97169e-27
9.37821e-28
9.92916e-29
9.6801e-30
8.92416e-31
7.87947e-32
6.69479e-33
5.69777e-34
5.0324e-35
4.96173e-36
4.65039e-37
4.07156e-38
3.26655e-39
0
6.30251e-47
5.65732e-45
9.53023e-44
-1.9632e-42
-2.84974e-39
3.38229e-38
8.40198e-37
1.83698e-35
3.52101e-34
6.11642e-33
9.71642e-32
1.42397e-30
1.94473e-29
2.48458e-28
9.73005e-27
5.28801e-25
5.65778e-23
7.84359e-22
3.49601e-21
7.26696e-21
9.41752e-21
9.51405e-21
4.28544e-21
1.02115e-21
2.88605e-22
1.2997e-22
4.68487e-23
5.40286e-24
1.24492e-25
3.6002e-26
1.05709e-26
2.02275e-27
3.07564e-28
3.89661e-29
4.35993e-30
4.44208e-31
4.23279e-32
3.83623e-33
3.34833e-34
2.83357e-35
2.35983e-36
2.02241e-37
1.91456e-38
1.77635e-39
1.47885e-40
-4.17207e-48
-7.54441e-47
-5.46569e-45
-2.99407e-43
-1.26837e-41
-8.19045e-41
-2.47013e-39
-6.01011e-38
-1.32318e-36
-2.62341e-35
-4.70953e-34
-7.69117e-33
-1.14595e-31
-1.56501e-30
-1.89682e-29
9.57266e-29
6.21752e-27
7.66594e-25
1.28739e-23
6.86759e-23
1.60334e-22
2.23178e-22
2.36631e-22
1.30997e-22
3.33426e-23
8.91485e-24
3.94833e-24
1.67893e-24
2.59769e-25
1.80889e-27
7.52183e-28
2.68578e-28
5.96265e-29
1.01473e-29
1.40235e-30
1.67792e-31
1.80089e-32
1.78971e-33
1.67451e-34
1.499e-35
1.29879e-36
1.09601e-37
9.03704e-39
7.58379e-40
6.85997e-41
5.91491e-42
-2.04737e-62
5.93035e-51
4.51104e-49
2.65528e-47
1.09373e-45
3.63237e-44
7.49316e-43
3.00378e-41
6.81779e-40
1.39637e-38
2.60097e-37
4.44412e-36
7.01232e-35
1.02799e-33
1.40794e-32
1.97084e-31
4.49987e-29
5.70793e-27
1.12629e-25
7.30016e-25
1.97441e-24
3.00523e-24
3.34034e-24
2.3417e-24
7.20129e-25
2.1752e-25
1.00983e-25
4.45775e-26
7.13577e-27
2.01856e-29
1.29208e-29
5.51464e-30
1.45793e-30
2.82895e-31
4.32904e-32
5.61058e-33
6.40923e-34
6.7046e-35
6.53553e-36
6.03625e-37
5.37319e-38
4.62466e-39
3.8865e-40
3.19344e-41
2.63121e-42
2.15428e-43
3.64122e-56
-4.25267e-53
-3.94342e-52
-7.93503e-50
-4.65209e-48
-5.07124e-46
-9.14425e-47
-8.09806e-45
-2.0931e-43
-4.97699e-42
-1.00512e-40
-1.76536e-39
-2.66219e-38
-3.33079e-37
-3.16716e-36
3.70231e-34
6.49994e-32
8.81247e-30
2.48478e-28
2.96626e-27
1.40507e-26
3.15591e-26
4.35031e-26
4.62689e-26
2.75518e-26
7.87703e-27
2.30183e-27
8.30214e-28
1.6869e-28
9.01739e-31
6.39988e-31
8.69268e-32
2.90442e-32
6.57632e-33
1.1346e-33
1.61616e-34
1.99079e-35
2.21279e-36
2.26787e-37
2.18157e-38
2.00572e-39
1.77506e-40
1.52122e-41
1.2748e-42
1.04225e-43
8.20976e-45
-9.15093e-57
-3.33204e-55
-3.85559e-53
-2.16845e-51
-9.19548e-50
-7.67132e-49
-2.38543e-47
-5.77953e-46
-1.26821e-44
-2.5001e-43
-4.46964e-42
-7.27525e-41
-1.08051e-39
-1.46953e-38
-1.88348e-37
6.43225e-37
1.78676e-34
1.20617e-32
3.34295e-31
6.53714e-30
5.70274e-29
2.03625e-28
3.65847e-28
4.33279e-28
3.87092e-28
1.47595e-28
4.13603e-29
1.37205e-29
3.1946e-30
5.89835e-32
1.72211e-32
1.09861e-33
4.611e-34
1.25536e-34
2.49605e-35
3.97532e-36
5.35503e-37
6.39745e-38
6.96221e-39
7.0371e-40
6.73103e-41
6.16873e-42
5.4353e-43
4.65765e-44
3.87399e-45
3.09201e-46
8.07055e-63
1.50603e-60
1.08674e-58
5.25067e-57
2.95098e-55
9.5079e-54
-1.40165e-52
1.45289e-50
3.49589e-49
8.02018e-48
1.64403e-46
3.07689e-45
5.38345e-44
8.884e-43
1.39266e-41
8.77673e-40
3.61722e-37
1.36466e-35
2.96453e-34
6.14296e-33
8.40237e-32
5.14453e-31
1.43192e-30
2.25304e-30
2.55234e-30
2.12907e-30
7.97409e-31
2.12718e-31
4.31676e-32
3.88642e-33
4.32318e-34
1.2556e-35
5.6581e-36
1.93194e-36
4.54953e-37
8.26906e-38
1.23786e-38
1.61065e-39
1.88178e-40
2.01721e-41
2.02574e-42
1.93444e-43
1.7658e-44
1.55419e-45
1.32734e-46
1.07698e-47
9.3669e-67
-3.82242e-63
-4.88602e-61
-1.90181e-59
-1.03271e-57
-8.97456e-56
-1.80018e-55
-7.94953e-54
-1.74222e-52
-4.05052e-51
-9.07977e-50
-1.75841e-48
-2.957e-47
-4.29993e-46
-6.6551e-45
5.2468e-43
2.49122e-40
8.1906e-39
1.49748e-37
2.52182e-36
4.64419e-35
6.32038e-34
3.87725e-33
1.04213e-32
1.55044e-32
1.68315e-32
1.07858e-32
2.92883e-33
6.01155e-34
1.05743e-34
8.55004e-36
3.21327e-37
5.20011e-38
2.34109e-38
6.76491e-39
1.43864e-39
2.43894e-40
3.50925e-41
4.45563e-42
5.11781e-43
5.44538e-44
5.45925e-45
5.19755e-46
4.73697e-47
4.17009e-48
3.4754e-49
-5.76835e-68
-8.00961e-66
-3.73669e-64
-2.1435e-62
-1.0146e-60
-7.92278e-60
-3.1341e-58
-7.65929e-57
-1.83359e-55
-4.18093e-54
-8.4368e-53
-1.5102e-51
-2.40385e-50
-3.41142e-49
-4.72447e-48
2.12903e-46
7.46025e-44
2.42216e-42
4.56286e-41
6.85109e-40
9.723e-39
1.55946e-37
2.22581e-36
1.59686e-35
4.89481e-35
7.77265e-35
8.5709e-35
5.42133e-35
1.19578e-35
1.49819e-36
1.88248e-37
1.67734e-38
7.18637e-40
2.13069e-40
8.05003e-41
2.0665e-41
4.05817e-42
6.57256e-43
9.19384e-44
1.14437e-44
1.30245e-45
1.38277e-46
1.38287e-47
1.31469e-48
1.1989e-49
1.0325e-50
9.77595e-75
1.58046e-72
1.19139e-70
-6.50886e-68
8.84137e-67
-2.3892e-65
-6.84861e-63
1.73435e-62
1.4362e-60
2.09818e-59
2.32441e-58
4.7092e-57
1.79695e-55