/*--------------------------------*- C++ -*----------------------------------*\
  =========                 |
  \\      /  F ield         | OpenFOAM: The Open Source CFD Toolbox
   \\    /   O peration     | Website:  https://openfoam.org
    \\  /    A nd           | Version:  9
     \\/     M anipulation  |
\*---------------------------------------------------------------------------*/
FoamFile
{
    format      ascii;
    class       volScalarField;
    location    "0.15";
    object      epsilon;
}
// * * * * * * * * * * * * * * * * * * * * * * * * * * * * * * * * * * * * * //

dimensions      [0 2 -3 0 0 0 0];

internalField   nonuniform List<scalar> 
7700
(
0.0751317
0.202006
0.33362
0.442669
0.53347
0.610453
0.676867
0.735321
0.788037
0.836935
0.8837
0.929847
0.976781
1.02585
1.0784
1.13578
1.19934
1.27042
1.35021
1.43964
1.53907
1.64798
1.76462
1.88559
2.00568
2.1179
2.21404
2.28572
2.32573
2.32951
2.29565
2.22386
2.11424
1.98435
1.84764
1.71037
1.58325
1.47781
1.40261
1.36052
1.34803
1.35584
1.33833
1.24026
1.11258
0.77437
0.135781
0.167376
0.20562
0.236239
0.26048
0.280091
0.296424
0.310504
0.323128
0.334925
0.346411
0.358026
0.370167
0.38321
0.397528
0.413499
0.431513
0.451951
0.475162
0.501402
0.530754
0.563029
0.597648
0.633546
0.669126
0.702324
0.730815
0.752391
0.765467
0.769533
0.765286
0.754458
0.739926
0.729663
0.722131
0.709948
0.691228
0.667849
0.644245
0.626484
0.619877
0.62701
0.647531
0.702978
1.10435
1.38593
0.190045
0.189537
0.204342
0.215726
0.224111
0.230497
0.235646
0.240142
0.244425
0.248832
0.253625
0.259022
0.265218
0.272401
0.280761
0.290495
0.301807
0.314888
0.329892
0.346894
0.36583
0.386434
0.408166
0.430164
0.451251
0.470013
0.48499
0.494982
0.499424
0.498724
0.494373
0.488705
0.484315
0.484037
0.488924
0.495586
0.500833
0.50429
0.509652
0.524331
0.558409
0.626282
0.752709
0.905782
1.29491
1.91426
0.230404
0.210524
0.212562
0.213703
0.213871
0.213636
0.213391
0.213432
0.213985
0.215215
0.217249
0.220193
0.224145
0.229206
0.235481
0.243083
0.252125
0.2627
0.274858
0.288564
0.303654
0.319784
0.336384
0.352643
0.367537
0.379926
0.388747
0.393282
0.39347
0.390161
0.385147
0.380823
0.379498
0.382907
0.391932
0.405744
0.423897
0.448016
0.483382
0.54032
0.63706
0.815686
1.19087
1.67659
1.99296
2.27851
0.261831
0.226017
0.219769
0.214484
0.209475
0.205068
0.201453
0.198755
0.197055
0.196406
0.196843
0.198396
0.2011
0.204996
0.210136
0.216574
0.224361
0.233521
0.24403
0.25578
0.268539
0.281918
0.295342
0.308055
0.319165
0.327755
0.33306
0.334706
0.332954
0.328891
0.324407
0.32184
0.323349
0.330554
0.344803
0.367115
0.399691
0.447236
0.518923
0.631254
0.815029
1.13269
1.6552
2.26939
2.58963
2.36868
0.287314
0.236636
0.224521
0.21505
0.206646
0.199444
0.193539
0.188964
0.185716
0.183773
0.183108
0.183697
0.185528
0.188598
0.192916
0.198492
0.205327
0.213397
0.222623
0.232848
0.243805
0.255091
0.266158
0.276331
0.284862
0.291044
0.294364
0.294705
0.292536
0.289046
0.286113
0.285986
0.290823
0.302636
0.323907
0.35788
0.409701
0.487988
0.607502
0.797774
1.09917
1.5097
1.89634
2.32664
2.72284
2.20105
0.308645
0.243721
0.227129
0.21484
0.204182
0.195082
0.187578
0.181663
0.177287
0.174384
0.172883
0.172724
0.173858
0.176248
0.179869
0.184695
0.190691
0.197794
0.20589
0.214795
0.22423
0.233809
0.243037
0.251342
0.258126
0.262876
0.265292
0.265442
0.263909
0.261891
0.26118
0.263933
0.272456
0.289607
0.319717
0.368931
0.445482
0.561557
0.742494
1.01897
1.36962
1.66433
1.83397
2.12963
2.49721
1.99637
0.326982
0.248426
0.228217
0.213937
0.201749
0.191348
0.182719
0.175832
0.170613
0.166971
0.164806
0.164031
0.16457
0.166361
0.16935
0.173486
0.178703
0.184914
0.191985
0.199724
0.207861
0.216047
0.223861
0.230842
0.236545
0.240628
0.242962
0.243741
0.24359
0.243643
0.245562
0.251393
0.263703
0.286547
0.326704
0.392563
0.494241
0.649107
0.868811
1.12655
1.35448
1.50414
1.62016
1.88675
2.21119
1.80854
0.343111
0.251589
0.228341
0.212566
0.199299
0.187989
0.178562
0.170964
0.165109
0.160887
0.158182
0.156887
0.156907
0.158158
0.160568
0.164062
0.168559
0.173954
0.180108
0.186834
0.193891
0.200981
0.207768
0.213905
0.219089
0.22313
0.226031
0.228067
0.229851
0.232421
0.237259
0.246227
0.262093
0.290139
0.338416
0.416752
0.535766
0.694181
0.867332
1.02535
1.15455
1.26652
1.41102
1.6946
2.05303
1.68183
0.357581
0.253767
0.227891
0.210925
0.196859
0.184898
0.174897
0.166777
0.16044
0.155761
0.152614
0.150878
0.150443
0.15121
0.153092
0.156002
0.159845
0.164514
0.169873
0.175754
0.181953
0.188237
0.194356
0.200079
0.205231
0.209754
0.213755
0.217557
0.22174
0.227234
0.235277
0.247394
0.26632
0.298031
0.35233
0.437356
0.546816
0.663555
0.771667
0.865333
0.954108
1.06565
1.2533
1.59253
2.14606
1.79116
0.0620558
0.0854143
0.0864653
0.408174
0.467896
0.507089
0.529891
0.541098
0.544487
0.542813
0.537998
0.531317
0.523966
0.518453
0.513512
0.508674
0.503948
0.499375
0.494964
0.490701
0.486569
0.482549
0.47862
0.474752
0.470897
0.46697
0.462845
0.458334
0.45317
0.446978
0.439245
0.429279
0.416155
0.398656
0.375345
0.0858609
0.0862315
0.36808
0.0843495
0.0834989
0.140567
0.143449
0.188748
0.221402
0.237662
0.246182
0.250088
0.251406
0.25136
0.250627
0.249568
0.248391
0.24734
0.246935
0.246692
0.246369
0.245939
0.245417
0.244824
0.244176
0.243486
0.242762
0.242012
0.24124
0.240447
0.239624
0.238754
0.237803
0.236713
0.235395
0.233711
0.231453
0.228311
0.223812
0.217018
0.200226
0.184035
0.165086
0.12833
0.137807
0.184976
0.176573
0.196859
0.207955
0.210654
0.208722
0.204952
0.200993
0.197603
0.19501
0.193178
0.191983
0.191321
0.191167
0.191277
0.191448
0.19159
0.191666
0.191667
0.191594
0.191455
0.191263
0.191027
0.190761
0.190473
0.190174
0.18987
0.189565
0.189253
0.188919
0.188529
0.188015
0.187256
0.186038
0.18394
0.179766
0.173378
0.164407
0.154657
0.19257
0.229684
0.207173
0.219407
0.220241
0.213038
0.202755
0.192566
0.183946
0.177316
0.172566
0.169378
0.167391
0.166295
0.165858
0.165824
0.165978
0.166191
0.166393
0.166546
0.16664
0.166673
0.166653
0.166591
0.166501
0.166399
0.166302
0.166229
0.166201
0.166242
0.166372
0.166612
0.166966
0.167419
0.167908
0.168286
0.168232
0.167565
0.166801
0.170798
0.2421
0.270919
0.244211
0.254679
0.246302
0.228406
0.208899
0.191694
0.178044
0.167913
0.160771
0.155973
0.152921
0.151119
0.150207
0.149858
0.149825
0.149945
0.150117
0.150282
0.150413
0.150501
0.150547
0.15056
0.150555
0.150549
0.150565
0.150631
0.15078
0.151052
0.151494
0.152158
0.153099
0.154367
0.156005
0.158035
0.160473
0.163524
0.168385
0.181993
0.28284
0.316308
0.293982
0.304523
0.285178
0.254007
0.223149
0.19753
0.178031
0.163937
0.154129
0.147533
0.143261
0.140625
0.139136
0.138386
0.138083
0.13803
0.138098
0.138208
0.138317
0.138406
0.13847
0.138516
0.138556
0.138611
0.138705
0.138874
0.139158
0.139611
0.140295
0.141288
0.142678
0.144564
0.147062
0.150313
0.154537
0.160253
0.169239
0.190212
0.315748
0.351024
0.362025
0.370018
0.336765
0.28905
0.244121
0.208295
0.181923
0.163328
0.150576
0.142031
0.136447
0.132912
0.130791
0.129594
0.128979
0.128711
0.128635
0.128652
0.128707
0.128769
0.128827
0.128883
0.128949
0.129045
0.1292
0.129452
0.129849
0.130454
0.131342
0.132607
0.134362
0.136744
0.139921
0.144122
0.149709
0.157445
0.169586
0.196375
0.342205
0.376253
0.460652
0.452174
0.400076
0.332317
0.270548
0.22273
0.18851
0.164944
0.149039
0.138455
0.131516
0.127062
0.124293
0.122633
0.121688
0.121185
0.120944
0.12085
0.120832
0.12085
0.120887
0.12094
0.121021
0.121148
0.121353
0.121677
0.122173
0.122911
0.123975
0.125473
0.127535
0.130326
0.134056
0.139017
0.145679
0.154992
0.169604
0.201034
0.363431
0.616227
0.617768
0.555877
0.473579
0.381354
0.30041
0.239325
0.196656
0.167885
0.148769
0.136154
0.127884
0.122534
0.119132
0.117019
0.115744
0.115002
0.114591
0.114377
0.114276
0.114242
0.114249
0.114292
0.11438
0.114532
0.11478
0.115168
0.115752
0.116608
0.117828
0.119528
0.121854
0.124989
0.129176
0.134757
0.142283
0.152849
0.169421
0.204569
0.380434
1.44212
0.855691
0.681755
0.553224
0.431849
0.330611
0.256088
0.205082
0.171294
0.149141
0.134634
0.125138
0.118958
0.11497
0.112431
0.110845
0.109874
0.109294
0.108959
0.108774
0.108683
0.108657
0.108686
0.108777
0.108949
0.109235
0.109679
0.110343
0.111305
0.112663
0.114541
0.117095
0.120524
0.125095
0.131188
0.139416
0.15099
0.169129
0.207257
0.394037
0.370792
0.255317
0.227115
0.209142
0.194448
0.182001
0.171578
0.163071
0.156364
0.151324
0.147814
0.145703
0.14487
0.145208
0.146617
0.149003
0.15227
0.15631
0.161003
0.166209
0.171771
0.177523
0.183307
0.189002
0.194552
0.200013
0.205581
0.211611
0.218653
0.227523
0.239136
0.254535
0.276187
0.311217
0.368977
0.44537
0.526379
0.600493
0.663132
0.719598
0.788409
0.904192
1.12674
1.54936
2.33071
1.68803
0.383172
0.256483
0.226154
0.207286
0.19207
0.179247
0.16851
0.159715
0.152727
0.147404
0.143599
0.141174
0.140001
0.139964
0.14096
0.142892
0.145665
0.149183
0.153347
0.158052
0.163195
0.168681
0.174445
0.180469
0.186811
0.193633
0.20121
0.209929
0.220328
0.233087
0.248745
0.267821
0.292091
0.329965
0.383056
0.43949
0.49018
0.530879
0.562891
0.596206
0.651955
0.76578
0.998233
1.46066
2.27122
1.98576
0.394829
0.257395
0.225098
0.205412
0.189745
0.176621
0.165648
0.156642
0.149446
0.143905
0.139867
0.137186
0.13573
0.135378
0.136027
0.13758
0.139953
0.143064
0.146841
0.151221
0.156158
0.161632
0.167666
0.174346
0.181839
0.190407
0.200405
0.212259
0.226512
0.243681
0.263895
0.286746
0.313387
0.350903
0.390916
0.424192
0.448546
0.464244
0.475599
0.493657
0.538158
0.640909
0.8546
1.27819
2.00578
2.28782
0.405908
0.258141
0.223998
0.203546
0.187474
0.174103
0.16295
0.153789
0.146442
0.14074
0.136524
0.133641
0.131956
0.13135
0.131718
0.132972
0.135038
0.137857
0.141387
0.145612
0.150544
0.156239
0.162811
0.170445
0.179417
0.190092
0.20291
0.218345
0.236951
0.259058
0.284439
0.310809
0.339587
0.37085
0.392622
0.403829
0.407013
0.404808
0.402504
0.410172
0.444143
0.529829
0.708082
1.05017
1.64096
2.18803
0.416513
0.258777
0.222879
0.201698
0.185256
0.171673
0.160381
0.151109
0.143656
0.13784
0.133493
0.130458
0.128599
0.127796
0.12795
0.128982
0.130834
0.133472
0.136889
0.141116
0.146228
0.152358
0.15971
0.168572
0.179328
0.192455
0.208479
0.227952
0.251422
0.27898
0.309804
0.339401
0.368719
0.387533
0.389755
0.381896
0.368962
0.354453
0.343405
0.343985
0.368586
0.435924
0.575227
0.83285
1.2716
1.80028
0.426724
0.259338
0.221756
0.199875
0.183086
0.169317
0.157916
0.148567
0.141044
0.135153
0.130716
0.127574
0.12559
0.124645
0.124649
0.125534
0.12726
0.12982
0.133248
0.137623
0.143085
0.149843
0.158195
0.168536
0.181365
0.197275
0.21689
0.240871
0.269762
0.303434
0.339879
0.373155
0.398429
0.400421
0.38424
0.360871
0.336107
0.313459
0.297046
0.292894
0.309768
0.360629
0.465205
0.65256
0.96116
1.36592
0.436598
0.259845
0.220635
0.198078
0.180961
0.167027
0.155538
0.146137
0.138573
0.132638
0.128147
0.124938
0.122872
0.121838
0.12175
0.122556
0.124238
0.126818
0.13037
0.135025
0.140989
0.148551
0.158104
0.170156
0.185333
0.204351
0.227956
0.25694
0.291845
0.332488
0.375107
0.411716
0.426699
0.410221
0.377795
0.342143
0.308917
0.281078
0.261539
0.254315
0.265189
0.302688
0.379535
0.513497
0.725304
1.00497
0.446173
0.260308
0.219519
0.196308
0.17888
0.164794
0.153234
0.143799
0.136217
0.130264
0.125749
0.122507
0.1204
0.119321
0.119196
0.119988
0.1217
0.124387
0.128165
0.133219
0.139821
0.148346
0.159287
0.173271
0.191059
0.213513
0.241528
0.276045
0.317589
0.365862
0.414517
0.451513
0.451501
0.417326
0.371278
0.326167
0.287042
0.256026
0.234781
0.225599
0.231971
0.259208
0.315172
0.41026
0.554456
0.739954
0.455478
0.260734
0.218406
0.194565
0.17684
0.162616
0.150997
0.141544
0.13396
0.12801
0.123496
0.12025
0.118137
0.117054
0.11694
0.117773
0.119582
0.122456
0.126551
0.13211
0.139475
0.149108
0.16161
0.177736
0.198397
0.224614
0.257484
0.29811
0.347019
0.403457
0.458135
0.489719
0.47189
0.422052
0.365027
0.312839
0.269723
0.236864
0.214767
0.204331
0.207347
0.22687
0.267487
0.334876
0.433035
0.55491
0.46453
0.261124
0.217297
0.192848
0.174843
0.160491
0.148824
0.139363
0.131791
0.125861
0.121368
0.118143
0.116052
0.115002
0.11494
0.115865
0.117832
0.120961
0.125456
0.131617
0.139858
0.150735
0.164962
0.183434
0.207227
0.237544
0.275722
0.323052
0.380218
0.445977
0.505775
0.524958
0.488339
0.424933
0.359175
0.301799
0.256074
0.222234
0.199774
0.188503
0.188977
0.202689
0.232058
0.279824
0.346894
0.427211
0.473339
0.261479
0.216188
0.191156
0.172887
0.158419
0.146712
0.137252
0.129703
0.123806
0.119351
0.116167
0.114124
0.113136
0.113165
0.114227
0.116403
0.119851
0.12482
0.13167
0.140893
0.15314
0.169252
0.190274
0.21746
0.252221
0.296161
0.350773
0.417042
0.492415
0.553495
0.555467
0.501035
0.426178
0.353613
0.292558
0.245232
0.210968
0.188415
0.176552
0.175049
0.184323
0.205381
0.239192
0.285174
0.338425
0.481913
0.261797
0.215077
0.189489
0.170973
0.1564
0.144662
0.135211
0.127693
0.12184
0.117435
0.114309
0.112336
0.111437
0.111588
0.112826
0.11526
0.119083
0.124594
0.132215
0.142518
0.15626
0.174411
0.198183
0.229025
0.268585
0.318743
0.381181
0.457092
0.5405
0.596756
0.579428
0.509611
0.425652
0.348081
0.284606
0.236441
0.202123
0.17963
0.167322
0.164241
0.170073
0.184914
0.20873
0.240297
0.275798
0.490255
0.262075
0.213963
0.187846
0.169101
0.154435
0.142674
0.13324
0.125761
0.119959
0.115616
0.112562
0.110676
0.109889
0.110192
0.111641
0.114375
0.118626
0.124742
0.13321
0.14469
0.160046
0.180392
0.207114
0.241874
0.28659
0.343423
0.414261
0.500277
0.589672
0.633807
0.59665
0.514182
0.423372
0.342378
0.277514
0.229087
0.194976
0.172637
0.159987
0.155629
0.158763
0.168917
0.185505
0.207134
0.230885
0.498368
0.26231
0.212842
0.186225
0.167271
0.152524
0.14075
0.131339
0.123905
0.118163
0.113891
0.110921
0.109138
0.108483
0.108963
0.110655
0.113729
0.118457
0.125238
0.134629
0.147378
0.164469
0.187164
0.217039
0.255978
0.306197
0.370151
0.450037
0.547085
0.63948
0.664411
0.608385
0.515526
0.419602
0.336415
0.270956
0.222705
0.18899
0.166878
0.153973
0.148585
0.149597
0.1562
0.167537
0.182251
0.198117
0.506252
0.2625
0.211711
0.184625
0.165483
0.150669
0.13889
0.129509
0.122127
0.116452
0.112259
0.109384
0.107718
0.107214
0.107893
0.10986
0.113311
0.118562
0.126066
0.136453
0.150567
0.169515
0.194718
0.227948
0.271328
0.327379
0.398854
0.488377
0.596807
0.687147
0.689336
0.615965
0.514333
0.414557
0.330118
0.264682
0.216947
0.183781
0.161964
0.148893
0.142686
0.142037
0.145951
0.153459
0.163325
0.173848
0.513908
0.26264
0.210567
0.183044
0.163735
0.14887
0.137096
0.127754
0.12043
0.114827
0.110721
0.107951
0.106415
0.106078
0.10698
0.109249
0.113115
0.118935
0.127221
0.138679
0.154253
0.175182
0.203056
0.23985
0.287932
0.350127
0.429453
0.528977
0.64652
0.727853
0.707625
0.619326
0.51063
0.408232
0.323391
0.258502
0.211564
0.17908
0.157632
0.144485
0.137653
0.135721
0.137604
0.142317
0.148764
0.155632
0.521339
0.262726
0.209407
0.18148
0.162028
0.147126
0.13537
0.126074
0.118814
0.113291
0.109279
0.106623
0.10523
0.105077
0.106225
0.108824
0.11314
0.119576
0.128704
0.141308
0.158442
0.181481
0.212192
0.252761
0.305816
0.37446
0.461927
0.571437
0.693891
0.759432
0.718086
0.617903
0.504278
0.400601
0.31617
0.25229
0.206392
0.17471
0.153704
0.140579
0.133295
0.130391
0.130756
0.13343
0.137454
0.141797
0.528548
0.262755
0.208226
0.17993
0.16036
0.14544
0.133713
0.124472
0.117285
0.111847
0.107938
0.105405
0.104167
0.104216
0.10563
0.108589
0.113392
0.120492
0.130522
0.144353
0.163149
0.188432
0.222149
0.266709
0.325011
0.400435
0.49643
0.616189
0.73931
0.781991
0.721291
0.612226
0.495634
0.391843
0.308492
0.245993
0.201332
0.170557
0.150071
0.137061
0.129482
0.125864
0.125106
0.126297
0.128599
0.131186
0.535547
0.262724
0.207019
0.178393
0.158731
0.143812
0.132128
0.122952
0.115845
0.110501
0.106701
0.104302
0.103232
0.103499
0.105203
0.108551
0.113881
0.121692
0.132689
0.14783
0.168396
0.196062
0.232961
0.28173
0.345552
0.428101
0.533137
0.663834
0.782565
0.797811
0.719991
0.603934
0.485506
0.382298
0.300463
0.239605
0.19633
0.166554
0.146661
0.133857
0.126119
0.121999
0.120426
0.120546
0.121621
0.122978
0.542357
0.262629
0.205785
0.176866
0.157142
0.142245
0.130619
0.121519
0.1145
0.109257
0.105576
0.103322
0.102434
0.102938
0.104955
0.108722
0.114617
0.123193
0.135223
0.151762
0.174213
0.204408
0.244671
0.297868
0.367468
0.457456
0.572056
0.714026
0.823078
0.810283
0.716776
0.594365
0.474496
0.372213
0.292164
0.233133
0.191362
0.162664
0.143432
0.130917
0.123139
0.11869
0.116538
0.11589
0.116091
0.116582
0.549014
0.262474
0.20452
0.175351
0.155597
0.140744
0.129191
0.12018
0.113259
0.108126
0.104573
0.102473
0.101782
0.102542
0.104897
0.109116
0.115618
0.125011
0.138145
0.156172
0.180629
0.213507
0.257327
0.315178
0.390791
0.488435
0.612893
0.762753
0.854966
0.818618
0.711406
0.583396
0.462589
0.361613
0.283617
0.226583
0.186421
0.15887
0.140361
0.128208
0.12049
0.115847
0.113299
0.112108
0.111689
0.111567
0.555589
0.262265
0.203227
0.173852
0.154102
0.139317
0.127855
0.118944
0.112131
0.107116
0.103701
0.10177
0.101291
0.102327
0.105046
0.10975
0.116901
0.127167
0.141476
0.161087
0.187672
0.223395
0.270975
0.333725
0.415592
0.521
0.654938
0.806039
0.876028
0.819817
0.701848
0.570089
0.449456
0.350423
0.274825
0.219968
0.181511
0.155169
0.137436
0.125707
0.118129
0.113402
0.110596
0.109027
0.10817
0.107613
0.562202
0.262015
0.201916
0.172383
0.15267
0.137978
0.126624
0.117826
0.11113
0.106245
0.102978
0.101228
0.100979
0.102311
0.105421
0.110644
0.118488
0.129683
0.145239
0.166529
0.195368
0.234099
0.285655
0.353581
0.44202
0.555437
0.698513
0.845358
0.887325
0.81285
0.6874
0.554204
0.435089
0.3387
0.265841
0.213323
0.176653
0.15157
0.134655
0.123397
0.116024
0.111295
0.108336
0.10651
0.105345
0.104478
0.569067
0.261753
0.200618
0.17097
0.151326
0.136747
0.125517
0.116843
0.110276
0.105529
0.102424
0.100869
0.100866
0.102518
0.106046
0.111822
0.120402
0.13258
0.149455
0.172516
0.203729
0.24563
0.301378
0.374786
0.470233
0.592264
0.745026
0.881756
0.891497
0.800679
0.669946
0.536763
0.419989
0.326678
0.256774
0.206702
0.171874
0.148083
0.132018
0.121269
0.114147
0.109479
0.106442
0.104448
0.103067
0.10198
0.576551
0.261542
0.199406
0.169668
0.150109
0.135658
0.124562
0.116023
0.109593
0.104996
0.102064
0.10072
0.100982
0.102975
0.106948
0.113311
0.122668
0.135881
0.154141
0.179058
0.212758
0.257974
0.318113
0.397299
0.50026
0.631876
0.795663
0.917671
0.89448
0.788144
0.652305
0.519141
0.404761
0.31461
0.247736
0.20016
0.167204
0.144726
0.129529
0.119314
0.112477
0.107914
0.104853
0.102753
0.101223
0.0999785
0.585273
0.261564
0.198439
0.168576
0.149085
0.134757
0.123798
0.115399
0.109115
0.104677
0.101931
0.100813
0.101359
0.103716
0.108163
0.115143
0.125314
0.139608
0.15931
0.186157
0.222436
0.271087
0.335774
0.420958
0.531838
0.674104
0.848802
0.95018
0.89866
0.77724
0.635482
0.501763
0.389572
0.302576
0.238778
0.193737
0.162672
0.141518
0.127199
0.117529
0.110997
0.106567
0.10352
0.101357
0.0997226
0.098364
0.596316
0.262387
0.198032
0.167855
0.148349
0.134111
0.123277
0.115016
0.108881
0.104612
0.102064
0.101189
0.10204
0.104785
0.10973
0.117357
0.128374
0.143785
0.164971
0.193798
0.232723
0.284891
0.354221
0.445485
0.564329
0.717498
0.893988
0.967842
0.897896
0.764324
0.617467
0.483636
0.374016
0.290458
0.229903
0.18747
0.15832
0.138489
0.125041
0.115916
0.109696
0.105413
0.102402
0.100204
0.0984962
0.0970526
0.611712
0.265559
0.198737
0.167749
0.14804
0.133812
0.123068
0.11493
0.108944
0.10485
0.102513
0.101899
0.103076
0.106232
0.1117
0.119999
0.131888
0.148438
0.171129
0.201957
0.243551
0.299271
0.373285
0.470606
0.597008
0.75906
0.928597
0.973407
0.88632
0.744141
0.59517
0.463242
0.35754
0.278154
0.22117
0.181452
0.154225
0.13569
0.123081
0.114483
0.108566
0.104432
0.101467
0.0992497
0.0974881
0.0959791
0.631606
0.272169
0.200991
0.168557
0.148339
0.133977
0.123255
0.11521
0.109361
0.105445
0.103333
0.102998
0.104525
0.108119
0.114138
0.123133
0.135911
0.153608
0.177795
0.210599
0.254825
0.314064
0.392766
0.496205
0.630196
0.80066
0.956124
0.964586
0.860896
0.714256
0.567227
0.440372
0.34018
0.265702
0.212589
0.175687
0.150396
0.133142
0.121354
0.11325
0.10761
0.103612
0.100691
0.0984606
0.0966552
0.0950925
0.654308
0.284351
0.205334
0.170434
0.14941
0.134741
0.123937
0.115933
0.1102
0.106461
0.104584
0.104552
0.106458
0.110521
0.117122
0.126841
0.140521
0.159357
0.185003
0.219702
0.266434
0.329041
0.412325
0.521999
0.664172
0.843818
0.977644
0.945933
0.825726
0.677484
0.535596
0.415705
0.322195
0.253217
0.204221
0.170203
0.146842
0.130838
0.119833
0.112197
0.106819
0.102943
0.100057
0.0978099
0.095964
0.0943537
0.680171
0.306417
0.212547
0.173677
0.151366
0.136219
0.125216
0.117175
0.111522
0.107952
0.106326
0.106625
0.108948
0.113526
0.120752
0.131229
0.145831
0.165795
0.192836
0.229293
0.278294
0.343925
0.431404
0.547184
0.69855
0.889057
0.993646
0.921671
0.786211
0.637868
0.50223
0.390271
0.30408
0.240929
0.196167
0.165043
0.14358
0.128781
0.118517
0.111314
0.10617
0.102401
0.0995421
0.097277
0.0953896
0.0937324
0.714769
0.345888
0.223191
0.178705
0.154549
0.138592
0.127215
0.119023
0.113384
0.109964
0.108604
0.109273
0.112068
0.117224
0.125144
0.136441
0.152008
0.173104
0.201478
0.239521
0.290449
0.358512
0.449266
0.570035
0.730438
0.919733
0.98096
0.884969
0.741346
0.595768
0.467872
0.364672
0.286213
0.229042
0.188527
0.160253
0.140627
0.126974
0.117399
0.110591
0.105651
0.101968
0.0991237
0.0968342
0.0949053
0.0932055
0.779071
0.390277
0.23595
0.185777
0.15945
0.142281
0.130189
0.121647
0.1159
0.112574
0.11148
0.112565
0.115907
0.121736
0.130454
0.142676
0.159297
0.181577
0.21126
0.250734
0.30321
0.372934
0.465433
0.588255
0.752168
0.912969
0.928972
0.824846
0.685225
0.549005
0.43205
0.339001
0.268778
0.217693
0.181381
0.155871
0.137997
0.125418
0.116476
0.110017
0.105248
0.101628
0.098784
0.0964625
0.0944893
0.0927468
0.810689
0.379118
0.248421
0.19528
0.166371
0.14758
0.134322
0.125175
0.119175
0.115855
0.115016
0.116566
0.120551
0.127179
0.136841
0.150145
0.167972
0.191559
0.222611
0.263457
0.317229
0.387964
0.480676
0.601956
0.76139
0.875976
0.843799
0.74169
0.61708
0.497275
0.394854
0.313476
0.25197
0.207014
0.174805
0.151936
0.135705
0.124113
0.115737
0.109578
0.104947
0.101365
0.098507
0.0961456
0.0941253
0.0923402
0.820543
0.385434
0.255341
0.203634
0.173733
0.153711
0.139209
0.12937
0.123049
0.119678
0.119099
0.121192
0.125947
0.133541
0.144347
0.158957
0.178229
0.203358
0.235985
0.278344
0.333463
0.405162
0.497547
0.615353
0.749337
0.792434
0.741278
0.649118
0.544326
0.444133
0.35794
0.28887
0.236154
0.197178
0.168878
0.148477
0.133756
0.123053
0.11517
0.10926
0.104728
0.101163
0.0982759
0.0958676
0.0937982
0.091971
0.826114
0.384122
0.255213
0.202046
0.174045
0.155166
0.141352
0.131638
0.125499
0.122478
0.122476
0.125387
0.13119
0.140045
0.15231
0.168556
0.189607
0.216591
0.251046
0.295044
0.35136
0.423205
0.512265
0.612707
0.68788
0.692704
0.640198
0.561793
0.476039
0.394415
0.323653
0.266251
0.221794
0.188376
0.163669
0.145512
0.132142
0.122217
0.114751
0.109036
0.10457
0.100999
0.098072
0.0956115
0.0934917
0.091624
0.833035
0.364841
0.246872
0.195277
0.168643
0.152277
0.140853
0.132732
0.127522
0.125295
0.126119
0.12996
0.136852
0.146967
0.160639
0.17839
0.20096
0.229345
0.264829
0.309026
0.363651
0.429661
0.504471
0.574481
0.611154
0.599988
0.552261
0.486956
0.417216
0.351211
0.293688
0.246456
0.209264
0.180754
0.159219
0.143032
0.130836
0.121571
0.114444
0.108876
0.104445
0.100851
0.0978746
0.0953596
0.093191
0.0912865
0.846611
0.341538
0.234015
0.187303
0.162761
0.148237
0.138794
0.132559
0.129015
0.128166
0.130111
0.134924
0.142739
0.153775
0.168357
0.186941
0.210137
0.238704
0.273517
0.315386
0.364662
0.419945
0.475754
0.519915
0.536565
0.520009
0.47858
0.42497
0.368537
0.315287
0.268619
0.229817
0.198712
0.174351
0.15551
0.140995
0.129785
0.121063
0.114204
0.108738
0.104318
0.10069
0.0976618
0.0950944
0.0928818
0.0909464
0.868108
0.325227
0.223041
0.180238
0.157709
0.144757
0.136936
0.132349
0.130334
0.130783
0.133764
0.139412
0.147908
0.159488
0.174447
0.193149
0.216021
0.243511
0.275979
0.313459
0.355126
0.398385
0.437653
0.464205
0.469621
0.452089
0.417472
0.374241
0.328976
0.286122
0.248209
0.216206
0.190042
0.169074
0.152449
0.139311
0.128908
0.120623
0.11397
0.108574
0.104152
0.100486
0.0974107
0.094798
0.09255
0.0905926
0.895349
0.319725
0.217293
0.175695
0.154044
0.14196
0.135213
0.131858
0.13107
0.132596
0.136447
0.142747
0.151678
0.163456
0.178317
0.196504
0.218242
0.243661
0.272665
0.304688
0.338298
0.370668
0.397264
0.412504
0.412059
0.395748
0.36758
0.33322
0.297176
0.26272
0.231789
0.20519
0.182962
0.164713
0.149874
0.137849
0.128098
0.120163
0.113673
0.108332
0.103906
0.10021
0.097098
0.0944532
0.0921829
0.0902152
0.914454
0.318522
0.215034
0.17367
0.152121
0.140205
0.133869
0.131156
0.13112
0.133371
0.137823
0.144536
0.153644
0.165308
0.179679
0.196873
0.216922
0.239694
0.264772
0.291266
0.317583
0.341236
0.358934
0.367288
0.364174
0.349979
0.327453
0.300346
0.27171
0.243929
0.218515
0.196179
0.177065
0.16098
0.147572
0.136448
0.127231
0.119589
0.113241
0.107955
0.103538
0.0998309
0.0967025
0.0940445
0.091769
0.0898056
0.921876
0.318502
0.214718
0.173455
0.151737
0.139591
0.133168
0.130566
0.130786
0.13334
0.138039
0.144859
0.153857
0.165112
0.178684
0.194565
0.212633
0.232576
0.253802
0.275325
0.29567
0.312869
0.32467
0.329075
0.325084
0.313221
0.295359
0.273983
0.25115
0.228598
0.207514
0.18854
0.171899
0.15755
0.145309
0.134936
0.126179
0.118806
0.112606
0.107396
0.103014
0.0993243
0.0962065
0.0935597
0.0912995
0.0893575
0.919243
0.318095
0.215115
0.174229
0.152411
0.139929
0.133157
0.130302
0.130377
0.132842
0.137432
0.144039
0.152637
0.163224
0.175766
0.190155
0.20616
0.223369
0.241132
0.25851
0.27426
0.286908
0.294956
0.297232
0.293288
0.283606
0.269463
0.252513
0.234156
0.215664
0.197977
0.181673
0.167029
0.154112
0.142862
0.133153
0.12483
0.117735
0.111711
0.106613
0.102308
0.098672
0.0955979
0.0929906
0.0907691
0.0888671
0.908957
0.31669
0.215435
0.175278
0.15357
0.140827
0.133639
0.130349
0.13002
0.132105
0.136291
0.14241
0.150363
0.160072
0.17143
0.184254
0.198248
0.212964
0.227769
0.241834
0.254162
0.263678
0.269385
0.270588
0.267091
0.259284
0.248039
0.23447
0.219546
0.204209
0.189212
0.175071
0.162089
0.150407
0.140049
0.130974
0.123098
0.116318
0.110519
0.105585
0.101403
0.0978652
0.0948719
0.0923346
0.0901765
0.0883337
0.893314
0.314179
0.215266
0.176103
0.154715
0.141854
0.134301
0.130527
0.129669
0.131196
0.134778
0.140206
0.147331
0.156017
0.166103
0.177361
0.189465
0.201971
0.214302
0.225758
0.235556
0.242912
0.247152
0.247845
0.244907
0.238632
0.22962
0.218637
0.206364
0.193514
0.180692
0.168358
0.156819
0.146257
0.136755
0.128327
0.12094
0.114531
0.109017
0.104306
0.100301
0.0969063
0.0940317
0.091595
0.0895245
0.0877596
0.874076
0.310706
0.21446
0.176424
0.155498
0.142656
0.134829
0.130602
0.129182
0.13007
0.132937
0.137552
0.143734
0.151314
0.160094
0.169826
0.180182
0.190746
0.201009
0.210393
0.218287
0.224109
0.227389
0.227845
0.225438
0.220379
0.213088
0.204106
0.193923
0.183082
0.172077
0.161312
0.151082
0.141587
0.132943
0.1252
0.118359
0.112386
0.107222
0.102793
0.0990167
0.0958088
0.0930885
0.0907811
0.0888205
0.0871504
0.852573
0.306495
0.213029
0.176136
0.155732
0.143001
0.134991
0.130372
0.128411
0.128645
0.130754
0.134502
0.139692
0.146133
0.153617
0.161889
0.170638
0.179486
0.187998
0.195697
0.202104
0.206779
0.209383
0.209715
0.207754
0.203649
0.197699
0.190294
0.181812
0.172652
0.16322
0.153867
0.144867
0.136419
0.128655
0.121643
0.115407
0.109932
0.105177
0.101082
0.0975795
0.0945963
0.0920611
0.0899072
0.0880752
0.086514
0.829804
0.301778
0.211073
0.17526
0.155369
0.142793
0.134663
0.129715
0.12726
0.126863
0.128221
0.131098
0.135292
0.140609
0.146838
0.153733
0.161009
0.168332
0.175333
0.181622
0.186819
0.190587
0.192667
0.192914
0.191307
0.187954
0.183068
0.176937
0.169885
0.162176
0.154148
0.146098
0.138275
0.130865
0.124001
0.117759
0.112173
0.107244
0.102943
0.0992236
0.09603
0.0933005
0.0909737
0.0889917
0.0873023
0.0858605
0.806473
0.296768
0.208731
0.173891
0.154461
0.14204
0.133827
0.128599
0.1257
0.124717
0.12536
0.127398
0.130634
0.134875
0.139917
0.145533
0.151467
0.15743
0.163112
0.168195
0.172375
0.175388
0.177036
0.177205
0.175876
0.173127
0.169114
0.164057
0.158212
0.151778
0.14502
0.138185
0.131489
0.125098
0.119137
0.113682
0.108773
0.104418
0.100597
0.0972785
0.0944154
0.0919576
0.0898538
0.0880552
0.0865172
0.0852011
0.783089
0.291633
0.20614
0.172156
0.153114
0.140822
0.132538
0.127067
0.123771
0.122255
0.122236
0.123494
0.125836
0.129077
0.133026
0.137477
0.142204
0.146961
0.151489
0.155529
0.15884
0.161212
0.162489
0.162583
0.161475
0.15922
0.155936
0.151789
0.146974
0.14168
0.136075
0.130366
0.124733
0.119323
0.114243
0.109566
0.105333
0.101554
0.0982221
0.0953106
0.092785
0.0906051
0.0887297
0.0871189
0.0857355
0.0845472
0.760047
0.286502
0.203423
0.170185
0.151455
0.139256
0.130899
0.125209
0.12156
0.119566
0.118953
0.119506
0.121039
0.123377
0.126345
0.129758
0.133419
0.13712
0.140647
0.143792
0.146359
0.148184
0.149146
0.14917
0.148243
0.146401
0.143734
0.140366
0.136449
0.132146
0.127573
0.122887
0.118236
0.113739
0.109492
0.105556
0.101971
0.0987516
0.0958933
0.0933796
0.0911849
0.0892785
0.0876282
0.0862026
0.0849718
0.0839095
0.737639
0.281475
0.20068
0.168094
0.149609
0.137467
0.129031
0.123141
0.119181
0.116767
0.115631
0.115564
0.116386
0.117933
0.120044
0.122555
0.125296
0.128092
0.130767
0.133153
0.135094
0.136461
0.137157
0.137124
0.136348
0.134856
0.132712
0.130011
0.126867
0.123407
0.119741
0.115962
0.112189
0.10852
0.105031
0.101777
0.0987914
0.096091
0.0936763
0.0915368
0.0896548
0.0880079
0.0865721
0.0853235
0.084239
0.0832975
0.716053
0.276618
0.197988
0.16598
0.147686
0.135571
0.127051
0.12098
0.116747
0.113971
0.112386
0.111788
0.112003
0.112876
0.11426
0.116009
0.117976
0.120015
0.121982
0.12374
0.125166
0.126158
0.126639
0.126563
0.125917
0.124719
0.123015
0.120877
0.118389
0.115646
0.112745
0.109746
0.106735
0.103789
0.100967
0.0983173
0.0958677
0.0936341
0.0916202
0.089821
0.088225