/*--------------------------------*- C++ -*----------------------------------*\
  =========                 |
  \\      /  F ield         | OpenFOAM: The Open Source CFD Toolbox
   \\    /   O peration     | Website:  https://openfoam.org
    \\  /    A nd           | Version:  9
     \\/     M anipulation  |
\*---------------------------------------------------------------------------*/
FoamFile
{
    format      ascii;
    class       volScalarField;
    location    "0.15";
    object      nut;
}
// * * * * * * * * * * * * * * * * * * * * * * * * * * * * * * * * * * * * * //

dimensions      [0 2 -1 0 0 0 0];

internalField   nonuniform List<scalar> 
7700
(
4.75504e-05
5.63383e-05
6.69408e-05
7.37286e-05
7.85973e-05
8.23377e-05
8.53458e-05
8.7856e-05
9.00241e-05
9.19608e-05
9.37489e-05
9.54531e-05
9.71261e-05
9.8812e-05
0.000100549
0.000102369
0.000104301
0.000106366
0.000108578
0.000110939
0.000113439
0.000116048
0.000118719
0.000121382
0.000123946
0.000126305
0.000128343
0.000129947
0.000131015
0.000131474
0.000131291
0.000130475
0.000128956
0.000126595
0.000123929
0.000120939
0.000117748
0.000114614
0.000111887
0.000109892
0.000108788
0.000108452
0.000109069
0.000108424
0.000106229
9.81157e-05
7.11386e-05
0.000288306
0.000436164
0.000542151
0.000621417
0.000682632
0.000731224
0.000770838
0.000804047
0.000832743
0.000858366
0.000882043
0.000904679
0.000927
0.000949584
0.000972858
0.000997083
0.00102232
0.0010484
0.00107487
0.00110099
0.00112573
0.00114777
0.00116562
0.00117762
0.00118216
0.00117776
0.00116338
0.00113863
0.00110406
0.00106129
0.00101258
0.000958565
0.000887712
0.00081043
0.000745404
0.000701754
0.000682372
0.000685838
0.000706901
0.00073691
0.000762977
0.00075886
0.000664461
0.000472895
0.000165973
7.989e-05
0.000392932
0.000662416
0.000885764
0.00107235
0.00122941
0.00136273
0.00147714
0.00157664
0.00166461
0.00174392
0.00181701
0.00188593
0.00195243
0.00201789
0.00208331
0.00214928
0.00221586
0.00228255
0.00234823
0.00241113
0.00246893
0.00251877
0.0025575
0.0025818
0.00258848
0.0025748
0.00253896
0.0024806
0.00240133
0.00230486
0.00219631
0.0020798
0.00195478
0.00182339
0.00170549
0.00161777
0.001568
0.00155317
0.00155909
0.00156308
0.00154137
0.00147362
0.00126495
0.000824988
0.000190935
8.53553e-05
0.000451232
0.000799836
0.0011113
0.00138837
0.00163398
0.00185142
0.00204425
0.00221613
0.00237059
0.00251098
0.00264038
0.00276158
0.002877
0.00298862
0.0030979
0.00320567
0.00331204
0.00341631
0.00351696
0.00361163
0.00369725
0.00377012
0.00382615
0.00386109
0.0038709
0.00385216
0.00380268
0.00372217
0.00361283
0.00347957
0.00332918
0.00316838
0.00300174
0.0028341
0.00268324
0.00256396
0.00247936
0.00241784
0.00235557
0.00226528
0.0021312
0.00197671
0.00172863
0.00113061
0.000214467
8.92045e-05
0.000491784
0.000897421
0.00127527
0.0016245
0.00194485
0.00223688
0.00250216
0.00274302
0.00296227
0.00316299
0.00334829
0.00352119
0.00368442
0.00384032
0.00399062
0.00413638
0.0042778
0.00441417
0.00454386
0.00466431
0.00477218
0.00486347
0.00493373
0.00497836
0.004993
0.00497401
0.00491909
0.00482797
0.00470302
0.00454943
0.00437449
0.00418596
0.00399055
0.00379497
0.00361404
0.00345501
0.00331252
0.00317027
0.00300823
0.00281222
0.00258506
0.00233373
0.00198577
0.00129568
0.00023199
9.21209e-05
0.000523018
0.000974056
0.00140443
0.00181166
0.00219394
0.00254988
0.00287919
0.00318263
0.00346187
0.00371919
0.00395732
0.00417909
0.00438729
0.00458434
0.00477219
0.00495203
0.00512422
0.00528818
0.00544236
0.00558428
0.00571061
0.00581738
0.00590016
0.00595435
0.00597564
0.00596042
0.00590642
0.00581329
0.00568307
0.00552034
0.00533154
0.00512376
0.00490358
0.00467712
0.00445554
0.00423914
0.00401924
0.00378408
0.00353158
0.00326484
0.00295954
0.00254753
0.00203242
0.00129252
0.00023758
9.44431e-05
0.000548246
0.00103749
0.00151118
0.00196594
0.00239952
0.00280952
0.00319423
0.00355297
0.00388615
0.00419508
0.00448178
0.00474868
0.00499834
0.00523317
0.00545517
0.00566566
0.00586519
0.00605336
0.0062288
0.00638925
0.00653158
0.00665201
0.00674633
0.00681016
0.00683942
0.0068307
0.00678177
0.00669201
0.00656273
0.00639714
0.00619967
0.00597504
0.00572812
0.0054635
0.00519037
0.0049077
0.00460761
0.00429451
0.00397796
0.00363153
0.00317485
0.00258093
0.00194598
0.00115302
0.000230052
9.63635e-05
0.00056917
0.00109136
0.00160165
0.00209601
0.00257231
0.00302778
0.0034598
0.00386656
0.00424728
0.00460228
0.00493274
0.00524054
0.0055279
0.00579707
0.00605001
0.00628816
0.0065122
0.00672193
0.00691624
0.00709308
0.0072496
0.00738229
0.00748723
0.00756038
0.00759796
0.00759682
0.00755477
0.0074709
0.00734561
0.00718048
0.00697712
0.00673658
0.00646128
0.00615651
0.0058315
0.00548355
0.0051169
0.00473462
0.00431095
0.00379801
0.00317816
0.00250062
0.00182347
0.00101525
0.000221342
9.80008e-05
0.00058685
0.00113772
0.00167927
0.00220694
0.00271898
0.00321258
0.00368465
0.00413253
0.00455448
0.00494985
0.00531906
0.00566334
0.0059845
0.00628453
0.00656534
0.00682837
0.00707443
0.00730349
0.00751463
0.00770603
0.00787507
0.00801853
0.00813277
0.0082141
0.00825908
0.00826489
0.00822955
0.00815199
0.00803212
0.00787011
0.0076645
0.00741188
0.00711244
0.00677281
0.00639991
0.00599702
0.00555512
0.0050459
0.00445258
0.00379118
0.00310017
0.00242121
0.00175235
0.000982689
0.000211546
9.94321e-05
0.000602029
0.00117797
0.00174633
0.00230214
0.00284412
0.00336963
0.00387533
0.00435801
0.00481517
0.00524538
0.0056483
0.00602458
0.00637557
0.00670301
0.00700864
0.00729389
0.00755961
0.00780588
0.00803189
0.00823598
0.00841571
0.00856803
0.00868958
0.008777
0.00882727
0.00883808
0.00880798
0.00873635
0.00862336
0.00846836
0.00826677
0.00801012
0.00769583
0.00733349
0.00692675
0.00645492
0.00589071
0.00523135
0.00450577
0.00376389
0.00305658
0.00241121
0.00178883
0.00109069
0.000203091
0.000209216
0.000290864
0.000303475
7.18609e-05
7.52665e-05
7.73798e-05
7.85572e-05
7.91219e-05
7.92898e-05
7.92042e-05
7.89595e-05
7.86165e-05
7.82213e-05
7.79004e-05
7.76311e-05
7.73688e-05
7.71109e-05
7.68596e-05
7.66158e-05
7.6379e-05
7.61484e-05
7.59228e-05
7.5701e-05
7.54812e-05
7.52602e-05
7.50333e-05
7.47927e-05
7.45274e-05
7.42212e-05
7.38516e-05
7.33871e-05
7.27843e-05
7.19828e-05
7.0898e-05
6.94384e-05
0.000302687
0.000300492
6.74961e-05
0.000285737
0.000102159
7.7807e-05
0.000342069
0.000456367
0.000531293
0.000587755
0.000623256
0.000644225
0.00065569
0.000661093
0.000662709
0.000662014
0.000659907
0.000656623
0.000651278
0.000645821
0.000641124
0.000637307
0.000634294
0.000631966
0.000630205
0.000628902
0.000627966
0.000627308
0.000626826
0.000626398
0.000625862
0.000625004
0.000623549
0.000621135
0.0006173
0.00061145
0.000602833
0.000590495
0.000573225
0.000549856
0.00053466
0.000492988
0.000425009
0.000352408
7.70947e-05
8.50104e-05
0.000453867
0.000709939
0.000896747
0.00103747
0.00114137
0.00121587
0.00126721
0.00130066
0.00132062
0.00133072
0.00133383
0.00133188
0.00132566
0.00131735
0.00130894
0.00130129
0.00129469
0.00128919
0.00128468
0.00128102
0.00127802
0.00127549
0.00127318
0.00127078
0.00126787
0.00126391
0.00125819
0.00124977
0.00123747
0.00121978
0.00119483
0.00116033
0.00111342
0.00105078
0.000970298
0.00086086
0.000707402
0.000474985
8.6259e-05
9.16171e-05
0.000541481
0.000868855
0.00112795
0.00134375
0.00152199
0.00166482
0.00177447
0.00185422
0.00190844
0.00194212
0.00196013
0.00196674
0.00196477
0.00195751
0.00194816
0.00193852
0.00192952
0.00192157
0.00191473
0.0019089
0.00190387
0.00189933
0.00189487
0.00188996
0.0018839
0.00187575
0.00186429
0.00184794
0.0018247
0.00179209
0.00174707
0.00168597
0.00160441
0.00149711
0.00135769
0.00117523
0.000930201
0.000581846
9.32773e-05
9.74171e-05
0.000594207
0.000951798
0.00125669
0.00153512
0.00178642
0.00200465
0.0021846
0.00232439
0.00242608
0.0024947
0.00253681
0.00255908
0.0025662
0.00256367
0.00255607
0.00254637
0.00253632
0.00252682
0.00251826
0.00251064
0.00250375
0.0024972
0.00249042
0.00248263
0.0024728
0.00245956
0.00244112
0.00241522
0.00237903
0.00232906
0.00226116
0.00217042
0.00205114
0.00189659
0.00169842
0.00144454
0.00111427
0.000667501
9.84103e-05
0.000103054
0.000599246
0.000965934
0.00130325
0.00163523
0.00195613
0.0022525
0.00251032
0.00272031
0.00288008
0.00299337
0.00306769
0.00311194
0.00313283
0.00313851
0.00313524
0.00312734
0.00311755
0.00310744
0.00309775
0.00308871
0.00308013
0.00307157
0.00306227
0.00305121
0.00303698
0.00301774
0.00299113
0.00295416
0.00290316
0.0028337
0.00274059
0.00261787
0.00245879
0.00225564
0.00199914
0.00167669
0.00126791
0.000735493
0.000102236
0.000106532
0.000562358
0.000927201
0.00129249
0.00167085
0.00205507
0.00242743
0.00276567
0.00305173
0.00327698
0.00344237
0.00355548
0.00362684
0.00366575
0.00368279
0.00368622
0.00368187
0.0036736
0.00366374
0.00365353
0.00364341
0.0036333
0.00362268
0.00361065
0.00359589
0.00357662
0.0035505
0.00351457
0.00346513
0.00339767
0.0033069
0.00318673
0.00303034
0.00283022
0.00257812
0.00226453
0.00187708
0.00139659
0.000789705
0.000105145
0.000108113
0.000505015
0.000869162
0.00125988
0.00167582
0.00211272
0.00255296
0.00296803
0.0033307
0.00362459
0.00384638
0.00400273
0.00410491
0.00416503
0.00419603
0.00420817
0.00420891
0.0042033
0.00419451
0.00418429
0.00417342
0.0041619
0.00414918
0.00413418
0.0041153
0.00409037
0.00405654
0.00401025
0.00394709
0.0038618
0.0037483
0.00359973
0.00340863
0.00316706
0.0028666
0.002498
0.00204975
0.00150443
0.000833171
0.000107391
0.000127059
0.000470815
0.000844572
0.00125072
0.00168888
0.00216205
0.00265598
0.00313801
0.00357199
0.00393275
0.00421141
0.00441276
0.0045474
0.00463067
0.00467742
0.00469978
0.00470682
0.00470481
0.00469777
0.00468803
0.00467666
0.00466383
0.00464893
0.00463073
0.00460734
0.00457619
0.00453393
0.00447639
0.0043985
0.00429433
0.00415709
0.00397934
0.00375319
0.00347052
0.0031231
0.00270233
0.00219794
0.00159464
0.000868141
0.000109142
0.000176696
0.000542163
0.000916304
0.00131134
0.00174621
0.00223376
0.0027628
0.00329708
0.00379189
0.00421293
0.00454486
0.00478911
0.0049562
0.00506313
0.0051264
0.00515984
0.00517398
0.00517623
0.00517146
0.00516255
0.00515091
0.00513683
0.00511969
0.00509808
0.00506983
0.00503196
0.00498066
0.00491117
0.00481783
0.00469408
0.00453256
0.00432541
0.00406451
0.0037418
0.00334953
0.00288001
0.00232446
0.00166988
0.000896304
0.000110518
0.00010071
0.000615299
0.00121332
0.00180483
0.00238464
0.0029519
0.00350422
0.00403819
0.00455023
0.00503731
0.00549733
0.00592934
0.00633344
0.00671056
0.00706214
0.00738975
0.00769472
0.00797788
0.00823932
0.00847825
0.00869304
0.00888132
0.00904015
0.0091664
0.00925709
0.00930983
0.00932317
0.00929679
0.00923136
0.00912821
0.00898628
0.00879773
0.00854853
0.0082354
0.00786696
0.00741547
0.00684831
0.00616175
0.00538506
0.00457165
0.00378613
0.0030827
0.0024782
0.00192093
0.00130706
0.000302111
0.000101884
0.000627151
0.00124481
0.00185645
0.00245677
0.00304537
0.00362016
0.00417773
0.0047143
0.00522645
0.0057116
0.0061683
0.00659618
0.0069958
0.0073683
0.00771504
0.00803722
0.00833554
0.00860999
0.0088597
0.00908293
0.00927726
0.00943982
0.00956771
0.00965851
0.0097108
0.00972461
0.00970148
0.00964427
0.00955602
0.00943527
0.00927117
0.00904249
0.00874848
0.00837004
0.00785582
0.00719366
0.0064086
0.00554907
0.00468018
0.00387132
0.00317428
0.00259752
0.00209271
0.00153463
0.000581649
0.00010297
0.000637836
0.00127298
0.00190207
0.00251985
0.00312637
0.00371978
0.00429679
0.0048535
0.00538623
0.00589209
0.00636924
0.00681694
0.00723543
0.00762559
0.00798854
0.00832529
0.00863635
0.00892149
0.00917961
0.00940877
0.0096064
0.00976969
0.00989612
0.00998415
0.0100339
0.0100474
0.0100289
0.00998395
0.00991729
0.00982663
0.00969671
0.00949921
0.00922848
0.00882405
0.00824422
0.00750505
0.00665038
0.00573927
0.00484012
0.0040191
0.00332112
0.00274854
0.0022589
0.00174526
0.000978746
0.000103984
0.000647607
0.00129844
0.00194273
0.0025754
0.00319691
0.00380569
0.00439854
0.00497155
0.00552091
0.0060435
0.00653721
0.00700106
0.00743502
0.00783972
0.00821607
0.00856481
0.00888619
0.00917965
0.00944375
0.00967627
0.00987448
0.0100357
0.0101581
0.0102414
0.0102878
0.0103022
0.0102917
0.0102648
0.010227
0.0101753
0.0100854
0.00992565
0.00966371
0.00921982
0.00858375
0.00779197
0.00689774
0.00596366
0.00505505
0.00422921
0.0035219
0.00293338
0.00242788
0.00194108
0.00135871
0.00010494
0.000656671
0.00132171
0.00197933
0.00262475
0.00325881
0.0038802
0.00448585
0.00507188
0.00563443
0.00617025
0.0066771
0.0071538
0.00760012
0.0080165
0.0084036
0.0087619
0.00909127
0.00939076
0.00965852
0.00989198
0.0100883
0.0102453
0.0103619
0.0104399
0.010484
0.0105023
0.0105047
0.010502
0.0104996
0.0104923
0.0104432
0.0103188
0.010043
0.00955568
0.00887961
0.00806146
0.00715653
0.00622534
0.00532548
0.00450235
0.00378232
0.00316699
0.00263174
0.00214742
0.00168505
0.000105847
0.000665195
0.00134321
0.00201266
0.00266906
0.00331367
0.00394538
0.00456129
0.00515758
0.0057304
0.00627648
0.00679348
0.00728014
0.00773609
0.00816161
0.0085571
0.00892272
0.00925796
0.00956138
0.00983069
0.010063
0.0102556
0.0104068
0.0105171
0.0105906
0.010635
0.0106614
0.0106825
0.0107101
0.0107483
0.0107869
0.0107789
0.0106713
0.0103614
0.00983536
0.00913798
0.00831802
0.00742801
0.00652214
0.00564736
0.00483633
0.00410692
0.00346379
0.00289722
0.00240162
0.00199787
0.00010671
0.000673317
0.00136333
0.00204338
0.00270935
0.00336285
0.00400303
0.00462711
0.00523138
0.00581207
0.00636591
0.00689057
0.00738476
0.00784802
0.00828048
0.00868232
0.00905334
0.00939257
0.0096981
0.00996717
0.0101967
0.0103842
0.0105291
0.0106337
0.0107047
0.0107531
0.0107925
0.0108379
0.0109009
0.0109844
0.0110706
0.0110998
0.0109792
0.0106235
0.010067
0.00936496
0.00856363
0.00770931
0.00684681
0.00601115
0.00522307
0.00449347
0.00383008
0.00323777
0.00272829
0.00234404
0.000107536
0.000681144
0.00138237
0.00207204
0.00274644
0.00340753
0.00405468
0.00468526
0.00529569
0.00588228
0.00644186
0.00697216
0.00747188
0.00794055
0.00837815
0.00878462
0.00915941
0.00950107
0.00980718
0.0100746
0.0103002
0.010482
0.0106207
0.0107211
0.0107927
0.0108493
0.0109068
0.0109813
0.0110834
0.0112143
0.0113437
0.011396
0.0112387
0.010836
0.0102587
0.00956549
0.00879818
0.00799461
0.00718851
0.00640299
0.00564877
0.00493156
0.00426141
0.00365425
0.00313499
0.00275232
0.000108328
0.000688761
0.00140056
0.0020991
0.00278105
0.0034487
0.00410163
0.00473739
0.00535254
0.0059435
0.00650723
0.00704156
0.00754524
0.0080178
0.0084591
0.00886885
0.00924609
0.00958889
0.00989435
0.010159
0.0103799
0.0105559
0.0106894
0.0107877
0.0108633
0.0109324
0.0110129
0.0111206
0.0112645
0.0114419
0.0116089
0.0116588
0.0114498
0.0110059
0.0104175
0.00974353
0.00902055
0.00827709
0.00753532
0.00680749
0.00609661
0.00540505
0.00474426
0.00413696
0.00361634
0.00323102
0.000109088
0.000696235
0.00141812
0.00212492
0.00281373
0.00348715
0.00414497
0.0047849
0.00540365
0.00599781
0.00656448
0.00710161
0.00760807
0.00808337
0.00852727
0.00893922
0.00931785
0.00966076
0.0099646
0.0102257
0.0104416
0.0106121
0.0107418
0.0108406
0.0109237
0.0110095
0.0111169
0.0112615
0.01145
0.0116761
0.0118726
0.0118893
0.0116209
0.0111422
0.0105504
0.00990256
0.00922957
0.00855053
0.00787653
0.00721055
0.00655019
0.00589603
0.00526021
0.00466847
0.00415749
0.00377275
0.000109818
0.000703621
0.00143519
0.00214982
0.00284497
0.00352356
0.00418558
0.00482893
0.00545047
0.00604696
0.00661567
0.00715473
0.00766309
0.0081403
0.00858597
0.00899929
0.00937849
0.00972067
0.0100221
0.0102792
0.0104898
0.0106556
0.0107831
0.0108851
0.0109791
0.0110853
0.011223
0.0114068
0.011642
0.0119161
0.0121258
0.0120878
0.0117598
0.0112526
0.0106632
0.0100453
0.00942437
0.00881018
0.00820391
0.00760108
0.00699579
0.006388
0.00579007
0.00522801
0.00473808
0.00436105
0.000110521
0.000710963
0.00145191
0.00217402
0.00287514
0.00355847
0.00422421
0.00487043
0.00549417
0.00609238
0.00666253
0.0072029
0.00771257
0.00819108
0.00863794
0.00905201
0.0094311
0.00977186
0.0100703
0.0103229
0.0105285
0.0106903
0.0108175
0.0109252
0.0110334
0.0111631
0.0113336
0.0115577
0.0118388
0.012151
0.0123516
0.01225
0.0118697
0.0113414
0.0107594
0.0101738
0.00960446
0.00905292
0.00851193
0.00797129
0.00742312
0.00686747
0.00631656
0.00579508
0.00533629
0.00497566
0.000111197
0.0007183
0.00146838
0.00219775
0.00290456
0.00359233
0.00426145
0.00491017
0.00553573
0.00613527
0.00670646
0.00724775
0.00775835
0.00823778
0.00868539
0.00909972
0.00947813
0.00981686
0.0101117
0.0103596
0.0105604
0.0107193
0.0108479
0.0109639
0.011089
0.0112448
0.01145
0.0117147
0.0120392
0.0123764
0.0125433
0.0123755
0.0119531
0.0114117
0.0108416
0.0102894
0.00976972
0.00927703
0.00879731
0.00831625
0.007825
0.00732412
0.00682549
0.00635154
0.00593151
0.00559531
0.000111847
0.000725668
0.00148471
0.00222116
0.0029335
0.00362551
0.0042978
0.00494881
0.00557596
0.0061766
0.00674861
0.00729062
0.00780193
0.00828203
0.00873008
0.00914426
0.00952149
0.00985761
0.0101484
0.0103913
0.0105877
0.0107447
0.0108765
0.011003
0.0111474
0.0113314
0.0115725
0.0118785
0.0122461
0.0125941
0.0127025
0.0124706
0.0120148
0.0114667
0.0109118
0.0103932
0.00992029
0.00948182
0.00905847
0.00863315
0.00819676
0.00775051
0.00730584
0.00688262
0.00650569
0.00619972
0.000112472
0.000733098
0.00150099
0.00224442
0.00296219
0.00365834
0.0043337
0.00498689
0.00561554
0.0062172
0.00678995
0.00733261
0.00784453
0.00832516
0.0087734
0.00918706
0.0095626
0.00989556
0.0101818
0.0104196
0.0106119
0.0107681
0.0109048
0.0110439
0.0112095
0.0114231
0.0117007
0.0120485
0.0124588
0.0127998
0.0128352
0.0125433
0.0120599
0.0115093
0.0109717
0.0104859
0.0100565
0.00966727
0.00929493
0.00892069
0.00853565
0.00814164
0.0077496
0.00737694
0.0070443
0.00677154
0.000113074
0.000740623
0.00151729
0.00226766
0.00299084
0.0036911
0.00436952
0.00502489
0.00565504
0.00625774
0.00683128
0.00737461
0.00788714
0.0083682
0.00881643
0.0092292
0.00960253
0.00993176
0.010213
0.0104456
0.0106342
0.0107906
0.0109338
0.0110874
0.0112755
0.0115195
0.0118333
0.0122219
0.0126662
0.0129803
0.0129416
0.0125962
0.0120903
0.0115409
0.0110221
0.0105681
0.0101788
0.00983378
0.00950695
0.00917861
0.00884033
0.00849451
0.00815157
0.00782665
0.00753666
0.0072973
0.000113653
0.00074828
0.00153371
0.00229105
0.00301965
0.00372408
0.00440561
0.00506324
0.005695
0.00629886
0.0068733
0.0074174
0.00793058
0.00841202
0.00886001
0.00927148
0.00964205
0.00996695
0.0102428
0.01047
0.0106554
0.0108132
0.0109643
0.0111338
0.0113457
0.0116201
0.0119687
0.0123943
0.0128557
0.0131248
0.0130166
0.0126276
0.0121061
0.0115619
0.0110635
0.0106402
0.0102877
0.00998207
0.00969529
0.00940739
0.0091106
0.00880782
0.00850892
0.00822707
0.00797603
0.00776794
0.000114211
0.000756111
0.00155034
0.00231473
0.00304885
0.00375756
0.00444233
0.00510236
0.00573589
0.0063411
0.00691663
0.00746165
0.00797554
0.00845728
0.00890478
0.0093145
0.00968172
0.0100017
0.0102716
0.0104935
0.0106762
0.0108363
0.0109967
0.0111833
0.0114198
0.0117245
0.0121064
0.0125648
0.0130263
0.013232
0.0130598
0.0126376
0.0121076
0.0115727
0.0110962
0.0107026
0.0103838
0.010113
0.009861
0.00960804
0.00934713
0.00908163
0.00882087
0.00857635
0.00835924
0.00817875
0.00011475
0.000764173
0.00156731
0.00233887
0.00307867
0.00379181
0.00448002
0.00514268
0.00577822
0.00638501
0.00696184
0.00750795
0.00802262
0.00850456
0.00895126
0.00935871
0.00972191
0.0100362
0.0102999
0.0105164
0.0106969
0.0108603
0.0110313
0.0112359
0.0114975
0.0118324
0.0122469
0.0127364
0.0131801
0.0133079
0.0130783
0.0126304
0.0120972
0.0115745
0.0111208
0.0107559
0.0104679
0.0102276
0.0100054
0.00978198
0.0095513
0.00931713
0.00908834
0.00887501
0.00868621
0.00852885
0.000115274
0.000772532
0.00158477
0.0023637
0.00310937
0.00382718
0.00451907
0.00518463
0.00582246
0.00643113
0.00700952
0.00755689
0.00807237
0.00855434
0.00899985
0.00940445
0.00976292
0.010071
0.0103279
0.0105392
0.0107181
0.0108857
0.0110681
0.0112915
0.0115784
0.0119433
0.0123905
0.0129105
0.0133209
0.0133649
0.0130818
0.0126115
0.0120773
0.0115686
0.0111381
0.0108007
0.0105407
0.0103271
0.0101299
0.00993091
0.00972501
0.00951639
0.00931353
0.00912536
0.00895929
0.00882041
0.000115788
0.000781282
0.00160287
0.00238944
0.00314125
0.00386402
0.0045599
0.00522869
0.00586916
0.00648
0.00706021
0.00760898
0.00812525
0.00860703
0.00905088
0.00945196
0.00980497
0.0101062
0.0103561
0.0105622
0.0107401
0.0109127
0.0111071
0.0113496
0.0116614
0.0120553
0.012535
0.0130769
0.0134382
0.0134055
0.0130733
0.0125827
0.0120493
0.0115558
0.0111488
0.0108378
0.0106033
0.0104126
0.0102361
0.0100568
0.00987055
0.0096821
0.00949959
0.00933103
0.00918252
0.00905776
0.000116301
0.000790548
0.00162184
0.00241636
0.00317465
0.00390274
0.004603
0.00527539
0.00591886
0.00653221
0.00711448
0.00766476
0.00818173
0.00866298
0.00910461
0.00950145
0.00984825
0.010142
0.0103847
0.0105859
0.0107633
0.0109416
0.0111485
0.0114098
0.0117453
0.012166
0.0126743
0.0132179
0.0135191
0.013421
0.0130479
0.0125421
0.0120128
0.0115365
0.0111535
0.0108679
0.0106565
0.0104854
0.0103257
0.0101616
0.00999048
0.00981739
0.0096503
0.00949648
0.009361
0.00924656
0.000116829
0.000800527
0.00164192
0.00244478
0.00320995
0.00394379
0.00464888
0.00532532
0.00597219
0.00658839
0.00717292
0.00772474
0.00824222
0.00872252
0.00916129
0.00955311
0.00989299
0.0101788
0.0104142
0.0106107
0.0107882
0.0109728
0.0111923
0.0114719
0.0118296
0.012274
0.0128044
0.0133318
0.0135618
0.0134051
0.0130014
0.0124877
0.0119674
0.0115109
0.0111528
0.0108918
0.0107014
0.0105469
0.0104003
0.0102477
0.0100875
0.00992563
0.00976976
0.00962658
0.00950039
0.00939312
0.000117398
0.000811534
0.00166341
0.002475
0.00324754
0.00398767
0.00469812
0.00537911
0.00602981
0.00664916
0.00723612
0.00778943
0.00830713
0.00878593
0.00922111
0.00960714
0.00993946
0.010217
0.0104451
0.0106374
0.0108155
0.0110065
0.0112387
0.0115359
0.0119145
0.0123802
0.0129285
0.0134218
0.0135702
0.0133611
0.0129352
0.0124202
0.0119133
0.0114794
0.0111472
0.0109102
0.010739
0.0105983
0.0104616
0.010317
0.0101645
0.0100102
0.00986213
0.0097263
0.00960642
0.00950386
0.000118047
0.000824
0.0016865
0.00250721
0.00328775
0.00403486
0.00475131
0.00543742
0.00609241
0.00671521
0.00730468
0.00785932
0.00837681
0.00885346
0.00928429
0.00966382
0.00998805
0.0102572
0.0104782
0.0106666
0.0108457
0.0110434
0.0112878
0.0116019
0.0120005
0.0124871
0.0130523
0.013497
0.0135586
0.0132999
0.0128552
0.0123422
0.0118517
0.0114427
0.0111374
0.0109241
0.0107704
0.010641
0.0105114
0.0103719
0.010224
0.0100746
0.00993153
0.00980046
0.00968462
0.00958492
0.000118843
0.000838233
0.00171095
0.00254129
0.00333074
0.00408574
0.00480903
0.00550093
0.00616069
0.00678721
0.00737919
0.00793488
0.0084516
0.00892537
0.00935107
0.00972346
0.0100393
0.0103001
0.0105145
0.0106996
0.01088
0.0110841
0.0113398
0.0116696
0.0120872
0.0125961
0.0131769
0.0135599
0.0135373
0.0132291
0.012765
0.0122551
0.0117835
0.0114017
0.0111245
0.0109346
0.0107967
0.0106763
0.0105514
0.0104145
0.0102688
0.010122
0.00998182
0.00985358
0.0097401
0.00964193
0.000119895
0.000853409
0.00173536
0.00257643
0.00337626
0.00414052
0.00487172
0.00557022
0.00623529
0.00686577
0.00746019
0.00801653
0.00853183
0.00900192
0.00942174
0.00978654
0.010094
0.0103469
0.0105554
0.0107378
0.0109195
0.0111292
0.0113946
0.0117376
0.0121718
0.0127025
0.0132777
0.0135866
0.0134961
0.0131434
0.0126624
0.0121588
0.0117094
0.0113576
0.0111098
0.0109427
0.0108191
0.0107056
0.010583
0.0104467
0.0103014
0.0101555
0.0100166
0.00988974
0.00977743
0.0096799
0.000121396
0.000865106
0.00175601
0.00261061
0.00342343
0.00419895
0.00493956
0.00564571
0.00631675
0.00695145
0.00754817
0.00810467
0.0086178
0.00908339
0.00949669
0.00985365
0.010153
0.0103988
0.0106024
0.0107829
0.010966
0.0111801
0.0114525
0.0118047
0.0122497
0.0127919
0.0133375
0.0135696
0.0134186
0.0130312
0.0125418
0.0120517
0.01163
0.0113112
0.0110936
0.0109485
0.0108376
0.0107293
0.0106075
0.0104702
0.010324
0.0101777
0.010039
0.00991256
0.0098006
0.00970312
0.000123001
0.000873349
0.00177253
0.00264105
0.00347034
0.00426018
0.0050123
0.00572752
0.00640539
0.00704466
0.00764355
0.00819967
0.00870986
0.00917017
0.00957645
0.00992559
0.0102175
0.0104575
0.0106576
0.0108373
0.0110217
0.0112388
0.011515
0.0118713
0.0123201
0.0128639
0.0133591
0.0135015
0.0132952
0.0128861
0.0124009
0.0119336
0.0115461
0.0112638
0.0110771
0.0109529
0.0108527
0.0107477
0.0106254
0.0104864
0.0103385
0.010191
0.0100518
0.00992514
0.00981301
0.00971521
0.000124684
0.000876933
0.00178316
0.0026691
0.0035155
0.00432241
0.00508902
0.00581532
0.00650123
0.00714561
0.00774664
0.0083019
0.00880842
0.00926278
0.00966173
0.0100034
0.010289
0.0105247
0.0107232
0.0109034
0.0110896
0.0113084
0.0115851
0.0119404
0.0123868
0.0129241
0.0133469
0.0133896
0.0131324
0.0127116
0.0122415
0.0118071
0.0114605
0.0112178
0.0110621
0.010957
0.0108654
0.010762
0.0106379
0.0104963
0.0103463
0.0101975
0.0100574
0.00993011
0.00981748
0.00971915
0.000126629
0.000872529
0.00178466
0.00269243
0.00356004
0.00438478
0.00516803
0.00590812
0.00660384
0.00725424
0.0078576
0.00841169
0.00891399
0.00936193
0.00975351
0.0100883
0.0103689
0.0106024
0.0108014
0.010984
0.0111728
0.0113925
0.0116669
0.012017
0.0124568
0.0129812
0.013307
0.0132449
0.0129391
0.0125141
0.012069
0.0116763
0.0113765
0.0111756
0.01105
0.0109619
0.0108764
0.0107729
0.010646
0.0105014
0.010349
0.0101986
0.0100575
0.00992958
0.00981631
0.0097173
0.000130453
0.000853414
0.0017749
0.00270921
0.00360209
0.00444828
0.00524899
0.00600464
0.00671246
0.00737024
0.00797648
0.00852937
0.00902718
0.00946858
0.00985311
0.010182
0.0104593
0.0106928
0.0108947
0.0110818
0.0112744
0.0114947
0.0117647
0.0121052
0.0125359
0.0130125
0.013211
0.01306
0.0127178
0.0122997
0.0118901
0.0115472
0.0112987
0.0111401
0.0110426
0.0109684
0.0108866
0.0107812
0.0106507
0.0105026
0.0103477
0.0101957
0.0100536
0.00992496
0.00981108
0.0097115
0.000132676
0.000838038
0.00175412
0.00271658
0.00363943
0.00451165
0.00533346
0.00610566
0.00682694
0.00749379
0.00810377
0.00865576
0.00914921
0.00958437
0.00996259
0.0102869
0.0105628
0.0107984
0.0110056
0.0111992
0.011397
0.0116179
0.0118812
0.0122059
0.0126143
0.0129835
0.0130469
0.0128298
0.0124731
0.0120781
0.0117156
0.0114291
0.0112336
0.0111152
0.0110418
0.0109777
0.0108966
0.0107877
0.0106527
0.010501
0.0103435
0.01019
0.0100468
0.00991749
0.00980302
0.0097029
0.000132889
0.000823761
0.00171325
0.0027042
0.00366464
0.00457132
0.00541933
0.00621238
0.00694832
0.00762526
0.00824025
0.008792
0.00928166
0.00971134
0.0100844
0.0104058
0.010682
0.0109218
0.0111359
0.0113376
0.0115415
0.0117633
0.0120178
0.0123189
0.0126822
0.0129055
0.0128309
0.0125717
0.0122245
0.0118694
0.0115628
0.0113351
0.0111896
0.0111058
0.0110502
0.0109908
0.0109071
0.0107928
0.0106527
0.010497
0.0103371
0.010182
0.010038
0.00990806
0.00979308
0.0096925
0.000133024
0.000797785
0.00162267
0.00263496
0.00365101
0.00461277
0.00549825
0.00631965
0.00707537
0.00776362
0.00838476
0.00893758
0.00942473
0.00985046
0.0102202
0.0105404
0.010819
0.0110645
0.011287
0.0114975
0.0117083
0.0119319
0.0121775
0.0124509
0.0127108
0.0127552
0.012603
0.0123303
0.012009
0.0117023
0.0114527
0.011279
0.0111749
0.0111157
0.0110692
0.0110084
0.0109184
0.0107969
0.0106508
0.0104912
0.0103288
0.0101725
0.0100277
0.00989721
0.00978183
0.00968088
0.000133351
0.000772444
0.00158239
0.00257551
0.00361149
0.0046091
0.0055405
0.0063998
0.00718411
0.00789055
0.0085212
0.0090786
0.00956707
0.00999268
0.0103628
0.0106855
0.010969
0.011222
0.0114533
0.0116722
0.011888
0.012108
0.0123328
0.0125438
0.0126561
0.01261
0.0124212
0.0121514
0.0118613
0.0116011
0.0114013
0.0112697
0.0111934
0.0111461
0.0110989
0.0110302
0.0109302
0.0107998
0.0106473
0.0104836
0.0103189
0.0101614
0.010016
0.00988517
0.00976952
0.00966832
0.000134101
0.000775733
0.00162516
0.00260687
0.00363871
0.00465254
0.00561256
0.00650105
0.00730788
0.0080302
0.00866995
0.00923112
0.00972014
0.0101449
0.0105145
0.010838
0.0111242
0.011381
0.0116158
0.0118356
0.012046
0.012249
0.0124355
0.0125727
0.0126052
0.0125072
0.0123063
0.0120514
0.011794
0.011574
0.0114116
0.0113068
0.0112427
0.0111941
0.0111368
0.0110545
0.0109414
0.0108009
0.0106416
0.0104739
0.0103072
0.0101487
0.0100029
0.00987192
0.00975618
0.00965492
0.000135348
0.000819276
0.00173816
0.00273139
0.00375685
0.00476923
0.00573548
0.00663438
0.00745282
0.00818453
0.00882914
0.00939035
0.0098766
0.0102975
0.0106634
0.0109842
0.0112688
0.0115246
0.0117577
0.0119723
0.0121705
0.0123489
0.0124934
0.0125746
0.0125607
0.0124449
0.0122528
0.0120233
0.0117993
0.0116118
0.0114736
0.0113802
0.011314
0.0112531
0.0111783
0.0110782
0.0109503
0.0107991
0.010633
0.0104615
0.0102931
0.010134
0.00998812
0.00985728
0.0097417
0.00964062
0.000136891
0.000882848
0.00187765
0.00289991
0.00392825
0.00493679
0.0058999
0.00679792
0.00761677
0.00834655
0.00898774
0.00954463
0.0100253
0.0104401
0.0107998
0.011115
0.0113945
0.0116451
0.0118717
0.0120764
0.0122582
0.0124109
0.0125205
0.0125664
0.0125321
0.012419
0.0122483
0.0120495
0.0118567
0.0116937
0.011568
0.0114733
0.0113944
0.0113137
0.0112172
0.0110976
0.0109544
0.0107928
0.0106204
0.0104458
0.0102761
0.0101168
0.00997127
0.00984092
0.00972585
0.00962524
0.000138308
0.00093623
0.00199962
0.00306181
0.00410442
0.00511388
0.00607214
0.00696257
0.00777288
0.00849576
0.00913025
0.00968034
0.010154
0.0105615
0.0109142
0.0112223
0.0114948
0.011738
0.0119556
0.0121486
0.0123143
0.0124458
0.0125318
0.0125596
0.0125215
0.0124218
0.0122768
0.0121078
0.0119413
0.0117944
0.0116718
0.0115676
0.01147
0.0113664
0.0112472
0.0111084
0.010951
0.0107801
0.0106025
0.0104255
0.0102553
0.0100965
0.0099518
0.00982242
0.00970828
0.00960855
0.000139008
0.00098156
0.00210329
0.0032021
0.00426038
0.00527213
0.00622533
0.00710719
0.00790768
0.00862108
0.00924671
0.00978856
0.0102544
0.0106546
0.0109999
0.0113009
0.0115659
0.0118011
0.0120095
0.0121914
0.0123437
0.0124604
0.0125333
0.0125548
0.0125217
0.0124389
0.0123182
0.0121745
0.0120276
0.0118897
0.011764
0.0116463
0.0115285
0.0114025
0.0112626
0.0111069
0.0109375
0.0107591
0.0105777
0.0103996
0.0102299
0.0100723
0.00992916
0.00980135
0.00968867
0.00959026