/*--------------------------------*- C++ -*----------------------------------*\
  =========                 |
  \\      /  F ield         | OpenFOAM: The Open Source CFD Toolbox
   \\    /   O peration     | Website:  https://openfoam.org
    \\  /    A nd           | Version:  9
     \\/     M anipulation  |
\*---------------------------------------------------------------------------*/
FoamFile
{
    format      ascii;
    class       volScalarField;
    location    "0.15";
    object      p;
}
// * * * * * * * * * * * * * * * * * * * * * * * * * * * * * * * * * * * * * //

dimensions      [1 -1 -2 0 0 0 0];

internalField   nonuniform List<scalar> 
7700
(
1914.39
1917.73
1920.43
1921.03
1918.31
1912.05
1902.47
1889.82
1874.28
1855.97
1834.96
1811.27
1784.87
1755.7
1723.65
1688.54
1650.18
1608.29
1562.53
1512.53
1457.85
1398.04
1332.62
1261.19
1183.47
1099.41
1009.41
914.408
816.062
716.856
620.005
529.077
448.81
382.218
325.34
275.23
230.563
190.58
155.236
124.59
98.6979
79.2515
64.0694
57.336
53.2004
58.5729
1865.72
1868.45
1869.22
1867.8
1863.7
1856.56
1846.41
1833.39
1817.59
1799.07
1777.86
1753.96
1727.31
1697.84
1665.41
1629.85
1590.93
1548.37
1501.83
1450.92
1395.22
1334.28
1267.68
1195.06
1116.22
1031.26
940.688
845.603
747.815
649.883
554.888
466.027
385.749
316.517
262.77
219.819
183.532
150.22
117.751
86.1279
55.7788
26.8047
11.3696
11.6115
24.3306
38.332
1816.98
1820.12
1819.49
1816.06
1810.23
1801.76
1790.61
1776.8
1760.37
1741.31
1719.6
1695.19
1668.01
1637.95
1604.86
1568.53
1528.74
1485.17
1437.5
1385.32
1328.26
1265.89
1197.86
1123.91
1043.95
958.243
867.449
772.828
676.315
580.517
488.481
403.339
327.86
264.517
212.111
170.047
134.028
100.52
68.1064
38.6871
17.352
7.17598
5.11641
6.02743
9.85296
18.5087
1767.72
1771.57
1770.47
1765.85
1758.73
1749.08
1736.9
1722.21
1705.02
1685.27
1662.92
1637.89
1610.07
1579.33
1545.5
1508.37
1467.68
1423.13
1374.38
1321.06
1262.79
1199.22
1130.04
1055.05
974.294
888.1
797.258
703.117
607.677
513.567
423.813
341.389
268.578
206.725
155.134
112.546
75.9706
44.363
20.5008
8.47084
3.54772
2.82499
3.51748
4.07896
4.83517
7.9674
1717.96
1722.29
1721.09
1715.92
1708.05
1697.6
1684.65
1669.25
1651.4
1631.04
1608.1
1582.48
1554.07
1522.71
1488.23
1450.4
1408.96
1363.6
1314
1259.79
1200.64
1136.2
1066.22
990.555
909.289
822.821
731.986
638.166
543.366
450.179
361.524
280.107
207.803
145.63
92.9113
50.5922
20.8908
6.48342
2.13239
1.84516
2.16912
2.28968
2.68686
3.05754
3.10342
4.17862
1667.74
1672.29
1671.1
1665.74
1657.48
1646.56
1633.12
1617.23
1598.9
1578.06
1554.64
1528.54
1499.63
1467.76
1432.74
1394.33
1352.29
1306.29
1256.03
1201.17
1141.38
1076.34
1005.83
929.754
848.216
761.645
670.883
577.291
482.813
389.917
301.222
218.88
144.459
80.3469
31.5364
5.7393
-0.321254
0.243603
1.21479
1.65348
1.78431
1.94814
2.24126
2.48268
2.33915
3.03367
1617.16
1621.74
1620.61
1615.26
1606.87
1595.74
1582.03
1565.85
1547.19
1526.02
1502.26
1475.79
1446.5
1414.23
1378.78
1339.93
1297.42
1250.95
1200.21
1144.88
1084.65
1019.24
948.438
872.178
790.591
704.108
613.548
520.207
425.911
332.855
242.965
157.503
80.1432
22.8968
-0.687141
-1.58259
0.334819
1.04678
1.29352
1.43614
1.57
1.72755
1.96001
2.15432
2.04384
2.50973
1566.35
1570.83
1569.8
1564.59
1556.25
1545.08
1531.29
1514.99
1496.17
1474.81
1450.83
1424.13
1394.58
1362.02
1326.27
1287.1
1244.26
1197.46
1146.4
1090.78
1030.31
964.732
893.864
817.657
736.259
650.097
559.946
467.015
372.971
279.508
187.207
97.9868
27.738
-0.463373
-0.890755
0.514807
0.967326
1.11598
1.2149
1.31122
1.42676
1.57912
1.76356
1.92501
1.89628
2.01728
1515.45
1519.77
1518.85
1513.86
1505.68
1494.62
1480.9
1464.61
1445.78
1424.36
1400.29
1373.47
1343.78
1311.06
1275.13
1235.77
1192.74
1145.75
1094.54
1038.8
978.28
912.738
842.024
766.111
685.164
599.597
510.142
417.933
324.464
230.482
135.056
48.47
4.61961
-0.0528374
0.8088
1.02575
1.04531
1.07504
1.13636
1.22805
1.34162
1.4697
1.60109
1.70798
1.70833
1.50005
1464.59
1468.73
1467.93
1463.22
1455.27
1444.43
1430.88
1414.72
1395.98
1374.62
1350.58
1323.76
1294.05
1261.29
1225.3
1185.89
1142.79
1095.77
1044.56
988.874
928.484
863.182
792.844
717.47
637.243
552.574
464.163
373.126
280.715
185.994
88.9229
19.1622
1.61695
1.00175
1.01806
1.0138
1.00692
1.03246
1.09188
1.17367
1.26573
1.35983
1.44393
1.48744
1.46144
0.937441
0.535477
0.541103
0.54918
0.557275
0.564424
0.569338
0.571871
0.572403
0.571397
0.569247
0.566279
0.562744
0.558838
0.554671
0.550296
0.545796
0.541248
0.536699
0.532183
0.527738
0.523395
0.519187
0.515139
0.511276
0.50762
0.50419
0.501008
0.498098
0.495489
0.493209
0.491283
0.489728
0.488558
0.487777
0.487377
0.487339
0.487505
0.487968
0.488805
0.489851
0.485805
0.49142
0.498136
0.505822
0.512858
0.518061
0.521183
0.52244
0.522162
0.520679
0.518284
0.515218
0.511666
0.507769
0.503628
0.499328
0.494935
0.490501
0.486075
0.481698
0.47741
0.473245
0.469232
0.465398
0.461763
0.458347
0.455174
0.45227
0.449666
0.447391
0.445469
0.443914
0.442735
0.441935
0.441516
0.441441
0.441601
0.441863
0.442251
0.442997
0.434495
0.440773
0.447455
0.455101
0.462105
0.467525
0.471119
0.472985
0.473343
0.472454
0.470578
0.467945
0.464741
0.461117
0.457187
0.453047
0.448772
0.444427
0.440065
0.435736
0.431482
0.427342
0.423347
0.419524
0.415894
0.412479
0.409301
0.406389
0.403775
0.401488
0.399548
0.397965
0.396742
0.395871
0.395338
0.395091
0.395033
0.39506
0.395395
0.396239
0.380818
0.388218
0.396444
0.405346
0.412987
0.418771
0.422685
0.424889
0.425595
0.425036
0.423452
0.421065
0.418059
0.414586
0.410773
0.406721
0.40251
0.398209
0.393875
0.389563
0.385317
0.381178
0.377178
0.373345
0.369701
0.366265
0.363064
0.360127
0.357486
0.355166
0.353186
0.351551
0.350259
0.349296
0.34864
0.348245
0.348051
0.348045
0.348481
0.34952
0.325281
0.33318
0.344738
0.356246
0.365244
0.371639
0.375817
0.378146
0.378936
0.37845
0.376931
0.374596
0.371628
0.368179
0.36438
0.360333
0.356121
0.351814
0.34747
0.343144
0.338881
0.33472
0.330695
0.326832
0.323155
0.319686
0.316449
0.313475
0.310794
0.308429
0.306397
0.3047
0.303334
0.302285
0.301534
0.301052
0.30081
0.300859
0.301483
0.302721
0.265444
0.275255
0.292561
0.307967
0.318878
0.326038
0.330393
0.332641
0.333274
0.332629
0.330969
0.32851
0.325433
0.321891
0.31801
0.313895
0.309624
0.305265
0.300877
0.29651
0.292207
0.288005
0.283936
0.280029
0.276308
0.272796
0.269516
0.266498
0.26377
0.261354
0.259265
0.257506
0.256072
0.254953
0.254138
0.253612
0.253376
0.25352
0.254346
0.255762
0.201716
0.214716
0.240626
0.261167
0.274285
0.282166
0.28649
0.288387
0.288591
0.287543
0.285533
0.282779
0.279454
0.275706
0.271656
0.267401
0.263017
0.258566
0.254102
0.249669
0.245303
0.24104
0.236913
0.232951
0.22918
0.225619
0.222293
0.219227
0.216448
0.21398
0.211835
0.210018
0.208527
0.207357
0.206503
0.205967
0.20577
0.206028
0.207037
0.208595
0.135934
0.155083
0.190863
0.216855
0.231983
0.240279
0.244225
0.245423
0.244886
0.243169
0.240594
0.237372
0.233664
0.229602
0.225298
0.220838
0.21629
0.211709
0.207138
0.202611
0.19816
0.193819
0.189623
0.185601
0.181776
0.178166
0.17479
0.171674
0.168845
0.166325
0.164128
0.162263
0.160729
0.159525
0.158656
0.158134
0.157996
0.158371
0.159534
0.161194
0.0709662
0.100747
0.144783
0.175433
0.192195
0.200499
0.203634
0.203737
0.202122
0.199463
0.196105
0.192246
0.188023
0.183548
0.178912
0.174188
0.16943
0.164681
0.159971
0.155323
0.150767
0.146336
0.142065
0.13798
0.1341
0.13044
0.127015
0.123851
0.120972
0.118404
0.116164
0.11426
0.112696
0.111477
0.110611
0.110121
0.110051
0.110537
0.111822
0.113548
-0.01594
0.0419406
0.099336
0.136262
0.154878
0.162789
0.164639
0.163234
0.160206
0.15634
0.151993
0.14734
0.142483
0.137504
0.132468
0.127427
0.122419
0.117466
0.112585
0.107792
0.103115
0.0985852
0.0942355
0.0900881
0.0861551
0.0824456
0.0789738
0.0757624
0.0728392
0.0702304
0.0679554
0.066025
0.0644456
0.0632243
0.062376
0.061928
0.0619303
0.0625148
0.0638913
0.0656554
1413.47
1417.39
1416.74
1412.32
1404.67
1394.1
1380.81
1364.89
1346.34
1325.15
1301.24
1274.53
1244.91
1212.22
1176.3
1136.95
1093.94
1047.02
995.958
940.497
880.422
815.56
745.817
671.226
591.992
508.525
421.531
332.193
241.175
144.862
51.6807
7.44641
1.57495
1.03838
0.962514
0.950789
0.959056
0.990927
1.04257
1.1065
1.17453
1.23839
1.28292
1.26381
1.15237
0.284084
1361.96
1365.67
1365.16
1361.05
1353.73
1343.5
1330.54
1314.91
1296.65
1275.71
1252.04
1225.55
1196.12
1163.62
1127.89
1088.73
1045.93
999.269
948.51
893.437
833.859
769.632
700.698
627.125
549.137
467.151
381.946
294.796
204.84
106.22
26.1604
3.58339
1.26302
0.928188
0.89195
0.891989
0.904626
0.932317
0.97309
1.02112
1.06973
1.11017
1.12561
1.06621
0.904228
0.318688
1310.4
1313.91
1313.55
1309.74
1302.77
1292.91
1280.32
1265.06
1247.14
1226.55
1203.2
1177.02
1147.9
1115.7
1080.27
1041.42
998.97
952.697
902.394
847.869
788.957
725.546
657.613
585.259
508.722
428.446
345.354
260.642
170.214
70.7489
12.3113
2.17191
0.96916
0.828416
0.822679
0.824755
0.83494
0.857388
0.888878
0.924504
0.958527
0.98272
0.983263
0.924166
0.785333
0.513009
1258.88
1262.2
1261.98
1258.47
1251.86
1242.4
1230.21
1215.37
1197.87
1177.68
1154.74
1128.97
1100.24
1068.44
1033.42
995.009
953.026
907.276
857.571
803.744
745.656
683.224
616.46
545.489
470.556
392.152
311.391
228.657
135.429
41.2226
5.69708
1.32034
0.773597
0.740305
0.743568
0.743532
0.752525
0.771001
0.795232
0.821376
0.844717
0.858599
0.853244
0.808166
0.702455
0.554863
1207.51
1210.64
1210.55
1207.33
1201.09
1192.03
1180.29
1165.9
1148.86
1129.14
1106.68
1081.38
1053.14
1021.84
987.329
949.464
908.068
862.965
813.993
761.004
703.882
642.574
577.12
507.654
434.43
358.032
279.699
197.65
100.413
21.8167
3.01652
0.898569
0.650786
0.653176
0.653098
0.652409
0.66119
0.676607
0.695308
0.714366
0.730078
0.737293
0.728817
0.692655
0.610697
0.50115
1156.34
1159.29
1159.34
1156.4
1150.51
1141.87
1130.58
1116.68
1100.15
1080.95
1059.03
1034.28
1006.6
975.877
941.982
904.763
864.063
819.727
771.61
719.585
663.556
603.496
539.464
471.594
400.15
325.858
249.889
166.799
67.6587
10.9
1.67597
0.629582
0.543863
0.555876
0.553186
0.554351
0.563387
0.576593
0.591346
0.605415
0.61588
0.618726
0.608564
0.577784
0.514958
0.430174
1105.45
1108.24
1108.41
1105.72
1100.18
1091.96
1081.15
1067.75
1051.76
1033.13
1011.8
987.656
960.614
930.559
897.362
860.886
820.986
777.525
730.376
679.426
624.6
565.892
503.369
437.156
367.539
295.391
221.23
135.35
41.0599
5.10382
0.891725
0.432254
0.437954
0.449967
0.447715
0.451432
0.460952
0.472796
0.48502
0.495832
0.502949
0.503311
0.493026
0.467252
0.419763
0.355475
1054.9
1057.52
1057.8
1055.36
1050.16
1042.36
1032.02
1019.15
1003.73
985.71
965.007
941.536
915.196
885.88
853.466
817.822
778.817
736.331
690.25
640.472
586.941
529.669
468.722
404.215
336.486
266.476
193.144
103.576
22.9513
2.56136
0.527647
0.308458
0.334516
0.340268
0.339122
0.34516
0.355257
0.366503
0.377342
0.386266
0.391503
0.390797
0.381403
0.360254
0.323843
0.274194
1004.73
1007.2
1007.58
1005.37
1000.5
993.112
983.257
970.93
956.101
938.712
918.686
895.933
870.355
841.848
810.293
775.564
737.544
696.123
651.197
602.676
550.521
494.753
435.436
372.69
306.947
239.137
165.547
73.8657
12.4047
1.44912
0.297931
0.199657
0.224845
0.226382
0.228068
0.236286
0.247197
0.258474
0.268779
0.276841
0.281308
0.280511
0.272483
0.255305
0.226903
0.18786
954.993
957.306
957.775
955.778
951.23
944.257
934.89
923.116
908.897
892.171
872.857
850.868
826.108
798.471
767.843
734.105
697.15
656.876
613.186
565.999
515.291
461.089
403.451
342.521
278.847
213.136
138.553
48.9266
6.19966
0.662911
0.0864621
0.0843933
0.107525
0.109583
0.114944
0.125368
0.137347
0.149121
0.159522
0.167475
0.17198
0.171789
0.165432
0.151664
0.129364
0.0985187
905.725
907.885
908.432
906.636
902.4
895.836
886.959
875.748
862.155
846.115
827.547
806.362
782.467
755.756
726.117
693.437
657.618
618.563
576.181
530.404
481.215
428.642
372.74
313.683
252.121
188.128
111.921
29.7766
2.73698
0.161782
-0.0765376
-0.0308558
-0.0120929
-0.00828164
0.000547928
0.0129783
0.0261408
0.0387217
0.0496789
0.058084
0.0631879
0.0640748
0.0595525
0.0487739
0.031344
0.00686364
856.961
858.968
859.585
857.977
854.045
847.885
839.501
828.858
815.907
800.574
782.78
762.436
739.449
713.713
685.118
653.556
618.935
581.164
540.158
495.863
448.27
397.401
343.309
286.21
226.771
163.856
85.9275
17.036
1.27026
-0.0840177
-0.190561
-0.144021
-0.131927
-0.126184
-0.114609
-0.10047
-0.0860571
-0.0724623
-0.0606258
-0.0513704
-0.0453008
-0.0430722
-0.045627
-0.0537351
-0.0673632
-0.0866206
808.728
810.584
811.261
809.829
806.194
800.436
792.545
782.48
770.182
755.578
738.585
719.116
697.076
672.36
644.858
614.469
581.104
544.675
505.111
462.371
416.45
367.367
315.18
260.174
202.971
140.564
62.3945
9.54103
0.628501
-0.24405
-0.295665
-0.260941
-0.252878
-0.244425
-0.2305
-0.214723
-0.19897
-0.184198
-0.171261
-0.160895
-0.153631
-0.149963
-0.150564
-0.156097
-0.166512
-0.181472
761.048
762.753
763.481
762.217
758.873
753.514
746.12
736.642
725.014
711.159
694.995
676.432
655.375
631.718
605.357
576.195
544.142
509.117
471.06
429.942
385.764
338.545
288.358
235.578
180.687
118.617
42.8945
4.91208
0.0989756
-0.416282
-0.412179
-0.384029
-0.375391
-0.363467
-0.34712
-0.329614
-0.312402
-0.29632
-0.282136
-0.270506
-0.261913
-0.256753
-0.255493
-0.258594
-0.266036
-0.277497
713.937
715.491
716.262
715.158
712.102
707.144
700.254
691.373
680.431
667.347
652.037
634.41
614.368
591.809
566.634
538.751
508.07
474.513
438.029
398.599
356.227
310.932
262.82
212.35
159.701
97.8025
27.5595
2.00006
-0.395709
-0.585627
-0.5351
-0.51013
-0.498722
-0.483031
-0.464266
-0.444964
-0.426198
-0.408714
-0.393197
-0.380219
-0.370213
-0.363522
-0.360457
-0.361314
-0.366063
-0.374484
667.404
668.806
669.614
668.666
665.897
661.345
654.967
646.696
636.456
624.163
609.729
593.064
574.067
552.641
528.696
502.143
472.892
440.868
406.026
368.349
327.84
284.522
238.535
190.391
139.66
77.7519
16.4333
0.49384
-0.681632
-0.719032
-0.656719
-0.635398
-0.621318
-0.602524
-0.581637
-0.560567
-0.540207
-0.521269
-0.504367
-0.489999
-0.478541
-0.470287
-0.465449
-0.464198
-0.46651
-0.472198
621.454
622.701
623.542
622.746
620.269
616.129
610.272
602.624
593.101
581.616
568.081
552.401
534.477
514.22
491.544
466.367
438.599
408.167
375.03
339.171
300.588
259.309
215.518
169.698
120.433
58.8109
9.30391
-0.0587103
-0.817284
-0.825136
-0.776261
-0.75906
-0.742869
-0.721793
-0.699035
-0.676239
-0.654274
-0.633847
-0.615529
-0.599748
-0.586825
-0.576997
-0.570419
-0.567177
-0.567243
-0.570439
576.082
577.171
578.041
577.399
575.218
571.499
566.176
559.164
550.374
539.715
527.099
512.43
495.612
476.558
455.192
431.431
405.188
376.396
345.018
311.038
274.451
235.297
193.817
150.43
102.408
42.3374
5.04624
-0.373501
-0.930412
-0.933181
-0.898386
-0.882875
-0.864262
-0.84106
-0.816423
-0.791869
-0.768269
-0.746318
-0.726548
-0.70933
-0.694933
-0.683544
-0.675271
-0.670148
-0.66812
-0.669009
531.28
532.205
533.101
532.615
530.74
527.454
522.679
516.32
508.281
498.468
486.794
473.166
457.488
439.678
419.661
397.353
372.672
345.559
315.986
283.939
249.418
212.481
173.433
132.577
85.8739
29.0352
2.2377
-0.736068
-1.07364
-1.05456
-1.02585
-1.00818
-0.986179
-0.960482
-0.933795
-0.907393
-0.882102
-0.85858
-0.837313
-0.818631
-0.802749
-0.789812
-0.77989
-0.772979
-0.768984
-0.767715
487.025
487.778
488.702
488.38
486.824
483.99
479.78
474.093
466.825
457.88
447.175
434.615
420.11
403.581
384.951
364.135
341.055
315.662
287.939
257.878
225.485
190.837
154.301
115.977
70.5834
18.6615
0.343419
-1.19041
-1.2404
-1.18503
-1.15631
-1.13434
-1.1083
-1.07989
-1.05103
-1.02271
-0.995679
-0.970543
-0.947739
-0.927559
-0.910178
-0.895698
-0.884163
-0.875536
-0.869679
-0.866378
443.291
443.857
444.816
444.67
443.456
441.095
437.474
432.481
426.007
417.954
408.24
396.773
383.466
368.244
351.031
331.744
310.308
286.687
260.869
232.851
202.635
170.322
136.303
100.306
56.1145
11.0208
-0.670282
-1.44793
-1.38361
-1.31368
-1.28433
-1.25891
-1.22968
-1.19884
-1.16788
-1.13765
-1.10887
-1.08209
-1.05772
-1.03602
-1.01712
-1.00111
-0.987984
-0.977692
-0.970056
-0.96484
400.038
400.394
401.401
401.452
400.609
398.753
395.75
391.48
385.825
378.689
369.986
359.629
347.536
333.638
317.864
300.138
280.394
258.602
234.751
208.832
180.846
150.907
119.38
85.3831
42.4639
5.92613
-1.01898
-1.5383
-1.48929
-1.43428
-1.40809
-1.38118
-1.34993
-1.31709
-1.28416
-1.25205
-1.22151
-1.19308
-1.16713
-1.14389
-1.12348
-1.10594
-1.09125
-1.07933
-1.06998
-1.06296
357.216
357.32
358.401
358.68
358.252
356.945
354.6
351.085
346.279
340.082
332.41
323.176
312.309
299.749
285.434
269.299
251.29
231.381
209.555
185.794
160.098
132.611
103.629
71.4437
30.4429
2.81571
-1.19769
-1.60471
-1.58962
-1.55407
-1.53076
-1.50254
-1.4695
-1.43472
-1.39982
-1.36583
-1.33351
-1.3034
-1.27585
-1.25108
-1.22915
-1.21009
-1.19385
-1.18034
-1.16934
-1.16061
314.754
314.519
315.738
316.3
316.349
315.649
314.014
311.291
307.361
302.126
295.499
287.402
277.773
266.566
253.733
239.221
222.987
205.004
185.249
163.703
140.373
115.443
89.1345
58.8953
20.7105
0.809752
-1.41936
-1.71522
-1.70771
-1.68026
-1.65532
-1.62426
-1.58882
-1.55181
-1.51483
-1.47889
-1.44476
-1.41294
-1.38378
-1.35746
-1.33402
-1.31346
-1.29571
-1.28065
-1.26807
-1.25774
272.542
271.833
273.286
274.242
274.863
274.847
273.978
272.093
269.066
264.805
259.23
252.276
243.895
234.058
222.73
209.871
195.444
179.423
161.786
142.513
121.628
99.3627
75.8418
47.7304
13.2341
-0.619528
-1.82562
-1.87605
-1.84185
-1.81233
-1.78188
-1.74631
-1.70774
-1.66821
-1.629
-1.59105
-1.55507
-1.52154
-1.49077
-1.46291
-1.43799
-1.41596
-1.39675
-1.3802
-1.36613
-1.35429
230.33
229.154
230.928
232.445
233.763
234.53
234.491
233.48
231.379
228.1
223.578
217.763
210.633
202.175
192.367
181.179
168.585
154.561
139.087
122.149
103.785
84.2573
63.5488
37.6511
7.76565
-1.52065
-2.20074
-2.05372
-1.98095
-1.94373
-1.90734
-1.86737
-1.82565
-1.78352
-1.74203
-1.70204
-1.6642
-1.62898
-1.59663
-1.56728
-1.54092
-1.51749
-1.49689
-1.47895
-1.46348
-1.45025
187.439
186.483
188.636
190.932
193.077
194.721
195.576
195.471
194.3
191.998
188.518
183.834
177.946
170.859
162.568
153.059
142.314
130.32
117.062
102.522
86.7455
69.9923
51.9875
28.3137
3.79233
-1.87022
-2.28981
-2.17765
-2.10597
-2.06741
-2.0288
-1.98627
-1.94198
-1.89739
-1.85363
-1.8116
-1.77194
-1.73506
-1.70119
-1.6704
-1.64268
-1.61794
-1.59604
-1.57683
-1.56009
-1.54557
143.136
143.601
146.18
149.688
152.905
155.541
157.335
158.142
157.887
156.533
154.062
150.478
145.803
140.064
133.274
125.437
116.556
106.627
95.6376
83.5682
70.4708
56.5678
41.1757
19.9051
1.2392
-1.96344
-2.29542
-2.261
-2.2192
-2.1866
-2.1479
-2.10355
-2.0568
-2.0097
-1.96363
-1.91954
-1.87807
-1.83958
-1.80426
-1.77213
-1.74315
-1.71719
-1.69413
-1.67376
-1.65588
-1.64022
97.7676
100.063
103.145
108.46
113.171
117.05
119.896
121.631
122.258
121.8
120.284
117.747
114.236
109.799
104.475
98.2938
91.278
83.4371
74.7645
65.2474
54.9763
44.1646
31.5641
13.0867
-0.241676
-2.09046
-2.36709
-2.36824
-2.34154
-2.30936
-2.26789
-2.22032
-2.17038
-2.12041
-2.07185
-2.02567
-1.98241
-1.94238
-1.90568
-1.87231
-1.84218
-1.81514
-1.79103
-1.76965
-1.75076
-1.73408
50.0746
58.0978
61.0454
67.626
73.6924
78.931
82.9626
85.7118
87.2564
87.6889
87.0961
85.5576
83.1525
79.9583
76.0442
71.4718
66.2896
60.5279
54.1985
47.3212
40.0749
32.7057
23.4393
8.13543
-1.33257
-2.41424
-2.51501
-2.50529
-2.47667
-2.43735
-2.38927
-2.33656
-2.2825
-2.22922
-2.17802
-2.12973
-2.08475
-2.04328
-2.00534
-1.97085
-1.93968
-1.91168
-1.88665
-1.86438
-1.84461
-1.82704
10.0437
24.5779
25.6387
31.0676
36.6589
42.0663
46.5729
49.9781
52.2929
53.5633
53.8686
53.3
51.9622
49.9702
47.4337
44.4559
41.1274
37.5194
33.6886
29.7108
25.7892
22.2292
16.5868
4.36687
-2.17316
-2.88377
-2.71694
-2.65908
-2.61689
-2.5665
-2.50982
-2.45092
-2.39227
-2.3355
-2.28166
-2.23135
-2.18482
-2.14209
-2.10307
-2.06762
-2.03557
-2.00674
-1.98091
-1.95786
-1.93732
-1.91899
-3.20095
1.47919
4.75629
8.63882
10.9786
13.3508
15.7829
18.1419
20.0457
21.355
22.057
22.1746
21.7862
21.0123
19.9811
18.8205
17.6491
16.5767
15.6934
14.9654
14.5405
14.9809
12.1821
1.10483
-2.51294
-3.01814
-2.87424
-2.80276
-2.74951
-2.69006
-2.62607
-2.56146
-2.49846
-2.43844
-2.3822
-2.33015
-2.28231
-2.23856
-2.19869
-2.16249
-2.12975
-2.10026
-2.07377
-2.05005
-2.02885
-2.00988
-3.20636
-2.96835
-3.20024
-1.88872
0.855353
2.64796
2.92667
2.54113
2.00625
1.66978
1.53999
1.52737
1.60272
1.80881
2.19498
2.81296
3.70567
4.90592
6.36001
7.82112
9.30304
11.7087
11.3097
-1.08177
-2.68938
-3.03057
-2.99094
-2.93489
-2.87445
-2.807
-2.73657
-2.6669
-2.60012
-2.53736
-2.47918
-2.42577
-2.37697
-2.33249
-2.29202
-2.25531
-2.22211
-2.19216
-2.16519
-2.14094
-2.1192
-2.09971
-3.26912
-3.2442
-3.2729
-3.32519
-3.55955
-3.60415
-3.05043
-2.34294
-1.588
-0.933993
-0.417201
-0.0846271
0.0727088
0.135464
0.122699
0.0600664
-0.0136939
-0.0770696
-0.0775561
-0.0712951
-0.0685878
0.85178
3.35039
-2.50407
-3.49209
-3.19274
-3.13077
-3.07189
-2.99734
-2.91856
-2.84088
-2.76647
-2.69652
-2.63168
-2.57216
-2.5179
-2.46854
-2.42369
-2.38295
-2.34601
-2.31259
-2.2824
-2.25514
-2.23054
-2.20839
-2.18846
-3.32623
-3.30415
-3.33256
-3.36852
-3.41225
-3.42543
-3.48959
-3.67357
-3.7564
-3.77557
-3.77721
-3.77482
-3.77293
-3.77332
-3.77512
-3.77721
-3.77755
-3.77315
-3.7672
-3.75972
-3.76625
-3.83177
-3.93073
-3.7185
-3.64098
-3.41799
-3.29367
-3.19987
-3.10841
-3.01998
-2.93651
-2.85866
-2.78671
-2.72076
-2.66069
-2.60619
-2.55679
-2.51198
-2.47135
-2.43453
-2.40119
-2.371
-2.34364
-2.31887
-2.29645
-2.27617
-3.38297
-3.37108
-3.38709
-3.41579
-3.44819
-3.47201
-3.49495
-3.53908
-3.57088
-3.58878
-3.60015
-3.60944
-3.61915
-3.63074
-3.64466
-3.6606
-3.6779
-3.69591
-3.71449
-3.73531
-3.76043
-3.79581
-3.82682
-3.79899
-3.67354
-3.51816
-3.3969
-3.29337
-3.19673
-3.10544
-3.02041
-2.94184
-2.86976
-2.80405
-2.74444
-2.69046
-2.6416
-2.59736
-2.55726
-2.52091
-2.48794
-2.45798
-2.43074
-2.40596
-2.38342
-2.3629
-3.43922
-3.43937
-3.44642
-3.46449
-3.49074
-3.51905
-3.54817
-3.58168
-3.61029
-3.63101
-3.64576
-3.65731
-3.66783
-3.6786
-3.69013
-3.70219
-3.71431
-3.72631
-3.73781
-3.74934
-3.76054
-3.77041
-3.77111
-3.74151
-3.65751
-3.55084
-3.45008
-3.35441
-3.26232
-3.17448
-3.09206
-3.01565
-2.94548
-2.8815
-2.82342
-2.77079
-2.72312
-2.67993
-2.64077
-2.60522
-2.57288
-2.54339
-2.51645
-2.49182
-2.46931
-2.4487
-3.49331
-3.50107
-3.5051
-3.51617
-3.53399
-3.55618
-3.58198
-3.60948
-3.63414
-3.65378
-3.66906
-3.68142
-3.69221
-3.70236
-3.71221
-3.72157
-3.72994
-3.73709
-3.74314
-3.74708
-3.74884
-3.74631
-3.73325
-3.70044
-3.63948
-3.5619
-3.47942
-3.39556
-3.31196
-3.2307
-3.15345
-3.08127
-3.01462
-2.9536
-2.89799
-2.84744
-2.80154
-2.75988
-2.72203
-2.68757
-2.65611
-2.62729
-2.60082
-2.5765
-2.55414
-2.53358
-3.54248
-3.55249
-3.55664
-3.56437
-3.57638
-3.59222
-3.61088
-3.63077
-3.64942
-3.66543
-3.67873
-3.68991
-3.69972
-3.70877
-3.71725
-3.72486
-3.73105
-3.73546
-3.73803
-3.7384
-3.73528
-3.72695
-3.71003
-3.67869
-3.63035
-3.56852
-3.49957
-3.42651
-3.35189
-3.27819
-3.20733
-3.14053
-3.07841
-3.02117
-2.96871
-2.92082
-2.87717
-2.83744
-2.80122
-2.76812
-2.73774
-2.70975
-2.6839
-2.66001
-2.63796
-2.61758
-3.58443
-3.59321
-3.59994
-3.60683
-3.61567
-3.62695
-3.64009
-3.65395
-3.66728
-3.67926
-3.68963
-3.69856
-3.70647
-3.71379
-3.72059
-3.72654
-3.73104
-3.73368
-3.73415
-3.73207
-3.72639
-3.71556
-3.69715
-3.66831
-3.62711
-3.57541
-3.51629
-3.4524
-3.38625
-3.32022
-3.25614
-3.19523
-3.13814
-3.08515
-3.03629
-2.99146
-2.95044
-2.91294
-2.8786
-2.84704
-2.81789
-2.79087
-2.76575
-2.74242
-2.72078
-2.70071
-3.61918
-3.62833
-3.63676
-3.6442
-3.65204
-3.66092
-3.67059
-3.68046
-3.68991
-3.69852
-3.70608
-3.71266
-3.71856
-3.72402
-3.729
-3.73312
-3.73583
-3.73669
-3.73536
-3.73136
-3.72387
-3.71158
-3.6928
-3.66567
-3.6292
-3.58418
-3.53255
-3.47644
-3.418
-3.3593
-3.30192
-3.24695
-3.19503
-3.14649
-3.10147
-3.05995
-3.02179
-2.98672
-2.95442
-2.92453
-2.89672
-2.87075
-2.84647
-2.8238
-2.80269
-2.78304
-3.65052
-3.66003
-3.66973
-3.67824
-3.68623
-3.6942
-3.70212
-3.70974
-3.71682
-3.72313
-3.72855
-3.73321
-3.73734
-3.74106
-3.74417
-3.74627
-3.74692
-3.74574
-3.74245
-3.73664
-3.72756
-3.71416
-3.69514
-3.66929
-3.63602
-3.59588
-3.55025
-3.5008
-3.44928
-3.39733
-3.34627
-3.29701
-3.25015
-3.20607
-3.16497
-3.12688
-3.09169
-3.05916
-3.02897
-3.0008
-2.97439
-2.94955
-2.92618
-2.90425
-2.88376
-2.86464
-3.6808
-3.69043
-3.70099
-3.7105
-3.71891
-3.72664
-3.7338
-3.74033
-3.74611
-3.75097
-3.7549
-3.75813
-3.76085
-3.76301
-3.76432
-3.7644
-3.76297
-3.7598
-3.75467
-3.74721
-3.73677
-3.72244
-3.70321
-3.67831
-3.64749
-3.61124
-3.57062
-3.52695
-3.48155
-3.43569
-3.3904
-3.34646
-3.30443
-3.2647
-3.22747
-3.19281
-3.16059
-3.13057
-3.10249
-3.07605
-3.05107
-3.0274
-3.00501
-2.98391
-2.96411
-2.94561
-3.71147
-3.72098
-3.73195
-3.742
-3.75067
-3.75834
-3.7652
-3.77121
-3.77624
-3.78017
-3.78312
-3.78535
-3.78699
-3.78785
-3.78756
-3.78584
-3.7826
-3.77773
-3.77108
-3.76228
-3.75072
-3.73564
-3.71632
-3.69232
-3.66362
-3.63072
-3.59446
-3.55581
-3.51579
-3.47532
-3.43522
-3.39616
-3.35866
-3.32307
-3.28958
-3.25822
-3.22886
-3.20128
-3.17523
-3.1505
-3.12695
-3.10449
-3.08314
-3.06292
-3.0439
-3.02608
-3.74335
-3.75257
-3.76353
-3.77364
-3.78233
-3.78995
-3.79665
-3.80232
-3.80679
-3.81009
-3.81244
-3.81403
-3.81485
-3.81462
-3.81298
-3.80979
-3.8051
-3.79893
-3.79112
-3.78129
-3.76889
-3.75333
-3.73415
-3.71116
-3.68449
-3.65462
-3.62219
-3.58794
-3.5526
-3.51687
-3.48142
-3.4468
-3.41349
-3.38177
-3.35178
-3.32351
-3.29683
-3.27154
-3.24743
-3.22436
-3.20223
-3.18101
-3.16073
-3.14145
-3.12326
-3.10618
-3.77694
-3.78577
-3.79639
-3.80626
-3.81483
-3.82237
-3.82886
-3.83415
-3.83817
-3.84109
-3.8431
-3.84426
-3.84439
-3.84319
-3.84042
-3.83609
-3.83034
-3.82324
-3.81461
-3.80408
-3.79116
-3.77543
-3.75667
-3.73484
-3.71018
-3.68307
-3.65404
-3.62362
-3.59235
-3.5608
-3.52951
-3.49893
-3.46943
-3.44125
-3.41445
-3.389
-3.36476
-3.34157
-3.3193
-3.29783
-3.27711
-3.25714
-3.23797
-3.21967
-3.20235
-3.18606
-3.81257
-3.82094
-3.83104
-3.84061
-3.849
-3.85634
-3.86249
-3.86736
-3.87106
-3.8738
-3.87564
-3.87642
-3.87587
-3.87377
-3.87008
-3.86492
-3.85847
-3.85079
-3.84165
-3.83071
-3.81758
-3.802
-3.78389
-3.76335
-3.74062
-3.71604
-3.69002
-3.66296
-3.6353
-3.60747
-3.57989
-3.55293
-3.52685
-3.50181
-3.47784
-3.45488
-3.43284
-3.4116
-3.39104
-3.37111
-3.35178
-3.33307
-3.31503
-3.29774
-3.28132
-3.26584
-3.85045
-3.85833
-3.86794
-3.8772
-3.88535
-3.89234
-3.89806
-3.90256
-3.90607
-3.90872
-3.91037
-3.91069
-3.90944
-3.90656
-3.9022
-3.89655
-3.88976
-3.8818
-3.87243
-3.86134
-3.84825
-3.83304
-3.81574
-3.79652
-3.77563
-3.75338
-3.73006
-3.70603
-3.68159
-3.65707
-3.6328
-3.60902
-3.58593
-3.56361
-3.54209
-3.52133
-3.50125
-3.48177
-3.46283
-3.44437
-3.4264
-3.40894
-3.39204
-3.37578
-3.3603
-3.34565
-3.89073
-3.89814
-3.90734
-3.91624
-3.92401
-3.93055
-3.93586
-3.9401
-3.94348
-3.94597
-3.94728
-3.94705
-3.94517
-3.94176
-3.93706
-3.93127
-3.92444
-3.91644
-3.90703
-3.89595
-3.88306
-3.86835
-3.85195
-3.83408
-3.81498
-3.79491
-3.77412
-3.75283
-3.73129
-3.7097
-3.6883
-3.66725
-3.64669
-3.6267
-3.60729
-3.58845
-3.57013
-3.55227
-3.53483
-3.51778
-3.50112
-3.48488
-3.46912
-3.45392
-3.43938
-3.42557
-3.93351
-3.94053
-3.94927
-3.95766
-3.96489
-3.97095
-3.97596
-3.98005
-3.98326
-3.98544
-3.98627
-3.98553
-3.98326
-3.97966
-3.97497
-3.96931
-3.9626
-3.95466
-3.94526
-3.93428
-3.92168
-3.90759
-3.89221
-3.87577
-3.85848
-3.84053
-3.8221
-3.8033
-3.78431
-3.76525
-3.74627
-3.72751
-3.70909
-3.69106
-3.67348
-3.65633
-3.63959
-3.62322
-3.60718
-3.59145
-3.57604
-3.561
-3.54637
-3.53224
-3.51866
-3.50568
-3.97886
-3.98549
-3.99365
-4.00137
-4.008
-4.01364
-4.01844
-4.02239
-4.02535
-4.02711
-4.02748
-4.02641
-4.02403
-4.02053
-4.01605
-4.01059
-4.00399
-3.99608
-3.98673
-3.97593
-3.9638
-3.95054
-3.93636
-3.92147
-3.90602
-3.89011
-3.87382
-3.85722
-3.84039
-3.82344
-3.80648
-3.78964
-3.77301
-3.75669
-3.7407
-3.72506
-3.70974
-3.69471
-3.67996
-3.66546
-3.65125
-3.63736
-3.62386
-3.61079
-3.59818
-3.58602
-4.02675
-4.03294
-4.04043
-4.04747
-4.05357
-4.05887
-4.06345
-4.06715
-4.06976
-4.0711
-4.07114
-4.06994
-4.06765
-4.06435
-4.06008
-4.05473
-4.04816
-4.04029
-4.0311
-4.02072
-4.00932
-3.99714
-3.98435
-3.97109
-3.95742
-3.94337
-3.92894
-3.91418
-3.89914
-3.88393
-3.86866
-3.85344
-3.83838
-3.82355
-3.80899
-3.79469
-3.78064
-3.76683
-3.75324
-3.73988
-3.72679
-3.71403
-3.70163
-3.68963
-3.67798
-3.66661
-4.077
-4.08271
-4.0896
-4.09609
-4.10177
-4.10675
-4.11099
-4.11429
-4.11646
-4.11745
-4.1173
-4.1161
-4.11393
-4.1108
-4.10663
-4.10133
-4.09483
-4.08714
-4.07837
-4.0687
-4.05833
-4.04742
-4.0361
-4.0244
-4.01232
-3.99983
-3.98695
-3.97369
-3.96013
-3.94639
-3.93257
-3.91879
-3.90513
-3.89164
-3.87834
-3.86524
-3.85232
-3.83959
-3.82705
-3.81475
-3.80273
-3.79104
-3.77973
-3.76878
-3.75806
-3.74745
-4.12938
-4.13467
-4.14108
-4.14715
-4.15246
-4.15703
-4.16078
-4.16358
-4.16534
-4.16608
-4.16585
-4.1647
-4.16264
-4.1596
-4.15551
-4.15032
-4.14406
-4.13682
-4.12876
-4.12006
-4.11085
-4.10125
-4.09127
-4.08091
-4.07014
-4.05892
-4.04728
-4.03528
-4.023
-4.01056
-3.99806
-3.98559
-3.9732
-3.96091
-3.94874
-3.93669
-3.92476
-3.913
-3.90143
-3.89011
-3.87911
-3.86846
-3.8582
-3.84825
-3.83842
-3.82851
-4.18379
-4.18874
-4.19473
-4.20038
-4.20525
-4.20931
-4.21253
-4.21488
-4.21636
-4.21698
-4.21676
-4.21569
-4.2137
-4.21076
-4.20681
-4.2019
-4.19609
-4.18953
-4.18235
-4.17469
-4.16661
-4.15815
-4.14928
-4.13999
-4.13025
-4.12007
-4.1095
-4.09862
-4.08752
-4.0763
-4.06502
-4.05375
-4.0425
-4.03128
-4.02009
-4.00897
-3.99793
-3.98704
-3.97637
-3.966
-3.95596
-3.94632
-3.93704
-3.92804
-3.91904
-3.90978
-4.24022
-4.24486
-4.2504
-4.25555
-4.25989
-4.26344
-4.26624
-4.26831
-4.26967
-4.27028
-4.27011
-4.26909
-4.26719
-4.26438
-4.26069
-4.25619
-4.25098
-4.24517
-4.23888
-4.23215
-4.22501
-4.21746
-4.20947
-4.20104
-4.19217
-4.18292
-4.17334
-4.16353
-4.15355
-4.14348
-4.13333
-4.12314
-4.1129
-4.10261
-4.0923
-4.082
-4.07178
-4.06173