/*--------------------------------*- C++ -*----------------------------------*\
  =========                 |
  \\      /  F ield         | OpenFOAM: The Open Source CFD Toolbox
   \\    /   O peration     | Website:  https://openfoam.org
    \\  /    A nd           | Version:  9
     \\/     M anipulation  |
\*---------------------------------------------------------------------------*/
FoamFile
{
    format      ascii;
    class       volVectorField;
    location    "0.15";
    object      U;
}
// * * * * * * * * * * * * * * * * * * * * * * * * * * * * * * * * * * * * * //

dimensions      [0 1 -1 0 0 0 0];

internalField   nonuniform List<vector> 
7700
(
(-0.00943857 0.00458314 0)
(0.00528076 -0.0128958 0)
(0.0450517 -0.0224106 0)
(0.0898986 -0.0250703 0)
(0.136425 -0.0250864 0)
(0.182822 -0.0243388 0)
(0.22818 -0.0234304 0)
(0.272284 -0.0225503 0)
(0.315247 -0.0217672 0)
(0.357274 -0.0211067 0)
(0.398594 -0.0205768 0)
(0.439443 -0.0201791 0)
(0.480068 -0.0199139 0)
(0.520724 -0.0197822 0)
(0.561676 -0.0197871 0)
(0.603202 -0.0199336 0)
(0.645595 -0.0202284 0)
(0.689163 -0.0206798 0)
(0.734226 -0.0212955 0)
(0.781111 -0.0220802 0)
(0.830131 -0.0230308 0)
(0.88156 -0.0241304 0)
(0.935593 -0.0253407 0)
(0.992287 -0.0265933 0)
(1.05149 -0.0277815 0)
(1.11275 -0.0287538 0)
(1.17523 -0.0293159 0)
(1.23765 -0.0292455 0)
(1.29819 -0.0282894 0)
(1.35455 -0.0261726 0)
(1.4038 -0.0229047 0)
(1.44318 -0.0184065 0)
(1.47079 -0.00997609 0)
(1.47505 0.00332069 0)
(1.45192 0.0173573 0)
(1.40827 0.0277138 0)
(1.35404 0.0313217 0)
(1.29996 0.0280632 0)
(1.25446 0.0206692 0)
(1.22186 0.0126056 0)
(1.20152 0.00448474 0)
(1.18928 -0.0113898 0)
(1.18873 -0.0437967 0)
(1.18863 -0.0695357 0)
(1.11471 -0.0465288 0)
(0.756593 0.11089 0)
(0.0103052 -0.00118355 0)
(0.0387938 -0.0321782 0)
(0.0788007 -0.0474261 0)
(0.120571 -0.0522238 0)
(0.16238 -0.0528259 0)
(0.20379 -0.0520069 0)
(0.244474 -0.0507813 0)
(0.28434 -0.0495416 0)
(0.323479 -0.0484547 0)
(0.362055 -0.0475926 0)
(0.400262 -0.0469872 0)
(0.438309 -0.046655 0)
(0.476417 -0.0466082 0)
(0.514819 -0.0468593 0)
(0.553756 -0.047423 0)
(0.593482 -0.0483159 0)
(0.63426 -0.0495554 0)
(0.67636 -0.0511568 0)
(0.720056 -0.0531271 0)
(0.765608 -0.0554577 0)
(0.813247 -0.0581128 0)
(0.86314 -0.0610154 0)
(0.915355 -0.0640305 0)
(0.969805 -0.0669479 0)
(1.02619 -0.0694674 0)
(1.08392 -0.0711894 0)
(1.14206 -0.0716205 0)
(1.19925 -0.0702002 0)
(1.2537 -0.0663474 0)
(1.30324 -0.0595373 0)
(1.34546 -0.0495169 0)
(1.37796 -0.036147 0)
(1.39873 -0.0183342 0)
(1.41362 0.00348966 0)
(1.42292 0.0256891 0)
(1.42132 0.0433516 0)
(1.40613 0.0528543 0)
(1.37953 0.0528306 0)
(1.34822 0.0443167 0)
(1.32073 0.0305485 0)
(1.3034 0.0170299 0)
(1.2969 0.00867869 0)
(1.28561 0.0117875 0)
(1.274 0.0785996 0)
(1.26415 0.331653 0)
(0.956299 0.955556 0)
(0.0217127 -0.0269671 0)
(0.0580193 -0.0626681 0)
(0.0994775 -0.0771906 0)
(0.139494 -0.0814096 0)
(0.178076 -0.0815501 0)
(0.21585 -0.0802609 0)
(0.252947 -0.0785835 0)
(0.289436 -0.0769536 0)
(0.325448 -0.0755698 0)
(0.361148 -0.0745269 0)
(0.396716 -0.0738728 0)
(0.432344 -0.0736351 0)
(0.468235 -0.0738347 0)
(0.504601 -0.0744919 0)
(0.541661 -0.0756284 0)
(0.579639 -0.077267 0)
(0.618765 -0.0794291 0)
(0.659267 -0.082129 0)
(0.701365 -0.085365 0)
(0.74525 -0.0891074 0)
(0.791073 -0.0932812 0)
(0.838907 -0.097746 0)
(0.888716 -0.102273 0)
(0.940307 -0.106519 0)
(0.993279 -0.110009 0)
(1.04697 -0.112123 0)
(1.10039 -0.112106 0)
(1.15219 -0.109105 0)
(1.20066 -0.102257 0)
(1.24376 -0.0908377 0)
(1.27929 -0.0745254 0)
(1.3051 -0.0536791 0)
(1.31981 -0.0295822 0)
(1.32485 -0.00358176 0)
(1.32305 0.0228901 0)
(1.31696 0.045845 0)
(1.3085 0.0606941 0)
(1.29926 0.0638882 0)
(1.29158 0.0549658 0)
(1.28792 0.0381737 0)
(1.28924 0.0206657 0)
(1.29367 0.0098934 0)
(1.27893 0.0126666 0)
(1.11381 0.066732 0)
(0.964395 0.487918 0)
(0.770255 1.59869 0)
(0.0260171 -0.0583284 0)
(0.0677837 -0.0972232 0)
(0.111407 -0.108513 0)
(0.151044 -0.110621 0)
(0.187854 -0.109548 0)
(0.22324 -0.107457 0)
(0.257754 -0.105204 0)
(0.291665 -0.103162 0)
(0.325195 -0.101512 0)
(0.358546 -0.100346 0)
(0.391909 -0.0997142 0)
(0.425476 -0.0996468 0)
(0.45944 -0.100169 0)
(0.493998 -0.101303 0)
(0.52935 -0.103075 0)
(0.565693 -0.105508 0)
(0.603227 -0.108622 0)
(0.642138 -0.112423 0)
(0.682596 -0.116894 0)
(0.724736 -0.121974 0)
(0.768639 -0.127541 0)
(0.814305 -0.133384 0)
(0.861623 -0.139175 0)
(0.910327 -0.144437 0)
(0.959959 -0.148525 0)
(1.00982 -0.15061 0)
(1.05892 -0.149696 0)
(1.10598 -0.14467 0)
(1.14936 -0.134424 0)
(1.1872 -0.118075 0)
(1.21753 -0.0953289 0)
(1.23864 -0.0669428 0)
(1.24981 -0.03501 0)
(1.25234 -0.00245872 0)
(1.24943 0.0271852 0)
(1.24525 0.0500882 0)
(1.2435 0.0627007 0)
(1.24619 0.0637706 0)
(1.25319 0.0544106 0)
(1.26327 0.0375994 0)
(1.27314 0.017661 0)
(1.27051 0.013075 0)
(1.19747 0.110703 0)
(0.92884 0.259809 0)
(0.558089 0.756728 0)
(0.50635 2.18383 0)
(0.0275017 -0.0927602 0)
(0.0721447 -0.133828 0)
(0.117253 -0.140378 0)
(0.156961 -0.139313 0)
(0.192892 -0.136441 0)
(0.226812 -0.133282 0)
(0.259546 -0.130365 0)
(0.291547 -0.127918 0)
(0.32314 -0.126057 0)
(0.354583 -0.124846 0)
(0.386096 -0.124322 0)
(0.417883 -0.124511 0)
(0.450138 -0.125436 0)
(0.483049 -0.127119 0)
(0.5168 -0.129583 0)
(0.551569 -0.13285 0)
(0.587524 -0.136932 0)
(0.624817 -0.14182 0)
(0.663573 -0.147476 0)
(0.70388 -0.153803 0)
(0.745761 -0.160627 0)
(0.789163 -0.167662 0)
(0.833917 -0.174481 0)
(0.879716 -0.180481 0)
(0.926075 -0.18486 0)
(0.972294 -0.186601 0)
(1.01743 -0.184495 0)
(1.06027 -0.177206 0)
(1.09935 -0.163428 0)
(1.13298 -0.142167 0)
(1.15946 -0.113237 0)
(1.17748 -0.077951 0)
(1.18695 -0.0395961 0)
(1.18984 -0.00284567 0)
(1.18995 0.0275537 0)
(1.19189 0.0486157 0)
(1.19895 0.0596704 0)
(1.21199 0.0604142 0)
(1.22979 0.0503884 0)
(1.24523 0.0298443 0)
(1.23231 0.0152222 0)
(1.17497 0.063613 0)
(1.02585 0.27268 0)
(0.741257 0.529667 0)
(0.290306 1.03794 0)
(0.316712 2.50513 0)
(0.0279204 -0.128444 0)
(0.0736076 -0.171264 0)
(0.1192 -0.172502 0)
(0.158865 -0.167681 0)
(0.194302 -0.162559 0)
(0.227311 -0.158043 0)
(0.258835 -0.1543 0)
(0.289446 -0.151374 0)
(0.319551 -0.149282 0)
(0.349464 -0.148037 0)
(0.379439 -0.147651 0)
(0.409697 -0.148132 0)
(0.44044 -0.149494 0)
(0.471852 -0.151753 0)
(0.504105 -0.154924 0)
(0.53736 -0.15902 0)
(0.571759 -0.16404 0)
(0.607424 -0.169961 0)
(0.644442 -0.176712 0)
(0.682857 -0.18416 0)
(0.722652 -0.192075 0)
(0.763728 -0.200101 0)
(0.805881 -0.207718 0)
(0.848781 -0.214208 0)
(0.891941 -0.21863 0)
(0.934693 -0.219806 0)
(0.976162 -0.216349 0)
(1.01525 -0.20674 0)
(1.05067 -0.189513 0)
(1.08094 -0.163604 0)
(1.10459 -0.129003 0)
(1.12063 -0.0877805 0)
(1.12951 -0.0447435 0)
(1.13415 -0.00600558 0)
(1.13919 0.0243175 0)
(1.14889 0.0451664 0)
(1.16526 0.0555406 0)
(1.18772 0.0527756 0)
(1.2034 0.0357971 0)
(1.18955 0.0259472 0)
(1.13022 0.0545386 0)
(0.981085 0.179148 0)
(0.753054 0.458493 0)
(0.524345 0.751802 0)
(0.100983 1.28261 0)
(0.148912 2.61118 0)
(0.0278075 -0.164447 0)
(0.07343 -0.20865 0)
(0.118694 -0.204553 0)
(0.158041 -0.195824 0)
(0.193085 -0.188216 0)
(0.225475 -0.182124 0)
(0.256157 -0.17739 0)
(0.285752 -0.173872 0)
(0.314719 -0.171481 0)
(0.343413 -0.170168 0)
(0.372117 -0.169901 0)
(0.401071 -0.170668 0)
(0.430483 -0.172462 0)
(0.460538 -0.175286 0)
(0.491399 -0.179143 0)
(0.523212 -0.184033 0)
(0.556097 -0.189938 0)
(0.590149 -0.196809 0)
(0.625424 -0.204548 0)
(0.66193 -0.21298 0)
(0.699614 -0.22182 0)
(0.738347 -0.230646 0)
(0.777904 -0.238853 0)
(0.817947 -0.245624 0)
(0.858007 -0.249899 0)
(0.897464 -0.250369 0)
(0.935532 -0.245499 0)
(0.971251 -0.233627 0)
(1.0035 -0.213156 0)
(1.031 -0.182969 0)
(1.05242 -0.143299 0)
(1.06681 -0.0972019 0)
(1.07548 -0.0509207 0)
(1.083 -0.0107049 0)
(1.09405 0.0204367 0)
(1.11129 0.0406807 0)
(1.13391 0.0437256 0)
(1.14205 0.0292666 0)
(1.125 0.0333765 0)
(1.05976 0.0709496 0)
(0.909625 0.170604 0)
(0.697109 0.362535 0)
(0.485461 0.625447 0)
(0.308333 0.915413 0)
(-0.0443492 1.50275 0)
(-0.000970423 2.54272 0)
(0.0273852 -0.200208 0)
(0.072273 -0.245377 0)
(0.116654 -0.236188 0)
(0.15542 -0.223666 0)
(0.190044 -0.213519 0)
(0.221948 -0.205731 0)
(0.252005 -0.19988 0)
(0.280838 -0.195664 0)
(0.308927 -0.192893 0)
(0.336647 -0.19145 0)
(0.364302 -0.191259 0)
(0.392146 -0.192275 0)
(0.420392 -0.194468 0)
(0.449225 -0.197822 0)
(0.478802 -0.202322 0)
(0.509254 -0.207949 0)
(0.540685 -0.214664 0)
(0.573164 -0.222392 0)
(0.606721 -0.231001 0)
(0.641335 -0.240274 0)
(0.676927 -0.249876 0)
(0.713345 -0.259322 0)
(0.750353 -0.267934 0)
(0.787618 -0.27481 0)
(0.824701 -0.278794 0)
(0.861041 -0.278468 0)
(0.895945 -0.272186 0)
(0.928588 -0.258165 0)
(0.958012 -0.234694 0)
(0.983079 -0.200588 0)
(1.00223 -0.156374 0)
(1.01465 -0.106117 0)
(1.02392 -0.0569553 0)
(1.03531 -0.0152466 0)
(1.05058 0.015433 0)
(1.06693 0.0229654 0)
(1.0604 0.0156699 0)
(1.03091 0.0373143 0)
(0.949235 0.0909017 0)
(0.813381 0.189129 0)
(0.642045 0.331226 0)
(0.457538 0.521315 0)
(0.287089 0.761323 0)
(0.139235 1.05559 0)
(-0.110099 1.63303 0)
(-0.0865444 2.44108 0)
(0.0267762 -0.235383 0)
(0.0705233 -0.281078 0)
(0.113676 -0.267157 0)
(0.151658 -0.251097 0)
(0.185791 -0.238479 0)
(0.217246 -0.228956 0)
(0.246797 -0.22191 0)
(0.275033 -0.216912 0)
(0.302427 -0.213683 0)
(0.32936 -0.212043 0)
(0.356145 -0.21187 0)
(0.383042 -0.213083 0)
(0.410268 -0.215625 0)
(0.438005 -0.219455 0)
(0.466404 -0.224537 0)
(0.495584 -0.230829 0)
(0.525632 -0.238267 0)
(0.556598 -0.246747 0)
(0.588489 -0.256102 0)
(0.621261 -0.266074 0)
(0.654814 -0.27628 0)
(0.688983 -0.286178 0)
(0.723529 -0.29503 0)
(0.758133 -0.301861 0)
(0.792391 -0.305439 0)
(0.8258 -0.304264 0)
(0.85776 -0.296597 0)
(0.887563 -0.280553 0)
(0.914398 -0.25429 0)
(0.937036 -0.216507 0)
(0.953383 -0.168102 0)
(0.964285 -0.114105 0)
(0.975301 -0.0625576 0)
(0.988323 -0.0197484 0)
(0.994406 -0.00392728 0)
(0.976233 0.00824851 0)
(0.933741 0.0489942 0)
(0.849438 0.113069 0)
(0.733726 0.200025 0)
(0.598545 0.311214 0)
(0.453324 0.453806 0)
(0.309813 0.638477 0)
(0.179289 0.87032 0)
(0.0586819 1.17133 0)
(-0.0735479 1.6823 0)
(-0.0754938 2.37364 0)
(0.0260556 -0.269749 0)
(0.0684226 -0.31555 0)
(0.110148 -0.297303 0)
(0.147207 -0.278022 0)
(0.180766 -0.263068 0)
(0.211765 -0.251836 0)
(0.240864 -0.243562 0)
(0.268603 -0.237722 0)
(0.295428 -0.23397 0)
(0.321712 -0.232068 0)
(0.347767 -0.231851 0)
(0.373852 -0.2332 0)
(0.400182 -0.236029 0)
(0.426937 -0.24027 0)
(0.45426 -0.245862 0)
(0.482259 -0.252736 0)
(0.511006 -0.260802 0)
(0.540534 -0.269924 0)
(0.570831 -0.2799 0)
(0.601837 -0.290431 0)
(0.633437 -0.301092 0)
(0.665458 -0.31129 0)
(0.697665 -0.320233 0)
(0.729758 -0.326892 0)
(0.761369 -0.329974 0)
(0.792054 -0.327913 0)
(0.821289 -0.318896 0)
(0.848475 -0.300936 0)
(0.872903 -0.272011 0)
(0.892871 -0.230681 0)
(0.906292 -0.1783 0)
(0.917084 -0.121546 0)
(0.928946 -0.0683864 0)
(0.936724 -0.0315525 0)
(0.926248 -0.000155479 0)
(0.881285 0.0521001 0)
(0.801047 0.120755 0)
(0.698756 0.20062 0)
(0.584696 0.292954 0)
(0.466591 0.405762 0)
(0.350903 0.547432 0)
(0.245174 0.726297 0)
(0.155813 0.951032 0)
(0.0759948 1.24806 0)
(0.0653944 1.6903 0)
(-0.0432258 2.367 0)
(-0.00978996 0.00476418 0)
(-0.0102243 -0.00639475 0)
(0.0101896 -0.0141683 0)
(0.0421638 -0.0173479 0)
(0.0759973 -0.0169014 0)
(0.107777 -0.0149618 0)
(0.135644 -0.0124516 0)
(0.158422 -0.00984994 0)
(0.176025 -0.00739866 0)
(0.18888 -0.00521884 0)
(0.197569 -0.00334933 0)
(0.202727 -0.00175769 0)
(0.204912 -0.000371922 0)
(0.20439 0.000733856 0)
(0.201965 0.00152578 0)
(0.198172 0.00207215 0)
(0.193333 0.00247251 0)
(0.18769 0.00278583 0)
(0.18141 0.00304139 0)
(0.174613 0.00325644 0)
(0.167388 0.0034411 0)
(0.159804 0.00360066 0)
(0.151916 0.00373816 0)
(0.143771 0.0038564 0)
(0.135405 0.00395916 0)
(0.126844 0.00405141 0)
(0.1181 0.00413894 0)
(0.109178 0.00422778 0)
(0.10007 0.00432387 0)
(0.0907555 0.00443276 0)
(0.0812104 0.00455891 0)
(0.0714044 0.00470434 0)
(0.061311 0.00486644 0)
(0.0509469 0.00503123 0)
(0.0402926 0.00530515 0)
(0.0294009 0.00564987 0)
(0.018654 0.00558878 0)
(0.00884176 0.00463416 0)
(0.00149535 0.00259943 0)
(-0.00123554 -0.000472607 0)
(-0.00287855 0.0103553 0)
(0.00380434 -0.0113524 0)
(0.027657 -0.0273703 0)
(0.0569024 -0.0352718 0)
(0.0873001 -0.0357984 0)
(0.115795 -0.0323266 0)
(0.140413 -0.0271869 0)
(0.160367 -0.0216251 0)
(0.175697 -0.0162936 0)
(0.186812 -0.0115052 0)
(0.194252 -0.00737216 0)
(0.198591 -0.00388239 0)
(0.200377 -0.000962492 0)
(0.200252 0.00139439 0)
(0.198453 0.00320496 0)
(0.195234 0.0045765 0)
(0.19087 0.00563176 0)
(0.185603 0.00645898 0)
(0.179626 0.00711917 0)
(0.173087 0.00765587 0)
(0.166098 0.00809918 0)
(0.158747 0.00846945 0)
(0.151098 0.00878125 0)
(0.143202 0.00904675 0)
(0.135095 0.00927788 0)
(0.126804 0.00948699 0)
(0.118343 0.00968644 0)
(0.109721 0.00988808 0)
(0.100933 0.0101028 0)
(0.091971 0.0103396 0)
(0.0828197 0.0106047 0)
(0.0734634 0.0108979 0)
(0.0638899 0.0112078 0)
(0.0541024 0.0115032 0)
(0.0441457 0.0117035 0)
(0.0341252 0.0115884 0)
(0.0242211 0.0108539 0)
(0.0146905 0.00904609 0)
(0.00641554 0.00562218 0)
(0.0016533 0.000586717 0)
(0.00203792 0.00645319 0)
(0.010711 -0.0250904 0)
(0.036115 -0.0461191 0)
(0.0655231 -0.0554946 0)
(0.0949661 -0.0553196 0)
(0.121405 -0.0496127 0)
(0.143427 -0.0415176 0)
(0.160783 -0.0328819 0)
(0.1738 -0.0246736 0)
(0.183005 -0.0173366 0)
(0.188958 -0.0110202 0)
(0.192194 -0.00571685 0)
(0.193204 -0.00134968 0)
(0.192429 0.00218824 0)
(0.190182 0.00500319 0)
(0.186721 0.00721458 0)
(0.182275 0.00894691 0)
(0.177043 0.0103101 0)
(0.17119 0.0113924 0)
(0.164849 0.0122615 0)
(0.158124 0.0129681 0)
(0.151094 0.0135488 0)
(0.143818 0.0140316 0)
(0.136342 0.0144391 0)
(0.128697 0.0147916 0)
(0.120905 0.0151086 0)
(0.112979 0.0154084 0)
(0.104925 0.0157081 0)
(0.0967439 0.0160227 0)
(0.0884305 0.0163642 0)
(0.0799789 0.0167392 0)
(0.0713845 0.0171453 0)
(0.0626497 0.0175646 0)
(0.0537916 0.0179543 0)
(0.044865 0.0182273 0)
(0.0359644 0.0181807 0)
(0.0271844 0.0174504 0)
(0.0185731 0.0154478 0)
(0.0104182 0.0114051 0)
(0.00421538 0.00479077 0)
(-0.000649216 0.00292036 0)
(0.00851745 -0.0391769 0)
(0.038211 -0.0665305 0)
(0.0712333 -0.0773255 0)
(0.102029 -0.075307 0)
(0.127675 -0.0663613 0)
(0.147725 -0.0547635 0)
(0.162733 -0.0428772 0)
(0.173477 -0.0318378 0)
(0.1807 -0.0221065 0)
(0.185038 -0.0137973 0)
(0.187023 -0.00685511 0)
(0.187094 -0.00115107 0)
(0.185618 0.00347167 0)
(0.182883 0.00717132 0)
(0.179121 0.0101032 0)
(0.174529 0.0124157 0)
(0.169274 0.0142404 0)
(0.163494 0.0156867 0)
(0.157304 0.0168417 0)
(0.150794 0.0177726 0)
(0.144034 0.0185307 0)
(0.137078 0.0191557 0)
(0.129964 0.01968 0)
(0.12272 0.0201317 0)
(0.115365 0.0205363 0)
(0.10791 0.0209173 0)
(0.100363 0.0212957 0)
(0.0927246 0.0216894 0)
(0.0849937 0.0221118 0)
(0.0771688 0.0225695 0)
(0.0692506 0.023057 0)
(0.0612461 0.0235497 0)
(0.0531732 0.0239923 0)
(0.0450702 0.0242778 0)
(0.0369858 0.0241955 0)
(0.0289349 0.0233885 0)
(0.0208496 0.0213142 0)
(0.0128144 0.0172802 0)
(0.00566471 0.0104147 0)
(-0.00977161 0.00293943 0)
(0.00107995 -0.0548522 0)
(0.0377559 -0.0909404 0)
(0.07697 -0.101939 0)
(0.11041 -0.0960592 0)
(0.135738 -0.0824492 0)
(0.153931 -0.0666534 0)
(0.166554 -0.0513183 0)
(0.174928 -0.0375232 0)
(0.180048 -0.0255964 0)
(0.18264 -0.0155299 0)
(0.18324 -0.00717517 0)
(0.18225 -0.000332189 0)
(0.179984 0.00521087 0)
(0.176688 0.00965673 0)
(0.172558 0.013193 0)
(0.167756 0.015991 0)
(0.162416 0.0182015 0)
(0.156654 0.0199511 0)
(0.150563 0.0213423 0)
(0.144218 0.0224562 0)
(0.137679 0.0233562 0)
(0.130991 0.0240925 0)
(0.124187 0.0247058 0)
(0.11729 0.0252312 0)
(0.110317 0.0256994 0)
(0.103279 0.0261379 0)
(0.0961798 0.0265709 0)
(0.0890229 0.0270183 0)
(0.081808 0.0274948 0)
(0.0745347 0.0280062 0)
(0.0672039 0.0285449 0)
(0.0598193 0.029082 0)
(0.0523896 0.0295554 0)
(0.0449284 0.0298502 0)
(0.03744 0.0297652 0)
(0.0298764 0.0289819 0)
(0.0220948 0.0270373 0)
(0.0141134 0.0233488 0)
(0.00639281 0.0169585 0)
(-0.0230211 0.0106605 0)
(-0.00508072 -0.0747478 0)
(0.0407386 -0.121657 0)
(0.0868929 -0.130237 0)
(0.122492 -0.117629 0)
(0.146777 -0.0976301 0)
(0.162549 -0.0769005 0)
(0.172406 -0.0579578 0)
(0.178152 -0.0415303 0)
(0.180987 -0.0276467 0)
(0.181691 -0.0160903 0)
(0.180788 -0.00657618 0)
(0.178636 0.00118444 0)
(0.175498 0.00746175 0)
(0.171571 0.0124986 0)
(0.167008 0.016511 0)
(0.161935 0.0196907 0)
(0.156456 0.0222037 0)
(0.150659 0.0241897 0)
(0.144616 0.025763 0)
(0.138388 0.0270154 0)
(0.132022 0.0280201 0)
(0.125555 0.0288355 0)
(0.119012 0.0295095 0)
(0.112414 0.0300827 0)
(0.105773 0.0305902 0)
(0.0990976 0.0310629 0)
(0.0923919 0.0315274 0)
(0.0856574 0.0320056 0)
(0.0788933 0.032513 0)
(0.0720975 0.0330558 0)
(0.0652676 0.0336258 0)
(0.0584002 0.0341932 0)
(0.0514907 0.0346958 0)
(0.0445281 0.0350233 0)
(0.0374802 0.0349955 0)
(0.0302533 0.0343416 0)
(0.0226639 0.032685 0)
(0.0147101 0.0295591 0)
(0.00668163 0.0239712 0)
(-0.034525 0.0225721 0)
(0.00249656 -0.10287 0)
(0.056559 -0.159645 0)
(0.10626 -0.161406 0)
(0.14083 -0.138922 0)
(0.161919 -0.11108 0)
(0.17401 -0.084981 0)
(0.180391 -0.0624781 0)
(0.183107 -0.0436637 0)
(0.183416 -0.0281294 0)
(0.18208 -0.0153859 0)
(0.179565 -0.0049849 0)
(0.176168 0.00345966 0)
(0.172089 0.0102759 0)
(0.167471 0.0157428 0)
(0.162422 0.0201 0)
(0.157027 0.023555 0)
(0.151359 0.0262849 0)
(0.145478 0.0284385 0)
(0.139439 0.0301384 0)
(0.133283 0.0314842 0)
(0.127046 0.032556 0)
(0.120755 0.0334188 0)
(0.11443 0.0341257 0)
(0.108084 0.0347219 0)
(0.101727 0.035246 0)
(0.0953652 0.0357315 0)
(0.0889997 0.0362074 0)
(0.0826303 0.0366974 0)
(0.0762536 0.0372184 0)
(0.0698643 0.0377778 0)
(0.0634543 0.0383687 0)
(0.0570119 0.0389639 0)
(0.0505183 0.0395064 0)
(0.0439419 0.039898 0)
(0.0372224 0.0399846 0)
(0.0302369 0.0395442 0)
(0.0227867 0.0382802 0)
(0.0148679 0.0358247 0)
(0.00671742 0.0311555 0)
(-0.0252721 0.0344159 0)
(0.0431052 -0.137443 0)
(0.0963136 -0.200345 0)
(0.139709 -0.191098 0)
(0.167175 -0.157103 0)
(0.181777 -0.121201 0)
(0.18847 -0.0900324 0)
(0.190472 -0.0644151 0)
(0.189674 -0.0436684 0)
(0.187194 -0.0268974 0)
(0.183665 -0.013325 0)
(0.179444 -0.00233776 0)
(0.174736 0.0065424 0)
(0.169664 0.0136946 0)
(0.16431 0.0194267 0)
(0.158731 0.0239955 0)
(0.152972 0.0276183 0)
(0.147074 0.0304788 0)
(0.141071 0.0327307 0)
(0.134994 0.0345015 0)
(0.12887 0.0358954 0)
(0.122722 0.0369971 0)
(0.116567 0.0378758 0)
(0.110417 0.0385888 0)
(0.104281 0.0391844 0)
(0.0981641 0.0397038 0)
(0.0920682 0.0401831 0)
(0.0859926 0.0406532 0)
(0.0799335 0.0411398 0)
(0.0738844 0.0416618 0)
(0.0678353 0.0422287 0)
(0.0617719 0.042837 0)
(0.0556734 0.0434644 0)
(0.049509 0.0440627 0)
(0.0432301 0.0445494 0)
(0.0367577 0.0447984 0)
(0.0299527 0.044633 0)
(0.0226181 0.0438235 0)
(0.0147576 0.0420766 0)
(0.00661235 0.038331 0)
(0.0419782 0.0268854 0)
(0.12248 -0.174525 0)
(0.16109 -0.234098 0)
(0.186887 -0.212315 0)
(0.201044 -0.168391 0)
(0.205985 -0.126068 0)
(0.205626 -0.0910642 0)
(0.202382 -0.0632527 0)
(0.197619 -0.041273 0)
(0.192116 -0.0238053 0)
(0.186272 -0.00982537 0)
(0.180276 0.00141617 0)
(0.174212 0.0104689 0)
(0.168114 0.0177475 0)
(0.161993 0.0235775 0)
(0.155855 0.028224 0)
(0.149702 0.0319073 0)
(0.143541 0.0348122 0)
(0.137381 0.0370935 0)
(0.131233 0.0388796 0)
(0.125106 0.0402765 0)
(0.119011 0.0413712 0)
(0.112955 0.0422352 0)
(0.106943 0.0429283 0)
(0.100977 0.0435007 0)
(0.0950584 0.043996 0)
(0.0891847 0.044452 0)
(0.0833518 0.0449019 0)
(0.0775522 0.0453732 0)
(0.0717753 0.0458873 0)
(0.0660061 0.046457 0)
(0.060224 0.0470832 0)
(0.0544002 0.0477506 0)
(0.0484933 0.0484217 0)
(0.042443 0.0490312 0)
(0.0361582 0.0494799 0)
(0.0294942 0.0496307 0)
(0.022266 0.0493066 0)
(0.0144893 0.0482652 0)
(0.00643266 0.0453925 0)
(0.123905 -0.0856733 0)
(0.207485 -0.235348 0)
(0.233328 -0.257491 0)
(0.240762 -0.220813 0)
(0.239566 -0.170207 0)
(0.233175 -0.124222 0)
(0.224688 -0.0872756 0)
(0.215603 -0.0585676 0)
(0.206576 -0.0362616 0)
(0.197908 -0.0187452 0)
(0.189685 -0.00483271 0)
(0.181886 0.00630641 0)
(0.174452 0.0152582 0)
(0.167317 0.0224505 0)
(0.160417 0.0282111 0)
(0.153702 0.0328026 0)
(0.147135 0.0364407 0)
(0.140689 0.0393056 0)
(0.134346 0.0415484 0)
(0.128099 0.0432953 0)
(0.12194 0.0446511 0)
(0.115867 0.0457028 0)
(0.109877 0.0465223 0)
(0.103968 0.0471704 0)
(0.098137 0.0476987 0)
(0.0923784 0.048152 0)
(0.0866864 0.04857 0)
(0.0810528 0.0489873 0)
(0.0754662 0.049434 0)
(0.0699115 0.0499344 0)
(0.0643687 0.050505 0)
(0.0588112 0.0511523 0)
(0.0532034 0.0518688 0)
(0.0474959 0.0526287 0)
(0.0416204 0.0533836 0)
(0.0354798 0.0540589 0)
(0.0289307 0.0545503 0)
(0.0218057 0.0547199 0)
(0.0141346 0.0543573 0)
(0.0062185 0.0522833 0)
(0.0252605 -0.303453 0)
(0.066105 -0.348988 0)
(0.106287 -0.326796 0)
(0.142323 -0.304601 0)
(0.175227 -0.287468 0)
(0.205733 -0.274577 0)
(0.234393 -0.265067 0)
(0.261683 -0.258347 0)
(0.288015 -0.254018 0)
(0.313744 -0.251794 0)
(0.339169 -0.25147 0)
(0.364542 -0.252892 0)
(0.390076 -0.255943 0)
(0.415941 -0.260527 0)
(0.442273 -0.266554 0)
(0.46917 -0.273927 0)
(0.49669 -0.282526 0)
(0.524852 -0.292184 0)
(0.55363 -0.302662 0)
(0.58295 -0.313624 0)
(0.612689 -0.324602 0)
(0.642671 -0.334962 0)
(0.672672 -0.343869 0)
(0.702414 -0.350248 0)
(0.731565 -0.352758 0)
(0.759734 -0.349781 0)
(0.786464 -0.339437 0)
(0.811276 -0.319626 0)
(0.833437 -0.28808 0)
(0.850401 -0.243425 0)
(0.862057 -0.188012 0)
(0.873496 -0.129985 0)
(0.885837 -0.0756564 0)
(0.891275 -0.0284287 0)
(0.856515 0.0354686 0)
(0.7849 0.114718 0)
(0.694434 0.196683 0)
(0.5953 0.280375 0)
(0.494489 0.37367 0)
(0.397559 0.484155 0)
(0.310509 0.619082 0)
(0.240658 0.786274 0)
(0.197003 0.99534 0)
(0.178671 1.26853 0)
(0.311227 1.64015 0)
(0.397399 2.30921 0)
(0.0244127 -0.336526 0)
(0.0636565 -0.381462 0)
(0.102233 -0.355681 0)
(0.137169 -0.330874 0)
(0.16934 -0.311729 0)
(0.199299 -0.297254 0)
(0.227499 -0.286522 0)
(0.254354 -0.278902 0)
(0.280233 -0.273954 0)
(0.305462 -0.271356 0)
(0.330324 -0.270866 0)
(0.35506 -0.272299 0)
(0.379872 -0.275505 0)
(0.404921 -0.280359 0)
(0.430335 -0.286743 0)
(0.456199 -0.294529 0)
(0.482562 -0.303567 0)
(0.50943 -0.313654 0)
(0.536765 -0.324519 0)
(0.564485 -0.335788 0)
(0.592464 -0.346958 0)
(0.620531 -0.357359 0)
(0.648473 -0.366117 0)
(0.676038 -0.372124 0)
(0.702931 -0.374 0)
(0.728808 -0.370085 0)
(0.753284 -0.358435 0)
(0.776019 -0.336809 0)
(0.79599 -0.30271 0)
(0.810105 -0.255094 0)
(0.821475 -0.198242 0)
(0.834072 -0.139067 0)
(0.858566 -0.0777947 0)
(0.843454 -0.00580195 0)
(0.783279 0.0856533 0)
(0.702839 0.180337 0)
(0.615887 0.267655 0)
(0.528022 0.35249 0)
(0.443726 0.442789 0)
(0.368256 0.54588 0)
(0.307974 0.668216 0)
(0.271117 0.816212 0)
(0.27053 0.996995 0)
(0.312506 1.22094 0)
(0.502782 1.49929 0)
(0.771489 1.97129 0)
(0.023543 -0.368751 0)
(0.0611558 -0.412784 0)
(0.0981076 -0.383781 0)
(0.131896 -0.356662 0)
(0.163266 -0.335692 0)
(0.192622 -0.319733 0)
(0.220331 -0.307822 0)
(0.246742 -0.299305 0)
(0.272181 -0.293716 0)
(0.296942 -0.290703 0)
(0.321287 -0.289997 0)
(0.34544 -0.29138 0)
(0.369589 -0.294675 0)
(0.393887 -0.299726 0)
(0.418448 -0.306386 0)
(0.44335 -0.314497 0)
(0.468628 -0.323875 0)
(0.494281 -0.334288 0)
(0.520263 -0.345428 0)
(0.546488 -0.356891 0)
(0.57283 -0.368138 0)
(0.599127 -0.378471 0)
(0.625184 -0.386989 0)
(0.650775 -0.392554 0)
(0.675641 -0.39376 0)
(0.699486 -0.388907 0)
(0.722011 -0.375991 0)
(0.743019 -0.352608 0)
(0.760654 -0.316277 0)
(0.772893 -0.266741 0)
(0.785016 -0.210438 0)
(0.802708 -0.15255 0)
(0.824439 -0.0724832 0)
(0.78447 0.0294866 0)
(0.713502 0.141716 0)
(0.63608 0.243354 0)
(0.558645 0.331825 0)
(0.484073 0.414013 0)
(0.416475 0.497953 0)
(0.360883 0.590177 0)
(0.323609 0.695865 0)
(0.312953 0.819363 0)
(0.341854 0.963479 0)
(0.42001 1.12626 0)
(0.597463 1.30773 0)
(0.926486 1.54819 0)
(0.0226681 -0.400081 0)
(0.058648 -0.442944 0)
(0.0939806 -0.41106 0)
(0.126591 -0.381913 0)
(0.157103 -0.359302 0)
(0.185801 -0.341972 0)
(0.212976 -0.328941 0)
(0.238919 -0.319547 0)
(0.263913 -0.313308 0)
(0.288219 -0.309854 0)
(0.312071 -0.308888 0)
(0.335677 -0.310168 0)
(0.359208 -0.313488 0)
(0.382805 -0.318665 0)
(0.406571 -0.325521 0)
(0.430573 -0.333871 0)
(0.454839 -0.343498 0)
(0.479357 -0.354136 0)
(0.50408 -0.36545 0)
(0.528919 -0.377002 0)
(0.553754 -0.388229 0)
(0.578436 -0.398406 0)
(0.60279 -0.406612 0)
(0.626618 -0.411688 0)
(0.649698 -0.412207 0)
(0.671777 -0.406441 0)
(0.692691 -0.392322 0)
(0.712247 -0.36727 0)
(0.727457 -0.329192 0)
(0.739096 -0.27923 0)
(0.752473 -0.22448 0)
(0.784628 -0.156542 0)
(0.780322 -0.0540458 0)
(0.721539 0.0741462 0)
(0.650942 0.197746 0)
(0.581568 0.301092 0)
(0.51497 0.387127 0)
(0.453754 0.464204 0)
(0.401621 0.539711 0)
(0.363061 0.619206 0)
(0.343729 0.706667 0)
(0.350794 0.804457 0)
(0.394488 0.912109 0)
(0.484609 1.02182 0)
(0.634658 1.12669 0)
(0.921701 1.22258 0)
(0.0217983 -0.430486 0)
(0.0561611 -0.471942 0)
(0.0898939 -0.437498 0)
(0.121307 -0.406583 0)
(0.150916 -0.382509 0)
(0.178904 -0.363925 0)
(0.205499 -0.349844 0)
(0.230942 -0.339606 0)
(0.255473 -0.332723 0)
(0.279318 -0.328809 0)
(0.302688 -0.32755 0)
(0.325766 -0.328679 0)
(0.348711 -0.331967 0)
(0.371646 -0.337204 0)
(0.394665 -0.344184 0)
(0.417823 -0.35269 0)
(0.441141 -0.362478 0)
(0.464604 -0.373252 0)
(0.48816 -0.384646 0)
(0.511724 -0.396199 0)
(0.535185 -0.407323 0)
(0.558407 -0.417275 0)
(0.58124 -0.425118 0)
(0.603512 -0.42968 0)
(0.625034 -0.429517 0)
(0.645608 -0.422878 0)
(0.665229 -0.407636 0)
(0.683359 -0.381133 0)
(0.696449 -0.341819 0)
(0.708604 -0.292934 0)
(0.72403 -0.24171 0)
(0.762359 -0.152016 0)
(0.727923 -0.0230573 0)
(0.661043 0.123111 0)
(0.595983 0.250448 0)
(0.535564 0.351591 0)
(0.479689 0.433254 0)
(0.430847 0.503821 0)
(0.392086 0.5699 0)
(0.367141 0.636266 0)
(0.360608 0.705969 0)
(0.378061 0.780111 0)
(0.426594 0.856787 0)
(0.513752 0.927704 0)
(0.640449 0.981451 0)
(0.854221 1.00449 0)
(0.0209392 -0.459951 0)
(0.053711 -0.499789 0)
(0.0858713 -0.463078 0)
(0.116079 -0.430635 0)
(0.144746 -0.405267 0)
(0.171977 -0.385546 0)
(0.197947 -0.370492 0)
(0.222851 -0.359453 0)
(0.246891 -0.35194 0)
(0.270261 -0.34756 0)
(0.293145 -0.345983 0)
(0.315705 -0.346923 0)
(0.338081 -0.350129 0)
(0.360384 -0.355365 0)
(0.382693 -0.3624 0)
(0.405057 -0.370989 0)
(0.427489 -0.380859 0)
(0.449969 -0.391688 0)
(0.472447 -0.403082 0)
(0.494843 -0.414559 0)
(0.517056 -0.425514 0)
(0.538969 -0.43519 0)
(0.560451 -0.442638 0)
(0.581358 -0.446677 0)
(0.60153 -0.445852 0)
(0.620835 -0.438389 0)
(0.639413 -0.422102 0)
(0.655832 -0.394502 0)
(0.667479 -0.35469 0)
(0.680587 -0.307774 0)
(0.701708 -0.25557 0)
(0.720925 -0.141792 0)
(0.668705 0.015975 0)
(0.604005 0.171511 0)
(0.547054 0.297666 0)
(0.495403 0.394589 0)
(0.449546 0.470823 0)
(0.411524 0.534207 0)
(0.383713 0.590713 0)
(0.369008 0.644548 0)
(0.370857 0.6982 0)
(0.393248 0.752162 0)
(0.440739 0.804131 0)
(0.517846 0.847031 0)
(0.622974 0.868482 0)
(0.774175 0.854494 0)
(0.0200934 -0.488467 0)
(0.0513056 -0.526498 0)
(0.0819247 -0.487794 0)
(0.110925 -0.454038 0)
(0.13862 -0.427533 0)
(0.165052 -0.40679 0)
(0.190352 -0.390843 0)
(0.214678 -0.379053 0)
(0.238194 -0.370935 0)
(0.261065 -0.366091 0)
(0.28345 -0.364179 0)
(0.30549 -0.3649 0)
(0.327307 -0.367981 0)
(0.348996 -0.373164 0)
(0.370627 -0.380193 0)
(0.392237 -0.388799 0)
(0.413836 -0.398681 0)
(0.435402 -0.409492 0)
(0.456884 -0.420819 0)
(0.478212 -0.432159 0)
(0.499296 -0.442893 0)
(0.520034 -0.452256 0)
(0.540318 -0.459291 0)
(0.560025 -0.462812 0)
(0.579021 -0.461352 0)
(0.597268 -0.453116 0)
(0.614926 -0.435835 0)
(0.629313 -0.407479 0)
(0.640431 -0.367985 0)
(0.653348 -0.323398 0)
(0.685201 -0.256982 0)
(0.673215 -0.116884 0)
(0.610615 0.0590396 0)
(0.552517 0.216711 0)
(0.503177 0.338771 0)
(0.459624 0.43055 0)
(0.422593 0.500844 0)
(0.393606 0.556917 0)
(0.374361 0.604279 0)
(0.366941 0.646788 0)
(0.373748 0.686634 0)
(0.397392 0.724102 0)
(0.440554 0.75698 0)
(0.505315 0.779501 0)
(0.589659 0.78117 0)
(0.696446 0.750148 0)
(0.019262 -0.516029 0)
(0.0489479 -0.552084 0)
(0.0780584 -0.511638 0)
(0.105853 -0.476765 0)
(0.132552 -0.44927 0)
(0.158149 -0.427616 0)
(0.182739 -0.410857 0)
(0.206445 -0.398369 0)
(0.229402 -0.389676 0)
(0.251748 -0.384377 0)
(0.273615 -0.382124 0)
(0.295126 -0.382602 0)
(0.316383 -0.385523 0)
(0.33747 -0.390608 0)
(0.358444 -0.397579 0)
(0.379335 -0.406142 0)
(0.400147 -0.415976 0)
(0.420857 -0.426709 0)
(0.441418 -0.437912 0)
(0.461766 -0.449065 0)
(0.481824 -0.459541 0)
(0.501506 -0.468566 0)
(0.52072 -0.475179 0)
(0.539359 -0.478189 0)
(0.557319 -0.476124 0)
(0.574661 -0.467162 0)
(0.591354 -0.448956 0)
(0.603678 -0.419937 0)
(0.61507 -0.381541 0)
(0.628039 -0.340304 0)
(0.665614 -0.245272 0)
(0.623838 -0.0814489 0)
(0.558358 0.103429 0)
(0.506397 0.25774 0)
(0.463681 0.374201 0)
(0.427207 0.460309 0)
(0.397675 0.524484 0)
(0.375974 0.573477 0)
(0.363187 0.612483 0)
(0.360686 0.645156 0)
(0.370009 0.673556 0)
(0.392706 0.697976 0)
(0.430161 0.716559 0)
(0.482958 0.724786 0)
(0.548875 0.714957 0)
(0.625154 0.678281 0)
(0.0184449 -0.542635 0)
(0.0466377 -0.57656 0)
(0.0742717 -0.534606 0)
(0.100865 -0.498795 0)
(0.12655 -0.470444 0)
(0.15128 -0.447984 0)
(0.175122 -0.430492 0)
(0.198171 -0.417364 0)
(0.220533 -0.40813 0)
(0.242322 -0.402392 0)
(0.263649 -0.399796 0)
(0.284616 -0.400016 0)
(0.30531 -0.40275 0)
(0.325799 -0.4077 0)
(0.346131 -0.414568 0)
(0.366329 -0.423041 0)
(0.386392 -0.432774 0)
(0.406297 -0.443379 0)
(0.425999 -0.45441 0)
(0.445444 -0.465338 0)
(0.464565 -0.475526 0)
(0.483289 -0.484196 0)
(0.501535 -0.490383 0)
(0.519209 -0.492887 0)
(0.536228 -0.490228 0)
(0.552756 -0.480564 0)
(0.568152 -0.461574 0)
(0.578855 -0.432128 0)
(0.590695 -0.395042 0)
(0.60562 -0.35442 0)
(0.627063 -0.230413 0)
(0.570975 -0.0404105 0)
(0.509703 0.14608 0)
(0.464474 0.294424 0)
(0.427637 0.404504 0)
(0.397405 0.484723 0)
(0.374111 0.54286 0)
(0.358142 0.585252 0)
(0.350087 0.616869 0)
(0.350744 0.641244 0)
(0.361 0.660402 0)
(0.381652 0.674754 0)
(0.413252 0.682906 0)
(0.455611 0.681485 0)
(0.506377 0.665049 0)
(0.561399 0.628021 0)
(0.0176416 -0.568282 0)
(0.0443727 -0.599939 0)