# vtk DataFile Version 2.0
track0
ASCII
DATASET POLYDATA
POINTS 12045 float
-0.0205 0.001 1e-05
-0.02052 0.000999985 1e-05
-0.02054 0.000999974 1e-05
-0.02056 0.000999965 1e-05
-0.02058 0.000999959 1e-05
-0.0206 0.000999956 1e-05
-0.0205 0.00367778 1e-05
-0.02052 0.00367778 1e-05
-0.02054 0.00367777 1e-05
-0.02056 0.00367777 1e-05
-0.02058 0.00367777 1e-05
-0.0206 0.00367777 1e-05
-0.0205 0.00635556 1e-05
-0.02052 0.00635555 1e-05
-0.02054 0.00635555 1e-05
-0.02056 0.00635555 1e-05
-0.02058 0.00635555 1e-05
-0.0206 0.00635555 1e-05
-0.0205 0.00903333 1e-05
-0.02052 0.00903333 1e-05
-0.02054 0.00903333 1e-05
-0.02056 0.00903333 1e-05
-0.02058 0.00903333 1e-05
-0.0206 0.00903333 1e-05
-0.0205 0.0117111 1e-05
-0.02052 0.0117111 1e-05
-0.02054 0.0117111 1e-05
-0.02056 0.0117111 1e-05
-0.02058 0.0117111 1e-05
-0.0206 0.0117111 1e-05
-0.0205 0.0143889 1e-05
-0.02052 0.0143889 1e-05
-0.02054 0.0143889 1e-05
-0.02056 0.0143889 1e-05
-0.02058 0.0143889 1e-05
-0.0206 0.0143889 1e-05
-0.0205 0.0170667 1e-05
-0.02052 0.0170667 1e-05
-0.02054 0.0170667 1e-05
-0.02056 0.0170667 1e-05
-0.02058 0.0170667 1e-05
-0.0206 0.0170667 1e-05
-0.0205 0.0197444 1e-05
-0.02052 0.0197444 1e-05
-0.02054 0.0197444 1e-05
-0.02056 0.0197444 1e-05
-0.02058 0.0197444 1e-05
-0.0206 0.0197444 1e-05
-0.0205 0.0224222 1e-05
-0.02052 0.0224222 1e-05
-0.02054 0.0224222 1e-05
-0.02056 0.0224222 1e-05
-0.02058 0.0224222 1e-05
-0.0206 0.0224222 1e-05
-0.0205 0.0251 1e-05
-0.02052 0.0250998 1e-05
-0.02054 0.0250997 1e-05
-0.02056 0.0250995 1e-05
-0.02058 0.0250995 1e-05
-0.0206 0.0250994 1e-05
-0.0205 0.001 1e-05
-0.0202034 0.00100022 1e-05
-0.0199069 0.00100067 1e-05
-0.0196103 0.00100133 1e-05
-0.0193137 0.0010022 1e-05
-0.0190172 0.00100328 1e-05
-0.0187132 0.00100469 1e-05
-0.0184093 0.00100593 1e-05
-0.0181054 0.00100716 1e-05
-0.0178015 0.00100839 1e-05
-0.0174976 0.00100962 1e-05
-0.0172058 0.00101094 1e-05
-0.016914 0.00101206 1e-05
-0.0166222 0.00101319 1e-05
-0.0163305 0.00101431 1e-05
-0.0160387 0.00101544 1e-05
-0.0157586 0.00101661 1e-05
-0.0154784 0.00101772 1e-05
-0.0151983 0.00101887 1e-05
-0.0149182 0.00102006 1e-05
-0.0146381 0.00102129 1e-05
-0.0143996 0.0010224 1e-05
-0.0141611 0.00102351 1e-05
-0.0139227 0.00102464 1e-05
-0.0136842 0.00102581 1e-05
-0.0134823 0.00102682 1e-05
-0.0134446 0.00102701 1e-05
-0.0134068 0.0010272 1e-05
-0.013369 0.0010274 1e-05
-0.0133312 0.00102759 1e-05
-0.0132934 0.00102779 1e-05
-0.0130353 0.00102913 1e-05
-0.0127771 0.00103049 1e-05
-0.0125189 0.00103187 1e-05
-0.0122607 0.00103327 1e-05
-0.0120025 0.00103468 1e-05
-0.0117547 0.00103606 1e-05
-0.0115068 0.00103745 1e-05
-0.0112589 0.00103884 1e-05
-0.0110111 0.00104025 1e-05
-0.0107632 0.00104166 1e-05
-0.0105252 0.00104302 1e-05
-0.0102873 0.00104439 1e-05
-0.0100493 0.00104576 1e-05
-0.00981133 0.00104714 1e-05
-0.00957337 0.00104852 1e-05
-0.00934491 0.00104984 1e-05
-0.00911645 0.00105117 1e-05
-0.00888799 0.00105251 1e-05
-0.00865954 0.00105384 1e-05
-0.00843108 0.00105518 1e-05
-0.00821175 0.00105646 1e-05
-0.00799242 0.00105775 1e-05
-0.00777309 0.00105904 1e-05
-0.00755376 0.00106033 1e-05
-0.00733443 0.00106163 1e-05
-0.00712387 0.00106286 1e-05
-0.0069133 0.00106411 1e-05
-0.00670273 0.00106536 1e-05
-0.00649217 0.00106661 1e-05
-0.0062816 0.00106786 1e-05
-0.00607944 0.00106906 1e-05
-0.00587729 0.00107028 1e-05
-0.00567514 0.00107149 1e-05
-0.00547298 0.00107271 1e-05
-0.00527083 0.00107394 1e-05
-0.00507675 0.00107512 1e-05
-0.00488267 0.00107631 1e-05
-0.0046886 0.00107751 1e-05
-0.00449452 0.00107872 1e-05
-0.00430044 0.00107994 1e-05
-0.00411412 0.00108111 1e-05
-0.0039278 0.0010823 1e-05
-0.00374147 0.0010835 1e-05
-0.00355515 0.00108472 1e-05
-0.00336883 0.00108594 1e-05
-0.00318995 0.00108713 1e-05
-0.00301107 0.00108835 1e-05
-0.00283219 0.00108958 1e-05
-0.00265331 0.00109083 1e-05
-0.00247443 0.00109211 1e-05
-0.0023027 0.00109335 1e-05
-0.00213097 0.00109463 1e-05
-0.00195924 0.00109593 1e-05
-0.00178751 0.00109727 1e-05
-0.00161577 0.00109864 1e-05
-0.0014509 0.00109998 1e-05
-0.00128603 0.00110137 1e-05
-0.00112116 0.00110281 1e-05
-0.000956292 0.00110431 1e-05
-0.000791418 0.00110586 1e-05
-0.000633135 0.0011074 1e-05
-0.000474852 0.00110901 1e-05
-0.00031657 0.00111069 1e-05
-0.000158288 0.00111244 1e-05
0 0.00111427 1e-05
0.000105677 0.00111553 1e-05
0.000211354 0.00111682 1e-05
0.000317031 0.00111815 1e-05
0.000422707 0.00111951 1e-05
0.000528387 0.00112091 1e-05
0.000634886 0.00112233 1e-05
0.000741385 0.00112378 1e-05
0.000847884 0.00112524 1e-05
0.000954382 0.00112672 1e-05
0.00106088 0.00112821 1e-05
0.00116821 0.00112973 1e-05
0.00127554 0.00113126 1e-05
0.00138286 0.00113281 1e-05
0.00149019 0.00113437 1e-05
0.00159752 0.00113594 1e-05
0.00170568 0.00113753 1e-05
0.00181384 0.00113915 1e-05
0.001922 0.00114078 1e-05
0.00203016 0.00114243 1e-05
0.00213833 0.0011441 1e-05
0.00224733 0.00114578 1e-05
0.00235633 0.00114749 1e-05
0.00246533 0.00114923 1e-05
0.00257433 0.00115098 1e-05
0.00268334 0.00115276 1e-05
0.00279319 0.00115455 1e-05
0.00290304 0.00115637 1e-05
0.00301289 0.00115821 1e-05
0.00312273 0.00116008 1e-05
0.00323259 0.00116196 1e-05
0.00334329 0.00116386 1e-05
0.00345399 0.0011658 1e-05
0.0035647 0.00116776 1e-05
0.0036754 0.00116974 1e-05
0.00378611 0.00117174 1e-05
0.00389767 0.00117377 1e-05
0.00400924 0.00117584 1e-05
0.0041208 0.00117793 1e-05
0.00423236 0.00118005 1e-05
0.00434393 0.00118218 1e-05
0.00445636 0.00118435 1e-05
0.00456879 0.00118657 1e-05
0.00468122 0.00118881 1e-05
0.00479365 0.00119108 1e-05
0.00490609 0.00119337 1e-05
0.0050194 0.00119569 1e-05
0.0051327 0.00119806 1e-05
0.00524601 0.00120047 1e-05
0.00535931 0.0012029 1e-05
0.00547262 0.00120535 1e-05
0.00558681 0.00120783 1e-05
0.00570099 0.00121037 1e-05
0.00581518 0.00121295 1e-05
0.00592936 0.00121556 1e-05
0.00604356 0.00121818 1e-05
0.00615863 0.00122083 1e-05
0.0062737 0.00122354 1e-05
0.00638878 0.0012263 1e-05
0.00650385 0.00122908 1e-05
0.00661893 0.00123188 1e-05
0.0067349 0.00123469 1e-05
0.00685087 0.00123757 1e-05
0.00696683 0.0012405 1e-05
0.0070828 0.00124346 1e-05
0.00719878 0.00124642 1e-05
0.00731565 0.00124939 1e-05
0.00743252 0.00125244 1e-05
0.00754939 0.00125554 1e-05
0.00766625 0.00125866 1e-05
0.00778313 0.00126179 1e-05
0.00790091 0.00126492 1e-05
0.00801869 0.00126812 1e-05
0.00813647 0.00127138 1e-05
0.00825424 0.00127467 1e-05
0.00837203 0.00127794 1e-05
0.00849073 0.00128122 1e-05
0.00860942 0.00128457 1e-05
0.00872811 0.00128798 1e-05
0.00884681 0.00129141 1e-05
0.00896551 0.00129483 1e-05
0.00908513 0.00129825 1e-05
0.00920475 0.00130173 1e-05
0.00932436 0.00130528 1e-05
0.00944397 0.00130885 1e-05
0.0095636 0.0013124 1e-05
0.00968415 0.00131595 1e-05
0.0098047 0.00131956 1e-05
0.00992524 0.00132323 1e-05
0.0100458 0.00132692 1e-05
0.0101663 0.00133059 1e-05
0.0102878 0.00133426 1e-05
0.0104093 0.00133799 1e-05
0.0105308 0.00134177 1e-05
0.0106523 0.00134557 1e-05
0.0107738 0.00134935 1e-05
0.0108962 0.00135313 1e-05
0.0110186 0.00135696 1e-05
0.0111411 0.00136085 1e-05
0.0112635 0.00136474 1e-05
0.0113859 0.00136862 1e-05
0.0115093 0.0013725 1e-05
0.0116327 0.00137643 1e-05
0.0117561 0.0013804 1e-05
0.0118794 0.00138438 1e-05
0.0120028 0.00138834 1e-05
0.0121272 0.00139232 1e-05
0.0122515 0.00139633 1e-05
0.0123759 0.00140037 1e-05
0.0125002 0.00140442 1e-05
0.0126245 0.00140846 1e-05
0.0127498 0.00141253 1e-05
0.0128752 0.00141661 1e-05
0.0130005 0.00142071 1e-05
0.0131258 0.00142482 1e-05
0.0132511 0.00142893 1e-05
0.0133774 0.00143306 1e-05
0.0135036 0.00143721 1e-05
0.0136299 0.00144136 1e-05
0.0137562 0.00144552 1e-05
0.0138825 0.00144969 1e-05
0.0140098 0.00145388 1e-05
0.014137 0.00145808 1e-05
0.0142643 0.00146228 1e-05
0.0143915 0.00146648 1e-05
0.0145188 0.00147068 1e-05
0.0146471 0.00147492 1e-05
0.0147753 0.00147916 1e-05
0.0149036 0.00148339 1e-05
0.0150318 0.00148763 1e-05
0.0151601 0.00149186 1e-05
0.0152893 0.00149614 1e-05
0.0154186 0.00150041 1e-05
0.0155478 0.00150466 1e-05
0.0156771 0.00150891 1e-05
0.0158063 0.00151317 1e-05
0.0159366 0.00151747 1e-05
0.0160668 0.00152175 1e-05
0.0161971 0.00152602 1e-05
0.0163274 0.00153029 1e-05
0.0164576 0.00153455 1e-05
0.0165889 0.00153886 1e-05
0.0167201 0.00154315 1e-05
0.0168514 0.00154742 1e-05
0.0169827 0.00155168 1e-05
0.0171139 0.00155594 1e-05
0.0172462 0.00156025 1e-05
0.0173785 0.00156453 1e-05
0.0175108 0.00156879 1e-05
0.0176431 0.00157304 1e-05
0.0177754 0.00157729 1e-05
0.0179087 0.00158158 1e-05
0.018042 0.00158584 1e-05
0.0181753 0.00159009 1e-05
0.0183087 0.00159432 1e-05
0.018442 0.00159854 1e-05
0.0185763 0.0016028 1e-05
0.0187107 0.00160703 1e-05
0.018845 0.00161124 1e-05
0.0189794 0.00161544 1e-05
0.0191137 0.00161962 1e-05
0.0192491 0.00162384 1e-05
0.0193845 0.00162803 1e-05
0.0195199 0.00163219 1e-05
0.0196553 0.00163634 1e-05
0.0197907 0.00164047 1e-05
0.0199272 0.00164463 1e-05
0.0200636 0.00164876 1e-05
0.0202001 0.00165286 1e-05
0.0203365 0.00165695 1e-05
0.020473 0.001661 1e-05
0.0206105 0.00166509 1e-05
0.020748 0.00166914 1e-05
0.0208855 0.00167317 1e-05
0.021023 0.00167717 1e-05
0.0211606 0.00168114 1e-05
0.0212991 0.00168514 1e-05
0.0214377 0.0016891 1e-05
0.0215763 0.00169303 1e-05
0.0217149 0.00169693 1e-05
0.0218535 0.0017008 1e-05
0.0219931 0.00170469 1e-05
0.0221328 0.00170854 1e-05
0.0222724 0.00171235 1e-05
0.0224121 0.00171614 1e-05
0.0225517 0.00171989 1e-05
0.0226925 0.00172365 1e-05
0.0228332 0.00172736 1e-05
0.022974 0.00173104 1e-05
0.0231147 0.00173468 1e-05
0.0232555 0.00173829 1e-05
0.0233973 0.00174189 1e-05
0.0235391 0.00174546 1e-05
0.023681 0.00174898 1e-05
0.0238228 0.00175246 1e-05
0.0239647 0.0017559 1e-05
0.0241076 0.00175933 1e-05
0.0242505 0.00176271 1e-05
0.0243935 0.00176605 1e-05
0.0245364 0.00176935 1e-05
0.0246794 0.0017726 1e-05
0.0248234 0.00177583 1e-05
0.0249675 0.00177901 1e-05
0.0251115 0.00178215 1e-05
0.0252556 0.00178523 1e-05
0.0253996 0.00178827 1e-05
0.0255448 0.00179128 1e-05
0.02569 0.00179423 1e-05
0.0258352 0.00179713 1e-05
0.0259803 0.00179997 1e-05
[...]
POINT_DATA 12045
 FIELD attributes 3
age 1 12045 float
0 -2e-05 -4e-05 -6e-05 -8e-05 -0.0001
0 -2e-05 -4e-05 -6e-05 -8e-05 -0.0001
0 -2e-05 -4e-05 -6e-05 -8e-05 -0.0001
0 -2e-05 -4e-05 -6e-05 -8e-05 -0.0001
0 -2e-05 -4e-05 -6e-05 -8e-05 -0.0001
0 -2e-05 -4e-05 -6e-05 -8e-05 -0.0001
0 -2e-05 -4e-05 -6e-05 -8e-05 -0.0001
0 -2e-05 -4e-05 -6e-05 -8e-05 -0.0001
0 -2e-05 -4e-05 -6e-05 -8e-05 -0.0001
0 -2.00009e-05 -4.00018e-05 -6.00027e-05 -8.00036e-05 -0.000100002
0 0.000296567 0.000593135 0.000889702 0.00118627 0.00148284 0.00178676 0.00209069 0.00239461 0.00269853 0.00300245 0.00329423 0.00358601 0.00387779 0.00416957 0.00446135 0.00474147 0.00502159 0.00530171 0.00558184 0.00586196 0.00610043 0.0063389 0.00657738 0.00681585 0.00701772 0.0070555 0.00709328 0.00713106 0.00716883 0.00720661 0.0074648 0.00772299 0.00798117 0.00823936 0.00849755 0.00874542 0.00899329 0.00924116 0.00948903 0.00973691 0.00997487 0.0102128 0.0104508 0.0106888 0.0109267 0.0111552 0.0113837 0.0116121 0.0118406 0.0120691 0.0122884 0.0125077 0.0127271 0.0129464 0.0131657 0.0133763 0.0135869 0.0137974 0.014008 0.0142186 0.0144207 0.0146229 0.014825 0.0150272 0.0152294 0.0154234 0.0156175 0.0158116 0.0160057 0.0161998 0.0163861 0.0165724 0.0167587 0.0169451 0.0171314 0.0173103 0.0174892 0.017668 0.0178469 0.0180258 0.0181976 0.0183693 0.018541 0.0187128 0.0188845 0.0190494 0.0192143 0.0193791 0.019544 0.0197089 0.0198672 0.0200255 0.0201838 0.0203421 0.0205004 0.020606 0.0207117 0.0208174 0.0209231 0.0210288 0.0211353 0.0212418 0.0213483 0.0214548 0.0215613 0.0216687 0.021776 0.0218833 0.0219907 0.022098 0.0222062 0.0223144 0.0224225 0.0225307 0.0226389 0.0227479 0.0228569 0.0229659 0.0230749 0.023184 0.0232938 0.0234037 0.0235136 0.0236234 0.0237333 0.023844 0.0239547 0.0240655 0.0241762 0.0242869 0.0243985 0.0245101 0.0246216 0.0247332 0.0248448 0.0249573 0.0250697 0.0251822 0.0252946 0.0254071 0.0255204 0.0256338 0.0257471 0.0258604 0.0259737 0.026088 0.0262022 0.0263164 0.0264306 0.0265448 0.0266599 0.026775 0.0268901 0.0270053 0.0271204 0.0272364 0.0273524 0.0274684 0.0275844 0.0277004 0.0278173 0.0279342 0.0280511 0.028168 0.028285 0.0284028 0.0285206 0.0286384 0.0287562 0.0288741 0.0289928 0.0291116 0.0292303 0.029349 0.0294678 0.0295875 0.0297071 0.0298268 0.0299465 0.0300661 0.0301867 0.0303073 0.0304279 0.0305485 0.0306692 0.0307907 0.0309122 0.0310338 0.0311553 0.0312769 0.0313994 0.0315219 0.0316443 0.0317668 0.0318893 0.0320128 0.0321362 0.0322597 0.0323831 0.0325066 0.032631 0.0327554 0.0328798 0.0330042 0.0331286 0.033254 0.0333793 0.0335047 0.0336301 0.0337555 0.0338818 0.0340082 0.0341345 0.0342609 0.0343872 0.0345145 0.0346419 0.0347692 0.0348965 0.0350239 0.0351522 0.0352805 0.0354088 0.0355372 0.0356655 0.0357948 0.0359241 0.0360535 0.0361828 0.0363121 0.0364424 0.0365728 0.0367031 0.0368334 0.0369637 0.0370951 0.0372264 0.0373577 0.0374891 0.0376204 0.0377528 0.0378851 0.0380175 0.0381499 0.0382822 0.0384156 0.038549 0.0386824 0.0388157 0.0389491 0.0390836 0.039218 0.0393524 0.0394868 0.0396212 0.0397567 0.0398922 0.0400276 0.0401631 0.0402985 0.0404351 0.0405716 0.0407081 0.0408446 0.0409811 0.0411187 0.0412562 0.0413938 0.0415314 0.041669 0.0418076 0.0419462 0.0420849 0.0422235 0.0423621 0.0425019 0.0426416 0.0427813 0.042921 0.0430607 0.0432015 0.0433423 0.0434831 0.0436239 0.0437647 0.0439065 0.0440484 0.0441903 0.0443322 0.0444741 0.0446171 0.04476 0.044903 0.045046 0.045189 0.0453331 0.0454771 0.0456212 0.0457653 0.0459094 0.0460546 0.0461998 0.046345 0.0464902 0.0466354 0.0467817 0.0469281 0.0470744 0.0472207 0.047367 0.0475145 0.047662 0.0478094 0.0479569 0.0481043 0.0482529 0.0484015 0.0485501 0.0486987 0.0488473 0.0489971 0.0491468 0.0492966 0.0494463 0.0495961 0.049747 0.0498979 0.0500488 0.0501997 0.0503506 0.0505027 0.0506548 0.0508068 0.0509589 0.051111 0.0512643 0.0514175 0.0515708 0.051724 0.0518773 0.0520318 0.0521862 0.0523407 0.0524951 0.0526496 0.0528052 0.0529609 0.0531165 0.0532722 0.0534278 0.0535847 0.0537416 0.0538984 0.0540553 0.0542122 0.0543703 0.0545284 0.0546865 0.0548446 0.0550027 0.055162 0.0553213 0.0554807 0.05564 0.0557994 0.05596 0.0561206 0.0562811 0.0564417 0.0566024 0.0567642 0.0569261 0.057088 0.0572498 0.0574117 0.0575749 0.057738 0.0579012 0.0580643 0.0582276 0.058392 0.0585565 0.0587209 0.0588854 0.05905 0.0592158 0.0593815 0.0595473 0.0597131 0.0598791 0.0600462 0.0602134 0.0603805 0.0605476 0.060715 0.0608835 0.061052 0.0612206 0.0613891 0.0615579 0.0617029 0.0618479 0.061993 0.062138 0.0622563 0.0622866 0.0623169 0.0623473 0.0623776 0.0624079 0.0625793 0.0627507 0.0629221 0.0630935 0.0632652 0.0634381 0.063611 0.0637839 0.0639568 0.0641301 0.0643046 0.064479 0.0646534 0.0648279 0.0650028 0.0651788 0.0653548 0.0655308 0.0657068 0.0658834 0.0660569 0.0662304 0.0664039 0.0665774 0.0667216 0.0667318 0.0667419 0.066752 0.0667622 0.0667723 0.0669517 0.067131 0.0673104 0.0674897 0.0676697 0.0678508 0.0680319 0.068213 0.0683941 0.068576 0.0687589 0.0689418 0.0691246 0.0693075 0.0694913 0.0695645 0.0696378 0.0697111 0.0697843 0.0698536 0.069966 0.0700784 0.0701908 0.0703032 0.070416 0.0706026 0.0707893 0.0709759 0.0711626 0.0713502 0.0715388 0.0717274 0.071916 0.0721046 0.0722942 0.0723154 0.0723366 0.0723578 0.072379 0.0723999 0.0725694 0.0727389 0.0729084 0.0730779 0.0732483 0.0734409 0.0736335 0.0738261 0.0740187 0.0742125 0.0742917 0.074371 0.0744502 0.0745294 0.0746057 0.0747219 0.0748381 0.0749543 0.0750706 0.0751872 0.075384 0.0755807 0.0757775 0.0759743 0.0761722 0.0762906 0.0764089 0.0765273 0.0766456 0.0767587 0.0768405 0.0769223 0.0770041 0.0770859 0.0771679 0.0773689 0.0775699 0.0777709 0.0779719 0.078174 0.0783218 0.0784696 0.0786174 0.0787652 0.0789065 0.0789633 0.0790202 0.079077 0.0791339 0.0791908 0.079396 0.0796013 0.0798065 0.0800117 0.080218 0.0803927 0.0805675 0.0807422 0.080917 0.0810846 0.0811188 0.081153 0.0811873 0.0812215 0.0812558 0.0814652 0.0816747 0.0818841 0.0820935 0.0823039 0.082509 0.0827142 0.0829193 0.0831245 0.0833222 0.0833302 0.0833382 0.0833463 0.0833543 0.0833624 0.083576 0.0837896 0.0840032 0.0842167 0.0844311 0.0846467 0.0848623 0.0850779 0.0852936 0.0855099 0.0855371 0.0855643 0.0855914 0.0856186 0.0856457 0.0858362 0.0860267 0.0862172 0.0864077 0.0865987 0.0868183 0.0870379 0.0872575 0.0874771 0.0876973 0.0877742 0.0878511 0.0879281 0.088005 0.0880815 0.0882263 0.0883711 0.0885159 0.0886606 0.0888056 0.0890291 0.0892526 0.089476 0.0896995 0.0899233 0.0900703 0.0902174 0.0903644 0.0905114 0.0906575 0.0907361 0.0908147 0.0908933 0.0909719 0.0910505 0.0912777 0.091505 0.0917322 0.0919594 0.0921868 0.0924158 0.0926449 0.0928739 0.093103 0.0933321 0.0933465 0.0933609 0.0933753 0.0933897 0.093404 0.0936205 0.093837 0.0940535 0.09427 0.0944864 0.0947191 0.0949517 0.0951843 0.0954169 0.0956495 0.0957903 0.095931 0.0960718 0.0962125 0.0963535 0.0964471 0.0965406 0.0966342 0.0967278 0.0968213 0.0970574 0.0972935 0.0975297 0.0977658 0.0980017 0.0982395 0.0984773 0.0987151 0.098953 0.0991905 0.0992607 0.0993309 0.0994011 0.0994713 0.0995417 0.0997109 0.0998802 0.10005 0.100219 0.100388 0.100629 0.10087 0.101111 0.101353 0.101593 0.101836 0.102079 0.102322 0.102565 0.102807 0.102848 0.102889 0.10293 0.102971 0.103012 0.103216 0.103419 0.103623 0.103826 0.104029 0.104275 0.104521 0.104767 0.105013 0.105259 0.105489 0.105719 0.105949 0.106179 0.106413 0.10643 0.106447 0.106463 0.10648 0.106497 0.106746 0.106996 0.107245 0.107494 0.107743 0.107994 0.108245 0.108495 0.108746 0.108996 0.10918 0.109364 0.109548 0.109732 0.10992 0.109987 0.110055 0.110123 0.11019 0.110258 0.110512 0.110766 0.11102 0.111273 0.111527 0.111782 0.112037 0.112293 0.112548 0.112803 0.112959 0.113114 0.11327 0.113426 0.113585 0.113685 0.113786 0.113886 0.113986 0.114087 0.114345 0.114603 0.114862 0.11512 0.115378 0.115638 0.115898 0.116157 0.116417 0.116676 0.116837 0.116997 0.117158 0.117319 0.117485 0.117584 0.117684 0.117783 0.117882 0.117982 0.118245 0.118507 0.11877 0.119033 0.119295 0.119559 0.119823 0.120088 0.120352 0.120615 0.120836 0.121057 0.121278 0.1215 0.121733 0.121775 0.121817 0.121859 0.121901 0.121943 0.12221 0.122477 0.122744 0.123012 0.123278 0.123546 0.123815 0.124084 0.124352 0.12462 0.12489 0.125161 0.125431 0.125701 0.12597 0.126079 0.126187 0.126295 0.126404 0.126516 0.126678 0.126841 0.127003 0.127166 0.127328 0.127601 0.127875 0.128148 0.128421 0.128694 0.128969 0.129244 0.129519 0.129794 0.130068 0.130344 0.130621 0.130897 0.131174 0.13145 0.131589 0.131729 0.131868 0.132008 0.132155 0.132292 0.132429 0.132566 0.132703 0.13284 0.13312 0.1334 0.13368 0.13396 0.13424 0.134521 0.134803 0.135085 0.135367 0.135648 0.135932 0.136215 0.136499 0.136782 0.137065 0.137351 0.137636 0.137922 0.138207 0.138492 0.138645 0.138797 0.13895 0.139103 0.139265 0.139397 0.13953 0.139663 0.139796 0.139929 0.140218 0.140507 0.140797 0.141086 0.141375 0.141666 0.141957 0.142249 0.14254 0.142831 0.143124 0.143418 0.143711 0.144004 0.144297 0.144593 0.144888 0.145184 0.145479 0.145774 0.146072 0.146369 0.146667 0.146964 0.147261 0.147561 0.147861 0.14816 0.14846 0.148759 0.148845 0.14893 0.149016 0.149101 0.149189 0.149405 0.149621 0.149837 0.150053 0.150268 0.150573 0.150877 0.151181 0.151485 0.151789 0.152095 0.152401 0.152707 0.153014 0.15332 0.153628 0.153937 0.154246 0.154554 0.154863 0.155173 0.155484 0.155795 0.156106 0.156417 0.15673 0.157043 0.157357 0.15767 0.157983 0.158298 0.158614 0.15893 0.159245 0.159561 0.159879 0.160196 0.160514 0.160832 0.16115 0.161471 0.161791 0.162111 0.162432 0.162752 0.163075 0.163398 0.16372 0.164043 0.164366 0.164615 0.164864 0.165112 0.165361 0.165634 0.165706 0.165777 0.165849 0.165921 0.165992 0.16632 0.166648 0.166975 0.167303 0.167631 0.167961 0.168291 0.168622 0.168952 0.169282 0.169615 0.169948 0.17028 0.170613 0.170946 0.171281 0.171616 0.171952 0.172287 0.172622 0.17296 0.173298 0.173636 0.173974 0.174312 0.174652 0.174993 0.175333 0.175674 0.176014 0.176358 0.176701 0.177044 0.177387 0.17773 0.178076 0.178422 0.178767 0.179113 0.179459 0.179807 0.180156 0.180504 0.180853 0.181201 0.181552 0.181903 0.182254 0.182606 0.182957 0.18331 0.183664 0.184018 0.184372 0.184726 0.185082 0.185439 0.185795 0.186152 0.186509 0.186868 0.187227 0.187587 0.187946 0.188305 0.188667 0.189029 0.189392 0.189754 0.190116 0.190481 0.190846 0.191211 0.191576 0.19194 0.192308 0.192676 0.193044 0.193412 0.193779 0.19415 0.194521 0.194891 0.195262 0.195632 0.196006 0.196379 0.196753 0.197126 0.1975 0.197876 0.198253 0.198629 0.199006 0.199382 0.199761 0.200141 0.20052 0.200899 0.201279 0.201661 0.202043 0.202425 0.202808 0.20319 0.203575 0.20396 0.204346 0.204731 0.205116 0.205504 0.205893 0.206281 0.206669 0.207057 0.207449 0.20784 0.208231 0.208622 0.209013 0.209408 0.209802 0.210196 0.210591 0.210985 0.211382 0.21178 0.212177 0.212574 0.212972 0.213372 0.213772 0.214173 0.214573 0.214974 0.215377 0.215781 0.216184 0.216588 0.216991 0.217398 0.217805 0.218211 0.218618 0.219025 0.219434 0.219844 0.220254 0.220664 0.221074 0.221487 0.2219 0.222313 0.222726 0.223139 0.223555 0.223971 0.224387 0.224804 0.22522 0.225639 0.226059 0.226478 0.226898 0.227317 0.22774 0.228163 0.228585 0.229008 0.229431 0.229841 0.23025 0.23066 0.231069 0.231479 0.23157 0.231661 0.231752 0.231842 0.231942 0.232276 0.232609 0.232942 0.233275 0.233608 0.23405 0.234493 0.234935 0.235378 0.235821 0.23628 0.23674 0.2372 0.23766 0.23812 0.238598 0.239076 0.239553 0.240031 0.240509 0.241006 0.241502 0.241999 0.242495 0.242992 0.243508 0.244024 0.24454 0.245056 0.245572 0.246108 0.246644 0.24718 0.247716 0.248252 0.248809 0.249366 0.249923 0.25048 0.251038 0.251616 0.252195 0.252774 0.253352 0.253931 0.254533 0.255134 0.255735 0.256337 0.256938 0.257563 0.258188 0.258812 0.259437 0.260062 0.260711 0.26136 0.26201 0.262659 0.263308 0.263982 0.264657 0.265331 0.266006 0.26668 0.267381 0.268082 0.268783 0.269484 0.270184 0.270913 0.271641 0.272369 0.273097 0.273825 0.274582 0.275338 0.276095 0.276851 0.277608 0.278297 0.278985 0.279674 0.280363 0.281176 0.281249 0.281321 0.281393 0.281466 0.281538 0.282355 0.283171 0.283988 0.284805 0.285622 0.28647 0.287319 0.288167 0.289016 0.289864 0.290746 0.291627 0.292509 0.293391 0.294272 0.295188 0.296104 0.29702 0.297936 0.298853 0.299804 0.300756 0.301707 0.302659 0.303611 0.3046 0.305589 0.306577 0.307566 0.308555 0.309582 0.310609 0.311637 0.312664 0.31369