/*--------------------------------*- C++ -*----------------------------------*\
  =========                 |
  \\      /  F ield         | OpenFOAM: The Open Source CFD Toolbox
   \\    /   O peration     | Website:  https://openfoam.org
    \\  /    A nd           | Version:  9
     \\/     M anipulation  |
\*---------------------------------------------------------------------------*/
FoamFile
{
    format      ascii;
    class       volScalarField;
    location    "350";
    object      epsilon;
}
// * * * * * * * * * * * * * * * * * * * * * * * * * * * * * * * * * * * * * //

dimensions      [0 2 -3 0 0 0 0];

internalField   nonuniform List<scalar> 
4000
(
8.12436e-07
6.36724e-07
4.85217e-07
4.13175e-07
4.0148e-07
4.2155e-07
4.52737e-07
4.80839e-07
4.99242e-07
5.06305e-07
5.02238e-07
4.90092e-07
4.75953e-07
4.65593e-07
4.59922e-07
4.68409e-07
5.01501e-07
5.52794e-07
6.19613e-07
6.94673e-07
1.02367e-06
8.53415e-07
6.46769e-07
5.10942e-07
4.73255e-07
4.82117e-07
5.06901e-07
5.50122e-07
6.06682e-07
6.54301e-07
6.78439e-07
6.76327e-07
6.5454e-07
6.19365e-07
5.86624e-07
5.7857e-07
6.03833e-07
6.61492e-07
7.38806e-07
8.21552e-07
1.26688e-06
1.08344e-06
8.84073e-07
7.07399e-07
5.84565e-07
5.21446e-07
5.37968e-07
5.71076e-07
6.21675e-07
6.9492e-07
7.49272e-07
7.5473e-07
7.27853e-07
6.82705e-07
6.29143e-07
6.02282e-07
6.46426e-07
7.2643e-07
8.30483e-07
9.50946e-07
1.51476e-06
1.38642e-06
1.14184e-06
9.4382e-07
7.84496e-07
6.73215e-07
6.1461e-07
6.06259e-07
6.36429e-07
6.78907e-07
7.29084e-07
7.7071e-07
7.75195e-07
7.43672e-07
6.74621e-07
6.12483e-07
6.70316e-07
7.74752e-07
9.09343e-07
1.1073e-06
1.70584e-06
1.70034e-06
1.51733e-06
1.24096e-06
1.04115e-06
8.98323e-07
8.31707e-07
8.10625e-07
7.92894e-07
7.90955e-07
8.23969e-07
8.82537e-07
9.42308e-07
9.64803e-07
9.05816e-07
7.93724e-07
7.47097e-07
8.54318e-07
1.03694e-06
1.25555e-06
1.86959e-06
1.98683e-06
2.0116e-06
1.97038e-06
1.87696e-06
1.85886e-06
1.85647e-06
1.79141e-06
1.60551e-06
1.43422e-06
1.41355e-06
1.49723e-06
1.59402e-06
1.63231e-06
1.5773e-06
1.44103e-06
1.29925e-06
1.24686e-06
1.35795e-06
1.3945e-06
2.02627e-06
2.29115e-06
2.53402e-06
2.75152e-06
2.97048e-06
3.18464e-06
3.35241e-06
3.38466e-06
3.15639e-06
2.91054e-06
2.87331e-06
2.90153e-06
2.87764e-06
2.76117e-06
2.55753e-06
2.2975e-06
2.03551e-06
1.82641e-06
1.67653e-06
1.52657e-06
2.20403e-06
2.64509e-06
3.12507e-06
3.60757e-06
4.09067e-06
4.54477e-06
4.90895e-06
5.06477e-06
4.84839e-06
4.58675e-06
4.54278e-06
4.45924e-06
4.25838e-06
3.95013e-06
3.56667e-06
3.14466e-06
2.72229e-06
2.3317e-06
1.97651e-06
1.64803e-06
2.4312e-06
3.09311e-06
3.8442e-06
4.61971e-06
5.41063e-06
6.16575e-06
6.78869e-06
7.11592e-06
6.94853e-06
6.61858e-06
6.52022e-06
6.27822e-06
5.85848e-06
5.31277e-06
4.69589e-06
4.0543e-06
3.42613e-06
2.83751e-06
2.28239e-06
1.7755e-06
2.73467e-06
3.6664e-06
4.68715e-06
5.68284e-06
6.65152e-06
7.55919e-06
8.34881e-06
8.92798e-06
9.15833e-06
9.04183e-06
8.76321e-06
8.22031e-06
7.50992e-06
6.70482e-06
5.86231e-06
5.02279e-06
4.21122e-06
3.43612e-06
2.67484e-06
1.95159e-06
6.36724e-07
5.77843e-07
5.06321e-07
4.78912e-07
4.91136e-07
5.30554e-07
5.91736e-07
6.77528e-07
7.68028e-07
8.24972e-07
8.417e-07
8.30341e-07
7.9119e-07
7.27459e-07
6.50704e-07
6.20605e-07
6.33623e-07
6.67739e-07
7.10144e-07
7.37394e-07
8.53415e-07
7.77538e-07
6.87553e-07
6.21008e-07
5.76036e-07
5.60626e-07
5.90552e-07
6.50203e-07
6.99235e-07
7.1498e-07
7.10343e-07
6.98841e-07
6.78268e-07
6.39709e-07
5.90742e-07
5.79828e-07
6.29827e-07
7.10304e-07
7.90487e-07
8.9378e-07
1.08344e-06
1.05172e-06
8.88864e-07
7.68965e-07
6.96104e-07
6.44239e-07
6.29722e-07
6.64313e-07
7.31405e-07
7.93379e-07
8.03533e-07
7.82239e-07
7.49162e-07
7.1126e-07
6.63463e-07
6.26902e-07
6.58561e-07
7.48862e-07
8.95804e-07
1.0435e-06
1.38642e-06
1.53093e-06
1.2543e-06
1.00708e-06
8.4668e-07
7.54584e-07
7.08379e-07
6.92572e-07
7.15672e-07
7.68078e-07
8.21179e-07
8.4852e-07
8.3941e-07
8.14732e-07
7.68603e-07
7.11919e-07
7.15022e-07
8.1238e-07
1.03483e-06
1.21355e-06
1.70034e-06
1.82819e-06
1.6631e-06
1.35413e-06
1.10064e-06
9.3253e-07
8.32944e-07
7.81725e-07
7.73442e-07
7.88825e-07
8.29069e-07
8.88514e-07
9.47115e-07
9.7202e-07
9.31412e-07
8.42827e-07
8.19853e-07
9.24101e-07
1.21006e-06
1.36763e-06
1.98683e-06
1.91818e-06
1.97569e-06
1.88967e-06
1.69515e-06
1.53781e-06
1.41647e-06
1.31753e-06
1.19433e-06
1.10563e-06
1.1076e-06
1.17732e-06
1.26411e-06
1.32172e-06
1.31476e-06
1.24644e-06
1.166e-06
1.21911e-06
1.43841e-06
1.51073e-06
2.29115e-06
2.10917e-06
2.28723e-06
2.50047e-06
2.68421e-06
2.77099e-06
2.79729e-06
2.69421e-06
2.43609e-06
2.19603e-06
2.14409e-06
2.18418e-06
2.2122e-06
2.18168e-06
2.09044e-06
1.95325e-06
1.7935e-06
1.66154e-06
1.57444e-06
1.65064e-06
2.64509e-06
2.4947e-06
2.86292e-06
3.33088e-06
3.83823e-06
4.27964e-06
4.54542e-06
4.54322e-06
4.24422e-06
3.93442e-06
3.87764e-06
3.83087e-06
3.6951e-06
3.46158e-06
3.15339e-06
2.79636e-06
2.4151e-06
2.04406e-06
1.75361e-06
1.8082e-06
3.09311e-06
3.39762e-06
4.20253e-06
5.11183e-06
6.09535e-06
7.03905e-06
7.76519e-06
7.99597e-06
7.6506e-06
7.17147e-06
7.09436e-06
6.89912e-06
6.45519e-06
5.81819e-06
5.06244e-06
4.26187e-06
3.48761e-06
2.80491e-06
2.24153e-06
2.02453e-06
3.6664e-06
5.0008e-06
6.50876e-06
8.04902e-06
9.60417e-06
1.11072e-05
1.24517e-05
1.34885e-05
1.40524e-05
1.40232e-05
1.33233e-05
1.22643e-05
1.09843e-05
9.60042e-06
8.20264e-06
6.85315e-06
5.5907e-06
4.42915e-06
3.33939e-06
2.3531e-06
4.85217e-07
5.06321e-07
5.05922e-07
5.2127e-07
5.52316e-07
5.98097e-07
6.69457e-07
7.8095e-07
9.2489e-07
1.03773e-06
1.08684e-06
1.0798e-06
1.02031e-06
9.13918e-07
7.85623e-07
7.22869e-07
7.03989e-07
7.0083e-07
6.96306e-07
6.6952e-07
6.46769e-07
6.87553e-07
6.88354e-07
6.82733e-07
6.55851e-07
6.41868e-07
6.75577e-07
7.49658e-07
8.17283e-07
8.47719e-07
8.47618e-07
8.3362e-07
8.05389e-07
7.55234e-07
6.95826e-07
6.84578e-07
7.24504e-07
7.77752e-07
8.24276e-07
8.64786e-07
8.84073e-07
8.88864e-07
8.46962e-07
8.20021e-07
8.00099e-07
7.66757e-07
7.50008e-07
7.88244e-07
8.61985e-07
9.32395e-07
9.49975e-07
9.31651e-07
8.94938e-07
8.45566e-07
7.80286e-07
7.38828e-07
7.6783e-07
8.44491e-07
9.6406e-07
1.06708e-06
1.14184e-06
1.2543e-06
1.14071e-06
1.01258e-06
9.23943e-07
8.71224e-07
8.4251e-07
8.36141e-07
8.67857e-07
9.29176e-07
9.87407e-07
1.01586e-06
1.00554e-06
9.71488e-07
9.09103e-07
8.37748e-07
8.3307e-07
9.28761e-07
1.1353e-06
1.28218e-06
1.51733e-06
1.6631e-06
1.52696e-06
1.3095e-06
1.12246e-06
9.96358e-07
9.2569e-07
8.97214e-07
9.03748e-07
9.3613e-07
9.87057e-07
1.04706e-06
1.09726e-06
1.10451e-06
1.04514e-06
9.51141e-07
9.19833e-07
1.02828e-06
1.30652e-06
1.46918e-06
2.0116e-06
1.97569e-06
1.86661e-06
1.69724e-06
1.50863e-06
1.35588e-06
1.24537e-06
1.16627e-06
1.10651e-06
1.09293e-06
1.12494e-06
1.19077e-06
1.26303e-06
1.29813e-06
1.25229e-06
1.16483e-06
1.12355e-06
1.22574e-06
1.50633e-06
1.6435e-06
2.53402e-06
2.28723e-06
2.24068e-06
2.20349e-06
2.16619e-06
2.14107e-06
2.11312e-06
2.04914e-06
1.91833e-06
1.8006e-06
1.80282e-06
1.88088e-06
1.94802e-06
1.93612e-06
1.8279e-06
1.66758e-06
1.5472e-06
1.55509e-06
1.67038e-06
1.83505e-06
3.12507e-06
2.86292e-06
3.09049e-06
3.42497e-06
3.75564e-06
4.05757e-06
4.2825e-06
4.28156e-06
3.9902e-06
3.71449e-06
3.7476e-06
3.84198e-06
3.81319e-06
3.60468e-06
3.24222e-06
2.81413e-06
2.40695e-06
2.11068e-06
1.94237e-06
2.08238e-06
3.8442e-06
4.20253e-06
5.4039e-06
6.89635e-06
8.50398e-06
1.0011e-05
1.10507e-05
1.11302e-05
1.05635e-05
9.94858e-06
9.6948e-06
9.529e-06
8.96956e-06
8.07466e-06
6.94241e-06
5.70662e-06
4.53836e-06
3.50551e-06
2.71728e-06
2.4602e-06
4.68715e-06
6.50876e-06
8.54366e-06
1.06628e-05
1.28355e-05
1.49692e-05
1.69089e-05
1.84699e-05
1.94805e-05
1.96424e-05
1.83675e-05
1.66848e-05
1.47558e-05
1.27476e-05
1.07672e-05
8.89036e-06
7.16547e-06
5.60739e-06
4.18177e-06
2.9053e-06
4.13175e-07
4.78912e-07
5.2127e-07
5.62123e-07
6.0341e-07
6.49911e-07
7.23379e-07
8.61055e-07
1.06136e-06
1.22967e-06
1.30578e-06
1.29295e-06
1.20032e-06
1.04984e-06
8.82131e-07
7.903e-07
7.39508e-07
6.96238e-07
6.4245e-07
5.65806e-07
5.10942e-07
6.21008e-07
6.82733e-07
7.05168e-07
6.95359e-07
6.98033e-07
7.45467e-07
8.36562e-07
9.29719e-07
9.80904e-07
9.87582e-07
9.68822e-07
9.30514e-07
8.69562e-07
8.03077e-07
7.7905e-07
7.90702e-07
8.00865e-07
7.90484e-07
7.31236e-07
7.07399e-07
7.68965e-07
8.20021e-07
8.57533e-07
8.66488e-07
8.48519e-07
8.50216e-07
9.085e-07
1.00159e-06
1.088e-06
1.11098e-06
1.08593e-06
1.03596e-06
9.68201e-07
8.83509e-07
8.3107e-07
8.41395e-07
8.81893e-07
9.40321e-07
9.82577e-07
9.4382e-07
1.00708e-06
1.01258e-06
9.91488e-07
9.72962e-07
9.62488e-07
9.60673e-07
9.79304e-07
1.0432e-06
1.13047e-06
1.19303e-06
1.20449e-06
1.17233e-06
1.11129e-06
1.01992e-06
9.32818e-07
9.19538e-07
9.93632e-07
1.14725e-06
1.25932e-06
1.24096e-06
1.35413e-06
1.3095e-06
1.20845e-06
1.1126e-06
1.05022e-06
1.02859e-06
1.04398e-06
1.09937e-06
1.17524e-06
1.24086e-06
1.28325e-06
1.29906e-06
1.26282e-06
1.16478e-06
1.05008e-06
1.01197e-06
1.11193e-06
1.35331e-06
1.5319e-06
1.97038e-06
1.88967e-06
1.69724e-06
1.53711e-06
1.39984e-06
1.30118e-06
1.24772e-06
1.238e-06
1.26851e-06
1.33577e-06
1.39365e-06
1.4401e-06
1.47549e-06
1.45047e-06
1.33411e-06
1.20956e-06
1.16512e-06
1.27877e-06
1.57317e-06
1.76857e-06
2.75152e-06
2.50047e-06
2.20349e-06
2.04806e-06
1.99367e-06
2.00062e-06
2.03481e-06
2.05844e-06
2.043e-06
2.00266e-06
2.01261e-06
2.07233e-06
2.12003e-06
2.05061e-06
1.84118e-06
1.63481e-06
1.5166e-06
1.57198e-06
1.82437e-06
2.04875e-06
3.60757e-06
3.33088e-06
3.42497e-06
3.58045e-06
3.97622e-06
4.48013e-06
4.87877e-06
4.96819e-06
4.75618e-06
4.48079e-06
4.34133e-06
4.35521e-06
4.37101e-06
4.14553e-06
3.65965e-06
3.03852e-06
2.53929e-06
2.31354e-06
2.25323e-06
2.41565e-06
4.61971e-06
5.11183e-06
6.89635e-06
9.25302e-06
1.14307e-05
1.34609e-05
1.46586e-05
1.45415e-05
1.37559e-05
1.29976e-05
1.27219e-05
1.25006e-05
1.19061e-05
1.09313e-05
9.51735e-06
7.8405e-06
6.11757e-06
4.49367e-06
3.32906e-06
2.95729e-06
5.68284e-06
8.04902e-06
1.06628e-05
1.34108e-05
1.6251e-05
1.91043e-05
2.17522e-05
2.40065e-05
2.56413e-05
2.61205e-05
2.40659e-05
2.15269e-05
1.87797e-05
1.60714e-05
1.34703e-05
1.10467e-05
8.83841e-06
6.85876e-06
5.07303e-06
3.47964e-06
4.0148e-07
4.91136e-07
5.52316e-07
6.0341e-07
6.52867e-07
7.07036e-07
7.82755e-07
9.55462e-07
1.21857e-06
1.43503e-06
1.514e-06
1.46846e-06
1.32872e-06
1.13457e-06
9.50079e-07
8.48636e-07
7.78488e-07
7.05999e-07
6.16859e-07
5.05712e-07
4.73255e-07
5.76036e-07
6.55851e-07
6.95359e-07
7.17607e-07
7.58874e-07
8.39035e-07
9.52394e-07
1.07994e-06
1.15125e-06
1.15047e-06
1.11222e-06
1.05789e-06
9.8768e-07
9.16532e-07
8.71531e-07
8.48794e-07
8.17898e-07
7.51404e-07
6.03343e-07
5.84565e-07
6.96104e-07
8.00099e-07
8.66488e-07
8.94089e-07
9.10679e-07
9.65698e-07
1.07715e-06
1.22547e-06
1.33733e-06
1.33363e-06
1.25806e-06
1.1678e-06
1.07296e-06
9.7202e-07
9.05334e-07
8.91386e-07
8.90946e-07
8.8023e-07
8.46752e-07
7.84496e-07
8.4668e-07
9.23943e-07
9.72962e-07
1.00767e-06
1.04138e-06
1.08604e-06
1.19063e-06
1.35836e-06
1.51172e-06
1.53265e-06
1.4408e-06
1.32854e-06
1.21667e-06
1.09506e-06
9.97034e-07
9.69534e-07
1.00418e-06
1.07986e-06
1.14423e-06
1.04115e-06
1.10064e-06
1.12246e-06
1.1126e-06
1.09992e-06
1.11119e-06
1.16997e-06
1.29891e-06
1.50711e-06
1.70127e-06
1.72871e-06
1.63187e-06
1.51843e-06
1.40061e-06
1.25606e-06
1.12463e-06
1.07867e-06
1.15182e-06
1.33433e-06
1.51241e-06
1.87696e-06
1.69515e-06
1.50863e-06
1.39984e-06
1.33648e-06
1.32049e-06
1.37016e-06
1.50587e-06
1.75834e-06
1.99868e-06
2.01857e-06
1.90117e-06
1.78807e-06
1.65317e-06
1.45914e-06
1.29695e-06
1.23836e-06
1.33911e-06
1.61413e-06
1.85113e-06
2.97048e-06
2.68421e-06
2.16619e-06
1.99367e-06
2.00632e-06
2.12366e-06
2.29503e-06
2.4903e-06
2.69612e-06
2.84543e-06
2.75314e-06
2.62223e-06
2.52676e-06
2.34731e-06
2.02086e-06
1.75617e-06
1.60173e-06
1.65451e-06
1.97308e-06
2.24225e-06
4.09067e-06
3.83823e-06
3.75564e-06
3.97622e-06
4.66117e-06
5.46611e-06
6.04992e-06
6.19689e-06
6.05746e-06
5.81153e-06
5.50931e-06
5.24311e-06
5.09958e-06
4.86715e-06
4.26755e-06
3.50789e-06
2.86001e-06
2.5547e-06
2.56916e-06
2.74167e-06
5.41063e-06
6.09535e-06
8.50398e-06
1.14307e-05
1.43813e-05
1.69386e-05
1.79503e-05
1.73294e-05
1.62906e-05
1.54049e-05
1.48036e-05
1.46461e-05
1.44599e-05
1.36136e-05
1.20773e-05
9.87544e-06
7.52844e-06
5.46264e-06
3.92735e-06
3.44505e-06
6.65152e-06
9.60417e-06
1.28355e-05
1.6251e-05
1.98988e-05
2.35334e-05
2.70119e-05
3.01921e-05
3.2804e-05
3.39118e-05
3.07024e-05
2.6959e-05
2.32019e-05
1.96104e-05
1.62788e-05
1.32531e-05
1.05281e-05
8.11629e-06
5.95817e-06
4.03558e-06
4.2155e-07
5.30554e-07
5.98097e-07
6.49911e-07
7.07036e-07
7.87235e-07
8.8282e-07
1.06962e-06
1.37765e-06
1.63401e-06
1.68796e-06
1.58707e-06
1.40316e-06
1.21464e-06
1.04821e-06
9.44429e-07
8.5561e-07
7.57305e-07
6.38862e-07
4.91904e-07
4.82117e-07
5.60627e-07
6.41868e-07
6.98033e-07
7.58874e-07
8.53996e-07
9.86329e-07
1.1543e-06
1.33218e-06
1.41119e-06
1.36707e-06
1.28306e-06
1.20215e-06
1.12322e-06
1.04608e-06
9.75645e-07
9.13596e-07
8.42032e-07
7.27745e-07
5.42416e-07
5.21446e-07
6.44239e-07
7.66757e-07
8.48519e-07
9.10679e-07
9.95828e-07
1.16027e-06
1.41505e-06
1.70396e-06
1.84672e-06
1.70099e-06
1.47408e-06
1.2993e-06
1.16869e-06
1.05621e-06
9.75847e-07
9.36038e-07
9.00079e-07
8.32072e-07
7.18356e-07
6.73215e-07
7.54584e-07
8.71224e-07
9.62488e-07
1.04138e-06
1.13251e-06
1.31985e-06
1.68685e-06
2.18574e-06
2.49186e-06
2.2094e-06
1.77107e-06
1.4752e-06
1.28922e-06
1.14368e-06
1.03995e-06
9.96234e-07
9.87557e-07
9.86722e-07
9.98924e-07
8.98323e-07
9.3253e-07
9.96358e-07
1.05022e-06
1.11119e-06
1.22234e-06
1.46147e-06
1.96533e-06
2.75074e-06
3.29059e-06
2.88266e-06
2.16112e-06
1.73308e-06
1.4952e-06
1.30991e-06
1.17026e-06
1.11255e-06
1.14407e-06
1.25016e-06
1.39777e-06
1.85886e-06
1.53781e-06
1.35588e-06
1.30118e-06
1.32049e-06
1.42755e-06
1.70126e-06
2.32244e-06
3.37746e-06
4.18309e-06
3.64838e-06
2.68041e-06
2.11717e-06
1.82357e-06
1.56822e-06
1.38074e-06
1.30401e-06
1.37323e-06
1.60478e-06
1.87544e-06
3.18464e-06
2.77099e-06
2.14107e-06
2.00062e-06
2.12366e-06
2.40948e-06
2.84432e-06
3.55524e-06
4.70599e-06
5.52214e-06
4.75232e-06
3.56746e-06
2.97432e-06
2.64182e-06
2.24938e-06
1.93238e-06
1.72895e-06
1.74604e-06
2.07655e-06
2.38543e-06
4.54477e-06
4.27964e-06
4.05757e-06
4.48013e-06
5.46611e-06
6.50093e-06
7.20955e-06
7.61037e-06
8.36927e-06
8.66312e-06
7.37182e-06
6.29441e-06
5.83069e-06
5.49634e-06
4.90402e-06
4.02519e-06
3.21927e-06
2.77941e-06
2.8165e-06
3.01743e-06
6.16575e-06
7.03905e-06
1.0011e-05
1.34609e-05
1.69386e-05
1.92321e-05
1.95097e-05
1.86412e-05
1.82246e-05
1.77956e-05
1.64361e-05
1.5717e-05
1.57697e-05
1.54591e-05
1.39828e-05
1.14414e-05
8.64446e-06
6.25402e-06
4.41496e-06
3.884e-06
7.55919e-06
1.11072e-05
1.49692e-05
1.91043e-05
2.35334e-05
2.80495e-05
3.26404e-05
3.72759e-05
4.16095e-05
4.39411e-05
3.89361e-05
3.32209e-05
2.79676e-05
2.32903e-05
1.91347e-05
1.54376e-05
1.21394e-05
9.29188e-06
6.77232e-06
4.53875e-06
4.52737e-07
5.91736e-07
6.69457e-07
7.23379e-07
7.82755e-07
8.8282e-07
9.79922e-07
1.1135e-06
1.42626e-06
1.73911e-06
1.78432e-06
1.67813e-06
1.54326e-06
1.42595e-06
1.2831e-06
1.13719e-06
1.00048e-06
8.63072e-07
7.07588e-07
5.04555e-07
5.06901e-07
5.90552e-07
6.75577e-07
7.45467e-07
8.39035e-07
9.86329e-07
1.2096e-06
1.48395e-06
1.79019e-06
1.86972e-06
1.71407e-06
1.5292e-06
1.39766e-06
1.29482e-06
1.19631e-06
1.09005e-06
9.82033e-07
8.64854e-07
7.08287e-07
5.3595e-07
5.37968e-07
6.29722e-07
7.50008e-07
8.50217e-07
9.65698e-07
1.16027e-06
1.53376e-06
2.12008e-06
2.81361e-06
3.10335e-06
2.50759e-06
1.84768e-06
1.47761e-06
1.27899e-06
1.14889e-06
1.05413e-06
9.86387e-07
9.16273e-07
8.01006e-07
6.00145e-07
6.1461e-07
7.08379e-07
8.4251e-07
9.60673e-07
1.08604e-06
1.31985e-06
1.87406e-06
2.9867e-06
4.52546e-06
5.36981e-06
3.90995e-06
2.4375e-06
1.69207e-06
1.36592e-06
1.1895e-06
1.07702e-06
1.01575e-06
9.68158e-07
9.04452e-07
8.56571e-07
8.31707e-07
8.32944e-07
9.2569e-07
1.02859e-06
1.16997e-06
1.46147e-06
2.21712e-06
4.01208e-06
6.92186e-06
8.54738e-06
5.98507e-06
3.27355e-06
2.0459e-06
1.57923e-06
1.3449e-06
1.19598e-06
1.12044e-06
1.10416e-06
1.13371e-06
1.24213e-06
1.85647e-06
1.41647e-06
1.24537e-06
1.24772e-06
1.37016e-06
1.70126e-06
2.63413e-06
5.10624e-06
9.36275e-06
1.19391e-05
8.28426e-06
4.26984e-06
2.5593e-06
1.96081e-06
1.64596e-06
1.44105e-06
1.34107e-06
1.36595e-06
1.54379e-06
1.84519e-06
3.35241e-06
2.79729e-06
2.11312e-06
2.03481e-06
2.29503e-06
2.84432e-06
3.99955e-06
6.79659e-06
1.17067e-05
1.46285e-05
1.02533e-05
5.48976e-06
3.51815e-06
2.85659e-06
2.4375e-06
2.09026e-06
1.84124e-06
1.80635e-06
2.11426e-06
2.45886e-06
4.90895e-06
4.54542e-06
4.2825e-06
4.87877e-06
6.04992e-06
7.20955e-06
8.34681e-06
1.07436e-05
1.53823e-05
1.76686e-05
1.30114e-05
7.93314e-06
6.42482e-06
5.94284e-06
5.32467e-06
4.40415e-06
3.4997e-06
2.92985e-06
2.95599e-06
3.19431e-06
6.78869e-06
7.76519e-06
1.10507e-05
1.46586e-05
1.79503e-05
1.95097e-05
1.9567e-05
2.00893e-05
2.2437e-05
2.36698e-05
2.01026e-05
1.6861e-05
1.61998e-05
1.6095e-05
1.49091e-05
1.23558e-05
9.33271e-06
6.7376e-06
4.7173e-06
4.18188e-06
8.34881e-06
1.24517e-05
1.69089e-05
2.17522e-05
2.70119e-05
3.26404e-05
3.88772e-05
4.59544e-05
5.33857e-05
5.79633e-05
5.00724e-05
4.08772e-05
3.32492e-05
2.70388e-05
2.18455e-05
1.74128e-05
1.35777e-05
1.02908e-05
7.44668e-06
4.95363e-06
4.80839e-07
6.77528e-07
7.8095e-07
8.61055e-07
9.55462e-07
1.06962e-06
1.1135e-06
1.09944e-06
1.44829e-06
1.86335e-06
1.90284e-06
1.97318e-06
2.00872e-06
1.88595e-06
1.66581e-06
1.43316e-06
1.21909e-06
1.01671e-06
7.98405e-07
5.23726e-07
5.50122e-07
6.50203e-07
7.49658e-07
8.36562e-07
9.52394e-07
1.1543e-06
1.48395e-06
1.90803e-06
2.88333e-06
3.61833e-06
2.76543e-06
2.01978e-06
1.72039e-06
1.52399e-06
1.34852e-06
1.18762e-06
1.03606e-06
8.81282e-07
7.01645e-07
5.60978e-07
5.71076e-07
6.64313e-07
7.88244e-07
9.085e-07
1.07715e-06
1.41505e-06
2.12008e-06
3.40414e-06
5.82852e-06
8.1955e-06
5.60397e-06
2.90683e-06
1.86338e-06
1.45801e-06
1.26621e-06
1.14464e-06
1.04639e-06
9.38534e-07
7.84471e-07
5.69085e-07
6.06259e-07
6.92572e-07
8.36141e-07
9.79304e-07
1.19063e-06
1.68685e-06
2.9867e-06
5.92291e-06
1.09436e-05
1.53162e-05
1.01055e-05
4.55163e-06
2.27014e-06
1.53857e-06
1.27054e-06
1.13216e-06
1.04488e-06
9.65709e-07
8.55503e-07
7.3581e-07
8.10625e-07
7.81725e-07
8.97214e-07
1.04398e-06
1.29891e-06
1.96533e-06
4.01208e-06
9.32063e-06
1.79574e-05
2.41372e-05
1.56802e-05
6.72431e-06
2.88128e-06
1.77108e-06
1.40755e-06
1.22529e-06
1.12161e-06
1.05617e-06
1.01983e-06
1.09677e-06
1.79141e-06
1.31753e-06
1.16627e-06
1.238e-06
1.50587e-06
2.32244e-06
5.10624e-06
1.28518e-05
2.53009e-05
3.26929e-05
2.134e-05
8.86611e-06
3.62587e-06
2.18834e-06
1.72369e-06
1.48052e-06
1.34834e-06
1.32346e-06
1.45224e-06
1.76894e-06
3.38466e-06
2.69421e-06
2.04914e-06
2.05844e-06
2.4903e-06
3.55524e-06
6.79659e-06
1.59619e-05
3.03217e-05
3.72326e-05
2.50322e-05
1.04625e-05
4.69882e-06
3.124e-06
2.56877e-06
2.19083e-06
1.90241e-06
1.81489e-06
2.08293e-06
2.45715e-06
5.06477e-06
4.54322e-06
4.28156e-06
4.96819e-06
6.19689e-06
7.61037e-06
1.07436e-05
1.89057e-05
3.0322e-05
3.59215e-05
2.6011e-05
1.22614e-05
7.12845e-06
6.06141e-06
5.41244e-06
4.52824e-06
3.60642e-06
2.96428e-06
2.96551e-06
3.24764e-06
7.11592e-06
7.99597e-06
1.11302e-05
1.45415e-05
1.73294e-05
1.86412e-05
2.00893e-05
2.46432e-05
3.23128e-05
3.62497e-05
2.90422e-05
1.97271e-05
1.64728e-05
1.58312e-05
1.47613e-05
1.23904e-05
9.38739e-06
6.77049e-06
4.75876e-06
4.28535e-06
8.92798e-06
1.34885e-05
1.84699e-05
2.40065e-05
3.01921e-05
3.72759e-05
4.59544e-05
5.69392e-05
6.92556e-05
7.6963e-05
6.55414e-05
5.04616e-05
3.9083e-05
3.07279e-05
2.4251e-05
1.90053e-05
1.46372e-05
1.09701e-05
7.88065e-06
5.22108e-06
4.99242e-07
7.68028e-07
9.2489e-07
1.06136e-06
1.21857e-06
1.37765e-06
1.42626e-06
1.44829e-06
1.70323e-06
2.38019e-06
2.52679e-06
2.57807e-06
2.74471e-06
2.44393e-06
2.06366e-06
1.71687e-06
1.4175e-06
1.14673e-06
8.67809e-07
5.38369e-07
6.06682e-07
6.99235e-07
8.17283e-07
9.29719e-07
1.07994e-06
1.33218e-06
1.79019e-06
2.88333e-06
5.30477e-06
1.10974e-05
7.37458e-06
3.42966e-06
2.26882e-06
1.769e-06
1.46886e-06
1.2497e-06
1.06681e-06
8.93711e-07
7.08463e-07
5.96604e-07
6.21675e-07
7.31405e-07
8.61985e-07
1.00159e-06
1.22547e-06
1.70396e-06
2.81361e-06
5.82852e-06
1.26269e-05
2.64604e-05
1.61053e-05
6.79436e-06
2.83597e-06
1.7758e-06
1.41595e-06
1.22949e-06
1.08613e-06
9.44207e-07
7.71885e-07
6.05539e-07
6.36429e-07
7.15672e-07
8.67857e-07
1.0432e-06
1.35836e-06
2.18574e-06
4.52546e-06
1.09436e-05
2.34559e-05
4.02189e-05
2.57958e-05
1.15307e-05
3.86088e-06
1.93897e-06
1.42194e-06
1.21538e-06
1.08641e-06
9.70117e-07
8.25636e-07
6.61017e-07
7.92894e-07
7.73442e-07
9.03748e-07
1.09937e-06
1.50711e-06
2.75074e-06
6.92186e-06
1.79574e-05
3.52029e-05
5.0051e-05
3.54131e-05
1.64818e-05
5.12669e-06
2.25185e-06
1.55422e-06
1.29189e-06
1.13761e-06
1.02097e-06
9.34277e-07
9.80905e-07
1.60551e-06
1.19433e-06
1.10651e-06
1.26851e-06
1.75834e-06
3.37746e-06
9.36275e-06
2.53009e-05
4.40658e-05
5.48044e-05
4.27125e-05
2.01465e-05
6.27678e-06
2.70555e-06
1.86207e-06
1.52518e-06
1.33997e-06
1.26631e-06
1.35442e-06
1.65702e-06
3.15639e-06
2.43609e-06
1.91833e-06
2.043e-06
2.69612e-06
4.70599e-06
1.17067e-05
3.03217e-05
4.7315e-05
5.49216e-05
4.59916e-05
2.1381e-05
7.13619e-06
3.59386e-06
2.67816e-06
2.23153e-06
1.90728e-06
1.77468e-06
1.99574e-06
2.37511e-06
4.84839e-06
4.24422e-06
3.9902e-06
4.75618e-06
6.05746e-06
8.36926e-06
1.53823e-05
3.0322e-05
4.60105e-05
5.20115e-05
4.5276e-05
2.07146e-05
8.62938e-06
6.04321e-06
5.2392e-06
4.4061e-06
3.51867e-06
2.86723e-06
2.84637e-06
3.14538e-06
6.94853e-06
7.6506e-06
1.05635e-05
1.37559e-05
1.62906e-05
1.82246e-05
2.24369e-05
3.23128e-05
4.56274e-05
5.07671e-05
4.37854e-05
2.53438e-05
1.73641e-05
1.52365e-05
1.39181e-05
1.17117e-05
8.85371e-06
6.31844e-06
4.49283e-06
4.11208e-06
9.15833e-06
1.40524e-05
1.94805e-05
2.56413e-05
3.2804e-05
4.16095e-05
5.33857e-05
6.92556e-05
8.67371e-05
9.54116e-05
8.46653e-05
6.16838e-05
4.50584e-05
3.3968e-05
2.60511e-05
2.00012e-05
1.516e-05
1.11892e-05
7.92398e-06
5.16595e-06
5.06305e-07
8.24972e-07
1.03773e-06
1.22967e-06
1.43503e-06
1.63401e-06
1.73911e-06
1.86335e-06
2.38019e-06
2.864e-06
3.48856e-06
3.65043e-06
3.36877e-06
2.82779e-06
2.32509e-06
1.90023e-06
1.54237e-06
1.22329e-06
9.04274e-07
5.44785e-07
6.54301e-07
7.1498e-07
8.47719e-07
9.80904e-07
1.15125e-06
1.41119e-06
1.86972e-06
3.61833e-06
1.10974e-05
1.0338e-05
9.73556e-06
6.71215e-06
2.67008e-06
1.894e-06
1.52446e-06
1.27476e-06
1.07703e-06
8.97704e-07
7.14607e-07
6.22763e-07
6.9492e-07
7.93379e-07
9.32395e-07
1.088e-06
1.33733e-06
1.84672e-06
3.10335e-06
8.1955e-06
2.64604e-05
1.42366e-05
1.77946e-05
1.59863e-05
4.21064e-06
2.08257e-06
1.5288e-06
1.27338e-06
1.09278e-06
9.29551e-07
7.55008e-07
6.43833e-07
6.78907e-07
7.68078e-07
9.29176e-07
1.13047e-06
1.51172e-06
2.49186e-06
5.36981e-06
1.53162e-05
4.02189e-05
1.752e-05
2.87227e-05
2.38971e-05
6.18716e-06
2.45819e-06
1.61053e-06
1.30627e-06
1.12289e-06
9.68332e-07
8.06764e-07
6.73877e-07
7.90955e-07
7.88825e-07
9.3613e-07
1.17524e-06
1.70127e-06
3.29059e-06
8.54738e-06
2.41372e-05
5.0051e-05
2.14457e-05
4.10834e-05
2.96988e-05
8.11558e-06
2.91273e-06
1.77643e-06
1.39813e-06
1.18338e-06
1.02439e-06
9.05639e-07
9.18958e-07
1.43422e-06
1.10563e-06
1.09293e-06
1.33577e-06
1.99868e-06
4.18309e-06
1.19391e-05
3.26929e-05
5.48044e-05
2.59509e-05
5.19234e-05
3.25076e-05
9.30802e-06
3.39133e-06
2.0788e-06
1.61532e-06
1.35086e-06
1.2186e-06
1.26675e-06
1.5405e-06
2.91054e-06
2.19603e-06
1.8006e-06
2.00266e-06
2.84543e-06
5.52214e-06
1.46285e-05
3.72326e-05
5.49216e-05
3.01797e-05
5.78482e-05
3.14871e-05
9.61774e-06
4.12973e-06
2.80107e-06
2.24208e-06
1.87361e-06
1.70418e-06
1.88389e-06
2.25297e-06
4.58675e-06
3.93442e-06
3.71449e-06
4.48079e-06
5.81153e-06
8.66312e-06
1.76686e-05
3.59215e-05
5.20115e-05
3.3904e-05
5.8037e-05
2.78922e-05
1.00387e-05
6.03971e-06
5.01868e-06
4.19367e-06
3.34104e-06
2.72336e-06
2.66583e-06
2.97576e-06
6.61858e-06
7.17147e-06
9.94858e-06
1.29976e-05
1.54049e-05
1.77956e-05
2.36698e-05
3.62497e-05
5.07671e-05
4.03226e-05
5.43164e-05
2.99836e-05
1.80939e-05
1.45842e-05
1.2975e-05
1.08353e-05
8.14077e-06
5.7186e-06
4.12911e-06
3.8573e-06
9.04183e-06
1.40232e-05
1.96424e-05
2.61205e-05
3.39118e-05
4.39411e-05
5.79633e-05
7.6963e-05
9.54116e-05
8.94587e-05
9.83583e-05
7.04185e-05
4.91888e-05
3.57034e-05
2.66358e-05
2.00242e-05
1.49202e-05
1.08813e-05
7.64448e-06
4.96787e-06
5.02238e-07
8.417e-07
1.08684e-06
1.30578e-06
1.514e-06
1.68796e-06
1.78432e-06
1.90284e-06
2.52679e-06
3.48856e-06
3.87295e-06
3.84206e-06
3.3978e-06
2.87508e-06
2.38638e-06
1.95876e-06
1.5849e-06
1.24515e-06
9.0975e-07
5.42928e-07
6.78439e-07
7.10343e-07
8.47618e-07
9.87582e-07
1.15047e-06
1.36707e-06
1.71407e-06
2.76543e-06
7.37458e-06
9.73556e-06
8.22691e-06
4.11866e-06
2.3157e-06
1.8075e-06
1.49981e-06
1.26742e-06
1.07442e-06
8.97357e-07
7.19007e-07
6.31554e-07
7.49272e-07
8.03533e-07
9.49975e-07
1.11098e-06
1.33363e-06
1.70099e-06
2.50759e-06
5.60396e-06
1.61053e-05
1.77946e-05
1.70453e-05
9.1711e-06
3.19344e-06
1.94669e-06
1.52227e-06
1.27331e-06
1.08051e-06
9.08889e-07
7.39487e-07
6.66266e-07
7.29084e-07
8.21179e-07
9.87407e-07
1.19303e-06
1.53265e-06
2.2094e-06
3.90995e-06
1.01055e-05
2.57958e-05
2.87227e-05
2.83357e-05
1.4035e-05
4.51807e-06
2.32594e-06
1.67808e-06
1.3605e-06
1.13967e-06
9.57531e-07
7.92877e-07
7.1387e-07
8.23969e-07
8.29069e-07
9.87057e-07
1.24086e-06
1.72871e-06
2.88266e-06
5.98507e-06
1.56802e-05
3.54131e-05
4.10834e-05
3.87718e-05
1.80534e-05
5.89003e-06
2.81705e-06
1.91692e-06
1.50399e-06
1.23687e-06
1.04182e-06
9.0915e-07
9.15942e-07
1.41355e-06
1.1076e-06
1.12494e-06
1.39365e-06
2.01857e-06
3.64838e-06
8.28426e-06
2.134e-05
4.27125e-05
5.19234e-05
4.55635e-05
2.02161e-05
6.92625e-06
3.33845e-06
2.25024e-06
1.73623e-06
1.4049e-06
1.21777e-06
1.22042e-06
1.4601e-06
2.87331e-06
2.14409e-06
1.80282e-06
2.01261e-06
2.75314e-06
4.75232e-06
1.02533e-05
2.50322e-05
4.59916e-05
5.78482e-05
4.69727e-05
1.9894e-05
7.38699e-06
4.03405e-06
2.90734e-06
2.29593e-06
1.86544e-06
1.66928e-06
1.7905e-06
2.15262e-06
4.54278e-06
3.87764e-06
3.7476e-06
4.34133e-06
5.50931e-06
7.37182e-06
1.30114e-05
2.6011e-05
4.5276e-05
5.8037e-05
4.41138e-05
1.82815e-05
8.2074e-06
5.86279e-06
4.94634e-06
4.08996e-06
3.23789e-06
2.64325e-06
2.53325e-06
2.85829e-06
6.52022e-06
7.09436e-06
9.6948e-06
1.27219e-05
1.48036e-05
1.64361e-05
2.01026e-05
2.90422e-05
4.37854e-05
5.43164e-05
4.07496e-05
2.28279e-05
1.60659e-05
1.40941e-05
1.2682e-05
1.05754e-05
7.99209e-06
5.57669e-06
4.00369e-06
3.73591e-06
8.76321e-06
1.33233e-05
1.83674e-05
2.40659e-05
3.07024e-05
3.89361e-05
5.00724e-05
6.55414e-05
8.46653e-05
9.83583e-05
8.10606e-05
5.78557e-05
4.20616e-05
3.15936e-05
2.41635e-05
1.85382e-05
1.40685e-05
1.04329e-05
7.42401e-06
4.872e-06
4.90092e-07
8.30341e-07
1.0798e-06
1.29295e-06
1.46846e-06
1.58707e-06
1.67813e-06
1.97318e-06
2.57807e-06
3.65043e-06
3.84206e-06
3.55885e-06
3.14494e-06
2.70099e-06
2.28242e-06
1.89983e-06
1.54566e-06
1.21255e-06
8.854e-07
5.3593e-07
6.76327e-07
6.98841e-07
8.3362e-07
9.68822e-07
1.11222e-06
1.28306e-06
1.5292e-06
2.01978e-06
3.42966e-06
6.71215e-06
4.11866e-06
2.46128e-06
1.96862e-06
1.66472e-06
1.42852e-06
1.23045e-06
1.05346e-06
8.84942e-07
7.14447e-07
6.24216e-07
7.5473e-07
7.82239e-07
9.31651e-07
1.08593e-06
1.25806e-06
1.47408e-06
1.84768e-06
2.90683e-06
6.79436e-06
1.59863e-05
9.1711e-06
3.73401e-06
2.22121e-06
1.71939e-06
1.44755e-06
1.23863e-06
1.05529e-06
8.86717e-07
7.25609e-07
6.64941e-07
7.7071e-07
8.4852e-07
1.01586e-06
1.20449e-06
1.4408e-06
1.77107e-06
2.4375e-06
4.55163e-06
1.15307e-05
2.38971e-05
1.4035e-05
5.55782e-06
2.82545e-06
1.99478e-06
1.61781e-06
1.35222e-06
1.12988e-06
9.40022e-07
7.80714e-07
7.32881e-07
8.82537e-07
8.88514e-07
1.04706e-06
1.28325e-06
1.63187e-06
2.16112e-06
3.27355e-06
6.72431e-06
1.64818e-05
2.96988e-05
1.80534e-05
7.40638e-06
3.58755e-06
2.41983e-06
1.90914e-06
1.55409e-06
1.2694e-06
1.05328e-06
9.1894e-07
9.39369e-07
1.49723e-06
1.17732e-06
1.19077e-06
1.4401e-06
1.90117e-06
2.68041e-06
4.26984e-06
8.86611e-06
2.01465e-05
3.25076e-05
2.02161e-05
8.76907e-06
4.3496e-06
2.95777e-06
2.31796e-06
1.844e-06
1.4733e-06
1.24205e-06
1.2086e-06
1.42382e-06
2.90153e-06
2.18418e-06
1.88088e-06
2.07233e-06
2.62223e-06
3.56746e-06
5.48976e-06
1.04625e-05
2.1381e-05
3.14871e-05
1.9894e-05
9.15876e-06
5.10504e-06
3.75112e-06
3.03528e-06
2.42117e-06
1.92965e-06
1.66943e-06
1.72903e-06
2.08399e-06
4.45924e-06
3.83087e-06
3.84198e-06
4.35521e-06
5.24311e-06
6.29441e-06
7.93314e-06
1.22614e-05
2.07146e-05
2.78922e-05
1.82815e-05
9.56939e-06
6.67075e-06
5.73972e-06
4.95249e-06
4.07331e-06
3.21246e-06
2.62785e-06
2.44949e-06
2.77747e-06
6.27822e-06
6.89912e-06
9.529e-06
1.25006e-05
1.46461e-05
1.5717e-05
1.6861e-05
1.97271e-05
2.53438e-05
2.99836e-05
2.28279e-05
1.67875e-05
1.48775e-05
1.40374e-05
1.26513e-05
1.04904e-05
7.93233e-06
5.53218e-06
3.93781e-06
3.64693e-06
8.22031e-06
1.22643e-05
1.66848e-05
2.15269e-05
2.6959e-05
3.32209e-05
4.08772e-05
5.04616e-05
6.16838e-05
7.04185e-05
5.78557e-05
4.45803e-05
3.46228e-05
2.71962e-05
2.14444e-05
1.68301e-05
1.30005e-05
9.80084e-06
7.0745e-06
4.71453e-06
4.75953e-07
7.9119e-07
1.02031e-06
1.20032e-06
1.32872e-06
1.40316e-06
1.54326e-06
2.00872e-06
2.74471e-06
3.36877e-06
3.3978e-06
3.14494e-06
2.79201e-06
2.42176e-06
2.07424e-06
1.7465e-06
1.42957e-06
1.12421e-06
8.29991e-07
5.2988e-07
6.5454e-07
6.78268e-07
8.05389e-07
9.30514e-07
1.05789e-06
1.20215e-06
1.39766e-06
1.72039e-06
2.26882e-06
2.67008e-06
2.3157e-06
1.96862e-06
1.72226e-06
1.51273e-06
1.33054e-06
1.165e-06
1.00699e-06
8.50992e-07
6.92761e-07
6.07117e-07
7.27853e-07
7.49162e-07
8.94938e-07
1.03596e-06
1.1678e-06
1.2993e-06
1.47761e-06
1.86338e-06
2.83597e-06
4.21064e-06
3.19344e-06
2.22121e-06
1.78476e-06
1.53647e-06
1.34753e-06
1.17628e-06
1.01199e-06
8.54646e-07
7.05178e-07
6.40893e-07
7.75195e-07
8.3941e-07
1.00554e-06
1.17233e-06
1.32854e-06
1.4752e-06
1.69207e-06
2.27014e-06
3.86088e-06