/*--------------------------------*- C++ -*----------------------------------*\
  =========                 |
  \\      /  F ield         | OpenFOAM: The Open Source CFD Toolbox
   \\    /   O peration     | Website:  https://openfoam.org
    \\  /    A nd           | Version:  9
     \\/     M anipulation  |
\*---------------------------------------------------------------------------*/
FoamFile
{
    format      ascii;
    class       surfaceScalarField;
    location    "350";
    object      phi;
}
// * * * * * * * * * * * * * * * * * * * * * * * * * * * * * * * * * * * * * //

dimensions      [1 0 -1 0 0 0 0];

internalField   nonuniform List<scalar> 
11200
(
-0.00213087
0.00426111
-0.00213087
-0.00514474
0.00529168
-0.00227873
-0.00738872
0.00431163
-0.0020684
-0.00826299
0.00240736
-0.0015335
-0.00827672
0.000951559
-0.00093805
-0.00785673
7.71851e-06
-0.000427831
-0.00711392
-0.000705091
-3.77305e-05
-0.00602996
-0.00127345
0.000189593
-0.00471067
-0.00156726
0.000248116
-0.00325556
-0.00166809
0.000213112
-0.00164004
-0.00175155
0.000136159
0.00014309
-0.00182215
3.91432e-05
0.00197177
-0.00175564
-7.29141e-05
0.00357293
-0.00137265
-0.000228435
0.0047641
-0.000704529
-0.000486646
0.0054224
0.000154991
-0.000813436
0.0053012
0.00131357
-0.00119269
0.00422599
0.00265119
-0.00157642
0.00224955
0.00383876
-0.00186281
0.00393476
-0.00168562
0.000564638
0.00313135
0.000564638
-0.000466024
0.00611581
0.000205778
-0.00229241
0.00633119
-0.000194023
-0.00395808
0.00453574
-0.000463205
-0.00485665
0.0024351
-0.000585203
-0.00488246
0.000569479
-0.000536006
-0.00453347
-0.00069789
-0.000356143
-0.00417501
-0.00150318
-0.000128625
-0.00375098
-0.00198182
-9.37166e-06
-0.00309598
-0.00234282
1.98253e-05
-0.00214233
-0.00270822
3.11976e-06
-0.000979943
-0.0029694
-1.50269e-05
0.000269768
-0.00297516
-3.00875e-05
0.00144092
-0.00248497
-5.87438e-05
0.0022141
-0.00134657
-0.000131118
0.00233366
0.000339965
-0.000304626
0.0019046
0.00226266
-0.000520285
0.000996983
0.00426552
-0.000707151
0.00011963
0.00540888
-0.000693317
0.00406724
-1.33348e-05
0.00209155
-0.0010519
0.00209155
0.0030636
0.00320796
0.00193535
0.00238904
0.00562459
0.00138058
0.000893822
0.00527194
0.000758551
-0.00058967
0.00364971
0.000268585
-0.00155177
0.00158615
-5.46931e-05
-0.00182181
-0.000250536
-0.000177327
-0.00177058
-0.00143299
-0.000121327
-0.0017649
-0.00198097
-6.42079e-06
-0.00179584
-0.00237929
6.75161e-05
-0.00165019
-0.00292275
6.89674e-05
-0.00123078
-0.00347656
8.78544e-05
-0.000696656
-0.00364312
0.000133942
-0.000192069
-0.00318778
0.000198323
0.000152589
-0.00192481
0.000233624
0.000118508
0.000225003
0.000148987
-0.000408084
0.00272728
6.1764e-05
-0.00110472
0.00487411
8.77052e-05
-0.00136117
0.00529676
0.000368195
0.00152456
0.00118126
0.00209394
-0.00523986
0.00209394
0.00417771
-0.00135762
0.00248166
0.00502305
0.00243357
0.00234534
0.0045355
0.0039048
0.00185437
0.003543
0.00330999
0.00133203
0.002425
0.00181687
0.000887223
0.00142392
0.000202062
0.000548545
0.000843611
-0.00118652
0.00033397
0.00058425
-0.00197969
0.000258224
0.000354802
-0.00240795
0.000258253
-4.79161e-06
-0.00284328
0.000280271
-0.000404093
-0.00339316
0.000316068
-0.00073742
-0.00369808
0.000388461
-0.00100554
-0.00344735
0.000527867
-0.00123906
-0.00235138
0.00066021
-0.00149475
-0.000163926
0.000644633
-0.00177821
0.00228828
0.00072235
-0.00200962
0.00418511
0.000920193
-0.0014884
0.00346813
0.00130716
-0.00188069
0.00191677
0.00140166
-0.00804329
0.00140166
0.00296751
-0.00508398
0.00216041
0.00460721
-0.00190238
0.00269609
0.00555788
0.000172546
0.0027814
0.00566291
0.00062922
0.00257561
0.00524637
-3.51827e-05
0.00226858
0.00456104
-0.00106893
0.00195649
0.00372636
-0.00194127
0.0015897
0.0029417
-0.0024296
0.00123487
0.00229301
-0.00278012
0.00102115
0.00173314
-0.00323083
0.000947694
0.00104937
-0.00366062
0.000951519
0.000218937
-0.00388855
0.00102119
-0.000680986
-0.00373066
0.00118349
-0.00152027
-0.00294455
0.00143266
-0.00201769
-0.0013624
0.00169597
-0.00207826
0.000564192
0.00178461
-0.00166498
0.00179658
0.00197511
-0.000594508
0.000149865
0.00224768
-0.0046393
0.00216401
0.000828723
-0.00970086
0.000828723
0.00127555
-0.00732005
0.00178912
0.00195225
-0.00515108
0.00257188
0.00285388
-0.00383289
0.00310369
0.00355531
-0.0033765
0.00330417
0.00392849
-0.0036753
0.00326688
0.00403832
-0.00422223
0.00304349
0.00396059
-0.0046158
0.00275238
0.00361065
-0.00458394
0.00250452
0.00302447
-0.00450761
0.00231399
0.00241067
-0.00480787
0.00219116
0.00178138
-0.00514782
0.00211677
0.00109751
-0.00529137
0.0020869
0.000343647
-0.00510385
0.0021272
-0.000390878
-0.00449912
0.00228917
-0.000874875
-0.00342771
0.00254931
-0.000803109
-0.00223339
0.00272576
-0.000209329
-0.00159658
0.00279929
0.000394186
-0.00308581
0.00263206
-0.00639657
0.00215135
0.000288044
-0.0102771
0.000288044
8.91154e-05
-0.00852036
0.00139912
-2.88317e-05
-0.00711542
0.00208217
0.000245916
-0.0065452
0.00243744
0.000736058
-0.00648728
0.00262054
0.00128453
-0.00681371
0.00258983
0.00181828
-0.00721696
0.0024609
0.00226062
-0.00742108
0.00236287
0.0023929
-0.00716886
0.00245258
0.0022273
-0.0068981
0.00255607
0.0020692
-0.00712747
0.0024777
0.00194185
-0.00734135
0.00232086
0.00178378
-0.0073308
0.00219746
0.00154901
-0.00702978
0.00216064
0.00125325
-0.00643625
0.0022328
0.00103267
-0.0056043
0.00239707
0.00101327
-0.00476603
0.00255193
0.00122913
-0.00435444
0.00254188
0.000986254
-0.00516715
0.0023241
-0.00731538
0.00190495
-0.000413808
-0.00944959
-0.000413808
-0.00128759
-0.00831779
0.000671087
-0.00182149
-0.00764553
0.00106389
-0.00190983
-0.00757205
0.0011151
-0.00156832
-0.00779625
0.000967361
-0.000911533
-0.00816488
0.000694305
-2.21972e-05
-0.00850822
0.00040185
0.000897221
-0.00863624
0.000295667
0.00148018
-0.00836511
0.000613238
0.00178861
-0.00812548
0.000918887
0.00219358
-0.00835756
0.000825065
0.00263371
-0.00846226
0.000680717
0.00298613
-0.00832238
0.000639073
0.00318376
-0.00793866
0.000711158
0.00321798
-0.00735322
0.000882648
0.00312359
-0.00664157
0.00113155
0.00291683
-0.00595499
0.0013956
0.00254762
-0.00553362
0.00154827
0.00163976
-0.00583346
0.00157403
-0.00706065
0.00138489
-0.00149384
-0.00646203
-0.00149384
-0.00302759
-0.00595667
-0.000827483
-0.00392075
-0.00585516
-0.000897302
-0.0041747
-0.00612388
-0.00119431
-0.00385041
-0.00652026
-0.00160036
-0.00302973
-0.0069455
-0.00204012
-0.00181661
-0.00730996
-0.00241144
-0.000416654
-0.00750551
-0.00253072
0.000844855
-0.00741117
-0.00221549
0.00177797
-0.00719585
-0.00186278
0.00283706
-0.00737732
-0.00203938
0.00382728
-0.00732299
-0.00212955
0.00458768
-0.0070527
-0.00203015
0.00507403
-0.00662351
-0.00180157
0.00528624
-0.00608483
-0.00148069
0.00522594
-0.00548791
-0.00109345
0.00485457
-0.00490456
-0.000679171
0.00405935
-0.00444753
-0.000290993
0.00254304
-0.00436645
4.91713e-05
-0.00489199
0.000374247
-0.00323107
-0.00323107
-0.00548449
-0.00370335
-0.00662919
-0.00471054
-0.00697329
-0.00577985
-0.00663234
-0.00686126
-0.00568078
-0.0078971
-0.00417097
-0.0088198
-0.00219298
-0.00948353
-1.14e-05
-0.00959276
0.00217716
-0.00938442
0.00415931
-0.0093595
0.00569126
-0.00885498
0.00675093
-0.00811242
0.00736646
-0.00723909
0.00759181
-0.00631026
0.00745688
-0.00535306
0.00692362
-0.0043714
0.00583581
-0.00335983
0.00373491
-0.00226566
-0.0011572
-0.00227873
0.00529168
-0.00514474
-0.00470316
0.00484801
-0.00470316
-0.00637798
0.00360999
-0.00400415
-0.00707282
0.00220315
-0.00304212
-0.00718659
0.00123234
-0.00205681
-0.00702003
0.000542294
-0.00113683
-0.00657938
-0.00013081
-0.000347664
-0.00570476
-0.000826938
0.000141956
-0.00448192
-0.00130565
0.000331044
-0.00308049
-0.00152982
0.000341638
-0.00151607
-0.00166159
0.000233446
0.00020254
-0.00172575
4.64006e-05
0.00195594
-0.00159211
-0.000234086
0.0034664
-0.00109263
-0.000646206
0.00453286
-0.000299488
-0.00125366
0.00501178
0.000695276
-0.00198781
0.00472197
0.00188622
-0.00278945
0.0035304
0.00317066
-0.00355604
0.00166859
0.00412188
-0.00412352
0.00411597
-0.00413365
0.000205778
0.00611581
-0.000466024
-0.000601809
0.00646237
-0.000601809
-0.00200751
0.00571442
-0.00089347
-0.00337883
0.00421498
-0.00110415
-0.00420551
0.00264217
-0.00116859
-0.0043097
0.00114057
-0.0010302
-0.00399663
-8.10459e-05
-0.000718971
-0.00359667
-0.00104633
-0.000309107
-0.0031483
-0.00173918
-2.41252e-05
-0.00252992
-0.00223282
0.000104547
-0.0016856
-0.0026217
0.000119008
-0.000653301
-0.00285859
8.56069e-05
0.000467538
-0.00277697
3.40179e-05
0.00151075
-0.00212761
-6.69155e-05
0.00212948
-0.000771539
-0.000277824
0.00211444
0.00102941
-0.000623886
0.00149639
0.00295635
-0.000972722
0.000477307
0.00469879
-0.00121676
-0.00035498
0.00542061
-0.00116039
0.00415309
-0.000406012
0.00193535
0.00320796
0.0030636
0.00272777
0.00487696
0.00272777
0.00228575
0.00553435
0.0020021
0.00109169
0.00499848
0.00116865
-0.000191422
0.00373426
0.000459298
-0.0011021
0.00205043
-5.40425e-05
-0.00142902
0.000347936
-0.000279406
-0.00140936
-0.000947257
-0.000239988
-0.00133932
-0.00177321
-4.23269e-05
-0.0012769
-0.00236347
0.000135852
-0.00112943
-0.00292033
0.000220216
-0.000829798
-0.00336558
0.000295308
-0.000441126
-0.00342624
0.000394627
-6.31611e-05
-0.00281532
0.000508136
0.000119707
-0.00128292
0.000562137
-0.000134566
0.00098982
0.000442724
-0.000881426
0.00336126
0.000403434
-0.00163912
0.00500224
0.000541554
-0.00175139
0.00489476
0.00100591
0.00153936
0.00204332
0.00248166
-0.00135762
0.00417771
0.00437206
0.00109587
0.00437206
0.00505275
0.00327453
0.00392409
0.00467517
0.00409569
0.0031344
0.00375905
0.0036691
0.00231306
0.00269042
0.00242328
0.00158289
0.00174367
0.000866678
0.000976563
0.00111483
-0.000521477
0.000537096
0.000795465
-0.00158595
0.00039045
0.000529557
-0.0022517
0.000412508
0.000181814
-0.00279416
0.000501977
-0.00023471
-0.00326703
0.000634181
-0.000639156
-0.00345705
0.000823844
-0.000988283
-0.00302506
0.00108685
-0.00129428
-0.00164503
0.00132839
-0.00170856
0.000621407
0.00142728
-0.00221526
0.00298493
0.00160521
-0.00251931
0.00428932
0.00193693
-0.0019391
0.0031449
0.00247659
-0.00175948
0.00327645
0.00216041
-0.00508398
0.00296751
0.00403714
-0.0026577
0.00403714
0.00546576
-1.60269e-05
0.00455787
0.00607223
0.00185905
0.00441137
0.00599249
0.00238172
0.00394258
0.00547507
0.00185619
0.00335303
0.00471401
0.000856729
0.00272755
0.00381231
-0.000119827
0.00208987
0.00299566
-0.00111305
0.00157879
0.00230789
-0.00186058
0.00131798
0.00163974
-0.0024519
0.00127376
0.000831718
-0.00287219
0.00136489
-0.000131206
-0.00303426
0.00156152
-0.00113767
-0.00272835
0.00189344
-0.00197364
-0.00167087
0.0022946
-0.00243624
0.000138837
0.00264117
-0.00255031
0.00196643
0.0029171
-0.00228048
0.00272794
0.00326651
-0.00123855
0.000712186
0.00363836
-0.00438915
0.00355505
0.00178912
-0.00732005
0.00127555
0.00293485
-0.00494925
0.00293485
0.00393161
-0.00258802
0.00414701
0.00481496
-0.000689743
0.00476903
0.00537638
0.000238784
0.00488558
0.00550763
0.000334723
0.00465705
0.00531669
-0.000158495
0.00424969
0.00486237
-0.00066701
0.00375403
0.0041654
-0.00115549
0.00324414
0.00334852
-0.00162227
0.00289281
0.0024875
-0.00212988
0.0027304
0.00154904
-0.00252581
0.00270909
0.000503327
-0.00268998
0.00278853
-0.000597118
-0.00250015
0.00299962
-0.00155977
-0.00180543
0.0033865
-0.00204664
-0.000672439
0.00384748
-0.00192564
0.000435567
0.00413558
-0.00127047
0.000547574
0.0043244
-0.000427904
-0.00167715
0.00417875
-0.00603021
0.0033644
0.00139912
-0.00852037
8.91155e-05
0.00201347
-0.00617806
0.00201347
0.00239375
-0.00415698
0.00327073
0.00282786
-0.00268269
0.00399618
0.00330521
-0.00190989
0.00429177
0.00367551
-0.00168449
0.00423868
0.00377897
-0.001801
0.00399989
0.00365788
-0.0019763
0.00379323
0.00329187
-0.00207067
0.0037338
0.0027411
-0.00221008
0.0036947
0.00210406
-0.0025871
0.00357204
0.00141951
-0.00293977
0.00341943
0.000709937
-0.00311284
0.00332992
8.55963e-06
-0.00301737
0.00337923
-0.000577242
-0.00260484
0.00361799
-0.000887212
-0.00193561
0.00397015
-0.000749156
-0.00137945
0.00422881
-0.000350318
-0.00157485
0.00426537
2.13398e-05
-0.00347009
0.00374526
-0.00682812
0.00272407
0.000671087
-0.00831779
-0.00128759
0.000725055
-0.00628611
0.000725055
0.000633686
-0.00473913
0.0017373
0.000808884
-0.00383276
0.00208988
0.0012039
-0.00341544
0.00207781
0.00168988
-0.00330881
0.00183258
0.00208599
-0.00332395
0.00152864
0.00227349
-0.00328864
0.00142046
0.00222372
-0.00306713
0.00165944
0.00200788
-0.00301485
0.00193948
0.00176914
-0.00337998
0.00185665
0.00153916
-0.00369091
0.00166181
0.00130871
-0.00382614
0.00158279
0.00106825
-0.00374207
0.00167625
0.000854043
-0.00344728
0.00193923
0.000729352
-0.00302686
0.0023474
0.000708791
-0.00271411
0.00275072
0.000703331
-0.00288248
0.00286125
0.000459075
-0.00420321
0.00255129
-0.00658191
0.00159763
-0.000827483
-0.00595667
-0.00302759
-0.00166588
-0.00460941
-0.00166588
-0.00221489
-0.00381348
-0.00127403
-0.00230328
-0.00350243
-0.00143633
-0.00197189
-0.00341208
-0.00193517
-0.00129439
-0.00342238
-0.0026041
-0.000361736
-0.00344331
-0.00322477
0.000594371
-0.00336106
-0.00341443
0.00131801
-0.00298799
-0.00301829
0.00175129
-0.00272964
-0.00258129
0.00225062
-0.00322477
-0.00269393
0.00276393
-0.00346825
-0.00286556
0.00312617
-0.00353099
-0.00268757
0.00332444
-0.00344312
-0.00229884
0.0033774
-0.00323939
-0.0017416
0.00330059
-0.00297995
-0.00106365
0.00304024
-0.00277383
-0.000359193
0.00249993
-0.0027908
0.000157525
0.00144794
-0.00340584
0.000303668
-0.00478758
2.77337e-05
-0.00370335
-0.00548449
-0.00600809
-0.00600809
-0.00720185
-0.00733033
-0.00758623
-0.00889795
-0.00730571
-0.0105539
-0.00643298
-0.0121922
-0.0049973
-0.0136988
-0.00300048
-0.0148414
-0.000343143
-0.0152381
0.00255078
-0.015008
0.00474418
-0.0147777
0.00627592
-0.013855
0.00722563
-0.0125932
0.00768078
-0.0111374
0.00774912
-0.00961804
0.00749411
-0.00807806
0.00688514
-0.00653635
0.00574352
-0.00500911
0.00360258
-0.00353068
-0.00234233
-0.0020684
0.00431163
-0.00738872
-0.00400415
0.00360999
-0.00637798
-0.00527748
0.00254632
-0.00527748
-0.0058415
0.00164632
-0.00412462
-0.00596769
0.00107366
-0.00300441
-0.005889
0.000657921
-0.00187357
-0.00564031
0.000164664
-0.000761136
-0.00502079
-0.000518514
4.09379e-05
-0.00400611
-0.00111169
0.000428145
-0.00277303
-0.00143378
0.000542454
-0.00135973
-0.00160607
0.000426329
0.000215284
-0.00165385
0.00012535
0.00179711
-0.00145788
-0.000357931
0.00310964
-0.000883904
-0.00107479
0.00400066
-7.76549e-05
-0.00206708
0.00432782
0.000877619
-0.00319276
0.00401291
0.00190202
-0.00437689
0.00297552
0.00298951
-0.00550871
0.00142096
0.00386334
-0.00643306
0.00425874
-0.00697237
-0.000194023
0.00633119
-0.00229241
-0.00089347
0.00571442
-0.00200751
-0.00196666
0.00469218
-0.00196666
-0.0030072
0.00351991
-0.00193753
-0.00364627
0.00235641
-0.00181248
-0.00370836
0.00119779
-0.0015081
-0.00336785
0.000117174
-0.00101201
-0.00297371
-0.00080489
-0.000416797
-0.00258208
-0.00158187
5.45181e-05
-0.00206991
-0.00216479
0.000323493
-0.00135575
-0.00258623
0.000385104
-0.000454073
-0.0027929
0.000323067
0.000548075
-0.00261412
0.00018819
0.0014689
-0.00182027
-5.13336e-05
0.00193859
-0.000355945
-0.000469285
0.00181669
0.0013915
-0.00101607
0.00116315
0.00308162
-0.00149918
0.000220275
0.00452527
-0.00181026
-0.000492379
0.00524132
-0.00182646
0.00476482
-0.00140533
0.00138058
0.00562459
0.00238904
0.0020021
0.00553435
0.00228575
0.00171917
0.00525754
0.00171917
0.000839526
0.00457452
0.000993295
-0.000151276
0.00348077
0.000325463
-0.000855329
0.00202343
-0.000175785
-0.00109452
0.000476376
-0.000399442
-0.00103183
-0.000804205
-0.000303298
-0.000943013
-0.00172311
1.02016e-05
-0.000900335
-0.00240821
0.000336696
-0.000811386
-0.00298157
0.000526704
-0.000603872
-0.00336384
0.000658831
-0.00030826
-0.00330188
0.000786856
-2.61561e-05
-0.00249607
0.000901876
3.0552e-05
-0.00076698
0.000916433
-0.000390329
0.00148801
0.000766921
-0.00121487
0.00355152
0.000757753
-0.00195148
0.0048085
0.000994484
-0.00193988
0.0046766
0.00155854
0.00230106
0.00256678
0.00234534
0.00243357
0.00502305
0.00392409
0.00327453
0.00505275
0.00453936
0.00402661
0.00453936
0.00430443
0.00424956
0.00369396
0.00357106
0.00374565
0.00278133
0.00266382
0.00259092
0.00192252
0.00185294
0.00108542
0.00117838
0.00130058
-0.000374843
0.000660156
0.000982336
-0.00153688
0.000522562
0.000680015
-0.00232222
0.000628963
0.000290492
-0.00291813
0.000828188
-0.000166953
-0.0033455
0.0010734
-0.000612177
-0.00340659
0.00137389
-0.00101659
-0.00273215
0.00172743
-0.00141773
-0.00107381
0.00203638
-0.00196445
0.00125317
0.00220876
-0.00260667
0.00334499
0.00245376
-0.00294666
0.00419912
0.00288602
-0.00231347
0.00300616
0.0035136
-0.00107671
0.00434065
0.00269609
-0.00190238
0.00460721
0.00455787
-1.60271e-05
0.00546576
0.00573297
0.00167622
0.00573297
0.00616855
0.00282303
0.0054021
0.00600774
0.00309587
0.00475301
0.00545075
0.00253513
0.00396572
0.00467788
0.00145382
0.00313204
0.00381749
0.000242308
0.00233319
0.00301142
-0.000903948
0.00175204
0.00229211
-0.00180839
0.00152361
0.00154177
-0.00245779
0.00156391
0.000651754
-0.00286101
0.00177057
-0.000362472
-0.00293488
0.0021042
-0.00137672
-0.00240016
0.00257584
-0.00220579
-0.00102504
0.00307499
-0.00273953
0.000933279
0.00349481
-0.00301287
0.00267195
0.00386339
-0.00286141
0.00303067
0.00428336
-0.00179886
0.000927463
0.00465441
-0.00382186
0.00450125
0.00257188
-0.00515108
0.00195225
0.00414701
-0.00258802
0.00393161
0.00523811
-0.000506083
0.00523811
0.00592536
0.00113815
0.00576656
0.00621509
0.00197059
0.00572102
0.00614138
0.00194447
0.00532136
0.00576422
0.00135335
0.00472735
0.005155
0.000541279
0.00406439
0.00434626
-0.000283686
0.00343275
0.00339883
-0.000989593
0.0030216
0.00239236
-0.00160809
0.00288731
0.00128661
-0.00200926
0.00296324
6.07813e-05
-0.0021038
0.00318343
-0.00117678
-0.00174269
0.00357986
-0.00218282
-0.00077049
0.00413809
-0.00267189
0.000588884
0.00468099
-0.00264617
0.00173361
0.00504815
-0.0021164
0.00152824
0.00529698
-0.0011248
-0.00102052
0.00513506
-0.0055765
0.00399415
0.00208217
-0.00711542
-2.88316e-05
0.00327073
-0.00415698
0.00239375
0.00402105
-0.00200683
0.00402105
0.00457658
-0.000357035
0.00493576
0.00497213
0.000600775
0.00526597
0.00515248
0.000848732
0.00515401
0.0050704
0.000627861
0.00480744
0.00471815
0.000258744
0.00442805
0.00403907
-3.90302e-05
0.00416828
0.00317249
-0.00047472
0.0040465
0.00221911
-0.00102001
0.00393743
0.00120117
-0.00143485
0.00386303
0.000143933
-0.00160879
0.0038922
-0.000872277
-0.00145829
0.00411109
-0.00167559
-0.000926151
0.00457698
-0.00204879
-0.000129459
0.00506167
-0.0018846
0.000418416
0.00537976
-0.00132376
-0.000157053
0.00538975
-0.000689795
-0.00254232
0.004633
-0.00652629
0.00298394
0.00106389
-0.00764553
-0.00182149
0.0017373
-0.00473913
0.000633686
0.00210533
-0.00274298
0.00210533
0.00249469
-0.00145248
0.00279589
0.00295027
-0.000744914
0.00296787
0.00333799
-0.000477497
0.00277106
0.00352426
-0.000445615
0.00241583
0.00345283
-0.000452872
0.0022035
0.00308164
-0.000339456
0.00233106
0.00245551
-0.000415028
0.00250593
0.00180495
-0.000895917
0.00238312
0.00113749
-0.00129702
0.00219145
0.00048127
-0.00153095
0.00216115
-9.92387e-05
-0.00154941
0.00234786
-0.000526439
-0.00134027
0.00278051
-0.00067911
-0.00102704
0.00339761
-0.00051773
-0.000891435
0.00389912
-0.000290761
-0.00143342
0.00391055
1.08168e-06
-0.00342509
0.0031421
-0.00642961
0.00150191
-0.000897302
-0.00585516
-0.00392075
-0.00127403
-0.00381348
-0.00221489
-0.0013653
-0.00256052
-0.0013653
-0.00114759
-0.00187159
-0.00123497
-0.000709438
-0.0014502
-0.00166808
-5.43034e-05
-0.00115842
-0.00257833
0.000700851
-0.000900384
-0.00352516
0.00137063
-0.000472939
-0.00406414
0.00178851
0.000188393
-0.003964
0.00193321
0.000457514
-0.00359852
0.00210465
-0.000253418
-0.00350786
0.00226588
-0.000984509
-0.00333931
0.00226136
-0.00139646
-0.00281755
0.00219284
-0.00157074
-0.00220903
0.0021068
-0.00157456
-0.00142133
0.0020399
-0.00149713
-0.000526725
0.00201062
-0.00148308
0.000261648
0.00188134
-0.00179263
0.000645924
0.001222
-0.00285858
0.000396386
-0.00474678
-0.00043322
-0.00471054
-0.00662919
-0.00733033
-0.00720185
-0.00861061
-0.00861061
-0.00899318
-0.010387
-0.00866174
-0.0123356
-0.00771216
-0.0143002
-0.00614468
-0.0161667
-0.00382756
-0.0176314
-0.000603183
-0.018274
0.00298851
-0.0181421
0.00564884
-0.0176914
0.00735152
-0.0165422
0.00831165
-0.0149498
0.00868131
-0.0130778
0.00864864
-0.01116
0.00832204
-0.00924866
0.00768577
-0.00738323
0.00650287
-0.00561894
0.00416629
-0.00405278
-0.00292293
-0.0015335
0.00240736
-0.00826299
-0.00304212
0.00220315
-0.00707282
-0.00412462
0.00164632
-0.0058415
-0.00469252
0.00113569
-0.00469252
-0.00486572
0.000775684
-0.003607
-0.00480908
0.00050495
-0.00243528
-0.0046121
0.000168186
-0.00112641
-0.00417419
-0.000419576
2.25907e-05
-0.00341806
-0.00103001
0.000702091
-0.00247966
-0.00139705
0.00100121
-0.00133665
-0.00157172
0.000855148
-7.01439e-06
-0.00157223
0.000368048
0.00133028
-0.0013052
-0.000389939
0.00241232
-0.00069483
-0.00146198
0.00310574
4.39701e-05
-0.00280454
0.00331303
0.000842725
-0.00424291
0.00304421
0.00156866
-0.00567697
0.00228511
0.00229892
-0.00704893
0.00116359
0.00292616
-0.00823831
0.00335068
-0.00916023
-0.000463205
0.00453574
-0.00395808
-0.00110415
0.00421498
-0.00337883
-0.00193753
0.00351991
-0.0030072
-0.00270786
0.00267612
-0.00270786
-0.00315529
0.00177704
-0.00236656
-0.003126
0.000842725
-0.00187526
-0.00273443
-4.05567e-05
-0.00119484
-0.00232485
-0.00085418
-0.000391709
-0.00204034
-0.00161751
0.000357602
-0.00172898
-0.00221831
0.000833485
-0.00121487
-0.00262075
0.000920112
-0.000467431
-0.00275399
0.000757483
0.000421884
-0.00246559
0.00045933
0.00124861
-0.0015817
8.83203e-06
0.00165026
-0.000158842
-0.000668184
0.00155735
0.00137971
-0.00146036
0.00103289
0.00272229
-0.0021287
0.000331662
0.003812
-0.00262265
-0.000203046
0.00452226
-0.00288854
0.00470237
-0.00296094
0.000758551
0.00527194
0.000893823
0.00116865
0.00499848
0.00109169
0.000993295
0.00457452
0.000839526
0.00038811
0.00388619
0.00038811
-0.00029865
0.00285931
-7.02503e-05
-0.000746776
0.00151536
-0.000400396
-0.000816102
0.000119021
-0.000489699
-0.000669319
-0.00106713
-0.000237062
-0.000609849
-0.00194614
0.000279473
-0.000675381
-0.00261973
0.000803758
-0.000703038
-0.00314809
0.00108181
-0.000579954
-0.00342906
0.00121091
-0.000323892
-0.00322112
0.00128641
-5.75325e-05
-0.0022649
0.00131875
-1.77263e-05
-0.00050844
0.00122618
-0.000427668
0.00156243
0.000993963
-0.00115139
0.00328249
0.000920952
-0.00175967
0.00429378
0.00112054
-0.00168027
0.0043841
0.00161676
0.00322424
0.00236407
0.00185437
0.0039048
0.0045355
0.0031344
0.00409569
0.00467517
0.00369396
0.00424956
0.00430443
0.00360011
0.00407361
0.00360011
0.00308042
0.00338974
0.00277038
0.00239317
0.00219962
0.00192541
0.00179215
0.000711133
0.00118729
0.00138205
-0.000756693
0.000759889
0.00108592
-0.00187054
0.000743195
0.000712885
-0.00263518
0.00101758
0.00023911
-0.00319246
0.00134646
-0.000258484
-0.00353182
0.00167386
-0.000695557
-0.00343094
0.00202089
-0.0010855
-0.00253597
0.00238852
-0.00150079
-0.000752722
0.00269596
-0.00207924
0.00147158
0.00287795
-0.00272901
0.00325435
0.00313146
-0.00304875
0.00390083
0.00359843
-0.00244077
0.00302179
0.00426766
5.52254e-05
0.00506869
0.0027814
0.000172545
0.00555788
0.00441137
0.00185905
0.00607223
0.0054021
0.00282303
0.00616855
0.00578638
0.00330484
0.00578638
0.00565496
0.00318479
0.00508922
0.0051629
0.00243962
0.0042177
0.00446637
0.00126324
0.00327647
0.00367368
-2.5651e-05
0.0023949
0.00293186
-0.00125838
0.00188183
0.00217502
-0.00213246
0.00177787
0.00134023
-0.00274597
0.00195233
0.000385193
-0.00309411
0.00228803
-0.000633021
-0.00304909
0.00274069
-0.00159785
-0.00228628
0.00329109
-0.00239335
-0.000714628
0.00383246
-0.00297857
0.0012708
0.00428079
-0.00335158
0.0028191
0.00467155
-0.00326713
0.00299757
0.00510203
-0.00220115
0.0011579
0.00545219
-0.00295157
0.00530683
0.00310369
-0.00383289
0.00285388
0.00476903
-0.000689743
0.00481496
0.00576656
0.00113815
0.00592536
0.00631212
0.0022136
0.00631212
0.00647603
0.0025775
0.00616431
0.00630997
0.00227257
0.00565442
0.00586362
0.00150929
0.00492767
0.00520097
0.000579882
0.00412159
0.00430642
-0.000334554
0.00340359
0.00327103
-0.00110881
0.00303347
0.00215825
-0.00175143
0.00300568
0.000941774
-0.00213774
0.00322348
-0.000368654
-0.00215814
0.00360305
-0.0016312
-0.0016005
0.00415676
-0.0026005
-0.000406018
0.00479887
-0.00310368
0.00107927
0.00537571
-0.00316741
0.00216388
0.00576706
-0.00272754
0.00186787
0.00598674
-0.00161807
-0.000559656
0.00574309
-0.00498356
0.00440797
0.00243744
-0.0065452
0.000245916
0.00399618
-0.00268269
0.00282786
0.00493576
-0.000357035
0.00457658
0.00547047
0.00114412
0.00547047
0.0057623
0.00181022
0.00574138
0.00583535
0.0017965
0.00555701
0.00566064
0.00139713
0.00509432
0.00520625
0.00091538
0.00454698
0.00442123
0.000521723
0.00409711
0.00335174
0.000134266
0.003873
0.00219005
-0.000497159
0.00384495
0.000967972
-0.00098675
0.0039342
-0.00029449
-0.00116173
0.00415833
-0.00147375
-0.000903925
0.00459384
-0.00235994
-0.000172534
0.00522972
-0.00270268
0.000701341
0.00578235
-0.00253548
0.00125963
0.00611677
-0.00193861
0.000583321
0.00607737
-0.00108095
-0.00194879
0.00516438
-0.00622514
0.00314447
0.0011151
-0.00757205
-0.00190983
0.00208988
-0.00383276
0.000808884
0.00279589
-0.00145248
0.00249469
0.00342487
-0.000113879
0.00342487
0.00384618
0.000771713
0.00358504
0.00413404
0.000985207
0.0032945
0.00423022
0.000938495
0.0027783
0.0040582
0.000992599
0.00229834
0.00348065
0.00133056
0.00209981
0.00260769
0.00132442
0.00218877
0.00178875
0.000472083
0.00223285
0.000934761
-0.000271714
0.00233043
1.54882e-05
-0.000585968
0.00250468
-0.000808644
-0.000608316
0.0028764
-0.00132985
-0.000375089
0.00350427
-0.00146691
-5.197e-05
0.00428795
-0.00117003
5.76833e-05
0.00480414
-0.000686773
-0.000635226
0.00464578
-0.000175425
-0.0028902
0.00357206
-0.00639559
0.00149681
-0.00119431
-0.00612388
-0.0041747
-0.00143633
-0.00350243
-0.00230328
-0.00123497
-0.00187159
-0.00114759
-0.000858992
-0.000865875
-0.000858992
-0.000296504
-7.86263e-05
-0.00138024
0.000211693
0.000294212
-0.00239553
0.000689149
0.000563256
-0.00362735
0.00125496
0.00100922
-0.00464654
0.00187121
0.00178891
-0.00503856
0.00218605
0.00222266
-0.00481156
0.00244543
0.00129079
-0.00458591
0.00231934
0.000519563
-0.00400447
0.00202813
-2.89321e-05
-0.00308337
0.00175842
-0.000448674
-0.00209898
0.00158798
-0.000623697
-0.0010023
0.00155113
-0.000673523
0.000131634
0.00168056
-0.000815321
0.00100516
0.00181438
-0.00135287
0.00122967
0.00136057
-0.00269808
0.000657977
-0.00497708
-0.000491276
-0.00577985
-0.00697329
-0.00889795
-0.00758623
-0.010387
-0.00899318
-0.01082
-0.01082
-0.0104249
-0.0128093
-0.00938134
-0.0150495
-0.00763376
-0.017351
-0.00492995
-0.019326
-0.000993185
-0.0204218
0.00355445
-0.0204671
0.00678509
-0.0196312
0.00879108
-0.0180286
0.00981085
-0.0159985
0.0100957
-0.0138114
0.00995061
-0.0116386
0.00953789
-0.00950952
0.0088316
-0.00749233
0.00751539
-0.00565568
0.0048726
-0.00410816
-0.00302752
-0.00093805
0.000951559
-0.00827672
-0.00205681
0.00123234
-0.00718659
-0.00300441
0.00107366
-0.00596769
-0.003607
0.000775684
-0.00486572
-0.00384981
0.000485535
-0.00384981
-0.00381239
0.000244967
-0.00271775
-0.00358924
-3.20449e-05
-0.00131759
-0.00325672
-0.000493143
0.000183198
-0.00281426
-0.00105639
0.00131609
-0.00233998
-0.00139833
0.00192534
-0.00160825
-0.00152002
0.00164354
-0.000594819
-0.00143481
0.000789521
0.000485039
-0.0011005
-0.000369231
0.00136867
-0.000512386
-0.00183323
0.00190203
0.000119815
-0.00345778
0.00205522
0.000667565
-0.00506376
0.00186581
0.0010805
-0.00656822
0.00138215
0.00140283
-0.00796834
0.000711314
0.00160148
-0.00916927
0.00161626
-0.0100656
-0.000585203
0.0024351
-0.00485665
-0.00116859
0.00264217
-0.00420551
-0.00181248
0.00235641
-0.00364627
-0.00236656
0.00177704
-0.00315529
-0.00264083
0.00103396
-0.00264083
-0.0025183
0.000250322
-0.0020032
-0.0021056
-0.00044145
-0.00119812
-0.00172517
-0.00113692
-0.000128293
-0.00162538
-0.001791
0.000992501
-0.00163996
-0.00229547
0.00174529
-0.00139971
-0.00261394
0.00177387
-0.000807478
-0.00264552
0.00137604
1.86434e-05
-0.0022632
0.000795969
0.000806519
-0.00137759
8.61876e-05
0.00123912
-0.000130417
-0.00085062
0.00125394
0.00109164
-0.00189943
0.000949656
0.00205874
-0.00280291
0.00051249
0.00275716
-0.00354016
0.00013788
0.00320142
-0.00411431
0.00339979
-0.0046071
0.000268585
0.00364971
-0.00058967
0.000459298
0.00373426
-0.000191422
0.000325463
0.00348077
-0.000151276
-7.02505e-05
0.00285931
-0.000298649
-0.000483507
0.00186034
-0.000483506
-0.000676217
0.00062335
-0.000580758
-0.000560957
-0.000608685
-0.000437698
-0.00038703
-0.00159489
4.70659e-05
-0.000444448
-0.00229796
0.000843961
-0.000736623
-0.0028131
0.00161368
-0.000929323
-0.00323405
0.00189472
-0.000854088
-0.00340914
0.00189939
-0.000551502
-0.00308746
0.00180815
-0.000191069
-0.00209109
0.00167185
-3.65083e-05
-0.000476071
0.00141724
-0.000280137
0.00129603
0.00103304
-0.000779515
0.00268429
0.000794507
-0.00118517
0.00348624
0.000796755
-0.00108532
0.00369007
0.00102783
0.00331559
0.00136249
0.00133203
0.00330999
0.003543
0.00231306
0.0036691
0.00375905
0.00278133
0.00374565
0.00357106
0.00277038
0.00338974
0.00308042
0.00242076
0.00255945
0.00242076
0.00194925
0.00131139
0.00170883
0.00156824
-0.000165382
0.00112502
0.00132206
-0.00148315
0.000894421
0.00100241
-0.00235183
0.00111686
0.000470002
-0.00289804
0.00163506
-0.000125968
-0.00334265
0.00205115
-0.000620365
-0.00360806
0.00236729
-0.000955035
-0.00338614
0.00265433
-0.0012116
-0.00239591
0.00294996
-0.00151103
-0.000669987
0.0031893
-0.00198427
0.00132286
0.00332426
-0.00251178
0.00283029
0.00351277
-0.00273996
0.00340666
0.00390593
-0.00218357
0.00291641
0.00448465
0.00108919
0.00511128
0.00257561
0.00062922
0.00566291
0.00394258
0.00238172
0.00599249
0.00475301
0.00309587
0.00600774
0.00508922
0.00318479
0.00565496
0.0050025
0.00273279
0.0050025
0.00460115