/*--------------------------------*- C++ -*----------------------------------*\
  =========                 |
  \\      /  F ield         | OpenFOAM: The Open Source CFD Toolbox
   \\    /   O peration     | Website:  https://openfoam.org
    \\  /    A nd           | Version:  9
     \\/     M anipulation  |
\*---------------------------------------------------------------------------*/
FoamFile
{
    format      ascii;
    class       volScalarField;
    location    "0.05";
    object      p;
}
// * * * * * * * * * * * * * * * * * * * * * * * * * * * * * * * * * * * * * //

dimensions      [0 2 -2 0 0 0 0];

internalField   nonuniform List<scalar> 
12225
(
-1.18079
-3.4635
-4.62533
-4.93254
-5.09962
-5.25784
-5.38068
-5.46712
-5.5345
-5.59309
-5.6447
-5.68925
-5.72715
-5.7581
-5.78197
-5.79009
-5.78851
-5.73659
-4.64834
-5.35016
-5.43974
-5.30369
-5.26241
-5.32824
-5.40726
-5.47113
-5.52593
-5.5769
-5.62387
-5.66576
-5.7024
-5.73325
-5.75864
-5.77181
-5.78382
-5.77695
-4.85312
-4.74988
-4.90602
-5.02721
-5.13334
-5.25419
-5.36076
-5.44146
-5.50647
-5.56392
-5.61551
-5.66107
-5.70086
-5.73491
-5.76403
-5.7847
-5.8092
-5.83696
-4.71588
-4.63745
-4.91287
-5.09066
-5.18389
-5.27959
-5.37301
-5.44862
-5.51104
-5.56688
-5.61763
-5.66298
-5.70314
-5.73845
-5.77005
-5.79725
-5.83029
-5.87433
-4.72293
-4.73989
-4.97934
-5.1283
-5.20313
-5.28641
-5.37434
-5.44848
-5.5103
-5.56567
-5.61629
-5.66201
-5.70311
-5.74026
-5.77485
-5.80786
-5.84686
-5.89707
-4.78473
-4.82691
-5.00406
-5.13386
-5.21067
-5.29178
-5.37643
-5.44938
-5.51087
-5.56601
-5.61665
-5.66283
-5.70494
-5.74386
-5.78112
-5.81839
-5.86106
-5.91348
-4.84462
-4.88387
-5.01965
-5.14095
-5.22217
-5.30049
-5.38054
-5.45152
-5.51249
-5.56735
-5.61796
-5.66456
-5.70761
-5.7481
-5.78753
-5.82773
-5.87241
-5.92459
-4.89798
-4.93261
-5.0423
-5.15404
-5.23546
-5.30999
-5.38534
-5.45418
-5.51451
-5.56907
-5.61962
-5.66659
-5.71049
-5.7523
-5.7934
-5.83539
-5.88077
-5.93122
-4.94802
-4.9795
-5.06971
-5.16965
-5.24861
-5.31975
-5.39094
-5.4575
-5.517
-5.57115
-5.62157
-5.66882
-5.7134
-5.7562
-5.7984
-5.84127
-5.88636
-5.93441
-4.9957
-5.02408
-5.0987
-5.18677
-5.26208
-5.33019
-5.39761
-5.46168
-5.52007
-5.57368
-5.62386
-5.67124
-5.71627
-5.7597
-5.80247
-5.84549
-5.88967
-5.93513
-5.04086
-5.06591
-5.12818
-5.20545
-5.27632
-5.34137
-5.40527
-5.46674
-5.5238
-5.57673
-5.62656
-5.67387
-5.71909
-5.7628
-5.80569
-5.84837
-5.89129
-5.93426
-5.07981
-5.10192
-5.15526
-5.22377
-5.29007
-5.35218
-5.41307
-5.47217
-5.52785
-5.58002
-5.62939
-5.67649
-5.72166
-5.76536
-5.80806
-5.85014
-5.89182
-5.93276
-5.116
-5.1356
-5.18165
-5.24248
-5.30414
-5.36326
-5.42135
-5.47814
-5.53236
-5.58367
-5.6325
-5.67924
-5.72421
-5.76769
-5.81001
-5.85137
-5.89184
-5.93102
-5.1542
-5.17131
-5.21068
-5.26403
-5.32054
-5.37623
-5.4313
-5.48557
-5.53806
-5.58827
-5.63635
-5.68255
-5.72708
-5.77011
-5.81181
-5.85226
-5.89142
-5.92895
-5.19321
-5.20795
-5.24143
-5.28788
-5.33907
-5.39096
-5.44289
-5.49451
-5.54504
-5.59391
-5.64101
-5.68645
-5.73031
-5.77267
-5.81357
-5.85299
-5.89088
-5.92695
-5.23118
-5.24379
-5.27236
-5.31284
-5.35892
-5.40695
-5.45574
-5.50472
-5.55318
-5.60052
-5.64647
-5.69097
-5.73399
-5.77552
-5.81553
-5.85396
-5.89075
-5.9257
-5.2653
-5.27621
-5.301
-5.33673
-5.37845
-5.42297
-5.4689
-5.51547
-5.56196
-5.60776
-5.6525
-5.69599
-5.73812
-5.77882
-5.818
-5.85561
-5.8916
-5.92585
-5.2913
-5.30107
-5.32339
-5.35599
-5.39472
-5.43671
-5.48053
-5.52529
-5.57027
-5.61484
-5.65858
-5.70122
-5.74262
-5.78265
-5.82124
-5.85833
-5.89389
-5.92785
-5.30225
-5.31166
-5.33324
-5.36495
-5.40287
-5.44415
-5.48731
-5.53148
-5.57595
-5.62009
-5.66346
-5.70579
-5.74691
-5.78672
-5.82515
-5.86217
-5.89775
-5.93191
-5.28959
-5.29978
-5.32304
-5.35709
-5.39742
-5.44068
-5.48534
-5.53072
-5.57619
-5.62114
-5.66512
-5.70792
-5.74942
-5.78956
-5.82828
-5.86559
-5.90149
-5.936
-5.26506
-5.27642
-5.30259
-5.3409
-5.38542
-5.43192
-5.47908
-5.52657
-5.57378
-5.62003
-5.66496
-5.7085
-5.75061
-5.79124
-5.83038
-5.86806
-5.90432
-5.93919
-5.23138
-5.24397
-5.27447
-5.31966
-5.37009
-5.42037
-5.47046
-5.52073
-5.57024
-5.61811
-5.66417
-5.70856
-5.75134
-5.79249
-5.83204
-5.87007
-5.90664
-5.94182
-5.19171
-5.20454
-5.24045
-5.29584
-5.35403
-5.40833
-5.46144
-5.51462
-5.56643
-5.61589
-5.66312
-5.70842
-5.75187
-5.79351
-5.83345
-5.87178
-5.90861
-5.94404
-5.14855
-5.16036
-5.20333
-5.27083
-5.33669
-5.39574
-5.45331
-5.50992
-5.56364
-5.61418
-5.66228
-5.70829
-5.75226
-5.79425
-5.83443
-5.87296
-5.90997
-5.94554
-5.10217
-5.11019
-5.17184
-5.25257
-5.31893
-5.38008
-5.44374
-5.50535
-5.56143
-5.61308
-5.662
-5.70866
-5.75301
-5.79521
-5.8355
-5.87411
-5.91119
-5.94689
-5.05453
-5.03118
-5.14261
-5.25248
-5.31431
-5.36995
-5.4352
-5.49965
-5.55731
-5.61
-5.65983
-5.70717
-5.75196
-5.79442
-5.83488
-5.8736
-5.91078
-5.94653
-5.04542
-4.90141
-5.06113
-5.2283
-5.31404
-5.37661
-5.44324
-5.50651
-5.56266
-5.6145
-5.66391
-5.71087
-5.75526
-5.79734
-5.83745
-5.87585
-5.91279
-5.94841
-5.19093
-4.9074
-4.94278
-5.07424
-5.19509
-5.30367
-5.39957
-5.47747
-5.54214
-5.6001
-5.65385
-5.70375
-5.75014
-5.79364
-5.83476
-5.87388
-5.9115
-5.94823
-5.12779
-5.62776
-5.63854
-5.48031
-5.40068
-5.42638
-5.48233
-5.53386
-5.5814
-5.62868
-5.67534
-5.72009
-5.76256
-5.80297
-5.84149
-5.87823
-5.91343
-5.94893
-1.78918
-3.66002
-4.73195
-5.026
-5.1621
-5.3004
-5.41414
-5.49626
-5.56163
-5.62036
-5.67466
-5.72463
-5.77083
-5.814
-5.85455
-5.89248
-5.92745
-5.95764
-7.30425
-7.29183
-7.27954
-7.27667
-7.28913
-7.31864
-7.36301
-7.41771
-7.47736
-7.53653
-7.59008
-7.63318
-7.6615
-7.67103
-7.66326
-7.63966
-7.60303
-7.55638
-7.50361
-7.44965
-7.39954
-7.35714
-7.32469
-7.30271
-7.29037
-7.28636
-7.28972
-7.30026
-7.31895
-7.34786
-7.39095
-7.45243
-7.53687
-7.64792
-7.7873
-7.95419
-8.14522
-8.35492
-8.57659
-8.80318
-9.02807
-9.24564
-9.45156
-9.64285
-9.81774
-9.97551
-10.1162
-10.2406
-10.3495
-10.4441
-10.5258
-10.5958
-10.6552
-10.7053
-10.7471
-10.7814
-10.8092
-10.8312
-10.848
-10.8602
-10.8684
-10.8731
-10.8745
-10.8732
-10.8693
-10.8632
-10.8552
-10.8454
-10.834
-10.8213
-10.8072
-10.7919
-10.7756
-10.7582
-10.7399
-10.7205
-10.7001
-10.6787
-10.6561
-10.6323
-10.6072
-10.5805
-10.552
-10.5216
-10.4889
-10.4536
-10.4153
-10.3736
-10.328
-10.2779
-10.2227
-10.1618
-10.0943
-10.0195
-9.93648
-9.84422
-9.7417
-9.62787
-9.50168
-9.36194
-9.20722
-9.0349
-8.84244
-8.62847
-8.39127
-8.1288
-7.83882
-7.51892
-7.16662
-6.77928
-6.35422
-5.88868
-5.37989
-4.82508
-4.22154
-3.56673
-2.85827
-2.09413
-1.27273
-0.393032
0.545212
1.54132
2.59343
3.69828
4.85099
6.04481
7.27093
8.5184
9.77409
11.0228
12.2475
13.4301
14.5519
15.5961
16.5517
17.4065
18.1472
18.7672
19.2649
19.6432
19.9085
20.0703
20.1402
20.1311
20.0562
19.9285
19.7605
19.5632
19.3467
19.1195
18.8888
18.6606
18.4397
18.2299
18.034
17.8546
17.6948
17.5509
17.4189
17.3009
17.1983
17.1114
17.0395
16.9817
16.9373
16.9051
16.8844
16.8743
16.8743
16.8838
16.9028
16.9316
16.9711
17.0227
17.0895
17.1756
17.2891
17.4386
17.6549
17.9051
-7.38108
-7.35516
-7.35556
-7.37895
-7.41468
-7.45917
-7.51044
-7.56528
-7.61988
-7.67061
-7.71422
-7.748
-7.7701
-7.77918
-7.76765
-7.73492
-7.68133
-7.60988
-7.52612
-7.43759
-7.35316
-7.28176
-7.22937
-7.19663
-7.17938
-7.17149
-7.16836
-7.16916
-7.17676
-7.19568
-7.23186
-7.29217
-7.38279
-7.50778
-7.66768
-7.85923
-8.07597
-8.30956
-8.55116
-8.79256
-9.02696
-9.24924
-9.45601
-9.64534
-9.81649
-9.96959
-10.1053
-10.2248
-10.3292
-10.4198
-10.4981
-10.5651
-10.6221
-10.6701
-10.7101
-10.7429
-10.7694
-10.7903
-10.8061
-10.8174
-10.8247
-10.8285
-10.8292
-10.8271
-10.8225
-10.8157
-10.807
-10.7965
-10.7846
-10.7712
-10.7566
-10.7408
-10.7241
-10.7063
-10.6877
-10.6681
-10.6476
-10.6261
-10.6037
-10.5801
-10.5554
-10.5293
-10.5016
-10.4721
-10.4406
-10.4067
-10.3701
-10.3304
-10.2871
-10.2396
-10.1875
-10.1299
-10.0662
-9.99565
-9.91722
-9.82994
-9.73268
-9.62419
-9.50306
-9.36769
-9.21634
-9.04794
-8.86141
-8.65458
-8.42526
-8.17129
-7.8904
-7.58023
-7.2383
-6.86201
-6.4487
-5.99566
-5.50014
-4.9594
-4.37077
-3.73169
-3.0398
-2.29306
-1.48983
-0.629022
0.289741
1.26594
2.29793
3.38275
4.51589
5.69103
6.89993
8.13222
9.37546
10.6152
11.8355
13.0188
14.1476
15.2047
16.1721
17.037
17.7911
18.428
18.9454
19.3456
19.6342
19.82
19.9139
19.9284
19.8761
19.7698
19.6215
19.4425
19.2424
19.03
18.8125
18.5959
18.3852
18.1842
17.9958
17.8222
17.6629
17.5192
17.3916
17.2799
17.1831
17.1008
17.0326
16.9777
16.9354
16.9048
16.8852
16.8758
16.876
16.8856
16.9042
16.9324
16.9707
17.0206
17.0846
17.1664
17.2727
17.4089
17.5997
17.807
-7.48573
-7.45825
-7.46334
-7.49522
-7.53872
-7.58754
-7.63883
-7.68971
-7.73717
-7.77843
-7.81103
-7.83278
-7.84177
-7.83637
-7.81569
-7.77768
-7.72209
-7.64996
-7.56412
-7.47005
-7.37619
-7.29233
-7.22587
-7.17841
-7.14642
-7.12535
-7.11319
-7.11164
-7.12554
-7.16115
-7.2242
-7.31847
-7.44507
-7.6023
-7.78592
-7.98993
-8.20753
-8.43192
-8.65696
-8.87745
-9.08934
-9.28966
-9.47641
-9.64845
-9.80528
-9.94694
-10.0738
-10.1866
-10.2862
-10.3734
-10.4493
-10.5147
-10.5707
-10.6181
-10.6578
-10.6906
-10.717
-10.7379
-10.7537
-10.765
-10.7724
-10.7762
-10.7768
-10.7746
-10.7699
-10.7629
-10.754
-10.7434
-10.7312
-10.7177
-10.7029
-10.6871
-10.6702
-10.6525
-10.6338
-10.6144
-10.5941
-10.5729
-10.5509
-10.5279
-10.5039
-10.4786
-10.452
-10.4238
-10.3937
-10.3615
-10.3267
-10.2891
-10.2482
-10.2034
-10.1542
-10.0999
-10.0398
-9.97316
-9.89902
-9.81643
-9.7243
-9.62145
-9.50651
-9.3779
-9.23397
-9.07344
-8.89499
-8.69675
-8.47663
-8.23248
-7.96207
-7.66303
-7.3329
-6.96912
-6.56907
-6.13004
-5.64931
-5.12417
-4.55194
-3.93009
-3.25625
-2.52832
-1.74463
-0.903982
-0.00588347
0.949332
1.96028
3.02429
4.13724
5.29326
6.48462
7.70153
8.93214
10.1626
11.3775
12.5598
13.692
14.7563
15.7364
16.6193
17.3947
18.0555
18.5987
19.0256
19.3413
19.554
19.6741
19.7135
19.6847
19.6003
19.4721
19.3114
19.1279
18.9303
18.726
18.5212
18.3207
18.1287
17.9479
17.7807
17.6278
17.4902
17.3676
17.2595
17.166
17.0868
17.0212
16.9686
16.9283
16.8994
16.8811
16.8727
16.8737
16.8836
16.9023
16.9299
16.9671
17.015
17.0758
17.1521
17.249
17.3684
17.5234
17.667
-7.6091
-7.5936
-7.60058
-7.62862
-7.66748
-7.7112
-7.7565
-7.80053
-7.84058
-7.87414
-7.89899
-7.91319
-7.91505
-7.90316
-7.87633
-7.83381
-7.77573
-7.70334
-7.61942
-7.52881
-7.4385
-7.35619
-7.28791
-7.23609
-7.20014
-7.17907
-7.17368
-7.18698
-7.22312
-7.28581
-7.37705
-7.49646
-7.64151
-7.80817
-7.99162
-8.18678
-8.38875
-8.59299
-8.7955
-8.9929
-9.18242
-9.36197
-9.53003
-9.68566
-9.82837
-9.95809
-10.075
-10.1796
-10.2725
-10.3543
-10.4258
-10.4878
-10.541
-10.5862
-10.6241
-10.6555
-10.6808
-10.7008
-10.7159
-10.7266
-10.7334
-10.7368
-10.737
-10.7344
-10.7294
-10.7222
-10.7131
-10.7023
-10.69
-10.6764
-10.6616
-10.6457
-10.629
-10.6114
-10.593
-10.5738
-10.554
-10.5334
-10.5121
-10.4899
-10.4668
-10.4427
-10.4174
-10.3907
-10.3623
-10.332
-10.2995
-10.2643
-10.226
-10.1841
-10.1381
-10.0873
-10.0309
-9.96835
-9.89859
-9.8207
-9.73362
-9.63617
-9.52707
-9.40491
-9.2682
-9.11548
-8.94521
-8.75557
-8.54458
-8.31012
-8.04996
-7.76175
-7.44306
-7.09133
-6.70393
-6.27818
-5.81134
-5.30069
-4.74354
-4.1373
-3.47956
-2.76815
-2.00127
-1.1776
-0.296471
0.642015
1.63675
2.68538
3.78413
4.92758
6.10837
7.31715
8.54242
9.77065
10.9864
12.1726
13.3115
14.3859
15.3801
16.28
17.0739
17.7542
18.3175
18.7647
19.1004
19.3325
19.4714
19.5287
19.5169
19.4484
19.3352
19.1882
19.0174
18.8315
18.6379
18.4427
18.251
18.0668
17.8932
17.7322
17.5848
17.4518
17.3334
17.2296
17.1403
17.065
17.003
16.9536
16.9161
16.8896
16.8733
16.8665
16.8685
16.879
16.8977
16.9248
16.9606
17.0061
17.0627
17.1323
17.2177
17.3181
17.4371
17.5289
-7.70867
-7.70813
-7.71707
-7.74024
-7.77264
-7.80937
-7.84717
-7.88344
-7.91576
-7.94189
-7.95983
-7.96782
-7.96436
-7.94827
-7.91864
-7.87514
-7.81823
-7.74943
-7.67157
-7.58964
-7.50945
-7.43717
-7.3775
-7.33295
-7.30473
-7.29413
-7.30323
-7.33465
-7.39071
-7.47251
-7.57941
-7.70918
-7.85839
-8.02298
-8.19877
-8.38166
-8.56787
-8.75401
-8.93713
-9.11478
-9.28495
-9.44614
-9.59723
-9.73754
-9.86668
-9.98457
-10.0913
-10.1873
-10.2729
-10.3487
-10.4152
-10.473
-10.5229
-10.5653
-10.601
-10.6306
-10.6544
-10.6732
-10.6873
-10.6973
-10.7035
-10.7063
-10.7061
-10.7033
-10.6981
-10.6907
-10.6815
-10.6707
-10.6584
-10.6449
-10.6303
-10.6147
-10.5982
-10.581
-10.5631
-10.5446
-10.5255
-10.5058
-10.4854
-10.4643
-10.4425
-10.4198
-10.3961
-10.3711
-10.3447
-10.3166
-10.2864
-10.2538
-10.2184
-10.1797
-10.137
-10.0899
-10.0375
-9.97918
-9.914
-9.84103
-9.75922
-9.66744
-9.56442
-9.44882
-9.31919
-9.17401
-9.01167
-8.83038
-8.62821
-8.40305
-8.15269
-7.87482
-7.56697
-7.22663
-6.85115
-6.43785
-5.98398
-5.48679
-4.94358
-4.35169
-3.70863
-3.01213
-2.26028
-1.4516
-0.585223
0.339006
1.32026
2.35654
3.44441
4.57884
5.7529
6.95757
8.18166
9.4118
10.6324
11.8262
12.9755
14.0631
15.0724
15.9884
16.7992
17.4965
18.0767
18.5404
18.8921
19.1396
19.2932
19.3645
19.3659
19.31
19.2086
19.0727
18.9123
18.736
18.5513
18.3643
18.1802
18.0029
17.8355
17.6801
17.5379
17.4097
17.2959
17.1965
17.1112
17.0396
16.9811
16.9349
16.9002
16.8762
16.8619
16.8567
16.86
16.8711
16.89
16.9164
16.9507
16.9933
17.0453
17.1074
17.1808
17.2622
17.3499
17.403
-7.75651
-7.76985
-7.78259
-7.80379
-7.83184
-7.86306
-7.89467
-7.92448
-7.95044
-7.97064
-7.98333
-7.987
-7.98034
-7.96235
-7.93247
-7.89074
-7.83801
-7.77617
-7.70835
-7.63894
-7.57298
-7.5153
-7.46975
-7.43903
-7.42523
-7.43035
-7.45633
-7.50479
-7.57647
-7.67088
-7.78621
-7.91962
-8.06762
-8.22654
-8.39276
-8.56295
-8.73415
-8.90376
-9.06961
-9.22988
-9.38313
-9.52824
-9.6644
-9.79109
-9.90802
-10.0151
-10.1124
-10.2002
-10.2788
-10.3486
-10.41
-10.4637
-10.51
-10.5495
-10.5828
-10.6104
-10.6326
-10.6501
-10.6632
-10.6723
-10.6778
-10.6802
-10.6797
-10.6766
-10.6712
-10.6639
-10.6547
-10.644
-10.6319
-10.6187
-10.6044
-10.5893
-10.5734
-10.5569
-10.5397
-10.5221
-10.5039
-10.4853
-10.4662
-10.4465
-10.4262
-10.4052
-10.3834
-10.3605
-10.3364
-10.3107
-10.2833
-10.2536
-10.2214
-10.186
-10.1471
-10.1039
-10.0558
-10.0021
-9.9418
-9.87408
-9.79787
-9.71207
-9.61543
-9.50662
-9.3842
-9.24666
-9.09236
-8.91953
-8.72624
-8.51042
-8.26989
-8.00232
-7.70529
-7.37625
-7.01258
-6.61158
-6.1705
-5.68657
-5.15704
-4.5792
-3.95049
-3.26854
-2.53128
-1.73711
-0.88493
0.025657
0.994146
2.01885
3.09672
4.22317
5.39163
6.59346
7.81776
9.05122
10.2782
11.4815
12.6434
13.7458
14.7713
15.7042
16.5322
17.2465
17.8433
18.3227
18.6894
18.9511
19.118
19.202
19.2155
19.171
19.0805
18.9549
18.8041
18.6368
18.4605
18.2814
18.1045
17.9339
17.7727
17.6229
17.4861
17.363
17.2539
17.159
17.0779
17.0103
16.9554
16.9126
16.8808
16.8594
16.8473
16.8439
16.8484
16.8604
16.8793
16.905
16.9376
16.9772
17.0242
17.0785
17.1399
17.2037
17.2649
17.2885
-7.74205
-7.76943
-7.78779
-7.81044
-7.83726
-7.86555
-7.89318
-7.91847
-7.93983
-7.95574
-7.96478
-7.96572
-7.95754
-7.93951
-7.91141
-7.87365
-7.82745
-7.775
-7.71944
-7.66471
-7.61504
-7.57437
-7.54601
-7.53262
-7.53633
-7.55893
-7.6017
-7.66523
-7.7492
-7.85224
-7.97209
-8.10585
-8.25035
-8.40239
-8.55901
-8.7175
-8.87553
-9.0311
-9.18252
-9.32841
-9.46767
-9.59946
-9.72317
-9.83838
-9.94488
-10.0426
-10.1316
-10.2121
-10.2844
-10.3487
-10.4055
-10.4551
-10.4981
-10.5349
-10.5658
-10.5915
-10.6122
-10.6284
-10.6405
-10.6489
-10.6539
-10.6558
-10.655
-10.6518
-10.6464
-10.6392
-10.6302
-10.6198
-10.6081
-10.5953
-10.5816
-10.5671
-10.552
-10.5363
-10.5201
-10.5035
-10.4866
-10.4693
-10.4517
-10.4336
-10.4152
-10.3962
-10.3765
-10.3559
-10.3344
-10.3115
-10.287
-10.2606
-10.2318
-10.2002
-10.1653
-10.1264
-10.0829
-10.034
-9.97896
-9.91678
-9.84647
-9.76692
-9.67691
-9.57513
-9.46014
-9.33044
-9.1844
-9.02023
-8.83603
-8.62975
-8.39921
-8.1421
-7.85601
-7.5384
-7.18666
-6.79806
-6.36986
-5.89926
-5.38348
-4.81976
-4.20544
-3.53806
-2.81544
-2.03579
-1.19784
-0.300906
0.654819
1.66798
2.73589
3.85443
5.01746
6.21662
7.44128
8.67826
9.91218
11.126
12.3013
13.4193
14.4617
15.4123
16.258
16.9897
17.603
18.0981
18.4795
18.755
18.9351
19.0315
19.0568
19.0237
18.9439
18.8286
18.6875
18.5294
18.3617
18.1906
18.0213
17.8576
17.7029
17.5592
17.4281
17.3104
17.2065
17.1164
17.0399
16.9766
16.9257
16.8865
16.858
16.8394
16.8298
16.8283
16.8343
16.847
16.8661
16.8911
16.9218
16.9583
17.0001
17.0468
17.0967
17.1446
17.1839
17.1847
-7.67111
-7.71022
-7.73763
-7.76458
-7.79263
-7.8202
-7.8458
-7.86827
-7.88651
-7.89942
-7.90597
-7.90524
-7.89656
-7.87959
-7.85448
-7.82203
-7.78375
-7.74197
-7.69971
-7.66047
-7.6278
-7.60501
-7.5949
-7.59974
-7.62129
-7.66075
-7.71869
-7.79494
-7.88851
-7.99767
-8.12006
-8.25302
-8.39378
-8.53966
-8.68819
-8.83717
-8.98472
-9.12921
-9.26931
-9.40391
-9.53217
-9.65342
-9.76719
-9.87318
-9.97122
-10.0613
-10.1434
-10.2179
-10.2848
-10.3445
-10.3973
-10.4435
-10.4837
-10.518
-10.547
-10.571
-10.5904
-10.6056
-10.6169
-10.6247
-10.6293
-10.6311
-10.6302
-10.627
-10.6218
-10.6148
-10.6061
-10.5962
-10.585
-10.5729
-10.5599
-10.5462
-10.532
-10.5173
-10.5023
-10.487
-10.4715
-10.4558
-10.4398
-10.4237
-10.4072
-10.3904
-10.3731
-10.3552
-10.3364
-10.3166
-10.2953
-10.2724
-10.2474
-10.2198
-10.1891
-10.1547
-10.116
-10.0723
-10.0227
-9.9663
-9.90211
-9.82904
-9.74588
-9.65132
-9.54394
-9.42226
-9.28465
-9.12932
-8.95437
-8.75776
-8.53735
-8.29083
-8.01579
-7.70972
-7.36998
-6.99386
-6.5786
-6.1214
-5.61942
-5.06986
-4.46999
-3.81725
-3.10932
-2.34427
-1.52066
-0.637524
0.305281
1.30675
2.36452
3.47488
4.63213
5.82822
7.0529
8.2934
9.53442
10.7587
11.9473
13.0807
14.1399
15.1081
15.9713
16.7201
17.3498
17.8603
18.2562
18.5455
18.7386
18.8475
18.8849
18.8634
18.7948
18.6902
18.5593
18.4109
18.2524
18.0899
17.9286
17.7725
17.6249
17.4878
17.363
17.2512
17.153
17.0683
16.9969
16.9383
16.8918
16.8566
16.8318
16.8164
16.8095
16.8102
16.8178
16.8315
16.8507
16.875
16.904
16.9373
16.9741
17.0133
17.0527
17.0864
17.1077
17.0908
-7.55634
-7.60603
-7.64395
-7.67689
-7.70767
-7.73594
-7.76086
-7.78178
-7.79804
-7.80897
-7.8139
-7.81233
-7.80393
-7.78878
-7.76741
-7.74092
-7.71106
-7.68019
-7.65114
-7.62698
-7.61072
-7.6051
-7.61237
-7.63431
-7.67215
-7.7265
-7.79735
-7.88402
-7.98518
-8.09896
-8.22315
-8.35535
-8.49317
-8.63434
-8.77678
-8.91865
-9.05838
-9.19463
-9.3263
-9.45248
-9.5725
-9.68582
-9.79209
-9.89108
-9.98267
-10.0669
-10.1438
-10.2135
-10.2763
-10.3324
-10.3821
-10.4258
-10.4637
-10.4963
-10.5238
-10.5466
-10.5651
-10.5796
-10.5905
-10.598
-10.6025
-10.6042
-10.6035
-10.6006
-10.5957
-10.5891
-10.581
-10.5716
-10.5612
-10.5498
-10.5377
-10.525
-10.5119
-10.4985
-10.4848
-10.4709
-10.457
-10.443
-10.4289
-10.4148
-10.4005
-10.3861
-10.3714
-10.3563
-10.3405
-10.3239
-10.3061
-10.2868
-10.2657
-10.2423
-10.2161
-10.1864
-10.1528
-10.1144
-10.0704
-10.02
-9.96206
-9.89562
-9.81944
-9.73222
-9.63258
-9.51904
-9.38994
-9.24351
-9.07787
-8.89099
-8.68073
-8.44481
-8.18082
-7.88625
-7.55848
-7.19479
-6.7924
-6.34852
-5.86026
-5.32478
-4.73928
-4.10111
-3.40782
-2.65733
-1.84803
-0.978724
-0.0489588
0.940612
1.98794
3.08964
4.24055
5.43311
6.65737
7.90079
9.14818
10.382
11.5829
12.7308
13.8059
14.7907
15.6705
16.4355
17.0806
17.606
18.016
18.3188
18.525
18.6467
18.6966
18.6872
18.6304
18.5372
18.4173
18.2794
18.1307
17.9776
17.8251
17.6774
17.5376
17.4079
17.2901
17.1849
17.093
17.0143
16.9486
16.8953
16.8537
16.823
16.8022
16.7903
16.7865
16.7897
16.7991
16.8139
16.8335
16.8573
16.8846
16.9148
16.9468
16.9791
17.0089
17.0303
17.0367
17.0062
-7.414
-7.47379
-7.52172
-7.56092
-7.59511
-7.62491
-7.65006
-7.67033
-7.68549
-7.69525
-7.69935
-7.69762
-7.69016
-7.67738
-7.66011
-7.6397
-7.61802
-7.59738
-7.58041
-7.56978
-7.56805
-7.57745
-7.59976
-7.63627
-7.6877
-7.75422
-7.8354
-7.93023
-8.03725
-8.15462
-8.28028
-8.41209
-8.54796
-8.68591
-8.82415
-8.96111
-9.09542
-9.22595
-9.35176
-9.47209
-9.58638
-9.69418
-9.79523
-9.88934
-9.97645
-10.0566
-10.1298
-10.1963
-10.2563
-10.31
-10.3577
-10.3996
-10.4362
-10.4676
-10.4943
-10.5165
-10.5346
-10.5489
-10.5597
-10.5673
-10.5719
-10.5739
-10.5736
-10.5711
-10.5668
-10.5608
-10.5534
-10.5448
-10.5352
-10.5248
-10.5138
-10.5022
-10.4903
-10.4782
-10.466
-10.4537
-10.4415
-10.4293
-10.4173
-10.4053
-10.3935
-10.3816
-10.3696
-10.3574
-10.3448
-10.3315
-10.3173
-10.3019
-10.2849
-10.2658
-10.2441
-10.2194
-10.1909
-10.1579
-10.1197
-10.0753
-10.0238
-9.96403
-9.89488
-9.81505
-9.72317
-9.61776
-9.49716
-9.3596
-9.2032
-9.02596
-8.82574
-8.60028
-8.34719
-8.06395
-7.74795
-7.39646
-7.0067
-6.57586
-6.10104
-5.57933
-5.0079
-4.38402
-3.70511
-2.96894
-2.17373
-1.31813
-0.401445
0.576009
1.61268
2.70549
3.84959
5.03793
6.26092
7.50621
8.75866
10.0005
11.2121
12.3726
13.4618
14.4611
15.3557
16.1353
16.7945
17.3336
17.757
18.0729
18.2922
18.427
18.4898
18.4933
18.4491
18.3682
18.2601
18.1335
17.9957
17.8528
17.71
17.5715
17.4403
17.3189
17.2088
17.1111
17.0262
16.9542
16.8948
16.8474
16.8113
16.7855
16.7693
16.7614
16.7609
16.7669
16.7784
16.7947
16.8148
16.8382
16.8639
16.8912
16.9188
16.9447
16.966
16.9768
16.9711
16.9299
-7.26101
-7.32834
-7.38509
-7.43042
-7.46828
-7.50007
-7.52599
-7.54624
-7.56097
-7.57027
-7.57423
-7.57302
-7.56704
-7.55694
-7.54378
-7.52906
-7.51465
-7.50279
-7.49587
-7.49628
-7.50619
-7.52744
-7.56145
-7.6091
-7.67077
-7.74629
-7.83497
-7.93567
-8.04689
-8.16684
-8.29364
-8.42533
-8.56004
-8.696
-8.83163
-8.96552
-9.09646
-9.22343
-9.34561
-9.46233
-9.5731
-9.67755
-9.77544
-9.86664
-9.9511
-10.0289
-10.1
-10.1648
-10.2232
-10.2757
-10.3224
-10.3636
-10.3996
-10.4307
-10.4572
-10.4794
-10.4977
-10.5122
-10.5233
-10.5313
-10.5364
-10.539
-10.5393
-10.5375
-10.5339
-10.5288
-10.5223
-10.5146
-10.506
-10.4967
-10.4868
-10.4765
-10.4659
-10.4553
-10.4446
-10.434
-10.4236
-10.4135
-10.4036
-10.3939
-10.3845
-10.3753
-10.3662
-10.357
-10.3477
-10.3379
-10.3274
-10.3159
-10.303
-10.2884
-10.2714
-10.2516
-10.2283
-10.2008
-10.1684
-10.1301
-10.0849
-10.0318
-9.96967
-9.89719
-9.813
-9.7156
-9.60334
-9.47447
-9.32711
-9.15928
-8.96884
-8.75355
-8.51103
-8.23876
-7.93414
-7.59444
-7.21685
-6.79856
-6.33666
-5.8282
-5.27032
-4.66022
-3.99526
-3.27302
-2.4915
-1.64923
-0.745343
0.220135
1.24604
2.32967
3.46654
4.64995
5.87061
7.11639
8.37216
9.62002
10.8399
12.0105
13.1109
14.1221
15.0289
15.8205
16.4919
17.043
17.4787
17.8073
18.0395
18.1874
18.2637
18.2807
18.2499
18.1821
18.0868
17.9725
17.8464
17.7147
17.5826
17.4541
17.3325
17.2202
17.1188
17.0294
16.9523
16.8877
16.8353
16.7945
16.7644
16.7443
16.733
16.7296
16.7329
16.742
16.756
16.7738
16.7948
16.818
16.8424
16.8672
16.8907
16.9109
16.9246
16.9264
16.9107
16.8612
-7.11243
-7.18355
-7.24744
-7.29857
-7.34006
-7.3738
-7.40059
-7.42108
-7.43579
-7.44514
-7.4495
-7.44927
-7.44503
-7.43762
-7.42819
-7.41827
-7.40971
-7.40462
-7.40518
-7.41355
-7.43166
-7.46108
-7.50296
-7.55795
-7.62621
-7.70739
-7.80069
-7.90492
-8.01859
-8.14003
-8.26744
-8.39902
-8.53306
-8.66792
-8.80213
-8.93439
-9.06359
-9.18876
-9.30916
-9.42416
-9.5333
-9.63626
-9.73282
-9.82285
-9.90634
-9.98331
-10.0539
-10.1182
-10.1764
-10.2287
-10.2755
-10.3169
-10.3532
-10.3847
-10.4117
-10.4345
-10.4534
-10.4686
-10.4805
-10.4892
-10.4952
-10.4986
-10.4998
-10.4989
-10.4963
-10.4921
-10.4866
-10.48
-10.4725
-10.4644
-10.4557
-10.4468
-10.4377
-10.4286
-10.4195
-10.4108
-10.4023
-10.3942
-10.3865
-10.3792
-10.3724
-10.3659
-10.3597
-10.3537
-10.3476
-10.3414
-10.3347
-10.3272
-10.3185
-10.3083
-10.2961
-10.2812
-10.2631
-10.2411
-10.2144
-10.1821
-10.1432
-10.0967
-10.0415
-9.97616
-9.89946
-9.80983
-9.70564
-9.58515
-9.4465
-9.2877
-9.10663
-8.90106
-8.66861
-8.40678
-8.11298
-7.78447
-7.41846
-7.01205
-6.56234
-6.06641
-5.52133
-4.92425
-4.27246
-3.56345
-2.79505
-1.9656
-1.07405
-0.120191
0.895086
1.96943
3.09865
4.27638
5.49359
6.73828
7.99534
9.24669
10.4719
11.6493
12.7575
13.7772
14.6927
15.4934
16.1742
16.7354
17.1819
17.5222
17.7669
17.9281
18.0182
18.0492
18.0325
17.9787
17.897
17.7959
17.6825
17.563
17.4424
17.325
17.2139
17.1116
17.0198
16.9395
16.8711
16.8148
16.7701
16.7366
16.7133
16.6993
16.6935
16.695
16.7026
16.7152
16.7319
16.7517
16.7737
16.797
16.8204
16.8429
16.8628
16.878
16.8852
16.8793
16.8554
16.7995
-6.9808
-7.05268
-7.12153
-7.1775
-7.22171
-7.25651
-7.28358
-7.30408
-7.31882
-7.32841
-7.33337
-7.33424
-7.33166
-7.32653
-7.32004
-7.31366
-7.30918
-7.30855
-7.31383
-7.32698
-7.34977
-7.38364
-7.42961
-7.48821
-7.55953
-7.64315
-7.73827
-7.84373
-7.9581
-8.07979
-8.20709
-8.33832
-8.47182
-8.60607
-8.73964
-8.8713
-8.99995
-9.12468
-9.24475
-9.35956
-9.46865
-9.57169
-9.66845
-9.75883
-9.84277
-9.92032
-9.99156
-10.0566
-10.1157
-10.169
-10.2168
-10.2592
-10.2966
-10.3292
-10.3574
-10.3813
-10.4013
-10.4176
-10.4305
-10.4404
-10.4475
-10.452
-10.4542
-10.4544
-10.4528
-10.4498
-10.4454
-10.44
-10.4337
-10.4268
-10.4195
-10.412
-10.4044
-10.3969
-10.3896
-10.3826
-10.3762
-10.3702
-10.3648
-10.36
-10.3557
-10.352
-10.3488
-10.3459
-10.3433
-10.3406
-10.3377
-10.3342
-10.3297
-10.324
-10.3164
-10.3065
-10.2936
-10.277
-10.2559
-10.2294
-10.1967
-10.1566
-10.108
-10.0496
-9.98008
-9.89787
-9.80137
-9.68884
-9.55842
-9.40815
-9.2359
-9.03945
-8.81642
-8.56434
-8.2806
-7.9625
-7.60721
-7.21185
-6.77349
-6.28918
-5.75597
-5.17097
-4.53141
-3.83469
-3.07854
-2.26114
-1.38129
-0.438549
0.5664
1.63147
2.75274
3.92408
5.13664
6.37853
7.63461
8.88663
10.1139
11.2943
12.4062
13.43
14.3502
15.1564
15.8436
16.4124
16.868
17.2188
17.4754
17.6497
17.7538
17.7993
17.7973
17.7581
17.6909
17.6038
17.5039
17.3974
17.2894
17.1839
17.0843
16.993
16.9117
16.8414
16.7826
16.7353
16.6992
16.6736
16.6577
16.6505
16.6509
16.6578
16.6701
16.6866
16.7064
16.7285
16.7518
16.7754
16.7982
16.8188
16.8357
16.8464
16.848
16.8357
16.8052
16.7443
-6.87237
-6.94461
-7.01541
-7.07407
-7.11943
-7.15415
-7.18079
-7.20095
-7.21559
-7.22536
-7.2308
-7.23247
-7.23104
-7.22739
-7.22266
-7.21828
-7.21592
-7.21742
-7.22471
-7.23966
-7.26393
-7.29892
-7.34559
-7.4045
-7.47574
-7.55895
-7.65338
-7.75795
-7.87132
-7.99198
-8.11834
-8.24875
-8.38164
-8.51547
-8.64887
-8.78058
-8.90953
-9.0348
-9.15563
-9.2714
-9.38164
-9.48598
-9.58419
-9.67612
-9.76171
-9.84098
-9.91399
-9.98086
-10.0418
-10.0969
-10.1464
-10.1906
-10.2297
-10.264
-10.2938
-10.3193
-10.3408
-10.3586
-10.3729
-10.3841
-10.3925
-10.3982
-10.4017
-10.4031
-10.4027
-10.4008
-10.3977
-10.3935
-10.3885
-10.3829
-10.377
-10.3709
-10.3649
-10.359
-10.3535
-10.3484
-10.3439
-10.3401
-10.337
-10.3347
-10.3331
-10.3322
-10.332
-10.3324
-10.3331
-10.334
-10.3348
-10.3353
-10.3351
-10.3337
-10.3308
-10.3257
-10.3178
-10.3064
-10.2908
-10.2701
-10.2433
-10.2093
-10.1671
-10.1152
-10.0525
-9.97725
-9.88795
-9.78285
-9.6601
-9.51772
-9.35361
-9.16555
-8.95118
-8.70802
-8.43347
-8.12482
-7.77927
-7.39393
-6.96585
-6.49208
-5.96964
-5.3956
-4.76714
-4.08162
-3.33668
-2.53038
-1.66137
-0.729096
0.265959
1.32189
2.43497
3.59923
4.80593
6.0432
7.29581
8.54531
9.77075
10.9498
12.0608
13.0842
14.0046
14.8121
15.5023
16.0761
16.5388
16.8989
17.1667
17.3538
17.4718
17.532
17.5451
17.5211
17.4689
17.3965
17.3109
17.2182
17.1235
17.0309
16.9436
16.8642
16.7943
16.735
16.6866
16.6493
16.6225
16.6057
16.598
16.5982
16.6053
16.6181
16.6355
16.6564
16.6797
16.7044
16.7294
16.7537
16.7761
16.7953
16.8095
16.8165
16.8133
16.7957
16.7597
16.695
-6.78439
-6.86103
-6.93192
-6.98911
-7.03353
-7.06785
-7.09423
-7.11419
-7.12867
-7.13837
-7.14382
-7.1456
-7.14437
-7.14097
-7.13651
-7.13233
-7.13003
-7.13136
-7.13817
-7.15226
-7.17527
-7.20857
-7.25318
-7.3097
-7.37831
-7.45876
-7.55041
-7.65231
-7.76325
-7.88178
-8.00636
-8.1354
-8.26734
-8.40069
-8.53406
-8.66619
-8.79597
-8.92244
-9.0448
-9.1624
-9.27469
-9.38129
-9.4819
-9.57634
-9.66452
-9.7464
-9.82203
-9.89151
-9.95497
-10.0126
-10.0645
-10.1111
-10.1524
-10.1889
-10.2206
-10.248
-10.2713
-10.2908
-10.3068
-10.3195
-10.3293
-10.3365
-10.3412
-10.3439
-10.3448
-10.3441
-10.3422
-10.3393
-10.3356
-10.3314
-10.3269
-10.3223
-10.3178
-10.3136
-10.3098
-10.3067
-10.3043
-10.3027
-10.3019
-10.3021
-10.3032
-10.3052
-10.308
-10.3115
-10.3156
-10.3201
-10.3247
-10.3292
-10.3331
-10.3361
-10.3376
-10.3372
-10.3342
-10.328
-10.3176
-10.3023
-10.2811
-10.253
-10.2167
-10.171
-10.1145
-10.0457
-9.96304
-9.86474
-9.74897
-9.61375
-9.457
-9.27648
-9.06985
-8.83464
-8.56825
-8.26798
-7.93104
-7.55454
-7.13553
-6.67103
-6.15808
-5.59371
-4.97507
-4.29949
-3.56454
-2.76823
-1.9091
-0.986492
-0.000784588
1.04623
2.15095
3.30744
4.507
5.73767
6.98406
8.22754
9.44695
10.62
11.7249
12.7427
13.6586
14.4633
15.153
15.729
16.1968
16.5647
16.8428
17.0421
17.1738
17.2487
17.2771
17.2686
17.2318
17.1745
17.1039
17.0257
16.945
16.866
16.792
16.7254
16.6678
16.6203
16.5833
16.5567
16.5402
16.5329
16.534
16.5423
16.5567
16.5761
16.5991
16.6248
16.652
16.6797
16.7067
16.732
16.7544
16.7725
16.7846
16.7885
16.7814
16.7593
16.719
16.6512
-6.71885
-6.80136
-6.8731
-6.92689
-6.9684
-7.00108
-7.02634
-7.0452
-7.05855
-7.06709
-7.07136
-7.0719
-7.06932
-7.06444
-7.05829
-7.05218
-7.04765
-7.04641
-7.05026
-7.06097
-7.0802
-7.10935
-7.1495
-7.20135
-7.26521
-7.341
-7.42821
-7.52601
-7.63325
-7.7486
-7.87058
-7.99767
-8.12833
-8.26107
-8.39446
-8.52723
-8.65822
-8.78639
-8.91089
-9.03098
-9.14607
-9.2557
-9.35951
-9.45727
-9.54882
-9.63409
-9.71309
-9.78587
-9.85254
-9.91325
-9.96818
-10.0175
-10.0616
-10.1005
-10.1347
-10.1643
-10.1896
-10.211
-10.2288
-10.2432
-10.2546
-10.2632
-10.2694
-10.2734
-10.2756
-10.2763
-10.2757
-10.2741
-10.2718
-10.269
-10.266
-10.2629
-10.2601
-10.2577
-10.2558
-10.2547
-10.2544
-10.2551
-10.2568
-10.2596
-10.2635
-10.2685
-10.2744
-10.2812
-10.2888
-10.297
-10.3054
-10.3139
-10.322
-10.3293
-10.3353
-10.3396
-10.3414
-10.3401
-10.3349
-10.3248
-10.309
-10.2863
-10.2556
-10.2157
-10.165
-10.1022
-10.0256
-9.93346
-9.82399
-9.6952
-9.545
-9.37116
-9.17135
-8.9431
-8.68383
-8.39085
-8.06135
-7.69248
-7.28128
-6.82478
-6.32
-5.76398
-5.15386
-4.48693
-3.76076
-2.9733
-2.12305
-1.2093
-0.232388
0.805946
1.9021
3.05011
4.24116
5.46313
6.7004
7.93412
9.14301
10.3049
11.3984
12.4053
13.3117
14.1092
14.7947
15.3701
15.8408
16.2151
16.5025
16.7135
16.8586
16.948
16.9917
16.9989
16.9778
16.9363
16.8811
16.8181
16.7524
16.688
16.6281
16.5753
16.5311