/*--------------------------------*- C++ -*----------------------------------*\
  =========                 |
  \\      /  F ield         | OpenFOAM: The Open Source CFD Toolbox
   \\    /   O peration     | Website:  https://openfoam.org
    \\  /    A nd           | Version:  9
     \\/     M anipulation  |
\*---------------------------------------------------------------------------*/
FoamFile
{
    format      ascii;
    class       volVectorField;
    location    "0.05";
    object      U;
}
// * * * * * * * * * * * * * * * * * * * * * * * * * * * * * * * * * * * * * //

dimensions      [0 1 -1 0 0 0 0];

internalField   nonuniform List<vector> 
12225
(
(9.86106 -0.874316 0)
(9.6724 -0.700177 0)
(9.45874 -0.38756 0)
(9.22421 -0.188428 0)
(9.00272 -0.0843337 0)
(8.80924 -0.0327992 0)
(8.64348 -0.00745242 0)
(8.50192 0.0051473 0)
(8.3811 0.0114857 0)
(8.27748 0.0146512 0)
(8.18767 0.0161799 0)
(8.1088 0.0168879 0)
(8.03847 0.0172193 0)
(7.97484 0.0174635 0)
(7.91509 0.0177913 0)
(7.85999 0.0189914 0)
(7.79296 0.0207093 0)
(7.74761 0.0278862 0)
(10.0547 0.263076 0)
(10.1201 0.360764 0)
(10.118 0.273865 0)
(10.0825 0.187164 0)
(10.0403 0.131262 0)
(9.99351 0.0970574 0)
(9.93947 0.0757238 0)
(9.87945 0.0619561 0)
(9.81653 0.0525936 0)
(9.75319 0.0458243 0)
(9.69087 0.0407062 0)
(9.63038 0.0367783 0)
(9.57214 0.0337874 0)
(9.5165 0.0316927 0)
(9.46279 0.0303479 0)
(9.41339 0.0312445 0)
(9.36177 0.0313774 0)
(9.33003 0.0439754 0)
(9.99918 0.0460955 0)
(10.0244 0.0342424 0)
(10.0538 0.0150138 0)
(10.0706 0.021917 0)
(10.0775 0.0368202 0)
(10.0778 0.0462004 0)
(10.0715 0.0501904 0)
(10.0593 0.0514373 0)
(10.0426 0.0514066 0)
(10.0229 0.0507603 0)
(10.0009 0.0498701 0)
(9.97737 0.0489806 0)
(9.95267 0.0482414 0)
(9.92728 0.0478643 0)
(9.90115 0.047905 0)
(9.87535 0.0495477 0)
(9.84883 0.0514049 0)
(9.82451 0.0597902 0)
(9.99679 0.00643891 0)
(10.0085 0.0250583 0)
(10.0341 0.039018 0)
(10.0526 0.050428 0)
(10.064 0.057288 0)
(10.0725 0.0594052 0)
(10.0782 0.0591615 0)
(10.0806 0.0583179 0)
(10.0802 0.0573967 0)
(10.0777 0.0564741 0)
(10.0736 0.0556032 0)
(10.068 0.0548693 0)
(10.0613 0.0543604 0)
(10.0535 0.0542495 0)
(10.0449 0.0546511 0)
(10.0359 0.0563511 0)
(10.0269 0.0587698 0)
(10.0184 0.0645166 0)
(9.99922 0.00675223 0)
(10.0081 0.0336282 0)
(10.027 0.0461523 0)
(10.0416 0.0510132 0)
(10.052 0.0541494 0)
(10.0616 0.0558128 0)
(10.07 0.0562429 0)
(10.0764 0.0561523 0)
(10.0809 0.0558881 0)
(10.0839 0.0555422 0)
(10.0859 0.0551894 0)
(10.0868 0.0549328 0)
(10.0867 0.0548792 0)
(10.086 0.0551873 0)
(10.0847 0.0559961 0)
(10.0832 0.0577625 0)
(10.0819 0.0602293 0)
(10.0815 0.0641734 0)
(10.0002 0.00909338 0)
(10.0078 0.0321945 0)
(10.0224 0.0420481 0)
(10.0348 0.045875 0)
(10.0444 0.0494162 0)
(10.0536 0.0520432 0)
(10.0622 0.0532832 0)
(10.0694 0.053748 0)
(10.0753 0.0539141 0)
(10.0801 0.0539464 0)
(10.0841 0.0539371 0)
(10.0874 0.0539932 0)
(10.09 0.0542229 0)
(10.092 0.0547604 0)
(10.0937 0.0557263 0)
(10.0954 0.0573609 0)
(10.0974 0.0595127 0)
(10.1003 0.0622907 0)
(10.0003 0.00882468 0)
(10.0067 0.0276038 0)
(10.0188 0.0372493 0)
(10.0301 0.0419948 0)
(10.0391 0.0460125 0)
(10.0477 0.048945 0)
(10.0558 0.050475 0)
(10.063 0.0512019 0)
(10.0691 0.0516131 0)
(10.0745 0.0518817 0)
(10.0793 0.0520951 0)
(10.0835 0.0523531 0)
(10.0872 0.0527558 0)
(10.0904 0.0534097 0)
(10.0935 0.0544017 0)
(10.0966 0.0558385 0)
(10.1001 0.0575915 0)
(10.1043 0.0595135 0)
(10.0004 0.00786674 0)
(10.0057 0.0237978 0)
(10.0159 0.0335673 0)
(10.0262 0.038889 0)
(10.0348 0.0428976 0)
(10.0427 0.0458172 0)
(10.0504 0.0475109 0)
(10.0574 0.0484461 0)
(10.0635 0.0490493 0)
(10.069 0.0494952 0)
(10.074 0.0498722 0)
(10.0786 0.0502726 0)
(10.0828 0.050785 0)
(10.0866 0.0514895 0)
(10.0904 0.0524386 0)
(10.0942 0.0536591 0)
(10.0982 0.0550217 0)
(10.1029 0.0563065 0)
(10.0004 0.00698603 0)
(10.0049 0.0208287 0)
(10.0135 0.0302667 0)
(10.0228 0.0357529 0)
(10.0309 0.0396688 0)
(10.0384 0.0425741 0)
(10.0456 0.0444248 0)
(10.0523 0.0455485 0)
(10.0584 0.0463116 0)
(10.0639 0.0468971 0)
(10.069 0.0473983 0)
(10.0737 0.0478995 0)
(10.0781 0.0484762 0)
(10.0822 0.0491856 0)
(10.0863 0.0500527 0)
(10.0904 0.0510599 0)
(10.0947 0.0520817 0)
(10.0994 0.0529121 0)
(10.0004 0.00620478 0)
(10.0042 0.0182618 0)
(10.0115 0.027064 0)
(10.0197 0.0325423 0)
(10.0273 0.0364008 0)
(10.0344 0.0392955 0)
(10.0413 0.0412614 0)
(10.0478 0.0425345 0)
(10.0537 0.0434267 0)
(10.0591 0.0441229 0)
(10.0642 0.0447191 0)
(10.069 0.0452904 0)
(10.0734 0.0458994 0)
(10.0778 0.0465857 0)
(10.082 0.0473551 0)
(10.0862 0.0481708 0)
(10.0906 0.0489204 0)
(10.0952 0.0494427 0)
(10.0003 0.00547379 0)
(10.0036 0.0159583 0)
(10.0098 0.0240132 0)
(10.0171 0.0293662 0)
(10.0242 0.0331522 0)
(10.0309 0.0360011 0)
(10.0374 0.0380235 0)
(10.0436 0.0394026 0)
(10.0494 0.0403958 0)
(10.0547 0.0411785 0)
(10.0598 0.0418457 0)
(10.0645 0.0424641 0)
(10.0691 0.0430842 0)
(10.0734 0.0437333 0)
(10.0777 0.044407 0)
(10.082 0.0450642 0)
(10.0863 0.045613 0)
(10.0907 0.045941 0)
(10.0003 0.00482658 0)
(10.0031 0.0140312 0)
(10.0085 0.0213726 0)
(10.015 0.0265091 0)
(10.0216 0.0301855 0)
(10.028 0.0329588 0)
(10.0342 0.0349885 0)
(10.0401 0.0364276 0)
(10.0457 0.0374873 0)
(10.051 0.0383276 0)
(10.056 0.0390401 0)
(10.0607 0.0396843 0)
(10.0653 0.0403018 0)
(10.0697 0.0409122 0)
(10.0739 0.0415077 0)
(10.0782 0.0420518 0)
(10.0824 0.0424732 0)
(10.0866 0.0426999 0)
(10.0003 0.00422591 0)
(10.0027 0.012282 0)
(10.0074 0.0188908 0)
(10.0133 0.0237204 0)
(10.0194 0.0272443 0)
(10.0254 0.0299181 0)
(10.0313 0.0319205 0)
(10.037 0.0333873 0)
(10.0425 0.03449 0)
(10.0476 0.0353694 0)
(10.0526 0.0361115 0)
(10.0573 0.0367697 0)
(10.0618 0.0373787 0)
(10.0661 0.0379536 0)
(10.0704 0.0384867 0)
(10.0746 0.0389494 0)
(10.0786 0.0392895 0)
(10.0827 0.0394682 0)
(10.0003 0.00360042 0)
(10.0024 0.0104637 0)
(10.0064 0.0162346 0)
(10.0116 0.020628 0)
(10.0172 0.0239136 0)
(10.0228 0.0264315 0)
(10.0284 0.0283574 0)
(10.0338 0.0298122 0)
(10.0391 0.0309305 0)
(10.0441 0.0318291 0)
(10.049 0.0325851 0)
(10.0536 0.0332456 0)
(10.0581 0.0338396 0)
(10.0624 0.0343793 0)
(10.0666 0.03486 0)
(10.0707 0.0352632 0)
(10.0747 0.0355555 0)
(10.0785 0.0357258 0)
(10.0002 0.00294855 0)
(10.002 0.00857485 0)
(10.0054 0.0134132 0)
(10.01 0.0172365 0)
(10.0151 0.0201757 0)
(10.0203 0.0224615 0)
(10.0255 0.024246 0)
(10.0307 0.0256331 0)
(10.0358 0.0267245 0)
(10.0407 0.0276112 0)
(10.0455 0.0283577 0)
(10.05 0.0290045 0)
(10.0544 0.0295755 0)
(10.0587 0.0300821 0)
(10.0628 0.030524 0)
(10.0668 0.030893 0)
(10.0706 0.0311716 0)
(10.0743 0.0313693 0)
(10.0002 0.00227021 0)
(10.0017 0.00661491 0)
(10.0047 0.010429 0)
(10.0087 0.0135435 0)
(10.0132 0.0160079 0)
(10.018 0.0179633 0)
(10.023 0.0195233 0)
(10.0279 0.0207697 0)
(10.0328 0.0217756 0)
(10.0375 0.0226064 0)
(10.0421 0.0233114 0)
(10.0466 0.0239232 0)
(10.051 0.0244616 0)
(10.0551 0.0249375 0)
(10.0592 0.0253547 0)
(10.0631 0.0257131 0)
(10.0668 0.0260068 0)
(10.0704 0.0262567 0)
(10.0002 0.00156144 0)
(10.0015 0.00456472 0)
(10.004 0.0072549 0)
(10.0076 0.00951791 0)
(10.0117 0.011364 0)
(10.0162 0.0128691 0)
(10.0208 0.014103 0)
(10.0255 0.0151203 0)
(10.0302 0.0159675 0)
(10.0348 0.0166861 0)
(10.0393 0.0173087 0)
(10.0437 0.0178582 0)
(10.0479 0.0183493 0)
(10.0521 0.0187918 0)
(10.056 0.0191913 0)
(10.0598 0.0195521 0)
(10.0635 0.0198739 0)
(10.067 0.0201819 0)
(10.0001 0.000803033 0)
(10.0013 0.00236366 0)
(10.0036 0.0038031 0)
(10.0069 0.00505903 0)
(10.0108 0.00612894 0)
(10.015 0.00704373 0)
(10.0194 0.00783161 0)
(10.0239 0.00851618 0)
(10.0284 0.00911831 0)
(10.0329 0.00965657 0)
(10.0373 0.0101458 0)
(10.0416 0.0105969 0)
(10.0458 0.0110175 0)
(10.0499 0.0114133 0)
(10.0538 0.0117886 0)
(10.0576 0.012148 0)
(10.0612 0.0124921 0)
(10.0647 0.0128447 0)
(10.0001 -5.42827e-05 0)
(10.0013 -0.000128847 0)
(10.0035 -0.000131323 0)
(10.0067 -6.83998e-05 0)
(10.0105 5.76142e-05 0)
(10.0146 0.000238763 0)
(10.019 0.000458774 0)
(10.0234 0.000706908 0)
(10.0279 0.000977176 0)
(10.0324 0.00126459 0)
(10.0368 0.00156441 0)
(10.0411 0.00187296 0)
(10.0453 0.00218788 0)
(10.0493 0.00250791 0)
(10.0533 0.00283256 0)
(10.0571 0.00316259 0)
(10.0607 0.00349641 0)
(10.0642 0.00385229 0)
(10.0002 -0.000883931 0)
(10.0014 -0.00254835 0)
(10.0038 -0.00396093 0)
(10.0072 -0.00505681 0)
(10.0112 -0.00583347 0)
(10.0156 -0.00634733 0)
(10.0201 -0.0066628 0)
(10.0247 -0.00682251 0)
(10.0293 -0.00685881 0)
(10.0339 -0.00680201 0)
(10.0383 -0.00667736 0)
(10.0427 -0.00650265 0)
(10.0469 -0.00628994 0)
(10.0511 -0.00604786 0)
(10.055 -0.00578266 0)
(10.0589 -0.00549811 0)
(10.0626 -0.00519881 0)
(10.0662 -0.00487266 0)
(10.0002 -0.00160614 0)
(10.0015 -0.00467886 0)
(10.0043 -0.00733491 0)
(10.0081 -0.00938597 0)
(10.0125 -0.0108504 0)
(10.0172 -0.0118806 0)
(10.022 -0.0125921 0)
(10.0268 -0.013042 0)
(10.0316 -0.013283 0)
(10.0363 -0.0133724 0)
(10.0409 -0.0133564 0)
(10.0453 -0.0132648 0)
(10.0497 -0.0131168 0)
(10.0538 -0.0129267 0)
(10.0579 -0.0127048 0)
(10.0618 -0.0124578 0)
(10.0655 -0.0121917 0)
(10.0692 -0.0118986 0)
(10.0002 -0.00229761 0)
(10.0017 -0.00679829 0)
(10.0049 -0.0107277 0)
(10.0094 -0.0136409 0)
(10.0143 -0.015634 0)
(10.0194 -0.0170409 0)
(10.0245 -0.0180402 0)
(10.0296 -0.0186941 0)
(10.0347 -0.0190735 0)
(10.0396 -0.01926 0)
(10.0443 -0.0193141 0)
(10.0488 -0.0192738 0)
(10.0532 -0.0191651 0)
(10.0575 -0.0190078 0)
(10.0616 -0.0188155 0)
(10.0655 -0.0185969 0)
(10.0693 -0.0183591 0)
(10.073 -0.0180965 0)
(10.0002 -0.00294295 0)
(10.0019 -0.00893869 0)
(10.0057 -0.0141675 0)
(10.011 -0.017855 0)
(10.0167 -0.0203055 0)
(10.0222 -0.0220162 0)
(10.0276 -0.0231802 0)
(10.033 -0.023902 0)
(10.0383 -0.0243178 0)
(10.0434 -0.0245384 0)
(10.0482 -0.0246233 0)
(10.0529 -0.0246073 0)
(10.0574 -0.0245192 0)
(10.0617 -0.024382 0)
(10.0658 -0.0242112 0)
(10.0698 -0.0240159 0)
(10.0736 -0.023803 0)
(10.0773 -0.0235692 0)
(10.0001 -0.00352848 0)
(10.0019 -0.0113997 0)
(10.0065 -0.0176765 0)
(10.0129 -0.0216756 0)
(10.0193 -0.0245205 0)
(10.0253 -0.0266697 0)
(10.0311 -0.0280469 0)
(10.0369 -0.0287805 0)
(10.0423 -0.0291465 0)
(10.0475 -0.0293221 0)
(10.0525 -0.0293731 0)
(10.0573 -0.0293312 0)
(10.0618 -0.029226 0)
(10.0662 -0.0290812 0)
(10.0703 -0.0289112 0)
(10.0743 -0.0287234 0)
(10.0781 -0.0285228 0)
(10.0818 -0.0283054 0)
(9.99997 -0.00365777 0)
(10.0018 -0.0150721 0)
(10.0077 -0.0224502 0)
(10.015 -0.0256796 0)
(10.0217 -0.028134 0)
(10.0282 -0.0304764 0)
(10.0347 -0.0321234 0)
(10.041 -0.0330191 0)
(10.0467 -0.0334639 0)
(10.0521 -0.0336663 0)
(10.0572 -0.0337093 0)
(10.062 -0.0336416 0)
(10.0666 -0.0335055 0)
(10.0709 -0.0333307 0)
(10.0749 -0.0331343 0)
(10.0788 -0.0329252 0)
(10.0824 -0.0327079 0)
(10.0859 -0.0324804 0)
(9.99898 -0.00128556 0)
(10 -0.0178935 0)
(10.0086 -0.028916 0)
(10.0176 -0.0324599 0)
(10.0247 -0.033798 0)
(10.0317 -0.0349305 0)
(10.039 -0.0357746 0)
(10.0458 -0.0363047 0)
(10.052 -0.0366328 0)
(10.0575 -0.0367987 0)
(10.0626 -0.0368168 0)
(10.0671 -0.036723 0)
(10.0713 -0.0365586 0)
(10.075 -0.0363534 0)
(10.0784 -0.0361259 0)
(10.0815 -0.0358878 0)
(10.0844 -0.0356435 0)
(10.087 -0.0353931 0)
(9.99528 0.00388552 0)
(9.99337 -0.0102598 0)
(10.0071 -0.0270064 0)
(10.0214 -0.0387715 0)
(10.0314 -0.0446429 0)
(10.0397 -0.0461758 0)
(10.0473 -0.0456122 0)
(10.0539 -0.0445678 0)
(10.0593 -0.0435974 0)
(10.0636 -0.042722 0)
(10.0671 -0.041898 0)
(10.0698 -0.0411225 0)
(10.0718 -0.0404018 0)
(10.0732 -0.0397356 0)
(10.0742 -0.039122 0)
(10.0747 -0.0385601 0)
(10.0749 -0.038041 0)
(10.0749 -0.0375387 0)
(9.99145 -0.0172824 0)
(9.99191 0.000402757 0)
(10.0101 0.0177353 0)
(10.0297 0.0116989 0)
(10.0445 -0.00494198 0)
(10.0545 -0.0186036 0)
(10.0606 -0.0268953 0)
(10.0631 -0.0317134 0)
(10.0628 -0.0345301 0)
(10.0605 -0.0360648 0)
(10.0567 -0.0367651 0)
(10.0517 -0.0369561 0)
(10.0458 -0.0368507 0)
(10.0392 -0.0365787 0)
(10.0322 -0.0362239 0)
(10.0248 -0.0358477 0)
(10.0173 -0.0355059 0)
(10.0098 -0.0351673 0)
(10.0235 -0.205999 0)
(10.0684 -0.31231 0)
(10.0789 -0.255537 0)
(10.0705 -0.184093 0)
(10.0607 -0.134786 0)
(10.0502 -0.102576 0)
(10.0347 -0.0809774 0)
(10.0136 -0.0663908 0)
(9.98875 -0.0563559 0)
(9.96182 -0.049154 0)
(9.93395 -0.0437476 0)
(9.90584 -0.0395471 0)
(9.87799 -0.0361941 0)
(9.85073 -0.0334561 0)
(9.82428 -0.0311852 0)
(9.79879 -0.029318 0)
(9.77448 -0.0278245 0)
(9.75138 -0.0270219 0)
(9.94227 0.671599 0)
(9.88003 0.567473 0)
(9.77464 0.338503 0)
(9.63277 0.183375 0)
(9.4883 0.0949705 0)
(9.35751 0.0471635 0)
(9.24235 0.0214002 0)
(9.14131 0.00720319 0)
(9.05289 -0.000829817 0)
(8.9755 -0.0054431 0)
(8.9074 -0.00810284 0)
(8.84704 -0.00963409 0)
(8.7932 -0.0105071 0)
(8.74487 -0.0109906 0)
(8.70123 -0.0112455 0)
(8.66157 -0.0113966 0)
(8.62505 -0.0115375 0)
(8.59127 -0.0120321 0)
(-0.00169196 0.0381157 -3.66262e-20)
(0.0535786 -0.0551588 3.38116e-20)
(0.14783 -0.125692 0)
(0.2622 -0.162433 0)
(0.383496 -0.175409 0)
(0.503716 -0.174035 -2.72539e-20)
(0.617523 -0.164214 0)
(0.721354 -0.149415 0)
(0.812954 -0.131685 0)
(0.890886 -0.112199 0)
(0.954098 -0.0915326 2.42672e-20)
(1.00174 -0.0697825 0)
(1.03258 -0.0465404 0)
(1.04755 -0.0206803 0)
(1.04098 0.00737593 0)
(1.01177 0.0362868 2.37639e-20)
(0.961368 0.0638213 0)
(0.891958 0.0872446 0)
(0.807102 0.103723 0)
(0.712434 0.110734 0)
(0.61526 0.106803 0)
(0.523346 0.0928531 0)
(0.442775 0.0727939 0)
(0.375569 0.052441 2.59376e-20)
(0.318521 0.0376606 -2.60861e-20)
(0.264333 0.0324378 2.62123e-20)
(0.204564 0.0374767 2.63989e-20)
(0.132066 0.0510535 0)
(0.0411908 0.0706533 0)
(-0.0704857 0.0941703 -2.67291e-20)
(-0.204642 0.119786 -2.54403e-20)
(-0.361748 0.146425 0)
(-0.538572 0.170905 0)
(-0.730368 0.190038 -2.20212e-20)
(-0.931288 0.202044 0)
(-1.1353 0.206568 0)
(-1.33689 0.204275 1.99455e-20)
(-1.53147 0.196435 0)
(-1.71561 0.184562 1.92292e-20)
(-1.88699 0.170147 3.8003e-20)
(-2.04435 0.154496 0)
(-2.18728 0.138645 0)
(-2.31605 0.123348 0)
(-2.4314 0.109095 0)
(-2.53436 0.096164 0)
(-2.62612 0.0846662 3.67497e-20)
(-2.70793 0.0746005 3.6613e-20)
(-2.781 0.065892 3.64736e-20)
(-2.84648 0.0584243 0)
(-2.90541 0.0520625 -3.6176e-20)
(-2.95874 0.0466687 0)
(-3.00729 0.0421113 3.58455e-20)
(-3.05177 0.0382701 3.56673e-20)
(-3.09281 0.0350388 0)
(-3.13094 0.0323247 0)
(-3.16664 0.0300485 0)
(-3.20027 0.0281429 3.48757e-20)
(-3.2322 0.026551 0)
(-3.26271 0.025225 0)
(-3.29204 0.0241245 0)
(-3.32041 0.0232155 0)
(-3.34801 0.0224695 0)
(-3.375 0.0218619 0)
(-3.40151 0.0213723 0)
(-3.42767 0.020983 0)
(-3.45358 0.0206787 -3.27844e-20)
(-3.47932 0.0204464 0)
(-3.50497 0.0202747 0)
(-3.5306 0.0201536 3.20393e-20)
(-3.55626 0.0200744 3.17888e-20)
(-3.582 0.0200293 0)
(-3.60786 0.0200111 -3.1286e-20)
(-3.63386 0.0200135 3.10341e-20)
(-3.66003 0.0200306 0)
(-3.68638 0.020057 -3.05299e-20)
(-3.71293 0.0200873 0)
(-3.73968 0.0201165 0)
(-3.76662 0.0201397 2.97733e-20)
(-3.79374 0.0201519 0)
(-3.82103 0.0201482 -2.92682e-20)
(-3.84846 0.0201232 0)
(-3.876 0.0200717 2.87608e-20)
(-3.90362 0.019988 2.85055e-20)
(-3.93126 0.0198658 2.82486e-20)
(-3.95888 0.0196986 5.59792e-20)
(-3.98641 0.0194787 -5.54557e-20)
(-4.01376 0.0191981 0)
(-4.04087 0.0188472 0)
(-4.06763 0.0184156 0)
(-4.09392 0.0178912 -5.32776e-20)
(-4.11962 0.0172607 -5.27026e-20)
(-4.1446 0.0165091 5.21109e-20)
(-4.16868 0.0156203 0)
(-4.19167 0.014577 -5.0866e-20)
(-4.21338 0.0133622 -5.02066e-20)
(-4.23357 0.0119611 -4.95179e-20)
(-4.25196 0.0103649 0)
(-4.26825 0.00857585 0)
(-4.28213 0.00661953 0)
(-4.2932 0.00454635 -4.63887e-20)
(-4.30114 0.00242508 0)
(-4.30556 0.000356469 0)
(-4.30683 -0.00167504 4.34533e-20)
(-4.30473 -0.00379888 0)
(-4.29897 -0.00606793 0)
(-4.28924 -0.0085057 3.97564e-20)
(-4.27517 -0.0111281 0)
(-4.25637 -0.0139497 0)
(-4.23241 -0.0169852 -3.50437e-20)
(-4.20285 -0.0202503 -3.31903e-20)
(-4.1672 -0.0237619 0)
(-4.12494 -0.027538 2.8973e-20)
(-4.07552 -0.0315976 0)
(-4.01836 -0.0359607 -2.39644e-20)
(-3.95284 -0.0406478 0)
(-3.87829 -0.0456795 -1.80145e-20)
(-3.79403 -0.0510758 -1.46342e-20)
(-3.69934 -0.0568552 0)
(-3.59346 -0.0630335 0)
(-3.47564 -0.0696227 0)
(-3.34509 -0.0766286 0)
(-3.20105 -0.0840484 0)
(-3.04279 -0.0918681 0)
(-2.8696 -0.100059 0)
(-2.6809 -0.108574 2.53488e-20)
(-2.47621 -0.117344 -3.23477e-20)
(-2.25523 -0.126271 0)
(-2.01789 -0.135223 0)
(-1.76441 -0.144023 0)
(-1.49538 -0.152433 0)
(-1.21183 -0.160117 -1.5077e-19)
(-0.915317 -0.166593 0)
(-0.607977 -0.171153 1.92747e-19)
(-0.292332 -0.172844 -2.15256e-19)
(0.0293181 -0.170928 0)
(0.354912 -0.166292 0)
(0.681155 -0.160289 0)
(1.00452 -0.153211 2.27527e-19)
(1.32176 -0.145212 2.2507e-19)
(1.6299 -0.136468 0)
(1.92629 -0.127165 2.17871e-19)
(2.20864 -0.117495 2.13474e-19)
(2.47509 -0.107645 -2.08754e-19)
(2.72425 -0.0977845 0)
(2.95511 -0.088062 0)
(3.1671 -0.0785999 -1.93948e-19)
(3.35998 -0.0694937 0)
(3.53378 -0.0608136 0)
(3.68881 -0.052607 0)
(3.82552 -0.044904 0)
(3.94455 -0.0377215 1.72149e-19)
(4.04661 -0.0310515 1.68633e-19)
(4.13246 -0.0248605 0)
(4.20287 -0.0192024 1.62571e-19)
(4.2588 -0.014212 0)
(4.30143 -0.00919386 0)
(4.3298 -0.00236664 1.55996e-19)
(4.3379 0.00527762 0)
(4.32817 0.0117938 1.53076e-19)
(4.30517 0.0163004 0)
(4.27256 0.0189389 0)
(4.23319 0.0201498 1.50671e-19)
(4.18929 0.0203543 0)
(4.14254 0.0198782 1.49964e-19)
(4.09423 0.0189719 0)
(4.0453 0.0178273 0)
(3.99647 0.0165899 0)
(3.94816 0.0153717 -1.49846e-19)
(3.90059 0.0142617 0)
(3.85376 0.0133349 1.50232e-19)
(3.80742 0.0126614 0)
(3.76109 0.0123176 0)
(3.71394 0.0124008 0)
(3.6647 0.0130529 0)
(3.61151 0.0145077 0)
(3.55106 0.0171514 0)
(3.47969 0.021852 0)
(3.38406 0.0293807 -3.13691e-19)
(3.2711 0.0463073 0)
(3.01809 0.0623635 0)
(0.0771525 -0.146722 9.9507e-20)
(0.172964 -0.274894 -8.19746e-20)
(0.282708 -0.337525 0)
(0.387327 -0.35911 4.45021e-20)
(0.481036 -0.355116 0)
(0.564842 -0.335426 1.97408e-20)
(0.639631 -0.306062 -3.90614e-20)
(0.705308 -0.270694 -3.83449e-20)
(0.761479 -0.231575 0)
(0.807784 -0.190038 -3.77784e-20)
(0.843947 -0.14679 -1.86324e-20)
(0.869821 -0.102051 0)
(0.885302 -0.0556953 0)
(0.88941 -0.00718129 0)
(0.88566 0.0431878 0)
(0.873618 0.0941699 -1.94792e-20)
(0.850876 0.143639 0)
(0.815042 0.188626 4.00007e-20)
(0.763988 0.225289 0)
(0.69631 0.249204 0)
(0.6122 0.256494 -4.06868e-20)
(0.513952 0.246428 0)
(0.405524 0.224661 4.01844e-20)
(0.290192 0.202985 -2.00353e-20)
(0.168143 0.193464 1.99068e-20)
(0.0369683 0.202615 -1.98156e-20)
(-0.106549 0.2303 -1.92367e-20)
(-0.265295 0.271978 0)
(-0.440425 0.321732 0)
(-0.630425 0.373314 1.66041e-20)
(-0.83122 0.420704 -1.5493e-20)
(-1.03704 0.458995 0)
(-1.24148 0.484434 0)
(-1.4387 0.495288 1.41327e-20)
(-1.6241 0.491939 0)
(-1.7946 0.476339 0)
(-1.94865 0.451275 -1.33079e-20)
(-2.08596 0.41976 0)
(-2.20721 0.384599 1.32238e-20)
(-2.31372 0.34815 -2.61002e-20)
(-2.40711 0.312229 0)
(-2.4891 0.278115 0)
(-2.56137 0.246614 -5.19544e-20)
(-2.62541 0.218151 -5.18091e-20)
(-2.68254 0.192864 -5.16541e-20)
(-2.73387 0.170694 2.57063e-20)
(-2.78032 0.151451 -2.57064e-20)
(-2.82266 0.134877 -7.67321e-20)
(-2.86154 0.120683 5.09014e-20)
(-2.89746 0.108577 2.54267e-20)
(-2.93087 0.0982834 0)
(-2.96215 0.0895475 -2.52005e-20)
(-2.9916 0.082145 2.48791e-20)
(-3.0195 0.0758795 0)
(-3.04608 0.0705818 0)
(-3.07154 0.0661075 0)
(-3.09606 0.0623339 -2.45465e-20)
(-3.1198 0.0591571 0)
(-3.1429 0.0564889 4.83144e-20)
(-3.16548 0.0542548 0)
(-3.18764 0.0523912 4.77318e-20)
(-3.20949 0.0508443 0)
(-3.23111 0.0495676 -4.714e-20)
(-3.25257 0.0485216 0)
(-3.27393 0.0476719 4.65428e-20)
(-3.29526 0.0469888 -2.30142e-20)
(-3.31659 0.0464463 0)
(-3.33798 0.0460216 -4.56444e-20)
(-3.35946 0.0456944 -2.27811e-20)
(-3.38105 0.0454469 -2.26323e-20)
(-3.40278 0.0452629 0)
(-3.42467 0.0451276 -2.21188e-20)
(-3.44673 0.0450276 -2.21893e-20)
(-3.46897 0.0449503 0)
(-3.49138 0.0448839 2.18972e-20)
(-3.51397 0.0448174 -4.32885e-20)
(-3.53673 0.0447397 0)
(-3.55963 0.0446405 -2.14641e-20)
(-3.58267 0.0445093 0)
(-3.60581 0.0443358 6.33253e-20)
(-3.62902 0.0441094 0)
(-3.65226 0.0438196 -6.24752e-20)
(-3.6755 0.0434556 -2.0749e-20)
(-3.69866 0.0430062 2.0413e-20)
(-3.72171 0.0424599 4.05474e-20)
(-3.74456 0.0418048 -4.02672e-20)
(-3.76714 0.0410283 0)
(-3.78938 0.040117 0)
(-3.81116 0.0390569 0)
(-3.83241 0.037833 1.17894e-19)
(-3.853 0.0364291 3.90623e-20)
(-3.87282 0.0348279 -3.87185e-20)
(-3.89174 0.0330108 0)
(-3.90965 0.0309578 -3.78061e-20)
(-3.9264 0.028647 3.75838e-20)
(-3.94188 0.0260554 3.71613e-20)
(-3.95595 0.0231602 0)
(-3.96851 0.0199433 0)
(-3.97948 0.0164021 0)
(-3.9888 0.012564 3.51531e-20)
(-3.9964 0.0084881 0)
(-4.00219 0.00424361 -6.78949e-20)
(-4.00536 -0.000195068 -9.95889e-20)
(-4.00547 -0.00492939 6.48887e-20)
(-4.00217 -0.0100163 0)
(-3.99508 -0.0154924 3.08378e-20)
(-3.98382 -0.0213861 0)
(-3.96796 -0.0277235 5.69577e-20)
(-3.94709 -0.0345301 -2.75467e-20)
(-3.92071 -0.0418323 -2.62275e-20)
(-3.88834 -0.0496571 0)
(-3.84945 -0.0580324 -6.77654e-20)
(-3.80346 -0.0669864 4.18924e-20)
(-3.74979 -0.0765477 1.84222e-20)
(-3.68781 -0.0867436 0)
(-3.61684 -0.0975999 1.38205e-20)
(-3.53621 -0.109138 3.51408e-20)
(-3.44518 -0.121376 0)
(-3.34303 -0.134322 1.2406e-20)
(-3.22899 -0.147976 5.9127e-21)
(-3.10231 -0.16232 -1.1018e-21)
(-2.96224 -0.177321 0)
(-2.80805 -0.192917 0)
(-2.63908 -0.209018 0)
(-2.45476 -0.225496 1.59652e-20)
(-2.25464 -0.242181 2.38859e-20)
(-2.03841 -0.258855 0)
(-1.80602 -0.275248 6.63568e-20)
(-1.55766 -0.291043 7.80761e-20)
(-1.29386 -0.30587 0)
(-1.01549 -0.319313 1.0711e-19)
(-0.723838 -0.330887 2.33325e-19)
(-0.420536 -0.340009 -1.34696e-19)
(-0.107517 -0.345919 -1.38836e-19)
(0.21295 -0.347692 0)
(0.537612 -0.345437 0)
(0.863351 -0.339773 0)
(1.18716 -0.330979 -1.63991e-19)
(1.50594 -0.319334 1.59674e-19)
(1.81678 -0.305193 3.26938e-19)
(2.11703 -0.288975 -1.66055e-19)
(2.40443 -0.27114 1.61126e-19)
(2.67714 -0.252155 1.64262e-19)
(2.93372 -0.232468 0)
(3.1732 -0.212486 0)
(3.39494 -0.192559 -1.56192e-19)
(3.59869 -0.172977 0)
(3.78446 -0.153968 0)
(3.95249 -0.135702 3.02548e-19)
(4.10321 -0.118303 0)
(4.23719 -0.10185 1.46554e-19)
(4.3551 -0.0863843 -1.45845e-19)
(4.45766 -0.0719106 0)
(4.54568 -0.0584491 1.4154e-19)
(4.61991 -0.0459961 0)
(4.68081 -0.0340316 0)
(4.73034 -0.0215243 -1.3843e-19)
(4.77468 -0.0092972 2.7427e-19)
(4.81296 0.00141768 -1.36378e-19)
(4.84257 0.0101963 0)
(4.8625 0.017094 0)
(4.87276 0.02238 1.33759e-19)
(4.87393 0.026324 0)
(4.86688 0.0291457 1.33036e-19)
(4.85259 0.0310419 0)
(4.8321 0.0321935 0)
(4.8064 0.0327684 0)
(4.77643 0.0329271 1.32961e-19)
(4.74304 0.0328259 0)
(4.70693 0.0326218 -1.33396e-19)
(4.66871 0.0324804 0)
(4.62877 0.0325885 0)
(4.58737 0.0331778 2.6908e-19)
(4.54446 0.0345592 -2.70122e-19)
(4.49984 0.0372176 0)
(4.45247 0.0418649 0)
(4.40218 0.0501354 0)
(4.34278 0.0634609 8.30575e-19)
(4.28455 0.0920984 0)
(4.18011 0.12908 -5.6335e-19)
(0.0828795 -0.421717 9.48698e-22)
(0.178034 -0.54743 1.00279e-19)
(0.27568 -0.564227 0)
(0.361219 -0.547513 -7.96943e-20)
(0.43261 -0.514183 0)
(0.492863 -0.470888 0)
(0.54409 -0.421202 -5.51833e-22)
(0.587054 -0.367221 3.32456e-20)
(0.621898 -0.310238 3.33156e-20)
(0.648525 -0.251089 3.26967e-20)
(0.666709 -0.190338 0)
(0.67617 -0.128376 0)
(0.676639 -0.0654568 -3.36747e-20)
(0.667975 -0.00162989 -6.82033e-20)
(0.650348 0.0637666 6.86667e-20)
(0.623946 0.130837 0)
(0.588965 0.198728 7.01623e-20)
(0.545139 0.265131 -3.52869e-20)
(0.491584 0.32598 0)
(0.426797 0.375786 7.19995e-20)
(0.348856 0.409299 3.56841e-20)
(0.255873 0.42501 -7.10255e-20)
(0.146479 0.428633 -3.48275e-20)
(0.0200773 0.431923 0)
(-0.123027 0.446571 6.49445e-20)
(-0.281527 0.478493 6.10112e-20)
(-0.453036 0.526729 0)
(-0.634057 0.585394 5.48533e-20)
(-0.819994 0.646216 0)
(-1.00542 0.70075 5.03053e-20)
(-1.18469 0.741967 2.40119e-20)
(-1.35287 0.765308 0)
(-1.50664 0.769059 0)
(-1.64452 0.75415 0)
(-1.76668 0.72345 0)
(-1.87442 0.680869 0)
(-1.9696 0.630543 0)
(-2.0542 0.576265 4.21321e-20)
(-2.13006 0.521167 -6.22613e-20)
(-2.19872 0.467606 0)
(-2.26141 0.417193 0)
(-2.31903 0.370895 0)
(-2.37228 0.329172 -1.57068e-22)
(-2.42165 0.292115 3.99565e-20)
(-2.46753 0.259565 7.94949e-20)
(-2.51023 0.231215 -7.89986e-20)
(-2.55002 0.206675 -3.92232e-20)
(-2.58714 0.18553 3.90501e-20)
(-2.62181 0.167371 -1.06782e-22)
(-2.65427 0.151812 3.84557e-20)
(-2.68472 0.138504 0)
(-2.71335 0.127135 3.79573e-20)
(-2.74037 0.117436 -1.44874e-22)
(-2.76595 0.109169 0)
(-2.79027 0.102133 0)
(-2.81349 0.0961547 -3.69773e-20)
(-2.83576 0.0910852 0)
(-2.85721 0.0867976 0)
(-2.87797 0.0831832 3.6102e-20)
(-2.89815 0.0801485 7.20319e-20)
(-2.91785 0.0776132 -3.59309e-20)
(-2.93717 0.0755078 0)
(-2.95619 0.073772 3.54611e-20)
(-2.97498 0.0723535 0)
(-2.99362 0.0712064 3.46969e-20)
(-3.01216 0.0702905 3.47704e-20)
(-3.03065 0.0695702 -6.87881e-20)
(-3.04914 0.0690141 -3.40205e-20)
(-3.06767 0.0685938 0)
(-3.08627 0.068284 6.74622e-20)
(-3.10498 0.0680615 0)
(-3.1238 0.0679052 1.00055e-19)
(-3.14277 0.0677955 6.6184e-20)
(-3.16189 0.067714 6.57692e-20)
(-3.18118 0.0676431 -6.53603e-20)
(-3.20063 0.0675663 9.75801e-20)
(-3.22025 0.0674671 0)
(-3.24003 0.0673298 0)
(-3.25997 0.0671385 -6.37813e-20)
(-3.28004 0.0668773 -9.52356e-20)
(-3.30022 0.0665304 0)
(-3.32049 0.0660816 3.14542e-20)
(-3.34082 0.0655144 0)
(-3.36117 0.0648118 -9.29875e-20)
(-3.38149 0.0639565 -2.32174e-22)
(-3.40174 0.0629306 2.20908e-22)
(-3.42186 0.0617156 6.08065e-20)
(-3.44178 0.0602926 0)
(-3.46144 0.0586419 -6.00533e-20)
(-3.48076 0.0567436 -1.6253e-22)
(-3.49966 0.0545772 0)
(-3.51805 0.0521225 0)
(-3.53582 0.0493597 0)
(-3.55287 0.0462697 5.80436e-20)
(-3.5691 0.0428357 0)
(-3.58437 0.039043 0)
(-3.59857 0.0348802 0)
(-3.61155 0.0303381 0)
(-3.62315 0.0254068 0)
(-3.63315 0.0200666 5.44724e-20)
(-3.64129 0.0142747 0)
(-3.64729 0.00796508 5.26317e-20)
(-3.65079 0.00108673 5.15965e-20)
(-3.65149 -0.00638459 -5.04548e-20)
(-3.64906 -0.0144799 0)
(-3.64313 -0.0232357 -4.77984e-20)
(-3.63334 -0.0326906 0)
(-3.61927 -0.0428837 -4.45498e-20)
(-3.60051 -0.0538548 4.26645e-20)
(-3.5766 -0.0656444 1.23093e-19)
(-3.54704 -0.0782938 0)
(-3.51132 -0.0918444 1.08931e-19)
(-3.46887 -0.106338 3.48116e-20)
(-3.41913 -0.121814 0)
(-3.36146 -0.138311 5.53438e-20)
(-3.2952 -0.155862 4.82156e-20)
(-3.21967 -0.174494 -5.93194e-20)
(-3.13416 -0.194221 0)
(-3.03793 -0.215047 -9.80006e-21)
(-2.93022 -0.236955 -4.67073e-21)
(-2.81027 -0.259905 -9.83588e-22)
(-2.67732 -0.283826 0)
(-2.53065 -0.308604 0)
(-2.36957 -0.334077 0)
(-2.19348 -0.360023 2.27648e-20)
(-2.00189 -0.386157 0)
(-1.79448 -0.412113 0)
(-1.57111 -0.437452 -5.19923e-20)
(-1.33192 -0.461655 -6.10523e-20)
(-1.07734 -0.484134 0)
(-0.808148 -0.504252 0)
(-0.525478 -0.521347 -1.81186e-19)
(-0.230847 -0.534784 0)
(0.0738785 -0.54397 2.17992e-19)
(0.386267 -0.548311 2.23239e-19)
(0.703202 -0.547483 0)
(1.02171 -0.541355 0)
(1.33876 -0.530088 -2.48708e-19)
(1.65131 -0.514036 -4.32843e-21)
(1.95646 -0.493725 -3.98075e-21)
(2.2516 -0.469808 0)
(2.53451 -0.443017 -5.32149e-19)
(2.80334 -0.414106 0)
(3.05672 -0.383807 0)
(3.29365 -0.352789 0)
(3.51354 -0.321636 2.67058e-19)
(3.71612 -0.290838 0)
(3.90141 -0.260783 -5.2402e-19)
(4.06967 -0.23177 -2.61762e-19)
(4.22131 -0.204017 0)
(4.35689 -0.17767 -2.5764e-19)
(4.47708 -0.15282 0)
(4.5826 -0.129509 0)
(4.67424 -0.107744 -7.5459e-19)
(4.75278 -0.0874602 4.99709e-19)
(4.81901 -0.0685708 0)
(4.87402 -0.0511747 4.95418e-19)
(4.91963 -0.0351247 -2.47498e-19)
(4.95724 -0.020367 0)
(4.9874 -0.00703599 0)
(5.01016 0.00464578 0)
(5.02575 0.0146239 -7.33968e-19)
(5.03444 0.0229442 0)
(5.03666 0.0297147 -2.44392e-19)
(5.0329 0.0350875 0)
(5.0237 0.0392355 0)
(5.00964 0.0423425 0)
(4.99129 0.0446005 0)
(4.96919 0.0462093 0)
(4.94384 0.0473797 0)
(4.91566 0.0483407 -4.95193e-19)
(4.88496 0.0493536 0)
(4.85195 0.0507386 -2.49545e-19)
(4.81663 0.0529127 7.51807e-19)
(4.77887 0.056498 0)
(4.738 0.0623714 0)
(4.69385 0.0723787 -5.09614e-19)
(4.6434 0.0885077 -5.14583e-19)
(4.59262 0.119535 5.1702e-19)
(4.52668 0.166983 5.23346e-19)
(0.0675412 -0.656166 -1.79763e-19)
(0.143612 -0.752624 -1.4383e-19)
(0.213616 -0.729882 -8.39896e-20)
(0.274113 -0.684051 -3.85958e-20)
(0.324544 -0.628198 0)
(0.366427 -0.565977 6.70868e-20)
(0.400904 -0.499221 -3.27875e-20)
(0.4284 -0.42901 0)
(0.448947 -0.356025 -3.08187e-20)
(0.462386 -0.280744 0)
(0.468443 -0.203533 6.20634e-20)
(0.466771 -0.124698 0)
(0.457005 -0.0445092 3.13629e-20)
(0.438815 0.0367956 6.33254e-20)
(0.41198 0.118997 -6.37253e-20)
(0.376441 0.201929 0)
(0.332316 0.284959 -6.50638e-20)
(0.279706 0.366506 0)
(0.218447 0.443619 0)
(0.14778 0.512139 -6.64096e-20)
(0.0660335 0.568069 0)
(-0.029277 0.610625 -6.33153e-22)
(-0.140554 0.644745 0)
(-0.268738 0.67908 0)
(-0.412513 0.721025 5.90291e-22)
(-0.568217 0.773122 -5.05204e-20)
(-0.730531 0.832379 -4.85783e-20)
(-0.893397 0.891895 -4.57094e-20)
(-1.05088 0.943385 0)
(-1.198 0.979595 -8.5144e-20)
(-1.33134 0.995923 0)
(-1.44943 0.990977 -4.05358e-20)
(-1.55258 0.966203 0)
(-1.6424 0.924973 0)
(-1.72115 0.871576 3.79005e-20)
(-1.79118 0.810377 0)
(-1.85457 0.745276 -3.66141e-20)
(-1.91297 0.679444 6.69721e-22)
(-1.96754 0.615256 7.05974e-20)
(-2.01905 0.554355 -7.02706e-20)
(-2.06793 0.497769 0)
(-2.11444 0.446041 0)
(-2.15866 0.399356 -3.42263e-20)
(-2.20064 0.357647 0)
(-2.24041 0.320682 -3.32801e-20)
(-2.27798 0.288131 3.30326e-20)
(-2.31339 0.259611 3.27898e-20)
(-2.34673 0.234723 0)
(-2.37807 0.213075 -3.23145e-20)
(-2.40753 0.194296 -3.20808e-20)
(-2.43524 0.178041 6.35946e-20)
(-2.46132 0.163999 -3.162e-20)
(-2.48592 0.151893 -3.13927e-20)
(-2.50918 0.141477 0)
(-2.53124 0.132532 0)
(-2.55222 0.124871 3.07236e-20)
(-2.57227 0.118326 0)
(-2.59149 0.112754 0)
(-2.61001 0.108028 -6.01499e-20)
(-2.62792 0.104037 -5.97273e-20)
(-2.64532 0.100686 0)
(-2.66229 0.0978902 0)
(-2.67893 0.0955751 0)
(-2.6953 0.0936758 0)
(-2.71147 0.0921345 -5.76932e-20)
(-2.72749 0.0909003 5.71106e-20)
(-2.74342 0.0899277 5.69191e-20)
(-2.75931 0.0891761 1.1289e-19)
(-2.7752 0.088609 0)
(-2.79113 0.0881932 -1.89874e-22)
(-2.80712 0.0878986 0)
(-2.82321 0.0876973 -5.50912e-20)
(-2.83941 0.0875637 -1.85023e-22)
(-2.85574 0.0874733 -5.44052e-20)
(-2.87223 0.0874033 5.4072e-20)
(-2.88887 0.0873314 -1.76866e-22)
(-2.90567 0.0872364 0)