# vtk DataFile Version 2.0
track0
ASCII
DATASET POLYDATA
POINTS 12050 float
-0.0205 0.001 1e-05
-0.02052 0.000999985 1e-05
-0.02054 0.000999974 1e-05
-0.02056 0.000999965 1e-05
-0.02058 0.000999959 1e-05
-0.0206 0.000999956 1e-05
-0.0205 0.00367778 1e-05
-0.02052 0.00367778 1e-05
-0.02054 0.00367777 1e-05
-0.02056 0.00367777 1e-05
-0.02058 0.00367777 1e-05
-0.0206 0.00367777 1e-05
-0.0205 0.00635556 1e-05
-0.02052 0.00635555 1e-05
-0.02054 0.00635555 1e-05
-0.02056 0.00635555 1e-05
-0.02058 0.00635555 1e-05
-0.0206 0.00635555 1e-05
-0.0205 0.00903333 1e-05
-0.02052 0.00903333 1e-05
-0.02054 0.00903333 1e-05
-0.02056 0.00903333 1e-05
-0.02058 0.00903333 1e-05
-0.0206 0.00903333 1e-05
-0.0205 0.0117111 1e-05
-0.02052 0.0117111 1e-05
-0.02054 0.0117111 1e-05
-0.02056 0.0117111 1e-05
-0.02058 0.0117111 1e-05
-0.0206 0.0117111 1e-05
-0.0205 0.0143889 1e-05
-0.02052 0.0143889 1e-05
-0.02054 0.0143889 1e-05
-0.02056 0.0143889 1e-05
-0.02058 0.0143889 1e-05
-0.0206 0.0143889 1e-05
-0.0205 0.0170667 1e-05
-0.02052 0.0170667 1e-05
-0.02054 0.0170667 1e-05
-0.02056 0.0170667 1e-05
-0.02058 0.0170667 1e-05
-0.0206 0.0170667 1e-05
-0.0205 0.0197444 1e-05
-0.02052 0.0197444 1e-05
-0.02054 0.0197444 1e-05
-0.02056 0.0197444 1e-05
-0.02058 0.0197444 1e-05
-0.0206 0.0197444 1e-05
-0.0205 0.0224222 1e-05
-0.02052 0.0224222 1e-05
-0.02054 0.0224222 1e-05
-0.02056 0.0224222 1e-05
-0.02058 0.0224222 1e-05
-0.0206 0.0224222 1e-05
-0.0205 0.0251 1e-05
-0.02052 0.0250998 1e-05
-0.02054 0.0250997 1e-05
-0.02056 0.0250995 1e-05
-0.02058 0.0250995 1e-05
-0.0206 0.0250994 1e-05
-0.0205 0.001 1e-05
-0.0202034 0.00100022 1e-05
-0.0199069 0.00100067 1e-05
-0.0196103 0.00100133 1e-05
-0.0193137 0.00100219 1e-05
-0.0190172 0.00100326 1e-05
-0.0187132 0.00100467 1e-05
-0.0184093 0.00100589 1e-05
-0.0181054 0.00100711 1e-05
-0.0178015 0.00100833 1e-05
-0.0174976 0.00100954 1e-05
-0.0172058 0.00101083 1e-05
-0.016914 0.00101194 1e-05
-0.0166222 0.00101304 1e-05
-0.0163305 0.00101413 1e-05
-0.0160387 0.00101523 1e-05
-0.0157586 0.00101637 1e-05
-0.0154784 0.00101745 1e-05
-0.0151983 0.00101857 1e-05
-0.0149182 0.00101972 1e-05
-0.0146381 0.00102091 1e-05
-0.0143749 0.00102209 1e-05
-0.0141117 0.00102327 1e-05
-0.0138485 0.00102449 1e-05
-0.0135852 0.00102574 1e-05
-0.013363 0.00102682 1e-05
-0.0133491 0.00102689 1e-05
-0.0133352 0.00102696 1e-05
-0.0133213 0.00102702 1e-05
-0.0133074 0.00102709 1e-05
-0.0132934 0.00102716 1e-05
-0.0130353 0.00102845 1e-05
-0.0127771 0.00102975 1e-05
-0.0125189 0.00103107 1e-05
-0.0122607 0.00103241 1e-05
-0.0120025 0.00103376 1e-05
-0.0117547 0.00103507 1e-05
-0.0115068 0.00103639 1e-05
-0.0112589 0.00103771 1e-05
-0.0110111 0.00103903 1e-05
-0.0107632 0.00104036 1e-05
-0.0105252 0.00104164 1e-05
-0.0102873 0.00104292 1e-05
-0.0100493 0.0010442 1e-05
-0.00981133 0.00104548 1e-05
-0.00957337 0.00104676 1e-05
-0.00934491 0.00104798 1e-05
-0.00911645 0.00104921 1e-05
-0.00888799 0.00105043 1e-05
-0.00865954 0.00105165 1e-05
-0.00843108 0.00105286 1e-05
-0.00821175 0.00105402 1e-05
-0.00799242 0.00105518 1e-05
-0.00777309 0.00105634 1e-05
-0.00755376 0.00105749 1e-05
-0.00733443 0.00105864 1e-05
-0.00712387 0.00105973 1e-05
-0.0069133 0.00106082 1e-05
-0.00670273 0.00106191 1e-05
-0.00649216 0.001063 1e-05
-0.0062816 0.00106408 1e-05
-0.00607944 0.00106511 1e-05
-0.00587729 0.00106614 1e-05
-0.00567514 0.00106716 1e-05
-0.00547298 0.00106819 1e-05
-0.00527083 0.00106921 1e-05
-0.00507675 0.00107017 1e-05
-0.00488267 0.00107114 1e-05
-0.0046886 0.00107211 1e-05
-0.00449452 0.00107307 1e-05
-0.00430044 0.00107403 1e-05
-0.00411412 0.00107495 1e-05
-0.0039278 0.00107586 1e-05
-0.00374147 0.00107678 1e-05
-0.00355515 0.00107769 1e-05
-0.00336883 0.0010786 1e-05
-0.00318995 0.00107946 1e-05
-0.00301107 0.00108033 1e-05
-0.00283219 0.00108119 1e-05
-0.00265331 0.00108206 1e-05
-0.00247443 0.00108292 1e-05
-0.0023027 0.00108375 1e-05
-0.00213097 0.00108457 1e-05
-0.00195924 0.0010854 1e-05
-0.0017875 0.00108623 1e-05
-0.00161577 0.00108706 1e-05
-0.0014509 0.00108786 1e-05
-0.00128603 0.00108865 1e-05
-0.00112116 0.00108946 1e-05
-0.000956289 0.00109026 1e-05
-0.000791418 0.00109107 1e-05
-0.000633135 0.00109185 1e-05
-0.000474851 0.00109264 1e-05
-0.000316568 0.00109344 1e-05
-0.000158284 0.00109423 1e-05
0 0.00109503 1e-05
0.000105677 0.00109557 1e-05
0.000211355 0.0010961 1e-05
0.000317032 0.00109664 1e-05
0.00042271 0.00109717 1e-05
0.000528387 0.00109771 1e-05
0.000634886 0.00109824 1e-05
0.000741385 0.00109877 1e-05
0.000847885 0.0010993 1e-05
0.000954384 0.00109982 1e-05
0.00106088 0.00110034 1e-05
0.00116821 0.00110085 1e-05
0.00127554 0.00110136 1e-05
0.00138286 0.00110187 1e-05
0.00149019 0.00110236 1e-05
0.00159752 0.00110285 1e-05
0.00170568 0.00110333 1e-05
0.00181384 0.00110381 1e-05
0.001922 0.00110427 1e-05
0.00203016 0.00110473 1e-05
0.00213833 0.00110518 1e-05
0.00224733 0.00110561 1e-05
0.00235633 0.00110605 1e-05
0.00246533 0.00110647 1e-05
0.00257434 0.00110689 1e-05
0.00268334 0.00110729 1e-05
0.00279319 0.00110769 1e-05
0.00290304 0.00110808 1e-05
0.00301289 0.00110846 1e-05
0.00312274 0.00110884 1e-05
0.00323259 0.00110921 1e-05
0.00334329 0.00110956 1e-05
0.003454 0.00110991 1e-05
0.0035647 0.00111026 1e-05
0.0036754 0.0011106 1e-05
0.00378611 0.00111092 1e-05
0.00389767 0.00111124 1e-05
0.00400924 0.00111155 1e-05
0.0041208 0.00111186 1e-05
0.00423237 0.00111216 1e-05
0.00434393 0.00111245 1e-05
0.00445636 0.00111272 1e-05
0.00456879 0.001113 1e-05
0.00468123 0.00111326 1e-05
0.00479366 0.00111352 1e-05
0.00490609 0.00111377 1e-05
0.0050194 0.00111401 1e-05
0.0051327 0.00111424 1e-05
0.00524601 0.00111447 1e-05
0.00535932 0.00111469 1e-05
0.00547262 0.0011149 1e-05
0.00558681 0.0011151 1e-05
0.005701 0.0011153 1e-05
0.00581518 0.00111548 1e-05
0.00592937 0.00111566 1e-05
0.00604356 0.00111584 1e-05
0.00615863 0.001116 1e-05
0.00627371 0.00111615 1e-05
0.00638878 0.0011163 1e-05
0.00650386 0.00111644 1e-05
0.00661893 0.00111658 1e-05
0.0067349 0.0011167 1e-05
0.00685087 0.00111682 1e-05
0.00696684 0.00111692 1e-05
0.00708281 0.00111703 1e-05
0.00719878 0.00111712 1e-05
0.00731565 0.0011172 1e-05
0.00743252 0.00111728 1e-05
0.00754939 0.00111735 1e-05
0.00766626 0.00111741 1e-05
0.00778313 0.00111746 1e-05
0.00780991 0.00111747 1e-05
0.00783669 0.00111748 1e-05
0.00786346 0.00111749 1e-05
0.00789024 0.0011175 1e-05
0.00791666 0.00111751 1e-05
0.00800773 0.00111753 1e-05
0.00809881 0.00111756 1e-05
0.00818988 0.00111757 1e-05
0.00828096 0.00111759 1e-05
0.00837203 0.00111759 1e-05
0.00849073 0.00111759 1e-05
0.00860942 0.00111759 1e-05
0.00872812 0.00111757 1e-05
0.00884682 0.00111755 1e-05
0.00896551 0.00111752 1e-05
0.00908513 0.00111747 1e-05
0.00920475 0.00111742 1e-05
0.00932437 0.00111736 1e-05
0.00944398 0.00111729 1e-05
0.0095636 0.00111722 1e-05
0.00968415 0.00111713 1e-05
0.0098047 0.00111703 1e-05
0.00992525 0.00111693 1e-05
0.0100458 0.00111682 1e-05
0.0101663 0.00111669 1e-05
0.0102878 0.00111655 1e-05
0.0104093 0.00111641 1e-05
0.0105308 0.00111626 1e-05
0.0106523 0.0011161 1e-05
0.0107738 0.00111593 1e-05
0.0108962 0.00111574 1e-05
0.0110186 0.00111556 1e-05
0.0111411 0.00111536 1e-05
0.0112635 0.00111515 1e-05
0.0113859 0.00111493 1e-05
0.0115093 0.00111469 1e-05
0.0116327 0.00111445 1e-05
0.0117561 0.00111421 1e-05
0.0118795 0.00111395 1e-05
0.0120028 0.00111368 1e-05
0.0121272 0.00111339 1e-05
0.0122515 0.0011131 1e-05
0.0123759 0.0011128 1e-05
0.0125002 0.0011125 1e-05
0.0126245 0.00111218 1e-05
0.0127498 0.00111184 1e-05
0.0128752 0.00111149 1e-05
0.0130005 0.00111114 1e-05
0.0131258 0.00111078 1e-05
0.0132511 0.00111041 1e-05
0.0133774 0.00111002 1e-05
0.0135036 0.00110962 1e-05
0.0136299 0.00110921 1e-05
0.0137562 0.0011088 1e-05
0.0138825 0.00110837 1e-05
0.0140098 0.00110792 1e-05
0.014137 0.00110747 1e-05
0.0142643 0.00110701 1e-05
0.0143915 0.00110654 1e-05
0.0145188 0.00110606 1e-05
0.0146471 0.00110556 1e-05
0.0147753 0.00110505 1e-05
0.0149036 0.00110453 1e-05
0.0150318 0.001104 1e-05
0.0151601 0.00110346 1e-05
0.0152893 0.00110291 1e-05
0.0154186 0.00110234 1e-05
0.0155478 0.00110176 1e-05
0.0156771 0.00110118 1e-05
0.0158063 0.00110058 1e-05
0.0159366 0.00109997 1e-05
0.0160668 0.00109934 1e-05
0.0161971 0.00109871 1e-05
0.0163274 0.00109806 1e-05
0.0164576 0.00109741 1e-05
0.0165889 0.00109674 1e-05
0.0167201 0.00109606 1e-05
0.0168514 0.00109536 1e-05
0.0169827 0.00109465 1e-05
0.0171139 0.00109394 1e-05
0.0172462 0.00109322 1e-05
0.0173785 0.00109248 1e-05
0.0175108 0.00109172 1e-05
0.0176431 0.00109095 1e-05
0.0177754 0.00109018 1e-05
0.0179087 0.0010894 1e-05
0.018042 0.0010886 1e-05
0.0181753 0.00108778 1e-05
0.0183087 0.00108695 1e-05
0.018442 0.00108612 1e-05
0.0185763 0.00108528 1e-05
0.0187107 0.00108442 1e-05
0.018845 0.00108354 1e-05
0.0189794 0.00108264 1e-05
0.0191137 0.00108175 1e-05
0.0192491 0.00108085 1e-05
0.0193845 0.00107993 1e-05
0.0195199 0.00107899 1e-05
0.0196553 0.00107803 1e-05
0.0197907 0.00107708 1e-05
0.0199272 0.00107612 1e-05
0.0200636 0.00107514 1e-05
0.0202001 0.00107413 1e-05
0.0203365 0.00107311 1e-05
0.020473 0.0010721 1e-05
0.0206105 0.00107108 1e-05
0.020748 0.00107003 1e-05
0.0208855 0.00106896 1e-05
0.021023 0.00106788 1e-05
0.0211606 0.0010668 1e-05
0.0212991 0.00106573 1e-05
0.0214377 0.00106462 1e-05
0.0215763 0.00106348 1e-05
0.0217149 0.00106234 1e-05
0.0218535 0.0010612 1e-05
0.0219931 0.00106006 1e-05
0.0221328 0.00105889 1e-05
0.0222724 0.00105769 1e-05
0.0224121 0.00105648 1e-05
0.0225517 0.00105528 1e-05
0.0226925 0.00105407 1e-05
0.0228332 0.00105284 1e-05
0.022974 0.00105157 1e-05
0.0231147 0.0010503 1e-05
0.0232555 0.00104903 1e-05
0.0233973 0.00104776 1e-05
0.0235391 0.00104646 1e-05
0.023681 0.00104513 1e-05
0.0238228 0.00104379 1e-05
0.0239647 0.00104246 1e-05
0.0241076 0.00104112 1e-05
0.0242505 0.00103976 1e-05
0.0243935 0.00103836 1e-05
0.0245364 0.00103695 1e-05
0.0246794 0.00103555 1e-05
0.0248234 0.00103415 1e-05
0.0249675 0.00103272 1e-05
0.0251115 0.00103125 1e-05
0.0252556 0.00102978 1e-05
[...]
POINT_DATA 12050
 FIELD attributes 1
U 3 12050 float
10.0004 	0.00734844 	0 10.0004 	0.00587875 	0 10.0003 	0.00440906 	0 10.0002 	0.00293937 	0 10.0001 	0.00146969 	0 10 	0 	0
10.0001 	0.000879312 	0 10 	0.000703449 	0 10 	0.000527587 	0 10 	0.000351725 	0 10 	0.000175862 	0 10 	0 	0
10.0001 	0.000467752 	0 10.0001 	0.000374012 	0 10.0001 	0.000280272 	0 10 	0.000186533 	0 10 	9.27926e-05 	0 10 	0 	0
10 	0.000268245 	0 10 	0.000214596 	0 10 	0.000160947 	0 10 	0.000107298 	0 10 	5.3649e-05 	0 10 	0 	0
10 	8.26093e-05 	0 10 	6.60875e-05 	0 10 	4.95656e-05 	0 10 	3.30437e-05 	0 10 	1.65219e-05 	0 10 	0 	0
10 	-2.42176e-05 	0 10 	-1.9374e-05 	0 10 	-1.45305e-05 	0 10 	-9.68702e-06 	0 10 	-4.84351e-06 	0 10 	0 	0
10 	-0.000214663 	0 10 	-0.00017173 	0 10 	-0.000128798 	0 10 	-8.58652e-05 	0 10 	-4.29326e-05 	0 10 	0 	0
10 	-0.000376694 	0 10 	-0.000301355 	0 10 	-0.000226016 	0 10 	-0.000150678 	0 10 	-7.53388e-05 	0 10 	0 	0
9.99999 	-0.0004259 	0 9.99999 	-0.00034072 	0 9.99999 	-0.00025554 	0 10 	-0.00017036 	0 10 	-8.51799e-05 	0 10 	0 	0
9.17387 	0.0871273 	0 9.1308 	0.0697018 	0 9.08741 	0.0522761 	0 9.04368 	0.0348501 	0 8.99963 	0.017424 	0 8.95524 	0 	0
10.0004 	0.00734844 	0 10.0024 	0.0152074 	0 10.0045 	0.02223 	0 10.0065 	0.0292081 	0 10.0086 	0.036142 	0 10.0136 	0.0463347 	0 10.0164 	0.0402163 	0 10.0208 	0.0401679 	0 10.0252 	0.0401197 	0 10.0297 	0.0400717 	0 10.0356 	0.0445311 	0 10.0385 	0.0378946 	0 10.0424 	0.0378525 	0 10.0464 	0.0378104 	0 10.0504 	0.0377682 	0 10.0545 	0.0408704 	0 10.0567 	0.0387949 	0 10.0591 	0.0401058 	0 10.0615 	0.0414184 	0 10.064 	0.0427326 	0 10.0661 	0.0451917 	0 10.0676 	0.0453042 	0 10.069 	0.0465071 	0 10.0703 	0.0477112 	0 10.0716 	0.0489163 	0 10.0727 	0.049935 	0 10.0728 	0.0499992 	0 10.0729 	0.0500634 	0 10.073 	0.0501275 	0 10.073 	0.0501917 	0 10.0731 	0.0502463 	0 10.0736 	0.0508757 	0 10.0741 	0.051499 	0 10.0746 	0.0521228 	0 10.0752 	0.0527471 	0 10.0756 	0.0532072 	0 10.0755 	0.0535063 	0 10.0752 	0.0536999 	0 10.0748 	0.0538935 	0 10.0744 	0.0540873 	0 10.0739 	0.0540426 	0 10.0735 	0.0541921 	0 10.0724 	0.0541731 	0 10.0713 	0.0541541 	0 10.0702 	0.0541352 	0 10.0686 	0.053847 	0 10.0682 	0.0539335 	0 10.0666 	0.0538061 	0 10.0649 	0.0536786 	0 10.0633 	0.0535511 	0 10.0607 	0.0531375 	0 10.0607 	0.0532001 	0 10.0587 	0.0530139 	0 10.0566 	0.0528276 	0 10.0546 	0.0526413 	0 10.051 	0.0521566 	0 10.0516 	0.0522216 	0 10.0493 	0.0520129 	0 10.0469 	0.0518041 	0 10.0446 	0.0515952 	0 10.0399 	0.0510806 	0 10.0414 	0.0511711 	0 10.0388 	0.0509631 	0 10.0363 	0.050755 	0 10.0337 	0.0505469 	0 10.0279 	0.0500205 	0 10.0304 	0.0501461 	0 10.0277 	0.0499598 	0 10.025 	0.0497735 	0 10.0223 	0.0495871 	0 10.0153 	0.0490774 	0 10.0189 	0.0492542 	0 10.0161 	0.0490952 	0 10.0134 	0.0489361 	0 10.0106 	0.048777 	0 10.0024 	0.0482778 	0 10.0072 	0.048516 	0 10.0044 	0.0484462 	0 10.0016 	0.0483765 	0 9.99879 	0.0483067 	0 9.98944 	0.0479175 	0 9.9956 	0.0482819 	0 9.99282 	0.0482791 	0 9.99004 	0.0482763 	0 9.98727 	0.0482735 	0 9.97672 	0.0478884 	0 9.9843 	0.0483373 	0 9.98165 	0.0485894 	0 9.97901 	0.0488416 	0 9.97637 	0.0490939 	0 9.9647 	0.0490283 	0 9.97391 	0.0496877 	8.83434e-22 9.97207 	0.0499591 	5.98015e-21 9.97023 	0.0502304 	1.10766e-20 9.96839 	0.0505019 	1.61727e-20 9.9564 	0.0502434 	1.363e-20 9.96706 	0.0506249 	9.57152e-20 9.96559 	0.0505149 	8.89691e-20 9.96411 	0.0504048 	8.22218e-20 9.96264 	0.0502948 	7.54733e-20 9.95049 	0.0496922 	-1.53004e-20 9.96115 	0.0496062 	-4.15544e-20 9.95972 	0.0492047 	-4.61875e-20 9.95828 	0.0488032 	-5.08185e-20 9.95685 	0.0484016 	-5.54474e-20 9.94476 	0.0477268 	-2.13535e-20 9.95497 	0.0473848 	-1.88443e-20 9.95322 	0.0466417 	-1.30759e-20 9.95146 	0.0458985 	-7.30808e-21 9.9497 	0.0451553 	-1.54086e-21 9.93758 	0.0442226 	7.32084e-21 9.94735 	0.0438533 	-5.30178e-21 9.94526 	0.0429248 	-2.40245e-20 9.94316 	0.0419962 	-4.27495e-20 9.94106 	0.0410673 	-6.14769e-20 9.92882 	0.0398464 	-8.82029e-20 9.93807 	0.0396069 	-1.26664e-19 9.93557 	0.0387203 	-1.14251e-19 9.93305 	0.0378335 	-1.0183e-19 9.93054 	0.0369464 	-8.94007e-20 9.91814 	0.0356038 	-2.98946e-20 9.92674 	0.0354892 	3.7348e-20 9.92379 	0.0346902 	5.0961e-20 9.92084 	0.0338909 	6.45638e-20 9.91787 	0.0330913 	7.81565e-20 9.90538 	0.0317329 	3.68893e-20 9.91325 	0.0316388 	-5.15504e-20 9.90986 	0.0308723 	-5.7723e-20 9.90646 	0.0301055 	-6.38799e-20 9.90306 	0.0293384 	-7.00211e-20 9.89056 	0.0280062 	-3.12265e-22 9.89757 	0.0278705 	6.58236e-20 9.89371 	0.0271158 	5.6431e-20 9.88984 	0.0263608 	4.70227e-20 9.88596 	0.0256055 	3.75989e-20 9.87353 	0.0243369 	-2.79637e-20 9.8795 	0.024142 	-8.59477e-20 9.87513 	0.0233976 	-1.08321e-19 9.87076 	0.0226529 	-1.30688e-19 9.86637 	0.021908 	-1.5305e-19 9.8541 	0.0207238 	-1.35851e-19 9.85882 	0.0204705 	-1.58725e-19 9.85393 	0.0197397 	-1.46223e-19 9.84904 	0.0190087 	-1.33715e-19 9.84414 	0.0182773 	-1.21204e-19 9.8322 	0.0171859 	-8.26668e-20 9.83539 	0.0168819 	-6.99366e-20 9.82999 	0.0161679 	-5.13209e-20 9.82458 	0.0154536 	-3.27071e-20 9.81916 	0.014739 	-1.40952e-20 9.80781 	0.0137378 	2.48308e-21 9.80916 	0.0133739 	0 9.80325 	0.0126699 	0 9.79734 	0.0119654 	0 9.79142 	0.0112607 	0 9.78098 	0.010344 	0 9.7801 	0.00990364 	-1.59388e-20 9.77371 	0.00920477 	-3.50223e-20 9.76731 	0.00850553 	-5.41077e-20 9.7609 	0.00780594 	-7.31949e-20 9.75173 	0.00697854 	-9.34247e-20 9.7482 	0.00644257 	-1.00146e-19 9.74133 	0.00574881 	-1.0087e-19 9.73445 	0.00505466 	-1.01589e-19 9.72756 	0.00436012 	-1.02301e-19 9.7201 	0.00363901 	-1.01815e-19 9.71911 	0.00351482 	-9.34499e-20 9.71744 	0.00335826 	-8.67843e-20 9.71578 	0.00320169 	-8.01192e-20 9.71411 	0.00304509 	-7.34547e-20 9.71247 	0.00289054 	-6.68787e-20 9.70673 	0.00235463 	-4.41864e-20 9.701 	0.00181845 	-2.15003e-20 9.69525 	0.001282 	1.1796e-21 9.6895 	0.000745279 	2.38533e-20 9.67882 	-1.28835e-05 	5.15631e-20 9.67548 	-0.000504488 	5.25346e-20 9.66762 	-0.00119441 	5.36526e-20 9.65975 	-0.00188482 	5.47682e-20 9.65187 	-0.00257574 	5.58814e-20 9.63286 	-0.00374281 	5.8596e-20 9.63474 	-0.00400977 	4.63029e-20 9.62645 	-0.00469775 	3.40076e-20 9.61816 	-0.00538627 	2.1711e-20 9.60985 	-0.00607533 	9.41318e-21 9.58457 	-0.00744554 	-8.88809e-22 9.59135 	-0.00753674 	-8.90016e-21 9.58267 	-0.00822427 	-2.06485e-20 9.57398 	-0.0089124 	-3.23955e-20 9.56528 	-0.00960112 	-4.41413e-20 9.53427 	-0.0111189 	-5.59003e-20 9.54551 	-0.0110871 	-5.67409e-20 9.53646 	-0.0117757 	-6.41215e-20 9.52741 	-0.012465 	-7.14985e-20 9.51834 	-0.013155 	-7.8872e-20 9.48225 	-0.0147605 	-9.66009e-20 9.49741 	-0.0146601 	-1.45154e-19 9.48804 	-0.0153507 	-1.3556e-19 9.47864 	-0.016042 	-1.25981e-19 9.46924 	-0.016734 	-1.16416e-19 9.42878 	-0.0183661 	-4.15049e-20 9.44729 	-0.0182497 	-2.70431e-20 9.4376 	-0.0189428 	-1.90782e-20 9.4279 	-0.0196366 	-1.11124e-20 9.41819 	-0.0203312 	-3.14574e-21 9.37412 	-0.0219327 	0 9.39538 	-0.0218527 	0 9.38541 	-0.0225498 	0 9.37543 	-0.0232477 	0 9.36544 	-0.0239463 	0 9.31852 	-0.0254624 	0 9.34193 	-0.0254733 	1.98515e-21 9.33172 	-0.0261747 	9.38782e-21 9.32149 	-0.026877 	1.67896e-20 9.31124 	-0.0275801 	2.41905e-20 9.26222 	-0.0289534 	4.1692e-20 9.28722 	-0.0291026 	1.55142e-19 9.27679 	-0.029807 	1.58132e-19 9.26633 	-0.0305123 	1.61138e-19 9.25586 	-0.0312184 	1.64162e-19 9.20542 	-0.0323971 	4.18891e-20 9.23149 	-0.0327251 	2.28484e-20 9.22086 	-0.0334312 	1.61807e-20 9.21021 	-0.0341383 	9.512e-21 9.19894 	-0.0348497 	3.15271e-21 9.14832 	-0.0357871 	1.70257e-20 9.17288 	-0.0363365 	1.05209e-19 9.16419 	-0.0370344 	1.11702e-19 9.15337 	-0.0377426 	1.13036e-19 9.13805 	-0.0384472 	1.0205e-19 9.09108 	-0.0391209 	3.88222e-21 9.11233 	-0.0398892 	-1.00409e-19 9.107 	-0.0406079 	-1.27096e-19 9.09603 	-0.0413168 	-1.37373e-19 9.07739 	-0.041962 	-1.29248e-19 9.03387 	-0.0423979 	-6.12698e-20 9.05204 	-0.0433603 	-1.79436e-19 9.04952 	-0.0441434 	-2.15735e-19 9.03843 	-0.0448529 	-2.18163e-19 9.01713 	-0.0453938 	-1.75094e-19 8.97683 	-0.0456193 	-4.71726e-20 8.99218 	-0.0467524 	-2.47601e-20 8.99196 	-0.0476372 	-1.12065e-20 8.98077 	-0.0483471 	-3.90389e-21 8.95741 	-0.0487457 	0 8.92011 	-0.0487863 	0 8.93286 	-0.050066 	0 8.93451 	-0.0510827 	0 8.92323 	-0.051793 	0 8.89835 	-0.0520199 	1.94891e-21 8.8638 	-0.0519024 	5.28459e-21 8.87422 	-0.0533085 	2.10975e-21 8.87732 	-0.0544821 	0 8.86598 	-0.055193 	0 8.84005 	-0.0552237 	2.35664e-21 8.80804 	-0.0549705 	5.69686e-21 8.81633 	-0.056481 	2.52188e-21 8.82056 	-0.0578282 	1.35674e-21 8.80918 	-0.05854 	7.95745e-21 8.7826 	-0.0583599 	2.45292e-20 8.75289 	-0.057996 	4.31546e-20 8.75929 	-0.0595947 	1.69883e-19 8.76434 	-0.0611305 	2.87652e-19 8.75294 	-0.061844 	2.91302e-19 8.72605 	-0.061442 	1.70417e-19 8.69845 	-0.0609875 	4.3707e-20 8.70315 	-0.0626547 	2.5366e-20 8.70779 	-0.0643236 	7.02653e-21 8.69619 	-0.064994 	2.68939e-22 8.67049 	-0.0644692 	3.47918e-21 8.6448 	-0.063944 	6.68927e-21 8.64798 	-0.0656622 	3.65e-21 8.6511 	-0.0673822 	6.1168e-22 8.63993 	-0.068022 	2.2001e-21 8.61595 	-0.0674444 	-1.69929e-21 8.59199 	-0.0668665 	-5.59774e-21 8.59383 	-0.0686252 	-4.94449e-20 8.59562 	-0.0703857 	-9.32964e-20 8.5849 	-0.0709966 	-9.47134e-20 8.56248 	-0.0703801 	-5.46215e-20 8.54008 	-0.0697632 	-1.45277e-20 8.54075 	-0.071555 	8.53855e-20 8.54136 	-0.0733486 	1.85292e-19 8.53114 	-0.0739322 	1.93938e-19 8.51011 	-0.0732866 	1.10644e-19 8.4891 	-0.0726406 	2.73494e-20 8.48875 	-0.0744562 	1.58082e-20 8.48833 	-0.0762736 	4.26287e-21 8.47863 	-0.0768301 	1.58167e-22 8.45884 	-0.076165 	4.85281e-21 8.43908 	-0.0754993 	9.54905e-21 8.43783 	-0.0773183 	3.8656e-21 8.43652 	-0.079139 	-1.82368e-21 8.42734 	-0.0796708 	-2.04939e-20 8.40868 	-0.0790096 	-7.09206e-20 8.39003 	-0.078348 	-1.2135e-19 8.38799 	-0.0801623 	-2.53137e-19 8.38588 	-0.0819784 	-3.84919e-19 8.37725 	-0.0824896 	-3.68985e-19 8.3596 	-0.0818465 	-2.17892e-19 8.34195 	-0.081203 	-6.67982e-20 8.33921 	-0.0830074 	5.81844e-20 8.33612 	-0.0847447 	1.76634e-19 8.32761 	-0.0852126 	1.74089e-19 8.31159 	-0.0846911 	9.10819e-20 8.29485 	-0.0840748 	3.99452e-22 8.29149 	-0.085867 	-8.95449e-20 8.28709 	-0.0873992 	-1.63405e-19 8.27871 	-0.0878799 	-1.72554e-19 8.26463 	-0.0875561 	-1.15745e-19 8.24873 	-0.0869723 	-3.76407e-20 8.24481 	-0.0887513 	-2.64323e-20 8.23936 	-0.0900827 	-1.53268e-20 8.23109 	-0.0905776 	-4.40914e-21 8.21871 	-0.0904513 	1.23388e-20 8.20355 	-0.0899037 	3.30384e-20 8.19914 	-0.0916695 	1.09931e-20 8.19285 	-0.0928061 	-2.91159e-21 8.18468 	-0.0933168 	-8.71857e-21 8.17378 	-0.0933859 	-5.49632e-21 8.1593 	-0.0928775 	9.5307e-21 8.15446 	-0.0946303 	-7.2698e-21 8.1475 	-0.0955794 	-1.72291e-20 8.13944 	-0.0961073 	-2.36022e-20 8.12981 	-0.0963689 	-3.40745e-20 8.11595 	-0.0959019 	-5.57541e-20 8.11072 	-0.0976429 	5.29753e-20 8.10327 	-0.0984123 	7.50531e-20 8.09529 	-0.0989587 	7.72104e-20 8.08677 	-0.0994092 	6.99283e-20 8.07347 	-0.0989851 	-2.31496e-20 8.06789 	-0.100716 	6.85159e-20 8.06008 	-0.101313 	7.38087e-20 8.05218 	-0.10188 	7.66639e-20 8.04427 	-0.102446 	7.95069e-20 8.03183 	-0.102136 	8.9792e-21 8.02568 	-0.103705 	-5.55246e-22 8.01788 	-0.104292 	-3.84268e-22 8.01006 	-0.104879 	-2.13314e-22 8.00222 	-0.105467 	-4.23836e-23 7.991 	-0.105362 	1.49598e-20 7.98436 	-0.106745 	0 7.97663 	-0.107355 	0 7.96887 	-0.107966 	0 7.96109 	-0.108576 	0 7.95093 	-0.108671 	1.14998e-20 7.94393 	-0.109879 	0 7.93625 	-0.110513 	0 7.92855 	-0.111147 	0 7.92082 	-0.111781 	0 7.91158 	-0.112073 	0 7.90432 	-0.113112 	0 7.89669 	-0.113771 	0 7.88903 	-0.114429 	0 7.88135 	-0.115089 	0 7.87292 	-0.115572 	-3.99705e-21 7.86549 	-0.116451 	0 7.85789 	-0.117136 	0 7.85027 	-0.117821 	0 7.84262 	-0.118506 	0 7.83489 	-0.119178 	-6.60317e-22 7.83423 	-0.119256 	0 7.83356 	-0.119319 	0 7.83289 	-0.119382 	0 7.83222 	-0.119446 	0 7.83155 	-0.119508 	0 7.82446 	-0.120159 	0 7.81734 	-0.120809 	0 7.8102 	-0.12146 	0 7.80304 	-0.122112 	0 7.79667 	-0.122601 	0 7.78862 	-0.12349 	-7.76945e-21 7.78083 	-0.124233 	-1.72814e-20 7.77302 	-0.124976 	-2.67915e-20 7.76518 	-0.125719 	-3.62998e-20 7.75902 	-0.126129 	-4.58221e-20 7.75064 	-0.127204 	-4.139e-20 7.74286 	-0.127977 	-4.06568e-20 7.73505 	-0.128749 	-3.99196e-20 7.72722 	-0.129522 	-3.91786e-20 7.72192 	-0.129795 	-4.41589e-20 7.71321 	-0.131051 	-3.37939e-20 7.70544 	-0.131853 	-2.34013e-20 7.69763 	-0.132656 	-1.30068e-20 7.68979 	-0.133459 	-2.6102e-21 7.68535 	-0.133602 	0 7.6763 	-0.135034 	-8.7957e-22 7.66852 	-0.135868 	-5.54729e-21 7.6607 	-0.136703 	-1.0214e-20 7.65285 	-0.137538 	-1.48796e-20 7.64925 	-0.137559 	-1.95294e-20 7.63989 	-0.139143 	-5.33822e-20 7.63204 	-0.140032 	-7.32471e-20 7.6242 	-0.140899 	-9.26797e-20 7.61701 	-0.141641 	-1.06726e-19 7.61355 	-0.141675 	-9.06424e-20 7.60418 	-0.143275 	-6.58384e-20 7.59596 	-0.144355 	-5.11969e-20 7.58809 	-0.145257 	-4.0001e-20 7.58176 	-0.145869 	-4.12824e-20 7.5782 	-0.145961 	-6.49004e-20 7.56882 	-0.147582 	-7.84226e-20 7.5602 	-0.14885 	-7.56709e-20 7.5523 	-0.149789 	-5.77754e-20 7.5468 	-0.150277 	-3.16728e-20 7.54313 	-0.150424 	6.45786e-22 7.53373 	-0.152067 	4.66741e-21 7.52472 	-0.15352 	6.11661e-21 7.51676 	-0.154496 	1.08749e-21 7.51207 	-0.154864 	0 7.50828 	-0.155065 	0 7.49885 	-0.156729 	0 7.48944 	-0.158364 	0 7.48142 	-0.159374 	0 7.47751 	-0.159629 	0 7.47359 	-0.159884 	0 7.46412 	-0.161568 	0 7.4546 	-0.163253 	0 7.44712 	-0.164263 	-1.35798e-20 7.44307 	-0.164573 	-3.06438e-20 7.439 	-0.164883 	-4.7707e-20 7.42949 	-0.166589 	-2.89836e-20 7.41992 	-0.168296 	-1.02524e-20 7.4129 	-0.169337 	2.12992e-21 7.40869 	-0.169702 	6.03473e-21 7.40448 	-0.170067 	9.93929e-21 7.3949 	-0.171797 	4.1131e-20 7.38527 	-0.173527 	7.23208e-20 7.37868 	-0.1746 	7.72767e-20 7.37432 	-0.17502 	6.2918e-20 7.36994 	-0.17544 	4.85559e-20 7.3603 	-0.177194 	2.51647e-20 7.35059 	-0.178949 	1.7634e-21 7.34442 	-0.180056 	8.27325e-21 7.33989 	-0.18053 	1.71859e-20 7.33534 	-0.181003 	2.61001e-20 7.32561 	-0.182783 	8.65922e-20 7.31647 	-0.184449 	1.36383e-19 7.3104 	-0.185562 	1.33881e-19 7.30535 	-0.186232 	8.81298e-20 7.30061 	-0.186758 	2.8411e-20 7.2908 	-0.188564 	2.04334e-20 7.28248 	-0.190095 	1.60295e-20 7.27625 	-0.191248 	1.65774e-20 7.27064 	-0.192126 	2.09971e-20 7.26572 	-0.192705 	2.96438e-20 7.25581 	-0.194536 	8.83357e-20 7.24828 	-0.195937 	1.05751e-19 7.24189 	-0.197129 	1.03164e-19 7.23572 	-0.198213 	8.99448e-20 7.23059 	-0.198842 	3.20604e-20 7.22056 	-0.2007 	2.43804e-20 7.21381 	-0.201972 	1.65266e-20 7.20725 	-0.203203 	8.66303e-21 7.20064 	-0.204433 	8.02332e-22 7.19516 	-0.205169 	0 7.18572 	-0.206929 	0 7.17902 	-0.208197 	0 7.17227 	-0.209466 	0 7.16548 	-0.210734 	0 7.1594 	-0.21168 	0 7.15075 	-0.213304 	0 7.14385 	-0.214609 	0 7.13691 	-0.215914 	0 7.12992 	-0.217219 	0 7.12324 	-0.218373 	4.16797e-21 7.11611 	-0.219717 	5.20106e-21 7.10978 	-0.220913 	1.24337e-20 7.10341 	-0.222109 	1.96687e-20 7.097 	-0.223304 	2.69058e-20 7.09094 	-0.224431 	3.37255e-20 7.09005 	-0.224589 	3.45713e-20 7.08917 	-0.224747 	3.5417e-20 7.08829 	-0.224905 	3.62627e-20 7.0874 	-0.225063 	3.71083e-20 7.08667 	-0.225203 	3.78131e-20 7.07911 	-0.226593 	4.05067e-20 7.07158 	-0.227965 	4.47095e-20 7.06401 	-0.229337 	4.88908e-20 7.05638 	-0.230709 	5.30507e-20 7.05018 	-0.231912 	6.93781e-20 7.04167 	-0.233489 	4.65117e-20 7.03392 	-0.234891 	3.54283e-20 7.02611 	-0.236293 	2.43232e-20 7.01826 	-0.237696 	1.31963e-20 7.01316 	-0.23878 	3.01655e-20 7.00367 	-0.240542 	2.63964e-20 6.99568 	-0.241973 	2.49607e-20 6.98764 	-0.243404 	2.35185e-20 6.97955 	-0.244835 	2.207e-20 6.97555 	-0.245799 	3.19851e-20 6.96526 	-0.247702 	2.11086e-20 6.95682 	-0.249203 	1.91314e-20 6.94853 	-0.250661 	1.80862e-20 6.94139 	-0.251986 	2.12361e-20 6.93732 	-0.252964 	3.52848e-20 6.92678 	-0.254887 	4.86791e-20 6.9173 	-0.256577 	5.19325e-20 6.90875 	-0.258061 	4.62277e-20 6.90275 	-0.259258 	2.94898e-20 6.89841 	-0.260267 	5.57732e-21 6.88762 	-0.262208 	2.49957e-21 6.87706 	-0.264086 	-1.14255e-22 6.86825 	-0.265593 	-6.34459e-24 6.86341 	-0.266658 	0 6.85879 	-0.267696 	0 6.84773 	-0.269652 	0 6.83661 	-0.271607 	0 6.8282 	-0.27311 	-8.03193e-21 6.82332 	-0.274172 	-1.66904e-20 6.81841 	-0.275234 	-2.53446e-20 6.80709 	-0.277201 	-1.42684e-20 6.79569 	-0.279169 	-3.18205e-21 6.78762 	-0.280702 	4.1716e-21 6.78245 	-0.281783 	1.05847e-20 6.77724 	-0.282865 	1.70009e-20 6.76564 	-0.284842 	1.16444e-20 6.75397 	-0.286818 	6.29232e-21 6.7464 	-0.288344 	7.03555e-21 6.74076 	-0.289477 	2.40429e-20 6.73525 	-0.290575 	4.24797e-20 6.72336 	-0.292558 	2.30146e-20 6.71292 	-0.294377 	7.45336e-21 6.70508 	-0.295911 	-1.23898e-21 6.69822 	-0.29724 	-7.09587e-21 6.6924 	-0.298354 	-9.9631e-21 6.68022 	-0.300342 	-5.46256e-20 6.67105 	-0.302001 	-7.08284e-20 6.66291 	-0.303544 	-7.69255e-20 6.6548 	-0.305069 	-8.13491e-20 6.64867 	-0.306196 	-4.63777e-20 6.6367 	-0.308135 	-7.70003e-20 6.62832 	-0.309681 	-7.17625e-20 6.61988 	-0.311227 	-6.65115e-20 6.61139 	-0.312773 	-6.1247e-20 6.60405 	-0.31408 	-3.7587e-20 6.59341 	-0.315841 	-5.12796e-20 6.58472 	-0.317384 	-4.27403e-20 6.57598 	-0.318928 	-3.41835e-20 6.56718 	-0.320471 	-2.5609e-20 6.55854 	-0.321971 	-1.35345e-20 6.55623 	-0.322344 	-1.30096e-20 6.55429 	-0.322678 	-1.24613e-20 6.55234 	-0.323012 	-1.19131e-20 6.55038 	-0.323345 	-1.1365e-20 6.54846 	-0.323675 	-1.08245e-20 6.54105 	-0.324878 	-8.4571e-21 6.53361 	-0.326081 	-6.08871e-21 6.52614 	-0.327283 	-3.71936e-21 6.51862 	-0.328486 	-1.34904e-21 6.51193 	-0.329563 	0 6.50183 	-0.331232 	0 6.49204 	-0.332756 	0 6.48219 	-0.334281 	0 6.47228 	-0.335806 	0 6.46431 	-0.337041 	0 6.45336 	-0.338881 	-1.19456e-22 6.44323 	-0.340392 	-2.28651e-21 6.43304 	-0.341902 	-4.45207e-21 6.42337 	-0.343329 	-6.58587e-21 6.41565 	-0.344469 	-8.61549e-21 6.40431 	-0.346307 	1.31915e-20 6.39336 	-0.347973 	2.53571e-20 6.38282 	-0.349468 	2.78486e-20 6.37402 	-0.350708 	1.06169e-20 6.36598 	-0.351832 	-1.56402e-20 6.35428 	-0.353646 	-9.09987e-21 6.34251 	-0.35546 	-2.56108e-21 6.33196 	-0.356904 	3.65826e-21 6.32366 	-0.35801 	7.45174e-21 6.31531 	-0.359115 	1.12437e-20 6.30326 	-0.360903 	6.46945e-21 6.29114 	-0.36269 	1.69176e-21 6.28095 	-0.364134 	5.06256e-21 6.27233 	-0.365217 	1.59102e-20 6.26367 	-0.3663 	2.67589e-20 6.25128 	-0.368058 	3.26325e-20 6.23914 	-0.369769 	3.6511e-20 6.22927 	-0.371159 	2.65892e-20 6.22006 	-0.37231 	1.11705e-20 6.21109 	-0.373368 	-6.41672e-21 6.19835 	-0.375092 	8.65492e-21 6.18723 	-0.376586 	1.24964e-20 6.17704 	-0.377942 	9.65964e-21 6.16688 	-0.37927 	5.12229e-21 6.15761 	-0.380298 	-1.73749e-20 6.14491 	-0.381937 	-1.16076e-20 6.13448 	-0.383257 	-4.17203e-21 6.12399 	-0.384576 	3.26323e-21 6.11344 	-0.385896 	1.06982e-20 6.10328 	-0.387075 	1.51408e-20 6.09541 	-0.388035 	1.58496e-20 6.08845 	-0.388867 	1.64194e-20 6.08146 	-0.3897 	1.69911e-20 6.07445 	-0.390533 	1.75647e-20 6.06766 	-0.391335 	1.81195e-20 6.06397 	-0.391792 	1.90092e-20 6.06027 	-0.392248 	1.99005e-20 6.05657 	-0.392704 	2.07934e-20 6.05285 	-0.393161 	2.1688e-20 6.04921 	-0.393547 	1.74537e-20 6.03886 	-0.39487 	1.33782e-20 6.02829 	-0.396117 	9.3249e-21 6.01766 	-0.397363 	5.26957e-21 6.00698 	-0.398609 	1.21214e-21 5.99653 	-0.399587 	-5.02296e-21 5.98639 	-0.401079 	0 5.97555 	-0.402281 	0 5.96465 	-0.403483 	0 5.9538 	-0.404596 	-1.66735e-21 5.9432 	-0.405414 	-8.90621e-21 5.93288 	-0.40689 	-3.21918e-21 5.92219 	-0.408226 	1.1275e-21 5.91104 	-0.409381 	3.72651e-21 5.90015 	-0.41024 	1.14398e-20 5.88931 	-0.41101 	2.06955e-20 5.87874 	-0.41243 	3.60284e-20 5.86811 	-0.41385 	5.13629e-20 5.85704 	-0.414918 	5.22481e-20 5.84601 	-0.415639 	3.91739e-20 5.83494 	-0.416359 	2.60989e-20 5.82414 	-0.417722 	2.75897e-20 5.81327 	-0.419084 	2.90836e-20 5.80271 	-0.420107 	2.3607e-20 5.79146 	-0.420777 	1.14789e-20 5.78016 	-0.421447 	-6.50134e-22 5.76914 	-0.422751 	-2.00618e-20 5.75824 	-0.423887 	-3.26194e-20 5.74751 	-0.424814 	-3.65295e-20 5.73654 	-0.425657 	-3.49827e-20 5.72503 	-0.426283 	-1.92508e-20 5.7138 	-0.427527 	4.84886e-21 5.70292 	-0.428417 	7.40102e-22 5.69198 	-0.429306 	-3.38558e-21 